/*--------------------------------*- C++ -*----------------------------------*\
| =========                 |                                                 |
| \\      /  F ield         | OpenFOAM: The Open Source CFD Toolbox           |
|  \\    /   O peration     | Version:  dev                                   |
|   \\  /    A nd           | Web:      www.OpenFOAM.org                      |
|    \\/     M anipulation  |                                                 |
\*---------------------------------------------------------------------------*/
FoamFile
{
    version     2.0;
    format      ascii;
    class       volScalarField;
    location    "0.01";
    object      A1C2H3*;
}
// * * * * * * * * * * * * * * * * * * * * * * * * * * * * * * * * * * * * * //

dimensions      [0 0 0 0 0 0 0];

internalField   nonuniform List<scalar> 
2000
(
1.41035e-08
1.40669e-08
1.40105e-08
1.39454e-08
1.38805e-08
1.38204e-08
1.37582e-08
1.37154e-08
1.36767e-08
1.36467e-08
1.36234e-08
1.36047e-08
1.35879e-08
1.3574e-08
1.35623e-08
1.35525e-08
1.35438e-08
1.35379e-08
1.35334e-08
1.35301e-08
1.35275e-08
1.35258e-08
1.35246e-08
1.35239e-08
1.35235e-08
1.35235e-08
1.35239e-08
1.35245e-08
1.35257e-08
1.35275e-08
1.353e-08
1.35334e-08
1.35379e-08
1.35439e-08
1.35526e-08
1.35624e-08
1.35741e-08
1.35882e-08
1.3605e-08
1.36237e-08
1.3647e-08
1.3677e-08
1.37157e-08
1.37586e-08
1.38209e-08
1.38811e-08
1.3946e-08
1.40112e-08
1.40677e-08
1.41045e-08
3.58099e-08
3.56339e-08
3.53797e-08
3.51163e-08
3.4871e-08
3.4652e-08
3.44708e-08
3.43236e-08
3.4199e-08
3.41029e-08
3.40295e-08
3.39706e-08
3.39192e-08
3.3876e-08
3.38399e-08
3.38095e-08
3.37829e-08
3.37638e-08
3.37494e-08
3.37384e-08
3.37303e-08
3.37245e-08
3.37207e-08
3.37183e-08
3.37172e-08
3.37171e-08
3.37182e-08
3.37205e-08
3.37244e-08
3.37302e-08
3.37384e-08
3.37494e-08
3.37639e-08
3.37831e-08
3.38099e-08
3.38404e-08
3.38766e-08
3.39198e-08
3.39713e-08
3.40303e-08
3.41038e-08
3.42001e-08
3.43248e-08
3.44723e-08
3.46537e-08
3.4873e-08
3.51185e-08
3.5382e-08
3.56366e-08
3.5813e-08
3.37896e-08
3.34818e-08
3.30524e-08
3.26417e-08
3.22773e-08
3.19652e-08
3.17342e-08
3.15352e-08
3.13753e-08
3.12537e-08
3.11614e-08
3.10882e-08
3.10257e-08
3.09734e-08
3.09294e-08
3.08923e-08
3.08602e-08
3.08363e-08
3.08182e-08
3.08042e-08
3.07939e-08
3.07866e-08
3.07817e-08
3.07787e-08
3.07773e-08
3.07772e-08
3.07786e-08
3.07816e-08
3.07865e-08
3.07938e-08
3.08042e-08
3.08182e-08
3.08365e-08
3.08605e-08
3.08927e-08
3.09299e-08
3.0974e-08
3.10264e-08
3.1089e-08
3.11624e-08
3.12549e-08
3.13767e-08
3.15369e-08
3.17363e-08
3.19677e-08
3.22801e-08
3.26448e-08
3.30559e-08
3.34857e-08
3.37938e-08
2.29339e-08
2.26438e-08
2.22395e-08
2.18604e-08
2.15279e-08
2.12483e-08
2.10903e-08
2.09151e-08
2.07767e-08
2.06725e-08
2.05932e-08
2.05309e-08
2.04783e-08
2.04345e-08
2.03975e-08
2.03666e-08
2.03398e-08
2.03197e-08
2.03043e-08
2.02925e-08
2.02838e-08
2.02776e-08
2.02735e-08
2.02709e-08
2.02697e-08
2.02697e-08
2.02709e-08
2.02734e-08
2.02775e-08
2.02837e-08
2.02925e-08
2.03043e-08
2.03199e-08
2.03401e-08
2.03669e-08
2.0398e-08
2.0435e-08
2.04789e-08
2.05317e-08
2.0594e-08
2.06735e-08
2.07779e-08
2.09166e-08
2.10921e-08
2.12504e-08
2.15304e-08
2.18632e-08
2.22426e-08
2.26473e-08
2.29376e-08
1.36479e-08
1.34397e-08
1.3148e-08
1.28751e-08
1.26358e-08
1.24364e-08
1.23015e-08
1.21772e-08
1.2079e-08
1.20056e-08
1.19495e-08
1.19059e-08
1.1869e-08
1.18385e-08
1.18127e-08
1.17913e-08
1.17727e-08
1.17588e-08
1.17481e-08
1.174e-08
1.17339e-08
1.17297e-08
1.17268e-08
1.1725e-08
1.17242e-08
1.17242e-08
1.1725e-08
1.17267e-08
1.17296e-08
1.17339e-08
1.174e-08
1.17481e-08
1.17589e-08
1.17729e-08
1.17915e-08
1.1813e-08
1.18389e-08
1.18694e-08
1.19064e-08
1.19501e-08
1.20063e-08
1.20799e-08
1.21783e-08
1.23028e-08
1.24379e-08
1.26376e-08
1.28771e-08
1.31502e-08
1.34423e-08
1.36506e-08
7.91247e-09
7.7787e-09
7.58885e-09
7.40981e-09
7.25178e-09
7.12066e-09
7.02426e-09
6.94244e-09
6.87707e-09
6.82864e-09
6.79141e-09
6.76266e-09
6.73823e-09
6.71821e-09
6.70123e-09
6.68726e-09
6.67506e-09
6.66603e-09
6.65906e-09
6.65382e-09
6.64989e-09
6.64714e-09
6.64526e-09
6.64413e-09
6.64358e-09
6.64357e-09
6.6441e-09
6.64521e-09
6.64709e-09
6.64984e-09
6.6538e-09
6.65908e-09
6.6661e-09
6.67517e-09
6.68742e-09
6.70144e-09
6.71846e-09
6.73852e-09
6.763e-09
6.7918e-09
6.8291e-09
6.87765e-09
6.94313e-09
7.02511e-09
7.12165e-09
7.25295e-09
7.41113e-09
7.59032e-09
7.78038e-09
7.91424e-09
4.6893e-09
4.60484e-09
4.48293e-09
4.36631e-09
4.26227e-09
4.17602e-09
4.10925e-09
4.05526e-09
4.01138e-09
3.97916e-09
3.95431e-09
3.93523e-09
3.91889e-09
3.90557e-09
3.89429e-09
3.88507e-09
3.87694e-09
3.87103e-09
3.86647e-09
3.86307e-09
3.8605e-09
3.85872e-09
3.85749e-09
3.85676e-09
3.8564e-09
3.8564e-09
3.85674e-09
3.85746e-09
3.85869e-09
3.86047e-09
3.86305e-09
3.86648e-09
3.87107e-09
3.87701e-09
3.88518e-09
3.89443e-09
3.90574e-09
3.91909e-09
3.93546e-09
3.95457e-09
3.97947e-09
4.01177e-09
4.05572e-09
4.10981e-09
4.17666e-09
4.26304e-09
4.36718e-09
4.4839e-09
4.60595e-09
4.69048e-09
2.91077e-09
2.85594e-09
2.77533e-09
2.69673e-09
2.62568e-09
2.56671e-09
2.51936e-09
2.4824e-09
2.4516e-09
2.42927e-09
2.41208e-09
2.39893e-09
2.38752e-09
2.37826e-09
2.37044e-09
2.36408e-09
2.35838e-09
2.35434e-09
2.35124e-09
2.34895e-09
2.34722e-09
2.34602e-09
2.34519e-09
2.3447e-09
2.34445e-09
2.34445e-09
2.34468e-09
2.34516e-09
2.346e-09
2.3472e-09
2.34894e-09
2.35125e-09
2.35437e-09
2.35843e-09
2.36415e-09
2.37053e-09
2.37838e-09
2.38766e-09
2.39909e-09
2.41226e-09
2.42948e-09
2.45187e-09
2.48272e-09
2.51974e-09
2.56714e-09
2.62621e-09
2.69733e-09
2.77599e-09
2.85671e-09
2.91159e-09
1.9043e-09
1.86697e-09
1.81126e-09
1.75575e-09
1.70478e-09
1.66245e-09
1.62753e-09
1.60116e-09
1.57831e-09
1.56214e-09
1.54981e-09
1.54037e-09
1.53202e-09
1.52523e-09
1.51953e-09
1.51491e-09
1.51067e-09
1.50777e-09
1.50557e-09
1.50397e-09
1.50275e-09
1.50191e-09
1.50132e-09
1.50098e-09
1.50081e-09
1.5008e-09
1.50097e-09
1.50131e-09
1.50189e-09
1.50273e-09
1.50396e-09
1.50558e-09
1.50779e-09
1.51071e-09
1.51497e-09
1.5196e-09
1.52532e-09
1.53212e-09
1.54048e-09
1.54994e-09
1.56228e-09
1.57851e-09
1.60138e-09
1.6278e-09
1.66275e-09
1.70517e-09
1.75617e-09
1.81173e-09
1.86752e-09
1.90489e-09
1.32003e-09
1.29309e-09
1.25258e-09
1.21117e-09
1.1724e-09
1.1403e-09
1.1132e-09
1.0936e-09
1.0755e-09
1.06324e-09
1.05414e-09
1.04709e-09
1.04066e-09
1.0354e-09
1.03101e-09
1.02746e-09
1.02408e-09
1.02188e-09
1.02026e-09
1.0191e-09
1.01821e-09
1.0176e-09
1.01718e-09
1.01693e-09
1.0168e-09
1.0168e-09
1.01692e-09
1.01716e-09
1.01759e-09
1.0182e-09
1.01909e-09
1.02026e-09
1.02189e-09
1.02412e-09
1.0275e-09
1.03107e-09
1.03547e-09
1.04074e-09
1.04718e-09
1.05424e-09
1.06335e-09
1.07565e-09
1.09377e-09
1.11341e-09
1.14052e-09
1.17269e-09
1.21149e-09
1.25294e-09
1.29352e-09
1.32048e-09
9.67463e-10
9.46874e-10
9.16044e-10
8.83502e-10
8.52142e-10
8.26524e-10
8.04366e-10
7.89457e-10
7.74009e-10
7.64459e-10
7.57747e-10
7.52382e-10
7.47191e-10
7.42889e-10
7.39335e-10
7.36454e-10
7.33559e-10
7.31804e-10
7.30363e-10
7.29268e-10
7.28439e-10
7.2787e-10
7.27472e-10
7.27238e-10
7.27119e-10
7.27116e-10
7.2723e-10
7.27459e-10
7.27857e-10
7.28427e-10
7.29262e-10
7.30366e-10
7.31818e-10
7.33611e-10
7.36491e-10
7.3938e-10
7.42945e-10
7.47257e-10
7.52453e-10
7.57822e-10
7.64536e-10
7.7413e-10
7.89591e-10
8.04528e-10
8.2669e-10
8.52379e-10
8.83757e-10
9.16334e-10
9.47216e-10
9.67825e-10
7.44512e-10
7.27952e-10
7.01411e-10
6.74427e-10
6.50124e-10
6.28818e-10
6.09784e-10
5.9494e-10
5.84324e-10
5.74426e-10
5.6605e-10
5.60857e-10
5.56321e-10
5.52678e-10
5.49709e-10
5.47289e-10
5.44654e-10
5.43207e-10
5.42032e-10
5.41145e-10
5.40475e-10
5.40013e-10
5.3969e-10
5.395e-10
5.39404e-10
5.39402e-10
5.39493e-10
5.3968e-10
5.40002e-10
5.40465e-10
5.4114e-10
5.42035e-10
5.43218e-10
5.44758e-10
5.47321e-10
5.49748e-10
5.52728e-10
5.56378e-10
5.6092e-10
5.66131e-10
5.7454e-10
5.84426e-10
5.95069e-10
6.0992e-10
6.28953e-10
6.50325e-10
6.74656e-10
7.01675e-10
7.28241e-10
7.44819e-10
5.96341e-10
5.82462e-10
5.60422e-10
5.37436e-10
5.16192e-10
4.97936e-10
4.80869e-10
4.6854e-10
4.5886e-10
4.5029e-10
4.43275e-10
4.39072e-10
4.35128e-10
4.31906e-10
4.29321e-10
4.27209e-10
4.24645e-10
4.23411e-10
4.22417e-10
4.21669e-10
4.21104e-10
4.20714e-10
4.20442e-10
4.20282e-10
4.202e-10
4.20198e-10
4.20276e-10
4.20433e-10
4.20705e-10
4.21095e-10
4.21664e-10
4.22419e-10
4.23422e-10
4.24897e-10
4.27239e-10
4.29356e-10
4.31952e-10
4.35178e-10
4.39126e-10
4.43345e-10
4.50388e-10
4.58949e-10
4.68651e-10
4.80984e-10
4.98054e-10
5.16371e-10
5.37634e-10
5.60656e-10
5.82716e-10
5.96612e-10
4.93085e-10
4.81065e-10
4.62349e-10
4.42274e-10
4.23128e-10
4.06551e-10
3.91282e-10
3.80926e-10
3.71905e-10
3.64232e-10
3.55505e-10
3.52099e-10
3.48518e-10
3.45533e-10
3.43194e-10
3.41273e-10
3.38549e-10
3.37466e-10
3.36594e-10
3.35938e-10
3.35444e-10
3.35102e-10
3.34863e-10
3.34722e-10
3.3465e-10
3.34649e-10
3.34717e-10
3.34855e-10
3.35094e-10
3.35436e-10
3.35934e-10
3.36596e-10
3.37476e-10
3.39238e-10
3.41302e-10
3.43226e-10
3.45579e-10
3.48564e-10
3.52148e-10
3.55567e-10
3.64319e-10
3.71984e-10
3.81026e-10
3.91381e-10
4.06671e-10
4.23293e-10
4.42451e-10
4.62561e-10
4.81294e-10
4.93333e-10
4.18076e-10
4.0738e-10
3.88547e-10
3.70547e-10
3.5476e-10
3.38148e-10
3.26394e-10
3.15017e-10
3.06493e-10
3.00027e-10
2.93764e-10
2.88685e-10
2.85468e-10
2.82709e-10
2.80606e-10
2.78871e-10
2.78333e-10
2.77395e-10
2.76631e-10
2.76057e-10
2.75624e-10
2.75323e-10
2.75113e-10
2.74989e-10
2.74926e-10
2.74925e-10
2.74984e-10
2.75106e-10
2.75316e-10
2.75617e-10
2.76053e-10
2.76633e-10
2.77401e-10
2.77707e-10
2.78896e-10
2.80635e-10
2.82756e-10
2.8551e-10
2.88728e-10
2.9382e-10
3.00085e-10
3.06565e-10
3.15107e-10
3.26481e-10
3.38269e-10
3.54887e-10
3.70709e-10
3.88745e-10
4.07591e-10
4.18312e-10
3.61705e-10
3.51963e-10
3.34982e-10
3.16604e-10
3.02126e-10
2.88907e-10
2.75899e-10
2.65594e-10
2.57398e-10
2.515e-10
2.47442e-10
2.42943e-10
2.40017e-10
2.37412e-10
2.35492e-10
2.33892e-10
2.33222e-10
2.32173e-10
2.31354e-10
2.30754e-10
2.3031e-10
2.30005e-10
2.29794e-10
2.2967e-10
2.29608e-10
2.29606e-10
2.29665e-10
2.29787e-10
2.29997e-10
2.30303e-10
2.30749e-10
2.31357e-10
2.32182e-10
2.32989e-10
2.33916e-10
2.35519e-10
2.37462e-10
2.40055e-10
2.42982e-10
2.47493e-10
2.51552e-10
2.57464e-10
2.65678e-10
2.76026e-10
2.89033e-10
3.02247e-10
3.16754e-10
3.35166e-10
3.5216e-10
3.61931e-10
3.17239e-10
3.09134e-10
2.93548e-10
2.76478e-10
2.61421e-10
2.49357e-10
2.3824e-10
2.27393e-10
2.20956e-10
2.15499e-10
2.11735e-10
2.07398e-10
2.04073e-10
2.0127e-10
1.99344e-10
1.97858e-10
1.97089e-10
1.96135e-10
1.9539e-10
1.94842e-10
1.94438e-10
1.9416e-10
1.93969e-10
1.93856e-10
1.93799e-10
1.93798e-10
1.93851e-10
1.93962e-10
1.94153e-10
1.94431e-10
1.94838e-10
1.95393e-10
1.96144e-10
1.97009e-10
1.97881e-10
1.99369e-10
2.01328e-10
2.04111e-10
2.07446e-10
2.11782e-10
2.15546e-10
2.21017e-10
2.27471e-10
2.38363e-10
2.49475e-10
2.61537e-10
2.76621e-10
2.93721e-10
3.09321e-10
3.17447e-10
2.81688e-10
2.74169e-10
2.60803e-10
2.44724e-10
2.30511e-10
2.18044e-10
2.08377e-10
1.98384e-10
1.92166e-10
1.86966e-10
1.82575e-10
1.78462e-10
1.75343e-10
1.7259e-10
1.70792e-10
1.69405e-10
1.68557e-10
1.67682e-10
1.66997e-10
1.66493e-10
1.66122e-10
1.65866e-10
1.65691e-10
1.65587e-10
1.65535e-10
1.65534e-10
1.65583e-10
1.65685e-10
1.65859e-10
1.66116e-10
1.66489e-10
1.67e-10
1.6769e-10
1.68535e-10
1.69426e-10
1.70816e-10
1.72653e-10
1.75377e-10
1.78506e-10
1.82624e-10
1.87026e-10
1.92223e-10
1.98459e-10
2.08461e-10
2.1816e-10
2.30622e-10
2.4486e-10
2.60967e-10
2.74342e-10
2.8188e-10
2.53066e-10
2.459e-10
2.33633e-10
2.19151e-10
2.05623e-10
1.93864e-10
1.84433e-10
1.75025e-10
1.68564e-10
1.63161e-10
1.59005e-10
1.55178e-10
1.52228e-10
1.50405e-10
1.48702e-10
1.474e-10
1.46485e-10
1.45674e-10
1.45039e-10
1.4457e-10
1.44227e-10
1.43989e-10
1.43827e-10
1.43732e-10
1.43684e-10
1.43683e-10
1.43728e-10
1.43822e-10
1.43983e-10
1.44221e-10
1.44567e-10
1.45041e-10
1.45682e-10
1.46483e-10
1.47419e-10
1.48725e-10
1.50469e-10
1.5226e-10
1.55219e-10
1.59051e-10
1.63217e-10
1.6863e-10
1.75097e-10
1.84516e-10
1.93976e-10
2.05731e-10
2.19283e-10
2.33782e-10
2.46063e-10
2.53236e-10
2.30396e-10
2.23596e-10
2.11252e-10
1.97948e-10
1.85298e-10
1.7413e-10
1.64918e-10
1.55943e-10
1.49622e-10
1.44487e-10
1.40523e-10
1.3691e-10
1.34081e-10
1.32122e-10
1.30318e-10
1.28991e-10
1.27935e-10
1.27134e-10
1.26508e-10
1.26047e-10
1.25709e-10
1.25477e-10
1.25318e-10
1.25225e-10
1.25179e-10
1.25177e-10
1.25221e-10
1.25313e-10
1.2547e-10
1.25703e-10
1.26043e-10
1.2651e-10
1.27142e-10
1.27943e-10
1.29011e-10
1.30343e-10
1.32187e-10
1.3411e-10
1.36948e-10
1.40566e-10
1.44541e-10
1.49687e-10
1.56013e-10
1.65e-10
1.74236e-10
1.85404e-10
1.98064e-10
2.11394e-10
2.23747e-10
2.30552e-10
2.11009e-10
2.04749e-10
1.93458e-10
1.80695e-10
1.6851e-10
1.57162e-10
1.48372e-10
1.40175e-10
1.33577e-10
1.2868e-10
1.2481e-10
1.21269e-10
1.1847e-10
1.16591e-10
1.14807e-10
1.13552e-10
1.13029e-10
1.12279e-10
1.11691e-10
1.11255e-10
1.10938e-10
1.10719e-10
1.10571e-10
1.10483e-10
1.1044e-10
1.10439e-10
1.10479e-10
1.10565e-10
1.10713e-10
1.10932e-10
1.11252e-10
1.11693e-10
1.12287e-10
1.13039e-10
1.1357e-10
1.1483e-10
1.16639e-10
1.18497e-10
1.21308e-10
1.24854e-10
1.28734e-10
1.33641e-10
1.40243e-10
1.48444e-10
1.57267e-10
1.68614e-10
1.80808e-10
1.93594e-10
2.04885e-10
2.11163e-10
1.94723e-10
1.88779e-10
1.78051e-10
1.65779e-10
1.54172e-10
1.42894e-10
1.34339e-10
1.26666e-10
1.20445e-10
1.15213e-10
1.11522e-10
1.08129e-10
1.05396e-10
1.03612e-10
1.02335e-10
1.0114e-10
1.004e-10
9.95706e-11
9.89519e-11
9.85005e-11
9.81773e-11
9.79549e-11
9.78063e-11
9.77191e-11
9.76761e-11
9.76746e-11
9.77148e-11
9.78009e-11
9.79487e-11
9.81714e-11
9.84975e-11
9.8954e-11
9.95783e-11
1.00413e-10
1.01157e-10
1.02356e-10
1.03635e-10
1.0542e-10
1.08166e-10
1.11563e-10
1.15265e-10
1.20509e-10
1.26724e-10
1.3441e-10
1.42994e-10
1.54266e-10
1.65894e-10
1.78184e-10
1.88875e-10
1.94879e-10
1.81336e-10
1.75312e-10
1.65029e-10
1.53147e-10
1.41865e-10
1.31355e-10
1.22506e-10
1.15083e-10
1.09358e-10
1.04299e-10
1.00301e-10
9.70273e-11
9.47752e-11
9.30803e-11
9.15205e-11
9.02607e-11
8.94874e-11
8.86914e-11
8.80991e-11
8.76664e-11
8.73575e-11
8.71449e-11
8.70035e-11
8.69206e-11
8.688e-11
8.68785e-11
8.69165e-11
8.69984e-11
8.7139e-11
8.73519e-11
8.76634e-11
8.8101e-11
8.86989e-11
8.95001e-11
9.02764e-11
9.15412e-11
9.30844e-11
9.47974e-11
9.70632e-11
1.00341e-10
1.04349e-10
1.09424e-10
1.1514e-10
1.22575e-10
1.31452e-10
1.41959e-10
1.5326e-10
1.65158e-10
1.7533e-10
1.81497e-10
1.69867e-10
1.63867e-10
1.53959e-10
1.42416e-10
1.31417e-10
1.21456e-10
1.12438e-10
1.05232e-10
9.99148e-11
9.4893e-11
9.07391e-11
8.75616e-11
8.56429e-11
8.37585e-11
8.22174e-11
8.0999e-11
8.02022e-11
7.94346e-11
7.88646e-11
7.84476e-11
7.81509e-11
7.79467e-11
7.78115e-11
7.77322e-11
7.76936e-11
7.76921e-11
7.77283e-11
7.78066e-11
7.7941e-11
7.81454e-11
7.84448e-11
7.88664e-11
7.94418e-11
8.02146e-11
8.10136e-11
8.22368e-11
8.37528e-11
8.56773e-11
8.75967e-11
9.07774e-11
9.49297e-11
9.99598e-11
1.05286e-10
1.12507e-10
1.2154e-10
1.31509e-10
1.42528e-10
1.54087e-10
1.64158e-10
1.70018e-10
1.59709e-10
1.54332e-10
1.44473e-10
1.33233e-10
1.22481e-10
1.12697e-10
1.03802e-10
9.67906e-11
9.15021e-11
8.66111e-11
8.28676e-11
7.97557e-11
7.75851e-11
7.57551e-11
7.42406e-11
7.30567e-11
7.22432e-11
7.14997e-11
7.09482e-11
7.05449e-11
7.02584e-11
7.00614e-11
6.99313e-11
6.98552e-11
6.98182e-11
6.98168e-11
6.98513e-11
6.99266e-11
7.00559e-11
7.02532e-11
7.05422e-11
7.09498e-11
7.15068e-11
7.22552e-11
7.30706e-11
7.42588e-11
7.57494e-11
7.76193e-11
7.97902e-11
8.29048e-11
8.66466e-11
9.15456e-11
9.6843e-11
1.03871e-10
1.12779e-10
1.22573e-10
1.33344e-10
1.44602e-10
1.54551e-10
1.59864e-10
1.5114e-10
1.45767e-10
1.36283e-10
1.2532e-10
1.14791e-10
1.05156e-10
9.66815e-11
8.95135e-11
8.42513e-11
7.94646e-11
7.57936e-11
7.30268e-11
7.06261e-11
6.88383e-11
6.73558e-11
6.62003e-11
6.53757e-11
6.46527e-11
6.41169e-11
6.37254e-11
6.34476e-11
6.32566e-11
6.31309e-11
6.30574e-11
6.30218e-11
6.30204e-11
6.30536e-11
6.31263e-11
6.32513e-11
6.34425e-11
6.37228e-11
6.41185e-11
6.46597e-11
6.53874e-11
6.6214e-11
6.7374e-11
6.88368e-11
7.06605e-11
7.30606e-11
7.58297e-11
7.95029e-11
8.42963e-11
8.95637e-11
9.67518e-11
1.05236e-10
1.14882e-10
1.25432e-10
1.36415e-10
1.45948e-10
1.51296e-10
1.43481e-10
1.3852e-10
1.29437e-10
1.18458e-10
1.08135e-10
9.8626e-11
9.04015e-11
8.32051e-11
7.79686e-11
7.32573e-11
6.99032e-11
6.70212e-11
6.45784e-11
6.28253e-11
6.13794e-11
6.02463e-11
5.9415e-11
5.87097e-11
5.81873e-11
5.78059e-11
5.75353e-11
5.73496e-11
5.72275e-11
5.71561e-11
5.71216e-11
5.71202e-11
5.71525e-11
5.72231e-11
5.73443e-11
5.75305e-11
5.78034e-11
5.81888e-11
5.87165e-11
5.94264e-11
6.02601e-11
6.13976e-11
6.28296e-11
6.4613e-11
6.70489e-11
6.99385e-11
7.3303e-11
7.80142e-11
8.32543e-11
9.04644e-11
9.87056e-11
1.08227e-10
1.1857e-10
1.29571e-10
1.38684e-10
1.4363e-10
1.36662e-10
1.32056e-10
1.23236e-10
1.12467e-10
1.02345e-10
9.29432e-11
8.47993e-11
7.77092e-11
7.24962e-11
6.80602e-11
6.45667e-11
6.17274e-11
5.95066e-11
5.75702e-11
5.6164e-11
5.50487e-11
5.42138e-11
5.35241e-11
5.30131e-11
5.26404e-11
5.23759e-11
5.21945e-11
5.20755e-11
5.20058e-11
5.19722e-11
5.19709e-11
5.20023e-11
5.20712e-11
5.21894e-11
5.23711e-11
5.26379e-11
5.30145e-11
5.35308e-11
5.42249e-11
5.50627e-11
5.61824e-11
5.75802e-11
5.95418e-11
6.1754e-11
6.46054e-11
6.81084e-11
7.25417e-11
7.7761e-11
8.48628e-11
9.30222e-11
1.02436e-10
1.1258e-10
1.23366e-10
1.32202e-10
1.36809e-10
1.3075e-10
1.26212e-10
1.1776e-10
1.07427e-10
9.72835e-11
8.79752e-11
7.99043e-11
7.28966e-11
6.77062e-11
6.33283e-11
5.988e-11
5.70853e-11
5.49275e-11
5.2953e-11
5.15911e-11
5.04897e-11
4.96536e-11
4.8978e-11
4.84763e-11
4.81112e-11
4.78517e-11
4.76741e-11
4.75576e-11
4.74893e-11
4.74564e-11
4.74551e-11
4.74858e-11
4.75534e-11
4.76691e-11
4.78471e-11
4.81087e-11
4.84777e-11
4.89844e-11
4.96645e-11
5.05042e-11
5.16097e-11
5.29682e-11
5.49532e-11
5.71123e-11
5.99184e-11
6.33695e-11
6.77506e-11
7.29555e-11
7.99684e-11
8.80536e-11
9.73754e-11
1.07542e-10
1.17884e-10
1.26355e-10
1.30892e-10
1.25437e-10
1.21156e-10
1.13095e-10
1.02966e-10
9.28386e-11
8.36142e-11
7.56099e-11
6.8854e-11
6.34968e-11
5.93155e-11
5.5753e-11
5.29983e-11
5.08631e-11
4.88741e-11
4.75643e-11
4.64738e-11
4.56379e-11
4.4975e-11
4.4481e-11
4.41224e-11
4.38672e-11
4.36928e-11
4.35783e-11
4.35111e-11
4.34787e-11
4.34774e-11
4.35076e-11
4.35741e-11
4.36878e-11
4.38627e-11
4.41199e-11
4.44824e-11
4.49813e-11
4.56486e-11
4.64887e-11
4.75831e-11
4.88959e-11
5.08885e-11
5.30259e-11
5.57915e-11
5.93525e-11
6.35387e-11
6.89163e-11
7.56744e-11
8.36922e-11
9.2931e-11
1.03073e-10
1.13206e-10
1.21297e-10
1.25568e-10
1.20509e-10
1.16604e-10
1.08827e-10
9.88757e-11
8.89166e-11
7.97714e-11
7.18275e-11
6.51409e-11
5.97842e-11
5.57102e-11
5.21021e-11
4.93858e-11
4.72717e-11
4.53994e-11
4.40046e-11
4.29222e-11
4.20875e-11
4.14361e-11
4.09483e-11
4.05952e-11
4.03438e-11
4.0172e-11
4.00592e-11
3.99928e-11
3.99608e-11
3.99595e-11
3.99894e-11
4.0055e-11
4.01671e-11
4.03393e-11
4.05929e-11
4.09496e-11
4.14423e-11
4.20978e-11
4.29375e-11
4.40235e-11
4.54295e-11
4.72973e-11
4.94141e-11
5.21409e-11
5.57544e-11
5.98217e-11
6.52005e-11
7.18923e-11
7.9849e-11
8.90097e-11
9.89845e-11
1.08904e-10
1.16744e-10
1.2062e-10
1.15975e-10
1.1245e-10
1.04978e-10
9.52321e-11
8.544e-11
7.63732e-11
6.84844e-11
6.18382e-11
5.65025e-11
5.2442e-11
4.89958e-11
4.61814e-11
4.40856e-11
4.22974e-11
4.0845e-11
3.97692e-11
3.89374e-11
3.82952e-11
3.78129e-11
3.74645e-11
3.72164e-11
3.70467e-11
3.69351e-11
3.68694e-11
3.68377e-11
3.68364e-11
3.6866e-11
3.6931e-11
3.70418e-11
3.72119e-11
3.74623e-11
3.78141e-11
3.83017e-11
3.89472e-11
3.97848e-11
4.08637e-11
4.23196e-11
4.41113e-11
4.62103e-11
4.90352e-11
5.2483e-11
5.65376e-11
6.18965e-11
6.85495e-11
7.64503e-11
8.5534e-11
9.53432e-11
1.05156e-10
1.12594e-10
1.16172e-10
1.1189e-10
1.08674e-10
1.01619e-10
9.21037e-11
8.2488e-11
7.33583e-11
6.55202e-11
5.89055e-11
5.35963e-11
4.95372e-11
4.61758e-11
4.33284e-11
4.12492e-11
3.9461e-11
3.80293e-11
3.69604e-11
3.61324e-11
3.54978e-11
3.50201e-11
3.46757e-11
3.44304e-11
3.42624e-11
3.41519e-11
3.40867e-11
3.40552e-11
3.4054e-11
3.40833e-11
3.41478e-11
3.42576e-11
3.44259e-11
3.46736e-11
3.50212e-11
3.55045e-11
3.61418e-11
3.69764e-11
3.80477e-11
3.94848e-11
4.12751e-11
4.33581e-11
4.62106e-11
4.95757e-11
5.36538e-11
5.89626e-11
6.55854e-11
7.34345e-11
8.25831e-11
9.22172e-11
1.01772e-10
1.08816e-10
1.12059e-10
1.07987e-10
1.05086e-10
9.85597e-11
8.9271e-11
7.97877e-11
7.06746e-11
6.28838e-11
5.62948e-11
5.11133e-11
4.69482e-11
4.36106e-11
4.07792e-11
3.87159e-11
3.69308e-11
3.55103e-11
3.44501e-11
3.36262e-11
3.29978e-11
3.25241e-11
3.2183e-11
3.19401e-11
3.17736e-11
3.16639e-11
3.15991e-11
3.15677e-11
3.15665e-11
3.15957e-11
3.16598e-11
3.17688e-11
3.19357e-11
3.21809e-11
3.25252e-11
3.30045e-11
3.36353e-11
3.44665e-11
3.55284e-11
3.69549e-11
3.8742e-11
4.08097e-11
4.36457e-11
4.69852e-11
5.11686e-11
5.63509e-11
6.29491e-11
7.07496e-11
7.98793e-11
8.93768e-11
9.86977e-11
1.05227e-10
1.08161e-10
1.04401e-10
1.01745e-10
9.57571e-11
8.67285e-11
7.73236e-11
6.82788e-11
6.05323e-11
5.39647e-11
4.87932e-11
4.46344e-11
4.13164e-11
3.84931e-11
3.64463e-11
3.46662e-11
3.32475e-11
3.21995e-11
3.13796e-11
3.07561e-11
3.0286e-11
2.99477e-11
2.97069e-11
2.95415e-11
2.94324e-11
2.93679e-11
2.93367e-11
2.93354e-11
2.93645e-11
2.94283e-11
2.95367e-11
2.97025e-11
2.99455e-11
3.0287e-11
3.07629e-11
3.13884e-11
3.22163e-11
3.32658e-11
3.46902e-11
3.64725e-11
3.85245e-11
4.13516e-11
4.4671e-11
4.8842e-11
5.40202e-11
6.05977e-11
6.83525e-11
7.7416e-11
8.6836e-11
9.58867e-11
1.01884e-10
1.04525e-10
1.00997e-10
9.86052e-11
9.30716e-11
8.44186e-11
7.51055e-11
6.61344e-11
5.84289e-11
5.188e-11
4.67056e-11
4.25612e-11
3.92584e-11
3.65209e-11
3.44066e-11
3.26329e-11
3.12068e-11
3.01758e-11
2.93591e-11
2.87396e-11
2.82726e-11
2.79366e-11
2.76977e-11
2.75332e-11
2.74246e-11
2.73604e-11
2.73293e-11
2.7328e-11
2.7357e-11
2.74206e-11
2.75285e-11
2.76933e-11
2.79343e-11
2.82737e-11
2.87464e-11
2.93678e-11
3.01928e-11
3.12267e-11
3.26569e-11
3.44332e-11
3.65533e-11
3.92937e-11
4.25985e-11
4.67514e-11
5.19354e-11
5.84944e-11
6.62089e-11
7.51985e-11
8.45275e-11
9.31965e-11
9.87414e-11
1.01135e-10
9.76964e-11
9.56288e-11
9.057e-11
8.23073e-11
7.30981e-11
6.42084e-11
5.65426e-11
5.00108e-11
4.4829e-11
4.06976e-11
3.7408e-11
3.47343e-11
3.25674e-11
3.08019e-11
2.94342e-11
2.83494e-11
2.75361e-11
2.692e-11
2.64557e-11
2.61215e-11
2.58844e-11
2.57206e-11
2.56125e-11
2.55484e-11
2.55174e-11
2.55162e-11
2.55451e-11
2.56085e-11
2.57159e-11
2.58801e-11
2.61192e-11
2.64569e-11
2.69266e-11
2.75448e-11
2.83664e-11
2.94572e-11
3.08259e-11
3.25947e-11
3.47619e-11
3.74431e-11
4.07367e-11
4.4873e-11
5.00663e-11
5.66083e-11
6.42888e-11
7.31913e-11
8.24171e-11
9.0692e-11
9.57619e-11
9.78388e-11
9.45207e-11
9.27846e-11
8.82214e-11
8.03668e-11
7.13591e-11
6.25532e-11
5.48472e-11
4.83317e-11
4.32196e-11
3.9093e-11
3.57395e-11
3.30677e-11
3.09047e-11
2.9147e-11
2.78086e-11
2.66956e-11
2.58861e-11
2.52726e-11
2.48109e-11
2.44782e-11
2.42426e-11
2.40794e-11
2.39717e-11
2.39078e-11
2.38769e-11
2.38757e-11
2.39045e-11
2.39677e-11
2.40748e-11
2.42383e-11
2.44759e-11
2.48123e-11
2.52791e-11
2.58948e-11
2.67126e-11
2.78282e-11
2.91711e-11
3.09316e-11
3.30966e-11
3.57746e-11
3.91335e-11
4.32626e-11
4.83874e-11
5.4913e-11
6.26337e-11
7.14516e-11
8.04763e-11
8.83414e-11
9.29142e-11
9.46606e-11
9.14598e-11
9.01233e-11
8.60006e-11
7.85752e-11
6.97805e-11
6.10621e-11
5.33215e-11
4.68216e-11
4.17198e-11
3.75904e-11
3.42316e-11
3.15609e-11
2.93952e-11
2.76467e-11
2.63075e-11
2.51921e-11
2.43877e-11
2.3776e-11
2.33169e-11
2.29852e-11
2.2751e-11
2.25883e-11
2.24809e-11
2.24171e-11
2.23863e-11
2.23851e-11
2.24138e-11
2.24769e-11
2.25837e-11
2.27467e-11
2.2983e-11
2.33184e-11
2.37822e-11
2.43964e-11
2.52089e-11
2.63272e-11
2.76708e-11
2.94221e-11
3.15906e-11
3.42669e-11
3.76302e-11
4.17681e-11
4.68777e-11
5.33876e-11
6.114e-11
6.98715e-11
7.86817e-11
8.61188e-11
9.02493e-11
9.15959e-11
8.84971e-11
8.7514e-11
8.38911e-11
7.68482e-11
6.83522e-11
5.96787e-11
5.19533e-11
4.54671e-11
4.03586e-11
3.62267e-11
3.28673e-11
3.01958e-11
2.80756e-11
2.62821e-11
2.49417e-11
2.38184e-11
2.30214e-11
2.24106e-11
2.19539e-11
2.1623e-11
2.13899e-11
2.12276e-11
2.11204e-11
2.10568e-11
2.10261e-11
2.10249e-11
2.10535e-11
2.11165e-11
2.12229e-11
2.13855e-11
2.16208e-11
2.19553e-11
2.24168e-11
2.30299e-11
2.38352e-11
2.49613e-11
2.63065e-11
2.81029e-11
3.0226e-11
3.2903e-11
3.62668e-11
4.04068e-11
4.55236e-11
5.20198e-11
5.97598e-11
6.84408e-11
7.69534e-11
8.40076e-11
8.76383e-11
8.8629e-11
)
;

boundaryField
{
    fuel
    {
        type            fixedValue;
        value           uniform 0;
    }
    wall
    {
        type            zeroGradient;
    }
    outlet
    {
        type            zeroGradient;
    }
    frontAndBack
    {
        type            empty;
    }
    procBoundary1to0
    {
        type            processor;
        value           nonuniform List<scalar> 
50
(
8.56015e-11
8.49332e-11
8.1838e-11
7.51959e-11
6.69477e-11
5.83738e-11
5.069e-11
4.42236e-11
3.91139e-11
3.49814e-11
3.16214e-11
2.89521e-11
2.68558e-11
2.50403e-11
2.36989e-11
2.26136e-11
2.17752e-11
2.11673e-11
2.07132e-11
2.03833e-11
2.01515e-11
1.99896e-11
1.98829e-11
1.98194e-11
1.97888e-11
1.97876e-11
1.98162e-11
1.9879e-11
1.9985e-11
2.0147e-11
2.03812e-11
2.07144e-11
2.11737e-11
2.17834e-11
2.26303e-11
2.37183e-11
2.50647e-11
2.68815e-11
2.89824e-11
3.16578e-11
3.50218e-11
3.9162e-11
4.42803e-11
5.0757e-11
5.84537e-11
6.70363e-11
7.53006e-11
8.19527e-11
8.50543e-11
8.57295e-11
)
;
    }
}


// ************************************************************************* //
