/*--------------------------------*- C++ -*----------------------------------*\
| =========                 |                                                 |
| \\      /  F ield         | OpenFOAM: The Open Source CFD Toolbox           |
|  \\    /   O peration     | Version:  dev                                   |
|   \\  /    A nd           | Web:      www.OpenFOAM.org                      |
|    \\/     M anipulation  |                                                 |
\*---------------------------------------------------------------------------*/
FoamFile
{
    version     2.0;
    format      ascii;
    class       volScalarField;
    location    "0.01";
    object      A2C2HA;
}
// * * * * * * * * * * * * * * * * * * * * * * * * * * * * * * * * * * * * * //

dimensions      [0 0 0 0 0 0 0];

internalField   nonuniform List<scalar> 
250
(
3.04089e-09
3.70365e-09
5.87245e-09
8.57408e-09
1.33927e-08
1.85552e-08
1.0764e-08
7.85575e-10
1.35181e-10
8.75469e-11
2.83454e-09
3.52164e-09
5.7063e-09
8.6583e-09
1.28512e-08
1.67281e-08
8.66634e-09
6.88665e-10
1.56557e-10
1.12554e-10
1.11702e-10
1.51867e-10
6.22709e-10
7.85211e-09
1.61144e-08
1.29806e-08
8.55706e-09
5.65868e-09
3.51537e-09
2.82785e-09
2.61664e-09
3.31398e-09
5.42942e-09
8.52373e-09
1.22192e-08
1.47362e-08
6.83538e-09
6.20294e-10
1.8784e-10
1.46999e-10
1.46085e-10
1.83721e-10
5.68456e-10
6.16423e-09
1.40321e-08
1.22314e-08
8.42677e-09
5.3859e-09
3.30907e-09
2.61043e-09
2.42769e-09
3.05133e-09
5.04932e-09
8.14828e-09
1.14131e-08
1.26221e-08
5.28933e-09
5.75108e-10
2.28493e-10
1.91169e-10
1.9021e-10
2.24958e-10
5.34856e-10
4.75451e-09
1.18749e-08
1.13393e-08
8.05329e-09
5.00701e-09
3.04607e-09
2.42208e-09
2.2381e-09
2.77648e-09
4.58138e-09
7.53364e-09
1.04225e-08
1.0474e-08
4.02468e-09
5.48625e-10
2.76628e-10
2.43596e-10
2.42629e-10
2.7373e-10
5.18181e-10
3.61369e-09
9.73673e-09
1.02615e-08
7.43736e-09
4.53903e-09
2.77046e-09
2.23288e-09
2.05249e-09
2.5009e-09
4.05209e-09
6.71237e-09
9.21372e-09
8.40182e-09
3.02317e-09
5.37861e-10
3.30259e-10
3.02265e-10
3.0132e-10
3.28048e-10
5.15766e-10
2.71925e-09
7.72354e-09
8.99321e-09
6.61352e-09
4.00954e-09
2.49394e-09
2.04814e-09
1.87921e-09
2.23355e-09
3.49585e-09
5.74922e-09
7.83244e-09
6.51122e-09
2.25866e-09
5.42414e-10
3.89448e-10
3.66993e-10
3.66079e-10
3.87943e-10
5.27371e-10
2.04324e-09
5.92865e-09
7.58171e-09
5.64972e-09
3.45431e-09
2.22608e-09
1.87623e-09
1.72268e-09
1.9864e-09
2.95123e-09
4.73171e-09
6.37099e-09
4.88319e-09
1.70274e-09
5.65356e-10
4.57985e-10
4.4138e-10
4.40482e-10
4.57177e-10
5.56198e-10
1.55745e-09
4.41661e-09
6.12109e-09
4.63645e-09
2.91287e-09
1.97931e-09
1.72146e-09
1.58525e-09
1.77085e-09
2.45614e-09
3.75387e-09
4.94996e-09
3.56506e-09
1.32805e-09
6.1284e-10
5.43145e-10
5.32592e-10
5.31689e-10
5.43006e-10
6.08523e-10
1.23611e-09
3.21859e-09
4.72799e-09
3.66899e-09
2.42312e-09
1.76514e-09
1.5861e-09
1.46845e-09
1.59535e-09
2.0416e-09
2.89842e-09
3.68771e-09
2.57159e-09
1.10913e-09
6.91656e-10
6.52869e-10
6.48385e-10
6.47471e-10
6.53344e-10
6.91208e-10
1.05609e-09
2.33612e-09
3.51197e-09
2.82939e-09
2.0157e-09
1.59187e-09
1.47154e-09
1.3736e-09
1.46437e-09
1.7269e-09
2.22322e-09
2.67448e-09
1.8901e-09
1.02024e-09
8.04259e-10
7.90253e-10
7.91409e-10
7.90515e-10
7.91247e-10
8.06704e-10
9.94149e-10
1.74735e-09
2.55232e-09
2.17327e-09
1.70907e-09
1.46356e-09
1.37888e-09
1.30216e-09
1.37764e-09
1.51791e-09
1.75699e-09
1.96107e-09
1.48579e-09
1.02919e-09
9.40097e-10
9.44177e-10
9.49634e-10
9.48826e-10
9.45517e-10
9.44349e-10
1.0203e-09
1.41194e-09
1.88885e-09
1.72592e-09
1.50783e-09
1.37946e-09
1.30931e-09
1.25826e-09
1.33135e-09
1.40832e-09
1.50343e-09
1.56419e-09
1.30388e-09
1.08328e-09
1.05928e-09
1.07304e-09
1.08046e-09
1.07978e-09
1.07451e-09
1.06421e-09
1.08333e-09
1.27115e-09
1.52734e-09
1.48639e-09
1.40387e-09
1.33505e-09
1.26659e-09
)
;

boundaryField
{
    fuel
    {
        type            fixedValue;
        value           nonuniform 0();
    }
    wall
    {
        type            zeroGradient;
    }
    outlet
    {
        type            zeroGradient;
    }
    frontAndBack
    {
        type            empty;
    }
    procBoundary1to0
    {
        type            processor;
        value           nonuniform List<scalar> 
21
(
3.23676e-09
3.85325e-09
5.9317e-09
8.30583e-09
1.38926e-08
2.02329e-08
1.3082e-08
9.15906e-10
1.22834e-10
7.025e-11
8.6727e-11
8.6727e-11
1.29839e-10
7.01406e-10
9.81444e-09
1.80609e-08
1.36422e-08
8.46883e-09
5.81942e-09
3.7017e-09
3.02595e-09
)
;
    }
}


// ************************************************************************* //
