/*--------------------------------*- C++ -*----------------------------------*\
| =========                 |                                                 |
| \\      /  F ield         | OpenFOAM: The Open Source CFD Toolbox           |
|  \\    /   O peration     | Version:  dev                                   |
|   \\  /    A nd           | Web:      www.OpenFOAM.org                      |
|    \\/     M anipulation  |                                                 |
\*---------------------------------------------------------------------------*/
FoamFile
{
    version     2.0;
    format      ascii;
    class       volScalarField;
    location    "0.01";
    object      C;
}
// * * * * * * * * * * * * * * * * * * * * * * * * * * * * * * * * * * * * * //

dimensions      [0 0 0 0 0 0 0];

internalField   nonuniform List<scalar> 
250
(
4.5506e-13
7.66202e-13
1.21969e-12
2.06005e-12
7.31457e-12
3.23995e-11
1.94441e-10
6.35494e-10
1.10837e-09
1.31881e-09
4.59594e-13
7.91475e-13
1.4596e-12
2.70423e-12
8.11024e-12
3.02164e-11
1.50596e-10
4.33628e-10
7.31185e-10
8.64863e-10
8.6847e-10
7.38725e-10
4.42163e-10
1.54435e-10
3.09177e-11
8.29953e-12
2.79836e-12
1.48566e-12
8.04156e-13
4.61138e-13
4.34979e-13
7.75839e-13
1.53246e-12
3.06559e-12
8.17312e-12
2.64081e-11
1.10983e-10
2.84946e-10
4.65076e-10
5.46548e-10
5.48499e-10
4.69552e-10
2.90274e-10
1.13621e-10
2.69761e-11
8.3221e-12
3.13409e-12
1.54406e-12
7.90857e-13
4.3583e-13
3.83983e-13
7.19395e-13
1.44702e-12
3.05574e-12
7.52369e-12
2.1652e-11
7.81579e-11
1.81124e-10
2.86293e-10
3.33363e-10
3.34483e-10
2.89047e-10
1.84505e-10
8.00033e-11
2.21273e-11
7.65021e-12
3.10662e-12
1.46276e-12
7.26257e-13
3.84952e-13
3.12842e-13
6.17504e-13
1.26998e-12
2.74311e-12
6.39228e-12
1.67642e-11
5.2941e-11
1.11885e-10
1.71201e-10
1.97506e-10
1.98193e-10
1.72872e-10
1.13986e-10
5.41919e-11
1.71423e-11
6.49827e-12
2.78121e-12
1.28436e-12
6.22465e-13
3.13831e-13
2.31175e-13
4.89878e-13
1.04429e-12
2.2677e-12
5.07377e-12
1.23481e-11
3.46435e-11
6.72499e-11
9.95046e-11
1.13549e-10
1.13965e-10
1.00495e-10
6.85245e-11
3.5464e-11
1.26324e-11
5.15995e-12
2.29728e-12
1.05597e-12
4.93927e-13
2.3189e-13
1.5171e-13
3.52271e-13
7.997e-13
1.75074e-12
3.7968e-12
8.6712e-12
2.18403e-11
3.90826e-11
5.58516e-11
6.294e-11
6.31834e-11
5.64218e-11
3.98372e-11
2.23635e-11
8.87474e-12
3.86413e-12
1.77389e-12
8.0846e-13
3.54993e-13
1.52052e-13
8.80517e-14
2.23161e-13
5.55193e-13
1.25499e-12
2.66661e-12
5.73185e-12
1.30396e-11
2.15317e-11
2.97125e-11
3.3025e-11
3.31589e-11
3.00263e-11
2.19625e-11
1.33625e-11
5.87035e-12
2.71593e-12
1.27178e-12
5.60723e-13
2.24541e-13
8.81446e-14
4.74463e-14
1.24033e-13
3.35604e-13
8.05328e-13
1.70085e-12
3.42935e-12
7.08003e-12
1.07948e-11
1.44125e-11
1.57934e-11
1.5859e-11
1.45712e-11
1.10239e-11
7.26747e-12
3.51659e-12
1.73302e-12
8.15435e-13
3.38242e-13
1.24548e-13
4.74638e-14
2.58238e-14
6.39828e-14
1.75264e-13
4.40226e-13
9.28619e-13
1.74413e-12
3.28315e-12
4.63202e-12
6.00391e-12
6.48888e-12
6.51489e-12
6.07236e-12
4.73768e-12
3.37834e-12
1.79154e-12
9.45892e-13
4.44835e-13
1.76196e-13
6.41538e-14
2.58437e-14
1.35912e-14
3.15281e-14
8.25954e-14
2.05025e-13
4.20657e-13
7.25436e-13
1.24245e-12
1.62566e-12
2.04514e-12
2.17992e-12
2.18757e-12
2.0683e-12
1.66431e-12
1.28088e-12
7.45892e-13
4.27886e-13
2.06612e-13
8.28539e-14
3.15855e-14
1.3606e-14
4.84749e-15
1.12628e-14
3.04464e-14
7.66436e-14
1.51024e-13
2.34381e-13
3.62573e-13
4.38658e-13
5.34302e-13
5.60838e-13
5.62469e-13
5.4019e-13
4.49335e-13
3.74312e-13
2.41101e-13
1.53251e-13
7.69458e-14
3.04364e-14
1.12535e-14
4.84605e-15
1.05471e-15
2.27683e-15
6.04394e-15
1.5429e-14
2.98167e-14
4.2496e-14
6.07732e-14
6.91183e-14
8.22514e-14
8.53069e-14
8.5453e-14
8.30842e-14
7.08062e-14
6.28121e-14
4.3723e-14
3.01628e-14
1.54173e-14
6.01771e-15
2.26843e-15
1.053e-15
)
;

boundaryField
{
    fuel
    {
        type            fixedValue;
        value           nonuniform 0();
    }
    wall
    {
        type            zeroGradient;
    }
    outlet
    {
        type            zeroGradient;
    }
    frontAndBack
    {
        type            empty;
    }
    procBoundary1to0
    {
        type            processor;
        value           nonuniform List<scalar> 
21
(
4.16003e-13
6.71485e-13
8.82869e-13
1.32488e-12
5.93321e-12
3.24232e-11
2.41713e-10
8.89516e-10
1.60979e-09
1.92694e-09
1.32179e-09
1.32179e-09
1.1172e-09
6.45787e-10
1.98511e-10
3.29846e-11
7.47762e-12
2.1434e-12
1.24777e-12
7.67483e-13
4.53947e-13
)
;
    }
}


// ************************************************************************* //
