/*--------------------------------*- C++ -*----------------------------------*\
| =========                 |                                                 |
| \\      /  F ield         | OpenFOAM: The Open Source CFD Toolbox           |
|  \\    /   O peration     | Version:  dev                                   |
|   \\  /    A nd           | Web:      www.OpenFOAM.org                      |
|    \\/     M anipulation  |                                                 |
\*---------------------------------------------------------------------------*/
FoamFile
{
    version     2.0;
    format      ascii;
    class       volScalarField;
    location    "0.01";
    object      C5H4O;
}
// * * * * * * * * * * * * * * * * * * * * * * * * * * * * * * * * * * * * * //

dimensions      [0 0 0 0 0 0 0];

internalField   nonuniform List<scalar> 
250
(
1.56231e-08
2.00204e-08
3.2132e-08
5.81372e-08
7.76729e-08
9.11721e-08
1.09376e-08
1.88746e-09
4.75949e-10
3.1041e-10
1.58791e-08
2.03719e-08
3.17932e-08
5.61839e-08
7.51682e-08
7.27099e-08
9.57898e-09
1.93801e-09
6.28367e-10
4.70972e-10
4.67448e-10
6.10002e-10
1.82272e-09
8.80487e-09
6.37615e-08
7.48931e-08
5.6291e-08
3.19514e-08
2.04197e-08
1.58799e-08
1.56551e-08
2.0235e-08
3.10198e-08
5.30823e-08
7.1792e-08
5.61769e-08
8.72134e-09
2.13246e-09
8.86801e-10
7.40049e-10
7.35642e-10
8.69007e-10
2.02661e-09
8.07685e-09
4.86523e-08
7.10656e-08
5.32017e-08
3.11144e-08
2.03287e-08
1.56963e-08
1.51541e-08
1.93426e-08
2.97224e-08
4.89892e-08
6.68143e-08
4.3182e-08
8.41809e-09
2.56204e-09
1.34739e-09
1.21973e-09
1.21376e-09
1.33023e-09
2.46322e-09
7.86987e-09
3.74555e-08
6.58524e-08
4.90371e-08
2.97846e-08
1.94744e-08
1.52317e-08
1.42146e-08
1.79753e-08
2.78098e-08
4.42994e-08
6.02971e-08
3.42007e-08
8.78468e-09
3.41596e-09
2.2208e-09
2.13519e-09
2.12639e-09
2.20515e-09
3.32475e-09
8.30637e-09
3.00938e-08
5.90941e-08
4.42367e-08
2.78635e-08
1.81294e-08
1.43119e-08
1.29666e-08
1.62665e-08
2.52525e-08
3.93915e-08
5.26338e-08
2.86613e-08
9.91913e-09
4.968e-09
3.85966e-09
3.86334e-09
3.85108e-09
3.8486e-09
4.88956e-09
9.49416e-09
2.57693e-08
5.13681e-08
3.92391e-08
2.53059e-08
1.64203e-08
1.30702e-08
1.15916e-08
1.4361e-08
2.21411e-08
3.43467e-08
4.4764e-08
2.5296e-08
1.14434e-08
7.03408e-09
6.15213e-09
6.25504e-09
6.24443e-09
6.14932e-09
6.96976e-09
1.10619e-08
2.32217e-08
4.35848e-08
3.41576e-08
2.21893e-08
1.44969e-08
1.16907e-08
1.02511e-08
1.24454e-08
1.87062e-08
2.89697e-08
3.71415e-08
2.24254e-08
1.21317e-08
8.33893e-09
7.64856e-09
7.72968e-09
7.72605e-09
7.64977e-09
8.27943e-09
1.17896e-08
2.08678e-08
3.61191e-08
2.87868e-08
1.8741e-08
1.25533e-08
1.03384e-08
9.08163e-09
1.07297e-08
1.52952e-08
2.32455e-08
2.95744e-08
1.88175e-08
1.1186e-08
8.09244e-09
7.48592e-09
7.46944e-09
7.46904e-09
7.48561e-09
8.03984e-09
1.09021e-08
1.76293e-08
2.87207e-08
2.30841e-08
1.53114e-08
1.08073e-08
9.15587e-09
8.14063e-09
9.37244e-09
1.23545e-08
1.76953e-08
2.21381e-08
1.46481e-08
9.29788e-09
7.0401e-09
6.54987e-09
6.48897e-09
6.4875e-09
6.54919e-09
7.00626e-09
9.09606e-09
1.38047e-08
2.14738e-08
1.75587e-08
1.23528e-08
9.42782e-09
8.20623e-09
7.40794e-09
8.3926e-09
1.02414e-08
1.32456e-08
1.57549e-08
1.10587e-08
7.74557e-09
6.38553e-09
6.10223e-09
6.07562e-09
6.07266e-09
6.10463e-09
6.37763e-09
7.63287e-09
1.05477e-08
1.53083e-08
1.31385e-08
1.02344e-08
8.43694e-09
7.46949e-09
6.85688e-09
7.72705e-09
8.91326e-09
1.04649e-08
1.16084e-08
9.02388e-09
7.19923e-09
6.4981e-09
6.38603e-09
6.39685e-09
6.39458e-09
6.39096e-09
6.50618e-09
7.1502e-09
8.75875e-09
1.13555e-08
1.03937e-08
8.91174e-09
7.76698e-09
6.91651e-09
6.50987e-09
7.33628e-09
8.19031e-09
9.01197e-09
9.46744e-09
8.12711e-09
7.14381e-09
6.79798e-09
6.77416e-09
6.8013e-09
6.80036e-09
6.77969e-09
6.81144e-09
7.12784e-09
7.99793e-09
9.3363e-09
8.96929e-09
8.19487e-09
7.37408e-09
6.568e-09
)
;

boundaryField
{
    fuel
    {
        type            fixedValue;
        value           nonuniform 0();
    }
    wall
    {
        type            zeroGradient;
    }
    outlet
    {
        type            zeroGradient;
    }
    frontAndBack
    {
        type            empty;
    }
    procBoundary1to0
    {
        type            processor;
        value           nonuniform List<scalar> 
21
(
1.50622e-08
1.92641e-08
3.21099e-08
5.90755e-08
8.00089e-08
1.09566e-07
1.27757e-08
1.93549e-09
3.83847e-10
2.10118e-10
3.07376e-10
3.07376e-10
4.56778e-10
1.75878e-09
1.00006e-08
8.17587e-08
7.79431e-08
5.81401e-08
3.23884e-08
2.00835e-08
1.55343e-08
)
;
    }
}


// ************************************************************************* //
