/*--------------------------------*- C++ -*----------------------------------*\
| =========                 |                                                 |
| \\      /  F ield         | OpenFOAM: The Open Source CFD Toolbox           |
|  \\    /   O peration     | Version:  dev                                   |
|   \\  /    A nd           | Web:      www.OpenFOAM.org                      |
|    \\/     M anipulation  |                                                 |
\*---------------------------------------------------------------------------*/
FoamFile
{
    version     2.0;
    format      ascii;
    class       volScalarField;
    location    "0.01";
    object      CH2CO;
}
// * * * * * * * * * * * * * * * * * * * * * * * * * * * * * * * * * * * * * //

dimensions      [0 0 0 0 0 0 0];

internalField   nonuniform List<scalar> 
250
(
1.04988e-05
1.66289e-05
3.37717e-05
5.06909e-05
2.82261e-05
1.1198e-05
7.80095e-06
5.90328e-06
4.79368e-06
4.33136e-06
9.23e-06
1.3327e-05
2.56678e-05
3.71763e-05
2.20536e-05
9.85703e-06
7.07382e-06
5.42332e-06
4.5128e-06
4.13737e-06
4.13825e-06
4.51908e-06
5.44634e-06
7.11626e-06
9.85458e-06
2.15898e-05
3.59875e-05
2.50079e-05
1.33161e-05
9.21659e-06
8.25717e-06
1.11017e-05
1.94189e-05
2.71681e-05
1.73366e-05
8.67916e-06
6.38931e-06
4.96828e-06
4.2281e-06
3.92567e-06
3.92639e-06
4.23334e-06
4.98771e-06
6.4261e-06
8.6804e-06
1.69962e-05
2.63165e-05
1.88818e-05
1.11126e-05
8.24282e-06
7.51251e-06
9.50153e-06
1.47647e-05
1.99724e-05
1.37693e-05
7.64282e-06
5.75384e-06
4.53849e-06
3.93757e-06
3.69309e-06
3.69359e-06
3.94175e-06
4.55431e-06
5.78478e-06
7.64628e-06
1.35238e-05
1.93796e-05
1.44456e-05
9.42819e-06
7.49928e-06
6.95937e-06
8.23436e-06
1.1514e-05
1.49043e-05
1.1078e-05
6.74065e-06
5.18154e-06
4.14868e-06
3.65715e-06
3.45837e-06
3.45872e-06
3.66007e-06
4.16054e-06
5.20628e-06
6.74499e-06
1.09034e-05
1.45012e-05
1.13031e-05
8.16644e-06
6.9509e-06
6.58569e-06
7.32174e-06
9.28168e-06
1.13922e-05
9.05652e-06
5.98652e-06
4.70554e-06
3.83924e-06
3.43251e-06
3.26952e-06
3.26971e-06
3.4339e-06
3.84657e-06
4.72347e-06
5.99033e-06
8.93415e-06
1.11246e-05
9.13774e-06
7.27429e-06
6.5825e-06
6.38304e-06
6.74602e-06
7.81481e-06
9.0223e-06
7.58134e-06
5.42174e-06
4.38468e-06
3.67854e-06
3.34033e-06
3.20736e-06
3.20749e-06
3.3401e-06
3.681e-06
4.3953e-06
5.42379e-06
7.49744e-06
8.85005e-06
7.72048e-06
6.7165e-06
6.38451e-06
6.33774e-06
6.4774e-06
6.95811e-06
7.52979e-06
6.60411e-06
5.1128e-06
4.29858e-06
3.7524e-06
3.47508e-06
3.37027e-06
3.37068e-06
3.47366e-06
3.75049e-06
4.30219e-06
5.11252e-06
6.54905e-06
7.42462e-06
6.90133e-06
6.46212e-06
6.34284e-06
6.42344e-06
6.48011e-06
6.61201e-06
6.75866e-06
6.1263e-06
5.1373e-06
4.53256e-06
4.14643e-06
3.92896e-06
3.85293e-06
3.85433e-06
3.92752e-06
4.14193e-06
4.53088e-06
5.13541e-06
6.09357e-06
6.70086e-06
6.5832e-06
6.47563e-06
6.43082e-06
6.58919e-06
6.6991e-06
6.69446e-06
6.60809e-06
6.16123e-06
5.5587e-06
5.15301e-06
4.92101e-06
4.76594e-06
4.71972e-06
4.72322e-06
4.76654e-06
4.91722e-06
5.14976e-06
5.55772e-06
6.14677e-06
6.58384e-06
6.68582e-06
6.70209e-06
6.59708e-06
6.68602e-06
7.00333e-06
7.08197e-06
6.96308e-06
6.67722e-06
6.37374e-06
6.15113e-06
6.0512e-06
5.96048e-06
5.94234e-06
5.94924e-06
5.96586e-06
6.05304e-06
6.1523e-06
6.37819e-06
6.67867e-06
6.9621e-06
7.08645e-06
7.00974e-06
6.6918e-06
6.43585e-06
6.95911e-06
7.32178e-06
7.45751e-06
7.38951e-06
7.27622e-06
7.17907e-06
7.13533e-06
7.10003e-06
7.09671e-06
7.10737e-06
7.11252e-06
7.14903e-06
7.19392e-06
7.2928e-06
7.40375e-06
7.46794e-06
7.32962e-06
6.9643e-06
6.43817e-06
6.20088e-06
6.81665e-06
7.27127e-06
7.50038e-06
7.54176e-06
7.51547e-06
7.47851e-06
7.46391e-06
7.45802e-06
7.46338e-06
7.47517e-06
7.47322e-06
7.48276e-06
7.49987e-06
7.53788e-06
7.56162e-06
7.5154e-06
7.28064e-06
6.82058e-06
6.20057e-06
)
;

boundaryField
{
    fuel
    {
        type            fixedValue;
        value           nonuniform 0();
    }
    wall
    {
        type            zeroGradient;
    }
    outlet
    {
        type            zeroGradient;
    }
    frontAndBack
    {
        type            empty;
    }
    procBoundary1to0
    {
        type            processor;
        value           nonuniform List<scalar> 
21
(
1.20874e-05
2.07166e-05
4.47316e-05
6.8217e-05
3.61304e-05
1.27356e-05
8.64729e-06
6.41144e-06
5.07875e-06
4.51709e-06
4.33215e-06
4.33215e-06
4.80085e-06
5.92992e-06
7.84871e-06
1.11897e-05
2.75985e-05
4.9057e-05
3.30719e-05
1.64529e-05
1.04843e-05
)
;
    }
}


// ************************************************************************* //
