/*--------------------------------*- C++ -*----------------------------------*\
| =========                 |                                                 |
| \\      /  F ield         | OpenFOAM: The Open Source CFD Toolbox           |
|  \\    /   O peration     | Version:  dev                                   |
|   \\  /    A nd           | Web:      www.OpenFOAM.org                      |
|    \\/     M anipulation  |                                                 |
\*---------------------------------------------------------------------------*/
FoamFile
{
    version     2.0;
    format      ascii;
    class       volScalarField;
    location    "0.01";
    object      CO;
}
// * * * * * * * * * * * * * * * * * * * * * * * * * * * * * * * * * * * * * //

dimensions      [0 0 0 0 0 0 0];

internalField   nonuniform List<scalar> 
250
(
0.0726361
0.0936911
0.120693
0.140669
0.148885
0.152136
0.151731
0.148859
0.149439
0.149396
0.0690899
0.0907426
0.11822
0.139634
0.148433
0.150467
0.148079
0.143508
0.143113
0.142644
0.142698
0.143017
0.143154
0.147345
0.14982
0.148365
0.139898
0.118845
0.0916053
0.0703155
0.064904
0.0874632
0.114966
0.137816
0.147382
0.147878
0.143395
0.137308
0.135987
0.135151
0.135205
0.13587
0.13689
0.142544
0.146953
0.147142
0.138022
0.115538
0.0883234
0.0660255
0.0612817
0.0826568
0.110835
0.134974
0.145385
0.144122
0.137546
0.130165
0.128037
0.126904
0.126958
0.127902
0.129671
0.136584
0.142898
0.144989
0.135113
0.111334
0.0834853
0.0622961
0.0570749
0.0774502
0.105714
0.130845
0.142196
0.138961
0.130429
0.122034
0.11926
0.117908
0.117963
0.11911
0.121476
0.129375
0.137433
0.14157
0.130904
0.106131
0.0782286
0.0579757
0.0522991
0.0718677
0.0995225
0.125176
0.137393
0.132189
0.121991
0.112923
0.109685
0.108198
0.108253
0.109526
0.112321
0.120872
0.130377
0.136535
0.125142
0.0998508
0.0725648
0.0531007
0.0471912
0.0657854
0.0922272
0.117761
0.130642
0.123668
0.112249
0.102891
0.0993837
0.0978458
0.0979021
0.0992203
0.102271
0.111097
0.121622
0.129558
0.117625
0.0924613
0.0663819
0.0478981
0.041903
0.0592419
0.0838725
0.108503
0.121678
0.113369
0.101312
0.0920732
0.0884881
0.0869812
0.0870378
0.0883257
0.0914567
0.100165
0.111171
0.120398
0.108257
0.0840105
0.0597295
0.0425125
0.0365785
0.052387
0.0746305
0.0974826
0.110415
0.10142
0.0894174
0.080694
0.0772127
0.0758106
0.0758671
0.0770564
0.0801032
0.0883125
0.0991807
0.108997
0.097129
0.0746699
0.052763
0.0370891
0.0314016
0.0454653
0.0648466
0.0850522
0.0970655
0.0881836
0.0769671
0.0691109
0.0658901
0.0646539
0.0647093
0.065744
0.0685648
0.0759412
0.0860312
0.0955931
0.084598
0.0647874
0.0457321
0.0318151
0.026626
0.0388474
0.0550889
0.0719394
0.0823197
0.0743761
0.0646075
0.0578768
0.0550309
0.0540025
0.054056
0.0548982
0.0573899
0.0636898
0.0724341
0.0808887
0.0714027
0.0549379
0.0390117
0.0269489
0.022618
0.0330921
0.0462616
0.0594509
0.0676382
0.0612843
0.0533835
0.047875
0.0454516
0.0446435
0.0446945
0.0453332
0.0474536
0.0525877
0.0596408
0.0663356
0.0588568
0.046035
0.0331684
0.022863
0.0199728
0.0291367
0.0399347
0.0500023
0.0559905
0.0513392
0.0451812
0.0406998
0.0386334
0.0380074
0.0380557
0.0385268
0.0403344
0.0444904
0.04999
0.0548495
0.0493762
0.0396589
0.0291521
0.0201641
)
;

boundaryField
{
    fuel
    {
        type            fixedValue;
        value           nonuniform 0();
    }
    wall
    {
        type            zeroGradient;
    }
    outlet
    {
        type            zeroGradient;
    }
    frontAndBack
    {
        type            empty;
    }
    procBoundary1to0
    {
        type            processor;
        value           nonuniform List<scalar> 
21
(
0.0756642
0.0962644
0.122509
0.141131
0.148952
0.153121
0.154499
0.153441
0.155007
0.155436
0.149452
0.149452
0.149369
0.148511
0.151128
0.151736
0.148945
0.140987
0.121371
0.0947828
0.0736985
)
;
    }
}


// ************************************************************************* //
