/*--------------------------------*- C++ -*----------------------------------*\
| =========                 |                                                 |
| \\      /  F ield         | OpenFOAM: The Open Source CFD Toolbox           |
|  \\    /   O peration     | Version:  dev                                   |
|   \\  /    A nd           | Web:      www.OpenFOAM.org                      |
|    \\/     M anipulation  |                                                 |
\*---------------------------------------------------------------------------*/
FoamFile
{
    version     2.0;
    format      ascii;
    class       volScalarField;
    location    "0.01";
    object      CO2;
}
// * * * * * * * * * * * * * * * * * * * * * * * * * * * * * * * * * * * * * //

dimensions      [0 0 0 0 0 0 0];

internalField   nonuniform List<scalar> 
250
(
0.018686
0.0239031
0.0310035
0.0365317
0.0391997
0.0405401
0.0390482
0.034352
0.0313664
0.0301088
0.0177279
0.0231024
0.0303103
0.0362231
0.0389842
0.0397809
0.0376502
0.0329442
0.0302268
0.0290917
0.0290814
0.0301279
0.0327003
0.0372385
0.0394662
0.0389758
0.0362837
0.0304676
0.0233251
0.0180372
0.0166164
0.0222174
0.0294063
0.0356808
0.0385837
0.0387598
0.0360276
0.0313951
0.0289225
0.0279021
0.027896
0.0288336
0.0311616
0.0356058
0.0383619
0.0385093
0.0357236
0.0295484
0.0224377
0.0168993
0.0156505
0.0209526
0.0282694
0.0348427
0.0379009
0.0374244
0.0341652
0.0296788
0.0274362
0.0265229
0.0265206
0.0273565
0.0294516
0.0337398
0.0369455
0.0377706
0.0348649
0.028391
0.0211632
0.0159063
0.0145461
0.0195895
0.0268748
0.0336463
0.0368811
0.0357308
0.0320536
0.0277802
0.025758
0.0249454
0.0249464
0.0256869
0.0275609
0.0316328
0.0351782
0.0366764
0.0336445
0.026974
0.019786
0.0147733
0.0133082
0.0181369
0.0252089
0.0320354
0.0354193
0.0336482
0.0296924
0.025696
0.0238879
0.0231711
0.0231751
0.0238248
0.0254879
0.0292847
0.0330355
0.0351455
0.0320073
0.0252844
0.018312
0.0135104
0.0119959
0.0165673
0.023271
0.0299723
0.0334454
0.0311651
0.0270946
0.0234361
0.0218382
0.0212141
0.0212206
0.0217825
0.0232424
0.0267085
0.030513
0.0331102
0.0299166
0.0233223
0.0167167
0.0121744
0.0106474
0.0148937
0.0210812
0.0274506
0.0309143
0.0282969
0.0242921
0.0210262
0.0196364
0.0191032
0.0191117
0.0195878
0.0208498
0.0239354
0.0276323
0.0305323
0.027368
0.0211089
0.0150159
0.0108017
0.00929847
0.0131558
0.0186914
0.0245115
0.0278307
0.0250947
0.0213415
0.0185127
0.0173287
0.0168847
0.0168946
0.0172866
0.0183557
0.0210208
0.0244493
0.0274229
0.0244044
0.0186959
0.0132506
0.00942837
0.00799428
0.0114156
0.0161944
0.0212619
0.0242762
0.0216611
0.0183335
0.0159695
0.0149859
0.0146286
0.0146395
0.01495
0.0158331
0.0180537
0.0210675
0.0238682
0.0211346
0.0161766
0.011484
0.00810037
0.00679688
0.00976452
0.0137343
0.0178965
0.0204449
0.0181749
0.0154088
0.0135117
0.0127169
0.0124413
0.0124526
0.0126864
0.0133961
0.0151721
0.0176612
0.0200633
0.0177549
0.0136966
0.00980833
0.00688078
0.00579571
0.00833799
0.0115324
0.0147421
0.016709
0.0149404
0.0127932
0.0113261
0.0106966
0.0104931
0.0105046
0.0106707
0.0112299
0.0125978
0.0145222
0.0163747
0.0145929
0.0114787
0.00836086
0.00586059
0.00513672
0.00736244
0.00996728
0.0123854
0.0137928
0.012522
0.0109012
0.00975718
0.00924674
0.00909614
0.00910741
0.00922411
0.00967582
0.0107376
0.0121897
0.0135097
0.0122332
0.00990344
0.00737088
0.00518846
)
;

boundaryField
{
    fuel
    {
        type            fixedValue;
        value           nonuniform 0();
    }
    wall
    {
        type            zeroGradient;
    }
    outlet
    {
        type            zeroGradient;
    }
    frontAndBack
    {
        type            empty;
    }
    procBoundary1to0
    {
        type            processor;
        value           nonuniform List<scalar> 
21
(
0.019521
0.0246073
0.0315163
0.0366629
0.039289
0.0410948
0.0402398
0.0356381
0.0323626
0.0309762
0.0300944
0.0300944
0.031257
0.0340819
0.0386573
0.0403061
0.0392461
0.0366083
0.0311757
0.0241838
0.0189554
)
;
    }
}


// ************************************************************************* //
