/*--------------------------------*- C++ -*----------------------------------*\
| =========                 |                                                 |
| \\      /  F ield         | OpenFOAM: The Open Source CFD Toolbox           |
|  \\    /   O peration     | Version:  dev                                   |
|   \\  /    A nd           | Web:      www.OpenFOAM.org                      |
|    \\/     M anipulation  |                                                 |
\*---------------------------------------------------------------------------*/
FoamFile
{
    version     2.0;
    format      ascii;
    class       volScalarField;
    location    "0.01";
    object      HCCO;
}
// * * * * * * * * * * * * * * * * * * * * * * * * * * * * * * * * * * * * * //

dimensions      [0 0 0 0 0 0 0];

internalField   nonuniform List<scalar> 
25
(
4.13761e-07
4.70916e-07
5.49988e-07
6.53381e-07
7.82856e-07
9.38705e-07
1.11898e-06
1.31886e-06
1.53013e-06
1.74097e-06
1.93592e-06
2.09624e-06
2.20052e-06
2.22628e-06
2.15333e-06
1.97058e-06
1.68576e-06
1.33273e-06
9.66521e-07
6.42732e-07
3.94558e-07
2.25945e-07
1.22002e-07
6.27833e-08
3.11671e-08
)
;

boundaryField
{
    wall
    {
        type            zeroGradient;
    }
    fuel
    {
        type            fixedValue;
        value           nonuniform 0();
    }
    outlet
    {
        type            inletOutlet;
        inletValue      nonuniform 0();
        value           nonuniform 0();
    }
    procBoundary1to0
    {
        type            processor;
        value           uniform 3.76185e-07;
    }
    procBoundary1to2
    {
        type            processor;
        value           uniform 1.51317e-08;
    }
}


// ************************************************************************* //
