/*--------------------------------*- C++ -*----------------------------------*\
| =========                 |                                                 |
| \\      /  F ield         | OpenFOAM: The Open Source CFD Toolbox           |
|  \\    /   O peration     | Version:  dev                                   |
|   \\  /    A nd           | Web:      www.OpenFOAM.org                      |
|    \\/     M anipulation  |                                                 |
\*---------------------------------------------------------------------------*/
FoamFile
{
    version     2.0;
    format      ascii;
    class       volScalarField;
    location    "0.01";
    object      HCO;
}
// * * * * * * * * * * * * * * * * * * * * * * * * * * * * * * * * * * * * * //

dimensions      [0 0 0 0 0 0 0];

internalField   nonuniform List<scalar> 
250
(
2.71207e-09
4.79264e-09
9.00388e-09
1.73293e-08
3.84921e-08
1.75579e-08
1.5052e-08
2.30149e-08
3.27391e-08
3.70234e-08
2.62027e-09
4.63941e-09
8.49193e-09
1.61417e-08
3.16692e-08
1.64227e-08
1.43315e-08
2.07856e-08
2.8488e-08
3.18999e-08
3.20187e-08
2.87212e-08
2.10967e-08
1.45147e-08
1.6144e-08
3.04346e-08
1.61621e-08
8.67405e-09
4.74905e-09
2.71047e-09
2.49281e-09
4.4971e-09
7.93628e-09
1.47461e-08
2.6278e-08
1.52202e-08
1.34671e-08
1.86302e-08
2.46503e-08
2.73295e-08
2.74263e-08
2.48326e-08
1.88733e-08
1.3615e-08
1.50024e-08
2.55629e-08
1.48286e-08
8.10348e-09
4.60192e-09
2.57276e-09
2.43971e-09
4.26697e-09
7.37293e-09
1.32433e-08
2.17785e-08
1.39351e-08
1.25073e-08
1.66216e-08
2.12882e-08
2.33643e-08
2.3443e-08
2.14296e-08
1.68036e-08
1.26257e-08
1.37493e-08
2.14445e-08
1.33758e-08
7.52542e-09
4.36351e-09
2.51175e-09
2.3688e-09
4.06164e-09
6.8294e-09
1.17351e-08
1.81151e-08
1.26026e-08
1.15275e-08
1.48249e-08
1.84245e-08
2.00127e-08
2.00761e-08
1.85322e-08
1.49569e-08
1.16224e-08
1.24375e-08
1.79318e-08
1.18951e-08
6.96666e-09
4.14974e-09
2.4326e-09
2.28559e-09
3.89191e-09
6.33215e-09
1.03152e-08
1.505e-08
1.13022e-08
1.06095e-08
1.32849e-08
1.60519e-08
1.72517e-08
1.73026e-08
1.61319e-08
1.33778e-08
1.06866e-08
1.11585e-08
1.49686e-08
1.0479e-08
6.45221e-09
3.96992e-09
2.34204e-09
2.22651e-09
3.76153e-09
5.90684e-09
9.07076e-09
1.25679e-08
1.01367e-08
9.82894e-09
1.20335e-08
1.41572e-08
1.50546e-08
1.50956e-08
1.42147e-08
1.20959e-08
9.89222e-09
1.00195e-08
1.2545e-08
9.21969e-09
6.00836e-09
3.82757e-09
2.27498e-09
2.26256e-09
3.71855e-09
5.58771e-09
8.07979e-09
1.06655e-08
9.21062e-09
9.25684e-09
1.11122e-08
1.27513e-08
1.34222e-08
1.34559e-08
1.27912e-08
1.11505e-08
9.30865e-09
9.1223e-09
1.0673e-08
8.20346e-09
5.67045e-09
3.76934e-09
2.29992e-09
2.56236e-09
3.91267e-09
5.4618e-09
7.42289e-09
9.36895e-09
8.62727e-09
8.98291e-09
1.06059e-08
1.19028e-08
1.24153e-08
1.24443e-08
1.19292e-08
1.06249e-08
9.02506e-09
8.56541e-09
9.39085e-09
7.51901e-09
5.52444e-09
3.94206e-09
2.58301e-09
3.57997e-09
4.76575e-09
5.84075e-09
7.28257e-09
8.79729e-09
8.56887e-09
9.21955e-09
1.07516e-08
1.18386e-08
1.22525e-08
1.22795e-08
1.18547e-08
1.07542e-08
9.25496e-09
8.52982e-09
8.82716e-09
7.35295e-09
5.87799e-09
4.76193e-09
3.5731e-09
6.85653e-09
7.81121e-09
7.91627e-09
8.54541e-09
9.65697e-09
9.8602e-09
1.09206e-08
1.25857e-08
1.36046e-08
1.39812e-08
1.4009e-08
1.36129e-08
1.25745e-08
1.09558e-08
9.853e-09
9.7036e-09
8.58857e-09
7.91444e-09
7.74335e-09
6.80089e-09
2.01767e-08
2.14202e-08
1.8658e-08
1.67919e-08
1.69517e-08
1.79526e-08
2.03095e-08
2.31984e-08
2.47036e-08
2.52735e-08
2.53061e-08
2.47173e-08
2.32073e-08
2.04024e-08
1.80628e-08
1.70768e-08
1.6793e-08
1.85665e-08
2.11742e-08
2.00243e-08
6.74889e-08
8.70578e-08
9.49291e-08
8.93957e-08
8.42394e-08
9.11942e-08
1.03293e-07
1.14907e-07
1.20001e-07
1.21768e-07
1.21879e-07
1.20074e-07
1.1504e-07
1.039e-07
9.23384e-08
8.5098e-08
8.9296e-08
9.47971e-08
8.70146e-08
6.78316e-08
)
;

boundaryField
{
    fuel
    {
        type            fixedValue;
        value           nonuniform 0();
    }
    wall
    {
        type            zeroGradient;
    }
    outlet
    {
        type            zeroGradient;
    }
    frontAndBack
    {
        type            empty;
    }
    procBoundary1to0
    {
        type            processor;
        value           nonuniform List<scalar> 
21
(
2.77684e-09
4.94381e-09
9.45757e-09
1.82729e-08
4.74111e-08
1.87117e-08
1.56068e-08
2.52007e-08
3.72878e-08
4.25915e-08
3.71608e-08
3.71608e-08
3.30234e-08
2.33617e-08
1.52643e-08
1.7182e-08
3.65418e-08
1.73466e-08
9.22724e-09
4.93822e-09
2.78931e-09
)
;
    }
}


// ************************************************************************* //
