/*--------------------------------*- C++ -*----------------------------------*\
| =========                 |                                                 |
| \\      /  F ield         | OpenFOAM: The Open Source CFD Toolbox           |
|  \\    /   O peration     | Version:  dev                                   |
|   \\  /    A nd           | Web:      www.OpenFOAM.org                      |
|    \\/     M anipulation  |                                                 |
\*---------------------------------------------------------------------------*/
FoamFile
{
    version     2.0;
    format      ascii;
    class       volScalarField;
    location    "0.01";
    object      O;
}
// * * * * * * * * * * * * * * * * * * * * * * * * * * * * * * * * * * * * * //

dimensions      [0 0 0 0 0 0 0];

internalField   nonuniform List<scalar> 
250
(
1.58635e-09
3.58057e-09
8.8794e-09
1.3862e-08
2.03735e-08
2.28713e-08
8.95414e-09
8.502e-09
2.47812e-08
3.77253e-08
1.47498e-09
3.20793e-09
8.15282e-09
1.43054e-08
1.97678e-08
2.17679e-08
7.40644e-09
6.7499e-09
1.75146e-08
2.557e-08
2.58622e-08
1.80401e-08
7.07449e-09
7.15456e-09
2.17249e-08
2.00442e-08
1.43822e-08
8.46057e-09
3.34927e-09
1.5334e-09
1.30312e-09
2.79799e-09
7.20302e-09
1.41264e-08
1.95104e-08
1.97387e-08
5.93607e-09
5.16827e-09
1.18794e-08
1.66052e-08
1.67794e-08
1.21958e-08
5.38508e-09
5.72151e-09
1.93901e-08
2.00539e-08
1.43713e-08
7.50797e-09
2.93258e-09
1.35056e-09
1.16418e-09
2.30714e-09
6.09842e-09
1.31933e-08
1.89648e-08
1.68673e-08
4.60697e-09
3.85859e-09
7.82546e-09
1.04472e-08
1.05475e-08
8.00911e-09
3.99594e-09
4.43637e-09
1.63063e-08
1.96258e-08
1.35697e-08
6.38131e-09
2.42279e-09
1.20394e-09
1.00827e-09
1.85109e-09
4.92116e-09
1.15311e-08
1.75709e-08
1.34921e-08
3.4788e-09
2.88053e-09
5.14776e-09
6.5446e-09
6.59945e-09
5.25131e-09
2.96671e-09
3.35393e-09
1.28467e-08
1.81813e-08
1.19589e-08
5.16421e-09
1.94397e-09
1.03903e-09
8.65978e-10
1.45883e-09
3.76703e-09
9.34046e-09
1.50871e-08
1.00643e-08
2.58724e-09
2.23053e-09
3.54135e-09
4.28587e-09
4.31476e-09
3.60066e-09
2.28825e-09
2.50646e-09
9.45636e-09
1.555e-08
9.73982e-09
3.95872e-09
1.5277e-09
8.8729e-10
7.81687e-10
1.15579e-09
2.73102e-09
6.95207e-09
1.17843e-08
6.98588e-09
1.93206e-09
1.84197e-09
2.65946e-09
3.08259e-09
3.09802e-09
2.6962e-09
1.88534e-09
1.89015e-09
6.49676e-09
1.20745e-08
7.26961e-09
2.86867e-09
1.20148e-09
7.93071e-10
8.137e-10
9.85195e-10
1.90056e-09
4.72263e-09
8.26628e-09
4.5053e-09
1.47406e-09
1.60042e-09
2.16218e-09
2.42559e-09
2.43468e-09
2.18718e-09
1.63522e-09
1.46222e-09
4.16564e-09
8.41453e-09
4.9402e-09
1.98932e-09
1.01015e-09
8.14328e-10
1.05422e-09
1.01934e-09
1.36184e-09
2.94229e-09
5.16318e-09
2.70604e-09
1.1492e-09
1.38705e-09
1.7834e-09
1.95134e-09
1.95729e-09
1.80072e-09
1.41381e-09
1.15604e-09
2.50578e-09
5.22284e-09
3.07045e-09
1.41199e-09
1.02708e-09
1.04333e-09
1.64109e-09
1.38507e-09
1.23095e-09
1.82215e-09
2.93079e-09
1.58632e-09
9.38828e-10
1.20532e-09
1.4832e-09
1.59162e-09
1.59507e-09
1.49508e-09
1.22607e-09
9.55055e-10
1.49246e-09
2.95287e-09
1.88787e-09
1.25648e-09
1.38043e-09
1.61966e-09
2.69159e-09
2.2859e-09
1.7249e-09
1.59796e-09
1.91072e-09
1.25518e-09
1.11233e-09
1.50822e-09
1.79841e-09
1.91296e-09
1.9135e-09
1.81075e-09
1.53642e-09
1.14393e-09
1.2356e-09
1.9365e-09
1.63596e-09
1.74336e-09
2.27771e-09
2.66825e-09
4.217e-09
3.93667e-09
3.28104e-09
2.77591e-09
2.669e-09
2.36663e-09
2.7393e-09
3.63373e-09
4.17777e-09
4.37579e-09
4.37508e-09
4.20081e-09
3.69159e-09
2.82068e-09
2.42298e-09
2.73604e-09
2.82738e-09
3.31554e-09
3.93977e-09
4.20394e-09
6.44562e-09
6.89838e-09
6.996e-09
6.92917e-09
7.03629e-09
7.10012e-09
8.24076e-09
9.81686e-09
1.06882e-08
1.09238e-08
1.09287e-08
1.07235e-08
9.89526e-09
8.39803e-09
7.25372e-09
7.18829e-09
7.04477e-09
7.07704e-09
6.935e-09
6.4604e-09
)
;

boundaryField
{
    fuel
    {
        type            fixedValue;
        value           nonuniform 0();
    }
    wall
    {
        type            zeroGradient;
    }
    outlet
    {
        type            zeroGradient;
    }
    frontAndBack
    {
        type            empty;
    }
    procBoundary1to0
    {
        type            processor;
        value           nonuniform List<scalar> 
21
(
1.63593e-09
3.92127e-09
9.44534e-09
1.30742e-08
2.18543e-08
2.33468e-08
1.05642e-08
1.02691e-08
3.34714e-08
5.31061e-08
3.81491e-08
3.81491e-08
2.55673e-08
8.92428e-09
8.71648e-09
2.32468e-08
2.0364e-08
1.38678e-08
9.28442e-09
3.7909e-09
1.64175e-09
)
;
    }
}


// ************************************************************************* //
