/*--------------------------------*- C++ -*----------------------------------*\
| =========                 |                                                 |
| \\      /  F ield         | OpenFOAM: The Open Source CFD Toolbox           |
|  \\    /   O peration     | Version:  dev                                   |
|   \\  /    A nd           | Web:      www.OpenFOAM.org                      |
|    \\/     M anipulation  |                                                 |
\*---------------------------------------------------------------------------*/
FoamFile
{
    version     2.0;
    format      ascii;
    class       volScalarField;
    location    "0.01";
    object      O2;
}
// * * * * * * * * * * * * * * * * * * * * * * * * * * * * * * * * * * * * * //

dimensions      [0 0 0 0 0 0 0];

internalField   nonuniform List<scalar> 
250
(
6.41783e-05
0.000123522
0.000290788
0.000668157
0.00131051
0.000655949
7.96121e-05
3.1194e-06
4.4478e-07
3.62078e-07
6.41148e-05
0.000118312
0.000270839
0.000610049
0.00113302
0.000541307
6.28576e-05
2.99441e-06
7.90923e-07
7.00025e-07
6.98213e-07
7.84815e-07
2.74069e-06
5.62433e-05
0.000489738
0.00110646
0.00061688
0.00027579
0.000120312
6.49774e-05
6.24145e-05
0.000111337
0.000245143
0.000541866
0.000960224
0.000435805
4.92018e-05
3.2197e-06
1.41353e-06
1.3204e-06
1.31573e-06
1.40872e-06
3.03123e-06
4.40231e-05
0.000392084
0.000938793
0.000547395
0.000249641
0.000113432
6.30632e-05
6.19023e-05
0.000100922
0.000215815
0.000467161
0.000790684
0.000342341
3.85046e-05
3.90455e-06
2.46056e-06
2.37958e-06
2.37171e-06
2.45899e-06
3.77529e-06
3.45398e-05
0.000306457
0.000776343
0.000471746
0.000219686
0.000102839
6.24119e-05
6.03654e-05
9.03254e-05
0.000184846
0.000390249
0.00063634
0.000262644
3.05677e-05
5.1931e-06
4.10987e-06
4.06389e-06
4.05267e-06
4.11452e-06
5.12244e-06
2.76194e-05
0.000234121
0.000624096
0.000394004
0.000188071
9.19744e-05
6.07336e-05
5.81748e-05
8.02115e-05
0.00015424
0.000315341
0.000496398
0.000197105
2.51942e-05
7.24251e-06
6.54111e-06
6.55733e-06
6.54306e-06
6.55574e-06
7.23243e-06
2.30871e-05
0.000175162
0.000486568
0.000318354
0.000156832
8.15482e-05
5.84257e-05
5.58771e-05
7.09366e-05
0.000125751
0.000246203
0.000374718
0.000145116
2.22059e-05
1.0182e-05
9.88654e-06
9.98808e-06
9.9717e-06
9.91493e-06
1.02342e-05
2.07867e-05
0.000128842
0.000367031
0.000248527
0.000127754
7.19592e-05
5.60384e-05
5.37406e-05
6.29189e-05
0.000100778
0.000185758
0.000273031
0.000105495
2.14162e-05
1.40547e-05
1.41673e-05
1.4363e-05
1.43461e-05
1.42122e-05
1.41676e-05
2.05512e-05
9.39638e-05
0.000267245
0.000187449
0.000102255
6.36595e-05
5.38378e-05
5.18899e-05
5.64676e-05
8.02939e-05
0.000135934
0.000191771
7.67948e-05
2.25703e-05
1.87546e-05
1.92339e-05
1.9511e-05
1.94953e-05
1.92957e-05
1.89208e-05
2.21393e-05
6.91175e-05
0.000187648
0.000137072
8.13192e-05
5.69772e-05
5.19495e-05
5.0376e-05
5.17009e-05
6.47589e-05
9.76047e-05
0.000130336
5.74511e-05
2.52707e-05
2.39814e-05
2.47364e-05
2.50615e-05
2.50489e-05
2.48132e-05
2.41871e-05
2.5163e-05
5.27862e-05
0.000127634
9.83031e-05
6.54242e-05
5.2039e-05
5.04235e-05
4.92071e-05
4.85405e-05
5.40698e-05
7.05711e-05
8.72235e-05
4.57837e-05
2.89223e-05
2.92381e-05
3.01473e-05
3.04773e-05
3.0469e-05
3.02351e-05
2.94661e-05
2.90347e-05
4.33357e-05
8.56859e-05
7.09772e-05
5.44835e-05
4.87658e-05
4.92629e-05
4.83678e-05
4.67334e-05
4.76339e-05
5.36907e-05
6.01414e-05
3.99374e-05
3.27188e-05
3.38776e-05
3.48302e-05
3.51313e-05
3.51271e-05
3.49243e-05
3.41119e-05
3.2961e-05
3.89662e-05
5.94838e-05
5.39493e-05
4.79016e-05
4.68976e-05
4.84437e-05
4.78457e-05
4.5902e-05
4.45534e-05
4.52489e-05
4.6382e-05
3.7879e-05
3.5601e-05
3.70698e-05
3.8006e-05
3.82697e-05
3.82686e-05
3.81027e-05
3.73016e-05
3.59019e-05
3.77061e-05
4.62699e-05
4.54643e-05
4.4759e-05
4.60425e-05
4.794e-05
)
;

boundaryField
{
    fuel
    {
        type            fixedValue;
        value           nonuniform 0();
    }
    wall
    {
        type            zeroGradient;
    }
    outlet
    {
        type            inletOutlet;
        inletValue      uniform 0;
        value           nonuniform List<scalar> 
25
(
6.41783e-05
6.41148e-05
6.24145e-05
6.19023e-05
6.03654e-05
5.81748e-05
5.58771e-05
5.37406e-05
5.18899e-05
5.0376e-05
4.92071e-05
4.83678e-05
4.78457e-05
6.49774e-05
6.30632e-05
6.24119e-05
6.07336e-05
5.84257e-05
5.60384e-05
5.38378e-05
5.19495e-05
5.04235e-05
4.92629e-05
4.84437e-05
4.794e-05
)
;
    }
    frontAndBack
    {
        type            empty;
    }
    procBoundary1to0
    {
        type            processor;
        value           nonuniform List<scalar> 
21
(
6.30649e-05
0.000127521
0.00030687
0.000720388
0.00150064
0.000782449
0.000100086
3.54764e-06
2.66632e-07
1.91395e-07
3.61512e-07
3.61512e-07
4.37643e-07
2.80612e-06
7.19208e-05
0.000600884
0.00128444
0.000683486
0.000299759
0.000127503
6.49543e-05
)
;
    }
}


// ************************************************************************* //
