/*--------------------------------*- C++ -*----------------------------------*\
| =========                 |                                                 |
| \\      /  F ield         | OpenFOAM: The Open Source CFD Toolbox           |
|  \\    /   O peration     | Version:  dev                                   |
|   \\  /    A nd           | Web:      www.OpenFOAM.org                      |
|    \\/     M anipulation  |                                                 |
\*---------------------------------------------------------------------------*/
FoamFile
{
    version     2.0;
    format      ascii;
    class       volScalarField;
    location    "0.01";
    object      OH;
}
// * * * * * * * * * * * * * * * * * * * * * * * * * * * * * * * * * * * * * //

dimensions      [0 0 0 0 0 0 0];

internalField   nonuniform List<scalar> 
25
(
1.4807e-05
1.23012e-05
1.02878e-05
8.64952e-06
7.29431e-06
6.15361e-06
5.17897e-06
4.33821e-06
3.61114e-06
2.98519e-06
2.4516e-06
2.00251e-06
1.62921e-06
1.32168e-06
1.06897e-06
8.60279e-07
6.86578e-07
5.42055e-07
4.24001e-07
3.3036e-07
2.56915e-07
1.97437e-07
1.47045e-07
1.04538e-07
7.08147e-08
)
;

boundaryField
{
    wall
    {
        type            zeroGradient;
    }
    fuel
    {
        type            fixedValue;
        value           nonuniform 0();
    }
    outlet
    {
        type            inletOutlet;
        inletValue      nonuniform 0();
        value           nonuniform 0();
    }
    procBoundary1to0
    {
        type            processor;
        value           uniform 1.79499e-05;
    }
    procBoundary1to2
    {
        type            processor;
        value           uniform 4.60842e-08;
    }
}


// ************************************************************************* //
