/*--------------------------------*- C++ -*----------------------------------*\
| =========                 |                                                 |
| \\      /  F ield         | OpenFOAM: The Open Source CFD Toolbox           |
|  \\    /   O peration     | Version:  dev                                   |
|   \\  /    A nd           | Web:      www.OpenFOAM.org                      |
|    \\/     M anipulation  |                                                 |
\*---------------------------------------------------------------------------*/
FoamFile
{
    version     2.0;
    format      ascii;
    class       volScalarField;
    location    "0.01";
    object      P2-H;
}
// * * * * * * * * * * * * * * * * * * * * * * * * * * * * * * * * * * * * * //

dimensions      [0 0 0 0 0 0 0];

internalField   nonuniform List<scalar> 
250
(
3.36772e-16
5.74785e-16
1.38169e-15
3.03271e-15
7.21208e-15
7.41591e-15
2.56207e-15
1.40981e-16
1.02342e-17
6.05899e-18
3.17569e-16
5.42366e-16
1.30244e-15
3.00955e-15
6.38548e-15
6.32405e-15
1.9477e-15
1.15909e-16
1.50469e-17
1.10589e-17
1.09776e-17
1.45326e-17
1.02623e-16
1.77563e-15
5.99536e-15
6.47607e-15
3.04038e-15
1.3298e-15
5.53084e-16
3.22064e-16
2.93983e-16
5.06174e-16
1.19024e-15
2.85107e-15
5.63609e-15
5.16426e-15
1.43721e-15
9.9879e-17
2.24236e-17
1.91257e-17
1.90203e-17
2.19893e-17
9.03255e-17
1.30387e-15
4.82408e-15
5.71716e-15
2.8898e-15
1.21477e-15
5.16199e-16
2.97688e-16
2.78147e-16
4.5776e-16
1.05535e-15
2.56722e-15
4.85135e-15
4.02553e-15
1.03654e-15
9.13993e-17
3.30131e-17
3.10209e-17
3.09e-17
3.27074e-17
8.45465e-17
9.37245e-16
3.70504e-15
4.9126e-15
2.60713e-15
1.07566e-15
4.66235e-16
2.81381e-16
2.6132e-16
4.10993e-16
9.09165e-16
2.19274e-15
4.03011e-15
2.99814e-15
7.39025e-16
8.96649e-17
4.75317e-17
4.74199e-17
4.72901e-17
4.74027e-17
8.49059e-17
6.6829e-16
2.72334e-15
4.04654e-15
2.22694e-15
9.24842e-16
4.17902e-16
2.64027e-16
2.45627e-16
3.69129e-16
7.64159e-16
1.77904e-15
3.18253e-15
2.14601e-15
5.29976e-16
9.46821e-17
6.69761e-17
6.91774e-17
6.90428e-17
6.70628e-17
9.16298e-17
4.81545e-16
1.9295e-15
3.16631e-15
1.80344e-15
7.75271e-16
3.74445e-16
2.47836e-16
2.37077e-16
3.35626e-16
6.31942e-16
1.38023e-15
2.3861e-15
1.49362e-15
3.91733e-16
1.07486e-16
9.30715e-17
9.78943e-17
9.77548e-17
9.34012e-17
1.05899e-16
3.59736e-16
1.3351e-15
2.35231e-15
1.39433e-15
6.39098e-16
3.39298e-16
2.38593e-16
2.50615e-16
3.20334e-16
5.2325e-16
1.03833e-15
1.71232e-15
1.03031e-15
3.08604e-16
1.30795e-16
1.292e-16
1.36977e-16
1.36829e-16
1.29795e-16
1.30542e-16
2.88315e-16
9.21157e-16
1.67479e-15
1.04427e-15
5.27321e-16
3.21949e-16
2.50545e-16
3.40321e-16
3.56754e-16
4.54081e-16
7.78048e-16
1.20116e-15
7.26632e-16
2.7125e-16
1.71042e-16
1.82798e-16
1.94161e-16
1.93997e-16
1.83691e-16
1.72098e-16
2.59322e-16
6.55354e-16
1.1686e-15
7.78889e-16
4.55519e-16
3.54396e-16
3.35671e-16
7.45644e-16
5.98894e-16
4.85724e-16
6.25216e-16
8.66933e-16
5.60846e-16
2.87662e-16
2.49804e-16
2.77758e-16
2.94374e-16
2.94156e-16
2.79044e-16
2.52417e-16
2.82127e-16
5.17064e-16
8.43017e-16
6.23244e-16
4.82891e-16
5.84669e-16
7.26353e-16
2.79739e-15
2.00291e-15
1.06938e-15
7.74528e-16
8.15043e-16
6.34812e-16
4.92347e-16
5.27229e-16
5.87273e-16
6.184e-16
6.17672e-16
5.89671e-16
5.3409e-16
4.94145e-16
6.13574e-16
8.01404e-16
7.67199e-16
1.04939e-15
1.94312e-15
2.72706e-15
1.87153e-14
1.39637e-14
7.48938e-15
3.95187e-15
2.77812e-15
2.79835e-15
2.91452e-15
3.33185e-15
3.62599e-15
3.79297e-15
3.78531e-15
3.64023e-15
3.38368e-15
2.95949e-15
2.85174e-15
2.79426e-15
3.89076e-15
7.35222e-15
1.36389e-14
1.83817e-14
2.43472e-13
1.96381e-13
1.19246e-13
6.43345e-14
4.14837e-14
4.49322e-14
4.9855e-14
5.74936e-14
6.20067e-14
6.46853e-14
6.45506e-14
6.22435e-14
5.84062e-14
5.07264e-14
4.63572e-14
4.19771e-14
6.33098e-14
1.17578e-13
1.93369e-13
2.41181e-13
)
;

boundaryField
{
    fuel
    {
        type            fixedValue;
        value           nonuniform 0();
    }
    wall
    {
        type            zeroGradient;
    }
    outlet
    {
        type            zeroGradient;
    }
    frontAndBack
    {
        type            empty;
    }
    procBoundary1to0
    {
        type            processor;
        value           nonuniform List<scalar> 
21
(
3.52024e-16
6.01006e-16
1.4245e-15
2.93488e-15
8.23414e-15
8.4045e-15
3.26831e-15
1.77505e-16
7.35781e-18
3.25562e-18
5.99823e-18
5.99823e-18
9.67716e-18
1.22731e-16
2.35689e-15
7.13632e-15
7.28789e-15
3.05536e-15
1.41361e-15
5.89389e-16
3.39408e-16
)
;
    }
}


// ************************************************************************* //
