/*--------------------------------*- C++ -*----------------------------------*\
| =========                 |                                                 |
| \\      /  F ield         | OpenFOAM: The Open Source CFD Toolbox           |
|  \\    /   O peration     | Version:  dev                                   |
|   \\  /    A nd           | Web:      www.OpenFOAM.org                      |
|    \\/     M anipulation  |                                                 |
\*---------------------------------------------------------------------------*/
FoamFile
{
    version     2.0;
    format      ascii;
    class       surfaceScalarField;
    location    "0";
    object      phi;
}
// * * * * * * * * * * * * * * * * * * * * * * * * * * * * * * * * * * * * * //

dimensions      [1 0 -1 0 0 0 0];

internalField   nonuniform List<scalar> 
11
(
5.64656e-05
5.82346e-05
6.01839e-05
6.23241e-05
6.43329e-05
6.64682e-05
6.87727e-05
7.12672e-05
7.37862e-05
7.64166e-05
7.9182e-05
)
;

boundaryField
{
    wall
    {
        type            calculated;
        value           nonuniform List<scalar> 
48
(
1.98255e-19
1.94283e-19
1.90132e-19
1.85715e-19
1.8112e-19
1.76057e-19
1.70753e-19
1.65026e-19
1.59e-19
1.52523e-19
1.45641e-19
1.38306e-19
-1.98255e-19
-1.94283e-19
-1.90132e-19
-1.85715e-19
-1.8112e-19
-1.76057e-19
-1.70753e-19
-1.65026e-19
-1.59e-19
-1.52523e-19
-1.45641e-19
-1.38306e-19
1.98255e-19
1.94283e-19
1.90132e-19
1.85715e-19
1.8112e-19
1.76057e-19
1.70753e-19
1.65026e-19
1.59e-19
1.52523e-19
1.45641e-19
1.38306e-19
-1.98255e-19
-1.94283e-19
-1.90132e-19
-1.85715e-19
-1.8112e-19
-1.76057e-19
-1.70753e-19
-1.65026e-19
-1.59e-19
-1.52523e-19
-1.45641e-19
-1.38306e-19
)
;
    }
    fuel
    {
        type            calculated;
        value           nonuniform 0();
    }
    outlet
    {
        type            calculated;
        value           nonuniform 0();
    }
    procBoundary6to5
    {
        type            processor;
        value           uniform -5.48045e-05;
    }
    procBoundary6to7
    {
        type            processor;
        value           uniform 8.20821e-05;
    }
}


// ************************************************************************* //
