/*--------------------------------*- C++ -*----------------------------------*\
| =========                 |                                                 |
| \\      /  F ield         | OpenFOAM: The Open Source CFD Toolbox           |
|  \\    /   O peration     | Version:  dev                                   |
|   \\  /    A nd           | Web:      www.OpenFOAM.org                      |
|    \\/     M anipulation  |                                                 |
\*---------------------------------------------------------------------------*/
FoamFile
{
    version     2.0;
    format      ascii;
    class       volVectorField;
    location    "0";
    object      U;
}
// * * * * * * * * * * * * * * * * * * * * * * * * * * * * * * * * * * * * * //

dimensions      [0 1 -1 0 0 0 0];

internalField   nonuniform List<vector> 
12
(
(1.6349e-13 -1.6349e-13 0.103779)
(1.56482e-13 -1.56482e-13 0.104489)
(1.49493e-13 -1.49493e-13 0.105316)
(1.42458e-13 -1.42458e-13 0.106263)
(1.35391e-13 -1.35391e-13 0.107111)
(1.28287e-13 -1.28287e-13 0.107823)
(1.21214e-13 -1.21214e-13 0.1086)
(1.14067e-13 -1.14067e-13 0.109467)
(1.06906e-13 -1.06906e-13 0.110334)
(9.97464e-14 -9.97464e-14 0.111138)
(9.25832e-14 -9.25832e-14 0.111882)
(8.54084e-14 -8.54084e-14 0.11266)
)
;

boundaryField
{
    wall
    {
        type            zeroGradient;
    }
    fuel
    {
        type            fixedValue;
        value           nonuniform 0();
    }
    outlet
    {
        type            pressureInletOutletVelocity;
        value           nonuniform 0();
    }
    procBoundary6to5
    {
        type            processor;
        value           uniform (1.70496e-13 -1.70496e-13 0.103106);
    }
    procBoundary6to7
    {
        type            processor;
        value           uniform (7.83751e-14 -7.83751e-14 0.113392);
    }
}


// ************************************************************************* //
