/*--------------------------------*- C++ -*----------------------------------*\
| =========                 |                                                 |
| \\      /  F ield         | OpenFOAM: The Open Source CFD Toolbox           |
|  \\    /   O peration     | Version:  dev                                   |
|   \\  /    A nd           | Web:      www.OpenFOAM.org                      |
|    \\/     M anipulation  |                                                 |
\*---------------------------------------------------------------------------*/
FoamFile
{
    version     2.0;
    format      ascii;
    class       volScalarField;
    location    "0.045";
    object      A1-;
}
// * * * * * * * * * * * * * * * * * * * * * * * * * * * * * * * * * * * * * //

dimensions      [0 0 0 0 0 0 0];

internalField   nonuniform List<scalar> 
250
(
2.87283e-07
2.87612e-07
2.87073e-07
2.87564e-07
2.88353e-07
2.90843e-07
3.05195e-07
3.57925e-07
6.03643e-07
7.0906e-07
2.74387e-07
2.74695e-07
2.74196e-07
2.74669e-07
2.75435e-07
2.77779e-07
2.90923e-07
3.37304e-07
5.46657e-07
6.48396e-07
5.43161e-07
5.05746e-07
3.19922e-07
2.79061e-07
2.66318e-07
2.63888e-07
2.63158e-07
2.62545e-07
2.63079e-07
2.62763e-07
2.62715e-07
2.63009e-07
2.62544e-07
2.63004e-07
2.63747e-07
2.65942e-07
2.77947e-07
3.18354e-07
4.9588e-07
5.92187e-07
5.01271e-07
4.54784e-07
3.02098e-07
2.67008e-07
2.55352e-07
2.53086e-07
2.52378e-07
2.51773e-07
2.52285e-07
2.51962e-07
2.51922e-07
2.52212e-07
2.51773e-07
2.52227e-07
2.52949e-07
2.54991e-07
2.65931e-07
3.00765e-07
4.46676e-07
5.3918e-07
4.6002e-07
4.06871e-07
2.85296e-07
2.55512e-07
2.44845e-07
2.42747e-07
2.42057e-07
2.41445e-07
2.41953e-07
2.41604e-07
2.41571e-07
2.41872e-07
2.41445e-07
2.41907e-07
2.42611e-07
2.44493e-07
2.5446e-07
2.84147e-07
4.00584e-07
4.88647e-07
4.19409e-07
3.6804e-07
2.69028e-07
2.44077e-07
2.34272e-07
2.32345e-07
2.3167e-07
2.31031e-07
2.31558e-07
2.3116e-07
2.31134e-07
2.31465e-07
2.31031e-07
2.31516e-07
2.32209e-07
2.33923e-07
2.43026e-07
2.68019e-07
3.63007e-07
4.40401e-07
3.79536e-07
3.32244e-07
2.52676e-07
2.32123e-07
2.23035e-07
2.21287e-07
2.20623e-07
2.19932e-07
2.20508e-07
2.20032e-07
2.20012e-07
2.20395e-07
2.19933e-07
2.20459e-07
2.21146e-07
2.22679e-07
2.31031e-07
2.51773e-07
3.27565e-07
3.94318e-07
3.4061e-07
2.99134e-07
2.35584e-07
2.19052e-07
2.10539e-07
2.08987e-07
2.08329e-07
2.07561e-07
2.08219e-07
2.07636e-07
2.07621e-07
2.08081e-07
2.07562e-07
2.08148e-07
2.08837e-07
2.1017e-07
2.17794e-07
2.34768e-07
2.95122e-07
3.50434e-07
3.02758e-07
2.67607e-07
2.17143e-07
2.03164e-07
1.9511e-07
1.93592e-07
1.92933e-07
1.92084e-07
1.92838e-07
1.92117e-07
1.92108e-07
1.92663e-07
1.92085e-07
1.92731e-07
1.93429e-07
1.94704e-07
2.02269e-07
2.16412e-07
2.64044e-07
3.08695e-07
2.65996e-07
2.36946e-07
1.96995e-07
1.86005e-07
1.78347e-07
1.77007e-07
1.76358e-07
1.75419e-07
1.76286e-07
1.75431e-07
1.75425e-07
1.76081e-07
1.75421e-07
1.76134e-07
1.76833e-07
1.77921e-07
1.8497e-07
1.96345e-07
2.33686e-07
2.68978e-07
2.3032e-07
2.06707e-07
1.75084e-07
1.66617e-07
1.5936e-07
1.58198e-07
1.57575e-07
1.56567e-07
1.5753e-07
1.56558e-07
1.56557e-07
1.57297e-07
1.5657e-07
1.57335e-07
1.58018e-07
1.58923e-07
1.65539e-07
1.7452e-07
2.03674e-07
2.31159e-07
1.95834e-07
1.76831e-07
1.51787e-07
1.45424e-07
1.3865e-07
1.37668e-07
1.37088e-07
1.36051e-07
1.37073e-07
1.36025e-07
1.36028e-07
1.36824e-07
1.36055e-07
1.36842e-07
1.37488e-07
1.38217e-07
1.44343e-07
1.51316e-07
1.74019e-07
1.95237e-07
1.62866e-07
1.47685e-07
1.27896e-07
1.2325e-07
1.17093e-07
1.16288e-07
1.15768e-07
1.1475e-07
1.15781e-07
1.14714e-07
1.1472e-07
1.15529e-07
1.14757e-07
1.15528e-07
1.16117e-07
1.16681e-07
1.22212e-07
1.27518e-07
1.45136e-07
1.61433e-07
9.37196e-08
9.44979e-08
9.37618e-08
9.44792e-08
9.49929e-08
9.54129e-08
1.00239e-07
1.04192e-07
1.17737e-07
1.30197e-07
)
;

boundaryField
{
    fuel
    {
        type            fixedValue;
        value           nonuniform 0();
    }
    wall
    {
        type            zeroGradient;
    }
    outlet
    {
        type            zeroGradient;
    }
    frontAndBack
    {
        type            empty;
    }
    procBoundary0to1
    {
        type            processor;
        value           nonuniform List<scalar> 
21
(
1.31992e-07
1.19971e-07
1.04468e-07
1.01185e-07
9.57836e-08
9.51469e-08
9.47018e-08
9.37537e-08
9.47383e-08
9.37114e-08
9.37114e-08
7.40853e-08
7.47929e-08
7.41283e-08
7.47616e-08
7.51896e-08
7.5489e-08
7.95354e-08
8.24009e-08
9.26658e-08
1.02102e-07
)
;
    }
    procBoundary0to2
    {
        type            processor;
        value           nonuniform List<scalar> 
12
(
2.87351e-07
5.85936e-07
5.58466e-07
3.39161e-07
2.9207e-07
2.78175e-07
2.75583e-07
2.74831e-07
2.74199e-07
2.74765e-07
2.74445e-07
2.74445e-07
)
;
    }
    procBoundary0to3
    {
        type            processor;
        value           nonuniform List<scalar> 10(3.01683e-07 3.02036e-07 3.01456e-07 3.01968e-07 3.02776e-07 3.05411e-07 3.22482e-07 3.82938e-07 6.67057e-07 7.74642e-07);
    }
}


// ************************************************************************* //
