/*--------------------------------*- C++ -*----------------------------------*\
| =========                 |                                                 |
| \\      /  F ield         | OpenFOAM: The Open Source CFD Toolbox           |
|  \\    /   O peration     | Version:  dev                                   |
|   \\  /    A nd           | Web:      www.OpenFOAM.org                      |
|    \\/     M anipulation  |                                                 |
\*---------------------------------------------------------------------------*/
FoamFile
{
    version     2.0;
    format      ascii;
    class       volScalarField;
    location    "0.045";
    object      A1C2H*;
}
// * * * * * * * * * * * * * * * * * * * * * * * * * * * * * * * * * * * * * //

dimensions      [0 0 0 0 0 0 0];

internalField   nonuniform List<scalar> 
2014
(
1.54428e-08
1.55595e-08
1.56718e-08
1.57296e-08
1.5748e-08
1.57603e-08
1.57547e-08
1.57572e-08
1.57515e-08
1.57529e-08
1.57494e-08
1.57504e-08
1.57482e-08
1.5749e-08
1.57476e-08
1.57483e-08
1.57473e-08
1.57479e-08
1.57473e-08
1.57477e-08
1.57473e-08
1.57475e-08
1.57473e-08
1.57474e-08
1.57474e-08
1.57474e-08
1.57474e-08
1.57473e-08
1.57476e-08
1.57473e-08
1.57477e-08
1.57473e-08
1.57479e-08
1.57473e-08
1.57483e-08
1.57476e-08
1.5749e-08
1.57482e-08
1.57505e-08
1.57494e-08
1.57529e-08
1.57516e-08
1.57572e-08
1.57547e-08
1.57603e-08
1.5748e-08
1.57296e-08
1.56719e-08
1.55595e-08
1.54428e-08
1.46884e-08
1.47994e-08
1.49049e-08
1.49591e-08
1.49766e-08
1.49881e-08
1.49828e-08
1.49851e-08
1.49797e-08
1.49808e-08
1.49775e-08
1.49785e-08
1.49763e-08
1.4977e-08
1.49757e-08
1.49763e-08
1.49754e-08
1.4976e-08
1.49754e-08
1.49758e-08
1.49754e-08
1.49756e-08
1.49754e-08
1.49755e-08
1.49754e-08
1.49754e-08
1.49755e-08
1.49754e-08
1.49756e-08
1.49754e-08
1.49758e-08
1.49754e-08
1.4976e-08
1.49754e-08
1.49763e-08
1.49757e-08
1.49771e-08
1.49763e-08
1.49785e-08
1.49776e-08
1.49808e-08
1.49797e-08
1.49851e-08
1.49828e-08
1.49881e-08
1.49766e-08
1.49591e-08
1.49049e-08
1.47994e-08
1.46884e-08
1.39963e-08
1.41023e-08
1.42012e-08
1.42521e-08
1.42686e-08
1.42795e-08
1.42745e-08
1.42764e-08
1.42714e-08
1.42723e-08
1.42692e-08
1.427e-08
1.4268e-08
1.42686e-08
1.42673e-08
1.42679e-08
1.4267e-08
1.42676e-08
1.4267e-08
1.42674e-08
1.4267e-08
1.42672e-08
1.4267e-08
1.42671e-08
1.4267e-08
1.42671e-08
1.42671e-08
1.4267e-08
1.42672e-08
1.4267e-08
1.42674e-08
1.4267e-08
1.42676e-08
1.4267e-08
1.42679e-08
1.42673e-08
1.42686e-08
1.4268e-08
1.427e-08
1.42692e-08
1.42724e-08
1.42714e-08
1.42765e-08
1.42745e-08
1.42795e-08
1.42687e-08
1.42521e-08
1.42012e-08
1.41023e-08
1.39963e-08
1.33598e-08
1.34612e-08
1.35538e-08
1.36017e-08
1.36173e-08
1.36275e-08
1.36228e-08
1.36245e-08
1.36197e-08
1.36204e-08
1.36175e-08
1.36182e-08
1.36162e-08
1.36168e-08
1.36156e-08
1.36161e-08
1.36153e-08
1.36158e-08
1.36152e-08
1.36156e-08
1.36152e-08
1.36154e-08
1.36152e-08
1.36153e-08
1.36153e-08
1.36153e-08
1.36153e-08
1.36152e-08
1.36154e-08
1.36152e-08
1.36156e-08
1.36153e-08
1.36158e-08
1.36153e-08
1.36161e-08
1.36156e-08
1.36168e-08
1.36163e-08
1.36182e-08
1.36175e-08
1.36205e-08
1.36197e-08
1.36245e-08
1.36228e-08
1.36275e-08
1.36173e-08
1.36017e-08
1.35538e-08
1.34612e-08
1.33598e-08
1.27729e-08
1.28699e-08
1.29569e-08
1.30018e-08
1.30165e-08
1.3026e-08
1.30216e-08
1.3023e-08
1.30185e-08
1.30191e-08
1.30163e-08
1.30169e-08
1.3015e-08
1.30155e-08
1.30144e-08
1.30148e-08
1.30141e-08
1.30145e-08
1.3014e-08
1.30143e-08
1.3014e-08
1.30142e-08
1.3014e-08
1.30141e-08
1.3014e-08
1.3014e-08
1.30141e-08
1.3014e-08
1.30142e-08
1.3014e-08
1.30143e-08
1.3014e-08
1.30145e-08
1.30141e-08
1.30149e-08
1.30144e-08
1.30155e-08
1.30151e-08
1.30169e-08
1.30164e-08
1.30192e-08
1.30186e-08
1.30231e-08
1.30216e-08
1.30261e-08
1.30165e-08
1.30018e-08
1.29569e-08
1.28699e-08
1.27729e-08
1.22303e-08
1.23233e-08
1.2405e-08
1.24471e-08
1.24609e-08
1.24699e-08
1.24656e-08
1.24669e-08
1.24626e-08
1.24631e-08
1.24604e-08
1.24608e-08
1.24591e-08
1.24595e-08
1.24584e-08
1.24588e-08
1.24581e-08
1.24585e-08
1.2458e-08
1.24583e-08
1.2458e-08
1.24582e-08
1.2458e-08
1.24581e-08
1.2458e-08
1.2458e-08
1.24581e-08
1.2458e-08
1.24582e-08
1.2458e-08
1.24583e-08
1.2458e-08
1.24585e-08
1.24581e-08
1.24588e-08
1.24584e-08
1.24595e-08
1.24591e-08
1.24609e-08
1.24604e-08
1.24631e-08
1.24626e-08
1.24669e-08
1.24657e-08
1.24699e-08
1.2461e-08
1.24471e-08
1.2405e-08
1.23233e-08
1.22303e-08
1.17276e-08
1.18167e-08
1.18934e-08
1.19329e-08
1.19459e-08
1.19543e-08
1.19503e-08
1.19513e-08
1.19472e-08
1.19476e-08
1.1945e-08
1.19454e-08
1.19437e-08
1.1944e-08
1.1943e-08
1.19433e-08
1.19427e-08
1.1943e-08
1.19426e-08
1.19429e-08
1.19426e-08
1.19427e-08
1.19426e-08
1.19426e-08
1.19426e-08
1.19426e-08
1.19426e-08
1.19426e-08
1.19427e-08
1.19426e-08
1.19429e-08
1.19426e-08
1.19431e-08
1.19427e-08
1.19434e-08
1.1943e-08
1.19441e-08
1.19437e-08
1.19454e-08
1.19451e-08
1.19476e-08
1.19473e-08
1.19513e-08
1.19503e-08
1.19543e-08
1.19459e-08
1.19329e-08
1.18934e-08
1.18168e-08
1.17276e-08
1.12606e-08
1.13462e-08
1.14181e-08
1.14551e-08
1.14674e-08
1.14752e-08
1.14714e-08
1.14722e-08
1.14683e-08
1.14686e-08
1.14661e-08
1.14664e-08
1.14648e-08
1.14651e-08
1.1464e-08
1.14644e-08
1.14637e-08
1.14641e-08
1.14637e-08
1.14639e-08
1.14636e-08
1.14638e-08
1.14636e-08
1.14637e-08
1.14636e-08
1.14637e-08
1.14637e-08
1.14636e-08
1.14638e-08
1.14636e-08
1.14639e-08
1.14637e-08
1.14641e-08
1.14638e-08
1.14644e-08
1.14641e-08
1.14651e-08
1.14648e-08
1.14664e-08
1.14662e-08
1.14686e-08
1.14684e-08
1.14722e-08
1.14714e-08
1.14752e-08
1.14674e-08
1.14551e-08
1.14182e-08
1.13462e-08
1.12606e-08
1.08259e-08
1.0908e-08
1.09755e-08
1.10102e-08
1.10217e-08
1.1029e-08
1.10253e-08
1.1026e-08
1.10223e-08
1.10225e-08
1.10201e-08
1.10203e-08
1.10187e-08
1.1019e-08
1.1018e-08
1.10183e-08
1.10177e-08
1.1018e-08
1.10176e-08
1.10178e-08
1.10176e-08
1.10177e-08
1.10176e-08
1.10176e-08
1.10176e-08
1.10176e-08
1.10176e-08
1.10176e-08
1.10177e-08
1.10176e-08
1.10178e-08
1.10176e-08
1.1018e-08
1.10177e-08
1.10183e-08
1.1018e-08
1.1019e-08
1.10188e-08
1.10203e-08
1.10202e-08
1.10225e-08
1.10224e-08
1.10261e-08
1.10254e-08
1.1029e-08
1.10217e-08
1.10102e-08
1.09756e-08
1.0908e-08
1.08259e-08
1.04204e-08
1.04991e-08
1.05625e-08
1.0595e-08
1.06058e-08
1.06126e-08
1.06091e-08
1.06096e-08
1.06061e-08
1.06061e-08
1.06039e-08
1.06039e-08
1.06024e-08
1.06026e-08
1.06017e-08
1.06019e-08
1.06014e-08
1.06017e-08
1.06013e-08
1.06015e-08
1.06012e-08
1.06014e-08
1.06012e-08
1.06013e-08
1.06013e-08
1.06013e-08
1.06013e-08
1.06012e-08
1.06014e-08
1.06013e-08
1.06015e-08
1.06013e-08
1.06017e-08
1.06014e-08
1.0602e-08
1.06017e-08
1.06026e-08
1.06025e-08
1.0604e-08
1.06039e-08
1.06061e-08
1.06061e-08
1.06096e-08
1.06091e-08
1.06126e-08
1.06058e-08
1.0595e-08
1.05625e-08
1.04991e-08
1.04204e-08
1.00413e-08
1.01166e-08
1.01762e-08
1.02067e-08
1.02167e-08
1.02231e-08
1.02197e-08
1.02201e-08
1.02167e-08
1.02167e-08
1.02145e-08
1.02145e-08
1.0213e-08
1.02132e-08
1.02123e-08
1.02125e-08
1.0212e-08
1.02122e-08
1.02119e-08
1.02121e-08
1.02118e-08
1.0212e-08
1.02118e-08
1.02119e-08
1.02118e-08
1.02118e-08
1.02119e-08
1.02118e-08
1.0212e-08
1.02119e-08
1.02121e-08
1.02119e-08
1.02123e-08
1.0212e-08
1.02126e-08
1.02123e-08
1.02132e-08
1.02131e-08
1.02145e-08
1.02146e-08
1.02167e-08
1.02168e-08
1.02201e-08
1.02197e-08
1.02231e-08
1.02167e-08
1.02067e-08
1.01762e-08
1.01166e-08
1.00413e-08
9.68622e-09
9.75822e-09
9.81413e-09
9.84276e-09
9.85216e-09
9.85803e-09
9.8548e-09
9.85508e-09
9.85185e-09
9.85172e-09
9.84966e-09
9.84956e-09
9.84812e-09
9.84822e-09
9.84735e-09
9.84756e-09
9.84702e-09
9.84727e-09
9.84694e-09
9.84712e-09
9.8469e-09
9.847e-09
9.84687e-09
9.84694e-09
9.8469e-09
9.8469e-09
9.84694e-09
9.84688e-09
9.84702e-09
9.84691e-09
9.84713e-09
9.84695e-09
9.84729e-09
9.84705e-09
9.84759e-09
9.84738e-09
9.84824e-09
9.84814e-09
9.84958e-09
9.84969e-09
9.85175e-09
9.85188e-09
9.85511e-09
9.85482e-09
9.85805e-09
9.85217e-09
9.84277e-09
9.81415e-09
9.75824e-09
9.68623e-09
9.353e-09
9.42168e-09
9.47423e-09
9.50109e-09
9.50987e-09
9.51531e-09
9.51219e-09
9.51236e-09
9.50926e-09
9.50907e-09
9.50707e-09
9.50688e-09
9.50548e-09
9.50553e-09
9.5047e-09
9.50488e-09
9.50437e-09
9.5046e-09
9.50428e-09
9.50445e-09
9.50424e-09
9.50434e-09
9.50422e-09
9.50427e-09
9.50424e-09
9.50424e-09
9.50428e-09
9.50422e-09
9.50435e-09
9.50425e-09
9.50446e-09
9.5043e-09
9.50462e-09
9.50439e-09
9.50491e-09
9.50473e-09
9.50555e-09
9.5055e-09
9.50691e-09
9.5071e-09
9.50909e-09
9.50929e-09
9.51238e-09
9.51221e-09
9.51532e-09
9.50988e-09
9.5011e-09
9.47425e-09
9.42169e-09
9.35301e-09
9.03975e-09
9.10509e-09
9.15454e-09
9.17974e-09
9.18791e-09
9.19295e-09
9.18994e-09
9.19e-09
9.18703e-09
9.18677e-09
9.18483e-09
9.18455e-09
9.18318e-09
9.1832e-09
9.1824e-09
9.18256e-09
9.18207e-09
9.18228e-09
9.18197e-09
9.18213e-09
9.18193e-09
9.18202e-09
9.18191e-09
9.18196e-09
9.18193e-09
9.18193e-09
9.18197e-09
9.18192e-09
9.18203e-09
9.18194e-09
9.18214e-09
9.18199e-09
9.1823e-09
9.18209e-09
9.18258e-09
9.18242e-09
9.18322e-09
9.1832e-09
9.18458e-09
9.18486e-09
9.1868e-09
9.18705e-09
9.19002e-09
9.18996e-09
9.19296e-09
9.18792e-09
9.17976e-09
9.15456e-09
9.1051e-09
9.03976e-09
8.74476e-09
8.8068e-09
8.85333e-09
8.87701e-09
8.88456e-09
8.88924e-09
8.88633e-09
8.88629e-09
8.88344e-09
8.88313e-09
8.88123e-09
8.88086e-09
8.87951e-09
8.8795e-09
8.87873e-09
8.87887e-09
8.8784e-09
8.87859e-09
8.8783e-09
8.87845e-09
8.87826e-09
8.87835e-09
8.87823e-09
8.87829e-09
8.87825e-09
8.87826e-09
8.87829e-09
8.87824e-09
8.87836e-09
8.87827e-09
8.87846e-09
8.87832e-09
8.87861e-09
8.87842e-09
8.87889e-09
8.87875e-09
8.87952e-09
8.87953e-09
8.88088e-09
8.88125e-09
8.88316e-09
8.88346e-09
8.88631e-09
8.88635e-09
8.88925e-09
8.88458e-09
8.87702e-09
8.85335e-09
8.80681e-09
8.74477e-09
8.46651e-09
8.5253e-09
8.56909e-09
8.59136e-09
8.59832e-09
8.60265e-09
8.59983e-09
8.5997e-09
8.59696e-09
8.59661e-09
8.59474e-09
8.59427e-09
8.59294e-09
8.5929e-09
8.59216e-09
8.59229e-09
8.59184e-09
8.59201e-09
8.59174e-09
8.59188e-09
8.59169e-09
8.59178e-09
8.59167e-09
8.59172e-09
8.59169e-09
8.59169e-09
8.59173e-09
8.59168e-09
8.59179e-09
8.59171e-09
8.59189e-09
8.59176e-09
8.59204e-09
8.59186e-09
8.59231e-09
8.59219e-09
8.59293e-09
8.59296e-09
8.59429e-09
8.59475e-09
8.59663e-09
8.59699e-09
8.59973e-09
8.59985e-09
8.60266e-09
8.59833e-09
8.59137e-09
8.56912e-09
8.5253e-09
8.46652e-09
8.20365e-09
8.25926e-09
8.30048e-09
8.32142e-09
8.32782e-09
8.33182e-09
8.32909e-09
8.32889e-09
8.32625e-09
8.32585e-09
8.32399e-09
8.32342e-09
8.32212e-09
8.32206e-09
8.32135e-09
8.32146e-09
8.32103e-09
8.32119e-09
8.32093e-09
8.32106e-09
8.32088e-09
8.32096e-09
8.32086e-09
8.32091e-09
8.32088e-09
8.32088e-09
8.32091e-09
8.32087e-09
8.32097e-09
8.3209e-09
8.32107e-09
8.32095e-09
8.32121e-09
8.32105e-09
8.32148e-09
8.32137e-09
8.32208e-09
8.32214e-09
8.32344e-09
8.32399e-09
8.32588e-09
8.32627e-09
8.32891e-09
8.32911e-09
8.33184e-09
8.32783e-09
8.32144e-09
8.3005e-09
8.25927e-09
8.20366e-09
7.95498e-09
8.00751e-09
8.04628e-09
8.06599e-09
8.07185e-09
8.07555e-09
8.0729e-09
8.07262e-09
8.07008e-09
8.06965e-09
8.06777e-09
8.06709e-09
8.06583e-09
8.06575e-09
8.06507e-09
8.06516e-09
8.06475e-09
8.0649e-09
8.06465e-09
8.06477e-09
8.06461e-09
8.06468e-09
8.06459e-09
8.06463e-09
8.0646e-09
8.06461e-09
8.06464e-09
8.0646e-09
8.0647e-09
8.06462e-09
8.06479e-09
8.06467e-09
8.06492e-09
8.06477e-09
8.06519e-09
8.06509e-09
8.06577e-09
8.06585e-09
8.06711e-09
8.06776e-09
8.06967e-09
8.07011e-09
8.07264e-09
8.07292e-09
8.07556e-09
8.07186e-09
8.066e-09
8.0463e-09
8.00752e-09
7.95499e-09
7.71941e-09
7.76899e-09
7.80541e-09
7.82397e-09
7.82933e-09
7.83273e-09
7.83016e-09
7.82982e-09
7.82738e-09
7.82691e-09
7.82497e-09
7.82421e-09
7.82298e-09
7.82289e-09
7.82223e-09
7.82231e-09
7.82192e-09
7.82206e-09
7.82182e-09
7.82194e-09
7.82178e-09
7.82185e-09
7.82176e-09
7.8218e-09
7.82178e-09
7.82178e-09
7.82181e-09
7.82177e-09
7.82186e-09
7.8218e-09
7.82195e-09
7.82184e-09
7.82208e-09
7.82195e-09
7.82234e-09
7.82226e-09
7.82291e-09
7.823e-09
7.82423e-09
7.82494e-09
7.82693e-09
7.8274e-09
7.82984e-09
7.83018e-09
7.83275e-09
7.82935e-09
7.82398e-09
7.80544e-09
7.76899e-09
7.71941e-09
7.49596e-09
7.54271e-09
7.57693e-09
7.59439e-09
7.59928e-09
7.6024e-09
7.59991e-09
7.5995e-09
7.59716e-09
7.59666e-09
7.5946e-09
7.59377e-09
7.59259e-09
7.59249e-09
7.59186e-09
7.59193e-09
7.59156e-09
7.59169e-09
7.59146e-09
7.59157e-09
7.59142e-09
7.59149e-09
7.59141e-09
7.59145e-09
7.59142e-09
7.59142e-09
7.59145e-09
7.59141e-09
7.5915e-09
7.59144e-09
7.59159e-09
7.59148e-09
7.59171e-09
7.59158e-09
7.59196e-09
7.59188e-09
7.59251e-09
7.59261e-09
7.59379e-09
7.59457e-09
7.59667e-09
7.59718e-09
7.59952e-09
7.59993e-09
7.60242e-09
7.5993e-09
7.5944e-09
7.57696e-09
7.54271e-09
7.49596e-09
7.28375e-09
7.32774e-09
7.36006e-09
7.37637e-09
7.38082e-09
7.38368e-09
7.38126e-09
7.3808e-09
7.37854e-09
7.37801e-09
7.37577e-09
7.37491e-09
7.37378e-09
7.37367e-09
7.37307e-09
7.37314e-09
7.37278e-09
7.37291e-09
7.37269e-09
7.37279e-09
7.37265e-09
7.37272e-09
7.37264e-09
7.37267e-09
7.37265e-09
7.37265e-09
7.37268e-09
7.37265e-09
7.37273e-09
7.37267e-09
7.37281e-09
7.37271e-09
7.37293e-09
7.37281e-09
7.37316e-09
7.3731e-09
7.37369e-09
7.3738e-09
7.37493e-09
7.37573e-09
7.37803e-09
7.37856e-09
7.38082e-09
7.38128e-09
7.38369e-09
7.38084e-09
7.37638e-09
7.36008e-09
7.32774e-09
7.28375e-09
7.08201e-09
7.12343e-09
7.15386e-09
7.16911e-09
7.17316e-09
7.17576e-09
7.17341e-09
7.1729e-09
7.17073e-09
7.17018e-09
7.16767e-09
7.16681e-09
7.16574e-09
7.16564e-09
7.16507e-09
7.16513e-09
7.16479e-09
7.16491e-09
7.1647e-09
7.1648e-09
7.16467e-09
7.16473e-09
7.16465e-09
7.16469e-09
7.16467e-09
7.16467e-09
7.16469e-09
7.16466e-09
7.16474e-09
7.16468e-09
7.16482e-09
7.16472e-09
7.16493e-09
7.16482e-09
7.16515e-09
7.1651e-09
7.16566e-09
7.16576e-09
7.16684e-09
7.16763e-09
7.17019e-09
7.17076e-09
7.17292e-09
7.17343e-09
7.17577e-09
7.17317e-09
7.16913e-09
7.15388e-09
7.12343e-09
7.08201e-09
6.89004e-09
6.92905e-09
6.95761e-09
6.9719e-09
6.97556e-09
6.97793e-09
6.97565e-09
6.9751e-09
6.97301e-09
6.97244e-09
6.96956e-09
6.96876e-09
6.96776e-09
6.96766e-09
6.96712e-09
6.96717e-09
6.96686e-09
6.96697e-09
6.96677e-09
6.96687e-09
6.96674e-09
6.9668e-09
6.96673e-09
6.96676e-09
6.96674e-09
6.96674e-09
6.96677e-09
6.96674e-09
6.96681e-09
6.96676e-09
6.96688e-09
6.96679e-09
6.96699e-09
6.96688e-09
6.9672e-09
6.96715e-09
6.96768e-09
6.96778e-09
6.96878e-09
6.96952e-09
6.97245e-09
6.97304e-09
6.97512e-09
6.97567e-09
6.97794e-09
6.97558e-09
6.97191e-09
6.95764e-09
6.92905e-09
6.89004e-09
6.70718e-09
6.74395e-09
6.77067e-09
6.78407e-09
6.78738e-09
6.78952e-09
6.78731e-09
6.78672e-09
6.78472e-09
6.78414e-09
6.78075e-09
6.78007e-09
6.77915e-09
6.77905e-09
6.77855e-09
6.7786e-09
6.7783e-09
6.7784e-09
6.77823e-09
6.77831e-09
6.7782e-09
6.77825e-09
6.77818e-09
6.77822e-09
6.7782e-09
6.7782e-09
6.77822e-09
6.77819e-09
6.77826e-09
6.77821e-09
6.77833e-09
6.77825e-09
6.77843e-09
6.77833e-09
6.77863e-09
6.77858e-09
6.77908e-09
6.77917e-09
6.78009e-09
6.78073e-09
6.78415e-09
6.78474e-09
6.78674e-09
6.78732e-09
6.78953e-09
6.78739e-09
6.78408e-09
6.7707e-09
6.74395e-09
6.70718e-09
6.53286e-09
6.56752e-09
6.59243e-09
6.605e-09
6.608e-09
6.60992e-09
6.60778e-09
6.60715e-09
6.60524e-09
6.60467e-09
6.60063e-09
6.60011e-09
6.59927e-09
6.59919e-09
6.59872e-09
6.59877e-09
6.59849e-09
6.59859e-09
6.59842e-09
6.5985e-09
6.59839e-09
6.59845e-09
6.59838e-09
6.59842e-09
6.5984e-09
6.5984e-09
6.59842e-09
6.59839e-09
6.59846e-09
6.59841e-09
6.59852e-09
6.59844e-09
6.59861e-09
6.59852e-09
6.5988e-09
6.59875e-09
6.59921e-09
6.5993e-09
6.60013e-09
6.60062e-09
6.60469e-09
6.60526e-09
6.60717e-09
6.60779e-09
6.60993e-09
6.60801e-09
6.60501e-09
6.59245e-09
6.56751e-09
6.53286e-09
6.36651e-09
6.39917e-09
6.42231e-09
6.43413e-09
6.43683e-09
6.43855e-09
6.43648e-09
6.43583e-09
6.43399e-09
6.43347e-09
6.4346e-09
6.43428e-09
6.43353e-09
6.43346e-09
6.43302e-09
6.43307e-09
6.43281e-09
6.4329e-09
6.43274e-09
6.43283e-09
6.43272e-09
6.43277e-09
6.43272e-09
6.43275e-09
6.43273e-09
6.43273e-09
6.43275e-09
6.43272e-09
6.43279e-09
6.43274e-09
6.43284e-09
6.43277e-09
6.43293e-09
6.43284e-09
6.4331e-09
6.43305e-09
6.43348e-09
6.43355e-09
6.4343e-09
6.43462e-09
6.43349e-09
6.43401e-09
6.43585e-09
6.4365e-09
6.43856e-09
6.43684e-09
6.43414e-09
6.42234e-09
6.39916e-09
6.3665e-09
6.213e-09
6.24401e-09
6.26544e-09
6.27664e-09
6.27906e-09
6.2806e-09
6.27858e-09
6.27791e-09
6.27614e-09
6.27564e-09
6.27634e-09
6.27614e-09
6.2754e-09
6.27531e-09
6.27486e-09
6.27489e-09
6.27462e-09
6.2747e-09
6.27454e-09
6.27462e-09
6.27451e-09
6.27456e-09
6.2745e-09
6.27453e-09
6.27451e-09
6.27451e-09
6.27453e-09
6.27451e-09
6.27457e-09
6.27452e-09
6.27463e-09
6.27456e-09
6.27473e-09
6.27465e-09
6.27492e-09
6.27488e-09
6.27534e-09
6.27542e-09
6.27617e-09
6.27638e-09
6.27566e-09
6.27616e-09
6.27793e-09
6.27859e-09
6.28061e-09
6.27907e-09
6.27665e-09
6.26547e-09
6.244e-09
6.21299e-09
6.06268e-09
6.09209e-09
6.11162e-09
6.12203e-09
6.12396e-09
6.12521e-09
6.12313e-09
6.12237e-09
6.12061e-09
6.12009e-09
6.12041e-09
6.12036e-09
6.11968e-09
6.11959e-09
6.11916e-09
6.11919e-09
6.11893e-09
6.11901e-09
6.11885e-09
6.11892e-09
6.11882e-09
6.11887e-09
6.11881e-09
6.11884e-09
6.11882e-09
6.11882e-09
6.11884e-09
6.11882e-09
6.11888e-09
6.11883e-09
6.11894e-09
6.11887e-09
6.11903e-09
6.11895e-09
6.11922e-09
6.11919e-09
6.11962e-09
6.1197e-09
6.12038e-09
6.12047e-09
6.12011e-09
6.12062e-09
6.12238e-09
6.12314e-09
6.12522e-09
6.12397e-09
6.12204e-09
6.11164e-09
6.09208e-09
6.06267e-09
5.91797e-09
5.94568e-09
5.96365e-09
5.97343e-09
5.97513e-09
5.9762e-09
5.97418e-09
5.9734e-09
5.97171e-09
5.9712e-09
5.97123e-09
5.97131e-09
5.97071e-09
5.97064e-09
5.97024e-09
5.97027e-09
5.97003e-09
5.9701e-09
5.96996e-09
5.97003e-09
5.96993e-09
5.96998e-09
5.96992e-09
5.96995e-09
5.96993e-09
5.96993e-09
5.96995e-09
5.96993e-09
5.96999e-09
5.96994e-09
5.97004e-09
5.96998e-09
5.97013e-09
5.97005e-09
5.9703e-09
5.97027e-09
5.97067e-09
5.97074e-09
5.97133e-09
5.9713e-09
5.97122e-09
5.97173e-09
5.97341e-09
5.97419e-09
5.97621e-09
5.97514e-09
5.97344e-09
5.96367e-09
5.94567e-09
5.91796e-09
5.77951e-09
5.80557e-09
5.82214e-09
5.83128e-09
5.83277e-09
5.83367e-09
5.83171e-09
5.83091e-09
5.8293e-09
5.82878e-09
5.82858e-09
5.82875e-09
5.82823e-09
5.82818e-09
5.82781e-09
5.82784e-09
5.82761e-09
5.82768e-09
5.82755e-09
5.82761e-09
5.82753e-09
5.82757e-09
5.82752e-09
5.82754e-09
5.82753e-09
5.82753e-09
5.82755e-09
5.82752e-09
5.82758e-09
5.82754e-09
5.82763e-09
5.82757e-09
5.82771e-09
5.82764e-09
5.82787e-09
5.82784e-09
5.82821e-09
5.82826e-09
5.82877e-09
5.82866e-09
5.8288e-09
5.82931e-09
5.83092e-09
5.83172e-09
5.83367e-09
5.83277e-09
5.83129e-09
5.82216e-09
5.80556e-09
5.7795e-09
5.64691e-09
5.67138e-09
5.68661e-09
5.69515e-09
5.69644e-09
5.69718e-09
5.69529e-09
5.69447e-09
5.69293e-09
5.69241e-09
5.69204e-09
5.69225e-09
5.69181e-09
5.69177e-09
5.69143e-09
5.69146e-09
5.69125e-09
5.69132e-09
5.6912e-09
5.69126e-09
5.69118e-09
5.69122e-09
5.69117e-09
5.6912e-09
5.69118e-09
5.69119e-09
5.6912e-09
5.69118e-09
5.69123e-09
5.69119e-09
5.69128e-09
5.69122e-09
5.69135e-09
5.69128e-09
5.69149e-09
5.69146e-09
5.6918e-09
5.69184e-09
5.69228e-09
5.69212e-09
5.69243e-09
5.69294e-09
5.69448e-09
5.69529e-09
5.69718e-09
5.69644e-09
5.69515e-09
5.68663e-09
5.67137e-09
5.6469e-09
5.52399e-09
5.54708e-09
5.5611e-09
5.56908e-09
5.57017e-09
5.57077e-09
5.56892e-09
5.56809e-09
5.5666e-09
5.56609e-09
5.5656e-09
5.56582e-09
5.56543e-09
5.56541e-09
5.5651e-09
5.56513e-09
5.56494e-09
5.56501e-09
5.56489e-09
5.56495e-09
5.56487e-09
5.56492e-09
5.56487e-09
5.5649e-09
5.56488e-09
5.56488e-09
5.5649e-09
5.56488e-09
5.56493e-09
5.56489e-09
5.56497e-09
5.56491e-09
5.56503e-09
5.56497e-09
5.56516e-09
5.56513e-09
5.56544e-09
5.56546e-09
5.56585e-09
5.56567e-09
5.56611e-09
5.56661e-09
5.5681e-09
5.56892e-09
5.57077e-09
5.57017e-09
5.56908e-09
5.56111e-09
5.54707e-09
5.52397e-09
5.4063e-09
5.42805e-09
5.44099e-09
5.4484e-09
5.44931e-09
5.44978e-09
5.44797e-09
5.44713e-09
5.44564e-09
5.44503e-09
5.44441e-09
5.44458e-09
5.44417e-09
5.44413e-09
5.44381e-09
5.44384e-09
5.44363e-09
5.4437e-09
5.44358e-09
5.44364e-09
5.44356e-09
5.4436e-09
5.44355e-09
5.44357e-09
5.44356e-09
5.44356e-09
5.44358e-09
5.44356e-09
5.44361e-09
5.44357e-09
5.44365e-09
5.4436e-09
5.44372e-09
5.44366e-09
5.44386e-09
5.44384e-09
5.44416e-09
5.4442e-09
5.4446e-09
5.44447e-09
5.44505e-09
5.44565e-09
5.44714e-09
5.44797e-09
5.44978e-09
5.4493e-09
5.4484e-09
5.441e-09
5.42804e-09
5.40628e-09
5.29032e-09
5.31081e-09
5.32259e-09
5.32938e-09
5.32998e-09
5.33025e-09
5.32841e-09
5.32752e-09
5.32604e-09
5.32541e-09
5.32473e-09
5.32485e-09
5.32446e-09
5.32442e-09
5.32412e-09
5.32414e-09
5.32395e-09
5.32401e-09
5.32389e-09
5.32395e-09
5.32387e-09
5.32391e-09
5.32387e-09
5.32389e-09
5.32388e-09
5.32388e-09
5.32389e-09
5.32387e-09
5.32392e-09
5.32388e-09
5.32396e-09
5.32391e-09
5.32403e-09
5.32397e-09
5.32417e-09
5.32415e-09
5.32446e-09
5.32449e-09
5.32487e-09
5.32477e-09
5.32542e-09
5.32605e-09
5.32752e-09
5.32841e-09
5.33024e-09
5.32998e-09
5.32938e-09
5.3226e-09
5.3108e-09
5.2903e-09
5.1784e-09
5.19753e-09
5.20829e-09
5.21455e-09
5.21501e-09
5.21514e-09
5.21336e-09
5.21246e-09
5.21104e-09
5.21041e-09
5.20969e-09
5.20976e-09
5.20941e-09
5.20938e-09
5.2091e-09
5.20912e-09
5.20894e-09
5.209e-09
5.20889e-09
5.20895e-09
5.20888e-09
5.20891e-09
5.20887e-09
5.20889e-09
5.20888e-09
5.20888e-09
5.2089e-09
5.20888e-09
5.20892e-09
5.20889e-09
5.20896e-09
5.20891e-09
5.20902e-09
5.20897e-09
5.20915e-09
5.20913e-09
5.20941e-09
5.20945e-09
5.20979e-09
5.20973e-09
5.21042e-09
5.21104e-09
5.21246e-09
5.21336e-09
5.21513e-09
5.215e-09
5.21454e-09
5.2083e-09
5.19752e-09
5.17837e-09
5.07419e-09
5.09216e-09
5.10193e-09
5.10772e-09
5.10803e-09
5.10805e-09
5.10631e-09
5.10539e-09
5.10402e-09
5.10339e-09
5.10266e-09
5.10268e-09
5.10235e-09
5.10232e-09
5.10206e-09
5.10208e-09
5.10191e-09
5.10197e-09
5.10187e-09
5.10192e-09
5.10185e-09
5.10189e-09
5.10185e-09
5.10187e-09
5.10186e-09
5.10186e-09
5.10187e-09
5.10185e-09
5.1019e-09
5.10187e-09
5.10193e-09
5.10188e-09
5.10199e-09
5.10194e-09
5.10211e-09
5.10209e-09
5.10235e-09
5.10238e-09
5.1027e-09
5.10268e-09
5.1034e-09
5.10402e-09
5.10539e-09
5.1063e-09
5.10804e-09
5.10802e-09
5.10771e-09
5.10193e-09
5.09215e-09
5.07416e-09
4.97374e-09
4.99085e-09
4.9996e-09
5.00474e-09
5.00449e-09
5.00423e-09
5.00233e-09
5.0013e-09
4.99987e-09
4.99919e-09
4.99841e-09
4.99837e-09
4.99803e-09
4.99799e-09
4.99772e-09
4.99774e-09
4.99757e-09
4.99762e-09
4.99752e-09
4.99757e-09
4.99751e-09
4.99754e-09
4.9975e-09
4.99752e-09
4.99751e-09
4.99751e-09
4.99753e-09
4.99751e-09
4.99755e-09
4.99752e-09
4.99759e-09
4.99754e-09
4.99765e-09
4.9976e-09
4.99777e-09
4.99775e-09
4.99802e-09
4.99806e-09
4.9984e-09
4.99844e-09
4.99919e-09
4.99987e-09
5.00129e-09
5.00232e-09
5.00421e-09
5.00448e-09
5.00473e-09
4.99961e-09
4.99084e-09
4.97371e-09
4.87724e-09
4.8933e-09
4.90113e-09
4.90583e-09
4.90542e-09
4.90503e-09
4.90316e-09
4.90211e-09
4.90072e-09
4.90004e-09
4.89925e-09
4.89916e-09
4.89882e-09
4.89879e-09
4.89853e-09
4.89855e-09
4.89839e-09
4.89844e-09
4.89835e-09
4.89839e-09
4.89833e-09
4.89836e-09
4.89833e-09
4.89835e-09
4.89834e-09
4.89834e-09
4.89835e-09
4.89833e-09
4.89837e-09
4.89834e-09
4.89841e-09
4.89836e-09
4.89846e-09
4.89842e-09
4.89858e-09
4.89857e-09
4.89882e-09
4.89886e-09
4.89919e-09
4.89927e-09
4.90004e-09
4.90072e-09
4.9021e-09
4.90314e-09
4.90502e-09
4.90541e-09
4.90582e-09
4.90114e-09
4.89329e-09
4.87721e-09
4.78419e-09
4.79924e-09
4.80622e-09
4.81047e-09
4.8099e-09
4.80939e-09
4.80752e-09
4.80645e-09
4.8051e-09
4.80441e-09
4.80363e-09
4.80348e-09
4.80315e-09
4.80311e-09
4.80287e-09
4.80289e-09
4.80274e-09
4.80278e-09
4.8027e-09
4.80274e-09
4.80268e-09
4.80271e-09
4.80268e-09
4.8027e-09
4.80269e-09
4.80269e-09
4.8027e-09
4.80268e-09
4.80272e-09
4.80269e-09
4.80275e-09
4.80271e-09
4.80281e-09
4.80276e-09
4.80292e-09
4.8029e-09
4.80315e-09
4.80319e-09
4.80352e-09
4.80365e-09
4.80441e-09
4.80509e-09
4.80644e-09
4.80751e-09
4.80937e-09
4.80988e-09
4.81046e-09
4.80623e-09
4.79922e-09
4.78416e-09
4.71029e-09
4.71033e-09
4.71027e-09
4.7103e-09
4.71027e-09
4.71029e-09
4.71028e-09
4.71028e-09
4.71029e-09
4.71027e-09
4.71031e-09
4.71029e-09
4.71034e-09
4.7103e-09
4.71039e-09
4.71035e-09
4.7105e-09
4.71049e-09
4.71072e-09
4.71077e-09
4.7111e-09
4.71127e-09
4.71203e-09
4.71272e-09
4.71404e-09
4.71513e-09
4.71698e-09
4.71761e-09
4.71837e-09
4.71459e-09
4.70838e-09
4.69429e-09
4.62086e-09
4.62083e-09
4.62089e-09
4.62085e-09
4.62094e-09
4.6209e-09
4.62104e-09
4.62103e-09
4.62126e-09
4.62131e-09
4.62164e-09
4.62185e-09
4.62261e-09
4.62331e-09
4.62461e-09
4.62572e-09
4.62758e-09
4.62833e-09
4.62926e-09
4.62591e-09
4.62049e-09
4.60733e-09
4.53586e-09
4.53656e-09
4.53785e-09
4.53899e-09
4.54085e-09
4.54173e-09
4.54284e-09
4.53993e-09
4.53526e-09
4.52299e-09
)
;

boundaryField
{
    fuel
    {
        type            fixedValue;
        value           nonuniform 0();
    }
    wall
    {
        type            zeroGradient;
    }
    outlet
    {
        type            zeroGradient;
    }
    frontAndBack
    {
        type            empty;
    }
    procBoundary0to1
    {
        type            processor;
        value           nonuniform List<scalar> 
50
(
1.62675e-08
1.63903e-08
1.651e-08
1.65715e-08
1.65909e-08
1.66041e-08
1.6598e-08
1.66009e-08
1.65949e-08
1.65964e-08
1.65927e-08
1.6594e-08
1.65916e-08
1.65925e-08
1.65909e-08
1.65917e-08
1.65907e-08
1.65914e-08
1.65907e-08
1.65912e-08
1.65907e-08
1.6591e-08
1.65907e-08
1.65909e-08
1.65908e-08
1.65908e-08
1.65909e-08
1.65907e-08
1.6591e-08
1.65907e-08
1.65912e-08
1.65907e-08
1.65914e-08
1.65907e-08
1.65918e-08
1.6591e-08
1.65925e-08
1.65916e-08
1.6594e-08
1.65928e-08
1.65965e-08
1.65949e-08
1.66009e-08
1.6598e-08
1.66041e-08
1.65909e-08
1.65715e-08
1.651e-08
1.63903e-08
1.62675e-08
)
;
    }
    procBoundary0to2
    {
        type            processor;
        value           nonuniform List<scalar> 
53
(
4.69433e-09
4.70839e-09
4.71458e-09
4.71838e-09
4.71764e-09
4.71701e-09
4.71515e-09
4.71406e-09
4.71273e-09
4.71204e-09
4.71126e-09
4.71107e-09
4.71074e-09
4.7107e-09
4.71047e-09
4.71048e-09
4.71034e-09
4.71038e-09
4.71038e-09
4.62084e-09
4.62088e-09
4.62083e-09
4.62086e-09
4.62083e-09
4.62085e-09
4.62084e-09
4.62084e-09
4.62085e-09
4.62083e-09
4.62083e-09
4.53408e-09
4.53405e-09
4.5341e-09
4.53407e-09
4.53415e-09
4.53412e-09
4.53425e-09
4.53425e-09
4.53447e-09
4.53453e-09
4.53487e-09
4.53511e-09
4.53511e-09
4.45149e-09
4.4522e-09
4.45347e-09
4.45465e-09
4.45652e-09
4.45752e-09
4.45882e-09
4.45635e-09
4.45241e-09
4.441e-09
)
;
    }
}


// ************************************************************************* //
