/*--------------------------------*- C++ -*----------------------------------*\
| =========                 |                                                 |
| \\      /  F ield         | OpenFOAM: The Open Source CFD Toolbox           |
|  \\    /   O peration     | Version:  dev                                   |
|   \\  /    A nd           | Web:      www.OpenFOAM.org                      |
|    \\/     M anipulation  |                                                 |
\*---------------------------------------------------------------------------*/
FoamFile
{
    version     2.0;
    format      ascii;
    class       volScalarField;
    location    "0.045";
    object      A2C2HA*;
}
// * * * * * * * * * * * * * * * * * * * * * * * * * * * * * * * * * * * * * //

dimensions      [0 0 0 0 0 0 0];

internalField   nonuniform List<scalar> 
250
(
1.59188e-12
1.60258e-12
1.58718e-12
1.61543e-12
1.60414e-12
1.66948e-12
1.81702e-12
2.28758e-12
4.25497e-12
7.35794e-12
1.44447e-12
1.45454e-12
1.44036e-12
1.46619e-12
1.45592e-12
1.51531e-12
1.64626e-12
2.07688e-12
3.8647e-12
7.4454e-12
3.29082e-11
4.70478e-12
2.14716e-12
1.43492e-12
1.41592e-12
1.30591e-12
1.34298e-12
1.30656e-12
1.32453e-12
1.3134e-12
1.31461e-12
1.32397e-12
1.31105e-12
1.33444e-12
1.32525e-12
1.37883e-12
1.49465e-12
1.88484e-12
3.54527e-12
7.39185e-12
2.90278e-11
4.17058e-12
1.93165e-12
1.30811e-12
1.29033e-12
1.19331e-12
1.22539e-12
1.19335e-12
1.20921e-12
1.19941e-12
1.20029e-12
1.20886e-12
1.19724e-12
1.2182e-12
1.21013e-12
1.25808e-12
1.36007e-12
1.70987e-12
3.24058e-12
7.20015e-12
2.4984e-11
3.65765e-12
1.73726e-12
1.19621e-12
1.1795e-12
1.0946e-12
1.12213e-12
1.09411e-12
1.10799e-12
1.0994e-12
1.10005e-12
1.10776e-12
1.09747e-12
1.11601e-12
1.1091e-12
1.15164e-12
1.24096e-12
1.55092e-12
2.94612e-12
6.88056e-12
2.08683e-11
3.15575e-12
1.56245e-12
1.098e-12
1.08234e-12
1.0085e-12
1.03198e-12
1.00755e-12
1.01963e-12
1.01212e-12
1.01261e-12
1.01943e-12
1.01046e-12
1.02667e-12
1.02091e-12
1.05842e-12
1.13606e-12
1.40712e-12
2.66162e-12
6.44886e-12
1.67446e-11
2.70641e-12
1.40596e-12
1.01208e-12
9.9776e-13
9.33377e-13
9.53555e-13
9.32081e-13
9.42662e-13
9.36009e-13
9.3641e-13
9.42409e-13
9.34616e-13
9.48775e-13
9.44035e-13
9.7722e-13
1.04403e-12
1.27728e-12
2.38814e-12
5.92416e-12
1.30336e-11
2.30269e-12
1.26572e-12
9.31127e-13
9.1998e-13
8.63717e-13
8.8018e-13
8.61921e-13
8.70815e-13
8.64982e-13
8.65133e-13
8.70528e-13
8.63859e-13
8.76035e-13
8.72318e-13
9.01054e-13
9.61135e-13
1.15918e-12
2.12599e-12
5.32714e-12
1.00736e-11
1.94343e-12
1.13863e-12
8.53055e-13
8.46861e-13
7.99924e-13
8.15273e-13
7.98071e-13
8.06431e-13
8.00761e-13
8.00847e-13
8.05992e-13
7.99795e-13
8.11091e-13
8.07703e-13
8.29918e-13
8.78945e-13
1.04924e-12
1.87586e-12
4.67877e-12
7.61768e-12
1.60465e-12
1.01997e-12
7.79286e-13
7.79404e-13
7.3449e-13
7.50178e-13
7.32782e-13
7.41292e-13
7.3532e-13
7.3533e-13
7.40661e-13
7.344e-13
7.4564e-13
7.42064e-13
7.6251e-13
8.04172e-13
9.42937e-13
1.63558e-12
3.99374e-12
5.69254e-12
1.31873e-12
9.03347e-13
6.9951e-13
7.07696e-13
6.62484e-13
6.79739e-13
6.61126e-13
6.70369e-13
6.63718e-13
6.63643e-13
6.6953e-13
6.6274e-13
6.74608e-13
6.70371e-13
6.89789e-13
7.24987e-13
8.35255e-13
1.40268e-12
3.26447e-12
4.11501e-12
1.06325e-12
7.86413e-13
6.11028e-13
6.27663e-13
5.81048e-13
6.00371e-13
5.80183e-13
5.90394e-13
5.82948e-13
5.82781e-13
5.89373e-13
5.81844e-13
5.94615e-13
5.89464e-13
6.08288e-13
6.37746e-13
7.22792e-13
1.17607e-12
2.61913e-12
2.92735e-12
8.35875e-13
6.66451e-13
5.146e-13
5.38234e-13
4.90927e-13
5.11815e-13
4.90586e-13
5.01512e-13
4.93505e-13
4.93251e-13
5.00383e-13
4.92273e-13
5.05665e-13
4.99688e-13
5.17788e-13
5.42009e-13
6.05438e-13
9.57167e-13
2.02083e-12
3.9931e-13
4.06544e-13
3.98334e-13
4.11592e-13
4.05203e-13
4.21972e-13
4.41314e-13
4.86922e-13
7.50807e-13
1.4939e-12
)
;

boundaryField
{
    fuel
    {
        type            fixedValue;
        value           nonuniform 0();
    }
    wall
    {
        type            zeroGradient;
    }
    outlet
    {
        type            zeroGradient;
    }
    frontAndBack
    {
        type            empty;
    }
    procBoundary0to1
    {
        type            processor;
        value           nonuniform List<scalar> 
21
(
2.02308e-12
6.36677e-13
5.44525e-13
4.14733e-13
4.42334e-13
3.96604e-13
4.17709e-13
3.96702e-13
4.07675e-13
3.99628e-13
3.99628e-13
3.07575e-13
3.14357e-13
3.06669e-13
3.1886e-13
3.12641e-13
3.27304e-13
3.42136e-13
3.73664e-13
5.64103e-13
1.05497e-12
)
;
    }
    procBoundary0to2
    {
        type            processor;
        value           nonuniform List<scalar> 
12
(
1.58968e-12
3.63863e-11
5.31049e-12
2.38611e-12
1.57799e-12
1.5577e-12
1.4338e-12
1.47637e-12
1.43517e-12
1.45541e-12
1.44282e-12
1.44282e-12
)
;
    }
    procBoundary0to3
    {
        type            processor;
        value           nonuniform List<scalar> 10(1.75948e-12 1.77074e-12 1.75414e-12 1.78483e-12 1.77259e-12 1.84398e-12 2.0097e-12 2.53851e-12 4.62752e-12 7.13321e-12);
    }
}


// ************************************************************************* //
