/*--------------------------------*- C++ -*----------------------------------*\
| =========                 |                                                 |
| \\      /  F ield         | OpenFOAM: The Open Source CFD Toolbox           |
|  \\    /   O peration     | Version:  dev                                   |
|   \\  /    A nd           | Web:      www.OpenFOAM.org                      |
|    \\/     M anipulation  |                                                 |
\*---------------------------------------------------------------------------*/
FoamFile
{
    version     2.0;
    format      ascii;
    class       volScalarField;
    location    "0.045";
    object      A2C2HB;
}
// * * * * * * * * * * * * * * * * * * * * * * * * * * * * * * * * * * * * * //

dimensions      [0 0 0 0 0 0 0];

internalField   nonuniform List<scalar> 
25
(
9.33347e-15
6.7896e-15
5.05859e-15
3.84584e-15
2.93052e-15
2.22796e-15
1.69375e-15
1.29362e-15
9.92309e-16
7.73652e-16
6.12519e-16
4.9317e-16
4.0464e-16
3.41349e-16
2.99003e-16
2.75584e-16
2.70901e-16
2.85698e-16
3.22518e-16
3.85688e-16
4.80098e-16
6.13461e-16
7.95331e-16
1.03799e-15
1.35716e-15
)
;

boundaryField
{
    wall
    {
        type            zeroGradient;
    }
    fuel
    {
        type            fixedValue;
        value           uniform 0;
    }
    outlet
    {
        type            inletOutlet;
        inletValue      nonuniform 0();
        value           nonuniform 0();
    }
    procBoundary0to1
    {
        type            processor;
        value           uniform 1.77045e-15;
    }
}


// ************************************************************************* //
