/*--------------------------------*- C++ -*----------------------------------*\
| =========                 |                                                 |
| \\      /  F ield         | OpenFOAM: The Open Source CFD Toolbox           |
|  \\    /   O peration     | Version:  dev                                   |
|   \\  /    A nd           | Web:      www.OpenFOAM.org                      |
|    \\/     M anipulation  |                                                 |
\*---------------------------------------------------------------------------*/
FoamFile
{
    version     2.0;
    format      ascii;
    class       volScalarField;
    location    "0.045";
    object      C2H;
}
// * * * * * * * * * * * * * * * * * * * * * * * * * * * * * * * * * * * * * //

dimensions      [0 0 0 0 0 0 0];

internalField   nonuniform List<scalar> 
250
(
6.33509e-07
6.3527e-07
6.3334e-07
6.35294e-07
6.36859e-07
6.3674e-07
6.41626e-07
5.98455e-07
4.20946e-07
1.47319e-07
5.8144e-07
5.83282e-07
5.81301e-07
5.83322e-07
5.84946e-07
5.84913e-07
5.91279e-07
5.5529e-07
4.05675e-07
1.56432e-07
1.60806e-07
3.86654e-07
5.11035e-07
5.43295e-07
5.33725e-07
5.32909e-07
5.314e-07
5.28571e-07
5.31146e-07
5.28691e-07
5.28584e-07
5.30497e-07
5.28474e-07
5.3055e-07
5.3221e-07
5.32242e-07
5.39931e-07
5.10482e-07
3.87606e-07
1.64497e-07
1.68504e-07
3.64958e-07
4.64839e-07
4.9108e-07
4.80366e-07
4.79521e-07
4.78014e-07
4.75151e-07
4.77784e-07
4.75233e-07
4.75146e-07
4.77116e-07
4.75066e-07
4.77175e-07
4.78841e-07
4.78914e-07
4.87684e-07
4.64098e-07
3.6445e-07
1.70627e-07
1.73216e-07
3.37919e-07
4.17246e-07
4.38226e-07
4.26683e-07
4.25844e-07
4.24368e-07
4.21506e-07
4.24169e-07
4.21553e-07
4.21484e-07
4.23489e-07
4.21432e-07
4.23548e-07
4.25189e-07
4.25275e-07
4.34817e-07
4.1638e-07
3.36319e-07
1.73864e-07
1.74009e-07
3.0987e-07
3.68692e-07
3.85199e-07
3.73197e-07
3.72402e-07
3.70989e-07
3.68168e-07
3.70829e-07
3.68187e-07
3.68135e-07
3.70148e-07
3.68106e-07
3.70199e-07
3.71781e-07
3.71852e-07
3.81805e-07
3.67777e-07
3.07531e-07
1.73395e-07
1.70148e-07
2.78247e-07
3.1982e-07
3.3269e-07
3.20631e-07
3.19924e-07
3.18604e-07
3.15869e-07
3.18487e-07
3.1587e-07
3.15832e-07
3.17819e-07
3.15819e-07
3.17853e-07
3.19346e-07
3.19372e-07
3.29321e-07
3.18925e-07
2.74883e-07
1.68549e-07
1.61361e-07
2.44285e-07
2.71486e-07
2.81642e-07
2.69953e-07
2.69388e-07
2.6818e-07
2.65572e-07
2.6812e-07
2.65573e-07
2.65546e-07
2.67478e-07
2.65534e-07
2.67478e-07
2.68859e-07
2.68803e-07
2.78055e-07
2.70672e-07
2.40706e-07
1.5911e-07
1.47905e-07
2.08839e-07
2.24704e-07
2.29376e-07
2.18407e-07
2.17396e-07
2.16304e-07
2.1396e-07
2.16304e-07
2.1391e-07
2.13899e-07
2.15697e-07
2.13933e-07
2.15674e-07
2.16926e-07
2.17339e-07
2.27438e-07
2.24034e-07
2.05286e-07
1.45329e-07
1.30581e-07
1.73216e-07
1.80754e-07
1.83837e-07
1.73986e-07
1.73132e-07
1.72188e-07
1.70089e-07
1.72237e-07
1.70046e-07
1.70041e-07
1.71688e-07
1.70071e-07
1.71631e-07
1.72724e-07
1.73061e-07
1.81842e-07
1.80226e-07
1.69892e-07
1.27969e-07
1.1065e-07
1.38833e-07
1.40739e-07
1.42681e-07
1.34169e-07
1.33475e-07
1.32698e-07
1.30891e-07
1.32776e-07
1.3085e-07
1.30852e-07
1.32299e-07
1.30882e-07
1.32226e-07
1.33137e-07
1.33396e-07
1.40918e-07
1.40349e-07
1.3589e-07
1.08227e-07
8.965e-08
1.07062e-07
1.05604e-07
1.0677e-07
9.97293e-08
9.9191e-08
9.85797e-08
9.70902e-08
9.86743e-08
9.70509e-08
9.7057e-08
9.82762e-08
9.70879e-08
9.81962e-08
9.8922e-08
9.91096e-08
1.05302e-07
1.05338e-07
1.04593e-07
8.75648e-08
6.91766e-08
7.907e-08
7.60005e-08
7.6673e-08
7.11223e-08
7.07252e-08
7.02667e-08
6.9095e-08
7.03657e-08
6.90596e-08
6.90681e-08
7.00485e-08
6.90973e-08
6.99693e-08
7.052e-08
7.06477e-08
7.55106e-08
7.58369e-08
7.71008e-08
6.74891e-08
4.6913e-08
4.76617e-08
4.69386e-08
4.75894e-08
4.79865e-08
4.80669e-08
5.16919e-08
5.20965e-08
5.41531e-08
4.93217e-08
)
;

boundaryField
{
    fuel
    {
        type            fixedValue;
        value           nonuniform 0();
    }
    wall
    {
        type            zeroGradient;
    }
    outlet
    {
        type            zeroGradient;
    }
    frontAndBack
    {
        type            empty;
    }
    procBoundary0to1
    {
        type            processor;
        value           nonuniform List<scalar> 
21
(
5.05898e-08
5.56257e-08
5.21843e-08
5.25585e-08
4.84118e-08
4.81347e-08
4.78085e-08
4.69335e-08
4.79017e-08
4.69039e-08
4.69039e-08
3.02329e-08
3.07728e-08
3.02535e-08
3.07117e-08
3.09824e-08
3.10288e-08
3.3577e-08
3.39423e-08
3.60214e-08
3.39865e-08
)
;
    }
    procBoundary0to2
    {
        type            processor;
        value           nonuniform List<scalar> 
12
(
6.3364e-07
1.51102e-07
4.0299e-07
5.55518e-07
5.94481e-07
5.86391e-07
5.85641e-07
5.84163e-07
5.81402e-07
5.83897e-07
5.81562e-07
5.81562e-07
)
;
    }
    procBoundary0to3
    {
        type            processor;
        value           nonuniform List<scalar> 10(6.84688e-07 6.86364e-07 6.84491e-07 6.86365e-07 6.87844e-07 6.87625e-07 6.95524e-07 6.44589e-07 4.33862e-07 1.37834e-07);
    }
}


// ************************************************************************* //
