/*--------------------------------*- C++ -*----------------------------------*\
| =========                 |                                                 |
| \\      /  F ield         | OpenFOAM: The Open Source CFD Toolbox           |
|  \\    /   O peration     | Version:  dev                                   |
|   \\  /    A nd           | Web:      www.OpenFOAM.org                      |
|    \\/     M anipulation  |                                                 |
\*---------------------------------------------------------------------------*/
FoamFile
{
    version     2.0;
    format      ascii;
    class       volScalarField;
    location    "0.045";
    object      C2H3O;
}
// * * * * * * * * * * * * * * * * * * * * * * * * * * * * * * * * * * * * * //

dimensions      [0 0 0 0 0 0 0];

internalField   nonuniform List<scalar> 
250
(
3.48345e-10
3.48827e-10
3.48235e-10
3.48808e-10
3.49389e-10
3.50104e-10
3.55261e-10
3.57053e-10
3.52042e-10
6.32263e-10
3.33429e-10
3.33933e-10
3.33328e-10
3.33924e-10
3.34521e-10
3.3521e-10
3.404e-10
3.42362e-10
3.37195e-10
4.91673e-10
3.92261e-10
3.24153e-10
3.27981e-10
3.26578e-10
3.20684e-10
3.19774e-10
3.19206e-10
3.18361e-10
3.19129e-10
3.18472e-10
3.18432e-10
3.18961e-10
3.18342e-10
3.18961e-10
3.19573e-10
3.20229e-10
3.25471e-10
3.27533e-10
3.23297e-10
4.03093e-10
3.37776e-10
3.09745e-10
3.12942e-10
3.11493e-10
3.05547e-10
3.04677e-10
3.04104e-10
3.0323e-10
3.04026e-10
3.03326e-10
3.03293e-10
3.03848e-10
3.03214e-10
3.03856e-10
3.04477e-10
3.05093e-10
3.10371e-10
3.1247e-10
3.08576e-10
3.45271e-10
3.00891e-10
2.94428e-10
2.9761e-10
2.96188e-10
2.90215e-10
2.89395e-10
2.88822e-10
2.87922e-10
2.88745e-10
2.88003e-10
2.87975e-10
2.88556e-10
2.87908e-10
2.88572e-10
2.89196e-10
2.89763e-10
2.95043e-10
2.97121e-10
2.93084e-10
3.05921e-10
2.74694e-10
2.80484e-10
2.81968e-10
2.80653e-10
2.74689e-10
2.73932e-10
2.73365e-10
2.72442e-10
2.73291e-10
2.72509e-10
2.72487e-10
2.73093e-10
2.72431e-10
2.73114e-10
2.73735e-10
2.74242e-10
2.79473e-10
2.81471e-10
2.79019e-10
2.77818e-10
2.54798e-10
2.66016e-10
2.66031e-10
2.64935e-10
2.59026e-10
2.58351e-10
2.57798e-10
2.56856e-10
2.57728e-10
2.5691e-10
2.56894e-10
2.57523e-10
2.56847e-10
2.57548e-10
2.58159e-10
2.58588e-10
2.63696e-10
2.65539e-10
2.64172e-10
2.56456e-10
2.38465e-10
2.51249e-10
2.49869e-10
2.4912e-10
2.43328e-10
2.42752e-10
2.42217e-10
2.41257e-10
2.42157e-10
2.41307e-10
2.41295e-10
2.41946e-10
2.41251e-10
2.41968e-10
2.42565e-10
2.42903e-10
2.47736e-10
2.49395e-10
2.49348e-10
2.39043e-10
2.24024e-10
2.36183e-10
2.33612e-10
2.31724e-10
2.26085e-10
2.25332e-10
2.24803e-10
2.23857e-10
2.24761e-10
2.23883e-10
2.23877e-10
2.24542e-10
2.23854e-10
2.24557e-10
2.25148e-10
2.25652e-10
2.30873e-10
2.33179e-10
2.34274e-10
2.23838e-10
2.10551e-10
2.21041e-10
2.17579e-10
2.1588e-10
2.10499e-10
2.09807e-10
2.09303e-10
2.08366e-10
2.09276e-10
2.0839e-10
2.08386e-10
2.09056e-10
2.08365e-10
2.09061e-10
2.09632e-10
2.10083e-10
2.14974e-10
2.17186e-10
2.19164e-10
2.09858e-10
1.97668e-10
2.06156e-10
2.02111e-10
2.00643e-10
1.95576e-10
1.94956e-10
1.94487e-10
1.93578e-10
1.94469e-10
1.93597e-10
1.93596e-10
1.94254e-10
1.93579e-10
1.94256e-10
1.94792e-10
1.95183e-10
1.99753e-10
2.0176e-10
2.0435e-10
1.96669e-10
1.85396e-10
1.91968e-10
1.87636e-10
1.864e-10
1.81703e-10
1.81156e-10
1.80728e-10
1.79865e-10
1.80716e-10
1.79878e-10
1.7988e-10
1.80511e-10
1.79868e-10
1.80512e-10
1.81006e-10
1.81338e-10
1.85546e-10
1.87325e-10
1.90262e-10
1.84241e-10
1.74063e-10
1.79011e-10
1.74651e-10
1.73637e-10
1.69357e-10
1.6888e-10
1.68496e-10
1.67693e-10
1.68485e-10
1.67701e-10
1.67707e-10
1.68295e-10
1.67698e-10
1.68298e-10
1.68744e-10
1.69024e-10
1.72836e-10
1.74378e-10
1.7742e-10
1.72848e-10
1.57617e-10
1.58148e-10
1.57612e-10
1.58157e-10
1.58554e-10
1.58787e-10
1.62181e-10
1.63486e-10
1.66432e-10
1.62989e-10
)
;

boundaryField
{
    fuel
    {
        type            fixedValue;
        value           nonuniform 0();
    }
    wall
    {
        type            zeroGradient;
    }
    outlet
    {
        type            zeroGradient;
    }
    frontAndBack
    {
        type            empty;
    }
    procBoundary0to1
    {
        type            processor;
        value           nonuniform List<scalar> 
21
(
1.64156e-10
1.67858e-10
1.63726e-10
1.62901e-10
1.59086e-10
1.58673e-10
1.58335e-10
1.57607e-10
1.58321e-10
1.57611e-10
1.57611e-10
1.50281e-10
1.50739e-10
1.50277e-10
1.50758e-10
1.51103e-10
1.513e-10
1.54243e-10
1.55328e-10
1.57985e-10
1.55321e-10
)
;
    }
    procBoundary0to2
    {
        type            processor;
        value           nonuniform List<scalar> 
12
(
3.48394e-10
4.78735e-10
3.37742e-10
3.42767e-10
3.41458e-10
3.35659e-10
3.34719e-10
3.34162e-10
3.33348e-10
3.34089e-10
3.33473e-10
3.33473e-10
)
;
    }
    procBoundary0to3
    {
        type            processor;
        value           nonuniform List<scalar> 10(3.63263e-10 3.63724e-10 3.63144e-10 3.63695e-10 3.64252e-10 3.64988e-10 3.71647e-10 3.73442e-10 3.6841e-10 8.67616e-10);
    }
}


// ************************************************************************* //
