/*--------------------------------*- C++ -*----------------------------------*\
| =========                 |                                                 |
| \\      /  F ield         | OpenFOAM: The Open Source CFD Toolbox           |
|  \\    /   O peration     | Version:  dev                                   |
|   \\  /    A nd           | Web:      www.OpenFOAM.org                      |
|    \\/     M anipulation  |                                                 |
\*---------------------------------------------------------------------------*/
FoamFile
{
    version     2.0;
    format      ascii;
    class       volScalarField;
    location    "0.045";
    object      C2O;
}
// * * * * * * * * * * * * * * * * * * * * * * * * * * * * * * * * * * * * * //

dimensions      [0 0 0 0 0 0 0];

internalField   nonuniform List<scalar> 
250
(
2.06331e-07
2.06947e-07
2.06273e-07
2.06957e-07
2.07507e-07
2.07476e-07
2.09303e-07
1.95969e-07
1.4982e-07
6.72883e-08
1.88178e-07
1.88819e-07
1.8813e-07
1.88834e-07
1.89402e-07
1.89402e-07
1.91724e-07
1.80656e-07
1.416e-07
6.93147e-08
6.83108e-08
1.33021e-07
1.65155e-07
1.75065e-07
1.71629e-07
1.71332e-07
1.70806e-07
1.69826e-07
1.70717e-07
1.69867e-07
1.6983e-07
1.70492e-07
1.69792e-07
1.70511e-07
1.71089e-07
1.71115e-07
1.73893e-07
1.64951e-07
1.33048e-07
7.03765e-08
6.89421e-08
1.23565e-07
1.4915e-07
1.57043e-07
1.53221e-07
1.52909e-07
1.52386e-07
1.51402e-07
1.52307e-07
1.51431e-07
1.51401e-07
1.52078e-07
1.51373e-07
1.52099e-07
1.52676e-07
1.52722e-07
1.55871e-07
1.48884e-07
1.23164e-07
7.03242e-08
6.83237e-08
1.12774e-07
1.32868e-07
1.38971e-07
1.34878e-07
1.34562e-07
1.34054e-07
1.3308e-07
1.33986e-07
1.33099e-07
1.33075e-07
1.33755e-07
1.33056e-07
1.33776e-07
1.3434e-07
1.34399e-07
1.37805e-07
1.32561e-07
1.12073e-07
6.90934e-08
6.64445e-08
1.02307e-07
1.16499e-07
1.21066e-07
1.16845e-07
1.1654e-07
1.16057e-07
1.15111e-07
1.16002e-07
1.15121e-07
1.15103e-07
1.15775e-07
1.15091e-07
1.15793e-07
1.16332e-07
1.16394e-07
1.19919e-07
1.16176e-07
1.01405e-07
6.66902e-08
6.32817e-08
9.10794e-08
1.00306e-07
1.0363e-07
9.94363e-08
9.91565e-08
9.87108e-08
9.78099e-08
9.86702e-08
9.7814e-08
9.78013e-08
9.84519e-08
9.77943e-08
9.84648e-08
9.89666e-08
9.9021e-08
1.02508e-07
9.99905e-08
8.98621e-08
6.31059e-08
5.88817e-08
7.94985e-08
8.46202e-08
8.70321e-08
8.30248e-08
8.27898e-08
8.23877e-08
8.15467e-08
8.23647e-08
8.15516e-08
8.15425e-08
8.21602e-08
8.15353e-08
8.21626e-08
8.26199e-08
8.26535e-08
8.58617e-08
8.43329e-08
7.82444e-08
5.84058e-08
5.33887e-08
6.78244e-08
6.98025e-08
7.04449e-08
6.67572e-08
6.63791e-08
6.60217e-08
6.52862e-08
6.60167e-08
6.52754e-08
6.52717e-08
6.58292e-08
6.52786e-08
6.58254e-08
6.62319e-08
6.64207e-08
6.98221e-08
6.95635e-08
6.66098e-08
5.27334e-08
4.70675e-08
5.64605e-08
5.626e-08
5.64344e-08
5.31872e-08
5.28621e-08
5.25584e-08
5.19176e-08
5.25671e-08
5.1909e-08
5.19074e-08
5.24026e-08
5.19132e-08
5.23897e-08
5.27382e-08
5.29033e-08
5.58119e-08
5.60685e-08
5.53463e-08
4.63408e-08
4.02864e-08
4.58152e-08
4.42882e-08
4.41715e-08
4.14207e-08
4.11511e-08
4.09044e-08
4.0368e-08
4.09205e-08
4.03595e-08
4.036e-08
4.07818e-08
4.03662e-08
4.07656e-08
4.10513e-08
4.11898e-08
4.36351e-08
4.41418e-08
4.48435e-08
3.95739e-08
3.34663e-08
3.62431e-08
3.40775e-08
3.38061e-08
3.15669e-08
3.13506e-08
3.11579e-08
3.07264e-08
3.11775e-08
3.07178e-08
3.07197e-08
3.10652e-08
3.07267e-08
3.10484e-08
3.12733e-08
3.13861e-08
3.33689e-08
3.39711e-08
3.54349e-08
3.28251e-08
2.70134e-08
2.79953e-08
2.56841e-08
2.53567e-08
2.36035e-08
2.34354e-08
2.32901e-08
2.29559e-08
2.33101e-08
2.29474e-08
2.29504e-08
2.32227e-08
2.29576e-08
2.3207e-08
2.33776e-08
2.34671e-08
2.50151e-08
2.56106e-08
2.73483e-08
2.64681e-08
1.68975e-08
1.71046e-08
1.69047e-08
1.70909e-08
1.72166e-08
1.72859e-08
1.84526e-08
1.89816e-08
2.06774e-08
2.07971e-08
)
;

boundaryField
{
    fuel
    {
        type            fixedValue;
        value           nonuniform 0();
    }
    wall
    {
        type            zeroGradient;
    }
    outlet
    {
        type            zeroGradient;
    }
    frontAndBack
    {
        type            empty;
    }
    procBoundary0to1
    {
        type            processor;
        value           nonuniform List<scalar> 
21
(
2.12298e-08
2.11689e-08
1.90301e-08
1.87068e-08
1.73853e-08
1.72582e-08
1.71521e-08
1.69025e-08
1.71706e-08
1.68946e-08
1.68946e-08
1.23208e-08
1.24736e-08
1.23275e-08
1.24623e-08
1.25523e-08
1.2605e-08
1.34563e-08
1.38937e-08
1.53738e-08
1.59744e-08
)
;
    }
    procBoundary0to2
    {
        type            processor;
        value           nonuniform List<scalar> 
12
(
2.06376e-07
6.64642e-08
1.41065e-07
1.80751e-07
1.92845e-07
1.89917e-07
1.89645e-07
1.89127e-07
1.88165e-07
1.89033e-07
1.8822e-07
1.8822e-07
)
;
    }
    procBoundary0to3
    {
        type            processor;
        value           nonuniform List<scalar> 10(2.2423e-07 2.24817e-07 2.24162e-07 2.2482e-07 2.25342e-07 2.2528e-07 2.28227e-07 2.12579e-07 1.57888e-07 6.45698e-08);
    }
}


// ************************************************************************* //
