/*--------------------------------*- C++ -*----------------------------------*\
| =========                 |                                                 |
| \\      /  F ield         | OpenFOAM: The Open Source CFD Toolbox           |
|  \\    /   O peration     | Version:  dev                                   |
|   \\  /    A nd           | Web:      www.OpenFOAM.org                      |
|    \\/     M anipulation  |                                                 |
\*---------------------------------------------------------------------------*/
FoamFile
{
    version     2.0;
    format      ascii;
    class       volScalarField;
    location    "0.045";
    object      CH2;
}
// * * * * * * * * * * * * * * * * * * * * * * * * * * * * * * * * * * * * * //

dimensions      [0 0 0 0 0 0 0];

internalField   nonuniform List<scalar> 
250
(
4.93496e-07
4.94933e-07
4.9344e-07
4.94984e-07
4.9607e-07
4.94999e-07
4.94078e-07
4.44174e-07
2.83412e-07
1.26315e-07
4.51947e-07
4.53477e-07
4.51906e-07
4.53534e-07
4.54698e-07
4.53787e-07
4.54772e-07
4.12354e-07
2.73722e-07
1.20067e-07
1.10098e-07
2.59544e-07
3.78414e-07
4.16258e-07
4.12081e-07
4.12231e-07
4.11137e-07
4.08822e-07
4.10934e-07
4.08837e-07
4.0876e-07
4.10373e-07
4.08734e-07
4.10431e-07
4.11653e-07
4.10891e-07
4.13651e-07
3.78322e-07
2.61912e-07
1.16509e-07
1.09832e-07
2.45304e-07
3.42527e-07
3.73643e-07
3.6785e-07
3.67869e-07
3.66753e-07
3.64387e-07
3.66575e-07
3.64384e-07
3.64321e-07
3.65997e-07
3.6431e-07
3.66053e-07
3.67306e-07
3.66673e-07
3.70972e-07
3.42221e-07
2.46244e-07
1.14233e-07
1.09302e-07
2.26796e-07
3.04874e-07
3.29921e-07
3.22841e-07
3.22763e-07
3.21654e-07
3.19277e-07
3.21506e-07
3.19258e-07
3.19207e-07
3.20919e-07
3.19209e-07
3.20967e-07
3.22218e-07
3.21693e-07
3.27205e-07
3.04409e-07
2.26584e-07
1.11967e-07
1.0746e-07
2.07004e-07
2.66036e-07
2.85771e-07
2.77813e-07
2.77677e-07
2.76607e-07
2.74267e-07
2.76495e-07
2.74237e-07
2.74198e-07
2.7591e-07
2.74211e-07
2.75946e-07
2.77161e-07
2.76716e-07
2.83047e-07
2.65484e-07
2.05982e-07
1.08673e-07
1.03434e-07
1.84226e-07
2.26827e-07
2.42108e-07
2.33729e-07
2.3358e-07
2.32581e-07
2.3033e-07
2.32507e-07
2.30296e-07
2.30268e-07
2.31941e-07
2.30285e-07
2.31959e-07
2.33104e-07
2.32709e-07
2.394e-07
2.26256e-07
1.82238e-07
1.03497e-07
9.6737e-08
1.59528e-07
1.8827e-07
2.00058e-07
1.91739e-07
1.91632e-07
1.90725e-07
1.8861e-07
1.90698e-07
1.88588e-07
1.88567e-07
1.90165e-07
1.88576e-07
1.90152e-07
1.91203e-07
1.9082e-07
1.97193e-07
1.87739e-07
1.57233e-07
9.59858e-08
8.73398e-08
1.33773e-07
1.51498e-07
1.57722e-07
1.49858e-07
1.49307e-07
1.48498e-07
1.46646e-07
1.48518e-07
1.46592e-07
1.46584e-07
1.48029e-07
1.46622e-07
1.47997e-07
1.48934e-07
1.49021e-07
1.56234e-07
1.51063e-07
1.31409e-07
8.60996e-08
7.56972e-08
1.08185e-07
1.17784e-07
1.21911e-07
1.14917e-07
1.14443e-07
1.13761e-07
1.12154e-07
1.13815e-07
1.12114e-07
1.12111e-07
1.13388e-07
1.12139e-07
1.13332e-07
1.1413e-07
1.14213e-07
1.20411e-07
1.17448e-07
1.05948e-07
7.42564e-08
6.26643e-08
8.40206e-08
8.81101e-08
9.07259e-08
8.48197e-08
8.44363e-08
8.3894e-08
8.25657e-08
8.39643e-08
8.25331e-08
8.25338e-08
8.36087e-08
8.25579e-08
8.35443e-08
8.41869e-08
8.42544e-08
8.94426e-08
8.78688e-08
8.20537e-08
6.1249e-08
4.93214e-08
6.23935e-08
6.31533e-08
6.47337e-08
6.00133e-08
5.97207e-08
5.93124e-08
5.82691e-08
5.93873e-08
5.8242e-08
5.82456e-08
5.91056e-08
5.82666e-08
5.90419e-08
5.95315e-08
5.95808e-08
6.37079e-08
6.2995e-08
6.07783e-08
4.80807e-08
3.67542e-08
4.41131e-08
4.31814e-08
4.40938e-08
4.0533e-08
4.03231e-08
4.00321e-08
3.92557e-08
4.0103e-08
3.92338e-08
3.92388e-08
3.98911e-08
3.92566e-08
3.98335e-08
4.01863e-08
4.02189e-08
4.33201e-08
4.3089e-08
4.28635e-08
3.57527e-08
2.51182e-08
2.55853e-08
2.51323e-08
2.55371e-08
2.57774e-08
2.57964e-08
2.79909e-08
2.79862e-08
2.86482e-08
2.50674e-08
)
;

boundaryField
{
    fuel
    {
        type            fixedValue;
        value           nonuniform 0();
    }
    wall
    {
        type            zeroGradient;
    }
    outlet
    {
        type            zeroGradient;
    }
    frontAndBack
    {
        type            empty;
    }
    procBoundary0to1
    {
        type            processor;
        value           nonuniform List<scalar> 
21
(
2.58013e-08
2.95424e-08
2.80329e-08
2.85356e-08
2.60114e-08
2.58703e-08
2.56747e-08
2.51297e-08
2.57357e-08
2.51131e-08
2.51131e-08
1.5195e-08
1.55094e-08
1.52055e-08
1.54721e-08
1.5626e-08
1.56355e-08
1.70901e-08
1.71645e-08
1.80417e-08
1.64782e-08
)
;
    }
    procBoundary0to2
    {
        type            processor;
        value           nonuniform List<scalar> 
12
(
4.93583e-07
1.11611e-07
2.69756e-07
4.12099e-07
4.57197e-07
4.54956e-07
4.55266e-07
4.54224e-07
4.51997e-07
4.54005e-07
4.52032e-07
4.52032e-07
)
;
    }
    procBoundary0to3
    {
        type            processor;
        value           nonuniform List<scalar> 10(5.3317e-07 5.34507e-07 5.33099e-07 5.34548e-07 5.35534e-07 5.34301e-07 5.34913e-07 4.77052e-07 2.91597e-07 1.37484e-07);
    }
}


// ************************************************************************* //
