/*--------------------------------*- C++ -*----------------------------------*\
| =========                 |                                                 |
| \\      /  F ield         | OpenFOAM: The Open Source CFD Toolbox           |
|  \\    /   O peration     | Version:  dev                                   |
|   \\  /    A nd           | Web:      www.OpenFOAM.org                      |
|    \\/     M anipulation  |                                                 |
\*---------------------------------------------------------------------------*/
FoamFile
{
    version     2.0;
    format      ascii;
    class       volScalarField;
    location    "0.045";
    object      HO2;
}
// * * * * * * * * * * * * * * * * * * * * * * * * * * * * * * * * * * * * * //

dimensions      [0 0 0 0 0 0 0];

internalField   nonuniform List<scalar> 
250
(
3.11624e-11
3.14338e-11
3.10921e-11
3.16864e-11
3.13306e-11
3.19859e-11
3.17682e-11
2.91384e-11
2.53485e-11
3.52014e-11
2.78238e-11
2.81063e-11
2.77526e-11
2.83603e-11
2.79996e-11
2.86772e-11
2.85446e-11
2.62837e-11
2.26449e-11
2.41962e-11
1.73918e-09
8.2695e-11
2.53849e-11
2.36009e-11
2.61503e-11
2.41508e-11
2.52012e-11
2.42793e-11
2.47543e-11
2.44302e-11
2.44407e-11
2.473e-11
2.43695e-11
2.49815e-11
2.462e-11
2.53115e-11
2.52582e-11
2.33492e-11
2.04096e-11
1.89141e-11
1.77464e-09
8.26132e-11
2.26481e-11
2.03946e-11
2.27772e-11
2.07823e-11
2.18154e-11
2.09042e-11
2.13785e-11
2.10561e-11
2.10646e-11
2.13544e-11
2.09944e-11
2.15987e-11
2.12427e-11
2.19367e-11
2.19538e-11
2.0374e-11
1.81899e-11
1.62091e-11
1.75765e-09
8.0924e-11
1.98674e-11
1.7248e-11
1.94356e-11
1.74887e-11
1.84844e-11
1.76032e-11
1.80661e-11
1.77526e-11
1.77595e-11
1.80425e-11
1.76919e-11
1.82739e-11
1.79313e-11
1.86146e-11
1.86884e-11
1.74099e-11
1.59561e-11
1.47397e-11
1.68117e-09
7.73705e-11
1.70821e-11
1.42348e-11
1.61968e-11
1.43449e-11
1.52815e-11
1.44507e-11
1.48909e-11
1.45937e-11
1.45995e-11
1.48676e-11
1.45359e-11
1.50806e-11
1.47597e-11
1.54187e-11
1.55306e-11
1.45203e-11
1.3741e-11
1.39838e-11
1.54127e-09
7.22572e-11
1.43503e-11
1.14347e-11
1.31439e-11
1.14306e-11
1.22889e-11
1.15266e-11
1.19337e-11
1.16598e-11
1.16655e-11
1.19104e-11
1.16068e-11
1.21002e-11
1.18089e-11
1.24324e-11
1.2558e-11
1.17764e-11
1.16061e-11
1.3778e-11
1.35678e-09
6.58078e-11
1.17397e-11
8.76488e-12
1.02148e-11
8.71577e-12
9.41919e-12
8.78929e-12
9.1279e-12
8.89525e-12
8.89324e-12
9.10856e-12
8.84964e-12
9.26345e-12
9.01946e-12
9.55467e-12
9.79759e-12
9.25156e-12
9.62247e-12
1.41028e-11
1.1664e-09
5.85113e-11
9.32706e-12
6.39975e-12
7.56542e-12
6.45775e-12
7.04846e-12
6.51971e-12
6.80604e-12
6.60944e-12
6.60744e-12
6.78849e-12
6.57095e-12
6.91459e-12
6.71036e-12
7.03705e-12
7.18932e-12
7.01448e-12
7.87401e-12
1.49852e-11
9.76584e-10
5.03491e-11
7.17883e-12
4.58509e-12
5.48274e-12
4.59213e-12
5.06445e-12
4.64185e-12
4.87238e-12
4.71419e-12
4.71227e-12
4.85746e-12
4.68321e-12
4.95534e-12
4.79228e-12
5.06046e-12
5.19026e-12
5.12543e-12
6.42371e-12
1.64638e-11
8.04548e-10
4.26904e-11
5.33474e-12
3.14559e-12
3.80321e-12
3.12539e-12
3.48312e-12
3.16319e-12
3.33898e-12
3.21846e-12
3.21671e-12
3.32719e-12
3.19476e-12
3.39933e-12
3.27564e-12
3.48268e-12
3.58697e-12
3.60848e-12
5.31496e-12
1.86165e-11
6.46063e-10
3.54233e-11
3.86098e-12
2.06563e-12
2.52018e-12
2.03444e-12
2.28976e-12
2.06154e-12
2.18781e-12
2.10134e-12
2.09982e-12
2.17923e-12
2.0842e-12
2.22949e-12
2.14074e-12
2.29055e-12
2.36957e-12
2.45871e-12
4.56033e-12
2.10074e-11
5.16179e-10
2.88184e-11
2.73571e-12
1.30331e-12
1.59745e-12
1.27096e-12
1.44188e-12
1.28924e-12
1.37419e-12
1.31613e-12
1.31488e-12
1.36856e-12
1.30441e-12
1.40157e-12
1.34155e-12
1.44299e-12
1.4999e-12
1.64275e-12
4.13917e-12
2.36976e-11
7.98118e-13
8.32276e-13
7.9154e-13
8.52719e-13
8.14414e-13
8.78957e-13
9.18596e-13
1.10507e-12
4.00072e-12
2.65521e-11
)
;

boundaryField
{
    fuel
    {
        type            fixedValue;
        value           nonuniform 0();
    }
    wall
    {
        type            zeroGradient;
    }
    outlet
    {
        type            zeroGradient;
    }
    frontAndBack
    {
        type            empty;
    }
    procBoundary0to1
    {
        type            processor;
        value           nonuniform List<scalar> 
21
(
4.05676e-10
2.30533e-11
1.91749e-12
7.9976e-13
9.76106e-13
7.70595e-13
8.7774e-13
7.82157e-13
8.35606e-13
7.99167e-13
7.99167e-13
4.80373e-13
5.0092e-13
4.76479e-13
5.12938e-13
4.89778e-13
5.28714e-13
5.56439e-13
7.73686e-13
3.97331e-12
2.8443e-11
)
;
    }
    procBoundary0to2
    {
        type            processor;
        value           nonuniform List<scalar> 
12
(
3.11471e-11
1.53187e-09
7.66453e-11
2.79636e-11
2.68168e-11
2.94928e-11
2.75307e-11
2.85815e-11
2.76639e-11
2.81323e-11
2.78109e-11
2.78109e-11
)
;
    }
    procBoundary0to3
    {
        type            processor;
        value           nonuniform List<scalar> 10(3.44208e-11 3.46772e-11 3.43521e-11 3.49247e-11 3.45795e-11 3.52022e-11 3.49066e-11 3.21171e-11 2.83083e-11 6.23818e-11);
    }
}


// ************************************************************************* //
