/*--------------------------------*- C++ -*----------------------------------*\
| =========                 |                                                 |
| \\      /  F ield         | OpenFOAM: The Open Source CFD Toolbox           |
|  \\    /   O peration     | Version:  dev                                   |
|   \\  /    A nd           | Web:      www.OpenFOAM.org                      |
|    \\/     M anipulation  |                                                 |
\*---------------------------------------------------------------------------*/
FoamFile
{
    version     2.0;
    format      ascii;
    class       volScalarField;
    location    "0.04";
    object      CH2CO;
}
// * * * * * * * * * * * * * * * * * * * * * * * * * * * * * * * * * * * * * //

dimensions      [0 0 0 0 0 0 0];

internalField   nonuniform List<scalar> 
100
(
5.08376e-06
1.20977e-05
1.56316e-05
1.67002e-05
1.61376e-05
1.46325e-05
1.26753e-05
1.06587e-05
8.80552e-06
7.21945e-06
5.91811e-06
4.87964e-06
4.05891e-06
3.41215e-06
2.90659e-06
2.50872e-06
2.1933e-06
1.9404e-06
1.73461e-06
1.56413e-06
1.42012e-06
1.29604e-06
1.1871e-06
1.08992e-06
1.00207e-06
9.21879e-07
8.48109e-07
7.79898e-07
7.1674e-07
6.58153e-07
6.03771e-07
5.53288e-07
5.06445e-07
4.63012e-07
4.22786e-07
3.85582e-07
3.51235e-07
3.19593e-07
2.90517e-07
2.638e-07
2.39112e-07
2.16486e-07
1.96121e-07
1.77623e-07
1.60872e-07
1.45736e-07
1.32092e-07
1.19807e-07
1.08796e-07
9.89418e-08
9.01494e-08
8.22587e-08
7.53005e-08
6.90077e-08
6.34606e-08
5.85831e-08
5.4384e-08
5.06669e-08
4.73854e-08
4.45801e-08
4.21292e-08
3.99844e-08
3.81026e-08
3.64458e-08
3.49444e-08
3.36137e-08
3.24096e-08
3.13054e-08
3.02777e-08
2.92855e-08
2.8347e-08
2.74252e-08
2.65058e-08
2.55795e-08
2.46437e-08
2.37034e-08
2.274e-08
2.17623e-08
2.07987e-08
1.98908e-08
1.89892e-08
1.80897e-08
1.71875e-08
1.62821e-08
1.53647e-08
1.44015e-08
1.34938e-08
1.25809e-08
1.16593e-08
1.07274e-08
9.79617e-09
8.86533e-09
7.93162e-09
6.97771e-09
6.03875e-09
5.038e-09
4.04257e-09
2.93625e-09
1.86378e-09
1.04359e-09
)
;

boundaryField
{
    front
    {
        type            wedge;
    }
    back
    {
        type            wedge;
    }
    wall
    {
        type            zeroGradient;
    }
    fuel
    {
        type            fixedValue;
        value           uniform 0;
    }
    outlet
    {
        type            inletOutlet;
        inletValue      uniform 0;
        value           uniform 1.04359e-09;
    }
    axis
    {
        type            empty;
    }
}


// ************************************************************************* //
