/*--------------------------------*- C++ -*----------------------------------*\
| =========                 |                                                 |
| \\      /  F ield         | OpenFOAM: The Open Source CFD Toolbox           |
|  \\    /   O peration     | Version:  dev                                   |
|   \\  /    A nd           | Web:      www.OpenFOAM.org                      |
|    \\/     M anipulation  |                                                 |
\*---------------------------------------------------------------------------*/
FoamFile
{
    version     2.0;
    format      ascii;
    class       volScalarField;
    location    "0.04";
    object      CH3;
}
// * * * * * * * * * * * * * * * * * * * * * * * * * * * * * * * * * * * * * //

dimensions      [0 0 0 0 0 0 0];

internalField   nonuniform List<scalar> 
100
(
7.22418e-05
0.000146255
0.00017175
0.000173796
0.000164336
0.000149246
0.000131456
0.000113476
9.67776e-05
8.21561e-05
6.97827e-05
5.95361e-05
5.11014e-05
4.41565e-05
3.84659e-05
3.37641e-05
2.98508e-05
2.65631e-05
2.3771e-05
2.13723e-05
1.92876e-05
1.74561e-05
1.58313e-05
1.4378e-05
1.30694e-05
1.18852e-05
1.08092e-05
9.82947e-06
8.93636e-06
8.12158e-06
7.37816e-06
6.69991e-06
6.08129e-06
5.51723e-06
5.00307e-06
4.53453e-06
4.10767e-06
3.71886e-06
3.36481e-06
3.04227e-06
2.74685e-06
2.47685e-06
2.23406e-06
2.01338e-06
1.81307e-06
1.63138e-06
1.46675e-06
1.31759e-06
1.18292e-06
1.06144e-06
9.52112e-07
8.53111e-07
7.65327e-07
6.85908e-07
6.15574e-07
5.5368e-07
5.0062e-07
4.5414e-07
4.13839e-07
3.80298e-07
3.52024e-07
3.28351e-07
3.08598e-07
2.92072e-07
2.7782e-07
2.65739e-07
2.5496e-07
2.44974e-07
2.35374e-07
2.25662e-07
2.16019e-07
2.06132e-07
1.95931e-07
1.85394e-07
1.74537e-07
1.6344e-07
1.52045e-07
1.40529e-07
1.29277e-07
1.1892e-07
1.09008e-07
9.95881e-08
9.06752e-08
8.22941e-08
7.43808e-08
6.66835e-08
5.99783e-08
5.37353e-08
4.79477e-08
4.25969e-08
3.76438e-08
3.30628e-08
2.88e-08
2.47439e-08
2.10038e-08
1.72444e-08
1.36776e-08
9.84898e-09
6.21984e-09
3.47503e-09
)
;

boundaryField
{
    front
    {
        type            wedge;
    }
    back
    {
        type            wedge;
    }
    wall
    {
        type            zeroGradient;
    }
    fuel
    {
        type            fixedValue;
        value           uniform 0;
    }
    outlet
    {
        type            inletOutlet;
        inletValue      uniform 0;
        value           uniform 3.47503e-09;
    }
    axis
    {
        type            empty;
    }
}


// ************************************************************************* //
