/*--------------------------------*- C++ -*----------------------------------*\
| =========                 |                                                 |
| \\      /  F ield         | OpenFOAM: The Open Source CFD Toolbox           |
|  \\    /   O peration     | Version:  dev                                   |
|   \\  /    A nd           | Web:      www.OpenFOAM.org                      |
|    \\/     M anipulation  |                                                 |
\*---------------------------------------------------------------------------*/
FoamFile
{
    version     2.0;
    format      ascii;
    class       volVectorField;
    location    "0.155";
    object      U;
}
// * * * * * * * * * * * * * * * * * * * * * * * * * * * * * * * * * * * * * //

dimensions      [0 1 -1 0 0 0 0];

internalField   nonuniform List<vector> 
12
(
(1.5658e-13 -1.5658e-13 0.119129)
(1.49721e-13 -1.49721e-13 0.11962)
(1.42872e-13 -1.42872e-13 0.120055)
(1.36013e-13 -1.36013e-13 0.120518)
(1.29135e-13 -1.29135e-13 0.120954)
(1.22265e-13 -1.22265e-13 0.121314)
(1.15427e-13 -1.15427e-13 0.121627)
(1.08639e-13 -1.08639e-13 0.121916)
(1.01828e-13 -1.01828e-13 0.122118)
(9.51042e-14 -9.51042e-14 0.122287)
(8.83938e-14 -8.83938e-14 0.122476)
(8.17341e-14 -8.17341e-14 0.122347)
)
;

boundaryField
{
    wall
    {
        type            zeroGradient;
    }
    fuel
    {
        type            fixedValue;
        value           nonuniform 0();
    }
    outlet
    {
        type            pressureInletOutletVelocity;
        value           nonuniform 0();
    }
    procBoundary6to5
    {
        type            processor;
        value           uniform (1.6345e-13 -1.6345e-13 0.118528);
    }
    procBoundary6to7
    {
        type            processor;
        value           uniform (7.53076e-14 -7.53076e-14 0.12167);
    }
}


// ************************************************************************* //
