/*--------------------------------*- C++ -*----------------------------------*\
| =========                 |                                                 |
| \\      /  F ield         | OpenFOAM: The Open Source CFD Toolbox           |
|  \\    /   O peration     | Version:  dev                                   |
|   \\  /    A nd           | Web:      www.OpenFOAM.org                      |
|    \\/     M anipulation  |                                                 |
\*---------------------------------------------------------------------------*/
FoamFile
{
    version     2.0;
    format      ascii;
    class       volScalarField;
    location    "0.01";
    object      HCCOH;
}
// * * * * * * * * * * * * * * * * * * * * * * * * * * * * * * * * * * * * * //

dimensions      [0 0 0 0 0 0 0];

internalField   nonuniform List<scalar> 
25
(
2.75098e-06
5.74865e-06
6.56354e-06
6.30386e-06
5.58278e-06
4.71327e-06
3.85701e-06
3.09775e-06
2.46248e-06
1.95255e-06
1.55438e-06
1.24645e-06
1.00871e-06
8.26574e-07
6.86004e-07
5.76589e-07
4.90336e-07
4.21235e-07
3.64858e-07
3.17995e-07
2.78355e-07
2.44319e-07
2.14767e-07
1.88892e-07
1.66113e-07
)
;

boundaryField
{
    wall
    {
        type            zeroGradient;
    }
    fuel
    {
        type            fixedValue;
        value           uniform 0;
    }
    outlet
    {
        type            inletOutlet;
        inletValue      nonuniform 0();
        value           nonuniform 0();
    }
    procBoundary0to1
    {
        type            processor;
        value           uniform 1.45981e-07;
    }
}


// ************************************************************************* //
