/*--------------------------------*- C++ -*----------------------------------*\
| =========                 |                                                 |
| \\      /  F ield         | OpenFOAM: The Open Source CFD Toolbox           |
|  \\    /   O peration     | Version:  dev                                   |
|   \\  /    A nd           | Web:      www.OpenFOAM.org                      |
|    \\/     M anipulation  |                                                 |
\*---------------------------------------------------------------------------*/
FoamFile
{
    version     2.0;
    format      ascii;
    class       volScalarField;
    location    "0.125";
    object      A1C2H-;
}
// * * * * * * * * * * * * * * * * * * * * * * * * * * * * * * * * * * * * * //

dimensions      [0 0 0 0 0 0 0];

internalField   nonuniform List<scalar> 
250
(
1.89185e-09
1.54415e-09
1.18037e-09
1.14825e-09
1.06879e-09
1.05395e-09
1.05287e-09
1.03273e-09
1.0481e-09
1.02833e-09
1.44198e-09
1.18841e-09
9.08322e-10
8.92005e-10
8.27892e-10
8.16283e-10
8.15578e-10
7.9836e-10
8.12025e-10
7.94726e-10
7.98718e-10
8.05478e-10
7.99461e-10
8.08077e-10
8.08757e-10
8.18868e-10
8.53092e-10
9.14112e-10
1.01365e-09
1.19923e-09
1.05739e-09
8.81475e-10
6.73883e-10
6.67946e-10
6.18391e-10
6.09511e-10
6.09101e-10
5.95078e-10
6.0661e-10
5.92203e-10
5.95524e-10
6.01192e-10
5.96071e-10
6.0316e-10
6.03501e-10
6.11515e-10
6.37427e-10
6.81342e-10
7.46905e-10
8.74244e-10
7.43852e-10
6.28332e-10
4.80708e-10
4.8094e-10
4.44341e-10
4.37543e-10
4.37334e-10
4.26442e-10
4.35708e-10
4.24257e-10
4.26903e-10
4.31425e-10
4.27291e-10
4.32834e-10
4.32954e-10
4.39455e-10
4.58117e-10
4.88442e-10
5.30699e-10
6.15832e-10
4.9971e-10
4.28263e-10
3.27779e-10
3.29884e-10
3.03212e-10
3.00131e-10
3.0005e-10
2.91982e-10
2.99077e-10
2.90389e-10
2.92405e-10
2.95844e-10
2.92673e-10
2.96791e-10
2.96779e-10
2.99828e-10
3.13e-10
3.34797e-10
3.60354e-10
4.16641e-10
3.17674e-10
2.76368e-10
2.11312e-10
2.1446e-10
1.96446e-10
1.9449e-10
1.94473e-10
1.88813e-10
1.9396e-10
1.87707e-10
1.89168e-10
1.91643e-10
1.89345e-10
1.92234e-10
1.92164e-10
1.94313e-10
2.02964e-10
2.17063e-10
2.32349e-10
2.67837e-10
1.8795e-10
1.65929e-10
1.26411e-10
1.29378e-10
1.1798e-10
1.16836e-10
1.16841e-10
1.13144e-10
1.16624e-10
1.12426e-10
1.13414e-10
1.15074e-10
1.13525e-10
1.15408e-10
1.15327e-10
1.16727e-10
1.22056e-10
1.30667e-10
1.39317e-10
1.60663e-10
1.00659e-10
9.01109e-11
6.82063e-11
7.04034e-11
6.38472e-11
6.32528e-11
6.32587e-11
6.10806e-11
6.32044e-11
6.0659e-11
6.12629e-11
6.22676e-11
6.13257e-11
6.24308e-11
6.23654e-11
6.31861e-11
6.61665e-11
7.09901e-11
7.5474e-11
8.73752e-11
4.70364e-11
4.26995e-11
3.22057e-11
3.34856e-11
3.02508e-11
2.9992e-11
2.99928e-11
2.89033e-11
3.00022e-11
2.86925e-11
2.90055e-11
2.95211e-11
2.90356e-11
2.95862e-11
2.95459e-11
2.99577e-11
3.13834e-11
3.37261e-11
3.5739e-11
4.15441e-11
1.96906e-11
1.82157e-11
1.4266e-11
1.47756e-11
1.35422e-11
1.3449e-11
1.34489e-11
1.30317e-11
1.34615e-11
1.29507e-11
1.30734e-11
1.32736e-11
1.30847e-11
1.32942e-11
1.32783e-11
1.3438e-11
1.39736e-11
1.48724e-11
1.56222e-11
1.78765e-11
1.14836e-11
1.09256e-11
9.62786e-12
9.72043e-12
9.31265e-12
9.26141e-12
9.26754e-12
9.11821e-12
9.26674e-12
9.08787e-12
9.13207e-12
9.20043e-12
9.13851e-12
9.20844e-12
9.20944e-12
9.26159e-12
9.47164e-12
9.78754e-12
1.01398e-11
1.09381e-11
1.26718e-11
1.20986e-11
1.07181e-11
1.08026e-11
1.03371e-11
1.02693e-11
1.0282e-11
1.0088e-11
1.02894e-11
1.00461e-11
1.01095e-11
1.01994e-11
1.01224e-11
1.02042e-11
1.0212e-11
1.0274e-11
1.05338e-11
1.08908e-11
1.13289e-11
1.22148e-11
1.13343e-11
1.06363e-11
8.96499e-12
9.11067e-12
8.55087e-12
8.4848e-12
8.49673e-12
8.2612e-12
8.52095e-12
8.209e-12
8.2935e-12
8.40355e-12
8.30987e-12
8.40347e-12
8.41471e-12
8.49096e-12
8.78501e-12
9.20162e-12
9.67812e-12
1.07643e-11
)
;

boundaryField
{
    fuel
    {
        type            fixedValue;
        value           nonuniform 0();
    }
    wall
    {
        type            zeroGradient;
    }
    outlet
    {
        type            zeroGradient;
    }
    frontAndBack
    {
        type            empty;
    }
    procBoundary1to0
    {
        type            processor;
        value           nonuniform List<scalar> 
21
(
2.38865e-09
1.93665e-09
1.48101e-09
1.42691e-09
1.33228e-09
1.31396e-09
1.31237e-09
1.29004e-09
1.30634e-09
1.28493e-09
1.0329e-09
1.0329e-09
1.04057e-09
1.03387e-09
1.04381e-09
1.04492e-09
1.05742e-09
1.10089e-09
1.18304e-09
1.33027e-09
1.59637e-09
)
;
    }
}


// ************************************************************************* //
