/*--------------------------------*- C++ -*----------------------------------*\
| =========                 |                                                 |
| \\      /  F ield         | OpenFOAM: The Open Source CFD Toolbox           |
|  \\    /   O peration     | Version:  dev                                   |
|   \\  /    A nd           | Web:      www.OpenFOAM.org                      |
|    \\/     M anipulation  |                                                 |
\*---------------------------------------------------------------------------*/
FoamFile
{
    version     2.0;
    format      ascii;
    class       volScalarField;
    location    "0.125";
    object      A3C2H;
}
// * * * * * * * * * * * * * * * * * * * * * * * * * * * * * * * * * * * * * //

dimensions      [0 0 0 0 0 0 0];

internalField   nonuniform List<scalar> 
250
(
4.23925e-11
2.49983e-11
1.59752e-11
1.38703e-11
1.30249e-11
1.28382e-11
1.28097e-11
1.27305e-11
1.27792e-11
1.27062e-11
3.7088e-11
2.21811e-11
1.44682e-11
1.27333e-11
1.19872e-11
1.18229e-11
1.17988e-11
1.17169e-11
1.17728e-11
1.16941e-11
1.17141e-11
1.17419e-11
1.17195e-11
1.17602e-11
1.17821e-11
1.19228e-11
1.24853e-11
1.43633e-11
2.02315e-11
2.98091e-11
3.18282e-11
1.93728e-11
1.28966e-11
1.15016e-11
1.08529e-11
1.07102e-11
1.06904e-11
1.06084e-11
1.06691e-11
1.05873e-11
1.06077e-11
1.06374e-11
1.06123e-11
1.06537e-11
1.06718e-11
1.07957e-11
1.12719e-11
1.2777e-11
1.73117e-11
2.48843e-11
2.67769e-11
1.66323e-11
1.13069e-11
1.02124e-11
9.66054e-12
9.53774e-12
9.52184e-12
9.44333e-12
9.50553e-12
9.42444e-12
9.44436e-12
9.47439e-12
9.44819e-12
9.48825e-12
9.50258e-12
9.61352e-12
1.00065e-11
1.1197e-11
1.46661e-11
2.05961e-11
2.21202e-11
1.40499e-11
9.77008e-12
8.91674e-12
8.4526e-12
8.36815e-12
8.35565e-12
8.28507e-12
8.34408e-12
8.26892e-12
8.28716e-12
8.31538e-12
8.29018e-12
8.3265e-12
8.33745e-12
8.41501e-12
8.73488e-12
9.67985e-12
1.22967e-11
1.69141e-11
1.80361e-11
1.17353e-11
8.3764e-12
7.72211e-12
7.35163e-12
7.28507e-12
7.27524e-12
7.21683e-12
7.26783e-12
7.20392e-12
7.21923e-12
7.24347e-12
7.22146e-12
7.25177e-12
7.26004e-12
7.32433e-12
7.57602e-12
8.30541e-12
1.02782e-11
1.38389e-11
1.46552e-11
9.79286e-12
7.2145e-12
6.70904e-12
6.42611e-12
6.37502e-12
6.36716e-12
6.32347e-12
6.36293e-12
6.31402e-12
6.32553e-12
6.34421e-12
6.32704e-12
6.34991e-12
6.35632e-12
6.40756e-12
6.60059e-12
7.15692e-12
8.6451e-12
1.13835e-11
1.20229e-11
8.28781e-12
6.34321e-12
5.94529e-12
5.73839e-12
5.69953e-12
5.69315e-12
5.66393e-12
5.69094e-12
5.65763e-12
5.66522e-12
5.67802e-12
5.66621e-12
5.68161e-12
5.68693e-12
5.7265e-12
5.87179e-12
6.29342e-12
7.42533e-12
9.53992e-12
1.0085e-11
7.21845e-12
5.7674e-12
5.44809e-12
5.301e-12
5.27095e-12
5.26578e-12
5.24805e-12
5.26456e-12
5.24414e-12
5.24849e-12
5.2564e-12
5.24919e-12
5.2585e-12
5.26326e-12
5.29336e-12
5.40269e-12
5.72335e-12
6.59784e-12
8.25178e-12
8.70784e-12
6.51415e-12
5.4358e-12
5.17736e-12
5.07265e-12
5.04845e-12
5.0444e-12
5.03389e-12
5.04353e-12
5.03145e-12
5.03367e-12
5.03845e-12
5.03433e-12
5.0396e-12
5.04404e-12
5.06725e-12
5.15116e-12
5.39874e-12
6.08775e-12
7.40804e-12
7.73867e-12
6.07025e-12
5.26889e-12
5.05974e-12
4.98281e-12
4.96242e-12
4.9594e-12
4.95241e-12
4.9586e-12
4.95065e-12
4.95175e-12
4.95511e-12
4.95254e-12
4.95565e-12
4.95982e-12
4.97822e-12
5.04525e-12
5.24038e-12
5.79467e-12
6.87489e-12
7.06617e-12
5.79389e-12
5.19135e-12
5.02107e-12
4.9613e-12
4.94339e-12
4.94125e-12
4.93541e-12
4.94049e-12
4.93388e-12
4.93454e-12
4.93759e-12
4.93552e-12
4.93771e-12
4.94159e-12
4.95686e-12
5.01277e-12
5.17157e-12
5.62938e-12
6.54073e-12
6.65503e-12
5.6329e-12
5.15311e-12
5.00791e-12
4.95789e-12
4.94149e-12
4.93993e-12
4.93441e-12
4.9392e-12
4.93294e-12
4.9334e-12
4.93654e-12
4.93454e-12
4.93639e-12
4.94002e-12
4.95345e-12
5.0026e-12
5.13945e-12
5.53744e-12
6.34557e-12
)
;

boundaryField
{
    fuel
    {
        type            fixedValue;
        value           nonuniform 0();
    }
    wall
    {
        type            zeroGradient;
    }
    outlet
    {
        type            zeroGradient;
    }
    frontAndBack
    {
        type            empty;
    }
    procBoundary1to0
    {
        type            processor;
        value           nonuniform List<scalar> 
21
(
4.76443e-11
2.7805e-11
1.73933e-11
1.48957e-11
1.39487e-11
1.37392e-11
1.37065e-11
1.36314e-11
1.36717e-11
1.36057e-11
1.2725e-11
1.2725e-11
1.27501e-11
1.27314e-11
1.27698e-11
1.27955e-11
1.29534e-11
1.36112e-11
1.59237e-11
2.34339e-11
3.5424e-11
)
;
    }
}


// ************************************************************************* //
