/*--------------------------------*- C++ -*----------------------------------*\
| =========                 |                                                 |
| \\      /  F ield         | OpenFOAM: The Open Source CFD Toolbox           |
|  \\    /   O peration     | Version:  dev                                   |
|   \\  /    A nd           | Web:      www.OpenFOAM.org                      |
|    \\/     M anipulation  |                                                 |
\*---------------------------------------------------------------------------*/
FoamFile
{
    version     2.0;
    format      ascii;
    class       volScalarField;
    location    "0.125";
    object      AC3H4;
}
// * * * * * * * * * * * * * * * * * * * * * * * * * * * * * * * * * * * * * //

dimensions      [0 0 0 0 0 0 0];

internalField   nonuniform List<scalar> 
250
(
7.8185e-07
7.12873e-07
6.77827e-07
6.60044e-07
6.54353e-07
6.52596e-07
6.52344e-07
6.52122e-07
6.52021e-07
6.51985e-07
7.62831e-07
7.04805e-07
6.729e-07
6.58628e-07
6.53547e-07
6.52423e-07
6.52057e-07
6.52127e-07
6.51895e-07
6.5196e-07
6.52013e-07
6.51684e-07
6.52175e-07
6.51877e-07
6.5231e-07
6.53812e-07
6.58807e-07
6.75153e-07
7.2034e-07
7.96041e-07
7.5564e-07
7.09032e-07
6.79142e-07
6.69488e-07
6.64957e-07
6.64901e-07
6.643e-07
6.64897e-07
6.64408e-07
6.64657e-07
6.65205e-07
6.63253e-07
6.65351e-07
6.63245e-07
6.64572e-07
6.64705e-07
6.67487e-07
6.83067e-07
7.17262e-07
7.86493e-07
7.68396e-07
7.34804e-07
7.06045e-07
7.02403e-07
6.98298e-07
6.99846e-07
6.98836e-07
7.0022e-07
6.99326e-07
6.99839e-07
7.01144e-07
6.96695e-07
7.01318e-07
6.96458e-07
6.99234e-07
6.97436e-07
6.97307e-07
7.12849e-07
7.33019e-07
7.96442e-07
8.1188e-07
7.94018e-07
7.65292e-07
7.69898e-07
7.66208e-07
7.68376e-07
7.66768e-07
7.69101e-07
7.67699e-07
7.68494e-07
7.70746e-07
7.64543e-07
7.71038e-07
7.64072e-07
7.67453e-07
7.64553e-07
7.6068e-07
7.7607e-07
7.79531e-07
8.36953e-07
8.96194e-07
8.943e-07
8.66331e-07
8.77998e-07
8.74218e-07
8.78021e-07
8.75725e-07
8.7888e-07
8.77015e-07
8.77967e-07
8.81103e-07
8.72305e-07
8.81609e-07
8.71831e-07
8.76786e-07
8.72281e-07
8.6531e-07
8.81364e-07
8.68038e-07
9.2102e-07
1.02359e-06
1.03457e-06
1.00828e-06
1.02411e-06
1.01985e-06
1.02447e-06
1.02163e-06
1.02503e-06
1.02299e-06
1.02377e-06
1.02732e-06
1.01747e-06
1.02813e-06
1.01729e-06
1.02304e-06
1.01825e-06
1.00975e-06
1.02611e-06
1.00114e-06
1.04624e-06
1.17796e-06
1.19348e-06
1.17029e-06
1.18494e-06
1.17999e-06
1.18406e-06
1.18108e-06
1.18385e-06
1.18208e-06
1.18225e-06
1.18545e-06
1.17701e-06
1.18662e-06
1.17737e-06
1.18264e-06
1.17933e-06
1.17185e-06
1.18754e-06
1.16159e-06
1.1978e-06
1.32526e-06
1.33678e-06
1.31767e-06
1.32714e-06
1.32178e-06
1.3243e-06
1.3216e-06
1.32319e-06
1.322e-06
1.32132e-06
1.32371e-06
1.31822e-06
1.3252e-06
1.31912e-06
1.3231e-06
1.32206e-06
1.31731e-06
1.33127e-06
1.31314e-06
1.34063e-06
1.43869e-06
1.44275e-06
1.42772e-06
1.43134e-06
1.42606e-06
1.42689e-06
1.42467e-06
1.42508e-06
1.42448e-06
1.42303e-06
1.42461e-06
1.42208e-06
1.42633e-06
1.42332e-06
1.42598e-06
1.42682e-06
1.42498e-06
1.43665e-06
1.42833e-06
1.44848e-06
1.51056e-06
1.50771e-06
1.49597e-06
1.49506e-06
1.49024e-06
1.48975e-06
1.488e-06
1.48756e-06
1.48739e-06
1.4854e-06
1.48639e-06
1.48604e-06
1.48827e-06
1.48739e-06
1.48914e-06
1.49098e-06
1.49137e-06
1.50075e-06
1.50018e-06
1.51507e-06
1.54654e-06
1.53944e-06
1.52989e-06
1.52658e-06
1.52237e-06
1.52115e-06
1.51973e-06
1.51886e-06
1.5189e-06
1.51665e-06
1.51737e-06
1.5181e-06
1.51933e-06
1.5194e-06
1.52077e-06
1.52277e-06
1.5244e-06
1.5319e-06
1.5354e-06
1.54699e-06
1.56219e-06
1.55337e-06
1.54498e-06
1.54081e-06
1.53704e-06
1.53554e-06
1.53429e-06
1.53327e-06
1.53337e-06
1.53105e-06
1.53167e-06
1.53281e-06
1.53367e-06
1.53402e-06
1.53531e-06
1.53713e-06
1.53929e-06
1.5456e-06
1.5505e-06
1.56031e-06
)
;

boundaryField
{
    fuel
    {
        type            fixedValue;
        value           nonuniform 0();
    }
    wall
    {
        type            zeroGradient;
    }
    outlet
    {
        type            zeroGradient;
    }
    frontAndBack
    {
        type            empty;
    }
    procBoundary1to0
    {
        type            processor;
        value           nonuniform List<scalar> 
21
(
8.08183e-07
7.27139e-07
6.87831e-07
6.67136e-07
6.60801e-07
6.58684e-07
6.58476e-07
6.58129e-07
6.58072e-07
6.57996e-07
6.51759e-07
6.51759e-07
6.52304e-07
6.51949e-07
6.52647e-07
6.52624e-07
6.54991e-07
6.6157e-07
6.79306e-07
7.33187e-07
8.16095e-07
)
;
    }
}


// ************************************************************************* //
