/*--------------------------------*- C++ -*----------------------------------*\
| =========                 |                                                 |
| \\      /  F ield         | OpenFOAM: The Open Source CFD Toolbox           |
|  \\    /   O peration     | Version:  dev                                   |
|   \\  /    A nd           | Web:      www.OpenFOAM.org                      |
|    \\/     M anipulation  |                                                 |
\*---------------------------------------------------------------------------*/
FoamFile
{
    version     2.0;
    format      ascii;
    class       volScalarField;
    location    "0.125";
    object      C;
}
// * * * * * * * * * * * * * * * * * * * * * * * * * * * * * * * * * * * * * //

dimensions      [0 0 0 0 0 0 0];

internalField   nonuniform List<scalar> 
50
(
2.21915e-10
1.72557e-10
1.34568e-10
1.05232e-10
8.24976e-11
6.48234e-11
5.10448e-11
4.02788e-11
3.18512e-11
2.52438e-11
2.00564e-11
1.59779e-11
1.27667e-11
1.0234e-11
8.23275e-12
6.64798e-12
5.39005e-12
4.38893e-12
3.58993e-12
2.95029e-12
2.43657e-12
2.02259e-12
1.6878e-12
1.41605e-12
1.19464e-12
1.01353e-12
8.64784e-13
7.42121e-13
6.40533e-13
5.56032e-13
4.85428e-13
4.26164e-13
3.76183e-13
3.33829e-13
2.9776e-13
2.66889e-13
2.40332e-13
2.17368e-13
1.9741e-13
1.79977e-13
1.64678e-13
1.51196e-13
1.39275e-13
1.28823e-13
1.19354e-13
1.10798e-13
1.03061e-13
9.6045e-14
8.96649e-14
8.38445e-14
)
;

boundaryField
{
    wall
    {
        type            zeroGradient;
    }
    fuel
    {
        type            fixedValue;
        value           nonuniform 0();
    }
    outlet
    {
        type            inletOutlet;
        inletValue      nonuniform 0();
        value           nonuniform 0();
    }
    procBoundary1to0
    {
        type            processor;
        value           uniform 2.86134e-10;
    }
    procBoundary1to2
    {
        type            processor;
        value           uniform 7.85548e-14;
    }
}


// ************************************************************************* //
