/*--------------------------------*- C++ -*----------------------------------*\
| =========                 |                                                 |
| \\      /  F ield         | OpenFOAM: The Open Source CFD Toolbox           |
|  \\    /   O peration     | Version:  dev                                   |
|   \\  /    A nd           | Web:      www.OpenFOAM.org                      |
|    \\/     M anipulation  |                                                 |
\*---------------------------------------------------------------------------*/
FoamFile
{
    version     2.0;
    format      ascii;
    class       volScalarField;
    location    "0.125";
    object      C6H5OH;
}
// * * * * * * * * * * * * * * * * * * * * * * * * * * * * * * * * * * * * * //

dimensions      [0 0 0 0 0 0 0];

internalField   nonuniform List<scalar> 
250
(
4.14562e-08
3.31412e-08
2.98418e-08
2.83459e-08
2.83253e-08
2.82823e-08
2.8262e-08
2.84117e-08
2.82646e-08
2.8437e-08
4.33823e-08
3.53362e-08
3.23377e-08
3.09061e-08
3.09294e-08
3.08932e-08
3.08727e-08
3.1027e-08
3.0872e-08
3.10541e-08
3.10137e-08
3.09326e-08
3.10009e-08
3.0924e-08
3.09435e-08
3.09642e-08
3.1109e-08
3.19396e-08
3.50007e-08
4.09927e-08
4.55796e-08
3.78377e-08
3.49957e-08
3.36598e-08
3.3665e-08
3.36244e-08
3.36044e-08
3.37374e-08
3.35977e-08
3.37606e-08
3.3725e-08
3.36504e-08
3.37126e-08
3.36457e-08
3.36674e-08
3.36861e-08
3.38347e-08
3.45712e-08
3.72023e-08
4.20961e-08
4.75041e-08
4.01631e-08
3.73191e-08
3.61259e-08
3.60442e-08
3.5991e-08
3.59728e-08
3.60572e-08
3.59596e-08
3.60711e-08
3.6048e-08
3.59927e-08
3.60376e-08
3.59937e-08
3.60168e-08
3.60424e-08
3.62282e-08
3.69231e-08
3.92083e-08
4.32929e-08
4.85161e-08
4.17214e-08
3.88256e-08
3.78212e-08
3.76377e-08
3.75498e-08
3.75344e-08
3.75615e-08
3.75174e-08
3.75647e-08
3.75569e-08
3.75266e-08
3.75492e-08
3.75327e-08
3.75557e-08
3.76155e-08
3.78424e-08
3.8503e-08
4.05117e-08
4.40109e-08
4.83147e-08
4.22164e-08
3.93842e-08
3.85541e-08
3.82956e-08
3.82056e-08
3.81933e-08
3.81784e-08
3.81765e-08
3.8174e-08
3.81778e-08
3.81675e-08
3.81722e-08
3.81761e-08
3.81972e-08
3.82615e-08
3.85113e-08
3.91472e-08
4.09005e-08
4.39528e-08
4.7143e-08
4.18451e-08
3.92675e-08
3.85856e-08
3.8316e-08
3.8232e-08
3.82223e-08
3.819e-08
3.82081e-08
3.81831e-08
3.81914e-08
3.81914e-08
3.81871e-08
3.81998e-08
3.82184e-08
3.82812e-08
3.85208e-08
3.91002e-08
4.06076e-08
4.3258e-08
4.55394e-08
4.10755e-08
3.8889e-08
3.83253e-08
3.80904e-08
3.8017e-08
3.80091e-08
3.79776e-08
3.79979e-08
3.79715e-08
3.79789e-08
3.79816e-08
3.79754e-08
3.79883e-08
3.80044e-08
3.8061e-08
3.8269e-08
3.8769e-08
4.00426e-08
4.23104e-08
4.39568e-08
4.02997e-08
3.85389e-08
3.80724e-08
3.78865e-08
3.78243e-08
3.78177e-08
3.77935e-08
3.78089e-08
3.77892e-08
3.77937e-08
3.77959e-08
3.77908e-08
3.78007e-08
3.78147e-08
3.78631e-08
3.80347e-08
3.84516e-08
3.95146e-08
4.14336e-08
4.26008e-08
3.96842e-08
3.83114e-08
3.79294e-08
3.77861e-08
3.77338e-08
3.77282e-08
3.77106e-08
3.77212e-08
3.77078e-08
3.77094e-08
3.77114e-08
3.77072e-08
3.77145e-08
3.77265e-08
3.77675e-08
3.79068e-08
3.82502e-08
3.91329e-08
4.07536e-08
4.1499e-08
3.92284e-08
3.81785e-08
3.787e-08
3.77578e-08
3.77138e-08
3.77088e-08
3.76954e-08
3.77033e-08
3.76935e-08
3.76929e-08
3.76956e-08
3.76915e-08
3.76972e-08
3.77075e-08
3.77422e-08
3.78566e-08
3.81391e-08
3.88731e-08
4.02503e-08
4.06426e-08
3.88913e-08
3.80918e-08
3.7842e-08
3.77516e-08
3.77143e-08
3.77098e-08
3.76989e-08
3.77053e-08
3.76975e-08
3.76954e-08
3.7699e-08
3.76945e-08
3.76995e-08
3.77082e-08
3.77381e-08
3.78335e-08
3.80688e-08
3.86866e-08
3.98752e-08
4.00888e-08
3.86751e-08
3.80362e-08
3.7824e-08
3.77471e-08
3.77143e-08
3.77099e-08
3.77009e-08
3.77062e-08
3.76997e-08
3.76965e-08
3.77007e-08
3.7696e-08
3.77005e-08
3.77081e-08
3.77348e-08
3.78179e-08
3.80228e-08
3.85652e-08
3.96322e-08
)
;

boundaryField
{
    fuel
    {
        type            fixedValue;
        value           nonuniform 0();
    }
    wall
    {
        type            zeroGradient;
    }
    outlet
    {
        type            zeroGradient;
    }
    frontAndBack
    {
        type            empty;
    }
    procBoundary1to0
    {
        type            processor;
        value           nonuniform List<scalar> 
21
(
4.00397e-08
3.14402e-08
2.77604e-08
2.6205e-08
2.61125e-08
2.6056e-08
2.60361e-08
2.61686e-08
2.60395e-08
2.61893e-08
2.83989e-08
2.83989e-08
2.83225e-08
2.83872e-08
2.83127e-08
2.83302e-08
2.83615e-08
2.85377e-08
2.95085e-08
3.30906e-08
4.04896e-08
)
;
    }
}


// ************************************************************************* //
