/*--------------------------------*- C++ -*----------------------------------*\
| =========                 |                                                 |
| \\      /  F ield         | OpenFOAM: The Open Source CFD Toolbox           |
|  \\    /   O peration     | Version:  dev                                   |
|   \\  /    A nd           | Web:      www.OpenFOAM.org                      |
|    \\/     M anipulation  |                                                 |
\*---------------------------------------------------------------------------*/
FoamFile
{
    version     2.0;
    format      ascii;
    class       volScalarField;
    location    "0.125";
    object      CH;
}
// * * * * * * * * * * * * * * * * * * * * * * * * * * * * * * * * * * * * * //

dimensions      [0 0 0 0 0 0 0];

internalField   nonuniform List<scalar> 
50
(
1.26845e-10
9.87876e-11
7.71795e-11
6.04756e-11
4.75139e-11
3.74214e-11
2.95396e-11
2.33692e-11
1.8529e-11
1.47258e-11
1.17329e-11
9.37421e-12
7.51231e-12
6.04005e-12
4.8736e-12
3.94741e-12
3.21023e-12
2.62193e-12
2.1511e-12
1.77313e-12
1.46874e-12
1.22279e-12
1.02335e-12
8.61047e-13
7.28476e-13
6.19774e-13
5.30295e-13
4.56341e-13
3.94968e-13
3.43819e-13
3.01006e-13
2.6501e-13
2.34606e-13
2.08806e-13
1.86805e-13
1.67953e-13
1.51715e-13
1.37659e-13
1.25429e-13
1.14733e-13
1.05335e-13
9.70395e-14
8.96918e-14
8.32349e-14
7.73748e-14
7.20683e-14
6.72578e-14
6.28836e-14
5.8894e-14
5.52451e-14
)
;

boundaryField
{
    wall
    {
        type            zeroGradient;
    }
    fuel
    {
        type            fixedValue;
        value           nonuniform 0();
    }
    outlet
    {
        type            inletOutlet;
        inletValue      nonuniform 0();
        value           nonuniform 0();
    }
    procBoundary1to0
    {
        type            processor;
        value           uniform 1.63299e-10;
    }
    procBoundary1to2
    {
        type            processor;
        value           uniform 5.19122e-14;
    }
}


// ************************************************************************* //
