/*--------------------------------*- C++ -*----------------------------------*\
| =========                 |                                                 |
| \\      /  F ield         | OpenFOAM: The Open Source CFD Toolbox           |
|  \\    /   O peration     | Version:  dev                                   |
|   \\  /    A nd           | Web:      www.OpenFOAM.org                      |
|    \\/     M anipulation  |                                                 |
\*---------------------------------------------------------------------------*/
FoamFile
{
    version     2.0;
    format      ascii;
    class       volScalarField;
    location    "0.125";
    object      H;
}
// * * * * * * * * * * * * * * * * * * * * * * * * * * * * * * * * * * * * * //

dimensions      [0 0 0 0 0 0 0];

internalField   nonuniform List<scalar> 
250
(
4.15623e-06
4.48258e-06
4.99021e-06
4.78534e-06
4.7891e-06
4.71286e-06
4.72654e-06
4.67828e-06
4.70042e-06
4.67972e-06
3.42625e-06
3.57491e-06
3.94152e-06
3.75041e-06
3.75121e-06
3.68528e-06
3.69754e-06
3.6566e-06
3.67584e-06
3.65828e-06
3.62673e-06
3.73612e-06
3.6314e-06
3.76003e-06
3.70197e-06
3.79733e-06
3.93474e-06
3.81412e-06
4.19939e-06
3.73355e-06
2.73899e-06
2.77651e-06
3.03392e-06
2.86793e-06
2.86719e-06
2.81172e-06
2.82231e-06
2.78877e-06
2.80489e-06
2.7905e-06
2.76433e-06
2.85596e-06
2.76791e-06
2.87414e-06
2.82493e-06
2.90269e-06
3.0142e-06
2.92209e-06
3.26016e-06
2.9188e-06
2.1206e-06
2.09736e-06
2.27247e-06
2.13709e-06
2.13606e-06
2.0897e-06
2.09858e-06
2.072e-06
2.08504e-06
2.07363e-06
2.05256e-06
2.12825e-06
2.05516e-06
2.14158e-06
2.09976e-06
2.16247e-06
2.24902e-06
2.17952e-06
2.46127e-06
2.22019e-06
1.58592e-06
1.53038e-06
1.65099e-06
1.53755e-06
1.53531e-06
1.50757e-06
1.51484e-06
1.49447e-06
1.50465e-06
1.4959e-06
1.47939e-06
1.53045e-06
1.48107e-06
1.54022e-06
1.5148e-06
1.55585e-06
1.62281e-06
1.57739e-06
1.80192e-06
1.64063e-06
1.13954e-06
1.07815e-06
1.15615e-06
1.07069e-06
1.06902e-06
1.0482e-06
1.05396e-06
1.03888e-06
1.04654e-06
1.04006e-06
1.02754e-06
1.0662e-06
1.02856e-06
1.07289e-06
1.05326e-06
1.0836e-06
1.13194e-06
1.10038e-06
1.27178e-06
1.15851e-06
7.77697e-07
7.21759e-07
7.70426e-07
7.08848e-07
7.07779e-07
6.92726e-07
6.97146e-07
6.8642e-07
6.91948e-07
6.87347e-07
6.78212e-07
7.06367e-07
6.78785e-07
7.10683e-07
6.96179e-07
7.17637e-07
7.51136e-07
7.3005e-07
8.55132e-07
7.85803e-07
4.92842e-07
4.48048e-07
4.76947e-07
4.35145e-07
4.34627e-07
4.24336e-07
4.27543e-07
4.20362e-07
4.24105e-07
4.21038e-07
4.1476e-07
4.34098e-07
4.15035e-07
4.36654e-07
4.26586e-07
4.40819e-07
4.62742e-07
4.49392e-07
5.35351e-07
4.9602e-07
2.78604e-07
2.4764e-07
2.63489e-07
2.37901e-07
2.37804e-07
2.3145e-07
2.33547e-07
2.29221e-07
2.31494e-07
2.29662e-07
2.25784e-07
2.37734e-07
2.25882e-07
2.39053e-07
2.32791e-07
2.41239e-07
2.54212e-07
2.46478e-07
2.99743e-07
2.79764e-07
1.33509e-07
1.16385e-07
1.23914e-07
1.10845e-07
1.10937e-07
1.07657e-07
1.08796e-07
1.06618e-07
1.07767e-07
1.06855e-07
1.04852e-07
1.11025e-07
1.04868e-07
1.11577e-07
1.08332e-07
1.12514e-07
1.1895e-07
1.15143e-07
1.42589e-07
1.33988e-07
5.07226e-08
4.33195e-08
4.60982e-08
4.07904e-08
4.08654e-08
3.95195e-08
4.00046e-08
3.91339e-08
3.95923e-08
3.92307e-08
3.8403e-08
4.09511e-08
3.83964e-08
4.11241e-08
3.9783e-08
4.14385e-08
4.39771e-08
4.25502e-08
5.37639e-08
5.10529e-08
1.21447e-08
1.02087e-08
1.0824e-08
9.51803e-09
9.54073e-09
9.20818e-09
9.33054e-09
9.12061e-09
9.23044e-09
9.14287e-09
8.93597e-09
9.57277e-09
8.93235e-09
9.60415e-09
9.26882e-09
9.6693e-09
1.02749e-08
9.96497e-09
1.27545e-08
1.23134e-08
1.62402e-09
1.40219e-09
1.46286e-09
1.31395e-09
1.3138e-09
1.27524e-09
1.28938e-09
1.2648e-09
1.27746e-09
1.26703e-09
1.24084e-09
1.32033e-09
1.24038e-09
1.32355e-09
1.28094e-09
1.33148e-09
1.3986e-09
1.37089e-09
1.69287e-09
1.6793e-09
)
;

boundaryField
{
    fuel
    {
        type            fixedValue;
        value           nonuniform 0();
    }
    wall
    {
        type            zeroGradient;
    }
    outlet
    {
        type            zeroGradient;
    }
    frontAndBack
    {
        type            empty;
    }
    procBoundary1to0
    {
        type            processor;
        value           nonuniform List<scalar> 
21
(
4.89694e-06
5.47654e-06
6.16567e-06
5.96137e-06
5.97165e-06
5.88555e-06
5.90056e-06
5.84546e-06
5.87007e-06
5.8464e-06
4.64298e-06
4.64298e-06
4.77018e-06
4.64896e-06
4.80034e-06
4.73358e-06
4.8468e-06
5.0102e-06
4.85379e-06
5.26837e-06
4.65397e-06
)
;
    }
}


// ************************************************************************* //
