/*--------------------------------*- C++ -*----------------------------------*\
| =========                 |                                                 |
| \\      /  F ield         | OpenFOAM: The Open Source CFD Toolbox           |
|  \\    /   O peration     | Version:  dev                                   |
|   \\  /    A nd           | Web:      www.OpenFOAM.org                      |
|    \\/     M anipulation  |                                                 |
\*---------------------------------------------------------------------------*/
FoamFile
{
    version     2.0;
    format      ascii;
    class       volScalarField;
    location    "0.125";
    object      H2C4O;
}
// * * * * * * * * * * * * * * * * * * * * * * * * * * * * * * * * * * * * * //

dimensions      [0 0 0 0 0 0 0];

internalField   nonuniform List<scalar> 
50
(
5.09434e-17
3.29585e-17
2.16359e-17
1.4432e-17
9.79631e-18
6.77726e-18
4.78622e-18
3.45549e-18
2.55316e-18
1.93154e-18
1.49576e-18
1.18432e-18
9.57097e-19
7.87676e-19
6.58533e-19
5.57937e-19
4.77956e-19
4.13161e-19
3.59787e-19
3.15181e-19
2.77445e-19
2.45194e-19
2.17397e-19
1.93274e-19
1.72221e-19
1.53763e-19
1.3752e-19
1.23181e-19
1.10491e-19
9.92347e-20
8.92322e-20
8.03294e-20
7.23939e-20
6.53116e-20
5.89831e-20
5.33218e-20
4.8252e-20
4.37072e-20
3.96292e-20
3.59668e-20
3.26756e-20
2.97171e-20
2.70591e-20
2.46998e-20
2.25449e-20
2.05866e-20
1.88093e-20
1.71949e-20
1.57278e-20
1.43969e-20
)
;

boundaryField
{
    wall
    {
        type            zeroGradient;
    }
    fuel
    {
        type            fixedValue;
        value           nonuniform 0();
    }
    outlet
    {
        type            inletOutlet;
        inletValue      nonuniform 0();
        value           nonuniform 0();
    }
    procBoundary1to0
    {
        type            processor;
        value           uniform 7.95974e-17;
    }
    procBoundary1to2
    {
        type            processor;
        value           uniform 1.32024e-20;
    }
}


// ************************************************************************* //
