/*--------------------------------*- C++ -*----------------------------------*\
| =========                 |                                                 |
| \\      /  F ield         | OpenFOAM: The Open Source CFD Toolbox           |
|  \\    /   O peration     | Version:  dev                                   |
|   \\  /    A nd           | Web:      www.OpenFOAM.org                      |
|    \\/     M anipulation  |                                                 |
\*---------------------------------------------------------------------------*/
FoamFile
{
    version     2.0;
    format      ascii;
    class       volScalarField;
    location    "0.125";
    object      n-A1C2H2;
}
// * * * * * * * * * * * * * * * * * * * * * * * * * * * * * * * * * * * * * //

dimensions      [0 0 0 0 0 0 0];

internalField   nonuniform List<scalar> 
250
(
2.61809e-11
1.92598e-11
1.67519e-11
1.59078e-11
1.56441e-11
1.5596e-11
1.55783e-11
1.5589e-11
1.55726e-11
1.55831e-11
2.45925e-11
1.9327e-11
1.72778e-11
1.66007e-11
1.63717e-11
1.63446e-11
1.63232e-11
1.63404e-11
1.63211e-11
1.63348e-11
1.6351e-11
1.62818e-11
1.63559e-11
1.62893e-11
1.63399e-11
1.63705e-11
1.65918e-11
1.74882e-11
2.07518e-11
2.94648e-11
2.39151e-11
1.99875e-11
1.83011e-11
1.78077e-11
1.7609e-11
1.76127e-11
1.7584e-11
1.76134e-11
1.75883e-11
1.76077e-11
1.76372e-11
1.75238e-11
1.76419e-11
1.75298e-11
1.76052e-11
1.75981e-11
1.77583e-11
1.85505e-11
2.12446e-11
2.88105e-11
2.43539e-11
2.15345e-11
2.01414e-11
1.98418e-11
1.96669e-11
1.97033e-11
1.96637e-11
1.97079e-11
1.96752e-11
1.97017e-11
1.97481e-11
1.9584e-11
1.97545e-11
1.959e-11
1.96945e-11
1.96484e-11
1.97442e-11
2.04461e-11
2.25566e-11
2.90802e-11
2.61226e-11
2.42195e-11
2.30751e-11
2.29599e-11
2.28045e-11
2.28353e-11
2.2784e-11
2.2837e-11
2.27994e-11
2.28304e-11
2.28892e-11
2.27186e-11
2.28995e-11
2.27298e-11
2.28282e-11
2.27857e-11
2.28296e-11
2.34277e-11
2.50245e-11
3.05988e-11
2.93014e-11
2.80535e-11
2.71665e-11
2.71053e-11
2.69488e-11
2.69957e-11
2.69374e-11
2.69824e-11
2.69484e-11
2.69768e-11
2.70324e-11
2.68579e-11
2.70479e-11
2.68857e-11
2.69937e-11
2.69602e-11
2.70132e-11
2.75234e-11
2.88073e-11
3.35219e-11
3.376e-11
3.28638e-11
3.22223e-11
3.20832e-11
3.19125e-11
3.1939e-11
3.18832e-11
3.18979e-11
3.18796e-11
3.18955e-11
3.19258e-11
3.18174e-11
3.1947e-11
3.18708e-11
3.19464e-11
3.19797e-11
3.21027e-11
3.25113e-11
3.37857e-11
3.768e-11
3.92907e-11
3.84188e-11
3.79979e-11
3.76527e-11
3.74593e-11
3.74327e-11
3.73911e-11
3.73557e-11
3.73644e-11
3.73592e-11
3.73436e-11
3.73654e-11
3.73696e-11
3.74485e-11
3.74528e-11
3.76009e-11
3.78447e-11
3.81452e-11
3.97206e-11
4.29102e-11
4.62005e-11
4.51742e-11
4.49204e-11
4.43534e-11
4.41316e-11
4.40519e-11
4.40255e-11
4.39418e-11
4.39778e-11
4.39516e-11
4.38893e-11
4.4046e-11
4.39194e-11
4.41571e-11
4.4081e-11
4.4352e-11
4.47078e-11
4.49203e-11
4.69009e-11
4.94806e-11
5.88765e-11
5.83552e-11
5.79931e-11
5.77033e-11
5.7396e-11
5.74085e-11
5.73365e-11
5.7289e-11
5.7309e-11
5.72918e-11
5.72607e-11
5.73152e-11
5.73031e-11
5.74537e-11
5.74093e-11
5.76932e-11
5.79098e-11
5.82233e-11
5.97337e-11
6.1772e-11
1.00471e-10
1.01026e-10
9.98345e-11
9.99504e-11
9.92249e-11
9.93678e-11
9.91842e-11
9.91435e-11
9.91645e-11
9.91114e-11
9.9054e-11
9.91478e-11
9.91423e-11
9.93904e-11
9.9274e-11
9.9853e-11
9.98648e-11
1.00791e-10
1.01468e-10
1.03401e-10
1.96693e-10
1.87881e-10
1.86518e-10
1.8053e-10
1.78927e-10
1.7752e-10
1.77779e-10
1.7665e-10
1.77237e-10
1.7664e-10
1.75356e-10
1.79116e-10
1.75481e-10
1.79638e-10
1.7748e-10
1.80823e-10
1.83507e-10
1.84765e-10
1.9821e-10
2.01829e-10
2.41593e-10
2.1751e-10
2.1669e-10
2.02272e-10
2.00113e-10
1.96589e-10
1.97593e-10
1.95136e-10
1.96356e-10
1.95208e-10
1.92252e-10
2.00996e-10
1.92295e-10
2.01596e-10
1.9663e-10
2.03212e-10
2.09389e-10
2.1051e-10
2.43606e-10
2.51714e-10
)
;

boundaryField
{
    fuel
    {
        type            fixedValue;
        value           nonuniform 0();
    }
    wall
    {
        type            zeroGradient;
    }
    outlet
    {
        type            zeroGradient;
    }
    frontAndBack
    {
        type            empty;
    }
    procBoundary1to0
    {
        type            processor;
        value           nonuniform List<scalar> 
21
(
2.85955e-11
1.9555e-11
1.64787e-11
1.54732e-11
1.51724e-11
1.51117e-11
1.50954e-11
1.51047e-11
1.50885e-11
1.50982e-11
1.55914e-11
1.55914e-11
1.55482e-11
1.55973e-11
1.55564e-11
1.55933e-11
1.56497e-11
1.59205e-11
1.69403e-11
2.07334e-11
3.06767e-11
)
;
    }
}


// ************************************************************************* //
