/*--------------------------------*- C++ -*----------------------------------*\
| =========                 |                                                 |
| \\      /  F ield         | OpenFOAM: The Open Source CFD Toolbox           |
|  \\    /   O peration     | Version:  dev                                   |
|   \\  /    A nd           | Web:      www.OpenFOAM.org                      |
|    \\/     M anipulation  |                                                 |
\*---------------------------------------------------------------------------*/
FoamFile
{
    version     2.0;
    format      ascii;
    class       volScalarField;
    location    "0.125";
    object      O2;
}
// * * * * * * * * * * * * * * * * * * * * * * * * * * * * * * * * * * * * * //

dimensions      [0 0 0 0 0 0 0];

internalField   nonuniform List<scalar> 
250
(
1.57748e-06
8.79566e-08
6.28254e-09
2.79949e-09
2.70252e-09
2.65506e-09
2.66322e-09
2.63203e-09
2.64553e-09
2.6322e-09
1.06111e-06
6.5039e-08
5.03355e-09
2.24161e-09
2.15411e-09
2.11764e-09
2.12377e-09
2.09984e-09
2.1104e-09
2.10012e-09
2.08097e-09
2.14565e-09
2.08461e-09
2.16471e-09
2.12825e-09
2.19591e-09
2.3349e-09
3.28258e-09
1.40615e-08
8.64636e-08
7.1273e-07
4.77637e-08
4.02435e-09
1.81521e-09
1.73831e-09
1.70972e-09
1.71429e-09
1.69572e-09
1.70408e-09
1.696e-09
1.68069e-09
1.73221e-09
1.68359e-09
1.74687e-09
1.7174e-09
1.77279e-09
1.90602e-09
3.08584e-09
1.6067e-08
1.00392e-07
4.75754e-07
3.4658e-08
3.19778e-09
1.48236e-09
1.41678e-09
1.3934e-09
1.39683e-09
1.38217e-09
1.38888e-09
1.38236e-09
1.36989e-09
1.41234e-09
1.37226e-09
1.42376e-09
1.39892e-09
1.44581e-09
1.57594e-09
2.94068e-09
1.78682e-08
1.11957e-07
3.13838e-07
2.46132e-08
2.51437e-09
1.21039e-09
1.15572e-09
1.1406e-09
1.14323e-09
1.13145e-09
1.13694e-09
1.13153e-09
1.12118e-09
1.15253e-09
1.12308e-09
1.16166e-09
1.14444e-09
1.18115e-09
1.30891e-09
2.79155e-09
1.9128e-08
1.19522e-07
2.03337e-07
1.71276e-08
1.94892e-09
9.88219e-10
9.44451e-10
9.32095e-10
9.34147e-10
9.2456e-10
9.29105e-10
9.24497e-10
9.15839e-10
9.42099e-10
9.17383e-10
9.49286e-10
9.34675e-10
9.66198e-10
1.08752e-09
2.59868e-09
1.95552e-08
1.21801e-07
1.28498e-07
1.15792e-08
1.48361e-09
7.99504e-10
7.65591e-10
7.55433e-10
7.57057e-10
7.49223e-10
7.53005e-10
7.49024e-10
7.41783e-10
7.63867e-10
7.43027e-10
7.69448e-10
7.57044e-10
7.83902e-10
8.9464e-10
2.34147e-09
1.89717e-08
1.17929e-07
7.85554e-08
7.56037e-09
1.10523e-09
6.36838e-10
6.11392e-10
6.03084e-10
6.04367e-10
5.98011e-10
6.01139e-10
5.97686e-10
5.91699e-10
6.10145e-10
5.92681e-10
6.14368e-10
6.03934e-10
6.26369e-10
7.22314e-10
2.01936e-09
1.73569e-08
1.08043e-07
4.59878e-08
4.73639e-09
8.02797e-10
4.96112e-10
4.77578e-10
4.70912e-10
4.71895e-10
4.66837e-10
4.69379e-10
4.66406e-10
4.61568e-10
4.76696e-10
4.6232e-10
4.79773e-10
4.71161e-10
4.89336e-10
5.67327e-10
1.64962e-09
1.48613e-08
9.3071e-08
2.54463e-08
2.82736e-09
5.6652e-10
3.75496e-10
3.62319e-10
3.57153e-10
3.57853e-10
3.53955e-10
3.55962e-10
3.53448e-10
3.49673e-10
3.61715e-10
3.50224e-10
3.63848e-10
3.56941e-10
3.71087e-10
4.29804e-10
1.26284e-09
1.17908e-08
7.47381e-08
1.30955e-08
1.60037e-09
3.87753e-10
2.74862e-10
2.65614e-10
2.61811e-10
2.6224e-10
2.5937e-10
2.60892e-10
2.58819e-10
2.56006e-10
2.65221e-10
2.5639e-10
2.66615e-10
2.6127e-10
2.71785e-10
3.12116e-10
8.96797e-10
8.56391e-09
5.53907e-08
6.2044e-09
8.67869e-10
2.59899e-10
1.95839e-10
1.89279e-10
1.86652e-10
1.86839e-10
1.84829e-10
1.85937e-10
1.84267e-10
1.82271e-10
1.89047e-10
1.82528e-10
1.89911e-10
1.85906e-10
1.93419e-10
2.18441e-10
5.90987e-10
5.66262e-09
3.78068e-08
2.95859e-09
4.97868e-10
1.82126e-10
1.4392e-10
1.38927e-10
1.37163e-10
1.37166e-10
1.35764e-10
1.36575e-10
1.35217e-10
1.33797e-10
1.38807e-10
1.33974e-10
1.39362e-10
1.36314e-10
1.41796e-10
1.56769e-10
3.88721e-10
3.64344e-09
2.53879e-08
)
;

boundaryField
{
    fuel
    {
        type            fixedValue;
        value           nonuniform 0();
    }
    wall
    {
        type            zeroGradient;
    }
    outlet
    {
        type            inletOutlet;
        inletValue      uniform 0;
        value           nonuniform List<scalar> 
25
(
1.57748e-06
1.06111e-06
7.1273e-07
4.75754e-07
3.13838e-07
2.03337e-07
1.28498e-07
7.85554e-08
4.59878e-08
2.54463e-08
1.30955e-08
6.2044e-09
2.95859e-09
8.64636e-08
1.00392e-07
1.11957e-07
1.19522e-07
1.21801e-07
1.17929e-07
1.08043e-07
9.3071e-08
7.47381e-08
5.53907e-08
3.78068e-08
2.53879e-08
)
;
    }
    frontAndBack
    {
        type            empty;
    }
    procBoundary1to0
    {
        type            processor;
        value           nonuniform List<scalar> 
21
(
2.36732e-06
1.19157e-07
7.86692e-09
3.53511e-09
3.43133e-09
3.36856e-09
3.37948e-09
3.33865e-09
3.35594e-09
3.33846e-09
2.60797e-09
2.60797e-09
2.69073e-09
2.61278e-09
2.71571e-09
2.67002e-09
2.75396e-09
2.90517e-09
3.58353e-09
1.20015e-08
7.02912e-08
)
;
    }
}


// ************************************************************************* //
