/*--------------------------------*- C++ -*----------------------------------*\
| =========                 |                                                 |
| \\      /  F ield         | OpenFOAM: The Open Source CFD Toolbox           |
|  \\    /   O peration     | Version:  dev                                   |
|   \\  /    A nd           | Web:      www.OpenFOAM.org                      |
|    \\/     M anipulation  |                                                 |
\*---------------------------------------------------------------------------*/
FoamFile
{
    version     2.0;
    format      ascii;
    class       surfaceScalarField;
    location    "0.125";
    object      phi;
}
// * * * * * * * * * * * * * * * * * * * * * * * * * * * * * * * * * * * * * //

dimensions      [1 0 -1 0 0 0 0];

internalField   nonuniform List<scalar> 
467
(
-2.06578e-06
4.57654e-06
-1.76539e-06
5.22863e-06
-1.5332e-06
3.63316e-06
-1.28961e-06
4.27241e-06
-1.07462e-06
3.70346e-06
-8.54925e-07
3.78364e-06
-6.36481e-07
3.78391e-06
-4.19313e-07
3.69873e-06
-2.0215e-07
3.78319e-06
3.71695e-06
-2.12695e-06
4.31909e-06
-1.8163e-06
4.91216e-06
-1.58123e-06
3.39853e-06
-1.32948e-06
4.02042e-06
-1.1078e-06
3.48e-06
-8.81564e-07
3.55789e-06
-6.56167e-07
3.55696e-06
-4.32573e-07
3.47597e-06
-2.08654e-07
3.55823e-06
1.58313e-08
3.49298e-06
2.3949e-07
3.48083e-06
4.63207e-07
3.55543e-06
6.86223e-07
3.45388e-06
9.10767e-07
3.57017e-06
1.13452e-06
3.47656e-06
1.36176e-06
3.59899e-06
1.58684e-06
3.55202e-06
1.84608e-06
4.11852e-06
2.08557e-06
3.79948e-06
5.13012e-06
-2.19286e-06
4.04971e-06
-1.87167e-06
4.58481e-06
-1.63322e-06
3.16061e-06
-1.37266e-06
3.75971e-06
-1.14376e-06
3.24913e-06
-9.10429e-07
3.32514e-06
-6.7753e-07
3.32234e-06
-4.46935e-07
3.24636e-06
-2.15674e-07
3.3258e-06
1.58414e-08
3.26207e-06
2.46424e-07
3.24954e-06
4.7758e-07
3.32439e-06
7.07302e-07
3.22341e-06
9.39559e-07
3.33794e-06
1.17013e-06
3.24464e-06
1.4045e-06
3.36607e-06
1.6369e-06
3.31427e-06
1.90462e-06
3.85432e-06
2.15344e-06
3.54074e-06
4.78007e-06
-2.26532e-06
3.76738e-06
-1.93309e-06
4.24584e-06
-1.69049e-06
2.91864e-06
-1.42023e-06
3.48939e-06
-1.18343e-06
3.01017e-06
-9.42253e-07
3.08465e-06
-7.01125e-07
3.07929e-06
-4.62772e-07
3.00915e-06
-2.23394e-07
3.08509e-06
1.59022e-08
3.02349e-06
2.54108e-07
3.01052e-06
4.93528e-07
3.08514e-06
7.30651e-07
2.98543e-06
9.71451e-07
3.09723e-06
1.20947e-06
3.0051e-06
1.45177e-06
3.12529e-06
1.69221e-06
3.06796e-06
1.9694e-06
3.58139e-06
2.22781e-06
3.27193e-06
4.42139e-06
-2.3468e-06
3.47087e-06
-2.00268e-06
3.89423e-06
-1.75505e-06
2.67173e-06
-1.47426e-06
3.20861e-06
-1.22843e-06
2.76192e-06
-9.78053e-07
2.83509e-06
-7.27727e-07
2.82683e-06
-4.806e-07
2.76337e-06
-2.32066e-07
2.83504e-06
1.60174e-08
2.77624e-06
2.62791e-07
2.76283e-06
5.11574e-07
2.83661e-06
7.57034e-07
2.73897e-06
1.00746e-06
2.84699e-06
1.25418e-06
2.75665e-06
1.50584e-06
2.87465e-06
1.75485e-06
2.81223e-06
2.04274e-06
3.29854e-06
2.31119e-06
2.99201e-06
4.05266e-06
-2.44081e-06
3.15855e-06
-2.08346e-06
3.52844e-06
-1.82914e-06
2.4182e-06
-1.53597e-06
2.91553e-06
-1.28002e-06
2.50336e-06
-1.01928e-06
2.57532e-06
-7.58439e-07
2.5636e-06
-5.01154e-07
2.50766e-06
-2.42049e-07
2.57421e-06
1.61973e-08
2.51897e-06
2.72832e-07
2.50514e-06
5.32471e-07
2.57732e-06
7.87553e-07
2.48273e-06
1.04905e-06
2.58579e-06
1.30542e-06
2.4983e-06
1.5677e-06
2.6134e-06
1.82676e-06
2.54568e-06
2.12729e-06
3.00392e-06
2.40659e-06
2.70054e-06
3.6719e-06
-2.55253e-06
2.82824e-06
-2.17991e-06
3.14623e-06
-1.91676e-06
2.15597e-06
-1.60906e-06
2.608e-06
-1.34123e-06
2.23271e-06
-1.06809e-06
2.30333e-06
-7.94897e-07
2.28773e-06
-5.25519e-07
2.24013e-06
-2.53868e-07
2.30057e-06
1.64644e-08
2.24979e-06
2.84777e-07
2.23562e-06
5.57347e-07
2.30521e-06
8.23854e-07
2.21487e-06
1.09841e-06
2.31168e-06
1.36622e-06
2.22823e-06
1.64131e-06
2.33978e-06
1.91202e-06
2.26665e-06
2.22778e-06
2.69501e-06
2.51915e-06
2.39617e-06
3.27587e-06
-2.69002e-06
2.47672e-06
-2.29895e-06
2.74423e-06
-2.02398e-06
1.88204e-06
-1.6986e-06
2.28287e-06
-1.41633e-06
1.94741e-06
-1.12785e-06
2.01618e-06
-8.39639e-07
1.99651e-06
-5.55374e-07
1.95803e-06
-2.68338e-07
2.01126e-06
1.68629e-08
1.96593e-06
2.99486e-07
1.9516e-06
5.87964e-07
2.01733e-06
8.68508e-07
1.93274e-06
1.15898e-06
2.02182e-06
1.44085e-06
1.94376e-06
1.73189e-06
2.05072e-06
2.01655e-06
1.97273e-06
2.35132e-06
2.36815e-06
2.65664e-06
2.07684e-06
2.86018e-06
-2.86658e-06
2.09915e-06
-2.45204e-06
2.31724e-06
-2.16077e-06
1.59198e-06
-1.81295e-06
1.93537e-06
-1.51236e-06
1.64356e-06
-1.20406e-06
1.70945e-06
-8.96839e-07
1.68589e-06
-5.9347e-07
1.65719e-06
-2.86789e-07
1.70195e-06
1.74759e-08
1.66323e-06
3.18392e-07
1.64906e-06
6.27234e-07
1.70927e-06
9.25763e-07
1.63236e-06
1.23646e-06
1.71197e-06
1.53632e-06
1.64091e-06
1.84805e-06
1.74139e-06
2.15017e-06
1.66032e-06
2.50964e-06
2.01774e-06
2.83196e-06
1.73933e-06
2.41871e-06
-3.106e-06
1.68767e-06
-2.65959e-06
1.85666e-06
-2.34496e-06
1.27879e-06
-1.96696e-06
1.55774e-06
-1.64181e-06
1.31492e-06
-1.30655e-06
1.37601e-06
-9.73893e-07
1.3494e-06
-6.44706e-07
1.33095e-06
-3.11578e-07
1.36579e-06
1.84551e-08
1.33504e-06
3.44067e-07
1.32158e-06
6.80373e-07
1.37395e-06
1.00318e-06
1.30738e-06
1.34098e-06
1.3753e-06
1.66513e-06
1.31328e-06
2.0051e-06
1.40426e-06
2.3304e-06
1.32352e-06
2.72375e-06
1.63466e-06
3.06821e-06
1.37829e-06
1.94192e-06
-3.45565e-06
1.22826e-06
-2.96199e-06
1.34701e-06
-2.61185e-06
9.30423e-07
-2.18998e-06
1.13625e-06
-1.82929e-06
9.50565e-07
-1.45462e-06
1.00338e-06
-1.08538e-06
9.75862e-07
-7.18744e-07
9.67696e-07
-3.47341e-07
9.90931e-07
2.01142e-08
9.69703e-07
3.81612e-07
9.57934e-07
7.57698e-07
9.99099e-07
1.11568e-06
9.4686e-07
1.49254e-06
9.99904e-07
1.85202e-06
9.49803e-07
2.23326e-06
1.02628e-06
2.59193e-06
9.51963e-07
3.03525e-06
1.203e-06
3.41135e-06
9.84128e-07
1.41324e-06
-4.0259e-06
6.92223e-07
-3.45251e-06
7.56213e-07
-3.04298e-06
5.23051e-07
-2.5494e-06
6.42939e-07
-2.13139e-06
5.28909e-07
-1.6926e-06
5.66738e-07
-1.2647e-06
5.43369e-07
-8.3766e-07
5.44327e-07
-4.04712e-07
5.54209e-07
2.31616e-08
5.44172e-07
4.42786e-07
5.35935e-07
8.82578e-07
5.60798e-07
1.29748e-06
5.29097e-07
1.73718e-06
5.62015e-07
2.1537e-06
5.28857e-07
2.60195e-06
5.81654e-07
3.01474e-06
5.25357e-07
3.54013e-06
6.90334e-07
3.96827e-06
5.36922e-07
7.99217e-07
-5.15847e-06
-4.41728e-06
-3.89203e-06
-3.24913e-06
-2.72288e-06
-2.1545e-06
-1.61485e-06
-1.06752e-06
-5.16461e-07
2.96909e-08
5.63593e-07
1.12579e-06
1.65237e-06
2.21613e-06
2.74118e-06
3.32607e-06
3.83991e-06
4.5412e-06
5.06225e-06
)
;

boundaryField
{
    fuel
    {
        type            calculated;
        value           nonuniform 0();
    }
    wall
    {
        type            calculated;
        value           uniform 0;
    }
    outlet
    {
        type            calculated;
        value           nonuniform List<scalar> 
25
(
2.3097e-06
2.38343e-06
2.46232e-06
2.54837e-06
2.64434e-06
2.75418e-06
2.88374e-06
3.04208e-06
3.24423e-06
3.51701e-06
3.91401e-06
4.56037e-06
5.84918e-06
2.42241e-06
2.49865e-06
2.58273e-06
2.67734e-06
2.78632e-06
2.91537e-06
3.07343e-06
3.27531e-06
3.54757e-06
3.94319e-06
4.58592e-06
5.86503e-06
)
;
    }
    frontAndBack
    {
        type            empty;
        value           nonuniform 0();
    }
    procBoundary1to0
    {
        type            processor;
        value           nonuniform List<scalar> 
21
(
-4.82296e-06
-5.53471e-06
-3.86503e-06
-4.51632e-06
-3.92006e-06
-4.00292e-06
-4.00374e-06
-3.91519e-06
-4.00126e-06
-3.93454e-06
1.58724e-08
-3.70512e-06
-3.77908e-06
-3.67755e-06
-3.79474e-06
-3.70152e-06
-3.82515e-06
-3.7819e-06
-4.37491e-06
-4.04844e-06
-5.47297e-06
)
;
    }
}


// ************************************************************************* //
