/*--------------------------------*- C++ -*----------------------------------*\
| =========                 |                                                 |
| \\      /  F ield         | OpenFOAM: The Open Source CFD Toolbox           |
|  \\    /   O peration     | Version:  dev                                   |
|   \\  /    A nd           | Web:      www.OpenFOAM.org                      |
|    \\/     M anipulation  |                                                 |
\*---------------------------------------------------------------------------*/
FoamFile
{
    version     2.0;
    format      ascii;
    class       volScalarField;
    location    "0.1";
    object      A1C2H*;
}
// * * * * * * * * * * * * * * * * * * * * * * * * * * * * * * * * * * * * * //

dimensions      [0 0 0 0 0 0 0];

internalField   nonuniform List<scalar> 
1997
(
4.69834e-09
4.71237e-09
4.71859e-09
4.72263e-09
4.72212e-09
4.72225e-09
4.72051e-09
4.71948e-09
4.71819e-09
4.71754e-09
4.71677e-09
4.71648e-09
4.71604e-09
4.71594e-09
4.71568e-09
4.71569e-09
4.71554e-09
4.71558e-09
4.61207e-09
4.62517e-09
4.63059e-09
4.63424e-09
4.6336e-09
4.63353e-09
4.63181e-09
4.63076e-09
4.62949e-09
4.62884e-09
4.62809e-09
4.6278e-09
4.62737e-09
4.62727e-09
4.62702e-09
4.62702e-09
4.62688e-09
4.62691e-09
4.62682e-09
4.62686e-09
4.6268e-09
4.62683e-09
4.6268e-09
4.62682e-09
4.62681e-09
4.62681e-09
4.62682e-09
4.6268e-09
4.52852e-09
4.54073e-09
4.54537e-09
4.54864e-09
4.54786e-09
4.5476e-09
4.54588e-09
4.54481e-09
4.54357e-09
4.54292e-09
4.54218e-09
4.54189e-09
4.54147e-09
4.54137e-09
4.54112e-09
4.54112e-09
4.54098e-09
4.54101e-09
4.54093e-09
4.54096e-09
4.54091e-09
4.54093e-09
4.5409e-09
4.54092e-09
4.54091e-09
4.54091e-09
4.54092e-09
4.5409e-09
4.54093e-09
4.54091e-09
4.54096e-09
4.54093e-09
4.54101e-09
4.54098e-09
4.54112e-09
4.54113e-09
4.54137e-09
4.54147e-09
4.54189e-09
4.54219e-09
4.44742e-09
4.45875e-09
4.46266e-09
4.46555e-09
4.46461e-09
4.46417e-09
4.46245e-09
4.46135e-09
4.46013e-09
4.45947e-09
4.45876e-09
4.45846e-09
4.45804e-09
4.45794e-09
4.4577e-09
4.4577e-09
4.45756e-09
4.45759e-09
4.45751e-09
4.45754e-09
4.45749e-09
4.45751e-09
4.45748e-09
4.4575e-09
4.45749e-09
4.45749e-09
4.4575e-09
4.45748e-09
4.45751e-09
4.45749e-09
4.45754e-09
4.45751e-09
4.45759e-09
4.45756e-09
4.4577e-09
4.45771e-09
4.45794e-09
4.45804e-09
4.45846e-09
4.45876e-09
4.45947e-09
4.46013e-09
4.46135e-09
4.46245e-09
4.46417e-09
4.46461e-09
4.46554e-09
4.46265e-09
4.45875e-09
4.44742e-09
4.3685e-09
4.37898e-09
4.38216e-09
4.38467e-09
4.38357e-09
4.38295e-09
4.38122e-09
4.3801e-09
4.3789e-09
4.37823e-09
4.37753e-09
4.37722e-09
4.37682e-09
4.37671e-09
4.37648e-09
4.37647e-09
4.37633e-09
4.37636e-09
4.37628e-09
4.37631e-09
4.37626e-09
4.37629e-09
4.37626e-09
4.37627e-09
4.37626e-09
4.37626e-09
4.37627e-09
4.37626e-09
4.37629e-09
4.37626e-09
4.37631e-09
4.37628e-09
4.37636e-09
4.37633e-09
4.37647e-09
4.37648e-09
4.37671e-09
4.37682e-09
4.37722e-09
4.37753e-09
4.37823e-09
4.3789e-09
4.3801e-09
4.38122e-09
4.38295e-09
4.38357e-09
4.38467e-09
4.38216e-09
4.37897e-09
4.36849e-09
4.29023e-09
4.30002e-09
4.30249e-09
4.30454e-09
4.30305e-09
4.30222e-09
4.30039e-09
4.2992e-09
4.29797e-09
4.29727e-09
4.29655e-09
4.29623e-09
4.29582e-09
4.29571e-09
4.29547e-09
4.29546e-09
4.29532e-09
4.29534e-09
4.29526e-09
4.29529e-09
4.29524e-09
4.29527e-09
4.29524e-09
4.29525e-09
4.29524e-09
4.29524e-09
4.29525e-09
4.29524e-09
4.29527e-09
4.29524e-09
4.29529e-09
4.29526e-09
4.29535e-09
4.29532e-09
4.29546e-09
4.29547e-09
4.29571e-09
4.29582e-09
4.29623e-09
4.29655e-09
4.29727e-09
4.29797e-09
4.2992e-09
4.30039e-09
4.30222e-09
4.30305e-09
4.30453e-09
4.30249e-09
4.30001e-09
4.29022e-09
4.21467e-09
4.22366e-09
4.22545e-09
4.22709e-09
4.22541e-09
4.2244e-09
4.22254e-09
4.22131e-09
4.22009e-09
4.21937e-09
4.21867e-09
4.21834e-09
4.21793e-09
4.21782e-09
4.21758e-09
4.21756e-09
4.21743e-09
4.21745e-09
4.21737e-09
4.2174e-09
4.21735e-09
4.21737e-09
4.21734e-09
4.21736e-09
4.21735e-09
4.21735e-09
4.21736e-09
4.21734e-09
4.21737e-09
4.21735e-09
4.2174e-09
4.21737e-09
4.21745e-09
4.21743e-09
4.21757e-09
4.21758e-09
4.21782e-09
4.21793e-09
4.21834e-09
4.21867e-09
4.21937e-09
4.22009e-09
4.22131e-09
4.22254e-09
4.2244e-09
4.2254e-09
4.22709e-09
4.22545e-09
4.22366e-09
4.21467e-09
4.14038e-09
4.14859e-09
4.1497e-09
4.15093e-09
4.14902e-09
4.14783e-09
4.14585e-09
4.14449e-09
4.1432e-09
4.14243e-09
4.14168e-09
4.14133e-09
4.1409e-09
4.14077e-09
4.14053e-09
4.14051e-09
4.14036e-09
4.14038e-09
4.1403e-09
4.14032e-09
4.14027e-09
4.14029e-09
4.14026e-09
4.14028e-09
4.14027e-09
4.14027e-09
4.14028e-09
4.14026e-09
4.14029e-09
4.14027e-09
4.14032e-09
4.1403e-09
4.14038e-09
4.14036e-09
4.14051e-09
4.14053e-09
4.14078e-09
4.14091e-09
4.14133e-09
4.14168e-09
4.14243e-09
4.1432e-09
4.14449e-09
4.14584e-09
4.14783e-09
4.14902e-09
4.15093e-09
4.14969e-09
4.14859e-09
4.14038e-09
4.06708e-09
4.07452e-09
4.07494e-09
4.07575e-09
4.0736e-09
4.07222e-09
4.07018e-09
4.06878e-09
4.06748e-09
4.06669e-09
4.06594e-09
4.06558e-09
4.06515e-09
4.06502e-09
4.06477e-09
4.06474e-09
4.0646e-09
4.06462e-09
4.06453e-09
4.06456e-09
4.06451e-09
4.06453e-09
4.0645e-09
4.06451e-09
4.0645e-09
4.0645e-09
4.06451e-09
4.0645e-09
4.06453e-09
4.06451e-09
4.06456e-09
4.06453e-09
4.06462e-09
4.0646e-09
4.06474e-09
4.06477e-09
4.06502e-09
4.06516e-09
4.06558e-09
4.06594e-09
4.06669e-09
4.06748e-09
4.06878e-09
4.07018e-09
4.07222e-09
4.0736e-09
4.07575e-09
4.07493e-09
4.07451e-09
4.06707e-09
3.99334e-09
4.00019e-09
3.99989e-09
4.00023e-09
3.99765e-09
3.99605e-09
3.99386e-09
3.99236e-09
3.991e-09
3.99017e-09
3.9894e-09
3.98901e-09
3.98857e-09
3.98842e-09
3.98817e-09
3.98814e-09
3.98799e-09
3.988e-09
3.98791e-09
3.98794e-09
3.98788e-09
3.9879e-09
3.98788e-09
3.98789e-09
3.98788e-09
3.98788e-09
3.98789e-09
3.98788e-09
3.9879e-09
3.98788e-09
3.98794e-09
3.98791e-09
3.988e-09
3.98799e-09
3.98814e-09
3.98817e-09
3.98843e-09
3.98857e-09
3.98901e-09
3.9894e-09
3.99017e-09
3.991e-09
3.99235e-09
3.99386e-09
3.99605e-09
3.99765e-09
4.00022e-09
3.99988e-09
4.00018e-09
3.99334e-09
3.91876e-09
3.92479e-09
3.92382e-09
3.92368e-09
3.92083e-09
3.91903e-09
3.91677e-09
3.91519e-09
3.91382e-09
3.91296e-09
3.91218e-09
3.91178e-09
3.91134e-09
3.91118e-09
3.91092e-09
3.91088e-09
3.91074e-09
3.91075e-09
3.91066e-09
3.91068e-09
3.91063e-09
3.91065e-09
3.91062e-09
3.91063e-09
3.91062e-09
3.91062e-09
3.91063e-09
3.91062e-09
3.91065e-09
3.91063e-09
3.91068e-09
3.91066e-09
3.91075e-09
3.91074e-09
3.91089e-09
3.91093e-09
3.91118e-09
3.91134e-09
3.91178e-09
3.91218e-09
3.91296e-09
3.91382e-09
3.91519e-09
3.91676e-09
3.91903e-09
3.92083e-09
3.92368e-09
3.92381e-09
3.92478e-09
3.91875e-09
3.84624e-09
3.85154e-09
3.84985e-09
3.84924e-09
3.84609e-09
3.84408e-09
3.84172e-09
3.84006e-09
3.83866e-09
3.83777e-09
3.83698e-09
3.83656e-09
3.83611e-09
3.83595e-09
3.83568e-09
3.83564e-09
3.83549e-09
3.8355e-09
3.83541e-09
3.83543e-09
3.83537e-09
3.83539e-09
3.83536e-09
3.83537e-09
3.83536e-09
3.83536e-09
3.83537e-09
3.83536e-09
3.83539e-09
3.83537e-09
3.83543e-09
3.83541e-09
3.8355e-09
3.83549e-09
3.83564e-09
3.83569e-09
3.83595e-09
3.83611e-09
3.83656e-09
3.83698e-09
3.83777e-09
3.83866e-09
3.84006e-09
3.84171e-09
3.84407e-09
3.84609e-09
3.84924e-09
3.84984e-09
3.85153e-09
3.84623e-09
3.77337e-09
3.77795e-09
3.77553e-09
3.77443e-09
3.77095e-09
3.76872e-09
3.76625e-09
3.76451e-09
3.76307e-09
3.76214e-09
3.76133e-09
3.7609e-09
3.76044e-09
3.76027e-09
3.76e-09
3.75995e-09
3.7598e-09
3.7598e-09
3.75971e-09
3.75973e-09
3.75968e-09
3.75969e-09
3.75966e-09
3.75967e-09
3.75966e-09
3.75966e-09
3.75967e-09
3.75966e-09
3.75969e-09
3.75967e-09
3.75973e-09
3.75971e-09
3.7598e-09
3.7598e-09
3.75995e-09
3.76e-09
3.76027e-09
3.76044e-09
3.7609e-09
3.76133e-09
3.76214e-09
3.76307e-09
3.76451e-09
3.76624e-09
3.76872e-09
3.77095e-09
3.77442e-09
3.77551e-09
3.77794e-09
3.77336e-09
3.69989e-09
3.70376e-09
3.70057e-09
3.69896e-09
3.69516e-09
3.69268e-09
3.6901e-09
3.68826e-09
3.68679e-09
3.68582e-09
3.68499e-09
3.68454e-09
3.68407e-09
3.68389e-09
3.68362e-09
3.68356e-09
3.6834e-09
3.6834e-09
3.68331e-09
3.68333e-09
3.68327e-09
3.68329e-09
3.68326e-09
3.68327e-09
3.68326e-09
3.68326e-09
3.68327e-09
3.68326e-09
3.68329e-09
3.68327e-09
3.68333e-09
3.68331e-09
3.6834e-09
3.6834e-09
3.68356e-09
3.68362e-09
3.68389e-09
3.68407e-09
3.68455e-09
3.68499e-09
3.68582e-09
3.68679e-09
3.68826e-09
3.6901e-09
3.69268e-09
3.69516e-09
3.69895e-09
3.70054e-09
3.70375e-09
3.69988e-09
3.62402e-09
3.62712e-09
3.62299e-09
3.62072e-09
3.61649e-09
3.61369e-09
3.61094e-09
3.60895e-09
3.60742e-09
3.60638e-09
3.60552e-09
3.60504e-09
3.60455e-09
3.60436e-09
3.60407e-09
3.60401e-09
3.60384e-09
3.60384e-09
3.60374e-09
3.60376e-09
3.6037e-09
3.60372e-09
3.60368e-09
3.60369e-09
3.60369e-09
3.60368e-09
3.60369e-09
3.60368e-09
3.60371e-09
3.6037e-09
3.60376e-09
3.60374e-09
3.60384e-09
3.60384e-09
3.60401e-09
3.60407e-09
3.60436e-09
3.60455e-09
3.60505e-09
3.60552e-09
3.60638e-09
3.60741e-09
3.60895e-09
3.61093e-09
3.61369e-09
3.61648e-09
3.62071e-09
3.62296e-09
3.62711e-09
3.62402e-09
3.54611e-09
3.54841e-09
3.54348e-09
3.54062e-09
3.53605e-09
3.53299e-09
3.53011e-09
3.528e-09
3.52643e-09
3.52535e-09
3.52447e-09
3.52397e-09
3.52347e-09
3.52326e-09
3.52296e-09
3.5229e-09
3.52273e-09
3.52272e-09
3.52262e-09
3.52263e-09
3.52257e-09
3.52259e-09
3.52256e-09
3.52257e-09
3.52256e-09
3.52256e-09
3.52257e-09
3.52256e-09
3.52259e-09
3.52257e-09
3.52263e-09
3.52262e-09
3.52272e-09
3.52273e-09
3.5229e-09
3.52297e-09
3.52326e-09
3.52347e-09
3.52397e-09
3.52447e-09
3.52535e-09
3.52643e-09
3.528e-09
3.5301e-09
3.53299e-09
3.53605e-09
3.54062e-09
3.54345e-09
3.5484e-09
3.54611e-09
3.46649e-09
3.46797e-09
3.46219e-09
3.45874e-09
3.45382e-09
3.45048e-09
3.44745e-09
3.44524e-09
3.44362e-09
3.44249e-09
3.44159e-09
3.44107e-09
3.44055e-09
3.44033e-09
3.44003e-09
3.43995e-09
3.43978e-09
3.43977e-09
3.43967e-09
3.43968e-09
3.43962e-09
3.43963e-09
3.4396e-09
3.43961e-09
3.4396e-09
3.4396e-09
3.43961e-09
3.4396e-09
3.43963e-09
3.43962e-09
3.43968e-09
3.43967e-09
3.43977e-09
3.43978e-09
3.43996e-09
3.44003e-09
3.44033e-09
3.44055e-09
3.44107e-09
3.44159e-09
3.44249e-09
3.44362e-09
3.44523e-09
3.44745e-09
3.45048e-09
3.45381e-09
3.45873e-09
3.4622e-09
3.46796e-09
3.46648e-09
3.38719e-09
3.38791e-09
3.38118e-09
3.37717e-09
3.37186e-09
3.36824e-09
3.36507e-09
3.36273e-09
3.36106e-09
3.35988e-09
3.35895e-09
3.35841e-09
3.35788e-09
3.35765e-09
3.35734e-09
3.35726e-09
3.35708e-09
3.35706e-09
3.35696e-09
3.35697e-09
3.3569e-09
3.35692e-09
3.35689e-09
3.35689e-09
3.35688e-09
3.35688e-09
3.35689e-09
3.35688e-09
3.35692e-09
3.3569e-09
3.35697e-09
3.35696e-09
3.35706e-09
3.35708e-09
3.35726e-09
3.35734e-09
3.35765e-09
3.35788e-09
3.35841e-09
3.35895e-09
3.35988e-09
3.36106e-09
3.36273e-09
3.36507e-09
3.36824e-09
3.37185e-09
3.37716e-09
3.38128e-09
3.3879e-09
3.38718e-09
3.30587e-09
3.30581e-09
3.29799e-09
3.29348e-09
3.28778e-09
3.28386e-09
3.28057e-09
3.27811e-09
3.27637e-09
3.27514e-09
3.27419e-09
3.27363e-09
3.27308e-09
3.27284e-09
3.27252e-09
3.27243e-09
3.27225e-09
3.27223e-09
3.27212e-09
3.27213e-09
3.27207e-09
3.27208e-09
3.27205e-09
3.27205e-09
3.27204e-09
3.27204e-09
3.27205e-09
3.27204e-09
3.27208e-09
3.27206e-09
3.27213e-09
3.27212e-09
3.27223e-09
3.27225e-09
3.27244e-09
3.27252e-09
3.27284e-09
3.27308e-09
3.27363e-09
3.27419e-09
3.27514e-09
3.27637e-09
3.2781e-09
3.28057e-09
3.28386e-09
3.28777e-09
3.29348e-09
3.29833e-09
3.3058e-09
3.30586e-09
3.22028e-09
3.21943e-09
3.21024e-09
3.20533e-09
3.19916e-09
3.19489e-09
3.19144e-09
3.18884e-09
3.18701e-09
3.18572e-09
3.18474e-09
3.18415e-09
3.18358e-09
3.18332e-09
3.18299e-09
3.1829e-09
3.1827e-09
3.18268e-09
3.18257e-09
3.18258e-09
3.18251e-09
3.18252e-09
3.18249e-09
3.1825e-09
3.18248e-09
3.18248e-09
3.1825e-09
3.18249e-09
3.18252e-09
3.18251e-09
3.18258e-09
3.18257e-09
3.18268e-09
3.1827e-09
3.1829e-09
3.18299e-09
3.18333e-09
3.18358e-09
3.18415e-09
3.18474e-09
3.18572e-09
3.18701e-09
3.18883e-09
3.19143e-09
3.19489e-09
3.19915e-09
3.20532e-09
3.2111e-09
3.21942e-09
3.22027e-09
3.13181e-09
3.13007e-09
3.12188e-09
3.11681e-09
3.11021e-09
3.10567e-09
3.10207e-09
3.09937e-09
3.09748e-09
3.09614e-09
3.09513e-09
3.09452e-09
3.09394e-09
3.09367e-09
3.09333e-09
3.09323e-09
3.09303e-09
3.09301e-09
3.09289e-09
3.0929e-09
3.09283e-09
3.09284e-09
3.09281e-09
3.09282e-09
3.0928e-09
3.0928e-09
3.09281e-09
3.0928e-09
3.09284e-09
3.09283e-09
3.0929e-09
3.09289e-09
3.09301e-09
3.09303e-09
3.09323e-09
3.09333e-09
3.09368e-09
3.09394e-09
3.09452e-09
3.09513e-09
3.09614e-09
3.09747e-09
3.09936e-09
3.10207e-09
3.10566e-09
3.11021e-09
3.1168e-09
3.12103e-09
3.13005e-09
3.1318e-09
3.04319e-09
3.04057e-09
3.03111e-09
3.02577e-09
3.01873e-09
3.01393e-09
3.0102e-09
3.00739e-09
3.00541e-09
3.00398e-09
3.00291e-09
3.00226e-09
3.00164e-09
3.00136e-09
3.00099e-09
3.00089e-09
3.00067e-09
3.00065e-09
3.00052e-09
3.00053e-09
3.00045e-09
3.00047e-09
3.00043e-09
3.00044e-09
3.00042e-09
3.00042e-09
3.00044e-09
3.00042e-09
3.00046e-09
3.00045e-09
3.00053e-09
3.00052e-09
3.00065e-09
3.00067e-09
3.00089e-09
3.00099e-09
3.00136e-09
3.00164e-09
3.00226e-09
3.00291e-09
3.00398e-09
3.00541e-09
3.00738e-09
3.01019e-09
3.01393e-09
3.01873e-09
3.02576e-09
3.03073e-09
3.04056e-09
3.04318e-09
2.95048e-09
2.94652e-09
2.93576e-09
2.92999e-09
2.92244e-09
2.91736e-09
2.91347e-09
2.91053e-09
2.90848e-09
2.907e-09
2.90591e-09
2.90523e-09
2.90459e-09
2.9043e-09
2.90392e-09
2.90381e-09
2.90359e-09
2.90356e-09
2.90343e-09
2.90344e-09
2.90336e-09
2.90337e-09
2.90333e-09
2.90334e-09
2.90333e-09
2.90333e-09
2.90334e-09
2.90333e-09
2.90337e-09
2.90336e-09
2.90344e-09
2.90343e-09
2.90356e-09
2.90359e-09
2.90381e-09
2.90392e-09
2.9043e-09
2.9046e-09
2.90523e-09
2.90591e-09
2.907e-09
2.90848e-09
2.91052e-09
2.91347e-09
2.91735e-09
2.92244e-09
2.92999e-09
2.93562e-09
2.94651e-09
2.95046e-09
2.85404e-09
2.85171e-09
2.8399e-09
2.8337e-09
2.82575e-09
2.82041e-09
2.81642e-09
2.81337e-09
2.81127e-09
2.80976e-09
2.80865e-09
2.80795e-09
2.80731e-09
2.80701e-09
2.80662e-09
2.80651e-09
2.80628e-09
2.80625e-09
2.80612e-09
2.80612e-09
2.80604e-09
2.80606e-09
2.80601e-09
2.80602e-09
2.80601e-09
2.80601e-09
2.80602e-09
2.80601e-09
2.80605e-09
2.80604e-09
2.80612e-09
2.80611e-09
2.80625e-09
2.80628e-09
2.80651e-09
2.80662e-09
2.80701e-09
2.80731e-09
2.80796e-09
2.80865e-09
2.80976e-09
2.81126e-09
2.81337e-09
2.81642e-09
2.8204e-09
2.82575e-09
2.83369e-09
2.83987e-09
2.85171e-09
2.85403e-09
2.75759e-09
2.75441e-09
2.74155e-09
2.7349e-09
2.72662e-09
2.72101e-09
2.71694e-09
2.71377e-09
2.71155e-09
2.70994e-09
2.70876e-09
2.70802e-09
2.70733e-09
2.70702e-09
2.7066e-09
2.70649e-09
2.70624e-09
2.70621e-09
2.70607e-09
2.70607e-09
2.70599e-09
2.706e-09
2.70596e-09
2.70597e-09
2.70595e-09
2.70595e-09
2.70597e-09
2.70596e-09
2.706e-09
2.70599e-09
2.70607e-09
2.70607e-09
2.70621e-09
2.70624e-09
2.70649e-09
2.70661e-09
2.70702e-09
2.70734e-09
2.70802e-09
2.70876e-09
2.70994e-09
2.71154e-09
2.71376e-09
2.71694e-09
2.721e-09
2.72661e-09
2.73489e-09
2.74156e-09
2.75441e-09
2.75758e-09
2.65699e-09
2.65282e-09
2.63868e-09
2.63146e-09
2.62282e-09
2.61686e-09
2.61269e-09
2.6094e-09
2.60713e-09
2.60547e-09
2.60427e-09
2.60351e-09
2.60281e-09
2.60249e-09
2.60206e-09
2.60194e-09
2.60169e-09
2.60166e-09
2.60151e-09
2.60152e-09
2.60143e-09
2.60144e-09
2.6014e-09
2.60141e-09
2.60139e-09
2.60139e-09
2.60141e-09
2.6014e-09
2.60144e-09
2.60143e-09
2.60152e-09
2.60151e-09
2.60166e-09
2.60169e-09
2.60194e-09
2.60207e-09
2.60249e-09
2.60282e-09
2.60351e-09
2.60427e-09
2.60547e-09
2.60712e-09
2.60939e-09
2.61269e-09
2.61686e-09
2.62282e-09
2.63146e-09
2.6387e-09
2.65281e-09
2.65698e-09
2.55298e-09
2.54797e-09
2.53559e-09
2.52799e-09
2.5191e-09
2.51293e-09
2.50871e-09
2.50533e-09
2.50305e-09
2.50136e-09
2.50015e-09
2.49938e-09
2.49868e-09
2.49835e-09
2.49792e-09
2.4978e-09
2.49755e-09
2.49752e-09
2.49736e-09
2.49737e-09
2.49728e-09
2.49729e-09
2.49725e-09
2.49726e-09
2.49724e-09
2.49724e-09
2.49726e-09
2.49725e-09
2.49729e-09
2.49728e-09
2.49737e-09
2.49736e-09
2.49751e-09
2.49754e-09
2.4978e-09
2.49793e-09
2.49835e-09
2.49868e-09
2.49938e-09
2.50015e-09
2.50136e-09
2.50305e-09
2.50533e-09
2.5087e-09
2.51292e-09
2.5191e-09
2.52798e-09
2.53561e-09
2.54796e-09
2.55297e-09
2.44961e-09
2.4438e-09
2.42995e-09
2.42157e-09
2.41208e-09
2.40553e-09
2.40116e-09
2.39764e-09
2.3953e-09
2.39354e-09
2.3923e-09
2.39151e-09
2.39079e-09
2.39045e-09
2.39001e-09
2.38988e-09
2.38962e-09
2.38959e-09
2.38943e-09
2.38944e-09
2.38934e-09
2.38936e-09
2.38931e-09
2.38932e-09
2.38931e-09
2.3893e-09
2.38932e-09
2.38931e-09
2.38936e-09
2.38934e-09
2.38943e-09
2.38943e-09
2.38959e-09
2.38962e-09
2.38988e-09
2.39001e-09
2.39045e-09
2.39079e-09
2.39151e-09
2.3923e-09
2.39354e-09
2.39529e-09
2.39763e-09
2.40115e-09
2.40553e-09
2.41207e-09
2.42157e-09
2.42996e-09
2.44379e-09
2.44959e-09
2.34207e-09
2.3379e-09
2.32317e-09
2.31452e-09
2.30478e-09
2.29807e-09
2.29371e-09
2.29015e-09
2.28781e-09
2.28603e-09
2.28479e-09
2.284e-09
2.28329e-09
2.28294e-09
2.2825e-09
2.28238e-09
2.28211e-09
2.28208e-09
2.28192e-09
2.28193e-09
2.28183e-09
2.28185e-09
2.2818e-09
2.28181e-09
2.28179e-09
2.28179e-09
2.28181e-09
2.2818e-09
2.28185e-09
2.28183e-09
2.28192e-09
2.28192e-09
2.28208e-09
2.28211e-09
2.28238e-09
2.2825e-09
2.28295e-09
2.28329e-09
2.284e-09
2.2848e-09
2.28603e-09
2.2878e-09
2.29014e-09
2.2937e-09
2.29806e-09
2.30478e-09
2.31451e-09
2.32317e-09
2.33789e-09
2.34205e-09
2.23541e-09
2.23064e-09
2.21507e-09
2.20627e-09
2.19603e-09
2.18891e-09
2.18445e-09
2.18074e-09
2.17835e-09
2.17651e-09
2.17525e-09
2.17442e-09
2.1737e-09
2.17334e-09
2.17289e-09
2.17276e-09
2.17249e-09
2.17246e-09
2.17229e-09
2.1723e-09
2.1722e-09
2.17222e-09
2.17217e-09
2.17218e-09
2.17216e-09
2.17216e-09
2.17218e-09
2.17217e-09
2.17222e-09
2.1722e-09
2.1723e-09
2.17229e-09
2.17246e-09
2.17249e-09
2.17276e-09
2.17289e-09
2.17335e-09
2.1737e-09
2.17443e-09
2.17525e-09
2.17651e-09
2.17835e-09
2.18073e-09
2.18444e-09
2.18891e-09
2.19602e-09
2.20626e-09
2.21507e-09
2.23063e-09
2.23539e-09
2.1256e-09
2.12016e-09
2.1061e-09
2.09724e-09
2.08668e-09
2.07947e-09
2.07507e-09
2.07134e-09
2.069e-09
2.06714e-09
2.0659e-09
2.06508e-09
2.06436e-09
2.06401e-09
2.06356e-09
2.06343e-09
2.06316e-09
2.06313e-09
2.06297e-09
2.06297e-09
2.06288e-09
2.06289e-09
2.06284e-09
2.06285e-09
2.06284e-09
2.06284e-09
2.06285e-09
2.06284e-09
2.06289e-09
2.06287e-09
2.06297e-09
2.06296e-09
2.06313e-09
2.06316e-09
2.06343e-09
2.06356e-09
2.06402e-09
2.06436e-09
2.06508e-09
2.0659e-09
2.06714e-09
2.06899e-09
2.07134e-09
2.07506e-09
2.07947e-09
2.08667e-09
2.09723e-09
2.10609e-09
2.12015e-09
2.12559e-09
2.0172e-09
2.01132e-09
1.99623e-09
1.98695e-09
1.97572e-09
1.96823e-09
1.96382e-09
1.96e-09
1.95765e-09
1.95576e-09
1.95451e-09
1.95368e-09
1.95296e-09
1.95261e-09
1.95215e-09
1.95202e-09
1.95175e-09
1.95171e-09
1.95155e-09
1.95155e-09
1.95146e-09
1.95147e-09
1.95142e-09
1.95143e-09
1.95142e-09
1.95142e-09
1.95143e-09
1.95142e-09
1.95147e-09
1.95146e-09
1.95155e-09
1.95155e-09
1.95171e-09
1.95174e-09
1.95202e-09
1.95215e-09
1.95261e-09
1.95296e-09
1.95368e-09
1.95451e-09
1.95576e-09
1.95765e-09
1.95999e-09
1.96382e-09
1.96823e-09
1.97572e-09
1.98694e-09
1.99622e-09
2.01131e-09
2.01719e-09
1.90614e-09
1.89975e-09
1.88398e-09
1.87478e-09
1.86609e-09
1.85856e-09
1.85425e-09
1.85045e-09
1.84816e-09
1.84628e-09
1.84505e-09
1.84423e-09
1.84353e-09
1.84318e-09
1.84273e-09
1.84261e-09
1.84234e-09
1.84231e-09
1.84214e-09
1.84215e-09
1.84205e-09
1.84207e-09
1.84202e-09
1.84203e-09
1.84201e-09
1.84201e-09
1.84203e-09
1.84202e-09
1.84207e-09
1.84205e-09
1.84215e-09
1.84214e-09
1.8423e-09
1.84233e-09
1.84261e-09
1.84274e-09
1.84319e-09
1.84353e-09
1.84424e-09
1.84505e-09
1.84628e-09
1.84815e-09
1.85044e-09
1.85425e-09
1.85855e-09
1.86608e-09
1.87477e-09
1.88397e-09
1.89974e-09
1.90612e-09
1.79779e-09
1.79115e-09
1.77489e-09
1.76579e-09
1.75706e-09
1.74952e-09
1.74535e-09
1.74158e-09
1.73935e-09
1.73751e-09
1.7363e-09
1.7355e-09
1.73481e-09
1.73448e-09
1.73404e-09
1.73392e-09
1.73365e-09
1.73362e-09
1.73346e-09
1.73347e-09
1.73337e-09
1.73339e-09
1.73334e-09
1.73335e-09
1.73333e-09
1.73333e-09
1.73335e-09
1.73334e-09
1.73338e-09
1.73337e-09
1.73346e-09
1.73346e-09
1.73362e-09
1.73365e-09
1.73392e-09
1.73404e-09
1.73448e-09
1.73482e-09
1.73551e-09
1.73631e-09
1.73751e-09
1.73935e-09
1.74157e-09
1.74534e-09
1.74951e-09
1.75706e-09
1.76579e-09
1.77489e-09
1.79114e-09
1.79778e-09
1.68862e-09
1.68169e-09
1.66676e-09
1.65781e-09
1.64915e-09
1.64163e-09
1.63761e-09
1.6339e-09
1.63175e-09
1.62995e-09
1.62877e-09
1.62799e-09
1.62732e-09
1.627e-09
1.62657e-09
1.62645e-09
1.62619e-09
1.62616e-09
1.62601e-09
1.62601e-09
1.62592e-09
1.62594e-09
1.62589e-09
1.6259e-09
1.62588e-09
1.62588e-09
1.6259e-09
1.62589e-09
1.62594e-09
1.62592e-09
1.62601e-09
1.626e-09
1.62616e-09
1.62619e-09
1.62645e-09
1.62657e-09
1.627e-09
1.62733e-09
1.628e-09
1.62877e-09
1.62995e-09
1.63174e-09
1.63389e-09
1.63761e-09
1.64162e-09
1.64914e-09
1.6578e-09
1.66675e-09
1.68168e-09
1.68861e-09
1.58232e-09
1.57523e-09
1.56017e-09
1.55133e-09
1.54284e-09
1.53539e-09
1.53153e-09
1.52772e-09
1.52555e-09
1.52372e-09
1.52252e-09
1.52173e-09
1.52105e-09
1.52072e-09
1.52029e-09
1.52017e-09
1.5199e-09
1.51988e-09
1.51972e-09
1.51972e-09
1.51963e-09
1.51965e-09
1.5196e-09
1.51961e-09
1.51959e-09
1.51959e-09
1.51961e-09
1.51959e-09
1.51964e-09
1.51963e-09
1.51972e-09
1.51971e-09
1.51988e-09
1.5199e-09
1.52017e-09
1.52029e-09
1.52073e-09
1.52105e-09
1.52174e-09
1.52252e-09
1.52372e-09
1.52554e-09
1.52772e-09
1.53153e-09
1.53538e-09
1.54284e-09
1.55133e-09
1.56016e-09
1.57522e-09
1.58231e-09
1.47782e-09
1.47058e-09
1.45561e-09
1.44687e-09
1.43861e-09
1.43128e-09
1.42758e-09
1.42388e-09
1.4218e-09
1.42002e-09
1.41885e-09
1.4181e-09
1.41743e-09
1.41712e-09
1.4167e-09
1.41659e-09
1.41633e-09
1.41631e-09
1.41615e-09
1.41616e-09
1.41607e-09
1.41608e-09
1.41603e-09
1.41605e-09
1.41603e-09
1.41603e-09
1.41605e-09
1.41603e-09
1.41608e-09
1.41606e-09
1.41616e-09
1.41615e-09
1.4163e-09
1.41633e-09
1.41659e-09
1.4167e-09
1.41713e-09
1.41744e-09
1.4181e-09
1.41885e-09
1.42002e-09
1.42179e-09
1.42388e-09
1.42758e-09
1.43128e-09
1.4386e-09
1.44686e-09
1.4556e-09
1.47057e-09
1.47781e-09
1.37559e-09
1.36827e-09
1.35348e-09
1.34486e-09
1.33693e-09
1.32977e-09
1.32622e-09
1.32265e-09
1.32066e-09
1.31893e-09
1.31781e-09
1.31709e-09
1.31645e-09
1.31615e-09
1.31574e-09
1.31564e-09
1.31539e-09
1.31537e-09
1.31521e-09
1.31522e-09
1.31514e-09
1.31515e-09
1.31511e-09
1.31512e-09
1.3151e-09
1.3151e-09
1.31512e-09
1.3151e-09
1.31515e-09
1.31513e-09
1.31522e-09
1.31521e-09
1.31536e-09
1.31539e-09
1.31564e-09
1.31574e-09
1.31615e-09
1.31645e-09
1.31709e-09
1.31781e-09
1.31894e-09
1.32065e-09
1.32265e-09
1.32621e-09
1.32976e-09
1.33692e-09
1.34486e-09
1.35347e-09
1.36826e-09
1.37558e-09
1.27608e-09
1.26876e-09
1.25421e-09
1.24578e-09
1.23818e-09
1.23127e-09
1.22785e-09
1.22443e-09
1.22253e-09
1.22088e-09
1.21981e-09
1.21911e-09
1.2185e-09
1.21822e-09
1.21783e-09
1.21773e-09
1.21749e-09
1.21747e-09
1.21732e-09
1.21733e-09
1.21725e-09
1.21726e-09
1.21722e-09
1.21723e-09
1.21721e-09
1.21721e-09
1.21723e-09
1.21722e-09
1.21726e-09
1.21724e-09
1.21733e-09
1.21732e-09
1.21747e-09
1.21749e-09
1.21773e-09
1.21783e-09
1.21822e-09
1.2185e-09
1.21912e-09
1.21981e-09
1.22088e-09
1.22252e-09
1.22443e-09
1.22785e-09
1.23126e-09
1.23817e-09
1.24577e-09
1.2542e-09
1.26875e-09
1.27607e-09
1.17949e-09
1.17195e-09
1.15818e-09
1.15e-09
1.14275e-09
1.13614e-09
1.13287e-09
1.1296e-09
1.1278e-09
1.12622e-09
1.12521e-09
1.12454e-09
1.12396e-09
1.12369e-09
1.12332e-09
1.12323e-09
1.123e-09
1.12298e-09
1.12284e-09
1.12285e-09
1.12277e-09
1.12279e-09
1.12274e-09
1.12275e-09
1.12274e-09
1.12274e-09
1.12275e-09
1.12274e-09
1.12278e-09
1.12277e-09
1.12285e-09
1.12284e-09
1.12298e-09
1.123e-09
1.12323e-09
1.12332e-09
1.12369e-09
1.12396e-09
1.12454e-09
1.12521e-09
1.12623e-09
1.12779e-09
1.1296e-09
1.13286e-09
1.13614e-09
1.14274e-09
1.14999e-09
1.15817e-09
1.17194e-09
1.17948e-09
1.08658e-09
1.07916e-09
1.06574e-09
1.05786e-09
1.05099e-09
1.0447e-09
1.04158e-09
1.03848e-09
1.03678e-09
1.03529e-09
1.03432e-09
1.03369e-09
1.03314e-09
1.03289e-09
1.03254e-09
1.03245e-09
1.03223e-09
1.03222e-09
1.03209e-09
1.0321e-09
1.03202e-09
1.03203e-09
1.03199e-09
1.032e-09
1.03199e-09
1.03199e-09
1.032e-09
1.03199e-09
1.03203e-09
1.03202e-09
1.0321e-09
1.03208e-09
1.03222e-09
1.03223e-09
1.03245e-09
1.03254e-09
1.03289e-09
1.03314e-09
1.0337e-09
1.03432e-09
1.03529e-09
1.03677e-09
1.03847e-09
1.04157e-09
1.0447e-09
1.05099e-09
1.05786e-09
1.06573e-09
1.07915e-09
1.08656e-09
9.97447e-10
9.90215e-10
9.77178e-10
9.69649e-10
9.63173e-10
9.57228e-10
9.54262e-10
9.51333e-10
9.49747e-10
9.48338e-10
9.47429e-10
)
;

boundaryField
{
    fuel
    {
        type            fixedValue;
        value           nonuniform 0();
    }
    wall
    {
        type            zeroGradient;
    }
    outlet
    {
        type            zeroGradient;
    }
    frontAndBack
    {
        type            empty;
    }
    procBoundary2to0
    {
        type            processor;
        value           nonuniform List<scalar> 
53
(
4.78759e-09
4.80258e-09
4.80967e-09
4.81408e-09
4.81371e-09
4.81404e-09
4.81228e-09
4.81126e-09
4.80994e-09
4.80929e-09
4.8085e-09
4.80821e-09
4.80775e-09
4.80766e-09
4.80739e-09
4.8074e-09
4.80724e-09
4.80729e-09
4.71548e-09
4.71548e-09
4.71552e-09
4.71546e-09
4.71549e-09
4.71546e-09
4.71548e-09
4.71547e-09
4.71547e-09
4.71548e-09
4.71546e-09
4.62683e-09
4.62683e-09
4.6268e-09
4.62686e-09
4.62682e-09
4.62691e-09
4.62688e-09
4.62702e-09
4.62702e-09
4.62727e-09
4.62737e-09
4.6278e-09
4.62809e-09
4.54292e-09
4.54292e-09
4.54357e-09
4.54481e-09
4.54588e-09
4.5476e-09
4.54785e-09
4.54864e-09
4.54536e-09
4.54072e-09
4.52852e-09
)
;
    }
    procBoundary2to3
    {
        type            processor;
        value           nonuniform List<scalar> 
51
(
9.46833e-10
9.4631e-10
9.46078e-10
9.45743e-10
9.45666e-10
9.45458e-10
9.45447e-10
9.45321e-10
9.45333e-10
9.45258e-10
9.45274e-10
9.45235e-10
9.45245e-10
9.45232e-10
9.45232e-10
9.45244e-10
9.45233e-10
9.45272e-10
9.45255e-10
9.45331e-10
9.45319e-10
9.45446e-10
9.45458e-10
9.45666e-10
9.45745e-10
9.46081e-10
9.46313e-10
9.46835e-10
9.47427e-10
9.48343e-10
9.4974e-10
9.51328e-10
9.54257e-10
9.57222e-10
9.6317e-10
9.69643e-10
9.77171e-10
9.90206e-10
9.97435e-10
9.12358e-10
9.05366e-10
8.92724e-10
8.85592e-10
8.79527e-10
8.73933e-10
8.71131e-10
8.6838e-10
8.66907e-10
8.65584e-10
9.46833e-10
8.64732e-10
)
;
    }
}


// ************************************************************************* //
