/*--------------------------------*- C++ -*----------------------------------*\
| =========                 |                                                 |
| \\      /  F ield         | OpenFOAM: The Open Source CFD Toolbox           |
|  \\    /   O peration     | Version:  dev                                   |
|   \\  /    A nd           | Web:      www.OpenFOAM.org                      |
|    \\/     M anipulation  |                                                 |
\*---------------------------------------------------------------------------*/
FoamFile
{
    version     2.0;
    format      ascii;
    class       volScalarField;
    location    "0.1";
    object      A2C2H2;
}
// * * * * * * * * * * * * * * * * * * * * * * * * * * * * * * * * * * * * * //

dimensions      [0 0 0 0 0 0 0];

internalField   nonuniform List<scalar> 
250
(
4.03951e-11
1.24804e-11
9.61967e-12
9.23067e-12
9.1786e-12
9.17247e-12
9.17126e-12
9.17224e-12
9.1726e-12
1.40523e-10
5.25587e-12
3.22222e-12
2.99744e-12
2.96839e-12
2.96508e-12
2.96427e-12
2.9647e-12
2.96499e-12
2.35883e-10
2.37099e-12
1.11306e-12
9.98149e-13
9.8324e-13
9.8169e-13
9.8122e-13
9.81369e-13
9.81593e-13
2.28095e-10
1.35214e-12
4.8293e-13
4.15806e-13
4.07047e-13
4.06169e-13
4.05861e-13
4.05928e-13
4.06099e-13
1.09421e-10
9.07178e-13
2.63065e-13
2.17216e-13
2.11313e-13
2.10669e-13
2.10481e-13
2.10553e-13
2.10687e-13
2.73735e-11
6.84905e-13
1.69784e-13
1.35327e-13
1.31036e-13
1.30317e-13
1.30427e-13
1.30548e-13
1.30644e-13
7.01001e-12
5.69231e-13
1.2481e-13
9.57402e-14
9.17538e-14
9.14973e-14
9.06919e-14
9.09305e-14
9.10643e-14
3.19399e-12
4.97504e-13
9.75607e-14
7.42418e-14
7.05938e-14
7.01643e-14
6.96482e-14
6.98648e-14
6.99686e-14
2.49122e-12
4.43203e-13
8.23865e-14
5.96459e-14
5.72156e-14
5.70295e-14
5.69374e-14
5.68144e-14
5.68897e-14
2.21185e-12
3.98288e-13
7.18984e-14
5.1324e-14
4.87792e-14
4.85227e-14
4.85243e-14
4.82797e-14
4.83366e-14
1.59701e-12
3.5697e-13
6.38152e-14
4.50381e-14
4.25144e-14
4.22454e-14
4.20759e-14
4.20139e-14
4.20509e-14
4.19602e-14
1.30787e-12
3.18759e-13
5.75155e-14
4.03242e-14
3.79059e-14
3.76364e-14
3.78022e-14
3.74058e-14
3.74278e-14
3.73806e-14
1.1444e-12
2.82888e-13
5.2983e-14
3.66394e-14
3.4308e-14
3.40388e-14
3.42778e-14
3.38145e-14
3.38368e-14
3.38185e-14
9.79554e-13
2.49534e-13
4.86314e-14
3.3617e-14
3.13639e-14
3.10931e-14
3.11957e-14
3.08651e-14
3.09425e-14
3.09112e-14
8.24275e-13
2.19002e-13
4.51474e-14
3.10368e-14
2.8865e-14
2.85932e-14
2.8632e-14
2.86295e-14
2.86606e-14
2.85171e-14
6.889e-13
1.8927e-13
4.18261e-14
2.87608e-14
2.6683e-14
2.64122e-14
2.64171e-14
2.64766e-14
2.64084e-14
2.63429e-14
5.70624e-13
1.60714e-13
3.85076e-14
2.67021e-14
2.47369e-14
2.44697e-14
2.44547e-14
2.44822e-14
2.44347e-14
2.43345e-14
4.6541e-13
1.35509e-13
3.54274e-14
2.48045e-14
2.29742e-14
2.27127e-14
2.2686e-14
2.26944e-14
2.2674e-14
2.27077e-14
3.72636e-13
1.16202e-13
3.25698e-14
2.30281e-14
2.13598e-14
2.11057e-14
2.10718e-14
2.10682e-14
2.10738e-14
2.12311e-14
2.93502e-13
9.86157e-14
2.99171e-14
2.15747e-14
1.98696e-14
1.96233e-14
1.95853e-14
1.95741e-14
1.95988e-14
1.9704e-14
2.28949e-13
8.39116e-14
2.74593e-14
2.01325e-14
1.84842e-14
1.82466e-14
1.82065e-14
1.81904e-14
1.82272e-14
1.82905e-14
1.7832e-13
7.15321e-14
2.5188e-14
1.87014e-14
1.71878e-14
1.696e-14
1.69189e-14
1.68997e-14
1.69429e-14
1.69767e-14
1.39675e-13
6.0647e-14
2.30994e-14
1.75188e-14
1.61198e-14
1.59027e-14
1.58616e-14
1.58397e-14
1.5886e-14
1.59023e-14
1.10564e-13
5.19157e-14
2.11818e-14
1.63675e-14
1.50421e-14
1.48348e-14
1.47934e-14
1.47671e-14
1.48147e-14
1.48188e-14
8.86466e-14
4.45739e-14
1.94206e-14
1.53538e-14
1.41331e-14
1.3937e-14
1.38967e-14
1.38689e-14
1.39158e-14
1.39124e-14
7.20295e-14
3.85314e-14
1.79971e-14
1.44294e-14
1.33092e-14
1.31245e-14
1.30857e-14
1.30572e-14
1.31024e-14
1.30941e-14
)
;

boundaryField
{
    fuel
    {
        type            fixedValue;
        value           uniform 0;
    }
    wall
    {
        type            zeroGradient;
    }
    outlet
    {
        type            zeroGradient;
    }
    frontAndBack
    {
        type            empty;
    }
    procBoundary2to0
    {
        type            processor;
        value           nonuniform List<scalar> 
12
(
1.38953e-14
5.93557e-14
3.3616e-14
1.67272e-14
1.35962e-14
1.25725e-14
1.23993e-14
1.23624e-14
1.23345e-14
1.2377e-14
1.30776e-14
1.23658e-14
)
;
    }
    procBoundary2to3
    {
        type            processor;
        value           nonuniform List<scalar> 
25
(
9.17265e-12
2.96494e-12
9.81493e-13
4.06005e-13
2.10608e-13
1.30579e-13
9.09338e-14
6.98243e-14
5.68088e-14
4.8228e-14
4.8228e-14
4.21117e-14
3.74973e-14
3.38967e-14
3.09507e-14
2.84503e-14
2.62657e-14
2.43148e-14
2.25421e-14
2.09041e-14
1.95666e-14
1.82369e-14
1.6942e-14
1.58777e-14
1.47991e-14
)
;
    }
}


// ************************************************************************* //
