/*--------------------------------*- C++ -*----------------------------------*\
| =========                 |                                                 |
| \\      /  F ield         | OpenFOAM: The Open Source CFD Toolbox           |
|  \\    /   O peration     | Version:  dev                                   |
|   \\  /    A nd           | Web:      www.OpenFOAM.org                      |
|    \\/     M anipulation  |                                                 |
\*---------------------------------------------------------------------------*/
FoamFile
{
    version     2.0;
    format      ascii;
    class       volScalarField;
    location    "0.1";
    object      C;
}
// * * * * * * * * * * * * * * * * * * * * * * * * * * * * * * * * * * * * * //

dimensions      [0 0 0 0 0 0 0];

internalField   nonuniform List<scalar> 
250
(
3.20669e-10
1.23319e-06
2.29342e-06
2.36187e-06
2.37778e-06
2.36577e-06
2.37776e-06
2.36971e-06
2.37644e-06
5.17511e-10
1.27938e-06
2.0251e-06
2.07512e-06
2.08223e-06
2.08032e-06
2.08222e-06
2.0815e-06
2.082e-06
2.90161e-10
5.62229e-07
8.60427e-07
8.84103e-07
8.86358e-07
8.86101e-07
8.86247e-07
8.86703e-07
8.86053e-07
1.2169e-10
2.04134e-07
3.06329e-07
3.16939e-07
3.17281e-07
3.17434e-07
3.17262e-07
3.17677e-07
3.17022e-07
4.8607e-11
7.43395e-08
1.1161e-07
1.16844e-07
1.16926e-07
1.17273e-07
1.17105e-07
1.17353e-07
1.16606e-07
1.95643e-11
2.73822e-08
4.68063e-08
4.97819e-08
4.94562e-08
4.93306e-08
4.91769e-08
4.9214e-08
4.96675e-08
9.61687e-12
1.26816e-08
2.42097e-08
2.61876e-08
2.61657e-08
2.60209e-08
2.60055e-08
2.59094e-08
2.62789e-08
6.20307e-12
7.31526e-09
1.54641e-08
1.69981e-08
1.67088e-08
1.67806e-08
1.66999e-08
1.68015e-08
1.6699e-08
6.06185e-12
5.17198e-09
1.16258e-08
1.27497e-08
1.27227e-08
1.27043e-08
1.27343e-08
1.27377e-08
1.27054e-08
1.18222e-11
4.25332e-09
9.50793e-09
1.04971e-08
1.07101e-08
1.06714e-08
1.06935e-08
1.06681e-08
1.06889e-08
2.59336e-11
3.81376e-09
8.30897e-09
9.34715e-09
9.51069e-09
9.44104e-09
9.50697e-09
9.48284e-09
9.46599e-09
9.43946e-09
6.11007e-11
3.6624e-09
7.61915e-09
8.48984e-09
8.6867e-09
8.6069e-09
8.69165e-09
8.6234e-09
8.63356e-09
8.60534e-09
1.45954e-10
3.62001e-09
7.05733e-09
7.85856e-09
8.08886e-09
7.99807e-09
8.08131e-09
7.99597e-09
8.02474e-09
7.99507e-09
3.27779e-10
3.60968e-09
6.60022e-09
7.34603e-09
7.60423e-09
7.50212e-09
7.58713e-09
7.48443e-09
7.52713e-09
7.49655e-09
6.58111e-10
3.58625e-09
6.19766e-09
6.89639e-09
7.17615e-09
7.06272e-09
7.15154e-09
7.0281e-09
7.08394e-09
7.05342e-09
1.14772e-09
3.52475e-09
5.82346e-09
6.47916e-09
6.77472e-09
6.65017e-09
6.74402e-09
6.64944e-09
6.66457e-09
6.63567e-09
1.71928e-09
3.41661e-09
5.46369e-09
6.077e-09
6.38334e-09
6.24796e-09
6.34686e-09
6.26641e-09
6.25025e-09
6.22611e-09
2.22246e-09
3.25668e-09
5.11017e-09
5.67943e-09
5.99215e-09
5.84644e-09
5.94968e-09
5.86043e-09
5.88345e-09
5.81319e-09
2.51918e-09
3.04254e-09
4.757e-09
5.27977e-09
5.59489e-09
5.43959e-09
5.5463e-09
5.45072e-09
5.51725e-09
5.44186e-09
2.55995e-09
2.84534e-09
4.44357e-09
4.87434e-09
5.18723e-09
5.0235e-09
5.13263e-09
5.03236e-09
5.09854e-09
5.05155e-09
2.38748e-09
2.61259e-09
4.10717e-09
4.46366e-09
4.76591e-09
4.59548e-09
4.70571e-09
4.60245e-09
4.66775e-09
4.62009e-09
2.09087e-09
2.39447e-09
3.75209e-09
4.0533e-09
4.32788e-09
4.15338e-09
4.26288e-09
4.15877e-09
4.22244e-09
4.17488e-09
1.75461e-09
2.17445e-09
3.38619e-09
3.67423e-09
3.92703e-09
3.74908e-09
3.85847e-09
3.75276e-09
3.81633e-09
3.76812e-09
1.43482e-09
1.93638e-09
3.04868e-09
3.26109e-09
3.51005e-09
3.30867e-09
3.4257e-09
3.31103e-09
3.3784e-09
3.32633e-09
1.15822e-09
1.7239e-09
2.70245e-09
2.8655e-09
3.09714e-09
2.89495e-09
3.01023e-09
2.89608e-09
2.9628e-09
2.9109e-09
9.29316e-10
1.50652e-09
2.36532e-09
2.47212e-09
2.68554e-09
2.4854e-09
2.59763e-09
2.48565e-09
2.55102e-09
2.50002e-09
)
;

boundaryField
{
    fuel
    {
        type            fixedValue;
        value           uniform 0;
    }
    wall
    {
        type            zeroGradient;
    }
    outlet
    {
        type            zeroGradient;
    }
    frontAndBack
    {
        type            empty;
    }
    procBoundary2to0
    {
        type            processor;
        value           nonuniform List<scalar> 
12
(
2.92624e-09
7.45218e-10
1.27246e-09
2.03205e-09
2.08799e-09
2.28128e-09
2.0871e-09
2.19438e-09
2.08666e-09
2.14966e-09
2.51509e-09
2.10045e-09
)
;
    }
    procBoundary2to3
    {
        type            processor;
        value           nonuniform List<scalar> 
25
(
2.3692e-06
2.08108e-06
8.86314e-07
3.17277e-07
1.16728e-07
4.96967e-08
2.61881e-08
1.678e-08
1.27035e-08
1.06702e-08
1.06702e-08
9.44909e-09
8.61217e-09
8.00074e-09
7.5022e-09
7.05949e-09
6.64096e-09
6.28217e-09
5.88142e-09
5.47541e-09
5.05967e-09
4.63114e-09
4.18765e-09
3.78219e-09
3.34154e-09
)
;
    }
}


// ************************************************************************* //
