/*--------------------------------*- C++ -*----------------------------------*\
| =========                 |                                                 |
| \\      /  F ield         | OpenFOAM: The Open Source CFD Toolbox           |
|  \\    /   O peration     | Version:  dev                                   |
|   \\  /    A nd           | Web:      www.OpenFOAM.org                      |
|    \\/     M anipulation  |                                                 |
\*---------------------------------------------------------------------------*/
FoamFile
{
    version     2.0;
    format      ascii;
    class       volScalarField;
    location    "0.1";
    object      c-C6H4;
}
// * * * * * * * * * * * * * * * * * * * * * * * * * * * * * * * * * * * * * //

dimensions      [0 0 0 0 0 0 0];

internalField   nonuniform List<scalar> 
250
(
1.3325e-07
2.91556e-06
3.78879e-06
3.81045e-06
3.81103e-06
3.80815e-06
3.80923e-06
3.80823e-06
3.80887e-06
3.01287e-07
6.02479e-06
6.9171e-06
6.88166e-06
6.86905e-06
6.86537e-06
6.86406e-06
6.86494e-06
6.86368e-06
4.01714e-07
7.40182e-06
8.33711e-06
8.23915e-06
8.21174e-06
8.20561e-06
8.20219e-06
8.2038e-06
8.20146e-06
4.40063e-07
7.54888e-06
8.40078e-06
8.25393e-06
8.21154e-06
8.20448e-06
8.19753e-06
8.19976e-06
8.19531e-06
4.38412e-07
7.09071e-06
7.65217e-06
7.47472e-06
7.4198e-06
7.41425e-06
7.40199e-06
7.40436e-06
7.39734e-06
4.16196e-07
6.30329e-06
6.60361e-06
6.40978e-06
6.32952e-06
6.3094e-06
6.29024e-06
6.28804e-06
6.32011e-06
3.85638e-07
5.59939e-06
5.55084e-06
5.35208e-06
5.26666e-06
5.2353e-06
5.22298e-06
5.20998e-06
5.25729e-06
3.51705e-07
4.96541e-06
4.62905e-06
4.43655e-06
4.28109e-06
4.27063e-06
4.26153e-06
4.27027e-06
4.25923e-06
3.17863e-07
4.40238e-06
3.88213e-06
3.65601e-06
3.52695e-06
3.50255e-06
3.50763e-06
3.5065e-06
3.5043e-06
2.90888e-07
3.89848e-06
3.22916e-06
3.00992e-06
2.94553e-06
2.91715e-06
2.91664e-06
2.9111e-06
2.92261e-06
2.70621e-07
3.39073e-06
2.73017e-06
2.57355e-06
2.48416e-06
2.44427e-06
2.46302e-06
2.46029e-06
2.45248e-06
2.44365e-06
2.80595e-07
3.01473e-06
2.39613e-06
2.19028e-06
2.11146e-06
2.06853e-06
2.0972e-06
2.076e-06
2.07738e-06
2.06815e-06
3.57803e-07
2.72421e-06
2.1117e-06
1.89412e-06
1.82877e-06
1.78336e-06
1.81026e-06
1.78341e-06
1.79197e-06
1.78281e-06
5.28136e-07
2.49945e-06
1.89008e-06
1.66361e-06
1.61068e-06
1.56361e-06
1.58883e-06
1.55737e-06
1.5712e-06
1.56253e-06
7.94807e-07
2.32455e-06
1.71315e-06
1.48139e-06
1.43864e-06
1.39085e-06
1.41464e-06
1.37824e-06
1.39665e-06
1.38891e-06
1.13862e-06
2.18601e-06
1.56777e-06
1.33438e-06
1.29956e-06
1.25195e-06
1.27456e-06
1.25026e-06
1.25511e-06
1.24881e-06
1.53104e-06
2.07444e-06
1.44486e-06
1.21313e-06
1.18435e-06
1.13773e-06
1.15911e-06
1.14095e-06
1.13685e-06
1.13297e-06
1.94826e-06
1.97684e-06
1.33812e-06
1.11097e-06
1.08677e-06
1.04182e-06
1.06179e-06
1.04368e-06
1.04798e-06
1.03462e-06
2.3733e-06
1.88421e-06
1.24305e-06
1.02323e-06
1.00254e-06
9.5982e-07
9.78225e-07
9.60943e-07
9.72736e-07
9.59473e-07
2.78883e-06
1.81473e-06
1.16697e-06
9.46782e-07
9.28684e-07
8.88672e-07
9.0539e-07
8.89334e-07
8.99931e-07
8.92391e-07
3.17139e-06
1.7415e-06
1.09337e-06
8.79766e-07
8.6311e-07
8.26193e-07
8.41131e-07
8.26562e-07
8.35924e-07
8.29269e-07
3.49356e-06
1.67476e-06
1.02307e-06
8.21477e-07
8.04159e-07
7.70686e-07
7.83756e-07
7.70872e-07
7.78955e-07
7.73227e-07
3.72972e-06
1.60565e-06
9.57113e-07
7.74308e-07
7.56844e-07
7.26352e-07
7.37967e-07
7.26375e-07
7.33548e-07
7.28481e-07
3.86233e-06
1.52569e-06
9.01008e-07
7.29058e-07
7.13649e-07
6.84242e-07
6.95187e-07
6.84162e-07
6.90823e-07
6.86084e-07
3.8853e-06
1.44803e-06
8.47626e-07
6.90029e-07
6.75575e-07
6.48835e-07
6.58579e-07
6.48662e-07
6.54621e-07
6.50411e-07
3.8033e-06
1.36203e-06
7.9884e-07
6.54529e-07
6.41212e-07
6.16905e-07
6.25623e-07
6.16662e-07
6.22048e-07
6.18282e-07
)
;

boundaryField
{
    fuel
    {
        type            fixedValue;
        value           uniform 0;
    }
    wall
    {
        type            zeroGradient;
    }
    outlet
    {
        type            zeroGradient;
    }
    frontAndBack
    {
        type            empty;
    }
    procBoundary2to0
    {
        type            processor;
        value           nonuniform List<scalar> 
12
(
6.52345e-07
3.62574e-06
1.26029e-06
7.52773e-07
6.21832e-07
6.09814e-07
5.8764e-07
5.95532e-07
5.87336e-07
5.92291e-07
6.20005e-07
5.88872e-07
)
;
    }
    procBoundary2to3
    {
        type            processor;
        value           nonuniform List<scalar> 
25
(
3.80789e-06
6.86425e-06
8.20227e-06
8.19639e-06
7.3981e-06
6.3184e-06
5.24532e-06
4.26477e-06
3.50032e-06
2.91618e-06
2.91618e-06
2.44597e-06
2.06922e-06
1.78306e-06
1.56227e-06
1.38819e-06
1.24705e-06
1.14434e-06
1.04812e-06
9.65906e-07
8.9447e-07
8.3157e-07
7.75522e-07
7.30717e-07
6.88207e-07
)
;
    }
}


// ************************************************************************* //
