/*--------------------------------*- C++ -*----------------------------------*\
| =========                 |                                                 |
| \\      /  F ield         | OpenFOAM: The Open Source CFD Toolbox           |
|  \\    /   O peration     | Version:  dev                                   |
|   \\  /    A nd           | Web:      www.OpenFOAM.org                      |
|    \\/     M anipulation  |                                                 |
\*---------------------------------------------------------------------------*/
FoamFile
{
    version     2.0;
    format      ascii;
    class       volScalarField;
    location    "0.1";
    object      CO;
}
// * * * * * * * * * * * * * * * * * * * * * * * * * * * * * * * * * * * * * //

dimensions      [0 0 0 0 0 0 0];

internalField   nonuniform List<scalar> 
250
(
0.0108776
0.132678
0.13534
0.135705
0.135754
0.135761
0.135762
0.135761
0.135762
0.0298896
0.15439
0.157349
0.157794
0.157861
0.157869
0.157872
0.157872
0.157871
0.0494481
0.15957
0.163301
0.163904
0.164002
0.164014
0.16402
0.164021
0.164018
0.0684212
0.161335
0.165891
0.166673
0.166808
0.166824
0.166835
0.166836
0.16683
0.0859584
0.162185
0.167466
0.168434
0.168606
0.168629
0.168645
0.168644
0.168636
0.101492
0.162759
0.168646
0.16978
0.169987
0.170024
0.17004
0.170035
0.170025
0.114788
0.163259
0.169607
0.170913
0.171177
0.171209
0.171267
0.171253
0.171239
0.125898
0.163763
0.170549
0.17191
0.172228
0.172275
0.172329
0.172318
0.172304
0.135057
0.164317
0.171335
0.17296
0.173246
0.173278
0.173298
0.173323
0.17331
0.142589
0.164914
0.172105
0.173808
0.174153
0.174198
0.174213
0.174255
0.174244
0.148801
0.165575
0.172909
0.174674
0.175075
0.175128
0.175172
0.17519
0.175182
0.175213
0.153899
0.166287
0.173706
0.175511
0.175952
0.176011
0.175984
0.176077
0.176074
0.176093
0.157991
0.167048
0.174389
0.176314
0.17679
0.176856
0.176803
0.176923
0.17692
0.176932
0.1612
0.167849
0.175139
0.177084
0.177592
0.177664
0.177641
0.177735
0.177717
0.177731
0.163711
0.16868
0.175802
0.177826
0.178359
0.178438
0.178429
0.178427
0.178423
0.17847
0.165709
0.169601
0.176483
0.178542
0.179091
0.179175
0.179175
0.179153
0.179182
0.179205
0.167339
0.170618
0.177205
0.179232
0.179788
0.179876
0.179882
0.179871
0.179892
0.179928
0.168706
0.171655
0.177911
0.179899
0.180449
0.18054
0.18055
0.180545
0.180555
0.18054
0.169887
0.172569
0.178598
0.180543
0.181072
0.181165
0.181178
0.181177
0.181177
0.181112
0.170939
0.17353
0.179259
0.18108
0.181656
0.181751
0.181766
0.181768
0.181759
0.181713
0.171901
0.174455
0.179891
0.181617
0.182202
0.182297
0.182313
0.182316
0.182302
0.182271
0.172801
0.17535
0.180492
0.182147
0.182707
0.182803
0.182819
0.182822
0.182806
0.182786
0.173655
0.176257
0.181055
0.18258
0.183116
0.18321
0.183226
0.18323
0.183213
0.183199
0.174475
0.17709
0.181578
0.18299
0.183512
0.183605
0.183621
0.183626
0.183608
0.183599
0.175265
0.177886
0.182059
0.183338
0.18383
0.18392
0.183937
0.183941
0.183924
0.183918
0.176027
0.178623
0.182446
0.183639
0.184099
0.184186
0.184202
0.184206
0.18419
0.184185
)
;

boundaryField
{
    fuel
    {
        type            fixedValue;
        value           uniform 0;
    }
    wall
    {
        type            zeroGradient;
    }
    outlet
    {
        type            zeroGradient;
    }
    frontAndBack
    {
        type            empty;
    }
    procBoundary2to0
    {
        type            processor;
        value           nonuniform List<scalar> 
12
(
0.183927
0.176753
0.179291
0.182783
0.183891
0.184318
0.184401
0.184416
0.18442
0.184406
0.184195
0.184401
)
;
    }
    procBoundary2to3
    {
        type            processor;
        value           nonuniform List<scalar> 
25
(
0.135762
0.157872
0.16402
0.166835
0.168643
0.170034
0.171256
0.172327
0.173334
0.174275
0.174275
0.175162
0.17605
0.176898
0.17771
0.178485
0.179226
0.179931
0.180602
0.181239
0.181769
0.182295
0.182803
0.183212
0.18361
)
;
    }
}


// ************************************************************************* //
