/*--------------------------------*- C++ -*----------------------------------*\
| =========                 |                                                 |
| \\      /  F ield         | OpenFOAM: The Open Source CFD Toolbox           |
|  \\    /   O peration     | Version:  dev                                   |
|   \\  /    A nd           | Web:      www.OpenFOAM.org                      |
|    \\/     M anipulation  |                                                 |
\*---------------------------------------------------------------------------*/
FoamFile
{
    version     2.0;
    format      ascii;
    class       volScalarField;
    location    "0.1";
    object      CO2;
}
// * * * * * * * * * * * * * * * * * * * * * * * * * * * * * * * * * * * * * //

dimensions      [0 0 0 0 0 0 0];

internalField   nonuniform List<scalar> 
1997
(
0.0474265
0.0474324
0.0474397
0.0474444
0.0474482
0.0474507
0.0474525
0.0474538
0.0474547
0.0474554
0.0474559
0.0474563
0.0474567
0.0474569
0.0474571
0.0474572
0.0474573
0.0474574
0.0474354
0.0474412
0.0474486
0.0474533
0.0474574
0.04746
0.0474619
0.0474632
0.0474642
0.047465
0.0474656
0.047466
0.0474663
0.0474666
0.0474668
0.0474669
0.047467
0.0474671
0.0474672
0.0474672
0.0474673
0.0474673
0.0474673
0.0474673
0.0474673
0.0474673
0.0474673
0.0474673
0.0474471
0.0474528
0.0474603
0.0474652
0.0474695
0.0474722
0.0474742
0.0474756
0.0474767
0.0474775
0.0474781
0.0474785
0.0474789
0.0474791
0.0474794
0.0474795
0.0474796
0.0474797
0.0474798
0.0474798
0.0474799
0.0474799
0.0474799
0.0474799
0.0474799
0.0474799
0.0474799
0.0474799
0.0474799
0.0474799
0.0474798
0.0474798
0.0474797
0.0474796
0.0474795
0.0474794
0.0474791
0.0474789
0.0474785
0.0474781
0.0474617
0.0474673
0.0474749
0.04748
0.0474846
0.0474873
0.0474894
0.0474909
0.0474921
0.0474929
0.0474935
0.047494
0.0474944
0.0474946
0.0474949
0.047495
0.0474951
0.0474952
0.0474953
0.0474953
0.0474954
0.0474954
0.0474954
0.0474954
0.0474954
0.0474954
0.0474954
0.0474954
0.0474954
0.0474954
0.0474953
0.0474953
0.0474952
0.0474951
0.047495
0.0474949
0.0474946
0.0474944
0.047494
0.0474935
0.0474929
0.0474921
0.0474909
0.0474894
0.0474873
0.0474846
0.04748
0.0474749
0.0474673
0.0474617
0.0474791
0.0474847
0.0474924
0.0474976
0.0475025
0.0475053
0.0475076
0.0475091
0.0475103
0.0475112
0.0475119
0.0475123
0.0475127
0.047513
0.0475132
0.0475134
0.0475135
0.0475136
0.0475137
0.0475137
0.0475138
0.0475138
0.0475138
0.0475138
0.0475139
0.0475139
0.0475138
0.0475138
0.0475138
0.0475138
0.0475137
0.0475137
0.0475136
0.0475135
0.0475134
0.0475132
0.047513
0.0475127
0.0475123
0.0475118
0.0475112
0.0475103
0.0475091
0.0475076
0.0475053
0.0475025
0.0474976
0.0474924
0.0474847
0.0474791
0.0474997
0.0475051
0.0475131
0.0475184
0.0475236
0.0475265
0.047529
0.0475306
0.0475319
0.0475328
0.0475335
0.047534
0.0475344
0.0475347
0.0475349
0.0475351
0.0475352
0.0475353
0.0475354
0.0475355
0.0475355
0.0475355
0.0475356
0.0475356
0.0475356
0.0475356
0.0475356
0.0475356
0.0475355
0.0475355
0.0475355
0.0475354
0.0475353
0.0475352
0.0475351
0.0475349
0.0475347
0.0475344
0.047534
0.0475335
0.0475328
0.0475319
0.0475306
0.0475289
0.0475265
0.0475236
0.0475184
0.0475131
0.0475051
0.0474997
0.0475227
0.0475281
0.0475363
0.0475418
0.0475473
0.0475503
0.0475528
0.0475545
0.0475558
0.0475568
0.0475575
0.047558
0.0475585
0.0475588
0.047559
0.0475592
0.0475594
0.0475594
0.0475595
0.0475596
0.0475596
0.0475596
0.0475597
0.0475597
0.0475597
0.0475597
0.0475597
0.0475597
0.0475596
0.0475596
0.0475596
0.0475595
0.0475594
0.0475593
0.0475592
0.047559
0.0475588
0.0475585
0.047558
0.0475575
0.0475568
0.0475558
0.0475545
0.0475528
0.0475503
0.0475473
0.0475418
0.0475363
0.0475281
0.0475227
0.0475485
0.0475539
0.0475623
0.0475679
0.0475737
0.0475768
0.0475794
0.0475813
0.0475827
0.0475837
0.0475844
0.047585
0.0475855
0.0475858
0.047586
0.0475862
0.0475864
0.0475865
0.0475866
0.0475866
0.0475867
0.0475867
0.0475867
0.0475867
0.0475867
0.0475867
0.0475867
0.0475867
0.0475867
0.0475867
0.0475866
0.0475866
0.0475865
0.0475864
0.0475862
0.047586
0.0475858
0.0475855
0.047585
0.0475844
0.0475837
0.0475827
0.0475813
0.0475794
0.0475768
0.0475737
0.0475679
0.0475623
0.0475539
0.0475485
0.0475769
0.0475824
0.047591
0.0475968
0.0476028
0.047606
0.0476088
0.0476107
0.0476121
0.0476132
0.047614
0.0476145
0.047615
0.0476153
0.0476156
0.0476158
0.047616
0.047616
0.0476162
0.0476162
0.0476163
0.0476163
0.0476163
0.0476163
0.0476163
0.0476163
0.0476163
0.0476163
0.0476163
0.0476163
0.0476162
0.0476162
0.047616
0.047616
0.0476158
0.0476156
0.0476153
0.047615
0.0476145
0.047614
0.0476132
0.0476121
0.0476107
0.0476088
0.047606
0.0476028
0.0475968
0.047591
0.0475824
0.0475769
0.0476085
0.0476139
0.0476228
0.0476288
0.0476351
0.0476384
0.0476413
0.0476433
0.0476449
0.0476459
0.0476468
0.0476474
0.0476479
0.0476482
0.0476485
0.0476487
0.0476488
0.0476489
0.047649
0.0476491
0.0476491
0.0476492
0.0476492
0.0476492
0.0476492
0.0476492
0.0476492
0.0476492
0.0476492
0.0476491
0.0476491
0.047649
0.0476489
0.0476488
0.0476487
0.0476485
0.0476482
0.0476479
0.0476474
0.0476468
0.0476459
0.0476448
0.0476433
0.0476413
0.0476384
0.0476351
0.0476288
0.0476228
0.0476139
0.0476085
0.0476433
0.0476487
0.0476579
0.047664
0.0476705
0.047674
0.047677
0.0476791
0.0476806
0.0476818
0.0476826
0.0476832
0.0476838
0.0476841
0.0476844
0.0476846
0.0476848
0.0476848
0.047685
0.047685
0.0476851
0.0476851
0.0476851
0.0476851
0.0476851
0.0476851
0.0476851
0.0476851
0.0476851
0.0476851
0.047685
0.047685
0.0476848
0.0476848
0.0476846
0.0476844
0.0476841
0.0476838
0.0476832
0.0476826
0.0476818
0.0476806
0.0476791
0.047677
0.047674
0.0476705
0.047664
0.0476579
0.0476487
0.0476433
0.0476795
0.047685
0.0476944
0.0477007
0.0477075
0.047711
0.0477142
0.0477163
0.0477179
0.047719
0.0477199
0.0477206
0.0477211
0.0477214
0.0477217
0.0477219
0.0477221
0.0477222
0.0477223
0.0477224
0.0477224
0.0477224
0.0477225
0.0477225
0.0477225
0.0477225
0.0477225
0.0477225
0.0477224
0.0477224
0.0477224
0.0477223
0.0477222
0.0477221
0.0477219
0.0477217
0.0477214
0.0477211
0.0477206
0.0477199
0.047719
0.0477179
0.0477163
0.0477142
0.047711
0.0477074
0.0477007
0.0476944
0.047685
0.0476795
0.0477181
0.0477236
0.0477333
0.0477399
0.0477467
0.0477504
0.0477537
0.0477559
0.0477575
0.0477587
0.0477596
0.0477602
0.0477608
0.0477611
0.0477615
0.0477616
0.0477618
0.0477619
0.047762
0.0477621
0.0477622
0.0477622
0.0477622
0.0477622
0.0477622
0.0477622
0.0477622
0.0477622
0.0477622
0.0477622
0.0477621
0.047762
0.0477619
0.0477618
0.0477616
0.0477615
0.0477611
0.0477608
0.0477602
0.0477596
0.0477587
0.0477575
0.0477559
0.0477537
0.0477504
0.0477467
0.0477399
0.0477334
0.0477236
0.0477181
0.0477589
0.0477646
0.0477746
0.0477813
0.0477883
0.0477921
0.0477954
0.0477977
0.0477994
0.0478006
0.0478015
0.0478022
0.0478027
0.0478031
0.0478034
0.0478036
0.0478038
0.0478039
0.047804
0.0478041
0.0478041
0.0478041
0.0478042
0.0478042
0.0478042
0.0478042
0.0478042
0.0478042
0.0478041
0.0478041
0.0478041
0.047804
0.0478039
0.0478038
0.0478036
0.0478034
0.0478031
0.0478027
0.0478022
0.0478015
0.0478006
0.0477994
0.0477977
0.0477954
0.0477921
0.0477883
0.0477813
0.0477746
0.0477646
0.0477589
0.0478028
0.0478086
0.047819
0.047826
0.0478331
0.0478371
0.0478405
0.0478429
0.0478446
0.0478459
0.0478468
0.0478475
0.0478481
0.0478484
0.0478488
0.0478489
0.0478491
0.0478492
0.0478494
0.0478494
0.0478495
0.0478495
0.0478495
0.0478495
0.0478495
0.0478495
0.0478495
0.0478495
0.0478495
0.0478495
0.0478494
0.0478494
0.0478492
0.0478491
0.0478489
0.0478487
0.0478484
0.047848
0.0478475
0.0478468
0.0478459
0.0478446
0.0478429
0.0478405
0.0478371
0.0478331
0.047826
0.047819
0.0478086
0.0478028
0.0478493
0.0478552
0.0478658
0.047873
0.0478802
0.0478843
0.0478879
0.0478903
0.047892
0.0478933
0.0478943
0.0478949
0.0478955
0.0478959
0.0478962
0.0478964
0.0478966
0.0478967
0.0478968
0.0478969
0.047897
0.047897
0.047897
0.047897
0.047897
0.047897
0.047897
0.047897
0.047897
0.047897
0.0478969
0.0478968
0.0478967
0.0478966
0.0478964
0.0478962
0.0478959
0.0478955
0.0478949
0.0478943
0.0478933
0.047892
0.0478903
0.0478879
0.0478843
0.0478802
0.047873
0.0478658
0.0478552
0.0478493
0.0478977
0.0479038
0.0479147
0.0479221
0.0479293
0.0479336
0.0479372
0.0479397
0.0479414
0.0479427
0.0479437
0.0479443
0.0479449
0.0479453
0.0479456
0.0479458
0.047946
0.0479461
0.0479462
0.0479463
0.0479464
0.0479464
0.0479464
0.0479464
0.0479464
0.0479464
0.0479464
0.0479464
0.0479464
0.0479464
0.0479463
0.0479462
0.0479461
0.047946
0.0479458
0.0479456
0.0479453
0.0479449
0.0479443
0.0479436
0.0479427
0.0479414
0.0479397
0.0479371
0.0479336
0.0479293
0.0479221
0.0479147
0.0479038
0.0478977
0.0479465
0.0479527
0.0479639
0.0479715
0.0479788
0.0479831
0.0479868
0.0479893
0.0479911
0.0479924
0.0479933
0.047994
0.0479946
0.047995
0.0479953
0.0479955
0.0479957
0.0479958
0.047996
0.047996
0.0479961
0.0479961
0.0479961
0.0479961
0.0479962
0.0479962
0.0479961
0.0479961
0.0479961
0.0479961
0.047996
0.047996
0.0479958
0.0479957
0.0479955
0.0479953
0.047995
0.0479946
0.047994
0.0479933
0.0479924
0.0479911
0.0479893
0.0479868
0.0479831
0.0479788
0.0479715
0.0479638
0.0479527
0.0479465
0.0479968
0.0480032
0.0480147
0.0480224
0.0480297
0.0480342
0.0480379
0.0480404
0.0480422
0.0480435
0.0480445
0.0480452
0.0480458
0.0480461
0.0480465
0.0480467
0.0480469
0.048047
0.0480471
0.0480472
0.0480473
0.0480473
0.0480473
0.0480473
0.0480473
0.0480473
0.0480473
0.0480473
0.0480473
0.0480473
0.0480472
0.0480471
0.048047
0.0480469
0.0480467
0.0480465
0.0480461
0.0480458
0.0480452
0.0480445
0.0480435
0.0480422
0.0480404
0.0480378
0.0480342
0.0480297
0.0480224
0.0480145
0.0480032
0.0479968
0.0480498
0.0480563
0.0480684
0.048076
0.0480834
0.048088
0.0480917
0.0480943
0.0480961
0.0480975
0.0480985
0.0480991
0.0480997
0.0481001
0.0481005
0.0481006
0.0481009
0.048101
0.0481011
0.0481011
0.0481012
0.0481012
0.0481013
0.0481013
0.0481013
0.0481013
0.0481013
0.0481013
0.0481012
0.0481012
0.0481011
0.0481011
0.048101
0.0481009
0.0481006
0.0481005
0.0481001
0.0480997
0.0480991
0.0480984
0.0480975
0.0480961
0.0480943
0.0480917
0.048088
0.0480834
0.048076
0.0480678
0.0480563
0.0480498
0.0481043
0.048111
0.048122
0.0481294
0.048137
0.0481416
0.0481453
0.0481479
0.0481498
0.0481511
0.0481521
0.0481527
0.0481534
0.0481537
0.0481541
0.0481543
0.0481545
0.0481546
0.0481547
0.0481547
0.0481548
0.0481548
0.0481549
0.0481549
0.0481549
0.0481549
0.0481549
0.0481549
0.0481548
0.0481548
0.0481547
0.0481547
0.0481546
0.0481545
0.0481543
0.0481541
0.0481537
0.0481534
0.0481527
0.0481521
0.0481511
0.0481497
0.0481479
0.0481453
0.0481416
0.048137
0.0481294
0.0481225
0.048111
0.0481043
0.0481583
0.0481652
0.0481766
0.0481838
0.0481915
0.0481961
0.0481998
0.0482024
0.0482043
0.0482056
0.0482066
0.0482073
0.0482079
0.0482083
0.0482087
0.0482089
0.0482091
0.0482092
0.0482093
0.0482094
0.0482094
0.0482094
0.0482095
0.0482095
0.0482095
0.0482095
0.0482095
0.0482095
0.0482095
0.0482094
0.0482094
0.0482093
0.0482092
0.0482091
0.0482089
0.0482087
0.0482083
0.0482079
0.0482073
0.0482066
0.0482056
0.0482043
0.0482024
0.0481998
0.0481961
0.0481914
0.0481838
0.0481768
0.0481652
0.0481583
0.0482139
0.0482213
0.0482331
0.0482403
0.048248
0.0482527
0.0482564
0.048259
0.0482609
0.0482622
0.0482632
0.0482639
0.0482645
0.0482649
0.0482653
0.0482654
0.0482657
0.0482657
0.0482659
0.0482659
0.048266
0.048266
0.0482661
0.0482661
0.0482661
0.0482661
0.0482661
0.0482661
0.048266
0.048266
0.0482659
0.0482659
0.0482657
0.0482657
0.0482654
0.0482653
0.0482649
0.0482645
0.0482639
0.0482632
0.0482622
0.0482609
0.048259
0.0482564
0.0482527
0.048248
0.0482402
0.0482331
0.0482213
0.0482139
0.0482709
0.0482768
0.0482888
0.048296
0.0483038
0.0483084
0.0483121
0.0483147
0.0483166
0.0483179
0.0483189
0.0483196
0.0483202
0.0483205
0.0483209
0.0483211
0.0483213
0.0483214
0.0483215
0.0483216
0.0483217
0.0483217
0.0483217
0.0483217
0.0483217
0.0483217
0.0483217
0.0483217
0.0483217
0.0483217
0.0483216
0.0483215
0.0483214
0.0483213
0.0483211
0.0483209
0.0483205
0.0483202
0.0483196
0.0483189
0.0483179
0.0483166
0.0483147
0.0483121
0.0483084
0.0483037
0.048296
0.0482888
0.0482768
0.0482709
0.0483266
0.0483327
0.0483449
0.048352
0.0483597
0.0483645
0.048368
0.0483707
0.0483726
0.0483739
0.0483749
0.0483756
0.0483762
0.0483766
0.048377
0.0483772
0.0483774
0.0483775
0.0483776
0.0483776
0.0483777
0.0483777
0.0483778
0.0483778
0.0483778
0.0483778
0.0483778
0.0483778
0.0483777
0.0483777
0.0483776
0.0483776
0.0483775
0.0483774
0.0483772
0.048377
0.0483766
0.0483762
0.0483756
0.0483749
0.0483739
0.0483726
0.0483707
0.048368
0.0483645
0.0483597
0.048352
0.0483449
0.0483327
0.0483266
0.0483835
0.0483898
0.0484022
0.0484094
0.0484171
0.0484219
0.0484254
0.048428
0.0484299
0.0484313
0.0484323
0.048433
0.0484336
0.0484339
0.0484343
0.0484345
0.0484347
0.0484348
0.0484349
0.048435
0.048435
0.0484351
0.0484351
0.0484351
0.0484351
0.0484351
0.0484351
0.0484351
0.0484351
0.048435
0.048435
0.0484349
0.0484348
0.0484347
0.0484345
0.0484343
0.0484339
0.0484336
0.048433
0.0484323
0.0484313
0.0484299
0.048428
0.0484254
0.0484219
0.0484171
0.0484094
0.0484022
0.0483898
0.0483835
0.0484409
0.0484473
0.0484583
0.0484655
0.048473
0.0484778
0.0484813
0.0484839
0.0484857
0.0484871
0.048488
0.0484887
0.0484893
0.0484896
0.04849
0.0484902
0.0484904
0.0484905
0.0484906
0.0484907
0.0484908
0.0484908
0.0484908
0.0484908
0.0484908
0.0484908
0.0484908
0.0484908
0.0484908
0.0484908
0.0484907
0.0484906
0.0484905
0.0484904
0.0484902
0.04849
0.0484896
0.0484893
0.0484887
0.048488
0.048487
0.0484857
0.0484839
0.0484813
0.0484778
0.048473
0.0484655
0.0484583
0.0484473
0.0484409
0.0484964
0.048503
0.0485143
0.0485217
0.0485293
0.0485341
0.0485376
0.0485402
0.048542
0.0485434
0.0485443
0.048545
0.0485456
0.048546
0.0485463
0.0485465
0.0485467
0.0485468
0.0485469
0.048547
0.0485471
0.0485471
0.0485471
0.0485471
0.0485471
0.0485471
0.0485471
0.0485471
0.0485471
0.0485471
0.048547
0.0485469
0.0485468
0.0485467
0.0485465
0.0485463
0.048546
0.0485456
0.048545
0.0485443
0.0485434
0.048542
0.0485402
0.0485376
0.0485341
0.0485293
0.0485217
0.0485143
0.048503
0.0484964
0.0485527
0.0485581
0.0485695
0.0485767
0.0485843
0.0485891
0.0485924
0.048595
0.0485968
0.0485981
0.048599
0.0485997
0.0486003
0.0486006
0.048601
0.0486011
0.0486014
0.0486014
0.0486016
0.0486016
0.0486017
0.0486017
0.0486017
0.0486017
0.0486018
0.0486018
0.0486017
0.0486017
0.0486017
0.0486017
0.0486016
0.0486016
0.0486014
0.0486014
0.0486011
0.048601
0.0486006
0.0486003
0.0485997
0.048599
0.0485981
0.0485968
0.048595
0.0485924
0.0485891
0.0485843
0.0485767
0.0485695
0.0485581
0.0485527
0.0486071
0.0486124
0.0486239
0.0486309
0.0486385
0.0486434
0.0486467
0.0486493
0.048651
0.0486524
0.0486533
0.048654
0.0486545
0.0486549
0.0486552
0.0486554
0.0486556
0.0486557
0.0486558
0.0486558
0.0486559
0.0486559
0.048656
0.048656
0.048656
0.048656
0.048656
0.048656
0.0486559
0.0486559
0.0486558
0.0486558
0.0486557
0.0486556
0.0486554
0.0486552
0.0486548
0.0486545
0.0486539
0.0486533
0.0486524
0.048651
0.0486493
0.0486467
0.0486434
0.0486385
0.0486309
0.0486239
0.0486124
0.0486071
0.0486615
0.0486669
0.0486772
0.0486841
0.0486916
0.0486964
0.0486996
0.0487021
0.0487038
0.0487051
0.048706
0.0487067
0.0487072
0.0487075
0.0487079
0.048708
0.0487083
0.0487083
0.0487085
0.0487085
0.0487086
0.0487086
0.0487086
0.0487086
0.0487087
0.0487087
0.0487086
0.0487086
0.0487086
0.0487086
0.0487085
0.0487085
0.0487083
0.0487083
0.048708
0.0487079
0.0487075
0.0487072
0.0487067
0.048706
0.0487051
0.0487038
0.0487021
0.0486996
0.0486964
0.0486916
0.048684
0.0486772
0.0486669
0.0486615
0.0487138
0.0487192
0.0487296
0.0487364
0.0487441
0.0487489
0.048752
0.0487545
0.0487561
0.0487574
0.0487583
0.048759
0.0487595
0.0487598
0.0487602
0.0487603
0.0487605
0.0487606
0.0487607
0.0487608
0.0487608
0.0487608
0.0487609
0.0487609
0.0487609
0.0487609
0.0487609
0.0487609
0.0487608
0.0487608
0.0487608
0.0487607
0.0487606
0.0487605
0.0487603
0.0487601
0.0487598
0.0487595
0.0487589
0.0487583
0.0487574
0.0487561
0.0487545
0.048752
0.0487489
0.0487441
0.0487364
0.0487296
0.0487192
0.0487138
0.0487659
0.0487713
0.0487817
0.0487882
0.0487945
0.0487993
0.0488022
0.0488046
0.0488062
0.0488075
0.0488083
0.0488089
0.0488095
0.0488098
0.0488101
0.0488103
0.0488105
0.0488105
0.0488107
0.0488107
0.0488108
0.0488108
0.0488108
0.0488108
0.0488108
0.0488108
0.0488108
0.0488108
0.0488108
0.0488108
0.0488107
0.0488107
0.0488105
0.0488105
0.0488103
0.0488101
0.0488098
0.0488094
0.0488089
0.0488083
0.0488075
0.0488062
0.0488046
0.0488022
0.0487992
0.0487945
0.0487882
0.0487817
0.0487713
0.0487659
0.0488154
0.0488207
0.048831
0.0488372
0.0488433
0.048848
0.0488508
0.0488531
0.0488547
0.0488559
0.0488567
0.0488573
0.0488578
0.0488581
0.0488584
0.0488586
0.0488588
0.0488588
0.048859
0.048859
0.0488591
0.0488591
0.0488591
0.0488591
0.0488591
0.0488591
0.0488591
0.0488591
0.0488591
0.0488591
0.048859
0.048859
0.0488588
0.0488588
0.0488586
0.0488584
0.0488581
0.0488578
0.0488573
0.0488567
0.0488559
0.0488547
0.0488531
0.0488508
0.048848
0.0488433
0.0488372
0.048831
0.0488207
0.0488154
0.0488639
0.0488691
0.0488786
0.0488845
0.0488904
0.0488949
0.0488976
0.0488999
0.0489013
0.0489025
0.0489033
0.0489038
0.0489043
0.0489046
0.0489049
0.0489051
0.0489053
0.0489053
0.0489054
0.0489055
0.0489055
0.0489056
0.0489056
0.0489056
0.0489056
0.0489056
0.0489056
0.0489056
0.0489056
0.0489055
0.0489055
0.0489054
0.0489053
0.0489053
0.0489051
0.0489049
0.0489046
0.0489043
0.0489038
0.0489033
0.0489025
0.0489013
0.0488999
0.0488976
0.0488949
0.0488904
0.0488845
0.0488786
0.0488691
0.0488639
0.0489099
0.048915
0.0489242
0.0489299
0.0489355
0.04894
0.0489424
0.0489447
0.0489462
0.0489473
0.0489481
0.0489487
0.0489491
0.0489494
0.0489497
0.0489499
0.0489501
0.0489501
0.0489502
0.0489503
0.0489503
0.0489503
0.0489504
0.0489504
0.0489504
0.0489504
0.0489504
0.0489504
0.0489503
0.0489503
0.0489503
0.0489502
0.0489501
0.0489501
0.0489499
0.0489497
0.0489494
0.0489491
0.0489487
0.0489481
0.0489473
0.0489462
0.0489447
0.0489424
0.0489399
0.0489355
0.0489299
0.0489242
0.048915
0.0489099
0.0489539
0.0489589
0.0489678
0.0489733
0.0489787
0.0489829
0.0489853
0.0489875
0.0489888
0.04899
0.0489907
0.0489912
0.0489917
0.048992
0.0489923
0.0489924
0.0489926
0.0489926
0.0489928
0.0489928
0.0489928
0.0489929
0.0489929
0.0489929
0.0489929
0.0489929
0.0489929
0.0489929
0.0489929
0.0489928
0.0489928
0.0489928
0.0489926
0.0489926
0.0489924
0.0489922
0.048992
0.0489917
0.0489912
0.0489907
0.0489899
0.0489888
0.0489875
0.0489853
0.0489829
0.0489786
0.0489733
0.0489678
0.0489589
0.0489539
0.0489959
0.0490007
0.0490092
0.0490146
0.0490196
0.0490237
0.049026
0.0490281
0.0490294
0.0490304
0.0490311
0.0490317
0.0490321
0.0490323
0.0490326
0.0490328
0.0490329
0.049033
0.0490331
0.0490331
0.0490332
0.0490332
0.0490332
0.0490333
0.0490333
0.0490333
0.0490333
0.0490332
0.0490332
0.0490332
0.0490331
0.0490331
0.049033
0.0490329
0.0490328
0.0490326
0.0490323
0.0490321
0.0490317
0.0490311
0.0490304
0.0490294
0.0490281
0.049026
0.0490237
0.0490196
0.0490146
0.0490092
0.0490007
0.0489958
0.0490356
0.0490404
0.0490485
0.0490536
0.0490584
0.0490623
0.0490645
0.0490664
0.0490677
0.0490687
0.0490694
0.0490698
0.0490703
0.0490705
0.0490708
0.0490709
0.0490711
0.0490711
0.0490712
0.0490713
0.0490713
0.0490713
0.0490714
0.0490714
0.0490714
0.0490714
0.0490714
0.0490714
0.0490713
0.0490713
0.0490713
0.0490712
0.0490711
0.0490711
0.0490709
0.0490708
0.0490705
0.0490702
0.0490698
0.0490693
0.0490687
0.0490677
0.0490664
0.0490644
0.0490623
0.0490584
0.0490536
0.0490485
0.0490404
0.0490356
0.0490732
0.0490779
0.0490855
0.0490904
0.0490949
0.0490986
0.0491006
0.0491025
0.0491037
0.0491046
0.0491053
0.0491057
0.0491061
0.0491064
0.0491066
0.0491067
0.0491069
0.049107
0.0491071
0.0491071
0.0491071
0.0491072
0.0491072
0.0491072
0.0491072
0.0491072
0.0491072
0.0491072
0.0491072
0.0491071
0.0491071
0.0491071
0.049107
0.0491069
0.0491067
0.0491066
0.0491064
0.0491061
0.0491057
0.0491053
0.0491046
0.0491037
0.0491025
0.0491006
0.0490986
0.0490949
0.0490904
0.0490855
0.0490779
0.0490732
0.0491084
0.0491129
0.0491202
0.0491248
0.049129
0.0491325
0.0491345
0.0491362
0.0491373
0.0491382
0.0491389
0.0491393
0.0491397
0.0491399
0.0491401
0.0491402
0.0491404
0.0491405
0.0491406
0.0491406
0.0491406
0.0491406
0.0491407
0.0491407
0.0491407
0.0491407
0.0491407
0.0491407
0.0491406
0.0491406
0.0491406
0.0491406
0.0491405
0.0491404
0.0491402
0.0491401
0.0491399
0.0491397
0.0491393
0.0491388
0.0491382
0.0491373
0.0491362
0.0491345
0.0491325
0.049129
0.0491248
0.0491202
0.0491129
0.0491084
0.0491413
0.0491456
0.0491525
0.0491569
0.0491608
0.0491641
0.049166
0.0491676
0.0491686
0.0491695
0.0491701
)
;

boundaryField
{
    fuel
    {
        type            fixedValue;
        value           nonuniform 0();
    }
    wall
    {
        type            zeroGradient;
    }
    outlet
    {
        type            zeroGradient;
    }
    frontAndBack
    {
        type            empty;
    }
    procBoundary2to0
    {
        type            processor;
        value           nonuniform List<scalar> 
53
(
0.0474205
0.0474265
0.0474338
0.0474383
0.0474419
0.0474443
0.047446
0.0474472
0.0474481
0.0474487
0.0474492
0.0474496
0.0474499
0.0474501
0.0474503
0.0474505
0.0474506
0.0474506
0.0474575
0.0474575
0.0474575
0.0474576
0.0474576
0.0474576
0.0474576
0.0474576
0.0474576
0.0474576
0.0474576
0.0474673
0.0474673
0.0474673
0.0474672
0.0474672
0.0474671
0.047467
0.0474669
0.0474668
0.0474666
0.0474663
0.047466
0.0474655
0.0474775
0.0474775
0.0474767
0.0474756
0.0474742
0.0474722
0.0474695
0.0474652
0.0474603
0.0474528
0.0474471
)
;
    }
    procBoundary2to3
    {
        type            processor;
        value           nonuniform List<scalar> 
51
(
0.0491705
0.0491709
0.0491711
0.0491713
0.0491714
0.0491716
0.0491716
0.0491717
0.0491717
0.0491718
0.0491718
0.0491718
0.0491718
0.0491718
0.0491718
0.0491718
0.0491718
0.0491718
0.0491718
0.0491717
0.0491717
0.0491716
0.0491716
0.0491714
0.0491713
0.0491711
0.0491708
0.0491705
0.0491701
0.0491695
0.0491686
0.0491676
0.049166
0.0491641
0.0491608
0.0491569
0.0491525
0.0491456
0.0491413
0.0491718
0.0491759
0.0491825
0.0491866
0.0491903
0.0491933
0.0491951
0.0491966
0.0491976
0.0491984
0.0491705
0.049199
)
;
    }
}


// ************************************************************************* //
