/*--------------------------------*- C++ -*----------------------------------*\
| =========                 |                                                 |
| \\      /  F ield         | OpenFOAM: The Open Source CFD Toolbox           |
|  \\    /   O peration     | Version:  dev                                   |
|   \\  /    A nd           | Web:      www.OpenFOAM.org                      |
|    \\/     M anipulation  |                                                 |
\*---------------------------------------------------------------------------*/
FoamFile
{
    version     2.0;
    format      ascii;
    class       volScalarField;
    location    "0.105";
    object      A2C2HB*;
}
// * * * * * * * * * * * * * * * * * * * * * * * * * * * * * * * * * * * * * //

dimensions      [0 0 0 0 0 0 0];

internalField   nonuniform List<scalar> 
50
(
1.51414e-18
1.25933e-18
1.04785e-18
8.72535e-19
7.27314e-19
6.0708e-19
5.07538e-19
4.25098e-19
3.56771e-19
3.00079e-19
2.52973e-19
2.13766e-19
1.81068e-19
1.5374e-19
1.30846e-19
1.1162e-19
9.54335e-20
8.17703e-20
7.02074e-20
6.03969e-20
5.20525e-20
4.49379e-20
3.88579e-20
3.36508e-20
2.91819e-20
2.53393e-20
2.20294e-20
1.91736e-20
1.67058e-20
1.45704e-20
1.27203e-20
1.11154e-20
9.72173e-21
8.51034e-21
7.45639e-21
6.53864e-21
5.73884e-21
5.04131e-21
4.43254e-21
3.90087e-21
3.43621e-21
3.02983e-21
2.67412e-21
2.36241e-21
2.09214e-21
1.85468e-21
1.64467e-21
1.4605e-21
1.29873e-21
1.15625e-21
)
;

boundaryField
{
    wall
    {
        type            zeroGradient;
    }
    fuel
    {
        type            fixedValue;
        value           nonuniform 0();
    }
    outlet
    {
        type            inletOutlet;
        inletValue      nonuniform 0();
        value           nonuniform 0();
    }
    procBoundary1to0
    {
        type            processor;
        value           uniform 1.83549e-18;
    }
    procBoundary1to2
    {
        type            processor;
        value           uniform 1.03003e-21;
    }
}


// ************************************************************************* //
