/*--------------------------------*- C++ -*----------------------------------*\
| =========                 |                                                 |
| \\      /  F ield         | OpenFOAM: The Open Source CFD Toolbox           |
|  \\    /   O peration     | Version:  dev                                   |
|   \\  /    A nd           | Web:      www.OpenFOAM.org                      |
|    \\/     M anipulation  |                                                 |
\*---------------------------------------------------------------------------*/
FoamFile
{
    version     2.0;
    format      ascii;
    class       volScalarField;
    location    "0.105";
    object      A4;
}
// * * * * * * * * * * * * * * * * * * * * * * * * * * * * * * * * * * * * * //

dimensions      [0 0 0 0 0 0 0];

internalField   nonuniform List<scalar> 
250
(
5.73986e-08
4.00811e-08
3.30864e-08
2.91788e-08
2.81989e-08
2.79463e-08
2.78926e-08
2.78931e-08
2.79049e-08
2.79242e-08
5.33444e-08
3.84064e-08
3.24259e-08
2.90668e-08
2.82028e-08
2.79751e-08
2.79245e-08
2.79239e-08
2.79343e-08
2.79507e-08
2.79349e-08
2.7922e-08
2.79078e-08
2.79177e-08
2.79615e-08
2.82242e-08
2.91492e-08
3.21514e-08
4.04986e-08
5.23945e-08
4.96342e-08
3.69027e-08
3.18244e-08
2.89561e-08
2.82011e-08
2.79957e-08
2.79489e-08
2.79469e-08
2.79563e-08
2.79697e-08
2.79558e-08
2.79445e-08
2.79305e-08
2.79396e-08
2.79796e-08
2.82138e-08
2.90284e-08
3.16426e-08
3.88204e-08
4.90721e-08
4.62798e-08
3.55572e-08
3.12748e-08
2.8844e-08
2.81898e-08
2.80047e-08
2.79622e-08
2.79588e-08
2.79673e-08
2.79779e-08
2.79656e-08
2.79562e-08
2.79422e-08
2.7951e-08
2.79868e-08
2.81941e-08
2.89047e-08
3.11583e-08
3.72645e-08
4.60189e-08
4.32835e-08
3.43583e-08
3.07727e-08
2.87277e-08
2.81671e-08
2.80013e-08
2.79631e-08
2.79586e-08
2.79662e-08
2.79744e-08
2.79635e-08
2.79558e-08
2.7942e-08
2.79505e-08
2.79822e-08
2.81642e-08
2.87773e-08
3.06996e-08
3.58345e-08
4.32494e-08
4.06477e-08
3.32964e-08
3.03153e-08
2.86113e-08
2.81337e-08
2.79863e-08
2.79524e-08
2.7947e-08
2.7954e-08
2.79599e-08
2.79503e-08
2.79442e-08
2.79306e-08
2.79389e-08
2.79665e-08
2.81247e-08
2.86478e-08
3.0269e-08
3.45328e-08
4.07252e-08
3.83057e-08
3.23626e-08
2.99012e-08
2.84952e-08
2.80916e-08
2.79618e-08
2.7932e-08
2.79262e-08
2.79324e-08
2.79365e-08
2.79279e-08
2.79231e-08
2.791e-08
2.79179e-08
2.79418e-08
2.80778e-08
2.85186e-08
2.98692e-08
3.33611e-08
3.84918e-08
3.63236e-08
3.15493e-08
2.95299e-08
2.83821e-08
2.80435e-08
2.79306e-08
2.79046e-08
2.78987e-08
2.79042e-08
2.79069e-08
2.78992e-08
2.78954e-08
2.7883e-08
2.78902e-08
2.79107e-08
2.80264e-08
2.83929e-08
2.95038e-08
3.23204e-08
3.65239e-08
3.46333e-08
3.08498e-08
2.92017e-08
2.8275e-08
2.79927e-08
2.78958e-08
2.78732e-08
2.78676e-08
2.78725e-08
2.78742e-08
2.78672e-08
2.78639e-08
2.78525e-08
2.78589e-08
2.78763e-08
2.79736e-08
2.82745e-08
2.91763e-08
3.14116e-08
3.48156e-08
3.32251e-08
3.02593e-08
2.89178e-08
2.8177e-08
2.79427e-08
2.78606e-08
2.7841e-08
2.7836e-08
2.78403e-08
2.78411e-08
2.78348e-08
2.78317e-08
2.78215e-08
2.78268e-08
2.78417e-08
2.79227e-08
2.81669e-08
2.88905e-08
3.06362e-08
3.33624e-08
3.20903e-08
2.97768e-08
2.86809e-08
2.80918e-08
2.7897e-08
2.78279e-08
2.7811e-08
2.78067e-08
2.78104e-08
2.78108e-08
2.78049e-08
2.78018e-08
2.77928e-08
2.7797e-08
2.78098e-08
2.7877e-08
2.80739e-08
2.8651e-08
2.99983e-08
3.21678e-08
3.12338e-08
2.94083e-08
2.84967e-08
2.80237e-08
2.78594e-08
2.7801e-08
2.77861e-08
2.77826e-08
2.77858e-08
2.7786e-08
2.77803e-08
2.77771e-08
2.77692e-08
2.77724e-08
2.77835e-08
2.78399e-08
2.80002e-08
2.84649e-08
2.95093e-08
3.12509e-08
3.07004e-08
2.91776e-08
2.83794e-08
2.79798e-08
2.78347e-08
2.77834e-08
2.77698e-08
2.77669e-08
2.77698e-08
2.77698e-08
2.77644e-08
2.7761e-08
2.77539e-08
2.77563e-08
2.77664e-08
2.78158e-08
2.79529e-08
2.83471e-08
2.92018e-08
3.06737e-08
)
;

boundaryField
{
    fuel
    {
        type            fixedValue;
        value           nonuniform 0();
    }
    wall
    {
        type            zeroGradient;
    }
    outlet
    {
        type            zeroGradient;
    }
    frontAndBack
    {
        type            empty;
    }
    procBoundary1to0
    {
        type            processor;
        value           nonuniform List<scalar> 
21
(
6.18016e-08
4.1935e-08
3.38178e-08
2.92973e-08
2.81957e-08
2.79147e-08
2.78589e-08
2.78598e-08
2.78735e-08
2.78956e-08
2.79055e-08
2.79055e-08
2.78916e-08
2.78767e-08
2.78884e-08
2.79355e-08
2.82281e-08
2.92695e-08
3.26834e-08
4.22925e-08
5.5962e-08
)
;
    }
}


// ************************************************************************* //
