/*--------------------------------*- C++ -*----------------------------------*\
| =========                 |                                                 |
| \\      /  F ield         | OpenFOAM: The Open Source CFD Toolbox           |
|  \\    /   O peration     | Version:  dev                                   |
|   \\  /    A nd           | Web:      www.OpenFOAM.org                      |
|    \\/     M anipulation  |                                                 |
\*---------------------------------------------------------------------------*/
FoamFile
{
    version     2.0;
    format      ascii;
    class       volScalarField;
    location    "0.105";
    object      c-C6H4;
}
// * * * * * * * * * * * * * * * * * * * * * * * * * * * * * * * * * * * * * //

dimensions      [0 0 0 0 0 0 0];

internalField   nonuniform List<scalar> 
250
(
2.93946e-07
2.42625e-07
1.87388e-07
1.83469e-07
1.71611e-07
1.69447e-07
1.69442e-07
1.66158e-07
1.69098e-07
1.65784e-07
2.27654e-07
1.87876e-07
1.45557e-07
1.42918e-07
1.33953e-07
1.32378e-07
1.32383e-07
1.29888e-07
1.32161e-07
1.29617e-07
1.30212e-07
1.31246e-07
1.30268e-07
1.31593e-07
1.31724e-07
1.33051e-07
1.3787e-07
1.4705e-07
1.63074e-07
1.91488e-07
1.75793e-07
1.45429e-07
1.14844e-07
1.12723e-07
1.06574e-07
1.05521e-07
1.05514e-07
1.03874e-07
1.05398e-07
1.03722e-07
1.04111e-07
1.04818e-07
1.04143e-07
1.05052e-07
1.0514e-07
1.06082e-07
1.09403e-07
1.15984e-07
1.27744e-07
1.49176e-07
1.40053e-07
1.16851e-07
9.62155e-08
9.41174e-08
9.04608e-08
8.98247e-08
8.97923e-08
8.89504e-08
8.97543e-08
8.89134e-08
8.91031e-08
8.94992e-08
8.91131e-08
8.96369e-08
8.97047e-08
9.03131e-08
9.23659e-08
9.68073e-08
1.05438e-07
1.21126e-07
1.19993e-07
1.01987e-07
8.91579e-08
8.68034e-08
8.51142e-08
8.47727e-08
8.4712e-08
8.45824e-08
8.47203e-08
8.4643e-08
8.46669e-08
8.47432e-08
8.46608e-08
8.48118e-08
8.48807e-08
8.52269e-08
8.63113e-08
8.91663e-08
9.54887e-08
1.06657e-07
1.13378e-07
9.90895e-08
9.1817e-08
8.92496e-08
8.89297e-08
8.8762e-08
8.86804e-08
8.89869e-08
8.87073e-08
8.91163e-08
8.90276e-08
8.89319e-08
8.90147e-08
8.89627e-08
8.90436e-08
8.9212e-08
8.96616e-08
9.13596e-08
9.61169e-08
1.03828e-07
1.16723e-07
1.05144e-07
1.01318e-07
9.86724e-08
9.90997e-08
9.90019e-08
9.89145e-08
9.94471e-08
9.89415e-08
9.96146e-08
9.94743e-08
9.92802e-08
9.94623e-08
9.93006e-08
9.9397e-08
9.94697e-08
9.96024e-08
1.00612e-07
1.04348e-07
1.09724e-07
1.26062e-07
1.16527e-07
1.14453e-07
1.1191e-07
1.12585e-07
1.1249e-07
1.12411e-07
1.12992e-07
1.12431e-07
1.13172e-07
1.13033e-07
1.12809e-07
1.13028e-07
1.12838e-07
1.12946e-07
1.12988e-07
1.13043e-07
1.13734e-07
1.1685e-07
1.20845e-07
1.3783e-07
1.29897e-07
1.28418e-07
1.26133e-07
1.26721e-07
1.26595e-07
1.26534e-07
1.27038e-07
1.26552e-07
1.27213e-07
1.27116e-07
1.26915e-07
1.2712e-07
1.2696e-07
1.27074e-07
1.27131e-07
1.27254e-07
1.27874e-07
1.30633e-07
1.33968e-07
1.48886e-07
1.42269e-07
1.40581e-07
1.387e-07
1.38959e-07
1.38794e-07
1.38754e-07
1.39087e-07
1.38779e-07
1.39241e-07
1.39215e-07
1.39083e-07
1.39232e-07
1.39148e-07
1.39261e-07
1.39366e-07
1.39644e-07
1.40367e-07
1.42915e-07
1.46111e-07
1.55583e-07
1.50105e-07
1.47848e-07
1.46449e-07
1.46298e-07
1.46113e-07
1.46088e-07
1.46226e-07
1.46131e-07
1.46354e-07
1.46406e-07
1.46362e-07
1.46436e-07
1.4644e-07
1.46545e-07
1.46711e-07
1.47144e-07
1.48032e-07
1.50398e-07
1.53726e-07
1.56152e-07
1.51713e-07
1.49499e-07
1.48443e-07
1.48147e-07
1.47988e-07
1.47963e-07
1.48031e-07
1.4802e-07
1.48151e-07
1.48236e-07
1.48233e-07
1.48275e-07
1.48318e-07
1.48411e-07
1.48599e-07
1.49035e-07
1.49927e-07
1.51991e-07
1.55189e-07
1.54885e-07
1.512e-07
1.49354e-07
1.48471e-07
1.48194e-07
1.48066e-07
1.48035e-07
1.48107e-07
1.48098e-07
1.48229e-07
1.4832e-07
1.48325e-07
1.48363e-07
1.48413e-07
1.48498e-07
1.48681e-07
1.49063e-07
1.49876e-07
1.51673e-07
1.54589e-07
)
;

boundaryField
{
    fuel
    {
        type            fixedValue;
        value           nonuniform 0();
    }
    wall
    {
        type            zeroGradient;
    }
    outlet
    {
        type            zeroGradient;
    }
    frontAndBack
    {
        type            empty;
    }
    procBoundary1to0
    {
        type            processor;
        value           nonuniform List<scalar> 
21
(
3.71118e-07
3.06647e-07
2.3795e-07
2.3179e-07
2.17236e-07
2.1446e-07
2.1442e-07
2.10529e-07
2.13957e-07
2.10083e-07
1.66564e-07
1.66564e-07
1.67874e-07
1.66637e-07
1.68337e-07
1.68534e-07
1.70277e-07
1.76702e-07
1.88918e-07
2.10724e-07
2.47463e-07
)
;
    }
}


// ************************************************************************* //
