/*--------------------------------*- C++ -*----------------------------------*\
| =========                 |                                                 |
| \\      /  F ield         | OpenFOAM: The Open Source CFD Toolbox           |
|  \\    /   O peration     | Version:  dev                                   |
|   \\  /    A nd           | Web:      www.OpenFOAM.org                      |
|    \\/     M anipulation  |                                                 |
\*---------------------------------------------------------------------------*/
FoamFile
{
    version     2.0;
    format      ascii;
    class       volScalarField;
    location    "0.105";
    object      C4H;
}
// * * * * * * * * * * * * * * * * * * * * * * * * * * * * * * * * * * * * * //

dimensions      [0 0 0 0 0 0 0];

internalField   nonuniform List<scalar> 
50
(
4.76298e-17
2.9639e-17
1.86156e-17
1.18248e-17
7.61503e-18
4.98582e-18
3.32901e-18
2.27363e-18
1.59257e-18
1.1462e-18
8.48264e-19
6.45196e-19
5.03515e-19
4.02139e-19
3.2768e-19
2.71545e-19
2.28158e-19
1.93846e-19
1.66155e-19
1.43413e-19
1.24461e-19
1.08477e-19
9.4863e-20
8.31781e-20
7.30867e-20
6.43286e-20
5.66982e-20
5.003e-20
4.41884e-20
3.9061e-20
3.45535e-20
3.05859e-20
2.70899e-20
2.40068e-20
2.12857e-20
1.88828e-20
1.67595e-20
1.48824e-20
1.32223e-20
1.17534e-20
1.04531e-20
9.30166e-21
8.28132e-21
7.37643e-21
6.58262e-21
5.87716e-21
5.24621e-21
4.68675e-21
4.18997e-21
3.74768e-21
)
;

boundaryField
{
    wall
    {
        type            zeroGradient;
    }
    fuel
    {
        type            fixedValue;
        value           nonuniform 0();
    }
    outlet
    {
        type            inletOutlet;
        inletValue      nonuniform 0();
        value           nonuniform 0();
    }
    procBoundary1to0
    {
        type            processor;
        value           uniform 7.84322e-17;
    }
    procBoundary1to2
    {
        type            processor;
        value           uniform 3.353e-21;
    }
}


// ************************************************************************* //
