/*--------------------------------*- C++ -*----------------------------------*\
| =========                 |                                                 |
| \\      /  F ield         | OpenFOAM: The Open Source CFD Toolbox           |
|  \\    /   O peration     | Version:  dev                                   |
|   \\  /    A nd           | Web:      www.OpenFOAM.org                      |
|    \\/     M anipulation  |                                                 |
\*---------------------------------------------------------------------------*/
FoamFile
{
    version     2.0;
    format      ascii;
    class       volScalarField;
    location    "0.105";
    object      C6H5O;
}
// * * * * * * * * * * * * * * * * * * * * * * * * * * * * * * * * * * * * * //

dimensions      [0 0 0 0 0 0 0];

internalField   nonuniform List<scalar> 
250
(
7.47197e-10
6.10137e-10
5.14511e-10
4.97936e-10
4.82027e-10
4.78609e-10
4.78495e-10
4.75215e-10
4.78291e-10
4.75177e-10
6.68489e-10
5.54262e-10
4.68361e-10
4.57045e-10
4.41097e-10
4.37851e-10
4.37838e-10
4.33819e-10
4.37588e-10
4.33627e-10
4.3471e-10
4.36226e-10
4.34714e-10
4.36878e-10
4.37304e-10
4.39909e-10
4.49568e-10
4.68746e-10
5.08453e-10
5.84064e-10
5.79695e-10
4.88163e-10
4.115e-10
4.04966e-10
3.89132e-10
3.86095e-10
3.86186e-10
3.81465e-10
3.85929e-10
3.81122e-10
3.82384e-10
3.84346e-10
3.82468e-10
3.85038e-10
3.8539e-10
3.8789e-10
3.97048e-10
4.13437e-10
4.43215e-10
4.99964e-10
4.81001e-10
4.11301e-10
3.45098e-10
3.42385e-10
3.27561e-10
3.24892e-10
3.25064e-10
3.20016e-10
3.24855e-10
3.1959e-10
3.2092e-10
3.232e-10
3.21047e-10
3.23862e-10
3.2412e-10
3.26408e-10
3.34687e-10
3.48337e-10
3.70553e-10
4.13502e-10
3.79908e-10
3.29742e-10
2.76659e-10
2.75787e-10
2.62969e-10
2.60785e-10
2.61005e-10
2.57296e-10
2.60875e-10
2.5691e-10
2.58119e-10
2.59348e-10
2.58242e-10
2.59913e-10
2.60098e-10
2.62061e-10
2.68994e-10
2.80369e-10
2.96167e-10
3.28758e-10
2.90145e-10
2.5569e-10
2.17157e-10
2.17181e-10
2.07723e-10
2.06174e-10
2.06373e-10
2.03505e-10
2.06332e-10
2.0323e-10
2.04184e-10
2.05196e-10
2.04288e-10
2.05619e-10
2.05741e-10
2.0721e-10
2.12276e-10
2.20467e-10
2.31445e-10
2.5411e-10
2.21977e-10
1.98662e-10
1.72424e-10
1.72618e-10
1.66098e-10
1.65055e-10
1.65213e-10
1.63162e-10
1.65235e-10
1.62992e-10
1.63707e-10
1.64467e-10
1.63797e-10
1.64772e-10
1.64861e-10
1.65902e-10
1.69423e-10
1.7507e-10
1.82593e-10
1.98374e-10
1.72542e-10
1.5648e-10
1.37857e-10
1.38217e-10
1.33392e-10
1.32666e-10
1.32789e-10
1.31195e-10
1.32862e-10
1.31072e-10
1.31656e-10
1.32286e-10
1.31743e-10
1.32514e-10
1.3258e-10
1.33383e-10
1.3599e-10
1.40174e-10
1.45637e-10
1.573e-10
1.29689e-10
1.18678e-10
1.04733e-10
1.05294e-10
1.01499e-10
1.01006e-10
1.01095e-10
9.97967e-11
1.01211e-10
9.96968e-11
1.00188e-10
1.0074e-10
1.00267e-10
1.00901e-10
1.00944e-10
1.016e-10
1.03591e-10
1.06892e-10
1.10997e-10
1.2025e-10
8.91348e-11
8.2038e-11
7.27816e-11
7.3225e-11
7.0687e-11
7.0423e-11
7.04664e-11
6.96145e-11
7.05938e-11
6.95629e-11
6.99023e-11
7.02947e-11
6.99602e-11
7.03914e-11
7.04162e-11
7.08833e-11
7.21545e-11
7.44625e-11
7.72617e-11
8.39713e-11
5.87224e-11
5.43395e-11
4.9558e-11
4.9637e-11
4.8417e-11
4.83329e-11
4.8337e-11
4.79846e-11
4.84419e-11
4.79967e-11
4.81652e-11
4.83543e-11
4.81995e-11
4.84048e-11
4.84219e-11
4.86797e-11
4.92755e-11
5.05547e-11
5.22344e-11
5.63204e-11
4.40406e-11
4.11346e-11
3.89851e-11
3.88203e-11
3.83712e-11
3.83695e-11
3.83591e-11
3.82935e-11
3.84395e-11
3.8345e-11
3.84193e-11
3.84786e-11
3.84407e-11
3.85111e-11
3.85303e-11
3.86552e-11
3.88923e-11
3.95352e-11
4.05974e-11
4.30092e-11
3.98151e-11
3.7553e-11
3.6253e-11
3.60424e-11
3.58167e-11
3.58307e-11
3.5824e-11
3.58278e-11
3.58963e-11
3.58895e-11
3.5947e-11
3.59651e-11
3.5966e-11
3.59949e-11
3.60202e-11
3.60976e-11
3.62469e-11
3.66666e-11
3.75247e-11
3.9326e-11
)
;

boundaryField
{
    fuel
    {
        type            fixedValue;
        value           nonuniform 0();
    }
    wall
    {
        type            zeroGradient;
    }
    outlet
    {
        type            zeroGradient;
    }
    frontAndBack
    {
        type            empty;
    }
    procBoundary1to0
    {
        type            processor;
        value           nonuniform List<scalar> 
21
(
8.16776e-10
6.57979e-10
5.51851e-10
5.29739e-10
5.13751e-10
5.10149e-10
5.09934e-10
5.07308e-10
5.09798e-10
5.07397e-10
4.76064e-10
4.76064e-10
4.77155e-10
4.7598e-10
4.77727e-10
4.7821e-10
4.80922e-10
4.91044e-10
5.13627e-10
5.66309e-10
6.68249e-10
)
;
    }
}


// ************************************************************************* //
