/*--------------------------------*- C++ -*----------------------------------*\
| =========                 |                                                 |
| \\      /  F ield         | OpenFOAM: The Open Source CFD Toolbox           |
|  \\    /   O peration     | Version:  dev                                   |
|   \\  /    A nd           | Web:      www.OpenFOAM.org                      |
|    \\/     M anipulation  |                                                 |
\*---------------------------------------------------------------------------*/
FoamFile
{
    version     2.0;
    format      ascii;
    class       volScalarField;
    location    "0.105";
    object      H2O2;
}
// * * * * * * * * * * * * * * * * * * * * * * * * * * * * * * * * * * * * * //

dimensions      [0 0 0 0 0 0 0];

internalField   nonuniform List<scalar> 
250
(
4.85351e-12
5.50231e-12
4.80797e-12
5.08369e-12
4.70239e-12
4.63761e-12
4.64527e-12
4.49977e-12
4.62124e-12
4.47775e-12
3.55809e-12
3.97261e-12
3.41399e-12
3.61413e-12
3.33186e-12
3.28547e-12
3.29142e-12
3.18224e-12
3.27497e-12
3.16553e-12
3.18964e-12
3.23273e-12
3.19258e-12
3.24602e-12
3.247e-12
3.27597e-12
3.39428e-12
3.4753e-12
3.33821e-12
3.95671e-12
2.54505e-12
2.79602e-12
2.37047e-12
2.51255e-12
2.3116e-12
2.27947e-12
2.28399e-12
2.20373e-12
2.27315e-12
2.19143e-12
2.20906e-12
2.24245e-12
2.21116e-12
2.25157e-12
2.25172e-12
2.27257e-12
2.35778e-12
2.42413e-12
2.36359e-12
2.8547e-12
1.79168e-12
1.92748e-12
1.61594e-12
1.71501e-12
1.57695e-12
1.55544e-12
1.5588e-12
1.49987e-12
1.5519e-12
1.49106e-12
1.50364e-12
1.53021e-12
1.50507e-12
1.53626e-12
1.53596e-12
1.55037e-12
1.60966e-12
1.65857e-12
1.64114e-12
2.03674e-12
1.25951e-12
1.30924e-12
1.08529e-12
1.1482e-12
1.05209e-12
1.03735e-12
1.03999e-12
1.00601e-12
1.03564e-12
9.99917e-13
1.00873e-12
1.02015e-12
1.00956e-12
1.02415e-12
1.02377e-12
1.03418e-12
1.07565e-12
1.11666e-12
1.11887e-12
1.44847e-12
9.08942e-13
8.83097e-13
7.19746e-13
7.60105e-13
6.9621e-13
6.86616e-13
6.88563e-13
6.65518e-13
6.85928e-13
6.61353e-13
6.6745e-13
6.75258e-13
6.67933e-13
6.77806e-13
6.77364e-13
6.84468e-13
7.12185e-13
7.41129e-13
7.55406e-13
1.03291e-12
7.18456e-13
6.01286e-13
4.72376e-13
4.95908e-13
4.54134e-13
4.48007e-13
4.49379e-13
4.33978e-13
4.47848e-13
4.31165e-13
4.35319e-13
4.40622e-13
4.35607e-13
4.42197e-13
4.41818e-13
4.46447e-13
4.64721e-13
4.84838e-13
5.06162e-13
7.58608e-13
7.24845e-13
4.39525e-13
3.14391e-13
3.22997e-13
2.96759e-13
2.92912e-13
2.9384e-13
2.84009e-13
2.92956e-13
2.82171e-13
2.84869e-13
2.88291e-13
2.85062e-13
2.89227e-13
2.88989e-13
2.91802e-13
3.03365e-13
3.17028e-13
3.44261e-13
5.91235e-13
1.07041e-12
4.10226e-13
2.39017e-13
2.30823e-13
2.15589e-13
2.12942e-13
2.13621e-13
2.07751e-13
2.1297e-13
2.06561e-13
2.08172e-13
2.102e-13
2.08386e-13
2.10758e-13
2.10755e-13
2.12218e-13
2.19256e-13
2.28471e-13
2.6357e-13
5.17698e-13
1.70257e-12
4.89635e-13
2.28771e-13
2.05558e-13
1.95894e-13
1.93317e-13
1.94007e-13
1.89822e-13
1.93333e-13
1.88832e-13
1.8994e-13
1.91457e-13
1.90337e-13
1.91853e-13
1.92147e-13
1.93012e-13
1.98356e-13
2.06603e-13
2.52232e-13
5.07204e-13
2.03255e-12
5.34723e-13
2.31956e-13
2.03314e-13
1.96104e-13
1.93263e-13
1.94037e-13
1.90273e-13
1.93323e-13
1.89262e-13
1.9016e-13
1.91768e-13
1.90805e-13
1.92078e-13
1.92595e-13
1.93383e-13
1.98445e-13
2.07536e-13
2.60602e-13
4.9951e-13
1.9238e-12
5.04222e-13
2.28168e-13
2.01466e-13
1.96179e-13
1.93229e-13
1.94032e-13
1.90593e-13
1.93294e-13
1.89566e-13
1.90233e-13
1.92024e-13
1.91088e-13
1.9226e-13
1.92886e-13
1.93702e-13
1.98426e-13
2.08003e-13
2.63824e-13
4.85263e-13
1.73472e-12
4.62232e-13
2.23322e-13
1.99774e-13
1.95781e-13
1.92822e-13
1.93621e-13
1.90447e-13
1.9287e-13
1.89419e-13
1.89885e-13
1.9183e-13
1.90882e-13
1.9201e-13
1.92674e-13
1.93524e-13
1.97925e-13
2.07715e-13
2.64984e-13
4.81562e-13
)
;

boundaryField
{
    fuel
    {
        type            fixedValue;
        value           nonuniform 0();
    }
    wall
    {
        type            zeroGradient;
    }
    outlet
    {
        type            zeroGradient;
    }
    frontAndBack
    {
        type            empty;
    }
    procBoundary1to0
    {
        type            processor;
        value           nonuniform List<scalar> 
21
(
6.42433e-12
7.40156e-12
6.59879e-12
6.96963e-12
6.47523e-12
6.38883e-12
6.39781e-12
6.21045e-12
6.36429e-12
6.18234e-12
4.50964e-12
4.50964e-12
4.56491e-12
4.51363e-12
4.58352e-12
4.58571e-12
4.6247e-12
4.78068e-12
4.86912e-12
4.60158e-12
5.42666e-12
)
;
    }
}


// ************************************************************************* //
