/*--------------------------------*- C++ -*----------------------------------*\
| =========                 |                                                 |
| \\      /  F ield         | OpenFOAM: The Open Source CFD Toolbox           |
|  \\    /   O peration     | Version:  dev                                   |
|   \\  /    A nd           | Web:      www.OpenFOAM.org                      |
|    \\/     M anipulation  |                                                 |
\*---------------------------------------------------------------------------*/
FoamFile
{
    version     2.0;
    format      ascii;
    class       volScalarField;
    location    "0.105";
    object      HCO;
}
// * * * * * * * * * * * * * * * * * * * * * * * * * * * * * * * * * * * * * //

dimensions      [0 0 0 0 0 0 0];

internalField   nonuniform List<scalar> 
50
(
2.81429e-07
2.79398e-07
2.77333e-07
2.75239e-07
2.73115e-07
2.70965e-07
2.6879e-07
2.66592e-07
2.64372e-07
2.62132e-07
2.59875e-07
2.576e-07
2.55311e-07
2.53009e-07
2.50694e-07
2.48369e-07
2.46035e-07
2.43694e-07
2.41346e-07
2.38994e-07
2.36638e-07
2.3428e-07
2.31921e-07
2.29562e-07
2.27205e-07
2.24851e-07
2.22501e-07
2.20156e-07
2.17817e-07
2.15486e-07
2.13164e-07
2.10851e-07
2.0855e-07
2.0626e-07
2.03984e-07
2.01722e-07
1.99475e-07
1.97245e-07
1.95033e-07
1.92839e-07
1.90664e-07
1.8851e-07
1.86377e-07
1.84265e-07
1.82198e-07
1.8015e-07
1.78112e-07
1.76102e-07
1.74123e-07
1.7218e-07
)
;

boundaryField
{
    wall
    {
        type            zeroGradient;
    }
    fuel
    {
        type            fixedValue;
        value           nonuniform 0();
    }
    outlet
    {
        type            inletOutlet;
        inletValue      nonuniform 0();
        value           nonuniform 0();
    }
    procBoundary1to0
    {
        type            processor;
        value           uniform 2.83431e-07;
    }
    procBoundary1to2
    {
        type            processor;
        value           uniform 1.70252e-07;
    }
}


// ************************************************************************* //
