/*--------------------------------*- C++ -*----------------------------------*\
| =========                 |                                                 |
| \\      /  F ield         | OpenFOAM: The Open Source CFD Toolbox           |
|  \\    /   O peration     | Version:  dev                                   |
|   \\  /    A nd           | Web:      www.OpenFOAM.org                      |
|    \\/     M anipulation  |                                                 |
\*---------------------------------------------------------------------------*/
FoamFile
{
    version     2.0;
    format      ascii;
    class       volScalarField;
    location    "0.105";
    object      HO2;
}
// * * * * * * * * * * * * * * * * * * * * * * * * * * * * * * * * * * * * * //

dimensions      [0 0 0 0 0 0 0];

internalField   nonuniform List<scalar> 
250
(
3.69995e-10
1.41197e-11
1.64741e-12
8.01445e-13
9.01664e-13
7.91668e-13
8.28726e-13
7.91379e-13
8.07019e-13
7.96293e-13
2.458e-10
1.01928e-11
1.09889e-12
4.8671e-13
5.39121e-13
4.75547e-13
4.97097e-13
4.75285e-13
4.8454e-13
4.78236e-13
4.70292e-13
4.97359e-13
4.69893e-13
5.05317e-13
4.87577e-13
5.16712e-13
5.57009e-13
6.58174e-13
2.14576e-12
1.13528e-11
1.62911e-10
7.38512e-12
7.48654e-13
3.05332e-13
3.29331e-13
2.94446e-13
3.06315e-13
2.94179e-13
2.99379e-13
2.9585e-13
2.91262e-13
3.06759e-13
2.91058e-13
3.11241e-13
3.01016e-13
3.17831e-13
3.44503e-13
4.78281e-13
2.16556e-12
1.27194e-11
1.08373e-10
5.39739e-12
5.3288e-13
2.06608e-13
2.15386e-13
1.96569e-13
2.03063e-13
1.96276e-13
1.99143e-13
1.9718e-13
1.94533e-13
2.03392e-13
1.94455e-13
2.05992e-13
2.00069e-13
2.10051e-13
2.29435e-13
3.8835e-13
2.27603e-12
1.39847e-11
7.28959e-11
4.00249e-12
4.01586e-13
1.54097e-13
1.5599e-13
1.45709e-13
1.4899e-13
1.45388e-13
1.47022e-13
1.4586e-13
1.44246e-13
1.49623e-13
1.44245e-13
1.51277e-13
1.47601e-13
1.54129e-13
1.70145e-13
3.4889e-13
2.43026e-12
1.51417e-11
5.008e-11
3.03001e-12
3.20839e-13
1.27444e-13
1.26071e-13
1.19863e-13
1.21811e-13
1.19506e-13
1.20522e-13
1.19739e-13
1.18646e-13
1.22313e-13
1.18692e-13
1.23512e-13
1.20933e-13
1.25845e-13
1.406e-13
3.36041e-13
2.60835e-12
1.62932e-11
3.51469e-11
2.35427e-12
2.70489e-13
1.14511e-13
1.11709e-13
1.07594e-13
1.08792e-13
1.07185e-13
1.07892e-13
1.07282e-13
1.06441e-13
1.09296e-13
1.06521e-13
1.10276e-13
1.08219e-13
1.12425e-13
1.26942e-13
3.38204e-13
2.81458e-12
1.75758e-11
2.5699e-11
1.88953e-12
2.40728e-13
1.1126e-13
1.07611e-13
1.04776e-13
1.05464e-13
1.04271e-13
1.04806e-13
1.04273e-13
1.03553e-13
1.06004e-13
1.03669e-13
1.06879e-13
1.0509e-13
1.09022e-13
1.23817e-13
3.53015e-13
3.07704e-12
1.92805e-11
1.9536e-11
1.59332e-12
2.31844e-13
1.21618e-13
1.16525e-13
1.15079e-13
1.15111e-13
1.14357e-13
1.1472e-13
1.142e-13
1.1359e-13
1.15693e-13
1.13788e-13
1.16528e-13
1.14979e-13
1.18848e-13
1.34311e-13
3.90808e-13
3.48292e-12
2.20758e-11
1.57576e-11
1.48347e-12
2.62837e-13
1.65219e-13
1.56365e-13
1.57279e-13
1.56011e-13
1.55981e-13
1.5609e-13
1.5538e-13
1.54979e-13
1.56636e-13
1.55414e-13
1.57526e-13
1.56313e-13
1.60494e-13
1.77433e-13
4.88685e-13
4.28284e-12
2.78723e-11
1.38025e-11
1.57518e-12
3.70952e-13
2.73542e-13
2.58437e-13
2.61497e-13
2.58561e-13
2.58903e-13
2.59069e-13
2.57335e-13
2.56999e-13
2.59443e-13
2.57939e-13
2.60664e-13
2.59116e-13
2.65395e-13
2.85581e-13
6.90991e-13
5.7507e-12
3.9047e-11
1.23246e-11
1.73617e-12
5.47662e-13
4.35187e-13
4.1509e-13
4.16776e-13
4.13295e-13
4.12318e-13
4.13536e-13
4.09432e-13
4.08522e-13
4.14949e-13
4.10125e-13
4.16847e-13
4.13066e-13
4.24369e-13
4.48602e-13
9.41429e-13
7.32299e-12
5.21935e-11
1.12479e-11
1.88199e-12
7.13717e-13
5.8068e-13
5.58367e-13
5.56473e-13
5.53552e-13
5.50379e-13
5.53085e-13
5.46385e-13
5.44556e-13
5.56215e-13
5.46689e-13
5.58794e-13
5.51931e-13
5.6884e-13
5.95905e-13
1.13653e-12
8.31637e-12
6.18074e-11
)
;

boundaryField
{
    fuel
    {
        type            fixedValue;
        value           nonuniform 0();
    }
    wall
    {
        type            zeroGradient;
    }
    outlet
    {
        type            zeroGradient;
    }
    frontAndBack
    {
        type            empty;
    }
    procBoundary1to0
    {
        type            processor;
        value           nonuniform List<scalar> 
21
(
5.55006e-10
1.95916e-11
2.46719e-12
1.31172e-12
1.48656e-12
1.30708e-12
1.36726e-12
1.30691e-12
1.33186e-12
1.31466e-12
7.83099e-13
7.83099e-13
8.28366e-13
7.82439e-13
8.42165e-13
8.12672e-13
8.61758e-13
9.24684e-13
9.82622e-13
2.27788e-12
9.90686e-12
)
;
    }
}


// ************************************************************************* //
