/*--------------------------------*- C++ -*----------------------------------*\
| =========                 |                                                 |
| \\      /  F ield         | OpenFOAM: The Open Source CFD Toolbox           |
|  \\    /   O peration     | Version:  dev                                   |
|   \\  /    A nd           | Web:      www.OpenFOAM.org                      |
|    \\/     M anipulation  |                                                 |
\*---------------------------------------------------------------------------*/
FoamFile
{
    version     2.0;
    format      ascii;
    class       volScalarField;
    location    "0.105";
    object      n-A1C2H2;
}
// * * * * * * * * * * * * * * * * * * * * * * * * * * * * * * * * * * * * * //

dimensions      [0 0 0 0 0 0 0];

internalField   nonuniform List<scalar> 
50
(
6.21802e-20
5.46714e-20
4.8096e-20
4.23408e-20
3.7305e-20
3.28989e-20
2.90426e-20
2.56656e-20
2.27058e-20
2.0109e-20
1.78279e-20
1.58216e-20
1.40546e-20
1.24964e-20
1.11204e-20
9.90378e-21
8.82682e-21
7.8724e-21
7.02569e-21
6.27382e-21
5.6056e-21
5.01125e-21
4.48225e-21
4.01111e-21
3.59127e-21
3.21696e-21
2.8831e-21
2.5852e-21
2.31927e-21
2.08181e-21
1.86969e-21
1.68015e-21
1.51073e-21
1.35924e-21
1.22374e-21
1.10249e-21
9.9397e-22
8.96794e-22
8.09747e-22
7.31741e-22
6.61809e-22
5.99085e-22
5.42793e-22
4.9223e-22
4.47307e-22
4.06873e-22
3.70244e-22
3.3735e-22
3.07771e-22
2.81109e-22
)
;

boundaryField
{
    wall
    {
        type            zeroGradient;
    }
    fuel
    {
        type            fixedValue;
        value           nonuniform 0();
    }
    outlet
    {
        type            inletOutlet;
        inletValue      nonuniform 0();
        value           nonuniform 0();
    }
    procBoundary1to0
    {
        type            processor;
        value           uniform 7.08965e-20;
    }
    procBoundary1to2
    {
        type            processor;
        value           uniform 2.56886e-22;
    }
}


// ************************************************************************* //
