/*--------------------------------*- C++ -*----------------------------------*\
| =========                 |                                                 |
| \\      /  F ield         | OpenFOAM: The Open Source CFD Toolbox           |
|  \\    /   O peration     | Version:  dev                                   |
|   \\  /    A nd           | Web:      www.OpenFOAM.org                      |
|    \\/     M anipulation  |                                                 |
\*---------------------------------------------------------------------------*/
FoamFile
{
    version     2.0;
    format      ascii;
    class       volScalarField;
    location    "0.105";
    object      O;
}
// * * * * * * * * * * * * * * * * * * * * * * * * * * * * * * * * * * * * * //

dimensions      [0 0 0 0 0 0 0];

internalField   nonuniform List<scalar> 
250
(
1.89427e-09
1.29315e-09
2.22723e-09
1.54248e-09
1.79828e-09
1.55937e-09
1.64116e-09
1.55909e-09
1.59327e-09
1.56932e-09
1.18563e-09
7.33398e-10
1.26098e-09
8.42983e-10
9.89432e-10
8.49744e-10
8.98071e-10
8.49573e-10
8.70088e-10
8.55857e-10
8.38485e-10
8.98315e-10
8.37663e-10
9.15003e-10
8.76135e-10
9.37386e-10
1.0095e-09
9.54338e-10
1.21085e-09
9.33955e-10
6.86723e-10
3.86477e-10
6.62918e-10
4.29283e-10
5.06789e-10
4.31345e-10
4.57814e-10
4.31279e-10
4.42632e-10
4.34817e-10
4.25127e-10
4.58419e-10
4.24631e-10
4.67112e-10
4.45505e-10
4.78743e-10
5.18309e-10
4.90909e-10
6.45115e-10
5.0819e-10
3.64637e-10
1.87616e-10
3.20843e-10
2.02069e-10
2.39744e-10
2.02147e-10
2.15842e-10
2.02158e-10
2.079e-10
2.03944e-10
1.99034e-10
2.16046e-10
1.98754e-10
2.20193e-10
2.09099e-10
2.25732e-10
2.4557e-10
2.32973e-10
3.16893e-10
2.56159e-10
1.7544e-10
8.27253e-11
1.41031e-10
8.55731e-11
1.02843e-10
8.61682e-11
9.19733e-11
8.62158e-11
8.88397e-11
8.70101e-11
8.47828e-11
9.2677e-11
8.46356e-11
9.44673e-11
8.92549e-11
9.68605e-11
1.05855e-10
1.00591e-10
1.41724e-10
1.1872e-10
7.53788e-11
3.23431e-11
5.50626e-11
3.24501e-11
3.93084e-11
3.25807e-11
3.50291e-11
3.26216e-11
3.36857e-11
3.29325e-11
3.20389e-11
3.53008e-11
3.19686e-11
3.5985e-11
3.37976e-11
3.69031e-11
4.05205e-11
3.85732e-11
5.64887e-11
4.91823e-11
2.75115e-11
1.07614e-11
1.83598e-11
1.04532e-11
1.27819e-11
1.04679e-11
1.13289e-11
1.04893e-11
1.08605e-11
1.05971e-11
1.02866e-11
1.14444e-11
1.02574e-11
1.16669e-11
1.08817e-11
1.19662e-11
1.32127e-11
1.26008e-11
1.93454e-11
1.80542e-11
8.43654e-12
2.84798e-12
4.88439e-12
2.65978e-12
3.29663e-12
2.65863e-12
2.90038e-12
2.66624e-12
2.77071e-12
2.69773e-12
2.60957e-12
2.93981e-12
2.59986e-12
2.9972e-12
2.77245e-12
3.0739e-12
3.41887e-12
3.26769e-12
5.3565e-12
5.65813e-12
2.0479e-12
5.46885e-13
9.28121e-13
4.78501e-13
6.0352e-13
4.77925e-13
5.26407e-13
4.79735e-13
5.00824e-13
4.86486e-13
4.68401e-13
5.35649e-13
4.6614e-13
5.46095e-13
5.00421e-13
5.59719e-13
6.28126e-13
6.04026e-13
1.10596e-12
1.5454e-12
4.53684e-13
7.72098e-14
1.10872e-13
5.45699e-14
6.95778e-14
5.44581e-14
6.0412e-14
5.47089e-14
5.73181e-14
5.55886e-14
5.33075e-14
6.16945e-14
5.29965e-14
6.2857e-14
5.71856e-14
6.43176e-14
7.27479e-14
7.30905e-14
1.81274e-13
4.99654e-13
1.62708e-13
1.55707e-14
8.9874e-15
4.45564e-15
5.37725e-15
4.38751e-15
4.78112e-15
4.39637e-15
4.57514e-15
4.45475e-15
4.29064e-15
4.88397e-15
4.26974e-15
4.9613e-15
4.56101e-15
5.06907e-15
5.76862e-15
8.48052e-15
5.38842e-14
3.07473e-13
9.09774e-14
8.04853e-15
2.19049e-15
1.2854e-15
1.31726e-15
1.22923e-15
1.26064e-15
1.22e-15
1.24012e-15
1.22206e-15
1.19804e-15
1.28085e-15
1.19763e-15
1.29388e-15
1.23681e-15
1.32405e-15
1.49085e-15
3.73477e-15
3.79606e-14
2.55739e-13
6.40023e-14
6.50103e-15
2.01962e-15
1.31298e-15
1.31528e-15
1.24873e-15
1.27062e-15
1.23547e-15
1.25339e-15
1.23498e-15
1.20885e-15
1.29688e-15
1.20839e-15
1.30924e-15
1.24707e-15
1.34024e-15
1.47864e-15
3.52963e-15
3.60966e-14
2.61857e-13
)
;

boundaryField
{
    fuel
    {
        type            fixedValue;
        value           nonuniform 0();
    }
    wall
    {
        type            zeroGradient;
    }
    outlet
    {
        type            zeroGradient;
    }
    frontAndBack
    {
        type            empty;
    }
    procBoundary1to0
    {
        type            processor;
        value           nonuniform List<scalar> 
21
(
2.83107e-09
2.13042e-09
3.68049e-09
2.64355e-09
3.06291e-09
2.68107e-09
2.81094e-09
2.68108e-09
2.73437e-09
2.69674e-09
1.54069e-09
1.54069e-09
1.63998e-09
1.53945e-09
1.66946e-09
1.60498e-09
1.70904e-09
1.83039e-09
1.72592e-09
2.11277e-09
1.60123e-09
)
;
    }
}


// ************************************************************************* //
