/*--------------------------------*- C++ -*----------------------------------*\
| =========                 |                                                 |
| \\      /  F ield         | OpenFOAM: The Open Source CFD Toolbox           |
|  \\    /   O peration     | Version:  dev                                   |
|   \\  /    A nd           | Web:      www.OpenFOAM.org                      |
|    \\/     M anipulation  |                                                 |
\*---------------------------------------------------------------------------*/
FoamFile
{
    version     2.0;
    format      ascii;
    class       volScalarField;
    location    "0.105";
    object      p;
}
// * * * * * * * * * * * * * * * * * * * * * * * * * * * * * * * * * * * * * //

dimensions      [1 -1 -2 0 0 0 0];

internalField   nonuniform List<scalar> 
250
(
100003
99994.7
99999.1
99995.5
99997
99995.9
99996.7
99996.8
99997.8
99998.7
100003
99994.8
99999.1
99995.5
99997
99995.9
99996.7
99996.8
99997.8
99998.7
99999.9
100001
100002
100003
100003
100003
100003
100002
100001
100001
100003
99994.9
99999.1
99995.6
99997
99995.9
99996.7
99996.9
99997.8
99998.7
99999.9
100001
100002
100003
100003
100003
100003
100002
100001
100001
100003
99995
99999
99995.6
99997
99995.9
99996.7
99996.9
99997.8
99998.7
99999.9
100001
100002
100003
100003
100003
100003
100002
100001
100001
100003
99995
99999
99995.6
99997
99995.9
99996.7
99996.9
99997.8
99998.7
99999.9
100001
100002
100003
100003
100003
100003
100002
100001
100001
100003
99995.1
99999
99995.7
99997
99996
99996.7
99996.9
99997.8
99998.7
99999.9
100001
100002
100003
100003
100003
100003
100002
100001
100001
100003
99995.2
99999
99995.7
99997
99996
99996.7
99996.9
99997.8
99998.7
99999.9
100001
100002
100003
100003
100003
100003
100002
100001
100001
100003
99995.2
99998.9
99995.7
99997
99996
99996.7
99996.9
99997.8
99998.7
99999.9
100001
100002
100003
100003
100003
100003
100002
100001
100001
100003
99995.3
99998.9
99995.8
99997
99996
99996.7
99996.9
99997.8
99998.7
99999.9
100001
100002
100003
100003
100003
100003
100002
100001
100001
100003
99995.3
99998.9
99995.8
99997
99996
99996.7
99996.9
99997.8
99998.7
99999.9
100001
100002
100003
100003
100003
100003
100002
100001
100001
100003
99995.3
99998.9
99995.8
99997
99996
99996.7
99996.9
99997.8
99998.7
99999.9
100001
100002
100003
100003
100003
100003
100002
100002
100001
100003
99995.3
99998.9
99995.8
99997
99996
99996.7
99996.9
99997.8
99998.7
99999.9
100001
100002
100003
100003
100003
100003
100002
100002
100001
100003
99995.4
99998.9
99995.8
99997
99996
99996.7
99996.9
99997.8
99998.7
99999.9
100001
100002
100003
100003
100003
100003
100002
100002
100001
)
;

boundaryField
{
    fuel
    {
        type            zeroGradient;
    }
    wall
    {
        type            zeroGradient;
    }
    outlet
    {
        type            totalPressure;
        rho             none;
        psi             none;
        gamma           1;
        p0              uniform 100000;
        value           uniform 100000;
    }
    frontAndBack
    {
        type            empty;
    }
    procBoundary1to0
    {
        type            processor;
        value           nonuniform List<scalar> 
21
(
100003
99994.6
99999.2
99995.4
99997
99995.9
99996.7
99996.8
99997.8
99998.7
99999.9
99999.9
100001
100002
100002
100003
100003
100003
100002
100001
100001
)
;
    }
}


// ************************************************************************* //
