/*--------------------------------*- C++ -*----------------------------------*\
| =========                 |                                                 |
| \\      /  F ield         | OpenFOAM: The Open Source CFD Toolbox           |
|  \\    /   O peration     | Version:  dev                                   |
|   \\  /    A nd           | Web:      www.OpenFOAM.org                      |
|    \\/     M anipulation  |                                                 |
\*---------------------------------------------------------------------------*/
FoamFile
{
    version     2.0;
    format      ascii;
    class       volScalarField;
    location    "0.105";
    object      P2;
}
// * * * * * * * * * * * * * * * * * * * * * * * * * * * * * * * * * * * * * //

dimensions      [0 0 0 0 0 0 0];

internalField   nonuniform List<scalar> 
250
(
1.90678e-09
6.66256e-10
4.84752e-10
4.56138e-10
4.36878e-10
4.40786e-10
4.37973e-10
4.407e-10
4.39983e-10
4.41421e-10
1.54665e-09
6.48367e-10
5.00908e-10
4.73461e-10
4.57289e-10
4.59758e-10
4.57555e-10
4.59712e-10
4.59183e-10
4.6043e-10
4.60863e-10
4.57563e-10
4.59964e-10
4.56215e-10
4.58519e-10
4.58633e-10
4.67673e-10
5.14396e-10
7.14927e-10
1.5644e-09
1.28032e-09
6.29158e-10
5.11198e-10
4.84913e-10
4.7176e-10
4.72904e-10
4.71294e-10
4.72905e-10
4.72557e-10
4.73614e-10
4.7394e-10
4.71203e-10
4.7305e-10
4.70022e-10
4.71938e-10
4.72253e-10
4.80826e-10
5.21484e-10
6.9914e-10
1.42207e-09
1.08177e-09
6.09268e-10
5.15992e-10
4.91323e-10
4.80849e-10
4.8098e-10
4.79856e-10
4.81026e-10
4.80826e-10
4.8172e-10
4.81952e-10
4.79705e-10
4.81086e-10
4.78672e-10
4.80244e-10
4.80661e-10
4.88598e-10
5.23213e-10
6.76723e-10
1.27748e-09
9.32781e-10
5.90054e-10
5.16651e-10
4.94394e-10
4.86051e-10
4.85576e-10
4.84826e-10
4.8566e-10
4.85552e-10
4.86327e-10
4.86498e-10
4.84597e-10
4.85666e-10
4.83683e-10
4.85001e-10
4.85388e-10
4.92511e-10
5.21408e-10
6.50625e-10
1.13952e-09
8.21521e-10
5.73434e-10
5.1539e-10
4.96334e-10
4.8954e-10
4.88934e-10
4.88347e-10
4.89049e-10
4.88967e-10
4.89674e-10
4.89826e-10
4.88094e-10
4.89037e-10
4.87267e-10
4.8844e-10
4.88668e-10
4.94824e-10
5.18558e-10
6.24314e-10
1.01294e-09
7.38502e-10
5.61575e-10
5.14988e-10
4.9977e-10
4.93967e-10
4.93605e-10
4.93033e-10
4.93738e-10
4.93624e-10
4.94309e-10
4.94481e-10
4.92755e-10
4.93739e-10
4.91992e-10
4.93115e-10
4.93102e-10
4.98198e-10
5.17455e-10
6.01412e-10
9.05052e-10
6.81946e-10
5.56303e-10
5.18172e-10
5.06918e-10
5.01716e-10
5.01791e-10
5.01144e-10
5.0193e-10
5.01754e-10
5.02442e-10
5.02649e-10
5.00851e-10
5.01954e-10
5.00143e-10
5.01261e-10
5.01012e-10
5.05058e-10
5.20564e-10
5.85115e-10
8.17727e-10
6.46616e-10
5.58197e-10
5.26608e-10
5.18705e-10
5.13978e-10
5.14425e-10
5.13714e-10
5.14557e-10
5.14339e-10
5.15024e-10
5.15239e-10
5.1343e-10
5.14584e-10
5.12785e-10
5.13854e-10
5.13488e-10
5.16627e-10
5.29061e-10
5.77267e-10
7.5162e-10
6.28514e-10
5.65672e-10
5.39694e-10
5.33852e-10
5.29733e-10
5.30249e-10
5.29589e-10
5.30372e-10
5.30175e-10
5.30823e-10
5.30979e-10
5.29354e-10
5.30347e-10
5.2879e-10
5.29681e-10
5.29405e-10
5.31889e-10
5.4184e-10
5.7725e-10
7.04623e-10
6.2122e-10
5.74492e-10
5.53718e-10
5.48427e-10
5.45163e-10
5.45372e-10
5.44919e-10
5.45493e-10
5.45393e-10
5.45959e-10
5.45984e-10
5.44776e-10
5.45357e-10
5.44303e-10
5.44868e-10
5.44881e-10
5.46993e-10
5.54958e-10
5.81206e-10
6.71768e-10
6.16144e-10
5.79051e-10
5.62657e-10
5.57227e-10
5.54836e-10
5.54632e-10
5.54434e-10
5.5477e-10
5.54784e-10
5.55261e-10
5.55152e-10
5.54379e-10
5.54522e-10
5.53977e-10
5.54217e-10
5.54512e-10
5.56404e-10
5.62831e-10
5.82797e-10
6.46276e-10
6.10223e-10
5.79006e-10
5.65156e-10
5.59964e-10
5.58071e-10
5.57706e-10
5.57636e-10
5.57864e-10
5.5793e-10
5.58363e-10
5.58202e-10
5.5761e-10
5.57573e-10
5.57239e-10
5.57339e-10
5.57717e-10
5.59407e-10
5.64846e-10
5.80641e-10
6.27677e-10
)
;

boundaryField
{
    fuel
    {
        type            fixedValue;
        value           nonuniform 0();
    }
    wall
    {
        type            zeroGradient;
    }
    outlet
    {
        type            zeroGradient;
    }
    frontAndBack
    {
        type            empty;
    }
    procBoundary1to0
    {
        type            processor;
        value           nonuniform List<scalar> 
21
(
2.39595e-09
6.83007e-10
4.63372e-10
4.33027e-10
4.10924e-10
4.16149e-10
4.12799e-10
4.16034e-10
4.15153e-10
4.16754e-10
4.41957e-10
4.41957e-10
4.38104e-10
4.41064e-10
4.36591e-10
4.3927e-10
4.39141e-10
4.48517e-10
5.00976e-10
7.22007e-10
1.69481e-09
)
;
    }
}


// ************************************************************************* //
