/*--------------------------------*- C++ -*----------------------------------*\
| =========                 |                                                 |
| \\      /  F ield         | OpenFOAM: The Open Source CFD Toolbox           |
|  \\    /   O peration     | Version:  dev                                   |
|   \\  /    A nd           | Web:      www.OpenFOAM.org                      |
|    \\/     M anipulation  |                                                 |
\*---------------------------------------------------------------------------*/
FoamFile
{
    version     2.0;
    format      ascii;
    class       volScalarField;
    location    "0.105";
    object      P2-;
}
// * * * * * * * * * * * * * * * * * * * * * * * * * * * * * * * * * * * * * //

dimensions      [0 0 0 0 0 0 0];

internalField   nonuniform List<scalar> 
250
(
3.86865e-12
2.53974e-12
1.75523e-12
1.6496e-12
1.53449e-12
1.51222e-12
1.5114e-12
1.48589e-12
1.50997e-12
1.48457e-12
2.92963e-12
1.96567e-12
1.36707e-12
1.30306e-12
1.20836e-12
1.19102e-12
1.19082e-12
1.16718e-12
1.18967e-12
1.16572e-12
1.17196e-12
1.18167e-12
1.17231e-12
1.18533e-12
1.18736e-12
1.20244e-12
1.25757e-12
1.37613e-12
1.64688e-12
2.26353e-12
2.12074e-12
1.45817e-12
1.02094e-12
9.86324e-13
9.12199e-13
8.9938e-13
8.99554e-13
8.78953e-13
8.98777e-13
8.77555e-13
8.82993e-13
8.92027e-13
8.83453e-13
8.95047e-13
8.96384e-13
9.07946e-13
9.49602e-13
1.03316e-12
1.20632e-12
1.59766e-12
1.46557e-12
1.03503e-12
7.30326e-13
7.14778e-13
6.59768e-13
6.50807e-13
6.51172e-13
6.33947e-13
6.50748e-13
6.32742e-13
6.37205e-13
6.4541e-13
6.37662e-13
6.47736e-13
6.48518e-13
6.56979e-13
6.87031e-13
7.43469e-13
8.5112e-13
1.09413e-12
9.64794e-13
7.0121e-13
4.99126e-13
4.93004e-13
4.52956e-13
4.46791e-13
4.47272e-13
4.36708e-13
4.47079e-13
4.35778e-13
4.39239e-13
4.42913e-13
4.396e-13
4.44623e-13
4.45059e-13
4.5118e-13
4.72311e-13
5.11312e-13
5.74718e-13
7.23987e-13
6.01845e-13
4.5087e-13
3.23883e-13
3.23456e-13
2.96513e-13
2.92622e-13
2.93059e-13
2.85443e-13
2.93048e-13
2.84759e-13
2.87297e-13
2.90079e-13
2.87572e-13
2.91238e-13
2.91426e-13
2.95556e-13
3.0942e-13
3.34003e-13
3.70433e-13
4.56297e-13
3.51543e-13
2.71801e-13
1.96815e-13
1.98678e-13
1.81592e-13
1.79301e-13
1.79632e-13
1.74492e-13
1.7972e-13
1.74013e-13
1.75762e-13
1.77722e-13
1.75959e-13
1.78447e-13
1.78508e-13
1.81108e-13
1.8971e-13
2.04424e-13
2.24244e-13
2.72858e-13
1.87584e-13
1.49821e-13
1.08964e-13
1.11208e-13
1.01183e-13
9.99555e-14
1.00168e-13
9.69808e-14
1.00288e-13
9.66667e-14
9.77737e-14
9.904e-14
9.7904e-14
9.94473e-14
9.94525e-14
1.00969e-13
1.05886e-13
1.14093e-13
1.24047e-13
1.49804e-13
8.73354e-14
7.20829e-14
5.23765e-14
5.40703e-14
4.88745e-14
4.83077e-14
4.84189e-14
4.66901e-14
4.85212e-14
4.65081e-14
4.71198e-14
4.78328e-14
4.7194e-14
4.80282e-14
4.80164e-14
4.88e-14
5.12675e-14
5.53462e-14
5.97378e-14
7.1965e-14
3.32235e-14
2.83119e-14
2.05155e-14
2.14082e-14
1.92185e-14
1.9011e-14
1.90543e-14
1.83015e-14
1.91162e-14
1.82172e-14
1.84887e-14
1.88099e-14
1.85224e-14
1.88841e-14
1.88742e-14
1.92087e-14
2.0204e-14
2.18776e-14
2.34568e-14
2.82731e-14
9.46086e-15
8.27059e-15
5.94662e-15
6.26258e-15
5.57701e-15
5.52165e-15
5.53315e-15
5.29196e-15
5.55916e-15
5.26336e-15
5.35208e-15
5.45832e-15
5.36332e-15
5.47846e-15
5.47449e-15
5.58177e-15
5.88038e-15
6.39943e-15
6.83371e-15
8.2878e-15
1.72985e-15
1.53333e-15
1.10428e-15
1.16691e-15
1.03711e-15
1.02826e-15
1.02984e-15
9.84042e-16
1.03592e-15
9.78442e-16
9.9567e-16
1.01657e-15
9.97938e-16
1.02e-15
1.01903e-15
1.0402e-15
1.09425e-15
1.19408e-15
1.26957e-15
1.54682e-15
3.48741e-16
3.10372e-16
2.32076e-16
2.42971e-16
2.18963e-16
2.1724e-16
2.17542e-16
2.08828e-16
2.18801e-16
2.07744e-16
2.11188e-16
2.15146e-16
2.11691e-16
2.15816e-16
2.15763e-16
2.19737e-16
2.3004e-16
2.48573e-16
2.63377e-16
3.14925e-16
)
;

boundaryField
{
    fuel
    {
        type            fixedValue;
        value           nonuniform 0();
    }
    wall
    {
        type            zeroGradient;
    }
    outlet
    {
        type            zeroGradient;
    }
    frontAndBack
    {
        type            empty;
    }
    procBoundary1to0
    {
        type            processor;
        value           nonuniform List<scalar> 
21
(
4.89646e-12
3.15321e-12
2.16323e-12
2.00323e-12
1.86945e-12
1.84217e-12
1.84053e-12
1.81487e-12
1.839e-12
1.81393e-12
1.49126e-12
1.49126e-12
1.50109e-12
1.49135e-12
1.5052e-12
1.50804e-12
1.52693e-12
1.59664e-12
1.75932e-12
2.17077e-12
3.12185e-12
)
;
    }
}


// ************************************************************************* //
