/*--------------------------------*- C++ -*----------------------------------*\
| =========                 |                                                 |
| \\      /  F ield         | OpenFOAM: The Open Source CFD Toolbox           |
|  \\    /   O peration     | Version:  dev                                   |
|   \\  /    A nd           | Web:      www.OpenFOAM.org                      |
|    \\/     M anipulation  |                                                 |
\*---------------------------------------------------------------------------*/
FoamFile
{
    version     2.0;
    format      ascii;
    class       volScalarField;
    location    "0.105";
    object      P2-H;
}
// * * * * * * * * * * * * * * * * * * * * * * * * * * * * * * * * * * * * * //

dimensions      [0 0 0 0 0 0 0];

internalField   nonuniform List<scalar> 
250
(
2.95523e-16
1.06591e-16
9.01013e-17
7.81527e-17
7.76844e-17
7.58371e-17
7.62437e-17
7.5824e-17
7.60734e-17
7.6061e-17
2.20224e-16
9.29776e-17
8.30336e-17
7.20502e-17
7.22338e-17
7.02175e-17
7.07325e-17
7.02077e-17
7.049e-17
7.04286e-17
7.01833e-17
7.07312e-17
7.00335e-17
7.08368e-17
7.05065e-17
7.16034e-17
7.41522e-17
8.01068e-17
1.15062e-16
2.25381e-16
1.66007e-16
8.05571e-17
7.52171e-17
6.53829e-17
6.59912e-17
6.3955e-17
6.45223e-17
6.39471e-17
6.42416e-17
6.41493e-17
6.38937e-17
6.45224e-17
6.37633e-17
6.46473e-17
6.42607e-17
6.5305e-17
6.75361e-17
7.19699e-17
9.99698e-17
1.8167e-16
1.27024e-16
6.95994e-17
6.72848e-17
5.87389e-17
5.95609e-17
5.76188e-17
5.82044e-17
5.76117e-17
5.78997e-17
5.77916e-17
5.75395e-17
5.81971e-17
5.74287e-17
5.83286e-17
5.79179e-17
5.88794e-17
6.07838e-17
6.39808e-17
8.58394e-17
1.44489e-16
9.9003e-17
6.02418e-17
5.97838e-17
5.24237e-17
5.34024e-17
5.16508e-17
5.21696e-17
5.16458e-17
5.19137e-17
5.1799e-17
5.15638e-17
5.22124e-17
5.1471e-17
5.23422e-17
5.19264e-17
5.27977e-17
5.43897e-17
5.6629e-17
7.33423e-17
1.14424e-16
7.89562e-17
5.24862e-17
5.30954e-17
4.6925e-17
4.79e-17
4.63368e-17
4.68323e-17
4.63346e-17
4.65749e-17
4.64595e-17
4.62494e-17
4.6867e-17
4.61725e-17
4.69911e-17
4.65804e-17
4.73679e-17
4.86794e-17
5.02065e-17
6.2804e-17
9.07194e-17
6.43472e-17
4.6269e-17
4.74426e-17
4.23132e-17
4.32248e-17
4.18595e-17
4.23065e-17
4.18582e-17
4.20698e-17
4.19594e-17
4.17743e-17
4.23509e-17
4.17106e-17
4.24674e-17
4.20706e-17
4.27826e-17
4.38528e-17
4.48668e-17
5.42881e-17
7.29542e-17
5.43509e-17
4.17023e-17
4.30763e-17
3.8892e-17
3.9688e-17
3.8537e-17
3.89177e-17
3.85318e-17
3.87123e-17
3.86153e-17
3.84541e-17
3.89711e-17
3.84023e-17
3.90784e-17
3.87127e-17
3.93442e-17
4.01999e-17
4.08597e-17
4.7844e-17
6.00605e-17
4.85619e-17
4.03027e-17
4.12401e-17
3.83715e-17
3.88283e-17
3.80798e-17
3.82995e-17
3.80581e-17
3.81711e-17
3.81159e-17
3.80086e-17
3.83425e-17
3.79735e-17
3.84313e-17
3.81779e-17
3.86512e-17
3.9234e-17
3.97037e-17
4.44966e-17
5.24038e-17
5.38372e-17
5.26695e-17
5.05761e-17
5.16665e-17
5.06363e-17
5.13261e-17
5.08838e-17
5.12249e-17
5.10643e-17
5.11827e-17
5.13096e-17
5.08216e-17
5.13272e-17
5.08564e-17
5.11073e-17
5.10358e-17
5.08879e-17
5.15588e-17
5.25975e-17
5.83419e-17
1.26162e-16
1.47213e-16
1.31368e-16
1.4723e-16
1.39848e-16
1.46081e-16
1.42892e-16
1.45512e-16
1.44288e-16
1.45055e-16
1.46016e-16
1.42473e-16
1.46239e-16
1.42419e-16
1.44472e-16
1.42826e-16
1.40061e-16
1.42744e-16
1.32459e-16
1.40683e-16
7.66583e-16
8.63939e-16
7.85321e-16
8.53643e-16
8.1656e-16
8.4424e-16
8.29233e-16
8.40106e-16
8.3518e-16
8.37916e-16
8.40087e-16
8.29777e-16
8.41026e-16
8.30491e-16
8.3526e-16
8.34701e-16
8.21964e-16
8.40526e-16
7.9932e-16
8.38105e-16
1.25749e-14
1.32152e-14
1.2322e-14
1.27745e-14
1.23406e-14
1.25703e-14
1.24255e-14
1.24949e-14
1.24651e-14
1.24756e-14
1.24303e-14
1.25078e-14
1.24311e-14
1.25373e-14
1.24437e-14
1.26297e-14
1.25235e-14
1.28716e-14
1.28682e-14
1.36022e-14
)
;

boundaryField
{
    fuel
    {
        type            fixedValue;
        value           nonuniform 0();
    }
    wall
    {
        type            zeroGradient;
    }
    outlet
    {
        type            zeroGradient;
    }
    frontAndBack
    {
        type            empty;
    }
    procBoundary1to0
    {
        type            processor;
        value           nonuniform List<scalar> 
21
(
4.00593e-16
1.21067e-16
9.58851e-17
8.308e-17
8.17826e-17
8.02283e-17
8.0485e-17
8.02137e-17
8.04154e-17
8.04652e-17
7.58393e-17
7.58393e-17
7.62473e-17
7.56718e-17
7.63173e-17
7.60848e-17
7.71834e-17
8.0024e-17
8.77422e-17
1.30135e-16
2.73807e-16
)
;
    }
}


// ************************************************************************* //
