/*--------------------------------*- C++ -*----------------------------------*\
| =========                 |                                                 |
| \\      /  F ield         | OpenFOAM: The Open Source CFD Toolbox           |
|  \\    /   O peration     | Version:  dev                                   |
|   \\  /    A nd           | Web:      www.OpenFOAM.org                      |
|    \\/     M anipulation  |                                                 |
\*---------------------------------------------------------------------------*/
FoamFile
{
    version     2.0;
    format      ascii;
    class       volScalarField;
    location    "0.105";
    object      P2-H;
}
// * * * * * * * * * * * * * * * * * * * * * * * * * * * * * * * * * * * * * //

dimensions      [0 0 0 0 0 0 0];

internalField   nonuniform List<scalar> 
50
(
4.7849e-25
4.07209e-25
3.46804e-25
2.95652e-25
2.52362e-25
2.1574e-25
1.84761e-25
1.58547e-25
1.36349e-25
1.17533e-25
1.01561e-25
8.79806e-26
7.64108e-26
6.65324e-26
5.80779e-26
5.08237e-26
4.45829e-26
3.91995e-26
3.45428e-26
3.05038e-26
2.6991e-26
2.3928e-26
2.12503e-26
1.89039e-26
1.68431e-26
1.50291e-26
1.34292e-26
1.20155e-26
1.0764e-26
9.6545e-27
8.66929e-27
7.79327e-27
7.01333e-27
6.31811e-27
5.69772e-27
5.14355e-27
4.64804e-27
4.20458e-27
3.80738e-27
3.45132e-27
3.13189e-27
2.8451e-27
2.58738e-27
2.35554e-27
2.1492e-27
1.96311e-27
1.79417e-27
1.64212e-27
1.50506e-27
1.38124e-27
)
;

boundaryField
{
    wall
    {
        type            zeroGradient;
    }
    fuel
    {
        type            fixedValue;
        value           nonuniform 0();
    }
    outlet
    {
        type            inletOutlet;
        inletValue      nonuniform 0();
        value           nonuniform 0();
    }
    procBoundary1to0
    {
        type            processor;
        value           uniform 5.66e-25;
    }
    procBoundary1to2
    {
        type            processor;
        value           uniform 1.26807e-27;
    }
}


// ************************************************************************* //
