/*--------------------------------*- C++ -*----------------------------------*\
| =========                 |                                                 |
| \\      /  F ield         | OpenFOAM: The Open Source CFD Toolbox           |
|  \\    /   O peration     | Version:  dev                                   |
|   \\  /    A nd           | Web:      www.OpenFOAM.org                      |
|    \\/     M anipulation  |                                                 |
\*---------------------------------------------------------------------------*/
FoamFile
{
    version     2.0;
    format      ascii;
    class       surfaceScalarField;
    location    "0.105";
    object      phi;
}
// * * * * * * * * * * * * * * * * * * * * * * * * * * * * * * * * * * * * * //

dimensions      [1 0 -1 0 0 0 0];

internalField   nonuniform List<scalar> 
49
(
5.66402e-05
5.68834e-05
5.71273e-05
5.73717e-05
5.76165e-05
5.78616e-05
5.81069e-05
5.83524e-05
5.85981e-05
5.8844e-05
5.909e-05
5.93362e-05
5.95826e-05
5.98291e-05
6.00758e-05
6.03228e-05
6.057e-05
6.08174e-05
6.10651e-05
6.1313e-05
6.15613e-05
6.18099e-05
6.20588e-05
6.23081e-05
6.25577e-05
6.28078e-05
6.30582e-05
6.33091e-05
6.35605e-05
6.38124e-05
6.40648e-05
6.43177e-05
6.45713e-05
6.48254e-05
6.50802e-05
6.53356e-05
6.55917e-05
6.58484e-05
6.61057e-05
6.63632e-05
6.66208e-05
6.68778e-05
6.71335e-05
6.7387e-05
6.76486e-05
6.79169e-05
6.81839e-05
6.84499e-05
6.8715e-05
)
;

boundaryField
{
    wall
    {
        type            calculated;
        value           nonuniform List<scalar> 
200
(
-1.11827e-21
-2.04722e-21
-2.99693e-21
-3.98039e-21
-4.99415e-21
-6.0363e-21
-7.10957e-21
-8.21497e-21
-9.35354e-21
-1.05264e-20
-1.17345e-20
-1.29793e-20
-1.42617e-20
-1.55832e-20
-1.6945e-20
-1.83485e-20
-1.97952e-20
-2.12865e-20
-2.2824e-20
-2.44093e-20
-2.60442e-20
-2.77304e-20
-2.94696e-20
-3.1264e-20
-3.31154e-20
-3.50259e-20
-3.70016e-20
-3.90406e-20
-4.11315e-20
-4.32976e-20
-4.55432e-20
-4.78597e-20
-5.02508e-20
-5.27214e-20
-5.52747e-20
-5.7914e-20
-6.06425e-20
-6.3464e-20
-6.63814e-20
-6.9399e-20
-7.25199e-20
-7.57487e-20
-7.90886e-20
-8.25513e-20
-8.61338e-20
-8.98168e-20
-9.36241e-20
-9.75565e-20
-1.01601e-19
-1.05801e-19
1.11827e-21
2.04722e-21
2.99693e-21
3.98039e-21
4.99415e-21
6.0363e-21
7.10957e-21
8.21497e-21
9.35354e-21
1.05264e-20
1.17345e-20
1.29793e-20
1.42617e-20
1.55832e-20
1.6945e-20
1.83485e-20
1.97952e-20
2.12865e-20
2.2824e-20
2.44093e-20
2.60442e-20
2.77304e-20
2.94696e-20
3.1264e-20
3.31154e-20
3.50259e-20
3.70016e-20
3.90406e-20
4.11315e-20
4.32976e-20
4.55432e-20
4.78597e-20
5.02508e-20
5.27214e-20
5.52747e-20
5.7914e-20
6.06425e-20
6.3464e-20
6.63814e-20
6.9399e-20
7.25199e-20
7.57487e-20
7.90886e-20
8.25513e-20
8.61338e-20
8.98168e-20
9.36241e-20
9.75565e-20
1.01601e-19
1.05801e-19
-1.11827e-21
-2.04722e-21
-2.99693e-21
-3.98039e-21
-4.99415e-21
-6.0363e-21
-7.10957e-21
-8.21497e-21
-9.35354e-21
-1.05264e-20
-1.17345e-20
-1.29793e-20
-1.42617e-20
-1.55832e-20
-1.6945e-20
-1.83485e-20
-1.97952e-20
-2.12865e-20
-2.2824e-20
-2.44093e-20
-2.60442e-20
-2.77304e-20
-2.94696e-20
-3.1264e-20
-3.31154e-20
-3.50259e-20
-3.70016e-20
-3.90406e-20
-4.11315e-20
-4.32976e-20
-4.55432e-20
-4.78597e-20
-5.02508e-20
-5.27214e-20
-5.52747e-20
-5.7914e-20
-6.06425e-20
-6.3464e-20
-6.63814e-20
-6.9399e-20
-7.25199e-20
-7.57487e-20
-7.90886e-20
-8.25513e-20
-8.61338e-20
-8.98168e-20
-9.36241e-20
-9.75565e-20
-1.01601e-19
-1.05801e-19
1.11827e-21
2.04722e-21
2.99693e-21
3.98039e-21
4.99415e-21
6.0363e-21
7.10957e-21
8.21497e-21
9.35354e-21
1.05264e-20
1.17345e-20
1.29793e-20
1.42617e-20
1.55832e-20
1.6945e-20
1.83485e-20
1.97952e-20
2.12865e-20
2.2824e-20
2.44093e-20
2.60442e-20
2.77304e-20
2.94696e-20
3.1264e-20
3.31154e-20
3.50259e-20
3.70016e-20
3.90406e-20
4.11315e-20
4.32976e-20
4.55432e-20
4.78597e-20
5.02508e-20
5.27214e-20
5.52747e-20
5.7914e-20
6.06425e-20
6.3464e-20
6.63814e-20
6.9399e-20
7.25199e-20
7.57487e-20
7.90886e-20
8.25513e-20
8.61338e-20
8.98168e-20
9.36241e-20
9.75565e-20
1.01601e-19
1.05801e-19
)
;
    }
    fuel
    {
        type            calculated;
        value           nonuniform 0();
    }
    outlet
    {
        type            calculated;
        value           nonuniform 0();
    }
    procBoundary1to0
    {
        type            processor;
        value           uniform -5.63979e-05;
    }
    procBoundary1to2
    {
        type            processor;
        value           uniform 6.89784e-05;
    }
}


// ************************************************************************* //
