/*--------------------------------*- C++ -*----------------------------------*\
| =========                 |                                                 |
| \\      /  F ield         | OpenFOAM: The Open Source CFD Toolbox           |
|  \\    /   O peration     | Version:  dev                                   |
|   \\  /    A nd           | Web:      www.OpenFOAM.org                      |
|    \\/     M anipulation  |                                                 |
\*---------------------------------------------------------------------------*/
FoamFile
{
    version     2.0;
    format      ascii;
    class       volVectorField;
    location    "0.105";
    object      U;
}
// * * * * * * * * * * * * * * * * * * * * * * * * * * * * * * * * * * * * * //

dimensions      [0 1 -1 0 0 0 0];

internalField   nonuniform List<vector> 
250
(
(0 2.73875 1.0717)
(0 1.31915 0.0781313)
(0 1.93237 0.636647)
(0 0.997409 0.199305)
(0 1.26136 0.418887)
(0 0.714183 0.258248)
(0 0.743583 0.33883)
(0 0.391831 0.281916)
(0 0.305305 0.309531)
(0 0.0256945 0.291892)
(0 2.73821 0.971214)
(0 1.34957 0.0748766)
(0 1.92354 0.582434)
(0 1.01531 0.182721)
(0 1.25963 0.385137)
(0 0.723024 0.236792)
(0 0.744495 0.311815)
(0 0.395678 0.258724)
(0 0.306882 0.284704)
(0 0.0265658 0.268097)
(0 -0.0956932 0.272142)
(0 -0.360608 0.277273)
(0 -0.493863 0.269035)
(0 -0.744387 0.279345)
(0 -0.895603 0.277266)
(0 -1.12535 0.275597)
(0 -1.30075 0.318793)
(0 -1.55434 0.263026)
(0 -1.72061 0.424024)
(0 -2.13383 0.336099)
(0 2.73113 0.871454)
(0 1.37448 0.0707361)
(0 1.9111 0.527747)
(0 1.02978 0.165817)
(0 1.25541 0.350793)
(0 0.729856 0.21499)
(0 0.743858 0.284316)
(0 0.398534 0.235111)
(0 0.307912 0.259359)
(0 0.0272954 0.243832)
(0 -0.094386 0.247593)
(0 -0.36078 0.252568)
(0 -0.493256 0.244754)
(0 -0.745313 0.254337)
(0 -0.896073 0.252483)
(0 -1.12722 0.250734)
(0 -1.30281 0.290513)
(0 -1.55759 0.238314)
(0 -1.7192 0.387071)
(0 -2.14662 0.309101)
(0 2.7167 0.772505)
(0 1.39378 0.0659688)
(0 1.89462 0.472663)
(0 1.04073 0.148676)
(0 1.24848 0.31614)
(0 0.734598 0.192943)
(0 0.741568 0.256515)
(0 0.400363 0.211178)
(0 0.308362 0.233589)
(0 0.0278802 0.219206)
(0 -0.0926398 0.222674)
(0 -0.360134 0.227428)
(0 -0.491278 0.220114)
(0 -0.744455 0.228887)
(0 -0.894107 0.227309)
(0 -1.1264 0.22545)
(0 -1.3013 0.261739)
(0 -1.55713 0.213536)
(0 -1.71368 0.349176)
(0 -2.15306 0.280951)
(0 2.69405 0.675117)
(0 1.40745 0.0604965)
(0 1.87366 0.41748)
(0 1.0481 0.131374)
(0 1.23862 0.280737)
(0 0.737223 0.170658)
(0 0.737504 0.228065)
(0 0.401138 0.187019)
(0 0.308205 0.207495)
(0 0.0283218 0.19433)
(0 -0.0904274 0.197493)
(0 -0.358616 0.201964)
(0 -0.487858 0.19522)
(0 -0.741703 0.203112)
(0 -0.889569 0.201862)
(0 -1.12274 0.19986)
(0 -1.296 0.232581)
(0 -1.55265 0.188766)
(0 -1.70394 0.310533)
(0 -2.15274 0.25218)
(0 2.66225 0.57964)
(0 1.41553 0.0544247)
(0 1.84777 0.362423)
(0 1.05194 0.114038)
(0 1.22565 0.244758)
(0 0.73766 0.148382)
(0 0.731627 0.198966)
(0 0.400806 0.162759)
(0 0.307421 0.181197)
(0 0.0286328 0.169335)
(0 -0.0877161 0.172157)
(0 -0.356174 0.176287)
(0 -0.48292 0.170185)
(0 -0.736968 0.177136)
(0 -0.88234 0.176267)
(0 -1.11611 0.174092)
(0 -1.28673 0.203176)
(0 -1.54389 0.164081)
(0 -1.68983 0.271346)
(0 -2.14524 0.221483)
(0 2.62037 0.485966)
(0 1.4182 0.0478164)
(0 1.8165 0.30777)
(0 1.05235 0.0968013)
(0 1.20933 0.208962)
(0 0.735994 0.126206)
(0 0.723866 0.169982)
(0 0.399395 0.138545)
(0 0.306007 0.154831)
(0 0.0288395 0.144354)
(0 -0.0844691 0.146809)
(0 -0.352756 0.150535)
(0 -0.47639 0.145149)
(0 -0.730185 0.151106)
(0 -0.872323 0.150644)
(0 -1.10641 0.1483)
(0 -1.27335 0.173684)
(0 -1.53063 0.139582)
(0 -1.67108 0.231879)
(0 -2.13036 0.189384)
(0 2.56749 0.39479)
(0 1.41577 0.0407716)
(0 1.77944 0.253862)
(0 1.04958 0.0798069)
(0 1.18951 0.17339)
(0 0.732364 0.10424)
(0 0.714201 0.141207)
(0 0.396975 0.114542)
(0 0.303989 0.128548)
(0 0.0289872 0.119529)
(0 -0.0806461 0.12162)
(0 -0.348321 0.124869)
(0 -0.468211 0.120278)
(0 -0.72132 0.125193)
(0 -0.859464 0.125123)
(0 -1.09361 0.122665)
(0 -1.25581 0.144289)
(0 -1.51278 0.115392)
(0 -1.64766 0.19246)
(0 -2.10784 0.157675)
(0 2.50276 0.307594)
(0 1.40891 0.0334394)
(0 1.73628 0.201121)
(0 1.04407 0.0632045)
(0 1.16615 0.138251)
(0 0.727007 0.0826765)
(0 0.702687 0.112721)
(0 0.393673 0.0909452)
(0 0.301431 0.102537)
(0 0.0291451 0.0950488)
(0 -0.0762072 0.0967899)
(0 -0.342848 0.0994835)
(0 -0.458362 0.0957686)
(0 -0.710398 0.0996021)
(0 -0.843798 0.0998757)
(0 -1.07776 0.0974082)
(0 -1.23418 0.115217)
(0 -1.49039 0.0916698)
(0 -1.61966 0.153453)
(0 -2.07763 0.126006)
(0 2.42561 0.225416)
(0 1.39874 0.025927)
(0 1.687 0.150066)
(0 1.03657 0.0471547)
(0 1.13938 0.103894)
(0 0.720352 0.0617373)
(0 0.689509 0.0847769)
(0 0.389716 0.0679895)
(0 0.298454 0.0770405)
(0 0.0294125 0.0711645)
(0 -0.0711257 0.0725605)
(0 -0.336362 0.074627)
(0 -0.4469 0.0718521)
(0 -0.697564 0.0745906)
(0 -0.825523 0.0751428)
(0 -1.05907 0.0727955)
(0 -1.20878 0.0867397)
(0 -1.46383 0.068609)
(0 -1.58751 0.115283)
(0 -2.04013 0.094672)
(0 2.33643 0.149402)
(0 1.38712 0.0183222)
(0 1.63217 0.10146)
(0 1.02827 0.0318921)
(0 1.10975 0.0707812)
(0 0.713127 0.0417245)
(0 0.675071 0.0577817)
(0 0.385481 0.0460093)
(0 0.29526 0.0524312)
(0 0.0299158 0.0482391)
(0 -0.065431 0.049278)
(0 -0.328989 0.050673)
(0 -0.434054 0.0488639)
(0 -0.683188 0.0505343)
(0 -0.80518 0.0512803)
(0 -1.03811 0.0491977)
(0 -1.18045 0.0592552)
(0 -1.43399 0.0465046)
(0 -1.55226 0.0785226)
(0 -1.99658 0.0642937)
(0 2.23865 0.0816148)
(0 1.37692 0.010725)
(0 1.5741 0.0566712)
(0 1.02104 0.0177331)
(0 1.0787 0.0398809)
(0 0.706509 0.023168)
(0 0.660226 0.0325302)
(0 0.381546 0.0256153)
(0 0.292149 0.0294349)
(0 0.030768 0.0269389)
(0 -0.0593545 0.02761)
(0 -0.321114 0.0283363)
(0 -0.420503 0.0274543)
(0 -0.668148 0.0281499)
(0 -0.784074 0.0289638)
(0 -1.01614 0.0273179)
(0 -1.15107 0.0335193)
(0 -1.40294 0.025969)
(0 -1.51632 0.0442023)
(0 -1.95012 0.0358416)
(0 2.14731 0.0276761)
(0 1.37248 0.00473574)
(0 1.52153 0.0196704)
(0 1.01735 0.00658581)
(0 1.0508 0.0140476)
(0 0.702118 0.00833442)
(0 0.647026 0.0115214)
(0 0.378605 0.0091592)
(0 0.289434 0.0104731)
(0 0.0317569 0.0096224)
(0 -0.053966 0.00986212)
(0 -0.314032 0.0101294)
(0 -0.408423 0.00983095)
(0 -0.654846 0.0100129)
(0 -0.765561 0.0104169)
(0 -0.996808 0.00966762)
(0 -1.12561 0.012083)
(0 -1.37598 0.00921575)
(0 -1.48574 0.0159407)
(0 -1.90914 0.0127703)
)
;

boundaryField
{
    fuel
    {
        type            fixedValue;
        value           nonuniform 0();
    }
    wall
    {
        type            slip;
    }
    outlet
    {
        type            pressureInletOutletVelocity;
        value           nonuniform List<vector> 
25
(
(0 2.73875 1.0717)
(0 2.73821 0.971214)
(0 2.73113 0.871454)
(0 2.7167 0.772505)
(0 2.69405 0.675117)
(0 2.66225 0.57964)
(0 2.62037 0.485966)
(0 2.56749 0.39479)
(0 2.50276 0.307594)
(0 2.42561 0.225416)
(0 2.33643 0.149402)
(0 2.23865 0.0816148)
(0 2.14731 0.0276761)
(0 -2.13383 0.336099)
(0 -2.14662 0.309101)
(0 -2.15306 0.280951)
(0 -2.15274 0.25218)
(0 -2.14524 0.221483)
(0 -2.13036 0.189384)
(0 -2.10784 0.157675)
(0 -2.07763 0.126006)
(0 -2.04013 0.094672)
(0 -1.99658 0.0642937)
(0 -1.95012 0.0358416)
(0 -1.90914 0.0127703)
)
;
    }
    frontAndBack
    {
        type            empty;
    }
    procBoundary1to0
    {
        type            processor;
        value           nonuniform List<vector> 
21
(
(0 2.73356 1.17259)
(0 1.28334 0.0805897)
(0 1.93802 0.690253)
(0 0.976177 0.215511)
(0 1.26079 0.451891)
(0 0.70346 0.279258)
(0 0.741214 0.365219)
(0 0.387044 0.304619)
(0 0.30322 0.333772)
(0 0.0246907 0.315147)
(0 -0.0965875 0.296237)
(0 -0.0965875 0.296237)
(0 -0.359669 0.301455)
(0 -0.493165 0.292875)
(0 -0.741791 0.303818)
(0 -0.892834 0.301566)
(0 -1.12093 0.299948)
(0 -1.29534 0.346497)
(0 -1.54764 0.287599)
(0 -1.71801 0.459879)
(0 -2.11512 0.361631)
)
;
    }
}


// ************************************************************************* //
