/*--------------------------------*- C++ -*----------------------------------*\
| =========                 |                                                 |
| \\      /  F ield         | OpenFOAM: The Open Source CFD Toolbox           |
|  \\    /   O peration     | Version:  dev                                   |
|   \\  /    A nd           | Web:      www.OpenFOAM.org                      |
|    \\/     M anipulation  |                                                 |
\*---------------------------------------------------------------------------*/
FoamFile
{
    version     2.0;
    format      ascii;
    class       surfaceScalarField;
    location    "0";
    object      phi;
}
// * * * * * * * * * * * * * * * * * * * * * * * * * * * * * * * * * * * * * //

dimensions      [1 0 -1 0 0 0 0];

internalField   nonuniform List<scalar> 
12
(
8.51069e-05
8.82297e-05
9.14679e-05
9.49825e-05
9.93191e-05
0.000104092
0.00010794
0.000112579
0.000116632
0.000122959
0.000130274
0.000141092
)
;

boundaryField
{
    wall
    {
        type            calculated;
        value           nonuniform List<scalar> 
52
(
1.30741e-19
1.22659e-19
1.14142e-19
1.05312e-19
9.63587e-20
8.7262e-20
7.75397e-20
6.73727e-20
5.66e-20
4.45338e-20
3.25087e-20
2.03452e-20
1.01989e-20
-1.30741e-19
-1.22659e-19
-1.14142e-19
-1.05312e-19
-9.63587e-20
-8.7262e-20
-7.75397e-20
-6.73727e-20
-5.66e-20
-4.45338e-20
-3.25087e-20
-2.03452e-20
-1.01989e-20
1.30741e-19
1.22659e-19
1.14142e-19
1.05312e-19
9.63587e-20
8.7262e-20
7.75397e-20
6.73727e-20
5.66e-20
4.45338e-20
3.25087e-20
2.03452e-20
1.01989e-20
-1.30741e-19
-1.22659e-19
-1.14142e-19
-1.05312e-19
-9.63587e-20
-8.7262e-20
-7.75397e-20
-6.73727e-20
-5.66e-20
-4.45338e-20
-3.25087e-20
-2.03452e-20
-1.01989e-20
)
;
    }
    fuel
    {
        type            calculated;
        value           nonuniform 0();
    }
    outlet
    {
        type            calculated;
        value           uniform 0.000161979;
    }
    procBoundary7to6
    {
        type            processor;
        value           uniform -8.20821e-05;
    }
}


// ************************************************************************* //
