/*--------------------------------*- C++ -*----------------------------------*\
| =========                 |                                                 |
| \\      /  F ield         | OpenFOAM: The Open Source CFD Toolbox           |
|  \\    /   O peration     | Version:  dev                                   |
|   \\  /    A nd           | Web:      www.OpenFOAM.org                      |
|    \\/     M anipulation  |                                                 |
\*---------------------------------------------------------------------------*/
FoamFile
{
    version     2.0;
    format      ascii;
    class       volScalarField;
    location    "0.18";
    object      A1C2H-;
}
// * * * * * * * * * * * * * * * * * * * * * * * * * * * * * * * * * * * * * //

dimensions      [0 0 0 0 0 0 0];

internalField   nonuniform List<scalar> 
250
(
2.63202e-09
1.22021e-09
1.34402e-09
1.04766e-09
1.11404e-09
1.03026e-09
1.05965e-09
1.03032e-09
1.04397e-09
1.03221e-09
1.88677e-09
9.18577e-10
1.04755e-09
8.06033e-10
8.65737e-10
7.94622e-10
8.20153e-10
7.94799e-10
8.06926e-10
7.96633e-10
7.94929e-10
8.11285e-10
7.97793e-10
8.15427e-10
8.15284e-10
8.26419e-10
8.8952e-10
9.06522e-10
1.18163e-09
1.44315e-09
1.31665e-09
6.69626e-10
7.86392e-10
5.98122e-10
6.48166e-10
5.90827e-10
6.11732e-10
5.9103e-10
6.01188e-10
5.92666e-10
5.91229e-10
6.04846e-10
5.93514e-10
6.0786e-10
6.07578e-10
6.15763e-10
6.64691e-10
6.71311e-10
8.7447e-10
1.05511e-09
8.92205e-10
4.70994e-10
5.66934e-10
4.26893e-10
4.66332e-10
4.22231e-10
4.38441e-10
4.22411e-10
4.30476e-10
4.23775e-10
4.22605e-10
4.3342e-10
4.24355e-10
4.35437e-10
4.35139e-10
4.40875e-10
4.77414e-10
4.77827e-10
6.21709e-10
7.39714e-10
5.84298e-10
3.17456e-10
3.90317e-10
2.89628e-10
3.18762e-10
2.8814e-10
3.00069e-10
2.88285e-10
2.94365e-10
2.89355e-10
2.88438e-10
2.96637e-10
2.89721e-10
2.97842e-10
2.97603e-10
3.01409e-10
3.26582e-10
3.24922e-10
4.22429e-10
4.94986e-10
3.66572e-10
2.02563e-10
2.53945e-10
1.86162e-10
2.06439e-10
1.85526e-10
1.93813e-10
1.85634e-10
1.89963e-10
1.86422e-10
1.85737e-10
1.91628e-10
1.8663e-10
1.92239e-10
1.92084e-10
1.94448e-10
2.11475e-10
2.08695e-10
2.71512e-10
3.13183e-10
2.13497e-10
1.19945e-10
1.53285e-10
1.10711e-10
1.23808e-10
1.10505e-10
1.15863e-10
1.10583e-10
1.1345e-10
1.11123e-10
1.10645e-10
1.14586e-10
1.11224e-10
1.14824e-10
1.14738e-10
1.16089e-10
1.26859e-10
1.24184e-10
1.62107e-10
1.84147e-10
1.14378e-10
6.39525e-11
8.33529e-11
5.91331e-11
6.67546e-11
5.9112e-11
6.22408e-11
5.91668e-11
6.08791e-11
5.95005e-11
5.92008e-11
6.15758e-11
5.95384e-11
6.16239e-11
6.1581e-11
6.22703e-11
6.84384e-11
6.64532e-11
8.72933e-11
9.77397e-11
5.34045e-11
2.97474e-11
3.92922e-11
2.75459e-11
3.12915e-11
2.75712e-11
2.9117e-11
2.76034e-11
2.84662e-11
2.7777e-11
2.7619e-11
2.88255e-11
2.77851e-11
2.88101e-11
2.8791e-11
2.90882e-11
3.20933e-11
3.09486e-11
4.07878e-11
4.50088e-11
2.16689e-11
1.31367e-11
1.65804e-11
1.22919e-11
1.36307e-11
1.22878e-11
1.28456e-11
1.2295e-11
1.26131e-11
1.23592e-11
1.2296e-11
1.27517e-11
1.2358e-11
1.27378e-11
1.27304e-11
1.28356e-11
1.39434e-11
1.35064e-11
1.70936e-11
1.84834e-11
1.17558e-11
9.42571e-12
1.02017e-11
8.98457e-12
9.29434e-12
8.92451e-12
9.06345e-12
8.90811e-12
8.99537e-12
8.9198e-12
8.89169e-12
9.04803e-12
8.91644e-12
9.04872e-12
9.04161e-12
9.09714e-12
9.45012e-12
9.38795e-12
1.05285e-11
1.10404e-11
1.33475e-11
1.09207e-11
1.1698e-11
1.02942e-11
1.06425e-11
1.01969e-11
1.03668e-11
1.01674e-11
1.02846e-11
1.01794e-11
1.01301e-11
1.03714e-11
1.01691e-11
1.03635e-11
1.03475e-11
1.04247e-11
1.08799e-11
1.08055e-11
1.21762e-11
1.27427e-11
1.18538e-11
9.00396e-12
9.90093e-12
8.30589e-12
8.69224e-12
8.19814e-12
8.39168e-12
8.16419e-12
8.30327e-12
8.17976e-12
8.11372e-12
8.41901e-12
8.16106e-12
8.39651e-12
8.37667e-12
8.45387e-12
8.9916e-12
8.86281e-12
1.05069e-11
1.11998e-11
)
;

boundaryField
{
    fuel
    {
        type            fixedValue;
        value           nonuniform 0();
    }
    wall
    {
        type            zeroGradient;
    }
    outlet
    {
        type            zeroGradient;
    }
    frontAndBack
    {
        type            empty;
    }
    procBoundary1to0
    {
        type            processor;
        value           nonuniform List<scalar> 
21
(
3.58541e-09
1.57275e-09
1.6661e-09
1.3146e-09
1.38393e-09
1.28928e-09
1.32163e-09
1.28928e-09
1.30391e-09
1.2911e-09
1.03029e-09
1.03029e-09
1.04891e-09
1.03372e-09
1.05421e-09
1.05441e-09
1.06885e-09
1.14708e-09
1.17984e-09
1.53761e-09
1.8968e-09
)
;
    }
}


// ************************************************************************* //
