/*--------------------------------*- C++ -*----------------------------------*\
| =========                 |                                                 |
| \\      /  F ield         | OpenFOAM: The Open Source CFD Toolbox           |
|  \\    /   O peration     | Version:  dev                                   |
|   \\  /    A nd           | Web:      www.OpenFOAM.org                      |
|    \\/     M anipulation  |                                                 |
\*---------------------------------------------------------------------------*/
FoamFile
{
    version     2.0;
    format      ascii;
    class       volScalarField;
    location    "0.18";
    object      A2C2HB;
}
// * * * * * * * * * * * * * * * * * * * * * * * * * * * * * * * * * * * * * //

dimensions      [0 0 0 0 0 0 0];

internalField   nonuniform List<scalar> 
250
(
3.49901e-09
1.18332e-09
8.42502e-10
7.8678e-10
7.53233e-10
7.60886e-10
7.55153e-10
7.59921e-10
7.57047e-10
7.59385e-10
2.9144e-09
1.14249e-09
8.64475e-10
8.11493e-10
7.83877e-10
7.88615e-10
7.8426e-10
7.87792e-10
7.85539e-10
7.87415e-10
7.87682e-10
7.84139e-10
7.87136e-10
7.84056e-10
7.85521e-10
7.89027e-10
8.01334e-10
8.75821e-10
1.13299e-09
1.83308e-09
2.4462e-09
1.10169e-09
8.77726e-10
8.273e-10
8.05163e-10
8.07344e-10
8.04244e-10
8.06661e-10
8.04985e-10
8.06441e-10
8.06656e-10
8.0376e-10
8.06126e-10
8.03714e-10
8.05056e-10
8.08273e-10
8.2062e-10
8.87161e-10
1.12819e-09
1.78356e-09
2.07358e-09
1.06184e-09
8.83043e-10
8.35892e-10
8.18398e-10
8.18677e-10
8.1658e-10
8.18118e-10
8.16916e-10
8.18038e-10
8.18204e-10
8.15855e-10
8.17681e-10
8.15825e-10
8.17031e-10
8.19916e-10
8.31884e-10
8.90537e-10
1.11332e-09
1.71802e-09
1.77921e-09
1.02424e-09
8.82295e-10
8.39454e-10
8.25712e-10
8.24705e-10
8.23328e-10
8.24248e-10
8.23398e-10
8.24285e-10
8.24407e-10
8.22482e-10
8.23881e-10
8.2245e-10
8.23516e-10
8.26045e-10
8.37267e-10
8.88243e-10
1.0905e-09
1.6391e-09
1.54893e-09
9.90061e-10
8.77695e-10
8.39922e-10
8.29033e-10
8.27418e-10
8.26512e-10
8.27041e-10
8.26433e-10
8.2717e-10
8.27253e-10
8.25642e-10
8.26719e-10
8.25602e-10
8.26529e-10
8.28699e-10
8.38838e-10
8.82537e-10
1.06233e-09
1.55036e-09
1.36614e-09
9.60038e-10
8.71215e-10
8.38876e-10
8.30162e-10
8.28357e-10
8.27739e-10
8.28043e-10
8.27596e-10
8.28245e-10
8.2829e-10
8.26914e-10
8.27747e-10
8.26863e-10
8.27656e-10
8.29486e-10
8.38379e-10
8.7524e-10
1.03127e-09
1.45573e-09
1.22875e-09
9.34456e-10
8.64278e-10
8.37292e-10
8.3026e-10
8.28515e-10
8.28071e-10
8.28252e-10
8.27912e-10
8.28511e-10
8.28521e-10
8.27329e-10
8.27971e-10
8.27268e-10
8.27935e-10
8.29458e-10
8.37061e-10
8.67589e-10
9.9941e-10
1.35915e-09
1.12458e-09
9.13185e-10
8.57724e-10
8.35676e-10
8.29977e-10
8.28411e-10
8.28076e-10
8.28194e-10
8.27928e-10
8.28499e-10
8.28473e-10
8.27435e-10
8.2792e-10
8.27367e-10
8.27916e-10
8.29172e-10
8.3553e-10
8.60311e-10
9.68394e-10
1.26451e-09
1.04693e-09
8.95902e-10
8.51953e-10
8.34225e-10
8.296e-10
8.28255e-10
8.27994e-10
8.28078e-10
8.2787e-10
8.28422e-10
8.28362e-10
8.27455e-10
8.27809e-10
8.27382e-10
8.27824e-10
8.28856e-10
8.34076e-10
8.53785e-10
9.39583e-10
1.17567e-09
9.9064e-10
8.82283e-10
8.47134e-10
8.33002e-10
8.29233e-10
8.28106e-10
8.27899e-10
8.27966e-10
8.27802e-10
8.28341e-10
8.2825e-10
8.27454e-10
8.27698e-10
8.27376e-10
8.27724e-10
8.28576e-10
8.32808e-10
8.48235e-10
9.14232e-10
1.0967e-09
9.52052e-10
8.72199e-10
8.43398e-10
8.32044e-10
8.28923e-10
8.27982e-10
8.27815e-10
8.27873e-10
8.27742e-10
8.28272e-10
8.28157e-10
8.27446e-10
8.27606e-10
8.27365e-10
8.27636e-10
8.28352e-10
8.31794e-10
8.4388e-10
8.93771e-10
1.03244e-09
9.29807e-10
8.66027e-10
8.41024e-10
8.31431e-10
8.28715e-10
8.279e-10
8.27757e-10
8.27813e-10
8.27701e-10
8.28227e-10
8.28095e-10
8.27438e-10
8.27544e-10
8.27355e-10
8.27575e-10
8.28207e-10
8.31136e-10
8.41104e-10
8.80444e-10
9.90344e-10
)
;

boundaryField
{
    fuel
    {
        type            fixedValue;
        value           nonuniform 0();
    }
    wall
    {
        type            zeroGradient;
    }
    outlet
    {
        type            zeroGradient;
    }
    frontAndBack
    {
        type            empty;
    }
    procBoundary1to0
    {
        type            processor;
        value           nonuniform List<scalar> 
21
(
4.22495e-09
1.22418e-09
8.12718e-10
7.52608e-10
7.13326e-10
7.23723e-10
7.16713e-10
7.22635e-10
7.19197e-10
7.2196e-10
7.59704e-10
7.59704e-10
7.55483e-10
7.59136e-10
7.55346e-10
7.56908e-10
7.60654e-10
7.72645e-10
8.54856e-10
1.12689e-09
1.86578e-09
)
;
    }
}


// ************************************************************************* //
