/*--------------------------------*- C++ -*----------------------------------*\
| =========                 |                                                 |
| \\      /  F ield         | OpenFOAM: The Open Source CFD Toolbox           |
|  \\    /   O peration     | Version:  dev                                   |
|   \\  /    A nd           | Web:      www.OpenFOAM.org                      |
|    \\/     M anipulation  |                                                 |
\*---------------------------------------------------------------------------*/
FoamFile
{
    version     2.0;
    format      ascii;
    class       volScalarField;
    location    "0.18";
    object      A2C2HA*;
}
// * * * * * * * * * * * * * * * * * * * * * * * * * * * * * * * * * * * * * //

dimensions      [0 0 0 0 0 0 0];

internalField   nonuniform List<scalar> 
50
(
4.05291e-17
3.53692e-17
3.08622e-17
2.6928e-17
2.34956e-17
2.05025e-17
1.78932e-17
1.56189e-17
1.36369e-17
1.19095e-17
1.04041e-17
9.09187e-18
7.9479e-18
6.95042e-18
6.08051e-18
5.32166e-18
4.65955e-18
4.08168e-18
3.57722e-18
3.13671e-18
2.75193e-18
2.41573e-18
2.12187e-18
1.86494e-18
1.64021e-18
1.44357e-18
1.27143e-18
1.12067e-18
9.88571e-19
8.72756e-19
7.71161e-19
6.81987e-19
6.03665e-19
5.34826e-19
4.74279e-19
4.20986e-19
3.7404e-19
3.32653e-19
2.96134e-19
2.63882e-19
2.3537e-19
2.10136e-19
1.88002e-19
1.68268e-19
1.5072e-19
1.35155e-19
1.21336e-19
1.09056e-19
9.81301e-20
8.83914e-20
)
;

boundaryField
{
    wall
    {
        type            zeroGradient;
    }
    fuel
    {
        type            fixedValue;
        value           nonuniform 0();
    }
    outlet
    {
        type            inletOutlet;
        inletValue      nonuniform 0();
        value           nonuniform 0();
    }
    procBoundary1to0
    {
        type            processor;
        value           uniform 4.65176e-17;
    }
    procBoundary1to2
    {
        type            processor;
        value           uniform 7.96264e-20;
    }
}


// ************************************************************************* //
