/*--------------------------------*- C++ -*----------------------------------*\
| =========                 |                                                 |
| \\      /  F ield         | OpenFOAM: The Open Source CFD Toolbox           |
|  \\    /   O peration     | Version:  dev                                   |
|   \\  /    A nd           | Web:      www.OpenFOAM.org                      |
|    \\/     M anipulation  |                                                 |
\*---------------------------------------------------------------------------*/
FoamFile
{
    version     2.0;
    format      ascii;
    class       volScalarField;
    location    "0.18";
    object      C;
}
// * * * * * * * * * * * * * * * * * * * * * * * * * * * * * * * * * * * * * //

dimensions      [0 0 0 0 0 0 0];

internalField   nonuniform List<scalar> 
250
(
2.46955e-11
3.08989e-11
2.34039e-11
2.61015e-11
2.19205e-11
2.14243e-11
2.14068e-11
2.00948e-11
2.10715e-11
1.98392e-11
1.23749e-11
1.49229e-11
1.08333e-11
1.21007e-11
1.00667e-11
9.82946e-12
9.81544e-12
9.18266e-12
9.66711e-12
9.05914e-12
9.16907e-12
9.46305e-12
9.19699e-12
9.5907e-12
9.43242e-12
1.01435e-11
9.9728e-12
1.24663e-11
8.79657e-12
9.03139e-12
5.71297e-12
6.67239e-12
4.67444e-12
5.23183e-12
4.32217e-12
4.21829e-12
4.20614e-12
3.9241e-12
4.14605e-12
3.86889e-12
3.91908e-12
4.05265e-12
3.93042e-12
4.10931e-12
4.03481e-12
4.3605e-12
4.28778e-12
5.46941e-12
3.95756e-12
4.44271e-12
2.44051e-12
2.77092e-12
1.88787e-12
2.11809e-12
1.74405e-12
1.70292e-12
1.69119e-12
1.57484e-12
1.66899e-12
1.55195e-12
1.57321e-12
1.62947e-12
1.57749e-12
1.65262e-12
1.6203e-12
1.76234e-12
1.73189e-12
2.23875e-12
1.66393e-12
2.01023e-12
9.72611e-13
1.07593e-12
7.1912e-13
8.00725e-13
6.54217e-13
6.39535e-13
6.42943e-13
5.98382e-13
6.35527e-13
5.89543e-13
5.97941e-13
6.19991e-13
5.99436e-13
6.28734e-13
6.15732e-13
6.62101e-13
6.51468e-13
8.60352e-13
6.51925e-13
8.41992e-13
3.67035e-13
3.95791e-13
2.62402e-13
2.91045e-13
2.3858e-13
2.33828e-13
2.34662e-13
2.18684e-13
2.32417e-13
2.15479e-13
2.18594e-13
2.26698e-13
2.19083e-13
2.29779e-13
2.24903e-13
2.41939e-13
2.3792e-13
3.1486e-13
2.459e-13
3.3119e-13
1.34894e-13
1.41641e-13
9.45365e-14
1.04017e-13
8.61471e-14
8.46703e-14
8.479e-14
7.93314e-14
8.41681e-14
7.82209e-14
7.93232e-14
8.21641e-14
7.94757e-14
8.31978e-14
8.1463e-14
8.74382e-14
8.60421e-14
1.12857e-13
9.13311e-14
1.25749e-13
5.08311e-14
5.19521e-14
3.55905e-14
3.86467e-14
3.26105e-14
3.21396e-14
3.21332e-14
3.02785e-14
3.19686e-14
2.98942e-14
3.02822e-14
3.12721e-14
3.03303e-14
3.16172e-14
3.10088e-14
3.30747e-14
3.26249e-14
4.18411e-14
3.528e-14
4.8484e-14
2.12314e-14
2.12347e-14
1.52085e-14
1.62513e-14
1.40581e-14
1.38869e-14
1.38724e-14
1.31871e-14
1.38262e-14
1.30414e-14
1.31908e-14
1.3563e-14
1.32085e-14
1.36872e-14
1.34626e-14
1.42198e-14
1.40862e-14
1.7442e-14
1.53456e-14
2.04876e-14
1.07701e-14
1.06471e-14
8.05913e-15
8.46727e-15
7.5233e-15
7.43807e-15
7.43063e-15
7.12049e-15
7.41509e-15
7.05122e-15
7.12476e-15
7.29101e-15
7.13502e-15
7.34362e-15
7.25345e-15
7.56741e-15
7.55287e-15
8.94452e-15
8.21497e-15
1.03677e-14
7.09552e-15
6.94796e-15
5.56171e-15
5.72623e-15
5.22368e-15
5.15413e-15
5.15583e-15
4.96644e-15
5.14945e-15
4.92045e-15
4.97403e-15
5.06735e-15
4.98508e-15
5.09502e-15
5.06087e-15
5.20912e-15
5.26205e-15
5.9354e-15
5.72012e-15
6.72905e-15
5.74978e-15
5.56868e-15
4.68562e-15
4.72189e-15
4.41227e-15
4.33621e-15
4.34853e-15
4.19919e-15
4.34501e-15
4.16018e-15
4.2112e-15
4.27542e-15
4.2258e-15
4.29334e-15
4.28773e-15
4.36565e-15
4.45979e-15
4.82929e-15
4.85401e-15
5.39794e-15
5.09955e-15
4.90335e-15
4.27296e-15
4.24241e-15
4.03141e-15
3.94954e-15
3.96977e-15
3.83794e-15
3.96688e-15
3.80253e-15
3.85261e-15
3.90388e-15
3.86984e-15
3.91747e-15
3.92515e-15
3.97337e-15
4.08166e-15
4.31782e-15
4.43997e-15
4.8025e-15
)
;

boundaryField
{
    fuel
    {
        type            fixedValue;
        value           nonuniform 0();
    }
    wall
    {
        type            zeroGradient;
    }
    outlet
    {
        type            zeroGradient;
    }
    frontAndBack
    {
        type            empty;
    }
    procBoundary1to0
    {
        type            processor;
        value           nonuniform List<scalar> 
21
(
4.5284e-11
5.91214e-11
4.70495e-11
5.24254e-11
4.45241e-11
4.35774e-11
4.35525e-11
4.10465e-11
4.28564e-11
4.05564e-11
2.00581e-11
2.00581e-11
2.06589e-11
2.01227e-11
2.09258e-11
2.06097e-11
2.20743e-11
2.16616e-11
2.64861e-11
1.81528e-11
1.69039e-11
)
;
    }
}


// ************************************************************************* //
