/*--------------------------------*- C++ -*----------------------------------*\
| =========                 |                                                 |
| \\      /  F ield         | OpenFOAM: The Open Source CFD Toolbox           |
|  \\    /   O peration     | Version:  dev                                   |
|   \\  /    A nd           | Web:      www.OpenFOAM.org                      |
|    \\/     M anipulation  |                                                 |
\*---------------------------------------------------------------------------*/
FoamFile
{
    version     2.0;
    format      ascii;
    class       volScalarField;
    location    "0.18";
    object      C2O;
}
// * * * * * * * * * * * * * * * * * * * * * * * * * * * * * * * * * * * * * //

dimensions      [0 0 0 0 0 0 0];

internalField   nonuniform List<scalar> 
250
(
2.60173e-08
1.81378e-08
2.32192e-08
1.76231e-08
1.93208e-08
1.74997e-08
1.81586e-08
1.75107e-08
1.7817e-08
1.75542e-08
2.02416e-08
1.36645e-08
1.70864e-08
1.29913e-08
1.41796e-08
1.28749e-08
1.33484e-08
1.28806e-08
1.3106e-08
1.2914e-08
1.28812e-08
1.31912e-08
1.29354e-08
1.32666e-08
1.32562e-08
1.34436e-08
1.45291e-08
1.44572e-08
1.77959e-08
1.86079e-08
1.53947e-08
1.02045e-08
1.24426e-08
9.54002e-09
1.03514e-08
9.43822e-09
9.76976e-09
9.44048e-09
9.60221e-09
9.46506e-09
9.44049e-09
9.66305e-09
9.47889e-09
9.71183e-09
9.70458e-09
9.83532e-09
1.05992e-08
1.05775e-08
1.3051e-08
1.38768e-08
1.14731e-08
7.55484e-09
8.99608e-09
6.98305e-09
7.53214e-09
6.89808e-09
7.12766e-09
6.89839e-09
7.01331e-09
6.91619e-09
6.89788e-09
7.05649e-09
6.92489e-09
7.0863e-09
7.0819e-09
7.17116e-09
7.70375e-09
7.7026e-09
9.48798e-09
1.02199e-08
8.38265e-09
5.52106e-09
6.4494e-09
5.04871e-09
5.41942e-09
5.00173e-09
5.16098e-09
5.00135e-09
5.08311e-09
5.01423e-09
5.00063e-09
5.11386e-09
5.01958e-09
5.1308e-09
5.12856e-09
5.18826e-09
5.54448e-09
5.56116e-09
6.82613e-09
7.42032e-09
5.98917e-09
3.95608e-09
4.55549e-09
3.60273e-09
3.85415e-09
3.56906e-09
3.67916e-09
3.56866e-09
3.62651e-09
3.57795e-09
3.56802e-09
3.64822e-09
3.58113e-09
3.65686e-09
3.65604e-09
3.69489e-09
3.93845e-09
3.95061e-09
4.82873e-09
5.2806e-09
4.12869e-09
2.77545e-09
3.15156e-09
2.52328e-09
2.68883e-09
2.50008e-09
2.57378e-09
2.49987e-09
2.53935e-09
2.50631e-09
2.49942e-09
2.55397e-09
2.50811e-09
2.55771e-09
2.5577e-09
2.58191e-09
2.74311e-09
2.75176e-09
3.3407e-09
3.66736e-09
2.80037e-09
1.9349e-09
2.15106e-09
1.76089e-09
1.86172e-09
1.74474e-09
1.79061e-09
1.74453e-09
1.76951e-09
1.74859e-09
1.74419e-09
1.77855e-09
1.74955e-09
1.77981e-09
1.78019e-09
1.79452e-09
1.89498e-09
1.90356e-09
2.27872e-09
2.50665e-09
1.90549e-09
1.39003e-09
1.49463e-09
1.27094e-09
1.32483e-09
1.25876e-09
1.28431e-09
1.25828e-09
1.27246e-09
1.26041e-09
1.25782e-09
1.27751e-09
1.2609e-09
1.27779e-09
1.27832e-09
1.28657e-09
1.34482e-09
1.35551e-09
1.58208e-09
1.73925e-09
1.36654e-09
1.07835e-09
1.11259e-09
9.94542e-10
1.01767e-09
9.84259e-10
9.96419e-10
9.83336e-10
9.90348e-10
9.84059e-10
9.82588e-10
9.92951e-10
9.84314e-10
9.93023e-10
9.93534e-10
9.98494e-10
1.03034e-09
1.04321e-09
1.17607e-09
1.28645e-09
1.08618e-09
9.2944e-10
9.2561e-10
8.66903e-10
8.72574e-10
8.57482e-10
8.61967e-10
8.56127e-10
8.59042e-10
8.55964e-10
8.5501e-10
8.60476e-10
8.56086e-10
8.6061e-10
8.60968e-10
8.64473e-10
8.81735e-10
8.95635e-10
9.75131e-10
1.05574e-09
9.67586e-10
8.75979e-10
8.56583e-10
8.2541e-10
8.2331e-10
8.1647e-10
8.17481e-10
8.14805e-10
8.15918e-10
8.14189e-10
8.13315e-10
8.17075e-10
8.14204e-10
8.17283e-10
8.17391e-10
8.20487e-10
8.31144e-10
8.4473e-10
8.97764e-10
9.59915e-10
9.25319e-10
8.60951e-10
8.37341e-10
8.16641e-10
8.12018e-10
8.08082e-10
8.07918e-10
8.06282e-10
8.06815e-10
8.05487e-10
8.04548e-10
8.08012e-10
8.05427e-10
8.08248e-10
8.08131e-10
8.11199e-10
8.19295e-10
8.32154e-10
8.73494e-10
9.2527e-10
)
;

boundaryField
{
    fuel
    {
        type            fixedValue;
        value           nonuniform 0();
    }
    wall
    {
        type            zeroGradient;
    }
    outlet
    {
        type            zeroGradient;
    }
    frontAndBack
    {
        type            empty;
    }
    procBoundary1to0
    {
        type            processor;
        value           nonuniform List<scalar> 
21
(
3.26551e-08
2.37854e-08
3.11093e-08
2.37062e-08
2.6081e-08
2.35959e-08
2.44938e-08
2.36178e-08
2.40252e-08
2.36734e-08
1.75122e-08
1.75122e-08
1.79337e-08
1.75869e-08
1.8044e-08
1.80319e-08
1.82925e-08
1.98015e-08
1.96397e-08
2.39829e-08
2.45769e-08
)
;
    }
}


// ************************************************************************* //
