/*--------------------------------*- C++ -*----------------------------------*\
| =========                 |                                                 |
| \\      /  F ield         | OpenFOAM: The Open Source CFD Toolbox           |
|  \\    /   O peration     | Version:  dev                                   |
|   \\  /    A nd           | Web:      www.OpenFOAM.org                      |
|    \\/     M anipulation  |                                                 |
\*---------------------------------------------------------------------------*/
FoamFile
{
    version     2.0;
    format      ascii;
    class       volScalarField;
    location    "0.18";
    object      CH;
}
// * * * * * * * * * * * * * * * * * * * * * * * * * * * * * * * * * * * * * //

dimensions      [0 0 0 0 0 0 0];

internalField   nonuniform List<scalar> 
50
(
1.20015e-10
9.3564e-11
7.3066e-11
5.71629e-11
4.48094e-11
3.52004e-11
2.77153e-11
2.18753e-11
1.73111e-11
1.37372e-11
1.09334e-11
8.7289e-12
6.99188e-12
5.61998e-12
4.53381e-12
3.67168e-12
2.98556e-12
2.43803e-12
1.99984e-12
1.64814e-12
1.36499e-12
1.13631e-12
9.51024e-13
8.00386e-13
6.77486e-13
5.76849e-13
4.94127e-13
4.2586e-13
3.69287e-13
3.22201e-13
2.82831e-13
2.49756e-13
2.21833e-13
1.98137e-13
1.77922e-13
1.60582e-13
1.45626e-13
1.32652e-13
1.21334e-13
1.11404e-13
1.02642e-13
9.48663e-14
8.79964e-14
8.18016e-14
7.62084e-14
7.11528e-14
6.65641e-14
6.23836e-14
5.85624e-14
5.50594e-14
)
;

boundaryField
{
    wall
    {
        type            zeroGradient;
    }
    fuel
    {
        type            fixedValue;
        value           nonuniform 0();
    }
    outlet
    {
        type            inletOutlet;
        inletValue      nonuniform 0();
        value           nonuniform 0();
    }
    procBoundary1to0
    {
        type            processor;
        value           uniform 1.54817e-10;
    }
    procBoundary1to2
    {
        type            processor;
        value           uniform 5.18114e-14;
    }
}


// ************************************************************************* //
