/*--------------------------------*- C++ -*----------------------------------*\
| =========                 |                                                 |
| \\      /  F ield         | OpenFOAM: The Open Source CFD Toolbox           |
|  \\    /   O peration     | Version:  dev                                   |
|   \\  /    A nd           | Web:      www.OpenFOAM.org                      |
|    \\/     M anipulation  |                                                 |
\*---------------------------------------------------------------------------*/
FoamFile
{
    version     2.0;
    format      ascii;
    class       volScalarField;
    location    "0.18";
    object      H2O;
}
// * * * * * * * * * * * * * * * * * * * * * * * * * * * * * * * * * * * * * //

dimensions      [0 0 0 0 0 0 0];

internalField   nonuniform List<scalar> 
250
(
0.0585394
0.0583548
0.0581179
0.0580429
0.0579852
0.0579693
0.0579676
0.0579579
0.0579627
0.0579551
0.058429
0.0582543
0.0580449
0.0579769
0.0579273
0.057913
0.0579113
0.0579029
0.057907
0.0579005
0.0579018
0.0579045
0.057903
0.0579072
0.0579085
0.0579225
0.057953
0.05805
0.0581719
0.0584254
0.0583307
0.058168
0.0579853
0.057924
0.057882
0.0578692
0.0578675
0.0578606
0.0578638
0.0578584
0.0578595
0.0578617
0.0578606
0.0578642
0.0578658
0.0578779
0.0579053
0.0579883
0.0580984
0.0583198
0.0582448
0.0580958
0.0579383
0.0578836
0.0578484
0.0578372
0.0578354
0.0578297
0.0578322
0.0578277
0.0578287
0.0578305
0.0578298
0.0578328
0.0578345
0.057845
0.0578695
0.0579397
0.058038
0.058229
0.0581709
0.0580365
0.0579023
0.0578538
0.0578246
0.0578148
0.0578134
0.0578087
0.0578106
0.057807
0.0578077
0.0578093
0.0578088
0.0578113
0.0578132
0.0578218
0.0578435
0.0579026
0.0579891
0.0581522
0.0581079
0.0579886
0.0578757
0.0578333
0.0578094
0.0578008
0.0577994
0.0577956
0.0577969
0.057794
0.0577946
0.0577959
0.0577958
0.0577978
0.0577998
0.0578071
0.0578261
0.0578753
0.0579508
0.0580883
0.0580544
0.0579502
0.0578564
0.0578198
0.0578002
0.0577928
0.0577915
0.0577883
0.0577892
0.0577869
0.0577873
0.0577885
0.0577885
0.0577902
0.0577922
0.0577984
0.057815
0.0578556
0.0579207
0.0580356
0.0580089
0.0579193
0.0578422
0.057811
0.0577951
0.0577887
0.0577874
0.0577849
0.0577854
0.0577835
0.0577837
0.0577849
0.057785
0.0577865
0.0577884
0.0577937
0.057808
0.0578415
0.0578969
0.0579921
0.05797
0.0578942
0.0578314
0.0578053
0.0577923
0.0577869
0.0577856
0.0577835
0.0577838
0.0577822
0.0577823
0.0577834
0.0577836
0.057785
0.0577867
0.0577913
0.0578035
0.057831
0.0578776
0.0579561
0.0579367
0.0578734
0.057823
0.0578012
0.0577907
0.0577861
0.0577849
0.0577831
0.0577832
0.0577818
0.0577819
0.0577829
0.0577832
0.0577844
0.057786
0.05779
0.0578003
0.0578227
0.0578617
0.0579261
0.0579088
0.0578564
0.0578162
0.0577982
0.0577896
0.0577856
0.0577845
0.0577829
0.057783
0.0577817
0.0577817
0.0577827
0.057783
0.0577841
0.0577856
0.0577891
0.0577977
0.0578161
0.0578485
0.0579014
0.0578869
0.0578432
0.0578109
0.0577958
0.0577887
0.0577853
0.0577842
0.0577829
0.0577828
0.0577816
0.0577816
0.0577826
0.0577829
0.057784
0.0577854
0.0577884
0.0577957
0.057811
0.0578383
0.0578822
0.0578728
0.0578347
0.0578076
0.0577944
0.0577882
0.0577851
0.057784
0.0577828
0.0577827
0.0577816
0.0577815
0.0577825
0.0577828
0.0577838
0.0577852
0.0577879
0.0577944
0.0578077
0.0578317
0.0578699
)
;

boundaryField
{
    fuel
    {
        type            fixedValue;
        value           nonuniform 0();
    }
    wall
    {
        type            zeroGradient;
    }
    outlet
    {
        type            zeroGradient;
    }
    frontAndBack
    {
        type            empty;
    }
    procBoundary1to0
    {
        type            processor;
        value           nonuniform List<scalar> 
21
(
0.0586608
0.0584689
0.0582044
0.0581223
0.0580561
0.0580387
0.0580369
0.0580258
0.0580313
0.0580227
0.0579567
0.0579567
0.0579597
0.0579578
0.0579627
0.0579638
0.05798
0.0580134
0.0581256
0.0582589
0.0585466
)
;
    }
}


// ************************************************************************* //
