/*--------------------------------*- C++ -*----------------------------------*\
| =========                 |                                                 |
| \\      /  F ield         | OpenFOAM: The Open Source CFD Toolbox           |
|  \\    /   O peration     | Version:  dev                                   |
|   \\  /    A nd           | Web:      www.OpenFOAM.org                      |
|    \\/     M anipulation  |                                                 |
\*---------------------------------------------------------------------------*/
FoamFile
{
    version     2.0;
    format      ascii;
    class       volScalarField;
    location    "0.18";
    object      l-C6H4;
}
// * * * * * * * * * * * * * * * * * * * * * * * * * * * * * * * * * * * * * //

dimensions      [0 0 0 0 0 0 0];

internalField   nonuniform List<scalar> 
250
(
5.90655e-08
4.59079e-08
3.70142e-08
3.83867e-08
3.61585e-08
3.74895e-08
3.68381e-08
3.74325e-08
3.71064e-08
3.73667e-08
6.15787e-08
5.52548e-08
4.29742e-08
4.74096e-08
4.37653e-08
4.63827e-08
4.51766e-08
4.62959e-08
4.56843e-08
4.61751e-08
4.62447e-08
4.54449e-08
4.61269e-08
4.53665e-08
4.54529e-08
4.53934e-08
4.42278e-08
4.72578e-08
4.86495e-08
5.72949e-08
7.06948e-08
7.41186e-08
5.5323e-08
6.54831e-08
5.91236e-08
6.42118e-08
6.19357e-08
6.40693e-08
6.28931e-08
6.38366e-08
6.39917e-08
6.24283e-08
6.37594e-08
6.22985e-08
6.24347e-08
6.21943e-08
5.94279e-08
6.3687e-08
6.19383e-08
7.14693e-08
9.2355e-08
1.11983e-07
8.1235e-08
1.02147e-07
9.07438e-08
1.00452e-07
9.61739e-08
1.00201e-07
9.79486e-08
9.97482e-08
1.00079e-07
9.70456e-08
9.96362e-08
9.68754e-08
9.70972e-08
9.65553e-08
9.07293e-08
9.7366e-08
8.96502e-08
1.00979e-07
1.38602e-07
1.84415e-07
1.34754e-07
1.74224e-07
1.54739e-07
1.7089e-07
1.63415e-07
1.70434e-07
1.6644e-07
1.69605e-07
1.70229e-07
1.64825e-07
1.69471e-07
1.64698e-07
1.65042e-07
1.64114e-07
1.5386e-07
1.63909e-07
1.46109e-07
1.60278e-07
2.27963e-07
3.07309e-07
2.35325e-07
2.96286e-07
2.6746e-07
2.91694e-07
2.80494e-07
2.90906e-07
2.84866e-07
2.89593e-07
2.90555e-07
2.82433e-07
2.89485e-07
2.8253e-07
2.83008e-07
2.81836e-07
2.66055e-07
2.8086e-07
2.50692e-07
2.68374e-07
3.79463e-07
4.80231e-07
3.93679e-07
4.68174e-07
4.33438e-07
4.62298e-07
4.48779e-07
4.61096e-07
4.5378e-07
4.59392e-07
4.60531e-07
4.50902e-07
4.59382e-07
4.51394e-07
4.51966e-07
4.51041e-07
4.32309e-07
4.50805e-07
4.13241e-07
4.34241e-07
5.74759e-07
6.71564e-07
5.89348e-07
6.57543e-07
6.24853e-07
6.50934e-07
6.38308e-07
6.49401e-07
6.42595e-07
6.47643e-07
6.48628e-07
6.40039e-07
6.47776e-07
6.40895e-07
6.41492e-07
6.41363e-07
6.25116e-07
6.43995e-07
6.11722e-07
6.35041e-07
7.67723e-07
8.31457e-07
7.70319e-07
8.15233e-07
7.9137e-07
8.08798e-07
7.99767e-07
8.07189e-07
8.02382e-07
8.05732e-07
8.06339e-07
8.00687e-07
8.05995e-07
8.01683e-07
8.02253e-07
8.03022e-07
7.93314e-07
8.092e-07
7.92701e-07
8.16757e-07
9.04386e-07
9.29732e-07
8.92318e-07
9.12792e-07
8.9871e-07
9.07247e-07
9.02139e-07
9.05808e-07
9.03148e-07
9.04768e-07
9.05055e-07
9.02227e-07
9.05126e-07
9.03164e-07
9.0371e-07
9.04973e-07
9.01475e-07
9.13219e-07
9.11787e-07
9.34504e-07
9.70831e-07
9.71311e-07
9.50513e-07
9.55506e-07
9.48268e-07
9.51068e-07
9.48643e-07
9.49895e-07
9.48661e-07
9.49184e-07
9.49337e-07
9.48126e-07
9.49607e-07
9.48937e-07
9.49499e-07
9.50784e-07
9.5084e-07
9.59152e-07
9.65581e-07
9.85317e-07
9.88441e-07
9.79498e-07
9.67012e-07
9.65887e-07
9.62031e-07
9.62395e-07
9.61215e-07
9.61455e-07
9.60835e-07
9.60921e-07
9.61103e-07
9.60342e-07
9.614e-07
9.61059e-07
9.61678e-07
9.62718e-07
9.63883e-07
9.70028e-07
9.77793e-07
9.93966e-07
9.89104e-07
9.78339e-07
9.69167e-07
9.66489e-07
9.63934e-07
9.63564e-07
9.62811e-07
9.62755e-07
9.6232e-07
9.62294e-07
9.62536e-07
9.61776e-07
9.62809e-07
9.62443e-07
9.63118e-07
9.63924e-07
9.65229e-07
9.70217e-07
9.77145e-07
9.90626e-07
)
;

boundaryField
{
    fuel
    {
        type            fixedValue;
        value           nonuniform 0();
    }
    wall
    {
        type            zeroGradient;
    }
    outlet
    {
        type            zeroGradient;
    }
    frontAndBack
    {
        type            empty;
    }
    procBoundary1to0
    {
        type            processor;
        value           nonuniform List<scalar> 
21
(
6.05513e-08
4.14179e-08
3.42083e-08
3.38051e-08
3.23291e-08
3.29629e-08
3.2607e-08
3.29212e-08
3.27434e-08
3.28825e-08
3.73965e-08
3.73965e-08
3.69783e-08
3.73384e-08
3.69407e-08
3.69998e-08
3.70449e-08
3.67088e-08
3.91443e-08
4.23001e-08
5.06785e-08
)
;
    }
}


// ************************************************************************* //
