/*--------------------------------*- C++ -*----------------------------------*\
| =========                 |                                                 |
| \\      /  F ield         | OpenFOAM: The Open Source CFD Toolbox           |
|  \\    /   O peration     | Version:  dev                                   |
|   \\  /    A nd           | Web:      www.OpenFOAM.org                      |
|    \\/     M anipulation  |                                                 |
\*---------------------------------------------------------------------------*/
FoamFile
{
    version     2.0;
    format      ascii;
    class       volScalarField;
    location    "0.18";
    object      N2;
}
// * * * * * * * * * * * * * * * * * * * * * * * * * * * * * * * * * * * * * //

dimensions      [0 0 0 0 0 0 0];

internalField   nonuniform List<scalar> 
250
(
0.000871053
0.000389919
0.000110795
3.02271e-05
7.02132e-06
1.68095e-06
2.98943e-07
0
0
0
0.000773414
0.000345573
9.81945e-05
2.71293e-05
6.4351e-06
1.55668e-06
2.78685e-07
0
0
0
0
0
4.63364e-08
3.53293e-07
1.50427e-06
5.97494e-06
2.34422e-05
8.64006e-05
0.000248986
0.000672639
0.000680185
0.000303227
8.62051e-05
2.41229e-05
5.85219e-06
1.42574e-06
2.55894e-07
0
0
0
0
0
4.48384e-08
3.36268e-07
1.40114e-06
5.45491e-06
2.09274e-05
7.55806e-05
0.000214206
0.000562413
0.000591649
0.000263066
7.48945e-05
2.12415e-05
5.27785e-06
1.29382e-06
2.32586e-07
0
0
0
0
0
4.18603e-08
3.17167e-07
1.29526e-06
4.94809e-06
1.85595e-05
6.56867e-05
0.00018351
0.000468825
0.000508285
0.000225336
6.43369e-05
1.84872e-05
4.70439e-06
1.16136e-06
2.08535e-07
0
0
0
0
0
3.78256e-08
2.9566e-07
1.1877e-06
4.44347e-06
1.63022e-05
5.66835e-05
0.000156116
0.000389634
0.000430646
0.000190303
5.46035e-05
1.59331e-05
4.15568e-06
1.03459e-06
1.83342e-07
0
0
0
0
0
3.2796e-08
2.72227e-07
1.07933e-06
3.96232e-06
1.4225e-05
4.85329e-05
0.000132204
0.000322738
0.000359263
0.000158218
4.575e-05
1.35757e-05
3.6286e-06
9.12268e-07
1.57229e-07
0
0
0
0
0
2.68656e-08
2.47573e-07
9.71368e-07
3.50027e-06
1.22986e-05
4.11921e-05
0.000111169
0.000266221
0.000294621
0.000129296
3.78189e-05
1.1431e-05
3.13113e-06
7.95656e-07
1.30894e-07
0
0
0
0
0
2.02742e-08
2.2238e-07
8.65598e-07
3.06227e-06
1.05295e-05
3.46254e-05
9.27467e-05
0.000218492
0.000237173
0.000103728
3.08444e-05
9.51348e-06
2.67198e-06
6.86364e-07
1.05198e-07
0
0
0
0
0
1.3362e-08
1.97354e-07
7.64218e-07
2.6539e-06
8.92766e-06
2.88116e-05
7.67393e-05
0.000178312
0.000187391
8.17018e-05
2.48598e-05
7.83908e-06
2.26014e-06
5.86441e-07
8.10331e-08
0
0
0
0
0
6.51382e-09
1.73327e-07
6.69814e-07
2.28217e-06
7.50773e-06
2.37521e-05
6.30317e-05
0.000144809
0.000145888
6.34501e-05
1.99142e-05
6.43011e-06
1.90577e-06
4.98631e-07
5.93598e-08
0
0
0
0
0
1.43533e-10
1.51339e-07
5.85599e-07
1.95669e-06
6.29289e-06
1.94859e-05
5.16299e-05
0.000117528
0.000113727
4.93874e-05
1.61103e-05
5.32688e-06
1.62316e-06
4.27127e-07
4.14337e-08
0
0
0
0
0
0
1.32839e-07
5.16184e-07
1.6925e-06
5.3256e-06
1.61249e-05
4.27492e-05
9.66086e-05
9.33666e-05
4.05211e-05
1.37165e-05
4.62148e-06
1.43989e-06
3.79907e-07
2.94443e-08
0
0
0
0
0
0
1.20314e-07
4.69914e-07
1.51854e-06
4.69812e-06
1.39581e-05
3.70786e-05
8.33807e-05
)
;

boundaryField
{
    fuel
    {
        type            fixedValue;
        value           nonuniform 0();
    }
    wall
    {
        type            zeroGradient;
    }
    outlet
    {
        type            zeroGradient;
    }
    frontAndBack
    {
        type            empty;
    }
    procBoundary1to0
    {
        type            processor;
        value           nonuniform List<scalar> 
21
(
0.000971192
0.000435535
0.000123858
3.33696e-05
7.60426e-06
1.79223e-06
3.15272e-07
0
0
0
0
0
0
4.67243e-08
3.6838e-07
1.60506e-06
6.50567e-06
2.61033e-05
9.82106e-05
0.000288313
0.000804741
)
;
    }
}


// ************************************************************************* //
