/*--------------------------------*- C++ -*----------------------------------*\
| =========                 |                                                 |
| \\      /  F ield         | OpenFOAM: The Open Source CFD Toolbox           |
|  \\    /   O peration     | Version:  dev                                   |
|   \\  /    A nd           | Web:      www.OpenFOAM.org                      |
|    \\/     M anipulation  |                                                 |
\*---------------------------------------------------------------------------*/
FoamFile
{
    version     2.0;
    format      ascii;
    class       volScalarField;
    location    "0.18";
    object      p;
}
// * * * * * * * * * * * * * * * * * * * * * * * * * * * * * * * * * * * * * //

dimensions      [1 -1 -2 0 0 0 0];

internalField   nonuniform List<scalar> 
250
(
99999.1
99997.2
99995.5
99994
99992.7
99991.5
99990.6
99989.9
99989.4
99989.2
99999.1
99997.2
99995.5
99994
99992.7
99991.5
99990.6
99989.9
99989.4
99989.2
99989.2
99989.5
99990.1
99990.9
99991.8
99993.1
99994.1
99996.3
99996.5
100000
99999.1
99997.2
99995.5
99994
99992.7
99991.5
99990.6
99989.9
99989.4
99989.2
99989.2
99989.5
99990.1
99990.9
99991.8
99993.1
99994.1
99996.3
99996.6
100000
99999.1
99997.2
99995.5
99994
99992.7
99991.5
99990.6
99989.9
99989.4
99989.2
99989.2
99989.5
99990.1
99990.9
99991.8
99993.1
99994.1
99996.2
99996.6
100000
99999.1
99997.2
99995.5
99994
99992.7
99991.5
99990.6
99989.9
99989.4
99989.2
99989.2
99989.5
99990.1
99990.9
99991.8
99993.1
99994.1
99996.2
99996.6
100000
99999.1
99997.2
99995.5
99994
99992.7
99991.5
99990.6
99989.9
99989.4
99989.2
99989.2
99989.5
99990.1
99990.9
99991.8
99993.1
99994.1
99996.2
99996.7
100000
99999.1
99997.2
99995.5
99994
99992.7
99991.5
99990.6
99989.9
99989.4
99989.2
99989.2
99989.5
99990.1
99990.9
99991.8
99993.1
99994.1
99996.2
99996.7
100000
99999.1
99997.2
99995.5
99994
99992.7
99991.5
99990.6
99989.9
99989.4
99989.2
99989.2
99989.5
99990.1
99990.9
99991.8
99993.1
99994.1
99996.2
99996.7
100000
99999.1
99997.2
99995.5
99994
99992.7
99991.5
99990.6
99989.9
99989.4
99989.2
99989.2
99989.5
99990.1
99990.9
99991.8
99993.1
99994.1
99996.2
99996.7
100000
99999.1
99997.2
99995.6
99994
99992.7
99991.5
99990.6
99989.9
99989.4
99989.2
99989.2
99989.5
99990
99990.9
99991.8
99993.1
99994.1
99996.2
99996.7
100000
99999.1
99997.2
99995.6
99994
99992.7
99991.5
99990.6
99989.9
99989.4
99989.2
99989.2
99989.5
99990
99990.9
99991.8
99993.1
99994.2
99996.2
99996.8
100000
99999.2
99997.2
99995.6
99994
99992.7
99991.5
99990.6
99989.9
99989.4
99989.2
99989.2
99989.5
99990
99990.9
99991.8
99993.1
99994.2
99996.2
99996.8
100000
99999.2
99997.2
99995.6
99994
99992.7
99991.5
99990.6
99989.9
99989.4
99989.2
99989.2
99989.5
99990
99990.9
99991.8
99993.1
99994.2
99996.2
99996.8
100000
)
;

boundaryField
{
    fuel
    {
        type            zeroGradient;
    }
    wall
    {
        type            zeroGradient;
    }
    outlet
    {
        type            totalPressure;
        rho             none;
        psi             none;
        gamma           1;
        p0              uniform 100000;
        value           uniform 100000;
    }
    frontAndBack
    {
        type            empty;
    }
    procBoundary1to0
    {
        type            processor;
        value           nonuniform List<scalar> 
21
(
99999.1
99997.1
99995.5
99994
99992.7
99991.5
99990.6
99989.9
99989.4
99989.2
99989.2
99989.2
99989.5
99990.1
99990.9
99991.8
99993.1
99994.1
99996.3
99996.5
100000
)
;
    }
}


// ************************************************************************* //
