/*--------------------------------*- C++ -*----------------------------------*\
| =========                 |                                                 |
| \\      /  F ield         | OpenFOAM: The Open Source CFD Toolbox           |
|  \\    /   O peration     | Version:  dev                                   |
|   \\  /    A nd           | Web:      www.OpenFOAM.org                      |
|    \\/     M anipulation  |                                                 |
\*---------------------------------------------------------------------------*/
FoamFile
{
    version     2.0;
    format      ascii;
    class       volScalarField;
    location    "0.18";
    object      P2;
}
// * * * * * * * * * * * * * * * * * * * * * * * * * * * * * * * * * * * * * //

dimensions      [0 0 0 0 0 0 0];

internalField   nonuniform List<scalar> 
250
(
2.13576e-09
6.75194e-10
4.88512e-10
4.62555e-10
4.40909e-10
4.46605e-10
4.42638e-10
4.45896e-10
4.43947e-10
4.45482e-10
1.70744e-09
6.56574e-10
5.05449e-10
4.80042e-10
4.61998e-10
4.65841e-10
4.62715e-10
4.65205e-10
4.63624e-10
4.6487e-10
4.65012e-10
4.6275e-10
4.64761e-10
4.62766e-10
4.63694e-10
4.66044e-10
4.72887e-10
5.16451e-10
6.55153e-10
1.03917e-09
1.39284e-09
6.36891e-10
5.16554e-10
4.91649e-10
4.77119e-10
4.79235e-10
4.76928e-10
4.78681e-10
4.77463e-10
4.7843e-10
4.78567e-10
4.76668e-10
4.78332e-10
4.76722e-10
4.77607e-10
4.79769e-10
4.86679e-10
5.25293e-10
6.53149e-10
1.00238e-09
1.16034e-09
6.1676e-10
5.22105e-10
4.98233e-10
4.86792e-10
4.87551e-10
4.85929e-10
4.87076e-10
4.86167e-10
4.86904e-10
4.8704e-10
4.85446e-10
4.86813e-10
4.85529e-10
4.86355e-10
4.88286e-10
4.94993e-10
5.28572e-10
6.44229e-10
9.56012e-10
9.87897e-10
5.97516e-10
5.23396e-10
5.01523e-10
4.92551e-10
4.92396e-10
4.91249e-10
4.91989e-10
4.91294e-10
4.91881e-10
4.92023e-10
4.90629e-10
4.91792e-10
4.90731e-10
4.91492e-10
4.93159e-10
4.99385e-10
5.28082e-10
6.304e-10
9.03765e-10
8.60572e-10
5.81057e-10
5.22622e-10
5.03753e-10
4.96468e-10
4.96042e-10
4.95129e-10
4.95686e-10
4.95092e-10
4.9562e-10
4.95775e-10
4.94458e-10
4.95526e-10
4.94572e-10
4.95267e-10
4.96655e-10
5.02062e-10
5.26318e-10
6.14583e-10
8.50168e-10
7.66148e-10
5.6952e-10
5.2259e-10
5.07561e-10
5.01271e-10
5.01061e-10
5.00167e-10
5.00736e-10
5.00138e-10
5.00691e-10
5.00862e-10
4.99514e-10
5.00586e-10
4.9964e-10
5.00273e-10
5.01392e-10
5.05764e-10
5.26107e-10
6.00186e-10
7.99906e-10
7.02311e-10
5.64694e-10
5.26104e-10
5.15158e-10
5.09403e-10
5.09665e-10
5.08667e-10
5.09351e-10
5.08694e-10
5.09313e-10
5.09494e-10
5.08076e-10
5.09192e-10
5.08217e-10
5.0879e-10
5.09681e-10
5.12974e-10
5.29944e-10
5.90421e-10
7.56983e-10
6.62458e-10
5.67089e-10
5.34916e-10
5.27436e-10
5.22105e-10
5.22771e-10
5.21685e-10
5.22454e-10
5.21755e-10
5.22425e-10
5.22593e-10
5.21169e-10
5.2228e-10
5.21329e-10
5.21838e-10
5.22567e-10
5.2497e-10
5.39011e-10
5.8725e-10
7.2371e-10
6.4167e-10
5.75038e-10
5.48481e-10
5.43049e-10
5.38368e-10
5.39073e-10
5.38049e-10
5.3875e-10
5.38102e-10
5.38746e-10
5.3887e-10
5.37598e-10
5.3857e-10
5.3777e-10
5.38208e-10
5.38852e-10
5.40754e-10
5.5218e-10
5.90199e-10
6.99729e-10
6.3299e-10
5.84226e-10
5.63055e-10
5.57996e-10
5.54323e-10
5.54608e-10
5.53848e-10
5.5429e-10
5.53812e-10
5.54337e-10
5.54384e-10
5.53446e-10
5.54121e-10
5.5361e-10
5.53969e-10
5.54584e-10
5.56424e-10
5.65484e-10
5.95605e-10
6.81633e-10
6.27277e-10
5.89019e-10
5.72453e-10
5.67038e-10
5.6441e-10
5.64156e-10
5.63717e-10
5.63863e-10
5.63582e-10
5.63967e-10
5.6394e-10
5.63346e-10
5.63712e-10
5.63486e-10
5.63776e-10
5.64366e-10
5.6629e-10
5.73386e-10
5.97485e-10
6.64212e-10
6.20991e-10
5.8911e-10
5.7518e-10
5.69913e-10
5.67863e-10
5.67387e-10
5.67112e-10
5.67124e-10
5.66939e-10
5.67261e-10
5.67202e-10
5.66757e-10
5.66984e-10
5.66881e-10
5.6713e-10
5.6768e-10
5.69514e-10
5.7539e-10
5.95111e-10
6.48872e-10
)
;

boundaryField
{
    fuel
    {
        type            fixedValue;
        value           nonuniform 0();
    }
    wall
    {
        type            zeroGradient;
    }
    outlet
    {
        type            zeroGradient;
    }
    frontAndBack
    {
        type            empty;
    }
    procBoundary1to0
    {
        type            processor;
        value           nonuniform List<scalar> 
21
(
2.72199e-09
6.92959e-10
4.66489e-10
4.39245e-10
4.14309e-10
4.21686e-10
4.16984e-10
4.20922e-10
4.18659e-10
4.20446e-10
4.45632e-10
4.45632e-10
4.43004e-10
4.4536e-10
4.42975e-10
4.43926e-10
4.46416e-10
4.53025e-10
5.0116e-10
6.49438e-10
1.06432e-09
)
;
    }
}


// ************************************************************************* //
