/*--------------------------------*- C++ -*----------------------------------*\
| =========                 |                                                 |
| \\      /  F ield         | OpenFOAM: The Open Source CFD Toolbox           |
|  \\    /   O peration     | Version:  dev                                   |
|   \\  /    A nd           | Web:      www.OpenFOAM.org                      |
|    \\/     M anipulation  |                                                 |
\*---------------------------------------------------------------------------*/
FoamFile
{
    version     2.0;
    format      ascii;
    class       volScalarField;
    location    "0.125";
    object      A2C2HB*;
}
// * * * * * * * * * * * * * * * * * * * * * * * * * * * * * * * * * * * * * //

dimensions      [0 0 0 0 0 0 0];

internalField   nonuniform List<scalar> 
50
(
9.38431e-24
8.63452e-24
7.94921e-24
7.32119e-24
6.73082e-24
6.19079e-24
5.71272e-24
5.27812e-24
4.87941e-24
4.50369e-24
4.15683e-24
3.84962e-24
3.56594e-24
3.29863e-24
3.06019e-24
2.84036e-24
2.63559e-24
2.44286e-24
2.25553e-24
2.07581e-24
1.91313e-24
1.76005e-24
1.61425e-24
1.4758e-24
1.34345e-24
1.21804e-24
1.09504e-24
9.8171e-25
8.73478e-25
7.67018e-25
6.71456e-25
5.83009e-25
5.0102e-25
4.25346e-25
3.55949e-25
2.89967e-25
2.33933e-25
1.84829e-25
1.42502e-25
1.06538e-25
7.67503e-26
5.29652e-26
3.46712e-26
2.12548e-26
1.20188e-26
6.1663e-27
2.83274e-27
1.16845e-27
4.52142e-28
1.92269e-28
)
;

boundaryField
{
    wall
    {
        type            zeroGradient;
    }
    fuel
    {
        type            fixedValue;
        value           nonuniform 0();
    }
    outlet
    {
        type            inletOutlet;
        inletValue      uniform 0;
        value           uniform 1.92269e-28;
    }
    procBoundary3to2
    {
        type            processor;
        value           uniform 1.02092e-23;
    }
}


// ************************************************************************* //
