/*--------------------------------*- C++ -*----------------------------------*\
| =========                 |                                                 |
| \\      /  F ield         | OpenFOAM: The Open Source CFD Toolbox           |
|  \\    /   O peration     | Version:  dev                                   |
|   \\  /    A nd           | Web:      www.OpenFOAM.org                      |
|    \\/     M anipulation  |                                                 |
\*---------------------------------------------------------------------------*/
FoamFile
{
    version     2.0;
    format      ascii;
    class       volScalarField;
    location    "0.125";
    object      CH2(S);
}
// * * * * * * * * * * * * * * * * * * * * * * * * * * * * * * * * * * * * * //

dimensions      [0 0 0 0 0 0 0];

internalField   nonuniform List<scalar> 
250
(
2.29227e-06
2.2924e-06
2.2924e-06
2.29228e-06
2.29252e-06
2.29251e-06
2.2923e-06
2.28912e-06
2.25198e-06
1.87714e-06
3.96689e-10
1.38421e-06
1.38422e-06
1.38429e-06
1.38412e-06
1.38441e-06
1.38415e-06
1.38437e-06
1.38286e-06
1.36672e-06
1.21035e-06
2.37501e-10
6.22139e-07
6.22154e-07
6.2221e-07
6.22051e-07
6.22319e-07
6.22013e-07
6.22307e-07
6.21432e-07
6.11056e-07
5.30165e-07
8.50499e-11
2.94289e-07
2.94318e-07
2.94347e-07
2.94234e-07
2.94422e-07
2.94197e-07
2.94412e-07
2.94097e-07
2.85898e-07
2.35921e-07
4.28458e-11
1.61824e-07
1.6186e-07
1.61871e-07
1.61791e-07
1.61905e-07
1.61772e-07
1.6191e-07
1.62525e-07
1.55184e-07
1.17676e-07
2.36743e-11
1.04793e-07
1.04829e-07
1.04832e-07
1.04771e-07
1.04816e-07
1.04768e-07
1.0485e-07
1.03436e-07
9.73044e-08
6.6205e-08
1.4672e-11
7.7884e-08
7.79178e-08
7.79172e-08
7.78657e-08
7.7811e-08
7.78741e-08
7.79285e-08
7.71425e-08
7.09373e-08
4.14015e-08
1.26911e-11
6.41043e-08
6.41346e-08
6.41336e-08
6.40859e-08
6.38292e-08
6.41037e-08
6.41459e-08
6.36829e-08
5.73039e-08
2.82169e-08
1.75394e-11
5.56842e-08
5.57086e-08
5.57107e-08
5.56591e-08
5.5967e-08
5.56945e-08
5.5695e-08
5.53064e-08
4.90083e-08
2.09725e-08
3.7899e-11
5.10783e-08
5.10937e-08
5.1098e-08
5.10435e-08
5.11879e-08
5.10871e-08
5.10648e-08
5.02341e-08
4.37996e-08
1.68546e-08
8.30399e-11
4.79164e-08
4.79244e-08
4.78536e-08
4.80277e-08
4.79198e-08
4.79195e-08
4.72835e-08
4.07994e-08
1.4502e-08
1.29958e-10
4.54433e-08
4.54561e-08
4.53663e-08
4.56048e-08
4.54551e-08
4.54535e-08
4.48802e-08
3.85536e-08
1.30584e-08
1.63463e-10
4.34592e-08
4.34781e-08
4.33554e-08
4.35671e-08
4.34806e-08
4.34904e-08
4.2957e-08
3.67471e-08
1.23074e-08
2.09192e-10
4.1731e-08
4.17575e-08
4.15819e-08
4.18304e-08
4.1764e-08
4.17911e-08
4.12954e-08
3.54232e-08
1.21411e-08
2.86041e-10
4.01275e-08
4.01636e-08
4.01326e-08
4.02362e-08
4.01739e-08
4.02209e-08
3.97669e-08
3.42324e-08
1.23141e-08
4.03681e-10
3.85717e-08
3.86179e-08
3.85557e-08
3.8696e-08
3.86329e-08
3.87013e-08
3.82956e-08
3.31322e-08
1.27358e-08
5.75689e-10
3.70158e-08
3.70724e-08
3.69782e-08
3.71594e-08
3.7093e-08
3.71842e-08
3.68335e-08
3.20868e-08
1.33323e-08
8.25331e-10
3.54273e-08
3.54946e-08
3.53636e-08
3.55932e-08
3.55218e-08
3.5637e-08
3.5347e-08
3.10491e-08
1.40318e-08
1.18616e-09
3.37819e-08
3.38604e-08
3.36807e-08
3.39729e-08
3.38953e-08
3.40353e-08
3.38099e-08
2.99761e-08
1.49074e-08
1.69829e-09
3.2059e-08
3.21494e-08
3.18958e-08
3.22786e-08
3.21933e-08
3.23583e-08
3.21992e-08
2.88297e-08
1.56424e-08
2.39468e-09
3.02394e-08
3.03429e-08
3.02055e-08
3.04928e-08
3.03971e-08
3.05869e-08
3.04919e-08
2.75804e-08
1.62788e-08
3.29086e-09
2.8305e-08
2.84179e-08
2.84259e-08
2.85926e-08
2.84859e-08
2.87005e-08
2.86612e-08
2.62043e-08
1.67629e-08
4.36856e-09
2.64863e-08
2.65917e-08
2.65696e-08
2.67943e-08
2.66798e-08
2.69158e-08
2.69387e-08
2.4681e-08
1.70326e-08
5.5662e-09
2.44406e-08
2.46699e-08
2.4485e-08
2.47673e-08
2.46372e-08
2.4917e-08
2.50463e-08
2.31831e-08
1.7061e-08
6.78565e-09
)
;

boundaryField
{
    fuel
    {
        type            fixedValue;
        value           uniform 0;
    }
    wall
    {
        type            zeroGradient;
    }
    outlet
    {
        type            zeroGradient;
    }
    frontAndBack
    {
        type            empty;
    }
    procBoundary3to0
    {
        type            processor;
        value           nonuniform List<scalar> 10(2.24269e-08 2.26574e-08 2.24535e-08 2.27655e-08 2.26289e-08 2.29286e-08 2.31176e-08 2.14488e-08 1.68067e-08 7.86809e-09);
    }
    procBoundary3to2
    {
        type            processor;
        value           nonuniform List<scalar> 
25
(
2.29267e-06
1.38436e-06
6.22222e-07
2.94354e-07
1.61883e-07
1.04845e-07
7.79287e-08
6.41432e-08
5.57151e-08
5.10998e-08
4.79043e-08
4.79043e-08
4.54296e-08
4.34462e-08
4.17197e-08
4.0119e-08
3.85673e-08
3.70165e-08
3.54342e-08
3.37965e-08
3.20835e-08
3.02766e-08
2.8356e-08
2.65404e-08
2.44822e-08
)
;
    }
}


// ************************************************************************* //
