/*--------------------------------*- C++ -*----------------------------------*\
| =========                 |                                                 |
| \\      /  F ield         | OpenFOAM: The Open Source CFD Toolbox           |
|  \\    /   O peration     | Version:  dev                                   |
|   \\  /    A nd           | Web:      www.OpenFOAM.org                      |
|    \\/     M anipulation  |                                                 |
\*---------------------------------------------------------------------------*/
FoamFile
{
    version     2.0;
    format      ascii;
    class       volScalarField;
    location    "0.125";
    object      CO2;
}
// * * * * * * * * * * * * * * * * * * * * * * * * * * * * * * * * * * * * * //

dimensions      [0 0 0 0 0 0 0];

internalField   nonuniform List<scalar> 
250
(
0.0392994
0.0392999
0.0392997
0.0392996
0.0392997
0.0393007
0.0393009
0.0393051
0.0393131
0.0390177
0.00498092
0.0465303
0.0465309
0.0465307
0.0465305
0.0465302
0.0465317
0.0465334
0.0465482
0.0466429
0.0469741
0.0133038
0.0485389
0.0485395
0.0485395
0.0485388
0.0485386
0.0485406
0.048545
0.048572
0.0487471
0.0495236
0.0212073
0.0491743
0.049175
0.0491753
0.0491737
0.0491738
0.0491764
0.0491843
0.049225
0.0494726
0.0505596
0.02783
0.0493475
0.0493486
0.049349
0.0493464
0.0493464
0.0493502
0.0493622
0.0494176
0.0497292
0.0510547
0.0329152
0.0493298
0.0493312
0.0493318
0.0493282
0.0493273
0.0493332
0.0493495
0.0494188
0.0497894
0.051306
0.036626
0.0492193
0.0492212
0.049222
0.0492172
0.0492141
0.0492236
0.0492446
0.049331
0.0497495
0.0514153
0.0392754
0.0490593
0.0490615
0.0490624
0.0490566
0.0490491
0.0490644
0.0490898
0.0491959
0.049653
0.0514313
0.0411777
0.0488459
0.0488483
0.0488495
0.0488425
0.048854
0.0488521
0.04888
0.049005
0.0495039
0.0513804
0.0425856
0.0486384
0.0486408
0.0486421
0.048634
0.048642
0.0486451
0.0486741
0.0487892
0.0493158
0.0512787
0.0436725
0.0484141
0.0484158
0.0484053
0.04842
0.0484195
0.0484528
0.0485925
0.0491352
0.051138
0.0445533
0.048162
0.048164
0.0481502
0.0481771
0.0481683
0.0482043
0.0483626
0.0489274
0.0509414
0.0452991
0.0479063
0.0479089
0.0478899
0.0479173
0.0479139
0.0479534
0.0481269
0.0486906
0.0506913
0.0459507
0.0476523
0.0476557
0.0476288
0.0476628
0.0476613
0.0477048
0.0478905
0.0484703
0.0504628
0.0465296
0.0474042
0.0474085
0.047407
0.0474155
0.0474145
0.0474618
0.047657
0.0482387
0.0502208
0.0470427
0.0471653
0.0471705
0.0471667
0.0471777
0.0471769
0.0472276
0.0474296
0.0480047
0.049968
0.0474886
0.0469388
0.0469447
0.0469383
0.0469521
0.0469515
0.0470048
0.0472109
0.0477784
0.049708
0.0478631
0.0467274
0.0467337
0.0467245
0.0467414
0.0467408
0.046796
0.0470036
0.0475634
0.0494459
0.0481623
0.0465339
0.0465401
0.0465274
0.0465481
0.0465476
0.0466038
0.0468101
0.0473615
0.0491312
0.0483849
0.0463606
0.0463664
0.0463485
0.0463747
0.0463742
0.0464303
0.0466328
0.0471748
0.0488662
0.0485353
0.04621
0.0462148
0.0462093
0.0462235
0.0462231
0.0462779
0.0464737
0.0470054
0.0486141
0.04862
0.0460843
0.0460875
0.0460938
0.0460964
0.0460963
0.0461487
0.0463351
0.0468557
0.048374
0.0486484
0.0459982
0.0459989
0.0460049
0.046008
0.0460087
0.0460579
0.046235
0.0467282
0.0481575
0.0486328
0.045936
0.0459381
0.0459401
0.0459425
0.0459439
0.0459897
0.0461571
0.0466374
0.0479657
0.0485864
)
;

boundaryField
{
    fuel
    {
        type            fixedValue;
        value           uniform 0;
    }
    wall
    {
        type            zeroGradient;
    }
    outlet
    {
        type            zeroGradient;
    }
    frontAndBack
    {
        type            empty;
    }
    procBoundary3to0
    {
        type            processor;
        value           nonuniform List<scalar> 10(0.0459075 0.0459066 0.0459101 0.04591 0.0459127 0.0459539 0.046109 0.0465675 0.047801 0.0485229);
    }
    procBoundary3to2
    {
        type            processor;
        value           nonuniform List<scalar> 
25
(
0.0393004
0.0465307
0.0485393
0.0491748
0.0493484
0.049331
0.049221
0.0490613
0.0488481
0.0486406
0.0484112
0.0484112
0.0481589
0.0479032
0.0476493
0.0474013
0.0471628
0.0469367
0.0467258
0.0465328
0.0463601
0.04621
0.0460848
0.0459987
0.0459358
)
;
    }
}


// ************************************************************************* //
