/*--------------------------------*- C++ -*----------------------------------*\
| =========                 |                                                 |
| \\      /  F ield         | OpenFOAM: The Open Source CFD Toolbox           |
|  \\    /   O peration     | Version:  dev                                   |
|   \\  /    A nd           | Web:      www.OpenFOAM.org                      |
|    \\/     M anipulation  |                                                 |
\*---------------------------------------------------------------------------*/
FoamFile
{
    version     2.0;
    format      ascii;
    class       volScalarField;
    location    "0.125";
    object      n-A1C2H2;
}
// * * * * * * * * * * * * * * * * * * * * * * * * * * * * * * * * * * * * * //

dimensions      [0 0 0 0 0 0 0];

internalField   nonuniform List<scalar> 
250
(
1.24822e-08
1.24805e-08
1.24808e-08
1.24813e-08
1.24801e-08
1.2483e-08
1.24856e-08
1.25375e-08
1.30617e-08
1.9059e-08
2.52188e-11
3.97489e-09
3.97439e-09
3.9747e-09
3.97438e-09
3.97464e-09
3.97543e-09
3.97743e-09
4.00027e-09
4.2267e-09
7.06142e-09
3.07159e-10
1.52621e-09
1.52611e-09
1.52631e-09
1.52593e-09
1.52635e-09
1.52634e-09
1.52814e-09
1.54166e-09
1.66921e-09
3.44581e-09
8.09621e-10
7.19539e-10
7.19594e-10
7.19707e-10
7.19387e-10
7.19707e-10
7.19597e-10
7.211e-10
7.31642e-10
8.17629e-10
2.16144e-09
1.23157e-09
3.94676e-10
3.94784e-10
3.94843e-10
3.9458e-10
3.9474e-10
3.9474e-10
3.95967e-10
4.06624e-10
4.69492e-10
1.54349e-09
1.24566e-09
2.41358e-10
2.41479e-10
2.41509e-10
2.4129e-10
2.41219e-10
2.41439e-10
2.42435e-10
2.4567e-10
2.96067e-10
1.16918e-09
1.13528e-09
1.60547e-10
1.60664e-10
1.60677e-10
1.60494e-10
1.60034e-10
1.60639e-10
1.6149e-10
1.6559e-10
2.05941e-10
9.13102e-10
1.30912e-09
1.14596e-10
1.14702e-10
1.14707e-10
1.14553e-10
1.13346e-10
1.14693e-10
1.15457e-10
1.20045e-10
1.53172e-10
7.22187e-10
1.73728e-09
8.37394e-11
8.38259e-11
8.38337e-11
8.36942e-11
8.46856e-11
8.38576e-11
8.44017e-11
8.87598e-11
1.16978e-10
5.79615e-10
1.92984e-09
6.58875e-11
6.59515e-11
6.59582e-11
6.58421e-11
6.62167e-11
6.59918e-11
6.63878e-11
6.8533e-11
9.17972e-11
4.70462e-10
1.65547e-09
5.34583e-11
5.3468e-11
5.33301e-11
5.38064e-11
5.35163e-11
5.39528e-11
5.66022e-11
7.627e-11
3.85316e-10
1.21834e-09
4.41095e-11
4.41217e-11
4.39652e-11
4.46159e-11
4.41737e-11
4.45593e-11
4.71823e-11
6.40764e-11
3.09185e-10
8.27545e-10
3.73285e-11
3.73455e-11
3.71297e-11
3.7584e-11
3.73999e-11
3.77837e-11
4.02785e-11
5.41382e-11
2.42415e-10
5.65676e-10
3.22426e-11
3.22666e-11
3.19397e-11
3.24117e-11
3.23234e-11
3.27208e-11
3.50588e-11
4.70955e-11
1.97247e-10
3.93111e-10
2.83055e-11
2.83388e-11
2.83978e-11
2.8446e-11
2.83956e-11
2.88054e-11
3.09814e-11
4.12084e-11
1.61013e-10
2.72507e-10
2.51704e-11
2.52113e-11
2.52229e-11
2.52991e-11
2.52681e-11
2.56841e-11
2.77039e-11
3.63613e-11
1.31891e-10
1.89887e-10
2.26154e-11
2.26616e-11
2.26345e-11
2.27391e-11
2.27181e-11
2.31342e-11
2.50067e-11
3.24079e-11
1.08556e-10
1.36836e-10
2.04969e-11
2.05457e-11
2.04845e-11
2.0618e-11
2.0602e-11
2.10127e-11
2.27463e-11
2.91508e-11
9.00613e-11
1.0436e-10
1.87203e-11
1.87688e-11
1.86712e-11
1.88392e-11
1.88252e-11
1.92256e-11
2.08271e-11
2.6429e-11
7.27105e-11
8.46024e-11
1.72213e-11
1.72669e-11
1.71204e-11
1.73375e-11
1.73241e-11
1.77094e-11
1.91835e-11
2.41437e-11
6.08803e-11
7.22667e-11
1.59544e-11
1.5995e-11
1.59485e-11
1.60684e-11
1.60539e-11
1.64196e-11
1.77689e-11
2.22139e-11
5.16875e-11
6.41371e-11
1.4887e-11
1.49188e-11
1.49666e-11
1.49966e-11
1.49817e-11
1.53243e-11
1.65479e-11
2.0581e-11
4.44464e-11
5.84031e-11
1.41112e-11
1.4128e-11
1.41662e-11
1.42112e-11
1.4198e-11
1.45178e-11
1.56432e-11
1.92016e-11
3.89176e-11
5.4083e-11
1.34494e-11
1.34961e-11
1.34807e-11
1.35346e-11
1.3522e-11
1.38243e-11
1.48693e-11
1.81816e-11
3.46722e-11
5.06615e-11
)
;

boundaryField
{
    fuel
    {
        type            fixedValue;
        value           uniform 0;
    }
    wall
    {
        type            zeroGradient;
    }
    outlet
    {
        type            zeroGradient;
    }
    frontAndBack
    {
        type            empty;
    }
    procBoundary3to0
    {
        type            processor;
        value           nonuniform List<scalar> 10(1.29805e-11 1.30144e-11 1.30003e-11 1.30494e-11 1.30408e-11 1.3319e-11 1.42758e-11 1.72955e-11 3.14066e-11 4.78595e-11);
    }
    procBoundary3to2
    {
        type            processor;
        value           nonuniform List<scalar> 
25
(
1.24817e-08
3.97517e-09
1.52634e-09
7.1965e-10
3.948e-10
2.41486e-10
1.60669e-10
1.14706e-10
8.38277e-11
6.59532e-11
5.33979e-11
5.33979e-11
4.40591e-11
3.72848e-11
3.22039e-11
2.82718e-11
2.51427e-11
2.25943e-11
2.04824e-11
1.8712e-11
1.7219e-11
1.59583e-11
1.48969e-11
1.41225e-11
1.34544e-11
)
;
    }
}


// ************************************************************************* //
