/*--------------------------------*- C++ -*----------------------------------*\
| =========                 |                                                 |
| \\      /  F ield         | OpenFOAM: The Open Source CFD Toolbox           |
|  \\    /   O peration     | Version:  dev                                   |
|   \\  /    A nd           | Web:      www.OpenFOAM.org                      |
|    \\/     M anipulation  |                                                 |
\*---------------------------------------------------------------------------*/
FoamFile
{
    version     2.0;
    format      ascii;
    class       volScalarField;
    location    "0.125";
    object      P2-;
}
// * * * * * * * * * * * * * * * * * * * * * * * * * * * * * * * * * * * * * //

dimensions      [0 0 0 0 0 0 0];

internalField   nonuniform List<scalar> 
50
(
3.46044e-24
3.01219e-24
2.60895e-24
2.24721e-24
1.91648e-24
1.62326e-24
1.37227e-24
1.15319e-24
9.61752e-25
7.9173e-25
6.44935e-25
5.24083e-25
4.2175e-25
3.34497e-25
2.64634e-25
2.07611e-25
1.61228e-25
1.23694e-25
9.29216e-26
6.84182e-26
5.02084e-26
3.63855e-26
2.59425e-26
1.81981e-26
1.252e-26
8.4654e-27
5.5378e-27
3.58315e-27
2.26328e-27
1.36792e-27
8.21433e-28
4.85084e-28
2.81705e-28
1.61434e-28
9.19347e-29
5.10156e-29
2.93904e-29
1.73695e-29
1.05298e-29
6.48806e-30
4.00264e-30
2.43376e-30
1.43137e-30
7.98573e-31
4.14578e-31
1.96679e-31
8.42045e-32
3.27712e-32
1.22763e-32
5.26209e-33
)
;

boundaryField
{
    wall
    {
        type            zeroGradient;
    }
    fuel
    {
        type            fixedValue;
        value           nonuniform 0();
    }
    outlet
    {
        type            inletOutlet;
        inletValue      uniform 0;
        value           uniform 5.26209e-33;
    }
    procBoundary3to2
    {
        type            processor;
        value           uniform 3.95785e-24;
    }
}


// ************************************************************************* //
