/*--------------------------------*- C++ -*----------------------------------*\
| =========                 |                                                 |
| \\      /  F ield         | OpenFOAM: The Open Source CFD Toolbox           |
|  \\    /   O peration     | Version:  dev                                   |
|   \\  /    A nd           | Web:      www.OpenFOAM.org                      |
|    \\/     M anipulation  |                                                 |
\*---------------------------------------------------------------------------*/
FoamFile
{
    version     2.0;
    format      ascii;
    class       volScalarField;
    location    "0.125";
    object      PC3H4;
}
// * * * * * * * * * * * * * * * * * * * * * * * * * * * * * * * * * * * * * //

dimensions      [0 0 0 0 0 0 0];

internalField   nonuniform List<scalar> 
250
(
5.45345e-07
5.45343e-07
5.45195e-07
5.45349e-07
5.45406e-07
5.45334e-07
5.45697e-07
5.47015e-07
5.56475e-07
6.29626e-07
1.1022e-06
3.62487e-07
3.62482e-07
3.62493e-07
3.62542e-07
3.62534e-07
3.62557e-07
3.62719e-07
3.63706e-07
3.70178e-07
4.16309e-07
2.5246e-06
2.91546e-07
2.91542e-07
2.91646e-07
2.91662e-07
2.9164e-07
2.9169e-07
2.91818e-07
2.92844e-07
2.99251e-07
3.40255e-07
3.39387e-06
2.64913e-07
2.64926e-07
2.65126e-07
2.65125e-07
2.65097e-07
2.65163e-07
2.65299e-07
2.66514e-07
2.73876e-07
3.16873e-07
3.88484e-06
2.51624e-07
2.51683e-07
2.52025e-07
2.52011e-07
2.51978e-07
2.5206e-07
2.522e-07
2.53661e-07
2.62251e-07
3.09671e-07
4.14519e-06
2.41782e-07
2.41927e-07
2.41772e-07
2.41735e-07
2.41697e-07
2.41807e-07
2.41948e-07
2.43915e-07
2.54191e-07
3.07014e-07
4.21841e-06
2.32859e-07
2.33124e-07
2.33022e-07
2.32963e-07
2.32926e-07
2.33054e-07
2.33144e-07
2.3544e-07
2.47065e-07
3.05565e-07
4.00732e-06
2.2381e-07
2.24314e-07
2.24214e-07
2.24109e-07
2.24084e-07
2.24253e-07
2.24791e-07
2.27439e-07
2.39907e-07
3.04304e-07
3.21931e-06
2.15653e-07
2.16385e-07
2.16319e-07
2.16176e-07
2.1617e-07
2.16357e-07
2.16897e-07
2.1927e-07
2.32406e-07
3.03434e-07
2.66012e-06
2.07963e-07
2.07766e-07
2.07727e-07
2.07531e-07
2.07569e-07
2.07763e-07
2.08315e-07
2.10925e-07
2.26117e-07
3.01884e-07
2.23532e-06
2.00618e-07
2.00602e-07
2.00345e-07
2.00474e-07
2.00639e-07
2.01206e-07
2.03964e-07
2.1951e-07
2.98722e-07
1.70315e-06
1.9308e-07
1.93072e-07
1.92713e-07
1.93041e-07
1.93118e-07
1.93756e-07
1.97057e-07
2.12774e-07
2.94056e-07
1.28348e-06
1.85794e-07
1.858e-07
1.85314e-07
1.85833e-07
1.8585e-07
1.86514e-07
1.89993e-07
2.06078e-07
2.87469e-07
9.99899e-07
1.78865e-07
1.78882e-07
1.78214e-07
1.78929e-07
1.78934e-07
1.79625e-07
1.83246e-07
2.00356e-07
2.80313e-07
8.12864e-07
1.72288e-07
1.72318e-07
1.72318e-07
1.72356e-07
1.72367e-07
1.73084e-07
1.76802e-07
1.94235e-07
2.72294e-07
6.8528e-07
1.66065e-07
1.661e-07
1.66056e-07
1.66121e-07
1.66151e-07
1.66889e-07
1.70652e-07
1.87881e-07
2.63389e-07
5.94347e-07
1.60194e-07
1.6023e-07
1.60139e-07
1.60236e-07
1.60286e-07
1.6104e-07
1.6479e-07
1.82431e-07
2.53082e-07
5.25744e-07
1.54677e-07
1.5471e-07
1.54563e-07
1.5471e-07
1.54775e-07
1.55537e-07
1.592e-07
1.77141e-07
2.43657e-07
4.71095e-07
1.49515e-07
1.4954e-07
1.49326e-07
1.49545e-07
1.4962e-07
1.50383e-07
1.53859e-07
1.71439e-07
2.33675e-07
4.25574e-07
1.44709e-07
1.44719e-07
1.44416e-07
1.44743e-07
1.44819e-07
1.45579e-07
1.49388e-07
1.65942e-07
2.23112e-07
3.86453e-07
1.40256e-07
1.40244e-07
1.40388e-07
1.40301e-07
1.40371e-07
1.4112e-07
1.45122e-07
1.60693e-07
2.12755e-07
3.52206e-07
1.36149e-07
1.361e-07
1.36264e-07
1.36202e-07
1.36267e-07
1.36996e-07
1.40806e-07
1.55703e-07
2.02564e-07
3.21971e-07
1.32826e-07
1.3273e-07
1.32928e-07
1.32887e-07
1.32945e-07
1.33656e-07
1.37271e-07
1.51002e-07
1.93662e-07
2.95277e-07
1.29609e-07
1.29719e-07
1.29701e-07
1.29677e-07
1.29735e-07
1.30424e-07
1.33916e-07
1.4659e-07
1.85366e-07
2.71851e-07
)
;

boundaryField
{
    fuel
    {
        type            fixedValue;
        value           uniform 0;
    }
    wall
    {
        type            zeroGradient;
    }
    outlet
    {
        type            zeroGradient;
    }
    frontAndBack
    {
        type            empty;
    }
    procBoundary3to0
    {
        type            processor;
        value           nonuniform List<scalar> 10(1.26971e-07 1.27064e-07 1.27053e-07 1.27041e-07 1.27095e-07 1.27757e-07 1.31044e-07 1.42457e-07 1.77945e-07 2.51626e-07);
    }
    procBoundary3to2
    {
        type            processor;
        value           nonuniform List<scalar> 
25
(
5.45333e-07
3.62521e-07
2.9163e-07
2.65076e-07
2.51933e-07
2.41594e-07
2.32688e-07
2.24176e-07
2.161e-07
2.07495e-07
2.00786e-07
2.00786e-07
1.93261e-07
1.85966e-07
1.79033e-07
1.72455e-07
1.66229e-07
1.60352e-07
1.54825e-07
1.49649e-07
1.44826e-07
1.40354e-07
1.36227e-07
1.32888e-07
1.29653e-07
)
;
    }
}


// ************************************************************************* //
