/*--------------------------------*- C++ -*----------------------------------*\
| =========                 |                                                 |
| \\      /  F ield         | OpenFOAM: The Open Source CFD Toolbox           |
|  \\    /   O peration     | Version:  dev                                   |
|   \\  /    A nd           | Web:      www.OpenFOAM.org                      |
|    \\/     M anipulation  |                                                 |
\*---------------------------------------------------------------------------*/
FoamFile
{
    version     2.0;
    format      ascii;
    class       volScalarField;
    location    "0.12";
    object      A2C2HA*;
}
// * * * * * * * * * * * * * * * * * * * * * * * * * * * * * * * * * * * * * //

dimensions      [0 0 0 0 0 0 0];

internalField   nonuniform List<scalar> 
50
(
7.41389e-20
6.69681e-20
6.0537e-20
5.47647e-20
4.95794e-20
4.49658e-20
4.08036e-20
3.70301e-20
3.36309e-20
3.05669e-20
2.78033e-20
2.5335e-20
2.30866e-20
2.10723e-20
1.92511e-20
1.75868e-20
1.60946e-20
1.47426e-20
1.35169e-20
1.24049e-20
1.13865e-20
1.04591e-20
9.61559e-21
8.85575e-21
8.16336e-21
7.53182e-21
6.95519e-21
6.42823e-21
5.94613e-21
5.50459e-21
5.09972e-21
4.72802e-21
4.38602e-21
4.07161e-21
3.78194e-21
3.5147e-21
3.26636e-21
3.03543e-21
2.82389e-21
2.62669e-21
2.44235e-21
2.27281e-21
2.11462e-21
1.96571e-21
1.8266e-21
1.698e-21
1.5768e-21
1.46389e-21
1.3579e-21
1.25831e-21
)
;

boundaryField
{
    wall
    {
        type            zeroGradient;
    }
    fuel
    {
        type            fixedValue;
        value           nonuniform 0();
    }
    outlet
    {
        type            inletOutlet;
        inletValue      nonuniform 0();
        value           nonuniform 0();
    }
    procBoundary2to1
    {
        type            processor;
        value           uniform 8.21335e-20;
    }
    procBoundary2to3
    {
        type            processor;
        value           uniform 1.16472e-21;
    }
}


// ************************************************************************* //
