/*--------------------------------*- C++ -*----------------------------------*\
| =========                 |                                                 |
| \\      /  F ield         | OpenFOAM: The Open Source CFD Toolbox           |
|  \\    /   O peration     | Version:  dev                                   |
|   \\  /    A nd           | Web:      www.OpenFOAM.org                      |
|    \\/     M anipulation  |                                                 |
\*---------------------------------------------------------------------------*/
FoamFile
{
    version     2.0;
    format      ascii;
    class       volScalarField;
    location    "0.12";
    object      A3C2H;
}
// * * * * * * * * * * * * * * * * * * * * * * * * * * * * * * * * * * * * * //

dimensions      [0 0 0 0 0 0 0];

internalField   nonuniform List<scalar> 
50
(
9.2042e-23
8.36921e-23
7.62004e-23
6.94648e-23
6.3397e-23
5.79772e-23
5.3065e-23
4.8588e-23
4.45315e-23
4.08518e-23
3.75103e-23
3.45043e-23
3.17456e-23
2.92546e-23
2.69837e-23
2.48907e-23
2.29971e-23
2.12652e-23
1.96798e-23
1.8227e-23
1.68827e-23
1.56455e-23
1.45076e-23
1.34708e-23
1.25151e-23
1.16331e-23
1.08181e-23
1.00643e-23
9.3663e-24
8.71913e-24
8.11841e-24
7.56011e-24
7.04012e-24
6.55626e-24
6.10508e-24
5.68396e-24
5.28812e-24
4.91593e-24
4.57126e-24
4.24662e-24
3.94019e-24
3.65574e-24
3.38807e-24
3.13421e-24
2.89543e-24
2.67333e-24
2.46294e-24
2.26611e-24
2.08072e-24
1.90603e-24
)
;

boundaryField
{
    wall
    {
        type            zeroGradient;
    }
    fuel
    {
        type            fixedValue;
        value           nonuniform 0();
    }
    outlet
    {
        type            inletOutlet;
        inletValue      nonuniform 0();
        value           nonuniform 0();
    }
    procBoundary2to1
    {
        type            processor;
        value           uniform 1.01195e-22;
    }
    procBoundary2to3
    {
        type            processor;
        value           uniform 1.74235e-24;
    }
}


// ************************************************************************* //
