/*--------------------------------*- C++ -*----------------------------------*\
| =========                 |                                                 |
| \\      /  F ield         | OpenFOAM: The Open Source CFD Toolbox           |
|  \\    /   O peration     | Version:  dev                                   |
|   \\  /    A nd           | Web:      www.OpenFOAM.org                      |
|    \\/     M anipulation  |                                                 |
\*---------------------------------------------------------------------------*/
FoamFile
{
    version     2.0;
    format      ascii;
    class       volScalarField;
    location    "0.12";
    object      HCCO;
}
// * * * * * * * * * * * * * * * * * * * * * * * * * * * * * * * * * * * * * //

dimensions      [0 0 0 0 0 0 0];

internalField   nonuniform List<scalar> 
250
(
1.78042e-08
0.000163657
0.000163122
0.000162997
0.000162971
0.000162969
0.000162967
0.000162967
0.000162968
1.01144e-08
6.26381e-05
5.89486e-05
5.85328e-05
5.84623e-05
5.84575e-05
5.84531e-05
5.84531e-05
5.8456e-05
4.97656e-09
2.44236e-05
2.17545e-05
2.15456e-05
2.15036e-05
2.15022e-05
2.1499e-05
2.14987e-05
2.15015e-05
3.32548e-09
1.20755e-05
9.81689e-06
9.71723e-06
9.69286e-06
9.69246e-06
9.69039e-06
9.69021e-06
9.69237e-06
3.23099e-09
7.43231e-06
5.38017e-06
5.32332e-06
5.30989e-06
5.30814e-06
5.30849e-06
5.30872e-06
5.31045e-06
4.44417e-09
5.28986e-06
3.43988e-06
3.43817e-06
3.43744e-06
3.42849e-06
3.43784e-06
3.43868e-06
3.43994e-06
8.72983e-09
4.08778e-06
2.53137e-06
2.53601e-06
2.5203e-06
2.52836e-06
2.51077e-06
2.51389e-06
2.5155e-06
2.61341e-08
3.29775e-06
2.00554e-06
2.06619e-06
2.05217e-06
2.05415e-06
2.04493e-06
2.04736e-06
2.04859e-06
1.20052e-07
2.71045e-06
1.72546e-06
1.76401e-06
1.77608e-06
1.77842e-06
1.77696e-06
1.77535e-06
1.77626e-06
5.50447e-07
2.26669e-06
1.53883e-06
1.59656e-06
1.60033e-06
1.6012e-06
1.6025e-06
1.59849e-06
1.59895e-06
1.55029e-06
1.91289e-06
1.39887e-06
1.46901e-06
1.47146e-06
1.47212e-06
1.47222e-06
1.46956e-06
1.46987e-06
1.4685e-06
3.0786e-06
1.62671e-06
1.29126e-06
1.37141e-06
1.37341e-06
1.37387e-06
1.37131e-06
1.37133e-06
1.37168e-06
1.37077e-06
4.33641e-06
1.39417e-06
1.21423e-06
1.29119e-06
1.29249e-06
1.29285e-06
1.29694e-06
1.2902e-06
1.29083e-06
1.29048e-06
4.62032e-06
1.2059e-06
1.14149e-06
1.22141e-06
1.22177e-06
1.22196e-06
1.22667e-06
1.21906e-06
1.22031e-06
1.22036e-06
4.16826e-06
1.05564e-06
1.08353e-06
1.15824e-06
1.15758e-06
1.15755e-06
1.15994e-06
1.1541e-06
1.15634e-06
1.15652e-06
3.45124e-06
9.32848e-07
1.03075e-06
1.0994e-06
1.0978e-06
1.09754e-06
1.09859e-06
1.09306e-06
1.0967e-06
1.09681e-06
2.73403e-06
8.27243e-07
9.7719e-07
1.04343e-06
1.04112e-06
1.04065e-06
1.04086e-06
1.03444e-06
1.04001e-06
1.03992e-06
2.11227e-06
7.43699e-07
9.27488e-07
9.89329e-07
9.86651e-07
9.85994e-07
9.85667e-07
9.7707e-07
9.85355e-07
9.84963e-07
1.6093e-06
6.85985e-07
8.80688e-07
9.36229e-07
9.33729e-07
9.32887e-07
9.32295e-07
9.27151e-07
9.32096e-07
9.31302e-07
1.22124e-06
6.41157e-07
8.35991e-07
8.90291e-07
8.81809e-07
8.80768e-07
8.80061e-07
8.78358e-07
8.79713e-07
8.7841e-07
9.33259e-07
6.01593e-07
7.92517e-07
8.41072e-07
8.30342e-07
8.29111e-07
8.28352e-07
8.29948e-07
8.27752e-07
8.25802e-07
7.26607e-07
5.72756e-07
7.49631e-07
7.90017e-07
7.78771e-07
7.77364e-07
7.76531e-07
7.76873e-07
7.75729e-07
7.72927e-07
5.82702e-07
5.47108e-07
7.06819e-07
7.44482e-07
7.32669e-07
7.31167e-07
7.30269e-07
7.2974e-07
7.29391e-07
7.25507e-07
4.83042e-07
5.2487e-07
6.63402e-07
6.96479e-07
6.82262e-07
6.80587e-07
6.79581e-07
6.78331e-07
6.78737e-07
6.78029e-07
4.16051e-07
5.03363e-07
6.1873e-07
6.50116e-07
6.35344e-07
6.33609e-07
6.32544e-07
6.30794e-07
6.31761e-07
6.30386e-07
3.69277e-07
4.82184e-07
5.77534e-07
6.03251e-07
5.8801e-07
5.86248e-07
5.85136e-07
5.82997e-07
5.8439e-07
5.82463e-07
)
;

boundaryField
{
    fuel
    {
        type            fixedValue;
        value           uniform 0;
    }
    wall
    {
        type            zeroGradient;
    }
    outlet
    {
        type            zeroGradient;
    }
    frontAndBack
    {
        type            empty;
    }
    procBoundary2to0
    {
        type            processor;
        value           nonuniform List<scalar> 
12
(
6.28946e-07
3.35617e-07
4.59561e-07
5.35127e-07
5.55772e-07
5.4021e-07
5.38461e-07
5.37316e-07
5.34879e-07
5.36562e-07
5.81449e-07
5.34221e-07
)
;
    }
    procBoundary2to3
    {
        type            processor;
        value           nonuniform List<scalar> 
25
(
0.000162966
5.84509e-05
2.14979e-05
9.68996e-06
5.3087e-06
3.43867e-06
2.51379e-06
2.04702e-06
1.77476e-06
1.59725e-06
1.59725e-06
1.47105e-06
1.37255e-06
1.2912e-06
1.22006e-06
1.15541e-06
1.09516e-06
1.03798e-06
9.82992e-07
9.29517e-07
8.77004e-07
8.24963e-07
7.7293e-07
7.26626e-07
6.75928e-07
)
;
    }
}


// ************************************************************************* //
