/*--------------------------------*- C++ -*----------------------------------*\
| =========                 |                                                 |
| \\      /  F ield         | OpenFOAM: The Open Source CFD Toolbox           |
|  \\    /   O peration     | Version:  dev                                   |
|   \\  /    A nd           | Web:      www.OpenFOAM.org                      |
|    \\/     M anipulation  |                                                 |
\*---------------------------------------------------------------------------*/
FoamFile
{
    version     2.0;
    format      ascii;
    class       volScalarField;
    location    "0.12";
    object      HCCOH;
}
// * * * * * * * * * * * * * * * * * * * * * * * * * * * * * * * * * * * * * //

dimensions      [0 0 0 0 0 0 0];

internalField   nonuniform List<scalar> 
250
(
4.58626e-07
1.78889e-05
1.90358e-05
1.91691e-05
1.91823e-05
1.91853e-05
1.91853e-05
1.9185e-05
1.9186e-05
9.52485e-07
1.95406e-05
2.01681e-05
2.02009e-05
2.01954e-05
2.01965e-05
2.01948e-05
2.01944e-05
2.01962e-05
1.23301e-06
1.773e-05
1.83794e-05
1.83738e-05
1.83559e-05
1.83557e-05
1.8352e-05
1.83515e-05
1.83544e-05
1.39263e-06
1.60972e-05
1.69736e-05
1.69532e-05
1.6926e-05
1.69239e-05
1.69179e-05
1.6918e-05
1.69219e-05
1.49248e-06
1.47291e-05
1.5889e-05
1.58587e-05
1.58244e-05
1.58187e-05
1.58113e-05
1.58133e-05
1.58179e-05
1.56132e-06
1.35567e-05
1.49748e-05
1.49578e-05
1.49215e-05
1.49068e-05
1.49026e-05
1.49081e-05
1.49131e-05
1.60181e-06
1.25499e-05
1.4209e-05
1.41861e-05
1.4121e-05
1.41211e-05
1.40832e-05
1.40943e-05
1.41001e-05
1.59345e-06
1.16868e-05
1.34585e-05
1.35121e-05
1.34296e-05
1.34227e-05
1.33919e-05
1.3401e-05
1.34061e-05
1.49442e-06
1.09338e-05
1.28473e-05
1.28206e-05
1.27917e-05
1.27882e-05
1.27772e-05
1.27716e-05
1.27756e-05
1.26123e-06
1.03053e-05
1.22721e-05
1.22764e-05
1.22157e-05
1.22073e-05
1.22048e-05
1.21896e-05
1.21916e-05
9.36336e-07
9.77035e-06
1.17053e-05
1.17307e-05
1.16545e-05
1.16446e-05
1.1637e-05
1.16268e-05
1.16278e-05
1.16171e-05
6.68018e-07
9.31717e-06
1.11754e-05
1.12223e-05
1.11351e-05
1.11234e-05
1.11032e-05
1.11058e-05
1.11069e-05
1.11001e-05
5.60496e-07
8.93512e-06
1.07424e-05
1.07475e-05
1.065e-05
1.0637e-05
1.06592e-05
1.06191e-05
1.06218e-05
1.06194e-05
5.9335e-07
8.61285e-06
1.02942e-05
1.03011e-05
1.01939e-05
1.01792e-05
1.02075e-05
1.01601e-05
1.01669e-05
1.01677e-05
7.22737e-07
8.34073e-06
9.91253e-06
9.87846e-06
9.76308e-06
9.74653e-06
9.76079e-06
9.72419e-06
9.73759e-06
9.73986e-06
9.26033e-07
8.09765e-06
9.54816e-06
9.47544e-06
9.35432e-06
9.33606e-06
9.3418e-06
9.30727e-06
9.33014e-06
9.33238e-06
1.19234e-06
7.85874e-06
9.1657e-06
9.08853e-06
8.96487e-06
8.94518e-06
8.94541e-06
8.9054e-06
8.94121e-06
8.94248e-06
1.51223e-06
7.63902e-06
8.80161e-06
8.71471e-06
8.59228e-06
8.57146e-06
8.56818e-06
8.51445e-06
8.5681e-06
8.56772e-06
1.8736e-06
7.46487e-06
8.45345e-06
8.35075e-06
8.23426e-06
8.21254e-06
8.20751e-06
8.17717e-06
8.20868e-06
8.20594e-06
2.26101e-06
7.30318e-06
8.11909e-06
8.03847e-06
7.88867e-06
7.86609e-06
7.86034e-06
7.85274e-06
7.86089e-06
7.85513e-06
2.6574e-06
7.12306e-06
7.7952e-06
7.71057e-06
7.55293e-06
7.52971e-06
7.52369e-06
7.53703e-06
7.52276e-06
7.51322e-06
3.04616e-06
6.9613e-06
7.47949e-06
7.37808e-06
7.22425e-06
7.2006e-06
7.19422e-06
7.20009e-06
7.19193e-06
7.17759e-06
3.4105e-06
6.78296e-06
7.17004e-06
7.08606e-06
6.93528e-06
6.91169e-06
6.90499e-06
6.90553e-06
6.90202e-06
6.88164e-06
3.74261e-06
6.60442e-06
6.86362e-06
6.78593e-06
6.62849e-06
6.60463e-06
6.5974e-06
6.59344e-06
6.59433e-06
6.59191e-06
4.02354e-06
6.41364e-06
6.55665e-06
6.50105e-06
6.34698e-06
6.32344e-06
6.31593e-06
6.30874e-06
6.31295e-06
6.30681e-06
4.25027e-06
6.21734e-06
6.27819e-06
6.2178e-06
6.06728e-06
6.04426e-06
6.03649e-06
6.02669e-06
6.03346e-06
6.02414e-06
)
;

boundaryField
{
    fuel
    {
        type            fixedValue;
        value           uniform 0;
    }
    wall
    {
        type            zeroGradient;
    }
    outlet
    {
        type            zeroGradient;
    }
    frontAndBack
    {
        type            empty;
    }
    procBoundary2to0
    {
        type            processor;
        value           nonuniform List<scalar> 
12
(
6.29642e-06
4.4133e-06
6.00779e-06
5.99713e-06
5.93388e-06
5.78719e-06
5.76491e-06
5.75694e-06
5.74496e-06
5.75359e-06
6.01649e-06
5.74165e-06
)
;
    }
    procBoundary2to3
    {
        type            processor;
        value           nonuniform List<scalar> 
25
(
1.9185e-05
2.01948e-05
1.83521e-05
1.69187e-05
1.58139e-05
1.49082e-05
1.40933e-05
1.3398e-05
1.27661e-05
1.218e-05
1.218e-05
1.16371e-05
1.11142e-05
1.06257e-05
1.01663e-05
9.73223e-06
9.32037e-06
8.92797e-06
8.55253e-06
8.19171e-06
7.84327e-06
7.50501e-06
7.17459e-06
6.88523e-06
6.57758e-06
)
;
    }
}


// ************************************************************************* //
