/*--------------------------------*- C++ -*----------------------------------*\
| =========                 |                                                 |
| \\      /  F ield         | OpenFOAM: The Open Source CFD Toolbox           |
|  \\    /   O peration     | Version:  dev                                   |
|   \\  /    A nd           | Web:      www.OpenFOAM.org                      |
|    \\/     M anipulation  |                                                 |
\*---------------------------------------------------------------------------*/
FoamFile
{
    version     2.0;
    format      ascii;
    class       volScalarField;
    location    "0.12";
    object      HCO;
}
// * * * * * * * * * * * * * * * * * * * * * * * * * * * * * * * * * * * * * //

dimensions      [0 0 0 0 0 0 0];

internalField   nonuniform List<scalar> 
250
(
4.37265e-09
2.63157e-05
2.50667e-05
2.4936e-05
2.49206e-05
2.4918e-05
2.49175e-05
2.49177e-05
2.49173e-05
3.58425e-09
6.1897e-06
5.98281e-06
5.97525e-06
5.9734e-06
5.97362e-06
5.97349e-06
5.97346e-06
5.97365e-06
2.86415e-09
1.80233e-06
1.71597e-06
1.72184e-06
1.72184e-06
1.72224e-06
1.72219e-06
1.72214e-06
1.72232e-06
2.52777e-09
7.25483e-07
6.69778e-07
6.77081e-07
6.77526e-07
6.77819e-07
6.77825e-07
6.77781e-07
6.77907e-07
2.6431e-09
3.89722e-07
3.52066e-07
3.58721e-07
3.59444e-07
3.59541e-07
3.59703e-07
3.59685e-07
3.59779e-07
3.48984e-09
2.54803e-07
2.29913e-07
2.38221e-07
2.39483e-07
2.3909e-07
2.39792e-07
2.39812e-07
2.39878e-07
6.31957e-09
1.87644e-07
1.76183e-07
1.83902e-07
1.84108e-07
1.84736e-07
1.83769e-07
1.83932e-07
1.84022e-07
1.64296e-08
1.48129e-07
1.45652e-07
1.56169e-07
1.56418e-07
1.56676e-07
1.56196e-07
1.56323e-07
1.56393e-07
6.17692e-08
1.21545e-07
1.29484e-07
1.38463e-07
1.4023e-07
1.4051e-07
1.40477e-07
1.40371e-07
1.40425e-07
2.38663e-07
1.03156e-07
1.1879e-07
1.28793e-07
1.30093e-07
1.30292e-07
1.30414e-07
1.30169e-07
1.30201e-07
5.41219e-07
8.94666e-08
1.10919e-07
1.21617e-07
1.22885e-07
1.23077e-07
1.23127e-07
1.22957e-07
1.22985e-07
1.22918e-07
7.79124e-07
7.89641e-08
1.05032e-07
1.16304e-07
1.17592e-07
1.1778e-07
1.17677e-07
1.17654e-07
1.17688e-07
1.1764e-07
7.33235e-07
7.08417e-08
1.00943e-07
1.12059e-07
1.13347e-07
1.13536e-07
1.13769e-07
1.13396e-07
1.13448e-07
1.13424e-07
5.10381e-07
6.46713e-08
9.71843e-08
1.08429e-07
1.09689e-07
1.09875e-07
1.10132e-07
1.09711e-07
1.09801e-07
1.09792e-07
3.09447e-07
6.01593e-08
9.42566e-08
1.05151e-07
1.06363e-07
1.06541e-07
1.06675e-07
1.06337e-07
1.06483e-07
1.06477e-07
1.84726e-07
5.68703e-08
9.16306e-08
1.02068e-07
1.03217e-07
1.03385e-07
1.03449e-07
1.03114e-07
1.0334e-07
1.03325e-07
1.16901e-07
5.44453e-08
8.89841e-08
9.90742e-08
1.00156e-07
1.00312e-07
1.00332e-07
9.99327e-08
1.00269e-07
1.0024e-07
8.09318e-08
5.2902e-08
8.65199e-08
9.60956e-08
9.71111e-08
9.7255e-08
9.72452e-08
9.67054e-08
9.72046e-08
9.71539e-08
6.11556e-08
5.21112e-08
8.41619e-08
9.30646e-08
9.4032e-08
9.41609e-08
9.41357e-08
9.37855e-08
9.4095e-08
9.4016e-08
4.9506e-08
5.1725e-08
8.1846e-08
9.03404e-08
9.08738e-08
9.09846e-08
9.09517e-08
9.08034e-08
9.08974e-08
9.07818e-08
4.21718e-08
5.15972e-08
7.9502e-08
8.72846e-08
8.75903e-08
8.76813e-08
8.76435e-08
8.77056e-08
8.75712e-08
8.74074e-08
3.74043e-08
5.16121e-08
7.70713e-08
8.39567e-08
8.41313e-08
8.42012e-08
8.4156e-08
8.41316e-08
8.40704e-08
8.38405e-08
3.43689e-08
5.16577e-08
7.4504e-08
8.08505e-08
8.08922e-08
8.09462e-08
8.0894e-08
8.08087e-08
8.08043e-08
8.04875e-08
3.25695e-08
5.1619e-08
7.17356e-08
7.74069e-08
7.7161e-08
7.71908e-08
7.71275e-08
7.69895e-08
7.70414e-08
7.69627e-08
3.17226e-08
5.14038e-08
6.87023e-08
7.39243e-08
7.35296e-08
7.35436e-08
7.34729e-08
7.32962e-08
7.33921e-08
7.32568e-08
3.15307e-08
5.09495e-08
6.57435e-08
7.02413e-08
6.97003e-08
6.97001e-08
6.96225e-08
6.94138e-08
6.95453e-08
6.93618e-08
)
;

boundaryField
{
    fuel
    {
        type            fixedValue;
        value           uniform 0;
    }
    wall
    {
        type            zeroGradient;
    }
    outlet
    {
        type            zeroGradient;
    }
    frontAndBack
    {
        type            empty;
    }
    procBoundary2to0
    {
        type            processor;
        value           nonuniform List<scalar> 
12
(
7.31671e-08
3.17333e-08
5.01669e-08
6.25237e-08
6.63488e-08
6.56717e-08
6.566e-08
6.55766e-08
6.53413e-08
6.54995e-08
6.93011e-08
6.5278e-08
)
;
    }
    procBoundary2to3
    {
        type            processor;
        value           nonuniform List<scalar> 
25
(
2.49177e-05
5.9731e-06
1.72202e-06
6.77743e-07
3.59677e-07
2.39811e-07
1.83929e-07
1.5631e-07
1.40349e-07
1.30115e-07
1.30115e-07
1.2303e-07
1.17718e-07
1.13454e-07
1.09775e-07
1.06424e-07
1.03248e-07
1.00151e-07
9.70652e-08
9.3939e-08
9.0727e-08
8.73869e-08
8.38753e-08
8.06026e-08
7.68262e-08
)
;
    }
}


// ************************************************************************* //
