/*--------------------------------*- C++ -*----------------------------------*\
| =========                 |                                                 |
| \\      /  F ield         | OpenFOAM: The Open Source CFD Toolbox           |
|  \\    /   O peration     | Version:  dev                                   |
|   \\  /    A nd           | Web:      www.OpenFOAM.org                      |
|    \\/     M anipulation  |                                                 |
\*---------------------------------------------------------------------------*/
FoamFile
{
    version     2.0;
    format      ascii;
    class       volScalarField;
    location    "0.12";
    object      O2;
}
// * * * * * * * * * * * * * * * * * * * * * * * * * * * * * * * * * * * * * //

dimensions      [0 0 0 0 0 0 0];

internalField   nonuniform List<scalar> 
250
(
0.177069
0.0317017
0.0296479
0.0294004
0.0293704
0.0293654
0.0293646
0.0293649
0.0293643
0.152092
0.00719818
0.00626437
0.0061651
0.00615186
0.00615032
0.00614987
0.00615
0.00615002
0.12681
0.00231059
0.00175337
0.00170872
0.00170261
0.00170203
0.00170185
0.0017019
0.00170197
0.102986
0.0010539
0.000603936
0.000580312
0.000577125
0.000576871
0.000576817
0.00057683
0.000576878
0.081841
0.000649055
0.000237757
0.000223046
0.000221301
0.000221116
0.000221207
0.0002212
0.00022123
0.0640083
0.000485981
0.000100876
9.26283e-05
9.19922e-05
9.14871e-05
9.21114e-05
9.20858e-05
9.20964e-05
0.0495371
0.000400243
4.72413e-05
4.06681e-05
3.9502e-05
3.99175e-05
3.92263e-05
3.92731e-05
3.93049e-05
0.0380655
0.000341207
2.23882e-05
1.88649e-05
1.8037e-05
1.81276e-05
1.7877e-05
1.79164e-05
1.7935e-05
0.0290433
0.000291542
1.20111e-05
8.3202e-06
8.41247e-06
8.46515e-06
8.44437e-06
8.42024e-06
8.43185e-06
0.0219244
0.000247547
6.8592e-06
4.07546e-06
3.9696e-06
3.97781e-06
4.03307e-06
3.96664e-06
3.97006e-06
0.0163075
0.000206793
4.141e-06
1.93888e-06
1.85728e-06
1.85999e-06
1.9001e-06
1.85813e-06
1.85998e-06
1.87364e-06
0.0119165
0.0001694
2.68624e-06
9.47697e-07
8.96578e-07
8.97268e-07
9.05093e-07
8.96631e-07
8.97768e-07
9.05535e-07
0.00859245
0.000136084
1.92507e-06
4.83121e-07
4.52238e-07
4.52697e-07
4.79424e-07
4.52185e-07
4.52849e-07
4.57443e-07
0.00616287
0.000107453
1.39478e-06
2.62579e-07
2.43505e-07
2.43961e-07
2.61674e-07
2.436e-07
2.44065e-07
2.46936e-07
0.00441102
8.37144e-05
1.06021e-06
1.56286e-07
1.4395e-07
1.4436e-07
1.52098e-07
1.44128e-07
1.44534e-07
1.46301e-07
0.00314591
6.39458e-05
8.12973e-07
1.03814e-07
9.55857e-08
9.59345e-08
9.93914e-08
9.57358e-08
9.61497e-08
9.71544e-08
0.00222962
4.69166e-05
6.09131e-07
7.69001e-08
7.1418e-08
7.1713e-08
7.32556e-08
7.14272e-08
7.19181e-08
7.2425e-08
0.00156708
3.35495e-05
4.55747e-07
6.22857e-08
5.87319e-08
5.89877e-08
5.96642e-08
5.8432e-08
5.91458e-08
5.93575e-08
0.00109088
2.4448e-05
3.42833e-07
5.36041e-08
5.14812e-08
5.17085e-08
5.20008e-08
5.15549e-08
5.18049e-08
5.1851e-08
0.000751374
1.76414e-05
2.5842e-07
4.8462e-08
4.67655e-08
4.69676e-08
4.70901e-08
4.69989e-08
4.7001e-08
4.69518e-08
0.000511423
1.20664e-05
1.94067e-07
4.43287e-08
4.31729e-08
4.33513e-08
4.33969e-08
4.351e-08
4.33296e-08
4.32137e-08
0.000343416
8.42084e-06
1.46582e-07
4.07369e-08
4.00053e-08
4.01591e-08
4.01649e-08
4.01754e-08
4.00946e-08
3.99141e-08
0.000227256
5.69753e-06
1.10882e-07
3.77861e-08
3.72797e-08
3.74132e-08
3.73983e-08
3.73431e-08
3.73246e-08
3.70704e-08
0.00014682
3.824e-06
8.4469e-08
3.47791e-08
3.42794e-08
3.43842e-08
3.43523e-08
3.42462e-08
3.42807e-08
3.42144e-08
9.33837e-05
2.51479e-06
6.46133e-08
3.18916e-08
3.14258e-08
3.15087e-08
3.14669e-08
3.13278e-08
3.14001e-08
3.1292e-08
5.7862e-05
1.6472e-06
5.08904e-08
2.89634e-08
2.84834e-08
2.85457e-08
2.8497e-08
2.83346e-08
2.84347e-08
2.82927e-08
)
;

boundaryField
{
    fuel
    {
        type            fixedValue;
        value           uniform 0.1914;
    }
    wall
    {
        type            zeroGradient;
    }
    outlet
    {
        type            inletOutlet;
        inletValue      uniform 0;
        value           nonuniform List<scalar> 
26
(
0.177069
0.152092
0.12681
0.102986
0.081841
0.0640083
0.0495371
0.0380655
0.0290433
0.0219244
0.0163075
0.0119165
0.00859245
0.00616287
0.00441102
0.00314591
0.00222962
0.00156708
0.00109088
0.000751374
0.000511423
0.000343416
0.000227256
0.00014682
9.33837e-05
5.7862e-05
)
;
    }
    frontAndBack
    {
        type            empty;
    }
    procBoundary2to0
    {
        type            processor;
        value           nonuniform List<scalar> 
12
(
3.12215e-08
3.49864e-05
1.0696e-06
4.03783e-08
2.59875e-08
2.54715e-08
2.55156e-08
2.54622e-08
2.5285e-08
2.54031e-08
2.82467e-08
2.52375e-08
)
;
    }
    procBoundary2to3
    {
        type            processor;
        value           nonuniform List<scalar> 
25
(
0.0293651
0.00614978
0.0017018
0.000576794
0.00022119
9.20864e-05
3.92797e-05
1.79249e-05
8.43226e-06
3.97454e-06
3.97454e-06
1.85893e-06
8.96843e-07
4.52129e-07
2.43481e-07
1.44034e-07
9.57144e-08
7.15446e-08
5.88323e-08
5.15423e-08
4.67769e-08
4.31301e-08
3.991e-08
3.71479e-08
3.41031e-08
)
;
    }
}


// ************************************************************************* //
