/*--------------------------------*- C++ -*----------------------------------*\
| =========                 |                                                 |
| \\      /  F ield         | OpenFOAM: The Open Source CFD Toolbox           |
|  \\    /   O peration     | Version:  dev                                   |
|   \\  /    A nd           | Web:      www.OpenFOAM.org                      |
|    \\/     M anipulation  |                                                 |
\*---------------------------------------------------------------------------*/
FoamFile
{
    version     2.0;
    format      ascii;
    class       volScalarField;
    location    "0.12";
    object      P2;
}
// * * * * * * * * * * * * * * * * * * * * * * * * * * * * * * * * * * * * * //

dimensions      [0 0 0 0 0 0 0];

internalField   nonuniform List<scalar> 
250
(
1.19181e-08
9.64207e-08
9.79546e-08
9.64183e-08
9.60392e-08
9.59865e-08
9.59656e-08
9.59776e-08
9.59795e-08
1.483e-08
9.37014e-08
9.45554e-08
9.19106e-08
9.12279e-08
9.11342e-08
9.11019e-08
9.11203e-08
9.11259e-08
8.85611e-09
6.7775e-08
6.78354e-08
6.48683e-08
6.40997e-08
6.39536e-08
6.3941e-08
6.39426e-08
6.39673e-08
3.98345e-09
4.42463e-08
4.33823e-08
4.04843e-08
3.98153e-08
3.9606e-08
3.96273e-08
3.9605e-08
3.96558e-08
1.70685e-09
2.86016e-08
2.6724e-08
2.40095e-08
2.35249e-08
2.32725e-08
2.33071e-08
2.32825e-08
2.33505e-08
7.89584e-10
1.80377e-08
1.63079e-08
1.40607e-08
1.3757e-08
1.35083e-08
1.3509e-08
1.35248e-08
1.35942e-08
4.27022e-10
1.27147e-08
1.03017e-08
8.237e-09
8.04828e-09
7.728e-09
7.90886e-09
7.75081e-09
7.82332e-09
2.75988e-10
9.21969e-09
6.80559e-09
5.01597e-09
4.91059e-09
4.63881e-09
4.77789e-09
4.65966e-09
4.71858e-09
2.08548e-10
7.1805e-09
4.48764e-09
3.172e-09
3.14574e-09
2.91753e-09
3.04527e-09
2.93653e-09
2.9864e-09
1.81461e-10
5.9906e-09
3.24538e-09
2.03439e-09
2.03339e-09
1.85932e-09
1.9564e-09
1.87368e-09
1.90919e-09
1.90459e-10
5.32112e-09
2.38766e-09
1.39166e-09
1.39748e-09
1.26492e-09
1.33345e-09
1.27542e-09
1.30063e-09
1.28407e-09
2.49411e-10
4.91016e-09
1.82903e-09
1.01196e-09
1.01799e-09
9.15838e-10
9.62477e-10
9.23431e-10
9.41724e-10
9.29642e-10
4.13315e-10
4.57088e-09
1.45642e-09
7.76029e-10
7.79849e-10
6.99781e-10
7.30991e-10
7.05202e-10
7.18895e-10
7.09878e-10
8.22353e-10
4.30454e-09
1.19797e-09
6.21567e-10
6.2252e-10
5.58627e-10
5.78663e-10
5.62361e-10
5.72975e-10
5.66099e-10
1.81127e-09
4.09305e-09
1.01176e-09
5.15217e-10
5.13387e-10
4.61583e-10
4.86151e-10
4.63901e-10
4.72442e-10
4.67098e-10
4.05975e-09
3.91654e-09
8.7241e-10
4.38555e-10
4.34309e-10
3.91601e-10
4.10815e-10
3.92725e-10
3.99973e-10
3.95759e-10
8.65846e-09
3.76074e-09
7.64039e-10
3.81077e-10
3.74854e-10
3.39168e-10
3.54218e-10
3.39164e-10
3.45728e-10
3.42369e-10
1.65186e-08
3.59827e-09
6.76494e-10
3.36599e-10
3.28822e-10
2.9873e-10
3.10525e-10
2.97479e-10
3.03927e-10
3.01235e-10
2.7999e-08
3.44501e-09
6.03324e-10
3.01356e-10
2.92403e-10
2.66936e-10
2.762e-10
2.68161e-10
2.71072e-10
2.68905e-10
4.21568e-08
3.27348e-09
5.50252e-10
2.72946e-10
2.6319e-10
2.41701e-10
2.48918e-10
2.42219e-10
2.44951e-10
2.43232e-10
5.67833e-08
3.07793e-09
5.04637e-10
2.52327e-10
2.39617e-10
2.21702e-10
2.27199e-10
2.21482e-10
2.24167e-10
2.22848e-10
6.91895e-08
2.86745e-09
4.61762e-10
2.35914e-10
2.20625e-10
2.06089e-10
2.10063e-10
2.06898e-10
2.07816e-10
2.06872e-10
7.72112e-08
2.63926e-09
4.24532e-10
2.236e-10
2.0769e-10
1.95589e-10
1.98563e-10
1.96035e-10
1.96851e-10
1.96159e-10
7.98553e-08
2.39538e-09
3.92658e-10
2.14354e-10
1.97857e-10
1.87941e-10
1.89929e-10
1.8863e-10
1.88681e-10
1.88258e-10
7.73676e-08
2.16821e-09
3.65864e-10
2.09319e-10
1.91767e-10
1.84147e-10
1.85185e-10
1.84598e-10
1.84389e-10
1.84239e-10
7.08751e-08
1.92624e-09
3.47193e-10
2.07944e-10
1.89059e-10
1.83756e-10
1.83819e-10
1.83987e-10
1.8347e-10
1.83612e-10
)
;

boundaryField
{
    fuel
    {
        type            fixedValue;
        value           uniform 0;
    }
    wall
    {
        type            zeroGradient;
    }
    outlet
    {
        type            zeroGradient;
    }
    frontAndBack
    {
        type            empty;
    }
    procBoundary2to0
    {
        type            processor;
        value           nonuniform List<scalar> 
12
(
1.84669e-10
6.19112e-08
1.70452e-09
3.33294e-10
2.10387e-10
1.89857e-10
1.86949e-10
1.85986e-10
1.86968e-10
1.86095e-10
1.83931e-10
1.86555e-10
)
;
    }
    procBoundary2to3
    {
        type            processor;
        value           nonuniform List<scalar> 
25
(
9.59694e-08
9.11141e-08
6.39466e-08
3.96216e-08
2.33079e-08
1.3552e-08
7.77812e-09
4.68153e-09
2.95468e-09
1.88614e-09
1.88614e-09
1.29091e-09
9.34723e-10
7.1376e-10
5.69137e-10
4.69521e-10
3.97718e-10
3.43966e-10
3.02536e-10
2.69955e-10
2.44051e-10
2.23439e-10
2.07217e-10
1.96294e-10
1.88807e-10
)
;
    }
}


// ************************************************************************* //
