/*--------------------------------*- C++ -*----------------------------------*\
| =========                 |                                                 |
| \\      /  F ield         | OpenFOAM: The Open Source CFD Toolbox           |
|  \\    /   O peration     | Version:  dev                                   |
|   \\  /    A nd           | Web:      www.OpenFOAM.org                      |
|    \\/     M anipulation  |                                                 |
\*---------------------------------------------------------------------------*/
FoamFile
{
    version     2.0;
    format      ascii;
    class       surfaceScalarField;
    location    "0.12";
    object      phi;
}
// * * * * * * * * * * * * * * * * * * * * * * * * * * * * * * * * * * * * * //

dimensions      [1 0 -1 0 0 0 0];

internalField   nonuniform List<scalar> 
464
(
2.14769e-07
-2.09253e-07
-1.51136e-07
8.39732e-06
-3.40297e-08
8.07637e-06
-7.23409e-08
8.23617e-06
-4.38416e-08
8.16782e-06
-4.68039e-08
8.19967e-06
-2.6221e-08
8.17541e-06
-2.30127e-08
8.19287e-06
8.18241e-06
2.97548e-07
3.97138e-07
-1.98439e-07
8.7614e-06
-3.28206e-08
7.91771e-06
-1.04512e-07
8.31661e-06
-7.00103e-08
8.14115e-06
-6.1307e-08
8.19903e-06
-4.39141e-08
8.16534e-06
-2.88936e-08
8.18539e-06
8.17589e-06
3.59192e-07
2.52969e-06
-2.04171e-07
9.17949e-06
-3.52033e-08
7.75181e-06
-1.22053e-07
8.40806e-06
-9.51436e-08
8.11783e-06
-7.14499e-08
8.17898e-06
-5.97467e-08
8.15684e-06
-3.23016e-08
8.16113e-06
8.16546e-06
3.83666e-07
4.81893e-06
-1.87175e-07
9.59562e-06
-4.82007e-08
7.61184e-06
-1.30549e-07
8.48973e-06
-1.20642e-07
8.10635e-06
-8.07703e-08
8.13737e-06
-7.45184e-08
8.14863e-06
-3.47477e-08
8.11921e-06
8.14916e-06
3.77962e-07
6.87496e-06
-1.64401e-07
9.98714e-06
-7.38444e-08
7.51809e-06
-1.36972e-07
8.54779e-06
-1.46099e-07
8.10985e-06
-9.0759e-08
8.07596e-06
-8.83508e-08
8.14007e-06
-3.85676e-08
8.06298e-06
8.12616e-06
3.4489e-07
8.59178e-06
-1.49523e-07
1.03528e-05
-1.09733e-07
7.47579e-06
-1.46162e-07
8.57731e-06
-1.73033e-07
8.12953e-06
-1.03444e-07
7.99853e-06
-1.02872e-07
8.13164e-06
-4.38361e-08
7.99578e-06
8.09797e-06
2.86311e-07
9.92982e-06
-1.48198e-07
1.06898e-05
-1.55182e-07
7.48234e-06
-1.60696e-07
8.57627e-06
-2.01219e-07
8.16342e-06
-1.19315e-07
7.90925e-06
-1.18188e-07
8.123e-06
-5.10423e-08
7.92093e-06
8.06554e-06
2.06306e-07
1.08314e-05
-1.62249e-07
1.10036e-05
-2.0855e-07
7.53042e-06
-1.82342e-07
8.54518e-06
-2.30622e-07
8.20651e-06
-1.38474e-07
7.81119e-06
-1.34341e-07
8.11259e-06
-6.00736e-08
7.84041e-06
8.02888e-06
1.08395e-07
1.11805e-05
-1.92117e-07
1.12919e-05
-2.68538e-07
7.61023e-06
-2.09394e-07
8.48137e-06
-2.61068e-07
8.25368e-06
-1.60215e-07
7.70501e-06
-1.51262e-07
8.09866e-06
-7.06546e-08
7.75417e-06
7.98665e-06
-2.69931e-08
1.08165e-05
-2.36302e-07
1.15326e-05
-3.34716e-07
7.71279e-06
-2.41873e-07
8.38547e-06
-2.92126e-07
8.30065e-06
-1.83966e-07
7.59288e-06
-1.6881e-07
8.07966e-06
-8.24633e-08
7.66352e-06
7.93897e-06
-2.07949e-07
9.68762e-06
-2.90921e-07
1.16544e-05
-4.02003e-07
7.82826e-06
-2.79725e-07
8.2612e-06
-3.23562e-07
8.3421e-06
-2.09232e-07
7.47559e-06
-1.86838e-07
8.05423e-06
-9.51883e-08
7.56854e-06
-4.49318e-08
7.88526e-06
7.67104e-06
-3.67732e-07
9.00839e-06
-3.53719e-07
1.17024e-05
-4.68081e-07
7.94698e-06
-3.20893e-07
8.11273e-06
-3.55157e-07
8.37456e-06
-2.35538e-07
7.35365e-06
-2.05183e-07
8.02137e-06
-1.08543e-07
7.46922e-06
-5.11667e-08
7.82507e-06
7.58524e-06
-5.14522e-07
8.6968e-06
-4.22211e-07
1.16849e-05
-5.31729e-07
8.06076e-06
-3.642e-07
7.94442e-06
-3.86724e-07
8.39564e-06
-2.62483e-07
7.22752e-06
-2.2369e-07
7.98045e-06
-1.22289e-07
7.36555e-06
-5.77456e-08
7.75814e-06
7.49429e-06
-6.57786e-07
8.59473e-06
-4.93547e-07
1.15988e-05
-5.92271e-07
8.16364e-06
-4.08775e-07
7.76052e-06
-4.18107e-07
8.40376e-06
-2.89744e-07
7.09754e-06
-2.42226e-07
7.93119e-06
-1.36231e-07
7.25755e-06
-6.45348e-08
7.68433e-06
7.39819e-06
-7.93232e-07
8.61202e-06
-5.65493e-07
1.14527e-05
-6.49504e-07
8.25172e-06
-4.53907e-07
7.56477e-06
-4.49181e-07
8.39796e-06
-3.17069e-07
6.96396e-06
-2.60683e-07
7.87325e-06
-1.50215e-07
7.14521e-06
-7.14221e-08
7.6036e-06
7.29692e-06
-9.17589e-07
8.69058e-06
-6.36256e-07
1.12356e-05
-7.03496e-07
8.32291e-06
-4.9905e-07
7.36036e-06
-4.79844e-07
8.37775e-06
-3.44263e-07
6.82697e-06
-2.78964e-07
7.80647e-06
-1.64121e-07
7.02856e-06
-7.83135e-08
7.51596e-06
7.1905e-06
-1.02941e-06
8.81283e-06
-7.04513e-07
1.09739e-05
-7.54452e-07
8.37665e-06
-5.43801e-07
7.14986e-06
-5.10022e-07
8.34299e-06
-3.71187e-07
6.68673e-06
-2.97003e-07
7.73084e-06
-1.77858e-07
6.90759e-06
-8.51346e-08
7.42144e-06
7.07895e-06
-1.12826e-06
8.94627e-06
-7.6975e-07
1.06774e-05
-8.02624e-07
8.41312e-06
-5.87876e-07
6.93529e-06
-5.39658e-07
8.29379e-06
-3.97738e-07
6.54336e-06
-3.14747e-07
7.64643e-06
-1.91358e-07
6.78233e-06
-9.18276e-08
7.32014e-06
6.96232e-06
-1.21486e-06
9.08268e-06
-8.31861e-07
1.03492e-05
-8.48268e-07
8.43282e-06
-6.31086e-07
6.71825e-06
-5.68717e-07
8.23042e-06
-4.23848e-07
6.39697e-06
-3.32155e-07
7.55334e-06
-2.04571e-07
6.65281e-06
-9.83497e-08
7.21214e-06
6.84064e-06
-1.29064e-06
9.21849e-06
-8.90999e-07
9.99945e-06
-8.91588e-07
8.43613e-06
-6.73312e-07
6.49996e-06
-5.97178e-07
8.15328e-06
-4.49472e-07
6.24762e-06
-3.4921e-07
7.4517e-06
-2.17474e-07
6.51902e-06
-1.04671e-07
7.09754e-06
6.71395e-06
-1.35729e-06
9.34979e-06
-9.47555e-07
9.63304e-06
-9.32827e-07
8.42322e-06
-7.14467e-07
6.28157e-06
-6.25039e-07
8.06288e-06
-4.74588e-07
6.09539e-06
-3.659e-07
7.34167e-06
-2.30047e-07
6.38096e-06
-1.10773e-07
6.97646e-06
6.58229e-06
-1.41653e-06
9.47186e-06
-1.00197e-06
9.2562e-06
-9.72252e-07
8.39455e-06
-7.54539e-07
6.06426e-06
-6.52312e-07
7.95978e-06
-4.99192e-07
5.94031e-06
-3.82215e-07
7.22341e-06
-2.42275e-07
6.23871e-06
-1.16649e-07
6.84901e-06
6.44569e-06
-1.47e-06
9.57938e-06
-1.05462e-06
8.87352e-06
-1.01003e-06
8.35034e-06
-7.93435e-07
5.84809e-06
-6.78907e-07
7.84441e-06
-5.23208e-07
5.78255e-06
-3.98119e-07
7.0971e-06
-2.54148e-07
6.09231e-06
-1.22279e-07
6.71535e-06
6.30427e-06
-1.51916e-06
9.66682e-06
-1.10591e-06
8.48796e-06
-1.04642e-06
8.29048e-06
-8.31349e-07
5.63313e-06
-7.04988e-07
7.71741e-06
-5.46782e-07
5.62202e-06
-4.13701e-07
6.96294e-06
-2.65719e-07
5.94178e-06
-1.27701e-07
6.57557e-06
6.15799e-06
-1.56512e-06
9.72881e-06
-1.15611e-06
8.10297e-06
-1.08155e-06
8.21465e-06
-8.68223e-07
5.41989e-06
-7.30489e-07
7.57918e-06
-5.69814e-07
5.45886e-06
-4.28919e-07
6.82111e-06
-2.76973e-07
5.78715e-06
-1.32896e-07
6.42978e-06
6.00696e-06
-1.60889e-06
-1.2054e-06
-1.11549e-06
-9.04208e-07
-7.55508e-07
-5.92406e-07
-4.4384e-07
-2.87954e-07
-1.37898e-07
)
;

boundaryField
{
    fuel
    {
        type            calculated;
        value           nonuniform List<scalar> 9(-8.18272e-06 -8.18328e-06 -8.18311e-06 -8.18323e-06 -8.18321e-06 -8.18321e-06 -8.18324e-06 -8.18323e-06 -8.18325e-06);
    }
    wall
    {
        type            calculated;
        value           nonuniform 0();
    }
    outlet
    {
        type            calculated;
        value           nonuniform List<scalar> 
26
(
-5.40709e-06
-7.53471e-06
-8.12505e-06
-7.96748e-06
-7.42566e-06
-6.6639e-06
-5.73864e-06
-4.6516e-06
-3.37693e-06
-1.88882e-06
-4.00338e-07
1.50895e-07
3.52483e-07
5.46116e-07
7.25258e-07
8.86784e-07
1.03e-06
1.15503e-06
1.26364e-06
1.35823e-06
1.44138e-06
1.51568e-06
1.58349e-06
1.64682e-06
1.70727e-06
1.766e-06
)
;
    }
    frontAndBack
    {
        type            empty;
        value           nonuniform 0();
    }
    procBoundary2to0
    {
        type            processor;
        value           nonuniform List<scalar> 
12
(
1.55276e-08
9.76059e-06
7.72183e-06
8.12197e-06
5.20869e-06
7.43018e-06
5.2931e-06
6.67178e-06
5.62843e-06
6.27811e-06
1.51531e-08
5.85122e-06
)
;
    }
    procBoundary2to3
    {
        type            processor;
        value           nonuniform List<scalar> 
25
(
-9.8837e-09
-1.53561e-08
-1.8961e-08
-2.07187e-08
-2.2074e-08
-2.38603e-08
-2.63785e-08
-2.97925e-08
-3.40967e-08
-3.91898e-08
-7.75179e-06
3.22884e-08
3.17565e-08
3.07352e-08
2.93746e-08
2.78057e-08
2.61349e-08
2.44482e-08
2.28132e-08
2.12815e-08
1.98901e-08
1.86636e-08
1.7615e-08
1.67451e-08
1.6052e-08
)
;
    }
}


// ************************************************************************* //
