/*--------------------------------*- C++ -*----------------------------------*\
| =========                 |                                                 |
| \\      /  F ield         | OpenFOAM: The Open Source CFD Toolbox           |
|  \\    /   O peration     | Version:  dev                                   |
|   \\  /    A nd           | Web:      www.OpenFOAM.org                      |
|    \\/     M anipulation  |                                                 |
\*---------------------------------------------------------------------------*/
FoamFile
{
    version     2.0;
    format      ascii;
    class       surfaceScalarField;
    location    "0.12";
    object      phi;
}
// * * * * * * * * * * * * * * * * * * * * * * * * * * * * * * * * * * * * * //

dimensions      [1 0 -1 0 0 0 0];

internalField   nonuniform List<scalar> 
49
(
4.84816e-05
4.85179e-05
4.85547e-05
4.85918e-05
4.86293e-05
4.86672e-05
4.8705e-05
4.8743e-05
4.87816e-05
4.88206e-05
4.88601e-05
4.89002e-05
4.89393e-05
4.89788e-05
4.90188e-05
4.90589e-05
4.90993e-05
4.91397e-05
4.91804e-05
4.92215e-05
4.92627e-05
4.93041e-05
4.93457e-05
4.93876e-05
4.94296e-05
4.94717e-05
4.9515e-05
4.95584e-05
4.96019e-05
4.96453e-05
4.96887e-05
4.97322e-05
4.97771e-05
4.98222e-05
4.98675e-05
4.99132e-05
4.99594e-05
5.0006e-05
5.00535e-05
5.01021e-05
5.01512e-05
5.02012e-05
5.02533e-05
5.03062e-05
5.03593e-05
5.04125e-05
5.04648e-05
5.05169e-05
5.05698e-05
)
;

boundaryField
{
    wall
    {
        type            calculated;
        value           nonuniform List<scalar> 
200
(
-1.11173e-19
-1.15601e-19
-1.2006e-19
-1.24257e-19
-1.27884e-19
-1.31211e-19
-1.34541e-19
-1.37838e-19
-1.41355e-19
-1.44956e-19
-1.48707e-19
-1.5259e-19
-1.56622e-19
-1.60809e-19
-1.65137e-19
-1.69667e-19
-1.74326e-19
-1.79065e-19
-1.8378e-19
-1.8804e-19
-1.92044e-19
-1.95552e-19
-1.98996e-19
-2.02475e-19
-2.06067e-19
-2.09851e-19
-2.13779e-19
-2.17881e-19
-2.22147e-19
-2.26594e-19
-2.31225e-19
-2.36052e-19
-2.41102e-19
-2.46388e-19
-2.51961e-19
-2.57257e-19
-2.62677e-19
-2.66693e-19
-2.70767e-19
-2.7449e-19
-2.78473e-19
-2.82667e-19
-2.87089e-19
-2.91737e-19
-2.96605e-19
-3.0168e-19
-3.07003e-19
-3.12572e-19
-3.18382e-19
-3.24548e-19
1.11173e-19
1.15601e-19
1.2006e-19
1.24257e-19
1.27884e-19
1.31211e-19
1.34541e-19
1.37838e-19
1.41355e-19
1.44956e-19
1.48707e-19
1.5259e-19
1.56622e-19
1.60809e-19
1.65137e-19
1.69667e-19
1.74326e-19
1.79065e-19
1.8378e-19
1.8804e-19
1.92044e-19
1.95552e-19
1.98996e-19
2.02475e-19
2.06067e-19
2.09851e-19
2.13779e-19
2.17881e-19
2.22147e-19
2.26594e-19
2.31225e-19
2.36052e-19
2.41102e-19
2.46388e-19
2.51961e-19
2.57257e-19
2.62677e-19
2.66693e-19
2.70767e-19
2.7449e-19
2.78473e-19
2.82667e-19
2.87089e-19
2.91737e-19
2.96605e-19
3.0168e-19
3.07003e-19
3.12572e-19
3.18382e-19
3.24548e-19
-1.11173e-19
-1.15601e-19
-1.2006e-19
-1.24257e-19
-1.27884e-19
-1.31211e-19
-1.34541e-19
-1.37838e-19
-1.41355e-19
-1.44956e-19
-1.48707e-19
-1.5259e-19
-1.56622e-19
-1.60809e-19
-1.65137e-19
-1.69667e-19
-1.74326e-19
-1.79065e-19
-1.8378e-19
-1.8804e-19
-1.92044e-19
-1.95552e-19
-1.98996e-19
-2.02475e-19
-2.06067e-19
-2.09851e-19
-2.13779e-19
-2.17881e-19
-2.22147e-19
-2.26594e-19
-2.31225e-19
-2.36052e-19
-2.41102e-19
-2.46388e-19
-2.51961e-19
-2.57257e-19
-2.62677e-19
-2.66693e-19
-2.70767e-19
-2.7449e-19
-2.78473e-19
-2.82667e-19
-2.87089e-19
-2.91737e-19
-2.96605e-19
-3.0168e-19
-3.07003e-19
-3.12572e-19
-3.18382e-19
-3.24548e-19
1.11173e-19
1.15601e-19
1.2006e-19
1.24257e-19
1.27884e-19
1.31211e-19
1.34541e-19
1.37838e-19
1.41355e-19
1.44956e-19
1.48707e-19
1.5259e-19
1.56622e-19
1.60809e-19
1.65137e-19
1.69667e-19
1.74326e-19
1.79065e-19
1.8378e-19
1.8804e-19
1.92044e-19
1.95552e-19
1.98996e-19
2.02475e-19
2.06067e-19
2.09851e-19
2.13779e-19
2.17881e-19
2.22147e-19
2.26594e-19
2.31225e-19
2.36052e-19
2.41102e-19
2.46388e-19
2.51961e-19
2.57257e-19
2.62677e-19
2.66693e-19
2.70767e-19
2.7449e-19
2.78473e-19
2.82667e-19
2.87089e-19
2.91737e-19
2.96605e-19
3.0168e-19
3.07003e-19
3.12572e-19
3.18382e-19
3.24548e-19
)
;
    }
    fuel
    {
        type            calculated;
        value           nonuniform 0();
    }
    outlet
    {
        type            calculated;
        value           nonuniform 0();
    }
    procBoundary2to1
    {
        type            processor;
        value           uniform -4.84456e-05;
    }
    procBoundary2to3
    {
        type            processor;
        value           uniform 5.06249e-05;
    }
}


// ************************************************************************* //
