/*--------------------------------*- C++ -*----------------------------------*\
| =========                 |                                                 |
| \\      /  F ield         | OpenFOAM: The Open Source CFD Toolbox           |
|  \\    /   O peration     | Version:  dev                                   |
|   \\  /    A nd           | Web:      www.OpenFOAM.org                      |
|    \\/     M anipulation  |                                                 |
\*---------------------------------------------------------------------------*/
FoamFile
{
    version     2.0;
    format      ascii;
    class       volScalarField;
    location    "0.065";
    object      A1;
}
// * * * * * * * * * * * * * * * * * * * * * * * * * * * * * * * * * * * * * //

dimensions      [0 0 0 0 0 0 0];

internalField   nonuniform List<scalar> 
250
(
3.80317e-05
1.95373e-05
1.60433e-05
1.56914e-05
1.51731e-05
1.54632e-05
1.52493e-05
1.54312e-05
1.53227e-05
1.54048e-05
3.42832e-05
1.95758e-05
1.66697e-05
1.63782e-05
1.59116e-05
1.6172e-05
1.59778e-05
1.61423e-05
1.60433e-05
1.61185e-05
1.61176e-05
1.60568e-05
1.61248e-05
1.60254e-05
1.60991e-05
1.60548e-05
1.61894e-05
1.69153e-05
1.97412e-05
3.02747e-05
3.11733e-05
1.96404e-05
1.7249e-05
1.7007e-05
1.65936e-05
1.68221e-05
1.66489e-05
1.67949e-05
1.67062e-05
1.6774e-05
1.6774e-05
1.67179e-05
1.678e-05
1.66904e-05
1.67581e-05
1.67181e-05
1.68416e-05
1.74734e-05
1.99151e-05
2.89223e-05
2.86409e-05
1.97271e-05
1.77794e-05
1.7579e-05
1.72175e-05
1.74144e-05
1.72622e-05
1.73898e-05
1.73114e-05
1.73718e-05
1.73727e-05
1.73214e-05
1.73776e-05
1.72977e-05
1.73592e-05
1.73238e-05
1.74362e-05
1.79774e-05
2.00417e-05
2.75759e-05
2.66216e-05
1.98341e-05
1.82636e-05
1.80986e-05
1.77863e-05
1.79534e-05
1.78213e-05
1.79315e-05
1.7863e-05
1.79163e-05
1.79178e-05
1.78714e-05
1.79217e-05
1.78512e-05
1.79065e-05
1.78756e-05
1.79772e-05
1.84331e-05
2.0139e-05
2.63004e-05
2.50512e-05
1.99642e-05
1.87068e-05
1.85718e-05
1.83052e-05
1.84448e-05
1.83315e-05
1.84256e-05
1.83663e-05
1.8413e-05
1.8415e-05
1.83733e-05
1.8418e-05
1.83565e-05
1.84057e-05
1.8379e-05
1.84698e-05
1.88478e-05
2.02247e-05
2.51204e-05
2.38275e-05
2.0111e-05
1.9115e-05
1.90052e-05
1.87803e-05
1.88951e-05
1.87991e-05
1.88784e-05
1.88276e-05
1.88682e-05
1.88706e-05
1.88336e-05
1.88729e-05
1.88197e-05
1.88631e-05
1.88405e-05
1.89206e-05
1.9229e-05
2.03145e-05
2.41249e-05
2.29627e-05
2.02784e-05
1.9495e-05
1.94059e-05
1.92185e-05
1.93113e-05
1.9231e-05
1.92969e-05
1.9254e-05
1.9289e-05
1.92916e-05
1.9259e-05
1.92932e-05
1.92479e-05
1.92856e-05
1.92669e-05
1.93366e-05
1.95848e-05
2.04203e-05
2.33122e-05
2.23706e-05
2.04663e-05
1.98541e-05
1.97809e-05
1.9627e-05
1.97e-05
1.96341e-05
1.96878e-05
1.96522e-05
1.96819e-05
1.96846e-05
1.96564e-05
1.96856e-05
1.96477e-05
1.96801e-05
1.96652e-05
1.97252e-05
1.99225e-05
2.05515e-05
2.26888e-05
2.20047e-05
2.06726e-05
2.01966e-05
2.0133e-05
2.00095e-05
2.00639e-05
2.00116e-05
2.00537e-05
2.00253e-05
2.00499e-05
2.00525e-05
2.00289e-05
2.00529e-05
2.00225e-05
2.00493e-05
2.00387e-05
2.00901e-05
2.0246e-05
2.07118e-05
2.22507e-05
2.18179e-05
2.08864e-05
2.05174e-05
2.04552e-05
2.03599e-05
2.03957e-05
2.0357e-05
2.03874e-05
2.03664e-05
2.03858e-05
2.03881e-05
2.03695e-05
2.03879e-05
2.03653e-05
2.03863e-05
2.03806e-05
2.04248e-05
2.05491e-05
2.08941e-05
2.19796e-05
2.17537e-05
2.10817e-05
2.07928e-05
2.07252e-05
2.06547e-05
2.06727e-05
2.0647e-05
2.06662e-05
2.06525e-05
2.06668e-05
2.06687e-05
2.06551e-05
2.06679e-05
2.06528e-05
2.06683e-05
2.06677e-05
2.07064e-05
2.08083e-05
2.10722e-05
2.1839e-05
2.1757e-05
2.12242e-05
2.09854e-05
2.091e-05
2.08573e-05
2.08618e-05
2.08459e-05
2.08565e-05
2.08485e-05
2.08588e-05
2.08604e-05
2.08507e-05
2.08591e-05
2.08498e-05
2.0861e-05
2.08646e-05
2.08998e-05
2.09891e-05
2.12084e-05
2.17907e-05
)
;

boundaryField
{
    fuel
    {
        type            fixedValue;
        value           nonuniform 0();
    }
    wall
    {
        type            zeroGradient;
    }
    outlet
    {
        type            zeroGradient;
    }
    frontAndBack
    {
        type            empty;
    }
    procBoundary1to0
    {
        type            processor;
        value           nonuniform List<scalar> 
21
(
4.24723e-05
1.95323e-05
1.53789e-05
1.49516e-05
1.43864e-05
1.47004e-05
1.44704e-05
1.46667e-05
1.45505e-05
1.46382e-05
1.54029e-05
1.54029e-05
1.53378e-05
1.54113e-05
1.53029e-05
1.53819e-05
1.53338e-05
1.54798e-05
1.63013e-05
1.95056e-05
3.15591e-05
)
;
    }
}


// ************************************************************************* //
