/*--------------------------------*- C++ -*----------------------------------*\
| =========                 |                                                 |
| \\      /  F ield         | OpenFOAM: The Open Source CFD Toolbox           |
|  \\    /   O peration     | Version:  dev                                   |
|   \\  /    A nd           | Web:      www.OpenFOAM.org                      |
|    \\/     M anipulation  |                                                 |
\*---------------------------------------------------------------------------*/
FoamFile
{
    version     2.0;
    format      ascii;
    class       volScalarField;
    location    "0.065";
    object      A2-2;
}
// * * * * * * * * * * * * * * * * * * * * * * * * * * * * * * * * * * * * * //

dimensions      [0 0 0 0 0 0 0];

internalField   nonuniform List<scalar> 
250
(
5.51254e-10
1.92895e-10
1.53791e-10
1.32865e-10
1.36638e-10
1.28832e-10
1.32893e-10
1.29043e-10
1.31398e-10
1.29891e-10
3.9066e-10
1.54436e-10
1.32331e-10
1.12074e-10
1.17613e-10
1.08715e-10
1.13536e-10
1.09041e-10
1.11795e-10
1.09998e-10
1.10145e-10
1.11451e-10
1.09795e-10
1.12224e-10
1.10966e-10
1.13731e-10
1.17388e-10
1.23712e-10
1.70678e-10
3.07265e-10
2.68675e-10
1.18858e-10
1.08167e-10
8.97494e-11
9.59492e-11
8.7083e-11
9.19985e-11
8.7458e-11
9.02487e-11
8.8412e-11
8.85372e-11
8.99055e-11
8.8192e-11
9.06731e-11
8.9313e-11
9.19797e-11
9.505e-11
9.93278e-11
1.34712e-10
2.24535e-10
1.79175e-10
8.77158e-11
8.39047e-11
6.82194e-11
7.41781e-11
6.62094e-11
7.06995e-11
6.65776e-11
6.91223e-11
6.744e-11
6.75362e-11
6.88149e-11
6.72273e-11
6.94994e-11
6.82049e-11
7.05537e-11
7.29636e-11
7.57274e-11
1.01129e-10
1.56503e-10
1.15602e-10
6.18882e-11
6.16028e-11
4.90802e-11
5.42204e-11
4.76461e-11
5.14e-11
4.79698e-11
5.00989e-11
4.86886e-11
4.87547e-11
4.98478e-11
4.84999e-11
5.04066e-11
4.92878e-11
5.12006e-11
5.2966e-11
5.46813e-11
7.20379e-11
1.03926e-10
7.17454e-11
4.09196e-11
4.25125e-11
3.31569e-11
3.7207e-11
3.21943e-11
3.50914e-11
3.24538e-11
3.41012e-11
3.30095e-11
3.30494e-11
3.39124e-11
3.28545e-11
3.43331e-11
3.34443e-11
3.48899e-11
3.60948e-11
3.71204e-11
4.83745e-11
6.4693e-11
4.15029e-11
2.53903e-11
2.71737e-11
2.06927e-11
2.36084e-11
2.00926e-11
2.21488e-11
2.02827e-11
2.14564e-11
2.06789e-11
2.06995e-11
2.13258e-11
2.0562e-11
2.16164e-11
2.09693e-11
2.19762e-11
2.27377e-11
2.33241e-11
3.01936e-11
3.79272e-11
2.23809e-11
1.42088e-11
1.56495e-11
1.15832e-11
1.34662e-11
1.12448e-11
1.25596e-11
1.13696e-11
1.21236e-11
1.16245e-11
1.16332e-11
1.20418e-11
1.15456e-11
1.2222e-11
1.17994e-11
1.24306e-11
1.28682e-11
1.31808e-11
1.70492e-11
2.02714e-11
1.05836e-11
6.83982e-12
7.74839e-12
5.54968e-12
6.58991e-12
5.38559e-12
6.10662e-12
5.45535e-12
5.87096e-12
5.59614e-12
5.59888e-12
5.82649e-12
5.55095e-12
5.92209e-12
5.68675e-12
6.02515e-12
6.24381e-12
6.39078e-12
8.31152e-12
9.42723e-12
4.09855e-12
2.66744e-12
3.09697e-12
2.1519e-12
2.60602e-12
2.08807e-12
2.40156e-12
2.11877e-12
2.30046e-12
2.18045e-12
2.18093e-12
2.28106e-12
2.16012e-12
2.32119e-12
2.21791e-12
2.36149e-12
2.44957e-12
2.50612e-12
3.28255e-12
3.58304e-12
1.19288e-12
7.72372e-13
9.14963e-13
6.17027e-13
7.61413e-13
5.98405e-13
6.9807e-13
6.0818e-13
6.66343e-13
6.2795e-13
6.27875e-13
6.6015e-13
6.21258e-13
6.72462e-13
6.39371e-13
6.8407e-13
7.10464e-13
7.27679e-13
9.63355e-13
1.02542e-12
2.25439e-13
1.47017e-13
1.74425e-13
1.17306e-13
1.45057e-13
1.13748e-13
1.33069e-13
1.15608e-13
1.26989e-13
1.19469e-13
1.19454e-13
1.25727e-13
1.18186e-13
1.28039e-13
1.21686e-13
1.30121e-13
1.35182e-13
1.38416e-13
1.83185e-13
1.92873e-13
4.95526e-14
3.36278e-14
3.93174e-14
2.76014e-14
3.32098e-14
2.6862e-14
3.07581e-14
2.72231e-14
2.95305e-14
2.80114e-14
2.79679e-14
2.93222e-14
2.77051e-14
2.97972e-14
2.84372e-14
3.02489e-14
3.11775e-14
3.20452e-14
4.07571e-14
4.30431e-14
)
;

boundaryField
{
    fuel
    {
        type            fixedValue;
        value           nonuniform 0();
    }
    wall
    {
        type            zeroGradient;
    }
    outlet
    {
        type            zeroGradient;
    }
    frontAndBack
    {
        type            empty;
    }
    procBoundary1to0
    {
        type            processor;
        value           nonuniform List<scalar> 
21
(
7.55547e-10
2.32248e-10
1.70064e-10
1.49508e-10
1.50479e-10
1.44855e-10
1.47516e-10
1.44892e-10
1.46503e-10
1.45521e-10
1.30044e-10
1.30044e-10
1.31102e-10
1.29731e-10
1.31772e-10
1.3082e-10
1.33387e-10
1.37473e-10
1.46368e-10
2.05887e-10
4.01104e-10
)
;
    }
}


// ************************************************************************* //
