/*--------------------------------*- C++ -*----------------------------------*\
| =========                 |                                                 |
| \\      /  F ield         | OpenFOAM: The Open Source CFD Toolbox           |
|  \\    /   O peration     | Version:  dev                                   |
|   \\  /    A nd           | Web:      www.OpenFOAM.org                      |
|    \\/     M anipulation  |                                                 |
\*---------------------------------------------------------------------------*/
FoamFile
{
    version     2.0;
    format      ascii;
    class       volScalarField;
    location    "0.065";
    object      A2R5-;
}
// * * * * * * * * * * * * * * * * * * * * * * * * * * * * * * * * * * * * * //

dimensions      [0 0 0 0 0 0 0];

internalField   nonuniform List<scalar> 
250
(
9.89803e-10
8.41312e-10
6.2707e-10
5.96305e-10
5.44199e-10
5.37053e-10
5.3423e-10
5.25013e-10
5.33112e-10
5.23351e-10
7.41917e-10
6.272e-10
4.69331e-10
4.50116e-10
4.10585e-10
4.0551e-10
4.0342e-10
3.96107e-10
4.02715e-10
3.94742e-10
3.96033e-10
3.99759e-10
3.96035e-10
4.00671e-10
4.01915e-10
4.06321e-10
4.31961e-10
4.68769e-10
5.56025e-10
6.40053e-10
5.3757e-10
4.54122e-10
3.41728e-10
3.30616e-10
3.01462e-10
2.97995e-10
2.96494e-10
2.90875e-10
2.96095e-10
2.89793e-10
2.90822e-10
2.93794e-10
2.90847e-10
2.9444e-10
2.95295e-10
2.9843e-10
3.17071e-10
3.41986e-10
4.0087e-10
4.64216e-10
3.76124e-10
3.18783e-10
2.41535e-10
2.3584e-10
2.14884e-10
2.12611e-10
2.11561e-10
2.07376e-10
2.11376e-10
2.06546e-10
2.07343e-10
2.09638e-10
2.07376e-10
2.10071e-10
2.10638e-10
2.12803e-10
2.25962e-10
2.42333e-10
2.8098e-10
3.26201e-10
2.53294e-10
2.16063e-10
1.6487e-10
1.61969e-10
1.47891e-10
1.4647e-10
1.45754e-10
1.42735e-10
1.45706e-10
1.42116e-10
1.42715e-10
1.44431e-10
1.4275e-10
1.44703e-10
1.45067e-10
1.46517e-10
1.55522e-10
1.65933e-10
1.90228e-10
2.21204e-10
1.62877e-10
1.40129e-10
1.07587e-10
1.06638e-10
9.72273e-11
9.63884e-11
9.59142e-11
9.38164e-11
9.59454e-11
9.33718e-11
9.38063e-11
9.50426e-11
9.38385e-11
9.51983e-11
9.54232e-11
9.63605e-11
1.02297e-10
1.08664e-10
1.23542e-10
1.43501e-10
9.84477e-11
8.55148e-11
6.59038e-11
6.59192e-11
5.99302e-11
5.94745e-11
5.9172e-11
5.77892e-11
5.92392e-11
5.74854e-11
5.77854e-11
5.86306e-11
5.78119e-11
5.87085e-11
5.88406e-11
5.94184e-11
6.31351e-11
6.68497e-11
7.54781e-11
8.76068e-11
5.44084e-11
4.77224e-11
3.67847e-11
3.71418e-11
3.36095e-11
3.33914e-11
3.32099e-11
3.237e-11
3.32816e-11
3.21786e-11
3.23698e-11
3.29025e-11
3.23889e-11
3.29331e-11
3.30049e-11
3.33364e-11
3.54844e-11
3.75063e-11
4.21156e-11
4.89296e-11
2.63202e-11
2.33029e-11
1.79043e-11
1.82536e-11
1.6415e-11
1.63294e-11
1.62318e-11
1.57855e-11
1.62873e-11
1.568e-11
1.57865e-11
1.60803e-11
1.57981e-11
1.60872e-11
1.61215e-11
1.62906e-11
1.7381e-11
1.83586e-11
2.05333e-11
2.39193e-11
1.05828e-11
9.4555e-12
7.24837e-12
7.4536e-12
6.66589e-12
6.64084e-12
6.59693e-12
6.40342e-12
6.6285e-12
6.3561e-12
6.40437e-12
6.53631e-12
6.40987e-12
6.53532e-12
6.54883e-12
6.62101e-12
7.0751e-12
7.47082e-12
8.32151e-12
9.7175e-12
3.38917e-12
3.04654e-12
2.33316e-12
2.41346e-12
2.14954e-12
2.14447e-12
2.12883e-12
2.06362e-12
2.14195e-12
2.04709e-12
2.0641e-12
2.11004e-12
2.06613e-12
2.10844e-12
2.11276e-12
2.13738e-12
2.28543e-12
2.41474e-12
2.68019e-12
3.13993e-12
9.03346e-13
8.15518e-13
6.35023e-13
6.55662e-13
5.87748e-13
5.86761e-13
5.82503e-13
5.65595e-13
5.8631e-13
5.61134e-13
5.65736e-13
5.77859e-13
5.66323e-13
5.77245e-13
5.78444e-13
5.84985e-13
6.22681e-13
6.56351e-13
7.23416e-13
8.4327e-13
4.04558e-13
3.66012e-13
2.95723e-13
3.01825e-13
2.75384e-13
2.74546e-13
2.72834e-13
2.65686e-13
2.74522e-13
2.63598e-13
2.65891e-13
2.7068e-13
2.663e-13
2.70334e-13
2.71474e-13
2.73747e-13
2.89798e-13
3.02398e-13
3.3198e-13
3.79644e-13
)
;

boundaryField
{
    fuel
    {
        type            fixedValue;
        value           nonuniform 0();
    }
    wall
    {
        type            zeroGradient;
    }
    outlet
    {
        type            zeroGradient;
    }
    frontAndBack
    {
        type            empty;
    }
    procBoundary1to0
    {
        type            processor;
        value           nonuniform List<scalar> 
21
(
1.2776e-09
1.09748e-09
8.15955e-10
7.69518e-10
7.0274e-10
6.93044e-10
6.89352e-10
6.78094e-10
6.87714e-10
6.76147e-10
5.24906e-10
5.24906e-10
5.2942e-10
5.24866e-10
5.30644e-10
5.32392e-10
5.38398e-10
5.72676e-10
6.25487e-10
7.51269e-10
8.56219e-10
)
;
    }
}


// ************************************************************************* //
