/*--------------------------------*- C++ -*----------------------------------*\
| =========                 |                                                 |
| \\      /  F ield         | OpenFOAM: The Open Source CFD Toolbox           |
|  \\    /   O peration     | Version:  dev                                   |
|   \\  /    A nd           | Web:      www.OpenFOAM.org                      |
|    \\/     M anipulation  |                                                 |
\*---------------------------------------------------------------------------*/
FoamFile
{
    version     2.0;
    format      ascii;
    class       volScalarField;
    location    "0.065";
    object      c-C6H7;
}
// * * * * * * * * * * * * * * * * * * * * * * * * * * * * * * * * * * * * * //

dimensions      [0 0 0 0 0 0 0];

internalField   nonuniform List<scalar> 
250
(
3.57239e-11
3.11637e-11
2.76293e-11
2.68286e-11
2.61888e-11
2.60702e-11
2.60304e-11
2.59478e-11
2.60143e-11
2.59447e-11
3.3622e-11
2.96641e-11
2.65583e-11
2.59338e-11
2.5321e-11
2.5217e-11
2.51802e-11
2.50912e-11
2.51639e-11
2.50859e-11
2.50984e-11
2.51332e-11
2.50897e-11
2.51483e-11
2.51732e-11
2.52627e-11
2.56933e-11
2.64558e-11
2.85188e-11
3.17598e-11
3.1692e-11
2.82829e-11
2.55766e-11
2.50995e-11
2.45275e-11
2.44372e-11
2.44044e-11
2.43143e-11
2.4388e-11
2.4308e-11
2.43206e-11
2.43569e-11
2.43126e-11
2.43728e-11
2.43939e-11
2.44705e-11
2.48624e-11
2.54838e-11
2.71021e-11
2.95821e-11
3.00796e-11
2.71704e-11
2.48409e-11
2.4485e-11
2.39626e-11
2.38845e-11
2.38561e-11
2.3769e-11
2.38392e-11
2.37626e-11
2.37744e-11
2.38094e-11
2.37669e-11
2.38257e-11
2.38434e-11
2.39072e-11
2.42576e-11
2.47567e-11
2.60238e-11
2.79182e-11
2.89622e-11
2.6501e-11
2.45183e-11
2.42474e-11
2.37914e-11
2.37232e-11
2.36994e-11
2.36176e-11
2.36813e-11
2.36116e-11
2.3622e-11
2.36538e-11
2.36148e-11
2.36706e-11
2.36852e-11
2.37368e-11
2.40468e-11
2.44407e-11
2.54244e-11
2.68719e-11
2.85398e-11
2.64715e-11
2.4794e-11
2.4597e-11
2.41961e-11
2.41349e-11
2.41155e-11
2.40384e-11
2.40952e-11
2.40326e-11
2.40418e-11
2.40698e-11
2.40349e-11
2.40877e-11
2.40998e-11
2.41402e-11
2.44158e-11
2.47197e-11
2.54875e-11
2.65797e-11
2.90511e-11
2.73217e-11
2.58905e-11
2.57599e-11
2.53974e-11
2.53399e-11
2.53244e-11
2.52478e-11
2.53009e-11
2.52413e-11
2.52502e-11
2.52761e-11
2.52436e-11
2.52957e-11
2.53062e-11
2.53367e-11
2.55906e-11
2.58203e-11
2.6422e-11
2.72356e-11
3.08262e-11
2.93912e-11
2.81274e-11
2.8069e-11
2.77153e-11
2.76582e-11
2.76458e-11
2.75607e-11
2.76184e-11
2.75513e-11
2.75619e-11
2.75903e-11
2.75559e-11
2.76126e-11
2.76222e-11
2.76445e-11
2.78969e-11
2.80665e-11
2.85444e-11
2.91429e-11
3.45483e-11
3.33906e-11
3.2224e-11
3.22553e-11
3.18806e-11
3.182e-11
3.18107e-11
3.17066e-11
3.17781e-11
3.16916e-11
3.17067e-11
3.17421e-11
3.17014e-11
3.17688e-11
3.17781e-11
3.17924e-11
3.20636e-11
3.21748e-11
3.25555e-11
3.29698e-11
4.28871e-11
4.20225e-11
4.09972e-11
4.11157e-11
4.07393e-11
4.06638e-11
4.06636e-11
4.05362e-11
4.06177e-11
4.05144e-11
4.05356e-11
4.05728e-11
4.05316e-11
4.06083e-11
4.06201e-11
4.06183e-11
4.09106e-11
4.09296e-11
4.11933e-11
4.13519e-11
6.75314e-11
6.66905e-11
6.54323e-11
6.56523e-11
6.50993e-11
6.49555e-11
6.49702e-11
6.47231e-11
6.4906e-11
6.46649e-11
6.47277e-11
6.48043e-11
6.47353e-11
6.48562e-11
6.48988e-11
6.48776e-11
6.53708e-11
6.53027e-11
6.56681e-11
6.56713e-11
1.72987e-10
1.7045e-10
1.67255e-10
1.67484e-10
1.66125e-10
1.65603e-10
1.657e-10
1.64885e-10
1.65582e-10
1.64643e-10
1.6493e-10
1.65187e-10
1.65015e-10
1.6529e-10
1.6554e-10
1.65431e-10
1.66962e-10
1.66697e-10
1.68337e-10
1.68791e-10
1.09355e-09
1.07179e-09
1.05021e-09
1.04934e-09
1.04038e-09
1.03617e-09
1.03702e-09
1.03062e-09
1.03658e-09
1.02853e-09
1.03115e-09
1.0332e-09
1.03203e-09
1.03367e-09
1.03615e-09
1.03517e-09
1.04709e-09
1.04513e-09
1.06057e-09
1.06592e-09
)
;

boundaryField
{
    fuel
    {
        type            fixedValue;
        value           nonuniform 0();
    }
    wall
    {
        type            zeroGradient;
    }
    outlet
    {
        type            zeroGradient;
    }
    frontAndBack
    {
        type            empty;
    }
    procBoundary1to0
    {
        type            processor;
        value           nonuniform List<scalar> 
21
(
3.78624e-11
3.26577e-11
2.86534e-11
2.76477e-11
2.69951e-11
2.68622e-11
2.68205e-11
2.67495e-11
2.68051e-11
2.67498e-11
2.59563e-11
2.59563e-11
2.59863e-11
2.59466e-11
2.60001e-11
2.60284e-11
2.61305e-11
2.65942e-11
2.75204e-11
3.01427e-11
3.43942e-11
)
;
    }
}


// ************************************************************************* //
