/*--------------------------------*- C++ -*----------------------------------*\
| =========                 |                                                 |
| \\      /  F ield         | OpenFOAM: The Open Source CFD Toolbox           |
|  \\    /   O peration     | Version:  dev                                   |
|   \\  /    A nd           | Web:      www.OpenFOAM.org                      |
|    \\/     M anipulation  |                                                 |
\*---------------------------------------------------------------------------*/
FoamFile
{
    version     2.0;
    format      ascii;
    class       volScalarField;
    location    "0.065";
    object      C2H6;
}
// * * * * * * * * * * * * * * * * * * * * * * * * * * * * * * * * * * * * * //

dimensions      [0 0 0 0 0 0 0];

internalField   nonuniform List<scalar> 
25
(
4.49281e-14
3.40054e-14
2.72541e-14
2.30736e-14
2.0597e-14
1.94591e-14
1.95158e-14
2.08455e-14
2.37313e-14
2.87005e-14
3.66387e-14
4.93135e-14
6.90754e-14
9.96878e-14
1.46568e-13
2.17559e-13
3.24072e-13
4.82642e-13
7.17165e-13
1.06225e-12
1.56822e-12
2.30706e-12
3.35561e-12
4.78829e-12
6.75854e-12
)
;

boundaryField
{
    wall
    {
        type            zeroGradient;
    }
    fuel
    {
        type            fixedValue;
        value           nonuniform 0();
    }
    outlet
    {
        type            inletOutlet;
        inletValue      nonuniform 0();
        value           nonuniform 0();
    }
    procBoundary1to0
    {
        type            processor;
        value           uniform 6.27072e-14;
    }
    procBoundary1to2
    {
        type            processor;
        value           uniform 9.46515e-12;
    }
}


// ************************************************************************* //
