/*--------------------------------*- C++ -*----------------------------------*\
| =========                 |                                                 |
| \\      /  F ield         | OpenFOAM: The Open Source CFD Toolbox           |
|  \\    /   O peration     | Version:  dev                                   |
|   \\  /    A nd           | Web:      www.OpenFOAM.org                      |
|    \\/     M anipulation  |                                                 |
\*---------------------------------------------------------------------------*/
FoamFile
{
    version     2.0;
    format      ascii;
    class       volScalarField;
    location    "0.065";
    object      CH;
}
// * * * * * * * * * * * * * * * * * * * * * * * * * * * * * * * * * * * * * //

dimensions      [0 0 0 0 0 0 0];

internalField   nonuniform List<scalar> 
2000
(
1.2409e-07
1.24609e-07
1.25164e-07
1.25414e-07
1.25444e-07
1.25499e-07
1.25476e-07
1.25501e-07
1.2548e-07
1.25497e-07
1.25482e-07
1.25493e-07
1.25484e-07
1.25491e-07
1.25484e-07
1.25489e-07
1.25485e-07
1.25489e-07
1.25486e-07
1.25488e-07
1.25486e-07
1.25487e-07
1.25486e-07
1.25487e-07
1.25487e-07
1.25487e-07
1.25487e-07
1.25486e-07
1.25487e-07
1.25486e-07
1.25488e-07
1.25486e-07
1.25489e-07
1.25485e-07
1.25489e-07
1.25484e-07
1.25491e-07
1.25484e-07
1.25493e-07
1.25482e-07
1.25497e-07
1.2548e-07
1.25501e-07
1.25476e-07
1.25499e-07
1.25444e-07
1.25414e-07
1.25164e-07
1.24609e-07
1.2409e-07
6.2605e-07
6.28494e-07
6.31088e-07
6.32256e-07
6.32385e-07
6.32647e-07
6.32536e-07
6.32657e-07
6.32556e-07
6.32635e-07
6.32565e-07
6.3262e-07
6.32572e-07
6.32607e-07
6.32577e-07
6.32601e-07
6.32578e-07
6.32597e-07
6.32584e-07
6.32594e-07
6.32586e-07
6.32591e-07
6.32586e-07
6.32589e-07
6.32588e-07
6.32588e-07
6.32589e-07
6.32586e-07
6.32592e-07
6.32586e-07
6.32594e-07
6.32584e-07
6.32597e-07
6.32578e-07
6.32601e-07
6.32576e-07
6.32607e-07
6.32573e-07
6.32619e-07
6.32566e-07
6.32636e-07
6.32556e-07
6.32657e-07
6.32536e-07
6.32647e-07
6.32385e-07
6.32256e-07
6.31088e-07
6.28494e-07
6.26049e-07
1.56266e-06
1.56777e-06
1.57295e-06
1.5753e-06
1.5754e-06
1.576e-06
1.5757e-06
1.576e-06
1.57575e-06
1.57595e-06
1.57577e-06
1.57591e-06
1.57579e-06
1.57588e-06
1.5758e-06
1.57587e-06
1.57581e-06
1.57586e-06
1.57582e-06
1.57585e-06
1.57583e-06
1.57584e-06
1.57583e-06
1.57584e-06
1.57583e-06
1.57583e-06
1.57584e-06
1.57583e-06
1.57584e-06
1.57583e-06
1.57585e-06
1.57582e-06
1.57586e-06
1.57581e-06
1.57587e-06
1.5758e-06
1.57588e-06
1.57579e-06
1.57591e-06
1.57577e-06
1.57595e-06
1.57575e-06
1.576e-06
1.5757e-06
1.576e-06
1.5754e-06
1.5753e-06
1.57295e-06
1.56777e-06
1.56266e-06
2.18045e-06
2.18754e-06
2.19458e-06
2.19772e-06
2.19767e-06
2.19856e-06
2.19806e-06
2.19853e-06
2.19813e-06
2.19845e-06
2.19818e-06
2.1984e-06
2.19821e-06
2.19835e-06
2.19823e-06
2.19833e-06
2.19824e-06
2.19831e-06
2.19826e-06
2.1983e-06
2.19826e-06
2.19829e-06
2.19827e-06
2.19828e-06
2.19827e-06
2.19827e-06
2.19828e-06
2.19827e-06
2.19829e-06
2.19826e-06
2.1983e-06
2.19826e-06
2.19831e-06
2.19824e-06
2.19833e-06
2.19823e-06
2.19835e-06
2.19821e-06
2.19839e-06
2.19818e-06
2.19845e-06
2.19813e-06
2.19853e-06
2.19806e-06
2.19856e-06
2.19768e-06
2.19772e-06
2.19458e-06
2.18754e-06
2.18045e-06
2.21142e-06
2.21865e-06
2.22595e-06
2.22905e-06
2.22884e-06
2.2298e-06
2.22921e-06
2.22975e-06
2.22929e-06
2.22966e-06
2.22934e-06
2.22959e-06
2.22938e-06
2.22954e-06
2.2294e-06
2.22951e-06
2.22941e-06
2.2295e-06
2.22943e-06
2.22948e-06
2.22944e-06
2.22947e-06
2.22945e-06
2.22946e-06
2.22946e-06
2.22946e-06
2.22946e-06
2.22945e-06
2.22947e-06
2.22944e-06
2.22948e-06
2.22943e-06
2.2295e-06
2.22941e-06
2.22952e-06
2.2294e-06
2.22954e-06
2.22938e-06
2.22959e-06
2.22934e-06
2.22966e-06
2.22929e-06
2.22975e-06
2.22921e-06
2.22979e-06
2.22885e-06
2.22905e-06
2.22595e-06
2.21865e-06
2.21143e-06
1.85373e-06
1.86006e-06
1.86677e-06
1.86946e-06
1.86919e-06
1.87005e-06
1.86949e-06
1.87e-06
1.86956e-06
1.86991e-06
1.86961e-06
1.86985e-06
1.86965e-06
1.8698e-06
1.86967e-06
1.86978e-06
1.86968e-06
1.86976e-06
1.8697e-06
1.86975e-06
1.86971e-06
1.86974e-06
1.86971e-06
1.86973e-06
1.86972e-06
1.86972e-06
1.86973e-06
1.86971e-06
1.86974e-06
1.86971e-06
1.86975e-06
1.8697e-06
1.86976e-06
1.86968e-06
1.86978e-06
1.86967e-06
1.8698e-06
1.86965e-06
1.86985e-06
1.86961e-06
1.86991e-06
1.86956e-06
1.87e-06
1.86949e-06
1.87005e-06
1.86919e-06
1.86946e-06
1.86677e-06
1.86006e-06
1.85373e-06
1.39719e-06
1.40236e-06
1.40819e-06
1.4104e-06
1.41015e-06
1.41088e-06
1.41039e-06
1.41082e-06
1.41045e-06
1.41075e-06
1.41049e-06
1.4107e-06
1.41053e-06
1.41066e-06
1.41055e-06
1.41064e-06
1.41055e-06
1.41062e-06
1.41057e-06
1.41061e-06
1.41058e-06
1.4106e-06
1.41058e-06
1.41059e-06
1.41059e-06
1.41059e-06
1.41059e-06
1.41058e-06
1.4106e-06
1.41058e-06
1.41061e-06
1.41057e-06
1.41062e-06
1.41055e-06
1.41064e-06
1.41054e-06
1.41066e-06
1.41053e-06
1.4107e-06
1.4105e-06
1.41075e-06
1.41045e-06
1.41082e-06
1.41039e-06
1.41088e-06
1.41015e-06
1.41039e-06
1.40819e-06
1.40236e-06
1.39719e-06
9.92132e-07
9.96174e-07
1.00102e-06
1.00279e-06
1.00261e-06
1.00319e-06
1.0028e-06
1.00314e-06
1.00284e-06
1.00308e-06
1.00288e-06
1.00304e-06
1.0029e-06
1.00301e-06
1.00292e-06
1.00299e-06
1.00293e-06
1.00298e-06
1.00294e-06
1.00297e-06
1.00295e-06
1.00296e-06
1.00295e-06
1.00296e-06
1.00295e-06
1.00295e-06
1.00296e-06
1.00295e-06
1.00296e-06
1.00295e-06
1.00297e-06
1.00294e-06
1.00298e-06
1.00293e-06
1.00299e-06
1.00292e-06
1.00301e-06
1.0029e-06
1.00304e-06
1.00288e-06
1.00308e-06
1.00284e-06
1.00314e-06
1.0028e-06
1.00319e-06
1.00261e-06
1.00279e-06
1.00102e-06
9.96174e-07
9.92132e-07
6.83413e-07
6.86498e-07
6.90404e-07
6.91795e-07
6.91677e-07
6.92125e-07
6.91824e-07
6.92091e-07
6.91858e-07
6.92044e-07
6.91885e-07
6.92011e-07
6.91904e-07
6.91985e-07
6.91916e-07
6.91972e-07
6.91921e-07
6.91963e-07
6.91931e-07
6.91955e-07
6.91936e-07
6.9195e-07
6.91938e-07
6.91945e-07
6.91942e-07
6.91942e-07
6.91945e-07
6.91938e-07
6.9195e-07
6.91936e-07
6.91955e-07
6.91931e-07
6.91963e-07
6.91921e-07
6.91972e-07
6.91916e-07
6.91985e-07
6.91905e-07
6.9201e-07
6.91886e-07
6.92044e-07
6.91858e-07
6.92091e-07
6.91824e-07
6.92124e-07
6.91678e-07
6.91794e-07
6.90404e-07
6.86498e-07
6.83413e-07
4.66098e-07
4.68429e-07
4.71509e-07
4.72596e-07
4.72531e-07
4.72871e-07
4.72646e-07
4.72847e-07
4.7267e-07
4.7281e-07
4.7269e-07
4.72785e-07
4.72704e-07
4.72765e-07
4.72713e-07
4.72755e-07
4.72717e-07
4.72748e-07
4.72724e-07
4.72742e-07
4.72728e-07
4.72738e-07
4.72729e-07
4.72734e-07
4.72732e-07
4.72732e-07
4.72734e-07
4.72729e-07
4.72738e-07
4.72728e-07
4.72742e-07
4.72724e-07
4.72748e-07
4.72717e-07
4.72755e-07
4.72713e-07
4.72765e-07
4.72705e-07
4.72784e-07
4.72691e-07
4.7281e-07
4.7267e-07
4.72847e-07
4.72646e-07
4.72871e-07
4.72532e-07
4.72595e-07
4.71509e-07
4.68429e-07
4.66098e-07
3.19463e-07
3.21232e-07
3.23643e-07
3.24494e-07
3.24467e-07
3.24725e-07
3.24557e-07
3.24708e-07
3.24574e-07
3.24679e-07
3.24589e-07
3.2466e-07
3.24599e-07
3.24645e-07
3.24606e-07
3.24637e-07
3.24608e-07
3.24632e-07
3.24614e-07
3.24628e-07
3.24617e-07
3.24624e-07
3.24617e-07
3.24622e-07
3.2462e-07
3.2462e-07
3.24622e-07
3.24618e-07
3.24624e-07
3.24617e-07
3.24628e-07
3.24614e-07
3.24632e-07
3.24608e-07
3.24637e-07
3.24605e-07
3.24645e-07
3.24599e-07
3.24659e-07
3.24589e-07
3.24679e-07
3.24574e-07
3.24708e-07
3.24557e-07
3.24724e-07
3.24467e-07
3.24494e-07
3.23643e-07
3.21232e-07
3.19463e-07
2.18866e-07
2.20165e-07
2.21951e-07
2.2259e-07
2.22586e-07
2.22773e-07
2.22654e-07
2.22762e-07
2.22666e-07
2.22741e-07
2.22676e-07
2.22727e-07
2.22683e-07
2.22716e-07
2.22688e-07
2.2271e-07
2.22689e-07
2.22706e-07
2.22694e-07
2.22703e-07
2.22695e-07
2.22701e-07
2.22696e-07
2.22699e-07
2.22698e-07
2.22698e-07
2.22699e-07
2.22696e-07
2.22701e-07
2.22695e-07
2.22703e-07
2.22694e-07
2.22706e-07
2.22689e-07
2.2271e-07
2.22688e-07
2.22716e-07
2.22683e-07
2.22726e-07
2.22676e-07
2.22741e-07
2.22666e-07
2.22762e-07
2.22654e-07
2.22773e-07
2.22586e-07
2.2259e-07
2.21951e-07
2.20165e-07
2.18866e-07
1.55112e-07
1.56132e-07
1.57536e-07
1.58045e-07
1.58052e-07
1.58196e-07
1.58106e-07
1.58188e-07
1.58114e-07
1.58171e-07
1.58122e-07
1.5816e-07
1.58127e-07
1.58152e-07
1.5813e-07
1.58147e-07
1.58131e-07
1.58145e-07
1.58135e-07
1.58142e-07
1.58136e-07
1.5814e-07
1.58137e-07
1.58139e-07
1.58138e-07
1.58138e-07
1.58139e-07
1.58137e-07
1.5814e-07
1.58136e-07
1.58142e-07
1.58135e-07
1.58144e-07
1.58131e-07
1.58147e-07
1.5813e-07
1.58152e-07
1.58127e-07
1.5816e-07
1.58122e-07
1.58171e-07
1.58114e-07
1.58188e-07
1.58106e-07
1.58196e-07
1.58052e-07
1.58045e-07
1.57536e-07
1.56132e-07
1.55112e-07
1.12807e-07
1.13457e-07
1.14427e-07
1.14793e-07
1.14828e-07
1.14927e-07
1.14874e-07
1.14926e-07
1.1488e-07
1.14915e-07
1.14884e-07
1.14907e-07
1.14886e-07
1.14902e-07
1.14888e-07
1.14898e-07
1.14889e-07
1.14897e-07
1.1489e-07
1.14895e-07
1.14891e-07
1.14894e-07
1.14891e-07
1.14893e-07
1.14892e-07
1.14892e-07
1.14893e-07
1.14891e-07
1.14894e-07
1.14891e-07
1.14895e-07
1.1489e-07
1.14897e-07
1.14889e-07
1.14899e-07
1.14888e-07
1.14902e-07
1.14886e-07
1.14907e-07
1.14884e-07
1.14915e-07
1.1488e-07
1.14926e-07
1.14874e-07
1.14927e-07
1.14828e-07
1.14793e-07
1.14427e-07
1.13457e-07
1.12807e-07
8.37378e-08
8.42324e-08
8.49622e-08
8.5246e-08
8.52809e-08
8.53548e-08
8.5318e-08
8.53553e-08
8.53219e-08
8.5347e-08
8.53244e-08
8.53413e-08
8.5326e-08
8.53369e-08
8.53271e-08
8.53346e-08
8.53274e-08
8.53332e-08
8.53288e-08
8.53321e-08
8.53293e-08
8.53312e-08
8.53294e-08
8.53304e-08
8.533e-08
8.533e-08
8.53304e-08
8.53295e-08
8.53312e-08
8.53293e-08
8.53321e-08
8.53288e-08
8.53332e-08
8.53274e-08
8.53347e-08
8.53271e-08
8.53369e-08
8.53261e-08
8.53412e-08
8.53245e-08
8.53471e-08
8.53219e-08
8.53552e-08
8.5318e-08
8.53546e-08
8.5281e-08
8.52459e-08
8.49623e-08
8.42324e-08
8.37378e-08
6.47636e-08
6.51595e-08
6.57353e-08
6.59648e-08
6.59985e-08
6.60567e-08
6.60294e-08
6.60579e-08
6.60323e-08
6.60513e-08
6.6034e-08
6.60467e-08
6.60351e-08
6.60433e-08
6.60358e-08
6.60415e-08
6.6036e-08
6.60404e-08
6.6037e-08
6.60395e-08
6.60374e-08
6.60388e-08
6.60375e-08
6.60382e-08
6.60379e-08
6.60379e-08
6.60382e-08
6.60375e-08
6.60388e-08
6.60374e-08
6.60395e-08
6.6037e-08
6.60404e-08
6.6036e-08
6.60415e-08
6.60357e-08
6.60433e-08
6.60351e-08
6.60467e-08
6.6034e-08
6.60514e-08
6.60323e-08
6.60578e-08
6.60294e-08
6.60566e-08
6.59985e-08
6.59647e-08
6.57353e-08
6.51595e-08
6.47636e-08
5.12418e-08
5.15814e-08
5.20609e-08
5.22629e-08
5.23001e-08
5.23493e-08
5.23288e-08
5.23511e-08
5.23306e-08
5.23453e-08
5.23315e-08
5.23413e-08
5.2332e-08
5.23384e-08
5.23324e-08
5.23368e-08
5.23324e-08
5.23359e-08
5.23332e-08
5.23352e-08
5.23335e-08
5.23346e-08
5.23335e-08
5.23341e-08
5.23339e-08
5.23339e-08
5.23341e-08
5.23335e-08
5.23346e-08
5.23335e-08
5.23352e-08
5.23332e-08
5.23359e-08
5.23324e-08
5.23369e-08
5.23324e-08
5.23384e-08
5.23321e-08
5.23413e-08
5.23315e-08
5.23453e-08
5.23306e-08
5.2351e-08
5.23288e-08
5.23492e-08
5.23002e-08
5.22628e-08
5.20609e-08
5.15814e-08
5.12419e-08
4.20356e-08
4.23208e-08
4.27117e-08
4.28813e-08
4.29167e-08
4.29571e-08
4.29418e-08
4.29592e-08
4.29431e-08
4.29545e-08
4.29435e-08
4.29511e-08
4.29438e-08
4.29487e-08
4.2944e-08
4.29474e-08
4.29439e-08
4.29466e-08
4.29445e-08
4.29461e-08
4.29447e-08
4.29456e-08
4.29447e-08
4.29452e-08
4.2945e-08
4.2945e-08
4.29452e-08
4.29448e-08
4.29456e-08
4.29447e-08
4.29461e-08
4.29445e-08
4.29466e-08
4.29439e-08
4.29474e-08
4.29439e-08
4.29487e-08
4.29438e-08
4.29511e-08
4.29436e-08
4.29545e-08
4.29431e-08
4.29592e-08
4.29417e-08
4.2957e-08
4.29167e-08
4.28813e-08
4.27117e-08
4.23208e-08
4.20357e-08
3.51855e-08
3.54434e-08
3.57838e-08
3.59365e-08
3.59689e-08
3.60046e-08
3.59912e-08
3.60064e-08
3.59922e-08
3.60021e-08
3.59925e-08
3.59991e-08
3.59927e-08
3.59969e-08
3.59928e-08
3.59958e-08
3.59928e-08
3.59952e-08
3.59933e-08
3.59947e-08
3.59935e-08
3.59943e-08
3.59935e-08
3.59939e-08
3.59938e-08
3.59938e-08
3.59939e-08
3.59935e-08
3.59943e-08
3.59935e-08
3.59947e-08
3.59933e-08
3.59952e-08
3.59928e-08
3.59958e-08
3.59928e-08
3.59969e-08
3.59927e-08
3.59991e-08
3.59925e-08
3.60021e-08
3.59922e-08
3.60063e-08
3.59912e-08
3.60045e-08
3.59689e-08
3.59365e-08
3.57838e-08
3.54434e-08
3.51855e-08
3.01556e-08
3.03805e-08
3.06626e-08
3.07932e-08
3.08237e-08
3.08536e-08
3.08435e-08
3.08555e-08
3.08443e-08
3.08519e-08
3.08443e-08
3.08494e-08
3.08443e-08
3.08476e-08
3.08443e-08
3.08466e-08
3.08442e-08
3.08461e-08
3.08446e-08
3.08457e-08
3.08447e-08
3.08453e-08
3.08447e-08
3.0845e-08
3.08449e-08
3.08449e-08
3.0845e-08
3.08447e-08
3.08453e-08
3.08447e-08
3.08457e-08
3.08446e-08
3.08461e-08
3.08442e-08
3.08466e-08
3.08443e-08
3.08476e-08
3.08443e-08
3.08494e-08
3.08443e-08
3.08519e-08
3.08443e-08
3.08555e-08
3.08435e-08
3.08535e-08
3.08237e-08
3.07932e-08
3.06626e-08
3.03805e-08
3.01556e-08
2.65249e-08
2.673e-08
2.69723e-08
2.70877e-08
2.71167e-08
2.71427e-08
2.71348e-08
2.71448e-08
2.71354e-08
2.71416e-08
2.71352e-08
2.71393e-08
2.7135e-08
2.71377e-08
2.7135e-08
2.71369e-08
2.71349e-08
2.71364e-08
2.71352e-08
2.71361e-08
2.71353e-08
2.71358e-08
2.71353e-08
2.71355e-08
2.71354e-08
2.71354e-08
2.71355e-08
2.71353e-08
2.71358e-08
2.71353e-08
2.71361e-08
2.71352e-08
2.71364e-08
2.71349e-08
2.71369e-08
2.7135e-08
2.71377e-08
2.71351e-08
2.71393e-08
2.71352e-08
2.71416e-08
2.71353e-08
2.71448e-08
2.71348e-08
2.71427e-08
2.71167e-08
2.70877e-08
2.69723e-08
2.673e-08
2.65249e-08
2.37586e-08
2.39513e-08
2.41629e-08
2.42664e-08
2.42938e-08
2.4317e-08
2.43106e-08
2.4319e-08
2.4311e-08
2.43162e-08
2.43107e-08
2.43141e-08
2.43105e-08
2.43127e-08
2.43103e-08
2.43119e-08
2.43102e-08
2.43115e-08
2.43105e-08
2.43112e-08
2.43105e-08
2.4311e-08
2.43105e-08
2.43108e-08
2.43107e-08
2.43107e-08
2.43108e-08
2.43105e-08
2.4311e-08
2.43105e-08
2.43112e-08
2.43105e-08
2.43115e-08
2.43102e-08
2.4312e-08
2.43103e-08
2.43127e-08
2.43105e-08
2.43141e-08
2.43107e-08
2.43162e-08
2.4311e-08
2.4319e-08
2.43106e-08
2.43169e-08
2.42939e-08
2.42663e-08
2.41629e-08
2.39513e-08
2.37586e-08
2.16171e-08
2.17411e-08
2.19205e-08
2.20118e-08
2.20394e-08
2.20599e-08
2.20556e-08
2.20622e-08
2.20557e-08
2.20596e-08
2.20551e-08
2.20576e-08
2.20546e-08
2.20563e-08
2.20543e-08
2.20555e-08
2.20541e-08
2.20551e-08
2.20543e-08
2.20549e-08
2.20543e-08
2.20546e-08
2.20543e-08
2.20545e-08
2.20544e-08
2.20544e-08
2.20545e-08
2.20543e-08
2.20546e-08
2.20543e-08
2.20549e-08
2.20543e-08
2.20551e-08
2.20541e-08
2.20555e-08
2.20543e-08
2.20563e-08
2.20546e-08
2.20576e-08
2.20551e-08
2.20596e-08
2.20557e-08
2.20622e-08
2.20556e-08
2.20598e-08
2.20394e-08
2.20118e-08
2.19205e-08
2.17411e-08
2.16172e-08
1.99357e-08
2.00522e-08
2.02121e-08
2.02955e-08
2.03219e-08
2.03405e-08
2.03371e-08
2.03428e-08
2.03372e-08
2.03404e-08
2.03364e-08
2.03385e-08
2.03359e-08
2.03373e-08
2.03356e-08
2.03366e-08
2.03354e-08
2.03362e-08
2.03355e-08
2.0336e-08
2.03355e-08
2.03357e-08
2.03355e-08
2.03356e-08
2.03355e-08
2.03355e-08
2.03356e-08
2.03355e-08
2.03358e-08
2.03355e-08
2.0336e-08
2.03355e-08
2.03362e-08
2.03354e-08
2.03366e-08
2.03356e-08
2.03373e-08
2.03359e-08
2.03385e-08
2.03365e-08
2.03404e-08
2.03372e-08
2.03428e-08
2.03371e-08
2.03405e-08
2.03219e-08
2.02954e-08
2.02121e-08
2.00522e-08
1.99357e-08
1.8547e-08
1.86579e-08
1.88041e-08
1.88823e-08
1.89082e-08
1.89255e-08
1.89228e-08
1.89278e-08
1.89227e-08
1.89254e-08
1.89218e-08
1.89236e-08
1.89212e-08
1.89224e-08
1.89208e-08
1.89217e-08
1.89206e-08
1.89214e-08
1.89207e-08
1.89211e-08
1.89207e-08
1.89209e-08
1.89207e-08
1.89208e-08
1.89207e-08
1.89207e-08
1.89208e-08
1.89207e-08
1.89209e-08
1.89207e-08
1.89211e-08
1.89207e-08
1.89214e-08
1.89206e-08
1.89217e-08
1.89208e-08
1.89224e-08
1.89212e-08
1.89236e-08
1.89218e-08
1.89254e-08
1.89227e-08
1.89278e-08
1.89228e-08
1.89255e-08
1.89081e-08
1.88822e-08
1.88041e-08
1.86579e-08
1.8547e-08
1.74255e-08
1.753e-08
1.76619e-08
1.77339e-08
1.77588e-08
1.77748e-08
1.77728e-08
1.7777e-08
1.77726e-08
1.77747e-08
1.77716e-08
1.7773e-08
1.77709e-08
1.77719e-08
1.77705e-08
1.77712e-08
1.77703e-08
1.77709e-08
1.77703e-08
1.77707e-08
1.77703e-08
1.77705e-08
1.77703e-08
1.77704e-08
1.77703e-08
1.77703e-08
1.77704e-08
1.77703e-08
1.77705e-08
1.77703e-08
1.77707e-08
1.77703e-08
1.77709e-08
1.77703e-08
1.77712e-08
1.77705e-08
1.77719e-08
1.77709e-08
1.7773e-08
1.77716e-08
1.77747e-08
1.77726e-08
1.7777e-08
1.77727e-08
1.77748e-08
1.77588e-08
1.77339e-08
1.76619e-08
1.753e-08
1.74255e-08
1.65072e-08
1.66065e-08
1.67267e-08
1.67935e-08
1.68174e-08
1.68323e-08
1.68307e-08
1.68344e-08
1.68305e-08
1.68322e-08
1.68294e-08
1.68306e-08
1.68287e-08
1.68294e-08
1.68283e-08
1.68288e-08
1.6828e-08
1.68285e-08
1.6828e-08
1.68283e-08
1.6828e-08
1.68282e-08
1.68279e-08
1.6828e-08
1.6828e-08
1.6828e-08
1.6828e-08
1.6828e-08
1.68282e-08
1.6828e-08
1.68283e-08
1.6828e-08
1.68285e-08
1.6828e-08
1.68288e-08
1.68283e-08
1.68294e-08
1.68287e-08
1.68305e-08
1.68294e-08
1.68322e-08
1.68305e-08
1.68344e-08
1.68307e-08
1.68322e-08
1.68174e-08
1.67934e-08
1.67267e-08
1.66065e-08
1.65072e-08
1.57457e-08
1.58402e-08
1.59508e-08
1.60131e-08
1.60363e-08
1.60501e-08
1.6049e-08
1.60522e-08
1.60486e-08
1.605e-08
1.60475e-08
1.60484e-08
1.60467e-08
1.60473e-08
1.60463e-08
1.60467e-08
1.6046e-08
1.60464e-08
1.6046e-08
1.60462e-08
1.60459e-08
1.60461e-08
1.60459e-08
1.6046e-08
1.60459e-08
1.60459e-08
1.6046e-08
1.60459e-08
1.60461e-08
1.60459e-08
1.60462e-08
1.6046e-08
1.60464e-08
1.6046e-08
1.60467e-08
1.60463e-08
1.60473e-08
1.60467e-08
1.60484e-08
1.60475e-08
1.605e-08
1.60486e-08
1.60522e-08
1.6049e-08
1.60501e-08
1.60362e-08
1.60131e-08
1.59508e-08
1.58402e-08
1.57457e-08
1.51059e-08
1.51962e-08
1.52989e-08
1.53572e-08
1.53796e-08
1.53926e-08
1.53919e-08
1.53946e-08
1.53914e-08
1.53925e-08
1.53902e-08
1.53909e-08
1.53893e-08
1.53898e-08
1.53888e-08
1.53892e-08
1.53886e-08
1.5389e-08
1.53885e-08
1.53888e-08
1.53885e-08
1.53886e-08
1.53884e-08
1.53885e-08
1.53885e-08
1.53885e-08
1.53885e-08
1.53884e-08
1.53886e-08
1.53885e-08
1.53888e-08
1.53885e-08
1.5389e-08
1.53886e-08
1.53893e-08
1.53888e-08
1.53898e-08
1.53893e-08
1.53909e-08
1.53902e-08
1.53925e-08
1.53914e-08
1.53946e-08
1.53919e-08
1.53926e-08
1.53796e-08
1.53572e-08
1.52989e-08
1.51962e-08
1.51059e-08
1.45615e-08
1.4648e-08
1.47441e-08
1.47989e-08
1.48206e-08
1.48329e-08
1.48324e-08
1.48348e-08
1.48318e-08
1.48327e-08
1.48305e-08
1.48311e-08
1.48296e-08
1.483e-08
1.48291e-08
1.48294e-08
1.48288e-08
1.48291e-08
1.48288e-08
1.48289e-08
1.48287e-08
1.48288e-08
1.48286e-08
1.48287e-08
1.48287e-08
1.48287e-08
1.48287e-08
1.48286e-08
1.48288e-08
1.48287e-08
1.48289e-08
1.48288e-08
1.48291e-08
1.48288e-08
1.48294e-08
1.48291e-08
1.483e-08
1.48296e-08
1.48311e-08
1.48305e-08
1.48327e-08
1.48318e-08
1.48348e-08
1.48324e-08
1.48329e-08
1.48206e-08
1.47988e-08
1.47441e-08
1.4648e-08
1.45615e-08
1.40923e-08
1.41753e-08
1.42659e-08
1.43175e-08
1.43386e-08
1.43503e-08
1.43499e-08
1.43521e-08
1.43493e-08
1.43499e-08
1.43479e-08
1.43483e-08
1.43469e-08
1.43472e-08
1.43464e-08
1.43467e-08
1.43461e-08
1.43464e-08
1.4346e-08
1.43462e-08
1.4346e-08
1.4346e-08
1.43459e-08
1.4346e-08
1.43459e-08
1.43459e-08
1.4346e-08
1.43459e-08
1.4346e-08
1.4346e-08
1.43462e-08
1.4346e-08
1.43464e-08
1.43461e-08
1.43467e-08
1.43464e-08
1.43472e-08
1.4347e-08
1.43483e-08
1.43479e-08
1.43499e-08
1.43493e-08
1.43521e-08
1.43499e-08
1.43502e-08
1.43386e-08
1.43175e-08
1.42659e-08
1.41753e-08
1.40923e-08
1.36829e-08
1.37628e-08
1.38485e-08
1.38974e-08
1.39178e-08
1.39289e-08
1.39287e-08
1.39306e-08
1.39279e-08
1.39284e-08
1.39264e-08
1.39267e-08
1.39255e-08
1.39257e-08
1.39249e-08
1.39251e-08
1.39245e-08
1.39248e-08
1.39245e-08
1.39246e-08
1.39244e-08
1.39245e-08
1.39243e-08
1.39244e-08
1.39244e-08
1.39244e-08
1.39244e-08
1.39243e-08
1.39245e-08
1.39244e-08
1.39246e-08
1.39245e-08
1.39248e-08
1.39245e-08
1.39251e-08
1.39249e-08
1.39257e-08
1.39255e-08
1.39267e-08
1.39265e-08
1.39284e-08
1.39279e-08
1.39305e-08
1.39287e-08
1.39289e-08
1.39177e-08
1.38974e-08
1.38485e-08
1.37627e-08
1.36829e-08
1.33211e-08
1.3398e-08
1.34796e-08
1.3526e-08
1.35457e-08
1.35564e-08
1.35563e-08
1.35579e-08
1.35554e-08
1.35557e-08
1.35538e-08
1.3554e-08
1.35528e-08
1.35529e-08
1.35521e-08
1.35523e-08
1.35518e-08
1.3552e-08
1.35517e-08
1.35518e-08
1.35516e-08
1.35517e-08
1.35516e-08
1.35516e-08
1.35516e-08
1.35516e-08
1.35516e-08
1.35516e-08
1.35517e-08
1.35516e-08
1.35518e-08
1.35517e-08
1.3552e-08
1.35518e-08
1.35523e-08
1.35521e-08
1.35529e-08
1.35528e-08
1.3554e-08
1.35538e-08
1.35557e-08
1.35554e-08
1.35579e-08
1.35563e-08
1.35563e-08
1.35457e-08
1.3526e-08
1.34796e-08
1.3398e-08
1.33211e-08
1.29975e-08
1.30717e-08
1.31495e-08
1.31937e-08
1.32128e-08
1.3223e-08
1.3223e-08
1.32244e-08
1.32219e-08
1.32221e-08
1.32203e-08
1.32204e-08
1.32192e-08
1.32193e-08
1.32185e-08
1.32187e-08
1.32182e-08
1.32184e-08
1.32181e-08
1.32182e-08
1.3218e-08
1.3218e-08
1.32179e-08
1.3218e-08
1.32179e-08
1.32179e-08
1.3218e-08
1.32179e-08
1.3218e-08
1.3218e-08
1.32182e-08
1.32181e-08
1.32184e-08
1.32182e-08
1.32187e-08
1.32185e-08
1.32193e-08
1.32192e-08
1.32204e-08
1.32203e-08
1.32221e-08
1.32219e-08
1.32243e-08
1.32229e-08
1.3223e-08
1.32128e-08
1.31937e-08
1.31495e-08
1.30717e-08
1.29975e-08
1.27046e-08
1.27762e-08
1.28508e-08
1.28929e-08
1.29114e-08
1.29211e-08
1.29211e-08
1.29223e-08
1.292e-08
1.292e-08
1.29182e-08
1.29182e-08
1.29171e-08
1.29171e-08
1.29164e-08
1.29165e-08
1.2916e-08
1.29162e-08
1.29159e-08
1.2916e-08
1.29158e-08
1.29158e-08
1.29157e-08
1.29158e-08
1.29157e-08
1.29157e-08
1.29158e-08
1.29157e-08
1.29158e-08
1.29158e-08
1.2916e-08
1.29159e-08
1.29162e-08
1.2916e-08
1.29165e-08
1.29164e-08
1.29171e-08
1.29171e-08
1.29182e-08
1.29182e-08
1.292e-08
1.29199e-08
1.29223e-08
1.29211e-08
1.29211e-08
1.29114e-08
1.28929e-08
1.28508e-08
1.27762e-08
1.27046e-08
1.24365e-08
1.25057e-08
1.25772e-08
1.26175e-08
1.26354e-08
1.26447e-08
1.26447e-08
1.26457e-08
1.26433e-08
1.26432e-08
1.26415e-08
1.26414e-08
1.26403e-08
1.26403e-08
1.26396e-08
1.26397e-08
1.26392e-08
1.26393e-08
1.26391e-08
1.26392e-08
1.2639e-08
1.2639e-08
1.26389e-08
1.26389e-08
1.26389e-08
1.26389e-08
1.26389e-08
1.26389e-08
1.2639e-08
1.2639e-08
1.26392e-08
1.26391e-08
1.26393e-08
1.26392e-08
1.26397e-08
1.26396e-08
1.26403e-08
1.26403e-08
1.26414e-08
1.26415e-08
1.26432e-08
1.26433e-08
1.26457e-08
1.26446e-08
1.26447e-08
1.26354e-08
1.26175e-08
1.25772e-08
1.25056e-08
1.24365e-08
1.21885e-08
1.22552e-08
1.23241e-08
1.23627e-08
1.23799e-08
1.23888e-08
1.23887e-08
1.23896e-08
1.23873e-08
1.23871e-08
1.23853e-08
1.23852e-08
1.23841e-08
1.2384e-08
1.23833e-08
1.23834e-08
1.23829e-08
1.2383e-08
1.23828e-08
1.23829e-08
1.23827e-08
1.23827e-08
1.23826e-08
1.23826e-08
1.23826e-08
1.23826e-08
1.23826e-08
1.23826e-08
1.23827e-08
1.23827e-08
1.23829e-08
1.23828e-08
1.2383e-08
1.23829e-08
1.23834e-08
1.23833e-08
1.2384e-08
1.23841e-08
1.23852e-08
1.23853e-08
1.23871e-08
1.23873e-08
1.23896e-08
1.23887e-08
1.23888e-08
1.23799e-08
1.23627e-08
1.23241e-08
1.22552e-08
1.21885e-08
1.19567e-08
1.2021e-08
1.20875e-08
1.21245e-08
1.21411e-08
1.21496e-08
1.21494e-08
1.21501e-08
1.21478e-08
1.21475e-08
1.21458e-08
1.21456e-08
1.21445e-08
1.21444e-08
1.21437e-08
1.21437e-08
1.21433e-08
1.21434e-08
1.21431e-08
1.21432e-08
1.2143e-08
1.2143e-08
1.21429e-08
1.2143e-08
1.21429e-08
1.21429e-08
1.2143e-08
1.21429e-08
1.2143e-08
1.2143e-08
1.21432e-08
1.21431e-08
1.21434e-08
1.21433e-08
1.21437e-08
1.21437e-08
1.21444e-08
1.21445e-08
1.21456e-08
1.21458e-08
1.21475e-08
1.21478e-08
1.21501e-08
1.21494e-08
1.21496e-08
1.21411e-08
1.21245e-08
1.20875e-08
1.2021e-08
1.19567e-08
1.17381e-08
1.18e-08
1.18643e-08
1.18998e-08
1.19158e-08
1.19239e-08
1.19236e-08
1.19241e-08
1.19218e-08
1.19214e-08
1.19197e-08
1.19194e-08
1.19183e-08
1.19182e-08
1.19175e-08
1.19175e-08
1.19171e-08
1.19172e-08
1.19169e-08
1.1917e-08
1.19168e-08
1.19168e-08
1.19167e-08
1.19167e-08
1.19167e-08
1.19167e-08
1.19167e-08
1.19167e-08
1.19168e-08
1.19168e-08
1.1917e-08
1.19169e-08
1.19172e-08
1.19171e-08
1.19175e-08
1.19175e-08
1.19182e-08
1.19183e-08
1.19194e-08
1.19197e-08
1.19214e-08
1.19218e-08
1.19241e-08
1.19236e-08
1.19239e-08
1.19157e-08
1.18998e-08
1.18643e-08
1.18e-08
1.17381e-08
1.15302e-08
1.15898e-08
1.1652e-08
1.1686e-08
1.17014e-08
1.17091e-08
1.17088e-08
1.17091e-08
1.17068e-08
1.17063e-08
1.17046e-08
1.17042e-08
1.17031e-08
1.1703e-08
1.17023e-08
1.17023e-08
1.17018e-08
1.17019e-08
1.17016e-08
1.17017e-08
1.17015e-08
1.17015e-08
1.17014e-08
1.17015e-08
1.17014e-08
1.17014e-08
1.17015e-08
1.17014e-08
1.17015e-08
1.17015e-08
1.17017e-08
1.17016e-08
1.17019e-08
1.17018e-08
1.17023e-08
1.17023e-08
1.1703e-08
1.17031e-08
1.17042e-08
1.17046e-08
1.17063e-08
1.17068e-08
1.17091e-08
1.17088e-08
1.17091e-08
1.17014e-08
1.1686e-08
1.1652e-08
1.15898e-08
1.15302e-08
)
;

boundaryField
{
    fuel
    {
        type            fixedValue;
        value           uniform 0;
    }
    wall
    {
        type            zeroGradient;
    }
    outlet
    {
        type            zeroGradient;
    }
    frontAndBack
    {
        type            empty;
    }
    procBoundary1to0
    {
        type            processor;
        value           nonuniform List<scalar> 
50
(
1.13308e-08
1.13885e-08
1.14485e-08
1.14812e-08
1.14959e-08
1.15033e-08
1.15028e-08
1.1503e-08
1.15006e-08
1.15e-08
1.14983e-08
1.14979e-08
1.14968e-08
1.14966e-08
1.14959e-08
1.14958e-08
1.14954e-08
1.14955e-08
1.14952e-08
1.14953e-08
1.14951e-08
1.14951e-08
1.1495e-08
1.1495e-08
1.1495e-08
1.1495e-08
1.1495e-08
1.1495e-08
1.14951e-08
1.14951e-08
1.14953e-08
1.14952e-08
1.14955e-08
1.14954e-08
1.14958e-08
1.14959e-08
1.14966e-08
1.14968e-08
1.14979e-08
1.14983e-08
1.15e-08
1.15006e-08
1.1503e-08
1.15028e-08
1.15033e-08
1.14959e-08
1.14812e-08
1.14485e-08
1.13885e-08
1.13308e-08
)
;
    }
}


// ************************************************************************* //
