/*--------------------------------*- C++ -*----------------------------------*\
| =========                 |                                                 |
| \\      /  F ield         | OpenFOAM: The Open Source CFD Toolbox           |
|  \\    /   O peration     | Version:  dev                                   |
|   \\  /    A nd           | Web:      www.OpenFOAM.org                      |
|    \\/     M anipulation  |                                                 |
\*---------------------------------------------------------------------------*/
FoamFile
{
    version     2.0;
    format      ascii;
    class       volScalarField;
    location    "0.065";
    object      CH2(S);
}
// * * * * * * * * * * * * * * * * * * * * * * * * * * * * * * * * * * * * * //

dimensions      [0 0 0 0 0 0 0];

internalField   nonuniform List<scalar> 
250
(
8.38655e-10
8.25378e-10
1.08656e-09
7.74781e-10
9.48128e-10
7.4887e-10
8.58199e-10
7.57575e-10
8.16834e-10
7.75778e-10
5.26897e-10
4.84524e-10
6.35281e-10
4.37078e-10
5.43155e-10
4.20588e-10
4.88186e-10
4.26004e-10
4.62926e-10
4.37362e-10
4.38604e-10
4.58248e-10
4.34529e-10
4.6975e-10
4.48937e-10
4.84424e-10
5.11088e-10
5.07514e-10
6.40191e-10
5.24913e-10
3.07816e-10
2.64004e-10
3.46097e-10
2.29403e-10
2.89811e-10
2.19945e-10
2.58668e-10
2.23094e-10
2.44374e-10
2.29661e-10
2.3033e-10
2.41674e-10
2.28006e-10
2.48074e-10
2.36092e-10
2.56098e-10
2.71218e-10
2.70139e-10
3.51561e-10
2.92227e-10
1.65465e-10
1.32415e-10
1.73929e-10
1.10988e-10
1.42663e-10
1.06079e-10
1.26464e-10
1.07765e-10
1.19031e-10
1.11256e-10
1.11573e-10
1.17611e-10
1.10351e-10
1.20886e-10
1.14517e-10
1.24912e-10
1.32661e-10
1.32611e-10
1.77838e-10
1.50128e-10
8.07511e-11
6.05161e-11
7.95388e-11
4.88088e-11
6.39138e-11
4.65225e-11
5.62699e-11
4.73415e-11
5.27595e-11
4.90278e-11
4.91599e-11
5.2083e-11
4.85757e-11
5.36055e-11
5.05249e-11
5.54319e-11
5.89937e-11
5.92124e-11
8.17722e-11
7.02804e-11
3.51355e-11
2.41125e-11
3.24345e-11
1.90949e-11
2.55253e-11
1.81551e-11
2.23121e-11
1.85097e-11
2.08335e-11
1.92366e-11
1.9284e-11
2.05466e-11
1.90346e-11
2.11772e-11
1.98482e-11
2.1912e-11
2.33599e-11
2.35506e-11
3.34983e-11
2.88445e-11
1.28432e-11
8.42262e-12
1.14278e-11
6.42671e-12
8.79833e-12
6.09531e-12
7.63018e-12
6.22805e-12
7.09085e-12
6.49927e-12
6.51355e-12
6.98536e-12
6.42135e-12
7.21117e-12
6.71527e-12
7.46528e-12
7.97366e-12
8.07557e-12
1.18536e-11
1.03464e-11
3.93905e-12
2.40507e-12
3.31073e-12
1.76833e-12
2.4896e-12
1.67269e-12
2.13979e-12
1.71351e-12
1.97754e-12
1.79688e-12
1.80042e-12
1.94531e-12
1.77233e-12
2.01182e-12
1.85981e-12
2.0836e-12
2.23148e-12
2.26975e-12
3.45155e-12
3.06084e-12
9.26113e-13
5.24888e-13
7.3498e-13
3.72143e-13
5.39886e-13
3.51053e-13
4.59792e-13
3.60601e-13
4.22407e-13
3.80178e-13
3.80902e-13
4.14748e-13
3.74375e-13
4.29703e-13
3.94293e-13
4.45069e-13
4.78377e-13
4.88141e-13
7.7136e-13
6.95812e-13
1.55664e-13
8.27103e-14
1.17001e-13
5.69517e-14
8.4547e-14
5.36144e-14
7.15732e-14
5.5187e-14
6.54582e-14
5.84461e-14
5.85665e-14
6.41422e-14
5.74945e-14
6.65267e-14
6.07236e-14
6.8847e-14
7.42489e-14
7.5853e-14
1.23793e-13
1.14135e-13
1.82954e-14
9.09037e-15
1.28433e-14
6.10091e-15
9.1916e-15
5.73241e-15
7.75889e-15
5.90773e-15
7.07555e-15
6.27849e-15
6.29239e-15
6.9205e-15
6.17239e-15
7.18067e-15
6.53278e-15
7.42161e-15
8.02679e-15
8.20977e-15
1.37572e-14
1.32978e-14
1.41899e-15
6.2958e-16
8.71988e-16
4.09706e-16
6.21027e-16
3.83778e-16
5.23977e-16
3.95563e-16
4.77097e-16
4.21352e-16
4.22521e-16
4.65638e-16
4.14371e-16
4.83085e-16
4.39226e-16
4.98599e-16
5.41375e-16
5.54112e-16
9.60904e-16
1.05831e-15
8.08542e-17
2.74033e-17
3.56525e-17
1.69854e-17
2.54647e-17
1.58783e-17
2.15815e-17
1.63363e-17
1.96853e-17
1.73888e-17
1.74419e-17
1.9193e-17
1.71179e-17
1.98882e-17
1.81386e-17
2.04949e-17
2.22909e-17
2.29449e-17
4.25256e-17
7.01482e-17
)
;

boundaryField
{
    fuel
    {
        type            fixedValue;
        value           nonuniform 0();
    }
    wall
    {
        type            zeroGradient;
    }
    outlet
    {
        type            zeroGradient;
    }
    frontAndBack
    {
        type            empty;
    }
    procBoundary1to0
    {
        type            processor;
        value           nonuniform List<scalar> 
21
(
1.24955e-09
1.31974e-09
1.74026e-09
1.28876e-09
1.55143e-09
1.2506e-09
1.41519e-09
1.26337e-09
1.35218e-09
1.29054e-09
7.77968e-10
7.77968e-10
8.09353e-10
7.71388e-10
8.28439e-10
7.95245e-10
8.53137e-10
8.96837e-10
8.87289e-10
1.08522e-09
8.79458e-10
)
;
    }
}


// ************************************************************************* //
