/*--------------------------------*- C++ -*----------------------------------*\
| =========                 |                                                 |
| \\      /  F ield         | OpenFOAM: The Open Source CFD Toolbox           |
|  \\    /   O peration     | Version:  dev                                   |
|   \\  /    A nd           | Web:      www.OpenFOAM.org                      |
|    \\/     M anipulation  |                                                 |
\*---------------------------------------------------------------------------*/
FoamFile
{
    version     2.0;
    format      ascii;
    class       volScalarField;
    location    "0.065";
    object      CO2;
}
// * * * * * * * * * * * * * * * * * * * * * * * * * * * * * * * * * * * * * //

dimensions      [0 0 0 0 0 0 0];

internalField   nonuniform List<scalar> 
2000
(
0.0125
0.0125
0.0125023
0.0125033
0.0125046
0.0125043
0.0125048
0.0125044
0.0125047
0.0125045
0.0125047
0.0125045
0.0125046
0.0125045
0.0125046
0.0125046
0.0125046
0.0125046
0.0125046
0.0125046
0.0125046
0.0125046
0.0125046
0.0125046
0.0125046
0.0125046
0.0125046
0.0125046
0.0125046
0.0125046
0.0125046
0.0125046
0.0125046
0.0125046
0.0125045
0.0125046
0.0125045
0.0125046
0.0125045
0.0125047
0.0125045
0.0125047
0.0125044
0.0125048
0.0125043
0.0125046
0.0125033
0.0125023
0.0125
0.0125
0.0256245
0.0256222
0.025624
0.0256247
0.0256271
0.0256262
0.0256273
0.0256265
0.0256272
0.0256266
0.0256271
0.0256267
0.025627
0.0256267
0.025627
0.0256268
0.0256269
0.0256268
0.0256269
0.0256268
0.0256269
0.0256268
0.0256269
0.0256269
0.0256269
0.0256269
0.0256269
0.0256269
0.0256268
0.0256269
0.0256268
0.0256269
0.0256268
0.0256269
0.0256268
0.025627
0.0256267
0.025627
0.0256267
0.0256271
0.0256266
0.0256272
0.0256265
0.0256273
0.0256262
0.0256271
0.0256247
0.025624
0.0256222
0.0256245
0.0343402
0.0343342
0.0343311
0.0343302
0.0343324
0.0343312
0.0343325
0.0343315
0.0343324
0.0343316
0.0343322
0.0343317
0.0343321
0.0343318
0.0343321
0.0343319
0.034332
0.0343319
0.034332
0.0343319
0.034332
0.0343319
0.034332
0.034332
0.034332
0.034332
0.034332
0.034332
0.0343319
0.034332
0.0343319
0.034332
0.0343319
0.034332
0.0343319
0.0343321
0.0343318
0.0343321
0.0343317
0.0343322
0.0343316
0.0343324
0.0343315
0.0343325
0.0343312
0.0343324
0.0343302
0.0343311
0.0343342
0.0343402
0.0396928
0.0396847
0.039678
0.0396758
0.0396777
0.0396763
0.0396776
0.0396765
0.0396774
0.0396767
0.0396773
0.0396768
0.0396772
0.0396769
0.0396771
0.0396769
0.0396771
0.039677
0.0396771
0.039677
0.0396771
0.039677
0.0396771
0.039677
0.039677
0.039677
0.039677
0.0396771
0.039677
0.0396771
0.039677
0.0396771
0.039677
0.0396771
0.0396769
0.0396771
0.0396769
0.0396772
0.0396768
0.0396773
0.0396767
0.0396774
0.0396765
0.0396776
0.0396763
0.0396777
0.0396758
0.039678
0.0396847
0.0396928
0.0430321
0.043023
0.0430139
0.0430109
0.0430124
0.0430109
0.0430122
0.0430112
0.043012
0.0430113
0.0430119
0.0430114
0.0430118
0.0430115
0.0430118
0.0430115
0.0430117
0.0430116
0.0430117
0.0430116
0.0430117
0.0430116
0.0430117
0.0430116
0.0430117
0.0430117
0.0430116
0.0430117
0.0430116
0.0430117
0.0430116
0.0430117
0.0430116
0.0430117
0.0430115
0.0430118
0.0430115
0.0430118
0.0430114
0.0430119
0.0430113
0.043012
0.0430112
0.0430122
0.0430109
0.0430124
0.0430109
0.0430139
0.043023
0.0430321
0.0451716
0.0451622
0.0451519
0.0451484
0.0451495
0.0451481
0.0451492
0.0451483
0.0451491
0.0451484
0.0451489
0.0451485
0.0451489
0.0451486
0.0451488
0.0451486
0.0451488
0.0451487
0.0451488
0.0451487
0.0451487
0.0451487
0.0451487
0.0451487
0.0451487
0.0451487
0.0451487
0.0451487
0.0451487
0.0451487
0.0451487
0.0451488
0.0451487
0.0451488
0.0451486
0.0451488
0.0451486
0.0451489
0.0451485
0.0451489
0.0451484
0.0451491
0.0451483
0.0451492
0.0451481
0.0451495
0.0451484
0.0451519
0.0451622
0.0451716
0.0465857
0.0465763
0.0465656
0.0465618
0.0465626
0.0465612
0.0465622
0.0465614
0.0465621
0.0465615
0.046562
0.0465616
0.0465619
0.0465617
0.0465619
0.0465617
0.0465619
0.0465617
0.0465618
0.0465617
0.0465618
0.0465618
0.0465618
0.0465618
0.0465618
0.0465618
0.0465618
0.0465618
0.0465618
0.0465618
0.0465617
0.0465618
0.0465617
0.0465619
0.0465617
0.0465619
0.0465617
0.0465619
0.0465616
0.046562
0.0465615
0.0465621
0.0465614
0.0465622
0.0465612
0.0465626
0.0465618
0.0465656
0.0465763
0.0465857
0.0475489
0.0475399
0.0475292
0.0475254
0.0475259
0.0475246
0.0475255
0.0475247
0.0475254
0.0475248
0.0475253
0.0475249
0.0475252
0.047525
0.0475252
0.047525
0.0475252
0.047525
0.0475251
0.0475251
0.0475251
0.0475251
0.0475251
0.0475251
0.0475251
0.0475251
0.0475251
0.0475251
0.0475251
0.0475251
0.0475251
0.0475251
0.047525
0.0475252
0.047525
0.0475252
0.047525
0.0475252
0.0475249
0.0475253
0.0475248
0.0475254
0.0475247
0.0475255
0.0475246
0.0475259
0.0475254
0.0475292
0.0475399
0.0475489
0.048223
0.0482145
0.0482041
0.0482003
0.0482007
0.0481995
0.0482002
0.0481995
0.0482001
0.0481996
0.0482
0.0481997
0.0482
0.0481997
0.0481999
0.0481998
0.0481999
0.0481998
0.0481999
0.0481998
0.0481999
0.0481998
0.0481999
0.0481999
0.0481999
0.0481999
0.0481999
0.0481999
0.0481998
0.0481999
0.0481998
0.0481999
0.0481998
0.0481999
0.0481998
0.0481999
0.0481997
0.0482
0.0481997
0.0482
0.0481996
0.0482001
0.0481995
0.0482002
0.0481995
0.0482007
0.0482003
0.0482041
0.0482145
0.048223
0.0487053
0.0486974
0.0486877
0.048684
0.0486842
0.0486831
0.0486837
0.0486831
0.0486836
0.0486832
0.0486835
0.0486832
0.0486835
0.0486833
0.0486835
0.0486833
0.0486834
0.0486833
0.0486834
0.0486834
0.0486834
0.0486834
0.0486834
0.0486834
0.0486834
0.0486834
0.0486834
0.0486834
0.0486834
0.0486834
0.0486834
0.0486834
0.0486833
0.0486834
0.0486833
0.0486835
0.0486833
0.0486835
0.0486832
0.0486835
0.0486832
0.0486836
0.0486831
0.0486837
0.0486831
0.0486842
0.048684
0.0486877
0.0486974
0.0487053
0.0490563
0.049049
0.04904
0.0490365
0.0490366
0.0490356
0.0490362
0.0490356
0.049036
0.0490356
0.0490359
0.0490357
0.0490359
0.0490357
0.0490359
0.0490358
0.0490359
0.0490358
0.0490358
0.0490358
0.0490358
0.0490358
0.0490358
0.0490358
0.0490358
0.0490358
0.0490358
0.0490358
0.0490358
0.0490358
0.0490358
0.0490358
0.0490358
0.0490359
0.0490358
0.0490359
0.0490357
0.0490359
0.0490357
0.0490359
0.0490356
0.049036
0.0490356
0.0490362
0.0490356
0.0490366
0.0490365
0.04904
0.049049
0.0490563
0.0493248
0.0493184
0.0493105
0.0493073
0.0493074
0.0493065
0.0493069
0.0493064
0.0493068
0.0493065
0.0493067
0.0493065
0.0493067
0.0493066
0.0493067
0.0493066
0.0493067
0.0493066
0.0493067
0.0493066
0.0493067
0.0493066
0.0493067
0.0493066
0.0493066
0.0493066
0.0493066
0.0493067
0.0493066
0.0493067
0.0493066
0.0493067
0.0493066
0.0493067
0.0493066
0.0493067
0.0493066
0.0493067
0.0493065
0.0493067
0.0493065
0.0493068
0.0493064
0.0493069
0.0493065
0.0493074
0.0493073
0.0493105
0.0493184
0.0493248
0.0495169
0.0495113
0.0495042
0.0495013
0.0495013
0.0495005
0.0495009
0.0495005
0.0495008
0.0495005
0.0495007
0.0495005
0.0495007
0.0495006
0.0495007
0.0495006
0.0495007
0.0495006
0.0495007
0.0495006
0.0495006
0.0495006
0.0495006
0.0495006
0.0495006
0.0495006
0.0495006
0.0495006
0.0495006
0.0495006
0.0495006
0.0495007
0.0495006
0.0495007
0.0495006
0.0495007
0.0495006
0.0495007
0.0495005
0.0495007
0.0495005
0.0495008
0.0495005
0.0495009
0.0495005
0.0495013
0.0495013
0.0495042
0.0495113
0.0495169
0.0496603
0.049656
0.0496504
0.049648
0.049648
0.0496473
0.0496476
0.0496472
0.0496474
0.0496472
0.0496474
0.0496472
0.0496474
0.0496473
0.0496473
0.0496473
0.0496473
0.0496473
0.0496473
0.0496473
0.0496473
0.0496473
0.0496473
0.0496473
0.0496473
0.0496473
0.0496473
0.0496473
0.0496473
0.0496473
0.0496473
0.0496473
0.0496473
0.0496473
0.0496473
0.0496473
0.0496473
0.0496474
0.0496472
0.0496474
0.0496472
0.0496474
0.0496472
0.0496476
0.0496473
0.049648
0.049648
0.0496504
0.049656
0.0496603
0.0497691
0.0497658
0.0497613
0.0497594
0.0497593
0.0497588
0.049759
0.0497587
0.0497588
0.0497586
0.0497588
0.0497587
0.0497588
0.0497587
0.0497587
0.0497587
0.0497587
0.0497587
0.0497587
0.0497587
0.0497587
0.0497587
0.0497587
0.0497587
0.0497587
0.0497587
0.0497587
0.0497587
0.0497587
0.0497587
0.0497587
0.0497587
0.0497587
0.0497587
0.0497587
0.0497587
0.0497587
0.0497588
0.0497587
0.0497588
0.0497586
0.0497588
0.0497587
0.049759
0.0497588
0.0497593
0.0497594
0.0497613
0.0497658
0.0497691
0.0498448
0.0498423
0.0498389
0.0498374
0.0498374
0.049837
0.0498371
0.0498368
0.0498369
0.0498368
0.0498369
0.0498368
0.0498369
0.0498368
0.0498369
0.0498368
0.0498369
0.0498368
0.0498368
0.0498368
0.0498368
0.0498368
0.0498368
0.0498368
0.0498368
0.0498368
0.0498368
0.0498368
0.0498368
0.0498368
0.0498368
0.0498368
0.0498368
0.0498369
0.0498368
0.0498369
0.0498368
0.0498369
0.0498368
0.0498369
0.0498368
0.0498369
0.0498368
0.0498371
0.049837
0.0498374
0.0498374
0.0498389
0.0498423
0.0498448
0.0498992
0.0498976
0.0498951
0.049894
0.049894
0.0498937
0.0498938
0.0498935
0.0498936
0.0498935
0.0498936
0.0498935
0.0498935
0.0498935
0.0498935
0.0498935
0.0498935
0.0498935
0.0498935
0.0498935
0.0498935
0.0498935
0.0498935
0.0498935
0.0498935
0.0498935
0.0498935
0.0498935
0.0498935
0.0498935
0.0498935
0.0498935
0.0498935
0.0498935
0.0498935
0.0498935
0.0498935
0.0498935
0.0498935
0.0498936
0.0498935
0.0498936
0.0498935
0.0498938
0.0498937
0.049894
0.049894
0.0498951
0.0498976
0.0498992
0.0499332
0.0499325
0.0499311
0.0499304
0.0499305
0.0499303
0.0499303
0.0499301
0.0499302
0.0499301
0.0499301
0.04993
0.0499301
0.0499301
0.0499301
0.0499301
0.0499301
0.0499301
0.0499301
0.0499301
0.0499301
0.0499301
0.0499301
0.0499301
0.0499301
0.0499301
0.0499301
0.0499301
0.0499301
0.0499301
0.0499301
0.0499301
0.0499301
0.0499301
0.0499301
0.0499301
0.0499301
0.0499301
0.04993
0.0499301
0.0499301
0.0499302
0.0499301
0.0499303
0.0499303
0.0499305
0.0499304
0.0499311
0.0499325
0.0499332
0.0499527
0.0499529
0.0499524
0.0499523
0.0499525
0.0499523
0.0499523
0.0499521
0.0499521
0.049952
0.0499521
0.049952
0.049952
0.049952
0.049952
0.049952
0.049952
0.049952
0.049952
0.049952
0.049952
0.049952
0.049952
0.049952
0.049952
0.049952
0.049952
0.049952
0.049952
0.049952
0.049952
0.049952
0.049952
0.049952
0.049952
0.049952
0.049952
0.049952
0.049952
0.0499521
0.049952
0.0499521
0.0499521
0.0499523
0.0499523
0.0499525
0.0499523
0.0499524
0.0499529
0.0499527
0.049959
0.0499603
0.0499608
0.0499612
0.0499614
0.0499614
0.0499613
0.0499612
0.0499612
0.0499611
0.0499611
0.0499611
0.0499611
0.0499611
0.0499611
0.0499611
0.0499611
0.0499611
0.0499611
0.0499611
0.0499611
0.0499611
0.0499611
0.0499611
0.0499611
0.0499611
0.0499611
0.0499611
0.0499611
0.0499611
0.0499611
0.0499611
0.0499611
0.0499611
0.0499611
0.0499611
0.0499611
0.0499611
0.0499611
0.0499611
0.0499611
0.0499612
0.0499612
0.0499613
0.0499614
0.0499614
0.0499612
0.0499608
0.0499603
0.049959
0.0499547
0.0499568
0.0499584
0.0499592
0.0499595
0.0499596
0.0499595
0.0499594
0.0499593
0.0499593
0.0499592
0.0499592
0.0499592
0.0499592
0.0499592
0.0499592
0.0499592
0.0499592
0.0499592
0.0499592
0.0499592
0.0499592
0.0499592
0.0499592
0.0499592
0.0499592
0.0499592
0.0499592
0.0499592
0.0499592
0.0499592
0.0499592
0.0499592
0.0499592
0.0499592
0.0499592
0.0499592
0.0499592
0.0499592
0.0499592
0.0499593
0.0499593
0.0499594
0.0499595
0.0499596
0.0499595
0.0499592
0.0499584
0.0499568
0.0499547
0.0499413
0.0499444
0.0499469
0.0499482
0.0499487
0.0499488
0.0499486
0.0499486
0.0499485
0.0499485
0.0499484
0.0499484
0.0499484
0.0499484
0.0499484
0.0499484
0.0499484
0.0499484
0.0499484
0.0499484
0.0499484
0.0499484
0.0499484
0.0499484
0.0499484
0.0499484
0.0499484
0.0499484
0.0499484
0.0499484
0.0499484
0.0499484
0.0499484
0.0499484
0.0499484
0.0499484
0.0499484
0.0499484
0.0499484
0.0499484
0.0499485
0.0499485
0.0499486
0.0499486
0.0499488
0.0499487
0.0499482
0.0499469
0.0499444
0.0499413
0.0499204
0.0499238
0.0499271
0.0499288
0.0499294
0.0499297
0.0499295
0.0499295
0.0499293
0.0499293
0.0499292
0.0499292
0.0499292
0.0499292
0.0499292
0.0499292
0.0499292
0.0499292
0.0499292
0.0499292
0.0499292
0.0499292
0.0499292
0.0499292
0.0499292
0.0499292
0.0499292
0.0499292
0.0499292
0.0499292
0.0499292
0.0499292
0.0499292
0.0499292
0.0499292
0.0499292
0.0499292
0.0499292
0.0499292
0.0499292
0.0499293
0.0499293
0.0499295
0.0499295
0.0499297
0.0499294
0.0499288
0.0499271
0.0499238
0.0499204
0.0498928
0.0498971
0.0499012
0.0499034
0.0499041
0.0499045
0.0499043
0.0499043
0.0499041
0.0499041
0.049904
0.049904
0.049904
0.049904
0.049904
0.049904
0.049904
0.049904
0.049904
0.049904
0.049904
0.049904
0.049904
0.049904
0.049904
0.049904
0.049904
0.049904
0.049904
0.049904
0.049904
0.049904
0.049904
0.049904
0.049904
0.049904
0.049904
0.049904
0.049904
0.049904
0.0499041
0.0499041
0.0499043
0.0499043
0.0499045
0.0499041
0.0499034
0.0499012
0.0498971
0.0498928
0.0498583
0.0498634
0.0498685
0.0498711
0.049872
0.0498725
0.0498722
0.0498722
0.049872
0.049872
0.0498719
0.049872
0.0498719
0.0498719
0.0498719
0.0498719
0.0498719
0.0498719
0.0498719
0.0498719
0.0498719
0.0498719
0.0498719
0.0498719
0.0498719
0.0498719
0.0498719
0.0498719
0.0498719
0.0498719
0.0498719
0.0498719
0.0498719
0.0498719
0.0498719
0.0498719
0.0498719
0.0498719
0.049872
0.0498719
0.049872
0.049872
0.0498722
0.0498722
0.0498725
0.049872
0.0498711
0.0498685
0.0498634
0.0498583
0.0498185
0.0498245
0.0498303
0.0498333
0.0498344
0.0498349
0.0498346
0.0498347
0.0498344
0.0498345
0.0498343
0.0498344
0.0498343
0.0498343
0.0498343
0.0498343
0.0498343
0.0498343
0.0498343
0.0498343
0.0498343
0.0498343
0.0498343
0.0498343
0.0498343
0.0498343
0.0498343
0.0498343
0.0498343
0.0498343
0.0498343
0.0498343
0.0498343
0.0498343
0.0498343
0.0498343
0.0498343
0.0498343
0.0498344
0.0498343
0.0498345
0.0498344
0.0498347
0.0498346
0.0498349
0.0498344
0.0498333
0.0498303
0.0498245
0.0498185
0.0497742
0.049781
0.0497876
0.049791
0.0497921
0.0497927
0.0497924
0.0497925
0.0497922
0.0497923
0.0497921
0.0497922
0.0497921
0.0497921
0.0497921
0.0497921
0.0497921
0.0497921
0.0497921
0.0497921
0.0497921
0.0497921
0.0497921
0.0497921
0.0497921
0.0497921
0.0497921
0.0497921
0.0497921
0.0497921
0.0497921
0.0497921
0.0497921
0.0497921
0.0497921
0.0497921
0.0497921
0.0497921
0.0497922
0.0497921
0.0497923
0.0497922
0.0497925
0.0497924
0.0497927
0.0497921
0.049791
0.0497876
0.049781
0.0497742
0.0497259
0.0497336
0.0497408
0.0497445
0.0497458
0.0497465
0.0497462
0.0497463
0.0497459
0.049746
0.0497458
0.0497459
0.0497458
0.0497459
0.0497458
0.0497459
0.0497458
0.0497458
0.0497458
0.0497458
0.0497458
0.0497458
0.0497458
0.0497458
0.0497458
0.0497458
0.0497458
0.0497458
0.0497458
0.0497458
0.0497458
0.0497458
0.0497458
0.0497458
0.0497459
0.0497458
0.0497459
0.0497458
0.0497459
0.0497458
0.049746
0.0497459
0.0497463
0.0497462
0.0497465
0.0497458
0.0497445
0.0497408
0.0497336
0.0497259
0.0496742
0.0496827
0.0496905
0.0496946
0.049696
0.0496968
0.0496964
0.0496966
0.0496962
0.0496963
0.0496961
0.0496962
0.049696
0.0496961
0.049696
0.0496961
0.049696
0.0496961
0.049696
0.0496961
0.049696
0.049696
0.049696
0.049696
0.049696
0.049696
0.049696
0.049696
0.049696
0.049696
0.0496961
0.049696
0.0496961
0.049696
0.0496961
0.049696
0.0496961
0.049696
0.0496962
0.0496961
0.0496963
0.0496962
0.0496966
0.0496964
0.0496968
0.049696
0.0496946
0.0496905
0.0496827
0.0496742
0.0496196
0.0496288
0.0496372
0.0496416
0.0496431
0.049644
0.0496436
0.0496437
0.0496433
0.0496434
0.0496432
0.0496433
0.0496432
0.0496432
0.0496432
0.0496432
0.0496432
0.0496432
0.0496432
0.0496432
0.0496432
0.0496432
0.0496432
0.0496432
0.0496432
0.0496432
0.0496432
0.0496432
0.0496432
0.0496432
0.0496432
0.0496432
0.0496432
0.0496432
0.0496432
0.0496432
0.0496432
0.0496432
0.0496433
0.0496432
0.0496434
0.0496433
0.0496437
0.0496436
0.049644
0.0496431
0.0496416
0.0496372
0.0496288
0.0496196
0.0495625
0.0495724
0.0495813
0.049586
0.0495876
0.0495885
0.0495881
0.0495882
0.0495878
0.0495879
0.0495877
0.0495878
0.0495877
0.0495877
0.0495876
0.0495877
0.0495876
0.0495877
0.0495877
0.0495877
0.0495877
0.0495877
0.0495877
0.0495877
0.0495877
0.0495877
0.0495877
0.0495877
0.0495877
0.0495877
0.0495877
0.0495877
0.0495877
0.0495876
0.0495877
0.0495876
0.0495877
0.0495877
0.0495878
0.0495877
0.0495879
0.0495878
0.0495882
0.0495881
0.0495885
0.0495876
0.049586
0.0495813
0.0495724
0.0495625
0.0495032
0.0495137
0.0495231
0.049528
0.0495297
0.0495307
0.0495303
0.0495305
0.04953
0.0495301
0.0495299
0.04953
0.0495298
0.0495299
0.0495298
0.0495299
0.0495298
0.0495299
0.0495298
0.0495299
0.0495298
0.0495299
0.0495298
0.0495299
0.0495298
0.0495298
0.0495299
0.0495298
0.0495299
0.0495298
0.0495299
0.0495298
0.0495299
0.0495298
0.0495299
0.0495298
0.0495299
0.0495298
0.04953
0.0495299
0.0495301
0.04953
0.0495305
0.0495303
0.0495307
0.0495297
0.049528
0.0495231
0.0495137
0.0495032
0.049442
0.0494531
0.049463
0.0494681
0.0494699
0.0494709
0.0494705
0.0494707
0.0494702
0.0494704
0.0494701
0.0494702
0.0494701
0.0494701
0.04947
0.0494701
0.04947
0.0494701
0.04947
0.0494701
0.0494701
0.0494701
0.0494701
0.0494701
0.0494701
0.0494701
0.0494701
0.0494701
0.0494701
0.0494701
0.0494701
0.04947
0.0494701
0.04947
0.0494701
0.04947
0.0494701
0.0494701
0.0494702
0.0494701
0.0494704
0.0494702
0.0494707
0.0494705
0.0494709
0.0494699
0.0494681
0.049463
0.0494531
0.049442
0.0493793
0.049391
0.0494013
0.0494066
0.0494084
0.0494095
0.0494091
0.0494093
0.0494088
0.0494089
0.0494087
0.0494088
0.0494086
0.0494087
0.0494086
0.0494087
0.0494086
0.0494086
0.0494086
0.0494086
0.0494086
0.0494086
0.0494086
0.0494086
0.0494086
0.0494086
0.0494086
0.0494086
0.0494086
0.0494086
0.0494086
0.0494086
0.0494086
0.0494086
0.0494087
0.0494086
0.0494087
0.0494086
0.0494088
0.0494087
0.0494089
0.0494088
0.0494093
0.0494091
0.0494095
0.0494084
0.0494066
0.0494013
0.049391
0.0493793
0.0493154
0.0493275
0.0493382
0.0493437
0.0493456
0.0493467
0.0493463
0.0493465
0.049346
0.0493461
0.0493458
0.0493459
0.0493458
0.0493459
0.0493458
0.0493458
0.0493458
0.0493458
0.0493458
0.0493458
0.0493458
0.0493458
0.0493458
0.0493458
0.0493458
0.0493458
0.0493458
0.0493458
0.0493458
0.0493458
0.0493458
0.0493458
0.0493458
0.0493458
0.0493458
0.0493458
0.0493459
0.0493458
0.0493459
0.0493458
0.0493461
0.049346
0.0493465
0.0493463
0.0493467
0.0493456
0.0493437
0.0493382
0.0493275
0.0493154
0.0492505
0.049263
0.049274
0.0492796
0.0492816
0.0492828
0.0492823
0.0492825
0.049282
0.0492822
0.0492819
0.049282
0.0492818
0.0492819
0.0492818
0.0492819
0.0492818
0.0492819
0.0492818
0.0492818
0.0492818
0.0492818
0.0492818
0.0492818
0.0492818
0.0492818
0.0492818
0.0492818
0.0492818
0.0492818
0.0492818
0.0492818
0.0492819
0.0492818
0.0492819
0.0492818
0.0492819
0.0492818
0.049282
0.0492819
0.0492822
0.049282
0.0492825
0.0492823
0.0492828
0.0492816
0.0492796
0.049274
0.049263
0.0492505
0.0491848
0.0491976
0.0492089
0.0492147
0.0492167
0.0492179
0.0492175
0.0492177
0.0492172
0.0492173
0.049217
0.0492171
0.049217
0.049217
0.0492169
0.049217
0.0492169
0.049217
0.0492169
0.049217
0.049217
0.049217
0.049217
0.049217
0.049217
0.049217
0.049217
0.049217
0.049217
0.049217
0.049217
0.0492169
0.049217
0.0492169
0.049217
0.0492169
0.049217
0.049217
0.0492171
0.049217
0.0492173
0.0492172
0.0492177
0.0492175
0.0492179
0.0492167
0.0492147
0.0492089
0.0491976
0.0491848
0.0491186
0.0491317
0.0491432
0.0491491
0.0491512
0.0491524
0.0491519
0.0491521
0.0491516
0.0491518
0.0491515
0.0491516
0.0491514
0.0491515
0.0491514
0.0491515
0.0491514
0.0491515
0.0491514
0.0491514
0.0491514
0.0491514
0.0491514
0.0491514
0.0491514
0.0491514
0.0491514
0.0491514
0.0491514
0.0491514
0.0491514
0.0491514
0.0491515
0.0491514
0.0491515
0.0491514
0.0491515
0.0491514
0.0491516
0.0491515
0.0491518
0.0491516
0.0491521
0.0491519
0.0491524
0.0491512
0.0491491
0.0491432
0.0491317
0.0491186
0.049052
0.0490653
0.0490771
0.049083
0.0490851
0.0490864
0.0490859
0.0490861
0.0490856
0.0490858
0.0490855
0.0490856
0.0490854
0.0490855
0.0490854
0.0490854
0.0490854
0.0490854
0.0490854
0.0490854
0.0490854
0.0490854
0.0490854
0.0490854
0.0490854
0.0490854
0.0490854
0.0490854
0.0490854
0.0490854
0.0490854
0.0490854
0.0490854
0.0490854
0.0490854
0.0490854
0.0490855
0.0490854
0.0490856
0.0490855
0.0490858
0.0490856
0.0490861
0.0490859
0.0490864
0.0490851
0.049083
0.0490771
0.0490653
0.049052
0.0489852
0.0489987
0.0490107
0.0490167
0.0490188
0.0490201
0.0490196
0.0490198
0.0490193
0.0490194
0.0490192
0.0490193
0.0490191
0.0490192
0.0490191
0.0490191
0.0490191
0.0490191
0.0490191
0.0490191
0.0490191
0.0490191
0.0490191
0.0490191
0.0490191
0.0490191
0.0490191
0.0490191
0.0490191
0.0490191
0.0490191
0.0490191
0.0490191
0.0490191
0.0490191
0.0490191
0.0490192
0.0490191
0.0490193
0.0490192
0.0490195
0.0490193
0.0490198
0.0490196
0.0490201
0.0490188
0.0490167
0.0490107
0.0489987
0.0489852
)
;

boundaryField
{
    fuel
    {
        type            fixedValue;
        value           uniform 0;
    }
    wall
    {
        type            zeroGradient;
    }
    outlet
    {
        type            zeroGradient;
    }
    frontAndBack
    {
        type            empty;
    }
    procBoundary1to0
    {
        type            processor;
        value           nonuniform List<scalar> 
50
(
0.0489185
0.0489321
0.0489442
0.0489502
0.0489523
0.0489537
0.0489532
0.0489534
0.0489529
0.048953
0.0489527
0.0489528
0.0489527
0.0489527
0.0489526
0.0489527
0.0489526
0.0489527
0.0489526
0.0489527
0.0489527
0.0489527
0.0489527
0.0489527
0.0489527
0.0489527
0.0489527
0.0489527
0.0489527
0.0489527
0.0489527
0.0489526
0.0489527
0.0489526
0.0489527
0.0489526
0.0489527
0.0489527
0.0489528
0.0489527
0.048953
0.0489529
0.0489534
0.0489532
0.0489536
0.0489523
0.0489502
0.0489442
0.0489321
0.0489185
)
;
    }
}


// ************************************************************************* //
