/*--------------------------------*- C++ -*----------------------------------*\
| =========                 |                                                 |
| \\      /  F ield         | OpenFOAM: The Open Source CFD Toolbox           |
|  \\    /   O peration     | Version:  dev                                   |
|   \\  /    A nd           | Web:      www.OpenFOAM.org                      |
|    \\/     M anipulation  |                                                 |
\*---------------------------------------------------------------------------*/
FoamFile
{
    version     2.0;
    format      ascii;
    class       volScalarField;
    location    "0.065";
    object      H2;
}
// * * * * * * * * * * * * * * * * * * * * * * * * * * * * * * * * * * * * * //

dimensions      [0 0 0 0 0 0 0];

internalField   nonuniform List<scalar> 
250
(
0.0091993
0.009272
0.00933593
0.00935826
0.00936981
0.00937304
0.00937386
0.00937478
0.00937414
0.00937469
0.00922174
0.00928843
0.00934486
0.00936491
0.00937484
0.00937776
0.00937848
0.00937922
0.00937873
0.00937912
0.00937897
0.00937889
0.00937915
0.0093787
0.00937797
0.00937554
0.00936703
0.00934711
0.00930092
0.00923849
0.00924157
0.0093021
0.00935138
0.00936926
0.00937766
0.00938027
0.00938091
0.00938147
0.00938113
0.00938135
0.00938124
0.00938122
0.0093814
0.00938104
0.00938038
0.00937819
0.00937082
0.00935346
0.00931336
0.00925842
0.00925874
0.00931304
0.00935558
0.00937139
0.0093784
0.00938071
0.00938127
0.00938167
0.00938146
0.00938153
0.00938145
0.00938148
0.00938159
0.00938133
0.00938072
0.00937876
0.00937247
0.00935747
0.0093229
0.0092749
0.00927332
0.00932141
0.00935771
0.00937154
0.00937731
0.00937934
0.00937983
0.00938009
0.00937999
0.00937993
0.00937988
0.00937996
0.00938001
0.00937982
0.00937928
0.00937755
0.00937221
0.00935938
0.00932982
0.00928819
0.00928553
0.00932753
0.00935814
0.00937009
0.00937481
0.00937657
0.00937699
0.00937715
0.00937713
0.00937698
0.00937695
0.00937706
0.00937707
0.00937694
0.00937646
0.00937494
0.00937046
0.00935959
0.00933445
0.00929868
0.00929571
0.00933185
0.00935737
0.00936755
0.00937139
0.0093729
0.00937327
0.00937336
0.00937339
0.00937318
0.00937317
0.0093733
0.00937328
0.00937319
0.00937277
0.00937145
0.0093677
0.00935855
0.00933741
0.00930689
0.0093043
0.00933493
0.00935595
0.00936449
0.00936762
0.00936891
0.00936923
0.00936926
0.00936933
0.00936908
0.00936908
0.00936922
0.00936919
0.00936913
0.00936876
0.00936763
0.0093645
0.00935683
0.00933926
0.0093134
0.00931174
0.00933728
0.0093544
0.00936145
0.00936401
0.00936509
0.00936537
0.00936538
0.00936545
0.0093652
0.0093652
0.00936534
0.00936531
0.00936526
0.00936495
0.00936399
0.00936139
0.00935503
0.00934052
0.00931877
0.00931837
0.00933936
0.00935312
0.00935885
0.00936096
0.00936185
0.00936209
0.00936209
0.00936215
0.00936191
0.00936192
0.00936205
0.00936203
0.00936198
0.00936173
0.00936092
0.00935876
0.00935354
0.00934165
0.00932348
0.00932429
0.00934135
0.0093523
0.00935692
0.00935866
0.00935939
0.0093596
0.00935958
0.00935964
0.0093594
0.00935941
0.00935954
0.00935953
0.00935949
0.00935928
0.0093586
0.00935683
0.00935255
0.00934286
0.00932772
0.00932927
0.00934319
0.00935191
0.00935566
0.00935711
0.00935771
0.0093579
0.00935786
0.00935792
0.00935768
0.00935769
0.00935782
0.00935781
0.00935779
0.00935761
0.00935704
0.00935557
0.00935205
0.00934409
0.00933137
0.00933261
0.00934448
0.00935176
0.00935496
0.00935621
0.00935673
0.0093569
0.00935686
0.00935692
0.00935668
0.00935669
0.00935682
0.00935681
0.0093568
0.00935665
0.00935614
0.00935488
0.00935183
0.00934499
0.00933385
)
;

boundaryField
{
    fuel
    {
        type            fixedValue;
        value           nonuniform 0();
    }
    wall
    {
        type            zeroGradient;
    }
    outlet
    {
        type            zeroGradient;
    }
    frontAndBack
    {
        type            empty;
    }
    procBoundary1to0
    {
        type            processor;
        value           nonuniform List<scalar> 
21
(
0.0091744
0.00925288
0.00932464
0.00934936
0.00936259
0.00936614
0.00936704
0.00936815
0.00936737
0.00936807
0.00937452
0.00937452
0.00937438
0.00937472
0.00937417
0.00937338
0.00937071
0.00936099
0.00933832
0.00928547
0.00921499
)
;
    }
}


// ************************************************************************* //
