/*--------------------------------*- C++ -*----------------------------------*\
| =========                 |                                                 |
| \\      /  F ield         | OpenFOAM: The Open Source CFD Toolbox           |
|  \\    /   O peration     | Version:  dev                                   |
|   \\  /    A nd           | Web:      www.OpenFOAM.org                      |
|    \\/     M anipulation  |                                                 |
\*---------------------------------------------------------------------------*/
FoamFile
{
    version     2.0;
    format      ascii;
    class       volScalarField;
    location    "0.065";
    object      HCCO;
}
// * * * * * * * * * * * * * * * * * * * * * * * * * * * * * * * * * * * * * //

dimensions      [0 0 0 0 0 0 0];

internalField   nonuniform List<scalar> 
250
(
9.34218e-08
8.47812e-08
9.67699e-08
7.84083e-08
8.74625e-08
7.64055e-08
8.24477e-08
7.68635e-08
8.01742e-08
7.79073e-08
7.23249e-08
6.34548e-08
7.22109e-08
5.76764e-08
6.4756e-08
5.61212e-08
6.08816e-08
5.64878e-08
5.91162e-08
5.73168e-08
5.73963e-08
5.88038e-08
5.70962e-08
5.9626e-08
5.81608e-08
6.08017e-08
6.2886e-08
6.35411e-08
7.40153e-08
6.82618e-08
5.43157e-08
4.60355e-08
5.23189e-08
4.11972e-08
4.65524e-08
4.00475e-08
4.36629e-08
4.03322e-08
4.2341e-08
4.09673e-08
4.10218e-08
4.21038e-08
4.0795e-08
4.27107e-08
4.15877e-08
4.3559e-08
4.50897e-08
4.55946e-08
5.37198e-08
5.00551e-08
3.94653e-08
3.23396e-08
3.67125e-08
2.85351e-08
3.2433e-08
2.77222e-08
3.03617e-08
2.79345e-08
2.94103e-08
2.84026e-08
2.84363e-08
2.92387e-08
2.82711e-08
2.96701e-08
2.88386e-08
3.02593e-08
3.13269e-08
3.17172e-08
3.77446e-08
3.56114e-08
2.76727e-08
2.19901e-08
2.48877e-08
1.91298e-08
2.1853e-08
1.85808e-08
2.04299e-08
1.87326e-08
1.97732e-08
1.90638e-08
1.90825e-08
1.96546e-08
1.8967e-08
1.99489e-08
1.93572e-08
2.03409e-08
2.10477e-08
2.13438e-08
2.56124e-08
2.45319e-08
1.86705e-08
1.42527e-08
1.62428e-08
1.23687e-08
1.41927e-08
1.20154e-08
1.32574e-08
1.21193e-08
1.2823e-08
1.23442e-08
1.23532e-08
1.27448e-08
1.22758e-08
1.2937e-08
1.25333e-08
1.31861e-08
1.36306e-08
1.38466e-08
1.67258e-08
1.6146e-08
1.1869e-08
8.90782e-09
1.01343e-08
7.64825e-09
8.81858e-09
7.43237e-09
8.23166e-09
7.50064e-09
7.95678e-09
7.64706e-09
7.65059e-09
7.90731e-09
7.60077e-09
8.02739e-09
7.76369e-09
8.17788e-09
8.44397e-09
8.59247e-09
1.044e-08
1.02456e-08
7.18305e-09
5.21806e-09
5.94632e-09
4.4366e-09
5.15088e-09
4.31295e-09
4.80216e-09
4.35574e-09
4.63694e-09
4.44647e-09
4.44728e-09
4.60713e-09
4.41679e-09
4.67816e-09
4.51467e-09
4.76354e-09
4.91459e-09
5.00888e-09
6.13095e-09
6.13873e-09
3.98584e-09
2.77072e-09
3.1722e-09
2.32955e-09
2.73173e-09
2.26534e-09
2.54131e-09
2.29009e-09
2.4498e-09
2.3419e-09
2.34171e-09
2.4331e-09
2.32449e-09
2.47167e-09
2.37857e-09
2.51564e-09
2.59478e-09
2.64823e-09
3.27849e-09
3.37483e-09
1.96187e-09
1.2771e-09
1.46602e-09
1.06045e-09
1.25582e-09
1.03184e-09
1.16611e-09
1.04411e-09
1.12234e-09
1.06962e-09
1.06924e-09
1.11423e-09
1.06084e-09
1.13228e-09
1.08665e-09
1.15167e-09
1.18762e-09
1.21374e-09
1.52467e-09
1.65393e-09
8.46821e-10
4.79144e-10
5.46351e-10
3.8732e-10
4.64102e-10
3.76874e-10
4.29803e-10
3.81763e-10
4.12841e-10
3.91946e-10
3.91622e-10
4.09713e-10
3.8828e-10
4.16552e-10
3.9832e-10
4.23526e-10
4.36813e-10
4.48402e-10
5.81304e-10
7.25506e-10
3.42283e-10
1.27926e-10
1.355e-10
9.51133e-11
1.1407e-10
9.25401e-11
1.05698e-10
9.373e-11
1.01536e-10
9.62807e-11
9.6144e-11
1.00784e-10
9.53106e-11
1.02439e-10
9.78105e-11
1.04093e-10
1.0729e-10
1.11667e-10
1.6177e-10
3.28467e-10
2.76524e-10
4.04983e-11
2.64105e-11
1.89576e-11
2.16371e-11
1.84441e-11
2.03727e-11
1.85914e-11
1.9764e-11
1.89618e-11
1.89053e-11
1.96862e-11
1.87815e-11
1.99437e-11
1.91781e-11
2.02441e-11
2.07575e-11
2.37963e-11
6.29577e-11
3.4671e-10
)
;

boundaryField
{
    fuel
    {
        type            fixedValue;
        value           nonuniform 0();
    }
    wall
    {
        type            zeroGradient;
    }
    outlet
    {
        type            zeroGradient;
    }
    frontAndBack
    {
        type            empty;
    }
    procBoundary1to0
    {
        type            processor;
        value           nonuniform List<scalar> 
21
(
1.17054e-07
1.10179e-07
1.26031e-07
1.03731e-07
1.1487e-07
1.01218e-07
1.0862e-07
1.01761e-07
1.05795e-07
1.03031e-07
7.80194e-08
7.80194e-08
7.9781e-08
7.76379e-08
8.0853e-08
7.90203e-08
8.24218e-08
8.51649e-08
8.59795e-08
9.8981e-08
9.05205e-08
)
;
    }
}


// ************************************************************************* //
