/*--------------------------------*- C++ -*----------------------------------*\
| =========                 |                                                 |
| \\      /  F ield         | OpenFOAM: The Open Source CFD Toolbox           |
|  \\    /   O peration     | Version:  dev                                   |
|   \\  /    A nd           | Web:      www.OpenFOAM.org                      |
|    \\/     M anipulation  |                                                 |
\*---------------------------------------------------------------------------*/
FoamFile
{
    version     2.0;
    format      ascii;
    class       volScalarField;
    location    "0.065";
    object      HO2;
}
// * * * * * * * * * * * * * * * * * * * * * * * * * * * * * * * * * * * * * //

dimensions      [0 0 0 0 0 0 0];

internalField   nonuniform List<scalar> 
2000
(
0.000387922
0.00038876
0.000388835
0.000388871
0.000388854
0.000388872
0.000388858
0.000388869
0.00038886
0.000388868
0.000388861
0.000388866
0.000388862
0.000388866
0.000388863
0.000388865
0.000388863
0.000388865
0.000388864
0.000388865
0.000388864
0.000388864
0.000388864
0.000388864
0.000388864
0.000388864
0.000388864
0.000388864
0.000388864
0.000388864
0.000388865
0.000388864
0.000388865
0.000388863
0.000388865
0.000388863
0.000388866
0.000388862
0.000388866
0.000388861
0.000388868
0.00038886
0.000388869
0.000388858
0.000388872
0.000388855
0.000388871
0.000388835
0.00038876
0.000387922
0.000233839
0.000233925
0.000233712
0.000233621
0.000233574
0.000233571
0.00023356
0.000233565
0.000233561
0.000233565
0.000233562
0.000233564
0.000233562
0.000233564
0.000233563
0.000233564
0.000233563
0.000233564
0.000233563
0.000233564
0.000233563
0.000233564
0.000233564
0.000233564
0.000233564
0.000233564
0.000233564
0.000233564
0.000233564
0.000233563
0.000233564
0.000233563
0.000233564
0.000233563
0.000233564
0.000233563
0.000233564
0.000233562
0.000233564
0.000233562
0.000233565
0.000233561
0.000233565
0.00023356
0.000233571
0.000233574
0.000233622
0.000233712
0.000233925
0.000233839
9.88937e-05
9.89424e-05
9.88698e-05
9.88371e-05
9.8811e-05
9.88138e-05
9.88054e-05
9.88105e-05
9.8806e-05
9.88099e-05
9.88069e-05
9.88095e-05
9.88074e-05
9.88092e-05
9.88078e-05
9.8809e-05
9.88081e-05
9.88088e-05
9.88082e-05
9.88087e-05
9.88083e-05
9.88086e-05
9.88084e-05
9.88085e-05
9.88084e-05
9.88084e-05
9.88085e-05
9.88084e-05
9.88086e-05
9.88083e-05
9.88087e-05
9.88082e-05
9.88088e-05
9.88081e-05
9.8809e-05
9.88078e-05
9.88092e-05
9.88074e-05
9.88095e-05
9.88069e-05
9.88099e-05
9.8806e-05
9.88106e-05
9.88054e-05
9.88138e-05
9.88111e-05
9.88371e-05
9.88698e-05
9.89424e-05
9.88937e-05
4.25494e-05
4.2586e-05
4.25743e-05
4.25664e-05
4.25531e-05
4.2557e-05
4.25512e-05
4.25552e-05
4.25517e-05
4.25546e-05
4.25523e-05
4.25543e-05
4.25527e-05
4.2554e-05
4.25529e-05
4.25538e-05
4.25531e-05
4.25537e-05
4.25532e-05
4.25536e-05
4.25533e-05
4.25535e-05
4.25533e-05
4.25534e-05
4.25534e-05
4.25534e-05
4.25534e-05
4.25533e-05
4.25535e-05
4.25533e-05
4.25535e-05
4.25532e-05
4.25537e-05
4.25531e-05
4.25538e-05
4.25529e-05
4.2554e-05
4.25527e-05
4.25542e-05
4.25523e-05
4.25546e-05
4.25517e-05
4.25552e-05
4.25512e-05
4.25569e-05
4.25531e-05
4.25664e-05
4.25742e-05
4.2586e-05
4.25493e-05
1.89256e-05
1.89496e-05
1.89554e-05
1.89552e-05
1.89484e-05
1.89514e-05
1.89479e-05
1.89505e-05
1.89482e-05
1.89501e-05
1.89486e-05
1.89498e-05
1.89488e-05
1.89496e-05
1.89489e-05
1.89495e-05
1.8949e-05
1.89494e-05
1.89491e-05
1.89494e-05
1.89492e-05
1.89493e-05
1.89492e-05
1.89493e-05
1.89492e-05
1.89492e-05
1.89493e-05
1.89492e-05
1.89493e-05
1.89492e-05
1.89494e-05
1.89491e-05
1.89494e-05
1.8949e-05
1.89495e-05
1.89489e-05
1.89496e-05
1.89488e-05
1.89498e-05
1.89486e-05
1.89501e-05
1.89482e-05
1.89505e-05
1.89479e-05
1.89514e-05
1.89484e-05
1.89552e-05
1.89554e-05
1.89496e-05
1.89255e-05
8.69808e-06
8.71243e-06
8.72074e-06
8.7222e-06
8.71878e-06
8.72073e-06
8.71865e-06
8.72022e-06
8.71884e-06
8.71997e-06
8.71905e-06
8.71981e-06
8.71918e-06
8.71968e-06
8.71928e-06
8.71961e-06
8.71932e-06
8.71956e-06
8.71938e-06
8.71952e-06
8.71941e-06
8.71949e-06
8.71943e-06
8.71947e-06
8.71945e-06
8.71945e-06
8.71947e-06
8.71943e-06
8.71949e-06
8.71941e-06
8.71952e-06
8.71938e-06
8.71956e-06
8.71932e-06
8.71961e-06
8.71927e-06
8.71968e-06
8.71918e-06
8.7198e-06
8.71905e-06
8.71997e-06
8.71884e-06
8.72022e-06
8.71865e-06
8.72072e-06
8.71878e-06
8.72219e-06
8.72073e-06
8.71244e-06
8.69803e-06
4.13327e-06
4.1414e-06
4.14809e-06
4.14949e-06
4.14776e-06
4.14893e-06
4.14775e-06
4.14866e-06
4.14785e-06
4.14851e-06
4.14797e-06
4.14841e-06
4.14805e-06
4.14833e-06
4.1481e-06
4.14829e-06
4.14812e-06
4.14827e-06
4.14816e-06
4.14824e-06
4.14818e-06
4.14822e-06
4.14818e-06
4.14821e-06
4.1482e-06
4.1482e-06
4.14821e-06
4.14818e-06
4.14822e-06
4.14818e-06
4.14824e-06
4.14816e-06
4.14826e-06
4.14812e-06
4.14829e-06
4.1481e-06
4.14833e-06
4.14805e-06
4.14841e-06
4.14797e-06
4.14851e-06
4.14785e-06
4.14865e-06
4.14774e-06
4.14892e-06
4.14776e-06
4.14948e-06
4.14809e-06
4.14141e-06
4.13324e-06
2.03951e-06
2.04399e-06
2.04857e-06
2.04956e-06
2.04868e-06
2.04936e-06
2.04869e-06
2.04921e-06
2.04875e-06
2.04912e-06
2.04881e-06
2.04907e-06
2.04886e-06
2.04902e-06
2.04889e-06
2.049e-06
2.0489e-06
2.04898e-06
2.04892e-06
2.04897e-06
2.04893e-06
2.04896e-06
2.04894e-06
2.04895e-06
2.04894e-06
2.04894e-06
2.04895e-06
2.04894e-06
2.04896e-06
2.04893e-06
2.04897e-06
2.04892e-06
2.04898e-06
2.0489e-06
2.049e-06
2.04888e-06
2.04902e-06
2.04886e-06
2.04906e-06
2.04881e-06
2.04912e-06
2.04875e-06
2.04921e-06
2.04869e-06
2.04935e-06
2.04868e-06
2.04956e-06
2.04857e-06
2.04399e-06
2.0395e-06
1.05006e-06
1.0525e-06
1.05544e-06
1.05607e-06
1.05561e-06
1.056e-06
1.05562e-06
1.05592e-06
1.05565e-06
1.05587e-06
1.05569e-06
1.05583e-06
1.05571e-06
1.05581e-06
1.05573e-06
1.05579e-06
1.05574e-06
1.05578e-06
1.05575e-06
1.05578e-06
1.05576e-06
1.05577e-06
1.05576e-06
1.05577e-06
1.05576e-06
1.05576e-06
1.05577e-06
1.05576e-06
1.05577e-06
1.05576e-06
1.05578e-06
1.05575e-06
1.05578e-06
1.05574e-06
1.05579e-06
1.05573e-06
1.05581e-06
1.05571e-06
1.05583e-06
1.05569e-06
1.05586e-06
1.05565e-06
1.05591e-06
1.05562e-06
1.056e-06
1.05561e-06
1.05607e-06
1.05544e-06
1.0525e-06
1.05006e-06
5.68882e-07
5.7022e-07
5.72082e-07
5.72479e-07
5.72228e-07
5.72452e-07
5.72233e-07
5.72403e-07
5.7225e-07
5.72373e-07
5.72271e-07
5.72354e-07
5.72285e-07
5.72339e-07
5.72295e-07
5.72331e-07
5.72299e-07
5.72326e-07
5.72306e-07
5.72322e-07
5.72309e-07
5.72318e-07
5.72311e-07
5.72315e-07
5.72313e-07
5.72313e-07
5.72315e-07
5.72311e-07
5.72318e-07
5.72309e-07
5.72322e-07
5.72306e-07
5.72326e-07
5.72299e-07
5.72332e-07
5.72294e-07
5.72339e-07
5.72285e-07
5.72353e-07
5.72271e-07
5.72373e-07
5.72249e-07
5.72403e-07
5.72233e-07
5.72452e-07
5.72228e-07
5.72478e-07
5.72082e-07
5.70221e-07
5.68879e-07
3.26045e-07
3.26819e-07
3.28035e-07
3.28291e-07
3.28147e-07
3.28283e-07
3.28149e-07
3.28252e-07
3.28158e-07
3.28233e-07
3.2817e-07
3.28221e-07
3.28179e-07
3.28212e-07
3.28185e-07
3.28208e-07
3.28188e-07
3.28204e-07
3.28192e-07
3.28202e-07
3.28194e-07
3.282e-07
3.28195e-07
3.28198e-07
3.28197e-07
3.28197e-07
3.28198e-07
3.28195e-07
3.282e-07
3.28194e-07
3.28202e-07
3.28192e-07
3.28204e-07
3.28188e-07
3.28208e-07
3.28185e-07
3.28212e-07
3.28179e-07
3.28221e-07
3.2817e-07
3.28233e-07
3.28157e-07
3.28252e-07
3.28149e-07
3.28283e-07
3.28147e-07
3.2829e-07
3.28035e-07
3.2682e-07
3.26043e-07
1.93656e-07
1.94083e-07
1.94811e-07
1.94954e-07
1.94868e-07
1.94945e-07
1.94864e-07
1.94925e-07
1.94869e-07
1.94914e-07
1.94876e-07
1.94907e-07
1.94882e-07
1.94901e-07
1.94885e-07
1.94899e-07
1.94887e-07
1.94897e-07
1.94889e-07
1.94895e-07
1.94891e-07
1.94894e-07
1.94891e-07
1.94893e-07
1.94892e-07
1.94892e-07
1.94893e-07
1.94891e-07
1.94894e-07
1.94891e-07
1.94895e-07
1.94889e-07
1.94897e-07
1.94887e-07
1.94899e-07
1.94885e-07
1.94901e-07
1.94882e-07
1.94906e-07
1.94876e-07
1.94913e-07
1.94869e-07
1.94925e-07
1.94864e-07
1.94945e-07
1.94868e-07
1.94954e-07
1.94811e-07
1.94083e-07
1.93655e-07
1.22783e-07
1.23088e-07
1.23617e-07
1.23724e-07
1.23664e-07
1.23717e-07
1.23659e-07
1.23702e-07
1.23662e-07
1.23694e-07
1.23667e-07
1.23689e-07
1.23671e-07
1.23685e-07
1.23674e-07
1.23683e-07
1.23675e-07
1.23682e-07
1.23677e-07
1.23681e-07
1.23678e-07
1.2368e-07
1.23678e-07
1.23679e-07
1.23679e-07
1.23679e-07
1.23679e-07
1.23678e-07
1.2368e-07
1.23678e-07
1.23681e-07
1.23677e-07
1.23682e-07
1.23675e-07
1.23683e-07
1.23674e-07
1.23685e-07
1.23671e-07
1.23689e-07
1.23667e-07
1.23694e-07
1.23662e-07
1.23702e-07
1.23659e-07
1.23717e-07
1.23664e-07
1.23724e-07
1.23617e-07
1.23088e-07
1.22782e-07
8.11924e-08
8.12809e-08
8.15574e-08
8.16033e-08
8.15792e-08
8.16055e-08
8.15775e-08
8.15988e-08
8.15786e-08
8.15944e-08
8.15811e-08
8.15918e-08
8.15829e-08
8.15898e-08
8.15841e-08
8.15888e-08
8.15847e-08
8.15881e-08
8.15855e-08
8.15875e-08
8.15859e-08
8.15871e-08
8.15861e-08
8.15867e-08
8.15864e-08
8.15864e-08
8.15867e-08
8.15861e-08
8.15871e-08
8.15859e-08
8.15875e-08
8.15855e-08
8.15881e-08
8.15847e-08
8.15888e-08
8.15841e-08
8.15898e-08
8.1583e-08
8.15917e-08
8.15811e-08
8.15944e-08
8.15785e-08
8.15988e-08
8.15775e-08
8.16055e-08
8.15793e-08
8.16032e-08
8.15574e-08
8.1281e-08
8.11923e-08
5.49621e-08
5.50154e-08
5.52002e-08
5.52283e-08
5.52111e-08
5.5228e-08
5.52087e-08
5.5223e-08
5.52092e-08
5.522e-08
5.52109e-08
5.52182e-08
5.52122e-08
5.52169e-08
5.52131e-08
5.52163e-08
5.52134e-08
5.52158e-08
5.5214e-08
5.52154e-08
5.52143e-08
5.52151e-08
5.52145e-08
5.52149e-08
5.52147e-08
5.52147e-08
5.52149e-08
5.52145e-08
5.52151e-08
5.52143e-08
5.52154e-08
5.5214e-08
5.52158e-08
5.52135e-08
5.52163e-08
5.5213e-08
5.52169e-08
5.52123e-08
5.52182e-08
5.5211e-08
5.522e-08
5.52092e-08
5.5223e-08
5.52087e-08
5.5228e-08
5.52111e-08
5.52283e-08
5.52002e-08
5.50155e-08
5.49621e-08
3.87585e-08
3.87983e-08
3.89364e-08
3.89571e-08
3.89441e-08
3.89564e-08
3.89417e-08
3.89525e-08
3.8942e-08
3.89502e-08
3.89434e-08
3.89489e-08
3.89444e-08
3.89479e-08
3.8945e-08
3.89474e-08
3.89453e-08
3.89471e-08
3.89457e-08
3.89468e-08
3.8946e-08
3.89466e-08
3.89461e-08
3.89464e-08
3.89462e-08
3.89462e-08
3.89464e-08
3.89461e-08
3.89466e-08
3.8946e-08
3.89468e-08
3.89457e-08
3.89471e-08
3.89453e-08
3.89475e-08
3.8945e-08
3.89479e-08
3.89444e-08
3.89488e-08
3.89434e-08
3.89502e-08
3.8942e-08
3.89525e-08
3.89417e-08
3.89563e-08
3.89441e-08
3.89571e-08
3.89365e-08
3.87983e-08
3.87585e-08
2.76314e-08
2.76767e-08
2.77979e-08
2.78246e-08
2.78187e-08
2.78299e-08
2.78184e-08
2.7827e-08
2.78184e-08
2.78248e-08
2.78193e-08
2.78236e-08
2.782e-08
2.78228e-08
2.78204e-08
2.78223e-08
2.78206e-08
2.7822e-08
2.78209e-08
2.78218e-08
2.78211e-08
2.78216e-08
2.78212e-08
2.78214e-08
2.78213e-08
2.78213e-08
2.78214e-08
2.78212e-08
2.78216e-08
2.78211e-08
2.78218e-08
2.78209e-08
2.7822e-08
2.78206e-08
2.78223e-08
2.78204e-08
2.78228e-08
2.782e-08
2.78236e-08
2.78193e-08
2.78248e-08
2.78184e-08
2.7827e-08
2.78184e-08
2.78299e-08
2.78187e-08
2.78246e-08
2.77979e-08
2.76767e-08
2.76314e-08
2.02498e-08
2.02877e-08
2.03818e-08
2.04032e-08
2.03992e-08
2.04078e-08
2.0399e-08
2.04056e-08
2.03989e-08
2.04039e-08
2.03996e-08
2.04029e-08
2.04001e-08
2.04023e-08
2.04005e-08
2.04019e-08
2.04006e-08
2.04017e-08
2.04009e-08
2.04015e-08
2.0401e-08
2.04014e-08
2.04011e-08
2.04013e-08
2.04012e-08
2.04012e-08
2.04013e-08
2.04011e-08
2.04014e-08
2.0401e-08
2.04015e-08
2.04009e-08
2.04017e-08
2.04006e-08
2.04019e-08
2.04005e-08
2.04023e-08
2.04001e-08
2.04029e-08
2.03996e-08
2.04039e-08
2.03989e-08
2.04056e-08
2.0399e-08
2.04078e-08
2.03992e-08
2.04031e-08
2.03818e-08
2.02878e-08
2.02498e-08
1.48809e-08
1.49246e-08
1.5012e-08
1.50357e-08
1.50323e-08
1.50406e-08
1.50322e-08
1.50384e-08
1.50322e-08
1.50368e-08
1.50328e-08
1.5036e-08
1.50333e-08
1.50354e-08
1.50337e-08
1.50351e-08
1.50338e-08
1.50349e-08
1.50341e-08
1.50347e-08
1.50342e-08
1.50346e-08
1.50343e-08
1.50345e-08
1.50344e-08
1.50344e-08
1.50345e-08
1.50343e-08
1.50346e-08
1.50342e-08
1.50347e-08
1.50341e-08
1.50349e-08
1.50338e-08
1.50351e-08
1.50337e-08
1.50354e-08
1.50334e-08
1.50359e-08
1.50329e-08
1.50368e-08
1.50322e-08
1.50384e-08
1.50323e-08
1.50406e-08
1.50324e-08
1.50357e-08
1.5012e-08
1.49246e-08
1.48809e-08
1.10291e-08
1.10676e-08
1.11347e-08
1.11534e-08
1.11509e-08
1.11572e-08
1.11507e-08
1.11555e-08
1.11507e-08
1.11542e-08
1.11512e-08
1.11536e-08
1.11516e-08
1.11531e-08
1.11518e-08
1.11529e-08
1.1152e-08
1.11528e-08
1.11521e-08
1.11526e-08
1.11522e-08
1.11525e-08
1.11523e-08
1.11524e-08
1.11524e-08
1.11524e-08
1.11524e-08
1.11523e-08
1.11525e-08
1.11522e-08
1.11526e-08
1.11521e-08
1.11528e-08
1.1152e-08
1.11529e-08
1.11518e-08
1.11531e-08
1.11516e-08
1.11536e-08
1.11512e-08
1.11542e-08
1.11507e-08
1.11554e-08
1.11507e-08
1.11572e-08
1.11509e-08
1.11534e-08
1.11347e-08
1.10676e-08
1.10291e-08
8.32221e-09
8.36037e-09
8.41508e-09
8.43102e-09
8.42918e-09
8.43431e-09
8.42901e-09
8.43287e-09
8.42894e-09
8.43185e-09
8.42937e-09
8.43134e-09
8.42971e-09
8.43099e-09
8.42992e-09
8.43081e-09
8.43003e-09
8.43068e-09
8.43019e-09
8.43057e-09
8.43027e-09
8.43049e-09
8.43031e-09
8.43042e-09
8.43038e-09
8.43038e-09
8.43043e-09
8.43031e-09
8.4305e-09
8.43027e-09
8.43057e-09
8.43019e-09
8.43068e-09
8.43003e-09
8.43081e-09
8.42992e-09
8.43099e-09
8.42972e-09
8.43133e-09
8.42938e-09
8.43186e-09
8.42894e-09
8.43286e-09
8.42902e-09
8.4343e-09
8.42918e-09
8.43102e-09
8.41509e-09
8.36037e-09
8.32221e-09
6.3267e-09
6.36708e-09
6.41228e-09
6.42599e-09
6.42452e-09
6.42876e-09
6.42434e-09
6.42754e-09
6.42429e-09
6.42671e-09
6.42466e-09
6.4263e-09
6.42496e-09
6.42602e-09
6.42514e-09
6.42588e-09
6.42523e-09
6.42578e-09
6.42537e-09
6.42569e-09
6.42544e-09
6.42563e-09
6.42547e-09
6.42557e-09
6.42553e-09
6.42553e-09
6.42557e-09
6.42547e-09
6.42563e-09
6.42544e-09
6.42569e-09
6.42537e-09
6.42578e-09
6.42523e-09
6.42588e-09
6.42514e-09
6.42602e-09
6.42496e-09
6.42629e-09
6.42467e-09
6.42671e-09
6.42429e-09
6.42754e-09
6.42435e-09
6.42875e-09
6.42452e-09
6.42598e-09
6.41228e-09
6.36708e-09
6.3267e-09
4.84277e-09
4.84488e-09
4.87723e-09
4.88758e-09
4.88733e-09
4.89065e-09
4.88752e-09
4.88982e-09
4.8874e-09
4.88909e-09
4.88756e-09
4.88871e-09
4.88771e-09
4.88845e-09
4.8878e-09
4.88832e-09
4.88784e-09
4.88823e-09
4.88793e-09
4.88816e-09
4.88797e-09
4.88811e-09
4.88799e-09
4.88806e-09
4.88803e-09
4.88803e-09
4.88806e-09
4.88799e-09
4.88811e-09
4.88797e-09
4.88816e-09
4.88793e-09
4.88823e-09
4.88784e-09
4.88832e-09
4.8878e-09
4.88845e-09
4.88771e-09
4.8887e-09
4.88757e-09
4.88909e-09
4.88739e-09
4.88981e-09
4.88752e-09
4.89064e-09
4.88733e-09
4.88758e-09
4.87723e-09
4.84488e-09
4.84277e-09
3.73263e-09
3.73632e-09
3.76252e-09
3.77123e-09
3.7711e-09
3.77383e-09
3.77126e-09
3.77315e-09
3.77116e-09
3.77255e-09
3.7713e-09
3.77223e-09
3.77141e-09
3.77202e-09
3.77149e-09
3.77191e-09
3.77152e-09
3.77184e-09
3.77159e-09
3.77178e-09
3.77163e-09
3.77174e-09
3.77165e-09
3.7717e-09
3.77168e-09
3.77168e-09
3.7717e-09
3.77165e-09
3.77174e-09
3.77163e-09
3.77178e-09
3.77159e-09
3.77184e-09
3.77152e-09
3.77191e-09
3.77149e-09
3.77202e-09
3.77142e-09
3.77223e-09
3.7713e-09
3.77255e-09
3.77116e-09
3.77314e-09
3.77127e-09
3.77383e-09
3.7711e-09
3.77122e-09
3.76253e-09
3.73632e-09
3.73263e-09
2.8668e-09
2.87181e-09
2.89446e-09
2.90273e-09
2.903e-09
2.90543e-09
2.90326e-09
2.90484e-09
2.90314e-09
2.9043e-09
2.90324e-09
2.90402e-09
2.90332e-09
2.90383e-09
2.90338e-09
2.90374e-09
2.90341e-09
2.90368e-09
2.90347e-09
2.90363e-09
2.9035e-09
2.90359e-09
2.90351e-09
2.90356e-09
2.90354e-09
2.90354e-09
2.90356e-09
2.90351e-09
2.90359e-09
2.9035e-09
2.90363e-09
2.90347e-09
2.90368e-09
2.90341e-09
2.90374e-09
2.90338e-09
2.90383e-09
2.90332e-09
2.90401e-09
2.90324e-09
2.9043e-09
2.90314e-09
2.90484e-09
2.90326e-09
2.90542e-09
2.903e-09
2.90273e-09
2.89446e-09
2.87181e-09
2.8668e-09
2.21177e-09
2.21669e-09
2.2347e-09
2.24152e-09
2.24179e-09
2.24376e-09
2.24201e-09
2.24327e-09
2.24191e-09
2.24283e-09
2.24198e-09
2.2426e-09
2.24205e-09
2.24246e-09
2.24209e-09
2.24238e-09
2.24211e-09
2.24233e-09
2.24216e-09
2.24229e-09
2.24218e-09
2.24226e-09
2.2422e-09
2.24223e-09
2.24222e-09
2.24222e-09
2.24223e-09
2.2422e-09
2.24226e-09
2.24219e-09
2.24229e-09
2.24216e-09
2.24233e-09
2.24211e-09
2.24238e-09
2.24209e-09
2.24246e-09
2.24205e-09
2.2426e-09
2.24198e-09
2.24283e-09
2.24191e-09
2.24327e-09
2.24201e-09
2.24375e-09
2.24179e-09
2.24151e-09
2.2347e-09
2.21669e-09
2.21177e-09
1.71384e-09
1.71849e-09
1.73285e-09
1.73846e-09
1.73873e-09
1.74032e-09
1.73892e-09
1.73992e-09
1.73883e-09
1.73957e-09
1.73888e-09
1.73938e-09
1.73893e-09
1.73926e-09
1.73897e-09
1.7392e-09
1.73899e-09
1.73916e-09
1.73902e-09
1.73913e-09
1.73904e-09
1.7391e-09
1.73905e-09
1.73908e-09
1.73907e-09
1.73907e-09
1.73908e-09
1.73905e-09
1.7391e-09
1.73904e-09
1.73913e-09
1.73902e-09
1.73916e-09
1.73899e-09
1.7392e-09
1.73897e-09
1.73926e-09
1.73893e-09
1.73938e-09
1.73889e-09
1.73957e-09
1.73883e-09
1.73992e-09
1.73892e-09
1.74032e-09
1.73873e-09
1.73846e-09
1.73285e-09
1.71849e-09
1.71384e-09
1.33379e-09
1.33807e-09
1.34953e-09
1.35415e-09
1.35442e-09
1.35571e-09
1.35457e-09
1.35538e-09
1.3545e-09
1.35509e-09
1.35454e-09
1.35494e-09
1.35458e-09
1.35484e-09
1.35461e-09
1.35479e-09
1.35462e-09
1.35476e-09
1.35465e-09
1.35473e-09
1.35466e-09
1.35471e-09
1.35467e-09
1.3547e-09
1.35469e-09
1.35469e-09
1.3547e-09
1.35467e-09
1.35471e-09
1.35466e-09
1.35473e-09
1.35465e-09
1.35476e-09
1.35462e-09
1.35479e-09
1.35461e-09
1.35484e-09
1.35458e-09
1.35493e-09
1.35454e-09
1.35509e-09
1.3545e-09
1.35538e-09
1.35457e-09
1.3557e-09
1.35442e-09
1.35415e-09
1.34953e-09
1.33807e-09
1.33379e-09
1.04268e-09
1.04655e-09
1.05572e-09
1.05953e-09
1.05978e-09
1.06082e-09
1.05991e-09
1.06056e-09
1.05984e-09
1.06031e-09
1.05987e-09
1.06019e-09
1.0599e-09
1.06011e-09
1.05992e-09
1.06007e-09
1.05993e-09
1.06005e-09
1.05996e-09
1.06002e-09
1.05997e-09
1.06001e-09
1.05998e-09
1.06e-09
1.05999e-09
1.05999e-09
1.06e-09
1.05998e-09
1.06001e-09
1.05997e-09
1.06002e-09
1.05996e-09
1.06005e-09
1.05993e-09
1.06007e-09
1.05992e-09
1.06011e-09
1.0599e-09
1.06019e-09
1.05987e-09
1.06031e-09
1.05984e-09
1.06055e-09
1.05991e-09
1.06082e-09
1.05978e-09
1.05953e-09
1.05572e-09
1.04655e-09
1.04269e-09
8.19024e-10
8.22465e-10
8.29817e-10
8.32948e-10
8.33181e-10
8.34031e-10
8.33291e-10
8.33811e-10
8.33237e-10
8.33613e-10
8.33258e-10
8.33512e-10
8.3328e-10
8.33447e-10
8.33295e-10
8.33414e-10
8.33303e-10
8.33393e-10
8.33322e-10
8.33377e-10
8.33332e-10
8.33364e-10
8.33337e-10
8.33353e-10
8.33346e-10
8.33346e-10
8.33353e-10
8.33337e-10
8.33364e-10
8.33333e-10
8.33376e-10
8.33322e-10
8.33393e-10
8.33303e-10
8.33414e-10
8.33296e-10
8.33447e-10
8.3328e-10
8.33511e-10
8.33259e-10
8.33613e-10
8.33237e-10
8.3381e-10
8.33292e-10
8.34029e-10
8.33181e-10
8.32947e-10
8.29817e-10
8.22464e-10
8.19024e-10
6.46709e-10
6.49741e-10
6.55644e-10
6.58221e-10
6.58435e-10
6.59127e-10
6.5853e-10
6.58946e-10
6.58484e-10
6.58784e-10
6.58497e-10
6.58701e-10
6.58513e-10
6.58648e-10
6.58525e-10
6.5862e-10
6.58531e-10
6.58604e-10
6.58546e-10
6.5859e-10
6.58554e-10
6.58579e-10
6.58558e-10
6.58571e-10
6.58565e-10
6.58565e-10
6.58571e-10
6.58558e-10
6.5858e-10
6.58554e-10
6.5859e-10
6.58546e-10
6.58604e-10
6.58531e-10
6.58621e-10
6.58525e-10
6.58648e-10
6.58514e-10
6.58699e-10
6.58499e-10
6.58784e-10
6.58484e-10
6.58946e-10
6.58531e-10
6.59126e-10
6.58435e-10
6.58221e-10
6.55644e-10
6.4974e-10
6.46709e-10
5.13626e-10
5.16278e-10
5.21024e-10
5.23148e-10
5.23342e-10
5.23907e-10
5.23425e-10
5.23759e-10
5.23385e-10
5.23624e-10
5.23394e-10
5.23556e-10
5.23405e-10
5.23512e-10
5.23413e-10
5.2349e-10
5.23418e-10
5.23476e-10
5.2343e-10
5.23465e-10
5.23436e-10
5.23456e-10
5.23439e-10
5.2345e-10
5.23445e-10
5.23445e-10
5.2345e-10
5.23439e-10
5.23457e-10
5.23436e-10
5.23465e-10
5.2343e-10
5.23476e-10
5.23418e-10
5.2349e-10
5.23414e-10
5.23512e-10
5.23405e-10
5.23555e-10
5.23395e-10
5.23624e-10
5.23385e-10
5.23758e-10
5.23426e-10
5.23906e-10
5.23342e-10
5.23147e-10
5.21024e-10
5.16278e-10
5.13626e-10
4.10611e-10
4.12919e-10
4.16742e-10
4.18494e-10
4.18669e-10
4.19131e-10
4.18742e-10
4.19009e-10
4.18708e-10
4.18898e-10
4.18712e-10
4.18841e-10
4.18719e-10
4.18805e-10
4.18725e-10
4.18786e-10
4.18728e-10
4.18775e-10
4.18738e-10
4.18766e-10
4.18743e-10
4.18759e-10
4.18745e-10
4.18754e-10
4.1875e-10
4.1875e-10
4.18754e-10
4.18745e-10
4.18759e-10
4.18743e-10
4.18766e-10
4.18738e-10
4.18775e-10
4.18728e-10
4.18786e-10
4.18725e-10
4.18805e-10
4.18719e-10
4.1884e-10
4.18712e-10
4.18898e-10
4.18707e-10
4.19008e-10
4.18742e-10
4.1913e-10
4.18669e-10
4.18493e-10
4.16742e-10
4.12918e-10
4.10612e-10
3.30705e-10
3.32704e-10
3.3579e-10
3.37237e-10
3.37396e-10
3.37774e-10
3.3746e-10
3.37673e-10
3.3743e-10
3.37581e-10
3.3743e-10
3.37533e-10
3.37435e-10
3.37503e-10
3.37439e-10
3.37488e-10
3.37441e-10
3.37479e-10
3.37449e-10
3.37471e-10
3.37453e-10
3.37466e-10
3.37454e-10
3.37461e-10
3.37458e-10
3.37458e-10
3.37461e-10
3.37454e-10
3.37466e-10
3.37453e-10
3.37471e-10
3.37449e-10
3.37479e-10
3.37441e-10
3.37488e-10
3.37439e-10
3.37503e-10
3.37435e-10
3.37533e-10
3.37431e-10
3.37581e-10
3.37429e-10
3.37673e-10
3.3746e-10
3.37773e-10
3.37396e-10
3.37237e-10
3.3579e-10
3.32704e-10
3.30705e-10
2.68598e-10
2.70325e-10
2.72823e-10
2.7402e-10
2.74163e-10
2.74474e-10
2.7422e-10
2.74391e-10
2.74194e-10
2.74313e-10
2.74192e-10
2.74274e-10
2.74194e-10
2.74249e-10
2.74197e-10
2.74236e-10
2.74198e-10
2.74228e-10
2.74204e-10
2.74222e-10
2.74207e-10
2.74217e-10
2.74208e-10
2.74214e-10
2.74211e-10
2.74211e-10
2.74214e-10
2.74208e-10
2.74217e-10
2.74207e-10
2.74222e-10
2.74204e-10
2.74228e-10
2.74198e-10
2.74236e-10
2.74197e-10
2.74249e-10
2.74194e-10
2.74273e-10
2.74193e-10
2.74313e-10
2.74194e-10
2.7439e-10
2.7422e-10
2.74473e-10
2.74163e-10
2.7402e-10
2.72823e-10
2.70325e-10
2.68598e-10
2.2023e-10
2.21719e-10
2.23747e-10
2.24741e-10
2.2487e-10
2.25125e-10
2.2492e-10
2.25057e-10
2.24897e-10
2.24992e-10
2.24894e-10
2.24958e-10
2.24894e-10
2.24937e-10
2.24895e-10
2.24926e-10
2.24896e-10
2.2492e-10
2.249e-10
2.24915e-10
2.24903e-10
2.24911e-10
2.24904e-10
2.24908e-10
2.24906e-10
2.24906e-10
2.24908e-10
2.24904e-10
2.24911e-10
2.24903e-10
2.24915e-10
2.249e-10
2.2492e-10
2.24896e-10
2.24926e-10
2.24895e-10
2.24937e-10
2.24894e-10
2.24958e-10
2.24894e-10
2.24992e-10
2.24897e-10
2.25057e-10
2.24921e-10
2.25125e-10
2.2487e-10
2.24741e-10
2.23747e-10
2.21719e-10
2.2023e-10
1.82487e-10
1.83769e-10
1.85423e-10
1.8625e-10
1.86366e-10
1.86577e-10
1.86411e-10
1.8652e-10
1.8639e-10
1.86465e-10
1.86385e-10
1.86436e-10
1.86384e-10
1.86418e-10
1.86384e-10
1.86409e-10
1.86384e-10
1.86404e-10
1.86388e-10
1.86399e-10
1.86389e-10
1.86396e-10
1.8639e-10
1.86394e-10
1.86392e-10
1.86392e-10
1.86394e-10
1.8639e-10
1.86396e-10
1.86389e-10
1.86399e-10
1.86388e-10
1.86404e-10
1.86384e-10
1.86409e-10
1.86384e-10
1.86418e-10
1.86384e-10
1.86436e-10
1.86385e-10
1.86465e-10
1.8639e-10
1.8652e-10
1.86411e-10
1.86576e-10
1.86366e-10
1.8625e-10
1.85422e-10
1.83769e-10
1.82487e-10
1.52972e-10
1.54074e-10
1.5543e-10
1.56122e-10
1.56226e-10
1.56401e-10
1.56267e-10
1.56353e-10
1.56248e-10
1.56307e-10
1.56242e-10
1.56282e-10
1.56239e-10
1.56266e-10
1.56238e-10
1.56258e-10
1.56238e-10
1.56254e-10
1.56241e-10
1.5625e-10
1.56242e-10
1.56248e-10
1.56243e-10
1.56246e-10
1.56244e-10
1.56244e-10
1.56246e-10
1.56243e-10
1.56248e-10
1.56242e-10
1.5625e-10
1.56241e-10
1.56254e-10
1.56238e-10
1.56258e-10
1.56239e-10
1.56266e-10
1.56239e-10
1.56282e-10
1.56242e-10
1.56307e-10
1.56248e-10
1.56353e-10
1.56267e-10
1.564e-10
1.56226e-10
1.56122e-10
1.5543e-10
1.54074e-10
1.52972e-10
1.29841e-10
1.30787e-10
1.31906e-10
1.32486e-10
1.3258e-10
1.32726e-10
1.32617e-10
1.32686e-10
1.326e-10
1.32646e-10
1.32592e-10
1.32624e-10
1.32589e-10
1.32611e-10
1.32588e-10
1.32603e-10
1.32587e-10
1.326e-10
1.32589e-10
1.32597e-10
1.3259e-10
1.32594e-10
1.3259e-10
1.32593e-10
1.32592e-10
1.32592e-10
1.32593e-10
1.3259e-10
1.32594e-10
1.3259e-10
1.32597e-10
1.32589e-10
1.326e-10
1.32587e-10
1.32604e-10
1.32588e-10
1.32611e-10
1.32589e-10
1.32624e-10
1.32593e-10
1.32646e-10
1.326e-10
1.32686e-10
1.32617e-10
1.32725e-10
1.3258e-10
1.32486e-10
1.31906e-10
1.30787e-10
1.29841e-10
1.11665e-10
1.12479e-10
1.13409e-10
1.13897e-10
1.13983e-10
1.14104e-10
1.14016e-10
1.14071e-10
1.14e-10
1.14036e-10
1.13992e-10
1.14016e-10
1.13988e-10
1.14004e-10
1.13986e-10
1.13998e-10
1.13985e-10
1.13995e-10
1.13986e-10
1.13992e-10
1.13987e-10
1.1399e-10
1.13987e-10
1.13989e-10
1.13988e-10
1.13988e-10
1.13989e-10
1.13987e-10
1.1399e-10
1.13987e-10
1.13992e-10
1.13986e-10
1.13995e-10
1.13985e-10
1.13998e-10
1.13986e-10
1.14004e-10
1.13988e-10
1.14016e-10
1.13992e-10
1.14036e-10
1.14e-10
1.14071e-10
1.14016e-10
1.14104e-10
1.13983e-10
1.13897e-10
1.13409e-10
1.12479e-10
1.11665e-10
)
;

boundaryField
{
    fuel
    {
        type            fixedValue;
        value           uniform 0;
    }
    wall
    {
        type            zeroGradient;
    }
    outlet
    {
        type            zeroGradient;
    }
    frontAndBack
    {
        type            empty;
    }
    procBoundary1to0
    {
        type            processor;
        value           nonuniform List<scalar> 
50
(
9.73417e-11
9.80455e-11
9.88223e-11
9.92362e-11
9.93143e-11
9.94159e-11
9.93445e-11
9.93872e-11
9.93288e-11
9.93562e-11
9.93197e-11
9.93387e-11
9.93149e-11
9.93281e-11
9.93125e-11
9.93224e-11
9.93114e-11
9.93194e-11
9.93123e-11
9.93172e-11
9.93126e-11
9.93155e-11
9.93128e-11
9.93143e-11
9.93136e-11
9.93135e-11
9.93143e-11
9.93128e-11
9.93155e-11
9.93127e-11
9.93171e-11
9.93122e-11
9.93193e-11
9.93114e-11
9.93225e-11
9.93126e-11
9.93281e-11
9.9315e-11
9.93386e-11
9.93198e-11
9.93562e-11
9.93287e-11
9.93871e-11
9.93445e-11
9.94156e-11
9.93142e-11
9.92361e-11
9.88223e-11
9.80454e-11
9.73416e-11
)
;
    }
}


// ************************************************************************* //
