/*--------------------------------*- C++ -*----------------------------------*\
| =========                 |                                                 |
| \\      /  F ield         | OpenFOAM: The Open Source CFD Toolbox           |
|  \\    /   O peration     | Version:  dev                                   |
|   \\  /    A nd           | Web:      www.OpenFOAM.org                      |
|    \\/     M anipulation  |                                                 |
\*---------------------------------------------------------------------------*/
FoamFile
{
    version     2.0;
    format      ascii;
    class       volScalarField;
    location    "0.065";
    object      HO2;
}
// * * * * * * * * * * * * * * * * * * * * * * * * * * * * * * * * * * * * * //

dimensions      [0 0 0 0 0 0 0];

internalField   nonuniform List<scalar> 
250
(
3.36536e-10
2.20334e-11
1.87913e-12
8.31527e-13
9.87725e-13
7.85242e-13
8.9528e-13
7.93975e-13
8.53146e-13
8.12059e-13
2.64304e-10
1.784e-11
1.33737e-12
5.07843e-13
5.92367e-13
4.72367e-13
5.37599e-13
4.77518e-13
5.12793e-13
4.88316e-13
4.89353e-13
5.08484e-13
4.85461e-13
5.20031e-13
4.99479e-13
5.34891e-13
5.68134e-13
7.53528e-13
3.52386e-12
2.40283e-11
2.04962e-10
1.42183e-11
9.74673e-13
3.19764e-13
3.60484e-13
2.9251e-13
3.29336e-13
2.95389e-13
3.15372e-13
3.0152e-13
3.01987e-13
3.13017e-13
2.99801e-13
3.19549e-13
3.07697e-13
3.28149e-13
3.51648e-13
5.58114e-13
3.48985e-12
2.46653e-11
1.57647e-10
1.12072e-11
7.36202e-13
2.16563e-13
2.3299e-13
1.95036e-13
2.15409e-13
1.96572e-13
2.07656e-13
1.99976e-13
2.00106e-13
2.06465e-13
1.98904e-13
2.10186e-13
2.03345e-13
2.15384e-13
2.33361e-13
4.53639e-13
3.50311e-12
2.49891e-11
1.21088e-10
8.8036e-12
5.7942e-13
1.62066e-13
1.66381e-13
1.44414e-13
1.55992e-13
1.45208e-13
1.51532e-13
1.4714e-13
1.47086e-13
1.50977e-13
1.46411e-13
1.53237e-13
1.49057e-13
1.56738e-13
1.71888e-13
4.00132e-13
3.52519e-12
2.50673e-11
9.37092e-11
6.89178e-12
4.7493e-13
1.3391e-13
1.32782e-13
1.18906e-13
1.26013e-13
1.19302e-13
1.23219e-13
1.20476e-13
1.20316e-13
1.22998e-13
1.19911e-13
1.24535e-13
1.21675e-13
1.27249e-13
1.41011e-13
3.73259e-13
3.54519e-12
2.50102e-11
7.28661e-11
5.48142e-12
4.05022e-13
1.20322e-13
1.16901e-13
1.07169e-13
1.1196e-13
1.07332e-13
1.10022e-13
1.08102e-13
1.07868e-13
1.09988e-13
1.07605e-13
1.11169e-13
1.08939e-13
1.13541e-13
1.26594e-13
3.60989e-13
3.57335e-12
2.50998e-11
5.83013e-11
4.43203e-12
3.60785e-13
1.17138e-13
1.12491e-13
1.05257e-13
1.08583e-13
1.05228e-13
1.07166e-13
1.05717e-13
1.05407e-13
1.07267e-13
1.05243e-13
1.08254e-13
1.06344e-13
1.10511e-13
1.23168e-13
3.60372e-13
3.63541e-12
2.55744e-11
4.80636e-11
3.69368e-12
3.436e-13
1.28547e-13
1.21902e-13
1.17315e-13
1.18888e-13
1.16968e-13
1.18024e-13
1.17054e-13
1.16631e-13
1.18292e-13
1.16606e-13
1.19121e-13
1.17503e-13
1.21437e-13
1.33905e-13
3.7965e-13
3.79474e-12
2.69696e-11
4.166e-11
3.28725e-12
3.747e-13
1.74584e-13
1.62701e-13
1.6275e-13
1.60955e-13
1.61646e-13
1.6108e-13
1.60835e-13
1.60185e-13
1.61634e-13
1.60485e-13
1.62257e-13
1.61123e-13
1.65006e-13
1.77687e-13
4.49144e-13
4.21341e-12
3.06632e-11
3.84608e-11
3.19626e-12
4.91991e-13
2.87157e-13
2.67564e-13
2.7229e-13
2.66558e-13
2.69821e-13
2.67854e-13
2.67624e-13
2.66536e-13
2.68713e-13
2.67383e-13
2.69301e-13
2.68173e-13
2.73501e-13
2.87175e-13
6.07279e-13
5.00762e-12
3.78952e-11
3.48743e-11
3.14529e-12
6.77121e-13
4.54628e-13
4.31965e-13
4.34735e-13
4.28922e-13
4.30804e-13
4.30351e-13
4.2758e-13
4.25901e-13
4.31151e-13
4.27254e-13
4.32278e-13
4.29342e-13
4.39143e-13
4.53912e-13
8.13433e-13
5.67322e-12
4.4963e-11
3.14126e-11
3.1046e-12
8.47777e-13
6.05728e-13
5.85028e-13
5.81131e-13
5.78432e-13
5.76174e-13
5.79112e-13
5.726e-13
5.70374e-13
5.79611e-13
5.72002e-13
5.81545e-13
5.75835e-13
5.91057e-13
6.06369e-13
9.83648e-13
5.94378e-12
4.90364e-11
)
;

boundaryField
{
    fuel
    {
        type            fixedValue;
        value           nonuniform 0();
    }
    wall
    {
        type            zeroGradient;
    }
    outlet
    {
        type            zeroGradient;
    }
    frontAndBack
    {
        type            empty;
    }
    procBoundary1to0
    {
        type            processor;
        value           nonuniform List<scalar> 
21
(
4.08499e-10
2.63134e-11
2.64969e-12
1.35525e-12
1.61514e-12
1.2947e-12
1.46899e-12
1.30817e-12
1.40169e-12
1.33659e-12
8.14161e-13
8.14161e-13
8.45818e-13
8.07623e-13
8.65456e-13
8.31667e-13
8.90622e-13
9.39999e-13
1.09024e-12
3.57466e-12
2.21483e-11
)
;
    }
}


// ************************************************************************* //
