/*--------------------------------*- C++ -*----------------------------------*\
| =========                 |                                                 |
| \\      /  F ield         | OpenFOAM: The Open Source CFD Toolbox           |
|  \\    /   O peration     | Version:  dev                                   |
|   \\  /    A nd           | Web:      www.OpenFOAM.org                      |
|    \\/     M anipulation  |                                                 |
\*---------------------------------------------------------------------------*/
FoamFile
{
    version     2.0;
    format      ascii;
    class       volScalarField;
    location    "0.065";
    object      O;
}
// * * * * * * * * * * * * * * * * * * * * * * * * * * * * * * * * * * * * * //

dimensions      [0 0 0 0 0 0 0];

internalField   nonuniform List<scalar> 
25
(
9.03285e-06
8.25374e-06
7.52646e-06
6.84906e-06
6.21687e-06
5.6373e-06
5.10447e-06
4.61554e-06
4.1685e-06
3.76151e-06
3.39214e-06
3.04826e-06
2.73279e-06
2.44294e-06
2.17837e-06
1.93878e-06
1.72286e-06
1.52862e-06
1.3539e-06
1.19662e-06
1.05479e-06
9.26585e-07
8.12742e-07
7.141e-07
6.27247e-07
)
;

boundaryField
{
    wall
    {
        type            zeroGradient;
    }
    fuel
    {
        type            fixedValue;
        value           nonuniform 0();
    }
    outlet
    {
        type            inletOutlet;
        inletValue      nonuniform 0();
        value           nonuniform 0();
    }
    procBoundary1to0
    {
        type            processor;
        value           uniform 9.8655e-06;
    }
    procBoundary1to2
    {
        type            processor;
        value           uniform 5.50112e-07;
    }
}


// ************************************************************************* //
