/*--------------------------------*- C++ -*----------------------------------*\
| =========                 |                                                 |
| \\      /  F ield         | OpenFOAM: The Open Source CFD Toolbox           |
|  \\    /   O peration     | Version:  dev                                   |
|   \\  /    A nd           | Web:      www.OpenFOAM.org                      |
|    \\/     M anipulation  |                                                 |
\*---------------------------------------------------------------------------*/
FoamFile
{
    version     2.0;
    format      ascii;
    class       volScalarField;
    location    "0.065";
    object      OH;
}
// * * * * * * * * * * * * * * * * * * * * * * * * * * * * * * * * * * * * * //

dimensions      [0 0 0 0 0 0 0];

internalField   nonuniform List<scalar> 
2000
(
2.85849e-05
2.86253e-05
2.86845e-05
2.8711e-05
2.8714e-05
2.87199e-05
2.87174e-05
2.87201e-05
2.87178e-05
2.87196e-05
2.8718e-05
2.87193e-05
2.87182e-05
2.8719e-05
2.87183e-05
2.87188e-05
2.87183e-05
2.87188e-05
2.87185e-05
2.87187e-05
2.87185e-05
2.87186e-05
2.87185e-05
2.87186e-05
2.87186e-05
2.87186e-05
2.87186e-05
2.87185e-05
2.87186e-05
2.87185e-05
2.87187e-05
2.87185e-05
2.87188e-05
2.87183e-05
2.87188e-05
2.87183e-05
2.8719e-05
2.87182e-05
2.87193e-05
2.87181e-05
2.87196e-05
2.87178e-05
2.87201e-05
2.87174e-05
2.87199e-05
2.8714e-05
2.8711e-05
2.86845e-05
2.86253e-05
2.85849e-05
0.000114834
0.000115016
0.000115205
0.00011529
0.000115295
0.000115316
0.000115306
0.000115316
0.000115308
0.000115315
0.000115309
0.000115313
0.000115309
0.000115312
0.00011531
0.000115312
0.00011531
0.000115311
0.00011531
0.000115311
0.00011531
0.000115311
0.00011531
0.000115311
0.000115311
0.000115311
0.000115311
0.00011531
0.000115311
0.00011531
0.000115311
0.00011531
0.000115311
0.00011531
0.000115312
0.00011531
0.000115312
0.000115309
0.000115313
0.000115309
0.000115315
0.000115308
0.000115316
0.000115306
0.000115316
0.000115295
0.00011529
0.000115205
0.000115016
0.000114834
0.00016883
0.000169144
0.000169458
0.000169601
0.000169604
0.000169641
0.000169622
0.000169641
0.000169625
0.000169638
0.000169626
0.000169635
0.000169628
0.000169633
0.000169629
0.000169632
0.000169629
0.000169632
0.00016963
0.000169631
0.00016963
0.000169631
0.00016963
0.000169631
0.00016963
0.00016963
0.000169631
0.00016963
0.000169631
0.00016963
0.000169631
0.00016963
0.000169632
0.000169629
0.000169633
0.000169629
0.000169633
0.000169628
0.000169635
0.000169627
0.000169638
0.000169625
0.000169641
0.000169622
0.000169641
0.000169604
0.0001696
0.000169458
0.000169144
0.00016883
0.000206867
0.00020731
0.000207754
0.000207952
0.000207952
0.000208007
0.000207977
0.000208006
0.000207981
0.000208001
0.000207984
0.000207997
0.000207986
0.000207994
0.000207987
0.000207993
0.000207987
0.000207992
0.000207989
0.000207991
0.000207989
0.000207991
0.000207989
0.00020799
0.00020799
0.00020799
0.00020799
0.000207989
0.000207991
0.000207989
0.000207991
0.000207989
0.000207992
0.000207987
0.000207993
0.000207987
0.000207994
0.000207986
0.000207997
0.000207984
0.000208001
0.000207981
0.000208006
0.000207977
0.000208007
0.000207952
0.000207952
0.000207754
0.00020731
0.000206867
0.000220972
0.000221473
0.000221984
0.000222206
0.000222201
0.000222265
0.000222228
0.000222263
0.000222233
0.000222257
0.000222236
0.000222252
0.000222239
0.000222249
0.00022224
0.000222247
0.000222241
0.000222246
0.000222242
0.000222245
0.000222243
0.000222244
0.000222243
0.000222244
0.000222243
0.000222243
0.000222244
0.000222243
0.000222244
0.000222243
0.000222245
0.000222242
0.000222246
0.000222241
0.000222247
0.00022224
0.000222249
0.000222239
0.000222252
0.000222236
0.000222257
0.000222233
0.000222263
0.000222228
0.000222265
0.000222201
0.000222206
0.000221984
0.000221473
0.000220972
0.000213561
0.000214066
0.000214604
0.000214828
0.00021482
0.000214886
0.000214846
0.000214883
0.000214852
0.000214877
0.000214855
0.000214872
0.000214858
0.000214869
0.000214859
0.000214867
0.00021486
0.000214866
0.000214861
0.000214865
0.000214862
0.000214864
0.000214862
0.000214863
0.000214863
0.000214863
0.000214863
0.000214862
0.000214864
0.000214862
0.000214865
0.000214861
0.000214866
0.00021486
0.000214867
0.000214859
0.000214869
0.000214858
0.000214872
0.000214855
0.000214877
0.000214852
0.000214883
0.000214846
0.000214886
0.00021482
0.000214828
0.000214604
0.000214066
0.000213561
0.000194419
0.000194903
0.000195445
0.000195663
0.000195655
0.00019572
0.000195681
0.000195717
0.000195686
0.000195711
0.00019569
0.000195706
0.000195692
0.000195703
0.000195694
0.000195701
0.000195694
0.0001957
0.000195696
0.000195699
0.000195696
0.000195698
0.000195696
0.000195697
0.000195697
0.000195697
0.000195697
0.000195696
0.000195698
0.000195696
0.000195699
0.000195696
0.0001957
0.000195694
0.000195701
0.000195693
0.000195703
0.000195692
0.000195706
0.00019569
0.000195711
0.000195686
0.000195717
0.000195681
0.00019572
0.000195656
0.000195663
0.000195445
0.000194903
0.000194419
0.000171432
0.000171885
0.000172417
0.000172626
0.000172621
0.000172682
0.000172645
0.000172679
0.00017265
0.000172673
0.000172653
0.000172669
0.000172655
0.000172665
0.000172657
0.000172664
0.000172657
0.000172663
0.000172659
0.000172662
0.000172659
0.000172661
0.000172659
0.00017266
0.00017266
0.00017266
0.00017266
0.000172659
0.000172661
0.000172659
0.000172662
0.000172659
0.000172663
0.000172657
0.000172664
0.000172657
0.000172665
0.000172655
0.000172669
0.000172653
0.000172673
0.00017265
0.000172679
0.000172645
0.000172682
0.000172621
0.000172625
0.000172417
0.000171885
0.000171432
0.000149019
0.000149437
0.000149949
0.000150147
0.000150146
0.000150203
0.00015017
0.000150201
0.000150174
0.000150195
0.000150177
0.000150191
0.000150179
0.000150188
0.00015018
0.000150186
0.00015018
0.000150185
0.000150182
0.000150184
0.000150182
0.000150184
0.000150182
0.000150183
0.000150183
0.000150183
0.000150183
0.000150182
0.000150184
0.000150182
0.000150184
0.000150182
0.000150185
0.00015018
0.000150186
0.00015018
0.000150188
0.000150179
0.000150191
0.000150177
0.000150195
0.000150174
0.000150201
0.00015017
0.000150203
0.000150147
0.000150147
0.000149949
0.000149437
0.000149019
0.000129154
0.000129538
0.000130026
0.000130213
0.000130217
0.00013027
0.000130239
0.000130268
0.000130243
0.000130262
0.000130245
0.000130258
0.000130247
0.000130256
0.000130248
0.000130254
0.000130249
0.000130253
0.00013025
0.000130252
0.00013025
0.000130252
0.00013025
0.000130251
0.000130251
0.000130251
0.000130251
0.00013025
0.000130252
0.00013025
0.000130252
0.00013025
0.000130253
0.000130249
0.000130254
0.000130248
0.000130256
0.000130247
0.000130258
0.000130245
0.000130262
0.000130243
0.000130268
0.000130239
0.000130269
0.000130217
0.000130213
0.000130026
0.000129538
0.000129154
0.000112364
0.000112718
0.000113179
0.000113357
0.000113364
0.000113413
0.000113385
0.000113411
0.000113388
0.000113406
0.000113391
0.000113403
0.000113392
0.0001134
0.000113393
0.000113398
0.000113393
0.000113397
0.000113394
0.000113397
0.000113395
0.000113396
0.000113395
0.000113396
0.000113395
0.000113395
0.000113396
0.000113395
0.000113396
0.000113395
0.000113397
0.000113394
0.000113397
0.000113393
0.000113398
0.000113393
0.0001134
0.000113392
0.000113402
0.000113391
0.000113406
0.000113388
0.000113411
0.000113385
0.000113412
0.000113364
0.000113357
0.000113179
0.000112719
0.000112364
9.79644e-05
9.82845e-05
9.87032e-05
9.88672e-05
9.88779e-05
9.89213e-05
9.88977e-05
9.89204e-05
9.89004e-05
9.89158e-05
9.89022e-05
9.89127e-05
9.89034e-05
9.89102e-05
9.89043e-05
9.89089e-05
9.89045e-05
9.89081e-05
9.89054e-05
9.89075e-05
9.89058e-05
9.89069e-05
9.89059e-05
9.89065e-05
9.89063e-05
9.89063e-05
9.89065e-05
9.89059e-05
9.89069e-05
9.89058e-05
9.89075e-05
9.89054e-05
9.89081e-05
9.89045e-05
9.8909e-05
9.89042e-05
9.89102e-05
9.89035e-05
9.89126e-05
9.89022e-05
9.89159e-05
9.89003e-05
9.89204e-05
9.88977e-05
9.89212e-05
9.8878e-05
9.88672e-05
9.87032e-05
9.82845e-05
9.79644e-05
8.66688e-05
8.69678e-05
8.73604e-05
8.75159e-05
8.75289e-05
8.75691e-05
8.75478e-05
8.75685e-05
8.75502e-05
8.75642e-05
8.75517e-05
8.75612e-05
8.75528e-05
8.75589e-05
8.75535e-05
8.75577e-05
8.75537e-05
8.7557e-05
8.75546e-05
8.75564e-05
8.75549e-05
8.75559e-05
8.7555e-05
8.75555e-05
8.75553e-05
8.75553e-05
8.75555e-05
8.7555e-05
8.75559e-05
8.75549e-05
8.75564e-05
8.75545e-05
8.7557e-05
8.75537e-05
8.75578e-05
8.75535e-05
8.75589e-05
8.75528e-05
8.75612e-05
8.75518e-05
8.75642e-05
8.75501e-05
8.75685e-05
8.75478e-05
8.7569e-05
8.75289e-05
8.75158e-05
8.73604e-05
8.69678e-05
8.66688e-05
7.74717e-05
7.77119e-05
7.80446e-05
7.81816e-05
7.82019e-05
7.82357e-05
7.82208e-05
7.82368e-05
7.82227e-05
7.82332e-05
7.82236e-05
7.82307e-05
7.82242e-05
7.82288e-05
7.82246e-05
7.82277e-05
7.82247e-05
7.82272e-05
7.82253e-05
7.82267e-05
7.82255e-05
7.82263e-05
7.82255e-05
7.82259e-05
7.82258e-05
7.82258e-05
7.82259e-05
7.82255e-05
7.82263e-05
7.82255e-05
7.82267e-05
7.82252e-05
7.82271e-05
7.82247e-05
7.82278e-05
7.82246e-05
7.82288e-05
7.82242e-05
7.82307e-05
7.82236e-05
7.82333e-05
7.82227e-05
7.82368e-05
7.82208e-05
7.82356e-05
7.82019e-05
7.81816e-05
7.80446e-05
7.77119e-05
7.74717e-05
6.9794e-05
7.00123e-05
7.03115e-05
7.04377e-05
7.04594e-05
7.04898e-05
7.04774e-05
7.04912e-05
7.0479e-05
7.0488e-05
7.04796e-05
7.04857e-05
7.04801e-05
7.0484e-05
7.04803e-05
7.0483e-05
7.04804e-05
7.04825e-05
7.04809e-05
7.04821e-05
7.04811e-05
7.04817e-05
7.04811e-05
7.04814e-05
7.04813e-05
7.04813e-05
7.04814e-05
7.04811e-05
7.04817e-05
7.04811e-05
7.04821e-05
7.04809e-05
7.04825e-05
7.04804e-05
7.04831e-05
7.04803e-05
7.0484e-05
7.04801e-05
7.04857e-05
7.04797e-05
7.0488e-05
7.0479e-05
7.04912e-05
7.04774e-05
7.04897e-05
7.04594e-05
7.04377e-05
7.03115e-05
7.00123e-05
6.9794e-05
6.38063e-05
6.40095e-05
6.42846e-05
6.44032e-05
6.44259e-05
6.44539e-05
6.44434e-05
6.44556e-05
6.44447e-05
6.44526e-05
6.44452e-05
6.44505e-05
6.44455e-05
6.44489e-05
6.44456e-05
6.4448e-05
6.44456e-05
6.44475e-05
6.44461e-05
6.44471e-05
6.44462e-05
6.44468e-05
6.44462e-05
6.44466e-05
6.44464e-05
6.44464e-05
6.44466e-05
6.44462e-05
6.44468e-05
6.44462e-05
6.44471e-05
6.44461e-05
6.44475e-05
6.44456e-05
6.4448e-05
6.44456e-05
6.44489e-05
6.44455e-05
6.44505e-05
6.44452e-05
6.44527e-05
6.44447e-05
6.44556e-05
6.44434e-05
6.44539e-05
6.44259e-05
6.44031e-05
6.42846e-05
6.40095e-05
6.38063e-05
5.8778e-05
5.8975e-05
5.92362e-05
5.93534e-05
5.93791e-05
5.9406e-05
5.9397e-05
5.9408e-05
5.93981e-05
5.94051e-05
5.93982e-05
5.94029e-05
5.93983e-05
5.94014e-05
5.93984e-05
5.94005e-05
5.93984e-05
5.94001e-05
5.93987e-05
5.93997e-05
5.93989e-05
5.93994e-05
5.93988e-05
5.93991e-05
5.9399e-05
5.9399e-05
5.93991e-05
5.93989e-05
5.93994e-05
5.93989e-05
5.93997e-05
5.93987e-05
5.94e-05
5.93984e-05
5.94005e-05
5.93984e-05
5.94014e-05
5.93984e-05
5.94029e-05
5.93983e-05
5.94051e-05
5.93981e-05
5.9408e-05
5.9397e-05
5.9406e-05
5.93791e-05
5.93533e-05
5.92362e-05
5.89751e-05
5.87781e-05
5.4816e-05
5.5002e-05
5.52428e-05
5.53534e-05
5.53799e-05
5.5405e-05
5.53975e-05
5.54072e-05
5.53983e-05
5.54045e-05
5.53983e-05
5.54024e-05
5.53983e-05
5.54009e-05
5.53983e-05
5.54002e-05
5.53982e-05
5.53997e-05
5.53986e-05
5.53994e-05
5.53986e-05
5.53991e-05
5.53986e-05
5.53989e-05
5.53988e-05
5.53988e-05
5.53989e-05
5.53986e-05
5.53991e-05
5.53986e-05
5.53994e-05
5.53985e-05
5.53997e-05
5.53982e-05
5.54002e-05
5.53983e-05
5.54009e-05
5.53983e-05
5.54024e-05
5.53984e-05
5.54045e-05
5.53983e-05
5.54072e-05
5.53975e-05
5.5405e-05
5.538e-05
5.53534e-05
5.52428e-05
5.5002e-05
5.4816e-05
5.14528e-05
5.16368e-05
5.18682e-05
5.19772e-05
5.20038e-05
5.20282e-05
5.2021e-05
5.20304e-05
5.20218e-05
5.20276e-05
5.20217e-05
5.20256e-05
5.20216e-05
5.20241e-05
5.20216e-05
5.20234e-05
5.20215e-05
5.2023e-05
5.20218e-05
5.20226e-05
5.20219e-05
5.20224e-05
5.20219e-05
5.20221e-05
5.2022e-05
5.2022e-05
5.20221e-05
5.20219e-05
5.20224e-05
5.20219e-05
5.20226e-05
5.20218e-05
5.20229e-05
5.20215e-05
5.20234e-05
5.20216e-05
5.20241e-05
5.20216e-05
5.20256e-05
5.20217e-05
5.20276e-05
5.20217e-05
5.20303e-05
5.2021e-05
5.20282e-05
5.20038e-05
5.19772e-05
5.18681e-05
5.16368e-05
5.14528e-05
4.86797e-05
4.88554e-05
4.90671e-05
4.91697e-05
4.91965e-05
4.92192e-05
4.92133e-05
4.92215e-05
4.92139e-05
4.92189e-05
4.92137e-05
4.9217e-05
4.92135e-05
4.92157e-05
4.92134e-05
4.9215e-05
4.92133e-05
4.92146e-05
4.92136e-05
4.92143e-05
4.92136e-05
4.9214e-05
4.92136e-05
4.92138e-05
4.92137e-05
4.92137e-05
4.92138e-05
4.92136e-05
4.9214e-05
4.92136e-05
4.92143e-05
4.92136e-05
4.92146e-05
4.92133e-05
4.9215e-05
4.92134e-05
4.92157e-05
4.92135e-05
4.9217e-05
4.92137e-05
4.92189e-05
4.92139e-05
4.92215e-05
4.92133e-05
4.92192e-05
4.91965e-05
4.91696e-05
4.90671e-05
4.88554e-05
4.86797e-05
4.64675e-05
4.66391e-05
4.68363e-05
4.69342e-05
4.69613e-05
4.69827e-05
4.69778e-05
4.69852e-05
4.69783e-05
4.69827e-05
4.69779e-05
4.69809e-05
4.69777e-05
4.69796e-05
4.69775e-05
4.69789e-05
4.69774e-05
4.69785e-05
4.69776e-05
4.69782e-05
4.69776e-05
4.6978e-05
4.69776e-05
4.69778e-05
4.69777e-05
4.69777e-05
4.69778e-05
4.69776e-05
4.6978e-05
4.69776e-05
4.69782e-05
4.69776e-05
4.69785e-05
4.69774e-05
4.69789e-05
4.69775e-05
4.69796e-05
4.69777e-05
4.69808e-05
4.6978e-05
4.69827e-05
4.69783e-05
4.69852e-05
4.69778e-05
4.69827e-05
4.69613e-05
4.69341e-05
4.68363e-05
4.66391e-05
4.64675e-05
4.46286e-05
4.47982e-05
4.49829e-05
4.50765e-05
4.51037e-05
4.51241e-05
4.51199e-05
4.51266e-05
4.51203e-05
4.51242e-05
4.51199e-05
4.51224e-05
4.51195e-05
4.51212e-05
4.51193e-05
4.51205e-05
4.51191e-05
4.51202e-05
4.51193e-05
4.51199e-05
4.51194e-05
4.51197e-05
4.51193e-05
4.51195e-05
4.51194e-05
4.51194e-05
4.51195e-05
4.51193e-05
4.51197e-05
4.51194e-05
4.51199e-05
4.51193e-05
4.51201e-05
4.51192e-05
4.51205e-05
4.51193e-05
4.51212e-05
4.51195e-05
4.51224e-05
4.51199e-05
4.51242e-05
4.51203e-05
4.51266e-05
4.51199e-05
4.51241e-05
4.51037e-05
4.50764e-05
4.49829e-05
4.47982e-05
4.46286e-05
4.30925e-05
4.3217e-05
4.33849e-05
4.34729e-05
4.35013e-05
4.35205e-05
4.35177e-05
4.35233e-05
4.35179e-05
4.35209e-05
4.35171e-05
4.35191e-05
4.35165e-05
4.35179e-05
4.35162e-05
4.35172e-05
4.3516e-05
4.35168e-05
4.35161e-05
4.35166e-05
4.35161e-05
4.35164e-05
4.35161e-05
4.35162e-05
4.35161e-05
4.35161e-05
4.35162e-05
4.35161e-05
4.35164e-05
4.35161e-05
4.35166e-05
4.35161e-05
4.35168e-05
4.3516e-05
4.35172e-05
4.35162e-05
4.35179e-05
4.35166e-05
4.35191e-05
4.35171e-05
4.3521e-05
4.35179e-05
4.35233e-05
4.35177e-05
4.35205e-05
4.35013e-05
4.34729e-05
4.33849e-05
4.3217e-05
4.30925e-05
4.18032e-05
4.19252e-05
4.20831e-05
4.21676e-05
4.21959e-05
4.22143e-05
4.22121e-05
4.22172e-05
4.22122e-05
4.22148e-05
4.22113e-05
4.2213e-05
4.22107e-05
4.22118e-05
4.22103e-05
4.22111e-05
4.221e-05
4.22108e-05
4.22101e-05
4.22105e-05
4.22101e-05
4.22103e-05
4.22101e-05
4.22102e-05
4.22101e-05
4.22101e-05
4.22102e-05
4.22101e-05
4.22103e-05
4.22101e-05
4.22105e-05
4.22101e-05
4.22108e-05
4.221e-05
4.22111e-05
4.22103e-05
4.22118e-05
4.22107e-05
4.2213e-05
4.22113e-05
4.22149e-05
4.22122e-05
4.22172e-05
4.22121e-05
4.22143e-05
4.21959e-05
4.21676e-05
4.20831e-05
4.19252e-05
4.18032e-05
4.06731e-05
4.07935e-05
4.09443e-05
4.10267e-05
4.10553e-05
4.10733e-05
4.10715e-05
4.10762e-05
4.10715e-05
4.10738e-05
4.10704e-05
4.10719e-05
4.10697e-05
4.10707e-05
4.10692e-05
4.107e-05
4.1069e-05
4.10697e-05
4.1069e-05
4.10694e-05
4.1069e-05
4.10692e-05
4.1069e-05
4.10691e-05
4.1069e-05
4.1069e-05
4.10691e-05
4.1069e-05
4.10692e-05
4.1069e-05
4.10694e-05
4.1069e-05
4.10697e-05
4.1069e-05
4.107e-05
4.10692e-05
4.10707e-05
4.10697e-05
4.10719e-05
4.10704e-05
4.10738e-05
4.10714e-05
4.10762e-05
4.10715e-05
4.10733e-05
4.10553e-05
4.10267e-05
4.09443e-05
4.07935e-05
4.06731e-05
3.9711e-05
3.98283e-05
3.99703e-05
4.00492e-05
4.00776e-05
4.00949e-05
4.00935e-05
4.00977e-05
4.00934e-05
4.00953e-05
4.00922e-05
4.00935e-05
4.00914e-05
4.00923e-05
4.00909e-05
4.00916e-05
4.00906e-05
4.00912e-05
4.00907e-05
4.0091e-05
4.00906e-05
4.00908e-05
4.00906e-05
4.00907e-05
4.00906e-05
4.00906e-05
4.00907e-05
4.00906e-05
4.00908e-05
4.00906e-05
4.0091e-05
4.00907e-05
4.00912e-05
4.00907e-05
4.00916e-05
4.00909e-05
4.00923e-05
4.00914e-05
4.00935e-05
4.00922e-05
4.00953e-05
4.00934e-05
4.00977e-05
4.00935e-05
4.00948e-05
4.00776e-05
4.00491e-05
3.99703e-05
3.98283e-05
3.9711e-05
3.88852e-05
3.89999e-05
3.9134e-05
3.92097e-05
3.92379e-05
3.92545e-05
3.92536e-05
3.92573e-05
3.92533e-05
3.92549e-05
3.92521e-05
3.92531e-05
3.92512e-05
3.92519e-05
3.92506e-05
3.92512e-05
3.92503e-05
3.92508e-05
3.92503e-05
3.92506e-05
3.92503e-05
3.92504e-05
3.92502e-05
3.92503e-05
3.92503e-05
3.92503e-05
3.92503e-05
3.92502e-05
3.92504e-05
3.92503e-05
3.92506e-05
3.92503e-05
3.92508e-05
3.92503e-05
3.92512e-05
3.92506e-05
3.92519e-05
3.92512e-05
3.92531e-05
3.92521e-05
3.9255e-05
3.92533e-05
3.92573e-05
3.92536e-05
3.92545e-05
3.92379e-05
3.92097e-05
3.9134e-05
3.89999e-05
3.88852e-05
3.81706e-05
3.82827e-05
3.84101e-05
3.84827e-05
3.85107e-05
3.85266e-05
3.85261e-05
3.85295e-05
3.85257e-05
3.8527e-05
3.85243e-05
3.85252e-05
3.85233e-05
3.85239e-05
3.85228e-05
3.85232e-05
3.85224e-05
3.85229e-05
3.85224e-05
3.85227e-05
3.85224e-05
3.85225e-05
3.85223e-05
3.85224e-05
3.85223e-05
3.85223e-05
3.85224e-05
3.85223e-05
3.85225e-05
3.85224e-05
3.85227e-05
3.85224e-05
3.85229e-05
3.85224e-05
3.85232e-05
3.85228e-05
3.85239e-05
3.85233e-05
3.85252e-05
3.85243e-05
3.85271e-05
3.85257e-05
3.85295e-05
3.85261e-05
3.85266e-05
3.85107e-05
3.84827e-05
3.84101e-05
3.82827e-05
3.81706e-05
3.75467e-05
3.76562e-05
3.77778e-05
3.78475e-05
3.78752e-05
3.78906e-05
3.78903e-05
3.78934e-05
3.78898e-05
3.78909e-05
3.78883e-05
3.7889e-05
3.78873e-05
3.78877e-05
3.78866e-05
3.7887e-05
3.78863e-05
3.78867e-05
3.78862e-05
3.78865e-05
3.78862e-05
3.78863e-05
3.78861e-05
3.78862e-05
3.78861e-05
3.78861e-05
3.78862e-05
3.78861e-05
3.78863e-05
3.78862e-05
3.78865e-05
3.78862e-05
3.78867e-05
3.78863e-05
3.7887e-05
3.78866e-05
3.78877e-05
3.78873e-05
3.7889e-05
3.78883e-05
3.78909e-05
3.78898e-05
3.78933e-05
3.78903e-05
3.78906e-05
3.78752e-05
3.78475e-05
3.77778e-05
3.76561e-05
3.75466e-05
3.69967e-05
3.71036e-05
3.72203e-05
3.72873e-05
3.73146e-05
3.73295e-05
3.73294e-05
3.73322e-05
3.73288e-05
3.73296e-05
3.73272e-05
3.73277e-05
3.7326e-05
3.73264e-05
3.73253e-05
3.73257e-05
3.7325e-05
3.73253e-05
3.73249e-05
3.73251e-05
3.73248e-05
3.73249e-05
3.73248e-05
3.73248e-05
3.73248e-05
3.73248e-05
3.73248e-05
3.73248e-05
3.73249e-05
3.73248e-05
3.73251e-05
3.73249e-05
3.73253e-05
3.7325e-05
3.73257e-05
3.73253e-05
3.73264e-05
3.7326e-05
3.73277e-05
3.73272e-05
3.73296e-05
3.73288e-05
3.73322e-05
3.73294e-05
3.73295e-05
3.73145e-05
3.72873e-05
3.72203e-05
3.71036e-05
3.69967e-05
3.65071e-05
3.66115e-05
3.67238e-05
3.67882e-05
3.68151e-05
3.68296e-05
3.68297e-05
3.68321e-05
3.68289e-05
3.68295e-05
3.68271e-05
3.68275e-05
3.68259e-05
3.68262e-05
3.68252e-05
3.68255e-05
3.68248e-05
3.68251e-05
3.68247e-05
3.68249e-05
3.68246e-05
3.68247e-05
3.68245e-05
3.68246e-05
3.68246e-05
3.68246e-05
3.68246e-05
3.68245e-05
3.68247e-05
3.68246e-05
3.68249e-05
3.68247e-05
3.68251e-05
3.68248e-05
3.68255e-05
3.68252e-05
3.68262e-05
3.68259e-05
3.68275e-05
3.68272e-05
3.68295e-05
3.68289e-05
3.68321e-05
3.68297e-05
3.68296e-05
3.68151e-05
3.67882e-05
3.67238e-05
3.66115e-05
3.65071e-05
3.60667e-05
3.61688e-05
3.62771e-05
3.63391e-05
3.63656e-05
3.63797e-05
3.63799e-05
3.6382e-05
3.63789e-05
3.63793e-05
3.6377e-05
3.63773e-05
3.63757e-05
3.63759e-05
3.63749e-05
3.63752e-05
3.63745e-05
3.63748e-05
3.63744e-05
3.63746e-05
3.63743e-05
3.63744e-05
3.63742e-05
3.63743e-05
3.63742e-05
3.63742e-05
3.63743e-05
3.63742e-05
3.63744e-05
3.63743e-05
3.63746e-05
3.63744e-05
3.63748e-05
3.63745e-05
3.63752e-05
3.63749e-05
3.63759e-05
3.63757e-05
3.63773e-05
3.6377e-05
3.63794e-05
3.63789e-05
3.6382e-05
3.63799e-05
3.63796e-05
3.63656e-05
3.63391e-05
3.62771e-05
3.61688e-05
3.60667e-05
3.56666e-05
3.57663e-05
3.5871e-05
3.59309e-05
3.59569e-05
3.59705e-05
3.59708e-05
3.59727e-05
3.59697e-05
3.59699e-05
3.59676e-05
3.59678e-05
3.59662e-05
3.59664e-05
3.59654e-05
3.59656e-05
3.5965e-05
3.59652e-05
3.59648e-05
3.5965e-05
3.59647e-05
3.59648e-05
3.59646e-05
3.59647e-05
3.59647e-05
3.59647e-05
3.59647e-05
3.59646e-05
3.59648e-05
3.59647e-05
3.5965e-05
3.59648e-05
3.59652e-05
3.5965e-05
3.59656e-05
3.59654e-05
3.59664e-05
3.59662e-05
3.59677e-05
3.59676e-05
3.59699e-05
3.59697e-05
3.59727e-05
3.59708e-05
3.59705e-05
3.59569e-05
3.59309e-05
3.5871e-05
3.57663e-05
3.56666e-05
3.52992e-05
3.53966e-05
3.54981e-05
3.55559e-05
3.55814e-05
3.55946e-05
3.55949e-05
3.55966e-05
3.55936e-05
3.55937e-05
3.55914e-05
3.55915e-05
3.559e-05
3.559e-05
3.55891e-05
3.55892e-05
3.55886e-05
3.55888e-05
3.55885e-05
3.55886e-05
3.55884e-05
3.55884e-05
3.55883e-05
3.55883e-05
3.55883e-05
3.55883e-05
3.55883e-05
3.55883e-05
3.55884e-05
3.55884e-05
3.55886e-05
3.55885e-05
3.55888e-05
3.55886e-05
3.55892e-05
3.55891e-05
3.559e-05
3.559e-05
3.55914e-05
3.55915e-05
3.55937e-05
3.55936e-05
3.55966e-05
3.55949e-05
3.55946e-05
3.55814e-05
3.55559e-05
3.54981e-05
3.53966e-05
3.52992e-05
3.49586e-05
3.50537e-05
3.51522e-05
3.52081e-05
3.5233e-05
3.52458e-05
3.52461e-05
3.52476e-05
3.52446e-05
3.52445e-05
3.52423e-05
3.52422e-05
3.52407e-05
3.52407e-05
3.52398e-05
3.52399e-05
3.52393e-05
3.52395e-05
3.52391e-05
3.52392e-05
3.5239e-05
3.52391e-05
3.52389e-05
3.5239e-05
3.52389e-05
3.52389e-05
3.5239e-05
3.52389e-05
3.52391e-05
3.5239e-05
3.52392e-05
3.52391e-05
3.52395e-05
3.52393e-05
3.52399e-05
3.52398e-05
3.52407e-05
3.52407e-05
3.52422e-05
3.52423e-05
3.52445e-05
3.52446e-05
3.52476e-05
3.52461e-05
3.52458e-05
3.5233e-05
3.52081e-05
3.51522e-05
3.50537e-05
3.49585e-05
3.46396e-05
3.47324e-05
3.48283e-05
3.48823e-05
3.49066e-05
3.49191e-05
3.49193e-05
3.49205e-05
3.49176e-05
3.49173e-05
3.49151e-05
3.49149e-05
3.49134e-05
3.49134e-05
3.49124e-05
3.49125e-05
3.49119e-05
3.49121e-05
3.49117e-05
3.49118e-05
3.49116e-05
3.49116e-05
3.49115e-05
3.49115e-05
3.49115e-05
3.49115e-05
3.49115e-05
3.49115e-05
3.49116e-05
3.49116e-05
3.49118e-05
3.49117e-05
3.49121e-05
3.49119e-05
3.49125e-05
3.49124e-05
3.49134e-05
3.49134e-05
3.49149e-05
3.49151e-05
3.49173e-05
3.49176e-05
3.49205e-05
3.49193e-05
3.4919e-05
3.49066e-05
3.48823e-05
3.48282e-05
3.47324e-05
3.46396e-05
3.43382e-05
3.44287e-05
3.4522e-05
3.45743e-05
3.4598e-05
3.46101e-05
3.46102e-05
3.46113e-05
3.46083e-05
3.46079e-05
3.46056e-05
3.46053e-05
3.46039e-05
3.46038e-05
3.46029e-05
3.46029e-05
3.46023e-05
3.46024e-05
3.46021e-05
3.46022e-05
3.46019e-05
3.4602e-05
3.46018e-05
3.46019e-05
3.46018e-05
3.46018e-05
3.46019e-05
3.46018e-05
3.4602e-05
3.46019e-05
3.46022e-05
3.46021e-05
3.46024e-05
3.46023e-05
3.46029e-05
3.46029e-05
3.46038e-05
3.46039e-05
3.46053e-05
3.46056e-05
3.46079e-05
3.46083e-05
3.46112e-05
3.46102e-05
3.46101e-05
3.4598e-05
3.45743e-05
3.4522e-05
3.44287e-05
3.43382e-05
3.40511e-05
3.41391e-05
3.42301e-05
3.42807e-05
3.43038e-05
3.43154e-05
3.43155e-05
3.43163e-05
3.43133e-05
3.43127e-05
3.43105e-05
3.43101e-05
3.43086e-05
3.43085e-05
3.43075e-05
3.43075e-05
3.4307e-05
3.43071e-05
3.43067e-05
3.43068e-05
3.43066e-05
3.43066e-05
3.43065e-05
3.43065e-05
3.43065e-05
3.43065e-05
3.43065e-05
3.43065e-05
3.43066e-05
3.43066e-05
3.43068e-05
3.43067e-05
3.43071e-05
3.4307e-05
3.43075e-05
3.43075e-05
3.43085e-05
3.43086e-05
3.43101e-05
3.43105e-05
3.43127e-05
3.43133e-05
3.43163e-05
3.43155e-05
3.43154e-05
3.43038e-05
3.42807e-05
3.42301e-05
3.41391e-05
3.40511e-05
3.37753e-05
3.38607e-05
3.39497e-05
3.39987e-05
3.40211e-05
3.40323e-05
3.40322e-05
3.40328e-05
3.40297e-05
3.4029e-05
3.40267e-05
3.40263e-05
3.40248e-05
3.40246e-05
3.40236e-05
3.40236e-05
3.4023e-05
3.40231e-05
3.40228e-05
3.40228e-05
3.40226e-05
3.40227e-05
3.40225e-05
3.40225e-05
3.40225e-05
3.40225e-05
3.40225e-05
3.40225e-05
3.40226e-05
3.40226e-05
3.40228e-05
3.40228e-05
3.40231e-05
3.4023e-05
3.40236e-05
3.40236e-05
3.40246e-05
3.40248e-05
3.40263e-05
3.40267e-05
3.4029e-05
3.40297e-05
3.40328e-05
3.40322e-05
3.40323e-05
3.4021e-05
3.39986e-05
3.39496e-05
3.38607e-05
3.37753e-05
3.35084e-05
3.35915e-05
3.36783e-05
3.37257e-05
3.37474e-05
3.37582e-05
3.37579e-05
3.37583e-05
3.37552e-05
3.37544e-05
3.3752e-05
3.37515e-05
3.375e-05
3.37497e-05
3.37488e-05
3.37487e-05
3.37481e-05
3.37482e-05
3.37479e-05
3.37479e-05
3.37477e-05
3.37477e-05
3.37476e-05
3.37476e-05
3.37476e-05
3.37476e-05
3.37476e-05
3.37476e-05
3.37477e-05
3.37477e-05
3.37479e-05
3.37479e-05
3.37482e-05
3.37481e-05
3.37487e-05
3.37488e-05
3.37497e-05
3.375e-05
3.37515e-05
3.3752e-05
3.37544e-05
3.37552e-05
3.37583e-05
3.37579e-05
3.37582e-05
3.37474e-05
3.37257e-05
3.36782e-05
3.35915e-05
3.35084e-05
)
;

boundaryField
{
    fuel
    {
        type            fixedValue;
        value           uniform 0;
    }
    wall
    {
        type            zeroGradient;
    }
    outlet
    {
        type            zeroGradient;
    }
    frontAndBack
    {
        type            empty;
    }
    procBoundary1to0
    {
        type            processor;
        value           nonuniform List<scalar> 
50
(
3.32483e-05
3.33294e-05
3.34139e-05
3.34598e-05
3.34808e-05
3.34912e-05
3.34907e-05
3.34909e-05
3.34877e-05
3.34867e-05
3.34843e-05
3.34837e-05
3.34822e-05
3.34819e-05
3.34809e-05
3.34808e-05
3.34802e-05
3.34803e-05
3.34799e-05
3.348e-05
3.34798e-05
3.34798e-05
3.34797e-05
3.34797e-05
3.34796e-05
3.34796e-05
3.34797e-05
3.34797e-05
3.34798e-05
3.34798e-05
3.348e-05
3.34799e-05
3.34803e-05
3.34802e-05
3.34808e-05
3.34809e-05
3.34818e-05
3.34822e-05
3.34837e-05
3.34843e-05
3.34867e-05
3.34877e-05
3.34909e-05
3.34907e-05
3.34912e-05
3.34808e-05
3.34598e-05
3.34139e-05
3.33294e-05
3.32483e-05
)
;
    }
}


// ************************************************************************* //
