/*--------------------------------*- C++ -*----------------------------------*\
| =========                 |                                                 |
| \\      /  F ield         | OpenFOAM: The Open Source CFD Toolbox           |
|  \\    /   O peration     | Version:  dev                                   |
|   \\  /    A nd           | Web:      www.OpenFOAM.org                      |
|    \\/     M anipulation  |                                                 |
\*---------------------------------------------------------------------------*/
FoamFile
{
    version     2.0;
    format      ascii;
    class       volScalarField;
    location    "0.145";
    object      A2C2HB;
}
// * * * * * * * * * * * * * * * * * * * * * * * * * * * * * * * * * * * * * //

dimensions      [0 0 0 0 0 0 0];

internalField   nonuniform List<scalar> 
50
(
1.41028e-21
1.34983e-21
1.29448e-21
1.24196e-21
1.19307e-21
1.14791e-21
1.10501e-21
1.06493e-21
1.02728e-21
9.92697e-22
9.60703e-22
9.3091e-22
9.03348e-22
8.77174e-22
8.52977e-22
8.29939e-22
8.08463e-22
7.87742e-22
7.68229e-22
7.49595e-22
7.31737e-22
7.14506e-22
6.97442e-22
6.80872e-22
6.64598e-22
6.48232e-22
6.32013e-22
6.15389e-22
5.98904e-22
5.82307e-22
5.65556e-22
5.48536e-22
5.31163e-22
5.12997e-22
4.94455e-22
4.74971e-22
4.5494e-22
4.34343e-22
4.12944e-22
3.90627e-22
3.67284e-22
3.42804e-22
3.16978e-22
2.89571e-22
2.60318e-22
2.28918e-22
1.95055e-22
1.58619e-22
1.20499e-22
8.09644e-23
)
;

boundaryField
{
    wall
    {
        type            zeroGradient;
    }
    fuel
    {
        type            fixedValue;
        value           nonuniform 0();
    }
    outlet
    {
        type            inletOutlet;
        inletValue      uniform 0;
        value           uniform 0;
    }
    procBoundary3to2
    {
        type            processor;
        value           uniform 1.47424e-21;
    }
}


// ************************************************************************* //
