/*--------------------------------*- C++ -*----------------------------------*\
| =========                 |                                                 |
| \\      /  F ield         | OpenFOAM: The Open Source CFD Toolbox           |
|  \\    /   O peration     | Version:  dev                                   |
|   \\  /    A nd           | Web:      www.OpenFOAM.org                      |
|    \\/     M anipulation  |                                                 |
\*---------------------------------------------------------------------------*/
FoamFile
{
    version     2.0;
    format      ascii;
    class       volScalarField;
    location    "0.145";
    object      A2R5-;
}
// * * * * * * * * * * * * * * * * * * * * * * * * * * * * * * * * * * * * * //

dimensions      [0 0 0 0 0 0 0];

internalField   nonuniform List<scalar> 
250
(
2.20535e-08
2.20433e-08
2.20605e-08
2.20514e-08
2.20644e-08
2.2056e-08
2.20769e-08
2.22701e-08
2.33062e-08
2.90782e-08
8.53907e-10
2.66414e-08
2.6632e-08
2.66498e-08
2.66474e-08
2.66445e-08
2.66546e-08
2.66844e-08
2.69522e-08
2.86498e-08
3.77e-08
1.90452e-09
2.59333e-08
2.59185e-08
2.59489e-08
2.59446e-08
2.5938e-08
2.59538e-08
2.59906e-08
2.63029e-08
2.82791e-08
3.8025e-08
2.18462e-09
2.38977e-08
2.3871e-08
2.39185e-08
2.3912e-08
2.39045e-08
2.39229e-08
2.3962e-08
2.42962e-08
2.63719e-08
3.56523e-08
1.77939e-09
2.16912e-08
2.16421e-08
2.17174e-08
2.17069e-08
2.16985e-08
2.17193e-08
2.17597e-08
2.2101e-08
2.41831e-08
3.2649e-08
1.15099e-09
1.95577e-08
1.96332e-08
1.95948e-08
1.95755e-08
1.95637e-08
1.95914e-08
1.96392e-08
2.0032e-08
2.21768e-08
2.97955e-08
6.75847e-10
1.7854e-08
1.7944e-08
1.79022e-08
1.78776e-08
1.78591e-08
1.78953e-08
1.79486e-08
1.83532e-08
2.04874e-08
2.729e-08
4.97835e-10
1.64203e-08
1.64561e-08
1.64696e-08
1.64598e-08
1.64286e-08
1.64795e-08
1.65407e-08
1.69625e-08
1.90031e-08
2.50978e-08
8.06947e-10
1.51859e-08
1.52648e-08
1.52751e-08
1.52632e-08
1.52144e-08
1.52869e-08
1.53401e-08
1.56952e-08
1.76458e-08
2.31394e-08
1.43412e-09
1.41102e-08
1.40811e-08
1.40924e-08
1.40733e-08
1.41258e-08
1.41024e-08
1.41601e-08
1.45224e-08
1.66094e-08
2.13656e-08
2.1552e-09
1.31537e-08
1.31665e-08
1.31388e-08
1.31917e-08
1.31746e-08
1.32358e-08
1.35988e-08
1.55894e-08
1.97625e-08
2.70692e-09
1.22024e-08
1.2215e-08
1.21752e-08
1.22316e-08
1.22227e-08
1.2291e-08
1.26929e-08
1.46182e-08
1.83316e-08
3.11024e-09
1.13189e-08
1.1329e-08
1.12738e-08
1.13363e-08
1.13357e-08
1.1406e-08
1.18121e-08
1.36934e-08
1.69224e-08
3.43121e-09
1.04914e-08
1.04982e-08
1.04214e-08
1.04994e-08
1.05042e-08
1.05755e-08
1.09833e-08
1.29242e-08
1.57779e-08
3.71711e-09
9.7105e-09
9.71486e-09
9.71595e-09
9.71359e-09
9.72041e-09
9.79166e-09
1.01972e-08
1.21108e-08
1.47579e-08
3.99415e-09
8.96993e-09
8.97345e-09
8.96848e-09
8.97162e-09
8.97916e-09
9.04961e-09
9.44813e-09
1.13022e-08
1.38213e-08
4.25366e-09
8.26656e-09
8.27065e-09
8.25948e-09
8.2695e-09
8.27706e-09
8.34602e-09
8.73181e-09
1.05717e-08
1.28814e-08
4.4879e-09
7.59891e-09
7.60423e-09
7.58589e-09
7.60444e-09
7.6117e-09
7.67857e-09
8.04402e-09
9.90863e-09
1.21071e-08
4.68224e-09
6.96599e-09
6.97252e-09
6.94513e-09
6.97442e-09
6.9812e-09
7.04534e-09
7.37966e-09
9.18238e-09
1.13466e-08
4.82096e-09
6.36667e-09
6.37405e-09
6.33414e-09
6.37785e-09
6.38392e-09
6.44461e-09
6.81279e-09
8.47408e-09
1.05676e-08
4.89512e-09
5.79938e-09
5.80731e-09
5.81969e-09
5.8133e-09
5.81811e-09
5.87396e-09
6.26185e-09
7.78981e-09
9.81101e-09
4.90539e-09
5.26152e-09
5.2694e-09
5.27859e-09
5.27712e-09
5.28123e-09
5.33002e-09
5.69117e-09
7.12864e-09
9.05479e-09
4.86051e-09
4.80852e-09
4.81631e-09
4.82299e-09
4.82526e-09
4.82875e-09
4.86959e-09
5.20746e-09
6.49196e-09
8.35823e-09
4.77513e-09
4.35177e-09
4.35988e-09
4.36432e-09
4.36979e-09
4.3736e-09
4.43757e-09
4.7336e-09
5.87841e-09
7.69509e-09
4.66436e-09
)
;

boundaryField
{
    fuel
    {
        type            fixedValue;
        value           uniform 0;
    }
    wall
    {
        type            zeroGradient;
    }
    outlet
    {
        type            zeroGradient;
    }
    frontAndBack
    {
        type            empty;
    }
    procBoundary3to0
    {
        type            processor;
        value           nonuniform List<scalar> 10(3.95315e-09 3.9609e-09 3.9638e-09 3.97134e-09 3.9751e-09 4.03358e-09 4.30468e-09 5.28507e-09 7.06367e-09 4.54056e-09);
    }
    procBoundary3to2
    {
        type            processor;
        value           nonuniform List<scalar> 
25
(
2.20564e-08
2.6644e-08
2.59391e-08
2.39061e-08
2.1702e-08
1.95726e-08
1.78707e-08
1.64352e-08
1.52011e-08
1.40922e-08
1.31673e-08
1.31673e-08
1.22166e-08
1.13415e-08
1.05175e-08
9.73478e-09
8.99027e-09
8.28256e-09
7.61077e-09
6.97415e-09
6.37162e-09
5.80159e-09
5.26142e-09
4.80682e-09
4.34829e-09
)
;
    }
}


// ************************************************************************* //
