/*--------------------------------*- C++ -*----------------------------------*\
| =========                 |                                                 |
| \\      /  F ield         | OpenFOAM: The Open Source CFD Toolbox           |
|  \\    /   O peration     | Version:  dev                                   |
|   \\  /    A nd           | Web:      www.OpenFOAM.org                      |
|    \\/     M anipulation  |                                                 |
\*---------------------------------------------------------------------------*/
FoamFile
{
    version     2.0;
    format      ascii;
    class       volScalarField;
    location    "0.145";
    object      CH3O;
}
// * * * * * * * * * * * * * * * * * * * * * * * * * * * * * * * * * * * * * //

dimensions      [0 0 0 0 0 0 0];

internalField   nonuniform List<scalar> 
250
(
1.37117e-07
1.37144e-07
1.37118e-07
1.37187e-07
1.37277e-07
1.37199e-07
1.37115e-07
1.37529e-07
1.38901e-07
1.52597e-07
2.81045e-06
5.8893e-08
5.88979e-08
5.8856e-08
5.89106e-08
5.8922e-08
5.89206e-08
5.88519e-08
5.89949e-08
5.95355e-08
6.70166e-08
2.71681e-06
2.41841e-08
2.41818e-08
2.41762e-08
2.41891e-08
2.41886e-08
2.41956e-08
2.41704e-08
2.42212e-08
2.43705e-08
2.85965e-08
1.43283e-06
1.03222e-08
1.03102e-08
1.03213e-08
1.03241e-08
1.03228e-08
1.03278e-08
1.03167e-08
1.03294e-08
1.03514e-08
1.31349e-08
6.44503e-07
4.92823e-09
4.88833e-09
4.92861e-09
4.92895e-09
4.92824e-09
4.93073e-09
4.92428e-09
4.91383e-09
4.88314e-09
7.07945e-09
3.04017e-07
2.66529e-09
2.70653e-09
2.66814e-09
2.66583e-09
2.66505e-09
2.66772e-09
2.66629e-09
2.67614e-09
2.68551e-09
4.76135e-09
2.52921e-07
1.74808e-09
1.77374e-09
1.75161e-09
1.74877e-09
1.74771e-09
1.74996e-09
1.74907e-09
1.75068e-09
1.7471e-09
4.36218e-09
6.59636e-07
1.31832e-09
1.32146e-09
1.3199e-09
1.32027e-09
1.31809e-09
1.32112e-09
1.32093e-09
1.32086e-09
1.29217e-09
5.6326e-09
2.44275e-06
1.09664e-09
1.10374e-09
1.1025e-09
1.10281e-09
1.09841e-09
1.10367e-09
1.10167e-09
1.08915e-09
1.04264e-09
4.66531e-09
1.78522e-06
9.72201e-10
9.68154e-10
9.67635e-10
9.67314e-10
9.71977e-10
9.68192e-10
9.6641e-10
9.5403e-10
9.14952e-10
2.92084e-09
6.68645e-07
8.94444e-10
8.94363e-10
8.93497e-10
8.9702e-10
8.94534e-10
8.92834e-10
8.79827e-10
8.26854e-10
1.83877e-09
2.37567e-07
8.38481e-10
8.38631e-10
8.3718e-10
8.40168e-10
8.38628e-10
8.37145e-10
8.25472e-10
7.64202e-10
1.27775e-09
9.37102e-08
7.96237e-10
7.96433e-10
7.94327e-10
7.97202e-10
7.96323e-10
7.94801e-10
7.82621e-10
7.16206e-10
9.51165e-10
4.26747e-08
7.61215e-10
7.61379e-10
7.58352e-10
7.61725e-10
7.61228e-10
7.5967e-10
7.47173e-10
6.81834e-10
7.67262e-10
2.21455e-08
7.29914e-10
7.30056e-10
7.30018e-10
7.30221e-10
7.299e-10
7.28318e-10
7.15662e-10
6.49215e-10
6.43032e-10
1.24903e-08
7.00415e-10
7.00574e-10
7.00164e-10
7.00683e-10
7.00455e-10
6.9887e-10
6.8619e-10
6.19052e-10
5.52811e-10
7.55616e-09
6.71636e-10
6.71853e-10
6.71086e-10
6.7198e-10
6.71805e-10
6.70237e-10
6.57635e-10
5.92983e-10
4.80087e-10
4.76622e-09
6.42919e-10
6.4322e-10
6.42054e-10
6.43404e-10
6.43266e-10
6.41734e-10
6.29212e-10
5.69883e-10
4.30798e-10
3.08809e-09
6.13814e-10
6.14202e-10
6.12531e-10
6.14469e-10
6.14359e-10
6.12876e-10
6.00251e-10
5.44703e-10
3.91538e-10
2.0411e-09
5.83954e-10
5.84427e-10
5.82037e-10
5.84795e-10
5.84702e-10
5.83275e-10
5.73893e-10
5.19837e-10
3.59169e-10
1.37283e-09
5.52995e-10
5.53551e-10
5.54026e-10
5.54049e-10
5.53943e-10
5.52537e-10
5.46218e-10
4.95024e-10
3.33685e-10
9.40061e-10
5.20559e-10
5.21176e-10
5.2143e-10
5.21789e-10
5.21703e-10
5.20215e-10
5.14876e-10
4.69773e-10
3.12598e-10
6.57186e-10
4.90307e-10
4.90985e-10
4.91059e-10
4.91695e-10
4.91622e-10
4.89965e-10
4.85752e-10
4.43728e-10
2.9572e-10
4.71174e-10
4.56187e-10
4.56966e-10
4.56877e-10
4.57774e-10
4.57785e-10
4.5838e-10
4.54155e-10
4.16389e-10
2.80857e-10
3.48307e-10
)
;

boundaryField
{
    fuel
    {
        type            fixedValue;
        value           uniform 0;
    }
    wall
    {
        type            zeroGradient;
    }
    outlet
    {
        type            zeroGradient;
    }
    frontAndBack
    {
        type            empty;
    }
    procBoundary3to0
    {
        type            processor;
        value           nonuniform List<scalar> 10(4.23023e-10 4.23847e-10 4.23642e-10 4.24732e-10 4.24785e-10 4.25466e-10 4.22435e-10 3.87262e-10 2.67127e-10 2.67988e-10);
    }
    procBoundary3to2
    {
        type            processor;
        value           nonuniform List<scalar> 
25
(
1.37158e-07
5.89038e-08
2.41871e-08
1.03235e-08
4.92896e-09
2.66654e-09
1.74918e-09
1.31904e-09
1.09791e-09
9.70875e-10
8.96379e-10
8.96379e-10
8.39634e-10
7.97338e-10
7.62257e-10
7.3079e-10
7.01088e-10
6.72112e-10
6.43215e-10
6.13944e-10
5.83931e-10
5.52827e-10
5.2025e-10
4.89887e-10
4.55619e-10
)
;
    }
}


// ************************************************************************* //
