/*--------------------------------*- C++ -*----------------------------------*\
| =========                 |                                                 |
| \\      /  F ield         | OpenFOAM: The Open Source CFD Toolbox           |
|  \\    /   O peration     | Version:  dev                                   |
|   \\  /    A nd           | Web:      www.OpenFOAM.org                      |
|    \\/     M anipulation  |                                                 |
\*---------------------------------------------------------------------------*/
FoamFile
{
    version     2.0;
    format      ascii;
    class       volScalarField;
    location    "0.145";
    object      CH4;
}
// * * * * * * * * * * * * * * * * * * * * * * * * * * * * * * * * * * * * * //

dimensions      [0 0 0 0 0 0 0];

internalField   nonuniform List<scalar> 
250
(
0.00094176
0.000942005
0.000941743
0.00094212
0.000942183
0.000942158
0.000941955
0.000943
0.000953672
0.00102441
7.05057e-05
0.000841851
0.000841919
0.000841913
0.000841968
0.000841946
0.000841988
0.000842111
0.00084346
0.000852779
0.000910515
0.000187492
0.000844535
0.00084459
0.000844558
0.000844569
0.000844554
0.000844581
0.000844826
0.00084649
0.000857576
0.000915925
0.000309108
0.000877983
0.000878183
0.000878018
0.000878001
0.00087799
0.000878015
0.000878393
0.00088056
0.000894425
0.000959858
0.000435031
0.000908241
0.000908792
0.00090829
0.000908269
0.000908249
0.000908299
0.000908791
0.000911627
0.000928765
0.00100698
0.000573085
0.000930145
0.000929721
0.000930187
0.000930193
0.000930162
0.000930232
0.00093079
0.000933934
0.000953675
0.0010504
0.000752662
0.000942454
0.00094217
0.000942517
0.000942529
0.000942484
0.000942595
0.00094325
0.000947068
0.00097021
0.00109132
0.00105821
0.000948922
0.000949025
0.000949079
0.000949028
0.000948975
0.000949123
0.00094987
0.000954306
0.000981458
0.00113233
0.0016931
0.000951606
0.000951731
0.000951787
0.000951719
0.000951682
0.000951846
0.000952716
0.00095793
0.000989198
0.00117391
0.00280274
0.000951894
0.000952012
0.000952063
0.000951973
0.000952009
0.000952147
0.000953126
0.000958992
0.000993539
0.00121165
0.00358773
0.000950827
0.000950877
0.000950754
0.000950849
0.000950976
0.000952055
0.000958483
0.000996387
0.00124177
0.00386268
0.000948416
0.000948462
0.000948281
0.000948438
0.000948575
0.000949776
0.000956898
0.000997849
0.00126312
0.003873
0.000945342
0.000945373
0.000945114
0.000945334
0.000945494
0.000946804
0.000954523
0.000998163
0.00127743
0.00375415
0.000941895
0.000941905
0.000941544
0.000941852
0.00094203
0.00094344
0.000951698
0.000997629
0.00128288
0.00356977
0.000938279
0.000938271
0.0009383
0.000938212
0.000938398
0.000939897
0.00094862
0.000996253
0.00128176
0.00334629
0.000934661
0.000934644
0.00093467
0.000934584
0.000934772
0.00093635
0.000945446
0.000994167
0.00127506
0.00311428
0.000931202
0.000931181
0.0009312
0.000931124
0.000931312
0.000932956
0.00094232
0.000991758
0.00126274
0.00288266
0.000928055
0.000928033
0.00092804
0.000927981
0.000928165
0.000929862
0.000939372
0.000989196
0.0012485
0.0026598
0.000925378
0.000925349
0.000925338
0.000925302
0.000925482
0.000927217
0.000936739
0.000986094
0.00123126
0.00245105
0.000923323
0.000923282
0.000923247
0.000923238
0.000923412
0.000925169
0.000934842
0.000982943
0.0012112
0.00225924
0.000922046
0.000921987
0.000922091
0.000921945
0.000922109
0.000923871
0.0009335
0.000979964
0.00119037
0.00208562
0.000921706
0.00092162
0.000921737
0.000921577
0.00092173
0.000923478
0.000932835
0.000977358
0.00116915
0.00193053
0.000922368
0.000922255
0.000922386
0.000922205
0.00092235
0.000924073
0.000933091
0.000975334
0.00114995
0.00179384
0.000924257
0.000924108
0.000924257
0.000924046
0.000924179
0.000925725
0.000934375
0.000974092
0.0011325
0.0016752
)
;

boundaryField
{
    fuel
    {
        type            fixedValue;
        value           uniform 0;
    }
    wall
    {
        type            zeroGradient;
    }
    outlet
    {
        type            zeroGradient;
    }
    frontAndBack
    {
        type            empty;
    }
    procBoundary3to0
    {
        type            processor;
        value           nonuniform List<scalar> 10(0.000927183 0.000927002 0.000927168 0.000926925 0.000927048 0.000928519 0.000936683 0.000973818 0.00111712 0.00157419);
    }
    procBoundary3to2
    {
        type            processor;
        value           nonuniform List<scalar> 
25
(
0.000941137
0.000841762
0.000844506
0.00087797
0.000908246
0.000930155
0.000942473
0.000948953
0.000951624
0.000951878
0.000950738
0.000950738
0.000948394
0.000945398
0.000941996
0.000938395
0.000934778
0.000931312
0.000928158
0.000925473
0.000923414
0.000922138
0.000921804
0.000922478
0.000924388
)
;
    }
}


// ************************************************************************* //
