/*--------------------------------*- C++ -*----------------------------------*\
| =========                 |                                                 |
| \\      /  F ield         | OpenFOAM: The Open Source CFD Toolbox           |
|  \\    /   O peration     | Version:  dev                                   |
|   \\  /    A nd           | Web:      www.OpenFOAM.org                      |
|    \\/     M anipulation  |                                                 |
\*---------------------------------------------------------------------------*/
FoamFile
{
    version     2.0;
    format      ascii;
    class       volScalarField;
    location    "0.145";
    object      CO2;
}
// * * * * * * * * * * * * * * * * * * * * * * * * * * * * * * * * * * * * * //

dimensions      [0 0 0 0 0 0 0];

internalField   nonuniform List<scalar> 
250
(
0.0393446
0.0393434
0.039345
0.0393431
0.0393433
0.0393433
0.0393442
0.0393474
0.0393572
0.0390388
0.00489302
0.0465725
0.0465724
0.046573
0.046572
0.046572
0.046573
0.046575
0.0465896
0.046685
0.046983
0.0131219
0.0485648
0.0485655
0.0485658
0.0485647
0.0485651
0.0485664
0.0485709
0.0485983
0.048774
0.0495047
0.0209714
0.0491923
0.0491937
0.049194
0.0491923
0.0491931
0.0491949
0.0492027
0.0492441
0.0494927
0.0505364
0.0275736
0.0493602
0.0493624
0.0493627
0.0493603
0.0493611
0.0493638
0.0493755
0.0494315
0.049745
0.0510373
0.0326737
0.0493378
0.0493408
0.0493413
0.049338
0.0493378
0.0493426
0.0493585
0.049429
0.0498015
0.0512978
0.0364167
0.0492238
0.0492277
0.0492284
0.049224
0.0492213
0.0492299
0.04925
0.0493369
0.0497587
0.0514215
0.0391005
0.0490617
0.0490663
0.0490672
0.0490619
0.0490536
0.049069
0.0490931
0.0491972
0.0496605
0.0514485
0.0410367
0.0488437
0.048849
0.04885
0.0488435
0.0488563
0.0488525
0.0488793
0.048997
0.0495093
0.0514022
0.0424775
0.0486373
0.0486427
0.0486438
0.0486359
0.0486424
0.0486468
0.0486757
0.0487984
0.0493212
0.051302
0.0435908
0.0484088
0.0484101
0.0483995
0.0484193
0.0484139
0.0484475
0.0485919
0.0491402
0.0511613
0.0444919
0.0481582
0.0481599
0.0481457
0.0481711
0.0481644
0.0482007
0.0483598
0.0489284
0.0509716
0.045252
0.0479037
0.0479059
0.0478866
0.0479118
0.0479111
0.0479507
0.048124
0.048692
0.0507217
0.0459138
0.0476505
0.0476534
0.0476266
0.0476579
0.0476592
0.0477023
0.047888
0.0484799
0.0504924
0.0465003
0.0474027
0.0474066
0.0474052
0.0474115
0.047413
0.0474595
0.0476549
0.0482428
0.0502492
0.0470192
0.047164
0.0471689
0.0471654
0.0471746
0.0471758
0.0472254
0.0474278
0.0480091
0.0499953
0.0474701
0.0469377
0.0469433
0.0469374
0.04695
0.0469506
0.0470028
0.0472093
0.0477824
0.049734
0.047849
0.0467264
0.0467325
0.0467239
0.04674
0.0467402
0.0467942
0.0470022
0.0475662
0.0494699
0.0481526
0.046533
0.0465392
0.0465268
0.0465473
0.0465472
0.0466021
0.0468088
0.0473629
0.0491582
0.0483792
0.0463598
0.0463658
0.046348
0.0463741
0.046374
0.0464287
0.0466315
0.0471749
0.0488946
0.0485333
0.0462093
0.0462146
0.0462094
0.0462231
0.0462229
0.0462764
0.0464725
0.0470045
0.0486252
0.0486206
0.0460835
0.0460879
0.0460931
0.0460961
0.0460961
0.0461474
0.0463338
0.046854
0.0483877
0.048651
0.0459973
0.0460002
0.0460049
0.0460076
0.0460083
0.0460566
0.0462337
0.0467258
0.0481681
0.048636
0.0459356
0.0459359
0.04594
0.045942
0.0459435
0.0459885
0.0461558
0.0466344
0.0479723
0.048589
)
;

boundaryField
{
    fuel
    {
        type            fixedValue;
        value           uniform 0;
    }
    wall
    {
        type            zeroGradient;
    }
    outlet
    {
        type            zeroGradient;
    }
    frontAndBack
    {
        type            empty;
    }
    procBoundary3to0
    {
        type            processor;
        value           nonuniform List<scalar> 10(0.0459071 0.0459048 0.0459097 0.0459095 0.0459121 0.0459527 0.0461076 0.0465643 0.0478039 0.0485238);
    }
    procBoundary3to2
    {
        type            processor;
        value           nonuniform List<scalar> 
25
(
0.0393431
0.0465718
0.0485648
0.049193
0.0493616
0.0493401
0.049227
0.0490657
0.0488484
0.048642
0.0484032
0.0484032
0.0481538
0.0479009
0.0476491
0.0474024
0.0471642
0.046938
0.0467267
0.0465333
0.0463602
0.0462099
0.0460845
0.0459982
0.0459353
)
;
    }
}


// ************************************************************************* //
