/*--------------------------------*- C++ -*----------------------------------*\
| =========                 |                                                 |
| \\      /  F ield         | OpenFOAM: The Open Source CFD Toolbox           |
|  \\    /   O peration     | Version:  dev                                   |
|   \\  /    A nd           | Web:      www.OpenFOAM.org                      |
|    \\/     M anipulation  |                                                 |
\*---------------------------------------------------------------------------*/
FoamFile
{
    version     2.0;
    format      ascii;
    class       volScalarField;
    location    "0.145";
    object      HCCOH;
}
// * * * * * * * * * * * * * * * * * * * * * * * * * * * * * * * * * * * * * //

dimensions      [0 0 0 0 0 0 0];

internalField   nonuniform List<scalar> 
250
(
2.06284e-05
2.06243e-05
2.06292e-05
2.06229e-05
2.06245e-05
2.06221e-05
2.0624e-05
2.06109e-05
2.04518e-05
1.84031e-05
3.21795e-07
2.03517e-05
2.03507e-05
2.03532e-05
2.03483e-05
2.03513e-05
2.03485e-05
2.03547e-05
2.03595e-05
2.03144e-05
1.91068e-05
6.12751e-07
1.83961e-05
1.83979e-05
1.83988e-05
1.83943e-05
1.83987e-05
1.83956e-05
1.84065e-05
1.84251e-05
1.84028e-05
1.70033e-05
7.91421e-07
1.69459e-05
1.69499e-05
1.69502e-05
1.6945e-05
1.69499e-05
1.69477e-05
1.69633e-05
1.69959e-05
1.69662e-05
1.50674e-05
8.76591e-07
1.58428e-05
1.58485e-05
1.58487e-05
1.58424e-05
1.58463e-05
1.58468e-05
1.5867e-05
1.5911e-05
1.58708e-05
1.34898e-05
8.88419e-07
1.49406e-05
1.4948e-05
1.49483e-05
1.49406e-05
1.49408e-05
1.49468e-05
1.49716e-05
1.50198e-05
1.49278e-05
1.22483e-05
8.55584e-07
1.41697e-05
1.41785e-05
1.4179e-05
1.417e-05
1.41614e-05
1.41781e-05
1.42071e-05
1.42677e-05
1.41619e-05
1.1286e-05
8.02762e-07
1.34973e-05
1.35074e-05
1.35081e-05
1.34976e-05
1.34712e-05
1.35079e-05
1.35403e-05
1.36185e-05
1.34975e-05
1.0525e-05
7.46747e-07
1.28147e-05
1.28258e-05
1.28269e-05
1.28145e-05
1.28492e-05
1.28281e-05
1.286e-05
1.29432e-05
1.28448e-05
9.92283e-06
6.88081e-07
1.22698e-05
1.22811e-05
1.22825e-05
1.22678e-05
1.22841e-05
1.22846e-05
1.23165e-05
1.23893e-05
1.22318e-05
9.45284e-06
6.14017e-07
1.17391e-05
1.17413e-05
1.17217e-05
1.17652e-05
1.17447e-05
1.17822e-05
1.18836e-05
1.17431e-05
9.09474e-06
5.47023e-07
1.12133e-05
1.12162e-05
1.11906e-05
1.12423e-05
1.12207e-05
1.12598e-05
1.13736e-05
1.12544e-05
8.80002e-06
5.30204e-07
1.07157e-05
1.07199e-05
1.06852e-05
1.07339e-05
1.07253e-05
1.07673e-05
1.0895e-05
1.07729e-05
8.5441e-06
5.94898e-07
1.02442e-05
1.025e-05
1.02021e-05
1.02608e-05
1.02563e-05
1.03021e-05
1.04421e-05
1.03765e-05
8.38576e-06
7.69407e-07
9.7965e-06
9.80456e-06
9.79998e-06
9.81559e-06
9.81147e-06
9.8614e-06
1.00113e-05
9.96307e-06
8.2663e-06
1.07142e-06
9.37069e-06
9.38103e-06
9.37085e-06
9.39352e-06
9.38859e-06
9.44268e-06
9.59987e-06
9.57385e-06
8.17075e-06
1.49828e-06
8.96479e-06
8.97736e-06
8.96103e-06
8.99165e-06
8.98552e-06
9.04343e-06
9.20565e-06
9.20537e-06
8.08699e-06
2.0279e-06
8.57685e-06
8.59152e-06
8.5678e-06
8.60758e-06
8.60021e-06
8.66139e-06
8.82657e-06
8.85462e-06
8.00497e-06
2.62528e-06
8.20487e-06
8.22147e-06
8.18813e-06
8.23919e-06
8.23063e-06
8.2944e-06
8.46051e-06
8.51771e-06
7.89174e-06
3.24953e-06
7.84662e-06
7.86511e-06
7.81816e-06
7.88441e-06
7.87468e-06
7.94029e-06
8.10521e-06
8.19099e-06
7.78685e-06
3.86123e-06
7.49961e-06
7.52031e-06
7.49746e-06
7.54124e-06
7.53003e-06
7.59671e-06
7.75808e-06
7.87104e-06
7.65715e-06
4.42597e-06
7.16097e-06
7.1843e-06
7.18366e-06
7.20635e-06
7.19372e-06
7.26081e-06
7.41571e-06
7.55495e-06
7.51678e-06
4.91805e-06
6.8665e-06
6.89156e-06
6.88465e-06
6.91357e-06
6.90003e-06
6.96698e-06
7.11755e-06
7.23982e-06
7.3555e-06
5.32123e-06
6.56251e-06
6.587e-06
6.57221e-06
6.60864e-06
6.59324e-06
6.66302e-06
6.81477e-06
6.95696e-06
7.17461e-06
5.62815e-06
)
;

boundaryField
{
    fuel
    {
        type            fixedValue;
        value           uniform 0;
    }
    wall
    {
        type            zeroGradient;
    }
    outlet
    {
        type            zeroGradient;
    }
    frontAndBack
    {
        type            empty;
    }
    procBoundary3to0
    {
        type            processor;
        value           nonuniform List<scalar> 10(6.27976e-06 6.30525e-06 6.28575e-06 6.32593e-06 6.30995e-06 6.3792e-06 6.52575e-06 6.65749e-06 6.97061e-06 5.82755e-06);
    }
    procBoundary3to2
    {
        type            processor;
        value           nonuniform List<scalar> 
25
(
2.06241e-05
2.03505e-05
1.83976e-05
1.69494e-05
1.5848e-05
1.49475e-05
1.41782e-05
1.35072e-05
1.28256e-05
1.2281e-05
1.17279e-05
1.17279e-05
1.12051e-05
1.07109e-05
1.02422e-05
9.79644e-06
9.37166e-06
8.9663e-06
8.5788e-06
8.20745e-06
7.85027e-06
7.50497e-06
7.16854e-06
6.87477e-06
6.56723e-06
)
;
    }
}


// ************************************************************************* //
