/*--------------------------------*- C++ -*----------------------------------*\
| =========                 |                                                 |
| \\      /  F ield         | OpenFOAM: The Open Source CFD Toolbox           |
|  \\    /   O peration     | Version:  dev                                   |
|   \\  /    A nd           | Web:      www.OpenFOAM.org                      |
|    \\/     M anipulation  |                                                 |
\*---------------------------------------------------------------------------*/
FoamFile
{
    version     2.0;
    format      ascii;
    class       volScalarField;
    location    "0.145";
    object      HCO;
}
// * * * * * * * * * * * * * * * * * * * * * * * * * * * * * * * * * * * * * //

dimensions      [0 0 0 0 0 0 0];

internalField   nonuniform List<scalar> 
250
(
1.87314e-05
1.87336e-05
1.87312e-05
1.87341e-05
1.87337e-05
1.87347e-05
1.8735e-05
1.87479e-05
1.88818e-05
2.0812e-05
4.94953e-09
5.78497e-06
5.7848e-06
5.7851e-06
5.78453e-06
5.78533e-06
5.7844e-06
5.78558e-06
5.78709e-06
5.80256e-06
6.10414e-06
2.12711e-09
1.83195e-06
1.83185e-06
1.83215e-06
1.83157e-06
1.83226e-06
1.8314e-06
1.8323e-06
1.83225e-06
1.82667e-06
1.89362e-06
1.30423e-09
7.23459e-07
7.23502e-07
7.23613e-07
7.23304e-07
7.23726e-07
7.23212e-07
7.2376e-07
7.23667e-07
7.15086e-07
7.28738e-07
1.39636e-09
3.75964e-07
3.76052e-07
3.76083e-07
3.75904e-07
3.76132e-07
3.75869e-07
3.76211e-07
3.76063e-07
3.68394e-07
3.53177e-07
2.1849e-09
2.45865e-07
2.45962e-07
2.45967e-07
2.45841e-07
2.459e-07
2.45842e-07
2.46072e-07
2.45384e-07
2.34113e-07
2.05391e-07
4.96187e-09
1.8809e-07
1.88187e-07
1.88185e-07
1.8808e-07
1.87893e-07
1.88104e-07
1.88278e-07
1.87486e-07
1.7698e-07
1.36619e-07
1.60931e-08
1.58932e-07
1.59025e-07
1.59024e-07
1.58925e-07
1.58239e-07
1.58968e-07
1.59114e-07
1.58468e-07
1.47848e-07
1.0049e-07
5.85746e-08
1.4069e-07
1.40774e-07
1.4078e-07
1.40676e-07
1.41393e-07
1.40752e-07
1.40816e-07
1.40073e-07
1.29865e-07
8.02301e-08
1.32704e-07
1.30748e-07
1.30813e-07
1.30823e-07
1.30708e-07
1.30979e-07
1.30807e-07
1.30841e-07
1.29848e-07
1.18468e-07
6.82488e-08
1.62776e-07
1.23623e-07
1.23642e-07
1.2349e-07
1.24006e-07
1.23641e-07
1.23719e-07
1.22959e-07
1.118e-07
6.10425e-08
1.27344e-07
1.18184e-07
1.18213e-07
1.18016e-07
1.18525e-07
1.18219e-07
1.18293e-07
1.17551e-07
1.06668e-07
5.65243e-08
8.25348e-08
1.1383e-07
1.13871e-07
1.13606e-07
1.14031e-07
1.13883e-07
1.13969e-07
1.13289e-07
1.02573e-07
5.39006e-08
5.50148e-08
1.10086e-07
1.10144e-07
1.09769e-07
1.10258e-07
1.10161e-07
1.1027e-07
1.09663e-07
9.96629e-08
5.30315e-08
4.0111e-08
1.06685e-07
1.06763e-07
1.06707e-07
1.06873e-07
1.06784e-07
1.06923e-07
1.06392e-07
9.69159e-08
5.31269e-08
3.19241e-08
1.03466e-07
1.03568e-07
1.03451e-07
1.03688e-07
1.03593e-07
1.03766e-07
1.03314e-07
9.44728e-08
5.38925e-08
2.75878e-08
1.00331e-07
1.00457e-07
1.00276e-07
1.00593e-07
1.00488e-07
1.00696e-07
1.00328e-07
9.21965e-08
5.50924e-08
2.56527e-08
9.72107e-08
9.7362e-08
9.71035e-08
9.75149e-08
9.73977e-08
9.7643e-08
9.73638e-08
8.99884e-08
5.65247e-08
2.52891e-08
9.40511e-08
9.42293e-08
9.38675e-08
9.44007e-08
9.42704e-08
9.45529e-08
9.43649e-08
8.77656e-08
5.83077e-08
2.60443e-08
9.08048e-08
9.10131e-08
9.04981e-08
9.12047e-08
9.10599e-08
9.13794e-08
9.12818e-08
8.54546e-08
5.97563e-08
2.76643e-08
8.74237e-08
8.76704e-08
8.73822e-08
8.78852e-08
8.77213e-08
8.80773e-08
8.80637e-08
8.29947e-08
6.10667e-08
2.99767e-08
8.38573e-08
8.41532e-08
8.41004e-08
8.43877e-08
8.42029e-08
8.45955e-08
8.46496e-08
8.03329e-08
6.19596e-08
3.27788e-08
8.054e-08
8.08755e-08
8.07354e-08
8.11152e-08
8.09143e-08
8.13385e-08
8.14771e-08
7.74197e-08
6.24435e-08
3.58151e-08
7.6833e-08
7.71754e-08
7.69239e-08
7.7418e-08
7.71858e-08
7.76897e-08
7.80008e-08
7.45856e-08
6.24566e-08
3.87982e-08
)
;

boundaryField
{
    fuel
    {
        type            fixedValue;
        value           uniform 0;
    }
    wall
    {
        type            zeroGradient;
    }
    outlet
    {
        type            zeroGradient;
    }
    frontAndBack
    {
        type            empty;
    }
    procBoundary3to0
    {
        type            processor;
        value           nonuniform List<scalar> 10(7.31474e-08 7.35219e-08 7.32002e-08 7.37604e-08 7.35133e-08 7.40522e-08 7.44531e-08 7.13091e-08 6.19083e-08 4.13426e-08);
    }
    procBoundary3to2
    {
        type            processor;
        value           nonuniform List<scalar> 
25
(
1.87337e-05
5.78506e-06
1.83205e-06
7.23613e-07
3.76115e-07
2.46e-07
1.88212e-07
1.59043e-07
1.40788e-07
1.30825e-07
1.23571e-07
1.23571e-07
1.18141e-07
1.13804e-07
1.10078e-07
1.06689e-07
1.03478e-07
1.00349e-07
9.72352e-08
9.40845e-08
9.08526e-08
8.74946e-08
8.39597e-08
8.06548e-08
7.68961e-08
)
;
    }
}


// ************************************************************************* //
