/*--------------------------------*- C++ -*----------------------------------*\
| =========                 |                                                 |
| \\      /  F ield         | OpenFOAM: The Open Source CFD Toolbox           |
|  \\    /   O peration     | Version:  dev                                   |
|   \\  /    A nd           | Web:      www.OpenFOAM.org                      |
|    \\/     M anipulation  |                                                 |
\*---------------------------------------------------------------------------*/
FoamFile
{
    version     2.0;
    format      ascii;
    class       volScalarField;
    location    "0.145";
    object      O;
}
// * * * * * * * * * * * * * * * * * * * * * * * * * * * * * * * * * * * * * //

dimensions      [0 0 0 0 0 0 0];

internalField   nonuniform List<scalar> 
250
(
2.56858e-05
2.56893e-05
2.56814e-05
2.5686e-05
2.56508e-05
2.56888e-05
2.56884e-05
2.56688e-05
2.57177e-05
2.59581e-05
1.59269e-08
1.21465e-05
1.21475e-05
1.21398e-05
1.2147e-05
1.21392e-05
1.2149e-05
1.2139e-05
1.21377e-05
1.21358e-05
1.23078e-05
1.44785e-08
4.89445e-06
4.89441e-06
4.89264e-06
4.89471e-06
4.8926e-06
4.89595e-06
4.89072e-06
4.88969e-06
4.86456e-06
5.03579e-06
8.66508e-09
1.93914e-06
1.93723e-06
1.93868e-06
1.93927e-06
1.93863e-06
1.93991e-06
1.93723e-06
1.93468e-06
1.91128e-06
2.14415e-06
5.33258e-09
8.34603e-07
8.27314e-07
8.34444e-07
8.34623e-07
8.34446e-07
8.34871e-07
8.3329e-07
8.2854e-07
8.07544e-07
1.07678e-06
4.64913e-09
4.02983e-07
4.10229e-07
4.03271e-07
4.03001e-07
4.02902e-07
4.03255e-07
4.0272e-07
4.02535e-07
3.94237e-07
6.64755e-07
1.26296e-08
2.41884e-07
2.45938e-07
2.42259e-07
2.41908e-07
2.41812e-07
2.42035e-07
2.4163e-07
2.40271e-07
2.31709e-07
4.78435e-07
1.2297e-07
1.72761e-07
1.73115e-07
1.72835e-07
1.72931e-07
1.72706e-07
1.72997e-07
1.72711e-07
1.71174e-07
1.59343e-07
3.70111e-07
1.29919e-06
1.40201e-07
1.41051e-07
1.40838e-07
1.40924e-07
1.40397e-07
1.40985e-07
1.40442e-07
1.37194e-07
1.23297e-07
2.92286e-07
5.407e-06
1.23567e-07
1.22998e-07
1.22897e-07
1.229e-07
1.23482e-07
1.22951e-07
1.22433e-07
1.19198e-07
1.06397e-07
2.28339e-07
6.82746e-06
1.14107e-07
1.1407e-07
1.14009e-07
1.1441e-07
1.14068e-07
1.13547e-07
1.10176e-07
9.55748e-08
1.7621e-07
5.25614e-06
1.08056e-07
1.08055e-07
1.07934e-07
1.08247e-07
1.08026e-07
1.07507e-07
1.04169e-07
8.83484e-08
1.36886e-07
3.58416e-06
1.03888e-07
1.03901e-07
1.03717e-07
1.04003e-07
1.03857e-07
1.03313e-07
9.98094e-08
8.30987e-08
1.05561e-07
2.41513e-06
1.00612e-07
1.0063e-07
1.00355e-07
1.00684e-07
1.00581e-07
1.00015e-07
9.63818e-08
7.94813e-08
8.47124e-08
1.662e-06
9.77054e-08
9.77272e-08
9.77066e-08
9.7762e-08
9.76788e-08
9.70966e-08
9.33757e-08
7.61746e-08
6.94041e-08
1.16179e-06
9.48798e-08
9.49073e-08
9.48378e-08
9.49364e-08
9.48649e-08
9.42736e-08
9.05106e-08
7.31928e-08
5.79269e-08
8.32001e-07
9.19639e-08
9.20004e-08
9.18852e-08
9.20319e-08
9.19683e-08
9.13757e-08
8.76172e-08
7.06267e-08
4.86408e-08
6.02538e-07
8.88466e-08
8.88947e-08
8.8729e-08
8.89337e-08
8.88766e-08
8.82904e-08
8.45752e-08
6.83439e-08
4.24219e-08
4.37687e-07
8.54473e-08
8.55088e-08
8.52789e-08
8.55586e-08
8.55076e-08
8.49355e-08
8.12794e-08
6.58248e-08
3.76135e-08
3.17377e-07
8.17018e-08
8.17778e-08
8.14539e-08
8.18414e-08
8.17956e-08
8.12446e-08
7.80739e-08
6.3262e-08
3.38368e-08
2.29134e-07
7.75541e-08
7.76458e-08
7.76907e-08
7.77274e-08
7.76836e-08
7.71553e-08
7.45029e-08
6.05942e-08
3.10565e-08
1.64599e-07
7.29491e-08
7.30539e-08
7.30652e-08
7.31524e-08
7.31155e-08
7.26017e-08
7.02419e-08
5.77402e-08
2.89431e-08
1.17783e-07
6.84259e-08
6.85434e-08
6.85286e-08
6.86566e-08
6.86253e-08
6.81141e-08
6.60739e-08
5.46382e-08
2.73895e-08
8.41864e-08
6.31348e-08
6.32708e-08
6.32325e-08
6.33994e-08
6.33839e-08
6.32424e-08
6.13709e-08
5.12147e-08
2.61036e-08
6.03649e-08
)
;

boundaryField
{
    fuel
    {
        type            fixedValue;
        value           uniform 0;
    }
    wall
    {
        type            zeroGradient;
    }
    outlet
    {
        type            zeroGradient;
    }
    frontAndBack
    {
        type            empty;
    }
    procBoundary3to0
    {
        type            processor;
        value           nonuniform List<scalar> 10(5.78395e-08 5.7984e-08 5.79293e-08 5.8125e-08 5.81185e-08 5.80198e-08 5.64987e-08 4.74043e-08 2.49521e-08 4.38997e-08);
    }
    procBoundary3to2
    {
        type            processor;
        value           nonuniform List<scalar> 
25
(
2.57212e-05
1.21538e-05
4.8961e-06
1.93957e-06
8.34727e-07
4.0314e-07
2.42002e-07
1.72828e-07
1.40363e-07
1.23426e-07
1.1438e-07
1.1438e-07
1.082e-07
1.03997e-07
1.00702e-07
9.7775e-08
9.49281e-08
9.19922e-08
8.88561e-08
8.54387e-08
8.16749e-08
7.75084e-08
7.28836e-08
6.83439e-08
6.30304e-08
)
;
    }
}


// ************************************************************************* //
