/*--------------------------------*- C++ -*----------------------------------*\
| =========                 |                                                 |
| \\      /  F ield         | OpenFOAM: The Open Source CFD Toolbox           |
|  \\    /   O peration     | Version:  dev                                   |
|   \\  /    A nd           | Web:      www.OpenFOAM.org                      |
|    \\/     M anipulation  |                                                 |
\*---------------------------------------------------------------------------*/
FoamFile
{
    version     2.0;
    format      ascii;
    class       volScalarField;
    location    "0.145";
    object      T;
}
// * * * * * * * * * * * * * * * * * * * * * * * * * * * * * * * * * * * * * //

dimensions      [0 0 0 1 0 0 0];

internalField   nonuniform List<scalar> 
50
(
1784.35
1770.58
1756.71
1742.38
1727.84
1713.19
1698.05
1682.6
1666.77
1650.82
1634.61
1618.05
1601.27
1583.92
1566.43
1548.38
1530.13
1511.22
1492.11
1472.61
1452.74
1432.47
1411.46
1390.15
1368.35
1345.74
1322.72
1298.66
1274.32
1249.37
1223.83
1197.61
1170.64
1142.43
1113.55
1083.25
1052.12
1019.97
986.541
951.785
915.488
877.454
837.401
795.004
749.91
701.75
650.254
595.734
540.119
480.059
)
;

boundaryField
{
    wall
    {
        type            zeroGradient;
    }
    fuel
    {
        type            fixedValue;
        value           nonuniform 0();
    }
    outlet
    {
        type            inletOutlet;
        inletValue      uniform 353;
        value           uniform 353;
    }
    procBoundary3to2
    {
        type            processor;
        value           uniform 1797.85;
    }
}


// ************************************************************************* //
