/*--------------------------------*- C++ -*----------------------------------*\
| =========                 |                                                 |
| \\      /  F ield         | OpenFOAM: The Open Source CFD Toolbox           |
|  \\    /   O peration     | Version:  dev                                   |
|   \\  /    A nd           | Web:      www.OpenFOAM.org                      |
|    \\/     M anipulation  |                                                 |
\*---------------------------------------------------------------------------*/
FoamFile
{
    version     2.0;
    format      ascii;
    class       volScalarField;
    location    "0.02";
    object      A2C2HA;
}
// * * * * * * * * * * * * * * * * * * * * * * * * * * * * * * * * * * * * * //

dimensions      [0 0 0 0 0 0 0];

internalField   nonuniform List<scalar> 
250
(
9.04301e-10
3.71659e-08
2.75838e-08
2.66733e-08
2.66329e-08
2.65741e-08
2.6462e-08
2.64051e-08
2.63724e-08
1.80706e-09
2.81409e-08
1.81256e-08
1.72517e-08
1.72118e-08
1.71526e-08
1.70581e-08
1.7001e-08
1.6966e-08
2.27479e-09
2.02843e-08
1.12589e-08
1.05196e-08
1.04913e-08
1.0434e-08
1.03577e-08
1.03065e-08
1.02755e-08
2.51017e-09
1.56909e-08
7.54673e-09
6.90915e-09
6.89089e-09
6.83343e-09
6.77123e-09
6.72475e-09
6.69837e-09
2.63616e-09
1.29136e-08
5.47204e-09
4.90774e-09
4.86323e-09
4.83903e-09
4.78948e-09
4.74762e-09
4.72525e-09
2.70121e-09
1.10417e-08
4.19794e-09
3.68781e-09
3.65007e-09
3.62045e-09
3.56446e-09
3.50917e-09
3.4859e-09
2.71279e-09
9.64012e-09
3.36037e-09
2.89763e-09
2.862e-09
2.83156e-09
2.78235e-09
2.72694e-09
2.70608e-09
2.64228e-09
8.50145e-09
2.73871e-09
2.35894e-09
2.31881e-09
2.29039e-09
2.24623e-09
2.18793e-09
2.16908e-09
2.46197e-09
7.52488e-09
2.31601e-09
1.93337e-09
1.93139e-09
1.91052e-09
1.85487e-09
1.80591e-09
1.78891e-09
2.33917e-09
6.66036e-09
1.97405e-09
1.6593e-09
1.64749e-09
1.60381e-09
1.54387e-09
1.48859e-09
1.47313e-09
2.44425e-09
5.88513e-09
1.71074e-09
1.43411e-09
1.42241e-09
1.37688e-09
1.3111e-09
1.27863e-09
1.26535e-09
1.25256e-09
2.78463e-09
5.19009e-09
1.51278e-09
1.28889e-09
1.25821e-09
1.20663e-09
1.15591e-09
1.12088e-09
1.10071e-09
1.08508e-09
3.27618e-09
4.57318e-09
1.36387e-09
1.17805e-09
1.13925e-09
1.07551e-09
1.02675e-09
9.84597e-10
9.64528e-10
9.49171e-10
3.80638e-09
3.98551e-09
1.26773e-09
1.09874e-09
1.06126e-09
9.85025e-10
9.2269e-10
8.77536e-10
8.57045e-10
8.41745e-10
4.27205e-09
3.48376e-09
1.20359e-09
1.05381e-09
1.00016e-09
9.14991e-10
8.40122e-10
7.91718e-10
7.70354e-10
7.54926e-10
4.60313e-09
3.08408e-09
1.16572e-09
1.0295e-09
9.62607e-10
8.59648e-10
7.7357e-10
7.216e-10
6.98962e-10
6.83247e-10
4.77688e-09
2.71154e-09
1.15888e-09
1.02851e-09
9.40758e-10
8.15662e-10
7.19228e-10
6.63335e-10
6.39045e-10
6.22902e-10
4.81559e-09
2.42463e-09
1.18204e-09
1.04885e-09
9.34974e-10
7.83671e-10
6.74434e-10
6.14251e-10
5.87936e-10
5.71231e-10
4.77042e-09
2.25246e-09
1.23902e-09
1.09193e-09
9.43915e-10
7.65158e-10
6.3727e-10
5.72491e-10
5.4376e-10
5.26357e-10
4.70452e-09
2.16398e-09
1.33638e-09
1.16089e-09
9.68315e-10
7.56144e-10
6.10155e-10
5.36774e-10
5.05192e-10
4.86946e-10
4.68257e-09
2.16566e-09
1.48481e-09
1.26121e-09
1.01001e-09
7.5546e-10
5.89715e-10
5.06194e-10
4.71289e-10
4.52036e-10
4.76609e-09
2.27044e-09
1.70095e-09
1.40165e-09
1.07228e-09
7.64602e-10
5.75093e-10
4.80133e-10
4.41376e-10
4.20924e-10
5.01354e-09
2.50056e-09
2.00985e-09
1.59556e-09
1.16045e-09
7.84848e-10
5.66273e-10
4.58186e-10
4.14976e-10
3.93091e-10
5.48455e-09
2.89099e-09
2.46341e-09
1.86237e-09
1.28277e-09
8.18383e-10
5.63704e-10
4.42161e-10
3.91763e-10
3.6815e-10
6.24444e-09
3.49231e-09
3.09392e-09
2.22875e-09
1.4515e-09
8.68645e-10
5.6822e-10
4.30094e-10
3.71508e-10
3.45803e-10
7.36761e-09
4.37381e-09
3.98387e-09
2.77291e-09
1.68374e-09
9.40741e-10
5.81204e-10
4.22291e-10
3.56065e-10
3.28057e-10
)
;

boundaryField
{
    fuel
    {
        type            fixedValue;
        value           uniform 0;
    }
    wall
    {
        type            zeroGradient;
    }
    outlet
    {
        type            zeroGradient;
    }
    frontAndBack
    {
        type            empty;
    }
    procBoundary2to0
    {
        type            processor;
        value           nonuniform List<scalar> 
12
(
3.44094e-10
8.93647e-09
5.62102e-09
5.2126e-09
3.52922e-09
2.00085e-09
1.04173e-09
6.0472e-10
4.19256e-10
3.43201e-10
3.26262e-10
3.12789e-10
)
;
    }
    procBoundary2to3
    {
        type            processor;
        value           nonuniform List<scalar> 
25
(
2.63417e-08
1.69408e-08
1.02556e-08
6.68159e-09
4.71057e-09
3.4691e-09
2.6901e-09
2.15374e-09
1.77418e-09
1.45944e-09
1.45944e-09
1.2511e-09
1.08342e-09
9.47562e-10
8.40172e-10
7.5338e-10
6.81718e-10
6.21384e-10
5.69716e-10
5.24839e-10
4.8542e-10
4.50494e-10
4.19358e-10
3.91491e-10
3.66503e-10
)
;
    }
}


// ************************************************************************* //
