/*--------------------------------*- C++ -*----------------------------------*\
| =========                 |                                                 |
| \\      /  F ield         | OpenFOAM: The Open Source CFD Toolbox           |
|  \\    /   O peration     | Version:  dev                                   |
|   \\  /    A nd           | Web:      www.OpenFOAM.org                      |
|    \\/     M anipulation  |                                                 |
\*---------------------------------------------------------------------------*/
FoamFile
{
    version     2.0;
    format      ascii;
    class       volScalarField;
    location    "0.02";
    object      A2C2HB;
}
// * * * * * * * * * * * * * * * * * * * * * * * * * * * * * * * * * * * * * //

dimensions      [0 0 0 0 0 0 0];

internalField   nonuniform List<scalar> 
1997
(
9.86089e-10
9.80851e-10
9.73516e-10
9.67649e-10
9.61445e-10
9.56773e-10
9.53215e-10
9.49894e-10
9.46566e-10
9.43108e-10
9.39372e-10
9.35405e-10
9.3139e-10
9.27314e-10
9.2337e-10
9.19749e-10
9.16037e-10
9.13059e-10
9.83174e-10
9.77896e-10
9.70865e-10
9.65159e-10
9.59326e-10
9.54825e-10
9.51376e-10
9.48024e-10
9.44628e-10
9.40975e-10
9.37051e-10
9.3286e-10
9.2862e-10
9.24321e-10
9.20169e-10
9.16369e-10
9.12468e-10
9.0936e-10
9.06502e-10
9.04186e-10
9.02176e-10
9.00648e-10
8.99467e-10
8.98696e-10
8.983e-10
8.98298e-10
8.98688e-10
8.99463e-10
9.81816e-10
9.76515e-10
9.69719e-10
9.64184e-10
9.58719e-10
9.54391e-10
9.51048e-10
9.47652e-10
9.44177e-10
9.40377e-10
9.36257e-10
9.31831e-10
9.27359e-10
9.22828e-10
9.18457e-10
9.14405e-10
9.10303e-10
9.07045e-10
9.04061e-10
9.01634e-10
8.9953e-10
8.97938e-10
8.96708e-10
8.95905e-10
8.95493e-10
8.95491e-10
8.95897e-10
8.96703e-10
8.97858e-10
8.99442e-10
9.01502e-10
9.03911e-10
9.06835e-10
9.10088e-10
9.14107e-10
9.18121e-10
9.22462e-10
9.26971e-10
9.31415e-10
9.35816e-10
9.81961e-10
9.76646e-10
9.70085e-10
9.64737e-10
9.5965e-10
9.55479e-10
9.52238e-10
9.48782e-10
9.45216e-10
9.41251e-10
9.3692e-10
9.32241e-10
9.27523e-10
9.2274e-10
9.18146e-10
9.13881e-10
9.09579e-10
9.06162e-10
9.03045e-10
9.00507e-10
8.98304e-10
8.96648e-10
8.95367e-10
8.94531e-10
8.94104e-10
8.94101e-10
8.94524e-10
8.95361e-10
8.96573e-10
8.98222e-10
9.00376e-10
9.02893e-10
9.05953e-10
9.09366e-10
9.13579e-10
9.17801e-10
9.22363e-10
9.2712e-10
9.31806e-10
9.36456e-10
9.40815e-10
9.44795e-10
9.48394e-10
9.51871e-10
9.55237e-10
9.59565e-10
9.64835e-10
9.70351e-10
9.77247e-10
9.82759e-10
9.83632e-10
9.78285e-10
9.72019e-10
9.66829e-10
9.62118e-10
9.58096e-10
9.54947e-10
9.51441e-10
9.47748e-10
9.43597e-10
9.39039e-10
9.34089e-10
9.2911e-10
9.24059e-10
9.19228e-10
9.14738e-10
9.10222e-10
9.0664e-10
9.03379e-10
9.00725e-10
8.98416e-10
8.96693e-10
8.95359e-10
8.94488e-10
8.94044e-10
8.94041e-10
8.94481e-10
8.95352e-10
8.96621e-10
8.98339e-10
9.00592e-10
9.03225e-10
9.06431e-10
9.10013e-10
9.14429e-10
9.18872e-10
9.23668e-10
9.28691e-10
9.33634e-10
9.3855e-10
9.43123e-10
9.47288e-10
9.51011e-10
9.5457e-10
9.57801e-10
9.61968e-10
9.66858e-10
9.7219e-10
9.78799e-10
9.84318e-10
9.86852e-10
9.81476e-10
9.75521e-10
9.70519e-10
9.66192e-10
9.62282e-10
9.59192e-10
9.55585e-10
9.51764e-10
9.47408e-10
9.42608e-10
9.37436e-10
9.32154e-10
9.2679e-10
9.21696e-10
9.16972e-10
9.12227e-10
9.08472e-10
9.05057e-10
9.0228e-10
8.9986e-10
8.98067e-10
8.96677e-10
8.9577e-10
8.95307e-10
8.95305e-10
8.95763e-10
8.96668e-10
8.97997e-10
8.99786e-10
9.02146e-10
9.049e-10
9.08261e-10
9.12019e-10
9.16655e-10
9.2133e-10
9.26382e-10
9.31718e-10
9.36958e-10
9.42094e-10
9.46897e-10
9.51268e-10
9.55115e-10
9.58755e-10
9.61925e-10
9.65968e-10
9.70476e-10
9.75614e-10
9.81894e-10
9.87437e-10
9.91647e-10
9.86243e-10
9.80607e-10
9.7572e-10
9.71764e-10
9.67967e-10
9.6494e-10
9.61229e-10
9.57258e-10
9.52674e-10
9.47616e-10
9.42139e-10
9.36563e-10
9.30896e-10
9.2554e-10
9.20572e-10
9.15661e-10
9.11714e-10
9.08122e-10
9.05204e-10
9.02658e-10
9.00785e-10
8.9933e-10
8.98381e-10
8.97897e-10
8.97894e-10
8.98374e-10
8.9932e-10
9.00717e-10
9.02587e-10
9.05069e-10
9.07962e-10
9.11501e-10
9.15454e-10
9.20247e-10
9.25162e-10
9.30471e-10
9.3611e-10
9.41638e-10
9.47075e-10
9.52127e-10
9.56726e-10
9.6072e-10
9.64458e-10
9.67561e-10
9.71482e-10
9.75626e-10
9.80623e-10
9.86573e-10
9.92142e-10
9.98041e-10
9.92735e-10
9.8742e-10
9.82663e-10
9.79072e-10
9.75195e-10
9.72194e-10
9.68534e-10
9.64371e-10
9.59504e-10
9.54141e-10
9.48294e-10
9.4237e-10
9.3637e-10
9.30741e-10
9.25524e-10
9.20349e-10
9.16221e-10
9.12453e-10
9.09397e-10
9.06733e-10
9.04782e-10
9.03265e-10
9.02276e-10
9.01771e-10
9.01769e-10
9.02269e-10
9.03253e-10
9.04714e-10
9.06664e-10
9.0926e-10
9.1229e-10
9.16003e-10
9.20141e-10
9.25186e-10
9.30357e-10
9.35922e-10
9.41902e-10
9.47772e-10
9.53573e-10
9.58921e-10
9.63803e-10
9.67984e-10
9.71669e-10
9.74726e-10
9.78733e-10
9.82497e-10
9.87373e-10
9.92979e-10
9.98456e-10
1.00606e-09
1.00071e-09
9.9568e-10
9.91324e-10
9.88038e-10
9.84201e-10
9.80936e-10
9.77132e-10
9.72771e-10
9.67619e-10
9.61965e-10
9.55771e-10
9.49521e-10
9.43178e-10
9.37268e-10
9.3181e-10
9.26341e-10
9.2203e-10
9.18078e-10
9.1496e-10
9.12162e-10
9.10122e-10
9.08533e-10
9.07498e-10
9.06971e-10
9.06968e-10
9.07491e-10
9.08521e-10
9.10054e-10
9.12097e-10
9.14821e-10
9.17909e-10
9.21806e-10
9.26131e-10
9.31457e-10
9.36872e-10
9.42715e-10
9.49035e-10
9.55225e-10
9.61371e-10
9.67003e-10
9.72169e-10
9.76545e-10
9.80369e-10
9.83685e-10
9.87646e-10
9.9109e-10
9.95576e-10
1.00089e-09
1.0064e-09
1.01602e-09
1.01045e-09
1.00553e-09
1.00126e-09
9.98255e-10
9.94424e-10
9.91163e-10
9.87263e-10
9.82718e-10
9.77261e-10
9.71304e-10
9.6473e-10
9.58124e-10
9.51402e-10
9.45181e-10
9.39451e-10
9.33644e-10
9.29126e-10
9.24963e-10
9.21696e-10
9.18773e-10
9.16648e-10
9.14992e-10
9.13913e-10
9.13364e-10
9.13361e-10
9.13906e-10
9.14978e-10
9.16579e-10
9.18709e-10
9.21553e-10
9.24789e-10
9.28896e-10
9.3343e-10
9.39084e-10
9.44766e-10
9.5092e-10
9.57619e-10
9.64158e-10
9.70681e-10
9.7661e-10
9.82077e-10
9.86632e-10
9.90543e-10
9.93867e-10
9.97817e-10
1.00097e-09
1.00538e-09
1.01054e-09
1.01628e-09
1.02773e-09
1.02207e-09
1.01698e-09
1.01272e-09
1.00996e-09
1.00609e-09
1.00309e-09
9.99011e-10
9.94214e-10
9.88395e-10
9.82109e-10
9.75136e-10
9.68166e-10
9.61062e-10
9.5453e-10
9.48528e-10
9.42371e-10
9.37658e-10
9.3328e-10
9.29856e-10
9.26794e-10
9.24574e-10
9.22845e-10
9.21719e-10
9.21145e-10
9.21143e-10
9.21711e-10
9.2283e-10
9.24505e-10
9.26727e-10
9.2971e-10
9.33101e-10
9.37419e-10
9.42153e-10
9.48147e-10
9.54097e-10
9.60561e-10
9.67646e-10
9.74541e-10
9.8146e-10
9.87715e-10
9.93541e-10
9.98342e-10
1.00243e-09
1.0055e-09
1.00948e-09
1.01237e-09
1.01677e-09
1.02211e-09
1.02794e-09
1.04071e-09
1.03492e-09
1.03004e-09
1.02599e-09
1.02311e-09
1.01948e-09
1.01606e-09
1.01213e-09
1.0069e-09
1.00082e-09
9.93837e-10
9.86457e-10
9.79119e-10
9.71633e-10
9.64795e-10
9.58518e-10
9.52033e-10
9.47124e-10
9.42542e-10
9.38969e-10
9.35769e-10
9.33457e-10
9.31657e-10
9.30485e-10
9.29888e-10
9.29885e-10
9.30477e-10
9.3164e-10
9.33389e-10
9.35699e-10
9.38819e-10
9.42354e-10
9.46879e-10
9.51809e-10
9.58124e-10
9.64345e-10
9.71111e-10
9.78586e-10
9.8584e-10
9.93165e-10
1.00012e-09
1.00619e-09
1.01143e-09
1.01536e-09
1.01883e-09
1.02258e-09
1.02558e-09
1.02976e-09
1.03491e-09
1.04087e-09
1.05532e-09
1.04954e-09
1.045e-09
1.04089e-09
1.03807e-09
1.03433e-09
1.03074e-09
1.02611e-09
1.02054e-09
1.01407e-09
1.00675e-09
9.99018e-10
9.91339e-10
9.83483e-10
9.76338e-10
9.69766e-10
9.62962e-10
9.57852e-10
9.53061e-10
9.49339e-10
9.4599e-10
9.43583e-10
9.4171e-10
9.40492e-10
9.39871e-10
9.39868e-10
9.40483e-10
9.41692e-10
9.43516e-10
9.45919e-10
9.49186e-10
9.52868e-10
9.57602e-10
9.62735e-10
9.69358e-10
9.75868e-10
9.82936e-10
9.90788e-10
9.98372e-10
1.00604e-09
1.01334e-09
1.01981e-09
1.02538e-09
1.03e-09
1.03365e-09
1.03744e-09
1.04042e-09
1.04467e-09
1.04944e-09
1.05543e-09
1.07192e-09
1.06554e-09
1.06154e-09
1.05723e-09
1.05392e-09
1.04999e-09
1.04616e-09
1.0413e-09
1.03555e-09
1.02873e-09
1.02105e-09
1.0129e-09
1.00482e-09
9.96559e-10
9.89092e-10
9.82199e-10
9.75078e-10
9.69751e-10
9.64748e-10
9.60879e-10
9.57376e-10
9.5487e-10
9.52919e-10
9.51653e-10
9.51008e-10
9.51004e-10
9.51644e-10
9.52901e-10
9.54801e-10
9.57301e-10
9.6072e-10
9.64547e-10
9.69493e-10
9.7483e-10
9.81794e-10
9.88598e-10
9.95994e-10
1.00425e-09
1.01223e-09
1.02032e-09
1.02797e-09
1.03478e-09
1.04053e-09
1.04539e-09
1.04927e-09
1.05325e-09
1.05672e-09
1.06117e-09
1.06542e-09
1.07199e-09
1.09033e-09
1.08366e-09
1.07945e-09
1.07438e-09
1.07097e-09
1.06676e-09
1.06288e-09
1.05789e-09
1.05173e-09
1.04444e-09
1.03633e-09
1.02773e-09
1.01923e-09
1.01058e-09
1.00277e-09
9.95555e-10
9.8813e-10
9.82569e-10
9.77364e-10
9.73344e-10
9.69684e-10
9.6708e-10
9.65049e-10
9.63737e-10
9.63066e-10
9.63062e-10
9.63726e-10
9.65031e-10
9.67007e-10
9.69604e-10
9.7318e-10
9.77156e-10
9.82303e-10
9.87861e-10
9.95148e-10
1.00226e-09
1.01e-09
1.01864e-09
1.02704e-09
1.03558e-09
1.04366e-09
1.05094e-09
1.05709e-09
1.06207e-09
1.066e-09
1.07025e-09
1.07383e-09
1.07908e-09
1.08351e-09
1.09037e-09
1.10964e-09
1.10261e-09
1.09818e-09
1.0927e-09
1.08909e-09
1.08453e-09
1.08029e-09
1.0749e-09
1.06829e-09
1.06053e-09
1.05197e-09
1.04292e-09
1.034e-09
1.02497e-09
1.01682e-09
1.00929e-09
1.00159e-09
9.95782e-10
9.9039e-10
9.86223e-10
9.82407e-10
9.79709e-10
9.776e-10
9.76243e-10
9.75548e-10
9.75543e-10
9.7623e-10
9.77583e-10
9.79631e-10
9.82321e-10
9.86052e-10
9.90174e-10
9.95509e-10
1.0013e-09
1.00888e-09
1.0163e-09
1.02438e-09
1.03339e-09
1.04221e-09
1.0512e-09
1.05973e-09
1.06747e-09
1.07407e-09
1.07945e-09
1.08384e-09
1.08834e-09
1.09212e-09
1.09779e-09
1.10243e-09
1.10966e-09
1.13076e-09
1.12287e-09
1.11808e-09
1.11207e-09
1.10815e-09
1.10313e-09
1.09847e-09
1.09262e-09
1.08553e-09
1.07726e-09
1.06858e-09
1.05905e-09
1.04968e-09
1.04025e-09
1.03172e-09
1.02383e-09
1.01584e-09
1.00975e-09
1.00415e-09
9.99808e-10
9.95808e-10
9.93e-10
9.908e-10
9.89389e-10
9.88665e-10
9.8866e-10
9.89375e-10
9.90786e-10
9.92918e-10
9.95718e-10
9.9963e-10
1.00393e-09
1.00947e-09
1.01553e-09
1.02341e-09
1.03118e-09
1.03965e-09
1.04905e-09
1.05832e-09
1.06779e-09
1.07644e-09
1.08469e-09
1.09178e-09
1.09761e-09
1.10241e-09
1.10738e-09
1.11147e-09
1.11768e-09
1.12266e-09
1.13078e-09
1.15355e-09
1.14507e-09
1.13902e-09
1.13235e-09
1.128e-09
1.12283e-09
1.11731e-09
1.11089e-09
1.10326e-09
1.09447e-09
1.08532e-09
1.07535e-09
1.06553e-09
1.05574e-09
1.04684e-09
1.03864e-09
1.03039e-09
1.02407e-09
1.01829e-09
1.0138e-09
1.01002e-09
1.00711e-09
1.00483e-09
1.00337e-09
1.00262e-09
1.00261e-09
1.00335e-09
1.00482e-09
1.00702e-09
1.00992e-09
1.01361e-09
1.01806e-09
1.02377e-09
1.03007e-09
1.03821e-09
1.0463e-09
1.05512e-09
1.06488e-09
1.0746e-09
1.08451e-09
1.09363e-09
1.10241e-09
1.11003e-09
1.11643e-09
1.12208e-09
1.1272e-09
1.13173e-09
1.13861e-09
1.14483e-09
1.15357e-09
1.1768e-09
1.16762e-09
1.16081e-09
1.15375e-09
1.14845e-09
1.14263e-09
1.13651e-09
1.12966e-09
1.12153e-09
1.11198e-09
1.10233e-09
1.09194e-09
1.08164e-09
1.07154e-09
1.06238e-09
1.0538e-09
1.04529e-09
1.03869e-09
1.03274e-09
1.0281e-09
1.02419e-09
1.02119e-09
1.01884e-09
1.01734e-09
1.01656e-09
1.01655e-09
1.01732e-09
1.01883e-09
1.0211e-09
1.02409e-09
1.02791e-09
1.03251e-09
1.03839e-09
1.04494e-09
1.05336e-09
1.06183e-09
1.07088e-09
1.08099e-09
1.09118e-09
1.10152e-09
1.11112e-09
1.12066e-09
1.12877e-09
1.13562e-09
1.14188e-09
1.14763e-09
1.15312e-09
1.16042e-09
1.16735e-09
1.17682e-09
1.20104e-09
1.19106e-09
1.18344e-09
1.17534e-09
1.16944e-09
1.16318e-09
1.15594e-09
1.14899e-09
1.14026e-09
1.13009e-09
1.11945e-09
1.10897e-09
1.09808e-09
1.08742e-09
1.07791e-09
1.06902e-09
1.06028e-09
1.05345e-09
1.04734e-09
1.04256e-09
1.03851e-09
1.03543e-09
1.03301e-09
1.03146e-09
1.03066e-09
1.03065e-09
1.03144e-09
1.033e-09
1.03533e-09
1.0384e-09
1.04236e-09
1.0471e-09
1.05313e-09
1.05992e-09
1.06856e-09
1.07735e-09
1.08676e-09
1.09743e-09
1.10821e-09
1.11863e-09
1.12922e-09
1.13938e-09
1.14808e-09
1.15503e-09
1.16241e-09
1.16861e-09
1.17472e-09
1.18301e-09
1.19077e-09
1.20108e-09
1.22611e-09
1.21523e-09
1.20639e-09
1.19732e-09
1.19107e-09
1.18341e-09
1.17591e-09
1.16832e-09
1.15893e-09
1.14812e-09
1.13693e-09
1.12562e-09
1.11465e-09
1.10366e-09
1.09378e-09
1.08457e-09
1.07562e-09
1.06854e-09
1.06228e-09
1.05733e-09
1.05312e-09
1.04995e-09
1.04744e-09
1.04585e-09
1.04502e-09
1.04502e-09
1.04582e-09
1.04743e-09
1.04983e-09
1.053e-09
1.05712e-09
1.06203e-09
1.06822e-09
1.07524e-09
1.0841e-09
1.09322e-09
1.10298e-09
1.11399e-09
1.12485e-09
1.13611e-09
1.14725e-09
1.15804e-09
1.16741e-09
1.17498e-09
1.18265e-09
1.19022e-09
1.19668e-09
1.206e-09
1.21491e-09
1.22617e-09
1.25179e-09
1.24005e-09
1.22957e-09
1.21996e-09
1.21267e-09
1.20382e-09
1.19577e-09
1.18742e-09
1.17683e-09
1.16538e-09
1.15365e-09
1.14196e-09
1.13049e-09
1.11918e-09
1.10899e-09
1.09949e-09
1.09033e-09
1.08304e-09
1.07665e-09
1.07157e-09
1.06723e-09
1.06398e-09
1.06142e-09
1.05978e-09
1.05894e-09
1.05893e-09
1.05976e-09
1.0614e-09
1.06386e-09
1.06711e-09
1.07135e-09
1.0764e-09
1.08271e-09
1.08994e-09
1.09902e-09
1.10842e-09
1.1185e-09
1.12982e-09
1.14118e-09
1.15282e-09
1.16451e-09
1.17594e-09
1.18651e-09
1.19483e-09
1.20304e-09
1.21182e-09
1.21935e-09
1.22923e-09
1.23968e-09
1.25188e-09
1.27822e-09
1.26581e-09
1.25324e-09
1.2426e-09
1.23338e-09
1.2236e-09
1.21469e-09
1.20555e-09
1.19425e-09
1.18228e-09
1.17005e-09
1.15777e-09
1.14606e-09
1.13443e-09
1.12393e-09
1.11416e-09
1.10477e-09
1.09728e-09
1.09075e-09
1.08552e-09
1.08107e-09
1.07774e-09
1.0751e-09
1.07343e-09
1.07256e-09
1.07255e-09
1.0734e-09
1.07509e-09
1.07761e-09
1.08093e-09
1.0853e-09
1.09048e-09
1.09693e-09
1.10437e-09
1.11368e-09
1.12336e-09
1.13375e-09
1.14538e-09
1.15699e-09
1.16922e-09
1.18139e-09
1.19336e-09
1.20464e-09
1.21375e-09
1.22284e-09
1.23256e-09
1.242e-09
1.25285e-09
1.26542e-09
1.27829e-09
1.30535e-09
1.29169e-09
1.27706e-09
1.26484e-09
1.25361e-09
1.24282e-09
1.23297e-09
1.223e-09
1.21096e-09
1.19833e-09
1.18557e-09
1.17288e-09
1.16074e-09
1.14882e-09
1.13805e-09
1.128e-09
1.11847e-09
1.11077e-09
1.10414e-09
1.09879e-09
1.09423e-09
1.09084e-09
1.08815e-09
1.08644e-09
1.08556e-09
1.08554e-09
1.08641e-09
1.08814e-09
1.0907e-09
1.09409e-09
1.09856e-09
1.10386e-09
1.11042e-09
1.11805e-09
1.12752e-09
1.13747e-09
1.14814e-09
1.16005e-09
1.1721e-09
1.18473e-09
1.19745e-09
1.21007e-09
1.2221e-09
1.23203e-09
1.24209e-09
1.25283e-09
1.26429e-09
1.27665e-09
1.29133e-09
1.30546e-09
1.33244e-09
1.31654e-09
1.30052e-09
1.28578e-09
1.27316e-09
1.26144e-09
1.25067e-09
1.23958e-09
1.22677e-09
1.21349e-09
1.20019e-09
1.18709e-09
1.17456e-09
1.16236e-09
1.15134e-09
1.14101e-09
1.13141e-09
1.12349e-09
1.11676e-09
1.1113e-09
1.10666e-09
1.1032e-09
1.10048e-09
1.09873e-09
1.09783e-09
1.09781e-09
1.0987e-09
1.10045e-09
1.10306e-09
1.10651e-09
1.11107e-09
1.11648e-09
1.12313e-09
1.13097e-09
1.14054e-09
1.15076e-09
1.16169e-09
1.17386e-09
1.18632e-09
1.19936e-09
1.21261e-09
1.22589e-09
1.23869e-09
1.24974e-09
1.26073e-09
1.27239e-09
1.28531e-09
1.30013e-09
1.31624e-09
1.33259e-09
1.35838e-09
1.34087e-09
1.32273e-09
1.30591e-09
1.29181e-09
1.27895e-09
1.26706e-09
1.2551e-09
1.2415e-09
1.22757e-09
1.21374e-09
1.20024e-09
1.18735e-09
1.17489e-09
1.16364e-09
1.15306e-09
1.14359e-09
1.13549e-09
1.12866e-09
1.12308e-09
1.11836e-09
1.11484e-09
1.11207e-09
1.1103e-09
1.10937e-09
1.10936e-09
1.11026e-09
1.11204e-09
1.1147e-09
1.1182e-09
1.12284e-09
1.12837e-09
1.13511e-09
1.14317e-09
1.15256e-09
1.16306e-09
1.17422e-09
1.18665e-09
1.19947e-09
1.21292e-09
1.2267e-09
1.24063e-09
1.25422e-09
1.26614e-09
1.27827e-09
1.29105e-09
1.30545e-09
1.32234e-09
1.34066e-09
1.35858e-09
1.38372e-09
1.36443e-09
1.34413e-09
1.32488e-09
1.30929e-09
1.29532e-09
1.28221e-09
1.26937e-09
1.25523e-09
1.24065e-09
1.22628e-09
1.21237e-09
1.1991e-09
1.18637e-09
1.17488e-09
1.164e-09
1.15447e-09
1.14619e-09
1.13929e-09
1.13362e-09
1.12884e-09
1.12528e-09
1.12247e-09
1.12067e-09
1.11973e-09
1.11972e-09
1.12063e-09
1.12244e-09
1.12513e-09
1.12868e-09
1.13337e-09
1.139e-09
1.14582e-09
1.15405e-09
1.16348e-09
1.17429e-09
1.18571e-09
1.1984e-09
1.21161e-09
1.22547e-09
1.2398e-09
1.25438e-09
1.26851e-09
1.2813e-09
1.29465e-09
1.3086e-09
1.32446e-09
1.34375e-09
1.36429e-09
1.38398e-09
1.40845e-09
1.38727e-09
1.36447e-09
1.34264e-09
1.32547e-09
1.31036e-09
1.29594e-09
1.28223e-09
1.26733e-09
1.25212e-09
1.23725e-09
1.22297e-09
1.20938e-09
1.19644e-09
1.18478e-09
1.17365e-09
1.16411e-09
1.15567e-09
1.14871e-09
1.14315e-09
1.13832e-09
1.13471e-09
1.13188e-09
1.13004e-09
1.12909e-09
1.12907e-09
1.13e-09
1.13183e-09
1.13456e-09
1.13815e-09
1.14289e-09
1.14841e-09
1.15529e-09
1.16369e-09
1.17313e-09
1.18419e-09
1.19578e-09
1.20869e-09
1.22222e-09
1.23645e-09
1.25128e-09
1.2665e-09
1.2814e-09
1.29506e-09
1.30992e-09
1.32482e-09
1.34228e-09
1.36411e-09
1.38723e-09
1.40876e-09
1.43259e-09
1.40857e-09
1.38345e-09
1.35935e-09
1.34006e-09
1.32388e-09
1.30819e-09
1.29368e-09
1.27806e-09
1.26223e-09
1.24687e-09
1.2321e-09
1.21823e-09
1.20509e-09
1.19329e-09
1.18193e-09
1.17239e-09
1.16381e-09
1.1568e-09
1.15119e-09
1.14632e-09
1.14267e-09
1.13982e-09
1.13796e-09
1.137e-09
1.13698e-09
1.13792e-09
1.13977e-09
1.14252e-09
1.14614e-09
1.15092e-09
1.1565e-09
1.16344e-09
1.17197e-09
1.18139e-09
1.19271e-09
1.20444e-09
1.21754e-09
1.23137e-09
1.24608e-09
1.26141e-09
1.27725e-09
1.29287e-09
1.30732e-09
1.32347e-09
1.33947e-09
1.35908e-09
1.38308e-09
1.40865e-09
1.43296e-09
1.45475e-09
1.42849e-09
1.40083e-09
1.37426e-09
1.35321e-09
1.33604e-09
1.31898e-09
1.30362e-09
1.28702e-09
1.2706e-09
1.25478e-09
1.23971e-09
1.2256e-09
1.21232e-09
1.20042e-09
1.18884e-09
1.17933e-09
1.17062e-09
1.16358e-09
1.15792e-09
1.15303e-09
1.14935e-09
1.14649e-09
1.14461e-09
1.14364e-09
1.14362e-09
1.14456e-09
1.14643e-09
1.1492e-09
1.15284e-09
1.15765e-09
1.16327e-09
1.17025e-09
1.17891e-09
1.18829e-09
1.19985e-09
1.21167e-09
1.22493e-09
1.23899e-09
1.254e-09
1.2698e-09
1.28624e-09
1.30285e-09
1.31814e-09
1.33569e-09
1.35267e-09
1.37405e-09
1.40051e-09
1.42878e-09
1.45521e-09
1.47543e-09
1.44675e-09
1.41674e-09
1.3875e-09
1.36478e-09
1.34643e-09
1.32777e-09
1.31159e-09
1.29438e-09
1.27743e-09
1.26119e-09
1.24582e-09
1.23146e-09
1.21804e-09
1.20607e-09
1.19424e-09
1.18477e-09
1.17598e-09
1.1689e-09
1.16322e-09
1.1583e-09
1.15461e-09
1.15172e-09
1.14984e-09
1.14886e-09
1.14884e-09
1.14978e-09
1.15166e-09
1.15444e-09
1.15811e-09
1.16294e-09
1.16859e-09
1.1756e-09
1.18435e-09
1.1937e-09
1.20548e-09
1.2174e-09
1.2308e-09
1.24511e-09
1.26043e-09
1.27665e-09
1.29362e-09
1.31086e-09
1.32697e-09
1.34615e-09
1.3643e-09
1.38736e-09
1.41643e-09
1.44716e-09
1.47597e-09
1.49453e-09
1.46365e-09
1.43042e-09
1.39905e-09
1.37415e-09
1.35466e-09
1.33479e-09
1.31795e-09
1.30004e-09
1.28253e-09
1.26587e-09
1.25021e-09
1.23564e-09
1.22209e-09
1.21006e-09
1.19804e-09
1.18859e-09
1.17975e-09
1.17266e-09
1.16696e-09
1.16201e-09
1.15831e-09
1.15542e-09
1.15352e-09
1.15253e-09
1.15251e-09
1.15346e-09
1.15534e-09
1.15814e-09
1.16182e-09
1.16667e-09
1.17234e-09
1.17937e-09
1.18818e-09
1.19751e-09
1.20947e-09
1.22146e-09
1.23499e-09
1.24952e-09
1.26513e-09
1.28177e-09
1.2993e-09
1.31725e-09
1.33404e-09
1.35445e-09
1.37373e-09
1.39895e-09
1.43021e-09
1.46416e-09
1.49512e-09
1.51228e-09
1.47827e-09
1.44249e-09
1.40861e-09
1.38164e-09
1.3609e-09
1.34005e-09
1.32235e-09
1.30377e-09
1.28576e-09
1.26873e-09
1.2528e-09
1.23805e-09
1.2244e-09
1.21231e-09
1.20016e-09
1.19071e-09
1.18186e-09
1.17476e-09
1.16905e-09
1.16409e-09
1.16038e-09
1.15748e-09
1.15558e-09
1.15459e-09
1.15457e-09
1.15552e-09
1.15741e-09
1.16021e-09
1.16389e-09
1.16876e-09
1.17444e-09
1.18148e-09
1.19031e-09
1.19963e-09
1.21172e-09
1.22378e-09
1.23742e-09
1.25214e-09
1.268e-09
1.28502e-09
1.30307e-09
1.32169e-09
1.33936e-09
1.36076e-09
1.38128e-09
1.40857e-09
1.44237e-09
1.47885e-09
1.51292e-09
1.52763e-09
1.49107e-09
1.45222e-09
1.41608e-09
1.38719e-09
1.36526e-09
1.34345e-09
1.32497e-09
1.30576e-09
1.28727e-09
1.26989e-09
1.25371e-09
1.23879e-09
1.22506e-09
1.21295e-09
1.20063e-09
1.19125e-09
1.1824e-09
1.1753e-09
1.16959e-09
1.16461e-09
1.16091e-09
1.15801e-09
1.1561e-09
1.15511e-09
1.15508e-09
1.15604e-09
1.15792e-09
1.16073e-09
1.16441e-09
1.1693e-09
1.17497e-09
1.18201e-09
1.19086e-09
1.20011e-09
1.21237e-09
1.22445e-09
1.23818e-09
1.25307e-09
1.26917e-09
1.28654e-09
1.30508e-09
1.32434e-09
1.34283e-09
1.36519e-09
1.3869e-09
1.41611e-09
1.45219e-09
1.49169e-09
1.52876e-09
1.54094e-09
1.50164e-09
1.4599e-09
1.42156e-09
1.39078e-09
1.36763e-09
1.3451e-09
1.32577e-09
1.30595e-09
1.28703e-09
1.26934e-09
1.25294e-09
1.2379e-09
1.22411e-09
1.21197e-09
1.19953e-09
1.1902e-09
1.18139e-09
1.17429e-09
1.16859e-09
1.1636e-09
1.15991e-09
1.157e-09
1.1551e-09
1.1541e-09
1.15408e-09
1.15503e-09
1.15692e-09
1.15973e-09
1.16339e-09
1.16829e-09
1.17397e-09
1.181e-09
1.18981e-09
1.19902e-09
1.21139e-09
1.22351e-09
1.2373e-09
1.25232e-09
1.26864e-09
1.28633e-09
1.3053e-09
1.32518e-09
1.34454e-09
1.36765e-09
1.39056e-09
1.42167e-09
1.45996e-09
1.50232e-09
1.54215e-09
1.55216e-09
1.51012e-09
1.46541e-09
1.42492e-09
1.39252e-09
1.36798e-09
1.34497e-09
1.3248e-09
1.30443e-09
1.28511e-09
1.26715e-09
1.25055e-09
1.2354e-09
1.22156e-09
1.20939e-09
1.1969e-09
1.18763e-09
1.17883e-09
1.17178e-09
1.16607e-09
1.16108e-09
1.15741e-09
1.1545e-09
1.1526e-09
1.15161e-09
1.15158e-09
1.15253e-09
1.15441e-09
1.15722e-09
1.16087e-09
1.16577e-09
1.17145e-09
1.17844e-09
1.18723e-09
1.19638e-09
1.20886e-09
1.22098e-09
1.23482e-09
1.24996e-09
1.26646e-09
1.28443e-09
1.30381e-09
1.32425e-09
1.34447e-09
1.36809e-09
1.39237e-09
1.42507e-09
1.46563e-09
1.51085e-09
1.55349e-09
1.56129e-09
1.51613e-09
1.46881e-09
1.42643e-09
1.39244e-09
1.36649e-09
1.34305e-09
1.32213e-09
1.30125e-09
1.28157e-09
1.26337e-09
1.24659e-09
1.23136e-09
1.2175e-09
1.20532e-09
1.19277e-09
1.18358e-09
1.17475e-09
1.16775e-09
1.16206e-09
1.15708e-09
1.15342e-09
1.15052e-09
1.14863e-09
1.14763e-09
1.1476e-09
1.14855e-09
1.15042e-09
1.15322e-09
1.15686e-09
1.16175e-09
1.16743e-09
1.17437e-09
1.18316e-09
1.19228e-09
1.2048e-09
1.21692e-09
1.2308e-09
1.24603e-09
1.26268e-09
1.2809e-09
1.30065e-09
1.32161e-09
1.34261e-09
1.3667e-09
1.39234e-09
1.42663e-09
1.4692e-09
1.5169e-09
1.56277e-09
1.56799e-09
1.52027e-09
1.47036e-09
1.4257e-09
1.39067e-09
1.36327e-09
1.33942e-09
1.31783e-09
1.29648e-09
1.27648e-09
1.25807e-09
1.24114e-09
1.22584e-09
1.21197e-09
1.19979e-09
1.18724e-09
1.17811e-09
1.16932e-09
1.16235e-09
1.15668e-09
1.15172e-09
1.14808e-09
1.14519e-09
1.1433e-09
1.14231e-09
1.14228e-09
1.14323e-09
1.14509e-09
1.14788e-09
1.1515e-09
1.15637e-09
1.16203e-09
1.16892e-09
1.17768e-09
1.18676e-09
1.19927e-09
1.21141e-09
1.2253e-09
1.2406e-09
1.25739e-09
1.27583e-09
1.29591e-09
1.31734e-09
1.33904e-09
1.36355e-09
1.39065e-09
1.42594e-09
1.47091e-09
1.52107e-09
1.56963e-09
1.57268e-09
1.52196e-09
1.47001e-09
1.42312e-09
1.38727e-09
1.35836e-09
1.33416e-09
1.31197e-09
1.29021e-09
1.26993e-09
1.25134e-09
1.23428e-09
1.21894e-09
1.20507e-09
1.19287e-09
1.18038e-09
1.17129e-09
1.16255e-09
1.15562e-09
1.14998e-09
1.14506e-09
1.14143e-09
1.13854e-09
1.13668e-09
1.13569e-09
1.13566e-09
1.1366e-09
1.13845e-09
1.14123e-09
1.14484e-09
1.14967e-09
1.15531e-09
1.16215e-09
1.17087e-09
1.17991e-09
1.19236e-09
1.20453e-09
1.21842e-09
1.23377e-09
1.25067e-09
1.26929e-09
1.28966e-09
1.31152e-09
1.33383e-09
1.35872e-09
1.38734e-09
1.4234e-09
1.47076e-09
1.52277e-09
1.57451e-09
1.57498e-09
1.52169e-09
1.46798e-09
1.41891e-09
1.38211e-09
1.35196e-09
1.32736e-09
1.30466e-09
1.28253e-09
1.262e-09
1.24328e-09
1.2261e-09
1.21073e-09
1.19688e-09
1.1847e-09
1.17223e-09
1.16321e-09
1.15455e-09
1.14765e-09
1.14203e-09
1.13716e-09
1.13356e-09
1.13068e-09
1.12882e-09
1.12784e-09
1.12781e-09
1.12874e-09
1.13059e-09
1.13335e-09
1.13694e-09
1.14172e-09
1.14734e-09
1.15415e-09
1.1628e-09
1.17176e-09
1.18421e-09
1.19635e-09
1.21023e-09
1.22561e-09
1.2426e-09
1.26138e-09
1.282e-09
1.30424e-09
1.32708e-09
1.35238e-09
1.38229e-09
1.41925e-09
1.46891e-09
1.52248e-09
1.57702e-09
1.57511e-09
1.51984e-09
1.46378e-09
1.41322e-09
1.37534e-09
1.34414e-09
1.31913e-09
1.29599e-09
1.27354e-09
1.25281e-09
1.23397e-09
1.2167e-09
1.20132e-09
1.1875e-09
1.17536e-09
1.16289e-09
1.15397e-09
1.14538e-09
1.13852e-09
1.13294e-09
1.12812e-09
1.12453e-09
1.12167e-09
1.11983e-09
1.11885e-09
1.11882e-09
1.11975e-09
1.12158e-09
1.12432e-09
1.1279e-09
1.13263e-09
1.13822e-09
1.14498e-09
1.15357e-09
1.16243e-09
1.17489e-09
1.18699e-09
1.20084e-09
1.21624e-09
1.23328e-09
1.25219e-09
1.27303e-09
1.29561e-09
1.31889e-09
1.34461e-09
1.37565e-09
1.41361e-09
1.46493e-09
1.52065e-09
1.57733e-09
1.57348e-09
1.51616e-09
1.45799e-09
1.40565e-09
1.36713e-09
1.33505e-09
1.30956e-09
1.28607e-09
1.26335e-09
1.24244e-09
1.22353e-09
)
;

boundaryField
{
    fuel
    {
        type            fixedValue;
        value           nonuniform 0();
    }
    wall
    {
        type            zeroGradient;
    }
    outlet
    {
        type            zeroGradient;
    }
    frontAndBack
    {
        type            empty;
    }
    procBoundary2to0
    {
        type            processor;
        value           nonuniform List<scalar> 
53
(
9.89996e-10
9.84859e-10
9.77385e-10
9.71416e-10
9.64983e-10
9.6019e-10
9.56551e-10
9.53273e-10
9.50019e-10
9.4669e-10
9.43125e-10
9.39361e-10
9.35544e-10
9.31655e-10
9.27895e-10
9.2445e-10
9.20925e-10
9.18072e-10
9.10353e-10
9.10353e-10
9.08139e-10
9.06215e-10
9.04747e-10
9.0361e-10
9.02869e-10
9.02487e-10
9.02485e-10
9.02861e-10
9.03607e-10
9.00619e-10
9.00619e-10
9.02136e-10
9.04101e-10
9.06399e-10
9.09185e-10
9.12279e-10
9.16102e-10
9.19859e-10
9.23977e-10
9.28248e-10
9.32455e-10
9.36613e-10
9.39949e-10
9.39949e-10
9.43748e-10
9.47244e-10
9.5065e-10
9.54098e-10
9.58542e-10
9.64128e-10
9.6981e-10
9.76849e-10
9.82309e-10
)
;
    }
    procBoundary2to3
    {
        type            processor;
        value           nonuniform List<scalar> 
51
(
1.20653e-09
1.19119e-09
1.17744e-09
1.16535e-09
1.15296e-09
1.14412e-09
1.13562e-09
1.12881e-09
1.12329e-09
1.11853e-09
1.11497e-09
1.11213e-09
1.1103e-09
1.10933e-09
1.1093e-09
1.11022e-09
1.11203e-09
1.11475e-09
1.11831e-09
1.12298e-09
1.12852e-09
1.13522e-09
1.14373e-09
1.15247e-09
1.16492e-09
1.17694e-09
1.19072e-09
1.20609e-09
1.22315e-09
1.24212e-09
1.26309e-09
1.2859e-09
1.30949e-09
1.33562e-09
1.36749e-09
1.40584e-09
1.45891e-09
1.51642e-09
1.57502e-09
1.56884e-09
1.51053e-09
1.45006e-09
1.3967e-09
1.35731e-09
1.3249e-09
1.29889e-09
1.2752e-09
1.2523e-09
1.2313e-09
1.20653e-09
1.21238e-09
)
;
    }
}


// ************************************************************************* //
