/*--------------------------------*- C++ -*----------------------------------*\
| =========                 |                                                 |
| \\      /  F ield         | OpenFOAM: The Open Source CFD Toolbox           |
|  \\    /   O peration     | Version:  dev                                   |
|   \\  /    A nd           | Web:      www.OpenFOAM.org                      |
|    \\/     M anipulation  |                                                 |
\*---------------------------------------------------------------------------*/
FoamFile
{
    version     2.0;
    format      ascii;
    class       volScalarField;
    location    "0.02";
    object      A2R5-;
}
// * * * * * * * * * * * * * * * * * * * * * * * * * * * * * * * * * * * * * //

dimensions      [0 0 0 0 0 0 0];

internalField   nonuniform List<scalar> 
250
(
6.03946e-10
2.88624e-08
2.19697e-08
2.11907e-08
2.11652e-08
2.11155e-08
2.10197e-08
2.09582e-08
2.09298e-08
1.20858e-09
3.52189e-08
2.53944e-08
2.42646e-08
2.4241e-08
2.41642e-08
2.40179e-08
2.39272e-08
2.38803e-08
1.27996e-09
3.47286e-08
2.46004e-08
2.33835e-08
2.33587e-08
2.32625e-08
2.31094e-08
2.30007e-08
2.29515e-08
9.82571e-10
3.20778e-08
2.28358e-08
2.16501e-08
2.16367e-08
2.1525e-08
2.137e-08
2.12484e-08
2.11942e-08
6.15131e-10
2.88263e-08
2.09122e-08
1.9822e-08
1.97747e-08
1.9697e-08
1.95463e-08
1.94151e-08
1.93634e-08
3.607e-10
2.56862e-08
1.91491e-08
1.8179e-08
1.81444e-08
1.80462e-08
1.78731e-08
1.77042e-08
1.76501e-08
2.40963e-10
2.28876e-08
1.76575e-08
1.6817e-08
1.67858e-08
1.66715e-08
1.64948e-08
1.63076e-08
1.62575e-08
2.42557e-10
2.04598e-08
1.63374e-08
1.5712e-08
1.56655e-08
1.55389e-08
1.53535e-08
1.51416e-08
1.50959e-08
3.39377e-10
1.83684e-08
1.53083e-08
1.46994e-08
1.47347e-08
1.46044e-08
1.43643e-08
1.41591e-08
1.41185e-08
5.35015e-10
1.65708e-08
1.43666e-08
1.39522e-08
1.39422e-08
1.37096e-08
1.34238e-08
1.31804e-08
1.31448e-08
7.86976e-10
1.50368e-08
1.35543e-08
1.3249e-08
1.32047e-08
1.29164e-08
1.25765e-08
1.24054e-08
1.23778e-08
1.23232e-08
1.06135e-09
1.37458e-08
1.28807e-08
1.27324e-08
1.2571e-08
1.21989e-08
1.18984e-08
1.17053e-08
1.16447e-08
1.15716e-08
1.35488e-09
1.26825e-08
1.23363e-08
1.22893e-08
1.20294e-08
1.15338e-08
1.12189e-08
1.09746e-08
1.09123e-08
1.08346e-08
1.67036e-09
1.17553e-08
1.19707e-08
1.19367e-08
1.16109e-08
1.09872e-08
1.05634e-08
1.02876e-08
1.02214e-08
1.01387e-08
2.00459e-09
1.10423e-08
1.17332e-08
1.17147e-08
1.12246e-08
1.04875e-08
9.94772e-09
9.63788e-09
9.56547e-09
9.47729e-09
2.34791e-09
1.05495e-08
1.16232e-08
1.15805e-08
1.09339e-08
1.00221e-08
9.3675e-09
9.02149e-09
8.94036e-09
8.84627e-09
2.69274e-09
1.01836e-08
1.16544e-08
1.15515e-08
1.07015e-08
9.58197e-09
8.81944e-09
8.43568e-09
8.34324e-09
8.24277e-09
3.04332e-09
1.00165e-08
1.18222e-08
1.16178e-08
1.05415e-08
9.1858e-09
8.30042e-09
7.87849e-09
7.77201e-09
7.66464e-09
3.41684e-09
1.00444e-08
1.21236e-08
1.17749e-08
1.04409e-08
8.87307e-09
7.80609e-09
7.34828e-09
7.22498e-09
7.11012e-09
3.84076e-09
1.02446e-08
1.2548e-08
1.20134e-08
1.03949e-08
8.60094e-09
7.38723e-09
6.84361e-09
6.70067e-09
6.5777e-09
4.34978e-09
1.06098e-08
1.3076e-08
1.23181e-08
1.03956e-08
8.35648e-09
7.00034e-09
6.36262e-09
6.19774e-09
6.06598e-09
4.96958e-09
1.11245e-08
1.3677e-08
1.26672e-08
1.04313e-08
8.14268e-09
6.64072e-09
5.90301e-09
5.7149e-09
5.57364e-09
5.71872e-09
1.17615e-08
1.43081e-08
1.30318e-08
1.04859e-08
7.95287e-09
6.30396e-09
5.46134e-09
5.25081e-09
5.0994e-09
6.59463e-09
1.24803e-08
1.4938e-08
1.33754e-08
1.05395e-08
7.77807e-09
5.98718e-09
5.07894e-09
4.80401e-09
4.64184e-09
7.57191e-09
1.32243e-08
1.54699e-08
1.36563e-08
1.0568e-08
7.60705e-09
5.68576e-09
4.71344e-09
4.37192e-09
4.19888e-09
8.6014e-09
1.39248e-08
1.58557e-08
1.38511e-08
1.05445e-08
7.42656e-09
5.39409e-09
4.36334e-09
3.9969e-09
3.81395e-09
)
;

boundaryField
{
    fuel
    {
        type            fixedValue;
        value           uniform 0;
    }
    wall
    {
        type            zeroGradient;
    }
    outlet
    {
        type            zeroGradient;
    }
    frontAndBack
    {
        type            empty;
    }
    procBoundary2to0
    {
        type            processor;
        value           nonuniform List<scalar> 
12
(
4.18407e-09
9.61321e-09
1.45041e-08
1.60277e-08
1.38757e-08
1.04407e-08
7.22195e-09
5.10564e-09
4.02592e-09
3.62698e-09
3.79892e-09
3.44595e-09
)
;
    }
    procBoundary2to3
    {
        type            processor;
        value           nonuniform List<scalar> 
25
(
2.09028e-08
2.38472e-08
2.29161e-08
2.11573e-08
1.93253e-08
1.76048e-08
1.621e-08
1.50461e-08
1.40664e-08
1.30913e-08
1.30913e-08
1.23147e-08
1.15613e-08
1.08237e-08
1.01271e-08
9.46507e-09
8.83352e-09
8.22954e-09
7.65101e-09
7.09616e-09
6.56347e-09
6.05154e-09
5.55905e-09
5.08468e-09
4.62705e-09
)
;
    }
}


// ************************************************************************* //
