/*--------------------------------*- C++ -*----------------------------------*\
| =========                 |                                                 |
| \\      /  F ield         | OpenFOAM: The Open Source CFD Toolbox           |
|  \\    /   O peration     | Version:  dev                                   |
|   \\  /    A nd           | Web:      www.OpenFOAM.org                      |
|    \\/     M anipulation  |                                                 |
\*---------------------------------------------------------------------------*/
FoamFile
{
    version     2.0;
    format      ascii;
    class       volScalarField;
    location    "0.02";
    object      AC3H4;
}
// * * * * * * * * * * * * * * * * * * * * * * * * * * * * * * * * * * * * * //

dimensions      [0 0 0 0 0 0 0];

internalField   nonuniform List<scalar> 
250
(
3.94047e-06
3.89692e-06
3.21751e-06
3.15586e-06
3.15331e-06
3.14958e-06
3.14174e-06
3.13718e-06
3.13481e-06
1.04816e-05
2.54971e-06
2.14826e-06
2.11063e-06
2.11e-06
2.10762e-06
2.10243e-06
2.09973e-06
2.09815e-06
1.65161e-05
1.98226e-06
1.67567e-06
1.64765e-06
1.64687e-06
1.6447e-06
1.64117e-06
1.6387e-06
1.6376e-06
2.16432e-05
1.77802e-06
1.49768e-06
1.47226e-06
1.47175e-06
1.46928e-06
1.46597e-06
1.46308e-06
1.46173e-06
2.58272e-05
1.70639e-06
1.42804e-06
1.40272e-06
1.40175e-06
1.39962e-06
1.39609e-06
1.39244e-06
1.39088e-06
2.93916e-05
1.67732e-06
1.39071e-06
1.36486e-06
1.36425e-06
1.36149e-06
1.35695e-06
1.35165e-06
1.3497e-06
3.30532e-05
1.65994e-06
1.36012e-06
1.33399e-06
1.33351e-06
1.33041e-06
1.32516e-06
1.31842e-06
1.31623e-06
3.78572e-05
1.6463e-06
1.32697e-06
1.30332e-06
1.30261e-06
1.29956e-06
1.2934e-06
1.28491e-06
1.28249e-06
4.4034e-05
1.63352e-06
1.29472e-06
1.2677e-06
1.2708e-06
1.26835e-06
1.25965e-06
1.2505e-06
1.24788e-06
4.92105e-05
1.61521e-06
1.25852e-06
1.236e-06
1.23858e-06
1.23285e-06
1.22182e-06
1.21027e-06
1.20738e-06
4.86489e-05
1.58143e-06
1.22133e-06
1.20072e-06
1.204e-06
1.19732e-06
1.1838e-06
1.17506e-06
1.17206e-06
1.16824e-06
4.12644e-05
1.52853e-06
1.18504e-06
1.17099e-06
1.17088e-06
1.1624e-06
1.15134e-06
1.1411e-06
1.13589e-06
1.13069e-06
3.02003e-05
1.46239e-06
1.15016e-06
1.14141e-06
1.13994e-06
1.12808e-06
1.11733e-06
1.10399e-06
1.09802e-06
1.09209e-06
1.94647e-05
1.3877e-06
1.12152e-06
1.11331e-06
1.11392e-06
1.0988e-06
1.08355e-06
1.06812e-06
1.06125e-06
1.05453e-06
1.1461e-05
1.31741e-06
1.09588e-06
1.09073e-06
1.0873e-06
1.07118e-06
1.05123e-06
1.03364e-06
1.02571e-06
1.01816e-06
6.49813e-06
1.25914e-06
1.07148e-06
1.0688e-06
1.06499e-06
1.04465e-06
1.02041e-06
1.00064e-06
9.91494e-07
9.83052e-07
3.7795e-06
1.20287e-06
1.05252e-06
1.05182e-06
1.04417e-06
1.01873e-06
9.91078e-07
9.69157e-07
9.58643e-07
9.49258e-07
2.3968e-06
1.15547e-06
1.03765e-06
1.03814e-06
1.02669e-06
9.9464e-07
9.63169e-07
9.39222e-07
9.27188e-07
9.16807e-07
1.71753e-06
1.12143e-06
1.02719e-06
1.02785e-06
1.01179e-06
9.7501e-07
9.3653e-07
9.10833e-07
8.97139e-07
8.85709e-07
1.38578e-06
1.09502e-06
1.02141e-06
1.02096e-06
9.99416e-07
9.57326e-07
9.14094e-07
8.83967e-07
8.6849e-07
8.55956e-07
1.22164e-06
1.0761e-06
1.02052e-06
1.01749e-06
9.89501e-07
9.4122e-07
8.93315e-07
8.58548e-07
8.41211e-07
8.27522e-07
1.14102e-06
1.06472e-06
1.02464e-06
1.01739e-06
9.81923e-07
9.26897e-07
8.74153e-07
8.34453e-07
8.15244e-07
8.0035e-07
1.10403e-06
1.061e-06
1.03381e-06
1.02053e-06
9.76512e-07
9.14231e-07
8.56421e-07
8.11487e-07
7.90499e-07
7.74351e-07
1.09279e-06
1.06505e-06
1.04843e-06
1.02671e-06
9.73033e-07
9.03033e-07
8.40014e-07
7.91858e-07
7.66839e-07
7.49386e-07
1.09909e-06
1.07688e-06
1.06757e-06
1.03556e-06
9.71188e-07
8.93062e-07
8.24741e-07
7.73284e-07
7.44044e-07
7.25257e-07
1.11906e-06
1.09642e-06
1.09133e-06
1.04766e-06
9.70599e-07
8.84015e-07
8.10353e-07
7.55596e-07
7.24335e-07
7.04312e-07
)
;

boundaryField
{
    fuel
    {
        type            fixedValue;
        value           uniform 0;
    }
    wall
    {
        type            zeroGradient;
    }
    outlet
    {
        type            zeroGradient;
    }
    frontAndBack
    {
        type            empty;
    }
    procBoundary2to0
    {
        type            processor;
        value           nonuniform List<scalar> 
12
(
7.23843e-07
1.15077e-06
1.12346e-06
1.11914e-06
1.06182e-06
9.70792e-07
8.75519e-07
7.96544e-07
7.3854e-07
7.04794e-07
7.02856e-07
6.84158e-07
)
;
    }
    procBoundary2to3
    {
        type            processor;
        value           nonuniform List<scalar> 
25
(
3.13329e-06
2.09722e-06
1.63675e-06
1.46077e-06
1.38969e-06
1.34806e-06
1.3142e-06
1.28002e-06
1.24497e-06
1.204e-06
1.204e-06
1.16774e-06
1.13006e-06
1.09138e-06
1.05375e-06
1.01731e-06
9.8213e-07
9.4827e-07
9.15755e-07
8.84597e-07
8.54787e-07
8.26299e-07
7.99075e-07
7.73025e-07
7.48014e-07
)
;
    }
}


// ************************************************************************* //
