/*--------------------------------*- C++ -*----------------------------------*\
| =========                 |                                                 |
| \\      /  F ield         | OpenFOAM: The Open Source CFD Toolbox           |
|  \\    /   O peration     | Version:  dev                                   |
|   \\  /    A nd           | Web:      www.OpenFOAM.org                      |
|    \\/     M anipulation  |                                                 |
\*---------------------------------------------------------------------------*/
FoamFile
{
    version     2.0;
    format      ascii;
    class       volScalarField;
    location    "0.02";
    object      AC3H4;
}
// * * * * * * * * * * * * * * * * * * * * * * * * * * * * * * * * * * * * * //

dimensions      [0 0 0 0 0 0 0];

internalField   nonuniform List<scalar> 
25
(
9.74483e-07
1.2432e-06
1.55347e-06
1.89921e-06
2.27131e-06
2.67377e-06
3.0699e-06
3.46334e-06
3.84423e-06
4.20393e-06
4.53477e-06
4.83013e-06
5.0849e-06
5.29585e-06
5.46184e-06
5.58371e-06
5.6639e-06
5.70589e-06
5.71357e-06
5.69083e-06
5.6412e-06
5.56769e-06
5.47282e-06
5.35868e-06
5.22705e-06
)
;

boundaryField
{
    wall
    {
        type            zeroGradient;
    }
    fuel
    {
        type            fixedValue;
        value           nonuniform 0();
    }
    outlet
    {
        type            inletOutlet;
        inletValue      nonuniform 0();
        value           nonuniform 0();
    }
    procBoundary2to1
    {
        type            processor;
        value           uniform 7.49725e-07;
    }
    procBoundary2to3
    {
        type            processor;
        value           uniform 5.0794e-06;
    }
}


// ************************************************************************* //
