/*--------------------------------*- C++ -*----------------------------------*\
| =========                 |                                                 |
| \\      /  F ield         | OpenFOAM: The Open Source CFD Toolbox           |
|  \\    /   O peration     | Version:  dev                                   |
|   \\  /    A nd           | Web:      www.OpenFOAM.org                      |
|    \\/     M anipulation  |                                                 |
\*---------------------------------------------------------------------------*/
FoamFile
{
    version     2.0;
    format      ascii;
    class       volScalarField;
    location    "0.02";
    object      C;
}
// * * * * * * * * * * * * * * * * * * * * * * * * * * * * * * * * * * * * * //

dimensions      [0 0 0 0 0 0 0];

internalField   nonuniform List<scalar> 
250
(
1.58281e-09
2.47299e-06
3.02754e-06
3.08747e-06
3.09177e-06
3.09566e-06
3.09939e-06
3.09995e-06
3.10515e-06
1.88867e-09
1.85919e-06
2.22723e-06
2.26206e-06
2.2738e-06
2.27702e-06
2.27074e-06
2.27277e-06
2.27606e-06
1.07953e-09
8.4174e-07
9.93307e-07
1.01455e-06
1.0176e-06
1.0191e-06
1.01911e-06
1.02037e-06
1.02383e-06
5.20712e-10
3.3377e-07
3.80495e-07
3.91353e-07
3.92972e-07
3.92884e-07
3.93726e-07
3.94424e-07
3.95786e-07
2.53804e-10
1.34229e-07
1.442e-07
1.49569e-07
1.48802e-07
1.50274e-07
1.51243e-07
1.51878e-07
1.52593e-07
1.37334e-10
5.99929e-08
5.97519e-08
6.24709e-08
6.21371e-08
6.27844e-08
6.29097e-08
6.27496e-08
6.30104e-08
8.55399e-11
3.08669e-08
2.9282e-08
3.09134e-08
3.07445e-08
3.11542e-08
3.13863e-08
3.13476e-08
3.15399e-08
6.09888e-11
1.80822e-08
1.68957e-08
1.86403e-08
1.84816e-08
1.87954e-08
1.90851e-08
1.90616e-08
1.92251e-08
5.19854e-11
1.16578e-08
1.18336e-08
1.2842e-08
1.31429e-08
1.34832e-08
1.36576e-08
1.37711e-08
1.39277e-08
8.2452e-11
8.01735e-09
9.1394e-09
1.02644e-08
1.04716e-08
1.0646e-08
1.0833e-08
1.09078e-08
1.1068e-08
2.04818e-10
5.78188e-09
7.58373e-09
8.62165e-09
8.85326e-09
9.07221e-09
9.26815e-09
9.49053e-09
9.66846e-09
9.71317e-09
3.70928e-10
4.34752e-09
6.57561e-09
7.65948e-09
7.81236e-09
8.06223e-09
8.38443e-09
8.60498e-09
8.76053e-09
8.79789e-09
5.2544e-10
3.40781e-09
5.82749e-09
6.89614e-09
7.04749e-09
7.30931e-09
7.69646e-09
7.90731e-09
8.0844e-09
8.13154e-09
6.56667e-10
2.7337e-09
5.28484e-09
6.2395e-09
6.47456e-09
6.75265e-09
7.12766e-09
7.35832e-09
7.55758e-09
7.61373e-09
7.4941e-10
2.28007e-09
4.81342e-09
5.71213e-09
5.90659e-09
6.25735e-09
6.6301e-09
6.8848e-09
7.10712e-09
7.17198e-09
7.7856e-10
1.98214e-09
4.34313e-09
5.1627e-09
5.41413e-09
5.78287e-09
6.16647e-09
6.44837e-09
6.69457e-09
6.76799e-09
7.33926e-10
1.73727e-09
3.93039e-09
4.67869e-09
4.91748e-09
5.30181e-09
5.71606e-09
6.02791e-09
6.29852e-09
6.38032e-09
6.35054e-10
1.55045e-09
3.53199e-09
4.20745e-09
4.45265e-09
4.82213e-09
5.26649e-09
5.61127e-09
5.90634e-09
5.99621e-09
5.17488e-10
1.41606e-09
3.14336e-09
3.7462e-09
3.9985e-09
4.39251e-09
4.80907e-09
5.19129e-09
5.51019e-09
5.60761e-09
4.10696e-10
1.29778e-09
2.7632e-09
3.29529e-09
3.5535e-09
3.96221e-09
4.39447e-09
4.76383e-09
5.1051e-09
5.20927e-09
3.27692e-10
1.18565e-09
2.39294e-09
2.85747e-09
3.11865e-09
3.53612e-09
3.96942e-09
4.32643e-09
4.68813e-09
4.79791e-09
2.69358e-10
1.07328e-09
2.03633e-09
2.43713e-09
2.69677e-09
3.11445e-09
3.54425e-09
3.87816e-09
4.25805e-09
4.37192e-09
2.29934e-10
9.57274e-10
1.69901e-09
2.03985e-09
2.292e-09
2.70099e-09
3.12007e-09
3.41894e-09
3.81533e-09
3.93137e-09
2.03048e-10
8.36963e-10
1.37741e-09
1.67203e-09
1.9094e-09
2.30058e-09
2.70181e-09
3.00176e-09
3.36219e-09
3.47802e-09
1.83324e-10
7.1438e-10
1.09274e-09
1.34062e-09
1.55442e-09
1.91895e-09
2.29486e-09
2.58764e-09
2.90179e-09
3.01501e-09
1.66878e-10
5.93193e-10
8.41102e-10
1.02853e-09
1.23216e-09
1.56213e-09
1.90554e-09
2.18371e-09
2.49049e-09
2.59841e-09
)
;

boundaryField
{
    fuel
    {
        type            fixedValue;
        value           uniform 0;
    }
    wall
    {
        type            zeroGradient;
    }
    outlet
    {
        type            zeroGradient;
    }
    frontAndBack
    {
        type            empty;
    }
    procBoundary2to0
    {
        type            processor;
        value           nonuniform List<scalar> 
12
(
3.01727e-09
1.51221e-10
4.78056e-10
6.27887e-10
7.61698e-10
9.495e-10
1.23759e-09
1.54181e-09
1.79809e-09
2.07852e-09
2.60036e-09
2.19145e-09
)
;
    }
    procBoundary2to3
    {
        type            processor;
        value           nonuniform List<scalar> 
25
(
3.10496e-06
2.27655e-06
1.02406e-06
3.95867e-07
1.52681e-07
6.29517e-08
3.15262e-08
1.92333e-08
1.39486e-08
1.1102e-08
1.1102e-08
9.71046e-09
8.79466e-09
8.12897e-09
7.61166e-09
7.17034e-09
6.76675e-09
6.37948e-09
5.99577e-09
5.60757e-09
5.20963e-09
4.79866e-09
4.37304e-09
3.93286e-09
3.47997e-09
)
;
    }
}


// ************************************************************************* //
