/*--------------------------------*- C++ -*----------------------------------*\
| =========                 |                                                 |
| \\      /  F ield         | OpenFOAM: The Open Source CFD Toolbox           |
|  \\    /   O peration     | Version:  dev                                   |
|   \\  /    A nd           | Web:      www.OpenFOAM.org                      |
|    \\/     M anipulation  |                                                 |
\*---------------------------------------------------------------------------*/
FoamFile
{
    version     2.0;
    format      ascii;
    class       volScalarField;
    location    "0.02";
    object      c-C6H7;
}
// * * * * * * * * * * * * * * * * * * * * * * * * * * * * * * * * * * * * * //

dimensions      [0 0 0 0 0 0 0];

internalField   nonuniform List<scalar> 
25
(
5.87797e-11
6.38371e-11
6.89893e-11
7.41584e-11
7.92461e-11
8.42922e-11
8.89309e-11
9.31457e-11
9.67178e-11
9.93801e-11
1.00823e-10
1.00735e-10
9.88644e-11
9.51026e-11
8.95359e-11
8.24531e-11
7.42901e-11
6.55407e-11
5.66815e-11
4.812e-11
4.02073e-11
3.32036e-11
2.72551e-11
2.23856e-11
1.85217e-11
)
;

boundaryField
{
    wall
    {
        type            zeroGradient;
    }
    fuel
    {
        type            fixedValue;
        value           nonuniform 0();
    }
    outlet
    {
        type            inletOutlet;
        inletValue      nonuniform 0();
        value           nonuniform 0();
    }
    procBoundary2to1
    {
        type            processor;
        value           uniform 5.38804e-11;
    }
    procBoundary2to3
    {
        type            processor;
        value           uniform 1.5534e-11;
    }
}


// ************************************************************************* //
