/*--------------------------------*- C++ -*----------------------------------*\
| =========                 |                                                 |
| \\      /  F ield         | OpenFOAM: The Open Source CFD Toolbox           |
|  \\    /   O peration     | Version:  dev                                   |
|   \\  /    A nd           | Web:      www.OpenFOAM.org                      |
|    \\/     M anipulation  |                                                 |
\*---------------------------------------------------------------------------*/
FoamFile
{
    version     2.0;
    format      ascii;
    class       volScalarField;
    location    "0.02";
    object      C2O;
}
// * * * * * * * * * * * * * * * * * * * * * * * * * * * * * * * * * * * * * //

dimensions      [0 0 0 0 0 0 0];

internalField   nonuniform List<scalar> 
250
(
5.6914e-09
8.88949e-06
9.54967e-06
9.61687e-06
9.61966e-06
9.62352e-06
9.63307e-06
9.63791e-06
9.64074e-06
6.86315e-09
6.72196e-06
7.10303e-06
7.15283e-06
7.15232e-06
7.15502e-06
7.161e-06
7.16292e-06
7.16617e-06
5.23152e-09
4.14275e-06
4.36477e-06
4.40597e-06
4.40794e-06
4.40888e-06
4.41232e-06
4.41326e-06
4.41807e-06
3.80104e-09
2.52441e-06
2.62291e-06
2.65604e-06
2.66105e-06
2.65892e-06
2.66251e-06
2.66323e-06
2.66666e-06
2.95846e-09
1.64024e-06
1.66612e-06
1.6931e-06
1.68645e-06
1.69645e-06
1.70173e-06
1.70342e-06
1.70676e-06
2.53365e-09
1.15945e-06
1.15567e-06
1.17745e-06
1.17431e-06
1.1803e-06
1.18084e-06
1.17709e-06
1.17895e-06
2.36743e-09
8.79668e-07
8.77494e-07
8.96973e-07
8.95533e-07
9.00348e-07
9.02413e-07
8.99072e-07
9.01148e-07
2.52681e-09
7.01494e-07
7.06816e-07
7.35771e-07
7.34063e-07
7.39064e-07
7.42473e-07
7.38688e-07
7.41041e-07
3.86056e-09
5.78397e-07
6.06613e-07
6.25243e-07
6.33723e-07
6.40785e-07
6.41838e-07
6.40585e-07
6.43327e-07
8.80804e-09
4.87928e-07
5.33079e-07
5.58919e-07
5.65788e-07
5.68717e-07
5.69709e-07
5.67303e-07
5.70524e-07
1.70461e-08
4.18857e-07
4.78143e-07
5.0454e-07
5.12667e-07
5.16896e-07
5.17801e-07
5.20736e-07
5.24691e-07
5.24579e-07
2.51711e-08
3.65157e-07
4.35198e-07
4.66688e-07
4.71545e-07
4.76488e-07
4.82416e-07
4.85307e-07
4.88125e-07
4.87433e-07
3.23205e-08
3.23206e-07
3.99267e-07
4.33138e-07
4.37639e-07
4.42291e-07
4.50872e-07
4.52914e-07
4.56308e-07
4.55781e-07
3.89489e-08
2.8756e-07
3.71584e-07
4.02665e-07
4.10745e-07
4.15355e-07
4.22666e-07
4.25079e-07
4.29047e-07
4.28681e-07
4.50548e-08
2.59505e-07
3.47012e-07
3.77819e-07
3.83589e-07
3.90849e-07
3.97233e-07
4.00177e-07
4.04734e-07
4.04531e-07
5.0108e-08
2.38189e-07
3.22589e-07
3.52129e-07
3.60123e-07
3.67431e-07
3.73579e-07
3.77217e-07
3.82389e-07
3.82354e-07
5.3684e-08
2.1828e-07
3.01487e-07
3.29806e-07
3.36786e-07
3.44057e-07
3.51038e-07
3.55555e-07
3.61375e-07
3.61517e-07
5.59307e-08
2.01576e-07
2.81554e-07
3.08396e-07
3.15231e-07
3.21225e-07
3.29115e-07
3.34743e-07
3.41245e-07
3.41571e-07
5.73967e-08
1.89037e-07
2.62484e-07
2.8763e-07
2.94361e-07
3.01141e-07
3.07368e-07
3.14443e-07
3.21663e-07
3.22178e-07
5.86545e-08
1.78045e-07
2.44044e-07
2.6732e-07
2.73945e-07
2.81278e-07
2.88022e-07
2.94388e-07
3.02356e-07
3.03061e-07
6.00823e-08
1.68057e-07
2.26077e-07
2.4735e-07
2.53827e-07
2.61581e-07
2.68546e-07
2.74335e-07
2.83095e-07
2.83987e-07
6.17628e-08
1.58649e-07
2.08502e-07
2.2767e-07
2.3391e-07
2.41942e-07
2.4914e-07
2.5407e-07
2.63687e-07
2.64758e-07
6.35803e-08
1.495e-07
1.91324e-07
2.08291e-07
2.14154e-07
2.22314e-07
2.29646e-07
2.33368e-07
2.43974e-07
2.45205e-07
6.53148e-08
1.40383e-07
1.74078e-07
1.89293e-07
1.94567e-07
2.0269e-07
2.10058e-07
2.14358e-07
2.23828e-07
2.25192e-07
6.67414e-08
1.31183e-07
1.57638e-07
1.70856e-07
1.75213e-07
1.83114e-07
1.90389e-07
1.95098e-07
2.03123e-07
2.04595e-07
6.7674e-08
1.21868e-07
1.41655e-07
1.51816e-07
1.56204e-07
1.63683e-07
1.707e-07
1.75668e-07
1.84126e-07
1.85634e-07
)
;

boundaryField
{
    fuel
    {
        type            fixedValue;
        value           uniform 0;
    }
    wall
    {
        type            zeroGradient;
    }
    outlet
    {
        type            zeroGradient;
    }
    frontAndBack
    {
        type            empty;
    }
    procBoundary2to0
    {
        type            processor;
        value           nonuniform List<scalar> 
12
(
2.04463e-07
6.79182e-08
1.12453e-07
1.26345e-07
1.33435e-07
1.37799e-07
1.44592e-07
1.51153e-07
1.56204e-07
1.64386e-07
1.85517e-07
1.66494e-07
)
;
    }
    procBoundary2to3
    {
        type            processor;
        value           nonuniform List<scalar> 
25
(
9.64196e-06
7.16624e-06
4.41774e-06
2.66625e-06
1.70661e-06
1.17772e-06
9.00168e-07
7.40243e-07
6.42691e-07
5.70168e-07
5.70168e-07
5.24275e-07
4.87108e-07
4.55469e-07
4.28377e-07
4.04234e-07
3.82066e-07
3.61239e-07
3.41306e-07
3.21927e-07
3.02826e-07
2.8377e-07
2.64559e-07
2.45027e-07
2.25035e-07
)
;
    }
}


// ************************************************************************* //
