/*--------------------------------*- C++ -*----------------------------------*\
| =========                 |                                                 |
| \\      /  F ield         | OpenFOAM: The Open Source CFD Toolbox           |
|  \\    /   O peration     | Version:  dev                                   |
|   \\  /    A nd           | Web:      www.OpenFOAM.org                      |
|    \\/     M anipulation  |                                                 |
\*---------------------------------------------------------------------------*/
FoamFile
{
    version     2.0;
    format      ascii;
    class       volScalarField;
    location    "0.02";
    object      CH2(S);
}
// * * * * * * * * * * * * * * * * * * * * * * * * * * * * * * * * * * * * * //

dimensions      [0 0 0 0 0 0 0];

internalField   nonuniform List<scalar> 
250
(
1.27618e-09
2.00159e-06
2.05815e-06
2.0637e-06
2.06421e-06
2.06457e-06
2.06543e-06
2.066e-06
2.06617e-06
1.24693e-09
1.21504e-06
1.25965e-06
1.26443e-06
1.26611e-06
1.2666e-06
1.26555e-06
1.26586e-06
1.26637e-06
8.06298e-10
6.32542e-07
6.62248e-07
6.68253e-07
6.68831e-07
6.69177e-07
6.69368e-07
6.69638e-07
6.70706e-07
5.02008e-10
3.29656e-07
3.42883e-07
3.4838e-07
3.49114e-07
3.48993e-07
3.49575e-07
3.49873e-07
3.50503e-07
3.39628e-10
1.86211e-07
1.89308e-07
1.93898e-07
1.92978e-07
1.94504e-07
1.95388e-07
1.95882e-07
1.96426e-07
2.60682e-10
1.17581e-07
1.16721e-07
1.20455e-07
1.20037e-07
1.20968e-07
1.21223e-07
1.21058e-07
1.21376e-07
2.44833e-10
8.20357e-08
8.15381e-08
8.48319e-08
8.46513e-08
8.53982e-08
8.58707e-08
8.58412e-08
8.61804e-08
5.01226e-10
6.15015e-08
6.23891e-08
6.65584e-08
6.63823e-08
6.70964e-08
6.77527e-08
6.77423e-08
6.81094e-08
2.10213e-09
4.83223e-08
5.23625e-08
5.54447e-08
5.62599e-08
5.71409e-08
5.76267e-08
5.7909e-08
5.83176e-08
6.63396e-09
3.91642e-08
4.57994e-08
4.94498e-08
5.01161e-08
5.06649e-08
5.12224e-08
5.1445e-08
5.1909e-08
1.13941e-08
3.25124e-08
4.13522e-08
4.49846e-08
4.57718e-08
4.64827e-08
4.71045e-08
4.77615e-08
4.83054e-08
4.84367e-08
1.32508e-08
2.76009e-08
3.80994e-08
4.20512e-08
4.26277e-08
4.3465e-08
4.4509e-08
4.5195e-08
4.5696e-08
4.58084e-08
1.2982e-08
2.39782e-08
3.54543e-08
3.95105e-08
4.00979e-08
4.10026e-08
4.23026e-08
4.2983e-08
4.35696e-08
4.3714e-08
1.18881e-08
2.10972e-08
3.33987e-08
3.71702e-08
3.80687e-08
3.90535e-08
4.03466e-08
4.11128e-08
4.17885e-08
4.19638e-08
1.05722e-08
1.89834e-08
3.15166e-08
3.51866e-08
3.59522e-08
3.72276e-08
3.85402e-08
3.94076e-08
4.01775e-08
4.03836e-08
9.23029e-09
1.74918e-08
2.95588e-08
3.3032e-08
3.40338e-08
3.54054e-08
3.67838e-08
3.77673e-08
3.86374e-08
3.88749e-08
7.94861e-09
1.619e-08
2.77702e-08
3.10539e-08
3.20253e-08
3.34909e-08
3.50164e-08
3.61322e-08
3.71084e-08
3.7378e-08
6.80096e-09
1.51458e-08
2.59787e-08
2.90523e-08
3.00721e-08
3.15136e-08
3.31961e-08
3.44638e-08
3.55519e-08
3.58539e-08
5.84263e-09
1.43643e-08
2.41633e-08
2.70134e-08
2.80889e-08
2.96776e-08
3.12864e-08
3.27353e-08
3.39399e-08
3.42744e-08
5.09769e-09
1.36513e-08
2.23112e-08
2.49312e-08
2.60641e-08
2.77729e-08
2.94961e-08
3.09265e-08
3.22508e-08
3.26172e-08
4.55666e-09
1.295e-08
2.04186e-08
2.28076e-08
2.39937e-08
2.5811e-08
2.76005e-08
2.90197e-08
3.04668e-08
3.08636e-08
4.19236e-09
1.22176e-08
1.84912e-08
2.06518e-08
2.18805e-08
2.3784e-08
2.5633e-08
2.69993e-08
2.85735e-08
2.89983e-08
3.95984e-09
1.14245e-08
1.65458e-08
1.84805e-08
1.97333e-08
2.16972e-08
2.35861e-08
2.48489e-08
2.656e-08
2.70089e-08
3.81263e-09
1.05542e-08
1.45459e-08
1.63193e-08
1.75673e-08
1.95615e-08
2.14687e-08
2.28045e-08
2.44197e-08
2.48872e-08
3.70619e-09
9.60625e-09
1.26131e-08
1.42057e-08
1.54042e-08
1.73939e-08
1.92926e-08
2.06743e-08
2.21463e-08
2.2627e-08
3.60263e-09
8.5932e-09
1.07269e-08
1.20219e-08
1.32705e-08
1.52174e-08
1.70762e-08
1.84779e-08
2.00045e-08
2.04872e-08
)
;

boundaryField
{
    fuel
    {
        type            fixedValue;
        value           uniform 0;
    }
    wall
    {
        type            zeroGradient;
    }
    outlet
    {
        type            zeroGradient;
    }
    frontAndBack
    {
        type            empty;
    }
    procBoundary2to0
    {
        type            processor;
        value           nonuniform List<scalar> 
12
(
2.2633e-08
3.47204e-09
7.53888e-09
8.94053e-09
9.94102e-09
1.12167e-08
1.30721e-08
1.48526e-08
1.62434e-08
1.77331e-08
2.04927e-08
1.8279e-08
)
;
    }
    procBoundary2to3
    {
        type            processor;
        value           nonuniform List<scalar> 
25
(
2.06634e-06
1.2664e-06
6.70705e-07
3.50509e-07
1.9649e-07
1.21317e-07
8.6173e-08
6.81386e-08
5.83767e-08
5.20063e-08
5.20063e-08
4.84268e-08
4.57967e-08
4.37038e-08
4.19546e-08
4.03754e-08
3.88676e-08
3.73717e-08
3.58488e-08
3.42705e-08
3.26146e-08
3.08624e-08
2.89986e-08
2.70109e-08
2.48913e-08
)
;
    }
}


// ************************************************************************* //
