/*--------------------------------*- C++ -*----------------------------------*\
| =========                 |                                                 |
| \\      /  F ield         | OpenFOAM: The Open Source CFD Toolbox           |
|  \\    /   O peration     | Version:  dev                                   |
|   \\  /    A nd           | Web:      www.OpenFOAM.org                      |
|    \\/     M anipulation  |                                                 |
\*---------------------------------------------------------------------------*/
FoamFile
{
    version     2.0;
    format      ascii;
    class       volScalarField;
    location    "0.02";
    object      CH4;
}
// * * * * * * * * * * * * * * * * * * * * * * * * * * * * * * * * * * * * * //

dimensions      [0 0 0 0 0 0 0];

internalField   nonuniform List<scalar> 
25
(
0.000590558
0.00060724
0.00062265
0.000636513
0.000648525
0.000658732
0.000666173
0.000670928
0.000672764
0.000671517
0.0006671
0.000659514
0.000648864
0.000635362
0.000619311
0.000601083
0.000581082
0.000559709
0.000537334
0.000514272
0.000490783
0.000467073
0.000443304
0.000419602
0.000396073
)
;

boundaryField
{
    wall
    {
        type            zeroGradient;
    }
    fuel
    {
        type            fixedValue;
        value           nonuniform 0();
    }
    outlet
    {
        type            inletOutlet;
        inletValue      nonuniform 0();
        value           nonuniform 0();
    }
    procBoundary2to1
    {
        type            processor;
        value           uniform 0.000572819;
    }
    procBoundary2to3
    {
        type            processor;
        value           uniform 0.000372801;
    }
}


// ************************************************************************* //
