/*--------------------------------*- C++ -*----------------------------------*\
| =========                 |                                                 |
| \\      /  F ield         | OpenFOAM: The Open Source CFD Toolbox           |
|  \\    /   O peration     | Version:  dev                                   |
|   \\  /    A nd           | Web:      www.OpenFOAM.org                      |
|    \\/     M anipulation  |                                                 |
\*---------------------------------------------------------------------------*/
FoamFile
{
    version     2.0;
    format      ascii;
    class       volScalarField;
    location    "0.02";
    object      CO;
}
// * * * * * * * * * * * * * * * * * * * * * * * * * * * * * * * * * * * * * //

dimensions      [0 0 0 0 0 0 0];

internalField   nonuniform List<scalar> 
250
(
0.0112234
0.130999
0.132749
0.132926
0.132937
0.132951
0.132973
0.132985
0.132993
0.0306374
0.153586
0.156033
0.156278
0.156302
0.156325
0.15635
0.156372
0.156383
0.0503149
0.160065
0.163209
0.163541
0.163563
0.163601
0.163642
0.163676
0.163692
0.0690838
0.162576
0.166323
0.166733
0.166756
0.166811
0.166863
0.166913
0.166933
0.0862367
0.163897
0.16812
0.168595
0.168652
0.168692
0.168753
0.168819
0.168843
0.101444
0.164825
0.169394
0.169926
0.169983
0.170046
0.170137
0.170247
0.170282
0.114712
0.165626
0.17041
0.170983
0.171047
0.171124
0.171231
0.171371
0.171412
0.126346
0.166404
0.171346
0.171883
0.171966
0.172048
0.172175
0.172353
0.1724
0.136703
0.167194
0.172136
0.172788
0.172789
0.172864
0.173052
0.173241
0.173293
0.145626
0.168007
0.172937
0.17352
0.173548
0.173705
0.173946
0.174189
0.17425
0.152564
0.168835
0.173708
0.174283
0.174311
0.174495
0.174794
0.174977
0.175042
0.175119
0.157652
0.169665
0.174426
0.174898
0.175009
0.175239
0.175492
0.17571
0.175826
0.175934
0.161418
0.17048
0.175091
0.175488
0.175638
0.175946
0.176203
0.176491
0.176627
0.176751
0.164296
0.171336
0.175618
0.176027
0.176148
0.176532
0.176891
0.177228
0.17739
0.177531
0.166559
0.172143
0.17607
0.17644
0.176648
0.177066
0.177531
0.17792
0.178112
0.178272
0.168375
0.172855
0.176476
0.176815
0.177044
0.177557
0.178118
0.178563
0.17879
0.178971
0.169846
0.173594
0.176764
0.177077
0.177384
0.178008
0.178651
0.179153
0.179421
0.179624
0.171032
0.174241
0.176953
0.17725
0.177633
0.178392
0.179125
0.179684
0.180001
0.180226
0.17197
0.174703
0.177037
0.177331
0.177803
0.178664
0.179537
0.180152
0.180523
0.180773
0.172679
0.175043
0.177007
0.177316
0.177887
0.178859
0.179839
0.180549
0.180982
0.181259
0.173176
0.175248
0.176859
0.177202
0.177883
0.17898
0.180062
0.18087
0.181371
0.181676
0.173463
0.175308
0.176588
0.176984
0.177785
0.179015
0.180202
0.181105
0.181682
0.182016
0.173549
0.175214
0.176193
0.176662
0.177591
0.178958
0.180253
0.181248
0.181906
0.182272
0.173438
0.174961
0.175657
0.176234
0.177295
0.178803
0.180207
0.181284
0.182035
0.182434
0.173135
0.174546
0.175006
0.175702
0.176894
0.178545
0.180059
0.18122
0.182057
0.182492
0.172644
0.17397
0.174227
0.175016
0.176385
0.178178
0.179799
0.181047
0.181975
0.182443
)
;

boundaryField
{
    fuel
    {
        type            fixedValue;
        value           uniform 0;
    }
    wall
    {
        type            zeroGradient;
    }
    outlet
    {
        type            zeroGradient;
    }
    frontAndBack
    {
        type            empty;
    }
    procBoundary2to0
    {
        type            processor;
        value           nonuniform List<scalar> 
12
(
0.182522
0.171971
0.173236
0.17333
0.17421
0.175765
0.177698
0.179422
0.180758
0.181776
0.182474
0.182284
)
;
    }
    procBoundary2to3
    {
        type            processor;
        value           nonuniform List<scalar> 
25
(
0.132998
0.156391
0.163705
0.16695
0.168866
0.170315
0.171453
0.17245
0.173352
0.174318
0.174318
0.17513
0.175947
0.176766
0.177548
0.17829
0.17899
0.179644
0.180248
0.180796
0.181283
0.181701
0.182042
0.182299
0.182462
)
;
    }
}


// ************************************************************************* //
