/*--------------------------------*- C++ -*----------------------------------*\
| =========                 |                                                 |
| \\      /  F ield         | OpenFOAM: The Open Source CFD Toolbox           |
|  \\    /   O peration     | Version:  dev                                   |
|   \\  /    A nd           | Web:      www.OpenFOAM.org                      |
|    \\/     M anipulation  |                                                 |
\*---------------------------------------------------------------------------*/
FoamFile
{
    version     2.0;
    format      ascii;
    class       volScalarField;
    location    "0.02";
    object      H2O;
}
// * * * * * * * * * * * * * * * * * * * * * * * * * * * * * * * * * * * * * //

dimensions      [0 0 0 0 0 0 0];

internalField   nonuniform List<scalar> 
1997
(
0.05914
0.0591086
0.0590361
0.0589742
0.0588918
0.0588298
0.058785
0.0587549
0.0587323
0.0587219
0.0587164
0.0587176
0.0587209
0.0587268
0.0587339
0.0587438
0.0587515
0.0587572
0.059027
0.0589923
0.0589177
0.0588518
0.0587662
0.058701
0.0586543
0.0586231
0.0585993
0.0585844
0.0585786
0.05858
0.0585832
0.0585893
0.0585968
0.0586076
0.0586159
0.058622
0.0586271
0.0586314
0.0586345
0.058637
0.0586386
0.0586397
0.0586401
0.05864
0.0586395
0.0586383
0.0589143
0.0588763
0.0587962
0.0587263
0.0586373
0.0585689
0.0585201
0.0584878
0.0584629
0.0584475
0.0584414
0.058443
0.0584463
0.0584526
0.0584601
0.0584671
0.058476
0.0584823
0.0584875
0.058492
0.0584953
0.0584979
0.0584995
0.0585006
0.058501
0.058501
0.0585004
0.0584992
0.0584975
0.058495
0.0584918
0.0584874
0.0584824
0.0584762
0.0584676
0.0584607
0.0584533
0.0584473
0.0584442
0.0584428
0.0587987
0.0587573
0.0586714
0.0585975
0.0585051
0.0584332
0.0583823
0.0583489
0.0583229
0.0583069
0.0583005
0.0583023
0.0583057
0.0583121
0.0583198
0.0583272
0.0583366
0.0583432
0.0583486
0.0583533
0.0583568
0.0583594
0.0583611
0.0583622
0.0583626
0.0583626
0.058362
0.0583608
0.058359
0.0583564
0.058353
0.0583484
0.0583433
0.0583368
0.0583277
0.0583204
0.0583129
0.0583067
0.0583036
0.0583021
0.05831
0.0583249
0.058351
0.0583853
0.0584355
0.0585076
0.0586
0.0586739
0.0587607
0.0588016
0.0586802
0.058635
0.0585435
0.0584652
0.0583691
0.0582937
0.0582407
0.0582051
0.0581789
0.0581625
0.0581557
0.0581579
0.0581612
0.0581678
0.0581756
0.0581834
0.0581934
0.0582003
0.0582059
0.0582108
0.0582145
0.0582171
0.0582189
0.05822
0.0582205
0.0582204
0.0582198
0.0582185
0.0582168
0.0582141
0.0582106
0.0582057
0.0582004
0.0581936
0.058184
0.0581763
0.0581687
0.0581623
0.0581592
0.0581574
0.0581656
0.0581812
0.0582074
0.058242
0.0582961
0.0583717
0.0584679
0.0585459
0.0586385
0.0586831
0.0585584
0.0585092
0.0584121
0.0583273
0.0582273
0.0581491
0.0580944
0.0580584
0.0580311
0.0580141
0.0580068
0.0580064
0.0580107
0.0580188
0.0580274
0.0580356
0.0580463
0.0580534
0.0580592
0.0580644
0.0580682
0.058071
0.0580727
0.0580739
0.0580743
0.0580743
0.0580737
0.0580724
0.0580706
0.0580678
0.0580641
0.058059
0.0580534
0.0580465
0.0580361
0.0580281
0.0580198
0.0580119
0.0580079
0.0580087
0.0580172
0.0580335
0.0580608
0.0580964
0.0581518
0.0582303
0.0583306
0.0584146
0.0585127
0.0585613
0.0584332
0.05838
0.0582769
0.058187
0.0580831
0.0580014
0.0579444
0.0579075
0.057879
0.0578615
0.0578537
0.0578534
0.0578578
0.0578662
0.0578749
0.0578834
0.0578913
0.0578991
0.0579056
0.0579117
0.0579161
0.0579192
0.0579213
0.0579227
0.0579233
0.0579232
0.0579225
0.057921
0.0579188
0.0579157
0.0579114
0.0579054
0.0578991
0.0578914
0.0578839
0.0578757
0.0578672
0.0578591
0.057855
0.0578556
0.0578646
0.0578815
0.0579101
0.0579464
0.0580041
0.0580863
0.0581907
0.0582794
0.0583834
0.0584362
0.0583044
0.0582441
0.0581345
0.0580394
0.0579308
0.0578489
0.0577897
0.0577484
0.0577189
0.0577013
0.0576936
0.0576946
0.0577001
0.057709
0.057718
0.0577267
0.0577352
0.0577433
0.05775
0.0577567
0.0577612
0.0577644
0.0577666
0.057768
0.0577685
0.0577685
0.0577677
0.0577662
0.057764
0.0577608
0.0577564
0.0577498
0.0577433
0.0577354
0.0577273
0.0577188
0.0577101
0.0577014
0.0576962
0.0576957
0.0577045
0.0577216
0.0577511
0.057792
0.0578519
0.0579341
0.0580433
0.0581373
0.0582477
0.0583075
0.0581719
0.0581067
0.0579903
0.0578859
0.0577724
0.057687
0.0576303
0.0575882
0.0575574
0.0575394
0.0575311
0.0575323
0.0575379
0.0575471
0.0575563
0.0575653
0.0575744
0.0575827
0.0575897
0.0575945
0.0575995
0.057603
0.0576054
0.057607
0.0576076
0.0576075
0.0576067
0.057605
0.0576026
0.057599
0.0575942
0.0575895
0.0575828
0.0575746
0.0575659
0.0575571
0.0575483
0.0575393
0.0575341
0.0575333
0.0575426
0.0575602
0.057591
0.0576328
0.0576901
0.0577758
0.0578898
0.0579934
0.0581104
0.058175
0.0580308
0.0579631
0.0578416
0.0577325
0.0576138
0.057525
0.0574656
0.0574212
0.0573884
0.0573697
0.0573606
0.0573622
0.0573682
0.057378
0.0573878
0.0573975
0.0574078
0.0574168
0.0574244
0.0574298
0.057435
0.0574386
0.057441
0.0574426
0.0574433
0.0574432
0.0574423
0.0574406
0.0574381
0.0574345
0.0574295
0.0574242
0.0574169
0.057408
0.0573982
0.0573887
0.0573793
0.0573697
0.0573641
0.057363
0.0573731
0.0573915
0.0574243
0.0574683
0.0575281
0.0576173
0.0577364
0.057845
0.0579672
0.0580343
0.0578848
0.0578116
0.0576885
0.0575741
0.05745
0.0573579
0.0572913
0.0572457
0.0572114
0.0571924
0.0571824
0.0571843
0.0571905
0.0572006
0.0572107
0.0572208
0.057232
0.0572414
0.0572494
0.0572553
0.0572609
0.0572647
0.0572672
0.0572689
0.0572696
0.0572695
0.0572686
0.0572668
0.0572642
0.0572604
0.057255
0.0572492
0.0572414
0.0572322
0.0572216
0.0572117
0.0572019
0.0571921
0.0571863
0.0571849
0.0571958
0.0572145
0.0572489
0.0572943
0.0573609
0.0574537
0.057578
0.057692
0.057816
0.0578884
0.0577389
0.0576604
0.0575296
0.0574068
0.0572809
0.0571811
0.0571162
0.0570642
0.0570305
0.0570093
0.0570037
0.057006
0.0570123
0.0570228
0.0570332
0.0570436
0.0570554
0.0570651
0.0570734
0.0570797
0.0570856
0.0570895
0.0570921
0.0570938
0.0570945
0.0570944
0.0570935
0.0570917
0.057089
0.0570851
0.0570794
0.0570732
0.0570651
0.0570556
0.0570444
0.0570342
0.0570242
0.057014
0.0570081
0.0570063
0.0570127
0.0570339
0.0570675
0.0571194
0.0571848
0.0572844
0.0574109
0.0575336
0.057665
0.0577427
0.0575883
0.0575022
0.0573613
0.0572322
0.0571009
0.0569972
0.0569298
0.0568821
0.0568472
0.0568257
0.0568188
0.0568203
0.0568262
0.0568366
0.0568471
0.056858
0.0568702
0.0568801
0.0568886
0.0568953
0.0569017
0.0569057
0.0569083
0.0569101
0.0569107
0.0569106
0.0569098
0.0569079
0.0569052
0.0569012
0.056895
0.0568884
0.0568802
0.0568704
0.0568587
0.0568482
0.0568381
0.056828
0.0568226
0.0568216
0.0568291
0.0568507
0.0568856
0.0569332
0.0570012
0.057105
0.0572363
0.0573655
0.0575075
0.0575923
0.0574289
0.0573404
0.0571864
0.0570515
0.0569199
0.0568127
0.0567428
0.0566931
0.0566546
0.0566314
0.0566232
0.0566246
0.0566307
0.0566415
0.0566523
0.0566635
0.0566763
0.0566865
0.0566953
0.0567023
0.0567092
0.0567133
0.056716
0.0567177
0.0567184
0.0567183
0.0567174
0.0567155
0.0567128
0.0567087
0.0567019
0.0566951
0.0566866
0.0566766
0.0566643
0.0566534
0.056643
0.0566326
0.056627
0.0566262
0.056635
0.0566583
0.0566968
0.0567464
0.0568171
0.0569239
0.0570556
0.057191
0.0573458
0.0574332
0.0572623
0.0571673
0.057006
0.0568705
0.0567328
0.0566221
0.0565469
0.0564933
0.0564534
0.0564296
0.0564208
0.0564224
0.0564287
0.0564397
0.0564509
0.0564626
0.0564759
0.0564864
0.0564955
0.0565027
0.0565102
0.0565144
0.0565172
0.0565189
0.0565196
0.0565195
0.0565186
0.0565167
0.0565139
0.0565096
0.0565023
0.0564953
0.0564865
0.0564762
0.0564634
0.0564521
0.0564413
0.0564307
0.0564249
0.0564239
0.0564333
0.0564572
0.0564973
0.0565508
0.056627
0.0567367
0.0568748
0.0570104
0.0571726
0.0572668
0.0570954
0.0569939
0.056824
0.0566833
0.0565394
0.0564251
0.0563472
0.0562925
0.0562514
0.056227
0.0562176
0.0562193
0.056226
0.0562372
0.0562487
0.0562609
0.0562747
0.0562856
0.0562949
0.0563024
0.0563105
0.0563148
0.0563176
0.0563194
0.0563201
0.05632
0.0563191
0.0563171
0.0563143
0.0563099
0.056302
0.0562947
0.0562856
0.056275
0.0562617
0.05625
0.0562388
0.0562281
0.056222
0.0562208
0.0562307
0.0562554
0.0562967
0.0563512
0.0564292
0.0565434
0.0566879
0.0568286
0.0569992
0.0571001
0.0569193
0.0568147
0.0566355
0.0564898
0.0563395
0.0562214
0.0561407
0.0560853
0.0560429
0.0560177
0.0560034
0.0560053
0.0560126
0.0560242
0.0560367
0.0560497
0.0560644
0.0560762
0.0560862
0.0560942
0.0561034
0.0561082
0.0561112
0.0561132
0.056114
0.0561139
0.0561129
0.0561107
0.0561076
0.0561028
0.0560938
0.056086
0.0560762
0.0560648
0.0560506
0.056038
0.0560259
0.0560149
0.0560081
0.0560068
0.0560215
0.056047
0.0560895
0.0561449
0.056226
0.0563435
0.0564945
0.0566404
0.05682
0.0569243
0.0567342
0.0566231
0.0564403
0.0562896
0.0561328
0.0560061
0.0559266
0.0558712
0.0558275
0.0558016
0.0557866
0.0557883
0.0557963
0.0558078
0.055821
0.0558345
0.0558497
0.0558619
0.0558722
0.0558804
0.0558847
0.0558896
0.0558928
0.0558949
0.0558957
0.0558955
0.0558945
0.0558923
0.055889
0.0558841
0.05588
0.0558719
0.0558619
0.0558501
0.0558354
0.0558224
0.0558096
0.0557986
0.0557912
0.0557901
0.0558056
0.0558318
0.0558755
0.0559308
0.0560112
0.056137
0.0562945
0.0564456
0.0566282
0.0567395
0.0565484
0.0564312
0.0562379
0.0560785
0.0559194
0.0557878
0.0557058
0.0556485
0.0556025
0.0555784
0.0555627
0.0555638
0.0555729
0.055584
0.0555965
0.0556112
0.0556276
0.0556405
0.0556511
0.0556597
0.0556644
0.0556694
0.0556727
0.0556748
0.0556756
0.0556755
0.0556744
0.0556721
0.0556688
0.0556638
0.0556592
0.0556509
0.0556406
0.055628
0.0556121
0.055598
0.0555862
0.0555753
0.0555669
0.0555663
0.0555826
0.055607
0.0556532
0.0557102
0.0557932
0.0559235
0.0560837
0.0562436
0.0564362
0.056554
0.056356
0.0562323
0.0560268
0.0558642
0.0556963
0.0555576
0.0554777
0.0554136
0.055366
0.0553414
0.0553314
0.0553272
0.055339
0.055353
0.0553663
0.0553816
0.0553985
0.0554119
0.0554228
0.0554316
0.0554368
0.055442
0.0554454
0.0554475
0.0554484
0.0554482
0.0554472
0.0554448
0.0554414
0.0554362
0.0554312
0.0554226
0.055412
0.055399
0.0553826
0.0553679
0.0553551
0.0553415
0.0553304
0.0553351
0.0553457
0.0553707
0.0554186
0.0554823
0.0555634
0.0557006
0.0558696
0.0560334
0.0562372
0.0563618
0.0561566
0.0560269
0.0558093
0.0556418
0.0554603
0.0553241
0.0552363
0.0551703
0.0551213
0.0550962
0.0550858
0.0550867
0.0550938
0.0551079
0.0551221
0.0551382
0.0551556
0.0551697
0.055181
0.0551904
0.0551968
0.0552023
0.0552059
0.0552082
0.0552091
0.0552089
0.0552078
0.0552053
0.0552017
0.0551962
0.05519
0.0551807
0.0551698
0.0551561
0.0551392
0.0551237
0.0551101
0.0550964
0.05509
0.0550897
0.0551007
0.0551262
0.0551755
0.0552412
0.0553301
0.0554644
0.0556482
0.0558163
0.0560315
0.0561627
0.0559499
0.0558139
0.0555834
0.0554058
0.0552152
0.055079
0.0549861
0.0549187
0.0548752
0.0548496
0.0548387
0.0548385
0.0548472
0.0548615
0.0548763
0.0548929
0.0549108
0.0549254
0.054937
0.0549468
0.0549537
0.0549593
0.054963
0.0549654
0.0549663
0.0549662
0.054965
0.0549624
0.0549587
0.0549531
0.0549464
0.0549367
0.0549255
0.0549114
0.0548939
0.0548779
0.0548638
0.0548499
0.054842
0.0548428
0.0548542
0.0548802
0.0549241
0.0549912
0.0550858
0.055219
0.0554132
0.0555908
0.0558184
0.0559564
0.055733
0.0555867
0.0553458
0.0551607
0.0549682
0.0548296
0.0547347
0.0546655
0.0546205
0.0545927
0.0545806
0.0545824
0.0545888
0.0546035
0.0546189
0.0546362
0.0546552
0.0546704
0.0546826
0.0546932
0.0547007
0.0547066
0.0547104
0.0547129
0.0547139
0.0547137
0.0547125
0.0547098
0.0547059
0.0547
0.0546927
0.0546824
0.0546705
0.0546558
0.0546373
0.0546207
0.054606
0.0545918
0.054586
0.0545849
0.0545976
0.0546259
0.0546711
0.0547399
0.0548366
0.0549725
0.0551678
0.0553547
0.0555911
0.0557402
0.0555034
0.0553497
0.0550972
0.0549054
0.0547133
0.0545722
0.054475
0.0544038
0.0543577
0.0543294
0.054317
0.0543182
0.0543255
0.0543406
0.0543564
0.0543743
0.0543939
0.0544096
0.0544221
0.0544332
0.0544412
0.0544472
0.0544511
0.0544537
0.0544547
0.0544545
0.0544533
0.0544505
0.0544465
0.0544405
0.0544327
0.0544218
0.0544097
0.0543945
0.0543754
0.0543583
0.0543431
0.0543286
0.0543219
0.0543214
0.0543345
0.0543633
0.0544097
0.0544805
0.0545795
0.0547179
0.0549124
0.0551065
0.0553547
0.0555109
0.0552649
0.055111
0.0548404
0.0546473
0.0544503
0.0543043
0.0542025
0.0541333
0.0540863
0.0540575
0.0540448
0.0540454
0.0540535
0.054069
0.0540853
0.0541038
0.0541239
0.0541401
0.054153
0.0541649
0.0541731
0.0541793
0.0541833
0.0541859
0.0541869
0.0541868
0.0541855
0.0541826
0.0541786
0.0541724
0.0541644
0.0541527
0.0541403
0.0541245
0.0541049
0.0540872
0.0540716
0.0540567
0.0540493
0.0540494
0.0540628
0.0540922
0.0541396
0.0542083
0.0543123
0.0544549
0.0546545
0.0548488
0.0551169
0.0552727
0.0550249
0.0548628
0.0545829
0.0543771
0.0541791
0.0540301
0.0539249
0.053854
0.053806
0.0537767
0.0537637
0.0537639
0.0537726
0.0537885
0.0538053
0.0538243
0.05384
0.053857
0.0538704
0.0538835
0.053892
0.0538984
0.0539026
0.0539053
0.0539064
0.0539062
0.0539049
0.0539019
0.0538977
0.0538913
0.0538829
0.0538701
0.0538572
0.0538407
0.0538255
0.0538073
0.0537912
0.053776
0.0537679
0.0537685
0.0537822
0.053812
0.0538605
0.0539309
0.0540388
0.0541834
0.0543865
0.0545905
0.0548698
0.055033
0.054776
0.0546048
0.0543173
0.0540988
0.0538982
0.0537472
0.0536379
0.0535655
0.0535112
0.0534812
0.0534684
0.0534686
0.0534786
0.0534959
0.0535141
0.0535351
0.0535518
0.0535693
0.053583
0.0535972
0.0536058
0.0536124
0.0536166
0.0536194
0.0536205
0.0536203
0.0536189
0.0536159
0.0536117
0.0536051
0.0535967
0.0535827
0.0535694
0.0535524
0.0535365
0.0535162
0.0534987
0.0534822
0.0534729
0.0534734
0.0534869
0.0535175
0.0535723
0.0536441
0.0537573
0.0539033
0.0541078
0.0543242
0.0546129
0.0547843
0.0545154
0.0543328
0.0540428
0.0538113
0.0536062
0.0534551
0.0533413
0.0532677
0.0532119
0.0531814
0.0531685
0.0531682
0.0531789
0.0531966
0.0532154
0.0532371
0.053254
0.0532721
0.0532862
0.0532956
0.0533043
0.0533111
0.0533156
0.0533185
0.0533197
0.0533196
0.0533181
0.0533149
0.0533104
0.0533036
0.0532951
0.0532859
0.0532723
0.0532547
0.0532385
0.0532176
0.0531996
0.0531826
0.0531727
0.0531737
0.0531874
0.0532184
0.0532748
0.0533476
0.0534623
0.0536123
0.0538202
0.0540492
0.0543415
0.0545242
0.0542395
0.0540541
0.0537579
0.0535098
0.0533053
0.0531533
0.053033
0.0529572
0.0528985
0.0528673
0.0528543
0.0528581
0.0528693
0.0528876
0.0529068
0.0529293
0.0529465
0.0529652
0.0529797
0.0529901
0.0529987
0.0530057
0.0530102
0.0530132
0.0530144
0.0530143
0.0530128
0.0530095
0.0530049
0.052998
0.0529895
0.0529794
0.0529654
0.0529472
0.0529308
0.0529091
0.0528906
0.0528731
0.0528627
0.0528598
0.0528736
0.0529054
0.0529644
0.0530398
0.0531618
0.0533118
0.0535194
0.053764
0.054063
0.0542487
0.0539614
0.0537658
0.0534622
0.0532029
0.0529894
0.052834
0.0527075
0.0526315
0.0525791
0.0525475
0.0525345
0.0525364
0.0525467
0.0525648
0.052584
0.0526065
0.0526243
0.0526432
0.0526581
0.0526693
0.0526779
0.0526849
0.0526895
0.0526926
0.0526938
0.0526937
0.0526921
0.0526888
0.0526842
0.0526771
0.0526687
0.0526578
0.0526434
0.0526251
0.052608
0.0525864
0.052568
0.0525508
0.0525415
0.0525402
0.052554
0.0525862
0.0526387
0.0527145
0.0528434
0.0529966
0.0532127
0.0534683
0.0537736
0.0539708
0.0536729
0.0534665
0.0531503
0.0528854
0.0526593
0.0525023
0.0523796
0.0523032
0.0522449
0.0522107
0.0521964
0.0521974
0.052208
0.0522266
0.0522462
0.0522695
0.0522876
0.0523071
0.0523224
0.0523343
0.0523431
0.0523503
0.052355
0.0523581
0.0523594
0.0523592
0.0523576
0.0523542
0.0523495
0.0523423
0.0523338
0.0523222
0.0523074
0.0522884
0.0522712
0.0522487
0.05223
0.0522123
0.0522027
0.0522023
0.0522175
0.0522523
0.0523106
0.0523868
0.0525122
0.052667
0.0528962
0.0531564
0.0534743
0.0536829
0.0533722
0.0531493
0.0528312
0.0525584
0.0523264
0.0521677
0.0520411
0.0519557
0.0518954
0.0518609
0.0518465
0.0518472
0.0518581
0.0518772
0.0518972
0.0519214
0.0519398
0.0519599
0.0519756
0.0519881
0.0519971
0.0520044
0.0520091
0.0520124
0.0520137
0.0520135
0.0520119
0.0520084
0.0520036
0.0519963
0.0519875
0.0519753
0.0519602
0.0519406
0.051923
0.0518999
0.0518808
0.0518626
0.0518529
0.0518526
0.0518679
0.0519032
0.0519634
0.0520487
0.052178
0.0523345
0.0525687
0.0528378
0.0531574
0.0533837
0.0530521
0.0528284
0.0524934
0.0522207
0.0519774
0.0518212
0.0516922
0.0516049
0.0515435
0.0515085
0.051494
0.0514948
0.0515058
0.0515254
0.0515458
0.0515707
0.0515895
0.0516103
0.0516263
0.0516393
0.0516486
0.051656
0.0516609
0.0516642
0.0516655
0.0516654
0.0516637
0.0516601
0.0516552
0.0516478
0.0516387
0.0516261
0.0516107
0.0515904
0.0515725
0.0515486
0.051529
0.0515104
0.0515007
0.0515004
0.0515158
0.0515515
0.0516129
0.0517002
0.0518319
0.0519862
0.0522311
0.0525008
0.0528367
0.0530653
0.0527293
0.0524917
0.052151
0.0518708
0.051622
0.0514624
0.0513285
0.0512383
0.0511752
0.0511396
0.0511262
0.0511294
0.0511422
0.0511623
0.0511832
0.0512089
0.0512281
0.0512496
0.0512659
0.0512792
0.0512889
0.0512965
0.0513015
0.0513048
0.0513062
0.051306
0.0513043
0.0513007
0.0512957
0.0512881
0.0512787
0.0512657
0.05125
0.051229
0.0512108
0.0511861
0.0511662
0.051147
0.0511349
0.0511328
0.0511472
0.0511836
0.0512467
0.0513371
0.0514737
0.0516313
0.0518812
0.0521589
0.0525007
0.0527352
0.0523956
0.0521482
0.0517968
0.0515051
0.0512476
0.0510843
0.0509487
0.0508642
0.0508003
0.0507643
0.0507508
0.0507544
0.0507672
0.0507879
0.0508092
0.0508357
0.0508552
0.0508775
0.050894
0.0509076
0.0509176
0.0509254
0.0509305
0.050934
0.0509354
0.0509352
0.0509335
0.0509297
0.0509246
0.0509168
0.0509071
0.0508938
0.050878
0.0508561
0.0508376
0.0508122
0.0507918
0.0507722
0.0507601
0.0507577
0.0507721
0.0508089
0.050873
0.0509577
0.0510961
0.0512574
0.051516
0.0518051
0.0521572
0.0524031
0.0520511
0.0517925
0.0514218
0.0511305
0.0508686
0.0507009
0.0505654
0.0504782
0.0504135
0.0503771
0.0503635
0.0503674
0.0503805
0.0504016
0.0504234
0.0504507
0.0504705
0.0504939
0.0505103
0.0505242
0.0505346
0.0505425
0.0505478
0.0505513
0.0505528
0.0505526
0.0505508
0.050547
0.0505417
0.0505338
0.0505237
0.0505101
0.0504943
0.0504715
0.0504527
0.0504265
0.0504058
0.0503856
0.0503734
0.0503707
0.0503852
0.0504223
0.0504874
0.0505748
0.0507133
0.0508787
0.0511414
0.0514311
0.0518018
0.0520596
0.0516951
0.0514226
0.0510415
0.0507444
0.0504776
0.0503051
0.0501697
0.0500801
0.0500146
0.0499779
0.0499643
0.0499683
0.0499817
0.0500034
0.0500256
0.0500536
0.0500737
0.050094
0.0501104
0.0501248
0.0501354
0.0501436
0.050149
0.0501527
0.0501541
0.0501539
0.0501521
0.0501482
0.0501428
0.0501345
0.0501242
0.0501103
0.0500944
0.0500748
0.0500556
0.0500288
0.0500076
0.049987
0.0499745
0.0499716
0.0499862
0.0500237
0.0500896
0.0501795
0.050318
0.0504881
0.0507553
0.0510518
0.0514316
0.0517042
0.051325
0.0510416
0.0506495
0.0503433
0.050075
0.0498968
0.0497613
0.0496695
0.0496034
0.0495662
0.0495526
0.0495568
0.0495706
0.0495928
0.0496155
0.0496441
0.0496646
0.0496858
0.0497022
0.0497168
0.0497276
0.0497361
0.0497416
0.0497454
0.0497469
0.0497467
0.0497448
0.0497407
0.0497353
0.0497268
0.0497162
0.049702
0.0496862
0.0496658
0.0496462
0.0496188
0.0495972
0.0495761
0.0495633
0.0495602
0.0495749
0.0496127
0.0496794
0.0497715
0.0499103
0.050086
0.0503542
0.0506606
0.0510504
0.0513346
0.0509425
0.0506451
0.050245
0.0499291
0.0496603
0.0494718
0.04934
0.0492463
0.0491795
0.049142
0.0491283
0.0491327
0.049147
0.0491696
0.0491929
0.049222
0.0492428
0.0492648
0.0492813
0.0492962
0.0493072
0.0493159
0.0493215
0.0493254
0.0493269
0.0493267
0.0493249
0.0493207
0.0493151
0.0493064
0.0492957
0.0492812
0.0492653
0.0492441
0.0492242
0.0491963
0.0491742
0.0491526
0.0491395
0.0491362
0.0491509
0.0491891
0.0492565
0.0493506
0.049486
0.0496719
0.04994
0.0502571
0.0506533
0.0509527
0.050545
0.050235
0.0498284
0.0495027
0.0492316
0.0490378
0.0489055
0.04881
0.0487428
0.0487048
0.0486911
0.0486958
0.0487104
0.0487336
0.0487573
0.048787
0.0488082
0.0488309
0.0488476
0.0488627
0.048874
0.0488828
0.0488886
0.0488926
0.0488941
0.0488939
0.048892
0.0488877
0.048882
0.0488731
0.0488622
0.0488475
0.0488314
0.0488095
0.0487893
0.0487608
0.0487383
0.0487163
0.0487028
0.0486993
0.048714
0.0487525
0.0488207
0.0489165
0.0490524
0.0492439
0.0495137
0.0498415
0.0502425
0.0505558
0.0501327
0.0498136
0.0493954
0.0490638
0.0487891
0.0485907
0.0484575
0.0483606
0.0482929
0.0482544
0.0482408
0.0482457
0.0482608
0.0482844
0.0483085
0.0483389
0.0483604
0.0483837
0.0484007
0.0484161
0.0484275
0.0484366
0.0484425
0.0484465
0.0484481
0.0484479
0.048446
0.0484416
0.0484358
0.0484267
0.0484156
0.0484006
0.0483843
0.0483618
0.0483414
0.0483121
0.0482892
0.0482668
0.0482529
0.0482493
0.048264
0.0483027
0.0483716
0.0484689
0.0486057
0.0488022
0.0490749
0.0494095
0.0498207
0.0501439
0.0497073
0.0493785
0.0489488
0.0486089
0.0483329
0.0481305
0.0479957
0.0478976
0.0478297
0.0477907
0.0477771
)
;

boundaryField
{
    fuel
    {
        type            fixedValue;
        value           nonuniform 0();
    }
    wall
    {
        type            zeroGradient;
    }
    outlet
    {
        type            zeroGradient;
    }
    frontAndBack
    {
        type            empty;
    }
    procBoundary2to0
    {
        type            processor;
        value           nonuniform List<scalar> 
53
(
0.0592476
0.0592192
0.0591519
0.0590939
0.0590163
0.0589577
0.0589152
0.0588863
0.0588647
0.0588544
0.058849
0.0588496
0.0588522
0.0588573
0.0588637
0.058873
0.0588802
0.0588857
0.0587619
0.0587619
0.0587658
0.0587687
0.0587709
0.0587724
0.0587733
0.0587737
0.0587736
0.0587731
0.0587721
0.0586368
0.0586368
0.0586343
0.0586312
0.058627
0.0586222
0.0586162
0.0586081
0.0585974
0.0585902
0.0585843
0.0585812
0.05858
0.0584506
0.0584506
0.0584648
0.0584899
0.0585229
0.0585713
0.0586399
0.0587287
0.0587988
0.0588795
0.0589172
)
;
    }
    procBoundary2to3
    {
        type            processor;
        value           nonuniform List<scalar> 
51
(
0.047782
0.0477975
0.0478216
0.0478461
0.0478771
0.0478989
0.0479227
0.0479402
0.0479558
0.0479673
0.0479766
0.0479826
0.0479868
0.0479884
0.0479882
0.0479862
0.0479818
0.0479759
0.0479666
0.0479554
0.0479401
0.0479235
0.0479004
0.0478798
0.0478498
0.0478266
0.0478038
0.0477896
0.0477857
0.0478003
0.0478393
0.0479089
0.0480074
0.0481456
0.0483465
0.04862
0.048964
0.0493845
0.0497188
0.0492653
0.0489307
0.0484866
0.0481417
0.0478607
0.0476569
0.0475197
0.0474207
0.0473526
0.047313
0.047782
0.0472995
)
;
    }
}


// ************************************************************************* //
