/*--------------------------------*- C++ -*----------------------------------*\
| =========                 |                                                 |
| \\      /  F ield         | OpenFOAM: The Open Source CFD Toolbox           |
|  \\    /   O peration     | Version:  dev                                   |
|   \\  /    A nd           | Web:      www.OpenFOAM.org                      |
|    \\/     M anipulation  |                                                 |
\*---------------------------------------------------------------------------*/
FoamFile
{
    version     2.0;
    format      ascii;
    class       volScalarField;
    location    "0.02";
    object      HCCOH;
}
// * * * * * * * * * * * * * * * * * * * * * * * * * * * * * * * * * * * * * //

dimensions      [0 0 0 0 0 0 0];

internalField   nonuniform List<scalar> 
250
(
3.13831e-07
2.07561e-05
2.16894e-05
2.17222e-05
2.17271e-05
2.17208e-05
2.17229e-05
2.17166e-05
2.17358e-05
6.12213e-07
1.96026e-05
2.03893e-05
2.03952e-05
2.03898e-05
2.03802e-05
2.03808e-05
2.0376e-05
2.03803e-05
8.04702e-07
1.71838e-05
1.83331e-05
1.8337e-05
1.83228e-05
1.83072e-05
1.83053e-05
1.8299e-05
1.83011e-05
8.91808e-07
1.51916e-05
1.68488e-05
1.68674e-05
1.68451e-05
1.68232e-05
1.68158e-05
1.68081e-05
1.68101e-05
9.01728e-07
1.36545e-05
1.57508e-05
1.57929e-05
1.57627e-05
1.57379e-05
1.57173e-05
1.57082e-05
1.57106e-05
8.63353e-07
1.24887e-05
1.48569e-05
1.48988e-05
1.48413e-05
1.48152e-05
1.4837e-05
1.48269e-05
1.48298e-05
7.97267e-07
1.16075e-05
1.41136e-05
1.41726e-05
1.4101e-05
1.40716e-05
1.40894e-05
1.40785e-05
1.40821e-05
7.21811e-07
1.09013e-05
1.34692e-05
1.3539e-05
1.34509e-05
1.33982e-05
1.33675e-05
1.3351e-05
1.33537e-05
6.29621e-07
1.03567e-05
1.28564e-05
1.29144e-05
1.2844e-05
1.28042e-05
1.27626e-05
1.27448e-05
1.27482e-05
5.47654e-07
9.93519e-06
1.22656e-05
1.23099e-05
1.22311e-05
1.2188e-05
1.22112e-05
1.21928e-05
1.21972e-05
5.42564e-07
9.60162e-06
1.17197e-05
1.18202e-05
1.17344e-05
1.16891e-05
1.16917e-05
1.16578e-05
1.16582e-05
1.16452e-05
6.51227e-07
9.2912e-06
1.12792e-05
1.13518e-05
1.12183e-05
1.11628e-05
1.11571e-05
1.11192e-05
1.11196e-05
1.11049e-05
8.88797e-07
9.08627e-06
1.08242e-05
1.08723e-05
1.07273e-05
1.06663e-05
1.06532e-05
1.06108e-05
1.06112e-05
1.05946e-05
1.31917e-06
8.92325e-06
1.03933e-05
1.04185e-05
1.02633e-05
1.01959e-05
1.01766e-05
1.01294e-05
1.01299e-05
1.01111e-05
1.83371e-06
8.78666e-06
9.98763e-06
9.98723e-06
9.8235e-06
9.74891e-06
9.72453e-06
9.67241e-06
9.6728e-06
9.65173e-06
2.44796e-06
8.66478e-06
9.60311e-06
9.57547e-06
9.4051e-06
9.32326e-06
9.29475e-06
9.23752e-06
9.23776e-06
9.21431e-06
3.11661e-06
8.54757e-06
9.23657e-06
9.18054e-06
9.00564e-06
8.91701e-06
8.88508e-06
8.82272e-06
8.82271e-06
8.79679e-06
3.79235e-06
8.42334e-06
8.88533e-06
8.80035e-06
8.62264e-06
8.52826e-06
8.49349e-06
8.42604e-06
8.42571e-06
8.39724e-06
4.43259e-06
8.2643e-06
8.54498e-06
8.43482e-06
8.25398e-06
8.15502e-06
8.11796e-06
8.04553e-06
8.04485e-06
8.01376e-06
5.00432e-06
8.11876e-06
8.24697e-06
8.08482e-06
7.89884e-06
7.7952e-06
7.75641e-06
7.67912e-06
7.67816e-06
7.64437e-06
5.48402e-06
7.95715e-06
7.92821e-06
7.77446e-06
7.55592e-06
7.44669e-06
7.40667e-06
7.32459e-06
7.32357e-06
7.287e-06
5.85832e-06
7.77664e-06
7.63455e-06
7.46813e-06
7.22326e-06
7.10768e-06
7.0664e-06
6.97949e-06
6.97882e-06
6.93936e-06
6.12254e-06
7.57569e-06
7.34263e-06
7.16718e-06
6.92438e-06
6.77686e-06
6.73298e-06
6.64114e-06
6.64145e-06
6.59901e-06
6.27868e-06
7.35371e-06
7.04984e-06
6.87015e-06
6.62507e-06
6.45092e-06
6.40328e-06
6.30648e-06
6.30874e-06
6.26326e-06
6.33333e-06
7.11038e-06
6.75324e-06
6.57096e-06
6.32812e-06
6.15508e-06
6.07307e-06
5.97171e-06
5.97762e-06
5.92917e-06
6.29585e-06
6.8455e-06
6.44987e-06
6.26895e-06
6.02891e-06
5.85627e-06
5.77271e-06
5.66814e-06
5.64426e-06
5.59318e-06
)
;

boundaryField
{
    fuel
    {
        type            fixedValue;
        value           uniform 0;
    }
    wall
    {
        type            zeroGradient;
    }
    outlet
    {
        type            zeroGradient;
    }
    frontAndBack
    {
        type            empty;
    }
    procBoundary2to0
    {
        type            processor;
        value           nonuniform List<scalar> 
12
(
5.92913e-06
6.17605e-06
6.55854e-06
6.13677e-06
5.96026e-06
5.72543e-06
5.55266e-06
5.46932e-06
5.3638e-06
5.33974e-06
5.59316e-06
5.28685e-06
)
;
    }
    procBoundary2to3
    {
        type            processor;
        value           nonuniform List<scalar> 
25
(
2.17256e-05
2.03774e-05
1.82987e-05
1.68072e-05
1.57071e-05
1.48258e-05
1.40775e-05
1.33471e-05
1.27408e-05
1.21891e-05
1.21891e-05
1.16453e-05
1.1105e-05
1.05947e-05
1.01112e-05
9.65184e-06
9.21442e-06
8.79689e-06
8.39733e-06
8.01383e-06
7.64443e-06
7.28703e-06
6.93937e-06
6.59898e-06
6.2632e-06
)
;
    }
}


// ************************************************************************* //
