/*--------------------------------*- C++ -*----------------------------------*\
| =========                 |                                                 |
| \\      /  F ield         | OpenFOAM: The Open Source CFD Toolbox           |
|  \\    /   O peration     | Version:  dev                                   |
|   \\  /    A nd           | Web:      www.OpenFOAM.org                      |
|    \\/     M anipulation  |                                                 |
\*---------------------------------------------------------------------------*/
FoamFile
{
    version     2.0;
    format      ascii;
    class       volScalarField;
    location    "0.02";
    object      HCCOH;
}
// * * * * * * * * * * * * * * * * * * * * * * * * * * * * * * * * * * * * * //

dimensions      [0 0 0 0 0 0 0];

internalField   nonuniform List<scalar> 
25
(
1.02789e-07
8.95958e-08
7.76733e-08
6.70447e-08
5.77149e-08
4.93647e-08
4.24578e-08
3.66424e-08
3.1852e-08
2.80097e-08
2.50399e-08
2.28703e-08
2.14286e-08
2.06358e-08
2.04008e-08
2.062e-08
2.11825e-08
2.19794e-08
2.29125e-08
2.39006e-08
2.48806e-08
2.58055e-08
2.66417e-08
2.73645e-08
2.79545e-08
)
;

boundaryField
{
    wall
    {
        type            zeroGradient;
    }
    fuel
    {
        type            fixedValue;
        value           nonuniform 0();
    }
    outlet
    {
        type            inletOutlet;
        inletValue      nonuniform 0();
        value           nonuniform 0();
    }
    procBoundary2to1
    {
        type            processor;
        value           uniform 1.17163e-07;
    }
    procBoundary2to3
    {
        type            processor;
        value           uniform 2.84032e-08;
    }
}


// ************************************************************************* //
