/*--------------------------------*- C++ -*----------------------------------*\
| =========                 |                                                 |
| \\      /  F ield         | OpenFOAM: The Open Source CFD Toolbox           |
|  \\    /   O peration     | Version:  dev                                   |
|   \\  /    A nd           | Web:      www.OpenFOAM.org                      |
|    \\/     M anipulation  |                                                 |
\*---------------------------------------------------------------------------*/
FoamFile
{
    version     2.0;
    format      ascii;
    class       volScalarField;
    location    "0.02";
    object      HCCO;
}
// * * * * * * * * * * * * * * * * * * * * * * * * * * * * * * * * * * * * * //

dimensions      [0 0 0 0 0 0 0];

internalField   nonuniform List<scalar> 
250
(
3.56965e-08
9.61054e-05
8.52482e-05
8.41166e-05
8.39565e-05
8.39594e-05
8.39827e-05
8.38926e-05
8.40482e-05
1.59539e-08
5.00351e-05
4.43143e-05
4.37894e-05
4.36646e-05
4.36425e-05
4.36459e-05
4.36174e-05
4.36452e-05
9.91507e-09
2.526e-05
2.20634e-05
2.18235e-05
2.17751e-05
2.17532e-05
2.17546e-05
2.17391e-05
2.17471e-05
6.70048e-09
1.35744e-05
1.14288e-05
1.13277e-05
1.1304e-05
1.1287e-05
1.12802e-05
1.12699e-05
1.12745e-05
6.53882e-09
7.95251e-06
6.44246e-06
6.42145e-06
6.41401e-06
6.40623e-06
6.36643e-06
6.35957e-06
6.36313e-06
1.55504e-08
5.03951e-06
4.02048e-06
4.00133e-06
3.97302e-06
3.96604e-06
4.01629e-06
4.01226e-06
4.01539e-06
7.12259e-08
3.409e-06
2.81928e-06
2.83654e-06
2.81659e-06
2.81656e-06
2.84852e-06
2.84686e-06
2.85e-06
2.69666e-07
2.43622e-06
2.18453e-06
2.22597e-06
2.20815e-06
2.19915e-06
2.19181e-06
2.18894e-06
2.19108e-06
5.98531e-07
1.85217e-06
1.80799e-06
1.85878e-06
1.85793e-06
1.8576e-06
1.84884e-06
1.84742e-06
1.84988e-06
8.62194e-07
1.48444e-06
1.57016e-06
1.62793e-06
1.62867e-06
1.62832e-06
1.64133e-06
1.64127e-06
1.64422e-06
9.17785e-07
1.24078e-06
1.41394e-06
1.49228e-06
1.49434e-06
1.49453e-06
1.50172e-06
1.49926e-06
1.50152e-06
1.50053e-06
8.80902e-07
1.05012e-06
1.31528e-06
1.39041e-06
1.38568e-06
1.38513e-06
1.39089e-06
1.38893e-06
1.39161e-06
1.39071e-06
8.23668e-07
9.38535e-07
1.23049e-06
1.30233e-06
1.29808e-06
1.29785e-06
1.30294e-06
1.30122e-06
1.30434e-06
1.30346e-06
7.33647e-07
8.61617e-07
1.15937e-06
1.22712e-06
1.22313e-06
1.2231e-06
1.22802e-06
1.22641e-06
1.22999e-06
1.22909e-06
6.42233e-07
8.09017e-07
1.09712e-06
1.15955e-06
1.15578e-06
1.1559e-06
1.16101e-06
1.15945e-06
1.16352e-06
1.16257e-06
5.5642e-07
7.73215e-07
1.04032e-06
1.09671e-06
1.09328e-06
1.09358e-06
1.09912e-06
1.0976e-06
1.10219e-06
1.10117e-06
4.89514e-07
7.48536e-07
9.86957e-07
1.03687e-06
1.03403e-06
1.0346e-06
1.04076e-06
1.03929e-06
1.04442e-06
1.04332e-06
4.45639e-07
7.30271e-07
9.35724e-07
9.78989e-07
9.76985e-07
9.77986e-07
9.84915e-07
9.83513e-07
9.8922e-07
9.88034e-07
4.21025e-07
7.12763e-07
8.85432e-07
9.22658e-07
9.21435e-07
9.23051e-07
9.30879e-07
9.29573e-07
9.35893e-07
9.34608e-07
4.0961e-07
6.98197e-07
8.40672e-07
8.67978e-07
8.66937e-07
8.69256e-07
8.78106e-07
8.76914e-07
8.83892e-07
8.82493e-07
4.0716e-07
6.81929e-07
7.91571e-07
8.18677e-07
8.13316e-07
8.16167e-07
8.26135e-07
8.25056e-07
8.32747e-07
8.31213e-07
4.10801e-07
6.62617e-07
7.45507e-07
7.69067e-07
7.60331e-07
7.63485e-07
7.74552e-07
7.73556e-07
7.82031e-07
7.80334e-07
4.1706e-07
6.39392e-07
6.98875e-07
7.19433e-07
7.12057e-07
7.11063e-07
7.22957e-07
7.21992e-07
7.31343e-07
7.29453e-07
4.21838e-07
6.11846e-07
6.51474e-07
6.69686e-07
6.63091e-07
6.58521e-07
6.70925e-07
6.69946e-07
6.80298e-07
6.78194e-07
4.21587e-07
5.79939e-07
6.03187e-07
6.19589e-07
6.13693e-07
6.10398e-07
6.17948e-07
6.16969e-07
6.28522e-07
6.26206e-07
4.14248e-07
5.43957e-07
5.54007e-07
5.69082e-07
5.63822e-07
5.61483e-07
5.69509e-07
5.68581e-07
5.75626e-07
5.7314e-07
)
;

boundaryField
{
    fuel
    {
        type            fixedValue;
        value           uniform 0;
    }
    wall
    {
        type            zeroGradient;
    }
    outlet
    {
        type            zeroGradient;
    }
    frontAndBack
    {
        type            empty;
    }
    procBoundary2to0
    {
        type            processor;
        value           nonuniform List<scalar> 
12
(
6.2622e-07
3.98859e-07
5.04335e-07
5.04114e-07
5.18236e-07
5.13562e-07
5.11953e-07
5.20487e-07
5.19882e-07
5.27167e-07
5.73167e-07
5.24615e-07
)
;
    }
    procBoundary2to3
    {
        type            processor;
        value           nonuniform List<scalar> 
25
(
8.38847e-05
4.36129e-05
2.17381e-05
1.12703e-05
6.36054e-06
4.0137e-06
2.84906e-06
2.18987e-06
1.84913e-06
1.64383e-06
1.64383e-06
1.50051e-06
1.39071e-06
1.30347e-06
1.22911e-06
1.16259e-06
1.10119e-06
1.04334e-06
9.88058e-07
9.34633e-07
8.82518e-07
8.31238e-07
7.80358e-07
7.29474e-07
6.78208e-07
)
;
    }
}


// ************************************************************************* //
