/*--------------------------------*- C++ -*----------------------------------*\
| =========                 |                                                 |
| \\      /  F ield         | OpenFOAM: The Open Source CFD Toolbox           |
|  \\    /   O peration     | Version:  dev                                   |
|   \\  /    A nd           | Web:      www.OpenFOAM.org                      |
|    \\/     M anipulation  |                                                 |
\*---------------------------------------------------------------------------*/
FoamFile
{
    version     2.0;
    format      ascii;
    class       volScalarField;
    location    "0.02";
    object      i-A1C2H2;
}
// * * * * * * * * * * * * * * * * * * * * * * * * * * * * * * * * * * * * * //

dimensions      [0 0 0 0 0 0 0];

internalField   nonuniform List<scalar> 
250
(
8.59341e-10
4.30771e-09
3.50926e-09
3.43298e-09
3.42972e-09
3.42484e-09
3.41586e-09
3.41202e-09
3.40847e-09
2.20133e-09
2.80541e-09
2.12635e-09
2.06341e-09
2.06142e-09
2.0572e-09
2.04959e-09
2.04577e-09
2.04319e-09
3.08333e-09
1.71277e-09
1.16381e-09
1.11725e-09
1.11562e-09
1.11177e-09
1.10692e-09
1.1038e-09
1.10245e-09
3.27679e-09
1.08235e-09
6.38686e-10
6.05287e-10
6.04728e-10
6.0095e-10
5.97922e-10
5.95586e-10
5.9446e-10
2.97601e-09
7.34939e-10
3.70106e-10
3.45262e-10
3.41805e-10
3.41927e-10
3.40346e-10
3.38826e-10
3.38083e-10
2.88215e-09
5.37327e-10
2.31183e-10
2.11517e-10
2.09065e-10
2.08568e-10
2.06339e-10
2.03786e-10
2.02921e-10
3.9393e-09
4.1702e-10
1.56625e-10
1.40476e-10
1.38488e-10
1.37891e-10
1.3635e-10
1.34121e-10
1.33451e-10
6.68683e-09
3.37953e-10
1.11429e-10
1.0043e-10
9.83614e-11
9.78603e-11
9.67858e-11
9.45796e-11
9.40343e-11
6.76074e-09
2.78014e-10
8.55148e-11
7.37521e-11
7.40879e-11
7.4043e-11
7.24212e-11
7.08922e-11
7.04385e-11
5.50014e-09
2.2945e-10
6.73329e-11
5.86133e-11
5.84798e-11
5.73674e-11
5.56845e-11
5.38846e-11
5.34946e-11
3.87432e-09
1.89575e-10
5.47488e-11
4.73065e-11
4.73224e-11
4.634e-11
4.4517e-11
4.37946e-11
4.34978e-11
4.30891e-11
2.60839e-09
1.57362e-10
4.5919e-11
4.04063e-11
3.97424e-11
3.87431e-11
3.76793e-11
3.68453e-11
3.62522e-11
3.57279e-11
1.78495e-09
1.31728e-10
3.94585e-11
3.52212e-11
3.44589e-11
3.32392e-11
3.23684e-11
3.12657e-11
3.06843e-11
3.01757e-11
1.25173e-09
1.09701e-10
3.51935e-11
3.13588e-11
3.10054e-11
2.95824e-11
2.83139e-11
2.71304e-11
2.65393e-11
2.60344e-11
8.86791e-10
9.22439e-11
3.20344e-11
2.88557e-11
2.81732e-11
2.68e-11
2.52216e-11
2.39631e-11
2.33465e-11
2.28368e-11
6.26845e-10
7.90382e-11
2.95149e-11
2.6868e-11
2.62194e-11
2.45884e-11
2.2795e-11
2.14648e-11
2.08107e-11
2.02902e-11
4.41189e-10
6.7012e-11
2.7882e-11
2.56271e-11
2.47091e-11
2.27667e-11
2.08433e-11
1.94446e-11
1.87437e-11
1.8208e-11
3.11337e-10
5.75135e-11
2.68889e-11
2.48861e-11
2.36778e-11
2.13278e-11
1.92411e-11
1.77791e-11
1.70237e-11
1.64693e-11
2.23013e-10
5.1149e-11
2.65245e-11
2.4606e-11
2.30086e-11
2.0336e-11
1.79027e-11
1.63871e-11
1.55705e-11
1.49947e-11
1.64565e-10
4.65899e-11
2.68187e-11
2.47847e-11
2.26719e-11
1.9596e-11
1.69116e-11
1.52147e-11
1.43303e-11
1.37305e-11
1.26768e-10
4.36969e-11
2.78454e-11
2.54528e-11
2.26616e-11
1.90649e-11
1.61136e-11
1.42239e-11
1.32662e-11
1.264e-11
1.03278e-10
4.24159e-11
2.97183e-11
2.66687e-11
2.29908e-11
1.87503e-11
1.54852e-11
1.33879e-11
1.2352e-11
1.16965e-11
8.95068e-11
4.27701e-11
3.25836e-11
2.85142e-11
2.36889e-11
1.86527e-11
1.50121e-11
1.2687e-11
1.15686e-11
1.08802e-11
8.26495e-11
4.48521e-11
3.67468e-11
3.1085e-11
2.47989e-11
1.87802e-11
1.46904e-11
1.21761e-11
1.09011e-11
1.01755e-11
8.10342e-11
4.88072e-11
4.22121e-11
3.44757e-11
2.6374e-11
1.91473e-11
1.45188e-11
1.17795e-11
1.03373e-11
9.56965e-12
8.37548e-11
5.48227e-11
4.92804e-11
3.91136e-11
2.84694e-11
1.97723e-11
1.44989e-11
1.14919e-11
9.92448e-12
9.11279e-12
)
;

boundaryField
{
    fuel
    {
        type            fixedValue;
        value           uniform 0;
    }
    wall
    {
        type            zeroGradient;
    }
    outlet
    {
        type            zeroGradient;
    }
    frontAndBack
    {
        type            empty;
    }
    procBoundary2to0
    {
        type            processor;
        value           nonuniform List<scalar> 
12
(
9.51727e-12
9.04537e-11
6.31155e-11
5.80972e-11
4.49121e-11
3.11247e-11
2.06721e-11
1.46326e-11
1.13084e-11
9.58862e-12
9.0597e-12
8.73839e-12
)
;
    }
    procBoundary2to3
    {
        type            processor;
        value           nonuniform List<scalar> 
25
(
3.40661e-09
2.04155e-09
1.10119e-09
5.93526e-10
3.37426e-10
2.02118e-10
1.32785e-10
9.34553e-11
6.99177e-11
5.30398e-11
5.30398e-11
4.30382e-11
3.56686e-11
3.01189e-11
2.59794e-11
2.2783e-11
2.02373e-11
1.81556e-11
1.64173e-11
1.4943e-11
1.3679e-11
1.25886e-11
1.16451e-11
1.08286e-11
1.01237e-11
)
;
    }
}


// ************************************************************************* //
