/*--------------------------------*- C++ -*----------------------------------*\
| =========                 |                                                 |
| \\      /  F ield         | OpenFOAM: The Open Source CFD Toolbox           |
|  \\    /   O peration     | Version:  dev                                   |
|   \\  /    A nd           | Web:      www.OpenFOAM.org                      |
|    \\/     M anipulation  |                                                 |
\*---------------------------------------------------------------------------*/
FoamFile
{
    version     2.0;
    format      ascii;
    class       volScalarField;
    location    "0.02";
    object      N2;
}
// * * * * * * * * * * * * * * * * * * * * * * * * * * * * * * * * * * * * * //

dimensions      [0 0 0 0 0 0 0];

internalField   nonuniform List<scalar> 
1997
(
0.0222104
0.0224322
0.0230587
0.0235994
0.0243549
0.0249168
0.0253141
0.0255549
0.0257162
0.0257379
0.0256994
0.0255816
0.0254404
0.025268
0.025086
0.0248805
0.0246982
0.0245576
0.0233955
0.0236567
0.0243166
0.0249076
0.0257102
0.0263142
0.026738
0.0269927
0.0271664
0.0272368
0.0271988
0.0270747
0.0269288
0.0267497
0.0265599
0.0263407
0.0261461
0.0259978
0.0258689
0.0257622
0.0256758
0.0256099
0.0255624
0.0255314
0.0255169
0.0255177
0.0255335
0.0255657
0.0246093
0.0249094
0.0256395
0.0262828
0.0271359
0.0277831
0.0282345
0.0285029
0.0286895
0.0287642
0.028727
0.0285962
0.0284456
0.0282599
0.0280642
0.0278821
0.0276779
0.0275236
0.0273899
0.0272788
0.0271887
0.0271206
0.0270716
0.0270396
0.0270247
0.0270255
0.0270418
0.0270751
0.0271235
0.0271913
0.0272789
0.0273884
0.0275178
0.0276695
0.0278683
0.0280483
0.0282406
0.028423
0.0285701
0.028697
0.0258845
0.0262259
0.027032
0.0277286
0.0286331
0.0293265
0.0298068
0.0300887
0.0302885
0.030368
0.0303318
0.0301936
0.0300383
0.0298459
0.0296445
0.0294534
0.029239
0.0290786
0.0289401
0.0288242
0.0287304
0.0286601
0.0286096
0.0285766
0.0285613
0.0285621
0.028579
0.0286132
0.0286631
0.0287332
0.0288244
0.0289385
0.0290727
0.0292306
0.0294392
0.0296277
0.0298257
0.0300146
0.0301661
0.0302998
0.0303198
0.0302516
0.0300498
0.0297579
0.0292867
0.0285928
0.0276897
0.0269946
0.0261815
0.0258467
0.0272241
0.0276122
0.0284925
0.0292481
0.030207
0.0309479
0.0314585
0.0317666
0.0319689
0.0320512
0.0320165
0.0318702
0.0317102
0.0315112
0.0313038
0.031104
0.0308785
0.0307118
0.0305684
0.0304471
0.0303494
0.030277
0.030225
0.030191
0.0301754
0.0301763
0.0301936
0.0302288
0.0302801
0.0303525
0.0304473
0.0305667
0.0307058
0.0308702
0.0310893
0.0312862
0.03149
0.0316854
0.0318413
0.0319825
0.032002
0.0319276
0.0317253
0.0314287
0.0309071
0.0301654
0.0292063
0.0284554
0.0275656
0.0271859
0.0286314
0.029069
0.0300269
0.0308661
0.0318844
0.0326649
0.0331987
0.0335137
0.0337298
0.0338171
0.0337846
0.033665
0.0334886
0.0332669
0.0330455
0.0328375
0.0325996
0.0324268
0.0322781
0.0321507
0.0320491
0.0319746
0.0319212
0.0318863
0.0318702
0.0318712
0.0318889
0.0319252
0.0319778
0.0320524
0.0321509
0.0322765
0.0324207
0.0325912
0.0328222
0.0330271
0.033244
0.033462
0.033634
0.0337485
0.0337668
0.0336862
0.0334702
0.0331607
0.0326189
0.0318369
0.0308161
0.029988
0.0290223
0.0285924
0.0301093
0.0305991
0.031638
0.0325459
0.0336231
0.0344531
0.0350201
0.0353462
0.0355768
0.0356689
0.0356392
0.0355127
0.0353308
0.0351013
0.0348732
0.0346573
0.0344488
0.0342641
0.0341041
0.0339641
0.033853
0.0337727
0.0337143
0.0336762
0.0336585
0.0336595
0.0336789
0.0337182
0.0337763
0.0338567
0.0339644
0.0341023
0.0342581
0.0344407
0.0346416
0.0348539
0.0350773
0.035303
0.0354801
0.035601
0.0356173
0.0355309
0.0353006
0.0349793
0.034406
0.0335738
0.0324909
0.0315983
0.0305523
0.0300694
0.0316612
0.0322401
0.0333703
0.0343472
0.0354959
0.0363338
0.0369318
0.0373146
0.0375568
0.0376474
0.0376132
0.0374674
0.0372673
0.0370254
0.0367904
0.0365668
0.0363465
0.0361557
0.0359899
0.035841
0.0357262
0.0356435
0.0355835
0.0355443
0.0355263
0.0355273
0.0355472
0.0355876
0.0356472
0.03573
0.0358414
0.035988
0.0361495
0.0363383
0.0365504
0.0367705
0.0370001
0.0372386
0.0374333
0.037573
0.0375941
0.0375086
0.0372666
0.0368882
0.0362815
0.035444
0.0342903
0.033326
0.0321904
0.0316199
0.0332899
0.0339309
0.0351562
0.0362573
0.0374792
0.038366
0.0389369
0.0393322
0.0395898
0.0396836
0.0396537
0.0395
0.0392935
0.0390427
0.0388007
0.0385701
0.0383371
0.0381403
0.0379686
0.0378402
0.0377174
0.0376298
0.0375659
0.0375242
0.037505
0.037506
0.0375272
0.0375701
0.0376339
0.0377218
0.0378408
0.0379667
0.038134
0.0383288
0.038553
0.03878
0.0390163
0.0392635
0.0394642
0.0396115
0.039629
0.0395394
0.0392819
0.0388905
0.0383126
0.0374251
0.0361994
0.0351083
0.0338794
0.0332469
0.0350548
0.0357317
0.037031
0.0382002
0.039499
0.0404347
0.0410451
0.0414698
0.0417527
0.0418527
0.0418301
0.0416665
0.0414507
0.0411863
0.0409324
0.040689
0.0404363
0.0402278
0.0400444
0.0399071
0.0397799
0.0396896
0.0396241
0.0395812
0.0395616
0.0395627
0.0395844
0.0396284
0.0396939
0.0397844
0.0399078
0.0400424
0.0402212
0.0404278
0.0406709
0.0409102
0.0411584
0.0414188
0.0416284
0.0417851
0.0417958
0.0416989
0.0414156
0.0409936
0.0403803
0.0394424
0.0381414
0.0369785
0.0356746
0.0350074
0.0369143
0.0376639
0.0389952
0.0402392
0.0416186
0.0426031
0.0433102
0.0437538
0.0440554
0.0441563
0.0441416
0.0439693
0.0437463
0.0434721
0.0432095
0.0429565
0.0426876
0.0424713
0.0422794
0.0421328
0.0419986
0.0419048
0.0418367
0.0417923
0.041772
0.0417732
0.0417957
0.0418414
0.0419093
0.0420032
0.0421336
0.0422774
0.0424645
0.0426789
0.0429377
0.0431862
0.043443
0.0437131
0.0439294
0.0440946
0.0440983
0.0439994
0.0436967
0.0432549
0.0425485
0.0415593
0.0401786
0.0389413
0.0376031
0.0368644
0.0388032
0.0396252
0.0410658
0.0424268
0.043842
0.0449328
0.0456221
0.0461509
0.046443
0.0465711
0.0464945
0.046313
0.0460828
0.0457986
0.0455281
0.0452666
0.0449843
0.0447616
0.0445628
0.0444091
0.0442683
0.0441717
0.0441018
0.0440563
0.0440355
0.0440367
0.0440598
0.0441066
0.0441764
0.0442729
0.0444099
0.0445607
0.0447547
0.0449754
0.0452471
0.0455037
0.0457682
0.0460484
0.0462714
0.0464457
0.0465119
0.0463834
0.0460915
0.0455639
0.0448693
0.0437835
0.042364
0.0410056
0.039561
0.0387508
0.0407843
0.0417089
0.0432944
0.0447452
0.0462422
0.0473918
0.0481169
0.0485906
0.0488981
0.0490283
0.048965
0.0487891
0.0485597
0.0482707
0.0479939
0.0477232
0.0474302
0.0472006
0.0469958
0.0468354
0.0466866
0.0465869
0.0465154
0.046469
0.0464479
0.0464493
0.0464728
0.0465208
0.0465921
0.0466917
0.0468367
0.0469939
0.0471938
0.0474213
0.047703
0.0479682
0.0482387
0.0485228
0.0487443
0.0489121
0.0489678
0.0488363
0.048529
0.0480556
0.0473239
0.0461751
0.044681
0.0432297
0.0416355
0.040729
0.0429124
0.043871
0.0456424
0.0471791
0.0486901
0.0498923
0.0506553
0.0511585
0.0515143
0.0516636
0.0516144
0.0514345
0.0511975
0.0508987
0.0506135
0.0503324
0.0500272
0.0497905
0.0495786
0.0494123
0.0492547
0.0491519
0.0490785
0.0490311
0.0490095
0.0490109
0.049035
0.0490841
0.0491573
0.0492599
0.0494138
0.0495766
0.0497835
0.0500174
0.0503122
0.0505864
0.0508656
0.0511591
0.0513874
0.0515589
0.0516006
0.0514487
0.0510917
0.0505911
0.0498188
0.0486228
0.0471134
0.0455734
0.0437962
0.0428523
0.0451685
0.0462183
0.0480992
0.0496503
0.0512539
0.0525109
0.0533497
0.053908
0.0542821
0.054437
0.0543922
0.0542048
0.0539596
0.0536517
0.053357
0.0530654
0.0527485
0.052504
0.0522854
0.0521135
0.0519459
0.0518402
0.0517649
0.0517163
0.0516943
0.0516957
0.0517203
0.0517707
0.0518458
0.0519512
0.052115
0.0522834
0.0524969
0.0527379
0.0530451
0.0533288
0.0536177
0.0539193
0.0541557
0.0543347
0.0543721
0.054214
0.0538378
0.053281
0.0524292
0.0511857
0.049581
0.0480319
0.046143
0.0451051
0.0474599
0.0485997
0.0506089
0.0522385
0.0539379
0.0552513
0.0561314
0.0567049
0.0570955
0.0572572
0.0572158
0.057022
0.0567675
0.0564515
0.0561462
0.055844
0.0555164
0.0552632
0.0550382
0.0548609
0.0546826
0.054574
0.0544967
0.0544471
0.0544246
0.0544261
0.0544512
0.0545029
0.0545797
0.0546881
0.0548625
0.0550361
0.055256
0.0555049
0.0558232
0.0561172
0.0564167
0.0567254
0.0569709
0.0571563
0.0571901
0.0570248
0.0566323
0.0560596
0.0551796
0.053868
0.0521657
0.050538
0.0485239
0.0473928
0.0499079
0.0510929
0.0532401
0.0549483
0.0567456
0.0581187
0.0590407
0.0596277
0.0600348
0.0602044
0.0602271
0.0600269
0.0597576
0.0594307
0.0591081
0.0587883
0.0584443
0.0581755
0.0579385
0.0577507
0.0575552
0.0574398
0.0573575
0.0573049
0.0572809
0.0572824
0.0573092
0.0573643
0.0574458
0.0575609
0.0577525
0.0579365
0.058168
0.0584318
0.0587671
0.0590775
0.0593941
0.0597128
0.0599728
0.0601646
0.0601349
0.0599616
0.0595525
0.0589658
0.0580391
0.056674
0.0548723
0.0531648
0.0510168
0.0498373
0.0525126
0.0537917
0.0559983
0.0577843
0.0596814
0.0611826
0.0620918
0.0626811
0.0631047
0.0632821
0.0633113
0.0631094
0.062825
0.0624945
0.0621561
0.0618249
0.0614704
0.0611919
0.0609481
0.0607547
0.0606268
0.0605074
0.060422
0.0603676
0.0603427
0.0603443
0.060372
0.0604292
0.0605135
0.0606328
0.0607565
0.0609462
0.0611841
0.0614572
0.0618029
0.0621248
0.0624552
0.0627782
0.063053
0.0632466
0.06321
0.0630288
0.0626033
0.0620155
0.0610966
0.0596081
0.0577055
0.0559178
0.0537158
0.0524378
0.0551569
0.0565253
0.058889
0.0608076
0.0627484
0.0643239
0.0652711
0.0658911
0.0663474
0.0664948
0.0665313
0.0663321
0.0660271
0.0656966
0.0653643
0.0650113
0.0646361
0.0643427
0.0640918
0.0638924
0.0637558
0.0636332
0.0635456
0.0634899
0.0634645
0.0634661
0.0634944
0.0635532
0.0636394
0.0637619
0.0638942
0.0640899
0.0643345
0.0646218
0.0649882
0.0653314
0.0656516
0.0659784
0.0662733
0.0664643
0.0664198
0.0662667
0.0658077
0.0651914
0.0642332
0.0626742
0.0607244
0.0588024
0.0564508
0.0550778
0.0579262
0.0593893
0.0619358
0.0639116
0.0659863
0.0676711
0.0685904
0.0693124
0.0697906
0.0699425
0.0698917
0.069765
0.069415
0.0690375
0.068688
0.0683224
0.0679364
0.067632
0.0673745
0.0671685
0.0670232
0.0668972
0.0668073
0.0667502
0.0667242
0.0667259
0.0667549
0.0668152
0.0669034
0.0670294
0.0671704
0.0673726
0.0676235
0.0679214
0.0682985
0.0686541
0.0689947
0.0693656
0.0697045
0.0698223
0.0698646
0.069707
0.0692242
0.0685073
0.0675738
0.0659087
0.0638235
0.0618361
0.0593158
0.0578426
0.0608254
0.062379
0.0651071
0.0671649
0.0694447
0.0711004
0.07214
0.0728904
0.0733878
0.0735439
0.0734953
0.0732885
0.073002
0.0726187
0.072251
0.0718687
0.0714724
0.071154
0.0708879
0.07067
0.0705059
0.070374
0.0702798
0.07022
0.0701926
0.0701944
0.0702247
0.0702879
0.0703803
0.0705123
0.0706721
0.070886
0.0711456
0.0714569
0.0718442
0.0722163
0.0725731
0.0729508
0.0732255
0.0734232
0.073463
0.0733011
0.0727987
0.0720521
0.0709987
0.0693677
0.0670628
0.0650019
0.0623081
0.0607372
0.06386
0.0655127
0.0684305
0.0706492
0.0730681
0.0747331
0.0758534
0.0766264
0.0770414
0.0772014
0.0771543
0.0769604
0.0766454
0.0762538
0.0758731
0.0754782
0.0750698
0.0747408
0.0744682
0.0742419
0.0740686
0.0739331
0.0738365
0.0737753
0.0737472
0.073749
0.0737801
0.0738449
0.0739394
0.0740751
0.074244
0.0744663
0.0747321
0.0750534
0.0754532
0.0758373
0.0762065
0.0765917
0.0768948
0.0770796
0.0771174
0.0769516
0.0765308
0.0757618
0.0746198
0.0729957
0.0705342
0.0683195
0.0654409
0.0637669
0.0670756
0.068886
0.0719615
0.0743032
0.0767528
0.0784639
0.0796194
0.0804201
0.0808556
0.0810456
0.081013
0.0807837
0.0804974
0.0800949
0.0797003
0.0792904
0.0788626
0.07852
0.078236
0.0779969
0.0778128
0.0776716
0.0775714
0.0775077
0.0774787
0.0774805
0.0775128
0.0775803
0.0776784
0.0778198
0.0779994
0.0782341
0.0785109
0.0788455
0.0792643
0.0796626
0.0800454
0.0804401
0.0807153
0.0809338
0.0809563
0.0807593
0.0803204
0.0795243
0.0783458
0.0766734
0.0741914
0.0718273
0.0688136
0.0669716
0.0705089
0.072434
0.0756878
0.0781401
0.0805893
0.0823486
0.0835423
0.0843742
0.0848236
0.0850186
0.0849873
0.0847628
0.0844576
0.0840448
0.0836384
0.0832151
0.0827756
0.0824213
0.0821305
0.0818798
0.0816878
0.0815431
0.0814408
0.0813754
0.0813457
0.0813476
0.0813806
0.0814498
0.0815501
0.0816948
0.0818823
0.0821285
0.0824119
0.0827576
0.0831885
0.0835993
0.0839939
0.0843977
0.0846917
0.084905
0.084926
0.0847238
0.0842697
0.0834435
0.082225
0.0805056
0.0780277
0.0755489
0.0723534
0.0703998
0.074105
0.0760378
0.0795729
0.0820485
0.0845815
0.0864249
0.0876924
0.0884931
0.0889556
0.0891554
0.0891249
0.0889035
0.088582
0.0881584
0.0877403
0.0873028
0.0868532
0.086486
0.0861883
0.0859237
0.0857254
0.0855774
0.085473
0.085406
0.0853755
0.0853774
0.0854113
0.0854822
0.0855845
0.0857325
0.0859263
0.0861863
0.0864762
0.0868342
0.0872758
0.0876999
0.0881059
0.0885196
0.0888296
0.0890395
0.0890594
0.0888523
0.0883835
0.0875883
0.0862916
0.0844965
0.0819319
0.0794439
0.0759439
0.0739913
0.0777531
0.0798127
0.0835007
0.0861674
0.0887328
0.0906309
0.0919527
0.0927808
0.0932568
0.093461
0.0934304
0.0932119
0.0928755
0.0924408
0.0920112
0.0915597
0.0911748
0.0907932
0.0904842
0.0901994
0.0899944
0.0898413
0.0897335
0.089664
0.0896324
0.0896345
0.0896695
0.089743
0.0898487
0.0900018
0.0902022
0.0904822
0.0907827
0.0911563
0.0915311
0.0919693
0.0923865
0.0928106
0.093135
0.0933419
0.0933616
0.0931499
0.0926659
0.0918449
0.0904864
0.0886502
0.0860205
0.0833832
0.0797029
0.077635
0.0815656
0.0837665
0.0875859
0.0904427
0.0930626
0.0950045
0.096389
0.0972413
0.0978139
0.098026
0.0979883
0.0977643
0.0974032
0.0969436
0.0964873
0.0959994
0.0955986
0.0952039
0.0948874
0.0945826
0.0943757
0.0942195
0.0941097
0.0940384
0.0940061
0.0940082
0.0940441
0.0941193
0.0942271
0.0943832
0.0945853
0.0948854
0.0951934
0.0955795
0.0959679
0.0964429
0.0968866
0.0973345
0.0976835
0.0978956
0.0979221
0.0977018
0.0971214
0.0962777
0.0948386
0.0929702
0.090299
0.0874765
0.0836415
0.0814433
0.0855863
0.0879627
0.0918408
0.0948932
0.0975968
0.0995525
0.101007
0.101877
0.102473
0.102689
0.102649
0.102428
0.102054
0.101582
0.101114
0.100609
0.100201
0.0997931
0.0994691
0.0992366
0.0990264
0.0988644
0.0987507
0.0986761
0.0986424
0.0986445
0.0986819
0.0987603
0.0988722
0.099034
0.0992392
0.099467
0.0997824
0.100182
0.100576
0.101067
0.101522
0.101982
0.102344
0.102553
0.102581
0.102357
0.101753
0.100892
0.0994306
0.0974871
0.0947494
0.091736
0.0878287
0.0854556
0.0898721
0.0922922
0.0962847
0.0995926
0.102299
0.104283
0.105836
0.106745
0.107382
0.107607
0.107565
0.107277
0.106888
0.106404
0.105925
0.105402
0.104988
0.104566
0.104234
0.103985
0.103774
0.103609
0.103493
0.103417
0.103382
0.103384
0.103422
0.103503
0.103617
0.103782
0.103987
0.104232
0.104555
0.104968
0.105367
0.105877
0.106342
0.106814
0.107189
0.107464
0.107495
0.107261
0.106617
0.105715
0.10414
0.102183
0.0994396
0.0961833
0.0921545
0.089735
0.0942219
0.0968011
0.100926
0.104411
0.107266
0.109319
0.110967
0.111881
0.112419
0.112647
0.112601
0.112337
0.11196
0.111473
0.110991
0.110462
0.110038
0.109608
0.109267
0.109003
0.108791
0.108624
0.108506
0.108428
0.108393
0.108396
0.108435
0.108516
0.108632
0.108799
0.109006
0.109265
0.109597
0.110016
0.110426
0.110941
0.111409
0.111881
0.112243
0.112497
0.11253
0.112293
0.111752
0.11084
0.109163
0.10714
0.104252
0.100823
0.096681
0.0940787
0.0987604
0.101509
0.105849
0.109425
0.112491
0.114581
0.116167
0.117088
0.11772
0.117985
0.117956
0.117704
0.117316
0.116817
0.116326
0.115776
0.115346
0.114904
0.114554
0.114278
0.114062
0.113891
0.113771
0.113691
0.113656
0.113658
0.113698
0.113781
0.1139
0.11407
0.11428
0.114551
0.114891
0.115325
0.11574
0.116273
0.11675
0.117234
0.117604
0.117848
0.117863
0.117587
0.116957
0.116036
0.114416
0.112358
0.109251
0.105745
0.101389
0.0986082
0.103521
0.106529
0.110912
0.114623
0.117788
0.119916
0.121565
0.122632
0.123292
0.123562
0.12353
0.123277
0.12288
0.12237
0.121869
0.121301
0.120864
0.120409
0.12005
0.119763
0.119542
0.119368
0.119246
0.119164
0.119128
0.11913
0.119171
0.119256
0.119376
0.11955
0.119766
0.120047
0.120395
0.120841
0.121263
0.121814
0.122301
0.122796
0.123173
0.123418
0.123435
0.123155
0.122496
0.121429
0.119745
0.117648
0.114456
0.110799
0.106403
0.103344
0.108615
0.111637
0.1163
0.120019
0.12337
0.125468
0.127159
0.128256
0.128935
0.129208
0.129175
0.128916
0.128515
0.127993
0.127481
0.126896
0.126451
0.125982
0.125616
0.12532
0.125093
0.124915
0.124791
0.124707
0.12467
0.124672
0.124714
0.124801
0.124924
0.125101
0.125322
0.125612
0.125968
0.126428
0.126857
0.127424
0.127921
0.128428
0.128809
0.129059
0.129078
0.128793
0.128114
0.127017
0.125291
0.123219
0.11985
0.116176
0.111507
0.108411
0.113781
0.117023
0.121789
0.125637
0.129084
0.131245
0.133018
0.134163
0.134867
0.135148
0.135095
0.134793
0.134358
0.133824
0.133303
0.132698
0.132246
0.131763
0.13139
0.131087
0.130853
0.130672
0.130544
0.130459
0.130421
0.130424
0.130466
0.130555
0.13068
0.130861
0.131089
0.131387
0.131748
0.132222
0.132658
0.133244
0.133749
0.134268
0.134691
0.134973
0.135012
0.134719
0.134014
0.132866
0.131058
0.128925
0.125466
0.121657
0.116883
0.113694
0.119148
0.122547
0.127495
0.131535
0.135131
0.13736
0.139166
0.140218
0.140934
0.14122
0.141164
0.140852
0.140414
0.139868
0.139336
0.138713
0.138254
0.137755
0.137378
0.137068
0.136827
0.136642
0.136513
0.136425
0.136387
0.136389
0.136432
0.136523
0.136651
0.136835
0.13707
0.137375
0.13774
0.13823
0.138672
0.139275
0.13979
0.14032
0.140747
0.141039
0.141079
0.140782
0.140062
0.139007
0.137164
0.134964
0.131356
0.127356
0.122405
0.119033
0.124715
0.128294
0.13356
0.137603
0.141282
0.143583
0.145399
0.146492
0.14722
0.147509
0.147452
0.147133
0.146686
0.146129
0.145586
0.144948
0.144481
0.143963
0.143586
0.143268
0.143021
0.142832
0.1427
0.142611
0.142571
0.142574
0.142618
0.142711
0.142841
0.143029
0.14327
0.143582
0.143948
0.144455
0.144904
0.145524
0.146049
0.14659
0.147023
0.147322
0.147364
0.147063
0.14633
0.145233
0.143379
0.141107
0.137424
0.133406
0.128146
0.124585
0.130493
0.13429
0.139736
0.143885
0.147652
0.150034
0.151857
0.152988
0.153727
0.154021
0.153961
0.153637
0.153181
0.152612
0.152059
0.151404
0.150932
0.150462
0.150082
0.149757
0.149504
0.14931
0.149175
0.149083
0.149043
0.149046
0.14909
0.149186
0.149319
0.149513
0.149759
0.150078
0.150447
0.150904
0.15136
0.151995
0.152529
0.153081
0.153522
0.153827
0.153871
0.153566
0.15282
0.151685
0.14982
0.147472
0.143704
0.139567
0.134145
0.130353
0.136522
0.140494
0.146131
0.150431
0.154239
0.156712
0.158546
0.159712
0.160461
0.160759
0.160697
0.160367
0.159901
0.159321
0.158757
0.158089
0.157609
0.157122
0.156742
0.156411
0.156153
0.155955
0.155817
0.155724
0.155682
0.155685
0.155731
0.155828
0.155964
0.156161
0.156413
0.156737
0.157106
0.15758
0.158044
0.158691
0.159236
0.159799
0.160247
0.160559
0.160605
0.160296
0.159537
0.158367
0.15649
0.154052
0.150248
0.145948
0.140353
0.136372
0.142775
0.146971
0.152754
0.157214
0.161049
0.163688
0.16547
0.166666
0.167425
0.167728
0.167664
0.167328
0.166852
0.166261
0.165686
0.165006
0.164518
0.164016
0.163633
0.163297
0.163034
0.162832
0.162691
0.162596
0.162554
0.162557
0.162603
0.162702
0.162841
0.163042
0.163298
0.163628
0.163999
0.164488
0.164959
0.165618
0.166174
0.166747
0.167204
0.167521
0.167569
0.167256
0.166486
0.165284
0.163455
0.160852
0.15703
0.152555
0.146836
0.142616
0.149293
0.153691
0.159598
0.164222
0.168109
0.170835
0.172632
0.173856
0.174623
0.174931
0.174865
0.174522
0.174038
0.173436
0.17285
0.172157
0.171663
0.171147
0.170759
0.170418
0.170151
0.169945
0.169801
0.169704
0.169662
0.169665
0.169712
0.169813
0.169953
0.17016
0.170419
0.170754
0.17113
0.171631
0.172108
0.17278
0.173346
0.173929
0.174394
0.174717
0.174767
0.174451
0.17367
0.172439
0.170595
0.1679
0.164036
0.159385
0.153565
0.149125
0.156071
0.160622
0.166729
0.171459
0.175417
0.17822
0.180036
0.181285
0.182059
0.182373
0.182305
0.181955
0.181461
0.180849
0.180255
0.179547
0.179047
0.17852
0.178125
0.177778
0.177509
0.177298
0.177152
0.177053
0.17701
0.177013
0.177061
0.177164
0.177307
0.177517
0.177779
0.17812
0.178501
0.179014
0.179495
0.180184
0.180756
0.181349
0.181822
0.182151
0.182204
0.181885
0.181093
0.179837
0.177973
0.175195
0.171271
0.1665
0.160502
0.155896
0.163087
0.1678
0.174106
0.178976
0.182971
0.185842
0.187688
0.188957
0.189735
0.190057
0.189985
)
;

boundaryField
{
    fuel
    {
        type            fixedValue;
        value           nonuniform 0();
    }
    wall
    {
        type            zeroGradient;
    }
    outlet
    {
        type            zeroGradient;
    }
    frontAndBack
    {
        type            empty;
    }
    procBoundary2to0
    {
        type            processor;
        value           nonuniform List<scalar> 
53
(
0.0211124
0.0213003
0.021862
0.0223524
0.0230453
0.0235631
0.0239307
0.0241569
0.0243065
0.0243285
0.0242928
0.0241853
0.0240544
0.0238957
0.0237258
0.023531
0.0233572
0.0232221
0.0244344
0.0244344
0.0243341
0.0242531
0.024191
0.0241461
0.0241169
0.0241032
0.0241039
0.0241189
0.0241493
0.0256111
0.0256111
0.0256766
0.0257607
0.025866
0.0259907
0.0261364
0.0263259
0.0265431
0.0267296
0.0269057
0.0270484
0.0271693
0.0287149
0.0287149
0.0286536
0.0284649
0.0281879
0.0277433
0.0270957
0.0262457
0.0256023
0.0248666
0.0245714
)
;
    }
    procBoundary2to3
    {
        type            processor;
        value           nonuniform List<scalar> 
51
(
0.189633
0.189131
0.18851
0.187906
0.187186
0.18668
0.186142
0.185739
0.185387
0.185115
0.1849
0.184752
0.184651
0.184607
0.18461
0.184658
0.184763
0.184908
0.185122
0.185387
0.185732
0.186121
0.186644
0.18713
0.187833
0.188413
0.189014
0.189496
0.189831
0.189886
0.189564
0.188761
0.187484
0.185592
0.18274
0.178786
0.17386
0.167694
0.162907
0.170393
0.17521
0.181757
0.186719
0.190803
0.193707
0.195594
0.19688
0.19766
0.197992
0.189633
0.197917
)
;
    }
}


// ************************************************************************* //
