/*--------------------------------*- C++ -*----------------------------------*\
| =========                 |                                                 |
| \\      /  F ield         | OpenFOAM: The Open Source CFD Toolbox           |
|  \\    /   O peration     | Version:  dev                                   |
|   \\  /    A nd           | Web:      www.OpenFOAM.org                      |
|    \\/     M anipulation  |                                                 |
\*---------------------------------------------------------------------------*/
FoamFile
{
    version     2.0;
    format      ascii;
    class       volScalarField;
    location    "0.02";
    object      P2-H;
}
// * * * * * * * * * * * * * * * * * * * * * * * * * * * * * * * * * * * * * //

dimensions      [0 0 0 0 0 0 0];

internalField   nonuniform List<scalar> 
25
(
8.2575e-17
8.80738e-17
9.31887e-17
9.7845e-17
1.0197e-16
1.05603e-16
1.08493e-16
1.1066e-16
1.1198e-16
1.12287e-16
1.11378e-16
1.09055e-16
1.05178e-16
9.97488e-17
9.29573e-17
8.5192e-17
7.69751e-17
6.88554e-17
6.12982e-17
5.46613e-17
4.9132e-17
4.47836e-17
4.16003e-17
3.95151e-17
3.84525e-17
)
;

boundaryField
{
    wall
    {
        type            zeroGradient;
    }
    fuel
    {
        type            fixedValue;
        value           nonuniform 0();
    }
    outlet
    {
        type            inletOutlet;
        inletValue      nonuniform 0();
        value           nonuniform 0();
    }
    procBoundary2to1
    {
        type            processor;
        value           uniform 7.67832e-17;
    }
    procBoundary2to3
    {
        type            processor;
        value           uniform 3.83848e-17;
    }
}


// ************************************************************************* //
