/*--------------------------------*- C++ -*----------------------------------*\
| =========                 |                                                 |
| \\      /  F ield         | OpenFOAM: The Open Source CFD Toolbox           |
|  \\    /   O peration     | Version:  dev                                   |
|   \\  /    A nd           | Web:      www.OpenFOAM.org                      |
|    \\/     M anipulation  |                                                 |
\*---------------------------------------------------------------------------*/
FoamFile
{
    version     2.0;
    format      ascii;
    class       volScalarField;
    location    "0.07";
    object      A2C2HB*;
}
// * * * * * * * * * * * * * * * * * * * * * * * * * * * * * * * * * * * * * //

dimensions      [0 0 0 0 0 0 0];

internalField   nonuniform List<scalar> 
100
(
1.90714e-15
1.3873e-15
1.0465e-15
8.02391e-16
6.01377e-16
4.41461e-16
3.21126e-16
2.34558e-16
1.73658e-16
1.31458e-16
1.02534e-16
8.28383e-17
6.96806e-17
6.13232e-17
5.64366e-17
5.40369e-17
5.33175e-17
5.36127e-17
5.44038e-17
5.53315e-17
5.61922e-17
5.69105e-17
5.74958e-17
5.80005e-17
5.84807e-17
5.89756e-17
5.94984e-17
6.004e-17
6.05772e-17
6.1079e-17
6.15113e-17
6.18404e-17
6.20338e-17
6.20612e-17
6.18956e-17
6.15117e-17
6.08914e-17
6.00224e-17
5.88983e-17
5.75202e-17
5.58821e-17
5.4024e-17
5.19548e-17
4.96863e-17
4.72739e-17
4.47373e-17
4.20984e-17
3.94136e-17
3.66767e-17
3.39649e-17
3.1278e-17
2.86401e-17
2.60718e-17
2.35692e-17
2.11539e-17
1.88567e-17
1.67295e-17
1.47327e-17
1.28535e-17
1.11614e-17
9.61734e-18
8.22002e-18
6.96562e-18
5.85097e-18
4.86915e-18
4.01469e-18
3.26996e-18
2.63901e-18
2.10761e-18
1.65868e-18
1.29538e-18
1.00035e-18
7.6396e-19
5.77019e-19
4.31042e-19
3.18358e-19
2.32591e-19
1.68024e-19
1.19929e-19
8.38103e-20
5.88942e-20
4.10598e-20
2.84915e-20
1.95839e-20
1.35962e-20
9.50992e-21
6.75071e-21
4.90668e-21
3.69037e-21
2.89031e-21
2.35747e-21
1.99581e-21
1.73188e-21
1.51346e-21
1.32588e-21
1.12111e-21
9.04484e-22
6.52034e-22
3.98232e-22
1.86909e-22
)
;

boundaryField
{
    wall
    {
        type            zeroGradient;
    }
    fuel
    {
        type            fixedValue;
        value           uniform 0;
    }
    outlet
    {
        type            inletOutlet;
        inletValue      uniform 0;
        value           uniform 1.86909e-22;
    }
}


// ************************************************************************* //
