/*--------------------------------*- C++ -*----------------------------------*\
| =========                 |                                                 |
| \\      /  F ield         | OpenFOAM: The Open Source CFD Toolbox           |
|  \\    /   O peration     | Version:  dev                                   |
|   \\  /    A nd           | Web:      www.OpenFOAM.org                      |
|    \\/     M anipulation  |                                                 |
\*---------------------------------------------------------------------------*/
FoamFile
{
    version     2.0;
    format      ascii;
    class       volScalarField;
    location    "0.07";
    object      CO;
}
// * * * * * * * * * * * * * * * * * * * * * * * * * * * * * * * * * * * * * //

dimensions      [0 0 0 0 0 0 0];

internalField   nonuniform List<scalar> 
100
(
0.0914037
0.146324
0.169165
0.179018
0.182835
0.183662
0.182936
0.181358
0.17928
0.176901
0.174344
0.171666
0.168902
0.166098
0.163265
0.160416
0.157562
0.154714
0.151877
0.149056
0.146257
0.143482
0.140735
0.138018
0.135331
0.132676
0.130053
0.127463
0.124905
0.12238
0.119886
0.117424
0.114993
0.112592
0.110219
0.107871
0.105555
0.103265
0.101002
0.0987645
0.0965333
0.094344
0.0921771
0.0900189
0.0878955
0.0857938
0.083704
0.0816446
0.0795844
0.0775596
0.0755487
0.0735506
0.071567
0.0695818
0.0676007
0.0656394
0.0637366
0.0618505
0.0599615
0.0581389
0.0563406
0.0545656
0.0528129
0.0510805
0.0493675
0.0476735
0.0459853
0.0443295
0.0426949
0.0410542
0.0394585
0.0378809
0.0363216
0.0347801
0.0332545
0.0317421
0.0302395
0.0287489
0.0272706
0.0257696
0.0243556
0.0229587
0.0215857
0.0202109
0.018891
0.0175916
0.0163135
0.015056
0.0138157
0.0125877
0.011353
0.010126
0.00891452
0.00769424
0.0065759
0.00539598
0.00423829
0.00298761
0.0017995
0.000839454
)
;

boundaryField
{
    wall
    {
        type            zeroGradient;
    }
    fuel
    {
        type            fixedValue;
        value           uniform 0;
    }
    outlet
    {
        type            inletOutlet;
        inletValue      uniform 0;
        value           uniform 0.000839454;
    }
}


// ************************************************************************* //
