/*--------------------------------*- C++ -*----------------------------------*\
| =========                 |                                                 |
| \\      /  F ield         | OpenFOAM: The Open Source CFD Toolbox           |
|  \\    /   O peration     | Version:  dev                                   |
|   \\  /    A nd           | Web:      www.OpenFOAM.org                      |
|    \\/     M anipulation  |                                                 |
\*---------------------------------------------------------------------------*/
FoamFile
{
    version     2.0;
    format      ascii;
    class       volScalarField;
    location    "0.07";
    object      H2C4O;
}
// * * * * * * * * * * * * * * * * * * * * * * * * * * * * * * * * * * * * * //

dimensions      [0 0 0 0 0 0 0];

internalField   nonuniform List<scalar> 
100
(
2.89739e-08
8.26755e-08
1.10164e-07
1.14205e-07
1.03414e-07
8.57739e-08
6.68668e-08
5.0275e-08
3.70275e-08
2.70729e-08
1.98778e-08
1.47765e-08
1.11935e-08
8.70457e-09
6.96647e-09
5.74315e-09
4.86991e-09
4.23347e-09
3.75661e-09
3.38712e-09
3.08998e-09
2.84191e-09
2.62784e-09
2.43786e-09
2.26565e-09
2.107e-09
1.95929e-09
1.8207e-09
1.68987e-09
1.56578e-09
1.4476e-09
1.33469e-09
1.22661e-09
1.12304e-09
1.02386e-09
9.28908e-10
8.38618e-10
7.52812e-10
6.71683e-10
5.95704e-10
5.24447e-10
4.59195e-10
3.9943e-10
3.44828e-10
2.95979e-10
2.52421e-10
2.13773e-10
1.80115e-10
1.50669e-10
1.25613e-10
1.04224e-10
8.60684e-11
7.08694e-11
5.81333e-11
4.75621e-11
3.8907e-11
3.19929e-11
2.63731e-11
2.17803e-11
1.81786e-11
1.53039e-11
1.30203e-11
1.12092e-11
9.77211e-12
8.64534e-12
7.76616e-12
7.07872e-12
6.55276e-12
6.15038e-12
5.83973e-12
5.60837e-12
5.43325e-12
5.29964e-12
5.19532e-12
5.11019e-12
5.03601e-12
4.96581e-12
4.89407e-12
4.81624e-12
4.72638e-12
4.62849e-12
4.51656e-12
4.38992e-12
4.2451e-12
4.08798e-12
3.91541e-12
3.72859e-12
3.52758e-12
3.31248e-12
3.08371e-12
2.8376e-12
2.57793e-12
2.30778e-12
2.02216e-12
1.74919e-12
1.45048e-12
1.14856e-12
8.15006e-13
4.93049e-13
2.30516e-13
)
;

boundaryField
{
    wall
    {
        type            zeroGradient;
    }
    fuel
    {
        type            fixedValue;
        value           uniform 0;
    }
    outlet
    {
        type            inletOutlet;
        inletValue      uniform 0;
        value           uniform 2.30516e-13;
    }
}


// ************************************************************************* //
