/*--------------------------------*- C++ -*----------------------------------*\
| =========                 |                                                 |
| \\      /  F ield         | OpenFOAM: The Open Source CFD Toolbox           |
|  \\    /   O peration     | Version:  dev                                   |
|   \\  /    A nd           | Web:      www.OpenFOAM.org                      |
|    \\/     M anipulation  |                                                 |
\*---------------------------------------------------------------------------*/
FoamFile
{
    version     2.0;
    format      ascii;
    class       volScalarField;
    location    "0.07";
    object      HCO;
}
// * * * * * * * * * * * * * * * * * * * * * * * * * * * * * * * * * * * * * //

dimensions      [0 0 0 0 0 0 0];

internalField   nonuniform List<scalar> 
100
(
1.01123e-06
1.70741e-06
1.91929e-06
1.9042e-06
1.74411e-06
1.50081e-06
1.22875e-06
9.71902e-07
7.55212e-07
5.84316e-07
4.54656e-07
3.58466e-07
2.87403e-07
2.347e-07
1.9552e-07
1.65897e-07
1.43129e-07
1.25305e-07
1.11083e-07
9.9516e-08
8.99375e-08
8.18706e-08
7.49732e-08
6.89963e-08
6.37574e-08
5.91206e-08
5.49814e-08
5.12601e-08
4.79026e-08
4.48602e-08
4.2095e-08
3.95754e-08
3.72748e-08
3.51706e-08
3.32429e-08
3.14745e-08
2.98499e-08
2.83557e-08
2.69799e-08
2.57089e-08
2.45237e-08
2.3423e-08
2.24187e-08
2.14905e-08
2.06331e-08
1.98407e-08
1.91083e-08
1.843e-08
1.7803e-08
1.72219e-08
1.66817e-08
1.6172e-08
1.56982e-08
1.52405e-08
1.48066e-08
1.43938e-08
1.40085e-08
1.3631e-08
1.32589e-08
1.29064e-08
1.25602e-08
1.22167e-08
1.18733e-08
1.15275e-08
1.11676e-08
1.08133e-08
1.04567e-08
1.00991e-08
9.74344e-09
9.38326e-09
9.04548e-09
8.72623e-09
8.42918e-09
8.15642e-09
7.90728e-09
7.67896e-09
7.4606e-09
7.25951e-09
7.09186e-09
6.98304e-09
6.92844e-09
6.9353e-09
7.00713e-09
7.14096e-09
7.33113e-09
7.57079e-09
7.81122e-09
8.02403e-09
8.16228e-09
8.18499e-09
8.05623e-09
7.76137e-09
7.30251e-09
6.68374e-09
5.95124e-09
5.06681e-09
4.1154e-09
3.00949e-09
1.91425e-09
1.0713e-09
)
;

boundaryField
{
    front
    {
        type            wedge;
    }
    back
    {
        type            wedge;
    }
    wall
    {
        type            zeroGradient;
    }
    fuel
    {
        type            fixedValue;
        value           uniform 0;
    }
    outlet
    {
        type            inletOutlet;
        inletValue      uniform 0;
        value           uniform 1.0713e-09;
    }
    axis
    {
        type            empty;
    }
}


// ************************************************************************* //
