/*--------------------------------*- C++ -*----------------------------------*\
| =========                 |                                                 |
| \\      /  F ield         | OpenFOAM: The Open Source CFD Toolbox           |
|  \\    /   O peration     | Version:  dev                                   |
|   \\  /    A nd           | Web:      www.OpenFOAM.org                      |
|    \\/     M anipulation  |                                                 |
\*---------------------------------------------------------------------------*/
FoamFile
{
    version     2.0;
    format      ascii;
    class       volScalarField;
    location    "0.07";
    object      moment.1.populationBalance;
}
// * * * * * * * * * * * * * * * * * * * * * * * * * * * * * * * * * * * * * //

dimensions      [0 -2 0 0 0 0 0];

internalField   nonuniform List<scalar> 
100
(
0.00304507
0.00248069
0.00228495
0.00217395
0.00206136
0.00195864
0.00185538
0.00176889
0.00169087
0.00162746
0.00157317
0.00152392
0.00148088
0.00144051
0.00140084
0.00136303
0.00132395
0.00128439
0.00124468
0.00120522
0.00116685
0.0011294
0.00109346
0.0010607
0.00102933
0.0010016
0.000977043
0.00095548
0.000938624
0.000925217
0.000916089
0.000911223
0.000911125
0.000915825
0.00092592
0.00094086
0.000961252
0.00098739
0.00101898
0.0010572
0.00110171
0.00115257
0.00120992
0.00127365
0.00134382
0.00142063
0.00150388
0.00159485
0.00169082
0.00179583
0.00190682
0.00202284
0.00214634
0.00227204
0.00240362
0.00254033
0.00268123
0.00282506
0.00297288
0.00312603
0.00328227
0.00344358
0.00360804
0.00377511
0.00394624
0.00411817
0.00429133
0.00446424
0.00463759
0.00481167
0.00498589
0.00515915
0.00533048
0.00550012
0.00566807
0.00583429
0.00599378
0.00614101
0.00627481
0.00640718
0.00654029
0.00666145
0.00676843
0.00686599
0.00695781
0.00704332
0.00711624
0.00718126
0.00724126
0.00729727
0.00734249
0.00735655
0.007334
0.0073239
0.00733655
0.00735526
0.00737061
0.00731301
0.00703728
0.00634421
)
;

boundaryField
{
    wall
    {
        type            zeroGradient;
    }
    fuel
    {
        type            zeroGradient;
    }
    outlet
    {
        type            zeroGradient;
    }
}


// ************************************************************************* //
