/*--------------------------------*- C++ -*----------------------------------*\
| =========                 |                                                 |
| \\      /  F ield         | OpenFOAM: The Open Source CFD Toolbox           |
|  \\    /   O peration     | Version:  dev                                   |
|   \\  /    A nd           | Web:      www.OpenFOAM.org                      |
|    \\/     M anipulation  |                                                 |
\*---------------------------------------------------------------------------*/
FoamFile
{
    version     2.0;
    format      ascii;
    class       volScalarField;
    location    "0.07";
    object      n-C4H3;
}
// * * * * * * * * * * * * * * * * * * * * * * * * * * * * * * * * * * * * * //

dimensions      [0 0 0 0 0 0 0];

internalField   nonuniform List<scalar> 
100
(
1.28583e-09
3.68277e-09
4.80734e-09
4.98902e-09
4.52331e-09
3.72168e-09
2.85241e-09
2.0735e-09
1.46482e-09
1.02215e-09
7.13369e-10
5.03465e-10
3.62186e-10
2.67469e-10
2.04207e-10
1.6153e-10
1.32472e-10
1.12455e-10
9.84733e-11
8.85488e-11
8.13692e-11
7.60585e-11
7.20285e-11
6.88826e-11
6.63535e-11
6.426e-11
6.24818e-11
6.09377e-11
5.95694e-11
5.83373e-11
5.72113e-11
5.61669e-11
5.51835e-11
5.42426e-11
5.33283e-11
5.24269e-11
5.15271e-11
5.06196e-11
4.96962e-11
4.8744e-11
4.77473e-11
4.67152e-11
4.56749e-11
4.4613e-11
4.3531e-11
4.24304e-11
4.1313e-11
4.01788e-11
3.90339e-11
3.78789e-11
3.6715e-11
3.55272e-11
3.43336e-11
3.30883e-11
3.18263e-11
3.05508e-11
2.92897e-11
2.79864e-11
2.66346e-11
2.52849e-11
2.38995e-11
2.24746e-11
2.10119e-11
1.95188e-11
1.7966e-11
1.64322e-11
1.49187e-11
1.34477e-11
1.20408e-11
1.06878e-11
9.45862e-12
8.33409e-12
7.31527e-12
6.39835e-12
5.57645e-12
4.84287e-12
4.17394e-12
3.56828e-12
3.03863e-12
2.59961e-12
2.21987e-12
1.89317e-12
1.61299e-12
1.37365e-12
1.16805e-12
9.86416e-13
8.42967e-13
7.22331e-13
6.20966e-13
5.35245e-13
4.63214e-13
4.01812e-13
3.48101e-13
2.99022e-13
2.54657e-13
2.10174e-13
1.67586e-13
1.21251e-13
7.68041e-14
4.29632e-14
)
;

boundaryField
{
    front
    {
        type            wedge;
    }
    back
    {
        type            wedge;
    }
    wall
    {
        type            zeroGradient;
    }
    fuel
    {
        type            fixedValue;
        value           uniform 0;
    }
    outlet
    {
        type            inletOutlet;
        inletValue      uniform 0;
        value           uniform 4.29632e-14;
    }
    axis
    {
        type            empty;
    }
}


// ************************************************************************* //
