/*--------------------------------*- C++ -*----------------------------------*\
| =========                 |                                                 |
| \\      /  F ield         | OpenFOAM: The Open Source CFD Toolbox           |
|  \\    /   O peration     | Version:  dev                                   |
|   \\  /    A nd           | Web:      www.OpenFOAM.org                      |
|    \\/     M anipulation  |                                                 |
\*---------------------------------------------------------------------------*/
FoamFile
{
    version     2.0;
    format      ascii;
    class       volScalarField;
    location    "0.16";
    object      A1-;
}
// * * * * * * * * * * * * * * * * * * * * * * * * * * * * * * * * * * * * * //

dimensions      [0 0 0 0 0 0 0];

internalField   nonuniform List<scalar> 
250
(
1.74961e-05
1.74961e-05
1.74971e-05
1.74962e-05
1.74973e-05
1.74971e-05
1.74987e-05
1.75033e-05
1.74975e-05
1.67308e-05
6.48091e-08
2.37032e-05
2.37024e-05
2.3704e-05
2.37023e-05
2.37034e-05
2.37041e-05
2.37115e-05
2.37765e-05
2.42765e-05
2.74731e-05
6.85328e-08
1.6344e-05
1.63437e-05
1.63455e-05
1.63431e-05
1.63449e-05
1.63448e-05
1.63536e-05
1.64367e-05
1.70929e-05
2.21487e-05
4.22291e-08
9.93827e-06
9.93894e-06
9.94036e-06
9.93798e-06
9.93972e-06
9.93926e-06
9.94686e-06
1.00221e-05
1.06288e-05
1.5705e-05
2.6576e-08
6.13642e-06
6.13769e-06
6.13853e-06
6.13655e-06
6.13735e-06
6.13744e-06
6.14304e-06
6.20194e-06
6.72343e-06
1.12605e-05
1.91016e-08
4.01421e-06
4.01567e-06
4.01606e-06
4.01458e-06
4.01321e-06
4.01502e-06
4.01812e-06
4.05469e-06
4.5028e-06
8.42728e-06
1.60347e-08
2.73437e-06
2.73629e-06
2.73664e-06
2.73451e-06
2.72681e-06
2.73625e-06
2.74427e-06
2.81432e-06
3.2123e-06
6.57815e-06
1.65863e-08
2.01759e-06
2.01944e-06
2.0196e-06
2.01775e-06
1.99871e-06
2.01937e-06
2.0265e-06
2.08064e-06
2.43318e-06
5.31188e-06
2.24672e-08
1.52952e-06
1.53148e-06
1.53158e-06
1.5296e-06
1.54665e-06
1.53177e-06
1.53766e-06
1.5938e-06
1.87961e-06
4.40177e-06
3.60293e-08
1.20978e-06
1.21145e-06
1.21151e-06
1.20955e-06
1.21855e-06
1.21195e-06
1.21764e-06
1.26537e-06
1.55213e-06
3.72106e-06
5.35069e-08
9.96407e-07
9.9645e-07
9.94252e-07
9.9872e-07
9.97043e-07
1.00233e-06
1.04402e-06
1.29929e-06
3.19549e-06
7.65071e-08
8.45905e-07
8.45945e-07
8.43229e-07
8.4521e-07
8.46679e-07
8.51637e-07
8.89133e-07
1.11538e-06
2.78355e-06
1.08494e-07
7.36415e-07
7.36472e-07
7.32822e-07
7.32841e-07
7.37374e-07
7.42112e-07
7.76685e-07
9.74938e-07
2.42932e-06
1.4509e-07
6.53693e-07
6.53792e-07
6.48535e-07
6.57447e-07
6.54939e-07
6.59463e-07
6.91931e-07
8.775e-07
2.1523e-06
1.85001e-07
5.88866e-07
5.89045e-07
5.90003e-07
5.93657e-07
5.90342e-07
5.94759e-07
6.25526e-07
7.90718e-07
1.86929e-06
2.29128e-07
5.36318e-07
5.36567e-07
5.36876e-07
5.39999e-07
5.37952e-07
5.42342e-07
5.71602e-07
7.1638e-07
1.65782e-06
2.75267e-07
4.92462e-07
4.92772e-07
4.92486e-07
4.95372e-07
4.9421e-07
4.98596e-07
5.26426e-07
6.53061e-07
1.47348e-06
3.1861e-07
4.54987e-07
4.55347e-07
4.54439e-07
4.57345e-07
4.56821e-07
4.61194e-07
4.87579e-07
5.98161e-07
1.31062e-06
3.55729e-07
4.2238e-07
4.22779e-07
4.21145e-07
4.24362e-07
4.2429e-07
4.28616e-07
4.53442e-07
5.5e-07
1.16616e-06
3.85947e-07
3.93629e-07
3.94062e-07
3.91501e-07
3.95401e-07
3.95618e-07
3.99844e-07
4.22856e-07
5.07429e-07
1.03954e-06
4.10561e-07
3.68033e-07
3.68499e-07
3.67872e-07
3.6977e-07
3.70113e-07
3.74165e-07
3.94941e-07
4.696e-07
9.09941e-07
4.31062e-07
3.45113e-07
3.45558e-07
3.46943e-07
3.46897e-07
3.4727e-07
3.51045e-07
3.72391e-07
4.36059e-07
7.94823e-07
4.48361e-07
3.26941e-07
3.27147e-07
3.28469e-07
3.28642e-07
3.29023e-07
3.32382e-07
3.52164e-07
4.06324e-07
7.08085e-07
4.62199e-07
3.09853e-07
3.10814e-07
3.10829e-07
3.11258e-07
3.1162e-07
3.15721e-07
3.33542e-07
3.79775e-07
6.32913e-07
4.71348e-07
)
;

boundaryField
{
    fuel
    {
        type            fixedValue;
        value           uniform 0;
    }
    wall
    {
        type            zeroGradient;
    }
    outlet
    {
        type            zeroGradient;
    }
    frontAndBack
    {
        type            empty;
    }
    procBoundary3to0
    {
        type            processor;
        value           nonuniform List<scalar> 10(2.95599e-07 2.96346e-07 2.96257e-07 2.96831e-07 2.97178e-07 3.00898e-07 3.17428e-07 3.58526e-07 5.68363e-07 4.74482e-07);
    }
    procBoundary3to2
    {
        type            processor;
        value           nonuniform List<scalar> 
25
(
1.74974e-05
2.37058e-05
1.63498e-05
9.9465e-06
6.14517e-06
4.02242e-06
2.74205e-06
2.02449e-06
1.53557e-06
1.21458e-06
9.9494e-07
9.9494e-07
8.44588e-07
7.3525e-07
6.52676e-07
5.87988e-07
5.35564e-07
4.91817e-07
4.54438e-07
4.21927e-07
3.9329e-07
3.67843e-07
3.45089e-07
3.26907e-07
3.09539e-07
)
;
    }
}


// ************************************************************************* //
