/*--------------------------------*- C++ -*----------------------------------*\
| =========                 |                                                 |
| \\      /  F ield         | OpenFOAM: The Open Source CFD Toolbox           |
|  \\    /   O peration     | Version:  dev                                   |
|   \\  /    A nd           | Web:      www.OpenFOAM.org                      |
|    \\/     M anipulation  |                                                 |
\*---------------------------------------------------------------------------*/
FoamFile
{
    version     2.0;
    format      ascii;
    class       volScalarField;
    location    "0.16";
    object      A1C2H*;
}
// * * * * * * * * * * * * * * * * * * * * * * * * * * * * * * * * * * * * * //

dimensions      [0 0 0 0 0 0 0];

internalField   nonuniform List<scalar> 
250
(
4.55304e-07
4.55336e-07
4.55359e-07
4.55365e-07
4.55408e-07
4.55366e-07
4.55826e-07
4.55322e-07
4.58452e-07
4.446e-07
5.9974e-09
5.8524e-07
5.85292e-07
5.8534e-07
5.85313e-07
5.85429e-07
5.85243e-07
5.86605e-07
5.86536e-07
6.03784e-07
6.34787e-07
5.196e-09
3.81561e-07
3.81622e-07
3.8169e-07
3.81619e-07
3.81849e-07
3.81439e-07
3.83504e-07
3.82756e-07
4.05979e-07
4.45786e-07
2.0884e-08
2.22031e-07
2.22087e-07
2.22164e-07
2.22074e-07
2.22336e-07
2.2186e-07
2.24042e-07
2.22798e-07
2.45648e-07
2.81874e-07
4.22235e-07
1.32084e-07
1.32133e-07
1.32203e-07
1.32116e-07
1.32339e-07
1.3192e-07
1.33849e-07
1.3251e-07
1.53201e-07
1.8446e-07
7.4224e-07
8.34767e-08
8.35166e-08
8.35716e-08
8.34977e-08
8.36643e-08
8.33307e-08
8.48828e-08
8.35042e-08
9.80507e-08
1.286e-07
7.02196e-07
5.50521e-08
5.51231e-08
5.51927e-08
5.51225e-08
5.51648e-08
5.5033e-08
5.64936e-08
5.59567e-08
6.84449e-08
9.37608e-08
6.11064e-07
3.89985e-08
3.90616e-08
3.91173e-08
3.9058e-08
3.90989e-08
3.89934e-08
4.01348e-08
3.95899e-08
5.07536e-08
7.27172e-08
5.3556e-07
2.90909e-08
2.91416e-08
2.91875e-08
2.91334e-08
2.92144e-08
2.90871e-08
2.99742e-08
2.9328e-08
3.811e-08
5.99296e-08
4.75131e-07
2.2098e-08
2.21486e-08
2.21894e-08
2.21348e-08
2.226e-08
2.21236e-08
2.28566e-08
2.25287e-08
2.96542e-08
5.06388e-08
4.19665e-07
1.74535e-08
1.74861e-08
1.74293e-08
1.75403e-08
1.74445e-08
1.80038e-08
1.78359e-08
2.38673e-08
4.40309e-08
3.63658e-07
1.42087e-08
1.42343e-08
1.41685e-08
1.42218e-08
1.42084e-08
1.46529e-08
1.46025e-08
1.97133e-08
3.85534e-08
3.07676e-07
1.18821e-08
1.19016e-08
1.18186e-08
1.21025e-08
1.18873e-08
1.22511e-08
1.22817e-08
1.65538e-08
3.40246e-08
2.54799e-07
1.01497e-08
1.0164e-08
1.00498e-08
1.03075e-08
1.01557e-08
1.04627e-08
1.05486e-08
1.45587e-08
3.0157e-08
2.07656e-07
8.81258e-09
8.823e-09
8.83993e-09
8.91952e-09
8.81712e-09
9.0824e-09
9.20432e-09
1.29032e-08
2.69445e-08
1.67564e-07
7.74719e-09
7.75439e-09
7.75938e-09
7.81745e-09
7.7498e-09
7.98291e-09
8.12586e-09
1.14068e-08
2.41009e-08
1.34673e-07
6.87522e-09
6.88007e-09
6.8751e-09
6.92178e-09
6.87639e-09
7.08337e-09
7.23625e-09
1.01409e-08
2.14858e-08
1.08399e-07
6.14602e-09
6.14947e-09
6.13547e-09
6.17826e-09
6.14661e-09
6.33133e-09
6.48585e-09
9.03204e-09
1.91065e-08
8.78238e-08
5.52603e-09
5.52894e-09
5.50568e-09
5.54996e-09
5.52686e-09
5.69183e-09
5.842e-09
8.24204e-09
1.69808e-08
7.18457e-08
4.9924e-09
4.99539e-09
4.96116e-09
5.01166e-09
4.99409e-09
5.14084e-09
5.2812e-09
7.49776e-09
1.50729e-08
5.85551e-08
4.52891e-09
4.5324e-09
4.5406e-09
4.54575e-09
4.53185e-09
4.66104e-09
4.83516e-09
6.7757e-09
1.33648e-08
4.81865e-08
4.12318e-09
4.12701e-09
4.13251e-09
4.13787e-09
4.12772e-09
4.23824e-09
4.42229e-09
6.13567e-09
1.18339e-08
4.06199e-08
3.80604e-09
3.81042e-09
3.81378e-09
3.82046e-09
3.81095e-09
3.91282e-09
4.0799e-09
5.56337e-09
1.04593e-08
3.41131e-08
3.50545e-09
3.51015e-09
3.51214e-09
3.5192e-09
3.51196e-09
3.60235e-09
3.76041e-09
5.04558e-09
9.23113e-09
2.89233e-08
)
;

boundaryField
{
    fuel
    {
        type            fixedValue;
        value           uniform 0;
    }
    wall
    {
        type            zeroGradient;
    }
    outlet
    {
        type            zeroGradient;
    }
    frontAndBack
    {
        type            empty;
    }
    procBoundary3to0
    {
        type            processor;
        value           nonuniform List<scalar> 10(3.26251e-09 3.2673e-09 3.26833e-09 3.27564e-09 3.26947e-09 3.35094e-09 3.49484e-09 4.56987e-09 8.13637e-09 2.49009e-08);
    }
    procBoundary3to2
    {
        type            processor;
        value           nonuniform List<scalar> 
25
(
4.55348e-07
5.85301e-07
3.81632e-07
2.22097e-07
1.32139e-07
8.35199e-08
5.51143e-08
3.90507e-08
2.91303e-08
2.2132e-08
1.74138e-08
1.74138e-08
1.41834e-08
1.18744e-08
1.01585e-08
8.83367e-09
7.77514e-09
6.90532e-09
6.17497e-09
5.55191e-09
5.01435e-09
4.54681e-09
4.1373e-09
3.81733e-09
3.51428e-09
)
;
    }
}


// ************************************************************************* //
