/*--------------------------------*- C++ -*----------------------------------*\
| =========                 |                                                 |
| \\      /  F ield         | OpenFOAM: The Open Source CFD Toolbox           |
|  \\    /   O peration     | Version:  dev                                   |
|   \\  /    A nd           | Web:      www.OpenFOAM.org                      |
|    \\/     M anipulation  |                                                 |
\*---------------------------------------------------------------------------*/
FoamFile
{
    version     2.0;
    format      ascii;
    class       volScalarField;
    location    "0.16";
    object      A2C2HB;
}
// * * * * * * * * * * * * * * * * * * * * * * * * * * * * * * * * * * * * * //

dimensions      [0 0 0 0 0 0 0];

internalField   nonuniform List<scalar> 
50
(
1.20007e-21
1.15259e-21
1.10809e-21
1.06612e-21
1.02739e-21
9.90988e-22
9.57458e-22
9.26324e-22
8.97111e-22
8.70006e-22
8.45132e-22
8.21957e-22
8.00249e-22
7.80194e-22
7.61402e-22
7.43761e-22
7.27098e-22
7.11186e-22
6.9588e-22
6.81338e-22
6.67265e-22
6.53543e-22
6.39981e-22
6.26648e-22
6.13368e-22
5.99974e-22
5.86533e-22
5.72858e-22
5.58768e-22
5.44496e-22
5.29805e-22
5.14617e-22
4.98853e-22
4.82438e-22
4.65116e-22
4.47189e-22
4.28164e-22
4.08464e-22
3.87762e-22
3.65941e-22
3.42877e-22
3.18433e-22
2.92448e-22
2.64733e-22
2.35062e-22
2.03165e-22
1.68773e-22
1.31897e-22
9.4176e-23
6.38449e-23
)
;

boundaryField
{
    wall
    {
        type            zeroGradient;
    }
    fuel
    {
        type            fixedValue;
        value           nonuniform 0();
    }
    outlet
    {
        type            inletOutlet;
        inletValue      uniform 0;
        value           uniform 6.38449e-23;
    }
    procBoundary3to2
    {
        type            processor;
        value           uniform 1.25079e-21;
    }
}


// ************************************************************************* //
