/*--------------------------------*- C++ -*----------------------------------*\
| =========                 |                                                 |
| \\      /  F ield         | OpenFOAM: The Open Source CFD Toolbox           |
|  \\    /   O peration     | Version:  dev                                   |
|   \\  /    A nd           | Web:      www.OpenFOAM.org                      |
|    \\/     M anipulation  |                                                 |
\*---------------------------------------------------------------------------*/
FoamFile
{
    version     2.0;
    format      ascii;
    class       volScalarField;
    location    "0.16";
    object      A3C2H2;
}
// * * * * * * * * * * * * * * * * * * * * * * * * * * * * * * * * * * * * * //

dimensions      [0 0 0 0 0 0 0];

internalField   nonuniform List<scalar> 
250
(
3.61884e-14
3.61899e-14
3.6194e-14
3.61933e-14
3.61935e-14
3.61915e-14
3.6277e-14
3.64434e-14
3.83497e-14
4.55541e-14
1.46493e-14
3.02644e-14
3.02662e-14
3.02707e-14
3.02686e-14
3.02725e-14
3.02631e-14
3.03829e-14
3.05699e-14
3.30742e-14
4.31491e-14
2.38313e-14
1.85869e-14
1.85893e-14
1.85942e-14
1.85907e-14
1.85995e-14
1.85817e-14
1.87187e-14
1.88246e-14
2.12156e-14
2.98376e-14
1.04195e-14
1.0954e-14
1.09564e-14
1.09614e-14
1.09573e-14
1.09673e-14
1.09475e-14
1.10789e-14
1.11216e-14
1.31701e-14
1.97937e-14
1.72404e-14
6.71263e-15
6.71484e-15
6.71935e-15
6.7154e-15
6.72346e-15
6.70653e-15
6.81946e-15
6.83042e-15
8.54927e-15
1.36489e-14
2.03664e-14
4.38247e-15
4.38445e-15
4.38806e-15
4.38473e-15
4.39002e-15
4.37716e-15
4.46833e-15
4.45959e-15
5.71617e-15
9.98334e-15
2.22168e-14
2.98471e-15
2.9884e-15
2.99267e-15
2.98941e-15
2.98879e-15
2.98556e-15
3.07053e-15
3.09191e-15
4.14823e-15
7.58447e-15
2.49301e-14
2.1715e-15
2.17483e-15
2.17835e-15
2.17555e-15
2.17555e-15
2.17278e-15
2.24076e-15
2.25316e-15
3.18163e-15
6.0629e-15
2.8099e-14
1.65195e-15
1.65464e-15
1.65761e-15
1.655e-15
1.65799e-15
1.653e-15
1.70749e-15
1.70756e-15
2.46627e-15
5.09888e-15
3.04843e-14
1.27034e-15
1.27307e-15
1.27572e-15
1.273e-15
1.27913e-15
1.27275e-15
1.31923e-15
1.33189e-15
1.97004e-15
4.36573e-15
3.09844e-14
1.0066e-15
1.00874e-15
1.00583e-15
1.01153e-15
1.00694e-15
1.04384e-15
1.06174e-15
1.61741e-15
3.82448e-15
2.94156e-14
8.16252e-16
8.17935e-16
8.14459e-16
8.1703e-16
8.16926e-16
8.47146e-16
8.69085e-16
1.35459e-15
3.36138e-15
2.63672e-14
6.76613e-16
6.77887e-16
6.73342e-16
6.90237e-16
6.77502e-16
7.02737e-16
7.27412e-16
1.14795e-15
2.97106e-15
2.2614e-14
5.71557e-16
5.72478e-16
5.65997e-16
5.8146e-16
5.72417e-16
5.93929e-16
6.20347e-16
1.01488e-15
2.63487e-15
1.87742e-14
4.90633e-16
4.91289e-16
4.92816e-16
4.97402e-16
4.91352e-16
5.0999e-16
5.37279e-16
9.02611e-16
2.35574e-15
1.52441e-14
4.26918e-16
4.27353e-16
4.28116e-16
4.31375e-16
4.2748e-16
4.43828e-16
4.71225e-16
7.99882e-16
2.10942e-15
1.22245e-14
3.7572e-16
3.75993e-16
3.76122e-16
3.78653e-16
3.7616e-16
3.90628e-16
4.17515e-16
7.12488e-16
1.88361e-15
9.77143e-15
3.33794e-16
3.33967e-16
3.3353e-16
3.35788e-16
3.34167e-16
3.47046e-16
3.72933e-16
6.35702e-16
1.67873e-15
7.85085e-15
2.9886e-16
2.98988e-16
2.97971e-16
3.00299e-16
2.99217e-16
3.10718e-16
3.35231e-16
5.81135e-16
1.49596e-15
6.37475e-15
2.69288e-16
2.69414e-16
2.67711e-16
2.70412e-16
2.6967e-16
2.79941e-16
3.02723e-16
5.29562e-16
1.33196e-15
5.1636e-15
2.43887e-16
2.44043e-16
2.44673e-16
2.44849e-16
2.44322e-16
2.53447e-16
2.77071e-16
4.79192e-16
1.1846e-15
4.22812e-15
2.21755e-16
2.21935e-16
2.22367e-16
2.22588e-16
2.22266e-16
2.30212e-16
2.53287e-16
4.34172e-16
1.05192e-15
3.54751e-15
2.04523e-16
2.04742e-16
2.0502e-16
2.05342e-16
2.05045e-16
2.12412e-16
2.33502e-16
3.93413e-16
9.32185e-16
2.96421e-15
1.8802e-16
1.88268e-16
1.88441e-16
1.88812e-16
1.88625e-16
1.95261e-16
2.1479e-16
3.55887e-16
8.24337e-16
2.49995e-15
)
;

boundaryField
{
    fuel
    {
        type            fixedValue;
        value           uniform 0;
    }
    wall
    {
        type            zeroGradient;
    }
    outlet
    {
        type            zeroGradient;
    }
    frontAndBack
    {
        type            empty;
    }
    procBoundary3to0
    {
        type            processor;
        value           nonuniform List<scalar> 10(1.746e-16 1.74862e-16 1.74964e-16 1.75368e-16 1.75224e-16 1.81279e-16 1.99062e-16 3.20599e-16 7.27083e-16 2.13961e-15);
    }
    procBoundary3to2
    {
        type            processor;
        value           nonuniform List<scalar> 
25
(
3.61915e-14
3.02674e-14
1.85904e-14
1.09573e-14
6.71547e-15
4.38481e-15
2.98809e-15
2.17439e-15
1.65418e-15
1.27232e-15
1.00449e-15
1.00449e-15
8.15049e-16
6.76465e-16
5.72382e-16
4.92153e-16
4.28797e-16
3.77676e-16
3.35633e-16
3.00477e-16
2.70643e-16
2.44982e-16
2.22614e-16
2.05209e-16
1.88557e-16
)
;
    }
}


// ************************************************************************* //
