/*--------------------------------*- C++ -*----------------------------------*\
| =========                 |                                                 |
| \\      /  F ield         | OpenFOAM: The Open Source CFD Toolbox           |
|  \\    /   O peration     | Version:  dev                                   |
|   \\  /    A nd           | Web:      www.OpenFOAM.org                      |
|    \\/     M anipulation  |                                                 |
\*---------------------------------------------------------------------------*/
FoamFile
{
    version     2.0;
    format      ascii;
    class       volScalarField;
    location    "0.16";
    object      A3C2H;
}
// * * * * * * * * * * * * * * * * * * * * * * * * * * * * * * * * * * * * * //

dimensions      [0 0 0 0 0 0 0];

internalField   nonuniform List<scalar> 
50
(
1.68848e-24
1.53738e-24
1.3958e-24
1.26237e-24
1.13924e-24
1.02361e-24
9.17187e-25
8.18621e-25
7.2662e-25
6.41918e-25
5.65045e-25
4.94579e-25
4.30044e-25
3.72134e-25
3.19876e-25
2.73088e-25
2.31405e-25
1.94334e-25
1.61564e-25
1.33339e-25
1.08962e-25
8.81062e-26
7.0339e-26
5.55554e-26
4.3332e-26
3.33042e-26
2.52847e-26
1.89206e-26
1.3918e-26
1.01314e-26
7.28325e-27
5.17868e-27
3.65059e-27
2.55965e-27
1.7849e-27
1.25288e-27
8.8307e-28
6.33892e-28
4.64377e-28
3.48822e-28
2.6954e-28
2.14457e-28
1.75289e-28
1.46251e-28
1.23209e-28
1.03192e-28
8.41587e-29
6.49961e-29
4.59957e-29
3.09881e-29
)
;

boundaryField
{
    wall
    {
        type            zeroGradient;
    }
    fuel
    {
        type            fixedValue;
        value           nonuniform 0();
    }
    outlet
    {
        type            inletOutlet;
        inletValue      uniform 0;
        value           uniform 3.09881e-29;
    }
    procBoundary3to2
    {
        type            processor;
        value           uniform 1.85039e-24;
    }
}


// ************************************************************************* //
