/*--------------------------------*- C++ -*----------------------------------*\
| =========                 |                                                 |
| \\      /  F ield         | OpenFOAM: The Open Source CFD Toolbox           |
|  \\    /   O peration     | Version:  dev                                   |
|   \\  /    A nd           | Web:      www.OpenFOAM.org                      |
|    \\/     M anipulation  |                                                 |
\*---------------------------------------------------------------------------*/
FoamFile
{
    version     2.0;
    format      ascii;
    class       volScalarField;
    location    "0.16";
    object      A4-;
}
// * * * * * * * * * * * * * * * * * * * * * * * * * * * * * * * * * * * * * //

dimensions      [0 0 0 0 0 0 0];

internalField   nonuniform List<scalar> 
250
(
9.33755e-10
9.33753e-10
9.33835e-10
9.33676e-10
9.33599e-10
9.33997e-10
9.35643e-10
9.49197e-10
1.06397e-09
1.81322e-09
1.99703e-11
2.346e-09
2.346e-09
2.34619e-09
2.34577e-09
2.34545e-09
2.34673e-09
2.35168e-09
2.3926e-09
2.741e-09
5.08492e-09
3.54534e-11
3.02921e-09
3.0293e-09
3.02966e-09
3.02882e-09
3.02841e-09
3.03041e-09
3.03828e-09
3.10134e-09
3.63193e-09
7.04381e-09
3.30881e-11
3.17669e-09
3.17698e-09
3.17749e-09
3.17619e-09
3.17575e-09
3.17831e-09
3.18828e-09
3.26476e-09
3.89363e-09
7.57681e-09
2.73222e-11
3.09075e-09
3.09134e-09
3.09195e-09
3.0902e-09
3.08956e-09
3.0928e-09
3.10422e-09
3.18775e-09
3.85542e-09
7.30585e-09
2.25425e-11
2.93369e-09
2.93463e-09
2.93527e-09
2.9331e-09
2.9318e-09
2.93618e-09
2.94865e-09
3.03517e-09
3.70858e-09
6.70895e-09
1.88363e-11
2.75644e-09
2.75787e-09
2.75855e-09
2.75574e-09
2.75253e-09
2.75969e-09
2.77426e-09
2.87066e-09
3.53291e-09
6.02857e-09
1.59994e-11
2.60021e-09
2.60203e-09
2.60269e-09
2.59941e-09
2.59278e-09
2.60406e-09
2.61968e-09
2.71719e-09
3.3561e-09
5.36952e-09
1.37862e-11
2.44108e-09
2.44342e-09
2.44408e-09
2.4401e-09
2.44693e-09
2.44587e-09
2.46231e-09
2.56568e-09
3.16249e-09
4.77261e-09
1.29307e-11
2.29082e-09
2.29354e-09
2.29421e-09
2.28944e-09
2.29452e-09
2.29643e-09
2.31381e-09
2.41818e-09
2.99715e-09
4.2512e-09
1.50401e-11
2.15339e-09
2.15407e-09
2.14825e-09
2.15235e-09
2.15675e-09
2.17481e-09
2.27969e-09
2.8194e-09
3.80596e-09
2.40581e-11
2.02144e-09
2.02215e-09
2.01488e-09
2.01854e-09
2.02534e-09
2.04394e-09
2.14904e-09
2.64609e-09
3.4353e-09
4.33216e-11
1.89653e-09
1.89732e-09
1.88802e-09
1.89104e-09
1.90108e-09
1.9201e-09
2.02514e-09
2.47695e-09
3.1066e-09
7.11056e-11
1.77773e-09
1.77867e-09
1.76646e-09
1.784e-09
1.78313e-09
1.80231e-09
1.90701e-09
2.33405e-09
2.84779e-09
1.0596e-10
1.66426e-09
1.66543e-09
1.66431e-09
1.67365e-09
1.67045e-09
1.68978e-09
1.79367e-09
2.18389e-09
2.58483e-09
1.48381e-10
1.55552e-09
1.55693e-09
1.55471e-09
1.56381e-09
1.56239e-09
1.58185e-09
1.68444e-09
2.03638e-09
2.39245e-09
1.97699e-10
1.45106e-09
1.45269e-09
1.44915e-09
1.45856e-09
1.45854e-09
1.47807e-09
1.57881e-09
1.89598e-09
2.22808e-09
2.51059e-10
1.35055e-09
1.35241e-09
1.34718e-09
1.35753e-09
1.35861e-09
1.37809e-09
1.47636e-09
1.76258e-09
2.08472e-09
3.05938e-10
1.25374e-09
1.25582e-09
1.24841e-09
1.26049e-09
1.26238e-09
1.28163e-09
1.37658e-09
1.63597e-09
1.95737e-09
3.61649e-10
1.1604e-09
1.16272e-09
1.15238e-09
1.1673e-09
1.16967e-09
1.18846e-09
1.27883e-09
1.51579e-09
1.84337e-09
4.1941e-10
1.07032e-09
1.0729e-09
1.06942e-09
1.07781e-09
1.08029e-09
1.09829e-09
1.18227e-09
1.40159e-09
1.71986e-09
4.80646e-10
9.83376e-10
9.8601e-10
9.90201e-10
9.91605e-10
9.9395e-10
1.01073e-09
1.09831e-09
1.29311e-09
1.60127e-09
5.46425e-10
9.09139e-10
9.10886e-10
9.14902e-10
9.17365e-10
9.19596e-10
9.34567e-10
1.01754e-09
1.18964e-09
1.50322e-09
6.15848e-10
8.33869e-10
8.39119e-10
8.37486e-10
8.41171e-10
8.43222e-10
8.614e-10
9.37713e-10
1.09004e-09
1.4074e-09
6.85476e-10
)
;

boundaryField
{
    fuel
    {
        type            fixedValue;
        value           uniform 0;
    }
    wall
    {
        type            zeroGradient;
    }
    outlet
    {
        type            zeroGradient;
    }
    frontAndBack
    {
        type            empty;
    }
    procBoundary3to0
    {
        type            processor;
        value           nonuniform List<scalar> 10(7.66124e-10 7.70613e-10 7.68566e-10 7.72985e-10 7.74895e-10 7.91321e-10 8.63418e-10 1.00384e-09 1.31305e-09 7.49332e-10);
    }
    procBoundary3to2
    {
        type            processor;
        value           nonuniform List<scalar> 
25
(
9.33863e-10
2.34625e-09
3.02975e-09
3.17774e-09
3.09243e-09
2.93599e-09
2.75945e-09
2.60384e-09
2.44537e-09
2.2955e-09
2.1504e-09
2.1504e-09
2.01858e-09
1.89384e-09
1.77525e-09
1.662e-09
1.55347e-09
1.44923e-09
1.34896e-09
1.25245e-09
1.15954e-09
1.07005e-09
9.83756e-10
9.09405e-10
8.32891e-10
)
;
    }
}


// ************************************************************************* //
