/*--------------------------------*- C++ -*----------------------------------*\
| =========                 |                                                 |
| \\      /  F ield         | OpenFOAM: The Open Source CFD Toolbox           |
|  \\    /   O peration     | Version:  dev                                   |
|   \\  /    A nd           | Web:      www.OpenFOAM.org                      |
|    \\/     M anipulation  |                                                 |
\*---------------------------------------------------------------------------*/
FoamFile
{
    version     2.0;
    format      ascii;
    class       volScalarField;
    location    "0.16";
    object      C4H;
}
// * * * * * * * * * * * * * * * * * * * * * * * * * * * * * * * * * * * * * //

dimensions      [0 0 0 0 0 0 0];

internalField   nonuniform List<scalar> 
250
(
1.93958e-07
1.93968e-07
1.9399e-07
1.93966e-07
1.94006e-07
1.93977e-07
1.93939e-07
1.93185e-07
1.85932e-07
1.30492e-07
1.18361e-11
3.38073e-07
3.38072e-07
3.38114e-07
3.38057e-07
3.38113e-07
3.38084e-07
3.38104e-07
3.37679e-07
3.31962e-07
2.77714e-07
3.10936e-11
2.15179e-07
2.15188e-07
2.15226e-07
2.15162e-07
2.15209e-07
2.15189e-07
2.15245e-07
2.15207e-07
2.12391e-07
1.83175e-07
2.03245e-11
1.32158e-07
1.3218e-07
1.32206e-07
1.32148e-07
1.32178e-07
1.32173e-07
1.32231e-07
1.32265e-07
1.30185e-07
1.09942e-07
1.21639e-11
8.94471e-08
8.94775e-08
8.94942e-08
8.94421e-08
8.94511e-08
8.94673e-08
8.95145e-08
8.95e-08
8.75142e-08
7.03405e-08
8.4643e-12
6.7035e-08
6.70696e-08
6.70802e-08
6.70321e-08
6.70096e-08
6.70576e-08
6.70881e-08
6.6931e-08
6.48463e-08
4.85772e-08
6.93168e-12
5.36843e-08
5.37268e-08
5.37362e-08
5.3678e-08
5.35797e-08
5.37237e-08
5.3813e-08
5.40669e-08
5.18927e-08
3.57148e-08
6.5291e-12
4.59703e-08
4.60157e-08
4.60229e-08
4.59623e-08
4.57371e-08
4.60152e-08
4.61022e-08
4.62449e-08
4.38973e-08
2.75828e-08
6.65269e-12
4.02663e-08
4.03172e-08
4.03237e-08
4.02535e-08
4.04694e-08
4.03249e-08
4.04061e-08
4.06515e-08
3.78729e-08
2.21737e-08
7.10854e-12
3.60008e-08
3.60515e-08
3.6058e-08
3.59772e-08
3.6109e-08
3.60667e-08
3.61533e-08
3.6377e-08
3.39831e-08
1.84547e-08
7.96149e-12
3.26618e-08
3.26688e-08
3.25713e-08
3.26589e-08
3.26843e-08
3.27732e-08
3.29998e-08
3.06213e-08
1.58447e-08
9.59394e-12
2.98133e-08
2.98213e-08
2.96998e-08
2.97657e-08
2.98443e-08
2.99355e-08
3.01841e-08
2.78628e-08
1.40135e-08
1.34748e-11
2.73311e-08
2.73409e-08
2.71851e-08
2.72297e-08
2.73723e-08
2.74661e-08
2.77485e-08
2.55055e-08
1.26412e-08
2.28691e-11
2.51166e-08
2.51293e-08
2.49236e-08
2.52313e-08
2.51713e-08
2.52657e-08
2.55875e-08
2.37054e-08
1.17337e-08
4.49703e-11
2.31092e-08
2.31262e-08
2.31181e-08
2.32728e-08
2.31758e-08
2.32727e-08
2.36332e-08
2.19587e-08
1.09713e-08
9.18764e-11
2.12687e-08
2.12899e-08
2.1261e-08
2.14073e-08
2.13452e-08
2.14463e-08
2.18414e-08
2.03423e-08
1.05159e-08
1.79309e-10
1.95665e-08
1.95916e-08
1.95394e-08
1.96877e-08
1.96517e-08
1.97572e-08
2.01808e-08
1.88692e-08
1.02059e-08
3.20929e-10
1.7981e-08
1.80097e-08
1.79302e-08
1.80907e-08
1.80744e-08
1.81835e-08
1.86271e-08
1.75095e-08
9.99164e-09
5.24765e-10
1.64944e-08
1.65268e-08
1.64134e-08
1.65985e-08
1.65962e-08
1.67074e-08
1.71589e-08
1.62402e-08
9.83377e-09
7.93073e-10
1.50917e-08
1.5128e-08
1.49705e-08
1.51965e-08
1.52027e-08
1.53135e-08
1.57547e-08
1.50428e-08
9.70145e-09
1.12541e-09
1.37593e-08
1.37999e-08
1.37448e-08
1.38722e-08
1.38808e-08
1.39873e-08
1.4393e-08
1.39027e-08
9.53408e-09
1.51705e-09
1.24864e-08
1.25283e-08
1.25851e-08
1.26097e-08
1.26173e-08
1.27141e-08
1.32258e-08
1.28096e-08
9.32706e-09
1.96074e-09
1.1407e-08
1.14359e-08
1.14879e-08
1.15296e-08
1.15366e-08
1.16151e-08
1.21108e-08
1.175e-08
9.10396e-09
2.44131e-09
1.03107e-08
1.03915e-08
1.03584e-08
1.04189e-08
1.04245e-08
1.05602e-08
1.10109e-08
1.071e-08
8.81949e-09
2.93282e-09
)
;

boundaryField
{
    fuel
    {
        type            fixedValue;
        value           uniform 0;
    }
    wall
    {
        type            zeroGradient;
    }
    outlet
    {
        type            zeroGradient;
    }
    frontAndBack
    {
        type            empty;
    }
    procBoundary3to0
    {
        type            processor;
        value           nonuniform List<scalar> 10(9.32108e-09 9.39065e-09 9.35157e-09 9.42273e-09 9.42768e-09 9.54789e-09 9.98642e-09 9.79157e-09 8.4636e-09 3.39473e-09);
    }
    procBoundary3to2
    {
        type            processor;
        value           nonuniform List<scalar> 
25
(
1.93986e-07
3.38129e-07
2.15273e-07
1.3227e-07
8.95616e-08
6.71451e-08
5.37936e-08
4.60781e-08
4.03736e-08
3.61013e-08
3.26118e-08
3.26118e-08
2.97646e-08
2.72856e-08
2.50755e-08
2.30729e-08
2.12372e-08
1.95398e-08
1.7959e-08
1.64779e-08
1.50823e-08
1.37594e-08
1.24965e-08
1.14154e-08
1.03003e-08
)
;
    }
}


// ************************************************************************* //
