/*--------------------------------*- C++ -*----------------------------------*\
| =========                 |                                                 |
| \\      /  F ield         | OpenFOAM: The Open Source CFD Toolbox           |
|  \\    /   O peration     | Version:  dev                                   |
|   \\  /    A nd           | Web:      www.OpenFOAM.org                      |
|    \\/     M anipulation  |                                                 |
\*---------------------------------------------------------------------------*/
FoamFile
{
    version     2.0;
    format      ascii;
    class       volScalarField;
    location    "0.16";
    object      C4H6;
}
// * * * * * * * * * * * * * * * * * * * * * * * * * * * * * * * * * * * * * //

dimensions      [0 0 0 0 0 0 0];

internalField   nonuniform List<scalar> 
50
(
8.2546e-23
7.69659e-23
7.17108e-23
6.67375e-23
6.21335e-23
5.77968e-23
5.37935e-23
5.00726e-23
4.65833e-23
4.33533e-23
4.04036e-23
3.76788e-23
3.51609e-23
3.28806e-23
3.08034e-23
2.89281e-23
2.72481e-23
2.57536e-23
2.44462e-23
2.33537e-23
2.24676e-23
2.17977e-23
2.13556e-23
2.11673e-23
2.12549e-23
2.16511e-23
2.23897e-23
2.35184e-23
2.50991e-23
2.71539e-23
2.97543e-23
3.29502e-23
3.67792e-23
4.12529e-23
4.63917e-23
5.19907e-23
5.79942e-23
6.39653e-23
6.9604e-23
7.4465e-23
7.80665e-23
7.99444e-23
7.97111e-23
7.71051e-23
7.20216e-23
6.45183e-23
5.48118e-23
4.33271e-23
3.1055e-23
2.10617e-23
)
;

boundaryField
{
    wall
    {
        type            zeroGradient;
    }
    fuel
    {
        type            fixedValue;
        value           nonuniform 0();
    }
    outlet
    {
        type            inletOutlet;
        inletValue      uniform 0;
        value           uniform 2.10617e-23;
    }
    procBoundary3to2
    {
        type            processor;
        value           uniform 8.84829e-23;
    }
}


// ************************************************************************* //
