/*--------------------------------*- C++ -*----------------------------------*\
| =========                 |                                                 |
| \\      /  F ield         | OpenFOAM: The Open Source CFD Toolbox           |
|  \\    /   O peration     | Version:  dev                                   |
|   \\  /    A nd           | Web:      www.OpenFOAM.org                      |
|    \\/     M anipulation  |                                                 |
\*---------------------------------------------------------------------------*/
FoamFile
{
    version     2.0;
    format      ascii;
    class       volScalarField;
    location    "0.16";
    object      CO2;
}
// * * * * * * * * * * * * * * * * * * * * * * * * * * * * * * * * * * * * * //

dimensions      [0 0 0 0 0 0 0];

internalField   nonuniform List<scalar> 
250
(
0.0394349
0.0394353
0.0394355
0.0394355
0.0394352
0.0394359
0.0394366
0.0394383
0.0394447
0.0393377
0.00261437
0.0466636
0.0466641
0.0466644
0.0466644
0.046663
0.0466655
0.0466642
0.046681
0.0467264
0.0469582
0.00724126
0.0486217
0.0486226
0.0486232
0.0486231
0.0486209
0.0486243
0.0486257
0.0486523
0.048761
0.0491957
0.0152553
0.0492197
0.0492213
0.0492222
0.0492219
0.0492189
0.0492231
0.0492295
0.0492633
0.0494453
0.0500121
0.0350976
0.0493632
0.0493658
0.0493672
0.0493664
0.0493626
0.0493678
0.0493803
0.0494199
0.0496768
0.0503853
0.041445
0.0493216
0.0493253
0.0493272
0.0493259
0.0493211
0.0493274
0.0493466
0.0493908
0.0497221
0.0505678
0.0440648
0.049184
0.0491894
0.0491921
0.0491899
0.0491844
0.0491921
0.0492203
0.0492728
0.0496774
0.0506541
0.0455612
0.0490069
0.0490136
0.0490169
0.0490137
0.0490097
0.0490165
0.0490513
0.0491059
0.0495893
0.0506758
0.0465821
0.048808
0.0488157
0.0488195
0.0488151
0.0488147
0.0488186
0.0488596
0.0489109
0.0494579
0.0506566
0.0473143
0.0485743
0.0485831
0.0485874
0.0485811
0.0485854
0.0485867
0.0486365
0.0486978
0.0493024
0.0506026
0.0478416
0.0483386
0.0483432
0.0483344
0.0483409
0.0483427
0.0483978
0.0484667
0.0491308
0.0505255
0.048219
0.0480903
0.0480947
0.0480825
0.0480885
0.0480945
0.0481545
0.0482321
0.0489445
0.0504215
0.0484875
0.0478426
0.0478466
0.0478297
0.0478681
0.0478469
0.0479109
0.0479977
0.0487427
0.0502974
0.04868
0.0475991
0.0476024
0.0475788
0.0476208
0.047603
0.0476702
0.0477665
0.0485763
0.0501566
0.0488239
0.0473626
0.0473652
0.0473659
0.0473796
0.0473657
0.0474354
0.0475408
0.0484008
0.050009
0.0489411
0.0471356
0.0471375
0.0471368
0.0471484
0.047138
0.0472091
0.0473227
0.0482028
0.0498489
0.0490476
0.0469207
0.0469219
0.0469194
0.0469302
0.0469224
0.0469938
0.0471145
0.0480011
0.0496725
0.0491521
0.04672
0.0467206
0.046716
0.046727
0.0467212
0.0467917
0.0469181
0.0477958
0.0494841
0.0492576
0.0465357
0.046536
0.0465286
0.046541
0.0465367
0.0466051
0.0467357
0.0476336
0.0492906
0.0493624
0.0463702
0.0463703
0.0463593
0.0463741
0.046371
0.0464362
0.0465692
0.0474671
0.0490942
0.0494696
0.0462256
0.0462256
0.0462286
0.0462286
0.0462265
0.0462871
0.0464359
0.0472946
0.0488977
0.0495619
0.0461044
0.0461042
0.0461069
0.0461061
0.0461053
0.0461598
0.0463164
0.0471358
0.0487049
0.0496256
0.0460203
0.0460199
0.0460224
0.0460211
0.0460208
0.0460712
0.0462263
0.0469934
0.0485196
0.0496643
0.0459575
0.0459568
0.0459593
0.0459571
0.0459579
0.0460021
0.0461569
0.0468696
0.0483459
0.0496717
)
;

boundaryField
{
    fuel
    {
        type            fixedValue;
        value           uniform 0;
    }
    wall
    {
        type            zeroGradient;
    }
    outlet
    {
        type            zeroGradient;
    }
    frontAndBack
    {
        type            empty;
    }
    procBoundary3to0
    {
        type            processor;
        value           nonuniform List<scalar> 10(0.045928 0.0459269 0.0459295 0.0459262 0.045928 0.045966 0.0461184 0.0467669 0.048186 0.0496505);
    }
    procBoundary3to2
    {
        type            processor;
        value           nonuniform List<scalar> 
25
(
0.0394351
0.0466637
0.0486219
0.0492203
0.0493644
0.0493235
0.0491869
0.0490106
0.0488123
0.0485792
0.0483302
0.0483302
0.0480839
0.0478395
0.0475997
0.0473666
0.0471424
0.0469291
0.0467291
0.0465448
0.0463787
0.0462333
0.0461111
0.0460261
0.0459625
)
;
    }
}


// ************************************************************************* //
