/*--------------------------------*- C++ -*----------------------------------*\
| =========                 |                                                 |
| \\      /  F ield         | OpenFOAM: The Open Source CFD Toolbox           |
|  \\    /   O peration     | Version:  dev                                   |
|   \\  /    A nd           | Web:      www.OpenFOAM.org                      |
|    \\/     M anipulation  |                                                 |
\*---------------------------------------------------------------------------*/
FoamFile
{
    version     2.0;
    format      ascii;
    class       volScalarField;
    location    "0.16";
    object      dQ;
}
// * * * * * * * * * * * * * * * * * * * * * * * * * * * * * * * * * * * * * //

dimensions      [1 2 -3 0 0 0 0];

internalField   nonuniform List<scalar> 
250
(
34.7139
34.7139
34.7143
34.7141
34.7151
34.7151
34.715
34.7044
34.6008
33.8836
0.0278733
7.88642
7.88602
7.8868
7.88596
7.88701
7.8864
7.8872
7.89257
7.9258
8.3812
0.0264984
1.83514
1.83503
1.83539
1.83493
1.83546
1.83507
1.83546
1.83861
1.85705
2.16948
0.0153943
0.546583
0.546617
0.546745
0.546539
0.54678
0.546572
0.546725
0.54815
0.556292
0.738214
0.00942777
0.196951
0.19701
0.19705
0.196955
0.197065
0.196954
0.196985
0.197519
0.201963
0.32076
0.00699304
0.0797399
0.0797856
0.0797946
0.0797561
0.0797843
0.0797314
0.0796679
0.079443
0.0824973
0.167477
0.00648263
0.031868
0.0319099
0.0319146
0.0318756
0.0317614
0.0318856
0.0319798
0.0329409
0.0356356
0.0997297
0.00820258
0.0124597
0.0124855
0.0124846
0.0124675
0.0121274
0.0124625
0.0125139
0.012995
0.0154356
0.0650841
0.0157036
0.00278842
0.00280483
0.00280246
0.00279444
0.00309894
0.00278825
0.00280832
0.00328085
0.0051008
0.0452202
0.0361465
-0.00179721
-0.00179312
-0.00179611
-0.00179429
-0.00167303
-0.00180781
-0.00179361
-0.00147527
0.000722823
0.0328068
0.0656504
-0.00396794
-0.00397146
-0.00396363
-0.00392534
-0.00398327
-0.00397565
-0.0037389
-0.00168393
0.0245503
0.0879692
-0.00497292
-0.00497695
-0.0049657
-0.00496728
-0.00498975
-0.0049865
-0.00479543
-0.00286486
0.0188712
0.0891317
-0.00538764
-0.00539228
-0.00538181
-0.00541374
-0.00540642
-0.00540589
-0.00524344
-0.00344631
0.0145724
0.0728993
-0.00549222
-0.00549762
-0.00549907
-0.00549149
-0.00551283
-0.00551477
-0.00537369
-0.00364209
0.011584
0.05419
-0.00542653
-0.00543273
-0.00540696
-0.00543265
-0.00544969
-0.00545364
-0.00533163
-0.00372286
0.00895858
0.0392681
-0.00526193
-0.00526914
-0.00524792
-0.0052791
-0.00528832
-0.00529419
-0.00519084
-0.00371349
0.00715189
0.0284303
-0.00503529
-0.00504378
-0.00502336
-0.00505903
-0.00506553
-0.00507345
-0.00498862
-0.00364417
0.00570514
0.0211053
-0.00476578
-0.00477601
-0.00475659
-0.00479499
-0.00480053
-0.00481055
-0.00474387
-0.0035357
0.00450917
0.0166004
-0.00446371
-0.00447631
-0.00446338
-0.00449855
-0.00450356
-0.00451547
-0.00446728
-0.00339703
0.00349851
0.0140458
-0.00413605
-0.00415148
-0.00416309
-0.00417631
-0.00418087
-0.00419435
-0.00416965
-0.00323111
0.00262831
0.0125869
-0.00379153
-0.00380905
-0.0038112
-0.00383393
-0.00383887
-0.00385449
-0.00387199
-0.00303776
0.00186731
0.0115499
-0.00344761
-0.00346554
-0.0034359
-0.00348516
-0.00349115
-0.00351268
-0.00352345
-0.00281312
0.00123504
0.0105165
-0.00303198
-0.00306121
-0.00302358
-0.0030666
-0.00307302
-0.00311231
-0.00314863
-0.00255722
0.000727273
0.0092991
-0.00261112
-0.00263363
-0.00262646
-0.00266577
-0.00267289
-0.00269067
-0.00275783
-0.00227934
0.000344252
0.00789456
)
;

boundaryField
{
    fuel
    {
        type            calculated;
        value           uniform 0;
    }
    wall
    {
        type            calculated;
        value           nonuniform 0();
    }
    outlet
    {
        type            calculated;
        value           uniform 0;
    }
    frontAndBack
    {
        type            empty;
    }
    procBoundary3to0
    {
        type            processor;
        value           uniform 0;
    }
    procBoundary3to2
    {
        type            processor;
        value           uniform 0;
    }
}


// ************************************************************************* //
