/*--------------------------------*- C++ -*----------------------------------*\
| =========                 |                                                 |
| \\      /  F ield         | OpenFOAM: The Open Source CFD Toolbox           |
|  \\    /   O peration     | Version:  dev                                   |
|   \\  /    A nd           | Web:      www.OpenFOAM.org                      |
|    \\/     M anipulation  |                                                 |
\*---------------------------------------------------------------------------*/
FoamFile
{
    version     2.0;
    format      ascii;
    class       volScalarField;
    location    "0.16";
    object      H;
}
// * * * * * * * * * * * * * * * * * * * * * * * * * * * * * * * * * * * * * //

dimensions      [0 0 0 0 0 0 0];

internalField   nonuniform List<scalar> 
250
(
0.000113534
0.000113537
0.000113538
0.000113541
0.000113545
0.000113542
0.000113545
0.000113329
0.000112318
0.000104611
3.1765e-08
0.000124412
0.000124413
0.000124414
0.000124413
0.000124428
0.000124404
0.000124447
0.00012416
0.000123448
0.00011719
9.91362e-08
8.66903e-05
8.66915e-05
8.66946e-05
8.66881e-05
8.67238e-05
8.66635e-05
8.68027e-05
8.63848e-05
8.6354e-05
8.16536e-05
3.99742e-06
6.00724e-05
6.00726e-05
6.00783e-05
6.0068e-05
6.01152e-05
6.0037e-05
6.02219e-05
5.97391e-05
6.00317e-05
5.6527e-05
0.000134877
4.52399e-05
4.52392e-05
4.52456e-05
4.52344e-05
4.52828e-05
4.52026e-05
4.53838e-05
4.48863e-05
4.52902e-05
4.20039e-05
0.000172192
3.71899e-05
3.7188e-05
3.7193e-05
3.71831e-05
3.72277e-05
3.7153e-05
3.72974e-05
3.67832e-05
3.65762e-05
3.33923e-05
0.000137666
3.25699e-05
3.25728e-05
3.25808e-05
3.25711e-05
3.25968e-05
3.25517e-05
3.26892e-05
3.22939e-05
3.19272e-05
2.77531e-05
0.000101326
3.00823e-05
3.00848e-05
3.00911e-05
3.0083e-05
3.01032e-05
3.00675e-05
3.01573e-05
2.97508e-05
2.92298e-05
2.41503e-05
7.40824e-05
2.8659e-05
2.86607e-05
2.86659e-05
2.86584e-05
2.86774e-05
2.86461e-05
2.86957e-05
2.82655e-05
2.73908e-05
2.1864e-05
5.43408e-05
2.77411e-05
2.77432e-05
2.77479e-05
2.77401e-05
2.77601e-05
2.77327e-05
2.77548e-05
2.7345e-05
2.61996e-05
2.01835e-05
4.02104e-05
2.71704e-05
2.71745e-05
2.71656e-05
2.71828e-05
2.7162e-05
2.71576e-05
2.67415e-05
2.53865e-05
1.90069e-05
3.0397e-05
2.67836e-05
2.67875e-05
2.67762e-05
2.67865e-05
2.67762e-05
2.67556e-05
2.63248e-05
2.47846e-05
1.80737e-05
2.37423e-05
2.64908e-05
2.64948e-05
2.64792e-05
2.65192e-05
2.6484e-05
2.64537e-05
2.60028e-05
2.42943e-05
1.7354e-05
1.92361e-05
2.62392e-05
2.62433e-05
2.62202e-05
2.6262e-05
2.62325e-05
2.61973e-05
2.57241e-05
2.39533e-05
1.67912e-05
1.61309e-05
2.5997e-05
2.60017e-05
2.59992e-05
2.60166e-05
2.59904e-05
2.59538e-05
2.54585e-05
2.36371e-05
1.6369e-05
1.39373e-05
2.57439e-05
2.57493e-05
2.57417e-05
2.57622e-05
2.57377e-05
2.57026e-05
2.51866e-05
2.33124e-05
1.60363e-05
1.23511e-05
2.54653e-05
2.54717e-05
2.54588e-05
2.54841e-05
2.54599e-05
2.5429e-05
2.48946e-05
2.29954e-05
1.57663e-05
1.11841e-05
2.51493e-05
2.5157e-05
2.51379e-05
2.51702e-05
2.51453e-05
2.51211e-05
2.45712e-05
2.26698e-05
1.55497e-05
1.03184e-05
2.47851e-05
2.47946e-05
2.4767e-05
2.48094e-05
2.47833e-05
2.47681e-05
2.42056e-05
2.23954e-05
1.53781e-05
9.67497e-06
2.4362e-05
2.43736e-05
2.43335e-05
2.43908e-05
2.4363e-05
2.43588e-05
2.3786e-05
2.20857e-05
1.52365e-05
9.16624e-06
2.38682e-05
2.38825e-05
2.38859e-05
2.39028e-05
2.38732e-05
2.38807e-05
2.33487e-05
2.17181e-05
1.51108e-05
8.78772e-06
2.32906e-05
2.33074e-05
2.33063e-05
2.33306e-05
2.33008e-05
2.33178e-05
2.28195e-05
2.13101e-05
1.49864e-05
8.53771e-06
2.26942e-05
2.27142e-05
2.27087e-05
2.27418e-05
2.2708e-05
2.27466e-05
2.22484e-05
2.08455e-05
1.48471e-05
8.35138e-06
2.19484e-05
2.19719e-05
2.19628e-05
2.20042e-05
2.19699e-05
2.2028e-05
2.15549e-05
2.03026e-05
1.46769e-05
8.22536e-06
)
;

boundaryField
{
    fuel
    {
        type            fixedValue;
        value           uniform 0;
    }
    wall
    {
        type            zeroGradient;
    }
    outlet
    {
        type            zeroGradient;
    }
    frontAndBack
    {
        type            empty;
    }
    procBoundary3to0
    {
        type            processor;
        value           nonuniform List<scalar> 10(2.11648e-05 2.11916e-05 2.11788e-05 2.12286e-05 2.11914e-05 2.12722e-05 2.08115e-05 1.96557e-05 1.44616e-05 8.15183e-06);
    }
    procBoundary3to2
    {
        type            processor;
        value           nonuniform List<scalar> 
25
(
0.000113539
0.000124416
8.66961e-05
6.00782e-05
4.52447e-05
3.71931e-05
3.25763e-05
3.00877e-05
2.86633e-05
2.77447e-05
2.71692e-05
2.71692e-05
2.67817e-05
2.64895e-05
2.62392e-05
2.59985e-05
2.57467e-05
2.5469e-05
2.51536e-05
2.47895e-05
2.43662e-05
2.38719e-05
2.32934e-05
2.26963e-05
2.19498e-05
)
;
    }
}


// ************************************************************************* //
