/*--------------------------------*- C++ -*----------------------------------*\
| =========                 |                                                 |
| \\      /  F ield         | OpenFOAM: The Open Source CFD Toolbox           |
|  \\    /   O peration     | Version:  dev                                   |
|   \\  /    A nd           | Web:      www.OpenFOAM.org                      |
|    \\/     M anipulation  |                                                 |
\*---------------------------------------------------------------------------*/
FoamFile
{
    version     2.0;
    format      ascii;
    class       volScalarField;
    location    "0.16";
    object      H2O2;
}
// * * * * * * * * * * * * * * * * * * * * * * * * * * * * * * * * * * * * * //

dimensions      [0 0 0 0 0 0 0];

internalField   nonuniform List<scalar> 
50
(
1.93845e-10
1.90721e-10
1.87729e-10
1.84837e-10
1.82103e-10
1.79461e-10
1.76956e-10
1.74551e-10
1.72202e-10
1.69931e-10
1.6776e-10
1.65633e-10
1.63521e-10
1.61443e-10
1.59343e-10
1.57185e-10
1.54918e-10
1.52467e-10
1.4976e-10
1.46783e-10
1.43408e-10
1.3953e-10
1.35006e-10
1.29795e-10
1.23784e-10
1.16883e-10
1.09181e-10
1.00698e-10
9.15218e-11
8.20817e-11
7.25465e-11
6.32055e-11
5.43333e-11
4.61597e-11
3.87726e-11
3.24201e-11
2.69713e-11
2.2518e-11
1.88954e-11
1.59774e-11
1.36298e-11
1.17224e-11
1.01371e-11
8.77175e-12
7.54155e-12
6.37741e-12
5.22509e-12
4.05111e-12
2.88109e-12
1.95017e-12
)
;

boundaryField
{
    wall
    {
        type            zeroGradient;
    }
    fuel
    {
        type            fixedValue;
        value           nonuniform 0();
    }
    outlet
    {
        type            inletOutlet;
        inletValue      uniform 0;
        value           uniform 1.95017e-12;
    }
    procBoundary3to2
    {
        type            processor;
        value           uniform 1.97113e-10;
    }
}


// ************************************************************************* //
