/*--------------------------------*- C++ -*----------------------------------*\
| =========                 |                                                 |
| \\      /  F ield         | OpenFOAM: The Open Source CFD Toolbox           |
|  \\    /   O peration     | Version:  dev                                   |
|   \\  /    A nd           | Web:      www.OpenFOAM.org                      |
|    \\/     M anipulation  |                                                 |
\*---------------------------------------------------------------------------*/
FoamFile
{
    version     2.0;
    format      ascii;
    class       volScalarField;
    location    "0.16";
    object      l-C6H6;
}
// * * * * * * * * * * * * * * * * * * * * * * * * * * * * * * * * * * * * * //

dimensions      [0 0 0 0 0 0 0];

internalField   nonuniform List<scalar> 
250
(
3.00245e-07
3.00228e-07
3.00201e-07
3.00223e-07
3.00168e-07
3.00223e-07
3.00333e-07
3.01788e-07
3.15047e-07
4.46775e-07
2.33221e-08
4.15741e-08
4.15741e-08
4.15752e-08
4.15725e-08
4.15733e-08
4.15755e-08
4.159e-08
4.17231e-08
4.2781e-08
5.22519e-08
5.83534e-08
2.79395e-08
2.79401e-08
2.79427e-08
2.79388e-08
2.79416e-08
2.79423e-08
2.79542e-08
2.80439e-08
2.86678e-08
3.13255e-08
9.38281e-08
2.32266e-08
2.32283e-08
2.3231e-08
2.32263e-08
2.32291e-08
2.323e-08
2.32441e-08
2.33614e-08
2.42339e-08
2.77142e-08
1.25441e-07
1.84345e-08
1.84376e-08
1.84399e-08
1.84349e-08
1.84358e-08
1.84384e-08
1.84524e-08
1.85805e-08
1.96568e-08
2.40452e-08
1.51445e-07
1.43262e-08
1.43305e-08
1.43321e-08
1.43273e-08
1.43219e-08
1.433e-08
1.43407e-08
1.44476e-08
1.56448e-08
2.06179e-08
1.72062e-07
1.09582e-08
1.09648e-08
1.09663e-08
1.09588e-08
1.09318e-08
1.09656e-08
1.09927e-08
1.12191e-08
1.24818e-08
1.77484e-08
1.8865e-07
8.6445e-09
8.65167e-09
8.65253e-09
8.64522e-09
8.57534e-09
8.65219e-09
8.67906e-09
8.87706e-09
1.01244e-08
1.54382e-08
2.03119e-07
6.83853e-09
6.84671e-09
6.84728e-09
6.83898e-09
6.90543e-09
6.84848e-09
6.87245e-09
7.09438e-09
8.18474e-09
1.35924e-08
2.17456e-07
5.54548e-09
5.55286e-09
5.55327e-09
5.54465e-09
5.58203e-09
5.5555e-09
5.57958e-09
5.77781e-09
6.92324e-09
1.21099e-08
2.3227e-07
4.63388e-09
4.63419e-09
4.62431e-09
4.64379e-09
4.63708e-09
4.65998e-09
4.83825e-09
5.88857e-09
1.08995e-08
2.42201e-07
3.96819e-09
3.96849e-09
3.95615e-09
3.96522e-09
3.97203e-09
3.99384e-09
4.15701e-09
5.10542e-09
9.88981e-09
2.30805e-07
3.47336e-09
3.47373e-09
3.45707e-09
3.45751e-09
3.47805e-09
3.4991e-09
3.65127e-09
4.49218e-09
8.94973e-09
1.88298e-07
3.09427e-09
3.09482e-09
3.07079e-09
3.1117e-09
3.10028e-09
3.12054e-09
3.26458e-09
4.05947e-09
8.15295e-09
1.30236e-07
2.79438e-09
2.79531e-09
2.79956e-09
2.81669e-09
2.80149e-09
2.82138e-09
2.95871e-09
3.67074e-09
7.28669e-09
7.80874e-08
2.54962e-09
2.55088e-09
2.55214e-09
2.56694e-09
2.5575e-09
2.57737e-09
2.70864e-09
3.33539e-09
6.60868e-09
4.17826e-08
2.34419e-09
2.34575e-09
2.34427e-09
2.35804e-09
2.35264e-09
2.3726e-09
2.49799e-09
3.04814e-09
5.99688e-09
2.05664e-08
2.16775e-09
2.16955e-09
2.16523e-09
2.1791e-09
2.17665e-09
2.19664e-09
2.31597e-09
2.79786e-09
5.43802e-09
9.66211e-09
2.01344e-09
2.01546e-09
2.00786e-09
2.02311e-09
2.02276e-09
2.0426e-09
2.15528e-09
2.57726e-09
4.92495e-09
4.60451e-09
1.87668e-09
1.87888e-09
1.86718e-09
1.88542e-09
1.88642e-09
1.90586e-09
2.01071e-09
2.38131e-09
4.45947e-09
2.48088e-09
1.75431e-09
1.7567e-09
1.75383e-09
1.7629e-09
1.7645e-09
1.7832e-09
1.87831e-09
2.20626e-09
3.96276e-09
1.71808e-09
1.64417e-09
1.64648e-09
1.65262e-09
1.65292e-09
1.65469e-09
1.67221e-09
1.77016e-09
2.05008e-09
3.50707e-09
1.54107e-09
1.55542e-09
1.55668e-09
1.56243e-09
1.56376e-09
1.56557e-09
1.58129e-09
1.67233e-09
1.91062e-09
3.15626e-09
1.59358e-09
1.47124e-09
1.47607e-09
1.47595e-09
1.47845e-09
1.48017e-09
1.49924e-09
1.58155e-09
1.7851e-09
2.84477e-09
1.71333e-09
)
;

boundaryField
{
    fuel
    {
        type            fixedValue;
        value           uniform 0;
    }
    wall
    {
        type            zeroGradient;
    }
    outlet
    {
        type            zeroGradient;
    }
    frontAndBack
    {
        type            empty;
    }
    procBoundary3to0
    {
        type            processor;
        value           nonuniform List<scalar> 10(1.39971e-09 1.40359e-09 1.40299e-09 1.40618e-09 1.40785e-09 1.42519e-09 1.50175e-09 1.68283e-09 2.57117e-09 1.82584e-09);
    }
    procBoundary3to2
    {
        type            processor;
        value           nonuniform List<scalar> 
25
(
3.00223e-07
4.15807e-08
2.79489e-08
2.32408e-08
1.84535e-08
1.43486e-08
1.09833e-08
8.67003e-09
6.86297e-09
5.56604e-09
4.62715e-09
4.62715e-09
3.96209e-09
3.46792e-09
3.08951e-09
2.79026e-09
2.54608e-09
2.34117e-09
2.16519e-09
2.01135e-09
1.87513e-09
1.75343e-09
1.64398e-09
1.55511e-09
1.46983e-09
)
;
    }
}


// ************************************************************************* //
