/*--------------------------------*- C++ -*----------------------------------*\
| =========                 |                                                 |
| \\      /  F ield         | OpenFOAM: The Open Source CFD Toolbox           |
|  \\    /   O peration     | Version:  dev                                   |
|   \\  /    A nd           | Web:      www.OpenFOAM.org                      |
|    \\/     M anipulation  |                                                 |
\*---------------------------------------------------------------------------*/
FoamFile
{
    version     2.0;
    format      ascii;
    class       volScalarField;
    location    "0.16";
    object      naphthyne;
}
// * * * * * * * * * * * * * * * * * * * * * * * * * * * * * * * * * * * * * //

dimensions      [0 0 0 0 0 0 0];

internalField   nonuniform List<scalar> 
250
(
7.77705e-08
7.77744e-08
7.7778e-08
7.77771e-08
7.77815e-08
7.77759e-08
7.78636e-08
7.7926e-08
7.92989e-08
8.2534e-08
3.50782e-09
7.40149e-08
7.40208e-08
7.40271e-08
7.40224e-08
7.40307e-08
7.40147e-08
7.41964e-08
7.43979e-08
7.76574e-08
8.87464e-08
8.39931e-09
5.65263e-08
5.65359e-08
5.65458e-08
5.65367e-08
5.65522e-08
5.65201e-08
5.67957e-08
5.69913e-08
6.14159e-08
7.48931e-08
1.6492e-08
4.19425e-08
4.19553e-08
4.19686e-08
4.19556e-08
4.19754e-08
4.19322e-08
4.22816e-08
4.24183e-08
4.75844e-08
6.16676e-08
5.33852e-08
3.085e-08
3.08648e-08
3.08799e-08
3.08642e-08
3.08833e-08
3.0837e-08
3.12243e-08
3.12887e-08
3.68772e-08
5.12975e-08
6.18659e-08
2.26806e-08
2.26962e-08
2.27108e-08
2.26942e-08
2.27099e-08
2.26651e-08
2.30502e-08
2.30235e-08
2.80337e-08
4.35549e-08
6.37034e-08
1.64964e-08
1.65212e-08
1.65412e-08
1.65223e-08
1.65168e-08
1.65052e-08
1.69238e-08
1.7014e-08
2.18321e-08
3.74231e-08
7.17509e-08
1.22928e-08
1.23166e-08
1.23344e-08
1.23164e-08
1.23175e-08
1.23025e-08
1.26697e-08
1.27041e-08
1.73147e-08
3.28969e-08
8.63045e-08
9.36487e-09
9.3851e-09
9.40074e-09
9.38297e-09
9.40262e-09
9.37245e-09
9.68078e-09
9.63804e-09
1.35731e-08
2.96759e-08
1.06758e-07
7.13216e-09
7.15222e-09
7.16653e-09
7.14788e-09
7.18622e-09
7.1474e-09
7.41461e-09
7.44166e-09
1.08029e-08
2.69566e-08
1.30402e-07
5.58406e-09
5.59563e-09
5.57594e-09
5.61175e-09
5.58365e-09
5.79463e-09
5.85322e-09
8.77911e-09
2.47329e-08
1.5189e-07
4.47691e-09
4.48595e-09
4.46321e-09
4.48015e-09
4.47888e-09
4.64939e-09
4.73286e-09
7.2648e-09
2.26124e-08
1.65869e-07
3.67872e-09
3.68546e-09
3.6571e-09
3.75368e-09
3.68215e-09
3.82251e-09
3.92263e-09
6.08298e-09
2.06126e-08
1.69754e-07
3.08763e-09
3.09239e-09
3.05368e-09
3.14114e-09
3.091e-09
3.20917e-09
3.31958e-09
5.32798e-09
1.86978e-08
1.64178e-07
2.63749e-09
2.64077e-09
2.64674e-09
2.67321e-09
2.64008e-09
2.74141e-09
2.8569e-09
4.6988e-09
1.69541e-08
1.51763e-07
2.28574e-09
2.28778e-09
2.29018e-09
2.30858e-09
2.28742e-09
2.37547e-09
2.49187e-09
4.12947e-09
1.52944e-08
1.35633e-07
2.00481e-09
2.00594e-09
2.00532e-09
2.01931e-09
2.00577e-09
2.08292e-09
2.19719e-09
3.64931e-09
1.36808e-08
1.18447e-07
1.77662e-09
1.77718e-09
1.77386e-09
1.78604e-09
1.77717e-09
1.84503e-09
1.95502e-09
3.23161e-09
1.21532e-08
1.02041e-07
1.5891e-09
1.58938e-09
1.58333e-09
1.59549e-09
1.58952e-09
1.64922e-09
1.7535e-09
2.93802e-09
1.07519e-08
8.73471e-08
1.43401e-09
1.43422e-09
1.42494e-09
1.43861e-09
1.4345e-09
1.48684e-09
1.58414e-09
2.66614e-09
9.47627e-09
7.37233e-08
1.30561e-09
1.30588e-09
1.30855e-09
1.30916e-09
1.30628e-09
1.35176e-09
1.45539e-09
2.40794e-09
8.33127e-09
6.2174e-08
1.1997e-09
1.19999e-09
1.20203e-09
1.20233e-09
1.20063e-09
1.23924e-09
1.34248e-09
2.18562e-09
7.31229e-09
5.31865e-08
1.12346e-09
1.12381e-09
1.12537e-09
1.12571e-09
1.12434e-09
1.15907e-09
1.25543e-09
1.99437e-09
6.41141e-09
4.51085e-08
1.05882e-09
1.05915e-09
1.06044e-09
1.06053e-09
1.0599e-09
1.09008e-09
1.18179e-09
1.83009e-09
5.62559e-09
3.84382e-08
)
;

boundaryField
{
    fuel
    {
        type            fixedValue;
        value           uniform 0;
    }
    wall
    {
        type            zeroGradient;
    }
    outlet
    {
        type            zeroGradient;
    }
    frontAndBack
    {
        type            empty;
    }
    procBoundary3to0
    {
        type            processor;
        value           nonuniform List<scalar> 10(1.01492e-09 1.01514e-09 1.01631e-09 1.01607e-09 1.01593e-09 1.0423e-09 1.12906e-09 1.68887e-09 4.94647e-09 3.31085e-08);
    }
    procBoundary3to2
    {
        type            processor;
        value           nonuniform List<scalar> 
25
(
7.77756e-08
7.40205e-08
5.65344e-08
4.1953e-08
3.08617e-08
2.26927e-08
1.6515e-08
1.23101e-08
9.37883e-09
7.14466e-09
5.56817e-09
5.56817e-09
4.4669e-09
3.67544e-09
3.09045e-09
2.64466e-09
2.29526e-09
2.01503e-09
1.78641e-09
1.59782e-09
1.44143e-09
1.3117e-09
1.20457e-09
1.12744e-09
1.06204e-09
)
;
    }
}


// ************************************************************************* //
