/*--------------------------------*- C++ -*----------------------------------*\
| =========                 |                                                 |
| \\      /  F ield         | OpenFOAM: The Open Source CFD Toolbox           |
|  \\    /   O peration     | Version:  dev                                   |
|   \\  /    A nd           | Web:      www.OpenFOAM.org                      |
|    \\/     M anipulation  |                                                 |
\*---------------------------------------------------------------------------*/
FoamFile
{
    version     2.0;
    format      ascii;
    class       volScalarField;
    location    "0.16";
    object      p;
}
// * * * * * * * * * * * * * * * * * * * * * * * * * * * * * * * * * * * * * //

dimensions      [1 -1 -2 0 0 0 0];

internalField   nonuniform List<scalar> 
250
(
99996.5
99996.6
99996.8
99996.9
99997.6
99997.2
99998.8
99997.5
100000
99998.6
100001
99996.4
99996.4
99996.7
99996.8
99997.4
99997.1
99998.6
99997.3
100000
99998.4
100001
99996.3
99996.4
99996.6
99996.7
99997.4
99997
99998.6
99997.2
99999.9
99998.4
100001
99996.3
99996.4
99996.6
99996.7
99997.4
99997
99998.6
99997.2
99999.9
99998.4
99999.3
99996.3
99996.4
99996.6
99996.7
99997.4
99997
99998.6
99997.2
99999.9
99998.4
99998.4
99996.3
99996.4
99996.6
99996.7
99997.4
99997
99998.6
99997.2
99999.9
99998.3
99998.2
99996.3
99996.4
99996.6
99996.7
99997.4
99997
99998.6
99997.2
99999.9
99998.3
99998.3
99996.3
99996.4
99996.6
99996.7
99997.3
99997
99998.6
99997.2
99999.9
99998.3
99998.5
99996.3
99996.4
99996.6
99996.7
99997.3
99997.1
99998.6
99997.2
99999.9
99998.2
99998.8
99996.3
99996.4
99996.6
99996.7
99997.3
99997.1
99998.6
99997.2
100000
99998.2
99999
99996.4
99996.6
99996.7
99997.3
99997.1
99998.6
99997.2
100000
99998.1
99999.2
99996.4
99996.6
99996.7
99997.3
99997.1
99998.6
99997.2
100000
99998
99999.4
99996.4
99996.6
99996.8
99997.3
99997.1
99998.6
99997.2
100000
99998
99999.6
99996.4
99996.6
99996.8
99997.3
99997.1
99998.5
99997.2
100000
99997.9
99999.8
99996.4
99996.6
99996.8
99997.3
99997.1
99998.5
99997.2
100000
99997.9
99999.9
99996.4
99996.6
99996.8
99997.3
99997.2
99998.5
99997.3
100000
99997.8
100000
99996.4
99996.6
99996.8
99997.3
99997.2
99998.5
99997.3
100000
99997.8
100000
99996.4
99996.6
99996.8
99997.3
99997.2
99998.5
99997.3
100000
99997.8
100000
99996.4
99996.6
99996.8
99997.3
99997.2
99998.5
99997.3
100000
99997.7
100000
99996.4
99996.6
99996.8
99997.3
99997.2
99998.4
99997.4
100000
99997.7
100001
99996.4
99996.6
99996.8
99997.3
99997.2
99998.4
99997.4
100000
99997.7
100001
99996.4
99996.6
99996.8
99997.3
99997.2
99998.4
99997.4
100000
99997.7
100001
99996.4
99996.6
99996.8
99997.3
99997.3
99998.4
99997.4
100000
99997.7
100001
99996.4
99996.6
99996.8
99997.3
99997.3
99998.4
99997.5
100000
99997.7
100001
)
;

boundaryField
{
    fuel
    {
        type            zeroGradient;
    }
    wall
    {
        type            zeroGradient;
    }
    outlet
    {
        type            totalPressure;
        rho             none;
        psi             none;
        gamma           1;
        p0              uniform 100000;
        value           uniform 100000;
    }
    frontAndBack
    {
        type            empty;
    }
    procBoundary3to0
    {
        type            processor;
        value           nonuniform List<scalar> 10(99996.4 99996.6 99996.8 99997.3 99997.3 99998.4 99997.5 100000 99997.7 100001);
    }
    procBoundary3to2
    {
        type            processor;
        value           nonuniform List<scalar> 
25
(
99996.5
99996.3
99996.3
99996.3
99996.3
99996.3
99996.3
99996.3
99996.3
99996.3
99996.3
99996.3
99996.3
99996.3
99996.3
99996.3
99996.3
99996.3
99996.3
99996.3
99996.3
99996.3
99996.3
99996.3
99996.3
)
;
    }
}


// ************************************************************************* //
