/*--------------------------------*- C++ -*----------------------------------*\
| =========                 |                                                 |
| \\      /  F ield         | OpenFOAM: The Open Source CFD Toolbox           |
|  \\    /   O peration     | Version:  dev                                   |
|   \\  /    A nd           | Web:      www.OpenFOAM.org                      |
|    \\/     M anipulation  |                                                 |
\*---------------------------------------------------------------------------*/
FoamFile
{
    version     2.0;
    format      ascii;
    class       volScalarField;
    location    "0.16";
    object      P2-;
}
// * * * * * * * * * * * * * * * * * * * * * * * * * * * * * * * * * * * * * //

dimensions      [0 0 0 0 0 0 0];

internalField   nonuniform List<scalar> 
250
(
3.20091e-09
3.20091e-09
3.20115e-09
3.20092e-09
3.2011e-09
3.20124e-09
3.20233e-09
3.21061e-09
3.2689e-09
3.51984e-09
6.79067e-11
5.05234e-09
5.05211e-09
5.05258e-09
5.05211e-09
5.05221e-09
5.05288e-09
5.05662e-09
5.0918e-09
5.37831e-09
7.63457e-09
1.2395e-10
3.27827e-09
3.27821e-09
3.27874e-09
3.27807e-09
3.27838e-09
3.27876e-09
3.2826e-09
3.32028e-09
3.63598e-09
6.62594e-09
8.92313e-11
1.68205e-09
1.68222e-09
1.68258e-09
1.682e-09
1.68231e-09
1.68243e-09
1.68517e-09
1.71288e-09
1.95297e-09
4.57952e-09
4.28696e-11
8.29141e-10
8.29397e-10
8.2958e-10
8.29179e-10
8.29281e-10
8.29416e-10
8.31058e-10
8.48569e-10
1.01402e-09
3.0635e-09
1.7629e-11
4.24205e-10
4.24442e-10
4.24513e-10
4.24274e-10
4.24039e-10
4.2437e-10
4.2516e-10
4.34428e-10
5.4789e-10
2.10959e-09
7.66945e-12
2.22592e-10
2.22844e-10
2.22892e-10
2.22617e-10
2.21631e-10
2.22856e-10
2.24088e-10
2.35545e-10
3.16392e-10
1.51304e-09
4.05225e-12
1.29944e-10
1.30144e-10
1.30161e-10
1.29968e-10
1.27865e-10
1.30143e-10
1.31028e-10
1.38354e-10
1.97442e-10
1.12482e-09
2.63049e-12
7.83544e-11
7.85275e-11
7.8535e-11
7.83688e-11
7.99309e-11
7.85545e-11
7.9144e-11
8.51517e-11
1.25812e-10
8.59424e-10
2.18755e-12
5.05356e-11
5.06586e-11
5.06621e-11
5.05284e-11
5.12388e-11
5.06961e-11
5.11633e-11
5.54214e-11
8.93333e-11
6.69778e-10
2.46597e-12
3.49934e-11
3.49948e-11
3.48694e-11
3.51703e-11
3.50324e-11
3.53985e-11
3.8565e-11
6.48546e-11
5.29315e-10
3.74941e-12
2.56366e-11
2.56373e-11
2.55026e-11
2.56142e-11
2.56769e-11
2.59733e-11
2.84486e-11
4.91654e-11
4.23423e-10
5.92231e-12
1.9713e-11
1.97139e-11
1.95505e-11
1.95403e-11
1.97565e-11
2.00061e-11
2.20278e-11
3.84305e-11
3.35996e-10
8.20141e-12
1.57522e-11
1.57544e-11
1.55332e-11
1.59176e-11
1.58032e-11
1.60174e-11
1.77261e-11
3.16233e-11
2.7073e-10
1.03357e-11
1.29677e-11
1.29726e-11
1.30191e-11
1.31613e-11
1.30231e-11
1.32134e-11
1.4689e-11
2.60367e-11
2.08038e-10
1.24468e-11
1.0921e-11
1.09277e-11
1.09478e-11
1.10577e-11
1.09777e-11
1.11517e-11
1.2443e-11
2.16392e-11
1.64512e-10
1.45595e-11
9.35836e-12
9.36652e-12
9.36538e-12
9.45786e-12
9.41468e-12
9.57619e-12
1.07151e-11
1.81832e-11
1.29723e-10
1.64671e-11
8.12803e-12
8.13706e-12
8.11683e-12
8.20215e-12
8.18322e-12
8.33397e-12
9.34182e-12
1.54125e-11
1.01901e-10
1.79875e-11
7.13569e-12
7.14519e-12
7.10505e-12
7.19278e-12
7.18954e-12
7.33013e-12
8.22067e-12
1.31631e-11
7.98167e-11
1.90526e-11
6.32057e-12
6.3303e-12
6.26633e-12
6.36729e-12
6.3733e-12
6.5036e-12
7.2838e-12
1.13221e-11
6.26545e-11
1.96922e-11
5.64204e-12
5.65192e-12
5.63966e-12
5.68414e-12
5.69406e-12
5.81334e-12
6.48361e-12
9.80355e-12
4.73696e-11
1.99596e-11
5.07234e-12
5.08104e-12
5.11743e-12
5.11254e-12
5.12336e-12
5.23032e-12
5.8755e-12
8.55681e-12
3.56454e-11
1.99116e-11
4.64746e-12
4.65016e-12
4.68369e-12
4.6836e-12
4.69452e-12
4.78747e-12
5.36131e-12
7.53623e-12
2.79622e-11
1.95699e-11
4.2728e-12
4.29118e-12
4.29563e-12
4.30063e-12
4.31096e-12
4.4159e-12
4.91602e-12
6.69387e-12
2.21583e-11
1.89274e-11
)
;

boundaryField
{
    fuel
    {
        type            fixedValue;
        value           uniform 0;
    }
    wall
    {
        type            zeroGradient;
    }
    outlet
    {
        type            zeroGradient;
    }
    frontAndBack
    {
        type            empty;
    }
    procBoundary3to0
    {
        type            processor;
        value           nonuniform List<scalar> 10(3.98188e-12 3.99464e-12 3.99704e-12 4.0044e-12 4.01417e-12 4.10705e-12 4.55536e-12 6.06994e-12 1.77879e-11 1.79954e-11);
    }
    procBoundary3to2
    {
        type            processor;
        value           nonuniform List<scalar> 
25
(
3.20131e-09
5.05331e-09
3.28013e-09
1.6842e-09
8.31009e-10
4.25622e-10
2.23652e-10
1.30721e-10
7.89096e-11
5.09019e-11
3.49013e-11
3.49013e-11
2.55655e-11
1.96573e-11
1.57085e-11
1.29333e-11
1.08938e-11
9.33668e-12
8.11069e-12
7.12203e-12
6.31054e-12
5.63606e-12
5.07045e-12
4.64548e-12
4.26511e-12
)
;
    }
}


// ************************************************************************* //
