/*--------------------------------*- C++ -*----------------------------------*\
| =========                 |                                                 |
| \\      /  F ield         | OpenFOAM: The Open Source CFD Toolbox           |
|  \\    /   O peration     | Version:  dev                                   |
|   \\  /    A nd           | Web:      www.OpenFOAM.org                      |
|    \\/     M anipulation  |                                                 |
\*---------------------------------------------------------------------------*/
FoamFile
{
    version     2.0;
    format      ascii;
    class       volScalarField;
    location    "0.055";
    object      l-C6H6;
}
// * * * * * * * * * * * * * * * * * * * * * * * * * * * * * * * * * * * * * //

dimensions      [0 0 0 0 0 0 0];

internalField   nonuniform List<scalar> 
13
(
1.8668e-09
1.8977e-09
1.92027e-09
1.93651e-09
1.94718e-09
1.95293e-09
1.95406e-09
1.95091e-09
1.94367e-09
1.93247e-09
1.91736e-09
1.89842e-09
1.87567e-09
)
;

boundaryField
{
    wall
    {
        type            zeroGradient;
    }
    fuel
    {
        type            fixedValue;
        value           nonuniform 0();
    }
    outlet
    {
        type            inletOutlet;
        inletValue      nonuniform 0();
        value           nonuniform 0();
    }
    procBoundary5to4
    {
        type            processor;
        value           uniform 1.82829e-09;
    }
    procBoundary5to6
    {
        type            processor;
        value           uniform 1.84915e-09;
    }
}


// ************************************************************************* //
