# Probe 0 (0 0 0)
# Probe 1 (0 0 0.001)
# Probe 2 (0 0 0.002)
# Probe 3 (0 0 0.003)
# Probe 4 (0 0 0.004)
# Probe 5 (0 0 0.005)
# Probe 6 (0 0 0.006)
# Probe 7 (0 0 0.007)
# Probe 8 (0 0 0.008)
#       Probe             0             1             2             3             4             5             6             7             8
#        Time
  0.000116279   3.21786e-23   7.07938e-25    1.0698e-22   1.83978e-20    8.7793e-20    2.0384e-19   2.71303e-19   1.79562e-19   1.43488e-21
  0.000251938    6.9435e-23   1.53414e-24   2.26435e-22   3.94359e-20   1.89047e-19   4.39971e-19   5.87245e-19   3.91561e-19   4.07997e-21
  0.000410207   1.12515e-22   2.49853e-24   3.58819e-22   6.34092e-20   3.05591e-19   7.13169e-19   9.55019e-19    6.4225e-19   8.68996e-21
  0.000593798   1.61972e-22   3.61809e-24   5.03409e-22   9.04586e-20   4.38649e-19   1.02698e-18   1.38047e-18   9.37497e-19   1.64038e-20
  0.000803618   2.17816e-22   4.89904e-24   6.57445e-22   1.20385e-19   5.87913e-19   1.38153e-18   1.86506e-18   1.28067e-18   2.87931e-20
   0.00103675   2.79013e-22   6.32462e-24   8.15323e-22   1.52414e-19    7.5024e-19   1.77027e-18   2.40129e-18   1.66907e-18    4.7679e-20
   0.00128445   3.43045e-22   7.84265e-24   9.68607e-22   1.85041e-19   9.18606e-19   2.17717e-18   2.96829e-18   2.08983e-18   7.44821e-20
   0.00154985    4.1054e-22   9.47376e-24   1.11779e-21   2.18448e-19   1.09439e-18   2.60617e-18   3.57246e-18   2.54948e-18    1.1162e-19
   0.00183736   4.82391e-22   1.12472e-23   1.26354e-21   2.52901e-19   1.27958e-18   3.06284e-18    4.2229e-18   3.05724e-18   1.62402e-19
