# Probe 0 (0 0 0.006)
# Probe 1 (0 0 0.007)
# Probe 2 (0 0 0.008)
#       Probe             0             1             2
#        Time
  2.38095e-05   2.68047e+07   1.75431e+08   1.10792e+07
   4.7619e-05   3.77736e+08   8.31104e+09   2.21561e+07
  7.14286e-05   2.44575e+09   9.13114e+10   3.32311e+07
  9.52381e-05   1.04399e+10   5.35117e+11   4.43048e+07
  0.000119048   3.42622e+10   2.19393e+12   5.53789e+07
  0.000142857    9.3751e+10   7.12125e+12   6.64571e+07
  0.000166667   2.24448e+11   1.95799e+13   7.75489e+07
  0.000190476   4.84974e+11   4.75303e+13   8.86768e+07
  0.000214286   9.66042e+11   1.04699e+14   9.98912e+07
  0.000238095   1.80108e+12   2.13332e+14   1.11298e+08
  0.000261905   3.17837e+12    4.0773e+14   1.23108e+08
  0.000285714   5.35462e+12   7.38689e+14   1.35724e+08
  0.000309524   8.66973e+12   1.27893e+15   1.49875e+08
  0.000333333   1.35627e+13   2.12966e+15   1.66842e+08
  0.000357143   2.05884e+13   3.42831e+15   1.88797e+08
  0.000380952   3.04349e+13   5.35768e+15   2.19314e+08
  0.000404762   4.39415e+13   8.15646e+15   2.64121e+08
  0.000428571   6.21166e+13   1.21313e+16   3.32175e+08
  0.000452381   8.61562e+13   1.76707e+16   4.37191e+08
   0.00047619   1.17461e+14   2.52603e+16    5.9975e+08
       0.0005   1.57656e+14   3.55006e+16   8.50192e+08
   0.00052381   2.08605e+14   4.91263e+16   1.23251e+09
  0.000547619   2.72426e+14   6.70277e+16   1.80953e+09
  0.000571429   3.51513e+14   9.02749e+16   2.66976e+09
  0.000595238    4.4854e+14   1.20143e+17   3.93623e+09
  0.000619048   5.66485e+14   1.58142e+17   5.77798e+09
  0.000642857   7.08631e+14   2.06047e+17   8.42468e+09
  0.000666667   8.78586e+14   2.65932e+17   1.21851e+10
  0.000690476   1.08028e+15   3.40205e+17   1.74705e+10
  0.000714286     1.318e+15   4.31651e+17   2.48234e+10
  0.000738095   1.59634e+15   5.43471e+17   3.49538e+10
  0.000761905   1.92027e+15   6.79327e+17   4.87828e+10
  0.000785714   2.29509e+15   8.43393e+17   6.74972e+10
  0.000809524   2.72647e+15   1.04041e+18   9.26148e+10
  0.000833333    3.2204e+15   1.27572e+18   1.26063e+11
  0.000857143   3.78323e+15   1.55535e+18   1.70276e+11
  0.000880952   4.42165e+15   1.88608e+18   2.28306e+11
  0.000904762   5.14269e+15   2.27547e+18    3.0396e+11
  0.000928571   5.95368e+15   2.73195e+18   4.01962e+11
  0.000952381    6.8623e+15   3.26491e+18   5.28141e+11
   0.00097619   7.87651e+15   3.88474e+18   6.89655e+11
        0.001   9.00459e+15   4.60295e+18   8.95251e+11
   0.00102381   1.02551e+16   5.43221e+18   1.15557e+12
   0.00104762   1.16368e+16   6.38647e+18   1.48351e+12
   0.00107143   1.31587e+16   7.48104e+18   1.89461e+12
   0.00109524   1.48303e+16   8.73269e+18   2.40757e+12
   0.00111905   1.66609e+16   1.01597e+19   3.04475e+12
   0.00114286   1.86603e+16   1.17822e+19   3.83281e+12
   0.00116667   2.08385e+16   1.36217e+19   4.80347e+12
   0.00119048   2.32053e+16   1.57019e+19   5.99426e+12
   0.00121429    2.5771e+16   1.80485e+19   7.44949e+12
    0.0012381    2.8546e+16   2.06892e+19   9.22134e+12
    0.0012619   3.15406e+16   2.36538e+19    1.1371e+13
   0.00128571   3.47652e+16   2.69747e+19   1.39701e+13
   0.00130952   3.82304e+16   3.06866e+19    1.7102e+13
   0.00133333   4.19467e+16    3.4827e+19   2.08641e+13
   0.00135714   4.59247e+16    3.9436e+19   2.53691e+13
   0.00138095   5.01748e+16   4.45566e+19   3.07475e+13
   0.00140476   5.47077e+16    5.0235e+19   3.71499e+13
   0.00142857   5.95337e+16   5.65205e+19   4.47501e+13
   0.00145238   6.46632e+16   6.34656e+19   5.37474e+13
   0.00147619   7.01065e+16   7.11264e+19   6.43708e+13
       0.0015   7.58735e+16   7.95629e+19    7.6882e+13
   0.00152381   8.19744e+16   8.88384e+19   9.15799e+13
   0.00154762    8.8419e+16   9.90207e+19   1.08805e+14
   0.00157143   9.52168e+16   1.10181e+20   1.28945e+14
   0.00159524   1.02377e+17   1.22397e+20    1.5244e+14
   0.00161905    1.0991e+17   1.35747e+20   1.79787e+14
   0.00164286   1.17823e+17   1.50317e+20   2.11551e+14
   0.00166667   1.26126e+17   1.66198e+20   2.48367e+14
   0.00169048   1.34827e+17   1.83484e+20   2.90953e+14
   0.00171429   1.43934e+17   2.02276e+20   3.40115e+14
    0.0017381   1.53455e+17   2.22678e+20    3.9676e+14
    0.0017619   1.63398e+17   2.44804e+20   4.61905e+14
   0.00178571   1.73769e+17   2.68769e+20   5.36687e+14
   0.00180952   1.84577e+17   2.94697e+20    6.2238e+14
   0.00183333   1.95826e+17   3.22716e+20   7.20405e+14
   0.00185714   2.07524e+17   3.52962e+20   8.32347e+14
   0.00188095   2.19675e+17   3.85578e+20   9.59971e+14
   0.00190476   2.32287e+17   4.20712e+20   1.10524e+15
   0.00192857   2.45362e+17   4.58519e+20   1.27033e+15
   0.00195238   2.58907e+17   4.99163e+20   1.45766e+15
   0.00197619   2.72926e+17   5.42814e+20    1.6699e+15
        0.002   2.87421e+17   5.89648e+20   1.91002e+15
   0.00202381   3.02398e+17   6.39853e+20   2.18129e+15
   0.00204762   3.17858e+17    6.9362e+20   2.48731e+15
   0.00207143   3.33804e+17   7.51151e+20   2.83207e+15
   0.00209524   3.50239e+17   8.12656e+20   3.21995e+15
