# Probe 0 (0 0 0)
# Probe 1 (0 0 0.001)
# Probe 2 (0 0 0.004)
# Probe 3 (0 0 0.008)
#       Probe             0             1             2             3
#        Time
  2.38095e-05             0             0             0   7.85159e+06
   4.7619e-05             0             0             0   1.57248e+07
  7.14286e-05             0             0             0   2.36201e+07
  9.52381e-05             0             0             0   3.15384e+07
  0.000119048             0             0             0   3.94815e+07
  0.000142857             0             0             0   4.74579e+07
  0.000166667             0             0             0   5.55205e+07
  0.000190476             0             0             0   6.39784e+07
  0.000214286             0             0             0   7.43514e+07
  0.000238095             0             0             0   9.29681e+07
  0.000261905             0             0             0   1.42697e+08
  0.000285714             0             0             0   2.96896e+08
  0.000309524             0             0             0   7.68533e+08
  0.000333333             0             0             0   2.12579e+09
  0.000357143             0             0             0   5.77893e+09
  0.000380952             0             0             0   1.50168e+10
  0.000404762             0             0             0   3.71035e+10
  0.000428571             0             0             0   8.73351e+10
  0.000452381             0             0             0   1.96585e+11
   0.00047619             0             0             0   4.24861e+11
       0.0005             0             0             0    8.8491e+11
   0.00052381             0             0             0   1.78218e+12
  0.000547619             0             0             0   3.48082e+12
  0.000571429             0             0             0    6.6101e+12
  0.000595238             0             0             0   1.22326e+13
  0.000619048             0             0             0   2.21046e+13
  0.000642857             0             0             0   3.90732e+13
  0.000666667             0             0             0   6.76698e+13
  0.000690476             0             0             0   1.14987e+14
  0.000714286             0             0             0   1.91954e+14
  0.000738095             0             0             0   3.15166e+14
  0.000761905             0             0             0   5.09482e+14
  0.000785714             0             0             0   8.11664e+14
  0.000809524             0             0             0   1.27543e+15
  0.000833333             0             0             0    1.9784e+15
  0.000857143             0             0             0   3.03151e+15
  0.000880952             0             0             0   4.59177e+15
  0.000904762             0             0             0   6.87928e+15
  0.000928571             0             0             0   1.01998e+16
  0.000952381             0             0             0   1.49745e+16
   0.00097619             0             0             0   2.17788e+16
        0.001             0             0             0   3.13929e+16
   0.00102381             0             0             0   4.48667e+16
   0.00104762             0             0             0   6.36035e+16
   0.00107143             0             0             0   8.94663e+16
   0.00109524             0             0             0   1.24913e+17
   0.00111905             0             0             0   1.73164e+17
   0.00114286             0             0             0   2.38421e+17
   0.00116667             0             0             0   3.26126e+17
