# Probe 0 (0 0 0)
# Probe 1 (0 0 0.004)
# Probe 2 (0 0 0.008)
#       Probe             0             1             2
#        Time
  6.84932e-05   2.98562e+08      0.188536       300.361
  0.000136986   6.38128e+08      0.355483       892.994
  0.000205479   1.02203e+09       0.50347       1781.18
  0.000273973   1.45362e+09      0.634779       2959.38
  0.000342466   1.93626e+09      0.751378        4416.2
  0.000410959   2.47328e+09      0.854974       6136.48
  0.000479452     3.068e+09      0.947055       8102.71
  0.000547945   3.72367e+09       1.02893         10296
  0.000616438   4.44347e+09       1.10174       12696.7
  0.000684932   5.23048e+09        1.1665         15285
  0.000753425   6.08769e+09       1.22412       18041.1
  0.000821918   7.01794e+09       1.27539       20945.4
  0.000890411   8.02395e+09       1.32102         23979
  0.000958904   9.10827e+09       1.36165       27123.6
    0.0010274   1.02733e+10       1.39782       30361.5
   0.00109589   1.15213e+10       1.43004       33676.1
   0.00116438   1.28542e+10       1.45873       37051.4
   0.00123288   1.42739e+10        1.4843       40472.5
   0.00130137   1.57819e+10       1.50709       43925.4
   0.00136986   1.73798e+10        1.5274       47397.1
   0.00143836   1.90687e+10        1.5455       50875.4
   0.00150685   2.08495e+10       1.56165       54349.2
   0.00157534    2.2723e+10       1.57605       57808.1
   0.00164384   2.46897e+10        1.5889       61242.8
   0.00171233     2.675e+10       1.60037       64644.5
   0.00178082   2.89038e+10       1.61061       68005.4
   0.00184932   3.11511e+10       1.61976       71318.4
   0.00191781   3.34914e+10       1.62793       74577.3
    0.0019863   3.59241e+10       1.63525       77776.2
   0.00205479   3.84485e+10       1.64179       80910.2
   0.00212329   4.10635e+10       1.64766       83974.9
   0.00219178   4.37679e+10       1.65292       86966.5
   0.00226027   4.65603e+10       1.65764       89881.8
   0.00232877   4.94392e+10        1.6619         92718
   0.00239726   5.24027e+10       1.66573       95472.9
   0.00246575   5.54488e+10       1.66919       98144.8
   0.00253425   5.85756e+10       1.67232        100732
   0.00260274   6.17807e+10       1.67516        103235
   0.00267123   6.50618e+10       1.67776        105651
   0.00273973   6.84163e+10       1.68013        107982
   0.00280822   7.18415e+10       1.68232        110226
   0.00287671   7.53348e+10       1.68435        112384
   0.00294521   7.88931e+10       1.68623        114458
    0.0030137   8.25137e+10       1.68801        116446
   0.00308219   8.61934e+10        1.6897        118352
   0.00315068   8.99292e+10       1.69132        120174
   0.00321918   9.37178e+10        1.6929        121916
   0.00328767   9.75561e+10       1.69446        123578
   0.00335616   1.01441e+11       1.69602        125162
   0.00342466   1.05368e+11       1.69761        126670
   0.00349315   1.09336e+11       1.69926        128103
   0.00356164    1.1334e+11       1.70099        129463
   0.00363014   1.17377e+11       1.70285        130753
   0.00369863   1.21443e+11       1.70486        131974
   0.00376712   1.25536e+11       1.70707        133128
   0.00383562   1.29652e+11       1.70953        134217
   0.00390411   1.33788e+11        1.7123        135244
    0.0039726    1.3794e+11       1.71543        136210
    0.0040411   1.42106e+11       1.71902        137119
   0.00410959   1.46281e+11       1.72313        137972
   0.00417808   1.50464e+11       1.72789        138771
   0.00424658    1.5465e+11        1.7334        139518
   0.00431507   1.58837e+11        1.7398        140217
   0.00438356   1.63148e+11       1.74726        140868
   0.00445205   1.67453e+11       1.75597        141475
   0.00452055   1.71748e+11       1.76614        142039
   0.00458904   1.76028e+11       1.77806        142563
   0.00465753    1.8029e+11       1.79204        143048
   0.00472603    1.8453e+11       1.80846        143498
   0.00479452   1.88747e+11       1.82782        143912
   0.00486301   1.92937e+11       1.85077        144295
   0.00493151   1.97098e+11       1.87818        144647
        0.005   2.01227e+11       1.91137        144970
   0.00506849   2.05322e+11       1.95237        145267
   0.00513699    2.0938e+11       2.00457        145539
   0.00520548   2.13401e+11       2.07378        145787
   0.00527397   2.17381e+11       2.17021        146014
   0.00534247    2.2132e+11       2.31203        146220
   0.00541096   2.25215e+11       2.53145        146408
   0.00547945   2.29065e+11       2.88534        146578
   0.00554795   2.32869e+11       3.47308        146732
   0.00561644   2.36625e+11       4.46621        146872
   0.00568493   2.40332e+11       6.15687        146998
   0.00575342    2.4399e+11       9.03577        147111
   0.00582192   2.47597e+11       13.9155        147213
   0.00589041   2.51153e+11       22.1231        147304
    0.0059589   2.54656e+11       35.7954        147386
    0.0060274   2.58107e+11       58.3275        147460
   0.00609589   2.61504e+11       95.0423        147525
   0.00616438   2.64848e+11       154.179        147584
   0.00623288   2.68138e+11       248.331        147636
   0.00630137   2.71373e+11       396.519        147682
   0.00636986   2.74554e+11       627.131        147723
   0.00643836   2.77681e+11       982.054        147759
   0.00650685   2.80753e+11       1522.42        147791
   0.00657534    2.8377e+11        2336.5        147819
   0.00664384   2.86733e+11       3550.41        147844
   0.00671233   2.89642e+11       5342.55        147866
   0.00678082   2.92496e+11       7962.83        147885
   0.00684932   2.95297e+11         11758        147902
   0.00691781   2.98044e+11       17204.6        147916
    0.0069863   3.00739e+11       24952.2        147929
   0.00705479   3.03381e+11       35877.9        147940
   0.00712329    3.0597e+11       51156.2        147950
   0.00719178   3.08508e+11       72347.2        147959
   0.00726027   3.10995e+11        101506        147966
   0.00732877   3.13431e+11        141321        147972
   0.00739726   3.15817e+11        195277        147978
   0.00746575   3.18154e+11        267863        147983
   0.00753425   3.20442e+11        364819        147987
   0.00760274   3.22682e+11        493431        147991
   0.00767123   3.24875e+11        662885        147994
   0.00773973   3.27021e+11        884684        147996
   0.00780822   3.29121e+11   1.17314e+06        147999
   0.00787671   3.31176e+11   1.54595e+06        148001
   0.00794521   3.33186e+11   2.02485e+06        148002
    0.0080137   3.35153e+11   2.63637e+06        148004
   0.00808219   3.37076e+11   3.41274e+06        148005
   0.00815068   3.38957e+11   4.39283e+06        148006
   0.00821918   3.40797e+11   5.62328e+06        148007
   0.00828767   3.42942e+11   7.15975e+06        148008
   0.00835616   3.45029e+11   9.06826e+06        148009
   0.00842466   3.47057e+11   1.14268e+07        148009
   0.00849315   3.49026e+11   1.43268e+07        148010
   0.00856164   3.50937e+11   1.78753e+07        148010
   0.00863014    3.5279e+11   2.21965e+07        148011
   0.00869863   3.54585e+11    2.7434e+07        148011
   0.00876712   3.56323e+11   3.37534e+07        148011
   0.00883562   3.58004e+11   4.13441e+07        148011
   0.00890411   3.59628e+11   5.04222e+07        148012
    0.0089726   3.61197e+11   6.12329e+07        148012
    0.0090411   3.62712e+11   7.40532e+07        148012
   0.00910959   3.64172e+11    8.9195e+07        148012
   0.00917808    3.6558e+11   1.07007e+08        148012
   0.00924658   3.66936e+11    1.2788e+08        148012
   0.00931507   3.68241e+11   1.52244e+08        148012
   0.00938356   3.69496e+11    1.8058e+08        148012
   0.00945205   3.70703e+11   2.13414e+08        148013
   0.00952055   3.71862e+11   2.51324e+08        148013
   0.00958904   3.72975e+11   2.94942e+08        148013
   0.00965753   3.74043e+11   3.44957e+08        148013
   0.00972603   3.75067e+11   4.02114e+08        148013
   0.00979452   3.76049e+11   4.67221e+08        148013
   0.00986301    3.7699e+11   5.41144e+08        148013
   0.00993151   3.77892e+11   6.24815e+08        148013
         0.01   3.78754e+11   7.19228e+08        148013
    0.0100685    3.7958e+11   8.25443e+08        148013
     0.010137   3.80371e+11   9.44582e+08        148013
    0.0102055   3.81127e+11   1.07783e+09        148013
     0.010274    3.8185e+11   1.22645e+09        148013
    0.0103425   3.82542e+11   1.39174e+09        148013
     0.010411   3.83203e+11   1.57508e+09        148013
    0.0104795   3.83835e+11   1.77791e+09        148013
    0.0105479    3.8444e+11   2.00171e+09        148013
    0.0106164   3.85019e+11   2.24802e+09        148013
    0.0106849   3.85573e+11   2.51843e+09        148013
    0.0107534   3.86102e+11   2.81458e+09        148013
    0.0108219    3.8661e+11   3.13814e+09        148013
    0.0108904   3.87096e+11   3.49083e+09        148013
    0.0109589   3.87562e+11   3.87438e+09        148013
    0.0110274   3.88008e+11   4.29056e+09        148013
    0.0110959   3.88437e+11   4.74115e+09        148013
    0.0111644   3.88849e+11   5.22796e+09        148013
    0.0112329   3.89246e+11   5.75278e+09        148013
    0.0113014   3.89627e+11   6.31741e+09        148013
    0.0113699   3.89995e+11   6.92364e+09        148013
    0.0114384    3.9035e+11   7.57326e+09        148013
    0.0115068   3.90693e+11   8.26802e+09        148013
    0.0115753   3.91025e+11   9.00964e+09        148013
    0.0116438   3.91347e+11   9.79981e+09        148013
    0.0117123    3.9166e+11   1.06402e+10        148013
    0.0117808   3.91963e+11   1.15323e+10        148013
    0.0118493   3.92259e+11   1.24778e+10        148014
    0.0119178   3.92548e+11   1.34781e+10        148014
    0.0119863    3.9283e+11   1.45346e+10        148015
    0.0120548   3.93107e+11   1.56486e+10        148016
    0.0121233   3.93378e+11   1.68214e+10        148017
    0.0121918   3.93644e+11   1.80542e+10        148019
    0.0122603   3.93906e+11   1.93479e+10        148022
    0.0123288   3.94164e+11   2.07037e+10        148026
    0.0123973   3.94419e+11   2.21222e+10        148032
    0.0124658   3.94671e+11   2.36044e+10        148041
    0.0125342    3.9492e+11   2.51509e+10        148055
    0.0126027   3.95167e+11   2.67622e+10        148073
    0.0126712   3.95413e+11   2.84387e+10        148100
    0.0127397   3.95657e+11   3.01808e+10        148139
    0.0128082   3.95899e+11   3.19887e+10        148193
    0.0128767   3.96141e+11   3.38625e+10        148269
    0.0129452   3.96382e+11   3.58022e+10        148375
    0.0130137   3.96622e+11   3.78076e+10        148523
    0.0130822   3.96862e+11   3.98784e+10        148726
    0.0131507   3.97101e+11   4.20143e+10        149006
    0.0132192    3.9734e+11   4.42149e+10        149389
    0.0132877    3.9758e+11   4.64794e+10        149910
    0.0133562   3.97819e+11   4.88072e+10        150614
    0.0134247   3.98058e+11   5.11976e+10        151563
    0.0134932   3.98298e+11   5.36495e+10        152835
    0.0135616   3.98537e+11   5.61619e+10        154531
    0.0136301   3.98777e+11   5.87338e+10        156783
    0.0136986   3.99017e+11   6.13638e+10        159758
    0.0137671   3.99257e+11   6.40508e+10        163670
    0.0138356   3.99498e+11   6.67933e+10        168793
    0.0139041   3.99738e+11   6.95898e+10        175471
    0.0139726   3.99979e+11   7.24388e+10        184139
    0.0140411   4.00219e+11   7.53385e+10        195340
    0.0141096    4.0046e+11   7.82875e+10        209754
    0.0141781     4.007e+11   8.12837e+10        228226
    0.0142466    4.0094e+11   8.43255e+10        251802
    0.0143151    4.0118e+11   8.74108e+10        281770
    0.0143836    4.0142e+11   9.05379e+10        319712
    0.0144521   4.01659e+11   9.37046e+10        367564
    0.0145205   4.01897e+11   9.69089e+10        427680
     0.014589   4.02135e+11   1.00149e+11        502917
    0.0146575   4.02372e+11   1.03422e+11        596727
     0.014726   4.02608e+11   1.06727e+11        713265
    0.0147945   4.02843e+11    1.1006e+11        857512
     0.014863   4.03077e+11   1.13421e+11   1.03542e+06
    0.0149315   4.03309e+11   1.16806e+11   1.25407e+06
        0.015   4.03541e+11   1.20214e+11   1.52186e+06
    0.0150685    4.0377e+11   1.23642e+11   1.84872e+06
     0.015137   4.03998e+11   1.27088e+11   2.24633e+06
    0.0152055   4.04225e+11   1.30549e+11   2.72839e+06
     0.015274   4.04449e+11   1.34025e+11   3.31094e+06
    0.0153425   4.04672e+11   1.37511e+11   4.01265e+06
     0.015411   4.04892e+11   1.41007e+11   4.85522e+06
    0.0154795   4.05111e+11    1.4451e+11   5.86373e+06
    0.0155479   4.05327e+11   1.48018e+11   7.06716e+06
    0.0156164    4.0554e+11   1.51528e+11    8.4988e+06
    0.0156849   4.05752e+11   1.55039e+11   1.01968e+07
    0.0157534    4.0596e+11   1.58548e+11   1.22048e+07
    0.0158219   4.06166e+11   1.62054e+11   1.45724e+07
    0.0158904    4.0637e+11   1.65554e+11   1.73561e+07
    0.0159589    4.0657e+11   1.69046e+11   2.06196e+07
    0.0160274   4.06768e+11   1.72529e+11   2.44349e+07
    0.0160959   4.06962e+11   1.76001e+11   2.88831e+07
    0.0161644   4.07154e+11    1.7946e+11   3.40551e+07
    0.0162329   4.07342e+11   1.82904e+11   4.00524e+07
    0.0163014   4.07527e+11   1.86332e+11   4.69885e+07
    0.0163699   4.07709e+11   1.89741e+11   5.49893e+07
    0.0164384   4.07888e+11    1.9313e+11   6.41945e+07
    0.0165068   4.08063e+11   1.96498e+11   7.47587e+07
    0.0165753   4.08235e+11   1.99844e+11   8.68522e+07
    0.0166438   4.08403e+11   2.03165e+11   1.00662e+08
    0.0167123   4.08568e+11   2.06461e+11   1.16394e+08
    0.0167808    4.0873e+11    2.0973e+11   1.34272e+08
    0.0168493   4.08888e+11   2.12971e+11    1.5454e+08
    0.0169178   4.09042e+11   2.16183e+11   1.77466e+08
    0.0169863   4.09193e+11   2.19365e+11   2.03338e+08
    0.0170548    4.0934e+11   2.22516e+11   2.32468e+08
    0.0171233   4.09484e+11   2.25635e+11   2.65193e+08
    0.0171918   4.09624e+11   2.28721e+11   3.01876e+08
    0.0172603   4.09761e+11   2.31774e+11   3.42905e+08
    0.0173288   4.09893e+11   2.34792e+11   3.88697e+08
    0.0173973   4.10023e+11   2.37775e+11   4.39698e+08
    0.0174658   4.10149e+11   2.40722e+11   4.96381e+08
    0.0175342   4.10271e+11   2.43632e+11   5.59249e+08
    0.0176027    4.1039e+11   2.46506e+11   6.28836e+08
    0.0176712   4.10505e+11   2.49343e+11   7.05705e+08
    0.0177397   4.10616e+11   2.52142e+11   7.90452e+08
    0.0178082   4.10725e+11   2.54903e+11   8.83701e+08
    0.0178767   4.10829e+11   2.57626e+11   9.86109e+08
    0.0179452   4.10931e+11    2.6031e+11   1.09836e+09
    0.0180137   4.11029e+11   2.62956e+11   1.22118e+09
    0.0180822   4.11123e+11   2.65562e+11    1.3553e+09
    0.0181507   4.11215e+11   2.68129e+11   1.50151e+09
    0.0182192   4.11303e+11   2.70657e+11    1.6606e+09
    0.0182877   4.11388e+11   2.73146e+11   1.83342e+09
    0.0183562    4.1147e+11   2.75594e+11    2.0208e+09
    0.0184247   4.11548e+11   2.78004e+11   2.22365e+09
    0.0184932   4.11624e+11   2.80374e+11   2.44285e+09
    0.0185616   4.11697e+11   2.82704e+11   2.67933e+09
    0.0186301   4.11766e+11   2.84995e+11   2.93404e+09
    0.0186986   4.11833e+11   2.87246e+11   3.20794e+09
    0.0187671   4.11897e+11   2.89458e+11   3.50199e+09
    0.0188356   4.11958e+11    2.9163e+11    3.8172e+09
    0.0189041   4.12017e+11   2.93763e+11   4.15455e+09
    0.0189726   4.12073e+11   2.95857e+11   4.51505e+09
    0.0190411   4.12126e+11   2.97911e+11    4.8997e+09
    0.0191096   4.12177e+11   2.99927e+11   5.30952e+09
    0.0191781   4.12225e+11   3.01903e+11   5.74551e+09
    0.0192466   4.12271e+11   3.03841e+11   6.20868e+09
    0.0193151   4.12314e+11    3.0574e+11   6.70001e+09
    0.0193836   4.12356e+11   3.07601e+11   7.22049e+09
    0.0194521   4.12395e+11   3.09423e+11    7.7711e+09
    0.0195205   4.12432e+11   3.11207e+11   8.35276e+09
     0.019589   4.12466e+11   3.12953e+11   8.96643e+09
    0.0196575   4.12499e+11   3.14662e+11     9.613e+09
     0.019726    4.1253e+11   3.16332e+11   1.02933e+10
    0.0197945   4.12559e+11   3.17966e+11   1.10083e+10
     0.019863   4.12586e+11   3.19562e+11   1.17587e+10
    0.0199315   4.12611e+11   3.21121e+11   1.25454e+10
         0.02   4.12635e+11   3.22644e+11   1.33689e+10
    0.0200685   4.12657e+11    3.2413e+11   1.42302e+10
     0.020137   4.12677e+11    3.2558e+11   1.51297e+10
    0.0202055   4.12696e+11   3.26995e+11   1.60681e+10
     0.020274   4.12714e+11   3.28374e+11    1.7046e+10
    0.0203425    4.1273e+11   3.29718e+11   1.80638e+10
     0.020411   4.12744e+11   3.31027e+11    1.9122e+10
    0.0204795   4.12758e+11   3.32302e+11    2.0221e+10
    0.0205479    4.1277e+11   3.33544e+11   2.13612e+10
    0.0206164    4.1278e+11   3.34751e+11   2.25427e+10
    0.0206849    4.1279e+11   3.35926e+11   2.37658e+10
    0.0207534   4.12799e+11   3.37068e+11   2.50307e+10
    0.0208219   4.12807e+11   3.38179e+11   2.63374e+10
    0.0208904   4.12813e+11   3.39257e+11    2.7686e+10
    0.0209589   4.12819e+11   3.40305e+11   2.90764e+10
    0.0210274   4.12824e+11   3.41322e+11   3.05085e+10
    0.0210959   4.12828e+11   3.42309e+11   3.19822e+10
    0.0211644   4.12831e+11   3.43267e+11   3.34972e+10
    0.0212329   4.12833e+11   3.44196e+11   3.50533e+10
    0.0213014   4.12835e+11   3.45097e+11   3.66501e+10
    0.0213699   4.12836e+11   3.45971e+11   3.82871e+10
    0.0214384   4.12836e+11   3.46817e+11   3.99639e+10
    0.0215068   4.12836e+11   3.47637e+11     4.168e+10
    0.0215753   4.12836e+11   3.48431e+11   4.34346e+10
    0.0216438   4.12834e+11   3.49201e+11   4.52273e+10
    0.0217123   4.12833e+11   3.49946e+11   4.70573e+10
    0.0217808    4.1283e+11   3.50667e+11   4.89237e+10
    0.0218493   4.12828e+11   3.51366e+11   5.08258e+10
    0.0219178   4.12825e+11   3.52042e+11   5.27628e+10
    0.0219863   4.12822e+11   3.52696e+11   5.47336e+10
    0.0220548   4.12818e+11    3.5333e+11   5.67373e+10
    0.0221233   4.12814e+11   3.53943e+11   5.87729e+10
    0.0221918    4.1281e+11   3.54536e+11   6.08394e+10
    0.0222603   4.12805e+11   3.55111e+11   6.29356e+10
    0.0223288   4.12801e+11   3.55667e+11   6.50604e+10
    0.0223973   4.12796e+11   3.56206e+11   6.72127e+10
    0.0224658   4.12791e+11   3.56728e+11   6.93912e+10
    0.0225342   4.12786e+11   3.57233e+11   7.15947e+10
    0.0226027    4.1278e+11   3.57723e+11   7.38219e+10
    0.0226712   4.12775e+11   3.58197e+11   7.60717e+10
    0.0227397   4.12769e+11   3.58657e+11   7.83425e+10
    0.0228082   4.12763e+11   3.59104e+11   8.06333e+10
    0.0228767   4.12758e+11   3.59537e+11   8.29425e+10
    0.0229452   4.12752e+11   3.59958e+11   8.52689e+10
    0.0230137   4.12746e+11   3.60366e+11    8.7611e+10
    0.0230822    4.1274e+11   3.60763e+11   8.99675e+10
    0.0231507   4.12734e+11   3.61149e+11   9.23371e+10
    0.0232192   4.12729e+11   3.61524e+11   9.47183e+10
    0.0232877   4.12723e+11    3.6189e+11   9.71098e+10
    0.0233562   4.12717e+11   3.62246e+11   9.95102e+10
    0.0234247   4.12711e+11   3.62593e+11   1.01918e+11
    0.0234932   4.12705e+11   3.62932e+11   1.04332e+11
    0.0235616     4.127e+11   3.63262e+11   1.06751e+11
    0.0236301   4.12694e+11   3.63585e+11   1.09173e+11
    0.0236986   4.12688e+11   3.63901e+11   1.11598e+11
    0.0237671   4.12683e+11   3.64209e+11   1.14023e+11
    0.0238356   4.12677e+11   3.64511e+11   1.16447e+11
    0.0239041   4.12672e+11   3.64808e+11    1.1887e+11
    0.0239726   4.12666e+11   3.65098e+11    1.2129e+11
    0.0240411   4.12661e+11   3.65383e+11   1.23706e+11
    0.0241096   4.12656e+11   3.65662e+11   1.26116e+11
    0.0241781   4.12651e+11   3.65937e+11   1.28519e+11
    0.0242466   4.12645e+11   3.66207e+11   1.30915e+11
    0.0243151    4.1264e+11   3.66473e+11   1.33302e+11
    0.0243836   4.12635e+11   3.66735e+11   1.35679e+11
    0.0244521   4.12631e+11   3.66993e+11   1.38044e+11
    0.0245205   4.12626e+11   3.67247e+11   1.40398e+11
     0.024589   4.12621e+11   3.67497e+11   1.42739e+11
    0.0246575   4.12616e+11   3.67745e+11   1.45065e+11
     0.024726   4.12612e+11   3.67989e+11   1.47377e+11
    0.0247945   4.12607e+11    3.6823e+11   1.49673e+11
     0.024863   4.12603e+11   3.68469e+11   1.51952e+11
    0.0249315   4.12599e+11   3.68704e+11   1.54214e+11
        0.025   4.12594e+11   3.68937e+11   1.56457e+11
    0.0250685    4.1259e+11   3.69168e+11   1.58681e+11
     0.025137   4.12586e+11   3.69396e+11   1.60886e+11
    0.0252055   4.12582e+11   3.69622e+11    1.6307e+11
     0.025274   4.12578e+11   3.69846e+11   1.65234e+11
    0.0253425   4.12574e+11   3.70068e+11   1.67376e+11
     0.025411    4.1257e+11   3.70287e+11   1.69495e+11
    0.0254795   4.12566e+11   3.70504e+11   1.71592e+11
    0.0255479   4.12562e+11    3.7072e+11   1.73666e+11
    0.0256164   4.12558e+11   3.70933e+11   1.75716e+11
    0.0256849   4.12554e+11   3.71145e+11   1.77742e+11
    0.0257534   4.12551e+11   3.71354e+11   1.79744e+11
    0.0258219   4.12547e+11   3.71562e+11   1.81721e+11
    0.0258904   4.12543e+11   3.71768e+11   1.83672e+11
    0.0259589   4.12539e+11   3.71971e+11   1.85599e+11
    0.0260274   4.12536e+11   3.72173e+11   1.87499e+11
    0.0260959   4.12532e+11   3.72373e+11   1.89373e+11
    0.0261644   4.12528e+11   3.72571e+11   1.91222e+11
    0.0262329   4.12525e+11   3.72767e+11   1.93043e+11
    0.0263014   4.12521e+11   3.72961e+11   1.94838e+11
    0.0263699   4.12517e+11   3.73153e+11   1.96607e+11
    0.0264384   4.12514e+11   3.73343e+11   1.98348e+11
    0.0265068    4.1251e+11   3.73531e+11   2.00062e+11
    0.0265753   4.12506e+11   3.73717e+11    2.0175e+11
    0.0266438   4.12502e+11   3.73901e+11    2.0341e+11
    0.0267123   4.12499e+11   3.74083e+11   2.05042e+11
    0.0267808   4.12495e+11   3.74262e+11   2.06648e+11
    0.0268493   4.12491e+11   3.74439e+11   2.08226e+11
    0.0269178   4.12487e+11   3.74614e+11   2.09776e+11
    0.0269863   4.12483e+11   3.74787e+11     2.113e+11
    0.0270548   4.12479e+11   3.74958e+11   2.12796e+11
    0.0271233   4.12475e+11   3.75126e+11   2.14264e+11
    0.0271918   4.12471e+11   3.75292e+11   2.15706e+11
    0.0272603   4.12467e+11   3.75455e+11    2.1712e+11
    0.0273288   4.12463e+11   3.75616e+11   2.18507e+11
    0.0273973   4.12459e+11   3.75774e+11   2.19867e+11
    0.0274658   4.12455e+11    3.7593e+11   2.21201e+11
    0.0275342   4.12451e+11   3.76084e+11   2.22507e+11
    0.0276027   4.12446e+11   3.76235e+11   2.23787e+11
    0.0276712   4.12442e+11   3.76383e+11    2.2504e+11
    0.0277397   4.12437e+11   3.76529e+11   2.26267e+11
    0.0278082   4.12433e+11   3.76672e+11   2.27468e+11
    0.0278767   4.12428e+11   3.76812e+11   2.28643e+11
    0.0279452   4.12424e+11    3.7695e+11   2.29792e+11
    0.0280137   4.12419e+11   3.77086e+11   2.30915e+11
    0.0280822   4.12414e+11   3.77218e+11   2.32013e+11
    0.0281507   4.12409e+11   3.77348e+11   2.33085e+11
    0.0282192   4.12405e+11   3.77475e+11   2.34133e+11
    0.0282877     4.124e+11   3.77599e+11   2.35156e+11
    0.0283562   4.12395e+11   3.77721e+11   2.36154e+11
    0.0284247    4.1239e+11    3.7784e+11   2.37129e+11
    0.0284932   4.12384e+11   3.77956e+11   2.38079e+11
    0.0285616   4.12379e+11    3.7807e+11   2.39006e+11
    0.0286301   4.12374e+11    3.7818e+11   2.39909e+11
    0.0286986   4.12368e+11   3.78288e+11    2.4079e+11
    0.0287671   4.12363e+11   3.78394e+11   2.41648e+11
    0.0288356   4.12357e+11   3.78496e+11   2.42483e+11
    0.0289041   4.12352e+11   3.78596e+11   2.43296e+11
    0.0289726   4.12346e+11   3.78693e+11   2.44088e+11
    0.0290411   4.12341e+11   3.78788e+11   2.44859e+11
    0.0291096   4.12335e+11    3.7888e+11   2.45608e+11
    0.0291781   4.12329e+11   3.78969e+11   2.46337e+11
    0.0292466   4.12323e+11   3.79056e+11   2.47046e+11
    0.0293151   4.12317e+11    3.7914e+11   2.47735e+11
    0.0293836   4.12311e+11   3.79221e+11   2.48404e+11
    0.0294521   4.12305e+11     3.793e+11   2.49055e+11
    0.0295205   4.12299e+11   3.79377e+11   2.49686e+11
     0.029589   4.12292e+11   3.79451e+11     2.503e+11
    0.0296575   4.12286e+11   3.79522e+11   2.50896e+11
     0.029726    4.1228e+11   3.79591e+11   2.51475e+11
    0.0297945   4.12273e+11   3.79658e+11   2.52036e+11
     0.029863   4.12267e+11   3.79722e+11   2.52582e+11
    0.0299315   4.12261e+11   3.79784e+11   2.53111e+11
         0.03   4.12254e+11   3.79844e+11   2.53624e+11
    0.0300685   4.12247e+11   3.79901e+11   2.54122e+11
     0.030137   4.12241e+11   3.79956e+11   2.54606e+11
    0.0302055   4.12234e+11   3.80009e+11   2.55075e+11
     0.030274   4.12227e+11    3.8006e+11    2.5553e+11
    0.0303425   4.12221e+11   3.80109e+11   2.55972e+11
     0.030411   4.12214e+11   3.80156e+11     2.564e+11
    0.0304795   4.12207e+11   3.80201e+11   2.56816e+11
    0.0305479     4.122e+11   3.80243e+11    2.5722e+11
    0.0306164   4.12193e+11   3.80284e+11   2.57611e+11
    0.0306849   4.12186e+11   3.80323e+11   2.57992e+11
    0.0307534   4.12179e+11    3.8036e+11   2.58361e+11
    0.0308219   4.12172e+11   3.80396e+11    2.5872e+11
    0.0308904   4.12165e+11   3.80429e+11   2.59068e+11
    0.0309589   4.12158e+11   3.80461e+11   2.59407e+11
    0.0310274   4.12151e+11   3.80491e+11   2.59736e+11
    0.0310959   4.12144e+11    3.8052e+11   2.60056e+11
    0.0311644   4.12137e+11   3.80547e+11   2.60367e+11
    0.0312329    4.1213e+11   3.80572e+11    2.6067e+11
    0.0313014   4.12123e+11   3.80596e+11   2.60964e+11
    0.0313699   4.12116e+11   3.80619e+11   2.61251e+11
    0.0314384   4.12109e+11    3.8064e+11   2.61531e+11
    0.0315068   4.12101e+11   3.80659e+11   2.61804e+11
    0.0315753   4.12094e+11   3.80678e+11   2.62069e+11
    0.0316438   4.12087e+11   3.80695e+11   2.62329e+11
    0.0317123    4.1208e+11   3.80711e+11   2.62582e+11
    0.0317808   4.12073e+11   3.80725e+11   2.62829e+11
    0.0318493   4.12066e+11   3.80739e+11    2.6307e+11
    0.0319178   4.12059e+11   3.80751e+11   2.63307e+11
    0.0319863   4.12052e+11   3.80763e+11   2.63538e+11
    0.0320548   4.12045e+11   3.80773e+11   2.63764e+11
    0.0321233   4.12037e+11   3.80782e+11   2.63985e+11
    0.0321918    4.1203e+11   3.80791e+11   2.64202e+11
    0.0322603   4.12023e+11   3.80798e+11   2.64415e+11
    0.0323288   4.12016e+11   3.80805e+11   2.64623e+11
    0.0323973   4.12009e+11   3.80811e+11   2.64828e+11
    0.0324658   4.12002e+11   3.80816e+11   2.65029e+11
    0.0325342   4.11995e+11    3.8082e+11   2.65227e+11
    0.0326027   4.11989e+11   3.80823e+11   2.65421e+11
    0.0326712   4.11982e+11   3.80826e+11   2.65613e+11
    0.0327397   4.11975e+11   3.80828e+11   2.65801e+11
    0.0328082   4.11968e+11   3.80829e+11   2.65986e+11
    0.0328767   4.11961e+11    3.8083e+11   2.66168e+11
    0.0329452   4.11954e+11    3.8083e+11   2.66348e+11
    0.0330137   4.11948e+11    3.8083e+11   2.66525e+11
    0.0330822   4.11941e+11   3.80829e+11     2.667e+11
    0.0331507   4.11934e+11   3.80828e+11   2.66872e+11
    0.0332192   4.11928e+11   3.80826e+11   2.67042e+11
    0.0332877   4.11921e+11   3.80824e+11    2.6721e+11
    0.0333562   4.11915e+11   3.80821e+11   2.67375e+11
    0.0334247   4.11908e+11   3.80818e+11   2.67539e+11
    0.0334932   4.11902e+11   3.80815e+11   2.67701e+11
    0.0335616   4.11895e+11   3.80811e+11    2.6786e+11
    0.0336301   4.11889e+11   3.80807e+11   2.68018e+11
    0.0336986   4.11883e+11   3.80803e+11   2.68174e+11
    0.0337671   4.11877e+11   3.80798e+11   2.68328e+11
    0.0338356    4.1187e+11   3.80793e+11   2.68481e+11
    0.0339041   4.11864e+11   3.80788e+11   2.68631e+11
    0.0339726   4.11858e+11   3.80783e+11    2.6878e+11
    0.0340411   4.11852e+11   3.80777e+11   2.68927e+11
    0.0341096   4.11846e+11   3.80771e+11   2.69073e+11
    0.0341781    4.1184e+11   3.80765e+11   2.69217e+11
    0.0342466   4.11834e+11   3.80759e+11   2.69359e+11
    0.0343151   4.11829e+11   3.80753e+11   2.69499e+11
    0.0343836   4.11823e+11   3.80747e+11   2.69638e+11
    0.0344521   4.11817e+11    3.8074e+11   2.69776e+11
    0.0345205   4.11811e+11   3.80734e+11   2.69911e+11
     0.034589   4.11806e+11   3.80727e+11   2.70045e+11
    0.0346575     4.118e+11    3.8072e+11   2.70178e+11
     0.034726   4.11795e+11   3.80713e+11   2.70308e+11
    0.0347945   4.11789e+11   3.80706e+11   2.70437e+11
     0.034863   4.11784e+11   3.80699e+11   2.70565e+11
    0.0349315   4.11779e+11   3.80692e+11    2.7069e+11
        0.035   4.11774e+11   3.80685e+11   2.70814e+11
    0.0350685   4.11768e+11   3.80678e+11   2.70937e+11
     0.035137   4.11763e+11   3.80671e+11   2.71057e+11
    0.0352055   4.11758e+11   3.80664e+11   2.71176e+11
     0.035274   4.11753e+11   3.80657e+11   2.71293e+11
    0.0353425   4.11748e+11    3.8065e+11   2.71409e+11
     0.035411   4.11744e+11   3.80643e+11   2.71523e+11
    0.0354795   4.11739e+11   3.80636e+11   2.71634e+11
    0.0355479   4.11734e+11   3.80629e+11   2.71745e+11
    0.0356164   4.11729e+11   3.80622e+11   2.71853e+11
    0.0356849   4.11725e+11   3.80615e+11   2.71959e+11
    0.0357534    4.1172e+11   3.80608e+11   2.72064e+11
    0.0358219   4.11716e+11   3.80601e+11   2.72167e+11
    0.0358904   4.11711e+11   3.80594e+11   2.72268e+11
    0.0359589   4.11707e+11   3.80587e+11   2.72367e+11
    0.0360274   4.11702e+11    3.8058e+11   2.72465e+11
    0.0360959   4.11698e+11   3.80573e+11    2.7256e+11
    0.0361644   4.11694e+11   3.80566e+11   2.72654e+11
    0.0362329    4.1169e+11   3.80559e+11   2.72746e+11
    0.0363014   4.11686e+11   3.80553e+11   2.72836e+11
    0.0363699   4.11682e+11   3.80546e+11   2.72924e+11
    0.0364384   4.11678e+11   3.80539e+11    2.7301e+11
    0.0365068   4.11674e+11   3.80532e+11   2.73095e+11