# Probe 0 (0 0 0.0079)
#       Probe             0
#        Time
  0.000116279   8.52388e-25
  0.000251938   2.10847e-24
  0.000410207   3.95354e-24
  0.000593798   6.64039e-24
  0.000803618     1.048e-23
   0.00103675   1.57794e-23
   0.00128445   2.26959e-23
   0.00154985   3.16415e-23
   0.00183736   4.31887e-23
   0.00212487   5.68193e-23
   0.00241239   7.25988e-23
    0.0026999   9.05805e-23
   0.00298741   1.10807e-22
   0.00327492   1.33312e-22
   0.00356244    1.5812e-22
   0.00384995   1.85246e-22
   0.00413746   2.14697e-22
   0.00442497   2.46474e-22
   0.00471249   2.80568e-22
        0.005   3.16965e-22
   0.00529412   3.56532e-22
   0.00558824   3.98457e-22
