# Probe 0 (0 0 0)
# Probe 1 (0 0 0.004)
# Probe 2 (0 0 0.008)
#       Probe             0             1             2
#        Time
  6.84932e-05   3.98523e+07     0.0556252       27.2644
  0.000136986   9.98321e+07      0.105446       81.0629
  0.000205479   1.88858e+08      0.150079       161.697
  0.000273973   3.19269e+08      0.190073       268.669
  0.000342466   5.07944e+08      0.225911       400.951
  0.000410959   7.77712e+08      0.258023       557.168
  0.000479452   1.15913e+09      0.286792       735.737
  0.000547945   1.69272e+09      0.312558       934.947
  0.000616438   2.43167e+09      0.335629       1153.02
  0.000684932    3.4452e+09      0.356281       1388.16
  0.000753425   4.82265e+09      0.374764       1638.58
  0.000821918   6.67836e+09      0.391303        1902.5
  0.000890411   9.15756e+09      0.406099        2178.2
  0.000958904   1.24433e+10      0.419334       2464.03
    0.0010274   1.67649e+10      0.431172       2758.39
   0.00109589   2.24072e+10      0.441759       3059.75
   0.00116438   2.97223e+10      0.451227       3366.69
   0.00123288   3.91425e+10      0.459694       3677.84
   0.00130137   5.11953e+10      0.467265       3991.94
   0.00136986   6.65205e+10      0.474035       4307.79
   0.00143836   8.58907e+10      0.480089       4624.31
   0.00150685   1.10233e+11      0.485502       4940.47
   0.00157534   1.40654e+11      0.490343       5255.34
   0.00164384    1.7847e+11      0.494672       5568.05
   0.00171233   2.25237e+11      0.498545       5877.83
   0.00178082   2.82786e+11       0.50201       6183.96
   0.00184932   3.53265e+11      0.505111        6485.8
   0.00191781   4.39181e+11      0.507888       6782.76
    0.0019863   5.43445e+11      0.510376       7074.33
   0.00205479   6.69429e+11      0.512606       7360.05
   0.00212329   8.21023e+11      0.514607       7639.51
   0.00219178   1.00269e+12      0.516404       7912.38
   0.00226027   1.21955e+12       0.51802       8178.36
   0.00232877   1.47744e+12      0.519475       8437.19
   0.00239726   1.78298e+12      0.520787       8688.68
   0.00246575   2.14368e+12      0.521973       8932.65
   0.00253425   2.56804e+12      0.523048          9169
   0.00260274    3.0656e+12      0.524024       9397.63
   0.00267123   3.64709e+12      0.524915       9618.48
   0.00273973    4.3245e+12      0.525731       9831.54
   0.00280822   5.11123e+12      0.526481       10036.8
   0.00287671   6.02217e+12      0.527177       10234.3
   0.00294521   7.07386e+12      0.527825         10424
    0.0030137   8.28458e+12      0.528435       10606.1
   0.00308219   9.67455e+12      0.529015       10780.6
   0.00315068    1.1266e+13      0.529572       10947.7
   0.00321918   1.30833e+13      0.530113       11107.4
   0.00328767   1.51534e+13      0.530648       11259.8
   0.00335616   1.75053e+13      0.531184       11405.2
   0.00342466   2.01711e+13       0.53173       11543.6
   0.00349315   2.31854e+13      0.532295       11675.2
   0.00356164    2.6586e+13      0.532891       11800.2
   0.00363014   3.04137e+13      0.533528       11918.8
   0.00369863   3.47127e+13      0.534219       12031.2
   0.00376712   3.95305e+13      0.534981       12137.4
   0.00383562   4.49185e+13      0.535829       12237.8
   0.00390411   5.09318e+13      0.536783       12332.5
    0.0039726   5.76296e+13      0.537867       12421.7
    0.0040411    6.5075e+13      0.539106       12505.6
   0.00410959   7.33358e+13      0.540532       12584.4
   0.00417808    8.2484e+13       0.54218       12658.3
   0.00424658   9.25964e+13      0.544092       12727.5
   0.00431507   5.32925e+14      0.546317       12792.3
   0.00438356    5.5827e+14      0.548912       12852.8
   0.00445205   5.84832e+14      0.551944       12909.1
   0.00452055   6.12693e+14      0.555492       12961.6
   0.00458904   6.41938e+14      0.559649       13010.4
   0.00465753   6.72651e+14      0.564528       13055.7
   0.00472603   7.04924e+14      0.570265       13097.6
   0.00479452   7.38854e+14      0.577029       13136.4
   0.00486301   7.74542e+14       0.58504       13172.2
   0.00493151   8.12095e+14      0.594598       13205.3
        0.005   8.51627e+14      0.606141       13235.7
   0.00506849   8.93258e+14      0.620364       13263.6
   0.00513699   9.37111e+14      0.638434       13289.3
   0.00520548   9.83319e+14      0.662425       13312.8
   0.00527397   1.03202e+15      0.696137       13334.3
   0.00534247   1.08336e+15      0.746641       13353.9
   0.00541096   1.13748e+15      0.827144       13371.8
   0.00547945   1.19455e+15      0.962209       13388.1
   0.00554795   1.25472e+15       1.19713       13402.8
   0.00561644   1.31817e+15       1.61449       13416.3
   0.00568493   1.38508e+15       2.36291       13428.4
   0.00575342   1.45562e+15       3.70639       13439.4
   0.00582192   1.52999e+15       6.10743       13449.3
   0.00589041   1.60838e+15       10.3655       13458.2
    0.0059589     1.691e+15       17.8443       13466.3
    0.0060274   1.77805e+15       30.8395       13473.5
   0.00609589   1.86975e+15       53.1679         13480
   0.00616438   1.96631e+15       91.0974       13485.8
   0.00623288   2.06797e+15       154.799         13491
   0.00630137   2.17496e+15       260.592       13495.6
   0.00636986   2.28751e+15       434.362       13499.7
   0.00643836   2.40587e+15       716.742       13503.4
   0.00650685   2.53027e+15       1170.85       13506.7
   0.00657534   2.66099e+15       1893.72       13509.6
   0.00664384   2.79826e+15       3033.17       13512.2
   0.00671233   2.94235e+15       4812.15       13514.5
   0.00678082   3.09353e+15       7563.97       13516.5
   0.00684932   3.25205e+15       11782.5       13518.3
   0.00691781    3.4182e+15       18193.3       13519.9
    0.0069863   3.59225e+15       27853.5       13521.3
   0.00705479   3.77446e+15       42291.1       13522.5
   0.00712329   3.96511e+15       63697.6       13523.6
   0.00719178   4.16449e+15       95192.1       13524.6
   0.00726027   4.37287e+15        141182       13525.4
   0.00732877   4.59053e+15        207851       13526.1
   0.00739726   4.81775e+15        303814       13526.8
   0.00746575    5.0548e+15        440997       13527.4
   0.00753425   5.30198e+15        635794       13527.9
   0.00760274   5.55955e+15        910610       13528.3
   0.00767123   5.82779e+15   1.29587e+06       13528.7
   0.00773973   6.10697e+15   1.83264e+06         13529
   0.00780822   6.39736e+15   2.57603e+06       13529.3
   0.00787671   6.69923e+15    3.5996e+06       13529.6
   0.00794521   7.01284e+15   5.00094e+06       13529.8
    0.0080137   7.33845e+15   6.90892e+06         13530
   0.00808219   7.67632e+15   9.49273e+06       13530.2
   0.00815068   8.02668e+15   1.29734e+07       13530.4
   0.00821918    1.0155e+16   1.76383e+07       13530.5
   0.00828767   1.06039e+16   2.38593e+07       13530.6
   0.00835616   1.10658e+16   3.21151e+07       13530.8
   0.00842466   1.15409e+16   4.30192e+07       13530.8
   0.00849315   1.20291e+16   5.73547e+07       13530.9
   0.00856164   1.25306e+16   7.61164e+07         13531
   0.00863014   1.30454e+16   1.00563e+08       13531.1
   0.00869863   1.35737e+16   1.32279e+08       13531.1
   0.00876712   1.41154e+16   1.73255e+08       13531.2
   0.00883562   1.46706e+16   2.25975e+08       13531.2
   0.00890411   1.52394e+16   2.93535e+08       13531.3
    0.0089726   1.58218e+16   3.79772e+08       13531.3
    0.0090411   1.64179e+16   4.89427e+08       13531.3
   0.00910959   1.70276e+16   6.28339e+08       13531.3
   0.00917808   1.76509e+16   8.03666e+08       13531.4
   0.00924658   1.82879e+16   1.02416e+09       13531.4
   0.00931507   1.89385e+16   1.30049e+09       13531.4
   0.00938356   1.96028e+16    1.6456e+09       13531.4
   0.00945205   2.02807e+16   2.07516e+09       13531.4
   0.00952055   2.09722e+16   2.60806e+09       13531.5
   0.00958904   2.16772e+16   3.26706e+09       13531.5
   0.00965753   2.23958e+16    4.0794e+09       13531.5
   0.00972603   2.31278e+16   5.07772e+09       13531.5
   0.00979452   2.38733e+16   6.30092e+09       13531.5
   0.00986301   2.46321e+16   7.79539e+09       13531.5
   0.00993151   2.54041e+16   9.61628e+09       13531.5
         0.01   2.61894e+16   1.18291e+10       13531.5
    0.0100685   2.69878e+16   1.45118e+10       13531.5
     0.010137   2.77993e+16   1.77568e+10       13531.5
    0.0102055   2.86237e+16   2.16742e+10       13531.5
     0.010274   2.94609e+16   2.63952e+10       13531.5
    0.0103425   3.03108e+16   3.20762e+10       13531.5
     0.010411   3.11733e+16   3.89043e+10       13531.5
    0.0104795   3.20484e+16   4.71037e+10       13531.5
    0.0105479   3.29357e+16   5.69438e+10       13531.6
    0.0106164   3.38353e+16   6.87501e+10       13531.6
    0.0106849    3.4747e+16   8.29163e+10       13531.6
    0.0107534   3.56706e+16   9.99206e+10       13531.6
    0.0108219    3.6606e+16   1.20333e+11       13531.6
    0.0108904    3.7553e+16   1.44836e+11       13531.6
    0.0109589   3.85114e+16   1.74256e+11       13531.6
    0.0110274   3.94812e+16     2.096e+11       13531.6
    0.0110959    4.0462e+16   2.52111e+11       13531.6
    0.0111644   4.14538e+16   3.03294e+11       13531.6
    0.0112329   4.24563e+16     3.644e+11       13531.6
    0.0113014   4.34693e+16   4.37778e+11       13531.6
    0.0113699   4.44927e+16   5.26486e+11       13531.6
    0.0114384   4.55262e+16   6.30126e+11       13531.6
    0.0115068   4.65697e+16   3.70704e+19       13531.6
    0.0115753   4.76228e+16   4.22796e+19       13531.6
    0.0116438   4.86855e+16   5.07402e+19       13531.7
    0.0117123   4.97574e+16   6.13366e+19       13531.8
    0.0117808   5.08384e+16   7.35008e+19       13531.9
    0.0118493   5.19282e+16    8.6936e+19       13532.1
    0.0119178   5.30266e+16   1.01468e+20       13532.4
    0.0119863   5.41332e+16   1.16967e+20         13533
    0.0120548    5.5248e+16   1.33311e+20       13533.8
    0.0121233   5.63706e+16   1.50368e+20         13535
    0.0121918   5.75007e+16   1.67992e+20         13537
    0.0122603   5.86382e+16    1.8602e+20         13540
    0.0123288   5.97827e+16   2.04273e+20       13544.6
    0.0123973   6.09339e+16   2.22564e+20       13551.7
    0.0124658   6.20917e+16     2.407e+20       13562.3
    0.0125342   6.32557e+16   2.58482e+20       13578.4
    0.0126027   6.44256e+16   2.75714e+20       13602.4
    0.0126712   6.56012e+16   2.92206e+20       13638.1
    0.0127397   6.67822e+16   3.07775e+20       13690.9
    0.0128082   6.79682e+16   3.22251e+20       13768.6
    0.0128767   6.91591e+16   3.35479e+20       13882.3
    0.0129452   7.03544e+16   3.47322e+20       14047.9
    0.0130137   7.15539e+16   3.57662e+20       14287.8
    0.0130822   7.27574e+16   3.66405e+20       14633.4
    0.0131507   7.39644e+16   3.73479e+20         15129
    0.0132192   7.51748e+16   3.78836e+20       15836.1
    0.0132877   7.63881e+16    3.8245e+20       16840.2
    0.0133562   7.76041e+16   3.84321e+20       18259.3
    0.0134247   7.88225e+16   3.84471e+20       20255.5
    0.0134932    8.0043e+16   3.82941e+20       23050.8
    0.0135616   8.12652e+16   3.79796e+20       26947.4
    0.0136301   8.24889e+16   3.75113e+20       32355.3
    0.0136986   8.37137e+16    3.6899e+20       39828.4
    0.0137671   8.49393e+16   3.61533e+20       50111.1
    0.0138356   8.61655e+16    3.5286e+20       64200.6
    0.0139041   8.73918e+16   3.43099e+20       83426.9
    0.0139726   8.86181e+16    3.3238e+20        109557
    0.0140411   8.98439e+16   3.20838e+20        144927
    0.0141096    9.1069e+16   3.08608e+20        192619
    0.0141781   9.22931e+16   2.95824e+20        256677
    0.0142466   9.35159e+16   2.82615e+20        342393
    0.0143151    9.4737e+16   2.69107e+20        456662
    0.0143836   9.59562e+16   2.55419e+20        608436
    0.0144521   9.71731e+16   2.41663e+20        809302
    0.0145205   9.83876e+16   2.27941e+20   1.07419e+06
     0.014589   9.95991e+16   2.14348e+20    1.4223e+06
    0.0146575   1.00808e+17   2.00968e+20    1.8782e+06
     0.014726   1.02013e+17   1.87876e+20   2.47326e+06
    0.0147945   1.03214e+17   1.75137e+20   3.24736e+06
     0.014863   1.04411e+17   1.62806e+20   4.25109e+06
    0.0149315   1.05605e+17   1.50928e+20   5.54838e+06
        0.015   1.06793e+17   1.39542e+20   7.21977e+06
    0.0150685   1.07977e+17   1.28675e+20   9.36646e+06
     0.015137   1.09156e+17   1.18347e+20   1.21152e+07
    0.0152055   1.10329e+17   1.08572e+20   1.56241e+07
     0.015274   1.11497e+17   9.93565e+19   2.00902e+07
    0.0153425   1.12659e+17   9.07009e+19   2.57582e+07
     0.015411   1.13815e+17   8.26006e+19   3.29309e+07
    0.0154795   1.14965e+17   7.50463e+19   4.19824e+07
    0.0155479   1.16108e+17    6.8025e+19   5.33734e+07
    0.0156164   1.17244e+17   6.15204e+19     6.767e+07
    0.0156849   1.18373e+17   5.55133e+19   8.55663e+07
    0.0157534   1.19495e+17   4.99828e+19   1.07911e+08
    0.0158219    1.2061e+17    4.4906e+19    1.3574e+08
    0.0158904   1.21717e+17   4.02592e+19   1.70316e+08
    0.0159589   1.22816e+17   3.60179e+19   2.13172e+08
    0.0160274   1.23907e+17   3.21573e+19   2.66169e+08
    0.0160959    1.2499e+17   2.86526e+19   3.31562e+08
    0.0161644   1.26065e+17   2.54791e+19    4.1208e+08
    0.0162329    1.2713e+17   2.26129e+19   5.11017e+08
    0.0163014   1.28188e+17   2.00305e+19   6.32349e+08
    0.0163699   1.29236e+17   1.77095e+19   7.80866e+08
    0.0164384   1.30275e+17   1.56283e+19   9.62336e+08
    0.0165068   1.31305e+17   1.37665e+19    1.1837e+09
    0.0165753   1.32326e+17   1.21046e+19   1.45328e+09
    0.0166438   1.33337e+17   1.06245e+19    1.7811e+09
    0.0167123   1.34338e+17    9.3091e+18   2.17917e+09
    0.0167808    1.3533e+17   8.14256e+18   2.66189e+09
    0.0168493   1.36312e+17   7.11018e+18   3.24653e+09
    0.0169178   1.37284e+17   6.19838e+18   3.95373e+09
    0.0169863   1.38246e+17   5.39468e+18   4.80823e+09
    0.0170548   1.39198e+17   4.68764e+18   5.83957e+09
    0.0171233   1.40139e+17   4.06685e+18   7.08301e+09
    0.0171918    1.4107e+17   3.52279e+18   8.58062e+09
    0.0172603   1.41991e+17   3.04687e+18   1.03825e+10
    0.0173288   1.42902e+17   2.63132e+18   1.25481e+10
    0.0173973   1.43801e+17   2.26912e+18   1.51482e+10
    0.0174658   1.44691e+17   1.95398e+18   1.82663e+10
    0.0175342   1.45569e+17   1.68026e+18   2.20013e+10
    0.0176027   1.46437e+17   1.44293e+18   2.64698e+10
    0.0176712   1.47295e+17    1.2375e+18   3.18087e+10
    0.0177397   1.48141e+17   1.05998e+18    3.8179e+10
    0.0178082   1.48977e+17    9.0684e+17   4.57691e+10
    0.0178767   1.49802e+17    7.7495e+17   5.47989e+10
    0.0179452   1.50616e+17   6.61556e+17   6.55253e+10
    0.0180137    1.5142e+17   5.64235e+17   7.82469e+10
    0.0180822   1.52213e+17    4.8086e+17   9.33112e+10
    0.0181507   1.52994e+17   4.09571e+17   1.11122e+11
    0.0182192   1.53766e+17   3.48742e+17   1.32146e+11
    0.0182877   1.54526e+17   2.96957e+17   1.56927e+11
    0.0183562   1.55276e+17   2.52988e+17   1.86092e+11
    0.0184247   1.56015e+17   2.15766e+17   2.20364e+11
    0.0184932   1.56743e+17   1.84365e+17   2.60576e+11
    0.0185616   1.57461e+17   1.57986e+17   3.06438e+11
    0.0186301   1.58168e+17   1.35935e+17   3.62126e+11
    0.0186986   1.58864e+17   1.17612e+17   2.39237e+19
    0.0187671    1.5955e+17   1.02497e+17   2.10528e+19
    0.0188356   1.60225e+17   9.01504e+16   2.11366e+19
    0.0189041   1.60891e+17   8.02083e+16   2.27177e+19
    0.0189726   1.61545e+17   7.23891e+16   2.51801e+19
    0.0190411    1.6219e+17   6.64877e+16   2.82607e+19
    0.0191096   1.62824e+17   6.23534e+16   3.18425e+19
    0.0191781   1.63448e+17   5.98575e+16   3.58678e+19
    0.0192466   1.64062e+17   5.88626e+16   4.03029e+19
    0.0193151   1.64666e+17   5.94234e+16   4.51233e+19
    0.0193836   1.65261e+17   6.53467e+16   5.03072e+19
    0.0194521   1.65845e+17   7.73244e+16   5.58333e+19
    0.0195205   1.66419e+17   1.06285e+17    6.1679e+19
     0.019589   1.66984e+17   1.35275e+17   6.78201e+19
    0.0196575    1.6754e+17   1.57809e+17   7.42303e+19
     0.019726   1.68086e+17   1.72282e+17   8.08809e+19
    0.0197945   1.68622e+17   2.80294e+17   8.77407e+19
     0.019863   1.69149e+17   2.44195e+17    9.4776e+19
    0.0199315   1.69667e+17   2.72021e+17   1.01951e+20
         0.02   1.70176e+17   2.94674e+17   1.09227e+20
    0.0200685   1.70676e+17   3.23242e+17   1.16564e+20
     0.020137   1.71168e+17   2.89397e+17   1.23919e+20
    0.0202055    1.7165e+17   2.57213e+17    1.3125e+20
     0.020274   1.72124e+17   2.28143e+17   1.38512e+20
    0.0203425   1.72589e+17   2.02301e+17   1.45659e+20
     0.020411   1.73045e+17   1.80454e+17   1.52647e+20
    0.0204795   1.73494e+17   1.85949e+17    1.5943e+20
    0.0205479   1.73934e+17   1.77782e+17   1.65964e+20
    0.0206164   1.74365e+17   1.63646e+17   1.72207e+20
    0.0206849   1.74789e+17   1.47706e+17   1.78118e+20
    0.0207534   1.75205e+17   1.32067e+17   1.83659e+20
    0.0208219   1.75613e+17   1.17684e+17   1.88792e+20
    0.0208904   1.76014e+17   1.04905e+17   1.93486e+20
    0.0209589   1.76407e+17   9.38117e+16   1.97711e+20
    0.0210274   1.76792e+17   8.43432e+16   2.01442e+20
    0.0210959    1.7717e+17   7.63594e+16   2.04656e+20
    0.0211644   1.77541e+17   6.96835e+16   2.07337e+20
    0.0212329   1.77905e+17    6.4132e+16    2.0947e+20
    0.0213014   1.78261e+17   5.95332e+16   2.11048e+20
    0.0213699   1.78611e+17   5.57371e+16   2.12066e+20
    0.0214384   1.78954e+17   5.26174e+16   2.12524e+20
    0.0215068    1.7929e+17   5.00711e+16   2.12427e+20
    0.0215753    1.7962e+17   4.80141e+16   2.11782e+20
    0.0216438   1.79943e+17   4.63782e+16   2.10602e+20
    0.0217123    1.8026e+17   4.51069e+16   2.08904e+20
    0.0217808    1.8057e+17   4.41528e+16   2.06706e+20
    0.0218493   1.80874e+17   4.34753e+16   2.04032e+20
    0.0219178   1.81173e+17   4.30391e+16   2.00907e+20
    0.0219863   1.81465e+17   4.28129e+16   1.97359e+20
    0.0220548   1.81751e+17   4.27692e+16   1.93418e+20
    0.0221233   1.82032e+17   4.28837e+16   1.89115e+20
    0.0221918   1.82307e+17   4.31346e+16   1.84485e+20
    0.0222603   1.82576e+17   4.35029e+16   1.79561e+20
    0.0223288    1.8284e+17   4.39719e+16   1.74377e+20
    0.0223973   1.83099e+17    4.4527e+16   1.68968e+20
    0.0224658   1.83352e+17   4.51557e+16    1.6337e+20
    0.0225342     1.836e+17   4.58472e+16   1.57617e+20
    0.0226027   1.83843e+17   4.65922e+16   1.51741e+20
    0.0226712   1.84081e+17   4.73829e+16   1.45778e+20
    0.0227397   1.84315e+17   4.82126e+16   1.39756e+20
    0.0228082   1.84543e+17   4.90758e+16   1.33708e+20
    0.0228767   1.84767e+17   4.99677e+16   1.27661e+20
    0.0229452   1.84985e+17   5.08843e+16   1.21642e+20
    0.0230137     1.852e+17   5.18224e+16   1.15677e+20
    0.0230822    1.8541e+17   5.27792e+16   1.09787e+20
    0.0231507   1.85615e+17   5.37524e+16   1.03995e+20
    0.0232192   1.85817e+17   5.47399e+16    9.8319e+19
    0.0232877   1.86014e+17   5.57403e+16   9.27758e+19
    0.0233562   1.86207e+17    5.6752e+16   8.73804e+19
    0.0234247   1.86395e+17   5.77739e+16   8.21456e+19
    0.0234932    1.8658e+17    5.8805e+16   7.70822e+19
    0.0235616   1.86761e+17   5.98444e+16   7.21992e+19
    0.0236301   1.86938e+17   6.08914e+16   6.75037e+19
    0.0236986   1.87112e+17   6.19453e+16   6.30011e+19
    0.0237671   1.87281e+17   6.30056e+16   5.86951e+19
    0.0238356   1.87447e+17   6.40716e+16    5.4588e+19
    0.0239041    1.8761e+17    6.5143e+16   5.06806e+19
    0.0239726   1.87769e+17   6.62193e+16   4.69725e+19
    0.0240411   1.87924e+17   6.73001e+16   4.34621e+19
    0.0241096   1.88076e+17    6.8385e+16   4.01468e+19
    0.0241781   1.88225e+17   6.94738e+16   3.70229e+19
    0.0242466   1.88371e+17    7.0566e+16   3.40862e+19
    0.0243151   1.88513e+17   7.16613e+16   3.13315e+19
    0.0243836   1.88652e+17   7.27595e+16   2.87532e+19
    0.0244521   1.88789e+17   7.38602e+16   2.63451e+19
    0.0245205   1.88922e+17   7.49632e+16   2.41007e+19
     0.024589   1.89052e+17   7.60682e+16   2.20132e+19
    0.0246575    1.8918e+17   7.71748e+16   2.00755e+19
     0.024726   1.89304e+17   7.82829e+16   1.82805e+19
    0.0247945   1.89426e+17   7.93921e+16   1.66208e+19
     0.024863   1.89545e+17   8.05022e+16   1.50892e+19
    0.0249315   1.89662e+17   8.16129e+16   1.36785e+19
        0.025   1.89775e+17   8.27239e+16   1.23815e+19
    0.0250685   1.89887e+17   8.38351e+16   1.11912e+19
     0.025137   1.89995e+17    8.4946e+16   1.01009e+19
    0.0252055   1.90102e+17   8.60566e+16   9.10393e+18
     0.025274   1.90205e+17   8.71664e+16   8.19385e+18
    0.0253425   1.90307e+17   8.82753e+16   7.36455e+18
     0.025411   1.90406e+17    8.9383e+16   6.61017e+18
    0.0254795   1.90503e+17   9.04893e+16   5.92511e+18
    0.0255479   1.90597e+17   9.15939e+16   5.30406e+18
    0.0256164   1.90689e+17   9.26965e+16     4.742e+18
    0.0256849    1.9078e+17    9.3797e+16    4.2342e+18
    0.0257534   1.90868e+17    9.4895e+16   3.77623e+18
    0.0258219   1.90953e+17   9.59903e+16   3.36396e+18
    0.0258904   1.91037e+17   9.70828e+16   2.99354e+18
    0.0259589   1.91119e+17   9.81721e+16   2.66141e+18
    0.0260274   1.91199e+17   9.92581e+16   2.36432e+18
    0.0260959   1.91277e+17    1.0034e+17   2.09931e+18
    0.0261644   1.91353e+17   1.01419e+17   1.86377e+18
    0.0262329   1.91427e+17   1.02493e+17   1.65546e+18
    0.0263014   1.91499e+17   1.03564e+17   1.47254e+18
    0.0263699    1.9157e+17   1.04629e+17    1.3137e+18
    0.0264384   1.91638e+17   1.05691e+17    1.1782e+18
    0.0265068   1.91705e+17   1.06747e+17   1.06601e+18
    0.0265753   1.91771e+17   1.07798e+17   9.77934e+17
    0.0266438   1.91834e+17   1.08844e+17   9.15653e+17
    0.0267123   1.91896e+17   1.09884e+17   8.82087e+17
    0.0267808   1.91957e+17   1.10919e+17   8.81918e+17
    0.0268493   1.92015e+17   1.11947e+17   9.21954e+17
    0.0269178   1.92073e+17    1.1297e+17   1.01072e+18
    0.0269863   1.92128e+17   1.13987e+17   1.15702e+18
    0.0270548   1.92183e+17   1.14997e+17   1.36777e+18
    0.0271233   1.92235e+17      1.16e+17   1.64547e+18
    0.0271918   1.92287e+17   1.16997e+17   1.98626e+18
    0.0272603   1.92337e+17   1.17987e+17   2.49464e+18
    0.0273288   1.92385e+17    1.1897e+17   3.24162e+18
    0.0273973   1.92432e+17   1.19946e+17   4.18202e+18
    0.0274658   1.92478e+17   1.20914e+17   5.22395e+18
    0.0275342   1.92523e+17   1.21875e+17   6.28356e+18
    0.0276027   1.92566e+17   1.22828e+17   7.41957e+18
    0.0276712   1.92608e+17   1.23774e+17   8.87441e+18
    0.0277397   1.92649e+17   1.24711e+17   9.66968e+18
    0.0278082   1.92688e+17   1.25641e+17   9.76788e+18
    0.0278767   1.92727e+17   1.26563e+17   9.37211e+18
    0.0279452   1.92764e+17   1.27476e+17   8.69131e+18
    0.0280137     1.928e+17   1.28381e+17   7.88051e+18
    0.0280822   1.92835e+17   1.29278e+17    7.0395e+18
    0.0281507   1.92869e+17   1.30166e+17   6.22628e+18
    0.0282192   1.92901e+17   1.31046e+17     5.471e+18
    0.0282877   1.92933e+17   1.31917e+17   4.78647e+18
    0.0283562   1.92964e+17   1.32779e+17   4.17541e+18
    0.0284247   1.92993e+17   1.33633e+17   3.63506e+18
    0.0284932   1.93022e+17   1.34477e+17   3.15998e+18
    0.0285616    1.9305e+17   1.35313e+17   2.74375e+18
    0.0286301   1.93077e+17    1.3614e+17   2.37982e+18
    0.0286986   1.93102e+17   1.36957e+17   2.06206e+18
    0.0287671   1.93127e+17   1.37766e+17   1.78489e+18
    0.0288356   1.93151e+17   1.38565e+17   1.54337e+18
    0.0289041   1.93175e+17   1.39356e+17   1.33314e+18
    0.0289726   1.93197e+17   1.40137e+17   1.15042e+18
    0.0290411   1.93218e+17   1.40909e+17   9.91851e+17
    0.0291096   1.93239e+17   1.41671e+17   8.54509e+17
    0.0291781   1.93259e+17   1.42425e+17   7.35806e+17
    0.0292466   1.93278e+17   1.43169e+17    6.3345e+17
    0.0293151   1.93296e+17   1.43903e+17   5.45411e+17
    0.0293836   1.93314e+17   1.44629e+17   4.69885e+17
    0.0294521   1.93331e+17   1.45345e+17   4.05272e+17
    0.0295205   1.93347e+17   1.46052e+17   3.50152e+17
     0.029589   1.93362e+17    1.4675e+17   3.03268e+17
    0.0296575   1.93377e+17   1.47438e+17   2.63511e+17
     0.029726   1.93391e+17   1.48117e+17   2.29911e+17
    0.0297945   1.93404e+17   1.48787e+17   2.01617e+17
     0.029863   1.93417e+17   1.49447e+17   1.77893e+17
    0.0299315   1.93429e+17   1.50099e+17   1.58108e+17
         0.03   1.93441e+17   1.50741e+17     1.417e+17
    0.0300685   1.93452e+17   1.51374e+17   1.28135e+17
     0.030137   1.93462e+17   1.51998e+17   1.17175e+17
    0.0302055   1.93472e+17   1.52613e+17   1.08524e+17
     0.030274   1.93481e+17   1.53219e+17   1.01674e+17
    0.0303425   1.93489e+17   1.53816e+17   9.60166e+16
     0.030411   1.93498e+17   1.54404e+17   9.10146e+16
    0.0304795   1.93505e+17   1.54984e+17   8.63079e+16
    0.0305479   1.93512e+17   1.55554e+17   8.64482e+16
    0.0306164   1.93519e+17   1.56116e+17   8.45818e+16
    0.0306849   1.93525e+17   1.56669e+17   8.05177e+16
    0.0307534   1.93531e+17   1.57213e+17   7.53877e+16
    0.0308219   1.93536e+17   1.57749e+17   7.01494e+16
    0.0308904   1.93541e+17   1.58276e+17   6.53476e+16
    0.0309589   1.93545e+17   1.58795e+17   6.12095e+16
    0.0310274   1.93549e+17   1.59305e+17   5.77766e+16
    0.0310959   1.93553e+17   1.59808e+17   5.50015e+16
    0.0311644   1.93556e+17   1.60302e+17   5.43866e+16
    0.0312329   1.93559e+17   1.60787e+17   5.35589e+16
    0.0313014   1.93561e+17   1.61265e+17   5.23575e+16
    0.0313699   1.93563e+17   1.61735e+17   5.10659e+16
    0.0314384   1.93565e+17   1.62197e+17   4.99218e+16
    0.0315068   1.93566e+17   1.62651e+17   4.90414e+16
    0.0315753   1.93567e+17   1.63097e+17   4.84509e+16
    0.0316438   1.93568e+17   1.63536e+17    4.8129e+16
    0.0317123   1.93569e+17   1.63967e+17   4.80355e+16
    0.0317808   1.93569e+17   1.64391e+17   4.81276e+16
    0.0318493   1.93568e+17   1.64807e+17   4.83668e+16
    0.0319178   1.93568e+17   1.65216e+17   4.87214e+16
    0.0319863   1.93567e+17   1.65617e+17   4.91661e+16
    0.0320548   1.93566e+17   1.66012e+17   4.96813e+16
    0.0321233   1.93565e+17   1.66399e+17   5.02519e+16
    0.0321918   1.93563e+17    1.6678e+17   5.08662e+16
    0.0322603   1.93562e+17   1.67153e+17   5.15152e+16
    0.0323288    1.9356e+17    1.6752e+17   5.21919e+16
    0.0323973   1.93557e+17    1.6788e+17   5.28908e+16
    0.0324658   1.93555e+17   1.68234e+17   5.36076e+16
    0.0325342   1.93552e+17   1.68581e+17   5.43387e+16
    0.0326027   1.93549e+17   1.68921e+17   5.50814e+16
    0.0326712   1.93546e+17   1.69256e+17   5.58335e+16
    0.0327397   1.93543e+17   1.69584e+17   5.65931e+16
    0.0328082    1.9354e+17   1.69905e+17   5.73588e+16
    0.0328767   1.93536e+17   1.70221e+17   5.81294e+16
    0.0329452   1.93532e+17   1.70531e+17   5.89039e+16
    0.0330137   1.93528e+17   1.70835e+17   5.96814e+16
    0.0330822   1.93524e+17   1.71133e+17   6.04611e+16
    0.0331507    1.9352e+17   1.71425e+17   6.12427e+16
    0.0332192   1.93516e+17   1.71712e+17   6.20254e+16
    0.0332877   1.93511e+17   1.71993e+17   6.28088e+16
    0.0333562   1.93507e+17   1.72269e+17   6.35926e+16
    0.0334247   1.93502e+17   1.72539e+17   6.43764e+16
    0.0334932   1.93497e+17   1.72805e+17   6.51599e+16
    0.0335616   1.93492e+17   1.73065e+17   6.59428e+16
    0.0336301   1.93487e+17   1.73319e+17   6.67249e+16
    0.0336986   1.93482e+17   1.73569e+17   6.75058e+16
    0.0337671   1.93476e+17   1.73814e+17   6.82854e+16
    0.0338356   1.93471e+17   1.74054e+17   6.90635e+16
    0.0339041   1.93465e+17   1.74289e+17   6.98398e+16
    0.0339726    1.9346e+17   1.74519e+17   7.06142e+16
    0.0340411   1.93454e+17   1.74745e+17   7.13865e+16
    0.0341096   1.93448e+17   1.74967e+17   7.21564e+16
    0.0341781   1.93442e+17   1.75183e+17   7.29239e+16
    0.0342466   1.93436e+17   1.75396e+17   7.36887e+16
    0.0343151    1.9343e+17   1.75604e+17   7.44508e+16
    0.0343836   1.93424e+17   1.75808e+17   7.52098e+16
    0.0344521   1.93418e+17   1.76007e+17   7.59658e+16
    0.0345205   1.93412e+17   1.76203e+17   7.67185e+16
     0.034589   1.93406e+17   1.76395e+17   7.74677e+16
    0.0346575     1.934e+17   1.76582e+17   7.82135e+16
     0.034726   1.93393e+17   1.76766e+17   7.89555e+16
    0.0347945   1.93387e+17   1.76946e+17   7.96937e+16
     0.034863    1.9338e+17   1.77122e+17   8.04279e+16
    0.0349315   1.93374e+17   1.77294e+17   8.11581e+16
        0.035   1.93368e+17   1.77463e+17    8.1884e+16
    0.0350685   1.93361e+17   1.77629e+17   8.26056e+16
     0.035137   1.93354e+17    1.7779e+17   8.33227e+16
    0.0352055   1.93348e+17   1.77949e+17   8.40353e+16
     0.035274   1.93341e+17   1.78104e+17   8.47432e+16
    0.0353425   1.93335e+17   1.78255e+17   8.54463e+16
     0.035411   1.93328e+17   1.78404e+17   8.61445e+16
    0.0354795   1.93321e+17   1.78549e+17   8.68377e+16
    0.0355479   1.93315e+17   1.78691e+17   8.75258e+16
    0.0356164   1.93308e+17    1.7883e+17   8.82087e+16
    0.0356849   1.93301e+17   1.78967e+17   8.88863e+16
    0.0357534   1.93295e+17     1.791e+17   8.95585e+16
    0.0358219   1.93288e+17    1.7923e+17   9.02253e+16
    0.0358904   1.93281e+17   1.79357e+17   9.08865e+16
    0.0359589   1.93275e+17   1.79482e+17   9.15422e+16
    0.0360274   1.93268e+17   1.79604e+17   9.21921e+16
    0.0360959   1.93261e+17   1.79723e+17   9.28362e+16
    0.0361644   1.93254e+17   1.79839e+17   9.34746e+16
    0.0362329   1.93248e+17   1.79953e+17    9.4107e+16
    0.0363014   1.93241e+17   1.80065e+17   9.47335e+16
    0.0363699   1.93234e+17   1.80173e+17   9.53539e+16
    0.0364384   1.93228e+17    1.8028e+17   9.59683e+16
    0.0365068   1.93221e+17   1.80384e+17   9.65766e+16