# Probe 0 (0 0 0.0079)
#       Probe             0
#        Time
  0.000116279   6.86571e-16
  0.000251938    1.6983e-15
  0.000410207   3.18446e-15
  0.000593798   5.34863e-15
  0.000803618   8.44131e-15
   0.00103675   1.27098e-14
   0.00128445   1.82809e-14
   0.00154985   2.54863e-14
   0.00183736   3.47872e-14
   0.00212487   4.57662e-14
   0.00241239   5.84761e-14
    0.0026999   7.29598e-14
   0.00298741   8.92518e-14
   0.00327492   1.07379e-13
   0.00356244   1.27361e-13
   0.00384995    1.4921e-13
   0.00413746   1.72932e-13
   0.00442497   1.98527e-13
   0.00471249   2.25989e-13
        0.005   2.55305e-13
   0.00529412   2.87175e-13
   0.00558824   3.20944e-13
   0.00588235   3.56585e-13
   0.00617647   3.94063e-13
   0.00647059   4.33343e-13
   0.00676471   4.74383e-13
   0.00705882    5.1714e-13
   0.00735294    5.6157e-13
   0.00764706   6.07623e-13
   0.00794118   6.55251e-13
   0.00823529   7.04402e-13
   0.00852941   7.55025e-13
   0.00882353   8.07068e-13
   0.00911765   8.60476e-13
   0.00941176   9.15196e-13
   0.00970588   9.71174e-13
         0.01   1.02836e-12
    0.0102941   1.08669e-12
    0.0105882   1.14611e-12
    0.0108824   1.20658e-12
    0.0111765   1.26804e-12
    0.0114706   1.33043e-12
    0.0117647    1.3937e-12
    0.0120588    1.4578e-12
