# Probe 0 (0 0 0.0079)
#       Probe             0
#        Time
  0.000116279       561.211
  0.000251938       1388.21
  0.000410207       2603.01
  0.000593798       4372.03
  0.000803618       6900.02
   0.00103675       10389.2
   0.00128445         14943
   0.00154985       20832.7
   0.00183736       28435.4
   0.00212487       37409.8
   0.00241239         47799
    0.0026999       59638.1
   0.00298741       72955.4
   0.00327492       87772.8
   0.00356244        104106
   0.00384995        121966
   0.00413746        141356
   0.00442497        162278
   0.00471249        184726
        0.005        208689
   0.00529412        234740
   0.00558824        262344
   0.00588235        291476
   0.00617647        322112
   0.00647059        354219
   0.00676471        387766
   0.00705882        422716
   0.00735294        459033
   0.00764706        496678
   0.00794118        535609
   0.00823529        575786
   0.00852941        617166
   0.00882353        659706
   0.00911765        703362
   0.00941176        748091
   0.00970588        793848
         0.01        840589
    0.0102941        888270
    0.0105882        936846
    0.0108824        986274
    0.0111765   1.03651e+06
    0.0114706   1.08751e+06
    0.0117647   1.13923e+06
    0.0120588   1.19162e+06
