# Probe 0 (0 0 0.0079)
#       Probe             0
#        Time
  0.000116279   8.39934e-34
  0.000251938   2.07766e-33
  0.000410207   3.89578e-33
  0.000593798   6.54337e-33
  0.000803618   1.03269e-32
   0.00103675   1.55489e-32
   0.00128445   2.23643e-32
   0.00154985   3.11792e-32
   0.00183736   4.25577e-32
   0.00212487   5.59892e-32
   0.00241239   7.15381e-32
    0.0026999   8.92571e-32
   0.00298741   1.09188e-31
   0.00327492   1.31365e-31
   0.00356244    1.5581e-31
   0.00384995   1.82539e-31
   0.00413746    2.1156e-31
   0.00442497   2.42873e-31
   0.00471249   2.76469e-31
        0.005   3.12334e-31
   0.00529412   3.51323e-31
   0.00558824   3.92635e-31
   0.00588235   4.36237e-31
   0.00617647   4.82087e-31
   0.00647059    5.3014e-31
   0.00676471   5.80348e-31
   0.00705882   6.32656e-31
   0.00735294    6.8701e-31
   0.00764706    7.4335e-31
   0.00794118   8.01617e-31
   0.00823529   8.61748e-31
   0.00852941   9.23679e-31
   0.00882353   9.87346e-31
   0.00911765   1.05268e-30
   0.00941176   1.11963e-30
   0.00970588   1.18811e-30
         0.01   1.25806e-30
    0.0102941   1.32943e-30
    0.0105882   1.40213e-30
    0.0108824    1.4761e-30
    0.0111765   1.55129e-30
    0.0114706   1.62761e-30
    0.0117647   1.70502e-30
    0.0120588   1.78344e-30
