# Probe 0 (0 0 0.0079)
#       Probe             0
#        Time
  1.19976e-06       1.04179
  2.63926e-06       2.29461
  4.36652e-06       3.80197
  6.43901e-06       5.61652
  8.92559e-06       7.80214
  1.19089e-05       10.4366
  1.54876e-05       13.6146
  1.97801e-05       17.4519
  2.48462e-05       22.0169
  3.06865e-05       27.3288
  3.72974e-05        33.406
  4.46827e-05       40.2766
    5.243e-05       47.5801
  6.01774e-05       54.9847
  6.79247e-05       62.4906
   7.5672e-05       70.0982
  8.34193e-05       77.8079
  9.11667e-05         85.62
   9.8914e-05       93.5348
  0.000106661       101.553
  0.000114409       109.674
  0.000122156       117.899
  0.000129903       126.228
  0.000137651       134.661
  0.000145398       143.199
  0.000153145       151.842
  0.000160893        160.59
   0.00016864       169.444
  0.000176387       178.403
  0.000184135       187.469
  0.000191882       196.642
  0.000199629       205.921
  0.000207377       215.307
  0.000215124         224.8
  0.000222871       234.401
  0.000230619        244.11
  0.000238366       253.927
  0.000246113       263.853
  0.000253861       273.888
  0.000261608       284.031
  0.000269355       294.284
  0.000277103       304.647
   0.00028485       315.119
  0.000292597       325.701
  0.000300345       336.394
  0.000308092       347.198
  0.000315839       358.112
  0.000323587       369.138
  0.000331334       380.275
  0.000339081       391.524
  0.000346829       402.884
  0.000354576       414.357
  0.000362323       425.942
   0.00037007        437.64
  0.000377818       449.451
  0.000385565       461.376
  0.000393312       473.413
   0.00040106       485.564
  0.000408807       497.829
  0.000416554       510.209
  0.000424302       522.702
  0.000432049        535.31
  0.000439796       548.034
  0.000447544       560.872
  0.000455291       573.825
  0.000463038       586.894
  0.000470786       600.079
  0.000478533       613.379
   0.00048628       626.796
  0.000494028       640.329
  0.000501775       653.979
  0.000509522       667.746
   0.00051727        681.63
  0.000525017       695.631
  0.000532764       709.749
  0.000540512       723.985
  0.000548259       738.339
  0.000556006       752.812
  0.000563754       767.402
  0.000571501       782.111
  0.000579248       796.939
  0.000586996       811.886
  0.000594743       826.951
   0.00060249       842.137
  0.000610238       857.441
  0.000617985       872.865
  0.000625732        888.41
   0.00063348       904.074
  0.000641227       919.859
  0.000648974       935.764
  0.000656722        951.79
  0.000664469       967.936
  0.000672216       984.204
  0.000679964       1000.59
  0.000687711        1017.1
  0.000695458       1033.74
  0.000703206       1050.49
  0.000710953       1067.36
    0.0007187       1084.36
  0.000726448       1101.48
  0.000734195       1118.73
  0.000741942       1136.09
   0.00074969       1153.58
  0.000757437       1171.19
  0.000765184       1188.93
  0.000772932       1206.78
  0.000780679       1224.76
  0.000788426       1242.87
  0.000796174        1261.1
  0.000803921       1279.45
  0.000811668       1297.93
  0.000819416       1316.53
  0.000827163       1335.26
   0.00083491       1354.11
  0.000842658       1373.08
  0.000850405       1392.18
  0.000858152       1411.41
    0.0008659       1430.76
  0.000873647       1450.24
  0.000881394       1469.84
  0.000889142       1489.57
  0.000896889       1509.42
  0.000904636        1529.4
  0.000912384       1549.51
  0.000920131       1569.74
  0.000927878        1590.1
  0.000935625       1610.59
  0.000943373        1631.2
   0.00095112       1651.94
  0.000958867       1672.81
  0.000966615       1693.81
  0.000974362       1714.93
  0.000982109       1736.18
  0.000989857       1757.55
  0.000997604       1779.06
   0.00100535       1800.69
    0.0010131       1822.46
   0.00102085       1844.35
   0.00102859       1866.36
   0.00103634       1888.51
   0.00104409       1910.79
   0.00105184       1933.19
   0.00105958       1955.73
   0.00106733       1978.39
   0.00107508       2001.18
   0.00108282        2024.1
   0.00109057       2047.15
   0.00109832       2070.33
   0.00110607       2093.64
   0.00111381       2117.08
   0.00112156       2140.65
   0.00112931       2164.36
   0.00113706       2188.19
    0.0011448       2212.15
   0.00115255       2236.24
    0.0011603       2260.46
   0.00116805       2284.82
   0.00117579        2309.3
   0.00118354       2333.92
   0.00119129       2358.66
   0.00119903       2383.54
   0.00120678       2408.55
   0.00121453       2433.69
   0.00122228       2458.96
   0.00123002       2484.37
   0.00123777        2509.9
   0.00124552       2535.57
   0.00125327       2561.37
   0.00126101        2587.3
   0.00126876       2613.37
   0.00127651       2639.57
   0.00128426        2665.9
     0.001292       2692.36
   0.00129975       2718.95
    0.0013075       2745.68
   0.00131524       2772.54
   0.00132299       2799.54
   0.00133074       2826.66
   0.00133849       2853.93
   0.00134623       2881.32
   0.00135398       2908.85
   0.00136173       2936.51
   0.00136948        2964.3
   0.00137722       2992.23
   0.00138497        3020.3
   0.00139272       3048.49
   0.00140047       3076.83
   0.00140821       3105.29
   0.00141596       3133.89
   0.00142371       3162.63
   0.00143145        3191.5
    0.0014392        3220.5
   0.00144695       3249.64
    0.0014547       3278.91
   0.00146244       3308.32
   0.00147019       3337.86
   0.00147794       3367.54
   0.00148569       3397.36
   0.00149343       3427.31
   0.00150118       3457.39
   0.00150893       3487.61
   0.00151668       3517.97
   0.00152442       3548.46
   0.00153217       3579.09
   0.00153992       3609.85
   0.00154766       3640.75
   0.00155541       3671.78
   0.00156316       3702.96
   0.00157091       3734.26
   0.00157865       3765.71
    0.0015864       3797.29
   0.00159415       3829.01
    0.0016019       3860.86
   0.00160964       3892.85
   0.00161739       3924.98
   0.00162514       3957.24
   0.00163289       3989.64
   0.00164063       4022.18
   0.00164838       4054.86
   0.00165613       4087.67
   0.00166387       4120.62
   0.00167162       4153.71
   0.00167937       4186.93
   0.00168712       4220.29
   0.00169486       4253.79
   0.00170261       4287.43
   0.00171036       4321.21
   0.00171811       4355.12
   0.00172585       4389.17
    0.0017336       4423.36
   0.00174135       4457.69
   0.00174909       4492.15
   0.00175684       4526.76
   0.00176459        4561.5
   0.00177234       4596.38
   0.00178008        4631.4
   0.00178783       4666.55
   0.00179558       4701.85
   0.00180333       4737.28
   0.00181107       4772.86
   0.00181882       4808.57
   0.00182657       4844.42
   0.00183432       4880.41
   0.00184206       4916.54
   0.00184981        4952.8
   0.00185756       4989.21
    0.0018653       5025.76
   0.00187305       5062.44
    0.0018808       5099.27
   0.00188855       5136.23
   0.00189629       5173.33
   0.00190404       5210.58
   0.00191179       5247.96
   0.00191954       5285.48
   0.00192728       5323.14
   0.00193503       5360.95
   0.00194278       5398.89
   0.00195053       5436.97
   0.00195827       5475.19
   0.00196602       5513.55
   0.00197377       5552.06
   0.00198151        5590.7
   0.00198926       5629.48
   0.00199701        5668.4
   0.00200476       5707.47
    0.0020125       5746.67
   0.00202025       5786.01
     0.002028        5825.5
   0.00203575       5865.12
   0.00204349       5904.89
   0.00205124       5944.79
   0.00205899       5984.84
   0.00206674       6025.03
   0.00207448       6065.36
   0.00208223       6105.83
   0.00208998       6146.44
   0.00209772       6187.19
   0.00210547       6228.08
   0.00211322       6269.12
   0.00212097       6310.29
   0.00212871       6351.61
   0.00213646       6393.06
   0.00214421       6434.66
   0.00215196        6476.4
    0.0021597       6518.29
   0.00216745       6560.31
    0.0021752       6602.47
   0.00218295       6644.78
   0.00219069       6687.23
   0.00219844       6729.82
   0.00220619       6772.55
   0.00221393       6815.42
   0.00222168       6858.44
   0.00222943       6901.59
   0.00223718       6944.89
   0.00224492       6988.33
   0.00225267       7031.92
   0.00226042       7075.64
   0.00226817       7119.51
   0.00227591       7163.52
   0.00228366       7207.67
   0.00229141       7251.96
   0.00229916        7296.4
    0.0023069       7340.98
   0.00231465        7385.7
    0.0023224       7430.56
   0.00233014       7475.56
   0.00233789       7520.71
   0.00234564          7566
   0.00235339       7611.44
   0.00236113       7657.01
   0.00236888       7702.73
   0.00237663       7748.59
   0.00238438       7794.59
   0.00239212       7840.74
   0.00239987       7887.03
   0.00240762       7933.46
   0.00241537       7980.04
   0.00242311       8026.75
   0.00243086       8073.61
   0.00243861       8120.62
   0.00244635       8167.76
    0.0024541       8215.05
   0.00246185       8262.49
    0.0024696       8310.06
   0.00247734       8357.78
   0.00248509       8405.64
   0.00249284       8453.65
   0.00250059        8501.8
   0.00250833       8550.09
   0.00251608       8598.52
   0.00252383        8647.1
   0.00253158       8695.82
   0.00253932       8744.69
   0.00254707        8793.7
   0.00255482       8842.85
   0.00256256       8892.15
   0.00257031       8941.59
   0.00257806       8991.17
   0.00258581       9040.89
   0.00259355       9090.76
    0.0026013       9140.78
   0.00260905       9190.94
    0.0026168       9241.24
   0.00262454       9291.68
   0.00263229       9342.27
   0.00264004          9393
   0.00264779       9443.88
   0.00265553        9494.9
   0.00266328       9546.06
   0.00267103       9597.37
   0.00267877       9648.82
   0.00268652       9700.42
   0.00269427       9752.16
   0.00270202       9804.04
   0.00270976       9856.07
   0.00271751       9908.24
   0.00272526       9960.55
   0.00273301         10013
   0.00274075       10065.6
    0.0027485       10118.4
   0.00275625       10171.3
     0.002764       10224.3
   0.00277174       10277.5
   0.00277949       10330.8
   0.00278724       10384.3
   0.00279498       10437.9
   0.00280273       10491.6
   0.00281048       10545.5
   0.00281823       10599.6
   0.00282597       10653.8
   0.00283372       10708.1
   0.00284147       10762.6
   0.00284922       10817.2
   0.00285696         10872
   0.00286471       10926.9
   0.00287246       10981.9
    0.0028802       11037.1
   0.00288795       11092.5
    0.0028957         11148
   0.00290345       11203.6
   0.00291119       11259.4
   0.00291894       11315.3
   0.00292669       11371.4
   0.00293444       11427.6
   0.00294218       11483.9
   0.00294993       11540.4
   0.00295768       11597.1
   0.00296543       11653.9
   0.00297317       11710.8
   0.00298092       11767.9
   0.00298867       11825.1
   0.00299641       11882.5
   0.00300416         11940
   0.00301191       11997.7
   0.00301966       12055.5
    0.0030274       12113.4
   0.00303515       12171.5
    0.0030429       12229.7
   0.00305065       12288.1
   0.00305839       12346.6
   0.00306614       12405.3
   0.00307389       12464.1
   0.00308164       12523.1
   0.00308938       12582.2
   0.00309713       12641.4
   0.00310488       12700.8
   0.00311262       12760.4
   0.00312037       12820.1
   0.00312812       12879.9
   0.00313587       12939.9
   0.00314361         13000
   0.00315136       13060.2
   0.00315911       13120.6
   0.00316686       13181.2
    0.0031746       13241.9
   0.00318235       13302.7
    0.0031901       13363.7
   0.00319785       13424.9
   0.00320559       13486.1
   0.00321334       13547.6
   0.00322109       13609.1
   0.00322883       13670.8
   0.00323658       13732.7
   0.00324433       13794.7
   0.00325208       13856.8
   0.00325982       13919.1
   0.00326757       13981.6
   0.00327532       14044.1
   0.00328307       14106.9
   0.00329081       14169.7
   0.00329856       14232.7
   0.00330631       14295.9
   0.00331406       14359.2
    0.0033218       14422.7
   0.00332955       14486.2
    0.0033373         14550
   0.00334504       14613.9
   0.00335279       14677.9
   0.00336054       14742.1
   0.00336829       14806.4
   0.00337603       14870.9
   0.00338378       14935.5
   0.00339153       15000.2
   0.00339928       15065.1
   0.00340702       15130.1
   0.00341477       15195.3
   0.00342252       15260.7
   0.00343027       15326.1
   0.00343801       15391.8
   0.00344576       15457.5
   0.00345351       15523.4
   0.00346125       15589.5
     0.003469       15655.7
   0.00347675         15722
    0.0034845       15788.5
   0.00349224       15855.2
   0.00349999       15921.9
   0.00350774       15988.9
   0.00351549       16055.9
   0.00352323       16123.1
   0.00353098       16190.5
   0.00353873         16258
   0.00354648       16325.6
   0.00355422       16393.4
   0.00356197       16461.4
   0.00356972       16529.5
   0.00357746       16597.7
   0.00358521       16666.1
   0.00359296       16734.6
   0.00360071       16803.2
   0.00360845         16872
    0.0036162         16941
   0.00362395       17010.1
    0.0036317       17079.3
   0.00363944       17148.7
   0.00364719       17218.2
   0.00365494       17287.9
   0.00366269       17357.7
   0.00367043       17427.7
   0.00367818       17497.8
   0.00368593         17568
   0.00369367       17638.4
   0.00370142         17709
   0.00370917       17779.6
   0.00371692       17850.5
   0.00372466       17921.4
   0.00373241       17992.6
   0.00374016       18063.8
   0.00374791       18135.2
   0.00375565       18206.8
    0.0037634       18278.5
   0.00377115       18350.3
    0.0037789       18422.3
   0.00378664       18494.4
   0.00379439       18566.7
   0.00380214       18639.1
   0.00380988       18711.7
   0.00381763       18784.4
   0.00382538       18857.2
   0.00383313       18930.2
   0.00384087       19003.3
   0.00384862       19076.6
   0.00385637         19150
   0.00386412       19223.6
   0.00387186       19297.3
   0.00387961       19371.2
   0.00388736       19445.2
   0.00389511       19519.3
   0.00390285       19593.6
    0.0039106         19668
   0.00391835       19742.6
   0.00392609       19817.3
   0.00393384       19892.2
   0.00394159       19967.2
   0.00394934       20042.4
   0.00395708       20117.7
   0.00396483       20193.1
   0.00397258       20268.7
   0.00398033       20344.4
   0.00398807       20420.3
   0.00399582       20496.3
   0.00400357       20572.5
   0.00401131       20648.8
   0.00401906       20725.2
   0.00402681       20801.8
   0.00403456       20878.5
    0.0040423       20955.4
   0.00405005       21032.4
    0.0040578       21109.6
   0.00406555       21186.9
   0.00407329       21264.4
   0.00408104         21342
   0.00408879       21419.7
   0.00409654       21497.6
   0.00410428       21575.6
   0.00411203       21653.8
   0.00411978       21732.1
   0.00412752       21810.5
   0.00413527       21889.1
   0.00414302       21967.9
   0.00415077       22046.8
   0.00415851       22125.8
   0.00416626         22205
   0.00417401       22284.3
   0.00418176       22363.7
    0.0041895       22443.3
   0.00419725       22523.1
     0.004205         22603
   0.00421275         22683
   0.00422049       22763.2
   0.00422824       22843.5
   0.00423599         22924
   0.00424373       23004.6
   0.00425148       23085.3
   0.00425923       23166.2
   0.00426698       23247.2
   0.00427472       23328.4
   0.00428247       23409.7
   0.00429022       23491.2
   0.00429797       23572.8
   0.00430571       23654.5
   0.00431346       23736.4
   0.00432121       23818.4
   0.00432896       23900.6
    0.0043367       23982.9
   0.00434445       24065.4
    0.0043522         24148
   0.00435994       24230.7
   0.00436769       24313.6
   0.00437544       24396.6
   0.00438319       24479.8
   0.00439093       24563.1
   0.00439868       24646.6
   0.00440643       24730.2
   0.00441418       24813.9
   0.00442192       24897.8
   0.00442967       24981.8
   0.00443742         25066
   0.00444517       25150.3
   0.00445291       25234.7
   0.00446066       25319.3
   0.00446841       25404.1
   0.00447615       25488.9
    0.0044839         25574
   0.00449165       25659.1
    0.0044994       25744.4
   0.00450714       25829.9
   0.00451489       25915.5
   0.00452264       26001.2
   0.00453039         26087
   0.00453813       26173.1
   0.00454588       26259.2
   0.00455363       26345.5
   0.00456138       26431.9
   0.00456912       26518.5
   0.00457687       26605.2
   0.00458462       26692.1
   0.00459236       26779.1
   0.00460011       26866.2
   0.00460786       26953.5
   0.00461561       27040.9
   0.00462335       27128.5
    0.0046311       27216.2
   0.00463885       27304.1
    0.0046466       27392.1
   0.00465434       27480.2
   0.00466209       27568.5
   0.00466984       27656.9
   0.00467759       27745.4
   0.00468533       27834.1
   0.00469308         27923
   0.00470083       28011.9
   0.00470857         28101
   0.00471632       28190.3
   0.00472407       28279.7
   0.00473182       28369.2
   0.00473956       28458.9
   0.00474731       28548.7
   0.00475506       28638.7
   0.00476281       28728.8
   0.00477055       28819.1
    0.0047783       28909.4
   0.00478605         29000
    0.0047938       29090.6
   0.00480154       29181.4
   0.00480929       29272.4
   0.00481704       29363.5
   0.00482478       29454.7
   0.00483253         29546
   0.00484028       29637.5
   0.00484803       29729.2
   0.00485577         29821
   0.00486352       29912.9
   0.00487127         30005
   0.00487902       30097.2
   0.00488676       30189.5
   0.00489451         30282
   0.00490226       30374.6
   0.00491001       30467.4
   0.00491775       30560.3
    0.0049255       30653.3
   0.00493325       30746.5
   0.00494099       30839.8
   0.00494874       30933.3
   0.00495649       31026.9
   0.00496424       31120.6
   0.00497198       31214.5
   0.00497973       31308.5
   0.00498748       31402.7
   0.00499523         31497
   0.00500297       31591.4
   0.00501072         31686
   0.00501847       31780.7
   0.00502622       31875.6
   0.00503396       31970.5
   0.00504171       32065.7
   0.00504946       32160.9
    0.0050572       32256.4
   0.00506495       32351.9
    0.0050727       32447.6
   0.00508045       32543.4
   0.00508819       32639.4
   0.00509594       32735.5
   0.00510369       32831.7
   0.00511144       32928.1
   0.00511918       33024.6
   0.00512693       33121.3
   0.00513468       33218.1
   0.00514242         33315
   0.00515017       33412.1
   0.00515792       33509.3
   0.00516567       33606.6
   0.00517341       33704.1
   0.00518116       33801.7
   0.00518891       33899.5
   0.00519666       33997.4
    0.0052044       34095.4
   0.00521215       34193.6
    0.0052199       34291.9
   0.00522765       34390.3
   0.00523539       34488.9
   0.00524314       34587.6
   0.00525089       34686.5
   0.00525863       34785.5
   0.00526638       34884.6
   0.00527413       34983.9
   0.00528188       35083.3
   0.00528962       35182.9
   0.00529737       35282.6
   0.00530512       35382.4
   0.00531287       35482.3
   0.00532061       35582.4
   0.00532836       35682.7
   0.00533611         35783
   0.00534386       35883.5
    0.0053516       35984.2
   0.00535935         36085
    0.0053671       36185.9
   0.00537484       36286.9
   0.00538259       36388.1
   0.00539034       36489.5
   0.00539809       36590.9
   0.00540583       36692.5
   0.00541358       36794.2
   0.00542133       36896.1
   0.00542908       36998.1
   0.00543682       37100.3
   0.00544457       37202.6
   0.00545232         37305
   0.00546007       37407.5
   0.00546781       37510.2
   0.00547556         37613
   0.00548331         37716
   0.00549105       37819.1
    0.0054988       37922.3
   0.00550655       38025.7
    0.0055143       38129.2
   0.00552204       38232.8
   0.00552979       38336.6
   0.00553754       38440.5
   0.00554529       38544.6
   0.00555303       38648.7
   0.00556078         38753
   0.00556853       38857.5
   0.00557628       38962.1
   0.00558402       39066.8
   0.00559177       39171.7
   0.00559952       39276.6
   0.00560726       39381.8
   0.00561501         39487
   0.00562276       39592.4
   0.00563051         39698
   0.00563825       39803.6
     0.005646       39909.4
   0.00565375       40015.4
    0.0056615       40121.4
   0.00566924       40227.6
   0.00567699         40334
   0.00568474       40440.4
   0.00569249         40547
   0.00570023       40653.8
   0.00570798       40760.6
   0.00571573       40867.6
   0.00572347       40974.8
   0.00573122       41082.1
   0.00573897       41189.5
   0.00574672         41297
   0.00575446       41404.7
   0.00576221       41512.5
   0.00576996       41620.4
   0.00577771       41728.5
   0.00578545       41836.7
    0.0057932       41945.1
   0.00580095       42053.5
    0.0058087       42162.2
   0.00581644       42270.9
   0.00582419       42379.8
   0.00583194       42488.8
   0.00583968       42597.9
   0.00584743       42707.2
   0.00585518       42816.6
   0.00586293       42926.2
   0.00587067       43035.8
   0.00587842       43145.6
   0.00588617       43255.6
   0.00589392       43365.6
   0.00590166       43475.8
   0.00590941       43586.2
   0.00591716       43696.7
   0.00592491       43807.3
   0.00593265         43918
    0.0059404       44028.9
   0.00594815       44139.8
   0.00595589         44251
   0.00596364       44362.2
   0.00597139       44473.6
   0.00597914       44585.2
   0.00598688       44696.8
   0.00599463       44808.6
   0.00600238       44920.5
   0.00601013       45032.6
   0.00601787       45144.8
   0.00602562       45257.1
   0.00603337       45369.5
   0.00604112       45482.1
   0.00604886       45594.8
   0.00605661       45707.6
   0.00606436       45820.6
    0.0060721       45933.7
   0.00607985       46046.9
    0.0060876       46160.3
   0.00609535       46273.8
   0.00610309       46387.4
   0.00611084       46501.2
   0.00611859       46615.1
   0.00612634       46729.1
   0.00613408       46843.2
   0.00614183       46957.5
   0.00614958       47071.9
   0.00615732       47186.5
   0.00616507       47301.1
   0.00617282       47415.9
   0.00618057       47530.8
   0.00618831       47645.9
   0.00619606       47761.1
   0.00620381       47876.4
   0.00621156       47991.9
    0.0062193       48107.4
   0.00622705       48223.1
    0.0062348         48339
   0.00624255       48454.9
   0.00625029         48571
   0.00625804       48687.3
   0.00626579       48803.6
   0.00627353       48920.1
   0.00628128       49036.7
   0.00628903       49153.4
   0.00629678       49270.3
   0.00630452       49387.3
   0.00631227       49504.4
   0.00632002       49621.7
   0.00632777       49739.1
   0.00633551       49856.6
   0.00634326       49974.2
   0.00635101         50092
   0.00635876       50209.9
    0.0063665       50327.9
   0.00637425       50446.1
     0.006382       50564.4
   0.00638974       50682.8
   0.00639749       50801.3
   0.00640524         50920
   0.00641299       51038.8
   0.00642073       51157.7
   0.00642848       51276.8
   0.00643623       51395.9
   0.00644398       51515.2
   0.00645172       51634.7
   0.00645947       51754.2
   0.00646722       51873.9
   0.00647497       51993.7
   0.00648271       52113.7
   0.00649046       52233.7
   0.00649821       52353.9
   0.00650595       52474.3
    0.0065137       52594.7
   0.00652145       52715.3
    0.0065292         52836
   0.00653694       52956.8
   0.00654469       53077.8
   0.00655244       53198.9
   0.00656019       53320.1
   0.00656793       53441.4
   0.00657568       53562.9
   0.00658343       53684.5
   0.00659118       53806.2
   0.00659892         53928
   0.00660667         54050
   0.00661442       54172.1
   0.00662216       54294.3
   0.00662991       54416.6
   0.00663766       54539.1
   0.00664541       54661.7
   0.00665315       54784.4
    0.0066609       54907.3
   0.00666865       55030.2
    0.0066764       55153.3
   0.00668414       55276.6
   0.00669189       55399.9
   0.00669964       55523.4
   0.00670739         55647
   0.00671513       55770.7
   0.00672288       55894.6
   0.00673063       56018.5
   0.00673837       56142.6
   0.00674612       56266.8
   0.00675387       56391.2
   0.00676162       56515.7
   0.00676936       56640.2
   0.00677711         56765
   0.00678486       56889.8
   0.00679261       57014.8
   0.00680035       57139.9
    0.0068081       57265.1
   0.00681585       57390.4
    0.0068236       57515.9
   0.00683134       57641.5
   0.00683909       57767.2
   0.00684684         57893
   0.00685458         58019
   0.00686233         58145
   0.00687008       58271.2
   0.00687783       58397.6
   0.00688557         58524
   0.00689332       58650.6
   0.00690107       58777.3
   0.00690882       58904.1
   0.00691656         59031
   0.00692431       59158.1
   0.00693206       59285.3
   0.00693981       59412.6
   0.00694755         59540
    0.0069553       59667.6
   0.00696305       59795.3
   0.00697079       59923.1
   0.00697854         60051
   0.00698629         60179
   0.00699404       60307.2
   0.00700178       60435.5
   0.00700953       60563.9
   0.00701728       60692.4
   0.00702503         60821
   0.00703277       60949.8
   0.00704052       61078.7
   0.00704827       61207.7
   0.00705602       61336.9
   0.00706376       61466.1
   0.00707151       61595.5
   0.00707926         61725
     0.007087       61854.6
   0.00709475       61984.4
    0.0071025       62114.2
   0.00711025       62244.2
   0.00711799       62374.3
   0.00712574       62504.5
   0.00713349       62634.9
   0.00714124       62765.3
   0.00714898       62895.9
   0.00715673       63026.6
   0.00716448       63157.5
   0.00717223       63288.4
   0.00717997       63419.5
   0.00718772       63550.7
   0.00719547         63682
   0.00720321       63813.4
   0.00721096       63944.9
   0.00721871       64076.6
   0.00722646       64208.4
    0.0072342       64340.3
   0.00724195       64472.3
    0.0072497       64604.5
   0.00725745       64736.7
   0.00726519       64869.1
   0.00727294       65001.6
   0.00728069       65134.2
   0.00728843       65266.9
   0.00729618       65399.8
   0.00730393       65532.8
   0.00731168       65665.9
   0.00731942       65799.1
   0.00732717       65932.4
   0.00733492       66065.8
   0.00734267       66199.4
   0.00735041       66333.1
   0.00735816       66466.9
   0.00736591       66600.8
   0.00737366       66734.9
    0.0073814         66869
   0.00738915       67003.3
    0.0073969       67137.7
   0.00740464       67272.2
   0.00741239       67406.8
   0.00742014       67541.5
   0.00742789       67676.4
   0.00743563       67811.4
   0.00744338       67946.5
   0.00745113       68081.7
   0.00745888         68217
   0.00746662       68352.5
   0.00747437         68488
   0.00748212       68623.7
   0.00748987       68759.5
   0.00749761       68895.4
   0.00750536       69031.4
   0.00751311       69167.6
   0.00752085       69303.8
    0.0075286       69440.2
   0.00753635       69576.7
    0.0075441       69713.3
   0.00755184         69850
   0.00755959       69986.9
   0.00756734       70123.8
   0.00757509       70260.9
   0.00758283       70398.1
   0.00759058       70535.4
   0.00759833       70672.8
   0.00760608       70810.3
   0.00761382       70947.9
   0.00762157       71085.7
   0.00762932       71223.6
   0.00763706       71361.6
   0.00764481       71499.7
   0.00765256       71637.9
   0.00766031       71776.2
   0.00766805       71914.7
    0.0076758       72053.2
   0.00768355       72191.9
    0.0076913       72330.7
   0.00769904       72469.6
   0.00770679       72608.6
   0.00771454       72747.8
   0.00772229         72887
   0.00773003       73026.4
   0.00773778       73165.8
   0.00774553       73305.4
   0.00775327       73445.1
   0.00776102         73585
   0.00776877       73724.9
   0.00777652       73864.9
   0.00778426       74005.1
   0.00779201       74145.3
   0.00779976       74285.7
   0.00780751       74426.2
   0.00781525       74566.8
     0.007823       74707.5
   0.00783075       74848.4
    0.0078385       74989.3
   0.00784624       75130.4
   0.00785399       75271.5
   0.00786174       75412.8
   0.00786948       75554.2
   0.00787723       75695.7
   0.00788498       75837.3
   0.00789273       75979.1
   0.00790047       76120.9
   0.00790822       76262.8
   0.00791597       76404.9
   0.00792372       76547.1
   0.00793146       76689.4
   0.00793921       76831.8
   0.00794696       76974.3
   0.00795471       77116.9
   0.00796245       77259.6
    0.0079702       77402.5
   0.00797795       77545.4
   0.00798569       77688.5
   0.00799344       77831.6
   0.00800119       77974.9
   0.00800894       78118.3
   0.00801668       78261.8
   0.00802443       78405.4
   0.00803218       78549.2
   0.00803993         78693
   0.00804767       78836.9
   0.00805542         78981
   0.00806317       79125.2
   0.00807092       79269.4
   0.00807866       79413.8
   0.00808641       79558.3
   0.00809416       79702.9
    0.0081019       79847.6
   0.00810965       79992.4
    0.0081174       80137.4
   0.00812515       80282.4
   0.00813289       80427.6
   0.00814064       80572.8
   0.00814839       80718.2
   0.00815614       80863.7
   0.00816388       81009.2
   0.00817163       81154.9
   0.00817938       81300.7
   0.00818713       81446.6
   0.00819487       81592.6
   0.00820262       81738.8
   0.00821037         81885
   0.00821811       82031.3
   0.00822586       82177.8
   0.00823361       82324.3