# Probe 0 (0 0 0.006)
# Probe 1 (0 0 0.007)
# Probe 2 (0 0 0.008)
#       Probe             0             1             2
#        Time
  2.38095e-05   7.05175e+06   8.90753e+06   1.96636e+07
   4.7619e-05   1.41039e+07   1.78058e+07   3.93217e+07
  7.14286e-05   2.11631e+07   2.64743e+07   5.89764e+07
  9.52381e-05   2.82024e+07   3.78048e+07   7.86276e+07
  0.000119048   3.51507e+07   3.78392e+07   9.82747e+07
  0.000142857    4.2189e+07   3.78726e+07   1.17917e+08
  0.000166667   5.27356e+07   3.79051e+07   1.37556e+08
