# Probe 0 (0 0 0.006)
# Probe 1 (0 0 0.007)
# Probe 2 (0 0 0.008)
#       Probe             0             1             2
#        Time
  2.38095e-05    1.4566e+07   4.18811e+07   1.56376e+07
   4.7619e-05   6.68293e+07    3.2706e+08   3.12717e+07
  7.14286e-05   1.92972e+08   1.25328e+09   4.69023e+07
  9.52381e-05    4.4082e+08   3.45653e+09   6.25299e+07
  0.000119048   8.69367e+08    7.8228e+09   7.81548e+07
  0.000142857   1.54788e+09   1.54906e+10   9.37775e+07
  0.000166667   2.55468e+09   2.78519e+10   1.09399e+08
  0.000190476    3.9758e+09   4.65532e+10   1.25019e+08
  0.000214286   5.90372e+09   7.34965e+10   1.40639e+08
  0.000238095   8.43614e+09   1.10841e+11   1.56261e+08
  0.000261905   1.16746e+10   1.61003e+11   1.71886e+08
  0.000285714   1.57235e+10    2.2666e+11   1.87516e+08
  0.000309524   2.06893e+10   3.10749e+11   2.03154e+08
  0.000333333   2.66787e+10   4.16473e+11   2.18804e+08
  0.000357143   3.37989e+10   5.47295e+11    2.3447e+08
  0.000380952    4.2156e+10   7.06946e+11   2.50159e+08
  0.000404762   5.18546e+10   8.99422e+11   2.65879e+08
  0.000428571   6.29969e+10   1.12899e+12   2.81637e+08
  0.000452381   7.56828e+10   1.40018e+12   2.97447e+08
   0.00047619   9.00082e+10    1.7178e+12   3.13323e+08
       0.0005   1.06066e+11   2.08692e+12   3.29282e+08
   0.00052381   1.23944e+11   2.51289e+12   3.45346e+08
  0.000547619   1.43727e+11   3.00132e+12   3.61539e+08
  0.000571429   1.65495e+11    3.5581e+12   3.77894e+08
  0.000595238    1.8932e+11   4.18939e+12   3.94445e+08
  0.000619048   2.15273e+11   4.90163e+12   4.11237e+08
  0.000642857   2.43418e+11   5.70152e+12    4.2832e+08
  0.000666667   2.73814e+11   6.59604e+12   4.45752e+08
  0.000690476   3.06512e+11   7.59244e+12   4.63604e+08
  0.000714286   3.41562e+11   8.69824e+12   4.81956e+08
  0.000738095   3.79006e+11   9.92124e+12   5.00898e+08
  0.000761905    4.1888e+11   1.12695e+13    5.2054e+08
  0.000785714   4.61216e+11   1.27513e+13   5.41001e+08
  0.000809524   5.06039e+11   1.43754e+13   5.62422e+08
  0.000833333   5.53372e+11   1.61505e+13    5.8496e+08
  0.000857143   6.03229e+11   1.80857e+13   6.08797e+08
  0.000880952   6.55621e+11   2.01906e+13   6.34134e+08
  0.000904762   7.10554e+11   2.24747e+13   6.61201e+08
  0.000928571    7.6803e+11    2.4948e+13   6.90256e+08
  0.000952381   8.28044e+11   2.76207e+13   7.21588e+08
   0.00097619   8.90588e+11   3.05032e+13   7.55519e+08
        0.001    9.5565e+11   3.36061e+13    7.9241e+08
   0.00102381   1.02321e+12   3.69405e+13   8.32663e+08
   0.00104762   1.09326e+12   4.05176e+13   8.76722e+08
   0.00107143   1.16576e+12   4.43487e+13   9.25081e+08
   0.00109524    1.2407e+12   4.84456e+13   9.78287e+08
   0.00111905   1.31803e+12   5.28203e+13   1.03694e+09
   0.00114286   1.39773e+12   5.74848e+13   1.10171e+09
   0.00116667   1.47976e+12   6.24517e+13   1.17331e+09
   0.00119048   1.56407e+12   6.77335e+13   1.25256e+09
   0.00121429   1.65063e+12   7.33431e+13   1.34033e+09
    0.0012381    1.7394e+12   7.92937e+13   1.43757e+09
    0.0012619   1.83032e+12   8.55985e+13   1.54533e+09
   0.00128571   1.92334e+12   9.22711e+13   1.66477e+09
   0.00130952   2.01842e+12   9.93252e+13   1.79711e+09
   0.00133333    2.1155e+12   1.06775e+14    1.9437e+09
   0.00135714   2.21453e+12   1.14634e+14   2.10603e+09
   0.00138095   2.31545e+12   1.22917e+14   2.28566e+09
   0.00140476   2.41821e+12   1.31639e+14   2.48433e+09
   0.00142857   2.52274e+12   1.40814e+14    2.7039e+09
   0.00145238   2.62899e+12   1.50458e+14   2.94637e+09
   0.00147619   2.73691e+12   1.60585e+14   3.21391e+09
       0.0015   2.84642e+12    1.7121e+14   3.50886e+09
   0.00152381   2.95747e+12    1.8235e+14   3.83373e+09
   0.00154762      3.07e+12    1.9402e+14   4.19121e+09
   0.00157143   3.18395e+12   2.06235e+14   4.58422e+09
   0.00159524   3.29925e+12   2.19011e+14   5.01585e+09
   0.00161905   3.41584e+12   2.32366e+14   5.48945e+09
   0.00164286   3.53367e+12   2.46313e+14   6.00858e+09
   0.00166667   3.65267e+12   2.60872e+14   6.57706e+09
   0.00169048   3.77277e+12   2.76056e+14   7.19896e+09
   0.00171429   3.89393e+12   2.91884e+14   7.87865e+09
    0.0017381   4.01608e+12   3.08372e+14   8.62076e+09
    0.0017619   4.13915e+12   3.25537e+14   9.43025e+09
   0.00178571   4.26309e+12   3.43395e+14   1.03124e+10
   0.00180952   4.38785e+12   3.61965e+14   1.12728e+10
   0.00183333   4.51336e+12   3.81262e+14   1.23174e+10
   0.00185714   4.63956e+12   4.01303e+14   1.34525e+10
   0.00188095   4.76641e+12   4.22108e+14    1.4685e+10
   0.00190476   4.89384e+12   4.43691e+14   1.60218e+10
   0.00192857    5.0218e+12   4.66072e+14   1.74706e+10
   0.00195238   5.15023e+12   4.89267e+14   1.90394e+10
   0.00197619   5.27909e+12   5.13293e+14   2.07366e+10
        0.002   5.40832e+12   5.38169e+14   2.25712e+10
   0.00202381   5.53788e+12   5.63912e+14   2.45527e+10
   0.00204762    5.6677e+12   5.90539e+14    2.6691e+10
   0.00207143   5.79775e+12   6.18068e+14   2.89968e+10
   0.00209524   5.92797e+12   6.46515e+14   3.14813e+10
