# Probe 0 (0 0 0.0079)
#       Probe             0
#        Time
  1.19976e-06   1.25588e-27
  2.63926e-06   2.76533e-27
  4.36652e-06   4.58027e-27
  6.43901e-06   6.76338e-27
  8.92559e-06   9.39049e-27
  1.19089e-05   1.25536e-26
  1.54876e-05   1.63643e-26
  1.97801e-05   2.09586e-26
  2.48462e-05   2.64139e-26
  3.06865e-05   3.27483e-26
  3.72974e-05   3.95322e-26
  4.46827e-05   4.79529e-26
    5.243e-05   5.65946e-26
  6.01774e-05   6.53303e-26
  6.79247e-05   7.41605e-26
   7.5672e-05   8.30856e-26
  8.34193e-05   9.21064e-26
  9.11667e-05   1.01223e-25
   9.8914e-05   1.10437e-25
  0.000106661   1.19748e-25
  0.000114409   1.29157e-25
  0.000122156   1.38664e-25
  0.000129903   1.48271e-25
  0.000137651   1.57977e-25
  0.000145398   1.67783e-25
  0.000153145    1.7769e-25
  0.000160893   1.87699e-25
   0.00016864   1.97809e-25
  0.000176387   2.08022e-25
  0.000184135   2.18337e-25
  0.000191882   2.28757e-25
  0.000199629    2.3928e-25
  0.000207377   2.49909e-25
  0.000215124   2.60642e-25
  0.000222871   2.71482e-25
  0.000230619   2.82428e-25
  0.000238366   2.93481e-25
  0.000246113   3.04641e-25
  0.000253861    3.1591e-25
  0.000261608   3.27287e-25
  0.000269355   3.38774e-25
  0.000277103    3.5037e-25
   0.00028485   3.62077e-25
  0.000292597   3.73895e-25
  0.000300345   3.85824e-25
  0.000308092   3.97865e-25
  0.000315839   4.10019e-25
  0.000323587   4.22286e-25
  0.000331334   4.34667e-25
  0.000339081   4.47162e-25
  0.000346829   4.59772e-25
  0.000354576   4.72498e-25
  0.000362323   4.85339e-25
   0.00037007   4.98297e-25
  0.000377818   5.11372e-25
  0.000385565   5.24564e-25
  0.000393312   5.37875e-25
   0.00040106   5.51304e-25
  0.000408807   5.64853e-25
  0.000416554   5.78521e-25
  0.000424302   5.92309e-25
  0.000432049   6.06219e-25
  0.000439796    6.2025e-25
  0.000447544   6.34403e-25
  0.000455291   6.48678e-25
  0.000463038   6.63077e-25
  0.000470786   6.77598e-25
  0.000478533   6.92245e-25
   0.00048628   7.07015e-25
  0.000494028   7.21911e-25
  0.000501775   7.36933e-25
  0.000509522    7.5208e-25
   0.00051727   7.67355e-25
  0.000525017   7.82757e-25
  0.000532764   7.98286e-25
  0.000540512   8.13944e-25
  0.000548259   8.29731e-25
  0.000556006   8.45647e-25
  0.000563754   8.61694e-25
  0.000571501    8.7787e-25
  0.000579248   8.94178e-25
  0.000586996   9.10617e-25
  0.000594743   9.27187e-25
   0.00060249   9.43891e-25
  0.000610238   9.60727e-25
  0.000617985   9.77697e-25
  0.000625732   9.94801e-25
   0.00063348   1.01204e-24
  0.000641227   1.02941e-24
  0.000648974   1.04692e-24
  0.000656722   1.06457e-24
  0.000664469   1.08235e-24
  0.000672216   1.10027e-24
  0.000679964   1.11832e-24
  0.000687711   1.13652e-24
  0.000695458   1.15485e-24
  0.000703206   1.17332e-24
  0.000710953   1.19193e-24
    0.0007187   1.21069e-24
  0.000726448   1.22958e-24
  0.000734195   1.24861e-24
  0.000741942   1.26778e-24
   0.00074969    1.2871e-24
  0.000757437   1.30656e-24
  0.000765184   1.32616e-24
  0.000772932   1.34591e-24
  0.000780679   1.36579e-24
  0.000788426   1.38583e-24
  0.000796174   1.40601e-24
  0.000803921   1.42633e-24
  0.000811668    1.4468e-24
  0.000819416   1.46741e-24
  0.000827163   1.48818e-24
   0.00083491   1.50908e-24
  0.000842658   1.53014e-24
  0.000850405   1.55135e-24
  0.000858152    1.5727e-24
    0.0008659    1.5942e-24
  0.000873647   1.61585e-24
  0.000881394   1.63765e-24
  0.000889142   1.65961e-24
  0.000896889   1.68171e-24
  0.000904636   1.70396e-24
  0.000912384   1.72637e-24
  0.000920131   1.74892e-24
  0.000927878   1.77163e-24
  0.000935625    1.7945e-24
  0.000943373   1.81751e-24
   0.00095112   1.84068e-24
  0.000958867   1.86401e-24
  0.000966615   1.88749e-24
  0.000974362   1.91112e-24
  0.000982109   1.93491e-24
  0.000989857   1.95886e-24
  0.000997604   1.98296e-24
   0.00100535   2.00722e-24
    0.0010131   2.03163e-24
   0.00102085   2.05621e-24
   0.00102859   2.08094e-24
   0.00103634   2.10583e-24
   0.00104409   2.13088e-24
   0.00105184   2.15609e-24
   0.00105958   2.18145e-24
   0.00106733   2.20698e-24
   0.00107508   2.23267e-24
   0.00108282   2.25852e-24
   0.00109057   2.28453e-24
   0.00109832    2.3107e-24
   0.00110607   2.33704e-24
   0.00111381   2.36353e-24
   0.00112156   2.39019e-24
   0.00112931   2.41701e-24
   0.00113706     2.444e-24
    0.0011448   2.47115e-24
   0.00115255   2.49846e-24
    0.0011603   2.52594e-24
   0.00116805   2.55359e-24
   0.00117579    2.5814e-24
   0.00118354   2.60937e-24
   0.00119129   2.63751e-24
   0.00119903   2.66582e-24
   0.00120678   2.69429e-24
   0.00121453   2.72294e-24
   0.00122228   2.75175e-24
   0.00123002   2.78072e-24
   0.00123777   2.80987e-24
   0.00124552   2.83918e-24
   0.00125327   2.86867e-24
   0.00126101   2.89832e-24
   0.00126876   2.92814e-24
   0.00127651   2.95813e-24
   0.00128426   2.98829e-24
     0.001292   3.01863e-24
   0.00129975   3.04913e-24
    0.0013075   3.07981e-24
   0.00131524   3.11065e-24
   0.00132299   3.14167e-24
   0.00133074   3.17286e-24
   0.00133849   3.20423e-24
   0.00134623   3.23576e-24
   0.00135398   3.26747e-24
   0.00136173   3.29936e-24
   0.00136948   3.33141e-24
   0.00137722   3.36364e-24
   0.00138497   3.39605e-24
   0.00139272   3.42863e-24
   0.00140047   3.46139e-24
   0.00140821   3.49432e-24
   0.00141596   3.52742e-24
   0.00142371   3.56071e-24
   0.00143145   3.59416e-24
    0.0014392    3.6278e-24
   0.00144695   3.66161e-24
    0.0014547    3.6956e-24
   0.00146244   3.72977e-24
   0.00147019   3.76411e-24
   0.00147794   3.79863e-24
   0.00148569   3.83333e-24
   0.00149343   3.86821e-24
   0.00150118   3.90327e-24
   0.00150893    3.9385e-24
   0.00151668   3.97392e-24
   0.00152442   4.00951e-24
   0.00153217   4.04529e-24
   0.00153992   4.08124e-24
   0.00154766   4.11738e-24
   0.00155541   4.15369e-24
   0.00156316   4.19019e-24
   0.00157091   4.22686e-24
   0.00157865   4.26372e-24
    0.0015864   4.30076e-24
   0.00159415   4.33798e-24
    0.0016019   4.37539e-24
   0.00160964   4.41297e-24
   0.00161739   4.45074e-24
   0.00162514   4.48869e-24
   0.00163289   4.52682e-24
   0.00164063   4.56514e-24
   0.00164838   4.60364e-24
   0.00165613   4.64232e-24
   0.00166387   4.68119e-24
   0.00167162   4.72024e-24
   0.00167937   4.75948e-24
   0.00168712   4.79889e-24
   0.00169486    4.8385e-24
   0.00170261   4.87829e-24
   0.00171036   4.91826e-24
   0.00171811   4.95842e-24
   0.00172585   4.99876e-24
    0.0017336   5.03929e-24
   0.00174135   5.08001e-24
   0.00174909   5.12091e-24
   0.00175684     5.162e-24
   0.00176459   5.20327e-24
   0.00177234   5.24473e-24
   0.00178008   5.28638e-24
   0.00178783   5.32821e-24
   0.00179558   5.37024e-24
   0.00180333   5.41244e-24
   0.00181107   5.45484e-24
   0.00181882   5.49742e-24
   0.00182657   5.54019e-24
   0.00183432   5.58315e-24
   0.00184206    5.6263e-24
   0.00184981   5.66963e-24
   0.00185756   5.71316e-24
    0.0018653   5.75687e-24
   0.00187305   5.80077e-24
    0.0018808   5.84486e-24
   0.00188855   5.88914e-24
   0.00189629    5.9336e-24
   0.00190404   5.97826e-24
   0.00191179    6.0231e-24
   0.00191954   6.06814e-24
   0.00192728   6.11336e-24
   0.00193503   6.15878e-24
   0.00194278   6.20438e-24
   0.00195053   6.25018e-24
   0.00195827   6.29616e-24
   0.00196602   6.34234e-24
   0.00197377    6.3887e-24
   0.00198151   6.43526e-24
   0.00198926   6.48201e-24
   0.00199701   6.52894e-24
   0.00200476   6.57607e-24
    0.0020125   6.62339e-24
   0.00202025    6.6709e-24
     0.002028    6.7186e-24
   0.00203575    6.7665e-24
   0.00204349   6.81458e-24
   0.00205124   6.86286e-24
   0.00205899   6.91133e-24
   0.00206674   6.95999e-24
   0.00207448   7.00884e-24
   0.00208223   7.05788e-24
   0.00208998   7.10711e-24
   0.00209772   7.15654e-24
   0.00210547   7.20616e-24
   0.00211322   7.25597e-24
   0.00212097   7.30598e-24
   0.00212871   7.35617e-24
   0.00213646   7.40656e-24
   0.00214421   7.45714e-24
   0.00215196   7.50792e-24
    0.0021597   7.55888e-24
   0.00216745   7.61004e-24
    0.0021752    7.6614e-24
   0.00218295   7.71294e-24
   0.00219069   7.76468e-24
   0.00219844   7.81661e-24
   0.00220619   7.86873e-24
   0.00221393   7.92105e-24
   0.00222168   7.97356e-24
   0.00222943   8.02627e-24
   0.00223718   8.07916e-24
   0.00224492   8.13226e-24
   0.00225267   8.18554e-24
   0.00226042   8.23902e-24
   0.00226817   8.29269e-24
   0.00227591   8.34655e-24
   0.00228366   8.40061e-24
   0.00229141   8.45486e-24
   0.00229916   8.50931e-24
    0.0023069   8.56395e-24
   0.00231465   8.61878e-24
    0.0023224   8.67381e-24
   0.00233014   8.72903e-24
   0.00233789   8.78445e-24
   0.00234564   8.84005e-24
   0.00235339   8.89586e-24
   0.00236113   8.95185e-24
   0.00236888   9.00804e-24
   0.00237663   9.06443e-24
   0.00238438   9.12101e-24
   0.00239212   9.17778e-24
   0.00239987   9.23475e-24
   0.00240762   9.29191e-24
   0.00241537   9.34926e-24
   0.00242311   9.40681e-24
   0.00243086   9.46455e-24
   0.00243861   9.52249e-24
   0.00244635   9.58062e-24
    0.0024541   9.63894e-24
   0.00246185   9.69746e-24
    0.0024696   9.75618e-24
   0.00247734   9.81508e-24
   0.00248509   9.87419e-24
   0.00249284   9.93348e-24
   0.00250059   9.99297e-24
   0.00250833   1.00527e-23
   0.00251608   1.01125e-23
   0.00252383   1.01726e-23
   0.00253158   1.02329e-23
   0.00253932   1.02933e-23
   0.00254707    1.0354e-23
   0.00255482   1.04148e-23
   0.00256256   1.04759e-23
   0.00257031   1.05371e-23
   0.00257806   1.05985e-23
   0.00258581   1.06602e-23
   0.00259355    1.0722e-23
    0.0026013    1.0784e-23
   0.00260905   1.08462e-23
    0.0026168   1.09086e-23
   0.00262454   1.09712e-23
   0.00263229    1.1034e-23
   0.00264004    1.1097e-23
   0.00264779   1.11601e-23
   0.00265553   1.12235e-23
   0.00266328   1.12871e-23
   0.00267103   1.13508e-23
   0.00267877   1.14148e-23
   0.00268652   1.14789e-23
   0.00269427   1.15432e-23
   0.00270202   1.16078e-23
   0.00270976   1.16725e-23
   0.00271751   1.17374e-23
   0.00272526   1.18025e-23
   0.00273301   1.18678e-23
   0.00274075   1.19333e-23
    0.0027485    1.1999e-23
   0.00275625   1.20649e-23
     0.002764    1.2131e-23
   0.00277174   1.21972e-23
   0.00277949   1.22637e-23
   0.00278724   1.23304e-23
   0.00279498   1.23972e-23
   0.00280273   1.24642e-23
   0.00281048   1.25315e-23
   0.00281823   1.25989e-23
   0.00282597   1.26665e-23
   0.00283372   1.27343e-23
   0.00284147   1.28023e-23
