# Probe 0 (0 0 0.0079)
#       Probe             0
#        Time
  1.19976e-06   1.02657e-09
  2.63926e-06   2.26041e-09
  4.36652e-06   3.74396e-09
  6.43901e-06   5.52846e-09
  8.92559e-06   7.67589e-09
  1.19089e-05   1.02615e-08
  1.54876e-05   1.33764e-08
  1.97801e-05   1.71318e-08
  2.48462e-05    2.1591e-08
  3.06865e-05   2.67688e-08
  3.72974e-05   3.24144e-08
  4.46827e-05   3.92404e-08
    5.243e-05   4.63042e-08
  6.01774e-05   5.34446e-08
  6.79247e-05   6.06623e-08
   7.5672e-05   6.79577e-08
  8.34193e-05   7.53312e-08
  9.11667e-05   8.27834e-08
   9.8914e-05   9.03146e-08
  0.000106661   9.79255e-08
  0.000114409   1.05616e-07
  0.000122156   1.13388e-07
  0.000129903    1.2124e-07
  0.000137651   1.29174e-07
  0.000145398   1.37189e-07
  0.000153145   1.45287e-07
  0.000160893   1.53468e-07
   0.00016864   1.61732e-07
  0.000176387    1.7008e-07
  0.000184135   1.78513e-07
  0.000191882   1.87029e-07
  0.000199629   1.95632e-07
  0.000207377   2.04319e-07
  0.000215124   2.13093e-07
  0.000222871   2.21953e-07
  0.000230619   2.30901e-07
  0.000238366   2.39935e-07
  0.000246113   2.49058e-07
  0.000253861   2.58269e-07
  0.000261608   2.67569e-07
  0.000269355   2.76959e-07
  0.000277103   2.86438e-07
   0.00028485   2.96007e-07
  0.000292597   3.05667e-07
  0.000300345   3.15418e-07
  0.000308092   3.25261e-07
  0.000315839   3.35196e-07
  0.000323587   3.45223e-07
  0.000331334   3.55344e-07
  0.000339081   3.65558e-07
  0.000346829   3.75865e-07
  0.000354576   3.86267e-07
  0.000362323   3.96764e-07
   0.00037007   4.07356e-07
  0.000377818   4.18044e-07
  0.000385565   4.28828e-07
  0.000393312   4.39708e-07
   0.00040106   4.50686e-07
  0.000408807   4.61761e-07
  0.000416554   4.72934e-07
  0.000424302   4.84205e-07
  0.000432049   4.95575e-07
  0.000439796   5.07044e-07
  0.000447544   5.18613e-07
  0.000455291   5.30282e-07
  0.000463038   5.42052e-07
  0.000470786   5.53923e-07
  0.000478533   5.65895e-07
   0.00048628   5.77969e-07
  0.000494028   5.90145e-07
  0.000501775   6.02425e-07
  0.000509522   6.14807e-07
   0.00051727   6.27293e-07
  0.000525017   6.39883e-07
  0.000532764   6.52578e-07
  0.000540512   6.65377e-07
  0.000548259   6.78282e-07
  0.000556006   6.91292e-07
  0.000563754   7.04409e-07
  0.000571501   7.17633e-07
  0.000579248   7.30963e-07
  0.000586996   7.44401e-07
  0.000594743   7.57947e-07
   0.00060249   7.71601e-07
  0.000610238   7.85364e-07
  0.000617985   7.99236e-07
  0.000625732   8.13217e-07
   0.00063348   8.27309e-07
  0.000641227   8.41511e-07
  0.000648974   8.55824e-07
  0.000656722   8.70248e-07
  0.000664469   8.84783e-07
  0.000672216   8.99431e-07
  0.000679964   9.14191e-07
  0.000687711   9.29064e-07
  0.000695458    9.4405e-07
  0.000703206    9.5915e-07
  0.000710953   9.74364e-07
    0.0007187   9.89692e-07
  0.000726448   1.00514e-06
  0.000734195   1.02069e-06
  0.000741942   1.03637e-06
   0.00074969   1.05216e-06
  0.000757437   1.06806e-06
  0.000765184   1.08409e-06
  0.000772932   1.10023e-06
  0.000780679   1.11649e-06
  0.000788426   1.13286e-06
  0.000796174   1.14936e-06
  0.000803921   1.16597e-06
  0.000811668    1.1827e-06
  0.000819416   1.19956e-06
  0.000827163   1.21653e-06
   0.00083491   1.23362e-06
  0.000842658   1.25083e-06
  0.000850405   1.26817e-06
  0.000858152   1.28562e-06
    0.0008659    1.3032e-06
  0.000873647    1.3209e-06
  0.000881394   1.33872e-06
  0.000889142   1.35667e-06
  0.000896889   1.37473e-06
  0.000904636   1.39292e-06
  0.000912384   1.41124e-06
  0.000920131   1.42968e-06
  0.000927878   1.44824e-06
  0.000935625   1.46693e-06
  0.000943373   1.48575e-06
   0.00095112   1.50469e-06
  0.000958867   1.52376e-06
  0.000966615   1.54295e-06
  0.000974362   1.56227e-06
  0.000982109   1.58172e-06
  0.000989857   1.60129e-06
  0.000997604     1.621e-06
   0.00100535   1.64083e-06
    0.0010131   1.66079e-06
   0.00102085   1.68087e-06
   0.00102859   1.70109e-06
   0.00103634   1.72144e-06
   0.00104409   1.74191e-06
   0.00105184   1.76252e-06
   0.00105958   1.78326e-06
   0.00106733   1.80413e-06
   0.00107508   1.82513e-06
   0.00108282   1.84626e-06
   0.00109057   1.86752e-06
   0.00109832   1.88892e-06
   0.00110607   1.91044e-06
   0.00111381    1.9321e-06
   0.00112156    1.9539e-06
   0.00112931   1.97582e-06
   0.00113706   1.99788e-06
    0.0011448   2.02008e-06
   0.00115255   2.04241e-06
    0.0011603   2.06487e-06
   0.00116805   2.08747e-06
   0.00117579    2.1102e-06
   0.00118354   2.13307e-06
   0.00119129   2.15608e-06
   0.00119903   2.17922e-06
   0.00120678   2.20249e-06
   0.00121453   2.22591e-06
   0.00122228   2.24946e-06
   0.00123002   2.27315e-06
   0.00123777   2.29697e-06
   0.00124552   2.32094e-06
   0.00125327   2.34504e-06
   0.00126101   2.36928e-06
   0.00126876   2.39366e-06
   0.00127651   2.41818e-06
   0.00128426   2.44283e-06
     0.001292   2.46763e-06
   0.00129975   2.49257e-06
    0.0013075   2.51764e-06
   0.00131524   2.54286e-06
   0.00132299   2.56822e-06
   0.00133074   2.59371e-06
   0.00133849   2.61935e-06
   0.00134623   2.64513e-06
   0.00135398   2.67106e-06
   0.00136173   2.69712e-06
   0.00136948   2.72333e-06
   0.00137722   2.74968e-06
   0.00138497   2.77617e-06
   0.00139272    2.8028e-06
   0.00140047   2.82958e-06
   0.00140821    2.8565e-06
   0.00141596   2.88356e-06
   0.00142371   2.91077e-06
   0.00143145   2.93812e-06
    0.0014392   2.96562e-06
   0.00144695   2.99326e-06
    0.0014547   3.02104e-06
   0.00146244   3.04897e-06
   0.00147019   3.07705e-06
   0.00147794   3.10527e-06
   0.00148569   3.13364e-06
   0.00149343   3.16215e-06
   0.00150118   3.19081e-06
   0.00150893   3.21961e-06
   0.00151668   3.24856e-06
   0.00152442   3.27766e-06
   0.00153217   3.30691e-06
   0.00153992    3.3363e-06
   0.00154766   3.36584e-06
   0.00155541   3.39553e-06
   0.00156316   3.42536e-06
   0.00157091   3.45534e-06
   0.00157865   3.48548e-06
    0.0015864   3.51575e-06
   0.00159415   3.54618e-06
    0.0016019   3.57676e-06
   0.00160964   3.60749e-06
   0.00161739   3.63836e-06
   0.00162514   3.66938e-06
   0.00163289   3.70056e-06
   0.00164063   3.73188e-06
   0.00164838   3.76335e-06
   0.00165613   3.79498e-06
   0.00166387   3.82675e-06
   0.00167162   3.85867e-06
   0.00167937   3.89075e-06
   0.00168712   3.92297e-06
   0.00169486   3.95535e-06
   0.00170261   3.98787e-06
   0.00171036   4.02055e-06
   0.00171811   4.05338e-06
   0.00172585   4.08636e-06
    0.0017336    4.1195e-06
   0.00174135   4.15278e-06
   0.00174909   4.18622e-06
   0.00175684    4.2198e-06
   0.00176459   4.25355e-06
   0.00177234   4.28744e-06
   0.00178008   4.32149e-06
   0.00178783   4.35568e-06
   0.00179558   4.39004e-06
   0.00180333   4.42454e-06
   0.00181107    4.4592e-06
   0.00181882   4.49401e-06
   0.00182657   4.52897e-06
   0.00183432   4.56409e-06
   0.00184206   4.59936e-06
   0.00184981   4.63479e-06
   0.00185756   4.67037e-06
    0.0018653    4.7061e-06
   0.00187305   4.74199e-06
    0.0018808   4.77803e-06
   0.00188855   4.81423e-06
   0.00189629   4.85058e-06
   0.00190404   4.88709e-06
   0.00191179   4.92375e-06
   0.00191954   4.96056e-06
   0.00192728   4.99753e-06
   0.00193503   5.03466e-06
   0.00194278   5.07194e-06
   0.00195053   5.10938e-06
   0.00195827   5.14697e-06
   0.00196602   5.18472e-06
   0.00197377   5.22262e-06
   0.00198151   5.26068e-06
   0.00198926   5.29889e-06
   0.00199701   5.33726e-06
   0.00200476   5.37579e-06
    0.0020125   5.41447e-06
   0.00202025   5.45331e-06
     0.002028   5.49231e-06
   0.00203575   5.53146e-06
   0.00204349   5.57077e-06
   0.00205124   5.61023e-06
   0.00205899   5.64986e-06
   0.00206674   5.68963e-06
   0.00207448   5.72957e-06
   0.00208223   5.76966e-06
   0.00208998   5.80991e-06
   0.00209772   5.85032e-06
   0.00210547   5.89088e-06
   0.00211322    5.9316e-06
   0.00212097   5.97248e-06
   0.00212871   6.01351e-06
   0.00213646    6.0547e-06
   0.00214421   6.09605e-06
   0.00215196   6.13756e-06
    0.0021597   6.17922e-06
   0.00216745   6.22104e-06
    0.0021752   6.26302e-06
   0.00218295   6.30516e-06
   0.00219069   6.34746e-06
   0.00219844   6.38991e-06
   0.00220619   6.43252e-06
   0.00221393   6.47529e-06
   0.00222168   6.51822e-06
   0.00222943    6.5613e-06
   0.00223718   6.60454e-06
   0.00224492   6.64794e-06
   0.00225267    6.6915e-06
   0.00226042   6.73522e-06
   0.00226817   6.77909e-06
   0.00227591   6.82313e-06
   0.00228366   6.86732e-06
   0.00229141   6.91167e-06
   0.00229916   6.95618e-06
    0.0023069   7.00084e-06
   0.00231465   7.04567e-06
    0.0023224   7.09065e-06
   0.00233014   7.13579e-06
   0.00233789   7.18109e-06
   0.00234564   7.22655e-06
   0.00235339   7.27217e-06
   0.00236113   7.31794e-06
   0.00236888   7.36388e-06
   0.00237663   7.40997e-06
   0.00238438   7.45622e-06
   0.00239212   7.50263e-06
   0.00239987    7.5492e-06
   0.00240762   7.59593e-06
   0.00241537   7.64281e-06
   0.00242311   7.68986e-06
   0.00243086   7.73706e-06
   0.00243861   7.78442e-06
   0.00244635   7.83194e-06
    0.0024541   7.87962e-06
   0.00246185   7.92746e-06
    0.0024696   7.97546e-06
   0.00247734   8.02361e-06
   0.00248509   8.07193e-06
   0.00249284    8.1204e-06
   0.00250059   8.16903e-06
   0.00250833   8.21782e-06
   0.00251608   8.26677e-06
   0.00252383   8.31587e-06
   0.00253158   8.36514e-06
   0.00253932   8.41456e-06
   0.00254707   8.46414e-06
   0.00255482   8.51388e-06
   0.00256256   8.56378e-06
   0.00257031   8.61384e-06
   0.00257806   8.66406e-06
   0.00258581   8.71443e-06
   0.00259355   8.76497e-06
    0.0026013   8.81566e-06
   0.00260905   8.86651e-06
    0.0026168   8.91752e-06
   0.00262454   8.96869e-06
   0.00263229   9.02001e-06
   0.00264004    9.0715e-06
   0.00264779   9.12314e-06
   0.00265553   9.17494e-06
   0.00266328    9.2269e-06
   0.00267103   9.27902e-06
   0.00267877   9.33129e-06
   0.00268652   9.38373e-06
   0.00269427   9.43632e-06
   0.00270202   9.48907e-06
   0.00270976   9.54198e-06
   0.00271751   9.59504e-06
   0.00272526   9.64827e-06
   0.00273301   9.70165e-06
   0.00274075   9.75519e-06
    0.0027485   9.80889e-06
   0.00275625   9.86275e-06
     0.002764   9.91676e-06
   0.00277174   9.97093e-06
   0.00277949   1.00253e-05
   0.00278724   1.00797e-05
   0.00279498   1.01344e-05
   0.00280273   1.01892e-05
   0.00281048   1.02442e-05
   0.00281823   1.02993e-05
   0.00282597   1.03545e-05
   0.00283372     1.041e-05
   0.00284147   1.04656e-05
