# Probe 0 (0 0 0.006)
# Probe 1 (0 0 0.007)
# Probe 2 (0 0 0.008)
#       Probe             0             1             2
#        Time
  2.38095e-05   4.39452e+07   6.54672e+08   6.99325e+06
   4.7619e-05   4.22573e+09   4.13389e+11   1.39854e+07
  7.14286e-05   9.28541e+10   2.01022e+13   2.09804e+07
  9.52381e-05   9.66489e+11   3.53805e+14    2.8024e+07
  0.000119048   6.36631e+12     2.525e+15   3.62967e+07
  0.000142857   3.09416e+13   1.26933e+16   8.56378e+07
  0.000166667   1.30214e+14   5.00012e+16   4.80093e+09
