# Probe 0 (0 0 0.006)
# Probe 1 (0 0 0.007)
# Probe 2 (0 0 0.008)
#       Probe             0             1             2
#        Time
  3.84615e-05   1.36914e+06   1.81908e+06   5.81166e+06
  7.69231e-05   2.73813e+06   3.63819e+06   1.16217e+07
  0.000115385     4.107e+06   5.45733e+06     1.743e+07
  0.000153846   5.47573e+06   7.27649e+06   2.32366e+07
  0.000192308   6.84433e+06   9.09567e+06   2.90416e+07
  0.000230769    8.2128e+06   1.09149e+07   3.48449e+07
  0.000269231   9.58114e+06   1.27341e+07   4.06465e+07
  0.000307692   1.09494e+07   1.45534e+07   4.64465e+07
  0.000346154   1.23175e+07   1.63727e+07   5.22449e+07
  0.000384615   1.36854e+07    1.8192e+07   5.80415e+07
  0.000423077   1.50533e+07   2.00113e+07   6.38366e+07
  0.000461538   1.64211e+07   2.18306e+07     6.963e+07
       0.0005   1.77887e+07     2.365e+07   7.54217e+07
  0.000538462   1.91563e+07   2.54694e+07   8.12118e+07
  0.000576923   2.05237e+07   2.72888e+07   8.70003e+07
  0.000615385   2.18911e+07   2.91082e+07   9.27871e+07
  0.000653846   2.32584e+07   3.09276e+07   9.85723e+07
  0.000692308   2.46256e+07   3.27471e+07   1.04356e+08
  0.000730769   2.59928e+07   3.45665e+07   1.10138e+08
  0.000769231   2.73598e+07    3.6386e+07   1.15918e+08
  0.000807692   2.87269e+07   3.82055e+07   1.21697e+08
  0.000846154   3.00938e+07    4.0025e+07   1.27474e+08
  0.000884615   3.14608e+07   4.18445e+07   1.33249e+08
  0.000923077   3.28277e+07   4.36641e+07   1.39023e+08
  0.000961538   3.41946e+07   4.54836e+07   1.44796e+08
        0.001   3.55615e+07   4.73032e+07   1.50566e+08
   0.00103846   3.69284e+07   4.91227e+07   1.56335e+08
   0.00107692   3.82953e+07   5.09423e+07   1.62103e+08
   0.00111538   3.96622e+07   5.27619e+07   1.67869e+08
   0.00115385   4.10292e+07   5.45814e+07   1.73633e+08
   0.00119231   4.23962e+07    5.6401e+07   1.79396e+08
   0.00123077   4.37633e+07   5.82206e+07   1.85157e+08
   0.00126923   4.51304e+07   6.00402e+07   1.90916e+08
   0.00130769   4.64977e+07   6.18598e+07   1.96674e+08
   0.00134615   4.78651e+07   6.36794e+07   2.02431e+08
   0.00138462   4.92326e+07    6.5499e+07   2.08185e+08
   0.00142308   5.06002e+07   6.73186e+07   2.13939e+08
   0.00146154   5.19681e+07   6.91382e+07    2.1969e+08
       0.0015   5.33361e+07   7.09577e+07    2.2544e+08
   0.00153846   5.47043e+07   7.27773e+07   2.31189e+08
   0.00157692   5.60727e+07   7.45969e+07   2.36936e+08
   0.00161538   5.74414e+07   7.64165e+07   2.42681e+08
   0.00165385   5.88104e+07    7.8236e+07   2.48425e+08
   0.00169231   6.01797e+07   8.00556e+07   2.54168e+08
   0.00173077   6.15493e+07   8.18751e+07   2.59908e+08
   0.00176923   6.29192e+07   8.36947e+07   2.65648e+08
   0.00180769   6.42895e+07   8.55142e+07   2.71385e+08
   0.00184615   6.56602e+07   8.73337e+07   2.77122e+08
   0.00188462   6.70314e+07   8.91532e+07   2.82856e+08
   0.00192308    6.8403e+07   9.09726e+07   2.88589e+08
   0.00196154   6.97751e+07   9.27921e+07   2.94321e+08
        0.002   7.11477e+07   9.46115e+07   3.00051e+08
   0.00203846   7.25209e+07   9.64309e+07    3.0578e+08
   0.00207692   7.38947e+07   9.82503e+07   3.11507e+08
   0.00211538   7.52691e+07    1.0007e+08   3.17232e+08
   0.00215385   7.66442e+07   1.01889e+08   3.22956e+08
   0.00219231     7.802e+07   1.03708e+08   3.28679e+08
   0.00223077   7.93966e+07   1.05528e+08     3.344e+08
   0.00226923   8.07739e+07   1.07347e+08   3.40119e+08
   0.00230769    8.2152e+07   1.09166e+08   3.45837e+08
   0.00234615   8.35311e+07   1.10985e+08   3.51553e+08
   0.00238462    8.4911e+07   1.12804e+08   3.57268e+08
   0.00242308    8.6292e+07   1.14623e+08   3.62982e+08
   0.00246154   8.76739e+07   1.16442e+08   3.68694e+08
       0.0025   8.90569e+07   1.18262e+08   3.74404e+08
   0.00253846    9.0441e+07   1.20081e+08   3.80113e+08
   0.00257692   9.18263e+07   1.21899e+08   3.85821e+08
   0.00261538   9.32129e+07   1.23718e+08   3.91527e+08
   0.00265385   9.46007e+07   1.25537e+08   3.97232e+08
   0.00269231   9.59898e+07   1.27356e+08   4.02935e+08
   0.00273077   9.73804e+07   1.29175e+08   4.08637e+08
   0.00276923   9.87724e+07   1.30993e+08   4.14337e+08
   0.00280769   1.00166e+08   1.32812e+08   4.20035e+08
   0.00284615   1.01561e+08   1.34631e+08   4.25733e+08
   0.00288462   1.02958e+08   1.36449e+08   4.31429e+08
   0.00292308   1.04356e+08   1.38268e+08   4.37123e+08
   0.00296154   1.05757e+08   1.40086e+08   4.42816e+08
        0.003   1.07159e+08   1.41905e+08   4.48507e+08
   0.00303846   1.08563e+08   1.43723e+08   4.54197e+08
   0.00307692   1.09969e+08   1.45541e+08   4.59886e+08
   0.00311538   1.11377e+08   1.47359e+08   4.65573e+08
   0.00315385   1.12788e+08   1.49177e+08   4.71259e+08
   0.00319231     1.142e+08   1.50995e+08   4.76943e+08
   0.00323077   1.15615e+08   1.52813e+08   4.82626e+08
   0.00326923   1.17033e+08   1.54631e+08   4.88307e+08
   0.00330769   1.18453e+08   1.56449e+08   4.93987e+08
   0.00334615   1.19875e+08   1.58267e+08   4.99666e+08
   0.00338462   1.21301e+08   1.60084e+08   5.05343e+08
   0.00342308   1.22729e+08   1.61902e+08   5.11019e+08
   0.00346154    1.2416e+08   1.63719e+08   5.16693e+08
       0.0035   1.25594e+08   1.65537e+08   5.22366e+08
   0.00353846   1.27031e+08   1.67354e+08   5.28038e+08
   0.00357692   1.28471e+08   1.69171e+08   5.33708e+08
   0.00361538   1.29915e+08   1.70988e+08   5.39377e+08
   0.00365385   1.31362e+08   1.72805e+08   5.45044e+08
   0.00369231   1.32813e+08   1.74622e+08    5.5071e+08
   0.00373077   1.34267e+08   1.76439e+08   5.56374e+08
   0.00376923   1.35725e+08   1.78256e+08   5.62037e+08
   0.00380769   1.37187e+08   1.80073e+08   5.67699e+08
   0.00384615   1.38653e+08   1.81889e+08    5.7336e+08
   0.00388462   1.40123e+08   1.83706e+08   5.79019e+08
   0.00392308   1.41597e+08   1.85522e+08   5.84676e+08
   0.00396154   1.43076e+08   1.87338e+08   5.90332e+08
        0.004   1.44559e+08   1.89155e+08   5.95987e+08
   0.00403846   1.46047e+08   1.90971e+08   6.01641e+08
   0.00407692    1.4754e+08   1.92787e+08   6.07293e+08
   0.00411538   1.49038e+08   1.94602e+08   6.12944e+08
   0.00415385   1.50541e+08   1.96418e+08   6.18593e+08
   0.00419231   1.52049e+08   1.98234e+08   6.24241e+08
   0.00423077   1.53563e+08   2.00049e+08   6.29888e+08
   0.00426923   1.55082e+08   2.01865e+08   6.35533e+08
   0.00430769   1.56607e+08    2.0368e+08   6.41177e+08
   0.00434615   1.58138e+08   2.05495e+08    6.4682e+08
   0.00438462   1.59674e+08    2.0731e+08   6.52461e+08
   0.00442308   1.61217e+08   2.09125e+08   6.58101e+08
   0.00446154   1.62767e+08    2.1094e+08    6.6374e+08
       0.0045   1.64323e+08   2.12755e+08   6.69377e+08
   0.00453846   1.65886e+08    2.1457e+08   6.75013e+08
   0.00457692   1.67455e+08   2.16384e+08   6.80647e+08
   0.00461538   1.69032e+08   2.18199e+08   6.86281e+08
   0.00465385   1.70616e+08   2.20013e+08   6.91913e+08
   0.00469231   1.72208e+08   2.21827e+08   6.97543e+08
   0.00473077   1.73808e+08   2.23641e+08   7.03173e+08
   0.00476923   1.75415e+08   2.25455e+08   7.08801e+08
   0.00480769    1.7703e+08   2.27269e+08   7.14427e+08
   0.00484615   1.78654e+08   2.29083e+08   7.20053e+08
   0.00488462   1.80286e+08   2.30897e+08   7.25677e+08
   0.00492308   1.81927e+08   2.32711e+08   7.31299e+08
   0.00496154   1.83577e+08   2.34524e+08   7.36921e+08
        0.005   1.85237e+08   2.36338e+08   7.42541e+08
   0.00503846   1.86905e+08   2.38151e+08    7.4816e+08
   0.00507692   1.88584e+08   2.39964e+08   7.53777e+08
   0.00511538   1.90272e+08   2.41777e+08   7.59394e+08
   0.00515385    1.9197e+08   2.43591e+08   7.65009e+08
   0.00519231   1.93679e+08   2.45404e+08   7.70622e+08
   0.00523077   1.95399e+08   2.47217e+08   7.76235e+08
   0.00526923   1.97129e+08   2.49029e+08   7.81846e+08
   0.00530769   1.98871e+08   2.50842e+08   7.87456e+08
   0.00534615   2.00624e+08   2.52655e+08   7.93064e+08
   0.00538462   2.02388e+08   2.54468e+08   7.98672e+08
   0.00542308   2.04165e+08   2.56281e+08   8.04278e+08
   0.00546154   2.05954e+08   2.58093e+08   8.09883e+08
       0.0055   2.07755e+08   2.59906e+08   8.15486e+08
   0.00553846    2.0957e+08   2.61719e+08   8.21088e+08
   0.00557692   2.11397e+08   2.63531e+08   8.26689e+08
   0.00561538   2.13238e+08   2.65344e+08   8.32289e+08
   0.00565385   2.15092e+08   2.67156e+08   8.37887e+08
   0.00569231   2.16961e+08   2.68969e+08   8.43485e+08
   0.00573077   2.18844e+08   2.70782e+08   8.49081e+08
   0.00576923   2.20741e+08   2.72594e+08   8.54675e+08
   0.00580769   2.22653e+08   2.74407e+08   8.60269e+08
   0.00584615   2.24581e+08    2.7622e+08   8.65861e+08
   0.00588462   2.26524e+08   2.78032e+08   8.71452e+08
   0.00592308   2.28483e+08   2.79845e+08   8.77042e+08
   0.00596154   2.30459e+08   2.81658e+08    8.8263e+08
        0.006   2.32451e+08   2.83471e+08   8.88218e+08
   0.00603846    2.3446e+08   2.85284e+08   8.93804e+08
   0.00607692   2.36486e+08   2.87098e+08   8.99389e+08
   0.00611538    2.3853e+08   2.88911e+08   9.04972e+08
   0.00615385   2.40592e+08   2.90725e+08   9.10555e+08
   0.00619231   2.42672e+08   2.92539e+08   9.16136e+08
   0.00623077   2.44771e+08   2.94353e+08   9.21716e+08
   0.00626923   2.46889e+08   2.96167e+08   9.27295e+08
   0.00630769   2.49026e+08   2.97981e+08   9.32872e+08
   0.00634615   2.51184e+08   2.99796e+08   9.38449e+08
   0.00638462   2.53361e+08   3.01611e+08   9.44024e+08
   0.00642308   2.55559e+08   3.03426e+08   9.49598e+08
   0.00646154   2.57779e+08   3.05242e+08   9.55171e+08
       0.0065   2.60019e+08   3.07058e+08   9.60742e+08
   0.00653846   2.62281e+08   3.08874e+08   9.66313e+08
   0.00657692   2.64565e+08    3.1069e+08   9.71882e+08
   0.00661538   2.66872e+08   3.12507e+08    9.7745e+08
   0.00665385   2.69202e+08   3.14325e+08   9.83017e+08
   0.00669231   2.71555e+08   3.16143e+08   9.88582e+08
   0.00673077   2.73932e+08   3.17961e+08   9.94147e+08
   0.00676923   2.76333e+08    3.1978e+08    9.9971e+08
   0.00680769   2.78758e+08     3.216e+08   1.00527e+09
   0.00684615   2.81208e+08    3.2342e+08   1.01083e+09
   0.00688462   2.83684e+08   3.25241e+08   1.01639e+09
   0.00692308   2.86185e+08   3.27062e+08   1.02195e+09
   0.00696154   2.88713e+08   3.28884e+08   1.02751e+09
        0.007   2.91267e+08   3.30707e+08   1.03307e+09
   0.00703846   2.93848e+08    3.3253e+08   1.03862e+09
   0.00707692   2.96456e+08   3.34355e+08   1.04417e+09
   0.00711538   2.99092e+08    3.3618e+08   1.04973e+09
   0.00715385   3.01756e+08   3.38006e+08   1.05528e+09
   0.00719231   3.04449e+08   3.39833e+08   1.06083e+09
   0.00723077    3.0717e+08   3.41661e+08   1.06638e+09
   0.00726923   3.09921e+08    3.4349e+08   1.07193e+09
   0.00730769   3.12701e+08    3.4532e+08   1.07747e+09
   0.00734615   3.15511e+08   3.47151e+08   1.08302e+09
   0.00738462   3.18352e+08   3.48983e+08   1.08856e+09
   0.00742308   3.21223e+08   3.50817e+08   1.09411e+09
   0.00746154   3.24125e+08   3.52652e+08   1.09965e+09
       0.0075   3.27059e+08   3.54488e+08   1.10519e+09
   0.00753846   3.30025e+08   3.56325e+08   1.11073e+09
   0.00757692   3.33022e+08   3.58164e+08   1.11627e+09
   0.00761538   3.36052e+08   3.60005e+08   1.12181e+09
   0.00765385   3.39114e+08   3.61847e+08   1.12735e+09
   0.00769231    3.4221e+08    3.6369e+08   1.13288e+09
   0.00773077   3.45338e+08   3.65535e+08   1.13842e+09
   0.00776923     3.485e+08   3.67382e+08   1.14395e+09
   0.00780769   3.51696e+08   3.69231e+08   1.14948e+09
   0.00784615   3.54926e+08   3.71082e+08   1.15501e+09
   0.00788462   3.58189e+08   3.72934e+08   1.16054e+09
   0.00792308   3.61487e+08   3.74789e+08   1.16607e+09
   0.00796154   3.64819e+08   3.76646e+08    1.1716e+09
        0.008   3.68186e+08   3.78505e+08   1.17713e+09
   0.00803846   3.71588e+08   3.80366e+08   1.18266e+09
   0.00807692   3.75024e+08    3.8223e+08   1.18818e+09
   0.00811538   3.78496e+08   3.84096e+08    1.1937e+09
   0.00815385   3.82002e+08   3.85964e+08   1.19923e+09
   0.00819231   3.85543e+08   3.87835e+08   1.20475e+09
   0.00823077   3.89119e+08   3.89709e+08   1.21027e+09
   0.00826923    3.9273e+08   3.91586e+08   1.21579e+09
   0.00830769   3.96376e+08   3.93465e+08   1.22131e+09
   0.00834615   4.00056e+08   3.95348e+08   1.22682e+09
   0.00838462   4.03771e+08   3.97234e+08   1.23234e+09
   0.00842308   4.07521e+08   3.99122e+08   1.23785e+09
   0.00846154   4.11304e+08   4.01014e+08   1.24337e+09
       0.0085   4.15122e+08    4.0291e+08   1.24888e+09
   0.00853846   4.18973e+08   4.04809e+08   1.25439e+09
   0.00857692   4.22858e+08   4.06712e+08    1.2599e+09
   0.00861538   4.26776e+08   4.08618e+08   1.26541e+09
   0.00865385   4.30726e+08   4.10528e+08   1.27092e+09
   0.00869231   4.34709e+08   4.12442e+08   1.27643e+09
   0.00873077   4.38723e+08   4.14361e+08   1.28194e+09
   0.00876923   4.42769e+08   4.16283e+08   1.28744e+09
   0.00880769   4.46845e+08    4.1821e+08   1.29295e+09
   0.00884615   4.50951e+08   4.20142e+08   1.29845e+09
   0.00888462   4.55087e+08   4.22078e+08   1.30395e+09
   0.00892308   4.59251e+08   4.24019e+08   1.30946e+09
   0.00896154   4.63444e+08   4.25964e+08   1.31496e+09
        0.009   4.67663e+08   4.27915e+08   1.32045e+09
   0.00903846   4.71909e+08   4.29871e+08   1.32595e+09
   0.00907692   4.76181e+08   4.31833e+08   1.33145e+09
   0.00911538   4.80477e+08     4.338e+08   1.33695e+09
   0.00915385   4.84796e+08   4.35772e+08   1.34244e+09
   0.00919231   4.89138e+08   4.37751e+08   1.34794e+09
   0.00923077   4.93502e+08   4.39735e+08   1.35343e+09
   0.00926923   4.97886e+08   4.41725e+08   1.35892e+09
   0.00930769    5.0229e+08   4.43722e+08   1.36441e+09
   0.00934615   5.06711e+08   4.45726e+08    1.3699e+09
   0.00938462    5.1115e+08   4.47736e+08   1.37539e+09
   0.00942308   5.15604e+08   4.49753e+08   1.38088e+09
   0.00946154   5.20072e+08   4.51777e+08   1.38637e+09
       0.0095   5.24553e+08   4.53808e+08   1.39185e+09
   0.00953846   5.29046e+08   4.55847e+08   1.39734e+09
   0.00957692   5.33548e+08   4.57893e+08   1.40282e+09
   0.00961538    5.3806e+08   4.59947e+08   1.40831e+09
   0.00965385   5.42578e+08   4.62009e+08   1.41379e+09
   0.00969231   5.47102e+08    4.6408e+08   1.41927e+09
   0.00973077    5.5163e+08   4.66159e+08   1.42475e+09
   0.00976923    5.5616e+08   4.68246e+08   1.43023e+09
   0.00980769   5.60691e+08   4.70343e+08   1.43571e+09
   0.00984615   5.65221e+08   4.72448e+08   1.44119e+09
   0.00988462   5.69748e+08   4.74563e+08   1.44666e+09
   0.00992308   5.74271e+08   4.76687e+08   1.45214e+09
   0.00996154   5.78788e+08   4.78822e+08   1.45761e+09
         0.01   5.83298e+08   4.80966e+08   1.46309e+09
    0.0100385   5.87797e+08    4.8312e+08   1.46856e+09
    0.0100769   5.92286e+08   4.85285e+08   1.47403e+09
    0.0101154   5.96762e+08   4.87461e+08    1.4795e+09
    0.0101538   6.01222e+08   4.89648e+08   1.48497e+09
    0.0101923   6.05667e+08   4.91846e+08   1.49044e+09
    0.0102308   6.10093e+08   4.94056e+08   1.49591e+09
    0.0102692   6.14499e+08   4.96277e+08   1.50137e+09
    0.0103077   6.18883e+08   4.98511e+08   1.50684e+09
    0.0103462   6.23243e+08   5.00757e+08    1.5123e+09
    0.0103846   6.27578e+08   5.03015e+08   1.51777e+09
    0.0104231   6.31886e+08   5.05287e+08   1.52323e+09
    0.0104615   6.36165e+08   5.07571e+08   1.52869e+09
       0.0105   6.40414e+08   5.09869e+08   1.53415e+09
    0.0105385   6.44631e+08   5.12181e+08   1.53961e+09
    0.0105769   6.48814e+08   5.14507e+08   1.54507e+09
    0.0106154   6.52962e+08   5.16847e+08   1.55053e+09
    0.0106538   6.57073e+08   5.19202e+08   1.55599e+09
    0.0106923   6.61145e+08   5.21572e+08   1.56144e+09
    0.0107308   6.65178e+08   5.23957e+08    1.5669e+09
    0.0107692   6.69169e+08   5.26358e+08   1.57235e+09
    0.0108077   6.73117e+08   5.28775e+08   1.57781e+09
    0.0108462   6.77021e+08   5.31208e+08   1.58326e+09
    0.0108846    6.8088e+08   5.33658e+08   1.58871e+09
    0.0109231   6.84691e+08   5.36124e+08   1.59416e+09
    0.0109615   6.88455e+08   5.38608e+08   1.59961e+09
        0.011    6.9217e+08   5.41109e+08   1.60506e+09
    0.0110385   6.95834e+08   5.43628e+08   1.61051e+09
    0.0110769   6.99447e+08   5.46165e+08   1.61596e+09
    0.0111154   7.03008e+08   5.48721e+08    1.6214e+09
    0.0111538   7.06515e+08   5.51296e+08   1.62685e+09
    0.0111923   7.09968e+08    5.5389e+08   1.63229e+09
    0.0112308   7.13366e+08   5.56503e+08   1.63774e+09
    0.0112692   7.16708e+08   5.59137e+08   1.64318e+09
    0.0113077   7.19994e+08   5.61791e+08   1.64862e+09
    0.0113462   7.23222e+08   5.64465e+08   1.65406e+09
    0.0113846   7.26393e+08   5.67161e+08    1.6595e+09
    0.0114231   7.29506e+08   5.69878e+08   1.66494e+09
    0.0114615   7.32559e+08   5.72616e+08   1.67038e+09
       0.0115   7.35554e+08   5.75377e+08   1.67582e+09
    0.0115385   7.38489e+08    5.7816e+08   1.68125e+09
    0.0115769   7.41365e+08   5.80966e+08   1.68669e+09
    0.0116154    7.4418e+08   5.83795e+08   1.69213e+09
    0.0116538   7.46936e+08   5.86647e+08   1.69756e+09
    0.0116923   7.49631e+08   5.89523e+08   1.70299e+09
    0.0117308   7.52267e+08   5.92423e+08   1.70842e+09
    0.0117692   7.54842e+08   5.95348e+08   1.71386e+09
    0.0118077   7.57357e+08   5.98298e+08   1.71929e+09
    0.0118462   7.59812e+08   6.01273e+08   1.72472e+09
    0.0118846   7.62208e+08   6.04273e+08   1.73014e+09
    0.0119231   7.64544e+08     6.073e+08   1.73557e+09
    0.0119615   7.66821e+08   6.10352e+08     1.741e+09
        0.012    7.6904e+08   6.13432e+08   1.74643e+09
    0.0120385     7.712e+08   6.16538e+08   1.75185e+09
    0.0120769   7.73302e+08   6.19671e+08   1.75728e+09
    0.0121154   7.75347e+08   6.22832e+08    1.7627e+09
    0.0121538   7.77335e+08   6.26021e+08   1.76812e+09
    0.0121923   7.79267e+08   6.29237e+08   1.77354e+09
    0.0122308   7.81144e+08   6.32483e+08   1.77897e+09
    0.0122692   7.82965e+08   6.35757e+08   1.78439e+09
    0.0123077   7.84732e+08    6.3906e+08   1.78981e+09
    0.0123462   7.86446e+08   6.42392e+08   1.79522e+09
    0.0123846   7.88107e+08   6.45754e+08   1.80064e+09
    0.0124231   7.89717e+08   6.49146e+08   1.80606e+09
    0.0124615   7.91275e+08   6.52568e+08   1.81147e+09
       0.0125   7.92783e+08    6.5602e+08   1.81689e+09
    0.0125385   7.94242e+08   6.59503e+08    1.8223e+09
    0.0125769   7.95652e+08   6.63017e+08   1.82772e+09
    0.0126154   7.97015e+08   6.66561e+08   1.83313e+09
    0.0126538   7.98331e+08   6.70137e+08   1.83854e+09
    0.0126923   7.99601e+08   6.73744e+08   1.84395e+09
    0.0127308   8.00827e+08   6.77383e+08   1.84936e+09
    0.0127692   8.02009e+08   6.81054e+08   1.85477e+09
    0.0128077   8.03149e+08   6.84756e+08   1.86018e+09
    0.0128462   8.04247e+08    6.8849e+08   1.86559e+09
    0.0128846   8.05304e+08   6.92257e+08     1.871e+09
    0.0129231   8.06321e+08   6.96056e+08    1.8764e+09
    0.0129615     8.073e+08   6.99887e+08   1.88181e+09
        0.013    8.0824e+08    7.0375e+08   1.88722e+09
    0.0130385   8.09145e+08   7.07646e+08   1.89262e+09
    0.0130769   8.10013e+08   7.11574e+08   1.89802e+09
    0.0131154   8.10847e+08   7.15534e+08   1.90342e+09
    0.0131538   8.11647e+08   7.19527e+08   1.90883e+09
    0.0131923   8.12414e+08   7.23553e+08   1.91423e+09
    0.0132308   8.13149e+08    7.2761e+08   1.91963e+09
    0.0132692   8.13854e+08     7.317e+08   1.92503e+09
    0.0133077   8.14529e+08   7.35823e+08   1.93043e+09
    0.0133462   8.15175e+08   7.39977e+08   1.93582e+09
    0.0133846   8.15793e+08   7.44163e+08   1.94122e+09
    0.0134231   8.16384e+08   7.48381e+08   1.94662e+09
    0.0134615   8.16948e+08   7.52631e+08   1.95201e+09
       0.0135   8.17488e+08   7.56912e+08   1.95741e+09
    0.0135385   8.18003e+08   7.61224e+08    1.9628e+09
    0.0135769   8.18495e+08   7.65568e+08   1.96819e+09
    0.0136154   8.18964e+08   7.69942e+08   1.97359e+09
    0.0136538   8.19411e+08   7.74346e+08   1.97898e+09
    0.0136923   8.19837e+08   7.78781e+08   1.98437e+09
    0.0137308   8.20243e+08   7.83245e+08   1.98976e+09
    0.0137692   8.20629e+08   7.87738e+08   1.99515e+09
    0.0138077   8.20997e+08   7.92261e+08   2.00054e+09
    0.0138462   8.21347e+08   7.96812e+08   2.00592e+09
    0.0138846   8.21679e+08   8.01391e+08   2.01131e+09
    0.0139231   8.21995e+08   8.05997e+08    2.0167e+09
    0.0139615   8.22296e+08   8.10631e+08   2.02208e+09
        0.014   8.22581e+08   8.15292e+08   2.02747e+09
    0.0140385   8.22851e+08   8.19978e+08   2.03285e+09
    0.0140769   8.23107e+08    8.2469e+08   2.03823e+09
    0.0141154   8.23351e+08   8.29427e+08   2.04362e+09
    0.0141538   8.23581e+08   8.34188e+08     2.049e+09
    0.0141923   8.23799e+08   8.38973e+08   2.05438e+09
    0.0142308   8.24006e+08    8.4378e+08   2.05976e+09
    0.0142692   8.24201e+08    8.4861e+08   2.06514e+09
    0.0143077   8.24386e+08   8.53462e+08   2.07052e+09
    0.0143462   8.24561e+08   8.58334e+08    2.0759e+09
    0.0143846   8.24726e+08   8.63226e+08   2.08127e+09
    0.0144231   8.24882e+08   8.68137e+08   2.08665e+09
    0.0144615   8.25029e+08   8.73066e+08   2.09203e+09
       0.0145   8.25168e+08   8.78013e+08    2.0974e+09
    0.0145385     8.253e+08   8.82977e+08   2.10278e+09
    0.0145769   8.25423e+08   8.87956e+08   2.10815e+09
    0.0146154    8.2554e+08   8.92951e+08   2.11352e+09
    0.0146538   8.25649e+08   8.97959e+08    2.1189e+09
    0.0146923   8.25753e+08    9.0298e+08   2.12427e+09
    0.0147308    8.2585e+08   9.08013e+08   2.12964e+09
    0.0147692   8.25941e+08   9.13057e+08   2.13501e+09
    0.0148077   8.26027e+08   9.18111e+08   2.14038e+09
    0.0148462   8.26108e+08   9.23174e+08   2.14575e+09
    0.0148846   8.26184e+08   9.28245e+08   2.15112e+09
    0.0149231   8.26256e+08   9.33323e+08   2.15648e+09
    0.0149615   8.26323e+08   9.38406e+08   2.16185e+09
        0.015   8.26385e+08   9.43494e+08   2.16722e+09
    0.0150385   8.26444e+08   9.48586e+08   2.17258e+09
    0.0150769   8.26499e+08    9.5368e+08   2.17795e+09
    0.0151154   8.26551e+08   9.58776e+08   2.18331e+09
    0.0151538     8.266e+08   9.63872e+08   2.18867e+09
    0.0151923   8.26645e+08   9.68967e+08   2.19404e+09
    0.0152308   8.26687e+08   9.74059e+08    2.1994e+09
    0.0152692   8.26727e+08   9.79149e+08   2.20476e+09
    0.0153077   8.26764e+08   9.84234e+08   2.21012e+09
    0.0153462   8.26799e+08   9.89314e+08   2.21548e+09
    0.0153846   8.26831e+08   9.94387e+08   2.22084e+09
    0.0154231   8.26862e+08   9.99452e+08    2.2262e+09
    0.0154615    8.2689e+08   1.00451e+09   2.23156e+09
       0.0155   8.26916e+08   1.00955e+09   2.23691e+09
    0.0155385   8.26941e+08   1.01459e+09   2.24227e+09
    0.0155769   8.26964e+08   1.01961e+09   2.24763e+09
    0.0156154   8.26985e+08   1.02462e+09   2.25298e+09
    0.0156538   8.27005e+08   1.02961e+09   2.25834e+09
    0.0156923   8.27024e+08   1.03458e+09   2.26369e+09
    0.0157308   8.27041e+08   1.03954e+09   2.26904e+09
    0.0157692   8.27057e+08   1.04448e+09    2.2744e+09
    0.0158077   8.27072e+08   1.04941e+09   2.27975e+09
    0.0158462   8.27086e+08   1.05431e+09    2.2851e+09
    0.0158846   8.27099e+08   1.05918e+09   2.29045e+09
    0.0159231   8.27111e+08   1.06404e+09    2.2958e+09
    0.0159615   8.27122e+08   1.06887e+09   2.30115e+09
        0.016   8.27132e+08   1.07368e+09    2.3065e+09
    0.0160385   8.27142e+08   1.07846e+09   2.31185e+09
    0.0160769   8.27151e+08   1.08321e+09    2.3172e+09
    0.0161154   8.27159e+08   1.08793e+09   2.32254e+09
    0.0161538   8.27166e+08   1.09263e+09   2.32789e+09
    0.0161923   8.27173e+08   1.09729e+09   2.33323e+09
    0.0162308    8.2718e+08   1.10192e+09   2.33858e+09
    0.0162692   8.27186e+08   1.10652e+09   2.34392e+09
    0.0163077   8.27192e+08   1.11109e+09   2.34927e+09
    0.0163462   8.27197e+08   1.11562e+09   2.35461e+09
    0.0163846   8.27202e+08   1.12012e+09   2.35995e+09
    0.0164231   8.27206e+08   1.12458e+09   2.36529e+09
    0.0164615    8.2721e+08     1.129e+09   2.37063e+09
       0.0165   8.27214e+08   1.13339e+09   2.37598e+09
    0.0165385   8.27217e+08   1.13773e+09   2.38132e+09
    0.0165769   8.27221e+08   1.14204e+09   2.38665e+09
    0.0166154   8.27224e+08   1.14631e+09   2.39199e+09
    0.0166538   8.27226e+08   1.15054e+09   2.39733e+09
    0.0166923   8.27229e+08   1.15472e+09   2.40267e+09
    0.0167308   8.27231e+08   1.15886e+09   2.40801e+09
    0.0167692   8.27233e+08   1.16296e+09   2.41334e+09
    0.0168077   8.27235e+08   1.16702e+09   2.41868e+09
    0.0168462   8.27237e+08   1.17103e+09   2.42401e+09
    0.0168846   8.27239e+08     1.175e+09   2.42935e+09
    0.0169231    8.2724e+08   1.17892e+09   2.43468e+09
    0.0169615   8.27242e+08    1.1828e+09   2.44001e+09
        0.017   8.27243e+08   1.18663e+09   2.44535e+09
    0.0170385   8.27244e+08   1.19041e+09   2.45068e+09
    0.0170769   8.27245e+08   1.19415e+09   2.45601e+09
    0.0171154   8.27246e+08   1.19783e+09   2.46134e+09
    0.0171538   8.27247e+08   1.20147e+09   2.46667e+09
    0.0171923   8.27248e+08   1.20507e+09     2.472e+09
    0.0172308   8.27249e+08   1.20861e+09   2.47733e+09
    0.0172692    8.2725e+08    1.2121e+09   2.48266e+09
    0.0173077    8.2725e+08   1.21555e+09   2.48799e+09
    0.0173462   8.27251e+08   1.21894e+09   2.49331e+09
    0.0173846   8.27251e+08   1.22229e+09   2.49864e+09
    0.0174231   8.27252e+08   1.22559e+09   2.50397e+09
    0.0174615   8.27252e+08   1.22883e+09   2.50929e+09
       0.0175   8.27253e+08   1.23203e+09   2.51462e+09
    0.0175385   8.27253e+08   1.23518e+09   2.51994e+09
    0.0175769   8.27253e+08   1.23828e+09   2.52526e+09
    0.0176154   8.27254e+08   1.24132e+09   2.53059e+09
    0.0176538   8.27254e+08   1.24432e+09   2.53591e+09
    0.0176923   8.27254e+08   1.24727e+09   2.54123e+09
    0.0177308   8.27255e+08   1.25017e+09   2.54655e+09
    0.0177692   8.27255e+08   1.25301e+09   2.55188e+09
    0.0178077   8.27255e+08   1.25581e+09    2.5572e+09
    0.0178462   8.27255e+08   1.25856e+09   2.56252e+09
    0.0178846   8.27255e+08   1.26126e+09   2.56783e+09
    0.0179231   8.27256e+08   1.26391e+09   2.57315e+09
    0.0179615   8.27256e+08   1.26651e+09   2.57847e+09
        0.018   8.27256e+08   1.26906e+09   2.58379e+09
    0.0180385   8.27256e+08   1.27157e+09   2.58911e+09
    0.0180769   8.27256e+08   1.27402e+09   2.59442e+09
    0.0181154   8.27256e+08   1.27643e+09   2.59974e+09
    0.0181538   8.27256e+08   1.27879e+09   2.60505e+09
    0.0181923   8.27256e+08    1.2811e+09   2.61037e+09
    0.0182308   8.27256e+08   1.28337e+09   2.61568e+09
    0.0182692   8.27256e+08   1.28559e+09     2.621e+09
    0.0183077   8.27256e+08   1.28776e+09   2.62631e+09
    0.0183462   8.27257e+08   1.28989e+09   2.63162e+09
    0.0183846   8.27257e+08   1.29197e+09   2.63694e+09
    0.0184231   8.27257e+08   1.29401e+09   2.64225e+09
    0.0184615   8.27257e+08     1.296e+09   2.64756e+09
       0.0185   8.27257e+08   1.29795e+09   2.65287e+09
    0.0185385   8.27257e+08   1.29985e+09   2.65818e+09
    0.0185769   8.27257e+08   1.30172e+09   2.66349e+09
    0.0186154   8.27257e+08   1.30354e+09    2.6688e+09
    0.0186538   8.27257e+08   1.30531e+09   2.67411e+09
    0.0186923   8.27257e+08   1.30705e+09   2.67941e+09
    0.0187308   8.27257e+08   1.30875e+09   2.68472e+09
    0.0187692   8.27257e+08    1.3104e+09   2.69003e+09
    0.0188077   8.27257e+08   1.31202e+09   2.69533e+09
    0.0188462   8.27257e+08   1.31359e+09   2.70064e+09
    0.0188846   8.27257e+08   1.31513e+09   2.70595e+09
    0.0189231   8.27257e+08   1.31663e+09   2.71125e+09
    0.0189615   8.27257e+08   1.31809e+09   2.71656e+09
        0.019   8.27257e+08   1.31952e+09   2.72186e+09
    0.0190385   8.27257e+08    1.3209e+09   2.72716e+09
    0.0190769   8.27257e+08   1.32226e+09   2.73247e+09
    0.0191154   8.27257e+08   1.32357e+09   2.73777e+09
    0.0191538   8.27257e+08   1.32486e+09   2.74307e+09
    0.0191923   8.27257e+08   1.32611e+09   2.74837e+09
    0.0192308   8.27257e+08   1.32732e+09   2.75367e+09
    0.0192692   8.27257e+08    1.3285e+09   2.75897e+09
    0.0193077   8.27257e+08   1.32965e+09   2.76427e+09
    0.0193462   8.27257e+08   1.33077e+09   2.76957e+09
    0.0193846   8.27257e+08   1.33186e+09   2.77487e+09
    0.0194231   8.27257e+08   1.33292e+09   2.78017e+09
    0.0194615   8.27257e+08   1.33395e+09   2.78547e+09
       0.0195   8.27257e+08   1.33495e+09   2.79076e+09
    0.0195385   8.27257e+08   1.33592e+09   2.79606e+09
    0.0195769   8.27257e+08   1.33686e+09   2.80136e+09
    0.0196154   8.27257e+08   1.33777e+09   2.80665e+09
    0.0196538   8.27257e+08   1.33866e+09   2.81195e+09
    0.0196923   8.27257e+08   1.33952e+09   2.81724e+09
    0.0197308   8.27257e+08   1.34036e+09   2.82254e+09
    0.0197692   8.27257e+08   1.34117e+09   2.82783e+09
    0.0198077   8.27257e+08   1.34195e+09   2.83313e+09
    0.0198462   8.27257e+08   1.34272e+09   2.83842e+09
    0.0198846   8.27257e+08   1.34345e+09   2.84371e+09
    0.0199231   8.27257e+08   1.34417e+09   2.84901e+09
    0.0199615   8.27257e+08   1.34486e+09    2.8543e+09
         0.02   8.27257e+08   1.34553e+09   2.85959e+09
    0.0200385   8.27257e+08   1.34618e+09   2.86488e+09
    0.0200769   8.27257e+08   1.34681e+09   2.87017e+09
    0.0201154   8.27257e+08   1.34742e+09   2.87546e+09
    0.0201538   8.27257e+08   1.34801e+09   2.88075e+09
    0.0201923   8.27257e+08   1.34858e+09   2.88604e+09
    0.0202308   8.27257e+08   1.34914e+09   2.89133e+09
    0.0202692   8.27257e+08   1.34967e+09   2.89662e+09
    0.0203077   8.27257e+08   1.35019e+09   2.90191e+09
    0.0203462   8.27257e+08   1.35068e+09   2.90719e+09
    0.0203846   8.27257e+08   1.35117e+09   2.91248e+09
    0.0204231   8.27257e+08   1.35163e+09   2.91777e+09
    0.0204615   8.27257e+08   1.35208e+09   2.92305e+09
       0.0205   8.27257e+08   1.35252e+09   2.92834e+09