# Probe 0 (0 0 0.0079)
#       Probe             0
#        Time
  0.000116279   6.20735e-07
  0.000251938   9.29809e+24
