# Probe 0 (0 0 0)
# Probe 1 (0 0 0.001)
# Probe 2 (0 0 0.002)
# Probe 3 (0 0 0.003)
# Probe 4 (0 0 0.004)
# Probe 5 (0 0 0.005)
# Probe 6 (0 0 0.006)
# Probe 7 (0 0 0.007)
# Probe 8 (0 0 0.008)
#       Probe             0             1             2             3             4             5             6             7             8
#        Time
  0.000116279    3.5582e-32   7.79744e-34   1.01677e-31   1.74029e-29   8.30371e-29   1.92792e-28   2.56596e-28   1.69827e-28   1.35708e-30
  0.000251938   7.70944e-32   1.68944e-33     2.203e-31   3.77062e-29   1.79914e-28   4.17716e-28   5.55958e-28   3.67958e-28   2.94034e-30
  0.000410207   1.25525e-31   2.75076e-33   3.58694e-31   6.13935e-29   2.92936e-28   6.80128e-28   9.05213e-28   5.99111e-28   4.78747e-30
  0.000593798   1.81705e-31   3.98189e-33    5.1923e-31   8.88707e-29   4.24043e-28   9.84525e-28   1.31035e-27   8.67249e-28   6.93015e-30
  0.000803618   2.45911e-31    5.3889e-33   7.02701e-31   1.20273e-28   5.73878e-28   1.33241e-27   1.77336e-27   1.17369e-27   9.37893e-30
   0.00103675   3.17251e-31   6.95223e-33   9.06557e-31   1.55165e-28   7.40363e-28   1.71894e-27   2.28782e-27   1.51418e-27   1.20998e-29
   0.00128445   3.93049e-31   8.61328e-33   1.12315e-30   1.92237e-28   9.17252e-28   2.12964e-27   2.83443e-27   1.87596e-27   1.49907e-29
   0.00154985   4.74262e-31    1.0393e-32   1.35522e-30   2.31958e-28   1.10678e-27   2.56967e-27   3.42009e-27   2.26357e-27   1.80881e-29
   0.00183736   5.62242e-31    1.2321e-32   1.60663e-30   2.74988e-28   1.31209e-27   3.04637e-27   4.05455e-27   2.68349e-27   2.14436e-29
   0.00212487   6.50223e-31    1.4249e-32   1.85804e-30   3.18019e-28   1.51741e-27   3.52307e-27   4.68901e-27    3.1034e-27   2.47992e-29
   0.00241239   7.38203e-31    1.6177e-32   2.10944e-30   3.61049e-28   1.72273e-27   3.99977e-27   5.32347e-27   3.52332e-27   2.81547e-29
    0.0026999   8.26184e-31    1.8105e-32   2.36085e-30    4.0408e-28   1.92805e-27   4.47647e-27   5.95793e-27   3.94323e-27   3.15102e-29
   0.00298741   9.14164e-31    2.0033e-32   2.61226e-30    4.4711e-28   2.13337e-27   4.95316e-27    6.5924e-27   4.36315e-27   3.48657e-29
   0.00327492   1.00214e-30    2.1961e-32   2.86367e-30   4.90141e-28   2.33869e-27   5.42986e-27   7.22686e-27   4.78306e-27   3.82213e-29
   0.00356244   1.09012e-30    2.3889e-32   3.11507e-30   5.33171e-28     2.544e-27   5.90656e-27   7.86132e-27   5.20298e-27   4.15768e-29
   0.00384995    1.1781e-30    2.5817e-32   3.36648e-30   5.76202e-28   2.74932e-27   6.38326e-27   8.49578e-27   5.62289e-27   4.49323e-29
   0.00413746   1.26609e-30    2.7745e-32   3.61789e-30   6.19232e-28   2.95464e-27   6.85996e-27   9.13024e-27   6.04281e-27   4.82878e-29
   0.00442497   1.35407e-30    2.9673e-32    3.8693e-30   6.62263e-28   3.15996e-27   7.33666e-27    9.7647e-27   6.46272e-27   5.16434e-29
   0.00471249   1.44205e-30    3.1601e-32    4.1207e-30   7.05293e-28   3.36528e-27   7.81336e-27   1.03992e-26   6.88264e-27   5.49989e-29
        0.005   1.53003e-30    3.3529e-32   4.37211e-30   7.48324e-28   3.57059e-27   8.29006e-27   1.10336e-26   7.30255e-27   5.83544e-29
   0.00529412   1.62003e-30   3.55013e-32   4.62929e-30   7.92343e-28   3.78063e-27   8.77771e-27   1.16827e-26   7.73211e-27    6.1787e-29
   0.00558824   1.71003e-30   3.74736e-32   4.88648e-30   8.36362e-28   3.99066e-27   9.26536e-27   1.23317e-26   8.16167e-27   6.52196e-29
   0.00588235   1.80003e-30   3.94459e-32   5.14366e-30   8.80381e-28    4.2007e-27   9.75301e-27   1.29807e-26   8.59124e-27   6.86522e-29
   0.00617647   1.89003e-30   4.14181e-32   5.40084e-30     9.244e-28   4.41073e-27   1.02407e-26   1.36298e-26    9.0208e-27   7.20849e-29
   0.00647059   1.98003e-30   4.33904e-32   5.65802e-30   9.68419e-28   4.62077e-27   1.07283e-26   1.42788e-26   9.45036e-27   7.55175e-29
   0.00676471   2.07004e-30   4.53627e-32   5.91521e-30   1.01244e-27    4.8308e-27    1.1216e-26   1.49278e-26   9.87992e-27   7.89501e-29
   0.00705882   2.16004e-30    4.7335e-32   6.17239e-30   1.05646e-27   5.04084e-27   1.17036e-26   1.55769e-26   1.03095e-26   8.23827e-29
   0.00735294   2.25004e-30   4.93073e-32   6.42957e-30   1.10048e-27   5.25087e-27   1.21913e-26   1.62259e-26    1.0739e-26   8.58153e-29
   0.00764706   2.34004e-30   5.12796e-32   6.68676e-30    1.1445e-27   5.46091e-27   1.26789e-26    1.6875e-26   1.11686e-26   8.92479e-29
   0.00794118   2.43004e-30   5.32519e-32   6.94394e-30   1.18851e-27   5.67094e-27   1.31666e-26    1.7524e-26   1.15982e-26   9.26805e-29
   0.00823529   2.52004e-30   5.52242e-32   7.20112e-30   1.23253e-27   5.88098e-27   1.36542e-26    1.8173e-26   1.20277e-26   9.61131e-29
   0.00852941   2.61005e-30   5.71965e-32   7.45831e-30   1.27655e-27   6.09101e-27   1.41419e-26   1.88221e-26   1.24573e-26   9.95458e-29
   0.00882353   2.70005e-30   5.91688e-32   7.71549e-30   1.32057e-27   6.30105e-27   1.46295e-26   1.94711e-26   1.28869e-26   1.02978e-28
   0.00911765   2.79005e-30   6.11411e-32   7.97267e-30   1.36459e-27   6.51108e-27   1.51172e-26   2.01201e-26   1.33164e-26   1.06411e-28
   0.00941176   2.88005e-30   6.31134e-32   8.22985e-30   1.40861e-27   6.72112e-27   1.56048e-26   2.07692e-26    1.3746e-26   1.09844e-28
   0.00970588   2.97005e-30   6.50857e-32   8.48704e-30   1.45263e-27   6.93115e-27   1.60925e-26   2.14182e-26   1.41755e-26   1.13276e-28
         0.01   3.06005e-30    6.7058e-32   8.74422e-30   1.49665e-27   7.14119e-27   1.65801e-26   2.20672e-26   1.46051e-26   1.16709e-28
    0.0102941   3.15005e-30   6.90302e-32    9.0014e-30   1.54067e-27   7.35122e-27   1.70678e-26   2.27163e-26   1.50347e-26   1.20141e-28
    0.0105882   3.24006e-30   7.10025e-32   9.25859e-30   1.58469e-27   7.56126e-27   1.75554e-26   2.33653e-26   1.54642e-26   1.23574e-28
