# Probe 0 (0 0 0)
# Probe 1 (0 0 0.001)
# Probe 2 (0 0 0.002)
# Probe 3 (0 0 0.003)
# Probe 4 (0 0 0.004)
# Probe 5 (0 0 0.005)
# Probe 6 (0 0 0.006)
# Probe 7 (0 0 0.007)
# Probe 8 (0 0 0.008)
#       Probe             0             1             2             3             4             5             6             7             8
#        Time
  0.000116279   2.63204e-05   5.84723e-07   0.000118646     0.0205633      0.098143      0.227881      0.303307      0.200746    0.00160416
  0.000251938   5.67943e-05   1.26703e-06   0.000251098     0.0440777      0.211334      0.491862      0.656518      0.437756    0.00456133
  0.000410207   9.20319e-05   2.06334e-06   0.000397849     0.0708727      0.341617      0.797282       1.06768       0.71802    0.00971522
  0.000593798   0.000132485    2.9876e-06   0.000558078      0.101106      0.490362       1.14811       1.54331        1.0481     0.0183392
  0.000803618   0.000178162   4.04489e-06   0.000728709      0.134554      0.657222       1.54447       2.08507       1.43176     0.0321902
   0.00103675   0.000228218    5.2213e-06   0.000903513      0.170353      0.838685       1.97906       2.68456       1.86599     0.0533043
   0.00128445   0.000280593   6.47371e-06    0.00107314      0.206818        1.0269       2.43395       3.31844       2.33638     0.0832696
   0.00154985   0.000335801    7.8191e-06    0.00123812      0.244156       1.22341       2.91354       3.99388       2.85026      0.124789
   0.00183736   0.000394571   9.28155e-06    0.00139919      0.282663       1.43042       3.42408       4.72105       3.41792      0.181563
