# Probe 0 (0 0 0)
# Probe 1 (0 0 0.001)
# Probe 2 (0 0 0.002)
# Probe 3 (0 0 0.003)
# Probe 4 (0 0 0.004)
# Probe 5 (0 0 0.005)
# Probe 6 (0 0 0.006)
# Probe 7 (0 0 0.007)
# Probe 8 (0 0 0.008)
#       Probe             0             1             2             3             4             5             6             7             8
#        Time
  0.000116279   3.21786e-23   7.07938e-25    1.0698e-22   1.83978e-20    8.7793e-20    2.0384e-19   2.71303e-19   1.79562e-19   1.43488e-21
  0.000251938   6.97203e-23   1.53387e-24    2.3179e-22   3.98618e-20   1.90218e-19   4.41653e-19   5.87823e-19   3.89051e-19    3.1089e-21
  0.000410207   1.13519e-22   2.49745e-24   3.77402e-22   6.49032e-20   3.09714e-19   7.19102e-19   9.57097e-19   6.33454e-19   5.06192e-21
  0.000593798   1.64325e-22   3.61521e-24   5.46311e-22   9.39513e-20    4.4833e-19   1.04094e-18   1.38545e-18   9.16962e-19   7.32743e-21
  0.000803618    2.2239e-22   4.89264e-24   7.39351e-22   1.27149e-19   6.06747e-19   1.40876e-18   1.87501e-18   1.24097e-18   9.91658e-21
   0.00103675   2.86906e-22   6.31201e-24   9.53839e-22   1.64035e-19   7.82767e-19   1.81745e-18   2.41895e-18   1.60098e-18   1.27934e-20
   0.00128445   3.55454e-22    7.8201e-24   1.18173e-21   2.03227e-19   9.69787e-19   2.25168e-18   2.99689e-18   1.98349e-18   1.58501e-20
   0.00154985   4.28899e-22    9.4359e-24   1.42591e-21   2.45218e-19   1.17017e-18   2.71692e-18   3.61612e-18   2.39333e-18    1.9125e-20
   0.00183736   5.08464e-22   1.11864e-23   1.69042e-21   2.90709e-19   1.38724e-18   3.22094e-18   4.28694e-18   2.83731e-18   2.26729e-20
   0.00212487   5.88029e-22   1.29368e-23   1.95494e-21   3.36199e-19   1.60432e-18   3.72495e-18   4.95777e-18    3.2813e-18   2.62208e-20
   0.00241239   6.67594e-22   1.46873e-23   2.21946e-21    3.8169e-19    1.8214e-18   4.22897e-18    5.6286e-18   3.72528e-18   2.97687e-20
    0.0026999   7.47159e-22   1.64377e-23   2.48398e-21    4.2718e-19   2.03848e-18   4.73299e-18   6.29942e-18   4.16927e-18   3.33166e-20
   0.00298741   8.26724e-22   1.81882e-23    2.7485e-21   4.72671e-19   2.25555e-18     5.237e-18   6.97025e-18   4.61326e-18   3.68645e-20
   0.00327492   9.06289e-22   1.99386e-23   3.01302e-21   5.18161e-19   2.47263e-18   5.74102e-18   7.64107e-18   5.05724e-18   4.04123e-20
   0.00356244   9.85854e-22   2.16891e-23   3.27754e-21   5.63652e-19   2.68971e-18   6.24503e-18    8.3119e-18   5.50123e-18   4.39602e-20
   0.00384995   1.06542e-21   2.34395e-23   3.54206e-21   6.09142e-19   2.90679e-18   6.74905e-18   8.98272e-18   5.94521e-18   4.75081e-20
   0.00413746   1.14498e-21     2.519e-23   3.80658e-21   6.54633e-19   3.12387e-18   7.25307e-18   9.65355e-18    6.3892e-18    5.1056e-20
   0.00442497   1.22455e-21   2.69404e-23    4.0711e-21   7.00123e-19   3.34094e-18   7.75708e-18   1.03244e-17   6.83319e-18   5.46039e-20
   0.00471249   1.30411e-21   2.86909e-23   4.33562e-21   7.45614e-19   3.55802e-18    8.2611e-18   1.09952e-17   7.27717e-18   5.81518e-20
        0.005   1.38368e-21   3.04414e-23   4.60014e-21   7.91104e-19    3.7751e-18   8.76511e-18    1.1666e-17   7.72116e-18   6.16996e-20
   0.00529412   1.46507e-21    3.2232e-23   4.87074e-21    8.3764e-19   3.99716e-18   9.28071e-18   1.23523e-17   8.17534e-18    6.5329e-20
   0.00558824   1.54647e-21   3.40227e-23   5.14133e-21   8.84175e-19   4.21923e-18    9.7963e-18   1.30385e-17   8.62953e-18   6.89584e-20
   0.00588235   1.62786e-21   3.58134e-23   5.41193e-21   9.30711e-19   4.44129e-18   1.03119e-17   1.37247e-17   9.08371e-18   7.25878e-20
   0.00617647   1.70925e-21    3.7604e-23   5.68253e-21   9.77246e-19   4.66336e-18   1.08275e-17    1.4411e-17    9.5379e-18   7.62172e-20
   0.00647059   1.79064e-21   3.93947e-23   5.95312e-21   1.02378e-18   4.88542e-18   1.13431e-17   1.50972e-17   9.99209e-18   7.98466e-20
   0.00676471   1.87204e-21   4.11854e-23   6.22372e-21   1.07032e-18   5.10749e-18   1.18587e-17   1.57835e-17   1.04463e-17    8.3476e-20
   0.00705882   1.95343e-21    4.2976e-23   6.49432e-21   1.11685e-18   5.32955e-18   1.23743e-17   1.64697e-17   1.09005e-17   8.71054e-20
   0.00735294   2.03482e-21   4.47667e-23   6.76491e-21   1.16339e-18   5.55162e-18   1.28899e-17   1.71559e-17   1.13546e-17   9.07348e-20
   0.00764706   2.11622e-21   4.65574e-23   7.03551e-21   1.20992e-18   5.77368e-18   1.34055e-17   1.78422e-17   1.18088e-17   9.43642e-20
   0.00794118   2.19761e-21    4.8348e-23   7.30611e-21   1.25646e-18   5.99574e-18   1.39211e-17   1.85284e-17    1.2263e-17   9.79935e-20
   0.00823529     2.279e-21   5.01387e-23    7.5767e-21     1.303e-18   6.21781e-18   1.44367e-17   1.92146e-17   1.27172e-17   1.01623e-19
   0.00852941   2.36039e-21   5.19294e-23    7.8473e-21   1.34953e-18   6.43987e-18   1.49523e-17   1.99009e-17   1.31714e-17   1.05252e-19
   0.00882353   2.44179e-21     5.372e-23    8.1179e-21   1.39607e-18   6.66194e-18   1.54678e-17   2.05871e-17   1.36256e-17   1.08882e-19
   0.00911765   2.52318e-21   5.55107e-23   8.38849e-21    1.4426e-18     6.884e-18   1.59834e-17   2.12733e-17   1.40798e-17   1.12511e-19
   0.00941176   2.60457e-21   5.73014e-23   8.65909e-21   1.48914e-18   7.10607e-18    1.6499e-17   2.19596e-17   1.45339e-17   1.16141e-19
   0.00970588   2.68597e-21    5.9092e-23   8.92969e-21   1.53567e-18   7.32813e-18   1.70146e-17   2.26458e-17   1.49881e-17    1.1977e-19
         0.01   2.76736e-21   6.08827e-23   9.20028e-21   1.58221e-18    7.5502e-18   1.75302e-17   2.33321e-17   1.54423e-17   1.23399e-19
    0.0102941   2.84875e-21   6.26734e-23   9.47088e-21   1.62874e-18   7.77226e-18   1.80458e-17   2.40183e-17   1.58965e-17   1.27029e-19
    0.0105882   2.93014e-21    6.4464e-23   9.74148e-21   1.67528e-18   7.99433e-18   1.85614e-17   2.47045e-17   1.63507e-17   1.30658e-19
