# Probe 0 (0 0 0.0079)
#       Probe             0
#        Time
  0.000116279   6.20735e-07
  0.000251938   1.53545e-06
  0.000410207   2.87909e-06
  0.000593798   4.83573e-06
  0.000803618   7.63185e-06
   0.00103675   1.14911e-05
   0.00128445   1.65279e-05
   0.00154985   2.30423e-05
   0.00183736   3.14513e-05
   0.00212487   4.13776e-05
   0.00241239   5.28687e-05
    0.0026999   6.59635e-05
   0.00298741   8.06933e-05
   0.00327492   9.70822e-05
   0.00356244   0.000115148
   0.00384995   0.000134902
   0.00413746   0.000156349
   0.00442497    0.00017949
   0.00471249   0.000204318
        0.005   0.000230824
   0.00529412   0.000259637
   0.00558824   0.000290168
   0.00588235   0.000322391
   0.00617647   0.000356276
   0.00647059   0.000391788
   0.00676471   0.000428893
   0.00705882   0.000467551
   0.00735294    0.00050772
   0.00764706   0.000549357
   0.00794118   0.000592417
   0.00823529   0.000636856
   0.00852941   0.000682624
   0.00882353   0.000729676
   0.00911765   0.000777963
   0.00941176   0.000827436
   0.00970588   0.000878046
         0.01   0.000929745
    0.0102941   0.000982482
    0.0105882    0.00103621
    0.0108824    0.00109088
    0.0111765    0.00114644
    0.0114706    0.00120285
    0.0117647    0.00126006
    0.0120588    0.00131801
