# Probe 0 (0 0 0.006)
# Probe 1 (0 0 0.007)
# Probe 2 (0 0 0.008)
#       Probe             0             1             2
#        Time
  3.84615e-05   2.72754e+06    3.6239e+06   1.15778e+07
  7.69231e-05   5.45481e+06   7.24786e+06   2.31522e+07
  0.000115385    8.1818e+06   1.08719e+07   3.47233e+07
  0.000153846   1.09085e+07   1.44959e+07   4.62911e+07
  0.000192308    1.3635e+07   1.81201e+07   5.78555e+07
  0.000230769   1.63612e+07   2.17442e+07   6.94166e+07
  0.000269231   1.90872e+07   2.53684e+07   8.09745e+07
  0.000307692   2.18129e+07   2.89927e+07    9.2529e+07
  0.000346154   2.45384e+07    3.2617e+07    1.0408e+08
  0.000384615   2.72636e+07   3.62413e+07   1.15628e+08
  0.000423077   2.99886e+07   3.98657e+07   1.27173e+08
  0.000461538   3.27134e+07   4.34901e+07   1.38714e+08
       0.0005    3.5438e+07   4.71146e+07   1.50252e+08
  0.000538462   3.81624e+07   5.07391e+07   1.61787e+08
  0.000576923   4.08866e+07   5.43637e+07   1.73319e+08
  0.000615385   4.36106e+07   5.79882e+07   1.84847e+08
  0.000653846   4.63345e+07   6.16128e+07   1.96372e+08
  0.000692308   4.90582e+07   6.52375e+07   2.07894e+08
  0.000730769   5.17818e+07   6.88621e+07   2.19412e+08
  0.000769231   5.45052e+07   7.24868e+07   2.30928e+08
  0.000807692   5.72285e+07   7.61116e+07    2.4244e+08
  0.000846154   5.99518e+07   7.97363e+07   2.53949e+08
  0.000884615    6.2675e+07   8.33611e+07   2.65454e+08
  0.000923077   6.53981e+07   8.69859e+07   2.76957e+08
  0.000961538   6.81211e+07   9.06107e+07   2.88456e+08
        0.001   7.08442e+07   9.42355e+07   2.99952e+08
   0.00103846   7.35673e+07   9.78604e+07   3.11445e+08
   0.00107692   7.62903e+07   1.01485e+08   3.22935e+08
   0.00111538   7.90135e+07    1.0511e+08   3.34421e+08
   0.00115385   8.17367e+07   1.08735e+08   3.45905e+08
   0.00119231     8.446e+07    1.1236e+08   3.57385e+08
   0.00123077   8.71835e+07   1.15985e+08   3.68862e+08
   0.00126923   8.99071e+07    1.1961e+08   3.80336e+08
   0.00130769   9.26309e+07   1.23235e+08   3.91807e+08
   0.00134615    9.5355e+07    1.2686e+08   4.03274e+08
   0.00138462   9.80793e+07   1.30485e+08   4.14739e+08
   0.00142308   1.00804e+08   1.34109e+08     4.262e+08
   0.00146154   1.03529e+08   1.37734e+08   4.37659e+08
       0.0015   1.06254e+08   1.41359e+08   4.49114e+08
   0.00153846    1.0898e+08   1.44984e+08   4.60566e+08
   0.00157692   1.11706e+08   1.48609e+08   4.72015e+08
   0.00161538   1.14433e+08   1.52234e+08   4.83461e+08
   0.00165385    1.1716e+08   1.55859e+08   4.94903e+08
   0.00169231   1.19888e+08   1.59484e+08   5.06343e+08
   0.00173077   1.22616e+08   1.63108e+08    5.1778e+08
   0.00176923   1.25345e+08   1.66733e+08   5.29213e+08
   0.00180769   1.28075e+08   1.70358e+08   5.40644e+08
   0.00184615   1.30806e+08   1.73983e+08   5.52071e+08
   0.00188462   1.33537e+08   1.77607e+08   5.63495e+08
   0.00192308    1.3627e+08   1.81232e+08   5.74917e+08
   0.00196154   1.39003e+08   1.84857e+08   5.86335e+08
        0.002   1.41738e+08   1.88481e+08    5.9775e+08
   0.00203846   1.44473e+08   1.92106e+08   6.09162e+08
   0.00207692    1.4721e+08    1.9573e+08   6.20571e+08
   0.00211538   1.49948e+08   1.99355e+08   6.31977e+08
   0.00215385   1.52688e+08   2.02979e+08   6.43381e+08
   0.00219231   1.55428e+08   2.06604e+08   6.54781e+08
   0.00223077   1.58171e+08   2.10228e+08   6.66178e+08
   0.00226923   1.60915e+08   2.13852e+08   6.77572e+08
   0.00230769    1.6366e+08   2.17476e+08   6.88963e+08
   0.00234615   1.66407e+08     2.211e+08   7.00351e+08
   0.00238462   1.69157e+08   2.24724e+08   7.11736e+08
   0.00242308   1.71908e+08   2.28348e+08   7.23119e+08
   0.00246154   1.74661e+08   2.31972e+08   7.34498e+08
       0.0025   1.77416e+08   2.35596e+08   7.45874e+08
   0.00253846   1.80173e+08    2.3922e+08   7.57247e+08
   0.00257692   1.82933e+08   2.42843e+08   7.68618e+08
   0.00261538   1.85695e+08   2.46467e+08   7.79985e+08
   0.00265385    1.8846e+08    2.5009e+08    7.9135e+08
   0.00269231   1.91227e+08   2.53714e+08   8.02711e+08
   0.00273077   1.93997e+08   2.57337e+08    8.1407e+08
   0.00276923    1.9677e+08    2.6096e+08   8.25426e+08
   0.00280769   1.99547e+08   2.64583e+08   8.36778e+08
   0.00284615   2.02326e+08   2.68206e+08   8.48128e+08
   0.00288462   2.05109e+08   2.71829e+08   8.59475e+08
   0.00292308   2.07895e+08   2.75452e+08    8.7082e+08
   0.00296154   2.10684e+08   2.79074e+08   8.82161e+08
        0.003   2.13478e+08   2.82697e+08   8.93499e+08
   0.00303846   2.16275e+08   2.86319e+08   9.04835e+08
   0.00307692   2.19076e+08   2.89941e+08   9.16167e+08
   0.00311538   2.21881e+08   2.93563e+08   9.27497e+08
   0.00315385   2.24691e+08   2.97185e+08   9.38824e+08
   0.00319231   2.27506e+08   3.00807e+08   9.50148e+08
   0.00323077   2.30325e+08   3.04429e+08   9.61469e+08
   0.00326923   2.33148e+08    3.0805e+08   9.72787e+08
   0.00330769   2.35977e+08   3.11672e+08   9.84103e+08
   0.00334615   2.38811e+08   3.15293e+08   9.95415e+08
   0.00338462   2.41651e+08   3.18914e+08   1.00673e+09
   0.00342308   2.44496e+08   3.22535e+08   1.01803e+09
   0.00346154   2.47346e+08   3.26155e+08   1.02934e+09
       0.0035   2.50203e+08   3.29776e+08   1.04064e+09
   0.00353846   2.53066e+08   3.33396e+08   1.05194e+09
   0.00357692   2.55936e+08   3.37016e+08   1.06323e+09
   0.00361538   2.58811e+08   3.40636e+08   1.07453e+09
   0.00365385   2.61694e+08   3.44256e+08   1.08582e+09
   0.00369231   2.64584e+08   3.47876e+08    1.0971e+09
   0.00373077   2.67481e+08   3.51495e+08   1.10839e+09
   0.00376923   2.70386e+08   3.55115e+08   1.11967e+09
   0.00380769   2.73298e+08   3.58734e+08   1.13095e+09
   0.00384615   2.76219e+08   3.62353e+08   1.14222e+09
   0.00388462   2.79148e+08   3.65971e+08    1.1535e+09
   0.00392308   2.82085e+08    3.6959e+08   1.16477e+09
   0.00396154   2.85031e+08   3.73208e+08   1.17604e+09
        0.004   2.87986e+08   3.76826e+08    1.1873e+09
   0.00403846    2.9095e+08   3.80444e+08   1.19857e+09
   0.00407692   2.93924e+08   3.84062e+08   1.20983e+09
   0.00411538   2.96908e+08   3.87679e+08   1.22108e+09
   0.00415385   2.99902e+08   3.91297e+08   1.23234e+09
   0.00419231   3.02906e+08   3.94914e+08   1.24359e+09
   0.00423077   3.05922e+08   3.98531e+08   1.25484e+09
   0.00426923   3.08948e+08   4.02147e+08   1.26608e+09
   0.00430769   3.11986e+08   4.05764e+08   1.27733e+09
   0.00434615   3.15035e+08    4.0938e+08   1.28857e+09
   0.00438462   3.18097e+08   4.12996e+08   1.29981e+09
   0.00442308   3.21171e+08   4.16612e+08   1.31104e+09
   0.00446154   3.24258e+08   4.20227e+08   1.32228e+09
       0.0045   3.27358e+08   4.23842e+08   1.33351e+09
   0.00453846   3.30471e+08   4.27458e+08   1.34473e+09
   0.00457692   3.33598e+08   4.31072e+08   1.35596e+09
   0.00461538    3.3674e+08   4.34687e+08   1.36718e+09
   0.00465385   3.39896e+08   4.38302e+08    1.3784e+09
   0.00469231   3.43066e+08   4.41916e+08   1.38962e+09
   0.00473077   3.46253e+08    4.4553e+08   1.40083e+09
   0.00476923   3.49455e+08   4.49144e+08   1.41205e+09
   0.00480769   3.52673e+08   4.52757e+08   1.42325e+09
   0.00484615   3.55908e+08   4.56371e+08   1.43446e+09
   0.00488462    3.5916e+08   4.59984e+08   1.44567e+09
   0.00492308   3.62429e+08   4.63597e+08   1.45687e+09
   0.00496154   3.65716e+08    4.6721e+08   1.46807e+09
        0.005   3.69021e+08   4.70823e+08   1.47926e+09
   0.00503846   3.72346e+08   4.74435e+08   1.49046e+09
   0.00507692   3.75689e+08   4.78048e+08   1.50165e+09
   0.00511538   3.79053e+08    4.8166e+08   1.51283e+09
   0.00515385   3.82436e+08   4.85272e+08   1.52402e+09
   0.00519231    3.8584e+08   4.88884e+08    1.5352e+09
   0.00523077   3.89266e+08   4.92495e+08   1.54639e+09
   0.00526923   3.92713e+08   4.96107e+08   1.55756e+09
   0.00530769   3.96183e+08   4.99718e+08   1.56874e+09
   0.00534615   3.99675e+08    5.0333e+08   1.57991e+09
   0.00538462    4.0319e+08   5.06941e+08   1.59108e+09
   0.00542308    4.0673e+08   5.10552e+08   1.60225e+09
   0.00546154   4.10294e+08   5.14163e+08   1.61342e+09
       0.0055   4.13882e+08   5.17774e+08   1.62458e+09
   0.00553846   4.17497e+08   5.21386e+08   1.63574e+09
   0.00557692   4.21137e+08   5.24996e+08    1.6469e+09
   0.00561538   4.24804e+08   5.28607e+08   1.65805e+09
   0.00565385   4.28499e+08   5.32218e+08   1.66921e+09
   0.00569231   4.32221e+08   5.35829e+08   1.68036e+09
   0.00573077   4.35972e+08    5.3944e+08   1.69151e+09
   0.00576923   4.39752e+08   5.43052e+08   1.70265e+09
   0.00580769   4.43561e+08   5.46663e+08   1.71379e+09
   0.00584615   4.47402e+08   5.50274e+08   1.72494e+09
   0.00588462   4.51273e+08   5.53885e+08   1.73607e+09
   0.00592308   4.55176e+08   5.57497e+08   1.74721e+09
   0.00596154   4.59111e+08   5.61109e+08   1.75834e+09
        0.006    4.6308e+08   5.64721e+08   1.76947e+09
   0.00603846   4.67082e+08   5.68333e+08    1.7806e+09
   0.00607692   4.71118e+08   5.71945e+08   1.79173e+09
   0.00611538    4.7519e+08   5.75558e+08   1.80285e+09
   0.00615385   4.79298e+08   5.79171e+08   1.81397e+09
   0.00619231   4.83442e+08   5.82784e+08   1.82509e+09
   0.00623077   4.87623e+08   5.86398e+08   1.83621e+09
   0.00626923   4.91843e+08   5.90012e+08   1.84732e+09
   0.00630769   4.96101e+08   5.93627e+08   1.85843e+09
   0.00634615   5.00399e+08   5.97242e+08   1.86954e+09
   0.00638462   5.04737e+08   6.00858e+08   1.88065e+09
   0.00642308   5.09116e+08   6.04474e+08   1.89175e+09
   0.00646154   5.13536e+08   6.08091e+08   1.90285e+09
       0.0065      5.18e+08   6.11708e+08   1.91395e+09
   0.00653846   5.22506e+08   6.15326e+08   1.92505e+09
   0.00657692   5.27057e+08   6.18946e+08   1.93615e+09
   0.00661538   5.31653e+08   6.22565e+08   1.94724e+09
   0.00665385   5.36294e+08   6.26186e+08   1.95833e+09
   0.00669231   5.40981e+08   6.29808e+08   1.96942e+09
   0.00673077   5.45716e+08    6.3343e+08    1.9805e+09
   0.00676923   5.50499e+08   6.37054e+08   1.99158e+09
   0.00680769   5.55331e+08   6.40679e+08   2.00266e+09
   0.00684615   5.60213e+08   6.44305e+08   2.01374e+09
   0.00688462   5.65145e+08   6.47932e+08   2.02482e+09
   0.00692308   5.70128e+08    6.5156e+08   2.03589e+09
   0.00696154   5.75163e+08    6.5519e+08   2.04696e+09
        0.007   5.80251e+08   6.58821e+08   2.05803e+09
   0.00703846   5.85392e+08   6.62454e+08    2.0691e+09
   0.00707692   5.90589e+08   6.66089e+08   2.08016e+09
   0.00711538    5.9584e+08   6.69725e+08   2.09123e+09
   0.00715385   6.01147e+08   6.73363e+08   2.10229e+09
   0.00719231   6.06511e+08   6.77002e+08   2.11334e+09
   0.00723077   6.11932e+08   6.80644e+08    2.1244e+09
   0.00726923   6.17412e+08   6.84287e+08   2.13545e+09
   0.00730769   6.22951e+08   6.87933e+08    2.1465e+09
   0.00734615   6.28549e+08   6.91581e+08   2.15755e+09
   0.00738462   6.34208e+08   6.95231e+08    2.1686e+09
   0.00742308   6.39928e+08   6.98884e+08   2.17964e+09
   0.00746154    6.4571e+08   7.02539e+08   2.19068e+09
       0.0075   6.51555e+08   7.06197e+08   2.20172e+09
   0.00753846   6.57462e+08   7.09858e+08   2.21276e+09
   0.00757692   6.63434e+08   7.13521e+08   2.22379e+09
   0.00761538    6.6947e+08   7.17187e+08   2.23483e+09
   0.00765385   6.75571e+08   7.20857e+08   2.24586e+09
   0.00769231   6.81737e+08   7.24529e+08   2.25688e+09
   0.00773077    6.8797e+08   7.28205e+08   2.26791e+09
   0.00776923   6.94269e+08   7.31885e+08   2.27893e+09
   0.00780769   7.00635e+08   7.35568e+08   2.28996e+09
   0.00784615   7.07069e+08   7.39255e+08   2.30098e+09
   0.00788462   7.13571e+08   7.42946e+08   2.31199e+09
   0.00792308   7.20141e+08   7.46641e+08   2.32301e+09
   0.00796154   7.26779e+08    7.5034e+08   2.33402e+09
        0.008   7.33487e+08   7.54043e+08   2.34503e+09
   0.00803846   7.40263e+08   7.57751e+08   2.35604e+09
   0.00807692   7.47109e+08   7.61463e+08   2.36705e+09
   0.00811538   7.54025e+08   7.65181e+08   2.37805e+09
   0.00815385   7.61009e+08   7.68903e+08   2.38905e+09
   0.00819231   7.68064e+08   7.72631e+08   2.40005e+09
   0.00823077   7.75188e+08   7.76364e+08   2.41105e+09
   0.00826923   7.82382e+08   7.80102e+08   2.42205e+09
   0.00830769   7.89644e+08   7.83847e+08   2.43304e+09
   0.00834615   7.96977e+08   7.87597e+08   2.44403e+09
   0.00838462   8.04377e+08   7.91353e+08   2.45502e+09
   0.00842308   8.11847e+08   7.95116e+08   2.46601e+09
   0.00846154   8.19385e+08   7.98886e+08   2.47699e+09
       0.0085    8.2699e+08   8.02662e+08   2.48797e+09
   0.00853846   8.34662e+08   8.06445e+08   2.49895e+09
   0.00857692   8.42401e+08   8.10235e+08   2.50993e+09
   0.00861538   8.50206e+08   8.14033e+08   2.52091e+09
   0.00865385   8.58076e+08   8.17839e+08   2.53188e+09
   0.00869231    8.6601e+08   8.21652e+08   2.54286e+09
   0.00873077   8.74007e+08   8.25474e+08   2.55383e+09
   0.00876923   8.82066e+08   8.29304e+08   2.56479e+09
   0.00880769   8.90187e+08   8.33142e+08   2.57576e+09
   0.00884615   8.98367e+08    8.3699e+08   2.58672e+09
   0.00888462   9.06606e+08   8.40847e+08   2.59769e+09
   0.00892308   9.14902e+08   8.44714e+08   2.60865e+09
   0.00896154   9.23254e+08    8.4859e+08    2.6196e+09
        0.009    9.3166e+08   8.52476e+08   2.63056e+09
   0.00903846   9.40119e+08   8.56373e+08   2.64151e+09
   0.00907692   9.48629e+08    8.6028e+08   2.65246e+09
   0.00911538   9.57187e+08   8.64199e+08   2.66341e+09
   0.00915385   9.65792e+08   8.68128e+08   2.67436e+09
   0.00919231   9.74443e+08    8.7207e+08   2.68531e+09
   0.00923077   9.83136e+08   8.76023e+08   2.69625e+09
   0.00926923    9.9187e+08   8.79988e+08   2.70719e+09
   0.00930769   1.00064e+09   8.83967e+08   2.71813e+09
   0.00934615   1.00945e+09   8.87958e+08   2.72907e+09
   0.00938462   1.01829e+09   8.91962e+08      2.74e+09
   0.00942308   1.02717e+09    8.9598e+08   2.75094e+09
   0.00946154   1.03607e+09   9.00012e+08   2.76187e+09
       0.0095   1.04499e+09   9.04059e+08    2.7728e+09
   0.00953846   1.05394e+09    9.0812e+08   2.78373e+09
   0.00957692   1.06291e+09   9.12197e+08   2.79465e+09
   0.00961538    1.0719e+09   9.16289e+08   2.80557e+09
   0.00965385    1.0809e+09   9.20397e+08    2.8165e+09
   0.00969231   1.08992e+09   9.24522e+08   2.82742e+09
   0.00973077   1.09894e+09   9.28663e+08   2.83833e+09
   0.00976923   1.10796e+09   9.32822e+08   2.84925e+09
   0.00980769   1.11699e+09   9.36998e+08   2.86016e+09
   0.00984615   1.12601e+09   9.41193e+08   2.87107e+09
   0.00988462   1.13503e+09   9.45406e+08   2.88198e+09
   0.00992308   1.14404e+09   9.49638e+08   2.89289e+09
   0.00996154   1.15304e+09    9.5389e+08    2.9038e+09
         0.01   1.16202e+09   9.58162e+08    2.9147e+09
    0.0100385   1.17099e+09   9.62454e+08    2.9256e+09
    0.0100769   1.17993e+09   9.66767e+08    2.9365e+09
    0.0101154   1.18885e+09   9.71101e+08    2.9474e+09
    0.0101538   1.19773e+09   9.75458e+08    2.9583e+09
    0.0101923   1.20659e+09   9.79837e+08   2.96919e+09
    0.0102308    1.2154e+09   9.84239e+08   2.98009e+09
    0.0102692   1.22418e+09   9.88664e+08   2.99098e+09
    0.0103077   1.23291e+09   9.93114e+08   3.00186e+09
    0.0103462    1.2416e+09   9.97588e+08   3.01275e+09
    0.0103846   1.25024e+09   1.00209e+09   3.02364e+09
    0.0104231   1.25882e+09   1.00661e+09   3.03452e+09
    0.0104615   1.26734e+09   1.01116e+09    3.0454e+09
       0.0105   1.27581e+09   1.01574e+09   3.05628e+09
    0.0105385   1.28421e+09   1.02035e+09   3.06716e+09
    0.0105769   1.29254e+09   1.02498e+09   3.07803e+09
    0.0106154   1.30081e+09   1.02964e+09   3.08891e+09
    0.0106538     1.309e+09   1.03433e+09   3.09978e+09
    0.0106923   1.31711e+09   1.03906e+09   3.11065e+09
    0.0107308   1.32514e+09   1.04381e+09   3.12152e+09
    0.0107692   1.33309e+09   1.04859e+09   3.13238e+09
    0.0108077   1.34096e+09   1.05341e+09   3.14325e+09
    0.0108462   1.34874e+09   1.05825e+09   3.15411e+09
    0.0108846   1.35642e+09   1.06313e+09   3.16497e+09
    0.0109231   1.36402e+09   1.06805e+09   3.17583e+09
    0.0109615   1.37151e+09   1.07299e+09   3.18669e+09
        0.011   1.37891e+09   1.07798e+09   3.19754e+09
    0.0110385   1.38621e+09   1.08299e+09    3.2084e+09
    0.0110769   1.39341e+09   1.08805e+09   3.21925e+09
    0.0111154    1.4005e+09   1.09314e+09    3.2301e+09
    0.0111538   1.40749e+09   1.09827e+09   3.24095e+09
    0.0111923   1.41437e+09   1.10344e+09   3.25179e+09
    0.0112308   1.42114e+09   1.10864e+09   3.26264e+09
    0.0112692    1.4278e+09   1.11389e+09   3.27348e+09
    0.0113077   1.43434e+09   1.11918e+09   3.28432e+09
    0.0113462   1.44078e+09   1.12451e+09   3.29516e+09
    0.0113846   1.44709e+09   1.12988e+09     3.306e+09
    0.0114231   1.45329e+09   1.13529e+09   3.31683e+09
    0.0114615   1.45938e+09   1.14074e+09   3.32767e+09
       0.0115   1.46534e+09   1.14624e+09    3.3385e+09
    0.0115385   1.47119e+09   1.15179e+09   3.34933e+09
    0.0115769   1.47692e+09   1.15738e+09   3.36016e+09
    0.0116154   1.48253e+09   1.16301e+09   3.37099e+09
    0.0116538   1.48802e+09    1.1687e+09   3.38181e+09
    0.0116923   1.49339e+09   1.17443e+09   3.39264e+09
    0.0117308   1.49864e+09    1.1802e+09   3.40346e+09
    0.0117692   1.50377e+09   1.18603e+09   3.41428e+09
    0.0118077   1.50878e+09   1.19191e+09    3.4251e+09
    0.0118462   1.51367e+09   1.19783e+09   3.43591e+09
    0.0118846   1.51844e+09   1.20381e+09   3.44673e+09
    0.0119231    1.5231e+09   1.20984e+09   3.45754e+09
    0.0119615   1.52763e+09   1.21592e+09   3.46835e+09
        0.012   1.53205e+09   1.22205e+09   3.47916e+09
    0.0120385   1.53635e+09   1.22824e+09   3.48997e+09
    0.0120769   1.54054e+09   1.23448e+09   3.50078e+09
    0.0121154   1.54462e+09   1.24078e+09   3.51158e+09
    0.0121538   1.54858e+09   1.24713e+09   3.52238e+09
    0.0121923   1.55243e+09   1.25354e+09   3.53319e+09
    0.0122308   1.55616e+09   1.26001e+09   3.54399e+09
    0.0122692   1.55979e+09   1.26653e+09   3.55478e+09
    0.0123077   1.56331e+09   1.27311e+09   3.56558e+09
    0.0123462   1.56673e+09   1.27975e+09   3.57638e+09
    0.0123846   1.57004e+09   1.28645e+09   3.58717e+09
    0.0124231   1.57324e+09    1.2932e+09   3.59796e+09
    0.0124615   1.57635e+09   1.30002e+09   3.60875e+09
       0.0125   1.57935e+09    1.3069e+09   3.61954e+09
    0.0125385   1.58226e+09   1.31384e+09   3.63032e+09
    0.0125769   1.58507e+09   1.32084e+09   3.64111e+09
    0.0126154   1.58778e+09    1.3279e+09   3.65189e+09
    0.0126538    1.5904e+09   1.33502e+09   3.66267e+09
    0.0126923   1.59293e+09   1.34221e+09   3.67345e+09
    0.0127308   1.59538e+09   1.34946e+09   3.68423e+09
    0.0127692   1.59773e+09   1.35677e+09   3.69501e+09
    0.0128077       1.6e+09   1.36414e+09   3.70579e+09
    0.0128462   1.60219e+09   1.37158e+09   3.71656e+09
    0.0128846   1.60429e+09   1.37909e+09   3.72733e+09
    0.0129231   1.60632e+09   1.38666e+09    3.7381e+09
    0.0129615   1.60827e+09   1.39429e+09   3.74887e+09
        0.013   1.61015e+09   1.40198e+09   3.75964e+09
    0.0130385   1.61195e+09   1.40974e+09    3.7704e+09
    0.0130769   1.61368e+09   1.41757e+09   3.78117e+09
    0.0131154   1.61534e+09   1.42546e+09   3.79193e+09
    0.0131538   1.61693e+09   1.43341e+09   3.80269e+09
    0.0131923   1.61846e+09   1.44143e+09   3.81345e+09
    0.0132308   1.61992e+09   1.44952e+09   3.82421e+09
    0.0132692   1.62133e+09   1.45767e+09   3.83496e+09
    0.0133077   1.62267e+09   1.46588e+09   3.84572e+09
    0.0133462   1.62396e+09   1.47415e+09   3.85647e+09
    0.0133846   1.62519e+09   1.48249e+09   3.86722e+09
    0.0134231   1.62637e+09    1.4909e+09   3.87797e+09
    0.0134615   1.62749e+09   1.49936e+09   3.88872e+09
       0.0135   1.62857e+09   1.50789e+09   3.89947e+09
    0.0135385   1.62959e+09   1.51648e+09   3.91021e+09
    0.0135769   1.63057e+09   1.52513e+09   3.92096e+09
    0.0136154   1.63151e+09   1.53385e+09    3.9317e+09
    0.0136538    1.6324e+09   1.54262e+09   3.94244e+09
    0.0136923   1.63325e+09   1.55146e+09   3.95318e+09
    0.0137308   1.63406e+09   1.56035e+09   3.96392e+09
    0.0137692   1.63483e+09    1.5693e+09   3.97465e+09
    0.0138077   1.63556e+09   1.57831e+09   3.98539e+09
    0.0138462   1.63626e+09   1.58738e+09   3.99612e+09
    0.0138846   1.63692e+09    1.5965e+09   4.00686e+09
    0.0139231   1.63755e+09   1.60568e+09   4.01759e+09
    0.0139615   1.63815e+09   1.61491e+09   4.02831e+09
        0.014   1.63871e+09   1.62419e+09   4.03904e+09
    0.0140385   1.63925e+09   1.63353e+09   4.04977e+09
    0.0140769   1.63976e+09   1.64292e+09   4.06049e+09
    0.0141154   1.64025e+09   1.65235e+09   4.07122e+09
    0.0141538   1.64071e+09   1.66184e+09   4.08194e+09
    0.0141923   1.64114e+09   1.67137e+09   4.09266e+09
    0.0142308   1.64155e+09   1.68095e+09   4.10338e+09
    0.0142692   1.64194e+09   1.69057e+09   4.11409e+09
    0.0143077   1.64231e+09   1.70023e+09   4.12481e+09
    0.0143462   1.64266e+09   1.70994e+09   4.13552e+09
    0.0143846   1.64299e+09   1.71968e+09   4.14623e+09
    0.0144231    1.6433e+09   1.72947e+09   4.15695e+09
    0.0144615   1.64359e+09   1.73929e+09   4.16766e+09
       0.0145   1.64387e+09   1.74914e+09   4.17836e+09
    0.0145385   1.64413e+09   1.75903e+09   4.18907e+09
    0.0145769   1.64438e+09   1.76895e+09   4.19978e+09
    0.0146154   1.64461e+09    1.7789e+09   4.21048e+09
    0.0146538   1.64483e+09   1.78888e+09   4.22118e+09
    0.0146923   1.64503e+09   1.79888e+09   4.23189e+09
    0.0147308   1.64523e+09   1.80891e+09   4.24259e+09
    0.0147692   1.64541e+09   1.81896e+09   4.25328e+09
    0.0148077   1.64558e+09   1.82903e+09   4.26398e+09
    0.0148462   1.64574e+09   1.83911e+09   4.27468e+09
    0.0148846   1.64589e+09   1.84921e+09   4.28537e+09
    0.0149231   1.64603e+09   1.85933e+09   4.29606e+09
    0.0149615   1.64617e+09   1.86946e+09   4.30676e+09
        0.015   1.64629e+09   1.87959e+09   4.31745e+09
    0.0150385   1.64641e+09   1.88974e+09   4.32814e+09
    0.0150769   1.64652e+09   1.89988e+09   4.33882e+09
    0.0151154   1.64662e+09   1.91004e+09   4.34951e+09
    0.0151538   1.64672e+09   1.92019e+09   4.36019e+09
    0.0151923   1.64681e+09   1.93034e+09   4.37088e+09
    0.0152308   1.64689e+09   1.94048e+09   4.38156e+09
    0.0152692   1.64697e+09   1.95062e+09   4.39224e+09
    0.0153077   1.64705e+09   1.96075e+09   4.40292e+09
    0.0153462   1.64712e+09   1.97087e+09    4.4136e+09
    0.0153846   1.64718e+09   1.98098e+09   4.42427e+09
    0.0154231   1.64724e+09   1.99107e+09   4.43495e+09
    0.0154615    1.6473e+09   2.00114e+09   4.44562e+09
       0.0155   1.64735e+09   2.01119e+09    4.4563e+09
    0.0155385    1.6474e+09   2.02122e+09   4.46697e+09
    0.0155769   1.64745e+09   2.03122e+09   4.47764e+09
    0.0156154   1.64749e+09    2.0412e+09   4.48831e+09
    0.0156538   1.64753e+09   2.05115e+09   4.49897e+09
    0.0156923   1.64756e+09   2.06106e+09   4.50964e+09
    0.0157308    1.6476e+09   2.07094e+09    4.5203e+09
    0.0157692   1.64763e+09   2.08078e+09   4.53097e+09
    0.0158077   1.64766e+09   2.09059e+09   4.54163e+09
    0.0158462   1.64769e+09   2.10035e+09   4.55229e+09
    0.0158846   1.64771e+09   2.11007e+09   4.56295e+09
    0.0159231   1.64774e+09   2.11974e+09   4.57361e+09
    0.0159615   1.64776e+09   2.12936e+09   4.58426e+09
        0.016   1.64778e+09   2.13894e+09   4.59492e+09
    0.0160385    1.6478e+09   2.14846e+09   4.60557e+09
    0.0160769   1.64782e+09   2.15792e+09   4.61623e+09
    0.0161154   1.64783e+09   2.16733e+09   4.62688e+09
    0.0161538   1.64785e+09   2.17669e+09   4.63753e+09
    0.0161923   1.64786e+09   2.18598e+09   4.64818e+09
    0.0162308   1.64788e+09   2.19521e+09   4.65883e+09
    0.0162692   1.64789e+09   2.20437e+09   4.66947e+09
    0.0163077    1.6479e+09   2.21347e+09   4.68012e+09
    0.0163462   1.64791e+09    2.2225e+09   4.69076e+09
    0.0163846   1.64792e+09   2.23145e+09   4.70141e+09
    0.0164231   1.64793e+09   2.24034e+09   4.71205e+09
    0.0164615   1.64794e+09   2.24915e+09   4.72269e+09
       0.0165   1.64794e+09   2.25789e+09   4.73333e+09
    0.0165385   1.64795e+09   2.26655e+09   4.74396e+09
    0.0165769   1.64796e+09   2.27513e+09    4.7546e+09
    0.0166154   1.64796e+09   2.28363e+09   4.76524e+09
    0.0166538   1.64797e+09   2.29206e+09   4.77587e+09
    0.0166923   1.64797e+09   2.30039e+09    4.7865e+09
    0.0167308   1.64798e+09   2.30865e+09   4.79714e+09
    0.0167692   1.64798e+09   2.31681e+09   4.80777e+09
    0.0168077   1.64799e+09   2.32489e+09    4.8184e+09
    0.0168462   1.64799e+09   2.33289e+09   4.82902e+09
    0.0168846   1.64799e+09   2.34079e+09   4.83965e+09
    0.0169231     1.648e+09    2.3486e+09   4.85028e+09
    0.0169615     1.648e+09   2.35632e+09    4.8609e+09
        0.017     1.648e+09   2.36395e+09   4.87152e+09
    0.0170385     1.648e+09   2.37149e+09   4.88215e+09
    0.0170769   1.64801e+09   2.37893e+09   4.89277e+09
    0.0171154   1.64801e+09   2.38628e+09   4.90339e+09
    0.0171538   1.64801e+09   2.39353e+09   4.91401e+09
    0.0171923   1.64801e+09   2.40068e+09   4.92462e+09
    0.0172308   1.64801e+09   2.40774e+09   4.93524e+09
    0.0172692   1.64801e+09   2.41471e+09   4.94586e+09
    0.0173077   1.64802e+09   2.42157e+09   4.95647e+09
    0.0173462   1.64802e+09   2.42833e+09   4.96708e+09
    0.0173846   1.64802e+09     2.435e+09   4.97769e+09
    0.0174231   1.64802e+09   2.44157e+09    4.9883e+09
    0.0174615   1.64802e+09   2.44804e+09   4.99891e+09
       0.0175   1.64802e+09   2.45441e+09   5.00952e+09
    0.0175385   1.64802e+09   2.46068e+09   5.02013e+09
    0.0175769   1.64802e+09   2.46685e+09   5.03073e+09
    0.0176154   1.64802e+09   2.47292e+09   5.04134e+09
    0.0176538   1.64802e+09   2.47889e+09   5.05194e+09
    0.0176923   1.64802e+09   2.48476e+09   5.06255e+09
    0.0177308   1.64802e+09   2.49053e+09   5.07315e+09
    0.0177692   1.64803e+09   2.49621e+09   5.08375e+09
    0.0178077   1.64803e+09   2.50178e+09   5.09435e+09
    0.0178462   1.64803e+09   2.50725e+09   5.10494e+09
    0.0178846   1.64803e+09   2.51263e+09   5.11554e+09
    0.0179231   1.64803e+09   2.51791e+09   5.12614e+09
    0.0179615   1.64803e+09   2.52309e+09   5.13673e+09
        0.018   1.64803e+09   2.52818e+09   5.14733e+09
    0.0180385   1.64803e+09   2.53316e+09   5.15792e+09
    0.0180769   1.64803e+09   2.53806e+09   5.16851e+09
    0.0181154   1.64803e+09   2.54285e+09    5.1791e+09
    0.0181538   1.64803e+09   2.54755e+09   5.18969e+09
    0.0181923   1.64803e+09   2.55216e+09   5.20028e+09
    0.0182308   1.64803e+09   2.55667e+09   5.21086e+09
    0.0182692   1.64803e+09   2.56109e+09   5.22145e+09
    0.0183077   1.64803e+09   2.56542e+09   5.23203e+09
    0.0183462   1.64803e+09   2.56966e+09   5.24262e+09
    0.0183846   1.64803e+09   2.57381e+09    5.2532e+09
    0.0184231   1.64803e+09   2.57787e+09   5.26378e+09
    0.0184615   1.64803e+09   2.58184e+09   5.27436e+09
       0.0185   1.64803e+09   2.58572e+09   5.28494e+09
    0.0185385   1.64803e+09   2.58952e+09   5.29552e+09
    0.0185769   1.64803e+09   2.59323e+09    5.3061e+09
    0.0186154   1.64803e+09   2.59685e+09   5.31668e+09
    0.0186538   1.64803e+09   2.60039e+09   5.32725e+09
    0.0186923   1.64803e+09   2.60385e+09   5.33783e+09
    0.0187308   1.64803e+09   2.60723e+09    5.3484e+09
    0.0187692   1.64803e+09   2.61053e+09   5.35897e+09
    0.0188077   1.64803e+09   2.61375e+09   5.36954e+09
    0.0188462   1.64803e+09   2.61689e+09   5.38011e+09
    0.0188846   1.64803e+09   2.61995e+09   5.39068e+09
    0.0189231   1.64803e+09   2.62294e+09   5.40125e+09
    0.0189615   1.64803e+09   2.62585e+09   5.41182e+09
        0.019   1.64803e+09   2.62869e+09   5.42238e+09
    0.0190385   1.64803e+09   2.63145e+09   5.43295e+09
    0.0190769   1.64803e+09   2.63415e+09   5.44351e+09
    0.0191154   1.64803e+09   2.63677e+09   5.45408e+09
    0.0191538   1.64803e+09   2.63933e+09   5.46464e+09
    0.0191923   1.64803e+09   2.64182e+09    5.4752e+09
    0.0192308   1.64803e+09   2.64424e+09   5.48576e+09
    0.0192692   1.64803e+09    2.6466e+09   5.49632e+09
    0.0193077   1.64803e+09   2.64889e+09   5.50688e+09
    0.0193462   1.64803e+09   2.65112e+09   5.51743e+09
    0.0193846   1.64803e+09   2.65328e+09   5.52799e+09
    0.0194231   1.64803e+09   2.65539e+09   5.53855e+09
    0.0194615   1.64803e+09   2.65744e+09    5.5491e+09
       0.0195   1.64803e+09   2.65943e+09   5.55965e+09
    0.0195385   1.64803e+09   2.66136e+09   5.57021e+09
    0.0195769   1.64803e+09   2.66324e+09   5.58076e+09
    0.0196154   1.64803e+09   2.66506e+09   5.59131e+09
    0.0196538   1.64803e+09   2.66683e+09   5.60186e+09
    0.0196923   1.64803e+09   2.66854e+09   5.61241e+09
    0.0197308   1.64803e+09   2.67021e+09   5.62295e+09
    0.0197692   1.64803e+09   2.67182e+09    5.6335e+09
    0.0198077   1.64803e+09   2.67339e+09   5.64405e+09
    0.0198462   1.64803e+09   2.67491e+09   5.65459e+09
    0.0198846   1.64803e+09   2.67638e+09   5.66514e+09
    0.0199231   1.64803e+09    2.6778e+09   5.67568e+09
    0.0199615   1.64803e+09   2.67918e+09   5.68622e+09
         0.02   1.64803e+09   2.68052e+09   5.69676e+09
    0.0200385   1.64803e+09   2.68182e+09    5.7073e+09
    0.0200769   1.64803e+09   2.68307e+09   5.71784e+09
    0.0201154   1.64803e+09   2.68429e+09   5.72838e+09
    0.0201538   1.64803e+09   2.68546e+09   5.73892e+09
    0.0201923   1.64803e+09    2.6866e+09   5.74946e+09
    0.0202308   1.64803e+09    2.6877e+09   5.75999e+09
    0.0202692   1.64803e+09   2.68876e+09   5.77053e+09
    0.0203077   1.64803e+09   2.68979e+09   5.78106e+09
    0.0203462   1.64803e+09   2.69078e+09    5.7916e+09
    0.0203846   1.64803e+09   2.69174e+09   5.80213e+09
    0.0204231   1.64803e+09   2.69267e+09   5.81266e+09
    0.0204615   1.64803e+09   2.69356e+09   5.82319e+09
       0.0205   1.64803e+09   2.69443e+09   5.83372e+09