# Probe 0 (0 0 0)
# Probe 1 (0 0 0.004)
# Probe 2 (0 0 0.008)
#       Probe             0             1             2
#        Time
  6.84932e-05      0.535032      0.619933      0.619934
  0.000136986      0.556385      0.619934      0.619934
  0.000205479      0.572992      0.619934      0.619935
  0.000273973      0.597266      0.619934      0.619935
  0.000342466      0.627542      0.619934      0.619935
  0.000410959      0.660665      0.619934      0.619935
  0.000479452      0.695089      0.619934      0.619935
  0.000547945      0.729669      0.619935      0.619935
  0.000616438      0.763453      0.619935      0.619935
  0.000684932      0.795911      0.619935      0.619935
  0.000753425      0.827182      0.619935      0.619935
  0.000821918      0.857964      0.619935      0.619935
  0.000890411      0.889126      0.619935      0.619935
  0.000958904      0.921357      0.619935      0.619935
    0.0010274      0.955069      0.619935      0.619935
   0.00109589      0.990457      0.619935      0.619935
   0.00116438       1.02758      0.619935      0.619935
   0.00123288       1.06644      0.619936      0.619935
   0.00130137       1.10701      0.619936      0.619935
   0.00136986       1.14925      0.619936      0.619935
   0.00143836       1.19313      0.619936      0.619935
   0.00150685       1.23864      0.619936      0.619935
   0.00157534       1.28574      0.619936      0.619936
   0.00164384       1.33443      0.619936      0.619936
   0.00171233        1.3847      0.619936      0.619936
   0.00178082       1.43655      0.619936      0.619936
   0.00184932       1.48997      0.619936      0.619936
   0.00191781       1.54497      0.619936      0.619936
    0.0019863       1.60156      0.619936      0.619936
   0.00205479       1.65974      0.619936      0.619936
   0.00212329       1.71952      0.619936      0.619936
   0.00219178       1.78091      0.619936      0.619936
   0.00226027       1.84393      0.619936      0.619936
   0.00232877       1.90857      0.619936      0.619936
   0.00239726       1.97486      0.619936      0.619937
   0.00246575       2.04281      0.619936      0.619937
   0.00253425       2.11242      0.619936      0.619937
   0.00260274       2.18372      0.619936      0.619937
   0.00267123       2.25672      0.619936      0.619937
   0.00273973       2.33142      0.619936      0.619937
   0.00280822       2.40785      0.619936      0.619937
   0.00287671       2.48601      0.619936      0.619937
   0.00294521       2.56593      0.619936      0.619937
    0.0030137       2.64761      0.619936      0.619937
   0.00308219       2.73107      0.619936      0.619937
   0.00315068       2.81632      0.619936      0.619937
   0.00321918       2.90339      0.619936      0.619937
   0.00328767       2.99227      0.619936      0.619938
   0.00335616       3.08299      0.619936      0.619938
   0.00342466       3.17556      0.619936      0.619938
   0.00349315          3.27      0.619936      0.619938
   0.00356164       3.36632      0.619936      0.619938
   0.00363014       3.46453      0.619936      0.619938
   0.00369863       3.56465      0.619936      0.619938
   0.00376712       3.66669      0.619936      0.619938
   0.00383562       3.77068      0.619936      0.619938
   0.00390411       3.87661      0.619936      0.619938
    0.0039726       3.98451      0.619936      0.619938
    0.0040411        4.0944      0.619936      0.619938
   0.00410959       4.20628      0.619936      0.619938
   0.00417808       4.32017      0.619936      0.619938
   0.00424658       4.43609      0.619936      0.619939
   0.00431507          52.9      0.619936      0.619939
   0.00438356       5.40137      0.619936      0.619939
   0.00445205       5.90735      0.619937      0.619939
   0.00452055       6.31771      0.619938      0.619939
   0.00458904       6.68426      0.619943      0.619939
   0.00465753       7.02633      0.619963      0.619939
   0.00472603       7.35345      0.620033      0.619939
   0.00479452       7.67107      0.620035      0.619939
   0.00486301       7.98264      0.619903      0.619939
   0.00493151       8.29046      0.618981      0.619939
        0.005       8.59617      0.613002      0.619939
   0.00506849       8.90096      0.449971      0.619939
   0.00513699       9.20574      0.699866      0.619939
   0.00520548       9.51123      0.699945      0.619939
   0.00527397       9.81796      0.699946      0.619939
   0.00534247       10.1264      0.699827      0.619939
   0.00541096       10.4369      0.699551      0.619939
   0.00547945       10.7498       0.69911      0.619939
   0.00554795       11.0654       0.69852      0.619939
   0.00561644       11.3837      0.697681      0.619939
   0.00568493       11.7051      0.695696      0.619939
   0.00575342       12.0298      0.684537      0.619939
   0.00582192       12.3577      0.972053      0.619939
   0.00589041       12.6891      0.905507      0.619939
    0.0059589        13.024      0.913804      0.619939
    0.0060274       13.3625      0.928054      0.619939
   0.00609589       13.7048      0.943502       0.61994
   0.00616438       14.0508      0.959422       0.61994
   0.00623288       14.4007      0.975709       0.61994
   0.00630137       14.7544      0.992371       0.61994
   0.00636986        15.112       1.00943       0.61994
   0.00643836       15.4735        1.0269       0.61994
   0.00650685       15.8389       1.04479       0.61994
   0.00657534       16.2083       1.06309       0.61994
   0.00664384       16.5817       1.08182       0.61994
   0.00671233        16.959       1.10097       0.61994
   0.00678082       17.3402       1.12054       0.61994
   0.00684932       17.7253       1.14054       0.61994
   0.00691781       18.1143       1.16097       0.61994
    0.0069863       18.5071       1.18183       0.61994
   0.00705479       18.9037       1.20312       0.61994
   0.00712329        19.304       1.22486       0.61994
   0.00719178       19.7081       1.24705       0.61994
   0.00726027       20.1157       1.26969       0.61994
   0.00732877       20.5268        1.2928       0.61994
   0.00739726       20.9414       1.31638       0.61994
   0.00746575       21.3592       1.34044       0.61994
   0.00753425       21.7803       1.36499       0.61994
   0.00760274       22.2045       1.39003       0.61994
   0.00767123       22.6317       1.41558       0.61994
   0.00773973       23.0616       1.44165       0.61994
   0.00780822       23.4942       1.46825       0.61994
   0.00787671       23.9293       1.49538       0.61994
   0.00794521       24.3667       1.52306       0.61994
    0.0080137       24.8062        1.5513       0.61994
   0.00808219       25.2475       1.58011       0.61994
   0.00815068       25.6905        1.6095       0.61994
   0.00821918       34.6513       1.63948       0.61994
   0.00828767       11.5128       1.67006       0.61994
   0.00835616       11.7744       1.70125       0.61994
   0.00842466       12.0572       1.73308       0.61994
   0.00849315       12.3529       1.76554       0.61994
   0.00856164       12.6574       1.79865       0.61994
   0.00863014       12.9681       1.83243       0.61994
   0.00869863       13.2838       1.86689       0.61994
   0.00876712       13.6036       1.90204       0.61994
   0.00883562       13.9269        1.9379       0.61994
   0.00890411       14.2534       1.97449       0.61994
    0.0089726       14.5829       2.01182       0.61994
    0.0090411       14.9153       2.04994       0.61994
   0.00910959       15.2506       2.08884       0.61994
   0.00917808       15.5886       2.12857       0.61994
   0.00924658       15.9294       2.16914       0.61994
   0.00931507       16.2729       2.21057       0.61994
   0.00938356       16.6193       2.25289       0.61994
   0.00945205       16.9684       2.29613       0.61994
   0.00952055       17.3204       2.34031       0.61994
   0.00958904       17.6752       2.38547       0.61994
   0.00965753       18.0328       2.43169       0.61994
   0.00972603       18.3933       2.47906       0.61994
   0.00979452       18.7566        2.5277       0.61994
   0.00986301       19.1229       2.57777       0.61994
   0.00993151       19.4921       2.62944       0.61994
         0.01       19.8642       2.68285       0.61994
    0.0100685       20.2392        2.7381       0.61994
     0.010137       20.6171       2.79516       0.61994
    0.0102055        20.998        2.8539       0.61994
     0.010274       21.3817         2.914       0.61994
    0.0103425       21.7684       2.97492       0.61994
     0.010411       22.1579        3.0359       0.61994
    0.0104795       22.5503       3.09607       0.61994
    0.0105479       22.9455       3.15484       0.61994
    0.0106164       23.3434       3.21217       0.61994
    0.0106849       23.7442       3.26853       0.61994
    0.0107534       24.1477       3.32423       0.61994
    0.0108219       24.5538       3.37682      0.619941
    0.0108904       24.9626       3.42372      0.619943
    0.0109589       25.3739       3.46495      0.619946
    0.0110274       25.7878       3.50149      0.619951
    0.0110959       26.2041       3.53748      0.619962
    0.0111644       26.6227       3.57438      0.619981
    0.0112329       27.0437       3.58346      0.620018
    0.0113014       27.4669       3.58594      0.620085
    0.0113699       27.8922       3.62247      0.620647
    0.0114384       28.3195       3.54785      0.621846
    0.0115068       28.7487        8.2505      0.624031
    0.0115753       29.1798       8.88149      0.627829
    0.0116438       29.6127        9.5658      0.633873
    0.0117123       30.0471       10.3008      0.642301
    0.0117808        30.483       11.0828      0.651782
    0.0118493       30.9203       11.9073      0.659797
    0.0119178       31.3589       12.7688      0.665095
    0.0119863       31.7986       13.6611      0.668248
    0.0120548       32.2392       14.5775      0.670177
    0.0121233       32.6807       15.5106        0.6715
    0.0121918       33.1229       16.4531      0.672586
    0.0122603       33.5656       17.3972      0.673725
    0.0123288       34.0087       18.3353      0.675165
    0.0123973       34.4521       19.2598      0.677178
    0.0124658       34.8955       20.1636      0.680124
    0.0125342       35.3389       21.0397      0.684493
    0.0126027        35.782       21.8818      0.690957
    0.0126712       36.2247       22.6842      0.700399
    0.0127397       36.6668       23.4416      0.713938
    0.0128082       37.1081       24.1497      0.732856
    0.0128767       37.5486       24.8047      0.758408
    0.0129452       37.9879       25.4036      0.791492
    0.0130137       38.4259       25.9442      0.832203
    0.0130822       38.8625       26.4249      0.879458
    0.0131507       39.2974       26.8449      0.930992
    0.0132192       39.7305        27.204      0.983823
    0.0132877       40.1617       27.5028       1.03505
    0.0133562       40.5907       27.7422       1.08251
    0.0134247       41.0173       27.9239        1.1251
    0.0134932       41.4415       28.0499       1.16263
    0.0135616        41.863       28.1226       1.19549
    0.0136301       42.2817        28.145        1.2244
    0.0136986       42.6974       28.1202        1.2501
    0.0137671       43.1099       28.0515       1.27328
    0.0138356       43.5191       27.9425       1.29451
    0.0139041       43.9249        27.797       1.31424
    0.0139726       44.3271       27.6188       1.33277
    0.0140411       44.7256       27.4117       1.35034
    0.0141096       45.1202       27.1797       1.36708
    0.0141781       45.5108       26.9264       1.38307
    0.0142466       45.8973       26.6557       1.39833
    0.0143151       46.2796       26.3712       1.41286
    0.0143836       46.6575       26.0763       1.42664
    0.0144521        47.031       25.7746       1.43968
    0.0145205          47.4        25.469         1.452
     0.014589       47.7643       25.1627        1.4637
    0.0146575        48.124       24.8584       1.47496
     0.014726        48.479       24.5587        1.4861
    0.0147945       48.8291        24.266       1.49764
     0.014863       49.1743       23.9825       1.51037
    0.0149315       49.5147         23.71       1.52552
        0.015       49.8501       23.4504       1.54501
    0.0150685       50.1805       23.2053       1.57192
     0.015137       50.5059       22.9759       1.61118
    0.0152055       50.8264       22.7634       1.66991
     0.015274       51.1418       22.5688       1.75525
    0.0153425       51.4522        22.393       1.86652
     0.015411       51.7577       22.2365       1.98883
    0.0154795       52.0581       22.0999       2.10245
    0.0155479       52.3537       21.9836       2.19692
    0.0156164       52.6443       21.8878       2.27209
    0.0156849       52.9302       21.8126       2.33242
    0.0157534       53.2112       21.7581       2.38288
    0.0158219       53.4874       21.7242       2.42743
    0.0158904        53.759       21.7107       2.46884
    0.0159589        54.026       21.7175       2.50888
    0.0160274       54.2885       21.7443       2.54862
    0.0160959       54.5465       21.7908       2.58866
    0.0161644       54.8001       21.8566       2.62929
    0.0162329       55.0495       21.9413       2.67059
    0.0163014       55.2947       22.0446       2.71253
    0.0163699       55.5358       22.1661       2.75501
    0.0164384       55.7729       22.3053       2.79788
    0.0165068       56.0062       22.4619       2.84096
    0.0165753       56.2357       22.6353       2.88408
    0.0166438       56.4615       22.8253       2.92706
    0.0167123       56.6839       23.0314       2.96975
    0.0167808       56.9028       23.2535       3.01198
    0.0168493       57.1184       23.4911       3.05361
    0.0169178       57.3308       23.7443       3.09451
    0.0169863       57.5401        24.013       3.13455
    0.0170548       57.7464       24.2973       3.17363
    0.0171233         57.95       24.5977       3.21161
    0.0171918       58.1508       24.9147       3.24838
    0.0172603        58.349       25.2492       3.28381
    0.0173288       58.5447       25.6024       3.31773
    0.0173973        58.738       25.9759       3.34998
    0.0174658       58.9291       26.3717       3.38035
    0.0175342        59.118       26.7928       3.40865
    0.0176027       59.3048       27.2427       3.43467
    0.0176712       59.4897        27.726       3.45818
    0.0177397       59.6728       28.2487         3.479
    0.0178082       59.8541       28.8185       3.49691
    0.0178767       60.0338       29.4453       3.51175
    0.0179452       60.2119       30.1419       3.52337
    0.0180137       60.3885       30.9245       3.53164
    0.0180822       60.5638       31.8131       3.53651
    0.0181507       60.7379       32.8321       3.53801
    0.0182192       60.9107       34.0098       3.53623
    0.0182877       61.0824       35.3778       3.53138
    0.0183562        61.253       36.9696       3.52375
    0.0184247       61.4227       38.8185       3.51365
    0.0184932       61.5915       40.9542       3.50141
    0.0185616       61.7594       43.3997       3.41261
    0.0186301       61.9266       46.1684       3.53964
    0.0186986       62.0931       49.2614       10.9281
    0.0187671       62.2588       52.6697       11.4021
    0.0188356        62.424       56.3856       11.8874
    0.0189041       62.5886       60.4188       12.3823
    0.0189726       62.7527       64.8159       12.8852
    0.0190411       62.9163        69.661       13.3943
    0.0191096       63.0795       75.0484       13.9079
    0.0191781       63.2422       81.0431       14.4241
    0.0192466       63.4046        87.644       14.9412
    0.0193151       63.5666       95.1105       15.4572
    0.0193836       63.7283       107.134       15.9704
    0.0194521       63.8897       124.179       16.4788
    0.0195205       64.0509        159.02       16.9807
     0.019589       64.2117       191.939       17.4744
    0.0196575       64.3724       216.151       17.9582
     0.019726       64.5327       230.607       18.4303
    0.0197945       64.6929       334.973       18.8894
     0.019863       64.8528        296.59        19.334
    0.0199315       65.0126       314.681       19.7627
         0.02       65.1721       327.427       20.1745
    0.0200685       65.3314       345.116       20.5682
     0.020137       65.4904       309.743       20.9429
    0.0202055       65.6493       278.636       21.2977
     0.020274       65.8079       251.186        21.632
    0.0203425       65.9663       226.588       21.9454
     0.020411       66.1245         207.1       22.2373
    0.0204795       66.2824       217.684       22.5076
    0.0205479         66.44       212.371        22.756
    0.0206164       66.5974       198.354       22.9827
    0.0206849       66.7544       179.933       23.1876
    0.0207534       66.9112       159.529       23.3712
    0.0208219       67.0676       138.948       23.5337
    0.0208904       67.2236       119.742       23.6756
    0.0209589       67.3793       103.473       23.7975
    0.0210274       67.5347       90.7765          23.9
    0.0210959       67.6896       81.2554       23.9838
    0.0211644        67.844       74.0667       24.0499
    0.0212329       67.9981        68.394        24.099
    0.0213014       68.1516       63.6276       24.1322
    0.0213699       68.3047       59.3837       24.1504
    0.0214384       68.4572       55.4682       24.1546
    0.0215068       68.6092       51.8276        24.146
    0.0215753       68.7606       48.4994       24.1257
    0.0216438       68.9114       45.5592       24.0948
    0.0217123       69.0615        43.072       24.0544
    0.0217808       69.2111       41.0614       24.0057
    0.0218493       69.3599       39.5044       23.9499
    0.0219178       69.5081       38.3449       23.8881
    0.0219863       69.6555       37.5131       23.8215
    0.0220548       69.8022       36.9407       23.7511
    0.0221233        69.948       36.5684       23.6782
    0.0221918       70.0931        36.349       23.6037
    0.0222603       70.2374       36.2461       23.5288
    0.0223288       70.3808       36.2324       23.4544
    0.0223973       70.5233       36.2878       23.3816
    0.0224658       70.6649       36.3975       23.3113
    0.0225342       70.8056       36.5503       23.2445
    0.0226027       70.9453       36.7379       23.1819
    0.0226712       71.0841       36.9539       23.1244
    0.0227397       71.2218       37.1933       23.0728
    0.0228082       71.3586       37.4522       23.0278
    0.0228767       71.4943       37.7274       22.9901
    0.0229452       71.6289       38.0163       22.9603
    0.0230137       71.7624       38.3168       22.9391
    0.0230822       71.8949       38.6271        22.927
    0.0231507       72.0262       38.9459       22.9245
    0.0232192       72.1563       39.2718       22.9321
    0.0232877       72.2853       39.6038       22.9502
    0.0233562       72.4132       39.9411       22.9793
    0.0234247       72.5398       40.2829       23.0197
    0.0234932       72.6652       40.6287       23.0719
    0.0235616       72.7894       40.9777       23.1363
    0.0236301       72.9123       41.3297       23.2133
    0.0236986        73.034       41.6842       23.3032
    0.0237671       73.1544       42.0408       23.4066
    0.0238356       73.2735       42.3993       23.5239
    0.0239041       73.3913       42.7594       23.6558
    0.0239726       73.5078       43.1208       23.8029
    0.0240411        73.623       43.4833       23.9658
    0.0241096       73.7368       43.8468       24.1456
    0.0241781       73.8493       44.2109       24.3432
    0.0242466       73.9605       44.5757       24.5598
    0.0243151       74.0703       44.9409       24.7969
    0.0243836       74.1788       45.3063        25.056
    0.0244521       74.2859       45.6718       25.3391
    0.0245205       74.3916       46.0373       25.6485
     0.024589       74.4959       46.4026       25.9868
    0.0246575       74.5989       46.7677       26.3571
     0.024726       74.7005       47.1323       26.7633
    0.0247945       74.8006       47.4964       27.2098
     0.024863       74.8995       47.8598       27.7017
    0.0249315       74.9969       48.2224       28.2456
        0.025       75.0929       48.5842        28.849
    0.0250685       75.1875       48.9449       29.5212
     0.025137       75.2808       49.3044       30.2734
    0.0252055       75.3727       49.6627       31.1194
     0.025274       75.4632       50.0197       32.0756
    0.0253425       75.5523       50.3752       33.1625
     0.025411         75.64       50.7291       34.4044
    0.0254795       75.7264       51.0813        35.831
    0.0255479       75.8114       51.4317       37.4779
    0.0256164       75.8951       51.7802       39.3875
    0.0256849       75.9774       52.1267       41.6101
    0.0257534       76.0583       52.4712       44.2049
    0.0258219       76.1379       52.8134       47.2414
    0.0258904       76.2162       53.1534       50.8007
    0.0259589       76.2932        53.491       54.9786
    0.0260274       76.3689       53.8261       59.8894
    0.0260959       76.4432       54.1587       65.6737
    0.0261644       76.5163       54.4887       72.5082
    0.0262329       76.5881        54.816       80.6205
    0.0263014       76.6586       55.1405       90.3067
    0.0263699       76.7279       55.4622       101.953
    0.0264384       76.7959        55.781       116.059
    0.0265068       76.8626       56.0969       133.266
    0.0265753       76.9282       56.4097       154.367
    0.0266438       76.9925       56.7195       180.322
    0.0267123       77.0557       57.0261       212.318
    0.0267808       77.1177       57.3296       251.879
    0.0268493       77.1784         57.63       300.894
    0.0269178       77.2381       57.9271       361.422
    0.0269863       77.2966       58.2209       435.252
    0.0270548       77.3539       58.5115       523.317
    0.0271233       77.4102       58.7988       625.149
    0.0271918       77.4654       59.0828       738.552
    0.0272603       77.5194       59.3635       879.932
    0.0273288       77.5724       59.6408        1058.7
    0.0273973       77.6244       59.9148       1263.82
    0.0274658       77.6753       60.1856       1480.73
    0.0275342       77.7252        60.453       1699.82
    0.0276027       77.7741       60.7171       1931.17
    0.0276712        77.822       60.9779       2206.36
    0.0277397       77.8689       61.2355       2346.43
    0.0278082       77.9149       61.4899       2332.11
    0.0278767       77.9599        61.741       2177.75
    0.0279452        78.004        61.989       1884.39
    0.0280137       78.0472       62.2339        1501.1
    0.0280822       78.0895       62.4756       1164.14
    0.0281507       78.1309       62.7144       931.547
    0.0282192       78.1715       62.9501       777.505
    0.0282877       78.2112       63.1828       669.716
    0.0283562         78.25       63.4127       588.298
    0.0284247       78.2881       63.6397       522.749
    0.0284932       78.3254       63.8639       467.683
    0.0285616       78.3618       64.0854        420.27
    0.0286301       78.3975       64.3042       378.922
    0.0286986       78.4325       64.5205       342.657
    0.0287671       78.4667       64.7341       310.799
    0.0288356       78.5002       64.9453       282.826
    0.0289041        78.533        65.154       258.308
    0.0289726       78.5651       65.3604       236.869
    0.0290411       78.5965       65.5645       218.177
    0.0291096       78.6272       65.7664       201.929
    0.0291781       78.6573       65.9662       187.849
    0.0292466       78.6867       66.1638       175.688
    0.0293151       78.7156       66.3594       165.219
    0.0293836       78.7438       66.5531       156.237
    0.0294521       78.7714       66.7449       148.559
    0.0295205       78.7985       66.9349       142.024
     0.029589       78.8249       67.1231       136.478
    0.0296575       78.8509       67.3096       131.799
     0.029726       78.8762       67.4945       127.895
    0.0297945       78.9011       67.6778       124.691
     0.029863       78.9254       67.8596       122.136
    0.0299315       78.9492         68.04       120.187
         0.03       78.9726        68.219       118.756
    0.0300685       78.9954       68.3967       117.674
     0.030137       79.0178       68.5731       117.147
    0.0302055       79.0397       68.7482       117.186
     0.030274       79.0612       68.9222       117.399
    0.0303425       79.0822       69.0951       117.207
     0.030411       79.1028       69.2669       116.125
    0.0304795        79.123       69.4376       113.923
    0.0305479       79.1428       69.6074       118.733
    0.0306164       79.1622       69.7763       118.851
    0.0306849       79.1811       69.9442       113.896
    0.0307534       79.1998       70.1113       105.793
    0.0308219        79.218       70.2775       96.3582
    0.0308904       79.2359        70.443       86.9711
    0.0309589       79.2534       70.6077       78.4658
    0.0310274       79.2706       70.7716       71.1452
    0.0310959       79.2875       70.9349       65.0015
    0.0311644        79.304       71.0974       67.6024
    0.0312329       79.3202       71.2593       66.3663
    0.0313014       79.3361       71.4206       60.7851
    0.0313699       79.3517       71.5813       54.9111
    0.0314384        79.367       71.7414        50.858
    0.0315068        79.382       71.9009       48.3928
    0.0315753       79.3967       72.0598       46.9159
    0.0316438       79.4112       72.2182       46.0282
    0.0317123       79.4253        72.376       45.5044
    0.0317808       79.4393       72.5333       45.2165
    0.0318493       79.4529       72.6901       45.0887
    0.0319178       79.4663       72.8463       45.0735
    0.0319863       79.4795       73.0021       45.1401
    0.0320548       79.4924       73.1573       45.2672
    0.0321233       79.5051        73.312         45.44
    0.0321918       79.5175       73.4662       45.6478
    0.0322603       79.5298       73.6199       45.8826
    0.0323288       79.5418       73.7731       46.1385
    0.0323973       79.5536       73.9257        46.411
    0.0324658       79.5652       74.0779       46.6965
    0.0325342       79.5765       74.2295       46.9924
    0.0326027       79.5877       74.3806       47.2966
    0.0326712       79.5987       74.5311       47.6073
    0.0327397       79.6095       74.6811       47.9231
    0.0328082       79.6201       74.8305        48.243
    0.0328767       79.6305       74.9793        48.566
    0.0329452       79.6407       75.1276       48.8914
    0.0330137       79.6507       75.2752       49.2186
    0.0330822       79.6606       75.4223       49.5471
    0.0331507       79.6703       75.5687       49.8764
    0.0332192       79.6798       75.7145       50.2061
    0.0332877       79.6892       75.8596        50.536
    0.0333562       79.6984       76.0041       50.8657
    0.0334247       79.7074       76.1478       51.1951
    0.0334932       79.7163       76.2909       51.5239
    0.0335616        79.725       76.4333       51.8519
    0.0336301       79.7335       76.5749       52.1789
    0.0336986        79.742       76.7158       52.5049
    0.0337671       79.7502       76.8559       52.8295
    0.0338356       79.7583       76.9952       53.1528
    0.0339041       79.7663       77.1338       53.4746
    0.0339726       79.7741       77.2715       53.7947
    0.0340411       79.7818       77.4083       54.1132
    0.0341096       79.7894       77.5444       54.4298
    0.0341781       79.7968       77.6795       54.7445
    0.0342466       79.8041       77.8138       55.0572
    0.0343151       79.8112       77.9471       55.3678
    0.0343836       79.8182       78.0796       55.6762
    0.0344521       79.8251       78.2111       55.9824
    0.0345205       79.8319       78.3416       56.2863
     0.034589       79.8385       78.4712       56.5878
    0.0346575        79.845       78.5998       56.8869
     0.034726       79.8514       78.7274       57.1836
    0.0347945       79.8577       78.8539       57.4777
     0.034863       79.8638       78.9795       57.7692
    0.0349315       79.8699        79.104       58.0581
        0.035       79.8758       79.2274       58.3443
    0.0350685       79.8816       79.3497       58.6278
     0.035137       79.8873        79.471       58.9087
    0.0352055       79.8929       79.5912       59.1867
     0.035274       79.8983       79.7102        59.462
    0.0353425       79.9037       79.8281       59.7345
     0.035411       79.9089       79.9449       60.0041
    0.0354795       79.9141       80.0605       60.2709
    0.0355479       79.9191        80.175       60.5349
    0.0356164        79.924       80.2883       60.7961
    0.0356849       79.9288       80.4004       61.0544
    0.0357534       79.9336       80.5114       61.3099
    0.0358219       79.9382       80.6211       61.5626
    0.0358904       79.9427       80.7296       61.8124
    0.0359589       79.9471       80.8369       62.0594
    0.0360274       79.9514        80.943       62.3037
    0.0360959       79.9557       81.0479       62.5452
    0.0361644       79.9598       81.1515       62.7839
    0.0362329       79.9638       81.2539       63.0199
    0.0363014       79.9678       81.3551       63.2532
    0.0363699       79.9716        81.455       63.4839
    0.0364384       79.9754       81.5537       63.7119
    0.0365068       79.9791       81.6511       63.9373