# Probe 0 (0 0 0.004)
# Probe 1 (0 0 0.005)
# Probe 2 (0 0 0.006)
# Probe 3 (0 0 0.007)
# Probe 4 (0 0 0.008)
#       Probe             0             1             2             3             4
#        Time
  2.38095e-05             0             0             0             0             0
   4.7619e-05             0             0     0.0194618     0.0167335    0.00050893
  7.14286e-05             0             0      0.154315      0.124211    0.00138129
  9.52381e-05             0             0       0.19127      0.167916     0.0028669
  0.000119048             0             0        0.2119       0.19645    0.00531284
  0.000142857             0             0       0.22603      0.216353    0.00916822
  0.000166667             0             0      0.236715      0.230501     0.0150098
  0.000190476             0             0      0.245431      0.240601     0.0235679
  0.000214286             0             0      0.252813      0.247802     0.0357424
  0.000238095             0             0      0.259095      0.252908     0.0526104
  0.000261905             0             0      0.264582      0.256498     0.0754149
  0.000285714             0             0      0.269442      0.258986      0.105515
  0.000309524             0             0      0.273701      0.260674      0.144264
  0.000333333             0             0      0.277511       0.26178      0.192747
  0.000357143             0             0      0.280959      0.262463      0.251355
  0.000380952             0             0       0.28404      0.262838      0.319182
  0.000404762             0             0      0.286848       0.26299      0.393491
  0.000428571             0             0      0.289443      0.262982      0.469676
  0.000452381             0             0      0.291806      0.262859      0.542131
   0.00047619             0             0      0.294003      0.262655      0.605849
       0.0005             0             0      0.296075      0.262395      0.657836
   0.00052381             0             0      0.297999      0.262098      0.697528
  0.000547619             0             0      0.299821      0.261776      0.726192
  0.000571429             0             0      0.301574      0.261441      0.745949
  0.000595238             0             0      0.303229      0.261099      0.759006
  0.000619048             0             0      0.304823      0.260756       0.76725
  0.000642857             0             0       0.30638      0.260416      0.772134
  0.000666667             0             0      0.307873      0.260082      0.774717
  0.000690476             0             0       0.30933      0.259755      0.775738
  0.000714286             0             0      0.310769      0.259437      0.775706
  0.000738095             0             0      0.312165      0.259129       0.77497
  0.000761905             0             0      0.313541      0.258832      0.773764
  0.000785714             0             0      0.314911      0.258546      0.772248
  0.000809524             0             0      0.316251      0.258271      0.770532
  0.000833333             0             0      0.317581      0.258006      0.768689
  0.000857143             0             0      0.318913      0.257753       0.76677
  0.000880952             0             0      0.320223      0.257511      0.764808
  0.000904762             0             0      0.321528      0.257279      0.762828
  0.000928571             0             0      0.322841      0.257058      0.760846
  0.000952381             0             0      0.324137      0.256847      0.758872
   0.00097619             0             0      0.325432      0.256646      0.756914
        0.001             0             0      0.326738      0.256455      0.754976
   0.00102381             0             0       0.32803      0.256274      0.753062
   0.00104762             0             0      0.329323      0.256102      0.751173
   0.00107143             0             0      0.330628      0.255939       0.74931
   0.00109524             0             0      0.331923      0.255785      0.747473
   0.00111905             0             0       0.33322       0.25564      0.745663
   0.00114286             0             0      0.334529      0.255504      0.743879
   0.00116667             0             0       0.33583      0.255376       0.74212
   0.00119048             0             0      0.337134      0.255256      0.740387
   0.00121429             0             0       0.33845      0.255145      0.738678
    0.0012381             0             0      0.339759      0.255041      0.736993
    0.0012619             0             0      0.341071      0.254946       0.73533
   0.00128571             0             0      0.342396      0.254858       0.73369
   0.00130952             0             0      0.343714      0.254778      0.732071
   0.00133333             0             0      0.345037      0.254705      0.730473
   0.00135714             0             0      0.346371       0.25464      0.728895
   0.00138095             0             0      0.347699      0.254583      0.727337
   0.00140476             0             0      0.349031      0.254532      0.725797
   0.00142857             0             0      0.350376      0.254489      0.724276
   0.00145238             0             0      0.351714      0.254453      0.722772
   0.00147619             0             0      0.353056      0.254424      0.721286
       0.0015             0             0      0.354411      0.254402      0.719816
   0.00152381             0             0      0.355759      0.254387      0.718362
   0.00154762             0             0      0.357112      0.254378      0.716924
   0.00157143             0             0      0.358476      0.254377        0.7155
   0.00159524             0             0      0.359834      0.254382      0.714092
   0.00161905             0             0      0.361197      0.254394      0.712698
   0.00164286             0             0      0.362571      0.254412      0.711319
   0.00166667             0             0      0.363939      0.254437      0.709953
   0.00169048             0             0      0.365312      0.254468        0.7086
   0.00171429             0             0      0.366695      0.254506       0.70726
    0.0017381             0             0      0.368073       0.25455      0.705933
    0.0017619             0             0      0.369455        0.2546      0.704618
   0.00178571             0             0      0.370848      0.254657      0.703316
   0.00180952             0             0      0.372236      0.254719      0.702025
   0.00183333             0             0      0.373627      0.254788      0.700746
   0.00185714             0             0      0.375029      0.254863      0.699478
   0.00188095             0             0      0.376426      0.254943      0.698222
   0.00190476             0             0      0.377826       0.25503      0.696976
   0.00192857             0             0      0.379237      0.255122      0.695741
   0.00195238             0             0      0.380643       0.25522      0.694517
   0.00197619             0             0      0.382053      0.255324      0.693303
