# Probe 0 (0 0 0.006)
# Probe 1 (0 0 0.007)
# Probe 2 (0 0 0.008)
#       Probe             0             1             2
#        Time
  2.38095e-05       1.84023       4.18879      0.708499
   4.7619e-05       1.85913       4.18607      0.708505
  7.14286e-05        3.1482       13.2001      0.708515
  9.52381e-05       5.24212       30.6196      0.708527
  0.000119048       8.29345       58.7214       0.70854
  0.000142857       12.4527       99.4676      0.708545
  0.000166667       17.8829       154.666      0.708528
  0.000190476       24.6968       226.099      0.708452
  0.000214286       32.9922       315.599      0.708249
  0.000238095       42.9077       425.089      0.707786
  0.000261905        54.516       556.587      0.706834
  0.000285714       67.8817       712.198      0.705012
  0.000309524       83.1439       894.105      0.701733
  0.000333333        100.35       1104.55      0.696177
  0.000357143       119.541       1345.83      0.687364
  0.000380952       140.871       1620.27      0.674418
  0.000404762       164.364       1930.23      0.657063
  0.000428571       190.044       2278.09      0.636122
  0.000452381       218.079       2666.27      0.613581
   0.00047619       248.473       3097.18      0.591942
       0.0005       281.227       3573.24      0.573253
   0.00052381       316.531        4096.9      0.558529
  0.000547619       354.364        4670.6      0.547804
  0.000571429       394.702        5296.8      0.540537
  0.000595238       437.758       5977.94      0.536001
  0.000619048       483.484       6716.48      0.533521
  0.000642857       531.832       7514.89      0.532559
  0.000666667       583.038       8375.62       0.53272
  0.000690476       637.026       9301.13      0.533737
  0.000714286        693.72       10293.9      0.535434
  0.000738095       753.386       11356.3      0.537705
  0.000761905       815.915       12490.9      0.540492
  0.000785714       881.205       13700.1      0.543772
  0.000809524       949.551       14986.3      0.547547
  0.000833333       1020.81         16352      0.551841
  0.000857143       1094.86       17799.6      0.556688
  0.000880952       1172.03       19331.6      0.562138
  0.000904762       1252.13       20950.3      0.568249
  0.000928571       1335.02       22658.2      0.575091
  0.000952381       1421.05       24457.8       0.58274
   0.00097619       1510.02       26351.4      0.591282
        0.001       1601.75       28341.4      0.600812
   0.00102381       1696.63       30430.2      0.611434
   0.00104762       1794.43       32620.1       0.62326
   0.00107143       1894.93       34913.7      0.636411
   0.00109524       1998.57       37313.2       0.65102
   0.00111905       2105.09         39821      0.667228
   0.00114286       2214.22       42439.5      0.685188
   0.00116667       2326.46         45171      0.705064
   0.00119048       2441.51       48017.8      0.727031
   0.00121429       2559.09       50982.3      0.751279
    0.0012381       2679.72       54066.7      0.778007
    0.0012619       2803.08       57273.5      0.807433
   0.00128571       2928.85       60604.7      0.839784
   0.00130952       3057.62       64062.9      0.875305
   0.00133333       3189.01       67650.2      0.914256
   0.00135714       3322.67       71368.9      0.956915
   0.00138095       3459.26       75221.2       1.00357
   0.00140476       3598.36       79209.5       1.05454
   0.00142857        3739.6       83335.8       1.11016
   0.00145238       3883.66       87602.5       1.17076
   0.00147619       4030.12       92011.7       1.23673
       0.0015       4178.55       96565.7       1.30846
   0.00152381       4329.72        101267       1.38635
   0.00154762       4483.14        106116       1.47084
   0.00157143       4638.37        111118        1.5624
   0.00159524       4796.24        116272        1.6615
   0.00161905       4956.22        121582       1.76866
   0.00164286       5117.83        127050       1.88442
   0.00166667       5281.97        132677       2.00933
   0.00169048       5448.07        138467         2.144
   0.00171429       5615.63        144420       2.28904
    0.0017381        5785.6        150539       2.44511
    0.0017619       5957.38        156826       2.61289
   0.00178571       6130.43        163283       2.79309
   0.00180952       6305.77        169911       2.98647
   0.00183333       6482.77        176714       3.19381
   0.00185714       6660.85        183693       3.41594
   0.00188095        6841.1        190850       3.65371
   0.00190476       7022.85        198186       3.90801
   0.00192857        7205.5        205705       4.17979
   0.00195238       7390.19        213407       4.47001
   0.00197619       7576.22        221294        4.7797
        0.002       7762.97        229369       5.10992
   0.00202381       7951.63        237633       5.46176
   0.00204762       8141.48        246088       5.83638
   0.00207143       8331.85        254736       6.23498
   0.00209524       8524.02        263579       6.65879
