# Probe 0 (0 0 0.006)
# Probe 1 (0 0 0.007)
# Probe 2 (0 0 0.008)
#       Probe             0             1             2
#        Time
  2.38095e-05       1.84023       4.18879      0.708499
   4.7619e-05       2.48127       28.4568      0.708512
  7.14286e-05       4.40809       90.8331      0.708535
  9.52381e-05       7.65808       209.352      0.708563
  0.000119048       12.2576       402.097      0.708539
  0.000142857       18.3532       687.226       0.70742
  0.000166667       26.4614       1082.88      0.600064
