# Probe 0 (0 0 0.006)
# Probe 1 (0 0 0.007)
# Probe 2 (0 0 0.008)
#       Probe             0             1             2
#        Time
  2.38095e-05   7.05175e+06   8.90753e+06   1.96636e+07
   4.7619e-05        585476   1.73987e+07   3.93217e+07
  7.14286e-05    1.3653e+06   2.56794e+07   5.89764e+07
  9.52381e-05   2.43043e+06   3.62517e+07   7.86276e+07
  0.000119048   3.70987e+06   3.58838e+07   9.82747e+07
  0.000142857   5.19658e+06   3.55316e+07   1.17917e+08
  0.000166667   7.00751e+06   3.51738e+07   1.37556e+08
