# Probe 0 (0 0 0.004)
# Probe 1 (0 0 0.005)
# Probe 2 (0 0 0.006)
# Probe 3 (0 0 0.007)
# Probe 4 (0 0 0.008)
#       Probe             0             1             2             3             4
#        Time
  2.38095e-05             0             0    7.9153e+06   9.99837e+06   2.20715e+07
   4.7619e-05             0             0   8.22395e+06   9.99628e+06   4.41375e+07
  7.14286e-05             0             0   1.39115e+07   1.82038e+07    6.6198e+07
  9.52381e-05   2.89233e-11             0   1.97863e+07   2.57479e+07    8.8253e+07
  0.000119048             0             0    2.5706e+07   3.27643e+07   1.10302e+08
  0.000142857             0             0   3.16147e+07   3.93562e+07   1.32347e+08
  0.000166667             0             0   3.74549e+07   4.56228e+07   1.54385e+08
  0.000190476             0             0   4.32198e+07   5.16549e+07   1.76418e+08
  0.000214286             0             0   4.89167e+07   5.75288e+07   1.98446e+08
  0.000238095             0             0   5.45219e+07   6.33045e+07   2.20468e+08
  0.000261905             0             0   6.00481e+07    6.9026e+07   2.42485e+08
  0.000285714             0             0   6.55106e+07   7.47242e+07   2.64496e+08
  0.000309524             0             0   7.08894e+07   8.04199e+07   2.86503e+08
  0.000333333             0             0   7.61982e+07   8.61263e+07   3.08503e+08
  0.000357143             0             0   8.14516e+07   9.18516e+07   3.30498e+08
  0.000380952             0             0   8.66274e+07      9.76e+07   3.52488e+08
  0.000404762             0             0   9.17382e+07   1.03374e+08   3.74473e+08
  0.000428571             0             0   9.67965e+07   1.09173e+08   3.96452e+08
  0.000452381             0             0   1.01778e+08   1.14997e+08   4.18426e+08
   0.00047619             0             0   1.06695e+08   1.20845e+08   4.40395e+08
       0.0005             0             0   1.11559e+08   1.26716e+08   4.62358e+08
   0.00052381             0             0   1.16343e+08   1.32607e+08   4.84316e+08
  0.000547619             0             0   1.21061e+08   1.38517e+08   5.06269e+08
  0.000571429             0             0   1.25722e+08   1.44444e+08   5.28216e+08
  0.000595238             0             0   1.30301e+08   1.50388e+08   5.50158e+08
  0.000619048             0             0    1.3481e+08   1.56345e+08   5.72095e+08
  0.000642857             0             0   1.39259e+08   1.62315e+08   5.94026e+08
  0.000666667             0             0   1.43624e+08   1.68297e+08   6.15952e+08
  0.000690476             0             0   1.47915e+08   1.74289e+08   6.37874e+08
  0.000714286             0             0   1.52146e+08    1.8029e+08   6.59789e+08
  0.000738095             0             0   1.56289e+08   1.86299e+08     6.817e+08
  0.000761905             0             0   1.60357e+08   1.92315e+08   7.03606e+08
  0.000785714             0             0   1.64364e+08   1.98338e+08   7.25506e+08
  0.000809524             0             0   1.68281e+08   2.04365e+08   7.47401e+08
  0.000833333             0             0   1.72124e+08   2.10398e+08   7.69291e+08
  0.000857143             0             0   1.75905e+08   2.16435e+08   7.91176e+08
  0.000880952             0             0   1.79597e+08   2.22476e+08   8.13055e+08
  0.000904762             0             0   1.83215e+08   2.28519e+08    8.3493e+08
  0.000928571             0             0   1.86771e+08   2.34566e+08   8.56799e+08
  0.000952381             0             0    1.9024e+08   2.40614e+08   8.78663e+08
   0.00097619             0             0   1.93636e+08   2.46665e+08   9.00522e+08
        0.001             0             0   1.96972e+08   2.52717e+08   9.22376e+08
   0.00102381             0             0   2.00223e+08    2.5877e+08   9.44225e+08
   0.00104762             0             0   2.03403e+08   2.64824e+08   9.66069e+08
   0.00107143             0             0   2.06525e+08   2.70879e+08   9.87907e+08
   0.00109524             0             0   2.09565e+08   2.76934e+08   1.00974e+09
   0.00111905             0             0   2.12536e+08    2.8299e+08   1.03157e+09
   0.00114286             0             0   2.15453e+08   2.89046e+08   1.05339e+09
   0.00116667             0             0   2.18289e+08   2.95102e+08   1.07521e+09
   0.00119048             0             0    2.2106e+08   3.01157e+08   1.09702e+09
   0.00121429             0             0    2.2378e+08   3.07213e+08   1.11883e+09
    0.0012381             0             0   2.26422e+08   3.13269e+08   1.14064e+09
    0.0012619             0             0   2.29003e+08   3.19324e+08   1.16244e+09
   0.00128571             0             0   2.31535e+08   3.25379e+08   1.18423e+09
   0.00130952             0             0   2.33994e+08   3.31433e+08   1.20602e+09
   0.00133333             0             0   2.36394e+08   3.37488e+08    1.2278e+09
   0.00135714             0             0    2.3875e+08   3.43541e+08   1.24958e+09
   0.00138095             0             0   2.41035e+08   3.49595e+08   1.27135e+09
   0.00140476             0             0   2.43265e+08   3.55648e+08   1.29312e+09
   0.00142857             0             0   2.45454e+08     3.617e+08   1.31488e+09
   0.00145238             0             0   2.47576e+08   3.67753e+08   1.33664e+09
   0.00147619             0             0   2.49646e+08   3.73805e+08    1.3584e+09
       0.0015             0             0    2.5168e+08   3.79857e+08   1.38014e+09
   0.00152381             0             0   2.53649e+08   3.85908e+08   1.40189e+09
   0.00154762             0             0   2.55569e+08   3.91959e+08   1.42363e+09
   0.00157143             0             0   2.57456e+08   3.98011e+08   1.44536e+09
   0.00159524             0             0   2.59283e+08   4.04062e+08   1.46709e+09
   0.00161905             0             0   2.61064e+08   4.10113e+08   1.48881e+09
   0.00164286             0             0   2.62815e+08   4.16165e+08   1.51053e+09
   0.00166667             0             0   2.64508e+08   4.22216e+08   1.53225e+09
   0.00169048             0             0   2.66159e+08   4.28268e+08   1.55396e+09
   0.00171429             0             0   2.67783e+08    4.3432e+08   1.57566e+09
    0.0017381             0             0   2.69352e+08   4.40372e+08   1.59736e+09
    0.0017619             0             0   2.70883e+08   4.46425e+08   1.61906e+09
   0.00178571             0             0   2.72389e+08   4.52479e+08   1.64075e+09
   0.00180952             0             0   2.73844e+08   4.58532e+08   1.66243e+09
   0.00183333             0             0   2.75262e+08   4.64587e+08   1.68411e+09
   0.00185714             0             0    2.7666e+08   4.70642e+08   1.70579e+09
   0.00188095             0             0   2.78008e+08   4.76698e+08   1.72746e+09
   0.00190476             0             0   2.79322e+08   4.82755e+08   1.74912e+09
   0.00192857             0             0   2.80619e+08   4.88813e+08   1.77078e+09
   0.00195238             0             0   2.81868e+08   4.94871e+08   1.79244e+09
   0.00197619             0             0   2.83087e+08   5.00931e+08   1.81409e+09
