# Probe 0 (0 0 0)
# Probe 1 (0 0 0.001)
# Probe 2 (0 0 0.004)
# Probe 3 (0 0 0.008)
#       Probe             0             1             2             3
#        Time
  2.39234e-05      0.708497      0.708497      0.708497      0.708497
