# Probe 0 (0 0 0.006)
# Probe 1 (0 0 0.007)
# Probe 2 (0 0 0.008)
#       Probe             0             1             2
#        Time
  2.38095e-05    7.9153e+06   9.99837e+06   2.20715e+07
   4.7619e-05   8.22396e+06   9.99628e+06   4.41375e+07
  7.14286e-05   1.39115e+07   1.82038e+07    6.6198e+07
  9.52381e-05   1.97864e+07    2.5748e+07    8.8253e+07
  0.000119048   2.57061e+07   3.27644e+07   1.10302e+08
  0.000142857   3.16148e+07   3.93563e+07   1.32347e+08
  0.000166667    3.7455e+07   4.56229e+07   1.54385e+08
  0.000190476     4.322e+07    5.1655e+07   1.76418e+08
  0.000214286   4.89169e+07   5.75291e+07   1.98446e+08
  0.000238095   5.45221e+07   6.33048e+07   2.20468e+08
  0.000261905   6.00484e+07   6.90263e+07   2.42485e+08
  0.000285714    6.5511e+07   7.47246e+07   2.64496e+08
  0.000309524   7.08898e+07   8.04203e+07   2.86503e+08
  0.000333333   7.61987e+07   8.61268e+07   3.08503e+08
  0.000357143   8.14521e+07   9.18522e+07   3.30498e+08
  0.000380952    8.6628e+07   9.76006e+07   3.52488e+08
  0.000404762   9.17389e+07   1.03374e+08   3.74473e+08
  0.000428571   9.67973e+07   1.09174e+08   3.96452e+08
  0.000452381   1.01779e+08   1.14998e+08   4.18426e+08
   0.00047619   1.06696e+08   1.20846e+08   4.40395e+08
       0.0005    1.1156e+08   1.26717e+08   4.62358e+08
   0.00052381   1.16345e+08   1.32608e+08   4.84316e+08
  0.000547619   1.21062e+08   1.38518e+08   5.06269e+08
  0.000571429   1.25723e+08   1.44446e+08   5.28217e+08
  0.000595238   1.30303e+08   1.50389e+08   5.50159e+08
  0.000619048   1.34811e+08   1.56347e+08   5.72096e+08
  0.000642857   1.39261e+08   1.62317e+08   5.94028e+08
  0.000666667   1.43626e+08   1.68299e+08   6.15954e+08
  0.000690476   1.47917e+08   1.74291e+08   6.37875e+08
  0.000714286   1.52148e+08   1.80292e+08   6.59791e+08
  0.000738095   1.56291e+08   1.86301e+08   6.81702e+08
  0.000761905    1.6036e+08   1.92318e+08   7.03608e+08
  0.000785714   1.64366e+08    1.9834e+08   7.25508e+08
  0.000809524   1.68284e+08   2.04368e+08   7.47403e+08
  0.000833333   1.72127e+08   2.10401e+08   7.69293e+08
  0.000857143   1.75907e+08   2.16438e+08   7.91178e+08
  0.000880952     1.796e+08   2.22479e+08   8.13058e+08
  0.000904762   1.83218e+08   2.28523e+08   8.34933e+08
  0.000928571   1.86774e+08   2.34569e+08   8.56802e+08
  0.000952381   1.90243e+08   2.40618e+08   8.78667e+08
   0.00097619   1.93639e+08   2.46669e+08   9.00526e+08
        0.001   1.96976e+08   2.52721e+08    9.2238e+08
   0.00102381   2.00227e+08   2.58774e+08   9.44229e+08
   0.00104762   2.03406e+08   2.64829e+08   9.66073e+08
   0.00107143   2.06529e+08   2.70884e+08   9.87912e+08
   0.00109524   2.09569e+08   2.76939e+08   1.00975e+09
   0.00111905    2.1254e+08   2.82995e+08   1.03158e+09
   0.00114286   2.15457e+08   2.89051e+08    1.0534e+09
   0.00116667   2.18293e+08   2.95107e+08   1.07522e+09
   0.00119048   2.21064e+08   3.01164e+08   1.09703e+09
   0.00121429   2.23784e+08    3.0722e+08   1.11884e+09
    0.0012381   2.26427e+08   3.13275e+08   1.14064e+09
    0.0012619   2.29007e+08   3.19331e+08   1.16244e+09
   0.00128571    2.3154e+08   3.25386e+08   1.18424e+09
   0.00130952   2.33999e+08   3.31441e+08   1.20603e+09
   0.00133333   2.36399e+08   3.37495e+08   1.22781e+09
   0.00135714   2.38755e+08   3.43549e+08   1.24959e+09
   0.00138095    2.4104e+08   3.49603e+08   1.27136e+09
   0.00140476   2.43271e+08   3.55656e+08   1.29313e+09
   0.00142857    2.4546e+08   3.61709e+08   1.31489e+09
   0.00145238   2.47582e+08   3.67762e+08   1.33665e+09
   0.00147619   2.49652e+08   3.73814e+08   1.35841e+09
       0.0015   2.51686e+08   3.79866e+08   1.38016e+09
   0.00152381   2.53655e+08   3.85918e+08    1.4019e+09
   0.00154762   2.55576e+08    3.9197e+08   1.42364e+09
   0.00157143   2.57463e+08   3.98021e+08   1.44538e+09
   0.00159524   2.59289e+08   4.04073e+08   1.46711e+09
   0.00161905    2.6107e+08   4.10125e+08   1.48883e+09
   0.00164286   2.62821e+08   4.16176e+08   1.51055e+09
   0.00166667   2.64514e+08   4.22228e+08   1.53227e+09
   0.00169048   2.66166e+08    4.2828e+08   1.55398e+09
   0.00171429    2.6779e+08   4.34333e+08   1.57569e+09
    0.0017381   2.69359e+08   4.40385e+08   1.59739e+09
    0.0017619    2.7089e+08   4.46439e+08   1.61909e+09
   0.00178571   2.72397e+08   4.52492e+08   1.64078e+09
   0.00180952   2.73851e+08   4.58547e+08   1.66247e+09
   0.00183333    2.7527e+08   4.64601e+08   1.68415e+09
   0.00185714   2.76667e+08   4.70657e+08   1.70583e+09
   0.00188095   2.78015e+08   4.76713e+08    1.7275e+09
   0.00190476    2.7933e+08   4.82771e+08   1.74917e+09
   0.00192857   2.80626e+08   4.88829e+08   1.77083e+09
   0.00195238   2.81876e+08   4.94888e+08   1.79249e+09
   0.00197619   2.83094e+08   5.00948e+08   1.81414e+09
        0.002   2.84297e+08   5.07009e+08   1.83579e+09
   0.00202381   2.85456e+08   5.13071e+08   1.85743e+09
   0.00204762   2.86586e+08   5.19134e+08   1.87907e+09
   0.00207143   2.87702e+08   5.25199e+08   1.90071e+09
   0.00209524   2.88776e+08   5.31265e+08   1.92234e+09
