# Probe 0 (0 0 0.0079)
#       Probe             0
#        Time
  0.000116279             0
  0.000251938             0
