# Probe 0 (0 0 0.006)
# Probe 1 (0 0 0.007)
# Probe 2 (0 0 0.008)
#       Probe             0             1             2
#        Time
  2.38095e-05             0             0   8.23271e-09
   4.7619e-05   1.35184e+07        407104    0.00777369
  7.14286e-05   1.97978e+07        794895      0.721069
  9.52381e-05    2.5772e+07   1.55309e+06       3.45455
  0.000119048   3.14408e+07    1.9554e+06       20.2302
  0.000142857   3.69924e+07   2.34101e+06       157.313
  0.000166667   4.57281e+07    2.7313e+06       5.84112
