# Probe 0 (0 0 0)
# Probe 1 (0 0 0.001)
# Probe 2 (0 0 0.004)
# Probe 3 (0 0 0.008)
#       Probe             0             1             2             3
#        Time
  2.38095e-05             0             0             0             0
   4.7619e-05             0             0             0       74237.1
  7.14286e-05             0             0             0       2137.99
  9.52381e-05             0             0             0       33.9954
  0.000119048             0             0             0       9.91724
  0.000142857             0             0             0       3.95785
  0.000166667             0             0             0       2.14247
  0.000190476             0             0             0       1.76062
  0.000214286             0             0             0       1.82213
  0.000238095             0             0             0       2.11818
  0.000261905             0             0             0       2.61222
  0.000285714             0             0             0       3.33025
  0.000309524             0             0             0       4.35275
  0.000333333             0             0             0       5.85387
  0.000357143             0             0             0       8.20902
  0.000380952             0             0             0        12.253
  0.000404762             0             0             0       19.8898
  0.000428571             0             0             0        35.457
  0.000452381             0             0             0       68.2555
   0.00047619             0             0             0       135.343
       0.0005             0             0             0       260.183
   0.00052381             0             0             0       462.532
  0.000547619             0             0             0       745.841
  0.000571429             0             0             0       1096.22
  0.000595238             0             0             0       1493.55
  0.000619048             0             0             0       1922.29
  0.000642857             0             0             0       2375.12
  0.000666667             0             0             0       2851.51
  0.000690476             0             0             0       3354.89
  0.000714286             0             0             0       3890.59
  0.000738095             0             0             0       4464.53
  0.000761905             0             0             0       5082.67
  0.000785714             0             0             0        5750.8
  0.000809524             0             0             0       6474.49
  0.000833333             0             0             0       7259.15
  0.000857143             0             0             0       8110.05
  0.000880952             0             0             0        9032.4
  0.000904762             0             0             0       10031.4
  0.000928571             0             0             0       11112.4
  0.000952381             0             0             0       12280.5
   0.00097619             0             0             0       13541.3
        0.001             0             0             0       14900.2
   0.00102381             0             0             0       16362.9
   0.00104762             0             0             0       17935.2
   0.00107143             0             0             0         19623
   0.00109524             0             0             0       21432.5
   0.00111905             0             0             0       23369.8
   0.00114286             0             0             0       25441.5
   0.00116667             0             0             0       27654.1
