# Probe 0 (0 0 0.004)
# Probe 1 (0 0 0.005)
# Probe 2 (0 0 0.006)
# Probe 3 (0 0 0.007)
# Probe 4 (0 0 0.008)
#       Probe             0             1             2             3             4
#        Time
  2.38095e-05             0             0       1.84023       4.18879      0.708499
   4.7619e-05             0             0       1.85913       4.18607      0.708505
  7.14286e-05             0             0        3.1482       13.2001      0.708515
  9.52381e-05       24.5063             0       5.24212       30.6196      0.708527
  0.000119048             0             0       8.29345       58.7214       0.70854
  0.000142857             0             0       12.4527       99.4676      0.708545
  0.000166667             0             0       17.8829       154.666      0.708528
  0.000190476             0             0       24.6968       226.099      0.708452
  0.000214286             0             0       32.9922       315.599      0.708249
  0.000238095             0             0       42.9077       425.089      0.707786
  0.000261905             0             0        54.516       556.586      0.706834
  0.000285714             0             0       67.8817       712.197      0.705012
  0.000309524             0             0       83.1438       894.104      0.701734
  0.000333333             0             0        100.35       1104.55      0.696177
  0.000357143             0             0       119.541       1345.83      0.687364
  0.000380952             0             0       140.871       1620.26      0.674418
  0.000404762             0             0       164.364       1930.22      0.657063
  0.000428571             0             0       190.044       2278.09      0.636122
  0.000452381             0             0       218.079       2666.27      0.613581
   0.00047619             0             0       248.473       3097.17      0.591942
       0.0005             0             0       281.227       3573.23      0.573253
   0.00052381             0             0       316.531       4096.89       0.55853
  0.000547619             0             0       354.363       4670.59      0.547804
  0.000571429             0             0       394.701       5296.78      0.540537
  0.000595238             0             0       437.758       5977.92      0.536001
  0.000619048             0             0       483.483       6716.47      0.533521
  0.000642857             0             0       531.831       7514.88      0.532558
  0.000666667             0             0       583.037        8375.6       0.53272
  0.000690476             0             0       637.025       9301.11      0.533737
  0.000714286             0             0       693.719       10293.9      0.535434
  0.000738095             0             0       753.385       11356.3      0.537705
  0.000761905             0             0       815.914       12490.9      0.540491
  0.000785714             0             0       881.204         13700      0.543771
  0.000809524             0             0        949.55       14986.2      0.547547
  0.000833333             0             0       1020.81       16351.9       0.55184
  0.000857143             0             0       1094.86       17799.5      0.556687
  0.000880952             0             0       1172.02       19331.5      0.562137
  0.000904762             0             0       1252.13       20950.2      0.568248
  0.000928571             0             0       1335.01       22658.2      0.575089
  0.000952381             0             0       1421.05       24457.7      0.582738
   0.00097619             0             0       1510.02       26351.3       0.59128
        0.001             0             0       1601.75       28341.2       0.60081
   0.00102381             0             0       1696.63         30430      0.611432
   0.00104762             0             0       1794.43         32620      0.623257
   0.00107143             0             0       1894.93       34913.6      0.636408
   0.00109524             0             0       1998.57       37313.1      0.651017
   0.00111905             0             0       2105.08       39820.9      0.667224
   0.00114286             0             0       2214.21       42439.3      0.685184
   0.00116667             0             0       2326.45       45170.8      0.705059
   0.00119048             0             0        2441.5       48017.6      0.727026
   0.00121429             0             0       2559.08         50982      0.751273
    0.0012381             0             0       2679.71       54066.5      0.778001
    0.0012619             0             0       2803.07       57273.2      0.807425
   0.00128571             0             0       2928.84       60604.4      0.839775
   0.00130952             0             0        3057.6       64062.6      0.875295
   0.00133333             0             0       3188.99       67649.9      0.914246
   0.00135714             0             0       3322.66       71368.5      0.956903
   0.00138095             0             0       3459.25       75220.8       1.00356
   0.00140476             0             0       3598.34         79209       1.05453
   0.00142857             0             0       3739.58       83335.3       1.11014
   0.00145238             0             0       3883.64         87602       1.17075
   0.00147619             0             0        4030.1       92011.2       1.23671
       0.0015             0             0       4178.53       96565.1       1.30843
   0.00152381             0             0        4329.7        101266       1.38632
   0.00154762             0             0       4483.12        106116       1.47081
   0.00157143             0             0       4638.35        111117       1.56236
   0.00159524             0             0       4796.21        116272       1.66147
   0.00161905             0             0       4956.19        121582       1.76863
   0.00164286             0             0        5117.8        127049       1.88438
   0.00166667             0             0       5281.94        132677       2.00929
   0.00169048             0             0       5448.04        138466       2.14396
   0.00171429             0             0        5615.6        144419       2.28899
    0.0017381             0             0       5785.56        150538       2.44506
    0.0017619             0             0       5957.34        156825       2.61283
   0.00178571             0             0       6130.39        163281       2.79303
   0.00180952             0             0       6305.73        169910       2.98641
   0.00183333             0             0       6482.72        176713       3.19375
   0.00185714             0             0        6660.8        183692       3.41587
   0.00188095             0             0       6841.05        190848       3.65363
   0.00190476             0             0        7022.8        198185       3.90793
   0.00192857             0             0       7205.44        205703        4.1797
   0.00195238             0             0       7390.13        213405       4.46992
   0.00197619             0             0       7576.16        221292        4.7796
