# Probe 0 (0 0 0)
# Probe 1 (0 0 0.001)
# Probe 2 (0 0 0.002)
# Probe 3 (0 0 0.003)
# Probe 4 (0 0 0.004)
# Probe 5 (0 0 0.005)
# Probe 6 (0 0 0.006)
# Probe 7 (0 0 0.007)
# Probe 8 (0 0 0.008)
#       Probe             0             1             2             3             4             5             6             7             8
#        Time
  0.000116279    0.00107857    0.00333889    0.00344448   0.000824781             0             0             0             0             0
  0.000251938    0.00103819    0.00330387    0.00346157   0.000801968             0             0             0             0             0
  0.000410207   0.000995671    0.00327561    0.00348168   0.000778436             0             0             0             0             0
  0.000593798    0.00104854    0.00327078    0.00350512   0.000754192             0             0             0             0             0
  0.000803618    0.00107832    0.00323453    0.00353195   0.000728979             0             0             0             0             0
   0.00103675    0.00100985    0.00322203    0.00356172   0.000702023             0             0             0             0             0
   0.00128445   0.000943179    0.00320056    0.00359319   0.000724122             0             0             0             0             0
   0.00154985   0.000874899     0.0031561    0.00362647             0             0             0             0             0             0
   0.00183736   0.000804647    0.00311809    0.00366188             0             0             0             0             0             0
