# Probe 0 (0 0 0)
# Probe 1 (0 0 0.004)
# Probe 2 (0 0 0.008)
#       Probe             0             1             2
#        Time
  6.84932e-05      0.623485      0.708496      0.708497
  0.000136986      0.652618      0.708497      0.708497
  0.000205479      0.687472      0.708497      0.708497
  0.000273973      0.731162      0.708497      0.708497
  0.000342466      0.777616      0.708497      0.708497
  0.000410959      0.824748      0.708498      0.708497
  0.000479452      0.872484      0.708498      0.708497
  0.000547945      0.921363      0.708498      0.708497
  0.000616438      0.972257      0.708498      0.708497
  0.000684932       1.02622      0.708499      0.708497
  0.000753425       1.08419      0.708499      0.708497
  0.000821918       1.14674      0.708499      0.708497
  0.000890411       1.21401      0.708499      0.708497
  0.000958904       1.28589      0.708499      0.708497
    0.0010274       1.36219      0.708499      0.708497
   0.00109589        1.4427        0.7085      0.708497
   0.00116438       1.52731        0.7085      0.708497
   0.00123288       1.61591        0.7085      0.708497
   0.00130137       1.70846        0.7085      0.708497
   0.00136986       1.80495        0.7085      0.708498
   0.00143836       1.90536        0.7085      0.708498
   0.00150685       2.00973        0.7085      0.708498
   0.00157534       2.11809      0.708501      0.708498
   0.00164384       2.23046      0.708501      0.708498
   0.00171233       2.34691      0.708501      0.708498
   0.00178082       2.46747      0.708501      0.708498
   0.00184932       2.59221      0.708501      0.708498
   0.00191781       2.72117      0.708501      0.708498
    0.0019863        2.8544      0.708501      0.708498
   0.00205479       2.99198      0.708501      0.708498
   0.00212329       3.13394      0.708501      0.708498
   0.00219178       3.28036      0.708501      0.708499
   0.00226027        3.4313      0.708501      0.708499
   0.00232877        3.5868      0.708501      0.708499
   0.00239726       3.74693      0.708501      0.708499
   0.00246575       3.91176      0.708502      0.708499
   0.00253425       4.08133      0.708502      0.708499
   0.00260274       4.25571      0.708502      0.708499
   0.00267123       4.43495      0.708502      0.708499
   0.00273973       4.61913      0.708502      0.708499
   0.00280822       4.80829      0.708502      0.708499
   0.00287671       5.00249      0.708502      0.708499
   0.00294521        5.2018      0.708502        0.7085
    0.0030137       5.40628      0.708502        0.7085
   0.00308219       5.61597      0.708502        0.7085
   0.00315068       5.83095      0.708502        0.7085
   0.00321918       6.05127      0.708502        0.7085
   0.00328767       6.27699      0.708502        0.7085
   0.00335616       6.50817      0.708502        0.7085
   0.00342466       6.74487      0.708502        0.7085
   0.00349315       6.98714      0.708502        0.7085
   0.00356164       7.23505      0.708502        0.7085
   0.00363014       7.48866      0.708502        0.7085
   0.00369863       7.74802      0.708503        0.7085
   0.00376712        8.0132      0.708503      0.708501
   0.00383562       8.28425      0.708503      0.708501
   0.00390411       8.56123      0.708503      0.708501
    0.0039726       8.84421      0.708503      0.708501
    0.0040411       9.13325      0.708504      0.708501
   0.00410959        9.4284      0.708504      0.708501
   0.00417808       9.72972      0.708505      0.708501
   0.00424658       10.0373      0.708505      0.708501
   0.00431507             0      0.708506      0.708501
   0.00438356       56.2781      0.708507      0.708501
   0.00445205        58.218      0.708509      0.708501
   0.00452055       59.8524      0.708511      0.708501
   0.00458904       61.3431      0.708515      0.708501
   0.00465753       62.7509      0.708521      0.708501
   0.00472603       64.1058      0.708534      0.708502
   0.00479452       65.4252      0.708489      0.708502
   0.00486301       66.7195      0.708289      0.708502
   0.00493151       67.9961      0.707549      0.708502
        0.005       69.2598      0.705101      0.708502
   0.00506849       70.5141      0.700018      0.708502
   0.00513699       71.7616       1.36968      0.708502
   0.00520548       73.0042       1.18618      0.708502
   0.00527397       74.2434       1.16222      0.708502
   0.00534247       75.4802       1.16443      0.708502
   0.00541096       76.7152       1.17415      0.708502
   0.00547945       77.9491       1.18534      0.708502
   0.00554795       79.1821       1.19495      0.708502
   0.00561644       80.4144       1.20096      0.708502
   0.00568493       81.6459       1.20146      0.708502
   0.00575342       82.8766       1.18839      0.708502
   0.00582192       84.1061       1.28461      0.708502
   0.00589041       85.3342       1.35087      0.708502
    0.0059589       86.5602       1.40573      0.708502
    0.0060274       87.7836        1.4507      0.708502
   0.00609589       89.0038        1.4916      0.708502
   0.00616438       90.2199       1.53095      0.708502
   0.00623288       91.4309        1.5699      0.708502
   0.00630137       92.6359       1.60905      0.708502
   0.00636986       93.8338       1.64873      0.708502
   0.00643836       95.0232       1.68913      0.708502
   0.00650685       96.2029       1.73037      0.708503
   0.00657534       97.3715       1.77252      0.708503
   0.00664384       98.5273       1.81563      0.708503
   0.00671233       99.6687       1.85975      0.708503
   0.00678082       100.794        1.9049      0.708503
   0.00684932       101.901       1.95112      0.708503
   0.00691781       102.989       1.99841      0.708503
    0.0069863       104.054       2.04682      0.708503
   0.00705479       105.095       2.09636      0.708503
   0.00712329        106.11       2.14706      0.708503
   0.00719178       107.097       2.19893      0.708503
   0.00726027       108.052         2.252      0.708503
   0.00732877       108.975       2.30629      0.708503
   0.00739726       109.861       2.36184      0.708503
   0.00746575       110.711       2.41865      0.708503
   0.00753425       111.519       2.47675      0.708503
   0.00760274       112.286       2.53617      0.708503
   0.00767123       113.008       2.59694      0.708503
   0.00773973       113.683       2.65908      0.708503
   0.00780822       114.309       2.72261      0.708503
   0.00787671       114.884       2.78756      0.708503
   0.00794521       115.407       2.85396      0.708503
    0.0080137       115.876       2.92184      0.708503
   0.00808219        116.29       2.99121      0.708503
   0.00815068       116.648       3.06211      0.708503
   0.00821918             0       3.13456      0.708503
   0.00828767       36.8785        3.2086      0.708503
   0.00835616       38.8679       3.28425      0.708503
   0.00842466       40.6962       3.36153      0.708503
   0.00849315       42.4099       3.44048      0.708503
   0.00856164       44.0389       3.52113      0.708503
   0.00863014       45.6038        3.6035      0.708503
   0.00869863        47.119       3.68764      0.708503
   0.00876712       48.5951       3.77358      0.708503
   0.00883562       50.0403       3.86135      0.708503
   0.00890411       51.4608       3.95101      0.708503
    0.0089726       52.8614       4.04261      0.708503
    0.0090411       54.2462        4.1362      0.708503
   0.00910959       55.6183       4.23183      0.708503
   0.00917808       56.9804       4.32956      0.708503
   0.00924658       58.3346       4.42943      0.708503
   0.00931507       59.6829       4.53149      0.708503
   0.00938356       61.0269       4.63579      0.708503
   0.00945205        62.368       4.74239      0.708503
   0.00952055       63.7073       4.85141      0.708503
   0.00958904       65.0459       4.96302      0.708503
   0.00965753       66.3847       5.07756      0.708503
   0.00972603       67.7245       5.19551      0.708503
   0.00979452       69.0661       5.31764      0.708503
   0.00986301       70.4101       5.44498      0.708503
   0.00993151       71.7571       5.57881      0.708503
         0.01       73.1075       5.72061      0.708503
    0.0100685        74.462       5.87198      0.708503
     0.010137       75.8208       6.03442      0.708503
    0.0102055       77.1844        6.2092      0.708503
     0.010274       78.5532        6.3971      0.708503
    0.0103425       79.9275       6.59786      0.708503
     0.010411       81.3075       6.80977      0.708503
    0.0104795       82.6935       7.02998      0.708503
    0.0105479       84.0857       7.25601      0.708503
    0.0106164       85.4845       7.48747      0.708503
    0.0106849       86.8899       7.72607      0.708503
    0.0107534       88.3021        7.9729      0.708504
    0.0108219       89.7213       8.21367      0.708504
    0.0108904       91.1476       8.43243      0.708506
    0.0109589       92.5812       8.62814      0.708509
    0.0110274       94.0221       8.80678      0.708514
    0.0110959       95.4705       8.98693      0.708525
    0.0111644       96.9263       9.17437      0.708545
    0.0112329       98.3897        9.2208      0.708582
    0.0113014       99.8606       9.25429      0.708649
    0.0113699       101.339       9.37963      0.709033
    0.0114384       102.825       9.06271       0.70986
    0.0115068       104.319        738322      0.711461
    0.0115753        105.82        738322      0.714589
    0.0116438       107.329        738322       0.72078
    0.0117123       108.846        738322      0.733355
    0.0117808        110.37        738322      0.758919
    0.0118493       111.901        738322      0.807048
    0.0119178        113.44        738322      0.885351
    0.0119863       114.985        738322      0.994831
    0.0120548       116.538        738322       1.12919
    0.0121233       118.098        738322       1.27471
    0.0121918       119.665        738322       1.41335
    0.0122603       121.238        738322       1.53473
    0.0123288       122.818        738322       1.63486
    0.0123973       124.404        738323       1.71486
    0.0124658       125.996        738323       1.77918
    0.0125342       127.595        738323       1.83253
    0.0126027       129.199        738323        1.8789
    0.0126712       130.809        738323       1.92125
    0.0127397       132.424        738323       1.96198
    0.0128082       134.045        738323       2.00292
    0.0128767        135.67        738323       2.04559
    0.0129452         137.3        738323        2.0913
    0.0130137       138.935        738323        2.1411
    0.0130822       140.574        738323       2.19557
    0.0131507       142.217        738323       2.25465
    0.0132192       143.863        738323       2.31759
    0.0132877       145.514        738323       2.38302
    0.0133562       147.167        738324       2.44933
    0.0134247       148.824        738324       2.51509
    0.0134932       150.483        738324       2.57927
    0.0135616       152.145        738324       2.64143
    0.0136301        153.81        738324       2.70155
    0.0136986       155.476        738324       2.75983
    0.0137671       157.144        738324       2.81664
    0.0138356       158.814        738324       2.87234
    0.0139041       160.486        738324       2.92724
    0.0139726       162.158        738324       2.98161
    0.0140411       163.832        738324       3.03561
    0.0141096       165.506        738324       3.08934
    0.0141781       167.182        738324       3.14286
    0.0142466       168.857        738324       3.19615
    0.0143151       170.533        738324       3.24917
    0.0143836       172.209        738324       3.30186
    0.0144521       173.885        738324       3.35419
    0.0145205       175.561        738324       3.40612
     0.014589       177.236        738324       3.45769
    0.0146575       178.912        738324       3.50903
     0.014726       180.586        738324       3.56035
    0.0147945       182.261        738324       3.61205
     0.014863       183.934        738324       3.66472
    0.0149315       185.607        738324       3.71929
        0.015       187.279        738324       3.77725
    0.0150685       188.951        738324       3.84112
     0.015137       190.622        738324       3.91531
    0.0152055       192.291        738324        4.0074
     0.015274        193.96        738323       4.12847
    0.0153425       195.629        738323       4.28816
     0.015411       197.296        738323       4.48314
    0.0154795       198.963        738323       4.69398
    0.0155479       200.629        738323        4.8986
    0.0156164       202.294        738322       5.08516
    0.0156849       203.959        738322       5.25284
    0.0157534       205.623        738321       5.40664
    0.0158219       207.287        738321       5.55276
    0.0158904        208.95        738320       5.69651
    0.0159589       210.613        738320       5.84178
    0.0160274       212.276        738319        5.9912
    0.0160959       213.938        738318       6.14641
    0.0161644         215.6        738317       6.30836
    0.0162329       217.262        738315       6.47748
    0.0163014       218.925        738314        6.6538
    0.0163699       220.587        738312       6.83701
    0.0164384       222.249        738309       7.02657
    0.0165068       223.912        738307       7.22169
    0.0165753       225.575        738304       7.42141
    0.0166438       227.239        738300       7.62461
    0.0167123       228.903        738296       7.83011
    0.0167808       230.568        738291       8.03663
    0.0168493       232.233        738285       8.24292
    0.0169178       233.899        738277       8.44772
    0.0169863       235.566        738269       8.64986
    0.0170548       237.233        738258       8.84823
    0.0171233       238.902        738246       9.04179
    0.0171918       240.571        738231       9.22958
    0.0172603       242.241        738213       9.41064
    0.0173288       243.913        738191       9.58403
    0.0173973       245.585        738165       9.74882
    0.0174658       247.258        738134       9.90412
    0.0175342       248.932        738095       10.0492
    0.0176027       250.607        738048       10.1833
    0.0176712       252.284        737989       10.3061
    0.0177397       253.961        737915       10.4174
    0.0178082       255.639        737821        10.517
    0.0178767       257.318        737700        10.605
    0.0179452       258.998        737540       10.6819
    0.0180137       260.678        737325       10.7481
    0.0180822        262.36        737032       10.8041
    0.0181507       264.042        736625       10.8508
    0.0182192       265.725        736055       10.8887
    0.0182877       267.408        735254       10.9184
    0.0183562       269.092        734127       10.9401
    0.0184247       270.777        732553       10.9533
    0.0184932       272.461        730374       10.9566
    0.0185616       274.146        727399       10.6707
    0.0186301       275.831        723407       10.7933
    0.0186986       277.515        718142        738324
    0.0187671         279.2        711336        738323
    0.0188356       280.884        702681        738323
    0.0189041       282.568        691756        738323
    0.0189726       284.251        677953        738323
    0.0190411       285.934        660419        738323
    0.0191096       287.615        638156        738323
    0.0191781       289.296        610398        738323
    0.0192466       290.975        577083        738323
    0.0193151       292.653        537570        738323
    0.0193836       294.329        455793        738323
    0.0194521       296.004        352548        738323
    0.0195205       297.676        235078        738323
     0.019589       299.347        173123        738323
    0.0196575       301.015        138017        738323
     0.019726        302.68        113254        738323
    0.0197945       304.343             0        738323
     0.019863       306.003       18488.7        738323
    0.0199315        307.66       16147.9        738323
         0.02       309.313       14646.9        738323
    0.0200685       310.963             0        738323
     0.020137       312.609       1418.85        738323
    0.0202055       314.251       1433.44        738323
     0.020274       315.889       1392.19        738323
    0.0203425       317.522       1309.25        738323
     0.020411       319.151       1257.54        738323
    0.0204795       320.775       1219.91        738323
    0.0205479       322.394       1076.82        738323
    0.0206164       324.008        820.81        738323
    0.0206849       325.616       594.077        738323
    0.0207534       327.218       443.564        738323
    0.0208219       328.814       350.761        738323
    0.0208904       330.404       292.552        738323
    0.0209589       331.988       255.067        738323
    0.0210274       333.565       229.582        738323
    0.0210959       335.135       210.874        738323
    0.0211644       336.698       195.962        738323
    0.0212329       338.254        183.17        738323
    0.0213014       339.803       171.611        738323
    0.0213699       341.343       160.921        738323
    0.0214384       342.876       151.097        738323
    0.0215068         344.4       142.327        738323
    0.0215753       345.917       134.831        738323
    0.0216438       347.424       128.739        738323
    0.0217123       348.923        124.04        738323
    0.0217808       350.413       120.611        738323
    0.0218493       351.894       118.263        738323
    0.0219178       353.365       116.795        738323
    0.0219863       354.827       116.019        738323
    0.0220548       356.279       115.776        738323
    0.0221233       357.721        115.94        738323
    0.0221918       359.154        116.41        738323
    0.0222603       360.576       117.112        738323
    0.0223288       361.987       117.987        738323
    0.0223973       363.388       118.994        738323
    0.0224658       364.778       120.101        738323
    0.0225342       366.158       121.285        738323
    0.0226027       367.526       122.527        738323
    0.0226712       368.883       123.817        738323
    0.0227397       370.229       125.143        738323
    0.0228082       371.563         126.5        738323
    0.0228767       372.886        127.88        738323
    0.0229452       374.197       129.281        738323
    0.0230137       375.496       130.699        738323
    0.0230822       376.784       132.131        738323
    0.0231507       378.059       133.576        738322
    0.0232192       379.322       135.032        738322
    0.0232877       380.573       136.497        738322
    0.0233562       381.812        137.97        738322
    0.0234247       383.038       139.451        738322
    0.0234932       384.251        140.94        738322
    0.0235616       385.452       142.434        738322
    0.0236301       386.641       143.935        738321
    0.0236986       387.817       145.441        738321
    0.0237671        388.98       146.953        738321
    0.0238356        390.13        148.47        738321
    0.0239041       391.267       149.991        738320
    0.0239726       392.392       151.518        738320
    0.0240411       393.504       153.048        738320
    0.0241096       394.602       154.584        738319
    0.0241781       395.688       156.123        738319
    0.0242466       396.761       157.666        738318
    0.0243151       397.821       159.213        738317
    0.0243836       398.868       160.765        738316
    0.0244521       399.902       162.319        738315
    0.0245205       400.923       163.878        738314
     0.024589       401.931        165.44        738313
    0.0246575       402.926       167.005        738311
     0.024726       403.908       168.573        738309
    0.0247945       404.877       170.145        738306
     0.024863       405.834        171.72        738303
    0.0249315       406.778       173.297        738299
        0.025       407.709       174.878        738294
    0.0250685       408.627       176.461        738287
     0.025137       409.533       178.046        738278
    0.0252055       410.426       179.635        738267
     0.025274       411.307       181.225        738251
    0.0253425       412.175       182.818        738229
     0.025411       413.031       184.413        738200
    0.0254795       413.874       186.011        738158
    0.0255479       414.706        187.61        738098
    0.0256164       415.525       189.211        738014
    0.0256849       416.332       190.814        737893
    0.0257534       417.127       192.418        737718
    0.0258219       417.911       194.025        737464
    0.0258904       418.682       195.632        737096
    0.0259589       419.442       197.241        736558
    0.0260274        420.19       198.852        735770
    0.0260959       420.927       200.463        734604
    0.0261644       421.653       202.076        732858
    0.0262329       422.367        203.69        730211
    0.0263014        423.07       205.305        726148
    0.0263699       423.762       206.921        719855
    0.0264384       424.443       208.537        710092
    0.0265068       425.114       210.155        695073
    0.0265753       425.773       211.773        672445
    0.0266438       426.423       213.392        639587
    0.0267123       427.061       215.011        594187
    0.0267808        427.69       216.631        535266
    0.0268493       428.308       218.252        464512
    0.0269178       428.916       219.873        387221
    0.0269863       429.514       221.494        311181
    0.0270548       430.103       223.116        243570
    0.0271233       430.682       224.738        188333
    0.0271918       431.251       226.361        145845
    0.0272603       431.811       227.983        108793
    0.0273288       432.361       229.607       78741.1
    0.0273973       432.903        231.23       57807.5
    0.0274658       433.435       232.854       44259.1
    0.0275342       433.958       234.477       35609.8
    0.0276027       434.473       236.101       29584.5
    0.0276712       434.979       237.726       24567.1
    0.0277397       435.476        239.35       20051.9
    0.0278082       435.965       240.975       14016.4
    0.0278767       436.446       242.599       8561.65
    0.0279452       436.919       244.224       5424.26
    0.0280137       437.383       245.849       4035.36
    0.0280822        437.84       247.475       3463.92
    0.0281507       438.289         249.1       3201.04
    0.0282192        438.73       250.726        3058.2
    0.0282877       439.164       252.351       2967.25
    0.0283562        439.59       253.977        2899.7
    0.0284247       440.009       255.603       2842.06
    0.0284932       440.421       257.229       2787.63
    0.0285616       440.826       258.855       2733.15
    0.0286301       441.223       260.481       2677.29
    0.0286986       441.614       262.107        2619.7
    0.0287671       441.999       263.734       2560.57
    0.0288356       442.376        265.36       2500.32
    0.0289041       442.748       266.987       2439.45
    0.0289726       443.112       268.613       2378.41
    0.0290411       443.471        270.24       2317.59
    0.0291096       443.823       271.866       2257.32
    0.0291781       444.169       273.492       2197.83
    0.0292466        444.51       275.118       2139.29
    0.0293151       444.844       276.744       2081.83
    0.0293836       445.173        278.37        2025.5
    0.0294521       445.496       279.996       1970.35
    0.0295205       445.813       281.621       1916.36
     0.029589       446.125       283.246       1863.47
    0.0296575       446.432       284.871       1811.64
     0.029726       446.733       286.495       1760.83
    0.0297945       447.029       288.118       1710.97
     0.029863        447.32       289.741       1662.01
    0.0299315       447.606       291.364       1613.84
         0.03       447.887       292.985       1566.05
    0.0300685       448.163       294.606       1517.67
     0.030137       448.434       296.226       1468.24
    0.0302055       448.701       297.844       1416.48
     0.030274       448.963       299.462       1358.99
    0.0303425        449.22       301.078       1290.03
     0.030411       449.474       302.694       1202.87
    0.0304795       449.722       304.307       1093.49
    0.0305479       449.966       305.919       1016.06
    0.0306164       450.207        307.53       872.415
    0.0306849       450.442       309.139       665.922
    0.0307534       450.674       310.745       484.315
    0.0308219       450.902        312.35       363.427
    0.0308904       451.126       313.953       289.614
    0.0309589       451.346       315.553       243.823
    0.0310274       451.562       317.151       213.893
    0.0310959       451.774       318.747        193.38
    0.0311644       451.983       320.339       177.355
    0.0312329       452.187       321.929       159.987
    0.0313014       452.389       323.516       146.599
    0.0313699       452.586         325.1       141.227
    0.0314384       452.781        326.68       140.988
    0.0315068       452.972       328.257       142.826
    0.0315753       453.159        329.83       145.225
    0.0316438       453.343       331.399       147.589
    0.0317123       453.524       332.965       149.742
    0.0317808       453.702       334.526       151.676
    0.0318493       453.876       336.083       153.439
    0.0319178       454.047       337.636       155.084
    0.0319863       454.216       339.184       156.655
    0.0320548       454.381       340.727       158.182
    0.0321233       454.543       342.265       159.687
    0.0321918       454.702       343.798       161.181
    0.0322603       454.859       345.326       162.671
    0.0323288       455.012       346.848       164.162
    0.0323973       455.163       348.365       165.655
    0.0324658       455.311       349.875       167.151
    0.0325342       455.456        351.38       168.652
    0.0326027       455.599       352.879       170.157
    0.0326712       455.739       354.371       171.665
    0.0327397       455.876       355.856       173.178
    0.0328082       456.011       357.335       174.694
    0.0328767       456.143       358.807       176.214
    0.0329452       456.273       360.272       177.738
    0.0330137         456.4        361.73       179.264
    0.0330822       456.525        363.18       180.794
    0.0331507       456.648       364.623       182.328
    0.0332192       456.768       366.058       183.864
    0.0332877       456.886       367.485       185.403
    0.0333562       457.001       368.904       186.945
    0.0334247       457.115       370.315        188.49
    0.0334932       457.226       371.718       190.037
    0.0335616       457.335       373.112       191.587
    0.0336301       457.441       374.497       193.139
    0.0336986       457.546       375.874       194.693
    0.0337671       457.649       377.242        196.25
    0.0338356       457.749         378.6       197.809
    0.0339041       457.847       379.949       199.369
    0.0339726       457.944       381.289       200.932
    0.0340411       458.038       382.619       202.497
    0.0341096       458.131        383.94       204.063
    0.0341781       458.222       385.251       205.631
    0.0342466        458.31       386.552       207.201
    0.0343151       458.397       387.842       208.772
    0.0343836       458.482       389.123       210.345
    0.0344521       458.566       390.394       211.919
    0.0345205       458.647       391.654       213.494
     0.034589       458.727       392.903       215.071
    0.0346575       458.805       394.142       216.649
     0.034726       458.881       395.371       218.227
    0.0347945       458.956       396.588       219.807
     0.034863       459.029       397.795       221.388
    0.0349315       459.101       398.991        222.97
        0.035        459.17       400.175       224.552
    0.0350685       459.239       401.349       226.136
     0.035137       459.305       402.512        227.72
    0.0352055       459.371       403.663       229.305
     0.035274       459.434       404.803        230.89
    0.0353425       459.497       405.931       232.476
     0.035411       459.558       407.048       234.063
    0.0354795       459.617       408.154        235.65
    0.0355479       459.675       409.248       237.237
    0.0356164       459.732       410.331       238.825
    0.0356849       459.787       411.402       240.414
    0.0357534       459.841       412.461       242.003
    0.0358219       459.893       413.509       243.592
    0.0358904       459.945       414.545       245.181
    0.0359589       459.995        415.57       246.771
    0.0360274       460.044       416.583       248.361
    0.0360959       460.091       417.584       249.951
    0.0361644       460.138       418.573       251.541
    0.0362329       460.183       419.551       253.132
    0.0363014       460.227       420.517       254.722
    0.0363699        460.27       421.472       256.313
    0.0364384       460.312       422.414       257.904
    0.0365068       460.353       423.345       259.495