# Probe 0 (0 0 0)
# Probe 1 (0 0 0.001)
# Probe 2 (0 0 0.002)
# Probe 3 (0 0 0.003)
# Probe 4 (0 0 0.004)
# Probe 5 (0 0 0.005)
# Probe 6 (0 0 0.006)
# Probe 7 (0 0 0.007)
# Probe 8 (0 0 0.008)
#       Probe             0             1             2             3             4             5             6             7             8
#        Time
  0.000116279   1.10601e-09   1.10559e-09   1.09345e-09   1.07936e-09   1.07227e-09   1.07068e-09    1.0699e-09   1.06939e-09    1.0692e-09
  0.000251938   1.10601e-09    1.1056e-09   1.09351e-09   1.07917e-09   1.07228e-09   1.07069e-09    1.0699e-09    1.0694e-09    1.0692e-09
  0.000410207   1.10601e-09   1.10561e-09   1.09358e-09   1.07897e-09   1.07229e-09    1.0707e-09   1.06991e-09    1.0694e-09    1.0692e-09
  0.000593798   1.10601e-09   1.10561e-09   1.09366e-09   1.07879e-09   1.07231e-09    1.0707e-09   1.06991e-09    1.0694e-09    1.0692e-09
  0.000803618   1.10601e-09   1.10562e-09   1.09375e-09    1.0786e-09   1.07233e-09   1.07071e-09   1.06992e-09   1.06941e-09   1.06921e-09
   0.00103675   1.10601e-09   1.10562e-09   1.09386e-09   1.07842e-09   1.07234e-09   1.07072e-09   1.06993e-09   1.06941e-09   1.06921e-09
   0.00128445   1.10601e-09   1.10563e-09   1.09397e-09   1.07862e-09   1.07236e-09   1.07074e-09   1.06993e-09   1.06942e-09   1.06921e-09
   0.00154985   1.10602e-09   1.10564e-09   1.09408e-09   1.07593e-09   1.07239e-09   1.07075e-09   1.06994e-09   1.06942e-09   1.06921e-09
   0.00183736   1.10602e-09   1.10565e-09   1.09421e-09   1.07598e-09   1.07241e-09   1.07076e-09   1.06995e-09   1.06943e-09   1.06922e-09
