# Probe 0 (0 0 0.006)
# Probe 1 (0 0 0.007)
# Probe 2 (0 0 0.008)
#       Probe             0             1             2
#        Time
  2.38095e-05             0             0       34.6772
   4.7619e-05       6.77982       31.2751       15.0248
  7.14286e-05       16.7054       102.452       13.9834
  9.52381e-05        33.381       238.608       24.0199
  0.000119048       58.5232        460.79       39.9508
  0.000142857       93.8432       790.299       64.5709
  0.000166667       141.108       1247.99       555.129
