# Probe 0 (0 0 0)
# Probe 1 (0 0 0.004)
# Probe 2 (0 0 0.008)
#       Probe             0             1             2
#        Time
  6.84932e-05   3.22158e+08      0.321757       11.3044
  0.000136986    1.2333e+09      0.610052        33.645
  0.000205479   1.32739e+09      0.868346       67.1825
  0.000273973   1.54289e+09       1.09975        111.75
  0.000342466   1.83704e+09       1.30702       166.961
  0.000410959   2.16523e+09       1.49264       232.289
  0.000479452   2.49176e+09        1.6588       307.116
  0.000547945   2.79422e+09        1.8075       390.774
