# Probe 0 (0 0 0)
# Probe 1 (0 0 0.001)
# Probe 2 (0 0 0.004)
# Probe 3 (0 0 0.008)
#       Probe             0             1             2             3
#        Time
  2.38095e-05             0             0             0             0
   4.7619e-05             0             0             0             0
  7.14286e-05             0             0             0             0
  9.52381e-05             0             0             0    0.00123459
  0.000119048             0             0             0    0.00243467
  0.000142857             0             0             0    0.00446065
  0.000166667             0             0             0    0.00780368
  0.000190476             0             0             0     0.0129752
  0.000214286             0             0             0     0.0207377
  0.000238095             0             0             0     0.0320774
  0.000261905             0             0             0     0.0482271
  0.000285714             0             0             0     0.0706711
  0.000309524             0             0             0      0.101105
  0.000333333             0             0             0      0.141297
  0.000357143             0             0             0      0.192755
  0.000380952             0             0             0      0.256108
  0.000404762             0             0             0      0.330217
  0.000428571             0             0             0      0.411356
  0.000452381             0             0             0      0.493267
   0.00047619             0             0             0      0.568733
       0.0005             0             0             0      0.632077
   0.00052381             0             0             0      0.680876
  0.000547619             0             0             0      0.715831
  0.000571429             0             0             0      0.739423
  0.000595238             0             0             0      0.754552
  0.000619048             0             0             0      0.763756
  0.000642857             0             0             0      0.768964
  0.000666667             0             0             0      0.771536
  0.000690476             0             0             0       0.77239
  0.000714286             0             0             0      0.772134
  0.000738095             0             0             0      0.771165
  0.000761905             0             0             0      0.769742
  0.000785714             0             0             0      0.768033
  0.000809524             0             0             0      0.766149
  0.000833333             0             0             0      0.764162
  0.000857143             0             0             0       0.76212
  0.000880952             0             0             0      0.760053
  0.000904762             0             0             0      0.757981
  0.000928571             0             0             0      0.755918
  0.000952381             0             0             0      0.753873
   0.00097619             0             0             0       0.75185
        0.001             0             0             0      0.749853
   0.00102381             0             0             0      0.747883
   0.00104762             0             0             0      0.745941
   0.00107143             0             0             0      0.744027
   0.00109524             0             0             0      0.742141
   0.00111905             0             0             0      0.740282
   0.00114286             0             0             0       0.73845
   0.00116667             0             0             0      0.736644
