# Probe 0 (0 0 0)
# Probe 1 (0 0 0.001)
# Probe 2 (0 0 0.002)
# Probe 3 (0 0 0.003)
# Probe 4 (0 0 0.004)
# Probe 5 (0 0 0.005)
# Probe 6 (0 0 0.006)
# Probe 7 (0 0 0.007)
# Probe 8 (0 0 0.008)
#       Probe             0             1             2             3             4             5             6             7             8
#        Time
  0.000116279   9.48035e-10   9.46726e-10   9.45898e-10   9.45684e-10   9.45673e-10   9.45672e-10   9.45672e-10   9.45672e-10   9.45672e-10
  0.000251938   9.48298e-10   9.46748e-10     9.459e-10   9.45684e-10   9.45673e-10   9.45672e-10   9.45672e-10   9.45672e-10   9.45672e-10
  0.000410207   9.48564e-10   9.46759e-10   9.45903e-10   9.45683e-10   9.45673e-10   9.45672e-10   9.45672e-10   9.45672e-10   9.45672e-10
  0.000593798   9.48232e-10   9.46742e-10   9.45906e-10   9.45683e-10   9.45673e-10   9.45672e-10   9.45672e-10   9.45672e-10   9.45672e-10
  0.000803618   9.48036e-10   9.46756e-10    9.4591e-10   9.45682e-10   9.45673e-10   9.45672e-10   9.45672e-10   9.45672e-10   9.45672e-10
   0.00103675   9.48476e-10   9.46742e-10   9.45914e-10   9.45682e-10   9.45673e-10   9.45672e-10   9.45672e-10   9.45672e-10   9.45672e-10
   0.00128445   9.48875e-10   9.46735e-10   9.45918e-10   9.45682e-10   9.45673e-10   9.45672e-10   9.45672e-10   9.45672e-10   9.45672e-10
   0.00154985   9.49253e-10   9.46753e-10   9.45923e-10   9.45676e-10   9.45673e-10   9.45672e-10   9.45672e-10   9.45672e-10   9.45672e-10
   0.00183736   9.49611e-10   9.46762e-10   9.45928e-10   9.45676e-10   9.45673e-10   9.45672e-10   9.45672e-10   9.45672e-10   9.45672e-10
