# Probe 0 (0 0 0)
# Probe 1 (0 0 0.004)
# Probe 2 (0 0 0.008)
#       Probe             0             1             2
#        Time
  6.84932e-05   7.26388e+08      0.154905       1501.07
  0.000136986   1.34449e+09       0.28326       4462.68
  0.000205479   1.67126e+09      0.389842       8901.12
  0.000273973   1.90422e+09      0.478529       14788.6
  0.000342466   2.22481e+09       0.55247       22068.1
  0.000410959   2.61374e+09      0.614229       30663.7
  0.000479452   3.03556e+09        0.6659       40487.8
  0.000547945   3.46208e+09      0.709199       51445.7
  0.000616438   3.87268e+09      0.745539       63439.5
  0.000684932   4.25497e+09      0.776084       76369.7
  0.000753425   4.60531e+09      0.801795       90137.3
  0.000821918   4.92738e+09      0.823469        104645
  0.000890411   5.22866e+09      0.841769        119797
  0.000958904   5.51683e+09      0.857242        135503
    0.0010274   5.79768e+09      0.870347        151673
   0.00109589   6.07487e+09      0.881462        168226
   0.00116438   6.35027e+09      0.890906        185080
   0.00123288   6.62469e+09      0.898943        202162
   0.00130137   6.89824e+09      0.905794        219402
   0.00136986   7.17076e+09      0.911644        236734
   0.00143836   7.44188e+09      0.916649        254097
   0.00150685   7.71122e+09      0.920939        271437
   0.00157534    7.9784e+09      0.924622        288701
   0.00164384   8.24305e+09      0.927792        305842
   0.00171233   8.50485e+09      0.930525        322817
   0.00178082   8.76352e+09      0.932887        339588
   0.00184932   9.01883e+09      0.934933        356118
   0.00191781   9.27058e+09      0.936711        372375
    0.0019863   9.51858e+09       0.93826        388332
   0.00205479    9.7627e+09      0.939613        403964
   0.00212329   1.00028e+10      0.940799        419248
   0.00219178   1.02389e+10      0.941844        434166
   0.00226027   1.04708e+10      0.942767        448702
   0.00232877   1.06984e+10      0.943586        462842
   0.00239726   1.09218e+10      0.944316        476575
   0.00246575   1.11409e+10      0.944972        489892
   0.00253425   1.13558e+10      0.945563        502787
   0.00260274   1.15663e+10      0.946101        515256
   0.00267123   1.17725e+10      0.946592        527295
   0.00273973   1.19744e+10      0.947046        538903
   0.00280822   1.21721e+10      0.947468        550081
   0.00287671   1.23655e+10      0.947863        560829
   0.00294521   1.25547e+10      0.948239        571152
    0.0030137   1.27397e+10      0.948598        581052
   0.00308219   1.29206e+10      0.948947        590535
   0.00315068   1.30973e+10      0.949288        599606
   0.00321918   1.32701e+10      0.949625        608272
   0.00328767   1.34388e+10      0.949964        616539
   0.00335616   1.36036e+10      0.950306        624417
   0.00342466   1.37645e+10      0.950658        631913
   0.00349315   1.39216e+10      0.951021        639037
   0.00356164   1.40749e+10      0.951401        645797
   0.00363014   1.42246e+10      0.951802        652203
   0.00369863   1.43705e+10      0.952229        658266
   0.00376712   1.45129e+10      0.952687        663995
   0.00383562   1.46517e+10      0.953182        669403
   0.00390411   1.47871e+10      0.953721        674498
    0.0039726   1.49191e+10       0.95431        679293
    0.0040411   1.50478e+10      0.954958        683798
   0.00410959   1.51732e+10      0.955673        688024
   0.00417808   1.52953e+10      0.956465        691983
   0.00424658   1.54144e+10      0.957346        695686
   0.00431507   1.92001e+10      0.958328        699144
   0.00438356   1.77261e+10      0.959426        702368
   0.00445205   1.75504e+10      0.960656        705369
   0.00452055   1.75167e+10      0.962038        708157
   0.00458904   1.75327e+10      0.963599        710745
   0.00465753   1.75712e+10      0.965379        713141
   0.00472603   1.76211e+10      0.967452        715356
   0.00479452   1.76772e+10      0.970183        717401
   0.00486301   1.77362e+10      0.974301        719285
   0.00493151   1.77966e+10      0.982063        721018
        0.005   1.78572e+10      0.999835        722610
   0.00506849   1.79174e+10    0.00823249        724068
   0.00513699   1.79766e+10       1.06994        725402
   0.00520548   1.80345e+10        1.0899        726620
   0.00527397   1.80911e+10       1.12436        727730
   0.00534247    1.8146e+10       1.18448        728740
   0.00541096   1.81994e+10       1.28975        729657
   0.00547945    1.8251e+10        1.4741        730488
   0.00554795   1.83009e+10       1.79747        731240
   0.00561644   1.83491e+10       2.36748        731919
   0.00568493   1.83957e+10       3.37157        732530
   0.00575342   1.84405e+10        4.5132        733080
   0.00582192   1.84837e+10       29.1056        733574
   0.00589041   1.85253e+10       42.0926        734017
    0.0059589   1.85652e+10        64.121        734412
    0.0060274   1.86037e+10       100.088        734765
   0.00609589   1.86407e+10       157.562        735080
   0.00616438   1.86762e+10       248.124        735359
   0.00623288   1.87103e+10       389.099        735607
   0.00630137    1.8743e+10       606.024        735827
   0.00636986   1.87745e+10       936.065        736021
   0.00643836   1.88046e+10       1432.66        736193
   0.00650685   1.88336e+10       2171.79        736344
   0.00657534   1.88613e+10       3260.23        736476
   0.00664384   1.88879e+10       4846.53        736593
   0.00671233   1.89134e+10       7135.08        736694
   0.00678082   1.89379e+10       10404.4        736784
   0.00684932   1.89613e+10         15030        736861
   0.00691781   1.89837e+10       21513.9        736929
    0.0069863   1.90052e+10       30520.1        736988
   0.00705479   1.90258e+10       42919.9        737039
   0.00712329   1.90455e+10       59845.4        737083
   0.00719178   1.90644e+10         82756        737121
   0.00726027   1.90824e+10        113516        737154
   0.00732877   1.90997e+10        154489        737182
   0.00739726   1.91162e+10        208645        737207
   0.00746575   1.91321e+10        279688        737228
   0.00753425   1.91472e+10        372206        737246
   0.00760274   1.91617e+10        491830        737261
   0.00767123   1.91756e+10        645430        737274
   0.00773973   1.91888e+10        841321        737286
   0.00780822   1.92015e+10    1.0895e+06        737295
   0.00787671   1.92136e+10   1.40189e+06        737303
   0.00794521   1.92252e+10   1.79265e+06        737310
    0.0080137   1.92362e+10   2.27844e+06        737316
   0.00808219   1.92468e+10   2.87874e+06        737321
   0.00815068   1.92569e+10   3.61622e+06        737325
   0.00821918   1.94268e+10   4.51704e+06        737329
   0.00828767   1.92547e+10   5.61125e+06        737332
   0.00835616   1.91323e+10   6.93312e+06        737334
   0.00842466   1.90442e+10   8.52148e+06        737336
   0.00849315   1.89808e+10   1.04201e+07        737338
   0.00856164   1.89353e+10   1.26781e+07        737340
   0.00863014   1.89034e+10     1.535e+07        737341
   0.00869863   1.88817e+10   1.84964e+07        737342
   0.00876712    1.8868e+10   2.21838e+07        737343
   0.00883562   1.88605e+10    2.6485e+07        737344
   0.00890411   1.88579e+10   3.14794e+07        737344
    0.0089726   1.88592e+10   3.72528e+07        737345
    0.0090411   1.88636e+10   4.38977e+07        737345
   0.00910959   1.88704e+10   5.15128e+07        737346
   0.00917808   1.88792e+10   6.02033e+07        737346
   0.00924658   1.88895e+10   7.00804e+07        737346
   0.00931507    1.8901e+10   8.12612e+07        737346
   0.00938356   1.89134e+10   9.38679e+07        737347
   0.00945205   1.89266e+10   1.08028e+08        737347
   0.00952055   1.89403e+10   1.23872e+08        737347
   0.00958904   1.89544e+10   1.41535e+08        737347
   0.00965753   1.89687e+10   1.61158e+08        737347
   0.00972603   1.89832e+10    1.8288e+08        737347
   0.00979452   1.89978e+10   2.06848e+08        737347
   0.00986301   1.90123e+10   2.33208e+08        737347
   0.00993151   1.90268e+10   2.62108e+08        737347
         0.01   1.90411e+10   2.93696e+08        737347
    0.0100685   1.90553e+10   3.28115e+08        737347
     0.010137   1.90692e+10   3.65503e+08        737347
    0.0102055    1.9083e+10   4.05982e+08        737347
     0.010274   1.90965e+10   4.49666e+08        737347
    0.0103425   1.91097e+10   4.96642e+08        737347
     0.010411   1.91226e+10   5.46974e+08        737347
    0.0104795   1.91352e+10   6.00708e+08        737347
    0.0105479   1.91475e+10   6.57896e+08        737347
    0.0106164   1.91595e+10   7.18625e+08        737347
    0.0106849   1.91712e+10   7.83023e+08        737347
    0.0107534   1.91826e+10   8.51216e+08        737347
    0.0108219   1.91936e+10   9.23118e+08        737347
    0.0108904   1.92043e+10   9.98626e+08        737347
    0.0109589   1.92147e+10   1.07788e+09        737347
    0.0110274   1.92248e+10   1.16116e+09        737347
    0.0110959   1.92346e+10   1.24913e+09        737348
    0.0111644    1.9244e+10   1.34225e+09        737348
    0.0112329   1.92532e+10   1.43923e+09        737348
    0.0113014    1.9262e+10   1.54265e+09        737349
    0.0113699   1.92706e+10   1.65709e+09        737360
    0.0114384   1.92788e+10   1.78359e+09        737385
    0.0115068   1.92868e+10   1.98192e+09        737431
    0.0115753   1.92946e+10   2.09949e+09        737508
    0.0116438    1.9302e+10   2.21962e+09        737628
    0.0117123   1.93092e+10   2.34214e+09        737797
    0.0117808   1.93161e+10   2.46685e+09        738002
    0.0118493   1.93228e+10   2.59356e+09        738216
    0.0119178   1.93293e+10   2.72209e+09        738404
    0.0119863   1.93355e+10   2.85222e+09        738548
    0.0120548   1.93415e+10   2.98374e+09        738652
    0.0121233   1.93473e+10   3.11642e+09        738732
    0.0121918   1.93528e+10   3.25004e+09        738800
    0.0122603   1.93582e+10   3.38438e+09        738872
    0.0123288   1.93633e+10   3.51919e+09        738963
    0.0123973   1.93683e+10   3.65426e+09        739086
    0.0124658    1.9373e+10   3.78934e+09        739261
    0.0125342   1.93776e+10   3.92423e+09        739509
    0.0126027   1.93821e+10   4.05869e+09        739852
    0.0126712   1.93863e+10   4.19252e+09        740304
    0.0127397   1.93904e+10    4.3255e+09        740868
    0.0128082   1.93943e+10   4.45742e+09        741523
    0.0128767   1.93981e+10   4.58811e+09        742223
    0.0129452   1.94018e+10   4.71737e+09        742917
    0.0130137   1.94053e+10   4.84503e+09        743564
    0.0130822   1.94086e+10   4.97092e+09        744152
    0.0131507   1.94118e+10    5.0949e+09        744697
    0.0132192    1.9415e+10   5.21681e+09        745233
    0.0132877   1.94179e+10   5.33652e+09        745805
    0.0133562   1.94208e+10   5.45392e+09        746462
    0.0134247   1.94236e+10   5.56889e+09        747259
    0.0134932   1.94262e+10   5.68134e+09        748257
    0.0135616   1.94288e+10   5.79118e+09        749527
    0.0136301   1.94312e+10   5.89832e+09        751157
    0.0136986   1.94336e+10   6.00272e+09        753254
    0.0137671   1.94358e+10    6.1043e+09        755949
    0.0138356    1.9438e+10   6.20302e+09        759408
    0.0139041   1.94401e+10   6.29885e+09        763831
    0.0139726   1.94421e+10   6.39177e+09        769468
    0.0140411    1.9444e+10   6.48174e+09        776626
    0.0141096   1.94459e+10   6.56877e+09        785679
    0.0141781   1.94476e+10   6.65285e+09        797084
    0.0142466   1.94493e+10   6.73398e+09        811396
    0.0143151    1.9451e+10   6.81218e+09        829292
    0.0143836   1.94526e+10   6.88746e+09        851592
    0.0144521   1.94541e+10   6.95985e+09        879295
    0.0145205   1.94555e+10   7.02938e+09        913624
     0.014589   1.94569e+10   7.09608e+09        956086
    0.0146575   1.94583e+10   7.15999e+09   1.00856e+06
     0.014726   1.94596e+10   7.22115e+09   1.07345e+06
    0.0147945   1.94608e+10   7.27961e+09   1.15382e+06
     0.014863    1.9462e+10   7.33542e+09   1.25376e+06
    0.0149315   1.94632e+10   7.38863e+09   1.37876e+06
        0.015   1.94643e+10   7.43931e+09   1.53637e+06
    0.0150685   1.94653e+10   7.48751e+09   1.73686e+06
     0.015137   1.94664e+10   7.53329e+09   1.99357e+06
    0.0152055   1.94673e+10   7.57674e+09   2.32101e+06
     0.015274   1.94683e+10   7.61791e+09   2.72855e+06
    0.0153425   1.94692e+10   7.65689e+09   3.21398e+06
     0.015411   1.94701e+10   7.69375e+09    3.7707e+06
    0.0154795   1.94709e+10   7.72858e+09   4.40155e+06
    0.0155479   1.94717e+10   7.76145e+09   5.11922e+06
    0.0156164   1.94725e+10   7.79246e+09   5.94029e+06
    0.0156849   1.94733e+10   7.82168e+09   6.88258e+06
    0.0157534    1.9474e+10   7.84922e+09   7.96494e+06
    0.0158219   1.94747e+10   7.87517e+09   9.20755e+06
    0.0158904   1.94753e+10    7.8996e+09   1.06323e+07
    0.0159589    1.9476e+10   7.92262e+09   1.22628e+07
    0.0160274   1.94766e+10    7.9443e+09   1.41249e+07
    0.0160959   1.94772e+10   7.96475e+09   1.62463e+07
    0.0161644   1.94778e+10   7.98404e+09   1.86569e+07
    0.0162329   1.94784e+10   8.00225e+09    2.1389e+07
    0.0163014   1.94789e+10   8.01946e+09   2.44768e+07
    0.0163699   1.94794e+10   8.03575e+09    2.7957e+07
    0.0164384   1.94799e+10   8.05118e+09   3.18686e+07
    0.0165068   1.94804e+10   8.06582e+09   3.62527e+07
    0.0165753   1.94809e+10   8.07973e+09   4.11529e+07
    0.0166438   1.94813e+10   8.09296e+09   4.66148e+07
    0.0167123   1.94818e+10   8.10558e+09   5.26864e+07
    0.0167808   1.94822e+10   8.11762e+09   5.94177e+07
    0.0168493   1.94826e+10   8.12912e+09   6.68609e+07
    0.0169178    1.9483e+10   8.14014e+09   7.50698e+07
    0.0169863   1.94834e+10   8.15071e+09   8.41004e+07
    0.0170548   1.94838e+10   8.16087e+09   9.40101e+07
    0.0171233   1.94842e+10   8.17065e+09   1.04858e+08
    0.0171918   1.94845e+10   8.18009e+09   1.16704e+08
    0.0172603   1.94849e+10   8.18922e+09   1.29609e+08
    0.0173288   1.94852e+10   8.19808e+09   1.43636e+08
    0.0173973   1.94855e+10   8.20671e+09   1.58846e+08
    0.0174658   1.94858e+10   8.21513e+09   1.75304e+08
    0.0175342   1.94861e+10   8.22339e+09   1.93072e+08
    0.0176027   1.94864e+10   8.23153e+09   2.12216e+08
    0.0176712   1.94867e+10   8.23958e+09   2.32799e+08
    0.0177397    1.9487e+10   8.24759e+09   2.54891e+08
    0.0178082   1.94873e+10    8.2556e+09   2.78562e+08
    0.0178767   1.94876e+10   8.26365e+09   3.03888e+08
    0.0179452   1.94878e+10   8.27179e+09   3.30953e+08
    0.0180137   1.94881e+10   8.28005e+09   3.59854e+08
    0.0180822   1.94884e+10   8.28844e+09   3.90705e+08
    0.0181507   1.94886e+10   8.29696e+09   4.23646e+08
    0.0182192   1.94889e+10   8.30557e+09   4.58856e+08
    0.0182877   1.94891e+10   8.31418e+09   4.96563e+08
    0.0183562   1.94893e+10   8.32268e+09   5.37068e+08
    0.0184247   1.94896e+10   8.33091e+09   5.80765e+08
    0.0184932   1.94898e+10   8.33872e+09   6.28175e+08
    0.0185616     1.949e+10   8.34597e+09   6.83617e+08
    0.0186301   1.94903e+10   8.35257e+09   7.41185e+08
    0.0186986   1.94905e+10   8.35846e+09   7.99677e+08
    0.0187671   1.94907e+10   8.36365e+09   8.52964e+08
    0.0188356   1.94909e+10    8.3682e+09   9.08362e+08
    0.0189041   1.94911e+10   8.37217e+09    9.6585e+08
    0.0189726   1.94913e+10   8.37567e+09    1.0254e+09
    0.0190411   1.94915e+10   8.37877e+09   1.08699e+09
    0.0191096   1.94917e+10   8.38153e+09   1.15057e+09
    0.0191781   1.94919e+10   8.38398e+09    1.2161e+09
    0.0192466   1.94921e+10   8.38616e+09   1.28353e+09
    0.0193151   1.94923e+10   8.38812e+09   1.35279e+09
    0.0193836   1.94925e+10   8.39007e+09   1.42381e+09
    0.0194521   1.94927e+10   8.39182e+09   1.49654e+09
    0.0195205   1.94929e+10   8.39347e+09   1.57088e+09
     0.019589   1.94931e+10   8.39471e+09   1.64676e+09
    0.0196575   1.94932e+10   8.39574e+09   1.72409e+09
     0.019726   1.94934e+10   8.39666e+09   1.80276e+09
    0.0197945   1.94936e+10   8.39761e+09   1.88269e+09
     0.019863   1.94938e+10   8.39836e+09   1.96378e+09
    0.0199315    1.9494e+10   8.39911e+09   2.04591e+09
         0.02   1.94941e+10    8.3998e+09   2.12897e+09
    0.0200685   1.94943e+10   8.40045e+09   2.21286e+09
     0.020137   1.94945e+10   8.40103e+09   2.29747e+09
    0.0202055   1.94946e+10   8.40156e+09   2.38267e+09
     0.020274   1.94948e+10   8.40204e+09   2.46835e+09
    0.0203425    1.9495e+10   8.40247e+09   2.55439e+09
     0.020411   1.94951e+10   8.40286e+09   2.64069e+09
    0.0204795   1.94953e+10   8.40333e+09   2.72711e+09
    0.0205479   1.94955e+10   8.40371e+09   2.81355e+09
    0.0206164   1.94956e+10   8.40402e+09   2.89989e+09
    0.0206849   1.94958e+10   8.40425e+09   2.98602e+09
    0.0207534   1.94959e+10   8.40437e+09   3.07182e+09
    0.0208219   1.94961e+10   8.40433e+09   3.15719e+09
    0.0208904   1.94963e+10   8.40404e+09   3.24203e+09
    0.0209589   1.94964e+10   8.40343e+09   3.32623e+09
    0.0210274   1.94966e+10   8.40243e+09    3.4097e+09
    0.0210959   1.94967e+10   8.40105e+09   3.49233e+09
    0.0211644   1.94969e+10    8.3993e+09   3.57404e+09
    0.0212329    1.9497e+10   8.39717e+09   3.65474e+09
    0.0213014   1.94972e+10   8.39459e+09   3.73435e+09
    0.0213699   1.94973e+10    8.3914e+09    3.8128e+09
    0.0214384   1.94975e+10   8.38742e+09   3.89001e+09
    0.0215068   1.94976e+10   8.38245e+09   3.96591e+09
    0.0215753   1.94977e+10   8.37633e+09   4.04044e+09
    0.0216438   1.94979e+10   8.36906e+09   4.11354e+09
    0.0217123    1.9498e+10   8.36086e+09   4.18517e+09
    0.0217808   1.94982e+10   8.35215e+09   4.25527e+09
    0.0218493   1.94983e+10   8.34345e+09    4.3238e+09
    0.0219178   1.94984e+10   8.33527e+09   4.39072e+09
    0.0219863   1.94986e+10   8.32797e+09   4.45601e+09
    0.0220548   1.94987e+10   8.32174e+09   4.51963e+09
    0.0221233   1.94988e+10   8.31665e+09   4.58156e+09
    0.0221918   1.94989e+10   8.31264e+09   4.64178e+09
    0.0222603   1.94991e+10   8.30961e+09   4.70028e+09
    0.0223288   1.94992e+10   8.30744e+09   4.75706e+09
    0.0223973   1.94993e+10     8.306e+09    4.8121e+09
    0.0224658   1.94994e+10   8.30519e+09   4.86541e+09
    0.0225342   1.94996e+10   8.30489e+09   4.91699e+09
    0.0226027   1.94997e+10   8.30502e+09   4.96685e+09
    0.0226712   1.94998e+10   8.30551e+09     5.015e+09
    0.0227397   1.94999e+10   8.30628e+09   5.06145e+09
    0.0228082      1.95e+10   8.30728e+09   5.10623e+09
    0.0228767   1.95001e+10   8.30847e+09   5.14935e+09
    0.0229452   1.95003e+10    8.3098e+09   5.19084e+09
    0.0230137   1.95004e+10   8.31124e+09   5.23073e+09
    0.0230822   1.95005e+10   8.31277e+09   5.26906e+09
    0.0231507   1.95006e+10   8.31437e+09   5.30584e+09
    0.0232192   1.95007e+10   8.31601e+09   5.34112e+09
    0.0232877   1.95008e+10   8.31768e+09   5.37494e+09
    0.0233562   1.95009e+10   8.31937e+09   5.40734e+09
    0.0234247    1.9501e+10   8.32107e+09   5.43835e+09
    0.0234932   1.95011e+10   8.32277e+09   5.46802e+09
    0.0235616   1.95012e+10   8.32446e+09   5.49639e+09
    0.0236301   1.95013e+10   8.32615e+09   5.52351e+09
    0.0236986   1.95014e+10   8.32781e+09   5.54943e+09
    0.0237671   1.95015e+10   8.32946e+09   5.57418e+09
    0.0238356   1.95016e+10   8.33109e+09   5.59782e+09
    0.0239041   1.95017e+10    8.3327e+09    5.6204e+09
    0.0239726   1.95018e+10   8.33428e+09   5.64196e+09
    0.0240411   1.95018e+10   8.33583e+09   5.66255e+09
    0.0241096   1.95019e+10   8.33735e+09   5.68221e+09
    0.0241781    1.9502e+10   8.33885e+09   5.70101e+09
    0.0242466   1.95021e+10   8.34031e+09   5.71897e+09
    0.0243151   1.95022e+10   8.34175e+09   5.73616e+09
    0.0243836   1.95023e+10   8.34316e+09   5.75262e+09
    0.0244521   1.95024e+10   8.34453e+09   5.76838e+09
    0.0245205   1.95024e+10   8.34588e+09   5.78351e+09
     0.024589   1.95025e+10   8.34719e+09   5.79804e+09
    0.0246575   1.95026e+10   8.34848e+09   5.81201e+09
     0.024726   1.95027e+10   8.34973e+09   5.82547e+09
    0.0247945   1.95027e+10   8.35096e+09   5.83845e+09
     0.024863   1.95028e+10   8.35215e+09   5.85099e+09
    0.0249315   1.95029e+10   8.35332e+09   5.86312e+09
        0.025   1.95029e+10   8.35446e+09   5.87487e+09
    0.0250685    1.9503e+10   8.35557e+09   5.88627e+09
     0.025137   1.95031e+10   8.35665e+09   5.89733e+09
    0.0252055   1.95031e+10    8.3577e+09   5.90807e+09
     0.025274   1.95032e+10   8.35873e+09    5.9185e+09
    0.0253425   1.95033e+10   8.35973e+09   5.92861e+09
     0.025411   1.95033e+10    8.3607e+09    5.9384e+09
    0.0254795   1.95034e+10   8.36165e+09   5.94786e+09
    0.0255479   1.95035e+10   8.36257e+09   5.95695e+09
    0.0256164   1.95035e+10   8.36347e+09   5.96564e+09
    0.0256849   1.95036e+10   8.36434e+09    5.9739e+09
    0.0257534   1.95036e+10   8.36519e+09    5.9817e+09
    0.0258219   1.95037e+10   8.36602e+09   5.98901e+09
    0.0258904   1.95037e+10   8.36682e+09   5.99581e+09
    0.0259589   1.95038e+10    8.3676e+09   6.00208e+09
    0.0260274   1.95039e+10   8.36836e+09   6.00785e+09
    0.0260959   1.95039e+10   8.36909e+09   6.01312e+09
    0.0261644    1.9504e+10   8.36981e+09   6.01794e+09
    0.0262329    1.9504e+10   8.37051e+09   6.02234e+09
    0.0263014   1.95041e+10   8.37118e+09   6.02636e+09
    0.0263699   1.95041e+10   8.37184e+09   6.03004e+09
    0.0264384   1.95041e+10   8.37247e+09   6.03341e+09
    0.0265068   1.95042e+10   8.37309e+09   6.03651e+09
    0.0265753   1.95042e+10   8.37369e+09   6.03938e+09
    0.0266438   1.95043e+10   8.37428e+09   6.04203e+09
    0.0267123   1.95043e+10   8.37484e+09   6.04449e+09
    0.0267808   1.95044e+10   8.37539e+09   6.04679e+09
    0.0268493   1.95044e+10   8.37593e+09   6.04893e+09
    0.0269178   1.95044e+10   8.37645e+09   6.05093e+09
    0.0269863   1.95045e+10   8.37695e+09   6.05281e+09
    0.0270548   1.95045e+10   8.37744e+09   6.05456e+09
    0.0271233   1.95046e+10   8.37791e+09   6.05621e+09
    0.0271918   1.95046e+10   8.37837e+09   6.05776e+09
    0.0272603   1.95046e+10   8.37882e+09   6.05921e+09
    0.0273288   1.95047e+10   8.37925e+09   6.06058e+09
    0.0273973   1.95047e+10   8.37967e+09   6.06186e+09
    0.0274658   1.95047e+10   8.38008e+09   6.06306e+09
    0.0275342   1.95048e+10   8.38048e+09   6.06418e+09
    0.0276027   1.95048e+10   8.38086e+09   6.06524e+09
    0.0276712   1.95048e+10   8.38124e+09   6.06623e+09
    0.0277397   1.95049e+10    8.3816e+09   6.06716e+09
    0.0278082   1.95049e+10   8.38195e+09   6.06803e+09
    0.0278767   1.95049e+10    8.3823e+09   6.06885e+09
    0.0279452    1.9505e+10   8.38263e+09   6.06962e+09
    0.0280137    1.9505e+10   8.38295e+09   6.07034e+09
    0.0280822    1.9505e+10   8.38327e+09   6.07102e+09
    0.0281507    1.9505e+10   8.38357e+09   6.07165e+09
    0.0282192   1.95051e+10   8.38387e+09   6.07224e+09
    0.0282877   1.95051e+10   8.38416e+09    6.0728e+09
    0.0283562   1.95051e+10   8.38444e+09   6.07332e+09
    0.0284247   1.95051e+10   8.38471e+09    6.0738e+09
    0.0284932   1.95052e+10   8.38498e+09   6.07426e+09
    0.0285616   1.95052e+10   8.38524e+09   6.07468e+09
    0.0286301   1.95052e+10   8.38549e+09   6.07508e+09
    0.0286986   1.95052e+10   8.38573e+09   6.07544e+09
    0.0287671   1.95053e+10   8.38597e+09   6.07578e+09
    0.0288356   1.95053e+10   8.38621e+09   6.07609e+09
    0.0289041   1.95053e+10   8.38643e+09   6.07637e+09
    0.0289726   1.95053e+10   8.38665e+09   6.07662e+09
    0.0290411   1.95053e+10   8.38687e+09   6.07685e+09
    0.0291096   1.95054e+10   8.38708e+09   6.07704e+09
    0.0291781   1.95054e+10   8.38729e+09   6.07721e+09
    0.0292466   1.95054e+10   8.38749e+09   6.07735e+09
    0.0293151   1.95054e+10   8.38768e+09   6.07746e+09
    0.0293836   1.95054e+10   8.38787e+09   6.07754e+09
    0.0294521   1.95054e+10   8.38806e+09    6.0776e+09
    0.0295205   1.95055e+10   8.38824e+09   6.07765e+09
     0.029589   1.95055e+10   8.38842e+09   6.07767e+09
    0.0296575   1.95055e+10    8.3886e+09   6.07768e+09
     0.029726   1.95055e+10   8.38877e+09   6.07768e+09
    0.0297945   1.95055e+10   8.38894e+09   6.07768e+09
     0.029863   1.95055e+10    8.3891e+09   6.07768e+09
    0.0299315   1.95056e+10   8.38926e+09   6.07769e+09
         0.03   1.95056e+10   8.38942e+09   6.07771e+09
    0.0300685   1.95056e+10   8.38958e+09   6.07773e+09
     0.030137   1.95056e+10   8.38973e+09   6.07778e+09
    0.0302055   1.95056e+10   8.38988e+09   6.07784e+09
     0.030274   1.95056e+10   8.39003e+09   6.07791e+09
    0.0303425   1.95056e+10   8.39017e+09   6.07795e+09
     0.030411   1.95057e+10   8.39031e+09   6.07794e+09
    0.0304795   1.95057e+10   8.39045e+09   6.07786e+09
    0.0305479   1.95057e+10   8.39059e+09   6.07817e+09
    0.0306164   1.95057e+10   8.39072e+09   6.07822e+09
    0.0306849   1.95057e+10   8.39086e+09   6.07797e+09
    0.0307534   1.95057e+10   8.39099e+09    6.0774e+09
    0.0308219   1.95057e+10   8.39112e+09   6.07645e+09
    0.0308904   1.95057e+10   8.39125e+09   6.07504e+09
    0.0309589   1.95058e+10   8.39137e+09   6.07311e+09
    0.0310274   1.95058e+10   8.39149e+09   6.07061e+09
    0.0310959   1.95058e+10   8.39162e+09   6.06752e+09
    0.0311644   1.95058e+10   8.39174e+09   6.06915e+09
    0.0312329   1.95058e+10   8.39186e+09   6.06884e+09
    0.0313014   1.95058e+10   8.39197e+09   6.06588e+09
    0.0313699   1.95058e+10   8.39209e+09   6.06078e+09
    0.0314384   1.95058e+10    8.3922e+09   6.05487e+09
    0.0315068   1.95058e+10   8.39232e+09   6.04935e+09
    0.0315753   1.95058e+10   8.39243e+09    6.0448e+09
    0.0316438   1.95059e+10   8.39254e+09   6.04129e+09
    0.0317123   1.95059e+10   8.39265e+09   6.03873e+09
    0.0317808   1.95059e+10   8.39276e+09   6.03694e+09
    0.0318493   1.95059e+10   8.39286e+09   6.03577e+09
    0.0319178   1.95059e+10   8.39297e+09   6.03507e+09
    0.0319863   1.95059e+10   8.39307e+09   6.03473e+09
    0.0320548   1.95059e+10   8.39318e+09   6.03466e+09
    0.0321233   1.95059e+10   8.39328e+09    6.0348e+09
    0.0321918   1.95059e+10   8.39338e+09    6.0351e+09
    0.0322603   1.95059e+10   8.39348e+09   6.03551e+09
    0.0323288   1.95059e+10   8.39358e+09   6.03601e+09
    0.0323973   1.95059e+10   8.39368e+09   6.03658e+09
    0.0324658   1.95059e+10   8.39377e+09   6.03719e+09
    0.0325342    1.9506e+10   8.39387e+09   6.03783e+09
    0.0326027    1.9506e+10   8.39396e+09    6.0385e+09
    0.0326712    1.9506e+10   8.39406e+09   6.03918e+09
    0.0327397    1.9506e+10   8.39415e+09   6.03987e+09
    0.0328082    1.9506e+10   8.39424e+09   6.04056e+09
    0.0328767    1.9506e+10   8.39433e+09   6.04125e+09
    0.0329452    1.9506e+10   8.39442e+09   6.04193e+09
    0.0330137    1.9506e+10   8.39451e+09   6.04261e+09
    0.0330822    1.9506e+10    8.3946e+09   6.04329e+09
    0.0331507    1.9506e+10   8.39469e+09   6.04395e+09
    0.0332192    1.9506e+10   8.39478e+09    6.0446e+09
    0.0332877    1.9506e+10   8.39486e+09   6.04524e+09
    0.0333562    1.9506e+10   8.39495e+09   6.04587e+09
    0.0334247    1.9506e+10   8.39503e+09   6.04649e+09
    0.0334932    1.9506e+10   8.39511e+09   6.04709e+09
    0.0335616    1.9506e+10    8.3952e+09   6.04768e+09
    0.0336301    1.9506e+10   8.39528e+09   6.04826e+09
    0.0336986   1.95061e+10   8.39536e+09   6.04883e+09
    0.0337671   1.95061e+10   8.39544e+09   6.04938e+09
    0.0338356   1.95061e+10   8.39551e+09   6.04992e+09
    0.0339041   1.95061e+10   8.39559e+09   6.05045e+09
    0.0339726   1.95061e+10   8.39567e+09   6.05096e+09
    0.0340411   1.95061e+10   8.39574e+09   6.05146e+09
    0.0341096   1.95061e+10   8.39582e+09   6.05195e+09
    0.0341781   1.95061e+10   8.39589e+09   6.05243e+09
    0.0342466   1.95061e+10   8.39597e+09    6.0529e+09
    0.0343151   1.95061e+10   8.39604e+09   6.05335e+09
    0.0343836   1.95061e+10   8.39611e+09   6.05379e+09
    0.0344521   1.95061e+10   8.39618e+09   6.05422e+09
    0.0345205   1.95061e+10   8.39625e+09   6.05464e+09
     0.034589   1.95061e+10   8.39632e+09   6.05505e+09
    0.0346575   1.95061e+10   8.39639e+09   6.05545e+09
     0.034726   1.95061e+10   8.39646e+09   6.05584e+09
    0.0347945   1.95061e+10   8.39652e+09   6.05621e+09
     0.034863   1.95061e+10   8.39659e+09   6.05658e+09
    0.0349315   1.95061e+10   8.39665e+09   6.05694e+09
        0.035   1.95061e+10   8.39672e+09   6.05729e+09
    0.0350685   1.95061e+10   8.39678e+09   6.05763e+09
     0.035137   1.95061e+10   8.39684e+09   6.05796e+09
    0.0352055   1.95061e+10    8.3969e+09   6.05828e+09
     0.035274   1.95062e+10   8.39696e+09   6.05859e+09
    0.0353425   1.95062e+10   8.39702e+09    6.0589e+09
     0.035411   1.95062e+10   8.39708e+09   6.05919e+09
    0.0354795   1.95062e+10   8.39714e+09   6.05948e+09
    0.0355479   1.95062e+10    8.3972e+09   6.05976e+09
    0.0356164   1.95062e+10   8.39725e+09   6.06003e+09
    0.0356849   1.95062e+10   8.39731e+09    6.0603e+09
    0.0357534   1.95062e+10   8.39736e+09   6.06056e+09
    0.0358219   1.95062e+10   8.39742e+09   6.06081e+09
    0.0358904   1.95062e+10   8.39747e+09   6.06105e+09
    0.0359589   1.95062e+10   8.39752e+09   6.06129e+09
    0.0360274   1.95062e+10   8.39758e+09   6.06153e+09
    0.0360959   1.95062e+10   8.39763e+09   6.06175e+09
    0.0361644   1.95062e+10   8.39768e+09   6.06197e+09
    0.0362329   1.95062e+10   8.39773e+09   6.06219e+09
    0.0363014   1.95062e+10   8.39777e+09   6.06239e+09
    0.0363699   1.95062e+10   8.39782e+09    6.0626e+09
    0.0364384   1.95062e+10   8.39787e+09    6.0628e+09
    0.0365068   1.95062e+10   8.39791e+09   6.06299e+09