# Probe 0 (0 0 0)
# Probe 1 (0 0 0.001)
# Probe 2 (0 0 0.002)
# Probe 3 (0 0 0.003)
# Probe 4 (0 0 0.004)
# Probe 5 (0 0 0.005)
# Probe 6 (0 0 0.006)
# Probe 7 (0 0 0.007)
# Probe 8 (0 0 0.008)
#       Probe             0             1             2             3             4             5             6             7             8
#        Time
  0.000116279   1.10176e-09   1.09257e-09   1.08017e-09   1.07619e-09             0             0             0             0             0
  0.000251938   1.10192e-09   1.09271e-09   1.08016e-09   1.07608e-09             0             0             0             0             0
  0.000410207   1.10209e-09   1.09282e-09   1.08015e-09   1.07598e-09             0             0             0             0             0
  0.000593798   1.10188e-09   1.09284e-09   1.08014e-09   1.07588e-09             0             0             0             0             0
  0.000803618   1.10176e-09   1.09299e-09   1.08013e-09    1.0758e-09             0             0             0             0             0
   0.00103675   1.10203e-09   1.09304e-09   1.08012e-09   1.07572e-09             0             0             0             0             0
   0.00128445   1.10229e-09   1.09313e-09   1.08011e-09   1.07583e-09             0             0             0             0             0
   0.00154985   1.10256e-09   1.09331e-09    1.0801e-09             0             0             0             0             0             0
   0.00183736   1.10284e-09   1.09347e-09   1.08009e-09             0             0             0             0             0             0
