# Probe 0 (0 0 0.004)
# Probe 1 (0 0 0.005)
# Probe 2 (0 0 0.006)
# Probe 3 (0 0 0.007)
# Probe 4 (0 0 0.008)
#       Probe             0             1             2             3             4
#        Time
  2.38095e-05             0             0             0             0             0
   4.7619e-05             0             0   7.60707e+06   1.00011e+07      0.387971
  7.14286e-05             0             0   9.83406e+06   1.17933e+07      0.151865
  9.52381e-05             0             0   1.18248e+07   1.42495e+07      0.135339
  0.000119048             0             0   1.37255e+07    1.7234e+07       0.15581
  0.000142857             0             0   1.55947e+07   2.06438e+07      0.201658
  0.000166667             0             0   1.74462e+07   2.43795e+07      0.274365
  0.000190476             0             0   1.92942e+07   2.83504e+07      0.378805
  0.000214286             0             0   2.11376e+07   3.24799e+07      0.523013
  0.000238095             0             0   2.29595e+07   3.67085e+07      0.718867
  0.000261905             0             0   2.47576e+07   4.09919e+07      0.984853
  0.000285714             0             0   2.65257e+07   4.52992e+07       1.35264
  0.000309524             0             0   2.82458e+07   4.96096e+07       1.88172
  0.000333333             0             0   2.99168e+07   5.39099e+07       2.69175
  0.000357143             0             0   3.15355e+07   5.81921e+07       4.03461
  0.000380952             0             0   3.30878e+07   6.24517e+07       6.45575
  0.000404762             0             0   3.45761e+07   6.66868e+07       11.1414
  0.000428571             0             0   3.60005e+07   7.08969e+07       20.5725
  0.000452381             0             0   3.73507e+07   7.50826e+07       39.4092
   0.00047619             0             0   3.86313e+07   7.92451e+07       74.8215
       0.0005             0             0    3.9845e+07   8.33858e+07        134.84
   0.00052381             0             0   4.09838e+07   8.75064e+07         224.7
  0.000547619             0             0   4.20537e+07   9.16086e+07       344.136
  0.000571429             0             0   4.30588e+07   9.56941e+07       488.292
  0.000595238             0             0   4.39925e+07   9.97645e+07       651.003
  0.000619048             0             0   4.48614e+07   1.03821e+08       827.493
  0.000642857             0             0   4.56701e+07   1.07866e+08        1015.3
  0.000666667             0             0   4.64132e+07     1.119e+08       1213.97
  0.000690476             0             0   4.70971e+07   1.15924e+08       1424.38
  0.000714286             0             0   4.77267e+07    1.1994e+08        1648.1
  0.000738095             0             0   4.82971e+07   1.23948e+08       1887.05
  0.000761905             0             0   4.88145e+07   1.27949e+08       2143.27
  0.000785714             0             0   4.92839e+07   1.31945e+08       2418.79
  0.000809524             0             0   4.97005e+07   1.35936e+08       2715.61
  0.000833333             0             0   5.00705e+07   1.39922e+08       3035.69
  0.000857143             0             0   5.03984e+07   1.43905e+08       3380.96
  0.000880952             0             0   5.06797e+07   1.47885e+08       3753.33
  0.000904762             0             0   5.09203e+07   1.51862e+08       4154.69
  0.000928571             0             0   5.11246e+07   1.55837e+08       4586.95
  0.000952381             0             0   5.12881e+07    1.5981e+08       5052.03
   0.00097619             0             0   5.14163e+07   1.63781e+08       5551.87
        0.001             0             0   5.15133e+07   1.67752e+08       6088.44
   0.00102381             0             0   5.15749e+07   1.71721e+08       6663.75
   0.00104762             0             0   5.16062e+07    1.7569e+08       7279.85
   0.00107143             0             0   5.16109e+07   1.79658e+08       7938.83
   0.00109524             0             0    5.1585e+07   1.83626e+08       8642.84
   0.00111905             0             0   5.15332e+07   1.87593e+08       9394.06
   0.00114286             0             0   5.14592e+07   1.91561e+08       10194.7
   0.00116667             0             0   5.13587e+07   1.95528e+08       11047.2
   0.00119048             0             0   5.12364e+07   1.99496e+08       11953.7
   0.00121429             0             0   5.10954e+07   2.03463e+08       12916.8
    0.0012381             0             0   5.09319e+07    2.0743e+08       13938.8
    0.0012619             0             0     5.075e+07   2.11398e+08       15022.3
   0.00128571             0             0   5.05529e+07   2.15365e+08         16170
   0.00130952             0             0   5.03366e+07   2.19332e+08       17384.4
   0.00133333             0             0   5.01049e+07   2.23299e+08       18668.2
   0.00135714             0             0    4.9861e+07   2.27265e+08       20024.2
   0.00138095             0             0   4.96008e+07   2.31231e+08       21455.3
   0.00140476             0             0   4.93281e+07   2.35197e+08       22964.4
   0.00142857             0             0   4.90456e+07   2.39162e+08       24554.3
   0.00145238             0             0   4.87495e+07   2.43126e+08       26228.2
   0.00147619             0             0   4.84433e+07   2.47089e+08       27989.2
       0.0015             0             0   4.81296e+07    2.5105e+08       29840.3
   0.00152381             0             0   4.78046e+07   2.55011e+08       31784.9
   0.00154762             0             0   4.74716e+07   2.58969e+08       33826.2
   0.00157143             0             0   4.71329e+07   2.62926e+08       35967.6
   0.00159524             0             0   4.67851e+07    2.6688e+08       38212.5
   0.00161905             0             0   4.64311e+07   2.70832e+08       40564.5
   0.00164286             0             0   4.60731e+07   2.74782e+08       43027.1
   0.00166667             0             0   4.57078e+07   2.78728e+08         45604
   0.00169048             0             0   4.53378e+07   2.82671e+08       48298.9
   0.00171429             0             0   4.49654e+07   2.86611e+08       51115.6
    0.0017381             0             0   4.45872e+07   2.90547e+08         54058
    0.0017619             0             0   4.42057e+07   2.94479e+08         57130
   0.00178571             0             0   4.38231e+07   2.98406e+08       60335.6
   0.00180952             0             0   4.34359e+07   3.02329e+08         63679
   0.00183333             0             0   4.30468e+07   3.06246e+08       67164.4
   0.00185714             0             0   4.26575e+07   3.10158e+08       70795.9
   0.00188095             0             0    4.2265e+07   3.14064e+08       74577.9
   0.00190476             0             0   4.18714e+07   3.17964e+08         78515
   0.00192857             0             0   4.14787e+07   3.21858e+08       82611.4
   0.00195238             0             0   4.10837e+07   3.25744e+08       86871.9
   0.00197619             0             0   4.06886e+07   3.29623e+08       91301.1
