# Probe 0 (0 0 0.006)
# Probe 1 (0 0 0.007)
# Probe 2 (0 0 0.008)
#       Probe             0             1             2
#        Time
  2.38095e-05             0             0             0
   4.7619e-05     0.0194626     0.0167345    0.00050893
  7.14286e-05      0.154315      0.124211    0.00138129
  9.52381e-05       0.19127      0.167916     0.0028669
  0.000119048        0.2119       0.19645    0.00531284
  0.000142857       0.22603      0.216354    0.00916822
  0.000166667      0.236716      0.230501     0.0150098
  0.000190476      0.245431      0.240601     0.0235679
  0.000214286      0.252814      0.247802     0.0357425
  0.000238095      0.259095      0.252908     0.0526105
  0.000261905      0.264582      0.256498      0.075415
  0.000285714      0.269442      0.258986      0.105516
  0.000309524      0.273701      0.260674      0.144264
  0.000333333      0.277511       0.26178      0.192748
  0.000357143      0.280959      0.262463      0.251356
  0.000380952       0.28404      0.262838      0.319183
  0.000404762      0.286848       0.26299      0.393492
  0.000428571      0.289443      0.262982      0.469677
  0.000452381      0.291806      0.262859      0.542133
   0.00047619      0.294003      0.262655       0.60585
       0.0005      0.296076      0.262395      0.657837
   0.00052381      0.297999      0.262098      0.697529
  0.000547619      0.299822      0.261777      0.726193
  0.000571429      0.301574      0.261441       0.74595
  0.000595238      0.303229        0.2611      0.759007
  0.000619048      0.304823      0.260757       0.76725
  0.000642857      0.306381      0.260417      0.772135
  0.000666667      0.307873      0.260082      0.774717
  0.000690476       0.30933      0.259755      0.775738
  0.000714286       0.31077      0.259438      0.775707
  0.000738095      0.312165       0.25913       0.77497
  0.000761905      0.313541      0.258833      0.773764
  0.000785714      0.314912      0.258546      0.772249
  0.000809524      0.316251      0.258271      0.770533
  0.000833333      0.317581      0.258007       0.76869
  0.000857143      0.318913      0.257754       0.76677
  0.000880952      0.320223      0.257511      0.764809
  0.000904762      0.321528       0.25728      0.762829
  0.000928571      0.322841      0.257059      0.760847
  0.000952381      0.324137      0.256848      0.758873
   0.00097619      0.325432      0.256647      0.756915
        0.001      0.326738      0.256456      0.754977
   0.00102381       0.32803      0.256274      0.753063
   0.00104762      0.329323      0.256103      0.751174
   0.00107143      0.330628       0.25594       0.74931
   0.00109524      0.331923      0.255786      0.747474
   0.00111905       0.33322      0.255641      0.745664
   0.00114286      0.334529      0.255504       0.74388
   0.00116667      0.335829      0.255376      0.742121
   0.00119048      0.337134      0.255257      0.740388
   0.00121429       0.33845      0.255145      0.738679
    0.0012381      0.339759      0.255042      0.736994
    0.0012619      0.341071      0.254946      0.735331
   0.00128571      0.342396      0.254859      0.733691
   0.00130952      0.343714      0.254778      0.732072
   0.00133333      0.345036      0.254706      0.730474
   0.00135714      0.346371      0.254641      0.728897
   0.00138095      0.347699      0.254583      0.727338
   0.00140476      0.349031      0.254533      0.725798
   0.00142857      0.350376       0.25449      0.724277
   0.00145238      0.351714      0.254454      0.722773
   0.00147619      0.353056      0.254425      0.721287
       0.0015      0.354411      0.254403      0.719817
   0.00152381      0.355759      0.254387      0.718363
   0.00154762      0.357112      0.254379      0.716925
   0.00157143      0.358476      0.254378      0.715502
   0.00159524      0.359834      0.254383      0.714094
   0.00161905      0.361197      0.254394        0.7127
   0.00164286      0.362571      0.254413       0.71132
   0.00166667      0.363939      0.254438      0.709954
   0.00169048      0.365311      0.254469      0.708601
   0.00171429      0.366695      0.254507      0.707261
    0.0017381      0.368073      0.254551      0.705934
    0.0017619      0.369455      0.254601       0.70462
   0.00178571      0.370848      0.254658      0.703317
   0.00180952      0.372235       0.25472      0.702026
   0.00183333      0.373626      0.254789      0.700747
   0.00185714      0.375028      0.254864       0.69948
   0.00188095      0.376425      0.254944      0.698223
   0.00190476      0.377826      0.255031      0.696978
   0.00192857      0.379237      0.255123      0.695743
   0.00195238      0.380642      0.255221      0.694519
   0.00197619      0.382052      0.255325      0.693305
        0.002      0.383472      0.255435      0.692101
   0.00202381      0.384887       0.25555      0.690907
   0.00204762      0.386305       0.25567      0.689723
   0.00207143      0.387734      0.255796      0.688549
   0.00209524      0.389157      0.255928      0.687384
