# Probe 0 (0 0 0.006)
# Probe 1 (0 0 0.007)
# Probe 2 (0 0 0.008)
#       Probe             0             1             2
#        Time
  3.84615e-05             0             0             0
  7.69231e-05             0      0.708497             0
  0.000115385             0             0      0.708497
  0.000153846             0        1.2915        1.0415
  0.000192308             0             0             0
  0.000230769             0             0             0
  0.000269231             0             0             0
  0.000307692             0      0.708497             0
  0.000346154             0      0.708497             0
  0.000384615             0             0             0
  0.000423077             0             0             0
  0.000461538      0.708497             0             0
       0.0005             0             0             0
  0.000538462             0        1.2915             0
  0.000576923             0             0             0
  0.000615385             0             0             0
  0.000653846             0             0             0
  0.000692308             0             0             0
  0.000730769             0             0             0
  0.000769231             0             0             0
  0.000807692             0             0             0
  0.000846154             0      0.708497             0
  0.000884615             0             0             0
  0.000923077             0        1.7915      0.708497
  0.000961538             0             0             0
        0.001             0             0      0.708497
   0.00103846             0        1.2915             0
   0.00107692      0.708497             0             0
   0.00111538             0             0             0
   0.00115385             0             0             0
   0.00119231             0             0             0
   0.00123077             0             0             0
   0.00126923             0             0             0
   0.00130769             0             0             0
   0.00134615             0             0      0.708497
   0.00138462             0             0             0
   0.00142308             0             0             0
   0.00146154      0.708497             0             0
       0.0015      0.708497      0.708497             0
   0.00153846      0.708497             0             0
   0.00157692      0.708497             0             0
   0.00161538        1.7915             0             0
   0.00165385             0      0.791503             0
   0.00169231             0      0.708497             0
   0.00173077             0        1.0415             0
   0.00176923             0             0             0
   0.00180769             0             0             0
   0.00184615             0             0             0
   0.00188462             0             0             0
   0.00192308             0        2.2915             0
   0.00196154             0             0             0
        0.002             0             0             0
   0.00203846             0             0      0.708497
   0.00207692             0             0      0.708497
   0.00211538             0      0.708497             0
   0.00215385             0             0             0
   0.00219231             0             0             0
   0.00223077             0             0             0
   0.00226923             0             0             0
   0.00230769             0             0             0
   0.00234615             0             0             0
   0.00238462             0      0.708497             0
   0.00242308             0             0             0
   0.00246154             0             0             0
       0.0025             0             0             0
   0.00253846             0             0             0
   0.00257692             0             0             0
   0.00261538             0             0             0
   0.00265385             0             0             0
   0.00269231             0             0      0.708497
   0.00273077             0             0      0.708497
   0.00276923             0             0             0
   0.00280769             0             0             0
   0.00284615             0             0             0
   0.00288462             0             0             0
   0.00292308             0             0             0
   0.00296154             0             0             0
        0.003             0             0        2.2915
   0.00303846             0             0             0
   0.00307692             0             0             0
   0.00311538             0             0             0
   0.00315385             0             0             0
   0.00319231        2.2915             0             0
   0.00323077             0             0             0
   0.00326923      0.708497             0             0
   0.00330769             0             0             0
   0.00334615             0             0             0
   0.00338462             0             0             0
   0.00342308      0.708497             0             0
   0.00346154             0             0             0
       0.0035             0             0             0
   0.00353846             0             0             0
   0.00357692             0             0             0
   0.00361538             0             0             0
   0.00365385             0      0.708497             0
   0.00369231             0             0             0
   0.00373077             0             0             0
   0.00376923             0             0             0
   0.00380769             0             0             0
   0.00384615             0             0             0
   0.00388462             0             0             0
   0.00392308             0             0             0
   0.00396154             0      0.708497      0.791503
        0.004             0             0        1.2915
   0.00403846             0             0             0
   0.00407692             0             0             0
   0.00411538             0             0             0
   0.00415385             0      0.708497             0
   0.00419231             0             0             0
   0.00423077             0             0             0
   0.00426923             0             0             0
   0.00430769             0             0             0
   0.00434615             0             0             0
   0.00438462             0             0             0
   0.00442308             0      0.791503             0
   0.00446154             0             0             0
       0.0045             0             0             0
   0.00453846             0             0             0
   0.00457692             0             0             0
   0.00461538             0             0             0
   0.00465385             0             0             0
   0.00469231             0             0             0
   0.00473077             0             0             0
   0.00476923             0        2.2915             0
   0.00480769             0             0             0
   0.00484615             0             0             0
   0.00488462             0             0             0
   0.00492308             0             0             0
   0.00496154             0             0             0
        0.005             0             0             0
   0.00503846      0.708497             0             0
   0.00507692             0             0             0
   0.00511538             0             0             0
   0.00515385             0             0             0
   0.00519231      0.708497             0             0
   0.00523077             0      0.708497             0
   0.00526923             0             0             0
   0.00530769             0             0             0
   0.00534615             0             0             0
   0.00538462             0        2.2915             0
   0.00542308             0             0             0
   0.00546154             0             0             0
       0.0055             0             0             0
   0.00553846             0             0             0
   0.00557692             0             0             0
   0.00561538             0             0             0
   0.00565385             0             0             0
   0.00569231             0             0      0.708497
   0.00573077             0             0             0
   0.00576923             0             0      0.708497
   0.00580769             0             0        2.2915
   0.00584615             0             0             0
   0.00588462             0        1.2915             0
   0.00592308             0             0             0
   0.00596154             0             0             0
        0.006             0             0             0
   0.00603846             0             0             0
   0.00607692             0             0             0
   0.00611538             0             0             0
   0.00615385             0             0             0
   0.00619231             0             0             0
   0.00623077             0             0             0
   0.00626923             0             0             0
   0.00630769             0             0             0
   0.00634615             0             0      0.708497
   0.00638462             0        1.2915             0
   0.00642308             0             0             0
   0.00646154             0             0             0
       0.0065             0             0             0
   0.00653846      0.708497             0             0
   0.00657692             0             0      0.791503
   0.00661538             0             0      0.708497
   0.00665385             0      0.708497      0.708497
   0.00669231             0             0      0.708497
   0.00673077             0             0             0
   0.00676923             0             0             0
   0.00680769             0             0             0
   0.00684615             0             0             0
   0.00688462             0             0             0
   0.00692308             0             0             0
   0.00696154             0        1.2915             0
        0.007             0             0             0
   0.00703846             0             0             0
   0.00707692             0             0             0
   0.00711538             0             0             0
   0.00715385             0             0             0
   0.00719231             0             0             0
   0.00723077             0             0        4.2915
   0.00726923             0      0.708497       0.95817
   0.00730769             0      0.708497             0
   0.00734615             0      0.708497             0
   0.00738462             0      0.708497             0
   0.00742308             0             0             0
   0.00746154             0             0             0
       0.0075             0             0             0
   0.00753846             0             0             0
   0.00757692             0             0             0
   0.00761538             0             0             0
   0.00765385             0             0             0
   0.00769231             0             0             0
   0.00773077             0             0             0
   0.00776923             0             0      0.791503
   0.00780769             0             0             0
   0.00784615             0             0             0
   0.00788462             0             0             0
   0.00792308      0.708497             0             0
   0.00796154        3.2915             0             0
        0.008        3.7915             0             0
   0.00803846      0.708497             0             0
   0.00807692        1.7915             0             0
   0.00811538             0             0             0
   0.00815385             0             0        2.2915
   0.00819231             0             0             0
   0.00823077             0             0             0
   0.00826923             0             0             0
   0.00830769             0             0             0
   0.00834615             0        3.2915             0
   0.00838462             0             0             0
   0.00842308             0             0      0.708497
   0.00846154             0             0             0
       0.0085        2.2915             0             0
   0.00853846      0.708497             0      0.708497
   0.00857692      0.708497             0      0.708497
   0.00861538             0             0             0
   0.00865385             0             0             0
   0.00869231             0             0      0.708497
   0.00873077        1.2915             0             0
   0.00876923             0             0             0
   0.00880769      0.708497             0             0
   0.00884615             0             0             0
   0.00888462             0             0             0
   0.00892308             0             0             0
   0.00896154             0             0      0.708497
        0.009             0             0             0
   0.00903846             0             0             0
   0.00907692             0             0             0
   0.00911538             0             0             0
   0.00915385             0             0             0
   0.00919231             0             0      0.708497
   0.00923077             0             0             0
   0.00926923             0             0             0
   0.00930769             0             0             0
   0.00934615             0             0             0
   0.00938462             0             0             0
   0.00942308             0             0             0
   0.00946154             0             0             0
       0.0095             0             0             0
   0.00953846             0             0             0
   0.00957692             0             0             0
   0.00961538             0             0             0
   0.00965385             0             0        1.7915
   0.00969231             0             0             0
   0.00973077             0      0.791503             0
   0.00976923             0             0             0
   0.00980769             0             0        1.2915
   0.00984615             0             0      0.791503
   0.00988462             0             0             0
   0.00992308             0             0             0
   0.00996154             0             0             0
         0.01             0             0             0
    0.0100385             0      0.708497             0
    0.0100769             0             0             0
    0.0101154             0      0.708497             0
    0.0101538             0             0             0
    0.0101923             0      0.708497             0
    0.0102308             0             0             0
    0.0102692             0             0             0
    0.0103077             0      0.708497             0
    0.0103462             0             0             0
    0.0103846             0             0             0
    0.0104231             0             0             0
    0.0104615             0             0             0
       0.0105             0             0             0
    0.0105385             0             0             0
    0.0105769             0             0             0
    0.0106154             0             0             0
    0.0106538             0             0             0
    0.0106923             0             0             0
    0.0107308      0.708497             0             0
    0.0107692             0             0             0
    0.0108077      0.708497             0             0
    0.0108462             0             0             0
    0.0108846      0.708497             0             0
    0.0109231             0             0             0
    0.0109615      0.708497             0      0.791503
        0.011             0             0             0
    0.0110385             0             0      0.708497
    0.0110769             0             0             0
    0.0111154             0             0             0
    0.0111538             0             0             0
    0.0111923             0             0             0
    0.0112308             0             0             0
    0.0112692             0             0             0
    0.0113077             0             0             0
    0.0113462             0             0             0
    0.0113846             0             0             0
    0.0114231             0             0             0
    0.0114615             0      0.708497             0
       0.0115             0             0             0
    0.0115385             0             0      0.708497
    0.0115769             0             0        1.2915
    0.0116154             0             0             0
    0.0116538             0             0             0
    0.0116923             0      0.708497             0
    0.0117308             0             0             0
    0.0117692             0             0             0
    0.0118077             0        1.2915             0
    0.0118462             0             0             0
    0.0118846             0             0             0
    0.0119231             0             0             0
    0.0119615             0             0             0
        0.012        1.2915             0             0
    0.0120385      0.708497             0             0
    0.0120769             0             0             0
    0.0121154             0             0             0
    0.0121538             0             0             0
    0.0121923             0             0             0
    0.0122308             0             0             0
    0.0122692             0             0             0
    0.0123077      0.708497             0             0
    0.0123462             0             0             0
    0.0123846      0.708497             0             0
    0.0124231             0             0             0
    0.0124615             0             0             0
       0.0125             0             0             0
    0.0125385             0             0             0
    0.0125769             0             0             0
    0.0126154             0             0             0
    0.0126538             0             0             0
    0.0126923             0             0             0
    0.0127308             0             0             0
    0.0127692             0             0             0
    0.0128077             0      0.791503             0
    0.0128462             0             0             0
    0.0128846             0             0             0
    0.0129231             0             0             0
    0.0129615      0.708497             0             0
        0.013             0             0             0
    0.0130385             0             0             0
    0.0130769             0             0             0
    0.0131154             0             0             0
    0.0131538             0        1.2915             0
    0.0131923        1.2915             0             0
    0.0132308             0             0             0
    0.0132692             0             0             0
    0.0133077             0             0             0
    0.0133462      0.708497             0      0.708497
    0.0133846             0             0      0.708497
    0.0134231             0             0      0.708497
    0.0134615             0             0             0
       0.0135             0             0      0.708497
    0.0135385             0             0      0.708497
    0.0135769             0      0.708497        2.2915
    0.0136154             0             0             0
    0.0136538             0             0             0
    0.0136923      0.708497             0             0
    0.0137308             0             0             0
    0.0137692      0.708497             0             0
    0.0138077             0             0      0.708497
    0.0138462             0             0             0
    0.0138846        1.2915             0             0
    0.0139231             0             0             0
    0.0139615             0             0             0
        0.014             0             0             0
    0.0140385             0             0             0
    0.0140769             0             0             0
    0.0141154             0             0             0
    0.0141538             0             0             0
    0.0141923             0             0             0
    0.0142308             0             0             0
    0.0142692             0             0             0
    0.0143077             0             0      0.708497
    0.0143462             0             0             0
    0.0143846             0             0             0
    0.0144231      0.791503             0             0
    0.0144615             0             0             0
       0.0145             0             0             0
    0.0145385             0             0             0
    0.0145769             0             0             0
    0.0146154             0             0             0
    0.0146538             0             0             0
    0.0146923             0             0             0
    0.0147308             0             0             0
    0.0147692             0             0             0
    0.0148077             0             0             0
    0.0148462        2.2915             0             0
    0.0148846             0             0             0
    0.0149231             0             0             0
    0.0149615             0             0             0
        0.015             0             0             0
    0.0150385             0             0             0
    0.0150769             0             0             0
    0.0151154             0             0             0
    0.0151538             0             0             0
    0.0151923             0             0             0
    0.0152308             0             0             0
    0.0152692      0.708497             0             0
    0.0153077             0             0             0
    0.0153462             0             0             0
    0.0153846             0             0             0
    0.0154231             0             0             0
    0.0154615             0             0             0
       0.0155             0             0             0
    0.0155385             0             0             0
    0.0155769             0             0             0
    0.0156154             0             0             0
    0.0156538        1.2915             0      0.791503
    0.0156923             0             0             0
    0.0157308             0             0             0
    0.0157692             0             0      0.708497
    0.0158077             0             0             0
    0.0158462             0             0             0
    0.0158846             0             0             0
    0.0159231             0             0             0
    0.0159615             0             0             0
        0.016             0             0             0
    0.0160385             0             0             0
    0.0160769        1.2915             0      0.708497
    0.0161154             0             0             0
    0.0161538      0.708497             0             0
    0.0161923      0.791503             0             0
    0.0162308             0             0             0
    0.0162692             0             0             0
    0.0163077             0             0             0
    0.0163462             0             0             0
    0.0163846             0             0             0
    0.0164231             0             0             0
    0.0164615             0             0             0
       0.0165             0             0             0
    0.0165385             0             0             0
    0.0165769      0.708497             0             0
    0.0166154      0.708497             0      0.791503
    0.0166538             0             0             0
    0.0166923             0             0             0
    0.0167308             0             0             0
    0.0167692             0             0             0
    0.0168077             0             0             0
    0.0168462             0             0             0
    0.0168846             0             0             0
    0.0169231             0             0             0
    0.0169615             0             0             0
        0.017             0             0             0
    0.0170385             0             0             0
    0.0170769             0             0             0
    0.0171154             0             0             0
    0.0171538             0             0             0
    0.0171923             0             0             0
    0.0172308             0             0             0
    0.0172692             0             0             0
    0.0173077             0             0             0
    0.0173462             0             0             0
    0.0173846             0             0             0
    0.0174231             0             0             0
    0.0174615             0             0             0
       0.0175             0             0             0
    0.0175385             0             0             0
    0.0175769      0.708497             0             0
    0.0176154             0             0             0
    0.0176538             0             0             0
    0.0176923             0             0             0
    0.0177308             0             0      0.708497
    0.0177692             0             0             0
    0.0178077             0             0             0
    0.0178462             0             0             0
    0.0178846             0             0             0
    0.0179231             0             0             0
    0.0179615             0             0             0
        0.018             0             0             0
    0.0180385             0             0             0
    0.0180769             0             0             0
    0.0181154             0             0             0
    0.0181538             0             0             0
    0.0181923             0             0             0
    0.0182308             0      0.791503             0
    0.0182692             0             0             0
    0.0183077             0             0             0
    0.0183462             0             0             0
    0.0183846             0             0             0
    0.0184231             0             0             0
    0.0184615             0             0             0
       0.0185             0             0             0
    0.0185385             0             0             0
    0.0185769             0             0             0
    0.0186154             0             0             0
    0.0186538             0             0             0
    0.0186923             0             0             0
    0.0187308             0             0             0
    0.0187692             0             0             0
    0.0188077             0             0             0
    0.0188462             0             0             0
    0.0188846             0             0             0
    0.0189231             0             0             0
    0.0189615             0             0             0
        0.019             0             0             0
    0.0190385             0             0             0
    0.0190769             0             0             0
    0.0191154      0.708497             0             0
    0.0191538             0             0             0
    0.0191923             0             0             0
    0.0192308             0             0             0
    0.0192692             0             0             0
    0.0193077             0             0             0
    0.0193462             0             0             0
    0.0193846             0             0             0
    0.0194231             0             0             0
    0.0194615             0             0      0.708497
       0.0195             0             0       0.95817
    0.0195385             0             0      0.708497
    0.0195769             0      0.708497      0.708497
    0.0196154             0             0      0.708497
    0.0196538             0             0             0
    0.0196923             0             0             0
    0.0197308             0             0             0
    0.0197692             0             0             0
    0.0198077             0             0             0
    0.0198462             0      0.708497             0
    0.0198846             0             0             0
    0.0199231             0      0.708497             0
    0.0199615             0             0             0
         0.02             0             0             0
    0.0200385             0             0             0
    0.0200769             0             0             0
    0.0201154             0             0             0
    0.0201538             0             0             0
    0.0201923             0             0             0
    0.0202308             0             0             0
    0.0202692             0             0             0
    0.0203077             0             0             0
    0.0203462             0             0             0
    0.0203846      0.708497             0             0
    0.0204231             0             0             0
    0.0204615             0             0             0
       0.0205      0.708497             0             0