# Probe 0 (0 0 0.0079)
#       Probe             0
#        Time
  0.000116279   1.10606e-09
  0.000251938   6.69789e+21
