/*--------------------------------*- C++ -*----------------------------------*\
| =========                 |                                                 |
| \\      /  F ield         | OpenFOAM: The Open Source CFD Toolbox           |
|  \\    /   O peration     | Version:  dev                                   |
|   \\  /    A nd           | Web:      www.OpenFOAM.org                      |
|    \\/     M anipulation  |                                                 |
\*---------------------------------------------------------------------------*/
FoamFile
{
    version     2.0;
    format      ascii;
    class       volScalarField;
    location    "0.055";
    object      A2C2HB*;
}
// * * * * * * * * * * * * * * * * * * * * * * * * * * * * * * * * * * * * * //

dimensions      [0 0 0 0 0 0 0];

internalField   nonuniform List<scalar> 
25
(
9.15706e-12
2.48899e-12
6.85686e-13
1.93287e-13
5.48007e-14
1.62487e-14
4.98142e-15
1.6444e-15
6.15797e-16
2.62468e-16
1.31011e-16
7.37653e-17
4.60288e-17
3.09482e-17
2.18858e-17
1.59702e-17
1.1857e-17
8.87092e-18
6.64613e-18
4.96705e-18
3.69497e-18
2.73329e-18
2.0105e-18
1.47147e-18
1.07258e-18
)
;

boundaryField
{
    wall
    {
        type            zeroGradient;
    }
    fuel
    {
        type            fixedValue;
        value           uniform 0;
    }
    outlet
    {
        type            inletOutlet;
        inletValue      nonuniform 0();
        value           nonuniform 0();
    }
    procBoundary0to1
    {
        type            processor;
        value           uniform 7.83389e-19;
    }
}


// ************************************************************************* //
