/*--------------------------------*- C++ -*----------------------------------*\
| =========                 |                                                 |
| \\      /  F ield         | OpenFOAM: The Open Source CFD Toolbox           |
|  \\    /   O peration     | Version:  dev                                   |
|   \\  /    A nd           | Web:      www.OpenFOAM.org                      |
|    \\/     M anipulation  |                                                 |
\*---------------------------------------------------------------------------*/
FoamFile
{
    version     2.0;
    format      ascii;
    class       volScalarField;
    location    "0.055";
    object      A2R5-;
}
// * * * * * * * * * * * * * * * * * * * * * * * * * * * * * * * * * * * * * //

dimensions      [0 0 0 0 0 0 0];

internalField   nonuniform List<scalar> 
25
(
1.43873e-11
1.0546e-11
7.32118e-12
5.12059e-12
3.64397e-12
2.65307e-12
1.98186e-12
1.51976e-12
1.1938e-12
9.58964e-13
7.86516e-13
6.568e-13
5.57464e-13
4.81083e-13
4.21813e-13
3.75709e-13
3.39799e-13
3.11753e-13
2.89701e-13
2.7214e-13
2.57869e-13
2.45946e-13
2.35652e-13
2.26448e-13
2.17943e-13
)
;

boundaryField
{
    wall
    {
        type            zeroGradient;
    }
    fuel
    {
        type            fixedValue;
        value           uniform 0;
    }
    outlet
    {
        type            inletOutlet;
        inletValue      nonuniform 0();
        value           nonuniform 0();
    }
    procBoundary0to1
    {
        type            processor;
        value           uniform 2.09853e-13;
    }
}


// ************************************************************************* //
