/*--------------------------------*- C++ -*----------------------------------*\
| =========                 |                                                 |
| \\      /  F ield         | OpenFOAM: The Open Source CFD Toolbox           |
|  \\    /   O peration     | Version:  dev                                   |
|   \\  /    A nd           | Web:      www.OpenFOAM.org                      |
|    \\/     M anipulation  |                                                 |
\*---------------------------------------------------------------------------*/
FoamFile
{
    version     2.0;
    format      ascii;
    class       volScalarField;
    location    "0.055";
    object      A4-;
}
// * * * * * * * * * * * * * * * * * * * * * * * * * * * * * * * * * * * * * //

dimensions      [0 0 0 0 0 0 0];

internalField   nonuniform List<scalar> 
25
(
3.59126e-12
2.29735e-12
1.54212e-12
1.07149e-12
7.22457e-13
4.6792e-13
2.86829e-13
1.6913e-13
9.85661e-14
5.68539e-14
3.36972e-14
2.05097e-14
1.30576e-14
8.70529e-15
6.03716e-15
4.30975e-15
3.13368e-15
2.30097e-15
1.69571e-15
1.2492e-15
9.17716e-16
6.71536e-16
4.89335e-16
3.5522e-16
2.57054e-16
)
;

boundaryField
{
    wall
    {
        type            zeroGradient;
    }
    fuel
    {
        type            fixedValue;
        value           uniform 0;
    }
    outlet
    {
        type            inletOutlet;
        inletValue      nonuniform 0();
        value           nonuniform 0();
    }
    procBoundary0to1
    {
        type            processor;
        value           uniform 1.86546e-16;
    }
}


// ************************************************************************* //
