/*--------------------------------*- C++ -*----------------------------------*\
| =========                 |                                                 |
| \\      /  F ield         | OpenFOAM: The Open Source CFD Toolbox           |
|  \\    /   O peration     | Version:  dev                                   |
|   \\  /    A nd           | Web:      www.OpenFOAM.org                      |
|    \\/     M anipulation  |                                                 |
\*---------------------------------------------------------------------------*/
FoamFile
{
    version     2.0;
    format      ascii;
    class       volScalarField;
    location    "0.055";
    object      C3H3;
}
// * * * * * * * * * * * * * * * * * * * * * * * * * * * * * * * * * * * * * //

dimensions      [0 0 0 0 0 0 0];

internalField   nonuniform List<scalar> 
25
(
5.22683e-06
1.31631e-05
1.62128e-05
1.61605e-05
1.44425e-05
1.20049e-05
9.46837e-06
7.22264e-06
5.40397e-06
4.01592e-06
2.99622e-06
2.2597e-06
1.73211e-06
1.35716e-06
1.08843e-06
8.93737e-07
7.50409e-07
6.42662e-07
5.59625e-07
4.93862e-07
4.4032e-07
3.95579e-07
3.57369e-07
3.2414e-07
2.94843e-07
)
;

boundaryField
{
    wall
    {
        type            zeroGradient;
    }
    fuel
    {
        type            fixedValue;
        value           uniform 0;
    }
    outlet
    {
        type            inletOutlet;
        inletValue      nonuniform 0();
        value           nonuniform 0();
    }
    procBoundary0to1
    {
        type            processor;
        value           uniform 2.68742e-07;
    }
}


// ************************************************************************* //
