/*--------------------------------*- C++ -*----------------------------------*\
| =========                 |                                                 |
| \\      /  F ield         | OpenFOAM: The Open Source CFD Toolbox           |
|  \\    /   O peration     | Version:  dev                                   |
|   \\  /    A nd           | Web:      www.OpenFOAM.org                      |
|    \\/     M anipulation  |                                                 |
\*---------------------------------------------------------------------------*/
FoamFile
{
    version     2.0;
    format      ascii;
    class       volScalarField;
    location    "0.055";
    object      C6H5O;
}
// * * * * * * * * * * * * * * * * * * * * * * * * * * * * * * * * * * * * * //

dimensions      [0 0 0 0 0 0 0];

internalField   nonuniform List<scalar> 
25
(
1.53641e-12
4.8092e-12
7.56357e-12
9.00074e-12
8.71737e-12
7.15564e-12
5.2105e-12
3.54626e-12
2.33113e-12
1.51541e-12
9.9298e-13
6.65422e-13
4.61761e-13
3.36927e-13
2.61346e-13
2.17501e-13
1.94911e-13
1.873e-13
1.90806e-13
2.02883e-13
2.21643e-13
2.45493e-13
2.72931e-13
3.02514e-13
3.32826e-13
)
;

boundaryField
{
    wall
    {
        type            zeroGradient;
    }
    fuel
    {
        type            fixedValue;
        value           uniform 0;
    }
    outlet
    {
        type            inletOutlet;
        inletValue      nonuniform 0();
        value           nonuniform 0();
    }
    procBoundary0to1
    {
        type            processor;
        value           uniform 3.62519e-13;
    }
}


// ************************************************************************* //
