/*--------------------------------*- C++ -*----------------------------------*\
| =========                 |                                                 |
| \\      /  F ield         | OpenFOAM: The Open Source CFD Toolbox           |
|  \\    /   O peration     | Version:  dev                                   |
|   \\  /    A nd           | Web:      www.OpenFOAM.org                      |
|    \\/     M anipulation  |                                                 |
\*---------------------------------------------------------------------------*/
FoamFile
{
    version     2.0;
    format      ascii;
    class       volScalarField;
    location    "0.055";
    object      C6H5O;
}
// * * * * * * * * * * * * * * * * * * * * * * * * * * * * * * * * * * * * * //

dimensions      [0 0 0 0 0 0 0];

internalField   nonuniform List<scalar> 
25
(
6.92459e-09
2.1787e-09
6.16124e-10
1.69033e-10
4.49982e-11
1.20714e-11
3.1861e-12
8.38798e-13
2.25028e-13
5.98083e-14
1.6285e-14
4.41771e-15
1.21607e-15
3.41777e-16
9.92735e-17
3.05719e-17
1.04822e-17
4.28572e-18
2.18377e-18
1.34898e-18
9.40873e-19
6.982e-19
5.33562e-19
4.13838e-19
3.23836e-19
)
;

boundaryField
{
    wall
    {
        type            zeroGradient;
    }
    fuel
    {
        type            fixedValue;
        value           uniform 0;
    }
    outlet
    {
        type            inletOutlet;
        inletValue      nonuniform 0();
        value           nonuniform 0();
    }
    procBoundary0to1
    {
        type            processor;
        value           uniform 2.55855e-19;
    }
}


// ************************************************************************* //
