/*--------------------------------*- C++ -*----------------------------------*\
| =========                 |                                                 |
| \\      /  F ield         | OpenFOAM: The Open Source CFD Toolbox           |
|  \\    /   O peration     | Version:  dev                                   |
|   \\  /    A nd           | Web:      www.OpenFOAM.org                      |
|    \\/     M anipulation  |                                                 |
\*---------------------------------------------------------------------------*/
FoamFile
{
    version     2.0;
    format      ascii;
    class       volScalarField;
    location    "0.055";
    object      CH2O;
}
// * * * * * * * * * * * * * * * * * * * * * * * * * * * * * * * * * * * * * //

dimensions      [0 0 0 0 0 0 0];

internalField   nonuniform List<scalar> 
25
(
9.75402e-06
1.77426e-05
2.01801e-05
1.99e-05
1.80956e-05
1.55106e-05
1.27132e-05
1.01194e-05
7.91676e-06
6.15067e-06
4.78448e-06
3.74257e-06
2.95267e-06
2.358e-06
1.90658e-06
1.56079e-06
1.29266e-06
1.08174e-06
9.1328e-07
7.76671e-07
6.64311e-07
5.70734e-07
4.92042e-07
4.25321e-07
3.68399e-07
)
;

boundaryField
{
    wall
    {
        type            zeroGradient;
    }
    fuel
    {
        type            fixedValue;
        value           uniform 0;
    }
    outlet
    {
        type            inletOutlet;
        inletValue      nonuniform 0();
        value           nonuniform 0();
    }
    procBoundary0to1
    {
        type            processor;
        value           uniform 3.19585e-07;
    }
}


// ************************************************************************* //
