/*--------------------------------*- C++ -*----------------------------------*\
| =========                 |                                                 |
| \\      /  F ield         | OpenFOAM: The Open Source CFD Toolbox           |
|  \\    /   O peration     | Version:  dev                                   |
|   \\  /    A nd           | Web:      www.OpenFOAM.org                      |
|    \\/     M anipulation  |                                                 |
\*---------------------------------------------------------------------------*/
FoamFile
{
    version     2.0;
    format      ascii;
    class       volScalarField;
    location    "0.055";
    object      HCCOH;
}
// * * * * * * * * * * * * * * * * * * * * * * * * * * * * * * * * * * * * * //

dimensions      [0 0 0 0 0 0 0];

internalField   nonuniform List<scalar> 
25
(
4.25961e-05
3.29797e-05
2.04596e-05
1.19782e-05
6.83313e-06
3.94053e-06
2.28398e-06
1.35328e-06
8.33791e-07
5.27774e-07
3.47948e-07
2.34224e-07
1.6085e-07
1.11801e-07
7.81342e-08
5.46502e-08
3.81553e-08
2.65667e-08
1.84572e-08
1.28165e-08
8.91867e-09
6.24214e-09
4.4139e-09
3.16941e-09
2.32211e-09
)
;

boundaryField
{
    wall
    {
        type            zeroGradient;
    }
    fuel
    {
        type            fixedValue;
        value           uniform 0;
    }
    outlet
    {
        type            inletOutlet;
        inletValue      nonuniform 0();
        value           nonuniform 0();
    }
    procBoundary0to1
    {
        type            processor;
        value           uniform 1.73862e-09;
    }
}


// ************************************************************************* //
