/*--------------------------------*- C++ -*----------------------------------*\
| =========                 |                                                 |
| \\      /  F ield         | OpenFOAM: The Open Source CFD Toolbox           |
|  \\    /   O peration     | Version:  dev                                   |
|   \\  /    A nd           | Web:      www.OpenFOAM.org                      |
|    \\/     M anipulation  |                                                 |
\*---------------------------------------------------------------------------*/
FoamFile
{
    version     2.0;
    format      ascii;
    class       volScalarField;
    location    "0.055";
    object      n-C6H5;
}
// * * * * * * * * * * * * * * * * * * * * * * * * * * * * * * * * * * * * * //

dimensions      [0 0 0 0 0 0 0];

internalField   nonuniform List<scalar> 
25
(
6.96274e-09
2.36016e-09
7.12939e-10
2.07356e-10
5.80694e-11
1.62927e-11
4.4754e-12
1.22114e-12
3.38127e-13
9.23316e-14
2.56816e-14
7.06611e-15
1.9543e-15
5.44688e-16
1.53816e-16
4.45924e-17
1.36898e-17
4.73402e-18
1.99996e-18
1.06821e-18
6.8345e-19
4.82339e-19
3.5539e-19
2.66453e-19
2.01192e-19
)
;

boundaryField
{
    wall
    {
        type            zeroGradient;
    }
    fuel
    {
        type            fixedValue;
        value           uniform 0;
    }
    outlet
    {
        type            inletOutlet;
        inletValue      nonuniform 0();
        value           nonuniform 0();
    }
    procBoundary0to1
    {
        type            processor;
        value           uniform 1.52969e-19;
    }
}


// ************************************************************************* //
