/*--------------------------------*- C++ -*----------------------------------*\
| =========                 |                                                 |
| \\      /  F ield         | OpenFOAM: The Open Source CFD Toolbox           |
|  \\    /   O peration     | Version:  dev                                   |
|   \\  /    A nd           | Web:      www.OpenFOAM.org                      |
|    \\/     M anipulation  |                                                 |
\*---------------------------------------------------------------------------*/
FoamFile
{
    version     2.0;
    format      ascii;
    class       volScalarField;
    location    "0.09";
    object      A2C2H22;
}
// * * * * * * * * * * * * * * * * * * * * * * * * * * * * * * * * * * * * * //

dimensions      [0 0 0 0 0 0 0];

internalField   nonuniform List<scalar> 
25
(
2.15744e-20
1.76696e-20
1.43873e-20
1.16937e-20
9.52618e-21
7.80732e-21
6.45649e-21
5.39787e-21
4.56501e-21
3.90288e-21
3.36706e-21
2.926e-21
2.55408e-21
2.23365e-21
1.95358e-21
1.70366e-21
1.48222e-21
1.28375e-21
1.10491e-21
9.45992e-22
8.04663e-22
6.79257e-22
5.69708e-22
4.73492e-22
3.9112e-22
)
;

boundaryField
{
    wall
    {
        type            zeroGradient;
    }
    fuel
    {
        type            fixedValue;
        value           nonuniform 0();
    }
    outlet
    {
        type            inletOutlet;
        inletValue      nonuniform 0();
        value           nonuniform 0();
    }
    procBoundary1to0
    {
        type            processor;
        value           uniform 2.60843e-20;
    }
    procBoundary1to2
    {
        type            processor;
        value           uniform 3.20454e-22;
    }
}


// ************************************************************************* //
