/*--------------------------------*- C++ -*----------------------------------*\
| =========                 |                                                 |
| \\      /  F ield         | OpenFOAM: The Open Source CFD Toolbox           |
|  \\    /   O peration     | Version:  dev                                   |
|   \\  /    A nd           | Web:      www.OpenFOAM.org                      |
|    \\/     M anipulation  |                                                 |
\*---------------------------------------------------------------------------*/
FoamFile
{
    version     2.0;
    format      ascii;
    class       volScalarField;
    location    "0.09";
    object      A4;
}
// * * * * * * * * * * * * * * * * * * * * * * * * * * * * * * * * * * * * * //

dimensions      [0 0 0 0 0 0 0];

internalField   nonuniform List<scalar> 
25
(
9.69734e-16
7.58885e-16
6.00962e-16
4.85422e-16
4.03881e-16
3.49785e-16
3.19243e-16
3.07351e-16
3.12057e-16
3.32225e-16
3.67502e-16
4.18232e-16
4.85391e-16
5.70463e-16
6.75032e-16
8.03425e-16
9.57728e-16
1.13985e-15
1.34554e-15
1.58436e-15
1.86168e-15
2.18345e-15
2.53143e-15
2.92121e-15
3.36417e-15
)
;

boundaryField
{
    wall
    {
        type            zeroGradient;
    }
    fuel
    {
        type            fixedValue;
        value           nonuniform 0();
    }
    outlet
    {
        type            inletOutlet;
        inletValue      nonuniform 0();
        value           nonuniform 0();
    }
    procBoundary1to0
    {
        type            processor;
        value           uniform 1.25081e-15;
    }
    procBoundary1to2
    {
        type            processor;
        value           uniform 3.84267e-15;
    }
}


// ************************************************************************* //
