/*--------------------------------*- C++ -*----------------------------------*\
| =========                 |                                                 |
| \\      /  F ield         | OpenFOAM: The Open Source CFD Toolbox           |
|  \\    /   O peration     | Version:  dev                                   |
|   \\  /    A nd           | Web:      www.OpenFOAM.org                      |
|    \\/     M anipulation  |                                                 |
\*---------------------------------------------------------------------------*/
FoamFile
{
    version     2.0;
    format      ascii;
    class       volScalarField;
    location    "0.09";
    object      l-C6H4;
}
// * * * * * * * * * * * * * * * * * * * * * * * * * * * * * * * * * * * * * //

dimensions      [0 0 0 0 0 0 0];

internalField   nonuniform List<scalar> 
25
(
6.42688e-12
6.41867e-12
6.37657e-12
6.31023e-12
6.23246e-12
6.15762e-12
6.10029e-12
6.07427e-12
6.09194e-12
6.16408e-12
6.29986e-12
6.50657e-12
6.79006e-12
7.15614e-12
7.60983e-12
8.16005e-12
8.80214e-12
9.54169e-12
1.03818e-11
1.13069e-11
1.23096e-11
1.3375e-11
1.44671e-11
1.55676e-11
1.66185e-11
)
;

boundaryField
{
    wall
    {
        type            zeroGradient;
    }
    fuel
    {
        type            fixedValue;
        value           nonuniform 0();
    }
    outlet
    {
        type            inletOutlet;
        inletValue      nonuniform 0();
        value           nonuniform 0();
    }
    procBoundary1to0
    {
        type            processor;
        value           uniform 6.39637e-12;
    }
    procBoundary1to2
    {
        type            processor;
        value           uniform 1.759e-11;
    }
}


// ************************************************************************* //
