/*--------------------------------*- C++ -*----------------------------------*\
| =========                 |                                                 |
| \\      /  F ield         | OpenFOAM: The Open Source CFD Toolbox           |
|  \\    /   O peration     | Version:  dev                                   |
|   \\  /    A nd           | Web:      www.OpenFOAM.org                      |
|    \\/     M anipulation  |                                                 |
\*---------------------------------------------------------------------------*/
FoamFile
{
    version     2.0;
    format      ascii;
    class       volScalarField;
    location    "0.09";
    object      n-C4H5;
}
// * * * * * * * * * * * * * * * * * * * * * * * * * * * * * * * * * * * * * //

dimensions      [0 0 0 0 0 0 0];

internalField   nonuniform List<scalar> 
25
(
5.63151e-17
3.42648e-17
2.09746e-17
1.29522e-17
8.12658e-18
5.2556e-18
3.6481e-18
2.80027e-18
2.47475e-18
2.54153e-18
2.94021e-18
3.65832e-18
4.71862e-18
6.16905e-18
8.07001e-18
1.05452e-17
1.36937e-17
1.7616e-17
2.22564e-17
2.78309e-17
3.44346e-17
4.21447e-17
5.04108e-17
5.94561e-17
6.93375e-17
)
;

boundaryField
{
    wall
    {
        type            zeroGradient;
    }
    fuel
    {
        type            fixedValue;
        value           nonuniform 0();
    }
    outlet
    {
        type            inletOutlet;
        inletValue      nonuniform 0();
        value           nonuniform 0();
    }
    procBoundary1to0
    {
        type            processor;
        value           uniform 9.07658e-17;
    }
    procBoundary1to2
    {
        type            processor;
        value           uniform 7.93322e-17;
    }
}


// ************************************************************************* //
