/*--------------------------------*- C++ -*----------------------------------*\
| =========                 |                                                 |
| \\      /  F ield         | OpenFOAM: The Open Source CFD Toolbox           |
|  \\    /   O peration     | Version:  dev                                   |
|   \\  /    A nd           | Web:      www.OpenFOAM.org                      |
|    \\/     M anipulation  |                                                 |
\*---------------------------------------------------------------------------*/
FoamFile
{
    version     2.0;
    format      ascii;
    class       volScalarField;
    location    "0.09";
    object      n-C6H5;
}
// * * * * * * * * * * * * * * * * * * * * * * * * * * * * * * * * * * * * * //

dimensions      [0 0 0 0 0 0 0];

internalField   nonuniform List<scalar> 
25
(
1.52969e-19
1.17621e-19
9.12047e-20
7.16404e-20
5.74889e-20
4.79413e-20
4.31237e-20
4.38253e-20
5.28967e-20
7.61065e-20
1.24026e-19
2.14844e-19
3.78171e-19
6.59381e-19
1.12339e-18
1.87697e-18
3.05578e-18
4.82509e-18
7.28476e-18
1.06795e-17
1.52237e-17
2.11341e-17
2.80779e-17
3.62872e-17
4.58508e-17
)
;

boundaryField
{
    wall
    {
        type            zeroGradient;
    }
    fuel
    {
        type            fixedValue;
        value           nonuniform 0();
    }
    outlet
    {
        type            inletOutlet;
        inletValue      nonuniform 0();
        value           nonuniform 0();
    }
    procBoundary1to0
    {
        type            processor;
        value           uniform 2.01192e-19;
    }
    procBoundary1to2
    {
        type            processor;
        value           uniform 5.59918e-17;
    }
}


// ************************************************************************* //
