/*--------------------------------*- C++ -*----------------------------------*\
| =========                 |                                                 |
| \\      /  F ield         | OpenFOAM: The Open Source CFD Toolbox           |
|  \\    /   O peration     | Version:  dev                                   |
|   \\  /    A nd           | Web:      www.OpenFOAM.org                      |
|    \\/     M anipulation  |                                                 |
\*---------------------------------------------------------------------------*/
FoamFile
{
    version     2.0;
    format      ascii;
    class       volScalarField;
    location    "0.01";
    object      PC3H4;
}
// * * * * * * * * * * * * * * * * * * * * * * * * * * * * * * * * * * * * * //

dimensions      [0 0 0 0 0 0 0];

internalField   nonuniform List<scalar> 
13
(
3.03852e-10
1.73325e-10
9.72011e-11
5.79306e-11
3.29232e-11
1.80475e-11
9.66848e-12
5.14968e-12
2.75535e-12
1.4743e-12
7.8022e-13
4.06643e-13
2.13775e-13
)
;

boundaryField
{
    wall
    {
        type            zeroGradient;
    }
    fuel
    {
        type            fixedValue;
        value           nonuniform 0();
    }
    outlet
    {
        type            inletOutlet;
        inletValue      nonuniform 0();
        value           nonuniform 0();
    }
    procBoundary5to4
    {
        type            processor;
        value           uniform 5.34609e-10;
    }
    procBoundary5to6
    {
        type            processor;
        value           uniform 1.16337e-13;
    }
}


// ************************************************************************* //
