/*--------------------------------*- C++ -*----------------------------------*\
| =========                 |                                                 |
| \\      /  F ield         | OpenFOAM: The Open Source CFD Toolbox           |
|  \\    /   O peration     | Version:  dev                                   |
|   \\  /    A nd           | Web:      www.OpenFOAM.org                      |
|    \\/     M anipulation  |                                                 |
\*---------------------------------------------------------------------------*/
FoamFile
{
    version     2.0;
    format      ascii;
    class       volVectorField;
    location    "0.01";
    object      U;
}
// * * * * * * * * * * * * * * * * * * * * * * * * * * * * * * * * * * * * * //

dimensions      [0 1 -1 0 0 0 0];

internalField   nonuniform List<vector> 
13
(
(1.22324e-15 -1.22324e-15 0.23081)
(8.81769e-16 -8.81769e-16 0.231222)
(6.37891e-16 -6.37891e-16 0.231324)
(4.5051e-16 -4.5051e-16 0.231397)
(3.22067e-16 -3.22067e-16 0.231562)
(2.23403e-16 -2.23403e-16 0.231779)
(1.54564e-16 -1.54564e-16 0.231918)
(1.05511e-16 -1.05511e-16 0.231987)
(7.21527e-17 -7.21527e-17 0.232035)
(4.89159e-17 -4.89159e-17 0.232112)
(3.28529e-17 -3.28529e-17 0.232206)
(2.14025e-17 -2.14025e-17 0.232307)
(1.46028e-17 -1.46028e-17 0.23228)
)
;

boundaryField
{
    wall
    {
        type            zeroGradient;
    }
    fuel
    {
        type            fixedValue;
        value           nonuniform 0();
    }
    outlet
    {
        type            pressureInletOutletVelocity;
        value           nonuniform 0();
    }
    procBoundary5to4
    {
        type            processor;
        value           uniform (1.67836e-15 -1.67836e-15 0.23016);
    }
    procBoundary5to6
    {
        type            processor;
        value           uniform (9.45073e-18 -9.45073e-18 0.232274);
    }
}


// ************************************************************************* //
