/*--------------------------------*- C++ -*----------------------------------*\
| =========                 |                                                 |
| \\      /  F ield         | OpenFOAM: The Open Source CFD Toolbox           |
|  \\    /   O peration     | Version:  dev                                   |
|   \\  /    A nd           | Web:      www.OpenFOAM.org                      |
|    \\/     M anipulation  |                                                 |
\*---------------------------------------------------------------------------*/
FoamFile
{
    version     2.0;
    format      ascii;
    class       volScalarField;
    location    "0.04";
    object      A2C2HB*;
}
// * * * * * * * * * * * * * * * * * * * * * * * * * * * * * * * * * * * * * //

dimensions      [0 0 0 0 0 0 0];

internalField   nonuniform List<scalar> 
250
(
1.58551e-09
1.58355e-09
1.58513e-09
1.58388e-09
1.58479e-09
1.58454e-09
1.58543e-09
1.59232e-09
1.65588e-09
2.2081e-09
1.16137e-11
1.08198e-09
1.08126e-09
1.08185e-09
1.08145e-09
1.08165e-09
1.08144e-09
1.08255e-09
1.09081e-09
1.17347e-09
2.10566e-09
5.30329e-12
5.62709e-10
5.62336e-10
5.62649e-10
5.62324e-10
5.62578e-10
5.62393e-10
5.63201e-10
5.69481e-10
6.31591e-10
1.40413e-09
1.616e-12
2.91271e-10
2.91052e-10
2.91274e-10
2.90998e-10
2.91246e-10
2.91083e-10
2.91638e-10
2.96189e-10
3.39469e-10
9.03118e-10
6.56896e-13
1.61705e-10
1.61566e-10
1.61725e-10
1.61517e-10
1.61702e-10
1.61583e-10
1.6192e-10
1.64653e-10
1.96204e-10
6.01681e-10
3.59884e-13
9.67617e-11
9.66814e-11
9.68119e-11
9.66264e-11
9.68168e-11
9.67334e-11
9.71653e-11
1.00261e-10
1.24195e-10
4.20012e-10
2.3904e-13
6.35195e-11
6.34656e-11
6.35601e-11
6.3422e-11
6.35615e-11
6.35118e-11
6.38778e-11
6.64681e-11
8.55437e-11
3.05791e-10
1.86788e-13
4.45901e-11
4.45489e-11
4.46185e-11
4.45099e-11
4.46113e-11
4.45874e-11
4.5002e-11
4.73734e-11
6.31171e-11
2.30312e-10
2.3373e-13
3.29104e-11
3.28925e-11
3.29415e-11
3.28597e-11
3.29436e-11
3.29374e-11
3.34845e-11
3.5107e-11
4.83079e-11
1.7838e-10
3.15144e-13
2.53017e-11
2.52911e-11
2.5326e-11
2.52645e-11
2.53274e-11
2.53306e-11
2.51702e-11
2.64955e-11
3.74451e-11
1.4139e-10
4.72296e-13
2.00229e-11
2.00544e-11
1.99947e-11
2.00603e-11
2.00765e-11
2.01193e-11
2.12733e-11
3.05257e-11
1.14154e-10
7.43627e-13
1.58619e-11
1.58835e-11
1.58384e-11
1.58909e-11
1.59128e-11
1.60207e-11
1.70926e-11
2.50287e-11
9.25337e-11
1.09828e-12
1.28022e-11
1.2817e-11
1.27823e-11
1.28258e-11
1.28508e-11
1.29732e-11
1.39439e-11
2.04624e-11
7.28046e-11
1.52921e-12
1.04935e-11
1.05036e-11
1.04762e-11
1.05135e-11
1.05399e-11
1.06584e-11
1.15429e-11
1.68648e-11
5.93802e-11
2.06382e-12
8.71324e-12
8.72024e-12
8.69805e-12
8.73117e-12
8.75768e-12
8.86768e-12
9.67193e-12
1.39936e-11
4.85109e-11
2.66151e-12
7.31455e-12
7.31967e-12
7.30107e-12
7.33137e-12
7.35707e-12
7.45869e-12
8.1866e-12
1.16826e-11
3.9629e-11
3.27413e-12
6.19747e-12
6.20155e-12
6.18547e-12
6.21381e-12
6.23808e-12
6.33267e-12
6.98847e-12
9.81169e-12
3.2391e-11
3.87669e-12
5.29231e-12
5.29591e-12
5.28164e-12
5.30853e-12
5.33096e-12
5.42001e-12
6.0086e-12
8.2894e-12
2.61812e-11
4.46427e-12
4.54938e-12
4.55283e-12
4.53993e-12
4.56574e-12
4.586e-12
4.67098e-12
5.1976e-12
7.04658e-12
2.14002e-11
5.03974e-12
3.93235e-12
3.93584e-12
3.92409e-12
3.94944e-12
3.96705e-12
4.04943e-12
4.51925e-12
6.02533e-12
1.68888e-11
5.58336e-12
3.41392e-12
3.41751e-12
3.40682e-12
3.43375e-12
3.44777e-12
3.5285e-12
3.9463e-12
5.18619e-12
1.37072e-11
6.07612e-12
2.97246e-12
2.97609e-12
2.96654e-12
3.00099e-12
3.01117e-12
3.08769e-12
3.45758e-12
4.49284e-12
1.12067e-11
6.48069e-12
2.63455e-12
2.63811e-12
2.62947e-12
2.63777e-12
2.65265e-12
2.71032e-12
3.03561e-12
3.91589e-12
9.25486e-12
6.76798e-12
2.34304e-12
2.34805e-12
2.33832e-12
2.35512e-12
2.36793e-12
2.41838e-12
2.71303e-12
3.42964e-12
7.73689e-12
6.92606e-12
)
;

boundaryField
{
    fuel
    {
        type            fixedValue;
        value           uniform 0;
    }
    wall
    {
        type            zeroGradient;
    }
    outlet
    {
        type            zeroGradient;
    }
    frontAndBack
    {
        type            empty;
    }
    procBoundary3to0
    {
        type            processor;
        value           nonuniform List<scalar> 10(2.09594e-12 2.10088e-12 2.09201e-12 2.11004e-12 2.12043e-12 2.16717e-12 2.41268e-12 3.05509e-12 6.56263e-12 6.96295e-12);
    }
    procBoundary3to2
    {
        type            processor;
        value           nonuniform List<scalar> 
25
(
1.5848e-09
1.0815e-09
5.62445e-10
2.91124e-10
1.61614e-10
9.67464e-11
6.35208e-11
4.45733e-11
3.29283e-11
2.53243e-11
2.00224e-11
2.00224e-11
1.58548e-11
1.27904e-11
1.04786e-11
8.69651e-12
7.29702e-12
6.17993e-12
5.27535e-12
4.53343e-12
3.91775e-12
3.4009e-12
2.96118e-12
2.62461e-12
2.33341e-12
)
;
    }
}


// ************************************************************************* //
