/*--------------------------------*- C++ -*----------------------------------*\
| =========                 |                                                 |
| \\      /  F ield         | OpenFOAM: The Open Source CFD Toolbox           |
|  \\    /   O peration     | Version:  dev                                   |
|   \\  /    A nd           | Web:      www.OpenFOAM.org                      |
|    \\/     M anipulation  |                                                 |
\*---------------------------------------------------------------------------*/
FoamFile
{
    version     2.0;
    format      ascii;
    class       volScalarField;
    location    "0.04";
    object      A2C2HA;
}
// * * * * * * * * * * * * * * * * * * * * * * * * * * * * * * * * * * * * * //

dimensions      [0 0 0 0 0 0 0];

internalField   nonuniform List<scalar> 
25
(
6.57137e-12
6.42636e-12
6.26289e-12
6.08614e-12
5.90627e-12
5.73705e-12
5.57606e-12
5.42761e-12
5.29435e-12
5.17701e-12
5.07426e-12
4.98254e-12
4.89592e-12
4.80691e-12
4.70564e-12
4.58131e-12
4.42261e-12
4.21837e-12
3.9578e-12
3.63032e-12
3.22469e-12
2.73003e-12
2.13869e-12
1.46332e-12
7.95376e-13
)
;

boundaryField
{
    wall
    {
        type            zeroGradient;
    }
    fuel
    {
        type            fixedValue;
        value           nonuniform 0();
    }
    outlet
    {
        type            inletOutlet;
        inletValue      uniform 0;
        value           uniform 7.95376e-13;
    }
    procBoundary3to2
    {
        type            processor;
        value           uniform 6.69361e-12;
    }
}


// ************************************************************************* //
