/*--------------------------------*- C++ -*----------------------------------*\
| =========                 |                                                 |
| \\      /  F ield         | OpenFOAM: The Open Source CFD Toolbox           |
|  \\    /   O peration     | Version:  dev                                   |
|   \\  /    A nd           | Web:      www.OpenFOAM.org                      |
|    \\/     M anipulation  |                                                 |
\*---------------------------------------------------------------------------*/
FoamFile
{
    version     2.0;
    format      ascii;
    class       volScalarField;
    location    "0.04";
    object      A4-;
}
// * * * * * * * * * * * * * * * * * * * * * * * * * * * * * * * * * * * * * //

dimensions      [0 0 0 0 0 0 0];

internalField   nonuniform List<scalar> 
250
(
1.40243e-09
1.4019e-09
1.40243e-09
1.40164e-09
1.4024e-09
1.40259e-09
1.40471e-09
1.42261e-09
1.58654e-09
2.9009e-09
1.76853e-11
2.40048e-09
2.40038e-09
2.40074e-09
2.40019e-09
2.40068e-09
2.40119e-09
2.40575e-09
2.44379e-09
2.78602e-09
5.53354e-09
2.07727e-11
2.89568e-09
2.89574e-09
2.89595e-09
2.89512e-09
2.89605e-09
2.89688e-09
2.9036e-09
2.95831e-09
3.43039e-09
6.90124e-09
1.88365e-11
3.06024e-09
3.06037e-09
3.06074e-09
3.05949e-09
3.06102e-09
3.06183e-09
3.07063e-09
3.1374e-09
3.67597e-09
7.12447e-09
1.68002e-11
3.04993e-09
3.05014e-09
3.05069e-09
3.04908e-09
3.05117e-09
3.05191e-09
3.06247e-09
3.13739e-09
3.69117e-09
6.6764e-09
1.39322e-11
2.96029e-09
2.96064e-09
2.96136e-09
2.95945e-09
2.96213e-09
2.96288e-09
2.97557e-09
3.05914e-09
3.59609e-09
5.96248e-09
1.08476e-11
2.84578e-09
2.84628e-09
2.84708e-09
2.84502e-09
2.84806e-09
2.84896e-09
2.86358e-09
2.95313e-09
3.45697e-09
5.21562e-09
8.4617e-12
2.72313e-09
2.72377e-09
2.7246e-09
2.72243e-09
2.72572e-09
2.72689e-09
2.74444e-09
2.8396e-09
3.30363e-09
4.5338e-09
9.20176e-12
2.59758e-09
2.59858e-09
2.59938e-09
2.59719e-09
2.60082e-09
2.60232e-09
2.6241e-09
2.71656e-09
3.13791e-09
3.95724e-09
1.13861e-11
2.47154e-09
2.47275e-09
2.47354e-09
2.47134e-09
2.47516e-09
2.47699e-09
2.4877e-09
2.58044e-09
2.95655e-09
3.49011e-09
1.73075e-11
2.34446e-09
2.34542e-09
2.34282e-09
2.34735e-09
2.34971e-09
2.36554e-09
2.45983e-09
2.79858e-09
3.1194e-09
2.99295e-11
2.19953e-09
2.20046e-09
2.19785e-09
2.20264e-09
2.20544e-09
2.22366e-09
2.32259e-09
2.63457e-09
2.8136e-09
4.96882e-11
2.05334e-09
2.05424e-09
2.0516e-09
2.05666e-09
2.05987e-09
2.07933e-09
2.1813e-09
2.46242e-09
2.52981e-09
7.79432e-11
1.90771e-09
1.90859e-09
1.90592e-09
1.91125e-09
1.91481e-09
1.93492e-09
2.0395e-09
2.29536e-09
2.33757e-09
1.16928e-10
1.76453e-09
1.76543e-09
1.7627e-09
1.7683e-09
1.77213e-09
1.79262e-09
1.89892e-09
2.13459e-09
2.18298e-09
1.66162e-10
1.62554e-09
1.62647e-09
1.62369e-09
1.62954e-09
1.63355e-09
1.65427e-09
1.76123e-09
1.98097e-09
2.05629e-09
2.23798e-10
1.49217e-09
1.49316e-09
1.49034e-09
1.4964e-09
1.50049e-09
1.52136e-09
1.62786e-09
1.83501e-09
1.95049e-09
2.88793e-10
1.36547e-09
1.36654e-09
1.36368e-09
1.36992e-09
1.37401e-09
1.39499e-09
1.49991e-09
1.69691e-09
1.85382e-09
3.61749e-10
1.24611e-09
1.24725e-09
1.24439e-09
1.25077e-09
1.25474e-09
1.27588e-09
1.37818e-09
1.56659e-09
1.77136e-09
4.44261e-10
1.13432e-09
1.13555e-09
1.13271e-09
1.13931e-09
1.143e-09
1.16439e-09
1.2631e-09
1.44372e-09
1.67904e-09
5.36931e-10
1.02999e-09
1.0313e-09
1.02852e-09
1.03576e-09
1.03888e-09
1.06055e-09
1.15479e-09
1.32805e-09
1.601e-09
6.38311e-10
9.32531e-10
9.33892e-10
9.31236e-10
9.40476e-10
9.42921e-10
9.64054e-10
1.05302e-09
1.21913e-09
1.52418e-09
7.43621e-10
8.51512e-10
8.52895e-10
8.50344e-10
8.53518e-10
8.57236e-10
8.74187e-10
9.5713e-10
1.1165e-09
1.44676e-09
8.45497e-10
7.76077e-10
7.77888e-10
7.74925e-10
7.80353e-10
7.83679e-10
7.99037e-10
8.77707e-10
1.01918e-09
1.36764e-09
9.35366e-10
)
;

boundaryField
{
    fuel
    {
        type            fixedValue;
        value           uniform 0;
    }
    wall
    {
        type            zeroGradient;
    }
    outlet
    {
        type            zeroGradient;
    }
    frontAndBack
    {
        type            empty;
    }
    procBoundary3to0
    {
        type            processor;
        value           nonuniform List<scalar> 10(7.07183e-10 7.0904e-10 7.06164e-10 7.12068e-10 7.14862e-10 7.29388e-10 7.979e-10 9.35299e-10 1.28617e-09 1.00498e-09);
    }
    procBoundary3to2
    {
        type            processor;
        value           nonuniform List<scalar> 
25
(
1.40228e-09
2.40032e-09
2.89567e-09
3.06045e-09
3.05047e-09
2.96139e-09
2.84744e-09
2.72515e-09
2.6006e-09
2.47525e-09
2.34272e-09
2.34272e-09
2.19744e-09
2.05091e-09
1.90497e-09
1.76154e-09
1.62236e-09
1.48888e-09
1.36216e-09
1.24284e-09
1.13119e-09
1.02706e-09
9.29856e-10
8.49039e-10
7.73552e-10
)
;
    }
}


// ************************************************************************* //
