/*--------------------------------*- C++ -*----------------------------------*\
| =========                 |                                                 |
| \\      /  F ield         | OpenFOAM: The Open Source CFD Toolbox           |
|  \\    /   O peration     | Version:  dev                                   |
|   \\  /    A nd           | Web:      www.OpenFOAM.org                      |
|    \\/     M anipulation  |                                                 |
\*---------------------------------------------------------------------------*/
FoamFile
{
    version     2.0;
    format      ascii;
    class       volScalarField;
    location    "0.04";
    object      C6H5OH;
}
// * * * * * * * * * * * * * * * * * * * * * * * * * * * * * * * * * * * * * //

dimensions      [0 0 0 0 0 0 0];

internalField   nonuniform List<scalar> 
25
(
1.53194e-08
1.69461e-08
1.8689e-08
2.05438e-08
2.24499e-08
2.42958e-08
2.61305e-08
2.79154e-08
2.96108e-08
3.11757e-08
3.25668e-08
3.37378e-08
3.46411e-08
3.52211e-08
3.54289e-08
3.52136e-08
3.45261e-08
3.33174e-08
3.15374e-08
2.9128e-08
2.60167e-08
2.21257e-08
1.7397e-08
1.19364e-08
6.49965e-09
)
;

boundaryField
{
    wall
    {
        type            zeroGradient;
    }
    fuel
    {
        type            fixedValue;
        value           nonuniform 0();
    }
    outlet
    {
        type            inletOutlet;
        inletValue      uniform 0;
        value           uniform 6.49965e-09;
    }
    procBoundary3to2
    {
        type            processor;
        value           uniform 1.38e-08;
    }
}


// ************************************************************************* //
