/*--------------------------------*- C++ -*----------------------------------*\
| =========                 |                                                 |
| \\      /  F ield         | OpenFOAM: The Open Source CFD Toolbox           |
|  \\    /   O peration     | Version:  dev                                   |
|   \\  /    A nd           | Web:      www.OpenFOAM.org                      |
|    \\/     M anipulation  |                                                 |
\*---------------------------------------------------------------------------*/
FoamFile
{
    version     2.0;
    format      ascii;
    class       volScalarField;
    location    "0.04";
    object      CO;
}
// * * * * * * * * * * * * * * * * * * * * * * * * * * * * * * * * * * * * * //

dimensions      [0 0 0 0 0 0 0];

internalField   nonuniform List<scalar> 
250
(
0.134051
0.134053
0.134052
0.13405
0.134054
0.134052
0.134049
0.13401
0.133659
0.130247
0.0173621
0.156695
0.156698
0.156696
0.156698
0.156697
0.156697
0.15669
0.156632
0.156142
0.1518
0.047102
0.163517
0.163519
0.163517
0.16352
0.163517
0.163518
0.163507
0.163419
0.162765
0.157324
0.0762162
0.166549
0.166551
0.166548
0.166553
0.166548
0.166549
0.166533
0.166411
0.165598
0.159273
0.101434
0.168391
0.168392
0.168389
0.168394
0.168388
0.168389
0.168368
0.168218
0.167255
0.160368
0.121524
0.169802
0.169802
0.169798
0.169806
0.169796
0.169797
0.169763
0.169541
0.168458
0.161285
0.13668
0.170961
0.170961
0.170956
0.170965
0.170954
0.170953
0.170909
0.170636
0.169454
0.162199
0.147714
0.172003
0.172002
0.171997
0.172008
0.171995
0.171993
0.171928
0.171599
0.170344
0.163142
0.155575
0.172974
0.172971
0.172966
0.172977
0.172963
0.172958
0.172863
0.172539
0.171226
0.164121
0.161101
0.173885
0.173881
0.173876
0.173887
0.173871
0.173865
0.173849
0.173503
0.172156
0.165129
0.164975
0.174755
0.174749
0.174763
0.174743
0.174733
0.174679
0.174305
0.172947
0.166157
0.167693
0.175693
0.175688
0.175702
0.17568
0.175667
0.175594
0.175169
0.173762
0.167246
0.169593
0.1766
0.176596
0.17661
0.176587
0.176571
0.176485
0.17602
0.174617
0.168527
0.170919
0.177475
0.177471
0.177486
0.177461
0.177442
0.177348
0.176845
0.175452
0.169599
0.171845
0.178315
0.178311
0.178326
0.178299
0.178279
0.178178
0.177643
0.176263
0.170641
0.172501
0.179117
0.179113
0.179128
0.179099
0.179078
0.17897
0.178411
0.177048
0.171646
0.172983
0.179877
0.179873
0.179889
0.179858
0.179835
0.179722
0.179145
0.177803
0.172604
0.173364
0.180592
0.180588
0.180604
0.180572
0.180549
0.18043
0.179844
0.178524
0.173566
0.173695
0.18126
0.181256
0.181272
0.18124
0.181216
0.181092
0.180504
0.179208
0.174436
0.174011
0.181879
0.181875
0.18189
0.181857
0.181834
0.181704
0.181122
0.179852
0.175408
0.174338
0.182445
0.182442
0.182457
0.182421
0.1824
0.182265
0.181695
0.180453
0.176214
0.174682
0.18296
0.182957
0.18297
0.182925
0.182907
0.182771
0.18222
0.181007
0.176965
0.175051
0.183366
0.183364
0.183375
0.183362
0.183337
0.183222
0.182697
0.181509
0.177662
0.175442
0.183715
0.183713
0.183725
0.183702
0.183679
0.183571
0.183067
0.181958
0.178301
0.175851
)
;

boundaryField
{
    fuel
    {
        type            fixedValue;
        value           uniform 0;
    }
    wall
    {
        type            zeroGradient;
    }
    outlet
    {
        type            zeroGradient;
    }
    frontAndBack
    {
        type            empty;
    }
    procBoundary3to0
    {
        type            processor;
        value           nonuniform List<scalar> 10(0.184 0.183999 0.184008 0.183986 0.183964 0.183861 0.183406 0.182312 0.178881 0.17627);
    }
    procBoundary3to2
    {
        type            processor;
        value           nonuniform List<scalar> 
25
(
0.134053
0.156697
0.163518
0.16655
0.16839
0.169798
0.170955
0.171997
0.172962
0.17387
0.174761
0.174761
0.175702
0.176612
0.177489
0.178331
0.179134
0.179895
0.180611
0.181279
0.181897
0.182463
0.182976
0.183381
0.18373
)
;
    }
}


// ************************************************************************* //
