/*--------------------------------*- C++ -*----------------------------------*\
| =========                 |                                                 |
| \\      /  F ield         | OpenFOAM: The Open Source CFD Toolbox           |
|  \\    /   O peration     | Version:  dev                                   |
|   \\  /    A nd           | Web:      www.OpenFOAM.org                      |
|    \\/     M anipulation  |                                                 |
\*---------------------------------------------------------------------------*/
FoamFile
{
    version     2.0;
    format      ascii;
    class       volScalarField;
    location    "0.04";
    object      H2O2;
}
// * * * * * * * * * * * * * * * * * * * * * * * * * * * * * * * * * * * * * //

dimensions      [0 0 0 0 0 0 0];

internalField   nonuniform List<scalar> 
250
(
3.80506e-08
3.82123e-08
3.80907e-08
3.80726e-08
3.82203e-08
3.82162e-08
3.82403e-08
3.81546e-08
3.90192e-08
9.70188e-08
4.56784e-05
1.57979e-08
1.58307e-08
1.58073e-08
1.58038e-08
1.58312e-08
1.5832e-08
1.5839e-08
1.58405e-08
1.63564e-08
1.52331e-07
0.000109386
6.33972e-09
6.34678e-09
6.34196e-09
6.34189e-09
6.34625e-09
6.34829e-09
6.34944e-09
6.35852e-09
6.84323e-09
2.09594e-07
0.000150274
2.60489e-09
2.60647e-09
2.60543e-09
2.60589e-09
2.60603e-09
2.60769e-09
2.6075e-09
2.61571e-09
3.14922e-09
2.55102e-07
0.000176
1.13938e-09
1.13974e-09
1.13949e-09
1.13985e-09
1.13947e-09
1.14053e-09
1.14023e-09
1.1492e-09
1.73299e-09
2.95387e-07
0.000197993
5.5106e-10
5.51133e-10
5.51068e-10
5.51284e-10
5.50988e-10
5.5159e-10
5.51343e-10
5.47828e-10
1.20898e-09
3.37449e-07
0.000225016
3.03971e-10
3.03976e-10
3.03955e-10
3.04076e-10
3.03903e-10
3.04239e-10
3.0409e-10
3.01589e-10
9.73772e-10
3.57219e-07
0.000246673
1.94241e-10
1.94228e-10
1.94214e-10
1.94288e-10
1.94187e-10
1.94435e-10
1.94469e-10
1.93784e-10
6.80427e-10
2.48538e-07
0.000156164
1.41502e-10
1.41481e-10
1.415e-10
1.41508e-10
1.41479e-10
1.41622e-10
1.41465e-10
1.39559e-10
3.54505e-10
8.63505e-08
2.96287e-05
1.12947e-10
1.12879e-10
1.12896e-10
1.12891e-10
1.12884e-10
1.12972e-10
1.12859e-10
1.11857e-10
1.92973e-10
2.4519e-08
5.30924e-06
9.91308e-11
9.91497e-11
9.91365e-11
9.91417e-11
9.91845e-11
9.90424e-11
9.68801e-11
1.21854e-10
6.61421e-09
1.09142e-06
9.06265e-11
9.06487e-11
9.0626e-11
9.06389e-11
9.06702e-11
9.05716e-11
8.89877e-11
9.34238e-11
1.97353e-09
2.89498e-07
8.48706e-11
8.48966e-11
8.48674e-11
8.4888e-11
8.48978e-11
8.47572e-11
8.32834e-11
8.12076e-11
7.72393e-10
1.09518e-07
8.07089e-11
8.07393e-11
8.07036e-11
8.07315e-11
8.07299e-11
8.0562e-11
7.91176e-11
7.45149e-11
4.12145e-10
5.61552e-08
7.73511e-11
7.73862e-11
7.73442e-11
7.73793e-11
7.73722e-11
7.719e-11
7.5764e-11
7.04996e-11
2.84563e-10
3.39114e-08
7.43912e-11
7.44316e-11
7.43831e-11
7.44256e-11
7.44164e-11
7.42293e-11
7.28272e-11
6.70133e-11
2.15959e-10
2.18965e-08
7.16108e-11
7.16569e-11
7.16017e-11
7.16521e-11
7.16428e-11
7.14577e-11
7.00933e-11
6.39471e-11
1.6691e-10
1.44756e-08
6.88837e-11
6.89362e-11
6.88738e-11
6.89325e-11
6.89246e-11
6.8747e-11
6.74377e-11
6.11767e-11
1.3096e-10
9.62402e-09
6.61295e-11
6.61888e-11
6.61189e-11
6.61866e-11
6.61813e-11
6.60153e-11
6.47789e-11
5.85882e-11
1.06273e-10
6.38696e-09
6.32897e-11
6.33565e-11
6.32788e-11
6.33557e-11
6.33541e-11
6.32035e-11
6.20568e-11
5.60888e-11
8.57351e-11
4.21971e-09
6.03156e-11
6.03902e-11
6.03047e-11
6.03912e-11
6.03943e-11
6.02614e-11
5.92193e-11
5.3617e-11
7.01236e-11
2.77522e-09
5.71606e-11
5.72432e-11
5.71502e-11
5.72459e-11
5.72551e-11
5.71409e-11
5.62161e-11
5.11194e-11
5.82127e-11
1.81958e-09
5.41877e-11
5.42791e-11
5.41769e-11
5.42838e-11
5.4297e-11
5.42063e-11
5.33887e-11
4.85494e-11
4.99737e-11
1.19209e-09
5.07764e-11
5.08835e-11
5.07666e-11
5.089e-11
5.09109e-11
5.08446e-11
5.02444e-11
4.58418e-11
4.33652e-11
7.82593e-10
)
;

boundaryField
{
    fuel
    {
        type            fixedValue;
        value           uniform 0;
    }
    wall
    {
        type            zeroGradient;
    }
    outlet
    {
        type            zeroGradient;
    }
    frontAndBack
    {
        type            empty;
    }
    procBoundary3to0
    {
        type            processor;
        value           nonuniform List<scalar> 10(4.74321e-11 4.75497e-11 4.74225e-11 4.75587e-11 4.75839e-11 4.75405e-11 4.7073e-11 4.29374e-11 3.84948e-11 5.15792e-10);
    }
    procBoundary3to2
    {
        type            processor;
        value           nonuniform List<scalar> 
25
(
3.82073e-08
1.58284e-08
6.34573e-09
2.60602e-09
1.13957e-09
5.5108e-10
3.03968e-10
1.9423e-10
1.41505e-10
1.12902e-10
9.92478e-11
9.92478e-11
9.06768e-11
8.48931e-11
8.07205e-11
7.73585e-11
7.43973e-11
7.16167e-11
6.889e-11
6.61363e-11
6.32971e-11
6.03236e-11
5.71691e-11
5.41966e-11
5.07858e-11
)
;
    }
}


// ************************************************************************* //
