/*--------------------------------*- C++ -*----------------------------------*\
| =========                 |                                                 |
| \\      /  F ield         | OpenFOAM: The Open Source CFD Toolbox           |
|  \\    /   O peration     | Version:  dev                                   |
|   \\  /    A nd           | Web:      www.OpenFOAM.org                      |
|    \\/     M anipulation  |                                                 |
\*---------------------------------------------------------------------------*/
FoamFile
{
    version     2.0;
    format      ascii;
    class       volScalarField;
    location    "0.04";
    object      HO2;
}
// * * * * * * * * * * * * * * * * * * * * * * * * * * * * * * * * * * * * * //

dimensions      [0 0 0 0 0 0 0];

internalField   nonuniform List<scalar> 
1989
(
8.78352e-13
8.7747e-13
8.76704e-13
8.76013e-13
8.75325e-13
8.74707e-13
8.74096e-13
8.73551e-13
8.73023e-13
8.72557e-13
8.72123e-13
8.71763e-13
8.71471e-13
8.71303e-13
8.71332e-13
8.71556e-13
8.71902e-13
8.72313e-13
8.72792e-13
8.73299e-13
8.73866e-13
8.74447e-13
8.7509e-13
8.75738e-13
8.76452e-13
8.77165e-13
8.77927e-13
8.78606e-13
8.79497e-13
8.80294e-13
8.81148e-13
8.82152e-13
8.82877e-13
8.83909e-13
8.84324e-13
8.85038e-13
8.85153e-13
8.84636e-13
8.83201e-13
8.97445e-13
9.00317e-13
9.03142e-13
9.04373e-13
9.04702e-13
9.05112e-13
9.04398e-13
9.03981e-13
9.02969e-13
9.01974e-13
9.00674e-13
8.97415e-13
8.96516e-13
8.957e-13
8.94983e-13
8.94227e-13
8.93569e-13
8.92888e-13
8.92298e-13
8.91705e-13
8.91196e-13
8.90708e-13
8.90311e-13
8.89982e-13
8.89796e-13
8.89829e-13
8.90078e-13
8.90468e-13
8.90922e-13
8.9146e-13
8.92016e-13
8.92652e-13
8.93282e-13
8.93998e-13
8.9469e-13
8.95475e-13
8.96216e-13
8.9703e-13
8.9771e-13
8.98596e-13
8.9938e-13
9.00124e-13
9.01005e-13
9.01345e-13
9.02006e-13
9.01582e-13
9.01229e-13
9.0001e-13
8.97181e-13
8.94334e-13
9.24165e-13
9.28395e-13
9.33404e-13
9.3589e-13
9.37187e-13
9.38371e-13
9.37956e-13
9.37879e-13
9.36941e-13
9.36003e-13
9.34624e-13
9.31357e-13
9.30434e-13
9.29555e-13
9.28798e-13
9.27963e-13
9.27254e-13
9.26494e-13
9.25849e-13
9.25184e-13
9.24624e-13
9.24076e-13
9.23636e-13
9.23266e-13
9.2306e-13
9.23097e-13
9.23376e-13
9.23814e-13
9.24316e-13
9.2492e-13
9.25533e-13
9.26245e-13
9.26933e-13
9.27733e-13
9.2848e-13
9.29347e-13
9.30131e-13
9.3101e-13
9.31706e-13
9.3261e-13
9.33398e-13
9.34061e-13
9.34855e-13
9.34848e-13
9.35204e-13
9.34002e-13
9.32675e-13
9.30203e-13
9.25187e-13
9.20975e-13
9.65874e-13
9.71395e-13
9.78534e-13
9.82196e-13
9.84374e-13
9.86285e-13
9.86108e-13
9.86337e-13
9.85439e-13
9.84533e-13
9.83079e-13
9.79948e-13
9.78993e-13
9.78035e-13
9.77226e-13
9.76304e-13
9.75539e-13
9.74692e-13
9.73988e-13
9.73244e-13
9.72627e-13
9.72014e-13
9.71527e-13
9.71112e-13
9.70883e-13
9.70924e-13
9.71235e-13
9.71727e-13
9.72283e-13
9.7296e-13
9.73634e-13
9.74431e-13
9.75182e-13
9.76074e-13
9.7688e-13
9.77837e-13
9.78676e-13
9.79636e-13
9.80363e-13
9.81309e-13
9.82118e-13
9.82724e-13
9.83467e-13
9.83146e-13
9.83258e-13
9.8132e-13
9.79113e-13
9.75455e-13
9.68302e-13
9.62794e-13
1.02314e-12
1.03004e-12
1.03951e-12
1.0444e-12
1.04748e-12
1.05012e-12
1.05017e-12
1.0507e-12
1.04982e-12
1.04894e-12
1.0474e-12
1.04444e-12
1.04344e-12
1.04239e-12
1.04151e-12
1.04048e-12
1.03964e-12
1.03869e-12
1.03791e-12
1.03707e-12
1.03639e-12
1.0357e-12
1.03516e-12
1.03469e-12
1.03443e-12
1.03448e-12
1.03483e-12
1.03538e-12
1.036e-12
1.03676e-12
1.03751e-12
1.0384e-12
1.03924e-12
1.04023e-12
1.04112e-12
1.04219e-12
1.0431e-12
1.04416e-12
1.04494e-12
1.04594e-12
1.04678e-12
1.04735e-12
1.04806e-12
1.04743e-12
1.04731e-12
1.04463e-12
1.04152e-12
1.03662e-12
1.02713e-12
1.02024e-12
1.09644e-12
1.10458e-12
1.11456e-12
1.12052e-12
1.12439e-12
1.1277e-12
1.12788e-12
1.12867e-12
1.12776e-12
1.12689e-12
1.12526e-12
1.12242e-12
1.12137e-12
1.12021e-12
1.11925e-12
1.1181e-12
1.11717e-12
1.11611e-12
1.11525e-12
1.11431e-12
1.11355e-12
1.11278e-12
1.11217e-12
1.11165e-12
1.11136e-12
1.11142e-12
1.11181e-12
1.11242e-12
1.11311e-12
1.11396e-12
1.1148e-12
1.1158e-12
1.11672e-12
1.11783e-12
1.11881e-12
1.12e-12
1.121e-12
1.12217e-12
1.12302e-12
1.12409e-12
1.12501e-12
1.12555e-12
1.12627e-12
1.12537e-12
1.12512e-12
1.12177e-12
1.11786e-12
1.11188e-12
1.10187e-12
1.09373e-12
1.18363e-12
1.19304e-12
1.20507e-12
1.21207e-12
1.21673e-12
1.22068e-12
1.22095e-12
1.22199e-12
1.22103e-12
1.22014e-12
1.21841e-12
1.21564e-12
1.21453e-12
1.21325e-12
1.21218e-12
1.2109e-12
1.20987e-12
1.20869e-12
1.20773e-12
1.20668e-12
1.20583e-12
1.20497e-12
1.20429e-12
1.20371e-12
1.20339e-12
1.20344e-12
1.20388e-12
1.20457e-12
1.20534e-12
1.20629e-12
1.20722e-12
1.20834e-12
1.20936e-12
1.21061e-12
1.21169e-12
1.21302e-12
1.21412e-12
1.21542e-12
1.21637e-12
1.21753e-12
1.21854e-12
1.21908e-12
1.21984e-12
1.21869e-12
1.21833e-12
1.21433e-12
1.20963e-12
1.2026e-12
1.19053e-12
1.18111e-12
1.28699e-12
1.29783e-12
1.31172e-12
1.3198e-12
1.32526e-12
1.32986e-12
1.33019e-12
1.33146e-12
1.33043e-12
1.32954e-12
1.32775e-12
1.3251e-12
1.32396e-12
1.32255e-12
1.32141e-12
1.32e-12
1.31887e-12
1.31756e-12
1.3165e-12
1.31534e-12
1.3144e-12
1.31344e-12
1.31269e-12
1.31204e-12
1.31168e-12
1.31175e-12
1.31223e-12
1.31301e-12
1.31386e-12
1.31491e-12
1.31594e-12
1.31718e-12
1.31831e-12
1.31969e-12
1.32087e-12
1.32234e-12
1.32353e-12
1.32495e-12
1.32595e-12
1.32718e-12
1.32823e-12
1.32874e-12
1.32957e-12
1.32815e-12
1.32774e-12
1.32308e-12
1.31757e-12
1.30944e-12
1.29551e-12
1.28465e-12
1.40848e-12
1.42139e-12
1.4375e-12
1.44698e-12
1.45334e-12
1.45855e-12
1.4589e-12
1.4604e-12
1.45926e-12
1.45832e-12
1.45638e-12
1.45371e-12
1.45248e-12
1.45091e-12
1.44962e-12
1.44804e-12
1.44678e-12
1.4453e-12
1.44412e-12
1.44282e-12
1.44177e-12
1.44069e-12
1.43985e-12
1.43912e-12
1.43872e-12
1.4388e-12
1.43934e-12
1.4402e-12
1.44116e-12
1.44234e-12
1.44349e-12
1.44488e-12
1.44614e-12
1.44768e-12
1.44901e-12
1.45065e-12
1.45199e-12
1.45358e-12
1.45472e-12
1.45608e-12
1.45727e-12
1.45783e-12
1.45875e-12
1.45711e-12
1.45666e-12
1.45138e-12
1.44497e-12
1.43543e-12
1.41926e-12
1.40632e-12
1.55038e-12
1.56513e-12
1.583e-12
1.59361e-12
1.60101e-12
1.60686e-12
1.6072e-12
1.60893e-12
1.60764e-12
1.60662e-12
1.60453e-12
1.60178e-12
1.60045e-12
1.59869e-12
1.59724e-12
1.59547e-12
1.59405e-12
1.5924e-12
1.59107e-12
1.58961e-12
1.58843e-12
1.58723e-12
1.58628e-12
1.58546e-12
1.58501e-12
1.5851e-12
1.5857e-12
1.58667e-12
1.58774e-12
1.58907e-12
1.59035e-12
1.59191e-12
1.59332e-12
1.59506e-12
1.59654e-12
1.59839e-12
1.59988e-12
1.60168e-12
1.60296e-12
1.60449e-12
1.60585e-12
1.60647e-12
1.60753e-12
1.60564e-12
1.60519e-12
1.59927e-12
1.5918e-12
1.58112e-12
1.56318e-12
1.54839e-12
1.7139e-12
1.7307e-12
1.75046e-12
1.76225e-12
1.76823e-12
1.77481e-12
1.77508e-12
1.77708e-12
1.7756e-12
1.7745e-12
1.77223e-12
1.76935e-12
1.76791e-12
1.76593e-12
1.76431e-12
1.76231e-12
1.76073e-12
1.75887e-12
1.75738e-12
1.75575e-12
1.75443e-12
1.75308e-12
1.75202e-12
1.7511e-12
1.75059e-12
1.75069e-12
1.75137e-12
1.75246e-12
1.75365e-12
1.75513e-12
1.75657e-12
1.75831e-12
1.7599e-12
1.76184e-12
1.76351e-12
1.76558e-12
1.76725e-12
1.76927e-12
1.77072e-12
1.77244e-12
1.774e-12
1.77469e-12
1.77592e-12
1.77375e-12
1.77335e-12
1.7667e-12
1.76063e-12
1.74877e-12
1.72893e-12
1.71208e-12
1.89916e-12
1.91827e-12
1.94017e-12
1.9533e-12
1.96057e-12
1.96834e-12
1.96867e-12
1.97114e-12
1.9695e-12
1.96838e-12
1.96592e-12
1.96292e-12
1.96135e-12
1.95913e-12
1.95733e-12
1.95508e-12
1.95331e-12
1.95122e-12
1.94956e-12
1.94771e-12
1.94624e-12
1.94472e-12
1.94354e-12
1.9425e-12
1.94193e-12
1.94204e-12
1.9428e-12
1.94402e-12
1.94536e-12
1.94703e-12
1.94863e-12
1.95059e-12
1.95236e-12
1.95455e-12
1.95641e-12
1.95873e-12
1.9606e-12
1.96287e-12
1.96448e-12
1.9664e-12
1.96815e-12
1.96886e-12
1.97023e-12
1.96757e-12
1.96711e-12
1.95925e-12
1.95187e-12
1.93867e-12
1.91666e-12
1.89749e-12
2.11658e-12
2.13818e-12
2.16258e-12
2.17725e-12
2.18594e-12
2.19459e-12
2.19482e-12
2.19763e-12
2.19573e-12
2.19449e-12
2.19176e-12
2.18859e-12
2.18681e-12
2.18431e-12
2.18227e-12
2.17973e-12
2.17773e-12
2.17538e-12
2.1735e-12
2.17143e-12
2.16976e-12
2.16805e-12
2.16672e-12
2.16555e-12
2.16491e-12
2.16503e-12
2.16589e-12
2.16726e-12
2.16877e-12
2.17064e-12
2.17245e-12
2.17466e-12
2.17665e-12
2.17911e-12
2.18121e-12
2.18383e-12
2.18595e-12
2.18851e-12
2.19036e-12
2.19252e-12
2.19454e-12
2.19535e-12
2.19698e-12
2.19397e-12
2.19359e-12
2.18485e-12
2.176e-12
2.16127e-12
2.13674e-12
2.11508e-12
2.36947e-12
2.39404e-12
2.42147e-12
2.43783e-12
2.44394e-12
2.4538e-12
2.45386e-12
2.45714e-12
2.45492e-12
2.45359e-12
2.45056e-12
2.44715e-12
2.44515e-12
2.44231e-12
2.44001e-12
2.43714e-12
2.43489e-12
2.43223e-12
2.43011e-12
2.42777e-12
2.42589e-12
2.42396e-12
2.42246e-12
2.42115e-12
2.42042e-12
2.42055e-12
2.42153e-12
2.42307e-12
2.42477e-12
2.42688e-12
2.42892e-12
2.43141e-12
2.43365e-12
2.43643e-12
2.43879e-12
2.44176e-12
2.44414e-12
2.44705e-12
2.44916e-12
2.45161e-12
2.45393e-12
2.45483e-12
2.45676e-12
2.45326e-12
2.45303e-12
2.44306e-12
2.43678e-12
2.42036e-12
2.39277e-12
2.36813e-12
2.66173e-12
2.68989e-12
2.72131e-12
2.73998e-12
2.74755e-12
2.75899e-12
2.75885e-12
2.76278e-12
2.76018e-12
2.75878e-12
2.75541e-12
2.7517e-12
2.74946e-12
2.74623e-12
2.74363e-12
2.74037e-12
2.73782e-12
2.7348e-12
2.73241e-12
2.72975e-12
2.72763e-12
2.72545e-12
2.72375e-12
2.72226e-12
2.72143e-12
2.72158e-12
2.72269e-12
2.72444e-12
2.72636e-12
2.72874e-12
2.73105e-12
2.73387e-12
2.7364e-12
2.73956e-12
2.74222e-12
2.74559e-12
2.74828e-12
2.75158e-12
2.75399e-12
2.75677e-12
2.75944e-12
2.76039e-12
2.76268e-12
2.75853e-12
2.75848e-12
2.74689e-12
2.73914e-12
2.72039e-12
2.68882e-12
2.66055e-12
3.01115e-12
3.04434e-12
3.08063e-12
3.10277e-12
3.11184e-12
3.12549e-12
3.12512e-12
3.12999e-12
3.12696e-12
3.12556e-12
3.12181e-12
3.11777e-12
3.11522e-12
3.11153e-12
3.10859e-12
3.10486e-12
3.10197e-12
3.09852e-12
3.09581e-12
3.09277e-12
3.09036e-12
3.08787e-12
3.08594e-12
3.08424e-12
3.0833e-12
3.08347e-12
3.08473e-12
3.08672e-12
3.0889e-12
3.09162e-12
3.09424e-12
3.09746e-12
3.10033e-12
3.10393e-12
3.10695e-12
3.11079e-12
3.11384e-12
3.11761e-12
3.12034e-12
3.12351e-12
3.12657e-12
3.12751e-12
3.13022e-12
3.12509e-12
3.12526e-12
3.11141e-12
3.10216e-12
3.07991e-12
3.04349e-12
3.01012e-12
3.44034e-12
3.48072e-12
3.52405e-12
3.55213e-12
3.56345e-12
3.58072e-12
3.58024e-12
3.5868e-12
3.58332e-12
3.58214e-12
3.57797e-12
3.57359e-12
3.57069e-12
3.56644e-12
3.56312e-12
3.55881e-12
3.55553e-12
3.55154e-12
3.54844e-12
3.54493e-12
3.54217e-12
3.53929e-12
3.53708e-12
3.53512e-12
3.53404e-12
3.53424e-12
3.53568e-12
3.53798e-12
3.54048e-12
3.54362e-12
3.54661e-12
3.55033e-12
3.55361e-12
3.55777e-12
3.5612e-12
3.56564e-12
3.56908e-12
3.57343e-12
3.5765e-12
3.58009e-12
3.58356e-12
3.58428e-12
3.58741e-12
3.58057e-12
3.58082e-12
3.56332e-12
3.55181e-12
3.52356e-12
3.4801e-12
3.43947e-12
3.98872e-12
4.03994e-12
4.09406e-12
4.13049e-12
4.1447e-12
4.16719e-12
4.16652e-12
4.17567e-12
4.17165e-12
4.17096e-12
4.16634e-12
4.16153e-12
4.15825e-12
4.15329e-12
4.14954e-12
4.1445e-12
4.14075e-12
4.13608e-12
4.13252e-12
4.12841e-12
4.12523e-12
4.12186e-12
4.11931e-12
4.11702e-12
4.11577e-12
4.11601e-12
4.11768e-12
4.12037e-12
4.12325e-12
4.12692e-12
4.13037e-12
4.13471e-12
4.13848e-12
4.14335e-12
4.14726e-12
4.15245e-12
4.15634e-12
4.16141e-12
4.16488e-12
4.16894e-12
4.17288e-12
4.17308e-12
4.17675e-12
4.16727e-12
4.16768e-12
4.14493e-12
4.13048e-12
4.09386e-12
4.0396e-12
3.98803e-12
4.73203e-12
4.80192e-12
4.86683e-12
4.91708e-12
4.93602e-12
4.96722e-12
4.96646e-12
4.98015e-12
4.97551e-12
4.97598e-12
4.97087e-12
4.9656e-12
4.9619e-12
4.95604e-12
4.95181e-12
4.94577e-12
4.94148e-12
4.93587e-12
4.93174e-12
4.92681e-12
4.9231e-12
4.91908e-12
4.91609e-12
4.91336e-12
4.91189e-12
4.91218e-12
4.91416e-12
4.91735e-12
4.92074e-12
4.92512e-12
4.92915e-12
4.93435e-12
4.93872e-12
4.94455e-12
4.94904e-12
4.95525e-12
4.95964e-12
4.96563e-12
4.96953e-12
4.97409e-12
4.97853e-12
4.97756e-12
4.98186e-12
4.96777e-12
4.96823e-12
4.93672e-12
4.9175e-12
4.867e-12
4.80195e-12
4.73157e-12
5.78571e-12
5.88513e-12
5.97733e-12
6.05106e-12
6.07792e-12
6.1239e-12
6.12319e-12
6.14486e-12
6.1395e-12
6.14229e-12
6.13667e-12
6.13091e-12
6.12679e-12
6.11968e-12
6.1149e-12
6.10747e-12
6.10249e-12
6.09555e-12
6.09068e-12
6.08458e-12
6.08016e-12
6.0752e-12
6.07163e-12
6.06827e-12
6.06651e-12
6.06686e-12
6.06926e-12
6.07318e-12
6.07725e-12
6.08264e-12
6.08745e-12
6.09388e-12
6.09904e-12
6.10625e-12
6.11146e-12
6.11909e-12
6.12407e-12
6.13133e-12
6.13568e-12
6.14077e-12
6.14573e-12
6.14242e-12
6.14749e-12
6.12529e-12
6.12564e-12
6.07927e-12
6.05207e-12
5.97803e-12
5.88569e-12
5.78553e-12
7.37386e-12
7.52417e-12
7.66013e-12
7.77375e-12
7.81378e-12
7.8848e-12
7.88427e-12
7.91975e-12
7.91345e-12
7.92052e-12
7.91432e-12
7.90802e-12
7.90346e-12
7.89453e-12
7.88911e-12
7.87959e-12
7.8737e-12
7.86478e-12
7.85887e-12
7.85102e-12
7.84559e-12
7.83923e-12
7.83483e-12
7.83054e-12
7.82836e-12
7.82882e-12
7.83183e-12
7.83684e-12
7.84188e-12
7.84879e-12
7.85471e-12
7.86297e-12
7.86922e-12
7.87849e-12
7.88465e-12
7.89443e-12
7.90011e-12
7.90921e-12
7.91405e-12
7.91969e-12
7.92525e-12
7.91764e-12
7.92387e-12
7.88752e-12
7.88762e-12
7.81612e-12
7.77564e-12
7.66162e-12
7.52552e-12
7.37413e-12
9.86612e-12
1.0101e-11
1.03139e-11
1.04989e-11
1.05628e-11
1.06779e-11
1.06784e-11
1.07387e-11
1.07313e-11
1.07461e-11
1.07394e-11
1.07327e-11
1.07277e-11
1.0716e-11
1.07099e-11
1.06971e-11
1.069e-11
1.0678e-11
1.06706e-11
1.066e-11
1.0653e-11
1.06445e-11
1.06389e-11
1.06331e-11
1.06303e-11
1.0631e-11
1.06349e-11
1.06416e-11
1.06481e-11
1.06574e-11
1.06649e-11
1.06761e-11
1.06839e-11
1.06964e-11
1.07039e-11
1.07169e-11
1.07235e-11
1.07353e-11
1.07406e-11
1.07468e-11
1.07528e-11
1.07375e-11
1.07454e-11
1.06835e-11
1.06825e-11
1.05667e-11
1.05022e-11
1.03166e-11
1.01034e-11
9.86715e-12
1.38618e-11
1.42277e-11
1.45575e-11
1.48517e-11
1.49493e-11
1.51311e-11
1.51313e-11
1.52306e-11
1.52206e-11
1.52462e-11
1.52382e-11
1.52306e-11
1.52247e-11
1.52087e-11
1.52013e-11
1.51835e-11
1.51744e-11
1.51575e-11
1.51477e-11
1.51328e-11
1.51236e-11
1.51117e-11
1.51041e-11
1.50961e-11
1.50923e-11
1.50932e-11
1.50986e-11
1.51079e-11
1.51167e-11
1.51296e-11
1.51398e-11
1.51554e-11
1.51657e-11
1.51833e-11
1.51928e-11
1.52111e-11
1.5219e-11
1.52353e-11
1.52416e-11
1.52486e-11
1.5256e-11
1.52298e-11
1.52417e-11
1.51391e-11
1.51383e-11
1.49555e-11
1.48571e-11
1.45621e-11
1.42317e-11
1.38642e-11
2.027e-11
2.08335e-11
2.13428e-11
2.18067e-11
2.19538e-11
2.22375e-11
2.22354e-11
2.23989e-11
2.23826e-11
2.24217e-11
2.24112e-11
2.24019e-11
2.23942e-11
2.23713e-11
2.23617e-11
2.23359e-11
2.23236e-11
2.22991e-11
2.22855e-11
2.2264e-11
2.2251e-11
2.22338e-11
2.22231e-11
2.22117e-11
2.22063e-11
2.22077e-11
2.22153e-11
2.22287e-11
2.22411e-11
2.22598e-11
2.22741e-11
2.22966e-11
2.2311e-11
2.23364e-11
2.23493e-11
2.23757e-11
2.2386e-11
2.24093e-11
2.24175e-11
2.24263e-11
2.24362e-11
2.23965e-11
2.24162e-11
2.22475e-11
2.22486e-11
2.19638e-11
2.18154e-11
2.13503e-11
2.08397e-11
2.02746e-11
3.03786e-11
3.12513e-11
3.20278e-11
3.27512e-11
3.29712e-11
3.34056e-11
3.33988e-11
3.36255e-11
3.35865e-11
3.36381e-11
3.36222e-11
3.36098e-11
3.35982e-11
3.35644e-11
3.35509e-11
3.35128e-11
3.3495e-11
3.34589e-11
3.34391e-11
3.34074e-11
3.33884e-11
3.33631e-11
3.33476e-11
3.33308e-11
3.3323e-11
3.3325e-11
3.33363e-11
3.33559e-11
3.3374e-11
3.34015e-11
3.34223e-11
3.34555e-11
3.34763e-11
3.35138e-11
3.35324e-11
3.35714e-11
3.35859e-11
3.36201e-11
3.36324e-11
3.36445e-11
3.36596e-11
3.36073e-11
3.36412e-11
3.34173e-11
3.34228e-11
3.29867e-11
3.27649e-11
3.20397e-11
3.1261e-11
3.03864e-11
4.58789e-11
4.71695e-11
4.82877e-11
4.93619e-11
4.96699e-11
5.0303e-11
5.02824e-11
5.06275e-11
5.05673e-11
5.06429e-11
5.06171e-11
5.05981e-11
5.05787e-11
5.05283e-11
5.05075e-11
5.04511e-11
5.04243e-11
5.03707e-11
5.03412e-11
5.02942e-11
5.0266e-11
5.02287e-11
5.02056e-11
5.01808e-11
5.01693e-11
5.01723e-11
5.0189e-11
5.0218e-11
5.02448e-11
5.02853e-11
5.03162e-11
5.03653e-11
5.03964e-11
5.04518e-11
5.04798e-11
5.05376e-11
5.05598e-11
5.06108e-11
5.0631e-11
5.06496e-11
5.06748e-11
5.05984e-11
5.06547e-11
5.03103e-11
5.03291e-11
4.96934e-11
4.93827e-11
4.83059e-11
4.7184e-11
4.58912e-11
6.90194e-11
7.09015e-11
7.24725e-11
7.40214e-11
7.44517e-11
7.5335e-11
7.52999e-11
7.57853e-11
7.56958e-11
7.5801e-11
7.5759e-11
7.5728e-11
7.5694e-11
7.56192e-11
7.55855e-11
7.55026e-11
7.54608e-11
7.53824e-11
7.53373e-11
7.52685e-11
7.5226e-11
7.51713e-11
7.51368e-11
7.51004e-11
7.50831e-11
7.50877e-11
7.51124e-11
7.51549e-11
7.51949e-11
7.52542e-11
7.53007e-11
7.53726e-11
7.54199e-11
7.5501e-11
7.55444e-11
7.56293e-11
7.56651e-11
7.57407e-11
7.57755e-11
7.58064e-11
7.58478e-11
7.57414e-11
7.58281e-11
7.53412e-11
7.53737e-11
7.44865e-11
7.40524e-11
7.24996e-11
7.09228e-11
6.90379e-11
1.0208e-10
1.04609e-10
1.06686e-10
1.08288e-10
1.08834e-10
1.10009e-10
1.09934e-10
1.10583e-10
1.10444e-10
1.1058e-10
1.10509e-10
1.10458e-10
1.10399e-10
1.10289e-10
1.10235e-10
1.10115e-10
1.10051e-10
1.09938e-10
1.0987e-10
1.09772e-10
1.09709e-10
1.0963e-10
1.0958e-10
1.09527e-10
1.09502e-10
1.09509e-10
1.09545e-10
1.09606e-10
1.09664e-10
1.09749e-10
1.09818e-10
1.09921e-10
1.09992e-10
1.10108e-10
1.10174e-10
1.10297e-10
1.10354e-10
1.10465e-10
1.10525e-10
1.10577e-10
1.10647e-10
1.10509e-10
1.10645e-10
1.09993e-10
1.10064e-10
1.08883e-10
1.08332e-10
1.06725e-10
1.04641e-10
1.02104e-10
1.46229e-10
1.49511e-10
1.5215e-10
1.5433e-10
1.54992e-10
1.56482e-10
1.56349e-10
1.57171e-10
1.56963e-10
1.57124e-10
1.57009e-10
1.56925e-10
1.56827e-10
1.5667e-10
1.56583e-10
1.56415e-10
1.56318e-10
1.56161e-10
1.56061e-10
1.55923e-10
1.55832e-10
1.55722e-10
1.55649e-10
1.55576e-10
1.55539e-10
1.55549e-10
1.556e-10
1.55685e-10
1.55769e-10
1.55888e-10
1.55987e-10
1.56131e-10
1.56235e-10
1.56397e-10
1.56497e-10
1.5667e-10
1.5676e-10
1.56919e-10
1.57017e-10
1.57102e-10
1.57216e-10
1.57053e-10
1.57257e-10
1.5643e-10
1.56558e-10
1.5506e-10
1.5439e-10
1.52202e-10
1.49555e-10
1.46259e-10
2.03346e-10
2.07433e-10
2.10641e-10
2.13407e-10
2.14174e-10
2.15971e-10
2.1576e-10
2.16748e-10
2.1645e-10
2.16622e-10
2.16444e-10
2.16312e-10
2.16158e-10
2.15939e-10
2.15808e-10
2.15579e-10
2.15436e-10
2.15222e-10
2.15079e-10
2.14893e-10
2.14764e-10
2.14615e-10
2.14512e-10
2.14412e-10
2.14361e-10
2.14374e-10
2.14445e-10
2.14561e-10
2.14678e-10
2.14839e-10
2.14979e-10
2.15173e-10
2.15322e-10
2.15543e-10
2.15689e-10
2.15924e-10
2.16061e-10
2.16281e-10
2.16436e-10
2.16568e-10
2.16745e-10
2.1657e-10
2.16863e-10
2.15869e-10
2.16072e-10
2.14265e-10
2.13487e-10
2.10709e-10
2.07491e-10
2.03384e-10
2.73894e-10
2.78749e-10
2.82499e-10
2.85819e-10
2.86668e-10
2.88733e-10
2.88426e-10
2.89551e-10
2.89143e-10
2.89304e-10
2.89044e-10
2.88847e-10
2.88618e-10
2.88323e-10
2.88131e-10
2.87827e-10
2.87625e-10
2.87344e-10
2.87146e-10
2.86901e-10
2.86724e-10
2.86528e-10
2.86389e-10
2.86256e-10
2.86187e-10
2.86204e-10
2.86299e-10
2.86453e-10
2.86611e-10
2.86823e-10
2.87014e-10
2.87269e-10
2.87475e-10
2.87765e-10
2.87971e-10
2.88282e-10
2.88481e-10
2.88778e-10
2.89009e-10
2.89205e-10
2.89464e-10
2.89298e-10
2.897e-10
2.88566e-10
2.88862e-10
2.86784e-10
2.85921e-10
2.82584e-10
2.78819e-10
2.73942e-10
3.57158e-10
3.62718e-10
3.66922e-10
3.70726e-10
3.71627e-10
3.7389e-10
3.73476e-10
3.74691e-10
3.74155e-10
3.7428e-10
3.73917e-10
3.73637e-10
3.73312e-10
3.72928e-10
3.72659e-10
3.7227e-10
3.71995e-10
3.71636e-10
3.7137e-10
3.71058e-10
3.70824e-10
3.70573e-10
3.70389e-10
3.7022e-10
3.70129e-10
3.7015e-10
3.70274e-10
3.70472e-10
3.70679e-10
3.7095e-10
3.71201e-10
3.71527e-10
3.71802e-10
3.72171e-10
3.72452e-10
3.72851e-10
3.73128e-10
3.73513e-10
3.73841e-10
3.7412e-10
3.7448e-10
3.7435e-10
3.74877e-10
3.73651e-10
3.74051e-10
3.7177e-10
3.7085e-10
3.67026e-10
3.62799e-10
3.57213e-10
4.51302e-10
4.57468e-10
4.62011e-10
4.66196e-10
4.67119e-10
4.69492e-10
4.68968e-10
4.70212e-10
4.69538e-10
4.69597e-10
4.69112e-10
4.68735e-10
4.68292e-10
4.67808e-10
4.67448e-10
4.66964e-10
4.66602e-10
4.66157e-10
4.65813e-10
4.65426e-10
4.65126e-10
4.64814e-10
4.6458e-10
4.64368e-10
4.64252e-10
4.64279e-10
4.64436e-10
4.64682e-10
4.64945e-10
4.65281e-10
4.65602e-10
4.66006e-10
4.66362e-10
4.66819e-10
4.67187e-10
4.67684e-10
4.68053e-10
4.68539e-10
4.68985e-10
4.6936e-10
4.69841e-10
4.69774e-10
4.70438e-10
4.69178e-10
4.69685e-10
4.6729e-10
4.66344e-10
4.62131e-10
4.5756e-10
4.51362e-10
5.53623e-10
5.60255e-10
5.65021e-10
5.69476e-10
5.70394e-10
5.72783e-10
5.72152e-10
5.73362e-10
5.72544e-10
5.72509e-10
5.7189e-10
5.71402e-10
5.70823e-10
5.70231e-10
5.69768e-10
5.69181e-10
5.68723e-10
5.68185e-10
5.67754e-10
5.67287e-10
5.66913e-10
5.66537e-10
5.66246e-10
5.6599e-10
5.65846e-10
5.65879e-10
5.66072e-10
5.66369e-10
5.66694e-10
5.671e-10
5.67498e-10
5.67985e-10
5.6843e-10
5.68982e-10
5.69448e-10
5.7005e-10
5.70523e-10
5.71118e-10
5.71699e-10
5.72185e-10
5.72798e-10
5.72823e-10
5.73628e-10
5.724e-10
5.73009e-10
5.70592e-10
5.69644e-10
5.65157e-10
5.60351e-10
5.53688e-10
6.6085e-10
6.67858e-10
6.72713e-10
6.77329e-10
6.78226e-10
6.80543e-10
6.79817e-10
6.8093e-10
6.7997e-10
6.79816e-10
6.79053e-10
6.78445e-10
6.77716e-10
6.77012e-10
6.76437e-10
6.75743e-10
6.75181e-10
6.74545e-10
6.74022e-10
6.73471e-10
6.7302e-10
6.72575e-10
6.72225e-10
6.71921e-10
6.71748e-10
6.71787e-10
6.72017e-10
6.72369e-10
6.72759e-10
6.73238e-10
6.73718e-10
6.74292e-10
6.74833e-10
6.75483e-10
6.76053e-10
6.76766e-10
6.77351e-10
6.78058e-10
6.78791e-10
6.79395e-10
6.8015e-10
6.80291e-10
6.81235e-10
6.80099e-10
6.80799e-10
6.78449e-10
6.77516e-10
6.72861e-10
6.67957e-10
6.60913e-10
7.69782e-10
7.76912e-10
7.81895e-10
7.86212e-10
7.87078e-10
7.89248e-10
7.88442e-10
7.89406e-10
7.8831e-10
7.88019e-10
7.87109e-10
7.86376e-10
7.85484e-10
7.84667e-10
7.83977e-10
7.83174e-10
7.82504e-10
7.81769e-10
7.8115e-10
7.80515e-10
7.79983e-10
7.79469e-10
7.79058e-10
7.78706e-10
7.78503e-10
7.78548e-10
7.78817e-10
7.79224e-10
7.7968e-10
7.80233e-10
7.80798e-10
7.81459e-10
7.82098e-10
7.82848e-10
7.83527e-10
7.84352e-10
7.85053e-10
7.85872e-10
7.86768e-10
7.87496e-10
7.88395e-10
7.88671e-10
7.89748e-10
7.88757e-10
7.89531e-10
7.87322e-10
7.86414e-10
7.82051e-10
7.77008e-10
7.69839e-10
8.75592e-10
8.82719e-10
8.87683e-10
8.91961e-10
8.92794e-10
8.94755e-10
8.9389e-10
8.9466e-10
8.9344e-10
8.92998e-10
8.91945e-10
8.91083e-10
8.90031e-10
8.891e-10
8.88295e-10
8.87385e-10
8.86607e-10
8.85774e-10
8.85061e-10
8.84342e-10
8.83731e-10
8.83149e-10
8.82677e-10
8.82278e-10
8.82044e-10
8.82095e-10
8.82403e-10
8.82863e-10
8.83385e-10
8.84011e-10
8.84659e-10
8.85406e-10
8.86143e-10
8.8699e-10
8.87777e-10
8.88712e-10
8.89529e-10
8.90458e-10
8.9152e-10
8.92372e-10
8.93412e-10
8.93836e-10
8.95033e-10
8.94232e-10
8.9506e-10
8.93055e-10
8.92173e-10
8.87841e-10
8.82812e-10
8.75633e-10
9.72876e-10
9.79947e-10
9.84807e-10
9.88841e-10
9.89645e-10
9.91348e-10
9.90448e-10
9.90994e-10
9.89669e-10
9.89072e-10
9.87887e-10
9.86907e-10
9.85695e-10
9.84654e-10
9.83746e-10
9.82736e-10
9.81858e-10
9.80932e-10
9.8013e-10
9.79335e-10
9.78649e-10
9.78004e-10
9.77476e-10
9.77032e-10
9.7677e-10
9.76827e-10
9.7717e-10
9.7768e-10
9.78263e-10
9.78956e-10
9.79682e-10
9.80508e-10
9.81337e-10
9.82274e-10
9.83163e-10
9.842e-10
9.85125e-10
9.8615e-10
9.87383e-10
9.88349e-10
9.89518e-10
9.90095e-10
9.91392e-10
9.90811e-10
9.91669e-10
9.89915e-10
9.89055e-10
9.84959e-10
9.8003e-10
9.72893e-10
1.05292e-09
1.05986e-09
1.0646e-09
1.06842e-09
1.0692e-09
1.07064e-09
1.06973e-09
1.07004e-09
1.06864e-09
1.0679e-09
1.06661e-09
1.06553e-09
1.06417e-09
1.06306e-09
1.06205e-09
1.06096e-09
1.06e-09
1.05899e-09
1.05812e-09
1.05726e-09
1.05651e-09
1.05581e-09
1.05524e-09
1.05475e-09
1.05447e-09
1.05453e-09
1.0549e-09
1.05545e-09
1.05609e-09
1.05684e-09
1.05763e-09
1.05852e-09
1.05943e-09
1.06044e-09
1.06141e-09
1.06253e-09
1.06355e-09
1.06464e-09
1.06604e-09
1.0671e-09
1.06837e-09
1.06909e-09
1.07046e-09
1.0701e-09
1.07096e-09
1.06948e-09
1.06863e-09
1.06474e-09
1.05992e-09
1.05291e-09
1.1034e-09
1.1102e-09
1.11485e-09
1.11845e-09
1.11923e-09
1.12045e-09
1.11955e-09
1.11969e-09
1.11825e-09
1.11741e-09
1.11605e-09
1.11491e-09
1.11343e-09
1.11228e-09
1.11122e-09
1.11007e-09
1.10906e-09
1.108e-09
1.10708e-09
1.10618e-09
1.10539e-09
1.10466e-09
1.10405e-09
1.10355e-09
1.10325e-09
1.10331e-09
1.1037e-09
1.10428e-09
1.10495e-09
1.10573e-09
1.10656e-09
1.10749e-09
1.10845e-09
1.10951e-09
1.11053e-09
1.11171e-09
1.11278e-09
1.11392e-09
1.11543e-09
1.11654e-09
1.11788e-09
1.1187e-09
1.1201e-09
1.11992e-09
1.12077e-09
1.1195e-09
1.11865e-09
1.11497e-09
1.11024e-09
1.10336e-09
)
;

boundaryField
{
    fuel
    {
        type            fixedValue;
        value           nonuniform 0();
    }
    wall
    {
        type            zeroGradient;
    }
    outlet
    {
        type            zeroGradient;
    }
    frontAndBack
    {
        type            empty;
    }
    procBoundary3to2
    {
        type            processor;
        value           nonuniform List<scalar> 
51
(
8.73753e-13
8.72877e-13
8.72148e-13
8.71471e-13
8.70841e-13
8.70253e-13
8.69706e-13
8.69198e-13
8.68728e-13
8.683e-13
8.67915e-13
8.67587e-13
8.67328e-13
8.67177e-13
8.67202e-13
8.67403e-13
8.67709e-13
8.68082e-13
8.68507e-13
8.68972e-13
8.69477e-13
8.70017e-13
8.70594e-13
8.71209e-13
8.71863e-13
8.72559e-13
8.73283e-13
8.73979e-13
8.74894e-13
8.75722e-13
8.76714e-13
8.77882e-13
8.79039e-13
8.80517e-13
8.81839e-13
8.83741e-13
8.85301e-13
8.8725e-13
8.87292e-13
8.85106e-13
8.86551e-13
8.87054e-13
8.86937e-13
8.86199e-13
8.85769e-13
8.84686e-13
8.83889e-13
8.82765e-13
8.81687e-13
8.80467e-13
8.80467e-13
)
;
    }
}


// ************************************************************************* //
