/*--------------------------------*- C++ -*----------------------------------*\
| =========                 |                                                 |
| \\      /  F ield         | OpenFOAM: The Open Source CFD Toolbox           |
|  \\    /   O peration     | Version:  dev                                   |
|   \\  /    A nd           | Web:      www.OpenFOAM.org                      |
|    \\/     M anipulation  |                                                 |
\*---------------------------------------------------------------------------*/
FoamFile
{
    version     2.0;
    format      ascii;
    class       volScalarField;
    location    "0.04";
    object      O;
}
// * * * * * * * * * * * * * * * * * * * * * * * * * * * * * * * * * * * * * //

dimensions      [0 0 0 0 0 0 0];

internalField   nonuniform List<scalar> 
250
(
2.52357e-05
2.51916e-05
2.52281e-05
2.52288e-05
2.5183e-05
2.51823e-05
2.51846e-05
2.52411e-05
2.5249e-05
2.55416e-05
1.53657e-08
1.20344e-05
1.20265e-05
1.20336e-05
1.20344e-05
1.20238e-05
1.20253e-05
1.20238e-05
1.20332e-05
1.20232e-05
1.21894e-05
1.43839e-08
4.91071e-06
4.90927e-06
4.91063e-06
4.91151e-06
4.90809e-06
4.91016e-06
4.90748e-06
4.90692e-06
4.88518e-06
5.03193e-06
8.67149e-09
1.96138e-06
1.96112e-06
1.96135e-06
1.96198e-06
1.96057e-06
1.96204e-06
1.96002e-06
1.95907e-06
1.94171e-06
2.16152e-06
5.40241e-09
8.44421e-07
8.44372e-07
8.44392e-07
8.44744e-07
8.44108e-07
8.44938e-07
8.43669e-07
8.44932e-07
8.22322e-07
1.09395e-06
5.49767e-09
4.21417e-07
4.21401e-07
4.21394e-07
4.21576e-07
4.21277e-07
4.21693e-07
4.20836e-07
4.14421e-07
4.04954e-07
6.79134e-07
2.62942e-08
2.52859e-07
2.5285e-07
2.52845e-07
2.52938e-07
2.52791e-07
2.52994e-07
2.52375e-07
2.47219e-07
2.39942e-07
4.88859e-07
3.23928e-07
1.80239e-07
1.80229e-07
1.80226e-07
1.80279e-07
1.80199e-07
1.80337e-07
1.79923e-07
1.76419e-07
1.64371e-07
3.75971e-07
3.1747e-06
1.45437e-07
1.45427e-07
1.45447e-07
1.45452e-07
1.45427e-07
1.45491e-07
1.44985e-07
1.41049e-07
1.27072e-07
2.93618e-07
8.71028e-06
1.26154e-07
1.26126e-07
1.26147e-07
1.26139e-07
1.26133e-07
1.26155e-07
1.25685e-07
1.22524e-07
1.09342e-07
2.24853e-07
7.57372e-06
1.1648e-07
1.16504e-07
1.16488e-07
1.16494e-07
1.1648e-07
1.15982e-07
1.12002e-07
9.81619e-08
1.71464e-07
5.19148e-06
1.10192e-07
1.1022e-07
1.10196e-07
1.10209e-07
1.10185e-07
1.09708e-07
1.06093e-07
9.05168e-08
1.32573e-07
3.42591e-06
1.05656e-07
1.0569e-07
1.05658e-07
1.05681e-07
1.05638e-07
1.05117e-07
1.01503e-07
8.50336e-08
1.04564e-07
2.29945e-06
1.02125e-07
1.02165e-07
1.02125e-07
1.02157e-07
1.02105e-07
1.01552e-07
9.78874e-08
8.07318e-08
8.27332e-08
1.58779e-06
9.90344e-08
9.90828e-08
9.90331e-08
9.9076e-08
9.90186e-08
9.84465e-08
9.47506e-08
7.76109e-08
6.82915e-08
1.12322e-06
9.60723e-08
9.61295e-08
9.607e-08
9.61244e-08
9.60656e-08
9.54862e-08
9.17971e-08
7.46201e-08
5.76542e-08
8.08158e-07
9.30508e-08
9.31183e-08
9.30477e-08
9.31151e-08
9.30578e-08
9.24821e-08
8.88493e-08
7.18422e-08
4.8977e-08
5.87273e-07
8.98475e-08
8.99266e-08
8.98436e-08
8.99255e-08
8.9872e-08
8.93114e-08
8.57885e-08
6.92156e-08
4.24468e-08
4.2835e-07
8.63738e-08
8.64659e-08
8.63692e-08
8.64672e-08
8.64198e-08
8.5885e-08
8.25263e-08
6.66402e-08
3.80334e-08
3.12115e-07
8.256e-08
8.26665e-08
8.25549e-08
8.26703e-08
8.26312e-08
8.21324e-08
7.89896e-08
6.40267e-08
3.43672e-08
2.26558e-07
7.83469e-08
7.84688e-08
7.83416e-08
7.84753e-08
7.84465e-08
7.79923e-08
7.51129e-08
6.12978e-08
3.15955e-08
1.63714e-07
7.36779e-08
7.38154e-08
7.36728e-08
7.38246e-08
7.38083e-08
7.34045e-08
7.08301e-08
5.83826e-08
2.9462e-08
1.17903e-07
6.90995e-08
6.92533e-08
6.90934e-08
6.92656e-08
6.92586e-08
6.89129e-08
6.66305e-08
5.52187e-08
2.79295e-08
8.48528e-08
6.37338e-08
6.39135e-08
6.37285e-08
6.39285e-08
6.39366e-08
6.36539e-08
6.18421e-08
5.17302e-08
2.65647e-08
6.1275e-08
)
;

boundaryField
{
    fuel
    {
        type            fixedValue;
        value           uniform 0;
    }
    wall
    {
        type            zeroGradient;
    }
    outlet
    {
        type            zeroGradient;
    }
    frontAndBack
    {
        type            empty;
    }
    procBoundary3to0
    {
        type            processor;
        value           nonuniform List<scalar> 10(5.83802e-08 5.85769e-08 5.83746e-08 5.85956e-08 5.8613e-08 5.83897e-08 5.6918e-08 4.78522e-08 2.53676e-08 4.4611e-08);
    }
    procBoundary3to2
    {
        type            processor;
        value           nonuniform List<scalar> 
25
(
2.51877e-05
1.20247e-05
4.90847e-06
1.96081e-06
8.44271e-07
4.21379e-07
2.52854e-07
1.8024e-07
1.45452e-07
1.26152e-07
1.16534e-07
1.16534e-07
1.10216e-07
1.05667e-07
1.02131e-07
9.90396e-08
9.60776e-08
9.30569e-08
8.98547e-08
8.63823e-08
8.25699e-08
7.83582e-08
7.36904e-08
6.91131e-08
6.37494e-08
)
;
    }
}


// ************************************************************************* //
