/*--------------------------------*- C++ -*----------------------------------*\
| =========                 |                                                 |
| \\      /  F ield         | OpenFOAM: The Open Source CFD Toolbox           |
|  \\    /   O peration     | Version:  dev                                   |
|   \\  /    A nd           | Web:      www.OpenFOAM.org                      |
|    \\/     M anipulation  |                                                 |
\*---------------------------------------------------------------------------*/
FoamFile
{
    version     2.0;
    format      ascii;
    class       volScalarField;
    location    "0.04";
    object      P2-;
}
// * * * * * * * * * * * * * * * * * * * * * * * * * * * * * * * * * * * * * //

dimensions      [0 0 0 0 0 0 0];

internalField   nonuniform List<scalar> 
25
(
2.12512e-14
1.9602e-14
1.78961e-14
1.61439e-14
1.43997e-14
1.27526e-14
1.11485e-14
9.60481e-15
8.13583e-15
6.75449e-15
5.47473e-15
4.313e-15
3.2858e-15
2.41557e-15
1.71e-15
1.169e-15
7.80088e-16
5.20309e-16
3.59726e-16
2.6662e-16
2.1237e-16
1.7435e-16
1.37379e-16
9.49971e-17
5.17417e-17
)
;

boundaryField
{
    wall
    {
        type            zeroGradient;
    }
    fuel
    {
        type            fixedValue;
        value           nonuniform 0();
    }
    outlet
    {
        type            inletOutlet;
        inletValue      uniform 0;
        value           uniform 5.17417e-17;
    }
    procBoundary3to2
    {
        type            processor;
        value           uniform 2.28388e-14;
    }
}


// ************************************************************************* //
