/*--------------------------------*- C++ -*----------------------------------*\
| =========                 |                                                 |
| \\      /  F ield         | OpenFOAM: The Open Source CFD Toolbox           |
|  \\    /   O peration     | Version:  dev                                   |
|   \\  /    A nd           | Web:      www.OpenFOAM.org                      |
|    \\/     M anipulation  |                                                 |
\*---------------------------------------------------------------------------*/
FoamFile
{
    version     2.0;
    format      ascii;
    class       volScalarField;
    location    "0.185";
    object      A1C2H22;
}
// * * * * * * * * * * * * * * * * * * * * * * * * * * * * * * * * * * * * * //

dimensions      [0 0 0 0 0 0 0];

internalField   nonuniform List<scalar> 
250
(
3.67642e-09
2.3296e-09
1.68107e-09
1.56005e-09
1.48993e-09
1.46342e-09
1.46947e-09
1.44676e-09
1.46256e-09
1.44457e-09
2.96294e-09
1.94795e-09
1.41418e-09
1.32828e-09
1.26511e-09
1.24013e-09
1.24776e-09
1.22299e-09
1.24099e-09
1.22097e-09
1.22754e-09
1.2318e-09
1.22855e-09
1.23577e-09
1.23754e-09
1.25041e-09
1.29971e-09
1.40704e-09
1.66724e-09
2.19216e-09
2.28487e-09
1.55715e-09
1.13599e-09
1.07884e-09
1.02491e-09
1.00269e-09
1.01104e-09
9.86561e-10
1.00482e-09
9.84828e-10
9.91351e-10
9.95593e-10
9.92168e-10
9.99186e-10
1.00048e-09
1.01149e-09
1.05265e-09
1.13577e-09
1.32279e-09
1.69714e-09
1.68132e-09
1.18551e-09
8.6825e-10
8.33131e-10
7.89733e-10
7.70866e-10
7.7935e-10
7.56841e-10
7.7373e-10
7.55461e-10
7.61413e-10
7.65255e-10
7.6203e-10
7.68266e-10
7.69124e-10
7.78682e-10
8.11002e-10
8.72629e-10
1.00335e-09
1.26516e-09
1.17528e-09
8.55104e-10
6.27884e-10
6.06477e-10
5.72682e-10
5.60358e-10
5.65148e-10
5.49103e-10
5.63477e-10
5.48097e-10
5.53107e-10
5.56302e-10
5.53542e-10
5.58637e-10
5.59141e-10
5.64822e-10
5.88453e-10
6.34466e-10
7.21186e-10
9.00749e-10
7.72436e-10
5.8014e-10
4.2667e-10
4.15417e-10
3.91459e-10
3.82594e-10
3.8656e-10
3.74269e-10
3.85436e-10
3.73597e-10
3.77455e-10
3.79879e-10
3.77736e-10
3.81537e-10
3.81792e-10
3.86196e-10
4.02339e-10
4.33463e-10
4.89103e-10
6.06806e-10
4.78285e-10
3.6795e-10
2.71379e-10
2.65936e-10
2.50313e-10
2.4458e-10
2.47426e-10
2.39015e-10
2.46785e-10
2.38613e-10
2.41275e-10
2.42923e-10
2.41437e-10
2.43981e-10
2.44082e-10
2.47052e-10
2.57291e-10
2.77017e-10
3.10792e-10
3.84326e-10
2.80209e-10
2.19233e-10
1.63305e-10
1.60671e-10
1.51462e-10
1.48215e-10
1.49946e-10
1.44934e-10
1.49651e-10
1.44726e-10
1.46325e-10
1.47303e-10
1.46405e-10
1.47898e-10
1.47922e-10
1.49711e-10
1.55585e-10
1.67184e-10
1.86578e-10
2.30038e-10
1.60998e-10
1.27268e-10
9.74142e-11
9.58655e-11
9.09898e-11
8.94174e-11
9.02775e-11
8.7748e-11
9.01794e-11
8.76566e-11
8.84693e-11
8.89613e-11
8.84999e-11
8.9251e-11
8.92511e-11
9.02266e-11
9.32538e-11
9.96286e-11
1.10436e-10
1.35007e-10
9.8671e-11
7.8773e-11
6.35389e-11
6.2309e-11
5.99361e-11
5.92817e-11
5.96142e-11
5.85526e-11
5.95996e-11
5.85194e-11
5.88611e-11
5.90641e-11
5.88684e-11
5.91874e-11
5.91896e-11
5.96898e-11
6.11476e-11
6.45775e-11
7.0843e-11
8.48285e-11
7.13941e-11
5.82318e-11
5.01235e-11
4.89713e-11
4.78236e-11
4.75424e-11
4.76474e-11
4.72502e-11
4.76514e-11
4.72399e-11
4.73664e-11
4.74338e-11
4.73659e-11
4.74834e-11
4.74984e-11
4.77588e-11
4.85297e-11
5.04961e-11
5.46548e-11
6.34217e-11
6.19416e-11
5.21688e-11
4.70106e-11
4.59032e-11
4.52376e-11
4.50084e-11
4.50888e-11
4.48439e-11
4.50845e-11
4.48401e-11
4.49172e-11
4.49474e-11
4.49183e-11
4.49732e-11
4.50032e-11
4.51681e-11
4.57368e-11
4.70982e-11
5.03993e-11
5.69718e-11
5.85059e-11
5.0558e-11
4.66265e-11
4.55596e-11
4.50798e-11
4.48177e-11
4.49279e-11
4.4677e-11
4.49135e-11
4.46753e-11
4.47532e-11
4.47817e-11
4.47581e-11
4.47995e-11
4.48392e-11
4.497e-11
4.54883e-11
4.66086e-11
4.953e-11
5.52095e-11
)
;

boundaryField
{
    fuel
    {
        type            fixedValue;
        value           nonuniform 0();
    }
    wall
    {
        type            zeroGradient;
    }
    outlet
    {
        type            zeroGradient;
    }
    frontAndBack
    {
        type            empty;
    }
    procBoundary1to0
    {
        type            processor;
        value           nonuniform List<scalar> 
21
(
4.37738e-09
2.67406e-09
1.914e-09
1.75297e-09
1.67853e-09
1.65195e-09
1.65564e-09
1.63731e-09
1.64911e-09
1.63507e-09
1.45055e-09
1.45055e-09
1.45433e-09
1.45173e-09
1.4584e-09
1.46062e-09
1.47518e-09
1.5315e-09
1.6656e-09
2.01911e-09
2.74504e-09
)
;
    }
}


// ************************************************************************* //
