/*--------------------------------*- C++ -*----------------------------------*\
| =========                 |                                                 |
| \\      /  F ield         | OpenFOAM: The Open Source CFD Toolbox           |
|  \\    /   O peration     | Version:  dev                                   |
|   \\  /    A nd           | Web:      www.OpenFOAM.org                      |
|    \\/     M anipulation  |                                                 |
\*---------------------------------------------------------------------------*/
FoamFile
{
    version     2.0;
    format      ascii;
    class       volScalarField;
    location    "0.185";
    object      A2C2HB;
}
// * * * * * * * * * * * * * * * * * * * * * * * * * * * * * * * * * * * * * //

dimensions      [0 0 0 0 0 0 0];

internalField   nonuniform List<scalar> 
250
(
2.08093e-09
1.15598e-09
8.52963e-10
7.8021e-10
7.62332e-10
7.59158e-10
7.58085e-10
7.5973e-10
7.58286e-10
7.5957e-10
1.85016e-09
1.12265e-09
8.70772e-10
8.068e-10
7.90609e-10
7.8739e-10
7.86422e-10
7.87687e-10
7.86456e-10
7.87593e-10
7.88481e-10
7.84063e-10
7.88246e-10
7.83311e-10
7.86819e-10
7.87651e-10
8.03419e-10
8.87492e-10
1.26724e-09
2.67419e-09
1.66007e-09
1.08842e-09
8.80209e-10
8.24181e-10
8.09711e-10
8.06521e-10
8.05674e-10
8.06596e-10
8.05577e-10
8.06577e-10
8.07188e-10
8.03705e-10
8.06905e-10
8.0315e-10
8.06033e-10
8.07164e-10
8.22162e-10
8.96171e-10
1.24175e-09
2.49724e-09
1.50293e-09
1.05396e-09
8.82641e-10
8.33938e-10
8.21186e-10
8.18128e-10
8.17403e-10
8.18052e-10
8.17222e-10
8.18111e-10
8.18495e-10
8.15794e-10
8.18166e-10
8.15369e-10
8.17712e-10
8.18999e-10
8.32936e-10
8.97028e-10
1.20476e-09
2.30061e-09
1.37317e-09
1.02021e-09
8.80136e-10
8.38296e-10
8.27201e-10
8.24312e-10
8.237e-10
8.24154e-10
8.23481e-10
8.24288e-10
8.24505e-10
8.22398e-10
8.24132e-10
8.22163e-10
8.23956e-10
8.25352e-10
8.3792e-10
8.92482e-10
1.15988e-09
2.09482e-09
1.26665e-09
9.89124e-10
8.74806e-10
8.39228e-10
8.29699e-10
8.27099e-10
8.26586e-10
8.26913e-10
8.26364e-10
8.27114e-10
8.27214e-10
8.25535e-10
8.26803e-10
8.2535e-10
8.26787e-10
8.28113e-10
8.3918e-10
8.84892e-10
1.11108e-09
1.88285e-09
1.17998e-09
9.61352e-10
8.68349e-10
8.38438e-10
8.30346e-10
8.2807e-10
8.27641e-10
8.2789e-10
8.27439e-10
8.28149e-10
8.28169e-10
8.26793e-10
8.27727e-10
8.26645e-10
8.2779e-10
8.29e-10
8.38502e-10
8.76141e-10
1.06202e-09
1.68593e-09
1.11017e-09
9.37343e-10
8.61875e-10
8.37003e-10
8.30199e-10
8.28252e-10
8.27896e-10
8.28095e-10
8.27724e-10
8.28402e-10
8.28367e-10
8.27212e-10
8.27898e-10
8.2709e-10
8.27994e-10
8.29076e-10
8.37049e-10
8.6749e-10
1.01558e-09
1.50479e-09
1.05452e-09
9.17112e-10
8.55969e-10
8.3549e-10
8.2982e-10
8.28185e-10
8.2789e-10
8.28057e-10
8.27753e-10
8.28402e-10
8.28324e-10
8.27341e-10
8.27836e-10
8.27239e-10
8.27937e-10
8.28899e-10
8.35454e-10
8.59638e-10
9.73795e-10
1.34484e-09
1.0107e-09
9.00427e-10
8.50859e-10
8.34127e-10
8.29434e-10
8.28082e-10
8.27839e-10
8.27984e-10
8.27736e-10
8.28358e-10
8.28247e-10
8.274e-10
8.27742e-10
8.27312e-10
8.27837e-10
8.28694e-10
8.33991e-10
8.529e-10
9.37956e-10
1.20963e-09
9.769e-10
8.87041e-10
8.46619e-10
8.32982e-10
8.29108e-10
8.27999e-10
8.27801e-10
8.27929e-10
8.27727e-10
8.28322e-10
8.28187e-10
8.27447e-10
8.27668e-10
8.27367e-10
8.27749e-10
8.28518e-10
8.32752e-10
8.47401e-10
9.08838e-10
1.10119e-09
9.52182e-10
8.76913e-10
8.43327e-10
8.32089e-10
8.28857e-10
8.27942e-10
8.27779e-10
8.27895e-10
8.27729e-10
8.28301e-10
8.28149e-10
8.27486e-10
8.27618e-10
8.27411e-10
8.27683e-10
8.28381e-10
8.31783e-10
8.43241e-10
8.87047e-10
1.02097e-09
9.3712e-10
8.70566e-10
8.41227e-10
8.31519e-10
8.287e-10
8.27911e-10
8.2777e-10
8.27878e-10
8.27735e-10
8.28292e-10
8.2813e-10
8.27512e-10
8.27591e-10
8.27438e-10
8.27642e-10
8.28293e-10
8.31165e-10
8.40663e-10
8.73723e-10
9.72449e-10
)
;

boundaryField
{
    fuel
    {
        type            fixedValue;
        value           nonuniform 0();
    }
    wall
    {
        type            zeroGradient;
    }
    outlet
    {
        type            zeroGradient;
    }
    frontAndBack
    {
        type            empty;
    }
    procBoundary1to0
    {
        type            processor;
        value           nonuniform List<scalar> 
21
(
2.36251e-09
1.18902e-09
8.26679e-10
7.44229e-10
7.24595e-10
7.2147e-10
7.20325e-10
7.22324e-10
7.20701e-10
7.22116e-10
7.60759e-10
7.60759e-10
7.55353e-10
7.60572e-10
7.54364e-10
7.58506e-10
7.58964e-10
7.75283e-10
8.69202e-10
1.27899e-09
2.82327e-09
)
;
    }
}


// ************************************************************************* //
