/*--------------------------------*- C++ -*----------------------------------*\
| =========                 |                                                 |
| \\      /  F ield         | OpenFOAM: The Open Source CFD Toolbox           |
|  \\    /   O peration     | Version:  dev                                   |
|   \\  /    A nd           | Web:      www.OpenFOAM.org                      |
|    \\/     M anipulation  |                                                 |
\*---------------------------------------------------------------------------*/
FoamFile
{
    version     2.0;
    format      ascii;
    class       volScalarField;
    location    "0.185";
    object      A3C2H;
}
// * * * * * * * * * * * * * * * * * * * * * * * * * * * * * * * * * * * * * //

dimensions      [0 0 0 0 0 0 0];

internalField   nonuniform List<scalar> 
250
(
5.67975e-11
2.80846e-11
1.64786e-11
1.40201e-11
1.32073e-11
1.29627e-11
1.29764e-11
1.28538e-11
1.29298e-11
1.28387e-11
4.80645e-11
2.46049e-11
1.48802e-11
1.28721e-11
1.21641e-11
1.19432e-11
1.19653e-11
1.18358e-11
1.19214e-11
1.18221e-11
1.18564e-11
1.18781e-11
1.1866e-11
1.19052e-11
1.19304e-11
1.20688e-11
1.26566e-11
1.45551e-11
2.05627e-11
3.0122e-11
3.98413e-11
2.11901e-11
1.32256e-11
1.16265e-11
1.10192e-11
1.08219e-11
1.08517e-11
1.07184e-11
1.08105e-11
1.07063e-11
1.07418e-11
1.07644e-11
1.075e-11
1.07898e-11
1.08111e-11
1.09327e-11
1.14305e-11
1.29529e-11
1.75983e-11
2.51783e-11
3.23795e-11
1.79341e-11
1.15645e-11
1.03223e-11
9.81232e-12
9.63822e-12
9.67473e-12
9.54211e-12
9.63571e-12
9.53179e-12
9.56681e-12
9.58908e-12
9.57364e-12
9.61202e-12
9.62956e-12
9.73779e-12
1.01507e-11
1.13543e-11
1.49116e-11
2.08649e-11
2.58695e-11
1.49412e-11
9.96929e-12
9.011e-12
8.58845e-12
8.45665e-12
8.47693e-12
8.37223e-12
8.4607e-12
8.3639e-12
8.39626e-12
8.41675e-12
8.4018e-12
8.43651e-12
8.45055e-12
8.53146e-12
8.86383e-12
9.81783e-12
1.2506e-11
1.7154e-11
2.03844e-11
1.23178e-11
8.52995e-12
7.8042e-12
7.46943e-12
7.36347e-12
7.38269e-12
7.29403e-12
7.37028e-12
7.28767e-12
7.31509e-12
7.3324e-12
7.31945e-12
7.3484e-12
7.35951e-12
7.42775e-12
7.68905e-12
8.42525e-12
1.04545e-11
1.4048e-11
1.60683e-11
1.0154e-11
7.33411e-12
6.7824e-12
6.52699e-12
6.44629e-12
6.46114e-12
6.39355e-12
6.45238e-12
6.38897e-12
6.40978e-12
6.42304e-12
6.41319e-12
6.43516e-12
6.44406e-12
6.49844e-12
6.69941e-12
7.26155e-12
8.79396e-12
1.15665e-11
1.28194e-11
8.49699e-12
6.43922e-12
6.01338e-12
5.82543e-12
5.76676e-12
5.77582e-12
5.7299e-12
5.76992e-12
5.72669e-12
5.74058e-12
5.74979e-12
5.74332e-12
5.75842e-12
5.76582e-12
5.80781e-12
5.95952e-12
6.38673e-12
7.55307e-12
9.70215e-12
1.04847e-11
7.32888e-12
5.84856e-12
5.51362e-12
5.37844e-12
5.33645e-12
5.34037e-12
5.31223e-12
5.33627e-12
5.30989e-12
5.31795e-12
5.32398e-12
5.32035e-12
5.32995e-12
5.33642e-12
5.36856e-12
5.48277e-12
5.80926e-12
6.71058e-12
8.39832e-12
8.86438e-12
6.56647e-12
5.50897e-12
5.24195e-12
5.14463e-12
5.1135e-12
5.11421e-12
5.0976e-12
5.11096e-12
5.09566e-12
5.0998e-12
5.10398e-12
5.10213e-12
5.10817e-12
5.11406e-12
5.13912e-12
5.22651e-12
5.48041e-12
6.19047e-12
7.54292e-12
7.76138e-12
6.09452e-12
5.33871e-12
5.12419e-12
5.05238e-12
5.0275e-12
5.0269e-12
5.01616e-12
5.02391e-12
5.01434e-12
5.01633e-12
5.01982e-12
5.01876e-12
5.02294e-12
5.02841e-12
5.04855e-12
5.11858e-12
5.31917e-12
5.89079e-12
7.00071e-12
7.03007e-12
5.81005e-12
5.26045e-12
5.08564e-12
5.03011e-12
5.00856e-12
5.00785e-12
4.99931e-12
5.0049e-12
4.99747e-12
4.9985e-12
5.00204e-12
5.0011e-12
5.00453e-12
5.00964e-12
5.02656e-12
5.08508e-12
5.24866e-12
5.72106e-12
6.6592e-12
6.60377e-12
5.65042e-12
5.22241e-12
5.07267e-12
5.02648e-12
5.00676e-12
5.00617e-12
4.99845e-12
5.00323e-12
4.99657e-12
4.99714e-12
5.00093e-12
4.99989e-12
5.00305e-12
5.00788e-12
5.0229e-12
5.07438e-12
5.21555e-12
5.62634e-12
6.45883e-12
)
;

boundaryField
{
    fuel
    {
        type            fixedValue;
        value           nonuniform 0();
    }
    wall
    {
        type            zeroGradient;
    }
    outlet
    {
        type            zeroGradient;
    }
    frontAndBack
    {
        type            empty;
    }
    procBoundary1to0
    {
        type            processor;
        value           nonuniform List<scalar> 
21
(
6.57904e-11
3.15574e-11
1.79908e-11
1.50524e-11
1.41311e-11
1.38623e-11
1.38675e-11
1.37533e-11
1.38183e-11
1.37369e-11
1.28708e-11
1.28708e-11
1.28909e-11
1.28818e-11
1.2919e-11
1.29478e-11
1.31041e-11
1.37897e-11
1.61274e-11
2.3814e-11
3.57505e-11
)
;
    }
}


// ************************************************************************* //
