/*--------------------------------*- C++ -*----------------------------------*\
| =========                 |                                                 |
| \\      /  F ield         | OpenFOAM: The Open Source CFD Toolbox           |
|  \\    /   O peration     | Version:  dev                                   |
|   \\  /    A nd           | Web:      www.OpenFOAM.org                      |
|    \\/     M anipulation  |                                                 |
\*---------------------------------------------------------------------------*/
FoamFile
{
    version     2.0;
    format      ascii;
    class       volScalarField;
    location    "0.185";
    object      C2H;
}
// * * * * * * * * * * * * * * * * * * * * * * * * * * * * * * * * * * * * * //

dimensions      [0 0 0 0 0 0 0];

internalField   nonuniform List<scalar> 
250
(
5.73939e-08
6.4399e-08
5.26198e-08
5.45515e-08
5.0787e-08
4.89155e-08
4.98509e-08
4.73444e-08
4.92103e-08
4.71884e-08
3.83737e-08
4.27924e-08
3.41414e-08
3.54798e-08
3.28617e-08
3.15643e-08
3.22511e-08
3.04642e-08
3.18112e-08
3.03545e-08
3.08014e-08
3.11511e-08
3.08449e-08
3.13621e-08
3.13925e-08
3.17758e-08
3.34287e-08
3.48455e-08
3.41776e-08
3.21972e-08
2.4147e-08
2.67563e-08
2.0837e-08
2.17189e-08
2.00152e-08
1.91654e-08
1.96433e-08
1.84431e-08
1.93557e-08
1.83721e-08
1.86777e-08
1.89073e-08
1.87044e-08
1.9046e-08
1.90599e-08
1.932e-08
2.04106e-08
2.1414e-08
2.13269e-08
2.08795e-08
1.41651e-08
1.55865e-08
1.18412e-08
1.2391e-08
1.13657e-08
1.08377e-08
1.11569e-08
1.03974e-08
1.09725e-08
1.03555e-08
1.05493e-08
1.06896e-08
1.05646e-08
1.07735e-08
1.07786e-08
1.09591e-08
1.16179e-08
1.22544e-08
1.23807e-08
1.25471e-08
7.63912e-09
8.34219e-09
6.17449e-09
6.45275e-09
5.86983e-09
5.62302e-09
5.75758e-09
5.37798e-09
5.71077e-09
5.35575e-09
5.46829e-09
5.54705e-09
5.47628e-09
5.59321e-09
5.59424e-09
5.66486e-09
6.02166e-09
6.43556e-09
6.5654e-09
6.89143e-09
3.68591e-09
4.01774e-09
2.89115e-09
3.03247e-09
2.74214e-09
2.61901e-09
2.69028e-09
2.4961e-09
2.6694e-09
2.48559e-09
2.5443e-09
2.5841e-09
2.54807e-09
2.60673e-09
2.60646e-09
2.64762e-09
2.82135e-09
3.03622e-09
3.1335e-09
3.38859e-09
1.55715e-09
1.68621e-09
1.17541e-09
1.23836e-09
1.11189e-09
1.05848e-09
1.09128e-09
1.00462e-09
1.0833e-09
1.00033e-09
1.02699e-09
1.04453e-09
1.02854e-09
1.05412e-09
1.05368e-09
1.07289e-09
1.14769e-09
1.24473e-09
1.29823e-09
1.44596e-09
5.45813e-10
5.86263e-10
3.9373e-10
4.17165e-10
3.71275e-10
3.52181e-10
3.64606e-10
3.32589e-10
3.62175e-10
3.31153e-10
3.41164e-10
3.47563e-10
3.41684e-10
3.50899e-10
3.50634e-10
3.57854e-10
3.84619e-10
4.21009e-10
4.43315e-10
5.09097e-10
1.46601e-10
1.56213e-10
1.0049e-10
1.07249e-10
9.44288e-11
8.92557e-11
9.2817e-11
8.37987e-11
9.22816e-11
8.34334e-11
8.62954e-11
8.80789e-11
8.64273e-11
8.89601e-11
8.88547e-11
9.09216e-11
9.82091e-11
1.08691e-10
1.15363e-10
1.36796e-10
2.72166e-11
2.88147e-11
1.77394e-11
1.90961e-11
1.66186e-11
1.56681e-11
1.63578e-11
1.46232e-11
1.62834e-11
1.45591e-11
1.51168e-11
1.5458e-11
1.51393e-11
1.56174e-11
1.55899e-11
1.60002e-11
1.73463e-11
1.9433e-11
2.07261e-11
2.53587e-11
3.12219e-12
3.28963e-12
1.93506e-12
2.10402e-12
1.80672e-12
1.70106e-12
1.78129e-12
1.57792e-12
1.77578e-12
1.57079e-12
1.63686e-12
1.6771e-12
1.63918e-12
1.69489e-12
1.6905e-12
1.74114e-12
1.89277e-12
2.15033e-12
2.29822e-12
2.90255e-12
2.02831e-13
2.13852e-13
1.20416e-13
1.32537e-13
1.1214e-13
1.05683e-13
1.1074e-13
9.74947e-14
1.10562e-13
9.70144e-14
1.0134e-13
1.04035e-13
1.01465e-13
1.05173e-13
1.0476e-13
1.08328e-13
1.17828e-13
1.35934e-13
1.44867e-13
1.88432e-13
8.14215e-15
8.59898e-15
4.68631e-15
5.2123e-15
4.35432e-15
4.11289e-15
4.30543e-15
3.77792e-15
4.30443e-15
3.75688e-15
3.93032e-15
4.04073e-15
3.93449e-15
4.08632e-15
4.06492e-15
4.21821e-15
4.58431e-15
5.35892e-15
5.68284e-15
7.55559e-15
)
;

boundaryField
{
    fuel
    {
        type            fixedValue;
        value           nonuniform 0();
    }
    wall
    {
        type            zeroGradient;
    }
    outlet
    {
        type            zeroGradient;
    }
    frontAndBack
    {
        type            empty;
    }
    procBoundary1to0
    {
        type            processor;
        value           nonuniform List<scalar> 
21
(
8.13608e-08
9.18902e-08
7.68694e-08
7.95406e-08
7.44402e-08
7.18766e-08
7.30873e-08
6.9756e-08
7.22018e-08
6.95519e-08
4.77997e-08
4.77997e-08
4.83003e-08
4.78665e-08
4.85986e-08
4.8656e-08
4.91951e-08
5.1538e-08
5.33378e-08
5.14601e-08
4.64531e-08
)
;
    }
}


// ************************************************************************* //
