/*--------------------------------*- C++ -*----------------------------------*\
| =========                 |                                                 |
| \\      /  F ield         | OpenFOAM: The Open Source CFD Toolbox           |
|  \\    /   O peration     | Version:  dev                                   |
|   \\  /    A nd           | Web:      www.OpenFOAM.org                      |
|    \\/     M anipulation  |                                                 |
\*---------------------------------------------------------------------------*/
FoamFile
{
    version     2.0;
    format      ascii;
    class       volScalarField;
    location    "0.185";
    object      H2O;
}
// * * * * * * * * * * * * * * * * * * * * * * * * * * * * * * * * * * * * * //

dimensions      [0 0 0 0 0 0 0];

internalField   nonuniform List<scalar> 
250
(
0.0585156
0.0582779
0.0581188
0.0580185
0.0579788
0.0579654
0.0579631
0.0579588
0.0579591
0.0579573
0.0584019
0.0581877
0.0580454
0.0579576
0.0579221
0.0579101
0.0579077
0.0579038
0.0579039
0.0579022
0.0578987
0.057907
0.0579005
0.0579124
0.0579094
0.05793
0.0579701
0.0580491
0.0582697
0.0584783
0.0583019
0.0581116
0.0579854
0.0579094
0.0578779
0.0578671
0.0578647
0.0578612
0.0578612
0.0578595
0.0578567
0.0578635
0.0578584
0.0578683
0.0578661
0.0578838
0.0579181
0.0579883
0.0581783
0.0583688
0.0582159
0.0580489
0.057938
0.0578729
0.0578452
0.0578357
0.0578332
0.0578301
0.0578299
0.0578283
0.0578261
0.0578316
0.0578278
0.0578358
0.0578343
0.0578495
0.0578783
0.0579402
0.0581015
0.0582732
0.0581431
0.057998
0.0579019
0.0578462
0.0578222
0.057814
0.0578116
0.0578089
0.0578085
0.057807
0.0578053
0.0578096
0.057807
0.057813
0.0578125
0.057825
0.0578491
0.0579034
0.0580386
0.0581911
0.0580824
0.0579579
0.0578752
0.0578283
0.0578075
0.0578003
0.0577979
0.0577955
0.0577951
0.0577936
0.0577924
0.0577957
0.057794
0.0577987
0.0577987
0.0578092
0.0578292
0.0578761
0.0579879
0.0581194
0.0580321
0.0579263
0.0578558
0.0578165
0.0577987
0.0577925
0.0577901
0.057788
0.0577875
0.0577861
0.0577852
0.0577878
0.0577868
0.0577904
0.0577909
0.0577996
0.0578162
0.0578562
0.0579476
0.0580606
0.0579903
0.0579012
0.0578418
0.0578091
0.0577939
0.0577884
0.0577862
0.0577843
0.0577838
0.0577824
0.0577818
0.0577839
0.0577833
0.0577862
0.0577869
0.0577941
0.0578079
0.0578416
0.0579155
0.058011
0.0579554
0.0578809
0.0578312
0.0578042
0.0577914
0.0577866
0.0577845
0.0577828
0.0577823
0.0577809
0.0577805
0.0577822
0.057782
0.0577843
0.0577852
0.0577912
0.0578025
0.0578306
0.0578898
0.0579692
0.0579262
0.0578641
0.0578229
0.0578006
0.0577899
0.0577857
0.0577839
0.0577823
0.0577818
0.0577805
0.0577802
0.0577816
0.0577816
0.0577835
0.0577844
0.0577894
0.0577988
0.057822
0.0578689
0.0579342
0.0579019
0.0578503
0.0578161
0.0577978
0.0577889
0.0577852
0.0577835
0.0577821
0.0577816
0.0577803
0.0577802
0.0577814
0.0577815
0.057783
0.0577841
0.0577882
0.057796
0.0578151
0.0578521
0.0579054
0.0578829
0.0578395
0.0578109
0.0577957
0.0577881
0.0577849
0.0577833
0.057782
0.0577815
0.0577803
0.0577802
0.0577813
0.0577815
0.0577828
0.0577839
0.0577874
0.057794
0.0578098
0.0578393
0.0578833
0.0578707
0.0578326
0.0578075
0.0577943
0.0577876
0.0577846
0.0577832
0.057782
0.0577815
0.0577803
0.0577802
0.0577812
0.0577815
0.0577827
0.0577838
0.0577868
0.0577927
0.0578064
0.0578313
0.0578692
)
;

boundaryField
{
    fuel
    {
        type            fixedValue;
        value           nonuniform 0();
    }
    wall
    {
        type            zeroGradient;
    }
    outlet
    {
        type            zeroGradient;
    }
    frontAndBack
    {
        type            empty;
    }
    procBoundary1to0
    {
        type            processor;
        value           nonuniform List<scalar> 
21
(
0.0586427
0.0583818
0.0582056
0.0580923
0.0580482
0.0580335
0.0580313
0.0580267
0.0580271
0.0580252
0.0579532
0.0579532
0.0579629
0.057955
0.0579692
0.0579652
0.0579889
0.0580355
0.0581234
0.0583759
0.0586009
)
;
    }
}


// ************************************************************************* //
