/*--------------------------------*- C++ -*----------------------------------*\
| =========                 |                                                 |
| \\      /  F ield         | OpenFOAM: The Open Source CFD Toolbox           |
|  \\    /   O peration     | Version:  dev                                   |
|   \\  /    A nd           | Web:      www.OpenFOAM.org                      |
|    \\/     M anipulation  |                                                 |
\*---------------------------------------------------------------------------*/
FoamFile
{
    version     2.0;
    format      ascii;
    class       volScalarField;
    location    "0.185";
    object      HCO;
}
// * * * * * * * * * * * * * * * * * * * * * * * * * * * * * * * * * * * * * //

dimensions      [0 0 0 0 0 0 0];

internalField   nonuniform List<scalar> 
250
(
1.75688e-08
1.90885e-08
2.03943e-08
2.012e-08
2.00255e-08
1.98853e-08
1.99045e-08
1.97803e-08
1.98413e-08
1.97827e-08
1.57142e-08
1.67525e-08
1.7743e-08
1.74732e-08
1.73886e-08
1.72651e-08
1.7283e-08
1.71751e-08
1.72293e-08
1.71785e-08
1.70878e-08
1.73821e-08
1.71013e-08
1.74727e-08
1.73056e-08
1.75744e-08
1.79559e-08
1.75389e-08
1.84775e-08
1.68209e-08
1.40155e-08
1.47238e-08
1.54801e-08
1.52339e-08
1.51603e-08
1.5051e-08
1.50673e-08
1.49745e-08
1.50221e-08
1.49785e-08
1.48998e-08
1.51545e-08
1.49113e-08
1.52336e-08
1.50847e-08
1.53155e-08
1.56347e-08
1.52842e-08
1.61032e-08
1.47316e-08
1.25227e-08
1.3016e-08
1.35984e-08
1.3388e-08
1.33228e-08
1.32243e-08
1.32388e-08
1.31594e-08
1.32009e-08
1.31636e-08
1.30954e-08
1.33153e-08
1.31054e-08
1.339e-08
1.32522e-08
1.34554e-08
1.37183e-08
1.34189e-08
1.41182e-08
1.29795e-08
1.12642e-08
1.16032e-08
1.20748e-08
1.18704e-08
1.18177e-08
1.17539e-08
1.17667e-08
1.16985e-08
1.17348e-08
1.17027e-08
1.16432e-08
1.18343e-08
1.16519e-08
1.18711e-08
1.17762e-08
1.19273e-08
1.21522e-08
1.19151e-08
1.25077e-08
1.15646e-08
1.02484e-08
1.04966e-08
1.08761e-08
1.06987e-08
1.06492e-08
1.05984e-08
1.06099e-08
1.05501e-08
1.05825e-08
1.05543e-08
1.05011e-08
1.06708e-08
1.0509e-08
1.07013e-08
1.06163e-08
1.07487e-08
1.0937e-08
1.07351e-08
1.12429e-08
1.04122e-08
9.46024e-09
9.64159e-09
9.95358e-09
9.79379e-09
9.74765e-09
9.70347e-09
9.71427e-09
9.66e-09
9.68986e-09
9.66425e-09
9.61477e-09
9.77148e-09
9.6221e-09
9.79765e-09
9.71819e-09
9.83883e-09
1.00018e-08
9.82633e-09
1.02807e-08
9.57303e-09
8.8566e-09
8.97643e-09
9.23963e-09
9.08446e-09
9.03988e-09
8.99797e-09
9.00915e-09
8.95722e-09
8.98617e-09
8.96159e-09
8.91281e-09
9.06625e-09
8.91975e-09
9.08923e-09
9.01054e-09
9.12629e-09
9.27537e-09
9.11784e-09
9.55736e-09
8.94639e-09
8.38025e-09
8.4404e-09
8.67046e-09
8.51115e-09
8.46759e-09
8.42533e-09
8.43778e-09
8.38619e-09
8.41533e-09
8.39083e-09
8.34082e-09
8.49735e-09
8.34735e-09
8.51774e-09
8.43652e-09
8.55149e-09
8.69421e-09
8.54724e-09
9.00065e-09
8.46289e-09
8.13356e-09
8.16432e-09
8.37449e-09
8.21955e-09
8.1782e-09
8.1372e-09
8.15038e-09
8.09999e-09
8.12893e-09
8.10479e-09
8.05433e-09
8.21152e-09
8.06047e-09
8.22962e-09
8.14671e-09
8.2602e-09
8.39273e-09
8.25524e-09
8.70441e-09
8.21878e-09
8.58221e-09
8.56829e-09
8.75594e-09
8.58193e-09
8.53193e-09
8.48609e-09
8.50093e-09
8.44582e-09
8.47767e-09
8.45017e-09
8.39132e-09
8.57314e-09
8.39747e-09
8.59048e-09
8.49217e-09
8.62288e-09
8.75825e-09
8.63476e-09
9.13531e-09
8.7008e-09
1.05717e-08
1.04906e-08
1.06429e-08
1.04353e-08
1.0358e-08
1.03056e-08
1.03204e-08
1.02553e-08
1.02933e-08
1.02572e-08
1.01809e-08
1.04155e-08
1.01883e-08
1.04354e-08
1.03019e-08
1.0479e-08
1.0619e-08
1.05305e-08
1.11569e-08
1.08087e-08
2.53642e-08
2.50226e-08
2.50989e-08
2.46177e-08
2.43417e-08
2.42262e-08
2.42474e-08
2.40917e-08
2.41784e-08
2.40866e-08
2.38666e-08
2.45218e-08
2.38812e-08
2.4572e-08
2.41704e-08
2.47013e-08
2.49613e-08
2.49737e-08
2.6545e-08
2.64242e-08
)
;

boundaryField
{
    fuel
    {
        type            fixedValue;
        value           nonuniform 0();
    }
    wall
    {
        type            zeroGradient;
    }
    outlet
    {
        type            zeroGradient;
    }
    frontAndBack
    {
        type            empty;
    }
    procBoundary1to0
    {
        type            processor;
        value           nonuniform List<scalar> 
21
(
1.95104e-08
2.16989e-08
2.34228e-08
2.31745e-08
2.30723e-08
2.29154e-08
2.29354e-08
2.27946e-08
2.28621e-08
2.27955e-08
1.96791e-08
1.96791e-08
2.00162e-08
1.96949e-08
2.01229e-08
1.99337e-08
2.02473e-08
2.0696e-08
2.01961e-08
2.12391e-08
1.92355e-08
)
;
    }
}


// ************************************************************************* //
