/*--------------------------------*- C++ -*----------------------------------*\
| =========                 |                                                 |
| \\      /  F ield         | OpenFOAM: The Open Source CFD Toolbox           |
|  \\    /   O peration     | Version:  dev                                   |
|   \\  /    A nd           | Web:      www.OpenFOAM.org                      |
|    \\/     M anipulation  |                                                 |
\*---------------------------------------------------------------------------*/
FoamFile
{
    version     2.0;
    format      ascii;
    class       volScalarField;
    location    "0.185";
    object      n-C6H7;
}
// * * * * * * * * * * * * * * * * * * * * * * * * * * * * * * * * * * * * * //

dimensions      [0 0 0 0 0 0 0];

internalField   nonuniform List<scalar> 
250
(
2.04285e-14
1.67675e-14
1.24186e-14
1.2349e-14
1.15484e-14
1.11798e-14
1.13461e-14
1.08827e-14
1.12259e-14
1.08533e-14
1.40149e-14
1.17461e-14
8.61095e-15
8.63122e-15
8.03406e-15
7.75828e-15
7.89281e-15
7.53039e-15
7.80253e-15
7.50783e-15
7.59906e-15
7.6681e-15
7.60743e-15
7.71271e-15
7.7211e-15
7.81316e-15
8.20356e-15
8.68894e-15
9.18819e-15
9.96914e-15
9.06227e-15
7.7703e-15
5.67068e-15
5.72476e-15
5.31572e-15
5.12491e-15
5.22476e-15
4.96564e-15
5.16146e-15
4.95006e-15
5.01596e-15
5.06444e-15
5.02127e-15
5.09565e-15
5.09986e-15
5.16434e-15
5.43122e-15
5.75801e-15
6.07696e-15
6.63595e-15
5.57485e-15
4.9076e-15
3.62993e-15
3.68381e-15
3.43269e-15
3.31254e-15
3.37962e-15
3.21376e-15
3.33717e-15
3.2041e-15
3.24564e-15
3.27578e-15
3.24869e-15
3.29532e-15
3.29715e-15
3.34101e-15
3.50373e-15
3.70086e-15
3.89187e-15
4.25459e-15
3.40347e-15
3.10214e-15
2.42069e-15
2.4506e-15
2.3131e-15
2.25875e-15
2.28401e-15
2.20653e-15
2.27044e-15
2.20106e-15
2.22248e-15
2.23838e-15
2.22406e-15
2.24922e-15
2.24998e-15
2.26741e-15
2.35181e-15
2.46447e-15
2.55743e-15
2.76035e-15
2.27741e-15
2.18351e-15
1.88307e-15
1.89958e-15
1.83694e-15
1.81349e-15
1.82188e-15
1.79052e-15
1.81435e-15
1.78731e-15
1.79529e-15
1.80208e-15
1.79608e-15
1.8077e-15
1.80822e-15
1.81705e-15
1.85368e-15
1.90218e-15
1.934e-15
2.00868e-15
1.89333e-15
1.90411e-15
1.80976e-15
1.81847e-15
1.79483e-15
1.78617e-15
1.78567e-15
1.77794e-15
1.78036e-15
1.77562e-15
1.7766e-15
1.77869e-15
1.77703e-15
1.78193e-15
1.78261e-15
1.78594e-15
1.79955e-15
1.81243e-15
1.80767e-15
1.79783e-15
2.0146e-15
2.07829e-15
2.10589e-15
2.1068e-15
2.10964e-15
2.10963e-15
2.10277e-15
2.11233e-15
2.09782e-15
2.11047e-15
2.10589e-15
2.10442e-15
2.10602e-15
2.10623e-15
2.10738e-15
2.10589e-15
2.10557e-15
2.09314e-15
2.06457e-15
1.99272e-15
2.91045e-15
3.00998e-15
3.24596e-15
3.22038e-15
3.28138e-15
3.30093e-15
3.27648e-15
3.3318e-15
3.27038e-15
3.33064e-15
3.31006e-15
3.29969e-15
3.30946e-15
3.29842e-15
3.30087e-15
3.28728e-15
3.25716e-15
3.19067e-15
3.12141e-15
2.93266e-15
7.06064e-15
7.24992e-15
8.17485e-15
8.04727e-15
8.30417e-15
8.37976e-15
8.29573e-15
8.50388e-15
8.2804e-15
8.50299e-15
8.42724e-15
8.38908e-15
8.42531e-15
8.37936e-15
8.38745e-15
8.33192e-15
8.21208e-15
7.95961e-15
7.7613e-15
7.15825e-15
2.97989e-14
3.02793e-14
3.32791e-14
3.27449e-14
3.35873e-14
3.36969e-14
3.34966e-14
3.40465e-14
3.34208e-14
3.40329e-14
3.38273e-14
3.37346e-14
3.38327e-14
3.37141e-14
3.37562e-14
3.3573e-14
3.33089e-14
3.24799e-14
3.1986e-14
2.99595e-14
1.73573e-13
1.73715e-13
1.78663e-13
1.7631e-13
1.7806e-13
1.76771e-13
1.77178e-13
1.76918e-13
1.76723e-13
1.7677e-13
1.76792e-13
1.76896e-13
1.76936e-13
1.76981e-13
1.77284e-13
1.76882e-13
1.77725e-13
1.75938e-13
1.76322e-13
1.7144e-13
1.35709e-12
1.33746e-12
1.31957e-12
1.30194e-12
1.30329e-12
1.28363e-12
1.29491e-12
1.27646e-12
1.29138e-12
1.27518e-12
1.28125e-12
1.2847e-12
1.28297e-12
1.28618e-12
1.28919e-12
1.28871e-12
1.30638e-12
1.30507e-12
1.32473e-12
1.31945e-12
)
;

boundaryField
{
    fuel
    {
        type            fixedValue;
        value           nonuniform 0();
    }
    wall
    {
        type            zeroGradient;
    }
    outlet
    {
        type            zeroGradient;
    }
    frontAndBack
    {
        type            empty;
    }
    procBoundary1to0
    {
        type            processor;
        value           nonuniform List<scalar> 
21
(
2.80585e-14
2.26307e-14
1.69587e-14
1.67285e-14
1.57226e-14
1.52641e-14
1.54526e-14
1.49045e-14
1.53034e-14
1.48692e-14
1.09673e-14
1.09673e-14
1.10571e-14
1.09795e-14
1.1115e-14
1.11292e-14
1.12525e-14
1.17773e-14
1.24502e-14
1.32021e-14
1.42475e-14
)
;
    }
}


// ************************************************************************* //
