/*--------------------------------*- C++ -*----------------------------------*\
| =========                 |                                                 |
| \\      /  F ield         | OpenFOAM: The Open Source CFD Toolbox           |
|  \\    /   O peration     | Version:  dev                                   |
|   \\  /    A nd           | Web:      www.OpenFOAM.org                      |
|    \\/     M anipulation  |                                                 |
\*---------------------------------------------------------------------------*/
FoamFile
{
    version     2.0;
    format      ascii;
    class       volScalarField;
    location    "0.185";
    object      P2;
}
// * * * * * * * * * * * * * * * * * * * * * * * * * * * * * * * * * * * * * //

dimensions      [0 0 0 0 0 0 0];

internalField   nonuniform List<scalar> 
50
(
3.36514e-19
2.89309e-19
2.49045e-19
2.147e-19
1.85407e-19
1.60419e-19
1.39095e-19
1.20882e-19
1.05309e-19
9.197e-20
8.05227e-20
7.06763e-20
6.21851e-20
5.48426e-20
4.84753e-20
4.29377e-20
3.81078e-20
3.38831e-20
3.01778e-20
2.69198e-20
2.4048e-20
2.15112e-20
1.92658e-20
1.72746e-20
1.55061e-20
1.39329e-20
1.25317e-20
1.12824e-20
1.01672e-20
9.17086e-21
8.28001e-21
7.48287e-21
6.76908e-21
6.12951e-21
5.55609e-21
5.04167e-21
4.57989e-21
4.16514e-21
3.7924e-21
3.45722e-21
3.1556e-21
2.88397e-21
2.63911e-21
2.42135e-21
2.22335e-21
2.04376e-21
1.88165e-21
1.73509e-21
1.60226e-21
1.48135e-21
)
;

boundaryField
{
    wall
    {
        type            zeroGradient;
    }
    fuel
    {
        type            fixedValue;
        value           nonuniform 0();
    }
    outlet
    {
        type            inletOutlet;
        inletValue      nonuniform 0();
        value           nonuniform 0();
    }
    procBoundary1to0
    {
        type            processor;
        value           uniform 3.93041e-19;
    }
    procBoundary1to2
    {
        type            processor;
        value           uniform 1.37075e-21;
    }
}


// ************************************************************************* //
