/*--------------------------------*- C++ -*----------------------------------*\
| =========                 |                                                 |
| \\      /  F ield         | OpenFOAM: The Open Source CFD Toolbox           |
|  \\    /   O peration     | Version:  dev                                   |
|   \\  /    A nd           | Web:      www.OpenFOAM.org                      |
|    \\/     M anipulation  |                                                 |
\*---------------------------------------------------------------------------*/
FoamFile
{
    version     2.0;
    format      ascii;
    class       volScalarField;
    location    "0";
    object      A1C2H-;
}
// * * * * * * * * * * * * * * * * * * * * * * * * * * * * * * * * * * * * * //

dimensions      [0 0 0 0 0 0 0];

internalField   nonuniform List<scalar> 
250
(
5.02589e-07
5.0258e-07
5.02643e-07
5.02617e-07
5.02653e-07
5.02628e-07
5.02764e-07
5.03099e-07
5.03923e-07
4.85827e-07
4.69312e-09
6.64417e-07
6.64384e-07
6.64468e-07
6.64411e-07
6.64428e-07
6.64466e-07
6.64835e-07
6.67412e-07
6.86197e-07
8.08967e-07
4.93764e-09
4.43793e-07
4.43767e-07
4.43848e-07
4.43758e-07
4.43776e-07
4.43828e-07
4.44249e-07
4.47398e-07
4.70494e-07
6.47904e-07
2.45868e-09
2.62868e-07
2.62863e-07
2.62929e-07
2.62831e-07
2.62829e-07
2.62898e-07
2.63283e-07
2.66145e-07
2.86577e-07
4.55886e-07
1.09196e-09
1.58157e-07
1.58173e-07
1.5822e-07
1.58125e-07
1.58082e-07
1.58189e-07
1.58525e-07
1.60968e-07
1.77814e-07
3.22902e-07
5.45049e-10
1.00359e-07
1.00389e-07
1.00422e-07
1.00334e-07
1.00251e-07
1.00396e-07
1.00695e-07
1.0281e-07
1.16734e-07
2.37448e-07
3.24812e-10
6.74704e-08
6.75175e-08
6.75394e-08
6.74497e-08
6.73202e-08
6.75215e-08
6.77914e-08
6.97148e-08
8.14847e-08
1.81291e-07
2.31468e-10
4.78349e-08
4.7881e-08
4.78957e-08
4.7819e-08
4.77262e-08
4.78862e-08
4.81104e-08
4.98557e-08
6.023e-08
1.42774e-07
2.06588e-10
3.56592e-08
3.56929e-08
3.57027e-08
3.56457e-08
3.56374e-08
3.57017e-08
3.58443e-08
3.68045e-08
4.58495e-08
1.15219e-07
2.29834e-10
2.72376e-08
2.72675e-08
2.72748e-08
2.72161e-08
2.73066e-08
2.72896e-08
2.74478e-08
2.86424e-08
3.56393e-08
9.47723e-08
2.9168e-10
2.15024e-08
2.15077e-08
2.14424e-08
2.15353e-08
2.15294e-08
2.16729e-08
2.27494e-08
2.93518e-08
7.91473e-08
4.83593e-10
1.75123e-08
1.75169e-08
1.74362e-08
1.74745e-08
1.75438e-08
1.7681e-08
1.86721e-08
2.45263e-08
6.68936e-08
8.75649e-10
1.46422e-08
1.46469e-08
1.45427e-08
1.48655e-08
1.468e-08
1.48105e-08
1.57245e-08
2.06851e-08
5.70929e-08
1.41846e-09
1.24967e-08
1.25025e-08
1.23582e-08
1.26542e-08
1.25378e-08
1.26644e-08
1.35105e-08
1.80378e-08
4.84861e-08
2.07289e-09
1.08353e-08
1.08434e-08
1.08616e-08
1.09423e-08
1.08784e-08
1.10021e-08
1.17868e-08
1.56354e-08
4.0746e-08
2.82442e-09
9.50915e-09
9.51921e-09
9.52076e-09
9.58319e-09
9.55365e-09
9.67439e-09
1.04023e-08
1.36526e-08
3.5117e-08
3.61586e-09
8.4235e-09
8.43523e-09
8.42036e-09
8.47879e-09
8.46916e-09
8.58627e-09
9.26036e-09
1.20044e-08
3.02449e-08
4.36817e-09
7.51664e-09
7.52968e-09
7.49462e-09
7.56201e-09
7.56309e-09
7.67577e-09
8.298e-09
1.06177e-08
2.60495e-08
5.03707e-09
6.74722e-09
6.76121e-09
6.69732e-09
6.78759e-09
6.79394e-09
6.90146e-09
7.4732e-09
9.43948e-09
2.2483e-08
5.61726e-09
6.08668e-09
6.10154e-09
6.0841e-09
6.12517e-09
6.13305e-09
6.23486e-09
6.75687e-09
8.4296e-09
1.91416e-08
6.12116e-09
5.51453e-09
5.53001e-09
5.54033e-09
5.55221e-09
5.55987e-09
5.65561e-09
6.12488e-09
7.56114e-09
1.63012e-08
6.5631e-09
5.01472e-09
5.03084e-09
5.03509e-09
5.05173e-09
5.05865e-09
5.14825e-09
5.57483e-09
6.81152e-09
1.39876e-08
6.94e-09
4.62338e-09
4.64203e-09
4.64343e-09
4.66157e-09
4.66779e-09
4.75138e-09
5.13562e-09
6.16384e-09
1.2013e-08
7.23552e-09
4.26389e-09
4.27826e-09
4.27692e-09
4.29655e-09
4.30184e-09
4.38063e-09
4.7393e-09
5.59979e-09
1.0393e-08
7.42634e-09
)
;

boundaryField
{
    fuel
    {
        type            fixedValue;
        value           uniform 0;
    }
    wall
    {
        type            zeroGradient;
    }
    outlet
    {
        type            zeroGradient;
    }
    frontAndBack
    {
        type            empty;
    }
    procBoundary3to0
    {
        type            processor;
        value           nonuniform List<scalar> 10(3.96603e-09 3.98244e-09 3.97949e-09 3.99909e-09 4.0038e-09 4.07639e-09 4.40199e-09 5.15886e-09 9.06814e-09 7.484e-09);
    }
    procBoundary3to2
    {
        type            processor;
        value           nonuniform List<scalar> 
25
(
5.0264e-07
6.64481e-07
4.43873e-07
2.62964e-07
1.58257e-07
1.00455e-07
6.75675e-08
4.79186e-08
3.57221e-08
2.72878e-08
2.14744e-08
2.14744e-08
1.7486e-08
1.46211e-08
1.24817e-08
1.08254e-08
9.50244e-09
8.41843e-09
7.51232e-09
6.74337e-09
6.08335e-09
5.51191e-09
5.0133e-09
4.62478e-09
4.26038e-09
)
;
    }
}


// ************************************************************************* //
