/*--------------------------------*- C++ -*----------------------------------*\
| =========                 |                                                 |
| \\      /  F ield         | OpenFOAM: The Open Source CFD Toolbox           |
|  \\    /   O peration     | Version:  dev                                   |
|   \\  /    A nd           | Web:      www.OpenFOAM.org                      |
|    \\/     M anipulation  |                                                 |
\*---------------------------------------------------------------------------*/
FoamFile
{
    version     2.0;
    format      ascii;
    class       volScalarField;
    location    "0";
    object      A2C2HA*;
}
// * * * * * * * * * * * * * * * * * * * * * * * * * * * * * * * * * * * * * //

dimensions      [0 0 0 0 0 0 0];

internalField   nonuniform List<scalar> 
250
(
7.72445e-10
7.72412e-10
7.72537e-10
7.72502e-10
7.72523e-10
7.72511e-10
7.72916e-10
7.75252e-10
7.9225e-10
8.84108e-10
7.68122e-12
6.42496e-10
6.42433e-10
6.42536e-10
6.42489e-10
6.4246e-10
6.42553e-10
6.43161e-10
6.48364e-10
6.91772e-10
1.08273e-09
5.81447e-12
2.96578e-10
2.96543e-10
2.96613e-10
2.9655e-10
2.96543e-10
2.96611e-10
2.97062e-10
3.00896e-10
3.3301e-10
6.68276e-10
1.9126e-12
1.40544e-10
1.40536e-10
1.40579e-10
1.40521e-10
1.4051e-10
1.4057e-10
1.40884e-10
1.43458e-10
1.64879e-10
4.08735e-10
5.92088e-13
7.5504e-11
7.55104e-11
7.55369e-11
7.5486e-11
7.54564e-11
7.55267e-11
7.5759e-11
7.75902e-11
9.27304e-11
2.73423e-10
2.39193e-13
4.57548e-11
4.57691e-11
4.5786e-11
4.57414e-11
4.56947e-11
4.57776e-11
4.59639e-11
4.73797e-11
5.89258e-11
1.9826e-10
1.29111e-13
3.05009e-11
3.05233e-11
3.05344e-11
3.04902e-11
3.0424e-11
3.05289e-11
3.06869e-11
3.18791e-11
4.12575e-11
1.52054e-10
8.86968e-14
2.18596e-11
2.18818e-11
2.18893e-11
2.18517e-11
2.18037e-11
2.18872e-11
2.20161e-11
2.30524e-11
3.11037e-11
1.20987e-10
7.86204e-14
1.66009e-11
1.6618e-11
1.66231e-11
1.65944e-11
1.65856e-11
1.66245e-11
1.67124e-11
1.73614e-11
2.43227e-11
9.8586e-11
9.23303e-14
1.29507e-11
1.29665e-11
1.29703e-11
1.2941e-11
1.29774e-11
1.29786e-11
1.30692e-11
1.37896e-11
1.94386e-11
8.15591e-11
1.38443e-13
1.04211e-11
1.0424e-11
1.03917e-11
1.04308e-11
1.04354e-11
1.05165e-11
1.11616e-11
1.63327e-11
6.81263e-11
2.59983e-13
8.61317e-12
8.61565e-12
8.57616e-12
8.59244e-12
8.62945e-12
8.70552e-12
9.29429e-12
1.38459e-11
5.72364e-11
4.75182e-13
7.27646e-12
7.27906e-12
7.22815e-12
7.37993e-12
7.29578e-12
7.36698e-12
7.90531e-12
1.17723e-11
4.82607e-11
7.54079e-13
6.25151e-12
6.25468e-12
6.1841e-12
6.32601e-12
6.27254e-12
6.34057e-12
6.83414e-12
1.02796e-11
4.01857e-11
1.09951e-12
5.44018e-12
5.44451e-12
5.45314e-12
5.49188e-12
5.46236e-12
5.528e-12
5.98085e-12
8.87704e-12
3.28221e-11
1.53745e-12
4.78006e-12
4.78547e-12
4.78577e-12
4.81667e-12
4.80322e-12
4.86669e-12
5.28225e-12
7.69168e-12
2.74542e-11
2.06272e-12
4.23009e-12
4.23649e-12
4.22832e-12
4.25814e-12
4.25419e-12
4.31537e-12
4.69647e-12
6.69025e-12
2.28434e-11
2.62958e-12
3.76245e-12
3.76971e-12
3.75087e-12
3.78615e-12
3.7874e-12
3.84609e-12
4.19515e-12
5.83996e-12
1.89413e-11
3.18414e-12
3.35787e-12
3.36587e-12
3.33157e-12
3.37963e-12
3.38347e-12
3.43947e-12
3.75853e-12
5.11462e-12
1.57117e-11
3.68273e-12
3.0027e-12
3.01145e-12
3.00176e-12
3.02411e-12
3.02867e-12
3.08181e-12
3.37239e-12
4.49184e-12
1.27945e-11
4.09594e-12
2.68697e-12
2.69641e-12
2.70175e-12
2.70859e-12
2.71301e-12
2.76318e-12
3.02441e-12
3.9563e-12
1.04187e-11
4.40846e-12
2.40294e-12
2.41313e-12
2.41475e-12
2.42481e-12
2.42883e-12
2.47603e-12
2.71405e-12
3.49332e-12
8.57203e-12
4.60803e-12
2.17309e-12
2.18513e-12
2.18481e-12
2.19623e-12
2.19988e-12
2.24408e-12
2.45918e-12
3.09165e-12
7.05979e-12
4.68927e-12
1.95459e-12
1.96432e-12
1.96206e-12
1.97486e-12
1.97801e-12
2.01991e-12
2.22207e-12
2.73933e-12
5.87054e-12
4.65645e-12
)
;

boundaryField
{
    fuel
    {
        type            fixedValue;
        value           uniform 0;
    }
    wall
    {
        type            zeroGradient;
    }
    outlet
    {
        type            zeroGradient;
    }
    frontAndBack
    {
        type            empty;
    }
    procBoundary3to0
    {
        type            processor;
        value           nonuniform List<scalar> 10(1.76746e-12 1.7786e-12 1.77519e-12 1.78828e-12 1.79111e-12 1.82974e-12 2.01392e-12 2.46093e-12 4.93689e-12 4.51949e-12);
    }
    procBoundary3to2
    {
        type            processor;
        value           nonuniform List<scalar> 
25
(
7.72549e-10
6.42567e-10
2.96641e-10
1.40604e-10
7.55573e-11
4.58019e-11
3.05466e-11
2.18988e-11
1.6631e-11
1.29756e-11
1.04062e-11
1.04062e-11
8.5996e-12
7.26567e-12
6.24389e-12
5.43515e-12
4.77671e-12
4.22763e-12
3.76043e-12
3.35613e-12
3.00125e-12
2.68592e-12
2.40258e-12
2.17442e-12
1.9529e-12
)
;
    }
}


// ************************************************************************* //
