/*--------------------------------*- C++ -*----------------------------------*\
| =========                 |                                                 |
| \\      /  F ield         | OpenFOAM: The Open Source CFD Toolbox           |
|  \\    /   O peration     | Version:  dev                                   |
|   \\  /    A nd           | Web:      www.OpenFOAM.org                      |
|    \\/     M anipulation  |                                                 |
\*---------------------------------------------------------------------------*/
FoamFile
{
    version     2.0;
    format      ascii;
    class       volScalarField;
    location    "0";
    object      c-C6H7;
}
// * * * * * * * * * * * * * * * * * * * * * * * * * * * * * * * * * * * * * //

dimensions      [0 0 0 0 0 0 0];

internalField   nonuniform List<scalar> 
250
(
1.30741e-08
1.30737e-08
1.30741e-08
1.30742e-08
1.30738e-08
1.30742e-08
1.30768e-08
1.31024e-08
1.33183e-08
1.48051e-08
3.90824e-09
6.54383e-09
6.54328e-09
6.54365e-09
6.54358e-09
6.54348e-09
6.54379e-09
6.54614e-09
6.57339e-09
6.815e-09
9.01117e-09
1.18174e-08
2.70871e-09
2.70833e-09
2.7087e-09
2.70846e-09
2.70869e-09
2.70861e-09
2.71028e-09
2.72883e-09
2.89152e-09
4.61068e-09
1.096e-08
1.20442e-09
1.20423e-09
1.20448e-09
1.20426e-09
1.20446e-09
1.20435e-09
1.2055e-09
1.21786e-09
1.32366e-09
2.58012e-09
4.65559e-09
6.1096e-10
6.10892e-10
6.11042e-10
6.10846e-10
6.10908e-10
6.10925e-10
6.11788e-10
6.20604e-10
6.9413e-10
1.64499e-09
1.69789e-09
3.5299e-10
3.52985e-10
3.53074e-10
3.52909e-10
3.52836e-10
3.52986e-10
3.53701e-10
3.60577e-10
4.1583e-10
1.16548e-09
7.74223e-10
2.27827e-10
2.27887e-10
2.27941e-10
2.27764e-10
2.27495e-10
2.2788e-10
2.28519e-10
2.3444e-10
2.78901e-10
8.88257e-10
5.13852e-10
1.60783e-10
1.60847e-10
1.6088e-10
1.60737e-10
1.60524e-10
1.60842e-10
1.61376e-10
1.66665e-10
2.05008e-10
7.10783e-10
5.75978e-10
1.22078e-10
1.22113e-10
1.22132e-10
1.22042e-10
1.22026e-10
1.22116e-10
1.22439e-10
1.25357e-10
1.58848e-10
5.87463e-10
8.01134e-10
9.65129e-11
9.65431e-11
9.65551e-11
9.64581e-11
9.67074e-11
9.65841e-11
9.6978e-11
1.00638e-10
1.27742e-10
4.95911e-10
9.692e-10
7.9529e-11
7.95352e-11
7.94166e-11
7.96626e-11
7.95836e-11
7.99564e-11
8.33261e-11
1.09122e-10
4.24445e-10
9.8713e-10
6.79221e-11
6.79256e-11
6.77581e-11
6.78308e-11
6.79899e-11
6.8366e-11
7.15503e-11
9.50229e-11
3.66505e-10
8.29773e-10
5.96211e-11
5.96244e-11
5.93792e-11
6.02797e-11
5.97085e-11
6.00848e-11
6.31053e-11
8.38011e-11
3.18425e-10
6.17648e-10
5.34136e-11
5.34192e-11
5.30395e-11
5.38807e-11
5.35129e-11
5.38957e-11
5.67743e-11
7.60115e-11
2.74741e-10
4.54835e-10
4.85833e-11
4.85948e-11
4.86848e-11
4.88996e-11
4.86911e-11
4.90821e-11
5.1832e-11
6.88269e-11
2.34247e-10
3.48009e-10
4.46959e-11
4.47129e-11
4.47514e-11
4.49103e-11
4.4811e-11
4.52089e-11
4.78369e-11
6.27707e-11
2.03916e-10
2.75029e-10
4.14812e-11
4.15032e-11
4.14909e-11
4.16357e-11
4.16029e-11
4.20046e-11
4.45119e-11
5.76143e-11
1.77201e-10
2.2141e-10
3.87678e-11
3.87937e-11
3.87162e-11
3.88897e-11
3.88949e-11
3.92966e-11
4.16809e-11
5.31707e-11
1.53949e-10
1.80848e-10
3.64451e-11
3.64736e-11
3.62968e-11
3.655e-11
3.65758e-11
3.69734e-11
3.92306e-11
4.9311e-11
1.3407e-10
1.50258e-10
3.44411e-11
3.44715e-11
3.44369e-11
3.45392e-11
3.45728e-11
3.49627e-11
3.70864e-11
4.59406e-11
1.15552e-10
1.27433e-10
3.27079e-11
3.27388e-11
3.2794e-11
3.28025e-11
3.28376e-11
3.32165e-11
3.51885e-11
4.30066e-11
9.9849e-11
1.10505e-10
3.12125e-11
3.12429e-11
3.12804e-11
3.13033e-11
3.13372e-11
3.17028e-11
3.3543e-11
4.04639e-11
8.71807e-11
9.7842e-11
3.00968e-11
3.01317e-11
3.01631e-11
3.01882e-11
3.02206e-11
3.05706e-11
3.22731e-11
3.8284e-11
7.64544e-11
8.81675e-11
2.91285e-11
2.91475e-11
2.91742e-11
2.91999e-11
2.92297e-11
2.95663e-11
3.11773e-11
3.64296e-11
6.7747e-11
8.05356e-11
)
;

boundaryField
{
    fuel
    {
        type            fixedValue;
        value           uniform 0;
    }
    wall
    {
        type            zeroGradient;
    }
    outlet
    {
        type            zeroGradient;
    }
    frontAndBack
    {
        type            empty;
    }
    procBoundary3to0
    {
        type            processor;
        value           nonuniform List<scalar> 10(2.84224e-11 2.84429e-11 2.84688e-11 2.84892e-11 2.85171e-11 2.88338e-11 3.03247e-11 3.50692e-11 6.07772e-11 7.43303e-11);
    }
    procBoundary3to2
    {
        type            processor;
        value           nonuniform List<scalar> 
25
(
1.30744e-08
6.54392e-09
2.70898e-09
1.20474e-09
6.11246e-10
3.53228e-10
2.28056e-10
1.60967e-10
1.22203e-10
9.66043e-11
7.94955e-11
7.94955e-11
6.78777e-11
5.95792e-11
5.33813e-11
4.85609e-11
4.468e-11
4.14682e-11
3.87551e-11
3.6432e-11
3.4428e-11
3.26954e-11
3.12023e-11
3.00941e-11
2.91111e-11
)
;
    }
}


// ************************************************************************* //
