/*--------------------------------*- C++ -*----------------------------------*\
| =========                 |                                                 |
| \\      /  F ield         | OpenFOAM: The Open Source CFD Toolbox           |
|  \\    /   O peration     | Version:  dev                                   |
|   \\  /    A nd           | Web:      www.OpenFOAM.org                      |
|    \\/     M anipulation  |                                                 |
\*---------------------------------------------------------------------------*/
FoamFile
{
    version     2.0;
    format      ascii;
    class       volScalarField;
    location    "0";
    object      C2H;
}
// * * * * * * * * * * * * * * * * * * * * * * * * * * * * * * * * * * * * * //

dimensions      [0 0 0 0 0 0 0];

internalField   nonuniform List<scalar> 
250
(
6.26898e-06
6.26916e-06
6.26988e-06
6.26934e-06
6.27056e-06
6.26948e-06
6.26904e-06
6.24768e-06
6.04133e-06
4.43778e-06
5.34357e-10
9.48827e-06
9.4883e-06
9.48929e-06
9.48823e-06
9.48977e-06
9.48858e-06
9.48877e-06
9.47011e-06
9.27003e-06
7.6171e-06
1.10295e-09
6.55426e-06
6.5543e-06
6.5553e-06
6.55393e-06
6.55536e-06
6.55432e-06
6.55511e-06
6.54347e-06
6.39259e-06
5.23252e-06
7.12148e-10
4.34056e-06
4.34078e-06
4.3416e-06
4.34021e-06
4.34121e-06
4.34061e-06
4.34151e-06
4.33288e-06
4.20087e-06
3.29505e-06
4.28214e-10
3.10583e-06
3.10628e-06
3.10689e-06
3.10551e-06
3.10592e-06
3.106e-06
3.1069e-06
3.09934e-06
2.97187e-06
2.18548e-06
3.03599e-10
2.42641e-06
2.42706e-06
2.42752e-06
2.42613e-06
2.42602e-06
2.42677e-06
2.4277e-06
2.42057e-06
2.29072e-06
1.55139e-06
2.58925e-10
2.03608e-06
2.03701e-06
2.03737e-06
2.03581e-06
2.03505e-06
2.03677e-06
2.03773e-06
2.03127e-06
1.89602e-06
1.16796e-06
2.55239e-10
1.79777e-06
1.79881e-06
1.79912e-06
1.79751e-06
1.79712e-06
1.79867e-06
1.7994e-06
1.79299e-06
1.65423e-06
9.23593e-07
2.76633e-10
1.64263e-06
1.64364e-06
1.64392e-06
1.64231e-06
1.643e-06
1.64365e-06
1.64362e-06
1.62932e-06
1.48523e-06
7.61881e-07
3.17782e-10
1.52511e-06
1.52617e-06
1.52646e-06
1.52451e-06
1.52671e-06
1.52651e-06
1.52699e-06
1.51786e-06
1.35803e-06
6.52355e-07
3.87209e-10
1.43351e-06
1.43384e-06
1.43136e-06
1.43392e-06
1.43412e-06
1.43466e-06
1.4261e-06
1.27303e-06
5.77682e-07
5.32684e-10
1.35671e-06
1.3571e-06
1.35385e-06
1.35591e-06
1.35763e-06
1.35836e-06
1.35098e-06
1.20146e-06
5.27258e-07
9.15837e-10
1.28923e-06
1.28972e-06
1.28537e-06
1.29515e-06
1.29055e-06
1.29146e-06
1.28553e-06
1.13838e-06
4.94442e-07
1.83787e-09
1.2274e-06
1.22805e-06
1.22203e-06
1.23236e-06
1.22911e-06
1.23029e-06
1.22607e-06
1.09015e-06
4.73104e-07
3.80123e-09
1.16915e-06
1.17001e-06
1.16948e-06
1.17334e-06
1.17125e-06
1.17275e-06
1.17043e-06
1.04158e-06
4.61227e-07
7.57655e-09
1.11323e-06
1.11432e-06
1.11294e-06
1.11697e-06
1.11574e-06
1.11758e-06
1.11726e-06
9.96698e-07
4.58361e-07
1.39948e-08
1.05879e-06
1.06012e-06
1.05769e-06
1.06241e-06
1.06174e-06
1.06393e-06
1.06567e-06
9.54658e-07
4.60707e-07
2.36356e-08
1.00523e-06
1.00682e-06
1.00285e-06
1.00897e-06
1.00865e-06
1.01117e-06
1.01494e-06
9.14427e-07
4.66674e-07
3.6747e-08
9.52055e-07
9.53911e-07
9.4762e-07
9.56063e-07
9.55947e-07
9.58788e-07
9.64495e-07
8.75107e-07
4.74767e-07
5.33799e-08
8.98825e-07
9.00988e-07
8.98205e-07
9.0326e-07
9.03188e-07
9.06338e-07
9.13802e-07
8.35922e-07
4.84126e-07
7.35479e-08
8.45121e-07
8.47622e-07
8.47387e-07
8.50045e-07
8.4994e-07
8.53395e-07
8.6203e-07
7.96211e-07
4.92802e-07
9.71997e-08
7.90442e-07
7.93353e-07
7.92453e-07
7.95879e-07
7.95731e-07
7.99503e-07
8.09906e-07
7.55423e-07
4.98863e-07
1.24048e-07
7.40364e-07
7.43967e-07
7.42608e-07
7.46529e-07
7.46359e-07
7.50349e-07
7.61601e-07
7.13107e-07
5.01815e-07
1.53329e-07
6.86701e-07
6.9004e-07
6.88109e-07
6.9265e-07
6.92437e-07
6.96873e-07
7.10937e-07
6.68583e-07
5.00555e-07
1.83659e-07
)
;

boundaryField
{
    fuel
    {
        type            fixedValue;
        value           uniform 0;
    }
    wall
    {
        type            zeroGradient;
    }
    outlet
    {
        type            zeroGradient;
    }
    frontAndBack
    {
        type            empty;
    }
    procBoundary3to0
    {
        type            processor;
        value           nonuniform List<scalar> 10(6.34744e-07 6.38741e-07 6.36384e-07 6.41307e-07 6.41098e-07 6.4567e-07 6.60722e-07 6.26439e-07 4.93985e-07 2.12578e-07);
    }
    procBoundary3to2
    {
        type            processor;
        value           nonuniform List<scalar> 
25
(
6.26957e-06
9.48905e-06
6.55533e-06
4.34184e-06
3.10721e-06
2.42783e-06
2.03763e-06
1.79931e-06
1.64406e-06
1.52651e-06
1.43245e-06
1.43245e-06
1.35565e-06
1.28831e-06
1.22669e-06
1.16863e-06
1.11284e-06
1.0585e-06
1.00502e-06
9.51918e-07
8.98775e-07
8.45179e-07
7.90678e-07
7.41025e-07
6.86644e-07
)
;
    }
}


// ************************************************************************* //
