/*--------------------------------*- C++ -*----------------------------------*\
| =========                 |                                                 |
| \\      /  F ield         | OpenFOAM: The Open Source CFD Toolbox           |
|  \\    /   O peration     | Version:  dev                                   |
|   \\  /    A nd           | Web:      www.OpenFOAM.org                      |
|    \\/     M anipulation  |                                                 |
\*---------------------------------------------------------------------------*/
FoamFile
{
    version     2.0;
    format      ascii;
    class       volScalarField;
    location    "0";
    object      C2H2;
}
// * * * * * * * * * * * * * * * * * * * * * * * * * * * * * * * * * * * * * //

dimensions      [0 0 0 0 0 0 0];

internalField   nonuniform List<scalar> 
250
(
0.01855
0.0185499
0.0185501
0.01855
0.0185501
0.01855
0.0185507
0.0185527
0.0185571
0.0183667
0.00103812
0.0157879
0.0157877
0.015788
0.0157876
0.0157874
0.0157879
0.0157899
0.0158045
0.0159036
0.0165366
0.0026574
0.0140529
0.014053
0.0140534
0.0140526
0.0140521
0.0140532
0.0140568
0.0140803
0.0142248
0.0150969
0.00419554
0.0131562
0.0131566
0.013157
0.0131558
0.0131545
0.0131569
0.0131624
0.0131956
0.013382
0.0144179
0.00555234
0.0125713
0.0125723
0.0125728
0.0125708
0.0125682
0.0125726
0.0125803
0.0126243
0.0128494
0.0140108
0.00665409
0.0121162
0.0121179
0.0121184
0.0121157
0.0121113
0.0121183
0.0121285
0.0121842
0.0124442
0.0136985
0.00748803
0.0117268
0.0117294
0.0117299
0.0117261
0.0117203
0.0117301
0.0117428
0.0118116
0.0121027
0.013422
0.00808704
0.0113776
0.0113809
0.0113814
0.0113768
0.0113721
0.0113819
0.0113963
0.0114769
0.0117999
0.0131597
0.00850059
0.0110608
0.0110644
0.0110649
0.0110597
0.0110589
0.011066
0.0110803
0.0111526
0.0115002
0.0129022
0.00877274
0.0107454
0.0107496
0.0107502
0.0107432
0.010748
0.0107523
0.01077
0.0108667
0.0111946
0.0126451
0.00894569
0.0104435
0.0104442
0.0104348
0.0104417
0.0104474
0.0104672
0.0105751
0.0109394
0.0123871
0.00906983
0.0101518
0.0101526
0.0101396
0.0101455
0.0101569
0.0101789
0.0102984
0.010681
0.0121276
0.0091965
0.00987258
0.00987356
0.00985556
0.00989596
0.00987929
0.00990325
0.0100332
0.0104157
0.0118672
0.00934493
0.00960464
0.00960601
0.00958049
0.0096243
0.00961279
0.00963884
0.00977838
0.0101895
0.0115863
0.00950104
0.00934751
0.00934949
0.00934981
0.00936352
0.009357
0.00938512
0.00953286
0.00993936
0.0112799
0.00964348
0.00910104
0.00910367
0.00910143
0.00911446
0.00911188
0.0091419
0.00929627
0.00969321
0.0110152
0.00975459
0.00886527
0.00886854
0.00886269
0.00887735
0.00887743
0.00890908
0.00906837
0.00945418
0.0107485
0.00982197
0.00864026
0.00864414
0.00863252
0.0086519
0.00865368
0.00868666
0.00884904
0.00922306
0.0104846
0.00984089
0.00842611
0.00843054
0.00840949
0.0084379
0.00844067
0.00847463
0.00863821
0.0090004
0.010228
0.00981335
0.00822289
0.00822789
0.00822098
0.00823534
0.0082384
0.00827299
0.00843574
0.00878667
0.00995343
0.00974536
0.00803056
0.00803609
0.00803921
0.00804385
0.00804679
0.00808171
0.00824034
0.00858255
0.00968557
0.0096458
0.0078489
0.00785501
0.00785642
0.00786294
0.00786564
0.00790065
0.00805621
0.00838869
0.00943633
0.00952289
0.00769782
0.00770527
0.00770586
0.00771317
0.00771566
0.00775031
0.00789988
0.00820586
0.00919583
0.00938454
0.00755087
0.00755691
0.00755651
0.00756475
0.0075669
0.00760164
0.00775056
0.0080335
0.00897141
0.00923682
)
;

boundaryField
{
    fuel
    {
        type            fixedValue;
        value           uniform 0;
    }
    wall
    {
        type            zeroGradient;
    }
    outlet
    {
        type            zeroGradient;
    }
    frontAndBack
    {
        type            empty;
    }
    procBoundary3to0
    {
        type            processor;
        value           nonuniform List<scalar> 10(0.00742439 0.00743158 0.00743055 0.00743904 0.007441 0.00747478 0.00761782 0.00789052 0.00876316 0.00908436);
    }
    procBoundary3to2
    {
        type            processor;
        value           nonuniform List<scalar> 
25
(
0.0185502
0.0157882
0.0140536
0.0131573
0.012573
0.0121187
0.0117302
0.0113817
0.0110653
0.0107504
0.010439
0.010439
0.0101473
0.00986869
0.00960156
0.00934515
0.00909917
0.00886364
0.00863875
0.00842468
0.00822158
0.00802947
0.00784825
0.00769831
0.00754933
)
;
    }
}


// ************************************************************************* //
