/*--------------------------------*- C++ -*----------------------------------*\
| =========                 |                                                 |
| \\      /  F ield         | OpenFOAM: The Open Source CFD Toolbox           |
|  \\    /   O peration     | Version:  dev                                   |
|   \\  /    A nd           | Web:      www.OpenFOAM.org                      |
|    \\/     M anipulation  |                                                 |
\*---------------------------------------------------------------------------*/
FoamFile
{
    version     2.0;
    format      ascii;
    class       volScalarField;
    location    "0";
    object      C2H3O;
}
// * * * * * * * * * * * * * * * * * * * * * * * * * * * * * * * * * * * * * //

dimensions      [0 0 0 0 0 0 0];

internalField   nonuniform List<scalar> 
250
(
4.7985e-07
4.79831e-07
4.79773e-07
4.7982e-07
4.79718e-07
4.79826e-07
4.79895e-07
4.8197e-07
5.02191e-07
7.23363e-07
8.68764e-06
5.48286e-08
5.48252e-08
5.48243e-08
5.48236e-08
5.48205e-08
5.48253e-08
5.48378e-08
5.50525e-08
5.70446e-08
8.30045e-08
1.45198e-05
1.07563e-08
1.07556e-08
1.07567e-08
1.07552e-08
1.07564e-08
1.07558e-08
1.07599e-08
1.08016e-08
1.11422e-08
2.02781e-08
1.64673e-05
3.93627e-09
3.9361e-09
3.93679e-09
3.93585e-09
3.93652e-09
3.9361e-09
3.93836e-09
3.95649e-09
4.08329e-09
1.14117e-08
1.73138e-05
2.09906e-09
2.09913e-09
2.09953e-09
2.09879e-09
2.09902e-09
2.09901e-09
2.10064e-09
2.11223e-09
2.18194e-09
9.02083e-09
1.7422e-05
1.37775e-09
1.37794e-09
1.37819e-09
1.37754e-09
1.37748e-09
1.37779e-09
1.37918e-09
1.38793e-09
1.43085e-09
7.68131e-09
1.64299e-05
1.03691e-09
1.03725e-09
1.03742e-09
1.03672e-09
1.03619e-09
1.03712e-09
1.03842e-09
1.04607e-09
1.07303e-09
6.27246e-09
1.3725e-05
8.57671e-10
8.58036e-10
8.58149e-10
8.57504e-10
8.57142e-10
8.57948e-10
8.59078e-10
8.66085e-10
8.84119e-10
4.46931e-09
9.09525e-06
7.55641e-10
7.55949e-10
7.56034e-10
7.55462e-10
7.55612e-10
7.55922e-10
7.56609e-10
7.5837e-10
7.68759e-10
2.76124e-09
4.53379e-06
6.87764e-10
6.88068e-10
6.88144e-10
6.8746e-10
6.8834e-10
6.88186e-10
6.89169e-10
6.93675e-10
6.92039e-10
1.74894e-09
2.0952e-06
6.40629e-10
6.40705e-10
6.39839e-10
6.40792e-10
6.40843e-10
6.41868e-10
6.46443e-10
6.45817e-10
1.20363e-09
9.37588e-07
6.05078e-10
6.05167e-10
6.04001e-10
6.04589e-10
6.05399e-10
6.06529e-10
6.11459e-10
6.09643e-10
8.95013e-10
3.69272e-07
5.76154e-10
5.76268e-10
5.74663e-10
5.78575e-10
5.76618e-10
5.77836e-10
5.83176e-10
5.79178e-10
7.26243e-10
1.34048e-07
5.51112e-10
5.51267e-10
5.48973e-10
5.53016e-10
5.51699e-10
5.53029e-10
5.5882e-10
5.5667e-10
6.26053e-10
5.03242e-08
5.28499e-10
5.28718e-10
5.28727e-10
5.2999e-10
5.29204e-10
5.30654e-10
5.36899e-10
5.34149e-10
5.57572e-10
2.07115e-08
5.0752e-10
5.07808e-10
5.07532e-10
5.08755e-10
5.08349e-10
5.09914e-10
5.16587e-10
5.13534e-10
5.14449e-10
9.33601e-09
4.87716e-10
4.88073e-10
4.87431e-10
4.88838e-10
4.88672e-10
4.90341e-10
4.97395e-10
4.94449e-10
4.81801e-10
4.55777e-09
4.68792e-10
4.6922e-10
4.68015e-10
4.699e-10
4.6988e-10
4.71637e-10
4.79008e-10
4.76502e-10
4.56695e-10
2.40895e-09
4.50538e-10
4.51038e-10
4.48909e-10
4.51695e-10
4.51757e-10
4.53587e-10
4.61199e-10
4.59394e-10
4.37233e-10
1.39018e-09
4.3278e-10
4.3336e-10
4.32517e-10
4.34046e-10
4.34125e-10
4.36012e-10
4.43769e-10
4.42893e-10
4.2068e-10
8.84628e-10
4.15342e-10
4.16007e-10
4.16132e-10
4.16741e-10
4.16804e-10
4.18737e-10
4.26416e-10
4.26819e-10
4.06817e-10
6.22802e-10
3.9801e-10
3.9878e-10
3.98691e-10
3.9955e-10
3.99589e-10
4.01568e-10
4.09329e-10
4.11016e-10
3.95288e-10
4.81534e-10
3.82861e-10
3.83838e-10
3.83615e-10
3.84619e-10
3.8464e-10
3.86634e-10
3.94218e-10
3.95344e-10
3.84494e-10
4.02347e-10
3.66786e-10
3.67668e-10
3.67267e-10
3.68467e-10
3.68461e-10
3.70558e-10
3.78699e-10
3.7952e-10
3.74145e-10
3.56574e-10
)
;

boundaryField
{
    fuel
    {
        type            fixedValue;
        value           uniform 0;
    }
    wall
    {
        type            zeroGradient;
    }
    outlet
    {
        type            zeroGradient;
    }
    frontAndBack
    {
        type            empty;
    }
    procBoundary3to0
    {
        type            processor;
        value           nonuniform List<scalar> 10(3.51745e-10 3.52842e-10 3.52306e-10 3.53625e-10 3.53606e-10 3.55702e-10 3.63792e-10 3.65465e-10 3.63791e-10 3.29615e-10);
    }
    procBoundary3to2
    {
        type            processor;
        value           nonuniform List<scalar> 
25
(
4.79803e-07
5.4826e-08
1.07573e-08
3.93734e-09
2.1e-09
1.37855e-09
1.03768e-09
8.58346e-10
7.56185e-10
6.88236e-10
6.40333e-10
6.40333e-10
6.04751e-10
5.75858e-10
5.50874e-10
5.28318e-10
5.07381e-10
4.87602e-10
4.68695e-10
4.50458e-10
4.32722e-10
4.15313e-10
3.98033e-10
3.83025e-10
3.66722e-10
)
;
    }
}


// ************************************************************************* //
