/*--------------------------------*- C++ -*----------------------------------*\
| =========                 |                                                 |
| \\      /  F ield         | OpenFOAM: The Open Source CFD Toolbox           |
|  \\    /   O peration     | Version:  dev                                   |
|   \\  /    A nd           | Web:      www.OpenFOAM.org                      |
|    \\/     M anipulation  |                                                 |
\*---------------------------------------------------------------------------*/
FoamFile
{
    version     2.0;
    format      ascii;
    class       volScalarField;
    location    "0";
    object      C3H2;
}
// * * * * * * * * * * * * * * * * * * * * * * * * * * * * * * * * * * * * * //

dimensions      [0 0 0 0 0 0 0];

internalField   nonuniform List<scalar> 
250
(
9.92757e-06
9.92787e-06
9.92902e-06
9.92809e-06
9.93005e-06
9.92812e-06
9.92715e-06
9.89056e-06
9.54123e-06
6.84752e-06
8.26759e-10
2.08937e-05
2.08939e-05
2.08959e-05
2.08938e-05
2.08971e-05
2.0894e-05
2.0893e-05
2.08397e-05
2.03061e-05
1.59755e-05
2.31287e-09
1.97599e-05
1.97601e-05
1.97627e-05
1.97591e-05
1.97628e-05
1.97593e-05
1.97593e-05
1.9706e-05
1.91127e-05
1.42612e-05
1.9356e-09
1.76772e-05
1.76784e-05
1.76808e-05
1.76759e-05
1.76784e-05
1.76764e-05
1.76776e-05
1.76246e-05
1.69518e-05
1.10627e-05
1.43347e-09
1.63491e-05
1.63516e-05
1.63536e-05
1.63473e-05
1.63466e-05
1.63491e-05
1.63527e-05
1.63059e-05
1.55776e-05
8.50619e-06
1.17948e-09
1.55172e-05
1.55213e-05
1.55231e-05
1.55153e-05
1.55101e-05
1.55191e-05
1.55266e-05
1.54951e-05
1.47579e-05
6.73129e-06
1.12267e-09
1.48467e-05
1.48529e-05
1.48545e-05
1.48447e-05
1.48356e-05
1.48513e-05
1.4863e-05
1.48553e-05
1.41505e-05
5.57311e-06
1.21957e-09
1.41869e-05
1.41943e-05
1.41959e-05
1.41847e-05
1.41778e-05
1.41938e-05
1.42074e-05
1.42204e-05
1.35778e-05
4.84678e-06
1.46712e-09
1.3534e-05
1.35417e-05
1.35433e-05
1.35313e-05
1.35333e-05
1.35425e-05
1.35538e-05
1.3541e-05
1.29541e-05
4.41442e-06
1.92017e-09
1.2864e-05
1.28726e-05
1.28744e-05
1.28593e-05
1.28732e-05
1.2876e-05
1.28926e-05
1.29247e-05
1.22962e-05
4.19103e-06
2.71121e-09
1.2233e-05
1.2235e-05
1.22155e-05
1.2233e-05
1.22386e-05
1.22575e-05
1.23043e-05
1.17584e-05
4.12768e-06
4.03056e-09
1.16449e-05
1.16474e-05
1.16213e-05
1.16354e-05
1.1653e-05
1.16747e-05
1.17368e-05
1.12391e-05
4.1899e-06
6.23416e-09
1.11021e-05
1.11053e-05
1.107e-05
1.11492e-05
1.11135e-05
1.11373e-05
1.1214e-05
1.07369e-05
4.34791e-06
1.00382e-08
1.05957e-05
1.05998e-05
1.05505e-05
1.0635e-05
1.06099e-05
1.06365e-05
1.07274e-05
1.03324e-05
4.59242e-06
1.69871e-08
1.01177e-05
1.01233e-05
1.01211e-05
1.01501e-05
1.01348e-05
1.01642e-05
1.02688e-05
9.9067e-06
4.91208e-06
2.96602e-08
9.66216e-06
9.66937e-06
9.66121e-06
9.69024e-06
9.68217e-06
9.71438e-06
9.83184e-06
9.50286e-06
5.20621e-06
5.12627e-08
9.22459e-06
9.23344e-06
9.21744e-06
9.2509e-06
9.24765e-06
9.28239e-06
9.41144e-06
9.11984e-06
5.49239e-06
8.62934e-08
8.80139e-06
8.81189e-06
8.78402e-06
8.8278e-06
8.82755e-06
8.8645e-06
9.00362e-06
8.753e-06
5.74364e-06
1.42788e-07
8.38953e-06
8.40172e-06
8.35494e-06
8.4173e-06
8.41875e-06
8.45756e-06
8.60494e-06
8.39791e-06
5.94106e-06
2.37117e-07
7.98618e-06
8.00026e-06
7.98109e-06
8.0165e-06
8.01834e-06
8.05866e-06
8.21198e-06
8.05066e-06
6.09069e-06
4.00217e-07
7.58831e-06
7.60442e-06
7.60553e-06
7.62166e-06
7.62319e-06
7.66477e-06
7.8189e-06
7.70779e-06
6.17295e-06
6.78254e-07
7.19202e-06
7.21061e-06
7.20718e-06
7.22854e-06
7.22962e-06
7.27239e-06
7.43107e-06
7.36634e-06
6.19262e-06
1.11347e-06
6.83981e-06
6.86295e-06
6.85654e-06
6.8811e-06
6.88186e-06
6.92509e-06
7.08213e-06
7.02363e-06
6.16322e-06
1.70297e-06
6.46845e-06
6.48952e-06
6.47924e-06
6.50798e-06
6.50822e-06
6.55356e-06
6.72364e-06
6.67436e-06
6.08917e-06
2.37638e-06
)
;

boundaryField
{
    fuel
    {
        type            fixedValue;
        value           uniform 0;
    }
    wall
    {
        type            zeroGradient;
    }
    outlet
    {
        type            zeroGradient;
    }
    frontAndBack
    {
        type            empty;
    }
    procBoundary3to0
    {
        type            processor;
        value           nonuniform List<scalar> 10(6.11655e-06 6.14225e-06 6.12901e-06 6.16033e-06 6.16038e-06 6.20564e-06 6.376e-06 6.35618e-06 5.97222e-06 3.01607e-06);
    }
    procBoundary3to2
    {
        type            processor;
        value           nonuniform List<scalar> 
25
(
9.92852e-06
2.08954e-05
1.97629e-05
1.76813e-05
1.6354e-05
1.55234e-05
1.48549e-05
1.41964e-05
1.35439e-05
1.28747e-05
1.22238e-05
1.22238e-05
1.16362e-05
1.10948e-05
1.05899e-05
1.01134e-05
9.65893e-06
9.22202e-06
8.79928e-06
8.38786e-06
7.98504e-06
7.58787e-06
7.19278e-06
6.84356e-06
6.46717e-06
)
;
    }
}


// ************************************************************************* //
