/*--------------------------------*- C++ -*----------------------------------*\
| =========                 |                                                 |
| \\      /  F ield         | OpenFOAM: The Open Source CFD Toolbox           |
|  \\    /   O peration     | Version:  dev                                   |
|   \\  /    A nd           | Web:      www.OpenFOAM.org                      |
|    \\/     M anipulation  |                                                 |
\*---------------------------------------------------------------------------*/
FoamFile
{
    version     2.0;
    format      ascii;
    class       volScalarField;
    location    "0";
    object      C4H2;
}
// * * * * * * * * * * * * * * * * * * * * * * * * * * * * * * * * * * * * * //

dimensions      [0 0 0 0 0 0 0];

internalField   nonuniform List<scalar> 
250
(
0.00120767
0.00120768
0.00120775
0.0012077
0.00120776
0.0012077
0.00120781
0.0012072
0.00119856
0.00109595
2.42381e-05
0.00118519
0.00118518
0.00118525
0.00118517
0.00118517
0.00118522
0.00118558
0.00118753
0.00119859
0.00124696
5.0497e-05
0.000997902
0.000997927
0.000998001
0.000997862
0.000997795
0.000997967
0.000998555
0.001002
0.00102152
0.00112212
6.73328e-05
0.000875371
0.000875449
0.000875527
0.000875318
0.000875134
0.000875491
0.000876323
0.000881028
0.000905815
0.00102738
7.99343e-05
0.000791549
0.000791701
0.000791781
0.000791485
0.000791114
0.000791746
0.000792842
0.000798767
0.000827459
0.000958404
8.94953e-05
0.000727347
0.00072759
0.000727671
0.000727276
0.000726686
0.000727647
0.000729021
0.000736196
0.000767856
0.000902416
9.65333e-05
0.000674219
0.000674577
0.000674655
0.000674138
0.000673368
0.000674657
0.000676291
0.000684825
0.000718745
0.000853534
0.000101586
0.000628343
0.000628777
0.000628851
0.000628249
0.000627645
0.0006289
0.000630664
0.000640283
0.000676504
0.000809153
0.000104409
0.000588306
0.000588758
0.000588829
0.000588177
0.000588077
0.000588944
0.000590612
0.00059873
0.000636145
0.000767971
0.00010347
0.000550025
0.000550528
0.000550601
0.000549775
0.000550349
0.000550843
0.000552832
0.000563451
0.00059661
0.000729309
9.89807e-05
0.0005149
0.000514978
0.000513913
0.000514706
0.000515322
0.000517458
0.000528877
0.000564849
0.000692881
9.57483e-05
0.000482323
0.000482413
0.000481007
0.000481642
0.000482867
0.000485153
0.000497351
0.000533928
0.00065843
0.000101116
0.000452381
0.000452491
0.000450615
0.000454839
0.000453076
0.000455469
0.000468298
0.000503453
0.000625867
0.000119169
0.000424755
0.000424901
0.000422327
0.000426764
0.000425572
0.000428081
0.0004414
0.000478436
0.000592675
0.000148466
0.000399223
0.000399426
0.000399434
0.000400809
0.000400145
0.00040276
0.000416409
0.000451806
0.000558421
0.00018408
0.000375616
0.000375875
0.000375645
0.000376904
0.000376634
0.000379333
0.000393146
0.000426565
0.000530266
0.000220678
0.000353792
0.000354103
0.000353554
0.000354917
0.0003549
0.000357653
0.000371467
0.000402923
0.000503135
0.000254094
0.000333627
0.000333984
0.000332949
0.00033468
0.000334814
0.000337591
0.00035125
0.000380834
0.00047732
0.000281921
0.000315005
0.000315403
0.000313594
0.000316042
0.000316257
0.00031903
0.000332386
0.000360229
0.000453079
0.000303297
0.000297818
0.000298255
0.000297658
0.000298884
0.000299117
0.000301858
0.000314767
0.000341034
0.000427946
0.000318346
0.000281954
0.000282427
0.00028265
0.000283064
0.00028328
0.000285968
0.000298193
0.000323195
0.000404142
0.00032778
0.000267284
0.000267798
0.000267874
0.000268432
0.000268624
0.000271246
0.000282922
0.000306657
0.000382537
0.000332415
0.000255259
0.000255874
0.000255877
0.000256493
0.000256665
0.0002592
0.000270164
0.000291374
0.000362133
0.000333132
0.000243683
0.000244183
0.000244101
0.000244786
0.000244929
0.000247417
0.000258125
0.000277192
0.000343447
0.000330706
)
;

boundaryField
{
    fuel
    {
        type            fixedValue;
        value           uniform 0;
    }
    wall
    {
        type            zeroGradient;
    }
    outlet
    {
        type            zeroGradient;
    }
    frontAndBack
    {
        type            empty;
    }
    procBoundary3to0
    {
        type            processor;
        value           nonuniform List<scalar> 10(0.00023373 0.000234319 0.000234182 0.000234886 0.000235012 0.000237386 0.000247479 0.000265518 0.000326336 0.00032573);
    }
    procBoundary3to2
    {
        type            processor;
        value           nonuniform List<scalar> 
25
(
0.00120774
0.00118526
0.000998015
0.000875546
0.000791804
0.000727698
0.000674684
0.000628883
0.000588863
0.000550623
0.000514371
0.000514371
0.000481827
0.000451967
0.000424439
0.000398991
0.000375439
0.000353645
0.000333496
0.000314888
0.000297716
0.000281874
0.000267242
0.000255309
0.000243575
)
;
    }
}


// ************************************************************************* //
