/*--------------------------------*- C++ -*----------------------------------*\
| =========                 |                                                 |
| \\      /  F ield         | OpenFOAM: The Open Source CFD Toolbox           |
|  \\    /   O peration     | Version:  dev                                   |
|   \\  /    A nd           | Web:      www.OpenFOAM.org                      |
|    \\/     M anipulation  |                                                 |
\*---------------------------------------------------------------------------*/
FoamFile
{
    version     2.0;
    format      ascii;
    class       volScalarField;
    location    "0";
    object      C4H4;
}
// * * * * * * * * * * * * * * * * * * * * * * * * * * * * * * * * * * * * * //

dimensions      [0 0 0 0 0 0 0];

internalField   nonuniform List<scalar> 
250
(
0.000177179
0.000177175
0.000177165
0.000177173
0.000177151
0.000177175
0.000177202
0.000177705
0.000182329
0.000224109
1.3943e-05
3.37681e-05
3.37664e-05
3.37666e-05
3.37657e-05
3.37633e-05
3.37669e-05
3.37782e-05
3.39169e-05
3.51172e-05
4.70673e-05
3.56722e-05
1.10265e-05
1.1026e-05
1.10268e-05
1.10255e-05
1.10252e-05
1.10265e-05
1.1033e-05
1.10937e-05
1.15685e-05
1.66598e-05
5.71055e-05
6.25649e-06
6.25655e-06
6.25717e-06
6.2559e-06
6.25519e-06
6.2568e-06
6.2625e-06
6.30701e-06
6.62018e-06
1.01599e-05
7.57663e-05
4.72976e-06
4.73024e-06
4.73073e-06
4.72926e-06
4.72767e-06
4.73041e-06
4.7366e-06
4.77975e-06
5.05646e-06
8.14358e-06
9.05534e-05
4.03023e-06
4.03114e-06
4.03154e-06
4.02975e-06
4.02709e-06
4.03134e-06
4.03863e-06
4.08567e-06
4.36284e-06
7.27546e-06
0.000101658
3.61649e-06
3.61793e-06
3.61827e-06
3.61597e-06
3.61223e-06
3.61827e-06
3.62682e-06
3.68047e-06
3.97057e-06
6.80269e-06
0.000110066
3.32537e-06
3.32711e-06
3.3274e-06
3.32481e-06
3.32179e-06
3.32766e-06
3.33691e-06
3.39659e-06
3.70544e-06
6.49615e-06
0.000117275
3.10039e-06
3.10213e-06
3.10238e-06
3.09969e-06
3.09905e-06
3.10297e-06
3.11177e-06
3.16353e-06
3.48577e-06
6.26494e-06
0.000125222
2.90172e-06
2.90366e-06
2.90391e-06
2.90049e-06
2.90306e-06
2.90512e-06
2.91566e-06
2.98062e-06
3.28661e-06
6.06468e-06
0.000135381
2.72877e-06
2.72901e-06
2.72454e-06
2.72798e-06
2.7307e-06
2.74209e-06
2.8113e-06
3.13337e-06
5.86645e-06
0.000145673
2.57479e-06
2.57507e-06
2.56905e-06
2.5715e-06
2.57726e-06
2.58953e-06
2.66275e-06
2.98703e-06
5.64363e-06
0.00014882
2.43665e-06
2.43699e-06
2.42879e-06
2.44788e-06
2.43978e-06
2.45272e-06
2.52911e-06
2.8434e-06
5.38142e-06
0.000139602
2.311e-06
2.31147e-06
2.3e-06
2.32002e-06
2.31466e-06
2.32829e-06
2.40708e-06
2.72546e-06
5.06215e-06
0.000119714
2.19581e-06
2.1965e-06
2.19696e-06
2.20275e-06
2.19992e-06
2.21418e-06
2.29452e-06
2.59861e-06
4.69168e-06
9.45751e-05
2.08985e-06
2.09076e-06
2.09024e-06
2.09532e-06
2.09437e-06
2.10913e-06
2.19015e-06
2.47733e-06
4.36345e-06
6.95876e-05
1.99237e-06
1.99347e-06
1.99157e-06
1.99699e-06
1.99725e-06
2.01235e-06
2.09319e-06
2.36297e-06
4.04391e-06
4.83365e-05
1.90289e-06
1.90415e-06
1.90006e-06
1.90708e-06
1.90807e-06
1.92335e-06
2.00318e-06
2.25577e-06
3.74708e-06
3.22201e-05
1.82111e-06
1.82247e-06
1.81476e-06
1.82511e-06
1.8265e-06
1.84179e-06
1.91982e-06
2.15595e-06
3.48017e-06
2.10184e-05
1.74681e-06
1.74826e-06
1.74603e-06
1.75081e-06
1.7523e-06
1.76746e-06
1.84291e-06
2.06366e-06
3.22127e-06
1.37344e-05
1.67983e-06
1.68131e-06
1.68289e-06
1.68386e-06
1.6853e-06
1.70018e-06
1.77189e-06
1.97924e-06
2.99015e-06
9.23029e-06
1.62006e-06
1.62153e-06
1.62262e-06
1.62405e-06
1.62537e-06
1.63988e-06
1.70822e-06
1.90296e-06
2.79452e-06
6.54144e-06
1.57431e-06
1.576e-06
1.57693e-06
1.57839e-06
1.57962e-06
1.59364e-06
1.65793e-06
1.8352e-06
2.62096e-06
4.96641e-06
1.53359e-06
1.53464e-06
1.53543e-06
1.53689e-06
1.53799e-06
1.55162e-06
1.61361e-06
1.77593e-06
2.47258e-06
4.04121e-06
)
;

boundaryField
{
    fuel
    {
        type            fixedValue;
        value           uniform 0;
    }
    wall
    {
        type            zeroGradient;
    }
    outlet
    {
        type            zeroGradient;
    }
    frontAndBack
    {
        type            empty;
    }
    procBoundary3to0
    {
        type            processor;
        value           nonuniform List<scalar> 10(1.50347e-06 1.50458e-06 1.50536e-06 1.50656e-06 1.50757e-06 1.52051e-06 1.57867e-06 1.73204e-06 2.34777e-06 3.48414e-06);
    }
    procBoundary3to2
    {
        type            processor;
        value           nonuniform List<scalar> 
25
(
0.000177172
3.37675e-05
1.10274e-05
6.2577e-06
4.7312e-06
4.03194e-06
3.61863e-06
3.32773e-06
3.1027e-06
2.90414e-06
2.72669e-06
2.72669e-06
2.57282e-06
2.43496e-06
2.30969e-06
2.19482e-06
2.08907e-06
1.99169e-06
1.90225e-06
1.82049e-06
1.74623e-06
1.67931e-06
1.61966e-06
1.57424e-06
1.53293e-06
)
;
    }
}


// ************************************************************************* //
