/*--------------------------------*- C++ -*----------------------------------*\
| =========                 |                                                 |
| \\      /  F ield         | OpenFOAM: The Open Source CFD Toolbox           |
|  \\    /   O peration     | Version:  dev                                   |
|   \\  /    A nd           | Web:      www.OpenFOAM.org                      |
|    \\/     M anipulation  |                                                 |
\*---------------------------------------------------------------------------*/
FoamFile
{
    version     2.0;
    format      ascii;
    class       volScalarField;
    location    "0";
    object      C5H3;
}
// * * * * * * * * * * * * * * * * * * * * * * * * * * * * * * * * * * * * * //

dimensions      [0 0 0 0 0 0 0];

internalField   nonuniform List<scalar> 
250
(
1.09091e-05
1.09093e-05
1.09105e-05
1.09096e-05
1.09111e-05
1.09095e-05
1.09099e-05
1.08863e-05
1.06334e-05
8.32031e-06
1.00091e-09
1.40809e-05
1.40809e-05
1.40821e-05
1.40807e-05
1.40812e-05
1.40814e-05
1.40859e-05
1.41048e-05
1.41797e-05
1.40592e-05
2.03657e-09
1.06272e-05
1.06273e-05
1.06286e-05
1.06265e-05
1.06265e-05
1.06277e-05
1.06346e-05
1.06734e-05
1.08796e-05
1.17596e-05
1.59723e-09
7.80478e-06
7.80537e-06
7.8066e-06
7.80399e-06
7.80322e-06
7.8056e-06
7.81396e-06
7.86119e-06
8.10334e-06
9.23396e-06
1.19679e-09
5.92721e-06
5.92837e-06
5.92947e-06
5.92642e-06
5.92442e-06
5.92852e-06
5.93794e-06
5.98966e-06
6.235e-06
7.35854e-06
1.06364e-09
4.68406e-06
4.6858e-06
4.68674e-06
4.6833e-06
4.67989e-06
4.68595e-06
4.69633e-06
4.75147e-06
4.98657e-06
6.01456e-06
1.17632e-09
3.83956e-06
3.84208e-06
3.84288e-06
3.83879e-06
3.83375e-06
3.84233e-06
3.85351e-06
3.91287e-06
4.13203e-06
5.03461e-06
1.57344e-09
3.24859e-06
3.25142e-06
3.25209e-06
3.24781e-06
3.24393e-06
3.2519e-06
3.26289e-06
3.32458e-06
3.5329e-06
4.29953e-06
2.41734e-09
2.8255e-06
2.82815e-06
2.82871e-06
2.82458e-06
2.82424e-06
2.82897e-06
2.83796e-06
2.87783e-06
3.06842e-06
3.73188e-06
4.04159e-09
2.48782e-06
2.49052e-06
2.49105e-06
2.48617e-06
2.49061e-06
2.49218e-06
2.50275e-06
2.55784e-06
2.69285e-06
3.28234e-06
7.13429e-09
2.2214e-06
2.22191e-06
2.21592e-06
2.22138e-06
2.22362e-06
2.23439e-06
2.29037e-06
2.4333e-06
2.91945e-06
1.2793e-08
2.00356e-06
2.00413e-06
1.99643e-06
2.00005e-06
2.00641e-06
2.01759e-06
2.07514e-06
2.211e-06
2.62116e-06
2.24124e-08
1.82079e-06
1.82146e-06
1.81134e-06
1.83558e-06
1.82441e-06
1.83582e-06
1.89456e-06
2.01382e-06
2.373e-06
3.83119e-08
1.66298e-06
1.66384e-06
1.64996e-06
1.67465e-06
1.66719e-06
1.6789e-06
1.73848e-06
1.86435e-06
2.14822e-06
6.44889e-08
1.52396e-06
1.52511e-06
1.52515e-06
1.53289e-06
1.52865e-06
1.54064e-06
1.60057e-06
1.71532e-06
1.94037e-06
1.06074e-07
1.39983e-06
1.40127e-06
1.40001e-06
1.40688e-06
1.40495e-06
1.41714e-06
1.47686e-06
1.58091e-06
1.78557e-06
1.66794e-07
1.28802e-06
1.28972e-06
1.28685e-06
1.29403e-06
1.29354e-06
1.30579e-06
1.36471e-06
1.45979e-06
1.64942e-06
2.45857e-07
1.18669e-06
1.18862e-06
1.18335e-06
1.19221e-06
1.19255e-06
1.20472e-06
1.26227e-06
1.34999e-06
1.53025e-06
3.37974e-07
1.09443e-06
1.09656e-06
1.08749e-06
1.09979e-06
1.10057e-06
1.11254e-06
1.16816e-06
1.2499e-06
1.42654e-06
4.34677e-07
1.01008e-06
1.01241e-06
1.00926e-06
1.01554e-06
1.01641e-06
1.02808e-06
1.08123e-06
1.15821e-06
1.32608e-06
5.26742e-07
9.32594e-07
9.35108e-07
9.35926e-07
9.38238e-07
9.39035e-07
9.50317e-07
9.99988e-07
1.07393e-06
1.2357e-06
6.07009e-07
8.60884e-07
8.63614e-07
8.6366e-07
8.66705e-07
8.67384e-07
8.78243e-07
9.2524e-07
9.96179e-07
1.15646e-06
6.71077e-07
8.01731e-07
8.04994e-07
8.04628e-07
8.0799e-07
8.08573e-07
8.18949e-07
8.62574e-07
9.24242e-07
1.08271e-06
7.17809e-07
7.43999e-07
7.46728e-07
7.4588e-07
7.49634e-07
7.50084e-07
7.60201e-07
8.02853e-07
8.56932e-07
1.01519e-06
7.48168e-07
)
;

boundaryField
{
    fuel
    {
        type            fixedValue;
        value           uniform 0;
    }
    wall
    {
        type            zeroGradient;
    }
    outlet
    {
        type            zeroGradient;
    }
    frontAndBack
    {
        type            empty;
    }
    procBoundary3to0
    {
        type            processor;
        value           nonuniform List<scalar> 10(6.93331e-07 6.96563e-07 6.95387e-07 6.99284e-07 6.99659e-07 7.09224e-07 7.49169e-07 8.00694e-07 9.52378e-07 7.63275e-07);
    }
    procBoundary3to2
    {
        type            processor;
        value           nonuniform List<scalar> 
25
(
1.09101e-05
1.40821e-05
1.06288e-05
7.80706e-06
5.93007e-06
4.68739e-06
3.84349e-06
3.25264e-06
2.82922e-06
2.49137e-06
2.21869e-06
2.21869e-06
2.00096e-06
1.8186e-06
1.66131e-06
1.52275e-06
1.39894e-06
1.28732e-06
1.18609e-06
1.09392e-06
1.00967e-06
9.32301e-07
8.60789e-07
8.02104e-07
7.43587e-07
)
;
    }
}


// ************************************************************************* //
