/*--------------------------------*- C++ -*----------------------------------*\
| =========                 |                                                 |
| \\      /  F ield         | OpenFOAM: The Open Source CFD Toolbox           |
|  \\    /   O peration     | Version:  dev                                   |
|   \\  /    A nd           | Web:      www.OpenFOAM.org                      |
|    \\/     M anipulation  |                                                 |
\*---------------------------------------------------------------------------*/
FoamFile
{
    version     2.0;
    format      ascii;
    class       volScalarField;
    location    "0";
    object      C6H;
}
// * * * * * * * * * * * * * * * * * * * * * * * * * * * * * * * * * * * * * //

dimensions      [0 0 0 0 0 0 0];

internalField   nonuniform List<scalar> 
25
(
8.65895e-24
4.48146e-24
2.28239e-24
1.14361e-24
5.55441e-25
2.76139e-25
1.38226e-25
7.06636e-26
3.68938e-26
2.03149e-26
1.1657e-26
6.92014e-27
4.1975e-27
2.55538e-27
1.54635e-27
9.14244e-28
5.27489e-28
2.93923e-28
1.55167e-28
8.18569e-29
3.92203e-29
1.7673e-29
6.60808e-30
2.11849e-30
6.48763e-31
)
;

boundaryField
{
    wall
    {
        type            zeroGradient;
    }
    fuel
    {
        type            fixedValue;
        value           nonuniform 0();
    }
    outlet
    {
        type            inletOutlet;
        inletValue      uniform 0;
        value           uniform 6.48763e-31;
    }
    procBoundary3to2
    {
        type            processor;
        value           uniform 1.6368e-23;
    }
}


// ************************************************************************* //
