/*--------------------------------*- C++ -*----------------------------------*\
| =========                 |                                                 |
| \\      /  F ield         | OpenFOAM: The Open Source CFD Toolbox           |
|  \\    /   O peration     | Version:  dev                                   |
|   \\  /    A nd           | Web:      www.OpenFOAM.org                      |
|    \\/     M anipulation  |                                                 |
\*---------------------------------------------------------------------------*/
FoamFile
{
    version     2.0;
    format      ascii;
    class       volScalarField;
    location    "0";
    object      C6H2;
}
// * * * * * * * * * * * * * * * * * * * * * * * * * * * * * * * * * * * * * //

dimensions      [0 0 0 0 0 0 0];

internalField   nonuniform List<scalar> 
250
(
7.15455e-05
7.15464e-05
7.15538e-05
7.15481e-05
7.15541e-05
7.15475e-05
7.15573e-05
7.14997e-05
7.06738e-05
6.13059e-05
1.35914e-06
7.28472e-05
7.28472e-05
7.28542e-05
7.28462e-05
7.28461e-05
7.28508e-05
7.28846e-05
7.30636e-05
7.40542e-05
7.80964e-05
2.79037e-06
5.73551e-05
5.73574e-05
5.73642e-05
5.73519e-05
5.73467e-05
5.73609e-05
5.7412e-05
5.77104e-05
5.94159e-05
6.82852e-05
3.56309e-06
4.69789e-05
4.69851e-05
4.69918e-05
4.69746e-05
4.69607e-05
4.69883e-05
4.70554e-05
4.74378e-05
4.9496e-05
5.99008e-05
4.06573e-06
3.9936e-05
3.99473e-05
3.99538e-05
3.99311e-05
3.99039e-05
3.99505e-05
4.00335e-05
4.04884e-05
4.27607e-05
5.35936e-05
4.40603e-06
3.469e-05
3.47072e-05
3.47134e-05
3.46847e-05
3.46429e-05
3.47109e-05
3.48096e-05
3.53333e-05
3.77329e-05
4.85114e-05
4.62952e-06
3.05322e-05
3.05567e-05
3.05624e-05
3.05265e-05
3.04731e-05
3.05617e-05
3.06738e-05
3.12693e-05
3.37345e-05
4.41988e-05
4.77815e-06
2.71246e-05
2.71531e-05
2.71582e-05
2.71184e-05
2.70774e-05
2.71606e-05
2.72763e-05
2.79208e-05
3.045e-05
4.04267e-05
4.85449e-06
2.431e-05
2.43384e-05
2.4343e-05
2.4302e-05
2.4295e-05
2.43495e-05
2.44533e-05
2.49648e-05
2.74727e-05
3.70657e-05
4.78581e-06
2.17665e-05
2.17968e-05
2.18013e-05
2.17517e-05
2.17875e-05
2.18154e-05
2.19348e-05
2.25838e-05
2.47104e-05
3.4038e-05
4.53935e-06
1.95573e-05
1.95618e-05
1.95004e-05
1.95479e-05
1.95814e-05
1.97044e-05
2.03742e-05
2.25973e-05
3.12989e-05
4.27163e-06
1.7614e-05
1.7619e-05
1.75409e-05
1.75757e-05
1.7644e-05
1.77708e-05
1.84594e-05
2.06337e-05
2.8809e-05
4.32489e-06
1.59121e-05
1.59181e-05
1.58172e-05
1.60488e-05
1.59494e-05
1.60774e-05
1.67752e-05
1.87831e-05
2.65445e-05
4.90817e-06
1.44105e-05
1.44181e-05
1.42832e-05
1.45185e-05
1.44528e-05
1.45824e-05
1.52816e-05
1.73238e-05
2.4322e-05
5.85983e-06
1.3079e-05
1.30892e-05
1.309e-05
1.31611e-05
1.31252e-05
1.32558e-05
1.3948e-05
1.58299e-05
2.21147e-05
6.81566e-06
1.18946e-05
1.19072e-05
1.18966e-05
1.19588e-05
1.1944e-05
1.20745e-05
1.27521e-05
1.44659e-05
2.03652e-05
7.53675e-06
1.08391e-05
1.08537e-05
1.08285e-05
1.08929e-05
1.08911e-05
1.102e-05
1.16762e-05
1.32335e-05
1.87371e-05
8.01724e-06
9.89698e-06
9.91333e-06
9.86675e-06
9.94554e-06
9.95107e-06
1.00771e-05
1.07058e-05
1.21211e-05
1.72397e-05
8.36249e-06
9.05523e-06
9.0729e-06
8.99327e-06
9.10144e-06
9.11061e-06
9.23258e-06
9.82885e-06
1.11172e-05
1.58801e-05
8.65281e-06
8.30238e-06
8.32128e-06
8.29568e-06
8.34846e-06
8.35822e-06
8.47525e-06
9.03457e-06
1.02113e-05
1.45183e-05
8.90825e-06
7.62802e-06
7.64792e-06
7.65717e-06
7.67457e-06
7.68344e-06
7.79492e-06
8.3093e-06
9.39457e-06
1.32723e-05
9.11687e-06
7.02177e-06
7.04276e-06
7.04573e-06
7.06857e-06
7.07623e-06
7.18191e-06
7.65949e-06
8.65912e-06
1.21784e-05
9.25317e-06
6.5371e-06
6.56165e-06
6.56156e-06
6.58624e-06
6.59292e-06
6.69265e-06
7.12992e-06
7.99798e-06
1.11765e-05
9.30006e-06
6.08113e-06
6.10064e-06
6.09718e-06
6.12402e-06
6.12947e-06
6.22491e-06
6.6417e-06
7.40011e-06
1.02865e-05
9.2498e-06
)
;

boundaryField
{
    fuel
    {
        type            fixedValue;
        value           uniform 0;
    }
    wall
    {
        type            zeroGradient;
    }
    outlet
    {
        type            zeroGradient;
    }
    frontAndBack
    {
        type            empty;
    }
    procBoundary3to0
    {
        type            processor;
        value           nonuniform List<scalar> 10(5.69687e-06 5.71944e-06 5.71391e-06 5.74095e-06 5.74565e-06 5.83471e-06 6.21883e-06 6.91906e-06 9.49508e-06 9.10042e-06);
    }
    procBoundary3to2
    {
        type            processor;
        value           nonuniform List<scalar> 
25
(
7.15524e-05
7.28544e-05
5.73651e-05
4.69932e-05
3.99557e-05
3.47156e-05
3.05648e-05
2.71608e-05
2.43457e-05
2.1803e-05
1.95265e-05
1.95265e-05
1.75861e-05
1.58896e-05
1.43939e-05
1.30672e-05
1.1886e-05
1.08322e-05
9.89108e-06
9.05009e-06
8.29807e-06
7.62475e-06
7.02012e-06
6.53916e-06
6.077e-06
)
;
    }
}


// ************************************************************************* //
