/*--------------------------------*- C++ -*----------------------------------*\
| =========                 |                                                 |
| \\      /  F ield         | OpenFOAM: The Open Source CFD Toolbox           |
|  \\    /   O peration     | Version:  dev                                   |
|   \\  /    A nd           | Web:      www.OpenFOAM.org                      |
|    \\/     M anipulation  |                                                 |
\*---------------------------------------------------------------------------*/
FoamFile
{
    version     2.0;
    format      ascii;
    class       volScalarField;
    location    "0";
    object      CH2(S);
}
// * * * * * * * * * * * * * * * * * * * * * * * * * * * * * * * * * * * * * //

dimensions      [0 0 0 0 0 0 0];

internalField   nonuniform List<scalar> 
250
(
2.20496e-06
2.20499e-06
2.2051e-06
2.20502e-06
2.20525e-06
2.20507e-06
2.20497e-06
2.20115e-06
2.1645e-06
1.86195e-06
2.23657e-10
1.38811e-06
1.38808e-06
1.3882e-06
1.38807e-06
1.38828e-06
1.38814e-06
1.38815e-06
1.38671e-06
1.37153e-06
1.25927e-06
1.8338e-10
5.91225e-07
5.91203e-07
5.91301e-07
5.91177e-07
5.91352e-07
5.91212e-07
5.91248e-07
5.90491e-07
5.81196e-07
5.32535e-07
7.31432e-11
2.72147e-07
2.72145e-07
2.72208e-07
2.72119e-07
2.72232e-07
2.72133e-07
2.72149e-07
2.71577e-07
2.64203e-07
2.35236e-07
3.0809e-11
1.50003e-07
1.50014e-07
1.50052e-07
1.49984e-07
1.50049e-07
1.49995e-07
1.49995e-07
1.49482e-07
1.42966e-07
1.2042e-07
1.68177e-11
9.86635e-08
9.86814e-08
9.87049e-08
9.86493e-08
9.86854e-08
9.86625e-08
9.86555e-08
9.81573e-08
9.19497e-08
7.06528e-08
1.18584e-11
7.45864e-08
7.46145e-08
7.46304e-08
7.45744e-08
7.45741e-08
7.45983e-08
7.45867e-08
7.41018e-08
6.78923e-08
4.59856e-08
1.02594e-11
6.21503e-08
6.21794e-08
6.21913e-08
6.214e-08
6.21476e-08
6.21672e-08
6.21419e-08
6.16382e-08
5.53803e-08
3.24155e-08
1.12961e-11
5.51912e-08
5.52168e-08
5.5227e-08
5.51802e-08
5.52172e-08
5.52094e-08
5.51512e-08
5.42979e-08
4.7817e-08
2.43854e-08
2.23464e-11
5.06439e-08
5.06685e-08
5.06787e-08
5.06238e-08
5.07058e-08
5.06716e-08
5.06269e-08
4.99359e-08
4.28361e-08
1.9389e-08
7.17219e-11
4.75451e-08
4.75565e-08
4.74884e-08
4.75755e-08
4.75558e-08
4.75078e-08
4.67983e-08
3.98548e-08
1.61859e-08
1.97466e-10
4.52246e-08
4.52385e-08
4.51493e-08
4.52148e-08
4.52444e-08
4.51979e-08
4.44947e-08
3.75732e-08
1.41104e-08
3.65004e-10
4.33254e-08
4.33431e-08
4.32235e-08
4.34967e-08
4.33571e-08
4.33128e-08
4.26302e-08
3.57176e-08
1.2792e-08
4.9656e-10
4.16428e-08
4.16658e-08
4.14989e-08
4.17853e-08
4.16864e-08
4.16476e-08
4.1002e-08
3.4382e-08
1.19459e-08
6.00757e-10
4.00635e-08
4.00939e-08
4.00699e-08
4.0187e-08
4.01202e-08
4.00894e-08
3.94959e-08
3.30981e-08
1.14785e-08
7.13291e-10
3.85215e-08
3.85601e-08
3.85072e-08
3.86368e-08
3.85929e-08
3.85721e-08
3.80446e-08
3.19447e-08
1.13638e-08
8.43565e-10
3.69748e-08
3.70225e-08
3.69343e-08
3.70918e-08
3.70629e-08
3.70537e-08
3.66036e-08
3.08738e-08
1.1465e-08
9.92667e-10
3.53941e-08
3.54518e-08
3.53132e-08
3.55199e-08
3.55006e-08
3.55043e-08
3.51408e-08
2.98391e-08
1.17298e-08
1.16955e-09
3.37566e-08
3.38253e-08
3.361e-08
3.38965e-08
3.38828e-08
3.39007e-08
3.36301e-08
2.88006e-08
1.21089e-08
1.39235e-09
3.2043e-08
3.21246e-08
3.20197e-08
3.22024e-08
3.21899e-08
3.22231e-08
3.20476e-08
2.77238e-08
1.25949e-08
1.68552e-09
3.02352e-08
3.03315e-08
3.03112e-08
3.04167e-08
3.04032e-08
3.04533e-08
3.03601e-08
2.65779e-08
1.31047e-08
2.07399e-09
2.83124e-08
2.84267e-08
2.83811e-08
2.85175e-08
2.85032e-08
2.8572e-08
2.85868e-08
2.53367e-08
1.3556e-08
2.57679e-09
2.64812e-08
2.66243e-08
2.65601e-08
2.6718e-08
2.67037e-08
2.67878e-08
2.68776e-08
2.39781e-08
1.39248e-08
3.19829e-09
2.44446e-08
2.45804e-08
2.44926e-08
2.46775e-08
2.46626e-08
2.47721e-08
2.50148e-08
2.24737e-08
1.41504e-08
3.92118e-09
)
;

boundaryField
{
    fuel
    {
        type            fixedValue;
        value           uniform 0;
    }
    wall
    {
        type            zeroGradient;
    }
    outlet
    {
        type            zeroGradient;
    }
    frontAndBack
    {
        type            empty;
    }
    procBoundary3to0
    {
        type            processor;
        value           nonuniform List<scalar> 10(2.24139e-08 2.25773e-08 2.2472e-08 2.26742e-08 2.26604e-08 2.27832e-08 2.31077e-08 2.09864e-08 1.4177e-08 4.68853e-09);
    }
    procBoundary3to2
    {
        type            processor;
        value           nonuniform List<scalar> 
25
(
2.20504e-06
1.38816e-06
5.91311e-07
2.72238e-07
1.5008e-07
9.87273e-08
7.46466e-08
6.22025e-08
5.52345e-08
5.06816e-08
4.7522e-08
4.7522e-08
4.51995e-08
4.33028e-08
4.16246e-08
4.00499e-08
3.85116e-08
3.6968e-08
3.53901e-08
3.37555e-08
3.20452e-08
3.02414e-08
2.83254e-08
2.65104e-08
2.44464e-08
)
;
    }
}


// ************************************************************************* //
