/*--------------------------------*- C++ -*----------------------------------*\
| =========                 |                                                 |
| \\      /  F ield         | OpenFOAM: The Open Source CFD Toolbox           |
|  \\    /   O peration     | Version:  dev                                   |
|   \\  /    A nd           | Web:      www.OpenFOAM.org                      |
|    \\/     M anipulation  |                                                 |
\*---------------------------------------------------------------------------*/
FoamFile
{
    version     2.0;
    format      ascii;
    class       volScalarField;
    location    "0";
    object      CH2OH;
}
// * * * * * * * * * * * * * * * * * * * * * * * * * * * * * * * * * * * * * //

dimensions      [0 0 0 0 0 0 0];

internalField   nonuniform List<scalar> 
250
(
1.47465e-06
1.47466e-06
1.47469e-06
1.47468e-06
1.47474e-06
1.47472e-06
1.47471e-06
1.47385e-06
1.46537e-06
1.39454e-06
1.68382e-10
8.06394e-07
8.06375e-07
8.06424e-07
8.06368e-07
8.06452e-07
8.06409e-07
8.06463e-07
8.06497e-07
8.0562e-07
8.04179e-07
1.2014e-10
3.37055e-07
3.37041e-07
3.37091e-07
3.37028e-07
3.37108e-07
3.3705e-07
3.37102e-07
3.3716e-07
3.36171e-07
3.41967e-07
4.99125e-11
1.5398e-07
1.53977e-07
1.54011e-07
1.53963e-07
1.54017e-07
1.53972e-07
1.54005e-07
1.53986e-07
1.52382e-07
1.55279e-07
2.34903e-11
8.39961e-08
8.40016e-08
8.4022e-08
8.39848e-08
8.40148e-08
8.39923e-08
8.40115e-08
8.39396e-08
8.2023e-08
8.17662e-08
1.6127e-11
5.45963e-08
5.46059e-08
5.46185e-08
5.45881e-08
5.46025e-08
5.45964e-08
5.46092e-08
5.45064e-08
5.23874e-08
4.92427e-08
1.94723e-11
4.08357e-08
4.08511e-08
4.08595e-08
4.08287e-08
4.08231e-08
4.0843e-08
4.08526e-08
4.07409e-08
3.84429e-08
3.28315e-08
5.36364e-11
3.37425e-08
3.37583e-08
3.37644e-08
3.37364e-08
3.37361e-08
3.37524e-08
3.37541e-08
3.36264e-08
3.1221e-08
2.36448e-08
3.15723e-10
2.978e-08
2.97935e-08
2.97986e-08
2.97735e-08
2.97907e-08
2.97902e-08
2.97736e-08
2.94446e-08
2.68754e-08
1.80924e-08
2.15021e-09
2.71958e-08
2.72086e-08
2.72136e-08
2.71842e-08
2.72274e-08
2.72112e-08
2.72031e-08
2.69698e-08
2.40249e-08
1.45295e-08
1.01523e-08
2.54402e-08
2.54456e-08
2.54092e-08
2.54547e-08
2.54467e-08
2.54377e-08
2.51966e-08
2.23276e-08
1.21549e-08
2.77854e-08
2.41355e-08
2.4142e-08
2.40942e-08
2.41268e-08
2.41468e-08
2.41393e-08
2.39033e-08
2.10297e-08
1.05495e-08
3.98495e-08
2.30785e-08
2.30869e-08
2.30226e-08
2.31719e-08
2.3096e-08
2.30903e-08
2.28657e-08
1.99715e-08
9.47668e-09
3.30268e-08
2.2154e-08
2.21649e-08
2.2075e-08
2.22302e-08
2.21775e-08
2.2175e-08
2.19688e-08
1.92094e-08
8.7384e-09
1.97443e-08
2.12989e-08
2.13134e-08
2.13037e-08
2.13631e-08
2.13288e-08
2.13306e-08
2.11489e-08
1.84724e-08
8.26625e-09
1.01856e-08
2.04769e-08
2.04954e-08
2.04711e-08
2.05353e-08
2.05139e-08
2.05207e-08
2.03688e-08
1.78097e-08
8.05927e-09
5.18933e-09
1.96656e-08
1.96884e-08
1.96462e-08
1.97236e-08
1.97105e-08
1.97228e-08
1.96049e-08
1.7197e-08
7.99801e-09
3.01925e-09
1.88494e-08
1.8877e-08
1.8809e-08
1.89109e-08
1.8903e-08
1.89211e-08
1.88402e-08
1.66106e-08
8.04345e-09
2.22054e-09
1.80166e-08
1.80493e-08
1.79414e-08
1.80843e-08
1.80794e-08
1.81037e-08
1.80617e-08
1.60307e-08
8.16163e-09
2.00823e-09
1.7157e-08
1.71958e-08
1.71449e-08
1.72338e-08
1.72294e-08
1.72603e-08
1.72571e-08
1.54403e-08
8.33851e-09
2.04878e-09
1.62608e-08
1.63064e-08
1.62991e-08
1.63479e-08
1.6343e-08
1.63808e-08
1.64094e-08
1.48244e-08
8.52991e-09
2.22349e-09
1.53162e-08
1.53703e-08
1.53505e-08
1.54145e-08
1.5409e-08
1.54547e-08
1.55271e-08
1.41702e-08
8.69668e-09
2.49436e-09
1.44266e-08
1.44947e-08
1.44658e-08
1.45403e-08
1.45345e-08
1.45865e-08
1.46872e-08
1.34663e-08
8.82172e-09
2.84359e-09
1.34387e-08
1.35033e-08
1.34627e-08
1.35506e-08
1.35444e-08
1.36076e-08
1.37763e-08
1.26969e-08
8.87645e-09
3.25075e-09
)
;

boundaryField
{
    fuel
    {
        type            fixedValue;
        value           uniform 0;
    }
    wall
    {
        type            zeroGradient;
    }
    outlet
    {
        type            zeroGradient;
    }
    frontAndBack
    {
        type            empty;
    }
    procBoundary3to0
    {
        type            processor;
        value           nonuniform List<scalar> 10(1.24572e-08 1.25356e-08 1.24862e-08 1.25829e-08 1.2577e-08 1.26457e-08 1.28477e-08 1.19465e-08 8.83399e-09 3.67695e-09);
    }
    procBoundary3to2
    {
        type            processor;
        value           nonuniform List<scalar> 
25
(
1.47467e-06
8.06409e-07
3.37099e-07
1.54029e-07
8.4039e-08
5.46317e-08
4.08691e-08
3.37711e-08
2.98033e-08
2.72157e-08
2.54281e-08
2.54281e-08
2.41223e-08
2.30667e-08
2.21445e-08
2.12917e-08
2.04716e-08
1.96617e-08
1.88469e-08
1.80154e-08
1.71574e-08
1.62631e-08
1.53218e-08
1.44403e-08
1.34391e-08
)
;
    }
}


// ************************************************************************* //
