/*--------------------------------*- C++ -*----------------------------------*\
| =========                 |                                                 |
| \\      /  F ield         | OpenFOAM: The Open Source CFD Toolbox           |
|  \\    /   O peration     | Version:  dev                                   |
|   \\  /    A nd           | Web:      www.OpenFOAM.org                      |
|    \\/     M anipulation  |                                                 |
\*---------------------------------------------------------------------------*/
FoamFile
{
    version     2.0;
    format      ascii;
    class       volScalarField;
    location    "0";
    object      CH3;
}
// * * * * * * * * * * * * * * * * * * * * * * * * * * * * * * * * * * * * * //

dimensions      [0 0 0 0 0 0 0];

internalField   nonuniform List<scalar> 
250
(
0.000791468
0.000791465
0.000791462
0.000791469
0.000791471
0.000791492
0.000791504
0.00079168
0.000793237
0.000806409
1.23277e-06
0.000561672
0.00056166
0.000561668
0.000561657
0.000561673
0.000561682
0.000561718
0.000562085
0.000565025
0.000590287
9.91587e-07
0.000368976
0.000368966
0.000368985
0.000368959
0.00036899
0.000368978
0.000369023
0.000369338
0.000371353
0.00039261
6.99504e-07
0.000257399
0.000257395
0.000257418
0.000257384
0.000257418
0.000257398
0.000257441
0.000257664
0.00025847
0.000274474
5.38129e-07
0.000195127
0.000195131
0.000195152
0.000195114
0.000195141
0.000195127
0.000195166
0.0001953
0.000194991
0.000205408
4.80018e-07
0.000159991
0.000160003
0.00016002
0.000159979
0.000159995
0.000159995
0.000160033
0.000160092
0.000158781
0.000162743
5.08119e-07
0.000139767
0.000139792
0.000139805
0.000139755
0.000139745
0.000139784
0.000139821
0.00013984
0.000137635
0.000134614
7.2219e-07
0.00012781
0.000127838
0.000127849
0.000127799
0.000127797
0.000127833
0.00012786
0.000127835
0.000124966
0.000115121
1.66447e-06
0.000120508
0.000120534
0.000120543
0.000120494
0.000120526
0.000120533
0.000120528
0.000120108
0.000116546
0.000101163
4.83058e-06
0.000115443
0.000115469
0.00011548
0.000115418
0.000115505
0.00011548
0.000115495
0.00011525
0.000110611
9.0969e-05
1.01591e-05
0.000111839
0.00011185
0.000111771
0.000111867
0.000111859
0.000111875
0.000111609
0.000106883
8.34721e-05
1.38323e-05
0.000109053
0.000109068
0.00010896
0.000109032
0.000109085
0.000109108
0.000108851
0.000103904
7.79835e-05
1.45571e-05
0.000106715
0.000106734
0.000106586
0.000106923
0.000106762
0.000106792
0.000106561
0.000101371
7.40573e-05
1.45501e-05
0.000104603
0.000104628
0.000104417
0.000104776
0.000104665
0.000104705
0.000104516
9.94719e-05
7.11552e-05
1.53816e-05
0.000102592
0.000102626
0.000102603
0.000102742
0.00010267
0.000102724
0.00010259
9.7565e-05
6.91364e-05
1.71577e-05
0.00010061
0.000100653
0.000100595
0.000100748
0.000100706
0.000100774
0.000100708
9.579e-05
6.81417e-05
1.94509e-05
9.86092e-05
9.86638e-05
9.8562e-05
9.87498e-05
9.87268e-05
9.88105e-05
9.88209e-05
9.40995e-05
6.77076e-05
2.18754e-05
9.65579e-05
9.66249e-05
9.64574e-05
9.67096e-05
9.6699e-05
9.67992e-05
9.68935e-05
9.24429e-05
6.76953e-05
2.42722e-05
9.44277e-05
9.45087e-05
9.42362e-05
9.45979e-05
9.45946e-05
9.4712e-05
9.48946e-05
9.07757e-05
6.79741e-05
2.66741e-05
9.21909e-05
9.22888e-05
9.2161e-05
9.23877e-05
9.23858e-05
9.25212e-05
9.2793e-05
8.90564e-05
6.84612e-05
2.92036e-05
8.98159e-05
8.99338e-05
8.99196e-05
9.00445e-05
9.00408e-05
9.0196e-05
9.05393e-05
8.72449e-05
6.90028e-05
3.19679e-05
8.72603e-05
8.7404e-05
8.73554e-05
8.7525e-05
8.75192e-05
8.76969e-05
8.81478e-05
8.53012e-05
6.94555e-05
3.50039e-05
8.47945e-05
8.49809e-05
8.4906e-05
8.51093e-05
8.51024e-05
8.5299e-05
8.58204e-05
8.31836e-05
6.97546e-05
3.82541e-05
8.19797e-05
8.21621e-05
8.20512e-05
8.23003e-05
8.2291e-05
8.25224e-05
8.3233e-05
8.08287e-05
6.98046e-05
4.15791e-05
)
;

boundaryField
{
    fuel
    {
        type            fixedValue;
        value           uniform 0;
    }
    wall
    {
        type            zeroGradient;
    }
    outlet
    {
        type            zeroGradient;
    }
    frontAndBack
    {
        type            empty;
    }
    procBoundary3to0
    {
        type            processor;
        value           nonuniform List<scalar> 10(7.9083e-05 7.93142e-05 7.91724e-05 7.94577e-05 7.94485e-05 7.97001e-05 8.05135e-05 7.84771e-05 6.95052e-05 4.4728e-05);
    }
    procBoundary3to2
    {
        type            processor;
        value           nonuniform List<scalar> 
25
(
0.000791461
0.000561667
0.000368992
0.000257434
0.000195172
0.000160039
0.000139821
0.000127861
0.000120552
0.000115483
0.000111813
0.000111813
0.000109025
0.000106689
0.000104581
0.000102575
0.000100596
9.85991e-05
9.65505e-05
9.44233e-05
9.21902e-05
8.98202e-05
8.72735e-05
8.48306e-05
8.19784e-05
)
;
    }
}


// ************************************************************************* //
