/*--------------------------------*- C++ -*----------------------------------*\
| =========                 |                                                 |
| \\      /  F ield         | OpenFOAM: The Open Source CFD Toolbox           |
|  \\    /   O peration     | Version:  dev                                   |
|   \\  /    A nd           | Web:      www.OpenFOAM.org                      |
|    \\/     M anipulation  |                                                 |
\*---------------------------------------------------------------------------*/
FoamFile
{
    version     2.0;
    format      ascii;
    class       volScalarField;
    location    "0";
    object      CH3OH;
}
// * * * * * * * * * * * * * * * * * * * * * * * * * * * * * * * * * * * * * //

dimensions      [0 0 0 0 0 0 0];

internalField   nonuniform List<scalar> 
250
(
7.29273e-06
7.2926e-06
7.29222e-06
7.29259e-06
7.29188e-06
7.29282e-06
7.29362e-06
7.31083e-06
7.47283e-06
9.09232e-06
8.4286e-06
2.48238e-06
2.48231e-06
2.48233e-06
2.48229e-06
2.48224e-06
2.48243e-06
2.48295e-06
2.48933e-06
2.54431e-06
3.07526e-06
2.37131e-05
1.20759e-06
1.20755e-06
1.20763e-06
1.20753e-06
1.20757e-06
1.20763e-06
1.20805e-06
1.21202e-06
1.24293e-06
1.5623e-06
3.58678e-05
7.3497e-07
7.34962e-07
7.3504e-07
7.34925e-07
7.34965e-07
7.34995e-07
7.35367e-07
7.3836e-07
7.59239e-07
1.00722e-06
4.30478e-05
5.14955e-07
5.14978e-07
5.15042e-07
5.14916e-07
5.14922e-07
5.14983e-07
5.15324e-07
5.17764e-07
5.327e-07
7.4024e-07
4.60525e-05
4.00343e-07
4.0039e-07
4.00439e-07
4.00308e-07
4.0027e-07
4.00384e-07
4.00717e-07
4.02839e-07
4.13723e-07
5.88682e-07
4.63005e-05
3.36723e-07
3.36807e-07
3.36843e-07
3.36687e-07
3.36563e-07
3.368e-07
3.37138e-07
3.39156e-07
3.47121e-07
4.923e-07
4.51702e-05
2.9958e-07
2.99673e-07
2.99701e-07
2.99544e-07
2.99462e-07
2.99674e-07
2.9999e-07
3.01935e-07
3.08106e-07
4.25928e-07
4.3277e-05
2.76845e-07
2.76927e-07
2.7695e-07
2.76801e-07
2.76845e-07
2.76942e-07
2.77165e-07
2.77945e-07
2.82404e-07
3.76347e-07
3.93564e-05
2.60891e-07
2.60975e-07
2.60997e-07
2.60813e-07
2.6104e-07
2.61026e-07
2.61327e-07
2.62767e-07
2.64233e-07
3.35198e-07
3.14013e-05
2.49379e-07
2.49402e-07
2.49167e-07
2.4942e-07
2.49456e-07
2.49775e-07
2.51242e-07
2.52763e-07
2.99564e-07
2.1373e-05
2.40439e-07
2.40467e-07
2.4015e-07
2.4032e-07
2.40546e-07
2.40897e-07
2.42456e-07
2.43459e-07
2.69881e-07
1.26887e-05
2.33008e-07
2.33043e-07
2.32609e-07
2.33636e-07
2.33154e-07
2.33533e-07
2.35197e-07
2.35401e-07
2.46666e-07
6.76411e-06
2.26459e-07
2.26506e-07
2.25891e-07
2.2696e-07
2.2664e-07
2.27053e-07
2.28834e-07
2.29305e-07
2.28221e-07
3.30068e-06
2.20449e-07
2.20515e-07
2.20502e-07
2.20852e-07
2.20666e-07
2.21114e-07
2.23013e-07
2.23107e-07
2.13692e-07
1.50882e-06
2.14788e-07
2.14874e-07
2.14781e-07
2.15131e-07
2.15041e-07
2.15524e-07
2.17538e-07
2.17353e-07
2.04322e-07
6.84024e-07
2.0936e-07
2.09467e-07
2.09272e-07
2.09681e-07
2.09653e-07
2.10167e-07
2.12287e-07
2.11961e-07
1.97248e-07
3.42441e-07
2.04093e-07
2.04221e-07
2.0387e-07
2.04417e-07
2.04426e-07
2.04969e-07
2.07181e-07
2.06833e-07
1.91862e-07
2.11412e-07
1.98929e-07
1.99079e-07
1.98473e-07
1.99273e-07
1.99304e-07
1.99871e-07
2.02158e-07
2.01891e-07
1.87709e-07
1.62537e-07
1.93816e-07
1.93993e-07
1.93747e-07
1.94199e-07
1.94234e-07
1.94821e-07
1.97163e-07
1.97067e-07
1.84123e-07
1.43759e-07
1.88698e-07
1.88904e-07
1.8893e-07
1.89128e-07
1.89158e-07
1.89764e-07
1.92101e-07
1.92304e-07
1.81064e-07
1.3625e-07
1.83499e-07
1.83742e-07
1.83703e-07
1.8398e-07
1.84004e-07
1.8463e-07
1.8702e-07
1.87541e-07
1.78417e-07
1.33598e-07
1.78806e-07
1.79118e-07
1.79035e-07
1.79364e-07
1.79383e-07
1.80021e-07
1.82391e-07
1.82718e-07
1.75822e-07
1.33479e-07
1.73687e-07
1.7398e-07
1.73837e-07
1.74238e-07
1.74249e-07
1.74926e-07
1.77507e-07
1.77722e-07
1.73185e-07
1.34784e-07
)
;

boundaryField
{
    fuel
    {
        type            fixedValue;
        value           uniform 0;
    }
    wall
    {
        type            zeroGradient;
    }
    outlet
    {
        type            zeroGradient;
    }
    frontAndBack
    {
        type            empty;
    }
    procBoundary3to0
    {
        type            processor;
        value           nonuniform List<scalar> 10(1.68696e-07 1.69067e-07 1.68874e-07 1.69327e-07 1.69335e-07 1.70022e-07 1.72643e-07 1.73104e-07 1.70336e-07 1.36675e-07);
    }
    procBoundary3to2
    {
        type            processor;
        value           nonuniform List<scalar> 
25
(
7.2924e-06
2.48234e-06
1.20766e-06
7.35097e-07
5.15106e-07
4.00498e-07
3.36892e-07
2.99739e-07
2.7698e-07
2.61014e-07
2.49297e-07
2.49297e-07
2.40352e-07
2.32929e-07
2.26395e-07
2.204e-07
2.14749e-07
2.09328e-07
2.04066e-07
1.98906e-07
1.938e-07
1.88691e-07
1.83508e-07
1.78858e-07
1.7367e-07
)
;
    }
}


// ************************************************************************* //
