/*--------------------------------*- C++ -*----------------------------------*\
| =========                 |                                                 |
| \\      /  F ield         | OpenFOAM: The Open Source CFD Toolbox           |
|  \\    /   O peration     | Version:  dev                                   |
|   \\  /    A nd           | Web:      www.OpenFOAM.org                      |
|    \\/     M anipulation  |                                                 |
\*---------------------------------------------------------------------------*/
FoamFile
{
    version     2.0;
    format      ascii;
    class       volScalarField;
    location    "0";
    object      H2C4O;
}
// * * * * * * * * * * * * * * * * * * * * * * * * * * * * * * * * * * * * * //

dimensions      [0 0 0 0 0 0 0];

internalField   nonuniform List<scalar> 
250
(
1.60776e-05
1.60777e-05
1.60784e-05
1.60779e-05
1.6078e-05
1.60779e-05
1.60801e-05
1.60894e-05
1.61318e-05
1.61009e-05
2.06773e-06
9.99158e-06
9.99157e-06
9.99229e-06
9.99144e-06
9.9913e-06
9.99197e-06
9.996e-06
1.00215e-05
1.01861e-05
1.12356e-05
3.51576e-06
7.14536e-06
7.14564e-06
7.14634e-06
7.14507e-06
7.14449e-06
7.14602e-06
7.15146e-06
7.18472e-06
7.38299e-06
8.61193e-06
3.84076e-06
5.82869e-06
5.82939e-06
5.83007e-06
5.82831e-06
5.82681e-06
5.82975e-06
5.83677e-06
5.8773e-06
6.0981e-06
7.3713e-06
3.88737e-06
5.0575e-06
5.05876e-06
5.05942e-06
5.05706e-06
5.05414e-06
5.05913e-06
5.06787e-06
5.11577e-06
5.35406e-06
6.62467e-06
3.83282e-06
4.51675e-06
4.51866e-06
4.51929e-06
4.51626e-06
4.51175e-06
4.51909e-06
4.52964e-06
4.58521e-06
4.83606e-06
6.07526e-06
3.72234e-06
4.095e-06
4.09771e-06
4.0983e-06
4.09444e-06
4.08869e-06
4.0983e-06
4.11047e-06
4.17446e-06
4.43379e-06
5.62277e-06
3.59112e-06
3.74644e-06
3.74962e-06
3.75017e-06
3.74578e-06
3.74138e-06
3.7505e-06
3.76329e-06
3.83352e-06
4.10254e-06
5.22852e-06
3.43903e-06
3.4524e-06
3.45563e-06
3.45614e-06
3.45151e-06
3.45081e-06
3.45694e-06
3.46873e-06
3.5263e-06
3.79695e-06
4.87469e-06
3.15285e-06
3.17915e-06
3.18266e-06
3.18318e-06
3.17742e-06
3.18146e-06
3.18484e-06
3.19864e-06
3.2726e-06
3.50636e-06
4.55206e-06
2.57355e-06
2.93455e-06
2.93509e-06
2.92782e-06
2.93327e-06
2.93743e-06
2.95195e-06
3.02991e-06
3.27849e-06
4.25613e-06
1.82734e-06
2.71265e-06
2.71325e-06
2.70382e-06
2.70809e-06
2.71629e-06
2.73155e-06
2.81331e-06
3.0612e-06
3.98343e-06
1.23918e-06
2.51266e-06
2.5134e-06
2.50102e-06
2.52896e-06
2.51724e-06
2.53295e-06
2.61748e-06
2.85115e-06
3.73217e-06
9.47804e-07
2.33144e-06
2.3324e-06
2.31568e-06
2.34454e-06
2.33674e-06
2.35295e-06
2.43931e-06
2.68168e-06
3.48254e-06
8.92526e-07
2.16671e-06
2.16802e-06
2.16807e-06
2.17689e-06
2.17261e-06
2.18924e-06
2.2764e-06
2.50416e-06
3.23161e-06
9.76196e-07
2.01673e-06
2.01837e-06
2.01692e-06
2.02488e-06
2.02315e-06
2.04007e-06
2.12702e-06
2.3386e-06
3.03038e-06
1.12335e-06
1.88007e-06
1.88201e-06
1.87858e-06
1.88708e-06
1.88696e-06
1.90399e-06
1.98976e-06
2.18588e-06
2.84073e-06
1.28413e-06
1.75548e-06
1.75768e-06
1.75131e-06
1.76196e-06
1.76277e-06
1.77972e-06
1.86343e-06
2.04524e-06
2.66403e-06
1.43027e-06
1.64185e-06
1.64428e-06
1.63329e-06
1.64816e-06
1.64945e-06
1.66617e-06
1.74702e-06
1.91582e-06
2.50136e-06
1.54852e-06
1.53819e-06
1.54084e-06
1.53723e-06
1.54462e-06
1.546e-06
1.56233e-06
1.63954e-06
1.79677e-06
2.33588e-06
1.6347e-06
1.44354e-06
1.44637e-06
1.44767e-06
1.45016e-06
1.45142e-06
1.46726e-06
1.53955e-06
1.68745e-06
2.18203e-06
1.6902e-06
1.35686e-06
1.3599e-06
1.36032e-06
1.36364e-06
1.36475e-06
1.38003e-06
1.44835e-06
1.58719e-06
2.04468e-06
1.7183e-06
1.28637e-06
1.28999e-06
1.28997e-06
1.29361e-06
1.29459e-06
1.30924e-06
1.3728e-06
1.49546e-06
1.9169e-06
1.7234e-06
1.21896e-06
1.22189e-06
1.22137e-06
1.22539e-06
1.2262e-06
1.24045e-06
1.30202e-06
1.41108e-06
1.80141e-06
1.70973e-06
)
;

boundaryField
{
    fuel
    {
        type            fixedValue;
        value           uniform 0;
    }
    wall
    {
        type            zeroGradient;
    }
    outlet
    {
        type            zeroGradient;
    }
    frontAndBack
    {
        type            empty;
    }
    procBoundary3to0
    {
        type            processor;
        value           nonuniform List<scalar> 10(1.1613e-06 1.16473e-06 1.16389e-06 1.168e-06 1.1687e-06 1.1822e-06 1.23979e-06 1.3421e-06 1.69687e-06 1.68069e-06);
    }
    procBoundary3to2
    {
        type            processor;
        value           nonuniform List<scalar> 
25
(
1.60783e-05
9.99229e-06
7.1464e-06
5.83018e-06
5.05957e-06
4.51947e-06
4.0985e-06
3.75038e-06
3.45638e-06
3.18332e-06
2.93093e-06
2.93093e-06
2.70931e-06
2.50993e-06
2.32939e-06
2.16522e-06
2.01561e-06
1.87915e-06
1.75467e-06
1.64114e-06
1.53759e-06
1.44307e-06
1.35662e-06
1.28667e-06
1.21835e-06
)
;
    }
}


// ************************************************************************* //
