/*--------------------------------*- C++ -*----------------------------------*\
| =========                 |                                                 |
| \\      /  F ield         | OpenFOAM: The Open Source CFD Toolbox           |
|  \\    /   O peration     | Version:  dev                                   |
|   \\  /    A nd           | Web:      www.OpenFOAM.org                      |
|    \\/     M anipulation  |                                                 |
\*---------------------------------------------------------------------------*/
FoamFile
{
    version     2.0;
    format      ascii;
    class       volScalarField;
    location    "0";
    object      HCO;
}
// * * * * * * * * * * * * * * * * * * * * * * * * * * * * * * * * * * * * * //

dimensions      [0 0 0 0 0 0 0];

internalField   nonuniform List<scalar> 
25
(
1.08431e-07
1.10963e-07
1.13913e-07
1.17444e-07
1.21492e-07
1.26224e-07
1.31825e-07
1.38448e-07
1.46158e-07
1.5558e-07
1.66573e-07
1.79862e-07
1.96022e-07
2.15847e-07
2.40426e-07
2.71168e-07
3.09996e-07
3.5911e-07
4.20011e-07
4.90005e-07
5.54478e-07
5.81023e-07
5.33408e-07
4.01276e-07
2.04302e-07
)
;

boundaryField
{
    wall
    {
        type            zeroGradient;
    }
    fuel
    {
        type            fixedValue;
        value           nonuniform 0();
    }
    outlet
    {
        type            inletOutlet;
        inletValue      uniform 0;
        value           uniform 2.04302e-07;
    }
    procBoundary3to2
    {
        type            processor;
        value           uniform 1.06251e-07;
    }
}


// ************************************************************************* //
