/*--------------------------------*- C++ -*----------------------------------*\
| =========                 |                                                 |
| \\      /  F ield         | OpenFOAM: The Open Source CFD Toolbox           |
|  \\    /   O peration     | Version:  dev                                   |
|   \\  /    A nd           | Web:      www.OpenFOAM.org                      |
|    \\/     M anipulation  |                                                 |
\*---------------------------------------------------------------------------*/
FoamFile
{
    version     2.0;
    format      ascii;
    class       volScalarField;
    location    "0";
    object      n-A1C2H2;
}
// * * * * * * * * * * * * * * * * * * * * * * * * * * * * * * * * * * * * * //

dimensions      [0 0 0 0 0 0 0];

internalField   nonuniform List<scalar> 
250
(
1.66821e-08
1.66813e-08
1.66814e-08
1.6682e-08
1.66803e-08
1.66822e-08
1.66873e-08
1.67491e-08
1.72894e-08
2.18017e-08
1.65637e-11
4.29773e-09
4.29736e-09
4.29764e-09
4.29751e-09
4.29725e-09
4.29776e-09
4.30016e-09
4.32572e-09
4.54556e-09
6.68008e-09
2.42711e-10
1.51945e-09
1.51928e-09
1.5195e-09
1.5193e-09
1.51928e-09
1.51949e-09
1.52097e-09
1.53534e-09
1.65548e-09
2.96587e-09
6.84796e-10
7.11206e-10
7.1114e-10
7.1129e-10
7.11104e-10
7.1107e-10
7.11247e-10
7.12339e-10
7.2235e-10
8.03951e-10
1.7958e-09
1.06838e-09
3.9107e-10
3.9107e-10
3.91168e-10
3.90993e-10
3.90883e-10
3.91122e-10
3.92001e-10
3.99658e-10
4.60516e-10
1.26783e-09
1.22746e-09
2.3901e-10
2.39049e-10
2.39114e-10
2.38951e-10
2.38764e-10
2.39075e-10
2.3983e-10
2.4608e-10
2.94106e-10
9.70798e-10
1.20586e-09
1.58404e-10
1.58487e-10
1.58529e-10
1.58356e-10
1.58061e-10
1.58502e-10
1.59176e-10
1.64635e-10
2.04237e-10
7.80072e-10
1.19348e-09
1.12152e-10
1.12235e-10
1.12262e-10
1.12115e-10
1.11898e-10
1.1225e-10
1.12815e-10
1.17665e-10
1.51917e-10
6.45752e-10
1.39073e-09
8.41387e-11
8.41962e-11
8.42133e-11
8.41079e-11
8.40759e-11
8.42179e-11
8.45957e-11
8.75234e-11
1.17199e-10
5.44248e-10
1.76598e-09
6.50237e-11
6.50757e-11
6.50872e-11
6.49757e-11
6.51645e-11
6.51257e-11
6.55377e-11
6.89132e-11
9.27286e-11
4.63179e-10
1.98952e-09
5.20763e-11
5.20834e-11
5.19547e-11
5.21484e-11
5.21363e-11
5.25148e-11
5.55612e-11
7.76616e-11
3.95896e-10
2.04501e-09
4.3093e-11
4.30982e-11
4.29323e-11
4.3002e-11
4.31624e-11
4.35272e-11
4.63372e-11
6.60204e-11
3.38575e-10
1.82471e-09
3.66217e-11
3.66269e-11
3.64042e-11
3.7125e-11
3.6705e-11
3.70553e-11
3.96577e-11
5.6645e-11
2.89244e-10
1.39386e-09
3.17704e-11
3.17776e-11
3.14592e-11
3.21243e-11
3.18609e-11
3.22031e-11
3.46244e-11
5.01073e-11
2.43535e-10
9.81429e-10
2.80028e-11
2.80146e-11
2.80698e-11
2.82405e-11
2.80974e-11
2.84337e-11
3.06914e-11
4.4082e-11
2.01072e-10
6.71004e-10
2.49896e-11
2.50055e-11
2.50238e-11
2.51505e-11
2.50872e-11
2.54171e-11
2.75231e-11
3.90433e-11
1.69595e-10
4.53424e-10
2.25232e-11
2.25424e-11
2.2524e-11
2.26396e-11
2.2623e-11
2.29449e-11
2.49063e-11
3.48084e-11
1.42398e-10
3.07896e-10
2.04695e-11
2.0491e-11
2.04261e-11
2.05615e-11
2.05703e-11
2.08822e-11
2.27037e-11
3.12182e-11
1.19338e-10
2.14594e-10
1.87394e-11
1.87623e-11
1.86286e-11
1.88183e-11
1.88401e-11
1.914e-11
2.08247e-11
2.81577e-11
1.00205e-10
1.55927e-10
1.7273e-11
1.72967e-11
1.72685e-11
1.73459e-11
1.73717e-11
1.76579e-11
1.92078e-11
2.5539e-11
8.2958e-11
1.18762e-10
1.60283e-11
1.60517e-11
1.60875e-11
1.60973e-11
1.61229e-11
1.63944e-11
1.7803e-11
2.33059e-11
6.88619e-11
9.46266e-11
1.49743e-11
1.49969e-11
1.50207e-11
1.50394e-11
1.50634e-11
1.53195e-11
1.66084e-11
2.14101e-11
5.7893e-11
7.83458e-11
1.41971e-11
1.42223e-11
1.42419e-11
1.42615e-11
1.42838e-11
1.45248e-11
1.56985e-11
1.98169e-11
4.89364e-11
6.68669e-11
1.35338e-11
1.35479e-11
1.35645e-11
1.35838e-11
1.36038e-11
1.38319e-11
1.49257e-11
1.84879e-11
4.1909e-11
5.83738e-11
)
;

boundaryField
{
    fuel
    {
        type            fixedValue;
        value           uniform 0;
    }
    wall
    {
        type            zeroGradient;
    }
    outlet
    {
        type            zeroGradient;
    }
    frontAndBack
    {
        type            empty;
    }
    procBoundary3to0
    {
        type            processor;
        value           nonuniform List<scalar> 10(1.30534e-11 1.3068e-11 1.30842e-11 1.30994e-11 1.31179e-11 1.333e-11 1.43308e-11 1.75263e-11 3.64505e-11 5.18243e-11);
    }
    procBoundary3to2
    {
        type            processor;
        value           nonuniform List<scalar> 
25
(
1.66822e-08
4.29784e-09
1.51965e-09
7.11423e-10
3.91283e-10
2.39207e-10
1.58602e-10
1.1232e-10
8.42617e-11
6.51205e-11
5.20253e-11
5.20253e-11
4.30416e-11
3.65788e-11
3.17392e-11
2.79817e-11
2.49748e-11
2.25114e-11
2.04585e-11
1.87288e-11
1.72629e-11
1.60191e-11
1.49671e-11
1.41951e-11
1.35222e-11
)
;
    }
}


// ************************************************************************* //
