/*--------------------------------*- C++ -*----------------------------------*\
| =========                 |                                                 |
| \\      /  F ield         | OpenFOAM: The Open Source CFD Toolbox           |
|  \\    /   O peration     | Version:  dev                                   |
|   \\  /    A nd           | Web:      www.OpenFOAM.org                      |
|    \\/     M anipulation  |                                                 |
\*---------------------------------------------------------------------------*/
FoamFile
{
    version     2.0;
    format      ascii;
    class       volScalarField;
    location    "0";
    object      n-C4H3;
}
// * * * * * * * * * * * * * * * * * * * * * * * * * * * * * * * * * * * * * //

dimensions      [0 0 0 0 0 0 0];

internalField   nonuniform List<scalar> 
25
(
5.92619e-12
5.14489e-12
4.44943e-12
3.83067e-12
3.26973e-12
2.8007e-12
2.39147e-12
2.0381e-12
1.72945e-12
1.47267e-12
1.2548e-12
1.07139e-12
9.17569e-13
7.88383e-13
6.79964e-13
5.86647e-13
5.05648e-13
4.34024e-13
3.68065e-13
3.11344e-13
2.53934e-13
1.98913e-13
1.40079e-13
8.43693e-14
3.93641e-14
)
;

boundaryField
{
    wall
    {
        type            zeroGradient;
    }
    fuel
    {
        type            fixedValue;
        value           nonuniform 0();
    }
    outlet
    {
        type            inletOutlet;
        inletValue      uniform 0;
        value           uniform 3.93641e-14;
    }
    procBoundary3to2
    {
        type            processor;
        value           uniform 6.79834e-12;
    }
}


// ************************************************************************* //
