/*--------------------------------*- C++ -*----------------------------------*\
| =========                 |                                                 |
| \\      /  F ield         | OpenFOAM: The Open Source CFD Toolbox           |
|  \\    /   O peration     | Version:  dev                                   |
|   \\  /    A nd           | Web:      www.OpenFOAM.org                      |
|    \\/     M anipulation  |                                                 |
\*---------------------------------------------------------------------------*/
FoamFile
{
    version     2.0;
    format      ascii;
    class       volScalarField;
    location    "0";
    object      naphthyne;
}
// * * * * * * * * * * * * * * * * * * * * * * * * * * * * * * * * * * * * * //

dimensions      [0 0 0 0 0 0 0];

internalField   nonuniform List<scalar> 
250
(
7.74431e-08
7.74406e-08
7.74483e-08
7.74462e-08
7.74447e-08
7.74468e-08
7.74782e-08
7.76929e-08
7.92838e-08
8.88339e-08
2.25458e-09
7.39761e-08
7.3972e-08
7.39794e-08
7.39754e-08
7.39677e-08
7.3982e-08
7.40417e-08
7.45545e-08
7.86393e-08
1.12514e-07
4.92471e-09
5.65151e-08
5.65126e-08
5.65199e-08
5.65113e-08
5.65006e-08
5.65228e-08
5.66003e-08
5.72596e-08
6.2482e-08
1.10494e-07
6.74313e-09
4.19898e-08
4.19904e-08
4.19977e-08
4.19846e-08
4.19688e-08
4.19994e-08
4.20887e-08
4.28185e-08
4.85307e-08
1.05323e-07
8.08838e-09
3.09475e-08
3.09521e-08
3.09588e-08
3.09419e-08
3.09174e-08
3.09592e-08
3.10548e-08
3.18043e-08
3.75961e-08
9.94053e-08
9.06741e-09
2.27492e-08
2.27575e-08
2.27633e-08
2.27439e-08
2.27099e-08
2.2763e-08
2.28607e-08
2.35993e-08
2.91992e-08
9.31552e-08
9.78391e-09
1.67741e-08
1.67869e-08
1.67915e-08
1.67691e-08
1.67252e-08
1.67913e-08
1.68871e-08
1.76051e-08
2.28523e-08
8.6668e-08
1.04023e-08
1.24994e-08
1.25129e-08
1.25162e-08
1.24952e-08
1.24618e-08
1.25171e-08
1.26023e-08
1.32766e-08
1.81426e-08
7.99368e-08
1.10633e-08
9.51116e-09
9.52161e-09
9.52388e-09
9.5074e-09
9.49913e-09
9.5264e-09
9.58855e-09
1.00436e-08
1.44229e-08
7.29731e-08
1.1764e-08
7.28128e-09
7.2909e-09
7.29251e-09
7.27536e-09
7.29654e-09
7.29892e-09
7.36265e-09
7.85836e-09
1.14694e-08
6.58491e-08
1.24167e-08
5.69484e-09
5.6959e-09
5.67691e-09
5.70048e-09
5.70393e-09
5.76105e-09
6.20251e-09
9.51604e-09
5.86941e-08
1.29072e-08
4.56622e-09
4.56701e-09
4.54394e-09
4.55276e-09
4.57622e-09
4.6292e-09
5.02702e-09
7.94283e-09
5.16521e-08
1.31307e-08
3.74986e-09
3.75062e-09
3.72128e-09
3.81154e-09
3.76127e-09
3.81021e-09
4.16882e-09
6.6474e-09
4.48931e-08
1.30222e-08
3.14291e-09
3.14389e-09
3.10367e-09
3.18606e-09
3.15484e-09
3.20079e-09
3.52493e-09
5.736e-09
3.80646e-08
1.25879e-08
2.67918e-09
2.68066e-09
2.68649e-09
2.70776e-09
2.6912e-09
2.73468e-09
3.0281e-09
4.89944e-09
3.12979e-08
1.19347e-08
2.31614e-09
2.31803e-09
2.31985e-09
2.3351e-09
2.32809e-09
2.36927e-09
2.635e-09
4.20796e-09
2.60899e-08
1.12196e-08
2.02612e-09
2.02832e-09
2.02617e-09
2.03951e-09
2.03792e-09
2.0768e-09
2.31728e-09
3.6368e-09
2.14849e-08
1.05583e-08
1.79081e-09
1.79319e-09
1.78616e-09
1.80111e-09
1.80236e-09
1.83889e-09
2.05613e-09
3.16295e-09
1.75433e-08
1.00012e-08
1.59782e-09
1.60026e-09
1.58614e-09
1.60639e-09
1.60898e-09
1.64314e-09
1.83888e-09
2.76878e-09
1.42817e-08
9.53097e-09
1.43859e-09
1.44103e-09
1.43826e-09
1.44627e-09
1.44922e-09
1.481e-09
1.65673e-09
2.44014e-09
1.13718e-08
9.09189e-09
1.30708e-09
1.30942e-09
1.31317e-09
1.31414e-09
1.317e-09
1.34645e-09
1.50267e-09
2.1675e-09
9.04752e-09
8.63791e-09
1.1988e-09
1.20097e-09
1.20349e-09
1.20525e-09
1.20789e-09
1.2351e-09
1.37519e-09
1.94244e-09
7.28826e-09
8.1322e-09
1.12073e-09
1.12303e-09
1.12515e-09
1.12691e-09
1.12934e-09
1.15455e-09
1.28011e-09
1.75867e-09
5.89482e-09
7.56717e-09
1.05653e-09
1.05766e-09
1.05955e-09
1.06113e-09
1.06331e-09
1.08677e-09
1.2018e-09
1.61003e-09
4.8384e-09
6.9555e-09
)
;

boundaryField
{
    fuel
    {
        type            fixedValue;
        value           uniform 0;
    }
    wall
    {
        type            zeroGradient;
    }
    outlet
    {
        type            zeroGradient;
    }
    frontAndBack
    {
        type            empty;
    }
    procBoundary3to0
    {
        type            processor;
        value           nonuniform List<scalar> 10(1.01178e-09 1.01283e-09 1.01476e-09 1.0158e-09 1.01781e-09 1.03939e-09 1.14345e-09 1.5053e-09 4.04607e-09 6.32667e-09);
    }
    procBoundary3to2
    {
        type            processor;
        value           nonuniform List<scalar> 
25
(
7.74499e-08
7.39825e-08
5.65234e-08
4.2002e-08
3.09641e-08
2.2769e-08
1.67972e-08
1.25215e-08
9.52885e-09
7.29611e-09
5.68576e-09
5.68576e-09
4.55814e-09
3.74357e-09
3.13855e-09
2.67633e-09
2.31421e-09
2.02464e-09
1.7895e-09
1.59659e-09
1.43745e-09
1.30606e-09
1.19799e-09
1.12041e-09
1.05531e-09
)
;
    }
}


// ************************************************************************* //
