/*--------------------------------*- C++ -*----------------------------------*\
| =========                 |                                                 |
| \\      /  F ield         | OpenFOAM: The Open Source CFD Toolbox           |
|  \\    /   O peration     | Version:  dev                                   |
|   \\  /    A nd           | Web:      www.OpenFOAM.org                      |
|    \\/     M anipulation  |                                                 |
\*---------------------------------------------------------------------------*/
FoamFile
{
    version     2.0;
    format      ascii;
    class       volScalarField;
    location    "0";
    object      O2;
}
// * * * * * * * * * * * * * * * * * * * * * * * * * * * * * * * * * * * * * //

dimensions      [0 0 0 0 0 0 0];

internalField   nonuniform List<scalar> 
250
(
0.0294409
0.0294406
0.0294398
0.0294404
0.029439
0.0294406
0.0294418
0.029474
0.0297773
0.0326165
0.171207
0.00606107
0.00606083
0.00606095
0.00606071
0.00606077
0.00606093
0.00606199
0.00607565
0.00619556
0.00744142
0.136184
0.0016292
0.0016291
0.00162924
0.00162905
0.00162923
0.00162919
0.00162981
0.00163621
0.00168917
0.00236365
0.101979
0.000542674
0.00054263
0.000542725
0.000542622
0.000542746
0.000542691
0.000543034
0.00054646
0.000573977
0.00104652
0.0727507
0.000208888
0.000208872
0.000208925
0.000208866
0.00020895
0.000208898
0.000209087
0.000211066
0.000226978
0.00060317
0.0503453
8.76143e-05
8.76062e-05
8.76342e-05
8.76028e-05
8.76706e-05
8.76141e-05
8.77191e-05
8.8914e-05
9.87144e-05
0.000408791
0.0344096
3.85661e-05
3.85708e-05
3.85851e-05
3.85576e-05
3.85741e-05
3.85713e-05
3.86327e-05
3.9403e-05
4.57056e-05
0.000300312
0.0235592
1.75228e-05
1.75246e-05
1.75316e-05
1.75176e-05
1.75319e-05
1.75228e-05
1.75561e-05
1.80883e-05
2.2428e-05
0.000228856
0.0163021
8.24423e-06
8.24042e-06
8.24375e-06
8.23989e-06
8.2552e-06
8.23796e-06
8.23808e-06
8.3095e-06
1.12482e-05
0.000177245
0.0114175
3.81403e-06
3.8047e-06
3.80629e-06
3.80495e-06
3.836e-06
3.80554e-06
3.81278e-06
3.95491e-06
5.73674e-06
0.000137924
0.00806566
1.77354e-06
1.7741e-06
1.77459e-06
1.79743e-06
1.77421e-06
1.77505e-06
1.85322e-06
3.29993e-06
0.000107
0.00572345
8.52398e-07
8.52556e-07
8.52644e-07
8.56129e-07
8.52844e-07
8.52656e-07
9.00014e-07
1.96948e-06
8.23805e-05
0.0040743
4.29122e-07
4.29136e-07
4.2812e-07
4.57063e-07
4.29629e-07
4.29226e-07
4.57457e-07
1.2127e-06
6.29177e-05
0.00290687
2.31774e-07
2.31752e-07
2.28099e-07
2.4609e-07
2.32164e-07
2.31793e-07
2.48227e-07
8.18809e-07
4.6672e-05
0.00207004
1.3819e-07
1.38193e-07
1.41349e-07
1.45271e-07
1.38454e-07
1.38134e-07
1.47516e-07
5.50795e-07
3.30968e-05
0.00146343
9.28369e-08
9.28613e-08
9.43011e-08
9.62183e-08
9.30184e-08
9.27535e-08
9.80386e-08
3.81868e-07
2.39887e-05
0.00102236
7.01353e-08
7.01802e-08
7.07787e-08
7.17389e-08
7.028e-08
7.007e-08
7.29866e-08
2.70747e-07
1.69864e-05
0.000703349
5.81415e-08
5.82066e-08
5.83391e-08
5.89414e-08
5.82823e-08
5.81218e-08
5.96646e-08
1.95402e-07
1.17735e-05
0.000475169
5.12042e-08
5.12898e-08
5.10639e-08
5.16639e-08
5.13608e-08
5.1243e-08
5.19947e-08
1.43444e-07
8.04164e-06
0.000314382
4.66148e-08
4.67231e-08
4.67017e-08
4.69487e-08
4.67975e-08
4.67175e-08
4.70278e-08
1.06784e-07
5.22588e-06
0.000203104
4.3056e-08
4.31884e-08
4.32554e-08
4.3357e-08
4.32696e-08
4.32254e-08
4.32907e-08
8.13004e-08
3.31923e-06
0.000127729
3.98715e-08
4.0032e-08
4.00089e-08
4.01794e-08
4.01199e-08
4.01126e-08
4.01187e-08
6.34151e-08
2.11605e-06
7.79699e-05
3.70933e-08
3.72973e-08
3.72238e-08
3.74371e-08
3.73901e-08
3.74129e-08
3.74031e-08
5.07282e-08
1.30829e-06
4.60973e-05
3.41093e-08
3.43032e-08
3.41831e-08
3.44426e-08
3.44011e-08
3.44706e-08
3.46196e-08
4.15026e-08
7.92894e-07
2.63293e-05
)
;

boundaryField
{
    fuel
    {
        type            fixedValue;
        value           uniform 0.1914;
    }
    wall
    {
        type            zeroGradient;
    }
    outlet
    {
        type            inletOutlet;
        inletValue      uniform 0;
        value           nonuniform List<scalar> 
24
(
0.171207
0.136184
0.101979
0
0
0
0
0
0.0114175
0.00806566
0.00572345
0.0040743
0.00290687
0.00207004
0.00146343
0.00102236
0.000703349
0.000475169
0.000314382
0.000203104
0.000127729
7.79699e-05
4.60973e-05
2.63293e-05
)
;
    }
    frontAndBack
    {
        type            empty;
    }
    procBoundary3to0
    {
        type            processor;
        value           nonuniform List<scalar> 10(3.11912e-08 3.14264e-08 3.12757e-08 3.15625e-08 3.1526e-08 3.16242e-08 3.18626e-08 3.52356e-08 4.74006e-07 1.45482e-05);
    }
    procBoundary3to2
    {
        type            processor;
        value           nonuniform List<scalar> 
25
(
0.0294402
0.00606096
0.0016293
0.000542807
0.000208997
8.76858e-05
3.86186e-05
1.75525e-05
8.25692e-06
3.81322e-06
1.78734e-06
1.78734e-06
8.59435e-07
4.32601e-07
2.33484e-07
1.3905e-07
9.32865e-08
7.03795e-08
5.8278e-08
5.12828e-08
4.6663e-08
4.30901e-08
3.99042e-08
3.71443e-08
3.4116e-08
)
;
    }
}


// ************************************************************************* //
