/*--------------------------------*- C++ -*----------------------------------*\
| =========                 |                                                 |
| \\      /  F ield         | OpenFOAM: The Open Source CFD Toolbox           |
|  \\    /   O peration     | Version:  dev                                   |
|   \\  /    A nd           | Web:      www.OpenFOAM.org                      |
|    \\/     M anipulation  |                                                 |
\*---------------------------------------------------------------------------*/
FoamFile
{
    version     2.0;
    format      ascii;
    class       volScalarField;
    location    "0";
    object      OH;
}
// * * * * * * * * * * * * * * * * * * * * * * * * * * * * * * * * * * * * * //

dimensions      [0 0 0 0 0 0 0];

internalField   nonuniform List<scalar> 
250
(
0.000239962
0.000239966
0.00023998
0.000239969
0.000239994
0.000239971
0.000239958
0.000239507
0.000235222
0.000201165
1.71073e-07
0.000242727
0.000242727
0.000242745
0.000242726
0.000242758
0.00024273
0.00024272
0.000242307
0.000238276
0.00020737
1.13563e-07
0.000161059
0.000161058
0.000161077
0.000161053
0.000161087
0.000161056
0.000161051
0.000160722
0.000157291
0.000134527
5.59686e-08
0.000107601
0.000107603
0.000107619
0.000107595
0.000107625
0.000107597
0.000107592
0.000107296
0.000104058
8.54999e-05
3.11847e-08
7.85609e-05
7.85665e-05
7.85787e-05
7.85553e-05
7.8576e-05
7.85581e-05
7.85497e-05
7.82565e-05
7.49954e-05
5.82472e-05
2.20075e-08
6.28018e-05
6.28105e-05
6.28195e-05
6.27968e-05
6.28095e-05
6.28014e-05
6.27904e-05
6.2485e-05
5.90638e-05
4.26525e-05
2.01528e-08
5.39598e-05
5.39734e-05
5.39803e-05
5.3955e-05
5.39544e-05
5.39647e-05
5.3951e-05
5.36336e-05
4.99786e-05
3.31213e-05
2.5982e-08
4.87855e-05
4.88005e-05
4.88062e-05
4.87811e-05
4.87846e-05
4.87932e-05
4.87717e-05
4.84292e-05
4.45678e-05
2.69691e-05
5.1278e-08
4.562e-05
4.5634e-05
4.56393e-05
4.56151e-05
4.5634e-05
4.56289e-05
4.55897e-05
4.50651e-05
4.09486e-05
2.28523e-05
1.09636e-07
4.34049e-05
4.3419e-05
4.34245e-05
4.33953e-05
4.34382e-05
4.34191e-05
4.33844e-05
4.29244e-05
3.83717e-05
2.00449e-05
1.65112e-07
4.18134e-05
4.18198e-05
4.17828e-05
4.18298e-05
4.18176e-05
4.17792e-05
4.1297e-05
3.6742e-05
1.81323e-05
2.109e-07
4.05719e-05
4.05797e-05
4.05306e-05
4.05673e-05
4.0581e-05
4.05415e-05
4.00516e-05
3.54462e-05
1.68598e-05
2.85192e-07
3.95268e-05
3.9537e-05
3.94703e-05
3.96227e-05
3.95427e-05
3.95026e-05
3.90145e-05
3.43653e-05
1.60672e-05
4.10054e-07
3.85828e-05
3.85963e-05
3.85021e-05
3.86642e-05
3.86057e-05
3.8567e-05
3.80912e-05
3.35755e-05
1.56091e-05
6.12732e-07
3.76833e-05
3.77014e-05
3.7687e-05
3.77553e-05
3.77141e-05
3.76785e-05
3.72253e-05
3.28108e-05
1.54447e-05
9.23359e-07
3.67925e-05
3.68157e-05
3.67838e-05
3.6861e-05
3.68323e-05
3.68015e-05
3.63806e-05
3.21197e-05
1.55282e-05
1.35123e-06
3.58848e-05
3.5914e-05
3.58602e-05
3.59556e-05
3.59353e-05
3.59104e-05
3.55308e-05
3.1474e-05
1.57827e-05
1.88633e-06
3.494e-05
3.4976e-05
3.48905e-05
3.50176e-05
3.50028e-05
3.49852e-05
3.46549e-05
3.08438e-05
1.61629e-05
2.51436e-06
3.39403e-05
3.39841e-05
3.38499e-05
3.40285e-05
3.40168e-05
3.40079e-05
3.37335e-05
3.02017e-05
1.66235e-05
3.22864e-06
3.28687e-05
3.29219e-05
3.28539e-05
3.29714e-05
3.29603e-05
3.29614e-05
3.27475e-05
2.95224e-05
1.71678e-05
4.0332e-06
3.17075e-05
3.17718e-05
3.17564e-05
3.18274e-05
3.18155e-05
3.18285e-05
3.16702e-05
2.87815e-05
1.77135e-05
4.93461e-06
3.04361e-05
3.05146e-05
3.04817e-05
3.05754e-05
3.05626e-05
3.05898e-05
3.05078e-05
2.79566e-05
1.81874e-05
5.93208e-06
2.91862e-05
2.9287e-05
2.92402e-05
2.93514e-05
2.93384e-05
2.93783e-05
2.93541e-05
2.70264e-05
1.85777e-05
7.00679e-06
2.77523e-05
2.78511e-05
2.7786e-05
2.79201e-05
2.79065e-05
2.79674e-05
2.80591e-05
2.59636e-05
1.88337e-05
8.11789e-06
)
;

boundaryField
{
    fuel
    {
        type            fixedValue;
        value           uniform 0;
    }
    wall
    {
        type            zeroGradient;
    }
    outlet
    {
        type            zeroGradient;
    }
    frontAndBack
    {
        type            empty;
    }
    procBoundary3to0
    {
        type            processor;
        value           nonuniform List<scalar> 10(2.62717e-05 2.63942e-05 2.63139e-05 2.64653e-05 2.64523e-05 2.65269e-05 2.669e-05 2.48774e-05 1.89111e-05 9.18695e-06);
    }
    procBoundary3to2
    {
        type            processor;
        value           nonuniform List<scalar> 
25
(
0.000239972
0.000242739
0.000161077
0.000107625
7.8586e-05
6.28267e-05
5.39863e-05
4.88108e-05
4.56426e-05
4.34257e-05
4.17997e-05
4.17997e-05
4.05571e-05
3.95136e-05
3.85721e-05
3.76753e-05
3.67867e-05
3.58809e-05
3.49379e-05
3.39401e-05
3.28707e-05
3.17123e-05
3.04457e-05
2.92073e-05
2.77544e-05
)
;
    }
}


// ************************************************************************* //
