/*--------------------------------*- C++ -*----------------------------------*\
| =========                 |                                                 |
| \\      /  F ield         | OpenFOAM: The Open Source CFD Toolbox           |
|  \\    /   O peration     | Version:  dev                                   |
|   \\  /    A nd           | Web:      www.OpenFOAM.org                      |
|    \\/     M anipulation  |                                                 |
\*---------------------------------------------------------------------------*/
FoamFile
{
    version     2.0;
    format      ascii;
    class       volScalarField;
    location    "0";
    object      p;
}
// * * * * * * * * * * * * * * * * * * * * * * * * * * * * * * * * * * * * * //

dimensions      [1 -1 -2 0 0 0 0];

internalField   nonuniform List<scalar> 
250
(
99986.6
99986.5
99986.7
99987.3
99988.2
99989.3
99990.7
99992.4
99994.1
99995.8
99997.1
99986.4
99986.4
99986.6
99987.1
99988
99989.2
99990.6
99992.2
99994
99995.6
99997.1
99986.4
99986.3
99986.5
99987.1
99987.9
99989.1
99990.5
99992.1
99993.9
99995.6
99997.2
99986.4
99986.3
99986.5
99987.1
99987.9
99989.1
99990.5
99992.1
99993.9
99995.6
99997.2
99986.4
99986.3
99986.5
99987.1
99988
99989.1
99990.5
99992.2
99993.9
99995.6
99997.3
99986.4
99986.3
99986.5
99987.1
99988
99989.1
99990.5
99992.2
99994
99995.6
99997.4
99986.4
99986.3
99986.5
99987.1
99988
99989.1
99990.5
99992.2
99994
99995.7
99997.5
99986.4
99986.3
99986.6
99987.1
99988
99989.1
99990.6
99992.2
99994
99995.7
99997.6
99986.4
99986.4
99986.6
99987.1
99988
99989.1
99990.6
99992.2
99994
99995.7
99997.7
99986.4
99986.4
99986.6
99987.1
99988
99989.2
99990.6
99992.2
99994
99995.7
99997.8
99986.4
99986.6
99987.1
99988
99989.2
99990.6
99992.2
99994
99995.8
99997.9
99986.4
99986.6
99987.1
99988
99989.2
99990.6
99992.2
99994
99995.8
99997.9
99986.4
99986.6
99987.1
99988
99989.2
99990.6
99992.2
99994
99995.8
99998
99986.4
99986.6
99987.1
99988
99989.2
99990.6
99992.2
99994
99995.9
99998.1
99986.4
99986.6
99987.1
99988
99989.2
99990.6
99992.2
99994.1
99995.9
99998.1
99986.4
99986.6
99987.2
99988
99989.2
99990.6
99992.2
99994.1
99995.9
99998.2
99986.4
99986.6
99987.2
99988
99989.2
99990.6
99992.3
99994.1
99996
99998.3
99986.4
99986.6
99987.2
99988
99989.2
99990.6
99992.3
99994.1
99996
99998.3
99986.4
99986.6
99987.2
99988
99989.2
99990.6
99992.3
99994.1
99996
99998.3
99986.4
99986.6
99987.2
99988
99989.2
99990.6
99992.3
99994.1
99996.1
99998.4
99986.4
99986.6
99987.2
99988
99989.2
99990.6
99992.3
99994.1
99996.1
99998.4
99986.4
99986.6
99987.2
99988
99989.2
99990.6
99992.3
99994.2
99996.1
99998.5
99986.4
99986.6
99987.2
99988
99989.2
99990.6
99992.3
99994.2
99996.1
99998.5
99986.4
99986.6
99987.2
99988
99989.2
99990.6
99992.3
99994.2
99996.2
99998.5
)
;

boundaryField
{
    fuel
    {
        type            zeroGradient;
    }
    wall
    {
        type            zeroGradient;
    }
    outlet
    {
        type            totalPressure;
        rho             none;
        psi             none;
        gamma           1;
        p0              uniform 100000;
        value           uniform 100000;
    }
    frontAndBack
    {
        type            empty;
    }
    procBoundary3to0
    {
        type            processor;
        value           nonuniform List<scalar> 10(99986.4 99986.6 99987.2 99988 99989.2 99990.6 99992.3 99994.2 99996.2 99998.6);
    }
    procBoundary3to2
    {
        type            processor;
        value           nonuniform List<scalar> 
25
(
99987.1
99986.9
99986.9
99986.9
99986.9
99986.9
99986.9
99986.9
99986.9
99986.9
99986.4
99986.4
99986.4
99986.5
99986.5
99986.5
99986.5
99986.5
99986.5
99986.5
99986.5
99986.5
99986.5
99986.5
99986.5
)
;
    }
}


// ************************************************************************* //
