/*--------------------------------*- C++ -*----------------------------------*\
| =========                 |                                                 |
| \\      /  F ield         | OpenFOAM: The Open Source CFD Toolbox           |
|  \\    /   O peration     | Version:  dev                                   |
|   \\  /    A nd           | Web:      www.OpenFOAM.org                      |
|    \\/     M anipulation  |                                                 |
\*---------------------------------------------------------------------------*/
FoamFile
{
    version     2.0;
    format      ascii;
    class       surfaceScalarField;
    location    "0";
    object      phi;
}
// * * * * * * * * * * * * * * * * * * * * * * * * * * * * * * * * * * * * * //

dimensions      [1 0 -1 0 0 0 0];

internalField   nonuniform List<scalar> 
465
(
9.8529e-09
8.15263e-06
1.49168e-08
8.15162e-06
1.73914e-08
8.15476e-06
2.45013e-08
8.15096e-06
2.73921e-08
8.15614e-06
3.5722e-08
8.15191e-06
4.1625e-08
8.15517e-06
4.33644e-08
8.1602e-06
5.37812e-08
8.15192e-06
1.80483e-07
8.04259e-06
7.85948e-06
1.722e-08
8.12746e-06
2.89971e-08
8.12706e-06
3.91945e-08
8.13226e-06
5.29676e-08
8.12542e-06
6.31918e-08
8.13471e-06
7.81135e-08
8.12642e-06
9.13385e-08
8.1318e-06
9.47949e-08
8.147e-06
1.04506e-07
8.13336e-06
1.55889e-07
8.0001e-06
7.55321e-06
2.32725e-08
8.1091e-06
4.15259e-08
8.11083e-06
5.89859e-08
8.11729e-06
7.91467e-08
8.10825e-06
9.64624e-08
8.12085e-06
1.17795e-07
8.10903e-06
1.38243e-07
8.11564e-06
1.42625e-07
8.14723e-06
1.52357e-07
8.12958e-06
8.43027e-08
8.10072e-06
7.4158e-06
2.68959e-08
8.08898e-06
5.06421e-08
8.09303e-06
7.4977e-08
8.09935e-06
1.0228e-07
8.08781e-06
1.26923e-07
8.10353e-06
1.54477e-07
8.08925e-06
1.81965e-07
8.09622e-06
1.86956e-07
8.15056e-06
1.97965e-07
8.12847e-06
4.01567e-08
8.30293e-06
7.4393e-06
2.9399e-08
8.05938e-06
5.95641e-08
8.06583e-06
9.04361e-08
8.07188e-06
1.24156e-07
8.05795e-06
1.55737e-07
8.07624e-06
1.89334e-07
8.0604e-06
2.23793e-07
8.06677e-06
2.29526e-07
8.15004e-06
2.43044e-07
8.12184e-06
3.07695e-08
8.56195e-06
7.70185e-06
3.0733e-08
8.0201e-06
6.72405e-08
8.02936e-06
1.04791e-07
8.03478e-06
1.44881e-07
8.01872e-06
1.83285e-07
8.039e-06
2.22783e-07
8.0227e-06
2.64139e-07
8.02749e-06
2.71038e-07
8.14533e-06
2.88141e-07
8.10856e-06
4.98119e-08
8.84473e-06
8.16256e-06
3.11041e-08
7.97312e-06
7.39653e-08
7.9854e-06
1.18106e-07
7.98996e-06
1.64528e-07
7.97211e-06
2.09627e-07
7.99414e-06
2.54894e-07
7.97809e-06
3.03037e-07
7.98031e-06
3.11709e-07
8.13773e-06
3.33368e-07
8.0893e-06
9.36989e-08
9.12449e-06
8.70932e-06
3.07337e-08
7.91937e-06
7.99232e-08
7.93487e-06
1.30509e-07
7.93846e-06
1.83195e-07
7.91894e-06
2.34831e-07
7.94235e-06
2.85737e-07
7.92761e-06
3.40535e-07
7.9263e-06
3.51709e-07
8.12818e-06
3.78784e-07
8.06416e-06
1.5929e-07
9.37948e-06
9.15717e-06
2.98069e-08
7.85899e-06
8.52852e-08
7.87773e-06
1.42152e-07
7.88034e-06
2.01026e-07
7.85929e-06
2.59018e-07
7.88408e-06
3.15448e-07
7.87127e-06
3.76766e-07
7.86528e-06
3.91227e-07
8.11349e-06
4.24462e-07
8.03254e-06
2.38549e-07
9.59656e-06
9.48127e-06
2.84742e-08
9.01973e-08
7.81503e-06
1.53178e-07
7.8168e-06
2.18167e-07
7.7942e-06
2.82322e-07
7.82043e-06
3.44192e-07
7.81019e-06
4.1191e-07
7.7986e-06
4.30497e-07
8.09573e-06
4.70463e-07
7.99374e-06
3.24092e-07
9.76947e-06
9.63849e-06
9.47862e-08
7.74614e-06
1.63726e-07
7.74732e-06
2.34766e-07
7.72307e-06
3.04895e-07
7.75074e-06
3.72162e-07
7.74372e-06
4.46158e-07
7.72567e-06
4.69679e-07
8.07316e-06
5.16842e-07
7.94707e-06
4.08892e-07
9.89854e-06
9.67469e-06
9.9158e-08
7.67105e-06
1.73919e-07
7.67196e-06
2.50954e-07
7.64588e-06
3.26882e-07
7.67525e-06
3.99549e-07
7.67181e-06
4.79717e-07
7.64652e-06
5.08934e-07
8.04482e-06
5.63657e-07
7.89198e-06
4.91182e-07
9.98577e-06
9.64312e-06
1.03398e-07
7.58972e-06
1.83862e-07
7.59078e-06
2.66845e-07
7.56263e-06
3.48417e-07
7.59396e-06
4.26519e-07
7.59434e-06
5.12761e-07
7.56118e-06
5.48374e-07
8.0099e-06
6.10954e-07
7.82829e-06
5.72153e-07
1.00324e-05
9.56457e-06
1.07573e-07
7.50217e-06
1.93643e-07
7.50383e-06
2.82518e-07
7.47331e-06
3.69601e-07
7.50688e-06
4.53212e-07
7.51121e-06
5.45432e-07
7.46969e-06
5.88084e-07
7.96774e-06
6.58706e-07
7.75574e-06
6.51394e-07
1.00383e-05
9.44888e-06
1.1174e-07
7.40844e-06
2.03337e-07
7.41119e-06
2.9805e-07
7.37799e-06
3.90534e-07
7.4142e-06
4.79738e-07
7.42233e-06
5.77839e-07
7.37215e-06
6.28104e-07
7.91778e-06
7.06819e-07
7.67425e-06
7.28331e-07
1.00122e-05
9.30411e-06
1.15942e-07
7.30863e-06
2.13004e-07
7.31292e-06
3.13495e-07
7.27671e-06
4.11295e-07
7.31607e-06
5.06178e-07
7.32762e-06
6.10037e-07
7.26869e-06
6.68451e-07
7.8595e-06
7.55543e-07
7.5837e-06
8.02948e-07
9.9554e-06
9.13741e-06
1.20214e-07
7.20281e-06
2.22691e-07
7.2091e-06
3.28894e-07
7.16957e-06
4.31948e-07
7.21257e-06
5.3259e-07
7.22703e-06
6.42005e-07
7.15954e-06
7.09124e-07
7.79237e-06
8.04746e-07
7.48412e-06
8.75063e-07
9.87029e-06
8.95474e-06
1.24582e-07
7.09111e-06
2.32435e-07
7.0998e-06
3.44279e-07
7.05673e-06
4.52546e-07
7.10375e-06
5.59011e-07
7.12051e-06
6.7376e-07
7.04493e-06
7.50097e-07
7.71592e-06
8.54379e-07
7.37553e-06
9.44776e-07
9.7609e-06
8.76104e-06
1.29063e-07
6.97361e-06
2.42262e-07
6.98507e-06
3.59671e-07
6.93841e-06
4.73127e-07
6.98964e-06
5.85461e-07
7.00804e-06
7.05352e-07
6.92508e-06
7.91294e-07
7.62976e-06
9.04368e-07
7.25798e-06
1.01227e-06
9.63142e-06
8.56031e-06
1.33667e-07
6.85042e-06
2.52176e-07
6.86496e-06
3.75068e-07
6.8147e-06
4.93719e-07
6.87025e-06
6.11948e-07
6.88962e-06
7.36818e-07
6.80017e-06
8.32606e-07
7.53343e-06
9.54466e-07
7.13164e-06
1.07761e-06
9.47658e-06
8.35549e-06
1.384e-07
6.72157e-06
2.62201e-07
6.73952e-06
3.90486e-07
6.68533e-06
5.14343e-07
6.74559e-06
6.38471e-07
6.76525e-06
7.68196e-07
6.67033e-06
8.73972e-07
7.42295e-06
1.00464e-06
6.99665e-06
1.14121e-06
9.32549e-06
8.14925e-06
1.43261e-07
6.58698e-06
2.72344e-07
6.60877e-06
4.05944e-07
6.55069e-06
5.35011e-07
6.61568e-06
6.65027e-07
6.63502e-06
7.99468e-07
6.53575e-06
9.15332e-07
7.31127e-06
1.055e-06
6.85289e-06
1.20324e-06
9.15399e-06
7.94297e-06
1.4822e-07
6.44623e-06
2.82542e-07
6.47272e-06
4.2136e-07
6.41075e-06
5.55633e-07
6.48051e-06
6.91488e-07
6.49893e-06
8.30611e-07
6.39638e-06
9.56493e-07
7.18559e-06
1.10527e-06
6.70033e-06
1.26383e-06
8.96997e-06
7.73785e-06
1.53309e-07
2.92858e-07
4.36835e-07
5.76348e-07
7.18006e-07
8.61753e-07
9.97467e-07
1.15534e-06
1.32322e-06
)
;

boundaryField
{
    fuel
    {
        type            calculated;
        value           nonuniform List<scalar> 
11
(
-8.18206e-06
-8.18206e-06
-8.18207e-06
-8.18212e-06
-8.18219e-06
-8.18228e-06
-8.1824e-06
-8.18253e-06
-8.18268e-06
-8.18282e-06
-8.18292e-06
)
;
    }
    wall
    {
        type            calculated;
        value           nonuniform 0();
    }
    outlet
    {
        type            calculated;
        value           nonuniform List<scalar> 
24
(
2.58038e-07
1.67031e-07
-2.94611e-08
-2.97686e-07
-4.48973e-07
-4.97726e-07
-4.38064e-07
-2.61899e-07
7.25816e-09
1.33915e-07
2.56621e-07
3.72604e-07
4.84936e-07
5.93302e-07
6.97027e-07
7.95834e-07
8.89762e-07
9.79035e-07
1.06396e-06
1.14489e-06
1.22223e-06
1.29627e-06
1.36742e-06
1.43604e-06
)
;
    }
    frontAndBack
    {
        type            empty;
        value           nonuniform 0();
    }
    procBoundary3to0
    {
        type            processor;
        value           nonuniform List<scalar> 10(6.30235e-06 6.33131e-06 6.26559e-06 6.34003e-06 6.35704e-06 6.25229e-06 7.04978e-06 6.5391e-06 8.77826e-06 7.53489e-06);
    }
    procBoundary3to2
    {
        type            processor;
        value           nonuniform List<scalar> 
25
(
-6.14606e-09
-5.07601e-09
-3.17531e-09
-1.12459e-09
2.86764e-09
8.22337e-09
1.44851e-08
2.13653e-08
2.8655e-08
3.61951e-08
7.79304e-06
-2.68607e-08
-2.50717e-08
-2.31945e-08
-2.13039e-08
-1.94633e-08
-1.77242e-08
-1.6128e-08
-1.47064e-08
-1.34816e-08
-1.24668e-08
-1.16666e-08
-1.10774e-08
-1.06845e-08
-1.04721e-08
)
;
    }
}


// ************************************************************************* //
