/*--------------------------------*- C++ -*----------------------------------*\
| =========                 |                                                 |
| \\      /  F ield         | OpenFOAM: The Open Source CFD Toolbox           |
|  \\    /   O peration     | Version:  dev                                   |
|   \\  /    A nd           | Web:      www.OpenFOAM.org                      |
|    \\/     M anipulation  |                                                 |
\*---------------------------------------------------------------------------*/
FoamFile
{
    version     2.0;
    format      ascii;
    class       volVectorField;
    location    "0";
    object      U;
}
// * * * * * * * * * * * * * * * * * * * * * * * * * * * * * * * * * * * * * //

dimensions      [0 1 -1 0 0 0 0];

internalField   nonuniform List<vector> 
250
(
(0 -0.00964998 0.510045)
(0 -0.00927212 0.509927)
(0 -0.0131462 0.510129)
(0 -0.0179866 0.509883)
(0 -0.0206174 0.510136)
(0 -0.0270276 0.509895)
(0 -0.0306988 0.51006)
(0 -0.039307 0.510036)
(0 -0.0370808 0.508104)
(0 -0.0388971 0.488373)
(0 -0.0488395 0.121698)
(0 -0.0154104 0.70419)
(0 -0.0205404 0.704133)
(0 -0.0318118 0.704475)
(0 -0.0448174 0.704074)
(0 -0.0533389 0.704685)
(0 -0.0686739 0.704167)
(0 -0.0775831 0.704501)
(0 -0.0963712 0.705028)
(0 -0.0878346 0.70216)
(0 -0.0888165 0.674253)
(0 -0.0408746 0.148241)
(0 -0.0188917 0.735624)
(0 -0.0300254 0.735673)
(0 -0.0484716 0.736202)
(0 -0.0689679 0.736045)
(0 -0.0832847 0.73722)
(0 -0.107286 0.736333)
(0 -0.120844 0.736845)
(0 -0.149792 0.738456)
(0 -0.132614 0.734498)
(0 -0.13807 0.704263)
(0 0.00141582 0.167567)
(0 -0.0201903 0.726552)
(0 -0.0363991 0.726786)
(0 -0.060828 0.727374)
(0 -0.0892448 0.726556)
(0 -0.110051 0.727898)
(0 -0.142388 0.726702)
(0 -0.160212 0.727292)
(0 -0.199119 0.730585)
(0 -0.172597 0.725584)
(0 -0.186325 0.70347)
(0 0.0409655 0.185817)
(0 -0.0200109 0.721504)
(0 -0.04191 0.721967)
(0 -0.0732097 0.722532)
(0 -0.108186 0.721466)
(0 -0.135133 0.723037)
(0 -0.17533 0.721646)
(0 -0.197424 0.722219)
(0 -0.246007 0.727758)
(0 -0.210599 0.721576)
(0 -0.234089 0.714805)
(0 0.0659752 0.208345)
(0 -0.0186026 0.719856)
(0 -0.0460807 0.720559)
(0 -0.0844727 0.721079)
(0 -0.125765 0.719724)
(0 -0.159095 0.721471)
(0 -0.206597 0.719982)
(0 -0.233189 0.720445)
(0 -0.290989 0.728757)
(0 -0.247943 0.721205)
(0 -0.281654 0.734026)
(0 0.0748604 0.238971)
(0 -0.0163026 0.717473)
(0 -0.049159 0.718438)
(0 -0.0948786 0.718889)
(0 -0.142038 0.717347)
(0 -0.182104 0.719258)
(0 -0.236272 0.717756)
(0 -0.267715 0.718022)
(0 -0.3341 0.729589)
(0 -0.285225 0.720456)
(0 -0.329149 0.754721)
(0 0.0658702 0.278557)
(0 -0.0133714 0.71367)
(0 -0.0513499 0.714906)
(0 -0.104615 0.715273)
(0 -0.157109 0.713581)
(0 -0.204295 0.715637)
(0 -0.26441 0.714205)
(0 -0.301154 0.714185)
(0 -0.375366 0.729462)
(0 -0.322847 0.718505)
(0 -0.376641 0.774117)
(0 0.0372224 0.32472)
(0 -0.0100044 0.708863)
(0 -0.0528394 0.710392)
(0 -0.113845 0.71067)
(0 -0.171132 0.708836)
(0 -0.225823 0.711015)
(0 -0.291122 0.709732)
(0 -0.3337 0.709332)
(0 -0.414904 0.728634)
(0 -0.361138 0.715695)
(0 -0.424036 0.791223)
(0 -0.00970178 0.373315)
(0 -0.00634782 0.703384)
(0 -0.0537936 0.705214)
(0 -0.122703 0.705409)
(0 -0.184278 0.703437)
(0 -0.246833 0.705737)
(0 -0.316562 0.704663)
(0 -0.365554 0.70379)
(0 -0.452897 0.727323)
(0 -0.40037 0.712257)
(0 -0.471485 0.805605)
(0 -0.0713651 0.420398)
(0 -0.0543565 0.699448)
(0 -0.131297 0.699578)
(0 -0.196716 0.697463)
(0 -0.267448 0.699894)
(0 -0.340908 0.69908)
(0 -0.396922 0.697651)
(0 -0.489544 0.7256)
(0 -0.44073 0.70821)
(0 -0.519081 0.817164)
(0 -0.141968 0.462724)
(0 -0.054656 0.69307)
(0 -0.139706 0.693161)
(0 -0.208607 0.690889)
(0 -0.287763 0.693461)
(0 -0.364346 0.692957)
(0 -0.427987 0.6909)
(0 -0.525055 0.723363)
(0 -0.482339 0.703501)
(0 -0.566892 0.826047)
(0 -0.219022 0.499756)
(0 -0.0548019 0.686064)
(0 -0.147989 0.686152)
(0 -0.220095 0.683704)
(0 -0.307842 0.686436)
(0 -0.387058 0.686274)
(0 -0.458887 0.683527)
(0 -0.559631 0.720521)
(0 -0.525247 0.698092)
(0 -0.615016 0.832378)
(0 -0.302818 0.532241)
(0 -0.0548869 0.678429)
(0 -0.156186 0.678552)
(0 -0.23131 0.675903)
(0 -0.327719 0.678826)
(0 -0.409216 0.679018)
(0 -0.489708 0.675534)
(0 -0.593453 0.717005)
(0 -0.569436 0.691958)
(0 -0.663527 0.836231)
(0 -0.391893 0.560143)
(0 -0.0549919 0.670163)
(0 -0.164324 0.670364)
(0 -0.242363 0.667482)
(0 -0.347408 0.670636)
(0 -0.430972 0.671177)
(0 -0.52049 0.666922)
(0 -0.626668 0.712748)
(0 -0.614838 0.685081)
(0 -0.712441 0.837713)
(0 -0.48446 0.583275)
(0 -0.055183 0.661263)
(0 -0.172416 0.661587)
(0 -0.253343 0.658438)
(0 -0.366907 0.661868)
(0 -0.45246 0.662734)
(0 -0.551229 0.657694)
(0 -0.659352 0.707679)
(0 -0.661377 0.677444)
(0 -0.761792 0.836944)
(0 -0.578929 0.601713)
(0 -0.055512 0.651726)
(0 -0.180471 0.652215)
(0 -0.264322 0.648767)
(0 -0.386201 0.652521)
(0 -0.473787 0.653674)
(0 -0.581884 0.647856)
(0 -0.691469 0.701825)
(0 -0.709024 0.668927)
(0 -0.811527 0.833969)
(0 -0.673976 0.615698)
(0 -0.0560169 0.641548)
(0 -0.18849 0.642242)
(0 -0.275348 0.638469)
(0 -0.405268 0.64259)
(0 -0.495035 0.643977)
(0 -0.612391 0.637416)
(0 -0.723067 0.695023)
(0 -0.757593 0.659607)
(0 -0.861605 0.828896)
(0 -0.768508 0.625547)
(0 -0.0567224 0.630724)
(0 -0.196469 0.631658)
(0 -0.286451 0.627562)
(0 -0.424083 0.632063)
(0 -0.516257 0.633627)
(0 -0.642672 0.626382)
(0 -0.754242 0.687241)
(0 -0.806765 0.649445)
(0 -0.912 0.821927)
(0 -0.861643 0.631621)
(0 -0.0576403 0.619247)
(0 -0.204402 0.620453)
(0 -0.297636 0.616051)
(0 -0.442614 0.620924)
(0 -0.537479 0.622603)
(0 -0.672643 0.614754)
(0 -0.785057 0.678423)
(0 -0.856156 0.638367)
(0 -0.962682 0.813085)
(0 -0.952681 0.634289)
(0 -0.0587708 0.607104)
(0 -0.212281 0.608614)
(0 -0.308894 0.603898)
(0 -0.46083 0.609161)
(0 -0.558696 0.610893)
(0 -0.702213 0.602534)
(0 -0.815569 0.668365)
(0 -0.90541 0.626384)
(0 -1.01358 0.80303)
(0 -1.04111 0.633938)
(0 -0.0601028 0.594285)
(0 -0.22009 0.596144)
(0 -0.320201 0.591091)
(0 -0.4787 0.596782)
(0 -0.579879 0.598508)
(0 -0.731275 0.58974)
(0 -0.845803 0.657467)
(0 -0.954258 0.613476)
(0 -1.06457 0.791832)
(0 -1.12648 0.630924)
(0 -0.0616143 0.580794)
(0 -0.227808 0.583049)
(0 -0.331509 0.577641)
(0 -0.496182 0.583768)
(0 -0.600969 0.585436)
(0 -0.759762 0.576372)
(0 -0.875737 0.645717)
(0 -1.00232 0.599598)
(0 -1.11546 0.7788)
(0 -1.20855 0.625549)
(0 -0.0632795 0.56672)
(0 -0.235417 0.569307)
(0 -0.34277 0.563545)
(0 -0.513245 0.570107)
(0 -0.621901 0.571665)
(0 -0.787578 0.562405)
(0 -0.905335 0.632713)
(0 -1.04927 0.584745)
(0 -1.16602 0.76425)
(0 -1.28715 0.618099)
)
;

boundaryField
{
    fuel
    {
        type            fixedValue;
        value           uniform (0 0 0.1055);
    }
    wall
    {
        type            slip;
    }
    outlet
    {
        type            pressureInletOutletVelocity;
        value           nonuniform List<vector> 
24
(
(0 -0.0488395 0.121698)
(0 -0.0408746 0.148241)
(0 0.00141582 0)
(0 0.0409655 0)
(0 0.0659752 0)
(0 0.0748604 0)
(0 0.0658702 0)
(0 0.0372224 0)
(0 -0.00970178 0.373315)
(0 -0.0713651 0.420398)
(0 -0.141968 0.462724)
(0 -0.219022 0.499756)
(0 -0.302818 0.532241)
(0 -0.391893 0.560143)
(0 -0.48446 0.583275)
(0 -0.578929 0.601713)
(0 -0.673976 0.615698)
(0 -0.768508 0.625547)
(0 -0.861643 0.631621)
(0 -0.952681 0.634289)
(0 -1.04111 0.633938)
(0 -1.12648 0.630924)
(0 -1.20855 0.625549)
(0 -1.28715 0.618099)
)
;
    }
    frontAndBack
    {
        type            empty;
    }
    procBoundary3to0
    {
        type            processor;
        value           nonuniform List<vector> 10((0 -0.0650615 0.552045) (0 -0.24288 0.554899) (0 -0.353916 0.548803) (0 -0.529841 0.555782) (0 -0.642573 0.557193) (0 -0.814614 0.547837) (0 -0.934522 0.618606) (0 -1.09481 0.568911) (0 -1.21593 0.748514) (0 -1.36223 0.608829));
    }
    procBoundary3to2
    {
        type            processor;
        value           nonuniform List<vector> 
25
(
(0 0.00155191 0.510083)
(0 0.00761274 0.704708)
(0 0.0144779 0.736769)
(0 0.021208 0.72837)
(0 0.0300293 0.724039)
(0 0.0398724 0.723055)
(0 0.0504627 0.721313)
(0 0.0615485 0.718121)
(0 0.0729307 0.713909)
(0 0.0844561 0.708997)
(0 -0.00251114 0.697324)
(0 -0.00251114 0.697324)
(0 0.00142188 0.690657)
(0 0.00538541 0.683411)
(0 0.00932556 0.675579)
(0 0.0131971 0.667138)
(0 0.0169612 0.658099)
(0 0.0205847 0.648461)
(0 0.0240397 0.638221)
(0 0.0273038 0.627369)
(0 0.0303602 0.615894)
(0 0.0331979 0.603789)
(0 0.0358126 0.591061)
(0 0.0382064 0.577705)
(0 0.0403854 0.563706)
)
;
    }
}


// ************************************************************************* //
