/*--------------------------------*- C++ -*----------------------------------*\
| =========                 |                                                 |
| \\      /  F ield         | OpenFOAM: The Open Source CFD Toolbox           |
|  \\    /   O peration     | Version:  dev                                   |
|   \\  /    A nd           | Web:      www.OpenFOAM.org                      |
|    \\/     M anipulation  |                                                 |
\*---------------------------------------------------------------------------*/
FoamFile
{
    version     2.0;
    format      ascii;
    class       volScalarField;
    location    "0.085";
    object      A2C2H22;
}
// * * * * * * * * * * * * * * * * * * * * * * * * * * * * * * * * * * * * * //

dimensions      [0 0 0 0 0 0 0];

internalField   nonuniform List<scalar> 
250
(
6.48958e-15
4.51753e-15
3.20076e-15
2.94347e-15
2.73679e-15
2.70277e-15
2.68995e-15
2.66254e-15
2.687e-15
2.65535e-15
4.98391e-15
3.51249e-15
2.51482e-15
2.34527e-15
2.17045e-15
2.14493e-15
2.13431e-15
2.10794e-15
2.13263e-15
2.10137e-15
2.10621e-15
2.12116e-15
2.10578e-15
2.12426e-15
2.12949e-15
2.1567e-15
2.27558e-15
2.51393e-15
3.21936e-15
4.67968e-15
3.6344e-15
2.58977e-15
1.86268e-15
1.76004e-15
1.61978e-15
1.60167e-15
1.59336e-15
1.57002e-15
1.59278e-15
1.5644e-15
1.56868e-15
1.58255e-15
1.5685e-15
1.58496e-15
1.58851e-15
1.60891e-15
1.70169e-15
1.86682e-15
2.33271e-15
3.28327e-15
2.4858e-15
1.78888e-15
1.28702e-15
1.23157e-15
1.12696e-15
1.11429e-15
1.10823e-15
1.08941e-15
1.10844e-15
1.08495e-15
1.08844e-15
1.10011e-15
1.08842e-15
1.10175e-15
1.10394e-15
1.11823e-15
1.18661e-15
1.29441e-15
1.58818e-15
2.18049e-15
1.57337e-15
1.14319e-15
8.19162e-16
7.90604e-16
7.19215e-16
7.13578e-16
7.09492e-16
6.95789e-16
7.10131e-16
6.92563e-16
6.95155e-16
7.03992e-16
6.9521e-16
7.04962e-16
7.06162e-16
7.15383e-16
7.57817e-16
8.27336e-16
9.99348e-16
1.34992e-15
8.98665e-16
6.57409e-16
4.72333e-16
4.60975e-16
4.16923e-16
4.13747e-16
4.11236e-16
4.0234e-16
4.11968e-16
4.00238e-16
4.01967e-16
4.07927e-16
4.02041e-16
4.08398e-16
4.08967e-16
4.14384e-16
4.40216e-16
4.7938e-16
5.72903e-16
7.64147e-16
4.56389e-16
3.37095e-16
2.40795e-16
2.37558e-16
2.13426e-16
2.12006e-16
2.10627e-16
2.05581e-16
2.11227e-16
2.04375e-16
2.05387e-16
2.08899e-16
2.05448e-16
2.0907e-16
2.09292e-16
2.12134e-16
2.25982e-16
2.45744e-16
2.91156e-16
3.85225e-16
1.97051e-16
1.47108e-16
1.0457e-16
1.04269e-16
9.29849e-17
9.24922e-17
9.18369e-17
8.9419e-17
9.22156e-17
8.88315e-17
8.93328e-17
9.10804e-17
8.93699e-17
9.11146e-17
9.11792e-17
9.24696e-17
9.87739e-17
1.07385e-16
1.26302e-16
1.66432e-16
6.82862e-17
5.15812e-17
3.64706e-17
3.67528e-17
3.25026e-17
3.2383e-17
3.21284e-17
3.12036e-17
3.23092e-17
3.09741e-17
3.11722e-17
3.18671e-17
3.1189e-17
3.18616e-17
3.18714e-17
3.23521e-17
3.46511e-17
3.77114e-17
4.40782e-17
5.80673e-17
1.72991e-17
1.32261e-17
9.28486e-18
9.45515e-18
8.28211e-18
8.26705e-18
8.19356e-18
7.93695e-18
8.25381e-18
7.8718e-18
7.92827e-18
8.12904e-18
7.93337e-18
8.12256e-18
8.1208e-18
8.25487e-18
8.86487e-18
9.67403e-18
1.1247e-17
1.48728e-17
2.76507e-18
2.13533e-18
1.48364e-18
1.52586e-18
1.32229e-18
1.3226e-18
1.30918e-18
1.26497e-18
1.3212e-18
1.25351e-18
1.26335e-18
1.29947e-18
1.26421e-18
1.29763e-18
1.29627e-18
1.3204e-18
1.42112e-18
1.55883e-18
1.80351e-18
2.40595e-18
2.35044e-19
1.82166e-19
1.24712e-19
1.29298e-19
1.10799e-19
1.11044e-19
1.09774e-19
1.0584e-19
1.10952e-19
1.04814e-19
1.05665e-19
1.09031e-19
1.05722e-19
1.08834e-19
1.08556e-19
1.10901e-19
1.1949e-19
1.32193e-19
1.52247e-19
2.06198e-19
1.09742e-20
8.47224e-21
5.70991e-21
5.94851e-21
5.04727e-21
5.06577e-21
5.00183e-21
4.81537e-21
5.06073e-21
4.76626e-21
4.80455e-21
4.97128e-21
4.80617e-21
4.96181e-21
4.94e-21
5.06324e-21
5.45587e-21
6.09772e-21
6.99664e-21
9.64383e-21
)
;

boundaryField
{
    fuel
    {
        type            fixedValue;
        value           nonuniform 0();
    }
    wall
    {
        type            zeroGradient;
    }
    outlet
    {
        type            zeroGradient;
    }
    frontAndBack
    {
        type            empty;
    }
    procBoundary1to0
    {
        type            processor;
        value           nonuniform List<scalar> 
21
(
8.11257e-15
5.57469e-15
3.87882e-15
3.51376e-15
3.27736e-15
3.23426e-15
3.2195e-15
3.19286e-15
3.21522e-15
3.18532e-15
2.66049e-15
2.66049e-15
2.67517e-15
2.65971e-15
2.67877e-15
2.68584e-15
2.72021e-15
2.86562e-15
3.19537e-15
4.22551e-15
6.39513e-15
)
;
    }
}


// ************************************************************************* //
