/*--------------------------------*- C++ -*----------------------------------*\
| =========                 |                                                 |
| \\      /  F ield         | OpenFOAM: The Open Source CFD Toolbox           |
|  \\    /   O peration     | Version:  dev                                   |
|   \\  /    A nd           | Web:      www.OpenFOAM.org                      |
|    \\/     M anipulation  |                                                 |
\*---------------------------------------------------------------------------*/
FoamFile
{
    version     2.0;
    format      ascii;
    class       volScalarField;
    location    "0.085";
    object      A3C2H2;
}
// * * * * * * * * * * * * * * * * * * * * * * * * * * * * * * * * * * * * * //

dimensions      [0 0 0 0 0 0 0];

internalField   nonuniform List<scalar> 
250
(
1.53185e-16
1.07181e-16
7.19585e-17
6.42245e-17
5.94354e-17
5.86046e-17
5.83291e-17
5.77617e-17
5.82235e-17
5.76191e-17
1.28258e-16
8.98905e-17
6.17071e-17
5.5772e-17
5.17267e-17
5.10512e-17
5.08193e-17
5.03001e-17
5.07369e-17
5.01745e-17
5.02693e-17
5.05322e-17
5.02675e-17
5.06163e-17
5.07588e-17
5.13863e-17
5.42752e-17
6.15134e-17
8.35274e-17
1.13093e-16
1.0601e-16
7.47552e-17
5.24154e-17
4.79604e-17
4.45784e-17
4.40364e-17
4.38439e-17
4.33755e-17
4.3782e-17
4.32655e-17
4.33495e-17
4.35953e-17
4.33494e-17
4.36678e-17
4.37806e-17
4.42917e-17
4.66623e-17
5.21433e-17
6.83651e-17
9.10909e-17
8.64936e-17
6.16276e-17
4.41029e-17
4.08524e-17
3.80517e-17
3.76118e-17
3.74536e-17
3.70349e-17
3.74093e-17
3.69384e-17
3.70129e-17
3.72408e-17
3.70145e-17
3.73017e-17
3.73894e-17
3.78005e-17
3.97469e-17
4.38382e-17
5.57036e-17
7.29862e-17
6.96133e-17
5.03164e-17
3.66911e-17
3.43378e-17
3.20496e-17
3.17436e-17
3.16143e-17
3.12416e-17
3.15853e-17
3.11562e-17
3.12228e-17
3.14335e-17
3.1226e-17
3.14835e-17
3.15503e-17
3.18765e-17
3.33769e-17
3.64843e-17
4.50471e-17
5.81113e-17
5.48886e-17
4.03233e-17
3.00218e-17
2.84254e-17
2.65602e-17
2.63219e-17
2.62163e-17
2.58854e-17
2.62009e-17
2.58088e-17
2.5869e-17
2.60641e-17
2.5874e-17
2.61037e-17
2.61534e-17
2.64085e-17
2.76144e-17
2.99006e-17
3.6047e-17
4.5776e-17
4.21936e-17
3.16157e-17
2.3889e-17
2.28846e-17
2.13689e-17
2.11957e-17
2.11097e-17
2.08186e-17
2.11066e-17
2.07496e-17
2.08043e-17
2.09839e-17
2.08107e-17
2.10135e-17
2.10492e-17
2.12451e-17
2.2206e-17
2.38619e-17
2.81941e-17
3.53147e-17
3.09692e-17
2.36995e-17
1.81281e-17
1.75721e-17
1.63675e-17
1.62516e-17
1.61826e-17
1.59343e-17
1.619e-17
1.58735e-17
1.59221e-17
1.60828e-17
1.59295e-17
1.61029e-17
1.6127e-17
1.62731e-17
1.70181e-17
1.81835e-17
2.11308e-17
2.61814e-17
2.11454e-17
1.65439e-17
1.27908e-17
1.25425e-17
1.16442e-17
1.15754e-17
1.15229e-17
1.13272e-17
1.15369e-17
1.12773e-17
1.13176e-17
1.14502e-17
1.13248e-17
1.14617e-17
1.14766e-17
1.15796e-17
1.21193e-17
1.28928e-17
1.47734e-17
1.81477e-17
1.32709e-17
1.06353e-17
8.3581e-18
8.27224e-18
7.67835e-18
7.64233e-18
7.60655e-18
7.47197e-18
7.62115e-18
7.43627e-18
7.46542e-18
7.56003e-18
7.47131e-18
7.56534e-18
7.57393e-18
7.63971e-18
7.98787e-18
8.45625e-18
9.55551e-18
1.16162e-17
8.03412e-18
6.57938e-18
5.28438e-18
5.25649e-18
4.8961e-18
4.87748e-18
4.85494e-18
4.76985e-18
4.86719e-18
4.7459e-18
4.76586e-18
4.82717e-18
4.77057e-18
4.82886e-18
4.83486e-18
4.87439e-18
5.08427e-18
5.35492e-18
5.97852e-18
7.18819e-18
5.32659e-18
4.4369e-18
3.68448e-18
3.65824e-18
3.44805e-18
3.43495e-18
3.42189e-18
3.36922e-18
3.43039e-18
3.35309e-18
3.36693e-18
3.40444e-18
3.37106e-18
3.40473e-18
3.4108e-18
3.43372e-18
3.5615e-18
3.72194e-18
4.10934e-18
4.87024e-18
8.18318e-18
6.89355e-18
5.92419e-18
5.84935e-18
5.59089e-18
5.56498e-18
5.55007e-18
5.47767e-18
5.56125e-18
5.45295e-18
5.47539e-18
5.52299e-18
5.48376e-18
5.52267e-18
5.5387e-18
5.56381e-18
5.74269e-18
5.94638e-18
6.51735e-18
7.58713e-18
)
;

boundaryField
{
    fuel
    {
        type            fixedValue;
        value           nonuniform 0();
    }
    wall
    {
        type            zeroGradient;
    }
    outlet
    {
        type            zeroGradient;
    }
    frontAndBack
    {
        type            empty;
    }
    procBoundary1to0
    {
        type            processor;
        value           nonuniform List<scalar> 
21
(
1.80677e-16
1.26765e-16
8.30707e-17
7.31811e-17
6.75769e-17
6.65731e-17
6.62515e-17
6.56413e-17
6.61201e-17
6.54814e-17
5.77247e-17
5.77247e-17
5.80016e-17
5.7721e-17
5.80969e-17
5.82734e-17
5.90335e-17
6.2534e-17
7.1968e-17
1.01567e-16
1.39573e-16
)
;
    }
}


// ************************************************************************* //
