/*--------------------------------*- C++ -*----------------------------------*\
| =========                 |                                                 |
| \\      /  F ield         | OpenFOAM: The Open Source CFD Toolbox           |
|  \\    /   O peration     | Version:  dev                                   |
|   \\  /    A nd           | Web:      www.OpenFOAM.org                      |
|    \\/     M anipulation  |                                                 |
\*---------------------------------------------------------------------------*/
FoamFile
{
    version     2.0;
    format      ascii;
    class       volScalarField;
    location    "0.085";
    object      AC3H4;
}
// * * * * * * * * * * * * * * * * * * * * * * * * * * * * * * * * * * * * * //

dimensions      [0 0 0 0 0 0 0];

internalField   nonuniform List<scalar> 
250
(
7.64898e-07
7.15314e-07
6.72585e-07
6.57487e-07
6.5027e-07
6.48342e-07
6.47876e-07
6.47477e-07
6.47737e-07
6.47305e-07
7.51758e-07
7.05336e-07
6.68953e-07
6.54719e-07
6.49587e-07
6.47875e-07
6.4753e-07
6.47549e-07
6.47413e-07
6.47495e-07
6.47549e-07
6.47387e-07
6.47458e-07
6.47419e-07
6.47809e-07
6.49233e-07
6.53899e-07
6.67189e-07
6.99003e-07
7.43077e-07
7.48781e-07
7.0568e-07
6.77342e-07
6.63259e-07
6.61253e-07
6.59777e-07
6.59607e-07
6.60338e-07
6.5947e-07
6.60464e-07
6.60358e-07
6.59748e-07
6.60262e-07
6.59735e-07
6.60097e-07
6.612e-07
6.63895e-07
6.74919e-07
7.02031e-07
7.40321e-07
7.64719e-07
7.25374e-07
7.07425e-07
6.92654e-07
6.94886e-07
6.9371e-07
6.9377e-07
6.95519e-07
6.93532e-07
6.95884e-07
6.95546e-07
6.94265e-07
6.95451e-07
6.94219e-07
6.94577e-07
6.95295e-07
6.95338e-07
7.03849e-07
7.25816e-07
7.57364e-07
8.10915e-07
7.76002e-07
7.70696e-07
7.55166e-07
7.62354e-07
7.60796e-07
7.61116e-07
7.64033e-07
7.60657e-07
7.64647e-07
7.64024e-07
7.61939e-07
7.63965e-07
7.61911e-07
7.62312e-07
7.62633e-07
7.60612e-07
7.65478e-07
7.82114e-07
8.05276e-07
8.99245e-07
8.70156e-07
8.75807e-07
8.58895e-07
8.70528e-07
8.68897e-07
8.69438e-07
8.73288e-07
8.68635e-07
8.74047e-07
8.73169e-07
8.70404e-07
8.73212e-07
8.7048e-07
8.70998e-07
8.71012e-07
8.66601e-07
8.68763e-07
8.79977e-07
8.94194e-07
1.03035e-06
1.00663e-06
1.02031e-06
1.00283e-06
1.01648e-06
1.01443e-06
1.01504e-06
1.01903e-06
1.01386e-06
1.01967e-06
1.01869e-06
1.01579e-06
1.01894e-06
1.01607e-06
1.01678e-06
1.01673e-06
1.01156e-06
1.01201e-06
1.01935e-06
1.02581e-06
1.18819e-06
1.16861e-06
1.18169e-06
1.16534e-06
1.17697e-06
1.17435e-06
1.17482e-06
1.17781e-06
1.17337e-06
1.178e-06
1.17716e-06
1.17497e-06
1.17772e-06
1.1755e-06
1.17644e-06
1.17668e-06
1.17305e-06
1.17357e-06
1.17998e-06
1.18287e-06
1.33636e-06
1.3193e-06
1.32559e-06
1.31176e-06
1.31883e-06
1.31581e-06
1.316e-06
1.31741e-06
1.31447e-06
1.31697e-06
1.31639e-06
1.31545e-06
1.31731e-06
1.3162e-06
1.31729e-06
1.31803e-06
1.31714e-06
1.319e-06
1.32657e-06
1.33039e-06
1.44766e-06
1.43244e-06
1.43139e-06
1.42045e-06
1.42301e-06
1.41988e-06
1.41979e-06
1.41979e-06
1.41832e-06
1.41879e-06
1.41844e-06
1.41873e-06
1.41967e-06
1.41961e-06
1.42074e-06
1.42196e-06
1.42347e-06
1.42681e-06
1.43571e-06
1.44225e-06
1.51585e-06
1.50218e-06
1.49606e-06
1.48759e-06
1.48699e-06
1.48399e-06
1.48368e-06
1.48279e-06
1.48235e-06
1.48139e-06
1.48117e-06
1.48238e-06
1.48261e-06
1.48329e-06
1.48437e-06
1.48595e-06
1.4889e-06
1.49329e-06
1.50283e-06
1.51195e-06
1.54793e-06
1.53569e-06
1.52762e-06
1.52081e-06
1.51875e-06
1.51602e-06
1.51557e-06
1.51438e-06
1.51436e-06
1.51277e-06
1.51257e-06
1.51425e-06
1.51411e-06
1.51515e-06
1.51613e-06
1.51788e-06
1.52125e-06
1.52604e-06
1.53536e-06
1.54582e-06
1.56089e-06
1.54977e-06
1.54154e-06
1.53563e-06
1.53315e-06
1.53064e-06
1.53012e-06
1.5289e-06
1.52899e-06
1.52721e-06
1.52698e-06
1.52885e-06
1.52858e-06
1.52973e-06
1.53063e-06
1.53243e-06
1.53576e-06
1.54055e-06
1.54935e-06
1.56009e-06
)
;

boundaryField
{
    fuel
    {
        type            fixedValue;
        value           nonuniform 0();
    }
    wall
    {
        type            zeroGradient;
    }
    outlet
    {
        type            zeroGradient;
    }
    frontAndBack
    {
        type            empty;
    }
    procBoundary1to0
    {
        type            processor;
        value           nonuniform List<scalar> 
21
(
7.8281e-07
7.30055e-07
6.81831e-07
6.65348e-07
6.56747e-07
6.54619e-07
6.54073e-07
6.53463e-07
6.53896e-07
6.53219e-07
6.47453e-07
6.47453e-07
6.47542e-07
6.47368e-07
6.47609e-07
6.48036e-07
6.49708e-07
6.55747e-07
6.71136e-07
7.07581e-07
7.57138e-07
)
;
    }
}


// ************************************************************************* //
