/*--------------------------------*- C++ -*----------------------------------*\
| =========                 |                                                 |
| \\      /  F ield         | OpenFOAM: The Open Source CFD Toolbox           |
|  \\    /   O peration     | Version:  dev                                   |
|   \\  /    A nd           | Web:      www.OpenFOAM.org                      |
|    \\/     M anipulation  |                                                 |
\*---------------------------------------------------------------------------*/
FoamFile
{
    version     2.0;
    format      ascii;
    class       volScalarField;
    location    "0.085";
    object      C;
}
// * * * * * * * * * * * * * * * * * * * * * * * * * * * * * * * * * * * * * //

dimensions      [0 0 0 0 0 0 0];

internalField   nonuniform List<scalar> 
2000
(
2.46671e-08
2.48044e-08
2.49549e-08
2.50245e-08
2.50327e-08
2.50482e-08
2.50419e-08
2.5049e-08
2.50431e-08
2.50477e-08
2.50437e-08
2.50468e-08
2.5044e-08
2.5046e-08
2.50443e-08
2.50457e-08
2.50444e-08
2.50455e-08
2.50447e-08
2.50453e-08
2.50448e-08
2.50451e-08
2.50448e-08
2.5045e-08
2.50449e-08
2.50449e-08
2.5045e-08
2.50448e-08
2.50451e-08
2.50448e-08
2.50453e-08
2.50447e-08
2.50455e-08
2.50444e-08
2.50457e-08
2.50443e-08
2.50461e-08
2.50441e-08
2.50468e-08
2.50437e-08
2.50477e-08
2.50432e-08
2.5049e-08
2.50419e-08
2.50482e-08
2.50328e-08
2.50245e-08
2.49549e-08
2.48044e-08
2.46674e-08
1.24446e-07
1.2511e-07
1.25828e-07
1.26161e-07
1.26198e-07
1.26273e-07
1.26242e-07
1.26276e-07
1.26248e-07
1.2627e-07
1.2625e-07
1.26266e-07
1.26252e-07
1.26262e-07
1.26254e-07
1.2626e-07
1.26254e-07
1.26259e-07
1.26255e-07
1.26258e-07
1.26256e-07
1.26258e-07
1.26256e-07
1.26257e-07
1.26257e-07
1.26257e-07
1.26257e-07
1.26256e-07
1.26258e-07
1.26256e-07
1.26258e-07
1.26255e-07
1.26259e-07
1.26254e-07
1.26261e-07
1.26254e-07
1.26262e-07
1.26252e-07
1.26266e-07
1.26251e-07
1.2627e-07
1.26248e-07
1.26276e-07
1.26242e-07
1.26273e-07
1.26198e-07
1.26161e-07
1.25828e-07
1.2511e-07
1.24447e-07
3.97776e-07
3.99816e-07
4.01977e-07
4.02983e-07
4.03074e-07
4.03312e-07
4.03206e-07
4.03319e-07
4.03225e-07
4.03299e-07
4.03235e-07
4.03285e-07
4.03241e-07
4.03273e-07
4.03245e-07
4.03268e-07
4.03247e-07
4.03264e-07
4.03251e-07
4.03261e-07
4.03253e-07
4.03259e-07
4.03254e-07
4.03257e-07
4.03256e-07
4.03256e-07
4.03257e-07
4.03254e-07
4.03259e-07
4.03253e-07
4.03261e-07
4.03251e-07
4.03264e-07
4.03247e-07
4.03268e-07
4.03245e-07
4.03273e-07
4.03241e-07
4.03285e-07
4.03235e-07
4.03299e-07
4.03225e-07
4.03319e-07
4.03206e-07
4.03311e-07
4.03074e-07
4.02983e-07
4.01977e-07
3.99816e-07
3.97776e-07
8.4098e-07
8.453e-07
8.49784e-07
8.51865e-07
8.51991e-07
8.52511e-07
8.5226e-07
8.52518e-07
8.52304e-07
8.52474e-07
8.52325e-07
8.52442e-07
8.52341e-07
8.52416e-07
8.52351e-07
8.52403e-07
8.52355e-07
8.52395e-07
8.52366e-07
8.52388e-07
8.5237e-07
8.52382e-07
8.52371e-07
8.52378e-07
8.52375e-07
8.52375e-07
8.52378e-07
8.52371e-07
8.52382e-07
8.5237e-07
8.52388e-07
8.52366e-07
8.52395e-07
8.52355e-07
8.52403e-07
8.52351e-07
8.52416e-07
8.52342e-07
8.52441e-07
8.52326e-07
8.52474e-07
8.52303e-07
8.52518e-07
8.52259e-07
8.5251e-07
8.51991e-07
8.51864e-07
8.49783e-07
8.453e-07
8.40978e-07
1.19566e-06
1.20165e-06
1.20785e-06
1.21066e-06
1.21073e-06
1.21148e-06
1.21109e-06
1.21147e-06
1.21115e-06
1.21141e-06
1.21118e-06
1.21136e-06
1.21121e-06
1.21132e-06
1.21123e-06
1.2113e-06
1.21123e-06
1.21129e-06
1.21125e-06
1.21128e-06
1.21125e-06
1.21127e-06
1.21125e-06
1.21127e-06
1.21126e-06
1.21126e-06
1.21127e-06
1.21125e-06
1.21127e-06
1.21125e-06
1.21128e-06
1.21125e-06
1.21129e-06
1.21123e-06
1.2113e-06
1.21122e-06
1.21132e-06
1.21121e-06
1.21136e-06
1.21118e-06
1.21141e-06
1.21115e-06
1.21147e-06
1.21109e-06
1.21148e-06
1.21073e-06
1.21066e-06
1.20785e-06
1.20165e-06
1.19566e-06
1.26537e-06
1.27169e-06
1.27838e-06
1.28129e-06
1.28127e-06
1.28209e-06
1.28163e-06
1.28207e-06
1.2817e-06
1.282e-06
1.28174e-06
1.28194e-06
1.28177e-06
1.2819e-06
1.28179e-06
1.28188e-06
1.28179e-06
1.28186e-06
1.28181e-06
1.28185e-06
1.28182e-06
1.28184e-06
1.28182e-06
1.28183e-06
1.28183e-06
1.28183e-06
1.28183e-06
1.28182e-06
1.28184e-06
1.28182e-06
1.28185e-06
1.28181e-06
1.28186e-06
1.2818e-06
1.28188e-06
1.28179e-06
1.2819e-06
1.28177e-06
1.28194e-06
1.28174e-06
1.282e-06
1.2817e-06
1.28207e-06
1.28163e-06
1.28209e-06
1.28127e-06
1.28129e-06
1.27838e-06
1.27169e-06
1.26536e-06
1.10637e-06
1.11206e-06
1.11837e-06
1.12097e-06
1.1209e-06
1.12166e-06
1.12121e-06
1.12163e-06
1.12128e-06
1.12156e-06
1.12131e-06
1.12151e-06
1.12134e-06
1.12147e-06
1.12136e-06
1.12145e-06
1.12137e-06
1.12143e-06
1.12139e-06
1.12142e-06
1.12139e-06
1.12141e-06
1.12139e-06
1.12141e-06
1.1214e-06
1.1214e-06
1.12141e-06
1.12139e-06
1.12141e-06
1.12139e-06
1.12142e-06
1.12139e-06
1.12143e-06
1.12137e-06
1.12145e-06
1.12136e-06
1.12147e-06
1.12135e-06
1.12151e-06
1.12132e-06
1.12156e-06
1.12128e-06
1.12163e-06
1.12121e-06
1.12166e-06
1.1209e-06
1.12096e-06
1.11837e-06
1.11206e-06
1.10637e-06
8.61285e-07
8.65957e-07
8.71413e-07
8.73564e-07
8.73489e-07
8.74132e-07
8.73741e-07
8.74104e-07
8.73795e-07
8.74041e-07
8.73828e-07
8.73997e-07
8.73854e-07
8.73962e-07
8.7387e-07
8.73944e-07
8.73875e-07
8.73932e-07
8.7389e-07
8.73921e-07
8.73895e-07
8.73913e-07
8.73897e-07
8.73907e-07
8.73903e-07
8.73903e-07
8.73907e-07
8.73897e-07
8.73913e-07
8.73895e-07
8.73921e-07
8.73889e-07
8.73931e-07
8.73875e-07
8.73944e-07
8.73869e-07
8.73962e-07
8.73855e-07
8.73995e-07
8.73829e-07
8.74041e-07
8.73795e-07
8.74104e-07
8.73741e-07
8.74131e-07
8.7349e-07
8.73563e-07
8.71413e-07
8.65957e-07
8.61285e-07
6.24435e-07
6.2806e-07
6.32521e-07
6.34217e-07
6.34162e-07
6.34671e-07
6.34356e-07
6.34646e-07
6.34397e-07
6.34594e-07
6.34423e-07
6.34558e-07
6.34444e-07
6.3453e-07
6.34457e-07
6.34516e-07
6.34461e-07
6.34507e-07
6.34472e-07
6.34498e-07
6.34477e-07
6.34492e-07
6.34478e-07
6.34487e-07
6.34483e-07
6.34483e-07
6.34486e-07
6.34479e-07
6.34492e-07
6.34477e-07
6.34498e-07
6.34472e-07
6.34506e-07
6.34461e-07
6.34517e-07
6.34456e-07
6.34531e-07
6.34444e-07
6.34558e-07
6.34424e-07
6.34595e-07
6.34397e-07
6.34646e-07
6.34356e-07
6.3467e-07
6.34162e-07
6.34217e-07
6.32521e-07
6.2806e-07
6.24435e-07
4.35082e-07
4.37808e-07
4.4132e-07
4.42625e-07
4.42594e-07
4.42982e-07
4.4274e-07
4.42962e-07
4.4277e-07
4.42922e-07
4.4279e-07
4.42894e-07
4.42806e-07
4.42872e-07
4.42815e-07
4.42861e-07
4.42819e-07
4.42854e-07
4.42828e-07
4.42847e-07
4.42831e-07
4.42842e-07
4.42832e-07
4.42838e-07
4.42836e-07
4.42836e-07
4.42838e-07
4.42832e-07
4.42842e-07
4.42831e-07
4.42847e-07
4.42828e-07
4.42854e-07
4.42819e-07
4.42862e-07
4.42815e-07
4.42872e-07
4.42806e-07
4.42893e-07
4.42791e-07
4.42922e-07
4.4277e-07
4.42962e-07
4.4274e-07
4.42981e-07
4.42594e-07
4.42624e-07
4.4132e-07
4.37809e-07
4.35082e-07
2.97579e-07
2.99604e-07
3.0231e-07
3.03302e-07
3.03292e-07
3.03583e-07
3.03402e-07
3.03568e-07
3.03423e-07
3.03537e-07
3.03438e-07
3.03516e-07
3.03449e-07
3.03499e-07
3.03457e-07
3.03491e-07
3.03459e-07
3.03485e-07
3.03466e-07
3.0348e-07
3.03468e-07
3.03477e-07
3.03469e-07
3.03474e-07
3.03472e-07
3.03472e-07
3.03474e-07
3.03469e-07
3.03477e-07
3.03468e-07
3.0348e-07
3.03466e-07
3.03485e-07
3.03459e-07
3.03491e-07
3.03456e-07
3.03499e-07
3.0345e-07
3.03515e-07
3.03438e-07
3.03537e-07
3.03423e-07
3.03568e-07
3.03402e-07
3.03583e-07
3.03292e-07
3.03302e-07
3.0231e-07
2.99604e-07
2.97579e-07
1.99482e-07
2.00924e-07
2.02882e-07
2.036e-07
2.03604e-07
2.0381e-07
2.03683e-07
2.038e-07
2.03698e-07
2.03777e-07
2.03707e-07
2.03762e-07
2.03716e-07
2.03751e-07
2.0372e-07
2.03745e-07
2.03722e-07
2.03741e-07
2.03727e-07
2.03737e-07
2.03729e-07
2.03734e-07
2.03729e-07
2.03732e-07
2.03731e-07
2.03731e-07
2.03732e-07
2.03729e-07
2.03735e-07
2.03729e-07
2.03737e-07
2.03727e-07
2.03741e-07
2.03722e-07
2.03745e-07
2.0372e-07
2.03751e-07
2.03716e-07
2.03762e-07
2.03708e-07
2.03778e-07
2.03697e-07
2.038e-07
2.03683e-07
2.0381e-07
2.03604e-07
2.036e-07
2.02882e-07
2.00925e-07
1.99482e-07
1.36466e-07
1.37549e-07
1.39032e-07
1.39577e-07
1.39587e-07
1.39741e-07
1.39646e-07
1.39733e-07
1.39656e-07
1.39715e-07
1.39663e-07
1.39704e-07
1.39669e-07
1.39695e-07
1.39673e-07
1.39691e-07
1.39674e-07
1.39688e-07
1.39677e-07
1.39685e-07
1.39679e-07
1.39683e-07
1.39679e-07
1.39682e-07
1.39681e-07
1.39681e-07
1.39682e-07
1.39679e-07
1.39683e-07
1.39679e-07
1.39685e-07
1.39677e-07
1.39688e-07
1.39674e-07
1.39691e-07
1.39672e-07
1.39695e-07
1.39669e-07
1.39704e-07
1.39663e-07
1.39715e-07
1.39656e-07
1.39733e-07
1.39646e-07
1.3974e-07
1.39587e-07
1.39577e-07
1.39032e-07
1.3755e-07
1.36466e-07
9.48125e-08
9.54805e-08
9.64677e-08
9.68428e-08
9.68771e-08
9.69781e-08
9.69244e-08
9.69774e-08
9.69307e-08
9.69664e-08
9.69344e-08
9.69587e-08
9.69374e-08
9.69529e-08
9.69392e-08
9.69499e-08
9.69396e-08
9.6948e-08
9.69417e-08
9.69463e-08
9.69424e-08
9.69451e-08
9.69426e-08
9.69441e-08
9.69435e-08
9.69435e-08
9.69441e-08
9.69426e-08
9.69451e-08
9.69424e-08
9.69463e-08
9.69417e-08
9.69479e-08
9.69397e-08
9.695e-08
9.69391e-08
9.69529e-08
9.69375e-08
9.69586e-08
9.69345e-08
9.69664e-08
9.69307e-08
9.69773e-08
9.69244e-08
9.69778e-08
9.68772e-08
9.68427e-08
9.64677e-08
9.54805e-08
9.48125e-08
6.67006e-08
6.71807e-08
6.78875e-08
6.81617e-08
6.81934e-08
6.82652e-08
6.82289e-08
6.82656e-08
6.82332e-08
6.82577e-08
6.82355e-08
6.82522e-08
6.82374e-08
6.82481e-08
6.82385e-08
6.82459e-08
6.82388e-08
6.82445e-08
6.82402e-08
6.82434e-08
6.82407e-08
6.82425e-08
6.82408e-08
6.82418e-08
6.82414e-08
6.82414e-08
6.82418e-08
6.82408e-08
6.82425e-08
6.82407e-08
6.82434e-08
6.82401e-08
6.82445e-08
6.82388e-08
6.8246e-08
6.82384e-08
6.82481e-08
6.82375e-08
6.82521e-08
6.82356e-08
6.82577e-08
6.82331e-08
6.82655e-08
6.82289e-08
6.82651e-08
6.81934e-08
6.81616e-08
6.78874e-08
6.71807e-08
6.67006e-08
4.88416e-08
4.92042e-08
4.97338e-08
4.99432e-08
4.9972e-08
5.00256e-08
4.99998e-08
5.00265e-08
5.00028e-08
5.00205e-08
5.00043e-08
5.00164e-08
5.00056e-08
5.00133e-08
5.00063e-08
5.00117e-08
5.00065e-08
5.00107e-08
5.00075e-08
5.00098e-08
5.00078e-08
5.00091e-08
5.00079e-08
5.00086e-08
5.00083e-08
5.00083e-08
5.00086e-08
5.00079e-08
5.00091e-08
5.00078e-08
5.00098e-08
5.00074e-08
5.00106e-08
5.00065e-08
5.00117e-08
5.00063e-08
5.00133e-08
5.00056e-08
5.00163e-08
5.00044e-08
5.00206e-08
5.00027e-08
5.00265e-08
4.99998e-08
5.00255e-08
4.9972e-08
4.99432e-08
4.97338e-08
4.92042e-08
4.88416e-08
3.65366e-08
3.68307e-08
3.72493e-08
3.74238e-08
3.74543e-08
3.74973e-08
3.74786e-08
3.74986e-08
3.74805e-08
3.74936e-08
3.74813e-08
3.74902e-08
3.7482e-08
3.74877e-08
3.74824e-08
3.74863e-08
3.74824e-08
3.74855e-08
3.74831e-08
3.74849e-08
3.74834e-08
3.74843e-08
3.74834e-08
3.7484e-08
3.74837e-08
3.74837e-08
3.7484e-08
3.74834e-08
3.74844e-08
3.74834e-08
3.74849e-08
3.74831e-08
3.74855e-08
3.74824e-08
3.74864e-08
3.74823e-08
3.74877e-08
3.7482e-08
3.74901e-08
3.74813e-08
3.74936e-08
3.74805e-08
3.74986e-08
3.74786e-08
3.74972e-08
3.74543e-08
3.74238e-08
3.72493e-08
3.68307e-08
3.65366e-08
2.84631e-08
2.86975e-08
2.90224e-08
2.91616e-08
2.91893e-08
2.92228e-08
2.92095e-08
2.92244e-08
2.92108e-08
2.92204e-08
2.92112e-08
2.92177e-08
2.92115e-08
2.92157e-08
2.92118e-08
2.92147e-08
2.92117e-08
2.92141e-08
2.92123e-08
2.92136e-08
2.92124e-08
2.92132e-08
2.92125e-08
2.92129e-08
2.92127e-08
2.92127e-08
2.92129e-08
2.92125e-08
2.92132e-08
2.92124e-08
2.92136e-08
2.92122e-08
2.92141e-08
2.92118e-08
2.92147e-08
2.92117e-08
2.92157e-08
2.92116e-08
2.92177e-08
2.92112e-08
2.92205e-08
2.92108e-08
2.92243e-08
2.92095e-08
2.92227e-08
2.91893e-08
2.91616e-08
2.90224e-08
2.86975e-08
2.84631e-08
2.26846e-08
2.2887e-08
2.31573e-08
2.32771e-08
2.33013e-08
2.33296e-08
2.33184e-08
2.33308e-08
2.33194e-08
2.33274e-08
2.33196e-08
2.33251e-08
2.33199e-08
2.33234e-08
2.33201e-08
2.33225e-08
2.33201e-08
2.3322e-08
2.33205e-08
2.33216e-08
2.33206e-08
2.33213e-08
2.33207e-08
2.3321e-08
2.33209e-08
2.33209e-08
2.3321e-08
2.33207e-08
2.33213e-08
2.33206e-08
2.33216e-08
2.33205e-08
2.3322e-08
2.33201e-08
2.33226e-08
2.33201e-08
2.33234e-08
2.33199e-08
2.3325e-08
2.33197e-08
2.33274e-08
2.33194e-08
2.33308e-08
2.33184e-08
2.33296e-08
2.33013e-08
2.32771e-08
2.31573e-08
2.2887e-08
2.26846e-08
1.86007e-08
1.87697e-08
1.89841e-08
1.90821e-08
1.9104e-08
1.91267e-08
1.91185e-08
1.9128e-08
1.91192e-08
1.91252e-08
1.91193e-08
1.91234e-08
1.91194e-08
1.9122e-08
1.91195e-08
1.91213e-08
1.91194e-08
1.91209e-08
1.91197e-08
1.91206e-08
1.91198e-08
1.91203e-08
1.91198e-08
1.91201e-08
1.912e-08
1.912e-08
1.91201e-08
1.91198e-08
1.91203e-08
1.91198e-08
1.91206e-08
1.91197e-08
1.91209e-08
1.91194e-08
1.91213e-08
1.91194e-08
1.9122e-08
1.91194e-08
1.91233e-08
1.91193e-08
1.91253e-08
1.91192e-08
1.9128e-08
1.91185e-08
1.91266e-08
1.9104e-08
1.90821e-08
1.89841e-08
1.87697e-08
1.86007e-08
1.57568e-08
1.59056e-08
1.60828e-08
1.61662e-08
1.61863e-08
1.62053e-08
1.61991e-08
1.62067e-08
1.61996e-08
1.62043e-08
1.61995e-08
1.62027e-08
1.61995e-08
1.62016e-08
1.61995e-08
1.6201e-08
1.61995e-08
1.62006e-08
1.61997e-08
1.62004e-08
1.61998e-08
1.62001e-08
1.61998e-08
1.62e-08
1.61999e-08
1.61999e-08
1.62e-08
1.61998e-08
1.62001e-08
1.61998e-08
1.62004e-08
1.61997e-08
1.62006e-08
1.61995e-08
1.6201e-08
1.61995e-08
1.62016e-08
1.61995e-08
1.62027e-08
1.61995e-08
1.62043e-08
1.61996e-08
1.62066e-08
1.61991e-08
1.62053e-08
1.61863e-08
1.61662e-08
1.60828e-08
1.59056e-08
1.57568e-08
1.3661e-08
1.37968e-08
1.39465e-08
1.40188e-08
1.40373e-08
1.40536e-08
1.40488e-08
1.40549e-08
1.40491e-08
1.40529e-08
1.4049e-08
1.40515e-08
1.40489e-08
1.40506e-08
1.40489e-08
1.405e-08
1.40488e-08
1.40497e-08
1.4049e-08
1.40495e-08
1.4049e-08
1.40493e-08
1.4049e-08
1.40492e-08
1.40491e-08
1.40491e-08
1.40492e-08
1.4049e-08
1.40493e-08
1.4049e-08
1.40495e-08
1.4049e-08
1.40497e-08
1.40488e-08
1.405e-08
1.40488e-08
1.40506e-08
1.40489e-08
1.40515e-08
1.4049e-08
1.4053e-08
1.40491e-08
1.40549e-08
1.40488e-08
1.40536e-08
1.40373e-08
1.40188e-08
1.39465e-08
1.37968e-08
1.3661e-08
1.20871e-08
1.217e-08
1.22928e-08
1.23547e-08
1.23729e-08
1.23869e-08
1.23837e-08
1.23884e-08
1.23839e-08
1.23866e-08
1.23835e-08
1.23853e-08
1.23832e-08
1.23844e-08
1.2383e-08
1.23839e-08
1.23829e-08
1.23836e-08
1.2383e-08
1.23834e-08
1.23831e-08
1.23833e-08
1.2383e-08
1.23832e-08
1.23831e-08
1.23831e-08
1.23832e-08
1.2383e-08
1.23833e-08
1.23831e-08
1.23834e-08
1.2383e-08
1.23836e-08
1.23829e-08
1.23839e-08
1.2383e-08
1.23844e-08
1.23832e-08
1.23853e-08
1.23835e-08
1.23866e-08
1.23839e-08
1.23884e-08
1.23837e-08
1.23868e-08
1.23729e-08
1.23547e-08
1.22928e-08
1.217e-08
1.20871e-08
1.08848e-08
1.09608e-08
1.10674e-08
1.11224e-08
1.11395e-08
1.11519e-08
1.11494e-08
1.11534e-08
1.11495e-08
1.11517e-08
1.11491e-08
1.11505e-08
1.11488e-08
1.11497e-08
1.11486e-08
1.11493e-08
1.11485e-08
1.1149e-08
1.11485e-08
1.11489e-08
1.11485e-08
1.11487e-08
1.11485e-08
1.11486e-08
1.11486e-08
1.11486e-08
1.11486e-08
1.11485e-08
1.11487e-08
1.11485e-08
1.11489e-08
1.11485e-08
1.1149e-08
1.11485e-08
1.11493e-08
1.11486e-08
1.11497e-08
1.11488e-08
1.11505e-08
1.11491e-08
1.11517e-08
1.11495e-08
1.11534e-08
1.11494e-08
1.11518e-08
1.11395e-08
1.11224e-08
1.10674e-08
1.09608e-08
1.08848e-08
9.91657e-09
9.98746e-09
1.00827e-08
1.01332e-08
1.01495e-08
1.01608e-08
1.01589e-08
1.01623e-08
1.01589e-08
1.01607e-08
1.01584e-08
1.01596e-08
1.0158e-08
1.01588e-08
1.01578e-08
1.01584e-08
1.01577e-08
1.01582e-08
1.01577e-08
1.0158e-08
1.01577e-08
1.01579e-08
1.01577e-08
1.01578e-08
1.01578e-08
1.01578e-08
1.01578e-08
1.01577e-08
1.01579e-08
1.01577e-08
1.0158e-08
1.01577e-08
1.01582e-08
1.01577e-08
1.01584e-08
1.01578e-08
1.01588e-08
1.0158e-08
1.01596e-08
1.01584e-08
1.01607e-08
1.01589e-08
1.01623e-08
1.01589e-08
1.01608e-08
1.01495e-08
1.01331e-08
1.00826e-08
9.98746e-09
9.91657e-09
9.15224e-09
9.21779e-09
9.3019e-09
9.34751e-09
9.36298e-09
9.37316e-09
9.37171e-09
9.37456e-09
9.37167e-09
9.37313e-09
9.3711e-09
9.37207e-09
9.37072e-09
9.37135e-09
9.37049e-09
9.37096e-09
9.37035e-09
9.37076e-09
9.37038e-09
9.37061e-09
9.37037e-09
9.3705e-09
9.37035e-09
9.37042e-09
9.37039e-09
9.37039e-09
9.37042e-09
9.37035e-09
9.3705e-09
9.37037e-09
9.37061e-09
9.37038e-09
9.37075e-09
9.37035e-09
9.37097e-09
9.37049e-09
9.37136e-09
9.37072e-09
9.37206e-09
9.37111e-09
9.37313e-09
9.37167e-09
9.37456e-09
9.37171e-09
9.37314e-09
9.36298e-09
9.3475e-09
9.3019e-09
9.21779e-09
9.15224e-09
8.53936e-09
8.6006e-09
8.67581e-09
8.71736e-09
8.73205e-09
8.74132e-09
8.74027e-09
8.74268e-09
8.74017e-09
8.74133e-09
8.73955e-09
8.74032e-09
8.73914e-09
8.73965e-09
8.73889e-09
8.73928e-09
8.73874e-09
8.73909e-09
8.73876e-09
8.73896e-09
8.73874e-09
8.73885e-09
8.73872e-09
8.73878e-09
8.73875e-09
8.73875e-09
8.73878e-09
8.73872e-09
8.73885e-09
8.73874e-09
8.73895e-09
8.73876e-09
8.73908e-09
8.73875e-09
8.73929e-09
8.73889e-09
8.73965e-09
8.73914e-09
8.74032e-09
8.73956e-09
8.74134e-09
8.74017e-09
8.74268e-09
8.74026e-09
8.74131e-09
8.73205e-09
8.71735e-09
8.6758e-09
8.6006e-09
8.53936e-09
8.04068e-09
8.09821e-09
8.16628e-09
8.20443e-09
8.21844e-09
8.22697e-09
8.22621e-09
8.22828e-09
8.22606e-09
8.22699e-09
8.2254e-09
8.22602e-09
8.22496e-09
8.22537e-09
8.2247e-09
8.22502e-09
8.22454e-09
8.22483e-09
8.22454e-09
8.22471e-09
8.22452e-09
8.22461e-09
8.22449e-09
8.22455e-09
8.22452e-09
8.22452e-09
8.22455e-09
8.22449e-09
8.22461e-09
8.22452e-09
8.2247e-09
8.22454e-09
8.22483e-09
8.22454e-09
8.22502e-09
8.2247e-09
8.22537e-09
8.22496e-09
8.22601e-09
8.22541e-09
8.22699e-09
8.22606e-09
8.22827e-09
8.22621e-09
8.22696e-09
8.21844e-09
8.20442e-09
8.16628e-09
8.09821e-09
8.04068e-09
7.6291e-09
7.68338e-09
7.7457e-09
7.78093e-09
7.79433e-09
7.80225e-09
7.80172e-09
7.8035e-09
7.80152e-09
7.80225e-09
7.80082e-09
7.8013e-09
7.80035e-09
7.80067e-09
7.80006e-09
7.80033e-09
7.7999e-09
7.80015e-09
7.79989e-09
7.80003e-09
7.79986e-09
7.79994e-09
7.79983e-09
7.79988e-09
7.79986e-09
7.79986e-09
7.79988e-09
7.79984e-09
7.79994e-09
7.79986e-09
7.80003e-09
7.79989e-09
7.80014e-09
7.79991e-09
7.80033e-09
7.80006e-09
7.80067e-09
7.80035e-09
7.80129e-09
7.80082e-09
7.80225e-09
7.80151e-09
7.8035e-09
7.80172e-09
7.80224e-09
7.79433e-09
7.78092e-09
7.7457e-09
7.68338e-09
7.6291e-09
7.28465e-09
7.33607e-09
7.39367e-09
7.42639e-09
7.43924e-09
7.44663e-09
7.44628e-09
7.44782e-09
7.44602e-09
7.44659e-09
7.44528e-09
7.44565e-09
7.44478e-09
7.44504e-09
7.44449e-09
7.4447e-09
7.44432e-09
7.44452e-09
7.44429e-09
7.44441e-09
7.44426e-09
7.44432e-09
7.44423e-09
7.44427e-09
7.44425e-09
7.44425e-09
7.44427e-09
7.44423e-09
7.44433e-09
7.44426e-09
7.44441e-09
7.44429e-09
7.44452e-09
7.44432e-09
7.4447e-09
7.44449e-09
7.44504e-09
7.44479e-09
7.44565e-09
7.44529e-09
7.44659e-09
7.44602e-09
7.44782e-09
7.44628e-09
7.44662e-09
7.43923e-09
7.42638e-09
7.39366e-09
7.33607e-09
7.28465e-09
6.99242e-09
7.04131e-09
7.09496e-09
7.1255e-09
7.13785e-09
7.1448e-09
7.14458e-09
7.14591e-09
7.14426e-09
7.14469e-09
7.14348e-09
7.14376e-09
7.14295e-09
7.14315e-09
7.14264e-09
7.14282e-09
7.14247e-09
7.14264e-09
7.14243e-09
7.14253e-09
7.14239e-09
7.14245e-09
7.14236e-09
7.1424e-09
7.14238e-09
7.14238e-09
7.1424e-09
7.14237e-09
7.14245e-09
7.14239e-09
7.14253e-09
7.14243e-09
7.14264e-09
7.14247e-09
7.14282e-09
7.14264e-09
7.14315e-09
7.14296e-09
7.14375e-09
7.14348e-09
7.1447e-09
7.14426e-09
7.14591e-09
7.14457e-09
7.14479e-09
7.13784e-09
7.1255e-09
7.09495e-09
7.0413e-09
6.99242e-09
6.74113e-09
6.78776e-09
6.83807e-09
6.86672e-09
6.87859e-09
6.88515e-09
6.88502e-09
6.88618e-09
6.88465e-09
6.88496e-09
6.88382e-09
6.88402e-09
6.88327e-09
6.88342e-09
6.88294e-09
6.88308e-09
6.88276e-09
6.88291e-09
6.88272e-09
6.8828e-09
6.88267e-09
6.88272e-09
6.88264e-09
6.88267e-09
6.88265e-09
6.88265e-09
6.88267e-09
6.88264e-09
6.88272e-09
6.88267e-09
6.8828e-09
6.88271e-09
6.88291e-09
6.88276e-09
6.88309e-09
6.88294e-09
6.88342e-09
6.88327e-09
6.88402e-09
6.88383e-09
6.88496e-09
6.88464e-09
6.88618e-09
6.88502e-09
6.88514e-09
6.87858e-09
6.86671e-09
6.83806e-09
6.78776e-09
6.74113e-09
6.52218e-09
6.56677e-09
6.6142e-09
6.64118e-09
6.6526e-09
6.65882e-09
6.65876e-09
6.65977e-09
6.65832e-09
6.65853e-09
6.65745e-09
6.65758e-09
6.65687e-09
6.65698e-09
6.65653e-09
6.65664e-09
6.65634e-09
6.65647e-09
6.65629e-09
6.65636e-09
6.65624e-09
6.65628e-09
6.65621e-09
6.65624e-09
6.65622e-09
6.65622e-09
6.65624e-09
6.65621e-09
6.65628e-09
6.65624e-09
6.65636e-09
6.65628e-09
6.65646e-09
6.65634e-09
6.65664e-09
6.65653e-09
6.65698e-09
6.65687e-09
6.65758e-09
6.65746e-09
6.65853e-09
6.65831e-09
6.65976e-09
6.65875e-09
6.65881e-09
6.6526e-09
6.64117e-09
6.6142e-09
6.56676e-09
6.52218e-09
6.32892e-09
6.37163e-09
6.41657e-09
6.44206e-09
6.45306e-09
6.45896e-09
6.45894e-09
6.45981e-09
6.45843e-09
6.45856e-09
6.45752e-09
6.4576e-09
6.45692e-09
6.45699e-09
6.45656e-09
6.45664e-09
6.45636e-09
6.45647e-09
6.4563e-09
6.45636e-09
6.45625e-09
6.45628e-09
6.45622e-09
6.45624e-09
6.45622e-09
6.45622e-09
6.45624e-09
6.45622e-09
6.45629e-09
6.45625e-09
6.45636e-09
6.4563e-09
6.45647e-09
6.45636e-09
6.45665e-09
6.45656e-09
6.45699e-09
6.45692e-09
6.45759e-09
6.45753e-09
6.45856e-09
6.45843e-09
6.45981e-09
6.45894e-09
6.45895e-09
6.45305e-09
6.44205e-09
6.41657e-09
6.37163e-09
6.32892e-09
6.15616e-09
6.19713e-09
6.23989e-09
6.26405e-09
6.27463e-09
6.28024e-09
6.28024e-09
6.281e-09
6.27966e-09
6.27971e-09
6.27871e-09
6.27873e-09
6.27807e-09
6.27811e-09
6.2777e-09
6.27777e-09
6.27749e-09
6.27759e-09
6.27743e-09
6.27748e-09
6.27737e-09
6.2774e-09
6.27734e-09
6.27736e-09
6.27734e-09
6.27734e-09
6.27736e-09
6.27734e-09
6.2774e-09
6.27737e-09
6.27748e-09
6.27742e-09
6.27759e-09
6.2775e-09
6.27777e-09
6.2777e-09
6.27811e-09
6.27807e-09
6.27873e-09
6.27871e-09
6.27971e-09
6.27966e-09
6.28099e-09
6.28024e-09
6.28024e-09
6.27463e-09
6.26404e-09
6.23988e-09
6.19713e-09
6.15616e-09
5.99986e-09
6.03919e-09
6.08e-09
6.10296e-09
6.11314e-09
6.11848e-09
6.11848e-09
6.11912e-09
6.11783e-09
6.1178e-09
6.11683e-09
6.1168e-09
6.11616e-09
6.11617e-09
6.11577e-09
6.11582e-09
6.11556e-09
6.11564e-09
6.11548e-09
6.11553e-09
6.11543e-09
6.11545e-09
6.11539e-09
6.11541e-09
6.1154e-09
6.1154e-09
6.11541e-09
6.11539e-09
6.11546e-09
6.11543e-09
6.11553e-09
6.11548e-09
6.11564e-09
6.11556e-09
6.11582e-09
6.11577e-09
6.11617e-09
6.11616e-09
6.1168e-09
6.11683e-09
6.1178e-09
6.11782e-09
6.11912e-09
6.11848e-09
6.11848e-09
6.11313e-09
6.10295e-09
6.08e-09
6.03919e-09
5.99986e-09
5.85681e-09
5.89456e-09
5.93364e-09
5.9555e-09
5.96528e-09
5.97037e-09
5.97036e-09
5.97089e-09
5.96962e-09
5.96953e-09
5.96857e-09
5.9685e-09
5.96788e-09
5.96786e-09
5.96747e-09
5.9675e-09
5.96725e-09
5.96732e-09
5.96717e-09
5.96721e-09
5.96711e-09
5.96713e-09
5.96707e-09
5.96709e-09
5.96708e-09
5.96708e-09
5.96709e-09
5.96708e-09
5.96713e-09
5.96711e-09
5.96721e-09
5.96717e-09
5.96732e-09
5.96725e-09
5.9675e-09
5.96747e-09
5.96786e-09
5.96788e-09
5.9685e-09
5.96857e-09
5.96953e-09
5.96962e-09
5.97089e-09
5.97035e-09
5.97037e-09
5.96528e-09
5.9555e-09
5.93363e-09
5.89456e-09
5.85681e-09
5.72446e-09
5.76067e-09
5.79819e-09
5.81905e-09
5.82843e-09
5.83328e-09
5.83324e-09
5.83367e-09
5.83241e-09
5.83226e-09
5.83132e-09
5.83121e-09
5.83059e-09
5.83055e-09
5.83017e-09
5.83019e-09
5.82994e-09
5.83e-09
5.82985e-09
5.82989e-09
5.82979e-09
5.82981e-09
5.82975e-09
5.82977e-09
5.82975e-09
5.82975e-09
5.82977e-09
5.82975e-09
5.82981e-09
5.82979e-09
5.82989e-09
5.82985e-09
5.83e-09
5.82994e-09
5.83019e-09
5.83017e-09
5.83055e-09
5.83059e-09
5.83121e-09
5.83132e-09
5.83226e-09
5.83241e-09
5.83367e-09
5.83323e-09
5.83328e-09
5.82843e-09
5.81904e-09
5.79818e-09
5.76067e-09
5.72446e-09
5.60079e-09
5.63546e-09
5.67158e-09
5.6915e-09
5.7005e-09
5.70511e-09
5.70502e-09
5.70537e-09
5.70411e-09
5.7039e-09
5.70296e-09
5.70282e-09
5.70221e-09
5.70215e-09
5.70177e-09
5.70177e-09
5.70153e-09
5.70158e-09
5.70143e-09
5.70146e-09
5.70137e-09
5.70139e-09
5.70133e-09
5.70135e-09
5.70133e-09
5.70133e-09
5.70135e-09
5.70133e-09
5.70139e-09
5.70137e-09
5.70146e-09
5.70143e-09
5.70157e-09
5.70153e-09
5.70177e-09
5.70177e-09
5.70215e-09
5.70221e-09
5.70282e-09
5.70296e-09
5.7039e-09
5.70411e-09
5.70536e-09
5.70502e-09
5.7051e-09
5.70049e-09
5.69149e-09
5.67158e-09
5.63546e-09
5.60079e-09
5.48408e-09
5.51737e-09
5.55214e-09
5.57117e-09
5.57979e-09
5.58417e-09
5.58402e-09
5.58428e-09
5.58302e-09
5.58276e-09
5.58182e-09
5.58164e-09
5.58103e-09
5.58095e-09
5.58058e-09
5.58057e-09
5.58033e-09
5.58037e-09
5.58023e-09
5.58025e-09
5.58016e-09
5.58018e-09
5.58012e-09
5.58013e-09
5.58012e-09
5.58012e-09
5.58013e-09
5.58012e-09
5.58018e-09
5.58016e-09
5.58025e-09
5.58023e-09
5.58037e-09
5.58033e-09
5.58057e-09
5.58058e-09
5.58095e-09
5.58103e-09
5.58164e-09
5.58182e-09
5.58276e-09
5.58302e-09
5.58428e-09
5.58402e-09
5.58416e-09
5.57979e-09
5.57116e-09
5.55213e-09
5.51737e-09
5.48407e-09
)
;

boundaryField
{
    fuel
    {
        type            fixedValue;
        value           uniform 0;
    }
    wall
    {
        type            zeroGradient;
    }
    outlet
    {
        type            zeroGradient;
    }
    frontAndBack
    {
        type            empty;
    }
    procBoundary1to0
    {
        type            processor;
        value           nonuniform List<scalar> 
50
(
5.37299e-09
5.40508e-09
5.43851e-09
5.4567e-09
5.46495e-09
5.46909e-09
5.46888e-09
5.46905e-09
5.46778e-09
5.46747e-09
5.46652e-09
5.46632e-09
5.46571e-09
5.46561e-09
5.46524e-09
5.46522e-09
5.46498e-09
5.46501e-09
5.46487e-09
5.46489e-09
5.4648e-09
5.46482e-09
5.46476e-09
5.46477e-09
5.46476e-09
5.46476e-09
5.46477e-09
5.46476e-09
5.46482e-09
5.4648e-09
5.46489e-09
5.46487e-09
5.46501e-09
5.46498e-09
5.46522e-09
5.46524e-09
5.46561e-09
5.46571e-09
5.46632e-09
5.46653e-09
5.46747e-09
5.46778e-09
5.46905e-09
5.46888e-09
5.46909e-09
5.46494e-09
5.45669e-09
5.43851e-09
5.40508e-09
5.37299e-09
)
;
    }
}


// ************************************************************************* //
