/*--------------------------------*- C++ -*----------------------------------*\
| =========                 |                                                 |
| \\      /  F ield         | OpenFOAM: The Open Source CFD Toolbox           |
|  \\    /   O peration     | Version:  dev                                   |
|   \\  /    A nd           | Web:      www.OpenFOAM.org                      |
|    \\/     M anipulation  |                                                 |
\*---------------------------------------------------------------------------*/
FoamFile
{
    version     2.0;
    format      ascii;
    class       volScalarField;
    location    "0.085";
    object      c-C6H4;
}
// * * * * * * * * * * * * * * * * * * * * * * * * * * * * * * * * * * * * * //

dimensions      [0 0 0 0 0 0 0];

internalField   nonuniform List<scalar> 
250
(
2.59435e-07
2.27676e-07
1.84353e-07
1.80252e-07
1.68279e-07
1.66836e-07
1.66108e-07
1.63815e-07
1.65843e-07
1.63235e-07
2.02128e-07
1.76296e-07
1.43217e-07
1.40357e-07
1.31279e-07
1.30232e-07
1.29697e-07
1.2797e-07
1.2953e-07
1.27544e-07
1.27831e-07
1.28831e-07
1.2787e-07
1.29073e-07
1.29279e-07
1.3046e-07
1.36018e-07
1.43818e-07
1.61664e-07
1.87019e-07
1.57375e-07
1.36877e-07
1.12957e-07
1.10685e-07
1.04447e-07
1.03717e-07
1.03358e-07
1.02229e-07
1.03258e-07
1.01959e-07
1.0214e-07
1.02799e-07
1.02155e-07
1.02956e-07
1.03087e-07
1.03925e-07
1.07762e-07
1.13388e-07
1.26371e-07
1.45709e-07
1.26789e-07
1.10736e-07
9.45361e-08
9.24156e-08
8.87023e-08
8.81899e-08
8.79767e-08
8.74018e-08
8.79102e-08
8.72731e-08
8.73524e-08
8.76787e-08
8.73452e-08
8.7769e-08
8.78508e-08
8.84075e-08
9.07647e-08
9.46518e-08
1.03943e-07
1.18286e-07
1.10242e-07
9.76526e-08
8.74794e-08
8.52306e-08
8.35376e-08
8.31946e-08
8.30905e-08
8.29648e-08
8.30282e-08
8.29485e-08
8.29418e-08
8.29845e-08
8.29179e-08
8.30313e-08
8.30885e-08
8.3436e-08
8.45898e-08
8.72288e-08
9.37632e-08
1.04151e-07
1.05897e-07
9.58943e-08
8.99942e-08
8.76297e-08
8.73125e-08
8.70283e-08
8.69946e-08
8.71726e-08
8.6918e-08
8.72312e-08
8.71633e-08
8.70037e-08
8.71299e-08
8.70296e-08
8.7081e-08
8.72914e-08
8.7696e-08
8.94262e-08
9.40813e-08
1.01461e-07
1.10764e-07
1.02589e-07
9.92703e-08
9.68721e-08
9.72978e-08
9.70317e-08
9.7034e-08
9.73616e-08
9.69381e-08
9.7456e-08
9.73559e-08
9.70886e-08
9.73201e-08
9.71107e-08
9.7167e-08
9.73022e-08
9.73207e-08
9.85073e-08
1.01975e-07
1.07306e-07
1.21116e-07
1.14215e-07
1.12148e-07
1.09848e-07
1.10509e-07
1.10241e-07
1.10254e-07
1.10605e-07
1.10144e-07
1.10704e-07
1.10597e-07
1.10306e-07
1.10564e-07
1.10332e-07
1.10397e-07
1.10501e-07
1.10415e-07
1.11334e-07
1.1414e-07
1.18249e-07
1.33569e-07
1.2756e-07
1.25855e-07
1.23775e-07
1.24332e-07
1.2406e-07
1.24067e-07
1.24357e-07
1.23956e-07
1.24438e-07
1.24343e-07
1.24089e-07
1.24317e-07
1.24123e-07
1.24194e-07
1.24295e-07
1.24283e-07
1.25111e-07
1.27597e-07
1.31107e-07
1.45099e-07
1.39742e-07
1.37804e-07
1.36062e-07
1.36274e-07
1.36009e-07
1.35995e-07
1.36165e-07
1.359e-07
1.3621e-07
1.36143e-07
1.35977e-07
1.36126e-07
1.36014e-07
1.36087e-07
1.36207e-07
1.36381e-07
1.37235e-07
1.39606e-07
1.4296e-07
1.52152e-07
1.47342e-07
1.44943e-07
1.43606e-07
1.43397e-07
1.43159e-07
1.43118e-07
1.43156e-07
1.43052e-07
1.43162e-07
1.43127e-07
1.43066e-07
1.4312e-07
1.431e-07
1.43169e-07
1.43318e-07
1.43689e-07
1.44609e-07
1.46911e-07
1.50334e-07
1.53008e-07
1.48843e-07
1.46525e-07
1.45482e-07
1.45137e-07
1.44936e-07
1.44884e-07
1.44878e-07
1.44836e-07
1.44869e-07
1.44845e-07
1.44828e-07
1.44841e-07
1.44859e-07
1.44916e-07
1.45072e-07
1.45464e-07
1.46339e-07
1.48386e-07
1.51633e-07
1.51922e-07
1.48312e-07
1.46334e-07
1.45445e-07
1.45131e-07
1.44956e-07
1.44905e-07
1.44902e-07
1.44861e-07
1.44894e-07
1.44867e-07
1.44856e-07
1.44863e-07
1.44885e-07
1.44932e-07
1.45079e-07
1.4542e-07
1.46204e-07
1.47984e-07
1.50933e-07
)
;

boundaryField
{
    fuel
    {
        type            fixedValue;
        value           nonuniform 0();
    }
    wall
    {
        type            zeroGradient;
    }
    outlet
    {
        type            zeroGradient;
    }
    frontAndBack
    {
        type            empty;
    }
    procBoundary1to0
    {
        type            processor;
        value           nonuniform List<scalar> 
21
(
3.26238e-07
2.88404e-07
2.34037e-07
2.2787e-07
2.13224e-07
2.11327e-07
2.10408e-07
2.07661e-07
2.10027e-07
2.06945e-07
1.63622e-07
1.63622e-07
1.64921e-07
1.63683e-07
1.65256e-07
1.65564e-07
1.67127e-07
1.74507e-07
1.84917e-07
2.09079e-07
2.41551e-07
)
;
    }
}


// ************************************************************************* //
