/*--------------------------------*- C++ -*----------------------------------*\
| =========                 |                                                 |
| \\      /  F ield         | OpenFOAM: The Open Source CFD Toolbox           |
|  \\    /   O peration     | Version:  dev                                   |
|   \\  /    A nd           | Web:      www.OpenFOAM.org                      |
|    \\/     M anipulation  |                                                 |
\*---------------------------------------------------------------------------*/
FoamFile
{
    version     2.0;
    format      ascii;
    class       volScalarField;
    location    "0.085";
    object      dQ;
}
// * * * * * * * * * * * * * * * * * * * * * * * * * * * * * * * * * * * * * //

dimensions      [1 2 -3 0 0 0 0];

internalField   nonuniform List<scalar> 
2000
(
0.930329
0.931459
0.933502
0.934415
0.934546
0.934737
0.934666
0.93475
0.934681
0.934735
0.934687
0.934725
0.934692
0.934716
0.934695
0.934712
0.934696
0.93471
0.9347
0.934708
0.934702
0.934706
0.934702
0.934705
0.934704
0.934704
0.934705
0.934702
0.934706
0.934702
0.934708
0.9347
0.934709
0.934696
0.934712
0.934695
0.934716
0.934692
0.934724
0.934688
0.934735
0.934681
0.93475
0.934666
0.934737
0.934546
0.934415
0.933502
0.93146
0.930329
6.52644
6.5367
6.54601
6.55028
6.5503
6.55146
6.55083
6.55144
6.55093
6.55134
6.55099
6.55128
6.55104
6.55122
6.55107
6.5512
6.55108
6.55118
6.55111
6.55117
6.55112
6.55116
6.55113
6.55115
6.55114
6.55114
6.55115
6.55113
6.55116
6.55112
6.55117
6.55111
6.55118
6.55108
6.5512
6.55107
6.55122
6.55104
6.55128
6.55099
6.55135
6.55093
6.55144
6.55083
6.55146
6.5503
6.55028
6.54601
6.53671
6.52644
4.77059
4.77578
4.77941
4.78101
4.78028
4.78105
4.78043
4.78095
4.78051
4.78087
4.78057
4.78082
4.78062
4.78078
4.78065
4.78075
4.78066
4.78074
4.78068
4.78073
4.78069
4.78072
4.7807
4.78071
4.7807
4.7807
4.78071
4.7807
4.78072
4.78069
4.78073
4.78068
4.78074
4.78066
4.78076
4.78065
4.78078
4.78062
4.78081
4.78057
4.78087
4.78051
4.78095
4.78043
4.78105
4.78028
4.78101
4.77941
4.77579
4.77059
2.98895
2.99355
2.99748
2.99904
2.99846
2.99915
2.99861
2.99906
2.99868
2.99899
2.99873
2.99894
2.99877
2.99891
2.99879
2.99889
2.9988
2.99888
2.99882
2.99886
2.99883
2.99885
2.99884
2.99885
2.99884
2.99884
2.99885
2.99884
2.99885
2.99883
2.99886
2.99882
2.99888
2.9988
2.99889
2.99879
2.99891
2.99877
2.99894
2.99873
2.99899
2.99868
2.99906
2.99861
2.99915
2.99846
2.99904
2.99748
2.99356
2.98895
1.87365
1.8769
1.88002
1.88111
1.88066
1.88116
1.88075
1.88109
1.8808
1.88104
1.88084
1.881
1.88087
1.88097
1.88089
1.88096
1.88089
1.88095
1.88091
1.88094
1.88091
1.88093
1.88092
1.88093
1.88092
1.88092
1.88093
1.88092
1.88093
1.88091
1.88094
1.88091
1.88095
1.88089
1.88096
1.88088
1.88097
1.88087
1.881
1.88084
1.88104
1.8808
1.88109
1.88075
1.88116
1.88066
1.88111
1.88002
1.8769
1.87365
1.1353
1.13741
1.13973
1.14044
1.14012
1.14046
1.14017
1.14041
1.1402
1.14037
1.14023
1.14034
1.14025
1.14032
1.14027
1.14031
1.14027
1.14031
1.14028
1.1403
1.14028
1.1403
1.14029
1.14029
1.14029
1.14029
1.14029
1.14029
1.1403
1.14028
1.1403
1.14028
1.14031
1.14027
1.14032
1.14026
1.14032
1.14025
1.14034
1.14023
1.14037
1.1402
1.14041
1.14017
1.14046
1.14012
1.14044
1.13973
1.13741
1.1353
0.684166
0.685563
0.687299
0.687791
0.687582
0.687813
0.687614
0.687776
0.687635
0.687749
0.687653
0.687731
0.687667
0.687717
0.687676
0.687711
0.68768
0.687706
0.687687
0.687701
0.68769
0.687698
0.687691
0.687695
0.687694
0.687694
0.687695
0.687691
0.687698
0.68769
0.687701
0.687687
0.687706
0.68768
0.687711
0.687676
0.687717
0.687668
0.68773
0.687653
0.687749
0.687635
0.687776
0.687615
0.687813
0.687582
0.687791
0.687299
0.685563
0.684166
0.419372
0.420326
0.421635
0.421994
0.421862
0.422022
0.421885
0.421996
0.421899
0.421977
0.42191
0.421964
0.42192
0.421955
0.421927
0.42195
0.421929
0.421947
0.421934
0.421944
0.421936
0.421941
0.421937
0.42194
0.421938
0.421938
0.42194
0.421937
0.421941
0.421936
0.421944
0.421934
0.421947
0.421929
0.42195
0.421926
0.421955
0.421921
0.421964
0.421911
0.421977
0.421898
0.421996
0.421885
0.422021
0.421862
0.421994
0.421635
0.420327
0.419372
0.263806
0.264478
0.265467
0.265738
0.265656
0.265768
0.265673
0.26575
0.265682
0.265737
0.26569
0.265728
0.265697
0.265721
0.265701
0.265718
0.265703
0.265715
0.265706
0.265713
0.265707
0.265711
0.265708
0.26571
0.265709
0.265709
0.26571
0.265708
0.265712
0.265707
0.265713
0.265706
0.265715
0.265703
0.265718
0.265701
0.265721
0.265697
0.265727
0.26569
0.265737
0.265682
0.26575
0.265673
0.265768
0.265656
0.265737
0.265467
0.264478
0.263806
0.170878
0.17137
0.17213
0.172339
0.172289
0.17237
0.172302
0.172358
0.172308
0.172348
0.172314
0.172341
0.172319
0.172336
0.172322
0.172334
0.172323
0.172332
0.172325
0.17233
0.172326
0.172329
0.172327
0.172328
0.172328
0.172328
0.172328
0.172327
0.172329
0.172326
0.17233
0.172325
0.172332
0.172323
0.172334
0.172322
0.172336
0.172319
0.172341
0.172314
0.172348
0.172308
0.172358
0.172302
0.17237
0.172289
0.172339
0.17213
0.17137
0.170878
0.113894
0.114268
0.114861
0.115028
0.114996
0.115057
0.115006
0.115048
0.11501
0.11504
0.115015
0.115035
0.115018
0.115031
0.11502
0.115029
0.115021
0.115028
0.115023
0.115027
0.115024
0.115026
0.115024
0.115025
0.115025
0.115025
0.115025
0.115024
0.115026
0.115024
0.115027
0.115023
0.115028
0.115021
0.115029
0.11502
0.115031
0.115018
0.115035
0.115015
0.11504
0.11501
0.115048
0.115006
0.115057
0.114996
0.115028
0.114861
0.114268
0.113894
0.0766583
0.0769325
0.0773674
0.0774923
0.0774721
0.0775157
0.0774797
0.077509
0.0774823
0.0775032
0.0774852
0.0774996
0.0774878
0.077497
0.0774893
0.0774957
0.0774899
0.0774948
0.0774912
0.0774939
0.0774917
0.0774933
0.077492
0.0774928
0.0774925
0.0774925
0.0774928
0.077492
0.0774933
0.0774917
0.0774939
0.0774912
0.0774947
0.0774899
0.0774957
0.0774893
0.077497
0.0774878
0.0774995
0.0774853
0.0775032
0.0774822
0.077509
0.0774797
0.0775156
0.0774721
0.0774923
0.0773674
0.0769325
0.0766583
0.0534548
0.0536768
0.0540248
0.0541272
0.0541131
0.0541474
0.0541191
0.054142
0.0541209
0.0541374
0.0541232
0.0541346
0.0541252
0.0541325
0.0541264
0.0541314
0.0541269
0.0541307
0.0541279
0.05413
0.0541283
0.0541296
0.0541285
0.0541292
0.0541289
0.0541289
0.0541292
0.0541285
0.0541296
0.0541283
0.05413
0.0541279
0.0541307
0.0541269
0.0541315
0.0541264
0.0541325
0.0541253
0.0541345
0.0541233
0.0541374
0.0541209
0.054142
0.0541191
0.0541473
0.0541131
0.0541272
0.0540248
0.0536768
0.0534548
0.037933
0.0380561
0.0382846
0.038353
0.0383511
0.038373
0.0383568
0.0383707
0.038358
0.0383678
0.0383592
0.0383659
0.0383603
0.0383646
0.0383609
0.0383639
0.0383612
0.0383634
0.0383617
0.038363
0.038362
0.0383627
0.0383621
0.0383625
0.0383623
0.0383623
0.0383625
0.0383621
0.0383627
0.038362
0.038363
0.0383617
0.0383634
0.0383612
0.0383639
0.0383609
0.0383646
0.0383603
0.0383659
0.0383593
0.0383678
0.038358
0.0383707
0.0383569
0.038373
0.0383511
0.038353
0.0382846
0.0380561
0.037933
0.0270623
0.0271553
0.0273255
0.0273771
0.0273764
0.0273925
0.0273806
0.0273908
0.0273813
0.0273886
0.0273823
0.0273872
0.027383
0.0273862
0.0273835
0.0273857
0.0273837
0.0273854
0.0273841
0.027385
0.0273843
0.0273848
0.0273844
0.0273846
0.0273845
0.0273845
0.0273846
0.0273844
0.0273848
0.0273843
0.027385
0.0273841
0.0273854
0.0273837
0.0273857
0.0273835
0.0273862
0.0273831
0.0273872
0.0273823
0.0273886
0.0273813
0.0273908
0.0273806
0.0273925
0.0273764
0.0273771
0.0273254
0.0271553
0.0270623
0.0197961
0.0198705
0.0200043
0.0200453
0.0200453
0.0200579
0.0200485
0.0200565
0.020049
0.0200547
0.0200498
0.0200536
0.0200504
0.0200529
0.0200507
0.0200525
0.0200509
0.0200522
0.0200512
0.020052
0.0200514
0.0200518
0.0200514
0.0200516
0.0200515
0.0200515
0.0200516
0.0200514
0.0200518
0.0200514
0.020052
0.0200512
0.0200522
0.0200509
0.0200525
0.0200507
0.0200529
0.0200504
0.0200536
0.0200498
0.0200547
0.020049
0.0200565
0.0200485
0.0200578
0.0200453
0.0200453
0.0200043
0.0198705
0.0197961
0.0144821
0.014549
0.014662
0.0147001
0.0147023
0.0147132
0.0147057
0.0147122
0.014706
0.0147106
0.0147065
0.0147096
0.0147069
0.0147089
0.0147072
0.0147086
0.0147073
0.0147083
0.0147075
0.0147081
0.0147077
0.014708
0.0147077
0.0147079
0.0147078
0.0147078
0.0147079
0.0147077
0.014708
0.0147077
0.0147081
0.0147075
0.0147083
0.0147073
0.0147086
0.0147072
0.0147089
0.0147069
0.0147096
0.0147065
0.0147106
0.014706
0.0147121
0.0147057
0.0147132
0.0147024
0.0147001
0.014662
0.014549
0.0144822
0.0107851
0.0108402
0.0109298
0.0109604
0.0109626
0.0109712
0.0109653
0.0109704
0.0109655
0.0109691
0.0109659
0.0109683
0.0109662
0.0109678
0.0109664
0.0109675
0.0109665
0.0109673
0.0109667
0.0109672
0.0109668
0.0109671
0.0109668
0.010967
0.0109669
0.0109669
0.010967
0.0109668
0.0109671
0.0109668
0.0109672
0.0109667
0.0109673
0.0109665
0.0109675
0.0109664
0.0109678
0.0109662
0.0109683
0.0109659
0.0109691
0.0109655
0.0109704
0.0109653
0.0109712
0.0109626
0.0109604
0.0109298
0.0108402
0.0107851
0.00798595
0.00803751
0.0081156
0.00814362
0.00814524
0.00815282
0.00814738
0.00815192
0.00814753
0.00815076
0.00814789
0.0081501
0.0081482
0.00814963
0.0081484
0.00814939
0.00814847
0.00814924
0.00814866
0.0081491
0.00814875
0.00814899
0.00814878
0.00814891
0.00814886
0.00814886
0.00814891
0.00814878
0.00814899
0.00814875
0.0081491
0.00814866
0.00814923
0.00814848
0.0081494
0.00814839
0.00814963
0.00814821
0.00815008
0.0081479
0.00815077
0.00814752
0.00815192
0.00814739
0.0081528
0.00814524
0.00814361
0.00811559
0.00803751
0.00798595
0.00591196
0.00595539
0.00601608
0.00603815
0.00603947
0.00604534
0.00604106
0.00604459
0.00604115
0.00604368
0.00604144
0.00604317
0.00604169
0.0060428
0.00604185
0.00604262
0.00604191
0.0060425
0.00604206
0.0060424
0.00604212
0.00604231
0.00604215
0.00604225
0.00604221
0.00604221
0.00604225
0.00604215
0.00604232
0.00604212
0.00604239
0.00604205
0.0060425
0.00604191
0.00604263
0.00604184
0.0060428
0.0060417
0.00604316
0.00604144
0.00604368
0.00604114
0.00604459
0.00604106
0.00604532
0.00603947
0.00603814
0.00601608
0.00595539
0.00591196
0.00441295
0.00445201
0.00450105
0.00451914
0.00452021
0.00452494
0.00452141
0.0045243
0.00452147
0.00452355
0.00452172
0.00452314
0.00452193
0.00452285
0.00452207
0.0045227
0.00452212
0.00452261
0.00452224
0.00452252
0.0045223
0.00452246
0.00452232
0.0045224
0.00452237
0.00452237
0.0045224
0.00452232
0.00452246
0.0045223
0.00452252
0.00452224
0.00452261
0.00452212
0.00452271
0.00452206
0.00452285
0.00452194
0.00452313
0.00452173
0.00452355
0.00452147
0.00452429
0.00452141
0.00452493
0.00452021
0.00451914
0.00450105
0.00445201
0.00441295
0.00327727
0.00331384
0.00335375
0.00336863
0.00336941
0.00337326
0.00337028
0.00337268
0.00337033
0.00337207
0.00337056
0.00337174
0.00337075
0.00337151
0.00337086
0.00337139
0.00337091
0.00337132
0.00337102
0.00337125
0.00337106
0.0033712
0.00337108
0.00337115
0.00337112
0.00337112
0.00337115
0.00337108
0.0033712
0.00337106
0.00337125
0.00337102
0.00337132
0.00337091
0.0033714
0.00337086
0.00337151
0.00337075
0.00337173
0.00337056
0.00337207
0.00337033
0.00337267
0.00337029
0.00337325
0.00336941
0.00336863
0.00335375
0.00331384
0.00327727
0.00241021
0.00242077
0.00245019
0.00246153
0.00246261
0.00246561
0.00246344
0.00246521
0.00246343
0.00246469
0.00246355
0.0024644
0.00246365
0.0024642
0.00246371
0.0024641
0.00246374
0.00246403
0.0024638
0.00246398
0.00246384
0.00246393
0.00246385
0.0024639
0.00246388
0.00246388
0.0024639
0.00246385
0.00246393
0.00246384
0.00246398
0.0024638
0.00246403
0.00246374
0.0024641
0.00246371
0.0024642
0.00246365
0.0024644
0.00246355
0.00246469
0.00246343
0.00246521
0.00246344
0.0024656
0.00246261
0.00246153
0.00245019
0.00242077
0.00241021
0.00174435
0.00175379
0.00177739
0.00178657
0.00178736
0.00178979
0.00178797
0.00178943
0.00178796
0.00178901
0.00178807
0.00178877
0.00178816
0.00178861
0.00178821
0.00178853
0.00178823
0.00178848
0.00178829
0.00178844
0.00178832
0.0017884
0.00178833
0.00178837
0.00178835
0.00178835
0.00178837
0.00178833
0.0017884
0.00178832
0.00178844
0.00178829
0.00178848
0.00178824
0.00178854
0.00178821
0.00178862
0.00178816
0.00178877
0.00178807
0.00178901
0.00178796
0.00178943
0.00178797
0.00178978
0.00178736
0.00178656
0.00177739
0.00175379
0.00174435
0.001211
0.00121958
0.0012393
0.00124728
0.00124802
0.00125008
0.00124851
0.00124974
0.00124849
0.00124937
0.00124857
0.00124917
0.00124864
0.00124903
0.00124869
0.00124897
0.00124871
0.00124892
0.00124876
0.00124888
0.00124878
0.00124885
0.00124879
0.00124883
0.00124882
0.00124882
0.00124883
0.00124879
0.00124885
0.00124878
0.00124888
0.00124876
0.00124892
0.00124871
0.00124897
0.00124869
0.00124903
0.00124865
0.00124916
0.00124857
0.00124937
0.00124848
0.00124974
0.00124852
0.00125007
0.00124802
0.00124727
0.0012393
0.00121958
0.001211
0.000797334
0.000804496
0.000819924
0.000826206
0.000826705
0.000828318
0.000827025
0.000828017
0.000827002
0.00082772
0.000827079
0.000827569
0.000827148
0.000827466
0.000827191
0.000827414
0.000827209
0.000827381
0.000827251
0.000827351
0.000827269
0.000827327
0.000827278
0.000827309
0.000827296
0.000827296
0.000827309
0.000827278
0.000827327
0.00082727
0.00082735
0.00082725
0.00082738
0.00082721
0.000827415
0.00082719
0.000827466
0.000827149
0.000827566
0.000827082
0.00082772
0.000827001
0.000828015
0.000827026
0.000828314
0.000826705
0.000826204
0.000819923
0.000804495
0.000797335
0.000475178
0.000481125
0.000493103
0.000497994
0.000498285
0.000499537
0.000498463
0.000499267
0.000498446
0.000499035
0.000498521
0.000498923
0.000498586
0.000498846
0.000498625
0.000498808
0.000498643
0.000498783
0.000498678
0.00049876
0.000498694
0.000498741
0.000498701
0.000498727
0.000498716
0.000498716
0.000498727
0.000498702
0.000498741
0.000498694
0.000498759
0.000498677
0.000498782
0.000498643
0.000498809
0.000498625
0.000498847
0.000498587
0.000498921
0.000498524
0.000499036
0.000498446
0.000499266
0.000498464
0.000499534
0.000498285
0.000497993
0.000493103
0.000481125
0.000475179
0.000223564
0.000228426
0.000237651
0.000241394
0.000241508
0.000242467
0.000241571
0.000242224
0.000241563
0.000242048
0.000241637
0.000241968
0.000241698
0.000241914
0.000241736
0.000241886
0.000241753
0.000241868
0.000241783
0.00024185
0.000241797
0.000241836
0.000241804
0.000241825
0.000241816
0.000241816
0.000241824
0.000241804
0.000241836
0.000241797
0.00024185
0.000241783
0.000241868
0.000241754
0.000241887
0.000241736
0.000241914
0.000241699
0.000241966
0.000241639
0.000242048
0.000241562
0.000242223
0.000241572
0.000242465
0.000241508
0.000241393
0.000237651
0.000228426
0.000223564
2.66645e-05
3.05627e-05
3.7596e-05
4.03838e-05
4.03488e-05
4.10705e-05
4.03205e-05
4.08524e-05
4.03209e-05
4.07226e-05
4.03964e-05
4.06708e-05
4.04563e-05
4.06346e-05
4.04927e-05
4.0617e-05
4.05101e-05
4.06044e-05
4.05358e-05
4.05912e-05
4.05482e-05
4.05803e-05
4.05542e-05
4.05713e-05
4.05642e-05
4.05643e-05
4.05713e-05
4.05544e-05
4.05804e-05
4.05485e-05
4.05911e-05
4.05356e-05
4.06042e-05
4.05106e-05
4.06177e-05
4.04926e-05
4.06346e-05
4.04569e-05
4.06693e-05
4.03978e-05
4.07228e-05
4.03204e-05
4.08515e-05
4.0321e-05
4.10685e-05
4.03489e-05
4.03831e-05
3.75959e-05
3.05626e-05
2.66651e-05
-0.000127551
-0.000124496
-0.000119223
-0.000117223
-0.000117383
-0.000116855
-0.000117484
-0.00011705
-0.000117474
-0.000117139
-0.000117396
-0.000117167
-0.000117336
-0.000117188
-0.0001173
-0.000117197
-0.000117283
-0.000117205
-0.00011726
-0.000117214
-0.000117249
-0.000117223
-0.000117244
-0.000117229
-0.000117235
-0.000117235
-0.000117229
-0.000117243
-0.000117222
-0.000117249
-0.000117215
-0.00011726
-0.000117205
-0.000117282
-0.000117197
-0.000117301
-0.000117188
-0.000117336
-0.000117169
-0.000117395
-0.000117139
-0.000117474
-0.000117051
-0.000117484
-0.000116856
-0.000117383
-0.000117223
-0.000119223
-0.000124496
-0.00012755
-0.000248301
-0.000245978
-0.000242125
-0.000240772
-0.000241035
-0.000240665
-0.000241193
-0.000240838
-0.000241173
-0.000240892
-0.000241092
-0.0002409
-0.000241031
-0.000240907
-0.000240995
-0.000240909
-0.000240977
-0.000240913
-0.000240957
-0.000240919
-0.000240947
-0.000240925
-0.000240942
-0.00024093
-0.000240935
-0.000240935
-0.00024093
-0.000240942
-0.000240925
-0.000240947
-0.000240919
-0.000240957
-0.000240913
-0.000240977
-0.000240909
-0.000240995
-0.000240907
-0.000241031
-0.000240901
-0.000241091
-0.000240892
-0.000241174
-0.000240839
-0.000241193
-0.000240666
-0.000241035
-0.000240772
-0.000242125
-0.000245978
-0.0002483
-0.000342699
-0.000341006
-0.000338301
-0.000337477
-0.000337826
-0.000337583
-0.000338028
-0.000337736
-0.000337997
-0.000337759
-0.000337911
-0.000337749
-0.000337849
-0.000337744
-0.000337813
-0.000337741
-0.000337794
-0.000337741
-0.000337776
-0.000337744
-0.000337766
-0.000337748
-0.000337761
-0.000337752
-0.000337755
-0.000337755
-0.000337752
-0.000337761
-0.000337748
-0.000337766
-0.000337744
-0.000337776
-0.000337741
-0.000337794
-0.00033774
-0.000337813
-0.000337744
-0.000337849
-0.000337749
-0.000337911
-0.000337759
-0.000337997
-0.000337736
-0.000338027
-0.000337584
-0.000337825
-0.000337477
-0.000338301
-0.000341006
-0.000342699
-0.000416266
-0.000415114
-0.000413337
-0.000412944
-0.000413362
-0.000413223
-0.000413596
-0.000413355
-0.000413555
-0.000413351
-0.000413464
-0.000413325
-0.0004134
-0.00041331
-0.000413362
-0.000413301
-0.000413343
-0.000413298
-0.000413326
-0.0004133
-0.000413317
-0.000413302
-0.000413312
-0.000413304
-0.000413307
-0.000413307
-0.000413304
-0.000413312
-0.000413302
-0.000413317
-0.0004133
-0.000413326
-0.000413298
-0.000413342
-0.000413301
-0.000413362
-0.00041331
-0.0004134
-0.000413325
-0.000413463
-0.000413351
-0.000413555
-0.000413355
-0.000413596
-0.000413223
-0.000413361
-0.000412945
-0.000413336
-0.000415114
-0.000416265
-0.000473309
-0.00047262
-0.000471591
-0.00047155
-0.000472022
-0.000471966
-0.000472279
-0.000472078
-0.000472226
-0.00047205
-0.00047213
-0.000472009
-0.000472063
-0.000471986
-0.000472024
-0.000471973
-0.000472004
-0.000471967
-0.000471988
-0.000471966
-0.000471979
-0.000471967
-0.000471975
-0.000471968
-0.00047197
-0.00047197
-0.000471968
-0.000471975
-0.000471967
-0.000471979
-0.000471966
-0.000471988
-0.000471967
-0.000472004
-0.000471972
-0.000472024
-0.000471986
-0.000472063
-0.00047201
-0.000472129
-0.00047205
-0.000472226
-0.000472078
-0.000472279
-0.000471966
-0.000472022
-0.00047155
-0.000471591
-0.00047262
-0.000473309
-0.000517205
-0.000516912
-0.000516485
-0.000516727
-0.000517241
-0.000517251
-0.000517513
-0.000517343
-0.000517448
-0.000517294
-0.000517346
-0.00051724
-0.000517276
-0.000517209
-0.000517236
-0.000517191
-0.000517214
-0.000517183
-0.000517199
-0.000517181
-0.000517191
-0.00051718
-0.000517186
-0.000517181
-0.000517182
-0.000517182
-0.000517181
-0.000517186
-0.00051718
-0.000517191
-0.000517181
-0.000517199
-0.000517183
-0.000517214
-0.000517191
-0.000517236
-0.000517209
-0.000517276
-0.000517241
-0.000517345
-0.000517294
-0.000517448
-0.000517344
-0.000517513
-0.000517252
-0.000517241
-0.000516727
-0.000516485
-0.000516912
-0.000517205
-0.000550611
-0.000550658
-0.000550711
-0.000551179
-0.000551726
-0.000551787
-0.000552005
-0.000551859
-0.000551927
-0.000551789
-0.000551818
-0.000551725
-0.000551745
-0.000551686
-0.000551703
-0.000551665
-0.000551681
-0.000551654
-0.000551666
-0.00055165
-0.000551658
-0.000551649
-0.000551653
-0.000551649
-0.00055165
-0.00055165
-0.000551649
-0.000551653
-0.000551649
-0.000551658
-0.00055165
-0.000551666
-0.000551654
-0.000551681
-0.000551665
-0.000551703
-0.000551687
-0.000551745
-0.000551725
-0.000551818
-0.00055179
-0.000551927
-0.00055186
-0.000552004
-0.000551788
-0.000551725
-0.000551179
-0.000550711
-0.000550658
-0.00055061
-0.000575622
-0.000575965
-0.000576397
-0.000577044
-0.000577613
-0.000577714
-0.000577893
-0.000577766
-0.000577802
-0.000577678
-0.000577687
-0.000577602
-0.00057761
-0.000577558
-0.000577566
-0.000577532
-0.000577543
-0.00057752
-0.000577528
-0.000577515
-0.00057752
-0.000577512
-0.000577515
-0.000577511
-0.000577512
-0.000577512
-0.000577511
-0.000577515
-0.000577512
-0.00057752
-0.000577515
-0.000577528
-0.00057752
-0.000577542
-0.000577532
-0.000577566
-0.000577558
-0.00057761
-0.000577602
-0.000577687
-0.000577678
-0.000577803
-0.000577766
-0.000577892
-0.000577715
-0.000577613
-0.000577043
-0.000576396
-0.000575965
-0.000575622
-0.000593898
-0.000594504
-0.000595227
-0.000596014
-0.000596598
-0.000596729
-0.000596872
-0.00059676
-0.000596769
-0.000596654
-0.000596646
-0.000596569
-0.000596566
-0.000596518
-0.00059652
-0.00059649
-0.000596495
-0.000596476
-0.00059648
-0.000596469
-0.000596472
-0.000596466
-0.000596468
-0.000596465
-0.000596465
-0.000596465
-0.000596465
-0.000596468
-0.000596466
-0.000596472
-0.000596469
-0.00059648
-0.000596476
-0.000596495
-0.00059649
-0.00059652
-0.000596518
-0.000596566
-0.000596569
-0.000596646
-0.000596654
-0.000596769
-0.00059676
-0.000596872
-0.000596729
-0.000596597
-0.000596014
-0.000595227
-0.000594504
-0.000593898
-0.000606756
-0.000607604
-0.000608543
-0.000609437
-0.000610027
-0.000610179
-0.000610292
-0.000610189
-0.000610175
-0.000610067
-0.000610045
-0.000609972
-0.00060996
-0.000609916
-0.000609912
-0.000609885
-0.000609886
-0.000609869
-0.000609871
-0.000609861
-0.000609863
-0.000609857
-0.000609858
-0.000609856
-0.000609856
-0.000609856
-0.000609856
-0.000609858
-0.000609857
-0.000609863
-0.000609861
-0.000609871
-0.000609869
-0.000609886
-0.000609885
-0.000609912
-0.000609916
-0.00060996
-0.000609972
-0.000610045
-0.000610067
-0.000610175
-0.000610189
-0.000610292
-0.000610179
-0.000610026
-0.000609437
-0.000608542
-0.000607603
-0.000606755
-0.000615261
-0.000616301
-0.00061741
-0.000618386
-0.000618974
-0.000619141
-0.000619226
-0.000619129
-0.000619094
-0.000618991
-0.000618956
-0.000618887
-0.000618868
-0.000618826
-0.000618817
-0.000618792
-0.00061879
-0.000618775
-0.000618775
-0.000618766
-0.000618766
-0.000618761
-0.000618762
-0.000618759
-0.000618759
-0.000618759
-0.000618759
-0.000618762
-0.000618761
-0.000618766
-0.000618766
-0.000618774
-0.000618775
-0.00061879
-0.000618792
-0.000618817
-0.000618826
-0.000618868
-0.000618888
-0.000618956
-0.000618991
-0.000619095
-0.000619129
-0.000619225
-0.000619141
-0.000618974
-0.000618385
-0.00061741
-0.000616301
-0.000615261
)
;

boundaryField
{
    fuel
    {
        type            calculated;
        value           uniform 0;
    }
    wall
    {
        type            calculated;
        value           nonuniform 0();
    }
    outlet
    {
        type            calculated;
        value           uniform 0;
    }
    frontAndBack
    {
        type            empty;
    }
    procBoundary1to0
    {
        type            processor;
        value           uniform 0;
    }
}


// ************************************************************************* //
