/*--------------------------------*- C++ -*----------------------------------*\
| =========                 |                                                 |
| \\      /  F ield         | OpenFOAM: The Open Source CFD Toolbox           |
|  \\    /   O peration     | Version:  dev                                   |
|   \\  /    A nd           | Web:      www.OpenFOAM.org                      |
|    \\/     M anipulation  |                                                 |
\*---------------------------------------------------------------------------*/
FoamFile
{
    version     2.0;
    format      ascii;
    class       volScalarField;
    location    "0.085";
    object      HCO;
}
// * * * * * * * * * * * * * * * * * * * * * * * * * * * * * * * * * * * * * //

dimensions      [0 0 0 0 0 0 0];

internalField   nonuniform List<scalar> 
25
(
2.10285e-07
2.04752e-07
1.99414e-07
1.94232e-07
1.89199e-07
1.843e-07
1.79516e-07
1.74791e-07
1.70243e-07
1.65816e-07
1.6156e-07
1.57374e-07
1.53312e-07
1.49462e-07
1.45754e-07
1.42204e-07
1.38815e-07
1.35576e-07
1.3248e-07
1.29527e-07
1.26718e-07
1.2406e-07
1.21548e-07
1.19107e-07
1.16917e-07
)
;

boundaryField
{
    wall
    {
        type            zeroGradient;
    }
    fuel
    {
        type            fixedValue;
        value           nonuniform 0();
    }
    outlet
    {
        type            inletOutlet;
        inletValue      nonuniform 0();
        value           nonuniform 0();
    }
    procBoundary1to0
    {
        type            processor;
        value           uniform 2.15936e-07;
    }
    procBoundary1to2
    {
        type            processor;
        value           uniform 1.1474e-07;
    }
}


// ************************************************************************* //
