/*--------------------------------*- C++ -*----------------------------------*\
| =========                 |                                                 |
| \\      /  F ield         | OpenFOAM: The Open Source CFD Toolbox           |
|  \\    /   O peration     | Version:  dev                                   |
|   \\  /    A nd           | Web:      www.OpenFOAM.org                      |
|    \\/     M anipulation  |                                                 |
\*---------------------------------------------------------------------------*/
FoamFile
{
    version     2.0;
    format      ascii;
    class       volScalarField;
    location    "0.085";
    object      l-C6H6;
}
// * * * * * * * * * * * * * * * * * * * * * * * * * * * * * * * * * * * * * //

dimensions      [0 0 0 0 0 0 0];

internalField   nonuniform List<scalar> 
25
(
8.74066e-19
7.11471e-19
6.046e-19
5.47486e-19
5.4617e-19
6.26435e-19
8.51623e-19
1.3578e-18
2.4018e-18
4.49284e-18
8.55723e-18
1.63682e-17
3.06878e-17
5.5535e-17
9.76035e-17
1.66298e-16
2.74657e-16
4.39641e-16
6.81858e-16
1.0245e-15
1.49125e-15
2.10343e-15
2.87826e-15
3.84027e-15
4.93349e-15
)
;

boundaryField
{
    wall
    {
        type            zeroGradient;
    }
    fuel
    {
        type            fixedValue;
        value           nonuniform 0();
    }
    outlet
    {
        type            inletOutlet;
        inletValue      nonuniform 0();
        value           nonuniform 0();
    }
    procBoundary1to0
    {
        type            processor;
        value           uniform 1.09674e-18;
    }
    procBoundary1to2
    {
        type            processor;
        value           uniform 6.27433e-15;
    }
}


// ************************************************************************* //
