/*--------------------------------*- C++ -*----------------------------------*\
| =========                 |                                                 |
| \\      /  F ield         | OpenFOAM: The Open Source CFD Toolbox           |
|  \\    /   O peration     | Version:  dev                                   |
|   \\  /    A nd           | Web:      www.OpenFOAM.org                      |
|    \\/     M anipulation  |                                                 |
\*---------------------------------------------------------------------------*/
FoamFile
{
    version     2.0;
    format      ascii;
    class       volScalarField;
    location    "0.085";
    object      n-A1C2H2;
}
// * * * * * * * * * * * * * * * * * * * * * * * * * * * * * * * * * * * * * //

dimensions      [0 0 0 0 0 0 0];

internalField   nonuniform List<scalar> 
250
(
5.38834e-11
2.25092e-11
1.88601e-11
1.73477e-11
1.68515e-11
1.66176e-11
1.63697e-11
1.62328e-11
1.63549e-11
1.63278e-11
4.61953e-11
2.18422e-11
1.8903e-11
1.76974e-11
1.72668e-11
1.70964e-11
1.6888e-11
1.67958e-11
1.69012e-11
1.69479e-11
1.70791e-11
1.75568e-11
1.76111e-11
1.85204e-11
1.82004e-11
1.89211e-11
1.87907e-11
2.26615e-11
4.60532e-11
5.89557e-11
4.0316e-11
2.18983e-11
1.94549e-11
1.86166e-11
1.82165e-11
1.81308e-11
1.79445e-11
1.79019e-11
1.7984e-11
1.80904e-11
1.81459e-11
1.86849e-11
1.86531e-11
1.96068e-11
1.92594e-11
2.00026e-11
1.97824e-11
2.26222e-11
4.11198e-11
5.16646e-11
3.64789e-11
2.29662e-11
2.08557e-11
2.04135e-11
2.00181e-11
2.00245e-11
1.9846e-11
1.98528e-11
1.99085e-11
2.00616e-11
2.00681e-11
2.06101e-11
2.05465e-11
2.14791e-11
2.11378e-11
2.18644e-11
2.15729e-11
2.36017e-11
3.80486e-11
4.66633e-11
3.48693e-11
2.52516e-11
2.343e-11
2.33039e-11
2.29133e-11
2.29861e-11
2.2813e-11
2.28568e-11
2.28932e-11
2.30865e-11
2.30482e-11
2.35697e-11
2.34925e-11
2.43697e-11
2.40497e-11
2.47442e-11
2.44177e-11
2.58272e-11
3.70461e-11
4.4087e-11
3.55241e-11
2.87374e-11
2.73457e-11
2.72642e-11
2.69107e-11
2.6986e-11
2.68325e-11
2.68866e-11
2.69251e-11
2.71703e-11
2.70562e-11
2.75978e-11
2.74691e-11
2.83131e-11
2.79985e-11
2.86811e-11
2.83685e-11
2.93119e-11
3.81159e-11
4.38648e-11
3.81952e-11
3.32086e-11
3.2274e-11
3.20349e-11
3.177e-11
3.17649e-11
3.16572e-11
3.16881e-11
3.17621e-11
3.2095e-11
3.18411e-11
3.25204e-11
3.22442e-11
3.31466e-11
3.27813e-11
3.35134e-11
3.32563e-11
3.38356e-11
4.10275e-11
4.57326e-11
4.25105e-11
3.84203e-11
3.80587e-11
3.73642e-11
3.72369e-11
3.70795e-11
3.70449e-11
3.70239e-11
3.71679e-11
3.76413e-11
3.71701e-11
3.81533e-11
3.76023e-11
3.86978e-11
3.82015e-11
3.90692e-11
3.88821e-11
3.91518e-11
4.54594e-11
4.93575e-11
4.85343e-11
4.47987e-11
4.49807e-11
4.37526e-11
4.37512e-11
4.34464e-11
4.34835e-11
4.34133e-11
4.36422e-11
4.43143e-11
4.35676e-11
4.49742e-11
4.40737e-11
4.54342e-11
4.47596e-11
4.58022e-11
4.56606e-11
4.56515e-11
5.14967e-11
5.47598e-11
5.97916e-11
5.75654e-11
5.74375e-11
5.66314e-11
5.63902e-11
5.6296e-11
5.624e-11
5.62661e-11
5.65194e-11
5.74924e-11
5.64735e-11
5.81379e-11
5.71261e-11
5.84737e-11
5.77775e-11
5.88156e-11
5.85225e-11
5.83662e-11
6.29746e-11
6.5685e-11
9.87452e-11
9.9678e-11
9.78995e-11
9.80621e-11
9.70688e-11
9.73565e-11
9.70785e-11
9.72459e-11
9.75953e-11
9.91426e-11
9.74838e-11
9.97909e-11
9.8435e-11
9.99652e-11
9.91335e-11
1.0042e-10
9.98444e-11
1.00032e-10
1.02774e-10
1.05465e-10
1.97246e-10
1.83681e-10
1.86711e-10
1.76025e-10
1.76745e-10
1.73786e-10
1.74857e-10
1.73595e-10
1.75155e-10
1.77682e-10
1.73251e-10
1.81195e-10
1.74569e-10
1.81154e-10
1.77179e-10
1.82232e-10
1.83181e-10
1.84142e-10
1.98385e-10
2.03433e-10
2.47019e-10
2.09954e-10
2.20025e-10
1.94955e-10
1.98223e-10
1.91175e-10
1.94155e-10
1.91012e-10
1.93878e-10
1.97154e-10
1.89705e-10
2.05014e-10
1.91209e-10
2.04747e-10
1.96311e-10
2.06275e-10
2.09081e-10
2.10708e-10
2.43958e-10
2.54324e-10
)
;

boundaryField
{
    fuel
    {
        type            fixedValue;
        value           nonuniform 0();
    }
    wall
    {
        type            zeroGradient;
    }
    outlet
    {
        type            zeroGradient;
    }
    frontAndBack
    {
        type            empty;
    }
    procBoundary1to0
    {
        type            processor;
        value           nonuniform List<scalar> 
21
(
6.31769e-11
2.36476e-11
1.90697e-11
1.72978e-11
1.67073e-11
1.64294e-11
1.61282e-11
1.59511e-11
1.60837e-11
1.59696e-11
1.65705e-11
1.65705e-11
1.69188e-11
1.71245e-11
1.79133e-11
1.76614e-11
1.83094e-11
1.82802e-11
2.34135e-11
5.25356e-11
6.82553e-11
)
;
    }
}


// ************************************************************************* //
