/*--------------------------------*- C++ -*----------------------------------*\
| =========                 |                                                 |
| \\      /  F ield         | OpenFOAM: The Open Source CFD Toolbox           |
|  \\    /   O peration     | Version:  dev                                   |
|   \\  /    A nd           | Web:      www.OpenFOAM.org                      |
|    \\/     M anipulation  |                                                 |
\*---------------------------------------------------------------------------*/
FoamFile
{
    version     2.0;
    format      ascii;
    class       volVectorField;
    location    "0.085";
    object      U;
}
// * * * * * * * * * * * * * * * * * * * * * * * * * * * * * * * * * * * * * //

dimensions      [0 1 -1 0 0 0 0];

internalField   nonuniform List<vector> 
250
(
(0 1.96958 0.374969)
(0 1.57247 0.396877)
(0 1.44932 0.301381)
(0 1.18292 0.336783)
(0 1.03282 0.295799)
(0 0.814131 0.301046)
(0 0.655657 0.302182)
(0 0.439366 0.295166)
(0 0.285165 0.302196)
(0 0.0658369 0.296957)
(0 1.98957 0.346716)
(0 1.58106 0.365328)
(0 1.45901 0.276421)
(0 1.19084 0.310284)
(0 1.03829 0.272054)
(0 0.818943 0.276852)
(0 0.659594 0.278003)
(0 0.441405 0.271315)
(0 0.28762 0.278097)
(0 0.065592 0.272985)
(0 -0.0856888 0.272086)
(0 -0.310661 0.277872)
(0 -0.456493 0.269916)
(0 -0.68848 0.279008)
(0 -0.824708 0.272237)
(0 -1.07525 0.277948)
(0 -1.18423 0.283332)
(0 -1.49149 0.312548)
(0 -1.55408 0.307893)
(0 -1.99013 0.382459)
(0 2.00375 0.317426)
(0 1.58573 0.332959)
(0 1.46523 0.251184)
(0 1.19588 0.283108)
(0 1.04143 0.247879)
(0 0.821736 0.252177)
(0 0.662127 0.253292)
(0 0.442297 0.247007)
(0 0.289532 0.253474)
(0 0.0650232 0.248545)
(0 -0.0846303 0.247654)
(0 -0.311944 0.253318)
(0 -0.456948 0.245599)
(0 -0.690129 0.254353)
(0 -0.827176 0.247747)
(0 -1.07747 0.25341)
(0 -1.18815 0.258037)
(0 -1.49627 0.285287)
(0 -1.56251 0.280407)
(0 -2.00454 0.349209)
(0 2.01193 0.28735)
(0 1.58637 0.300042)
(0 1.4678 0.225752)
(0 1.19783 0.255328)
(0 1.04214 0.223391)
(0 0.822387 0.227099)
(0 0.663192 0.228127)
(0 0.441979 0.222318)
(0 0.290881 0.228402)
(0 0.0641117 0.223713)
(0 -0.0832292 0.222833)
(0 -0.31262 0.228318)
(0 -0.456239 0.220915)
(0 -0.69023 0.229234)
(0 -0.827574 0.222869)
(0 -1.07718 0.228456)
(0 -1.18913 0.232226)
(0 -1.49747 0.257513)
(0 -1.56672 0.252253)
(0 -2.01308 0.315142)
(0 2.01386 0.256935)
(0 1.58285 0.266783)
(0 1.46659 0.200209)
(0 1.19646 0.22705)
(0 1.04034 0.198354)
(0 0.820783 0.201704)
(0 0.662731 0.202604)
(0 0.440398 0.197341)
(0 0.291652 0.202972)
(0 0.062841 0.198587)
(0 -0.0814593 0.197719)
(0 -0.312656 0.202962)
(0 -0.454302 0.195957)
(0 -0.688711 0.203745)
(0 -0.825776 0.197698)
(0 -1.07427 0.203168)
(0 -1.18705 0.206005)
(0 -1.49484 0.22933)
(0 -1.56653 0.223568)
(0 -2.01547 0.280425)
(0 2.00936 0.225241)
(0 1.57513 0.232737)
(0 1.46147 0.174634)
(0 1.19164 0.198434)
(0 1.03598 0.172897)
(0 0.8168 0.176106)
(0 0.660696 0.176843)
(0 0.437511 0.17219)
(0 0.291831 0.177296)
(0 0.0611986 0.173279)
(0 -0.079301 0.172431)
(0 -0.312028 0.177359)
(0 -0.451092 0.170842)
(0 -0.685516 0.178002)
(0 -0.821679 0.172355)
(0 -1.06866 0.177655)
(0 -1.18179 0.179544)
(0 -1.48821 0.200857)
(0 -1.56178 0.194554)
(0 -2.01147 0.245254)
(0 1.99844 0.192529)
(0 1.56307 0.198128)
(0 1.4523 0.14913)
(0 1.18323 0.169658)
(0 1.02905 0.1475)
(0 0.810382 0.150447)
(0 0.657063 0.150987)
(0 0.433296 0.146999)
(0 0.291409 0.151509)
(0 0.0591786 0.147927)
(0 -0.0767461 0.147109)
(0 -0.310718 0.151641)
(0 -0.446585 0.145708)
(0 -0.680612 0.152146)
(0 -0.815218 0.146981)
(0 -1.0603 0.152049)
(0 -1.17328 0.153018)
(0 -1.47743 0.172226)
(0 -1.55242 0.165449)
(0 -2.00091 0.209843)
(0 1.98102 0.160135)
(0 1.54678 0.163881)
(0 1.43911 0.123837)
(0 1.1712 0.140909)
(0 1.01959 0.122283)
(0 0.801528 0.124886)
(0 0.651842 0.125213)
(0 0.427766 0.12193)
(0 0.290387 0.125777)
(0 0.0567872 0.122693)
(0 -0.0738055 0.121919)
(0 -0.308724 0.12597)
(0 -0.440798 0.12072)
(0 -0.674011 0.126345)
(0 -0.806393 0.121745)
(0 -1.04924 0.126496)
(0 -1.16157 0.126605)
(0 -1.46245 0.143595)
(0 -1.5385 0.136503)
(0 -1.98371 0.174431)
(0 1.95728 0.127982)
(0 1.52652 0.130234)
(0 1.42206 0.0988965)
(0 1.15565 0.112416)
(0 1.00775 0.0973824)
(0 0.790334 0.0996105)
(0 0.6451 0.0997242)
(0 0.420988 0.097171)
(0 0.288775 0.100293)
(0 0.0540525 0.0977677)
(0 -0.0705217 0.0970557)
(0 -0.306067 0.100534)
(0 -0.43381 0.0960689)
(0 -0.665795 0.100798)
(0 -0.795312 0.0968439)
(0 -1.0356 0.101162)
(0 -1.14681 0.100534)
(0 -1.44341 0.11515)
(0 -1.52028 0.108008)
(0 -1.96 0.139281)
(0 1.92776 0.0962877)
(0 1.50285 0.0974108)
(0 1.40159 0.0744883)
(0 1.13698 0.0844669)
(0 0.993844 0.0730273)
(0 0.777069 0.0748524)
(0 0.637004 0.0747741)
(0 0.413129 0.0729534)
(0 0.286607 0.0753014)
(0 0.0510419 0.0733859)
(0 -0.0669901 0.0727602)
(0 -0.302805 0.0755727)
(0 -0.42581 0.071992)
(0 -0.656167 0.0757508)
(0 -0.782266 0.0725209)
(0 -1.01974 0.0762631)
(0 -1.12941 0.0750869)
(0 -1.42072 0.0871261)
(0 -1.49836 0.0803035)
(0 -1.93026 0.104739)
(0 1.89377 0.0656463)
(0 1.47692 0.065986)
(0 1.37863 0.0509716)
(0 1.11603 0.0575689)
(0 0.978508 0.0496447)
(0 0.762335 0.0510368)
(0 0.627914 0.0508094)
(0 0.404542 0.0496933)
(0 0.283962 0.0512464)
(0 0.0478953 0.0499682)
(0 -0.0633956 0.0494585)
(0 -0.299077 0.0515209)
(0 -0.417179 0.0489095)
(0 -0.64556 0.051642)
(0 -0.767879 0.0492065)
(0 -1.00238 0.0522109)
(0 -1.11023 0.0507464)
(0 -1.39537 0.0599657)
(0 -1.47393 0.0539313)
(0 -1.89571 0.0714225)
(0 1.85819 0.0373592)
(0 1.45104 0.0372829)
(0 1.35519 0.0292293)
(0 1.09468 0.0328287)
(0 0.963049 0.028189)
(0 0.747421 0.0291212)
(0 0.618602 0.028822)
(0 0.395964 0.0283212)
(0 0.281131 0.029125)
(0 0.0447989 0.0284546)
(0 -0.0599857 0.0280959)
(0 -0.295287 0.0293619)
(0 -0.408692 0.0277599)
(0 -0.634878 0.0294486)
(0 -0.753447 0.0278631)
(0 -0.985011 0.0299538)
(0 -1.09099 0.0285558)
(0 -1.36953 0.0346842)
(0 -1.44937 0.0300573)
(0 -1.85918 0.0406887)
(0 1.82818 0.0136719)
(0 1.43042 0.0136726)
(0 1.33596 0.0107164)
(0 1.07734 0.0120491)
(0 0.950512 0.0102605)
(0 0.735327 0.0106642)
(0 0.610909 0.0104844)
(0 0.389095 0.0103476)
(0 0.278734 0.0106174)
(0 0.0422995 0.0103846)
(0 -0.0573777 0.0102379)
(0 -0.292254 0.0107201)
(0 -0.402071 0.0101133)
(0 -0.626199 0.0107507)
(0 -0.741893 0.0101423)
(0 -0.971048 0.0109789)
(0 -1.07558 0.0103797)
(0 -1.34837 0.0127757)
(0 -1.42983 0.0109555)
(0 -1.82791 0.0147791)
)
;

boundaryField
{
    fuel
    {
        type            fixedValue;
        value           nonuniform 0();
    }
    wall
    {
        type            slip;
    }
    outlet
    {
        type            pressureInletOutletVelocity;
        value           nonuniform List<vector> 
25
(
(0 1.96958 0.374969)
(0 1.98957 0.346716)
(0 2.00375 0.317426)
(0 2.01193 0.28735)
(0 2.01386 0.256935)
(0 2.00936 0.225241)
(0 1.99844 0.192529)
(0 1.98102 0.160135)
(0 1.95728 0.127982)
(0 1.92776 0.0962877)
(0 1.89377 0.0656463)
(0 1.85819 0.0373592)
(0 1.82818 0.0136719)
(0 -1.99013 0.382459)
(0 -2.00454 0.349209)
(0 -2.01308 0.315142)
(0 -2.01547 0.280425)
(0 -2.01147 0.245254)
(0 -2.00091 0.209843)
(0 -1.98371 0.174431)
(0 -1.96 0.139281)
(0 -1.93026 0.104739)
(0 -1.89571 0.0714225)
(0 -1.85918 0.0406887)
(0 -1.82791 0.0147791)
)
;
    }
    frontAndBack
    {
        type            empty;
    }
    procBoundary1to0
    {
        type            processor;
        value           nonuniform List<vector> 
21
(
(0 1.94402 0.402087)
(0 1.56011 0.427448)
(0 1.43632 0.325989)
(0 1.17235 0.362531)
(0 1.02512 0.318991)
(0 0.807432 0.324689)
(0 0.650389 0.325764)
(0 0.436246 0.318496)
(0 0.282187 0.325713)
(0 0.0657781 0.320399)
(0 -0.0864338 0.296053)
(0 -0.0864338 0.296053)
(0 -0.308802 0.30191)
(0 -0.454941 0.293785)
(0 -0.685366 0.303125)
(0 -0.820307 0.296259)
(0 -1.07066 0.302)
(0 -1.17754 0.308051)
(0 -1.48336 0.339221)
(0 -1.54162 0.334576)
(0 -1.97014 0.41477)
)
;
    }
}


// ************************************************************************* //
