/*--------------------------------*- C++ -*----------------------------------*\
| =========                 |                                                 |
| \\      /  F ield         | OpenFOAM: The Open Source CFD Toolbox           |
|  \\    /   O peration     | Version:  dev                                   |
|   \\  /    A nd           | Web:      www.OpenFOAM.org                      |
|    \\/     M anipulation  |                                                 |
\*---------------------------------------------------------------------------*/
FoamFile
{
    version     2.0;
    format      ascii;
    class       volScalarField;
    location    "0.023";
    object      moment.4.populationBalance;
}
// * * * * * * * * * * * * * * * * * * * * * * * * * * * * * * * * * * * * * //

dimensions      [0 9 0 0 0 0 0];

internalField   nonuniform List<scalar> 
251
(
7.45078e+14
7.24838e+14
7.05131e+14
6.85944e+14
6.67262e+14
6.49073e+14
6.31364e+14
6.14122e+14
5.97336e+14
5.80992e+14
5.65081e+14
5.4959e+14
5.34509e+14
5.19827e+14
5.05534e+14
4.91619e+14
4.78073e+14
4.64886e+14
4.52049e+14
4.39553e+14
4.27388e+14
4.15547e+14
4.04021e+14
3.92802e+14
3.81881e+14
3.71251e+14
3.60905e+14
3.50835e+14
3.41034e+14
3.31494e+14
3.2221e+14
3.13174e+14
3.0438e+14
2.95822e+14
2.87494e+14
2.79389e+14
2.71502e+14
2.63827e+14
2.56359e+14
2.49091e+14
2.4202e+14
2.3514e+14
2.28445e+14
2.21932e+14
2.15594e+14
2.09429e+14
2.0343e+14
1.97595e+14
1.91918e+14
1.86396e+14
1.81024e+14
1.75798e+14
1.70715e+14
1.65771e+14
1.60962e+14
1.56285e+14
1.51737e+14
1.47313e+14
1.43011e+14
1.38827e+14
1.34758e+14
1.30802e+14
1.26955e+14
1.23215e+14
1.19578e+14
1.16043e+14
1.12605e+14
1.09263e+14
1.06015e+14
1.02857e+14
9.97871e+13
9.68034e+13
9.39033e+13
9.10847e+13
8.83453e+13
8.56829e+13
8.30955e+13
8.0581e+13
7.81373e+13
7.57624e+13
7.34541e+13
7.12104e+13
6.90291e+13
6.69079e+13
6.48445e+13
6.28363e+13
6.08807e+13
5.89749e+13
5.71156e+13
5.52995e+13
5.3523e+13
5.17822e+13
5.00728e+13
4.83905e+13
4.67306e+13
4.50887e+13
4.34599e+13
4.18397e+13
4.02239e+13
3.86087e+13
3.69907e+13
3.53675e+13
3.37375e+13
3.21001e+13
3.04558e+13
2.88063e+13
2.71547e+13
2.5505e+13
2.38625e+13
2.22333e+13
2.06246e+13
1.90439e+13
1.74991e+13
1.59982e+13
1.45491e+13
1.3159e+13
1.18348e+13
1.05821e+13
9.40571e+12
8.30922e+12
7.29493e+12
6.3639e+12
5.51594e+12
4.74973e+12
4.06288e+12
3.45208e+12
2.91325e+12
2.44175e+12
2.03248e+12
1.68009e+12
1.37912e+12
1.12414e+12
9.09864e+11
7.31236e+11
5.83519e+11
4.62342e+11
3.63728e+11
2.84113e+11
2.20347e+11
1.69676e+11
1.29727e+11
9.84792e+10
7.42266e+10
5.55495e+10
4.12773e+10
3.04548e+10
2.23111e+10
1.62297e+10
1.17229e+10
8.40809e+09
5.98835e+09
4.23517e+09
2.97439e+09
2.07442e+09
1.43673e+09
9.88198e+08
6.75011e+08
4.57917e+08
3.08518e+08
2.06444e+08
1.37202e+08
9.05667e+07
5.93792e+07
3.86695e+07
2.5014e+07
1.60726e+07
1.02586e+07
6.50434e+06
4.09674e+06
2.56334e+06
1.59337e+06
983963
603678
367965
222840
134084
80161.2
47617.8
28106.2
16484.4
9607.06
5563.75
3201.94
1831.21
1040.77
587.851
329.982
184.092
102.072
56.2498
30.8095
16.7728
9.07607
4.88167
2.60992
1.38702
0.732738
0.384796
0.200881
0.104251
0.0537861
0.0275875
0.0140675
0.00713174
0.00359463
0.00180137
0.000897533
0.000444637
0.000219016
0.000107268
5.22397e-05
2.52971e-05
1.21812e-05
5.83268e-06
2.77721e-06
1.31498e-06
6.19152e-07
2.89891e-07
1.34958e-07
6.24604e-08
2.87241e-08
1.3111e-08
5.92387e-09
2.63223e-09
1.13145e-09
4.5059e-10
1.39066e-10
0
0
0
0
0
0
0
0
0
0
0
0
0
0
0
0
0
0
0
0
0
0
0
0
)
;

boundaryField
{
    wall
    {
        type            zeroGradient;
    }
    fuel
    {
        type            fixedValue;
        value           uniform 7.65865e+14;
    }
    outlet
    {
        type            inletOutlet;
        inletValue      nonuniform 0();
        value           nonuniform 0();
    }
    procBoundary0to1
    {
        type            processor;
        value           uniform 0;
    }
}


// ************************************************************************* //
