/*--------------------------------*- C++ -*----------------------------------*\
| =========                 |                                                 |
| \\      /  F ield         | OpenFOAM: The Open Source CFD Toolbox           |
|  \\    /   O peration     | Version:  dev                                   |
|   \\  /    A nd           | Web:      www.OpenFOAM.org                      |
|    \\/     M anipulation  |                                                 |
\*---------------------------------------------------------------------------*/
FoamFile
{
    version     2.0;
    format      ascii;
    class       volScalarField;
    location    "0.023";
    object      moment.2.populationBalance;
}
// * * * * * * * * * * * * * * * * * * * * * * * * * * * * * * * * * * * * * //

dimensions      [0 3 0 0 0 0 0];

internalField   nonuniform List<scalar> 
251
(
2.67112e+11
2.60176e+11
2.53407e+11
2.46803e+11
2.40359e+11
2.34072e+11
2.27939e+11
2.21956e+11
2.16121e+11
2.10429e+11
2.04878e+11
1.99465e+11
1.94186e+11
1.89039e+11
1.8402e+11
1.79127e+11
1.74357e+11
1.69707e+11
1.65175e+11
1.60757e+11
1.56451e+11
1.52255e+11
1.48166e+11
1.44181e+11
1.40299e+11
1.36516e+11
1.3283e+11
1.2924e+11
1.25743e+11
1.22336e+11
1.19018e+11
1.15787e+11
1.12639e+11
1.09574e+11
1.0659e+11
1.03684e+11
1.00854e+11
9.80994e+10
9.54174e+10
9.28065e+10
9.0265e+10
8.77911e+10
8.53831e+10
8.30394e+10
8.07585e+10
7.85387e+10
7.63786e+10
7.42766e+10
7.22312e+10
7.02411e+10
6.83048e+10
6.64209e+10
6.45882e+10
6.28053e+10
6.1071e+10
5.9384e+10
5.7743e+10
5.6147e+10
5.45947e+10
5.3085e+10
5.16168e+10
5.0189e+10
4.88006e+10
4.74505e+10
4.61378e+10
4.48614e+10
4.36204e+10
4.24138e+10
4.12408e+10
4.01004e+10
3.89918e+10
3.79142e+10
3.68666e+10
3.58484e+10
3.48586e+10
3.38965e+10
3.29613e+10
3.20522e+10
3.11686e+10
3.03095e+10
2.94742e+10
2.86619e+10
2.78718e+10
2.71029e+10
2.63543e+10
2.56249e+10
2.49137e+10
2.42193e+10
2.35405e+10
2.28757e+10
2.22233e+10
2.15816e+10
2.09486e+10
2.03223e+10
1.97006e+10
1.90813e+10
1.84623e+10
1.78413e+10
1.72165e+10
1.65859e+10
1.59481e+10
1.53018e+10
1.46464e+10
1.39815e+10
1.33074e+10
1.2625e+10
1.19357e+10
1.12417e+10
1.05453e+10
9.84975e+09
9.15841e+09
8.47504e+09
7.80355e+09
7.14791e+09
6.51203e+09
5.89959e+09
5.314e+09
4.75823e+09
4.23476e+09
3.74553e+09
3.29189e+09
2.8746e+09
2.49381e+09
2.14914e+09
1.8397e+09
1.56414e+09
1.32077e+09
1.10757e+09
9.22343e+08
7.62725e+08
6.26302e+08
5.10653e+08
4.13411e+08
3.32311e+08
2.6522e+08
2.10164e+08
1.65349e+08
1.29161e+08
1.00172e+08
7.71337e+07
5.89698e+07
4.47614e+07
3.37341e+07
2.52423e+07
1.87538e+07
1.38342e+07
1.01329e+07
7.36931e+06
5.32165e+06
3.81591e+06
2.717e+06
1.92101e+06
1.34873e+06
940347
651067
447659
305677
207292
139610
93384.3
62039.1
40935.6
26828.2
17464.2
11292.3
7252.71
4627.19
2932.53
1846.23
1154.67
717.418
442.83
271.559
165.449
100.149
60.2314
35.9919
21.3699
12.6074
7.39067
4.30517
2.49203
1.43346
0.819398
0.465471
0.262779
0.147433
0.0822092
0.045559
0.0250938
0.0137375
0.00747497
0.00404277
0.00217333
0.00116135
0.000616873
0.000325714
0.000170959
8.92023e-05
4.62695e-05
2.38593e-05
1.22313e-05
6.23382e-06
3.15868e-06
1.59125e-06
7.97003e-07
3.969e-07
1.96521e-07
9.67504e-08
4.73611e-08
2.30528e-08
1.11575e-08
5.36982e-09
2.56986e-09
1.22299e-09
5.7877e-10
2.72369e-10
1.27458e-10
5.9307e-11
2.74337e-11
1.26096e-11
5.75255e-12
2.59778e-12
1.1537e-12
4.95646e-13
1.97281e-13
6.08535e-14
0
0
0
0
0
0
0
0
0
0
0
0
0
0
0
0
0
0
0
0
0
0
0
0
)
;

boundaryField
{
    wall
    {
        type            zeroGradient;
    }
    fuel
    {
        type            fixedValue;
        value           uniform 2.7422e+11;
    }
    outlet
    {
        type            inletOutlet;
        inletValue      nonuniform 0();
        value           nonuniform 0();
    }
    procBoundary0to1
    {
        type            processor;
        value           uniform 0;
    }
}


// ************************************************************************* //
