/*--------------------------------*- C++ -*----------------------------------*\
| =========                 |                                                 |
| \\      /  F ield         | OpenFOAM: The Open Source CFD Toolbox           |
|  \\    /   O peration     | Version:  dev                                   |
|   \\  /    A nd           | Web:      www.OpenFOAM.org                      |
|    \\/     M anipulation  |                                                 |
\*---------------------------------------------------------------------------*/
FoamFile
{
    version     2.0;
    format      ascii;
    class       volScalarField;
    location    "0.023";
    object      moment.3.populationBalance;
}
// * * * * * * * * * * * * * * * * * * * * * * * * * * * * * * * * * * * * * //

dimensions      [0 6 0 0 0 0 0];

internalField   nonuniform List<scalar> 
251
(
8.66522e+12
8.43768e+12
8.21622e+12
8.00067e+12
7.79088e+12
7.58669e+12
7.38795e+12
7.19451e+12
7.00623e+12
6.82298e+12
6.64461e+12
6.47099e+12
6.302e+12
6.13751e+12
5.9774e+12
5.82155e+12
5.66984e+12
5.52217e+12
5.37842e+12
5.2385e+12
5.10228e+12
4.96968e+12
4.8406e+12
4.71494e+12
4.59261e+12
4.47352e+12
4.35758e+12
4.2447e+12
4.13481e+12
4.02782e+12
3.92365e+12
3.82223e+12
3.72349e+12
3.62734e+12
3.53373e+12
3.44257e+12
3.35381e+12
3.26739e+12
3.18323e+12
3.10128e+12
3.02147e+12
2.94375e+12
2.86807e+12
2.79437e+12
2.72259e+12
2.65268e+12
2.5846e+12
2.51829e+12
2.45371e+12
2.3908e+12
2.32953e+12
2.26986e+12
2.21173e+12
2.15511e+12
2.09995e+12
2.04622e+12
1.99388e+12
1.9429e+12
1.89322e+12
1.84483e+12
1.79769e+12
1.75176e+12
1.70701e+12
1.66341e+12
1.62092e+12
1.57953e+12
1.5392e+12
1.4999e+12
1.4616e+12
1.42429e+12
1.38792e+12
1.35249e+12
1.31795e+12
1.28429e+12
1.25149e+12
1.21952e+12
1.18836e+12
1.15798e+12
1.12836e+12
1.09949e+12
1.07132e+12
1.04385e+12
1.01704e+12
9.90872e+11
9.65305e+11
9.40308e+11
9.15845e+11
8.91874e+11
8.68349e+11
8.45218e+11
8.22425e+11
7.99907e+11
7.77597e+11
7.55422e+11
7.33308e+11
7.11176e+11
6.8895e+11
6.66552e+11
6.43912e+11
6.20966e+11
5.97661e+11
5.73956e+11
5.49827e+11
5.25271e+11
5.00302e+11
4.74957e+11
4.49297e+11
4.23402e+11
3.97375e+11
3.71334e+11
3.45414e+11
3.19761e+11
2.94527e+11
2.69865e+11
2.45927e+11
2.22855e+11
2.00781e+11
1.79819e+11
1.60067e+11
1.41599e+11
1.24468e+11
1.08705e+11
9.43167e+10
8.12902e+10
6.95927e+10
5.91742e+10
4.9971e+10
4.19078e+10
3.49015e+10
2.88632e+10
2.37019e+10
1.93261e+10
1.56465e+10
1.25776e+10
1.00385e+10
7.95491e+09
6.25875e+09
4.88905e+09
3.7918e+09
2.91978e+09
2.23223e+09
1.6944e+09
1.27698e+09
9.5553e+08
7.09912e+08
5.23683e+08
3.83569e+08
2.78955e+08
2.01442e+08
1.44443e+08
1.02845e+08
7.27135e+07
5.10511e+07
3.55926e+07
2.46427e+07
1.69434e+07
1.15693e+07
7.84541e+06
5.2837e+06
3.53414e+06
2.34781e+06
1.54912e+06
1.01523e+06
660855
427291
274428
175077
110953
69849.7
43683.9
27140.5
16751.9
10272.4
6258.24
3788.05
2278.1
1361.24
808.183
476.772
279.479
162.792
94.2266
54.1978
30.979
17.5971
9.93377
5.57308
3.10738
1.72196
0.948394
0.519164
0.282474
0.152764
0.0821182
0.043878
0.0233051
0.0123045
0.00645788
0.00336933
0.00174756
0.00090108
0.000461901
0.000235395
0.000119266
6.00781e-05
3.00889e-05
1.49828e-05
7.41802e-06
3.65172e-06
1.78744e-06
8.6996e-07
4.21025e-07
2.02612e-07
9.6957e-08
4.61378e-08
2.18325e-08
1.02735e-08
4.80718e-09
2.23661e-09
1.0345e-09
4.75452e-10
2.16884e-10
9.79335e-11
4.3489e-11
1.86818e-11
7.43515e-12
2.29323e-12
0
0
0
0
0
0
0
0
0
0
0
0
0
0
0
0
0
0
0
0
0
0
0
0
)
;

boundaryField
{
    wall
    {
        type            zeroGradient;
    }
    fuel
    {
        type            fixedValue;
        value           uniform 8.899e+12;
    }
    outlet
    {
        type            inletOutlet;
        inletValue      nonuniform 0();
        value           nonuniform 0();
    }
    procBoundary0to1
    {
        type            processor;
        value           uniform 0;
    }
}


// ************************************************************************* //
