/*--------------------------------*- C++ -*----------------------------------*\
| =========                 |                                                 |
| \\      /  F ield         | OpenFOAM: The Open Source CFD Toolbox           |
|  \\    /   O peration     | Version:  dev                                   |
|   \\  /    A nd           | Web:      www.OpenFOAM.org                      |
|    \\/     M anipulation  |                                                 |
\*---------------------------------------------------------------------------*/
FoamFile
{
    version     2.0;
    format      ascii;
    class       volScalarField;
    location    "0.023";
    object      moment.0.populationBalance;
}
// * * * * * * * * * * * * * * * * * * * * * * * * * * * * * * * * * * * * * //

dimensions      [0 -3 0 0 0 0 0];

internalField   nonuniform List<scalar> 
251
(
6.08107e+09
6.081e+09
6.08093e+09
6.08084e+09
6.08073e+09
6.08061e+09
6.08046e+09
6.08028e+09
6.08007e+09
6.07983e+09
6.07954e+09
6.0792e+09
6.07879e+09
6.07832e+09
6.07777e+09
6.07712e+09
6.07636e+09
6.07546e+09
6.07442e+09
6.07321e+09
6.0718e+09
6.07016e+09
6.06826e+09
6.06605e+09
6.0635e+09
6.06057e+09
6.05718e+09
6.0533e+09
6.04885e+09
6.04377e+09
6.03798e+09
6.0314e+09
6.02394e+09
6.01552e+09
6.00603e+09
5.99539e+09
5.98348e+09
5.97022e+09
5.9555e+09
5.93923e+09
5.92131e+09
5.90166e+09
5.88021e+09
5.85689e+09
5.83164e+09
5.80443e+09
5.77523e+09
5.74403e+09
5.71084e+09
5.67568e+09
5.63859e+09
5.59961e+09
5.55882e+09
5.51628e+09
5.4721e+09
5.42635e+09
5.37914e+09
5.33058e+09
5.28079e+09
5.22985e+09
5.1779e+09
5.12504e+09
5.07137e+09
5.01699e+09
4.96202e+09
4.90654e+09
4.85063e+09
4.7944e+09
4.73791e+09
4.68124e+09
4.62445e+09
4.5676e+09
4.51076e+09
4.45398e+09
4.39729e+09
4.34074e+09
4.28435e+09
4.22817e+09
4.1722e+09
4.11646e+09
4.06094e+09
4.00564e+09
3.95054e+09
3.89559e+09
3.84073e+09
3.78589e+09
3.73095e+09
3.67579e+09
3.62022e+09
3.56406e+09
3.50705e+09
3.44893e+09
3.38937e+09
3.32804e+09
3.26456e+09
3.19853e+09
3.12956e+09
3.05725e+09
2.98123e+09
2.90114e+09
2.81672e+09
2.72774e+09
2.63409e+09
2.53575e+09
2.43282e+09
2.32554e+09
2.21426e+09
2.09948e+09
1.98181e+09
1.86196e+09
1.74076e+09
1.61908e+09
1.49785e+09
1.37801e+09
1.26051e+09
1.14622e+09
1.036e+09
9.30573e+08
8.30593e+08
7.3658e+08
6.48931e+08
5.67914e+08
4.93667e+08
4.26205e+08
3.65432e+08
3.11151e+08
2.63081e+08
2.20873e+08
1.84125e+08
1.52399e+08
1.2524e+08
1.02184e+08
8.27742e+07
6.65688e+07
5.31505e+07
4.2131e+07
3.31552e+07
2.59033e+07
2.00917e+07
1.54716e+07
1.18281e+07
8.97757e+06
6.76506e+06
5.06126e+06
3.75946e+06
2.77255e+06
2.03014e+06
1.47596e+06
1.06544e+06
763667
543506
384096
269537
187824
129972
89314
60950
41306.8
27801.9
18584.2
12337.8
8135.17
5327.75
3465.61
2239.15
1437.04
916.103
580.125
364.932
228.048
141.572
87.3116
53.4963
32.5645
19.6944
11.834
7.06512
4.19102
2.47025
1.44676
0.841962
0.486905
0.279807
0.15979
0.0906827
0.0511441
0.0286663
0.0159685
0.00884062
0.00486449
0.00266035
0.00144609
0.000781301
0.000419582
0.000223976
0.000118845
6.26853e-05
3.28673e-05
1.71311e-05
8.8765e-06
4.57235e-06
2.34147e-06
1.19206e-06
6.03363e-07
3.03625e-07
1.51909e-07
7.55663e-08
3.73746e-08
1.83798e-08
8.98723e-09
4.36962e-09
2.11252e-09
1.01556e-09
4.85474e-10
2.30775e-10
1.09088e-10
5.12785e-11
2.3969e-11
1.11401e-11
5.14718e-12
2.3631e-12
1.07681e-12
4.85708e-13
2.15453e-13
9.24514e-14
3.67536e-14
1.1323e-14
0
0
0
0
0
0
0
0
0
0
0
0
0
0
0
0
0
0
0
0
0
0
0
0
)
;

boundaryField
{
    wall
    {
        type            zeroGradient;
    }
    fuel
    {
        type            fixedValue;
        value           uniform 6.08112e+09;
    }
    outlet
    {
        type            inletOutlet;
        inletValue      nonuniform 0();
        value           nonuniform 0();
    }
    procBoundary0to1
    {
        type            processor;
        value           uniform 0;
    }
}


// ************************************************************************* //
