/*--------------------------------*- C++ -*----------------------------------*\
| =========                 |                                                 |
| \\      /  F ield         | OpenFOAM: The Open Source CFD Toolbox           |
|  \\    /   O peration     | Version:  dev                                   |
|   \\  /    A nd           | Web:      www.OpenFOAM.org                      |
|    \\/     M anipulation  |                                                 |
\*---------------------------------------------------------------------------*/
FoamFile
{
    version     2.0;
    format      ascii;
    class       volScalarField;
    location    "0.085";
    object      A1C2H*;
}
// * * * * * * * * * * * * * * * * * * * * * * * * * * * * * * * * * * * * * //

dimensions      [0 0 0 0 0 0 0];

internalField   nonuniform List<scalar> 
250
(
4.43182e-07
4.43472e-07
4.43555e-07
4.43545e-07
4.43616e-07
4.43556e-07
4.43709e-07
4.43926e-07
4.43495e-07
4.00167e-07
1.8568e-09
5.92796e-07
5.93489e-07
5.937e-07
5.93661e-07
5.93802e-07
5.9371e-07
5.94132e-07
5.96073e-07
6.11494e-07
7.16431e-07
1.41544e-09
3.88342e-07
3.89035e-07
3.89244e-07
3.89188e-07
3.89354e-07
3.89241e-07
3.89741e-07
3.92178e-07
4.11662e-07
5.80575e-07
6.28467e-10
2.26049e-07
2.26621e-07
2.26785e-07
2.26737e-07
2.26887e-07
2.26782e-07
2.27243e-07
2.29518e-07
2.4711e-07
4.05097e-07
2.75489e-10
1.34501e-07
1.34923e-07
1.35039e-07
1.35008e-07
1.35127e-07
1.35045e-07
1.35437e-07
1.37433e-07
1.52931e-07
2.81337e-07
1.3946e-10
8.48868e-08
8.50982e-08
8.51446e-08
8.51366e-08
8.52165e-08
8.51593e-08
8.54739e-08
8.72199e-08
9.67226e-08
1.98015e-07
8.13526e-11
5.6513e-08
5.69232e-08
5.69633e-08
5.69783e-08
5.70404e-08
5.69961e-08
5.72394e-08
5.88078e-08
6.74479e-08
1.47517e-07
5.83844e-11
4.02071e-08
4.04304e-08
4.03664e-08
4.03736e-08
4.03205e-08
4.03019e-08
4.04765e-08
4.19098e-08
4.88318e-08
1.09885e-07
5.26981e-11
2.94531e-08
2.97503e-08
2.9776e-08
2.99086e-08
2.99797e-08
3.00005e-08
2.9802e-08
3.14944e-08
3.61159e-08
8.66997e-08
7.75916e-11
2.22643e-08
2.24658e-08
2.24624e-08
2.26945e-08
2.29417e-08
2.27793e-08
2.3029e-08
2.39793e-08
2.85047e-08
6.97443e-08
1.58553e-10
1.75429e-08
1.80781e-08
1.77656e-08
1.79835e-08
1.78119e-08
1.83799e-08
1.89703e-08
2.31909e-08
5.58914e-08
3.087e-10
1.45116e-08
1.46952e-08
1.4307e-08
1.45546e-08
1.43278e-08
1.48932e-08
1.54753e-08
1.91626e-08
4.41436e-08
5.54703e-10
1.21271e-08
1.21873e-08
1.2084e-08
1.20788e-08
1.20812e-08
1.23743e-08
1.29223e-08
1.60471e-08
3.65063e-08
9.43725e-10
1.02929e-08
1.03191e-08
1.04382e-08
1.04491e-08
1.04026e-08
1.05126e-08
1.1243e-08
1.37144e-08
3.05624e-08
1.50403e-09
8.87039e-09
8.87541e-09
9.02004e-09
9.03895e-09
9.11859e-09
9.076e-09
9.81462e-09
1.2125e-08
2.59061e-08
2.19231e-09
7.73021e-09
7.8666e-09
7.90469e-09
7.91972e-09
7.97708e-09
8.06885e-09
8.64697e-09
1.07962e-08
2.2291e-08
3.01329e-09
6.90642e-09
6.95077e-09
7.00543e-09
7.01127e-09
7.046e-09
7.15287e-09
7.68889e-09
9.69233e-09
1.9311e-08
3.99212e-09
6.23086e-09
6.19168e-09
6.35015e-09
6.26154e-09
6.36275e-09
6.39406e-09
6.8862e-09
8.92397e-09
1.72245e-08
5.1763e-09
5.64143e-09
5.55183e-09
5.76304e-09
5.63169e-09
5.78085e-09
5.75333e-09
6.20087e-09
8.31239e-09
1.57541e-08
6.60913e-09
5.17342e-09
5.05972e-09
5.25562e-09
5.15903e-09
5.26078e-09
5.26976e-09
5.68683e-09
7.86412e-09
1.48232e-08
8.31015e-09
4.78375e-09
4.64946e-09
4.87531e-09
4.72391e-09
4.83762e-09
4.82841e-09
5.25261e-09
7.53693e-09
1.43693e-08
1.02624e-08
4.43798e-09
4.26403e-09
4.52432e-09
4.34072e-09
4.50739e-09
4.43534e-09
4.83547e-09
7.30316e-09
1.43265e-08
1.24106e-08
4.15324e-09
3.9275e-09
4.25187e-09
4.04628e-09
4.19384e-09
4.13191e-09
4.4741e-09
7.13877e-09
1.46171e-08
1.4668e-08
3.92244e-09
3.66729e-09
4.02162e-09
3.79496e-09
3.95328e-09
3.87234e-09
4.19642e-09
7.01949e-09
1.51548e-08
1.69252e-08
)
;

boundaryField
{
    fuel
    {
        type            fixedValue;
        value           uniform 0;
    }
    wall
    {
        type            zeroGradient;
    }
    outlet
    {
        type            zeroGradient;
    }
    frontAndBack
    {
        type            empty;
    }
    procBoundary3to0
    {
        type            processor;
        value           nonuniform List<scalar> 10(3.72044e-09 3.44351e-09 3.81862e-09 3.57933e-09 3.74576e-09 3.64912e-09 3.95562e-09 6.91337e-09 1.58177e-08 1.90108e-08);
    }
    procBoundary3to2
    {
        type            processor;
        value           nonuniform List<scalar> 
25
(
4.4336e-07
5.93198e-07
3.88795e-07
2.26473e-07
1.34855e-07
8.51393e-08
5.67996e-08
4.03887e-08
2.97143e-08
2.24326e-08
1.7441e-08
1.7441e-08
1.40661e-08
1.19013e-08
1.01577e-08
8.74801e-09
7.63216e-09
6.72999e-09
5.98683e-09
5.36316e-09
4.89355e-09
4.47295e-09
4.13239e-09
3.84242e-09
3.59462e-09
)
;
    }
}


// ************************************************************************* //
