/*--------------------------------*- C++ -*----------------------------------*\
| =========                 |                                                 |
| \\      /  F ield         | OpenFOAM: The Open Source CFD Toolbox           |
|  \\    /   O peration     | Version:  dev                                   |
|   \\  /    A nd           | Web:      www.OpenFOAM.org                      |
|    \\/     M anipulation  |                                                 |
\*---------------------------------------------------------------------------*/
FoamFile
{
    version     2.0;
    format      ascii;
    class       volScalarField;
    location    "0.085";
    object      A2-2;
}
// * * * * * * * * * * * * * * * * * * * * * * * * * * * * * * * * * * * * * //

dimensions      [0 0 0 0 0 0 0];

internalField   nonuniform List<scalar> 
25
(
2.51418e-14
2.38243e-14
2.23235e-14
2.05693e-14
1.87704e-14
1.68997e-14
1.49987e-14
1.30977e-14
1.12322e-14
9.44062e-15
7.75679e-15
6.21048e-15
4.82666e-15
3.62394e-15
2.61307e-15
1.79667e-15
1.16711e-15
7.08293e-16
3.96412e-16
2.01915e-16
9.27511e-17
3.85906e-17
1.49882e-17
5.73228e-18
1.91457e-18
)
;

boundaryField
{
    wall
    {
        type            zeroGradient;
    }
    fuel
    {
        type            fixedValue;
        value           nonuniform 0();
    }
    outlet
    {
        type            inletOutlet;
        inletValue      uniform 0;
        value           uniform 0;
    }
    procBoundary3to2
    {
        type            processor;
        value           uniform 2.624e-14;
    }
}


// ************************************************************************* //
