/*--------------------------------*- C++ -*----------------------------------*\
| =========                 |                                                 |
| \\      /  F ield         | OpenFOAM: The Open Source CFD Toolbox           |
|  \\    /   O peration     | Version:  dev                                   |
|   \\  /    A nd           | Web:      www.OpenFOAM.org                      |
|    \\/     M anipulation  |                                                 |
\*---------------------------------------------------------------------------*/
FoamFile
{
    version     2.0;
    format      ascii;
    class       volScalarField;
    location    "0.085";
    object      A3-4;
}
// * * * * * * * * * * * * * * * * * * * * * * * * * * * * * * * * * * * * * //

dimensions      [0 0 0 0 0 0 0];

internalField   nonuniform List<scalar> 
1989
(
1.62897e-11
1.62803e-11
1.62759e-11
1.62698e-11
1.62682e-11
1.62643e-11
1.6264e-11
1.62616e-11
1.62618e-11
1.62604e-11
1.62607e-11
1.62599e-11
1.62601e-11
1.62599e-11
1.62599e-11
1.62601e-11
1.62599e-11
1.62606e-11
1.62604e-11
1.62618e-11
1.62616e-11
1.6264e-11
1.62643e-11
1.62682e-11
1.62698e-11
1.6276e-11
1.62804e-11
1.62897e-11
1.63004e-11
1.63162e-11
1.63421e-11
1.63711e-11
1.64235e-11
1.64778e-11
1.65837e-11
1.67037e-11
1.68406e-11
1.7074e-11
1.7206e-11
1.57153e-11
1.55888e-11
1.53646e-11
1.52357e-11
1.51237e-11
1.5025e-11
1.49738e-11
1.4925e-11
1.48983e-11
1.4874e-11
1.48595e-11
1.48494e-11
1.48407e-11
1.48366e-11
1.48309e-11
1.48294e-11
1.48258e-11
1.48255e-11
1.48233e-11
1.48235e-11
1.48222e-11
1.48224e-11
1.48217e-11
1.48219e-11
1.48217e-11
1.48217e-11
1.48219e-11
1.48217e-11
1.48224e-11
1.48221e-11
1.48234e-11
1.48233e-11
1.48255e-11
1.48258e-11
1.48295e-11
1.48309e-11
1.48367e-11
1.48407e-11
1.48493e-11
1.48594e-11
1.48741e-11
1.48983e-11
1.4925e-11
1.49738e-11
1.50249e-11
1.51237e-11
1.52356e-11
1.53644e-11
1.55886e-11
1.57151e-11
1.43093e-11
1.41884e-11
1.39741e-11
1.38532e-11
1.37491e-11
1.3657e-11
1.36097e-11
1.35641e-11
1.35397e-11
1.3517e-11
1.35037e-11
1.34943e-11
1.34862e-11
1.34825e-11
1.34771e-11
1.34758e-11
1.34724e-11
1.34722e-11
1.34701e-11
1.34703e-11
1.3469e-11
1.34693e-11
1.34686e-11
1.34688e-11
1.34686e-11
1.34686e-11
1.34688e-11
1.34686e-11
1.34693e-11
1.3469e-11
1.34702e-11
1.34701e-11
1.34722e-11
1.34724e-11
1.34758e-11
1.34771e-11
1.34825e-11
1.34862e-11
1.34942e-11
1.35035e-11
1.35171e-11
1.35397e-11
1.35641e-11
1.36096e-11
1.36569e-11
1.37491e-11
1.38531e-11
1.39739e-11
1.41883e-11
1.43091e-11
1.29752e-11
1.28593e-11
1.26531e-11
1.25396e-11
1.24426e-11
1.23565e-11
1.23132e-11
1.22704e-11
1.22478e-11
1.22268e-11
1.22144e-11
1.22057e-11
1.21982e-11
1.21947e-11
1.21897e-11
1.21886e-11
1.21854e-11
1.21852e-11
1.21833e-11
1.21834e-11
1.21823e-11
1.21825e-11
1.21819e-11
1.21821e-11
1.21819e-11
1.21819e-11
1.21821e-11
1.21819e-11
1.21825e-11
1.21823e-11
1.21834e-11
1.21833e-11
1.21852e-11
1.21854e-11
1.21886e-11
1.21898e-11
1.21948e-11
1.21982e-11
1.22056e-11
1.22142e-11
1.22268e-11
1.22479e-11
1.22703e-11
1.23132e-11
1.23564e-11
1.24426e-11
1.25395e-11
1.2653e-11
1.28592e-11
1.2975e-11
1.17092e-11
1.16004e-11
1.14307e-11
1.13254e-11
1.12363e-11
1.11564e-11
1.11171e-11
1.10771e-11
1.10567e-11
1.10373e-11
1.10258e-11
1.10179e-11
1.10109e-11
1.10078e-11
1.10032e-11
1.10022e-11
1.09992e-11
1.09991e-11
1.09972e-11
1.09974e-11
1.09964e-11
1.09966e-11
1.0996e-11
1.09962e-11
1.0996e-11
1.0996e-11
1.09962e-11
1.0996e-11
1.09966e-11
1.09963e-11
1.09974e-11
1.09972e-11
1.09991e-11
1.09992e-11
1.10022e-11
1.10032e-11
1.10079e-11
1.1011e-11
1.10178e-11
1.10257e-11
1.10373e-11
1.10567e-11
1.10771e-11
1.11171e-11
1.11564e-11
1.12363e-11
1.13253e-11
1.14305e-11
1.16002e-11
1.17091e-11
1.05535e-11
1.04519e-11
1.02907e-11
1.01936e-11
1.01126e-11
1.00386e-11
1.0003e-11
9.96584e-12
9.94728e-12
9.92948e-12
9.91903e-12
9.91172e-12
9.90536e-12
9.90255e-12
9.8983e-12
9.89737e-12
9.89466e-12
9.89453e-12
9.89286e-12
9.89303e-12
9.89205e-12
9.89227e-12
9.89174e-12
9.89188e-12
9.89171e-12
9.8917e-12
9.89188e-12
9.89173e-12
9.89225e-12
9.89203e-12
9.89302e-12
9.89285e-12
9.89453e-12
9.89467e-12
9.89739e-12
9.89833e-12
9.9026e-12
9.90538e-12
9.91162e-12
9.91881e-12
9.92959e-12
9.94734e-12
9.96582e-12
1.00029e-11
1.00385e-11
1.01125e-11
1.01935e-11
1.02905e-11
1.04518e-11
1.05534e-11
9.4787e-12
9.38347e-12
9.23247e-12
9.14256e-12
9.06923e-12
9.00092e-12
8.96888e-12
8.93453e-12
8.91781e-12
8.90154e-12
8.89201e-12
8.88535e-12
8.87954e-12
8.87702e-12
8.87312e-12
8.8723e-12
8.8698e-12
8.86971e-12
8.86816e-12
8.86833e-12
8.86743e-12
8.86764e-12
8.86715e-12
8.86729e-12
8.86713e-12
8.86712e-12
8.86728e-12
8.86714e-12
8.86762e-12
8.86741e-12
8.86832e-12
8.86816e-12
8.86971e-12
8.86981e-12
8.87232e-12
8.87315e-12
8.87706e-12
8.87957e-12
8.88525e-12
8.89176e-12
8.9017e-12
8.91787e-12
8.93451e-12
8.96885e-12
9.00085e-12
9.06919e-12
9.14248e-12
9.23236e-12
9.38338e-12
9.47858e-12
8.47247e-12
8.38152e-12
8.2413e-12
8.15681e-12
8.09019e-12
8.02714e-12
7.9982e-12
7.9664e-12
7.9513e-12
7.93639e-12
7.9277e-12
7.9216e-12
7.91632e-12
7.91403e-12
7.91046e-12
7.90973e-12
7.90744e-12
7.90736e-12
7.90594e-12
7.9061e-12
7.90527e-12
7.90547e-12
7.90502e-12
7.90514e-12
7.905e-12
7.90499e-12
7.90514e-12
7.90501e-12
7.90545e-12
7.90525e-12
7.90609e-12
7.90594e-12
7.90736e-12
7.90745e-12
7.90975e-12
7.91049e-12
7.91407e-12
7.91634e-12
7.92151e-12
7.92741e-12
7.93658e-12
7.95135e-12
7.96638e-12
7.99817e-12
8.02707e-12
8.09015e-12
8.15673e-12
8.24119e-12
8.38143e-12
8.47235e-12
7.53154e-12
7.44697e-12
7.31978e-12
7.24082e-12
7.18118e-12
7.12392e-12
7.0981e-12
7.06913e-12
7.05568e-12
7.04222e-12
7.03441e-12
7.0289e-12
7.02417e-12
7.02212e-12
7.0189e-12
7.01825e-12
7.01618e-12
7.01612e-12
7.01483e-12
7.01498e-12
7.01423e-12
7.01441e-12
7.014e-12
7.01412e-12
7.01398e-12
7.01398e-12
7.01412e-12
7.01399e-12
7.0144e-12
7.01421e-12
7.01497e-12
7.01483e-12
7.01612e-12
7.01619e-12
7.01827e-12
7.01893e-12
7.02216e-12
7.02419e-12
7.02883e-12
7.0341e-12
7.04243e-12
7.05572e-12
7.06911e-12
7.09807e-12
7.12386e-12
7.18114e-12
7.24075e-12
7.31967e-12
7.44689e-12
7.53144e-12
6.6656e-12
6.58735e-12
6.47298e-12
6.39908e-12
6.346e-12
6.29429e-12
6.2714e-12
6.24515e-12
6.23324e-12
6.22115e-12
6.21418e-12
6.20927e-12
6.20503e-12
6.20321e-12
6.20032e-12
6.19975e-12
6.19789e-12
6.19784e-12
6.19669e-12
6.19683e-12
6.19615e-12
6.19631e-12
6.19594e-12
6.19605e-12
6.19593e-12
6.19593e-12
6.19605e-12
6.19594e-12
6.1963e-12
6.19613e-12
6.19682e-12
6.19668e-12
6.19784e-12
6.1979e-12
6.19977e-12
6.20035e-12
6.20324e-12
6.20505e-12
6.20921e-12
6.21388e-12
6.22136e-12
6.23328e-12
6.24513e-12
6.27137e-12
6.29424e-12
6.34596e-12
6.39902e-12
6.47289e-12
6.58726e-12
6.66551e-12
5.87177e-12
5.79971e-12
5.6974e-12
5.64168e-12
5.5946e-12
5.54768e-12
5.52753e-12
5.50362e-12
5.49316e-12
5.48228e-12
5.47607e-12
5.47172e-12
5.46791e-12
5.46631e-12
5.46371e-12
5.46322e-12
5.46154e-12
5.46151e-12
5.46046e-12
5.4606e-12
5.45999e-12
5.46014e-12
5.4598e-12
5.4599e-12
5.45979e-12
5.45979e-12
5.4599e-12
5.4598e-12
5.46013e-12
5.45997e-12
5.46059e-12
5.46046e-12
5.46151e-12
5.46154e-12
5.46324e-12
5.46373e-12
5.46634e-12
5.46792e-12
5.47167e-12
5.47581e-12
5.48245e-12
5.49319e-12
5.5036e-12
5.5275e-12
5.54763e-12
5.59456e-12
5.64163e-12
5.69733e-12
5.79963e-12
5.87169e-12
5.15883e-12
5.09264e-12
5.00073e-12
4.94977e-12
4.90822e-12
4.86583e-12
4.84821e-12
4.82652e-12
4.81696e-12
4.80675e-12
4.801e-12
4.79697e-12
4.79341e-12
4.79194e-12
4.78951e-12
4.78906e-12
4.78748e-12
4.78746e-12
4.78648e-12
4.78661e-12
4.78603e-12
4.78617e-12
4.78586e-12
4.78595e-12
4.78585e-12
4.78585e-12
4.78595e-12
4.78585e-12
4.78616e-12
4.78601e-12
4.7866e-12
4.78647e-12
4.78746e-12
4.78749e-12
4.78908e-12
4.78953e-12
4.79197e-12
4.79343e-12
4.79693e-12
4.80077e-12
4.80689e-12
4.81698e-12
4.82651e-12
4.84818e-12
4.86579e-12
4.90819e-12
4.94972e-12
5.00067e-12
5.09256e-12
5.15876e-12
4.5019e-12
4.43998e-12
4.3563e-12
4.30958e-12
4.27307e-12
4.23529e-12
4.21994e-12
4.20052e-12
4.19216e-12
4.18305e-12
4.17797e-12
4.17443e-12
4.17127e-12
4.16998e-12
4.16782e-12
4.16743e-12
4.16602e-12
4.16601e-12
4.16513e-12
4.16525e-12
4.16473e-12
4.16486e-12
4.16458e-12
4.16466e-12
4.16457e-12
4.16457e-12
4.16466e-12
4.16457e-12
4.16485e-12
4.16472e-12
4.16524e-12
4.16512e-12
4.16601e-12
4.16602e-12
4.16744e-12
4.16783e-12
4.17001e-12
4.17129e-12
4.1744e-12
4.17779e-12
4.18317e-12
4.19218e-12
4.2005e-12
4.21992e-12
4.23525e-12
4.27303e-12
4.30953e-12
4.35625e-12
4.4399e-12
4.50182e-12
3.90073e-12
3.84437e-12
3.76987e-12
3.72823e-12
3.69641e-12
3.663e-12
3.64971e-12
3.63244e-12
3.62519e-12
3.61711e-12
3.61265e-12
3.60956e-12
3.60677e-12
3.60565e-12
3.60373e-12
3.60339e-12
3.60215e-12
3.60214e-12
3.60136e-12
3.60147e-12
3.60101e-12
3.60113e-12
3.60088e-12
3.60095e-12
3.60087e-12
3.60087e-12
3.60095e-12
3.60087e-12
3.60112e-12
3.601e-12
3.60146e-12
3.60136e-12
3.60214e-12
3.60215e-12
3.6034e-12
3.60375e-12
3.60567e-12
3.60679e-12
3.60953e-12
3.6125e-12
3.6172e-12
3.62521e-12
3.63243e-12
3.64969e-12
3.66296e-12
3.69638e-12
3.72819e-12
3.76982e-12
3.84428e-12
3.90067e-12
3.36576e-12
3.31399e-12
3.24845e-12
3.21105e-12
3.18351e-12
3.15391e-12
3.14256e-12
3.12717e-12
3.12094e-12
3.11377e-12
3.10987e-12
3.10718e-12
3.10473e-12
3.10375e-12
3.10206e-12
3.10177e-12
3.10067e-12
3.10067e-12
3.09998e-12
3.10008e-12
3.09967e-12
3.09978e-12
3.09955e-12
3.09962e-12
3.09955e-12
3.09955e-12
3.09962e-12
3.09955e-12
3.09977e-12
3.09966e-12
3.10007e-12
3.09997e-12
3.10067e-12
3.10067e-12
3.10178e-12
3.10207e-12
3.10377e-12
3.10474e-12
3.10716e-12
3.10974e-12
3.11384e-12
3.12095e-12
3.12716e-12
3.14254e-12
3.15388e-12
3.18348e-12
3.21101e-12
3.24841e-12
3.31391e-12
3.36571e-12
2.88283e-12
2.83604e-12
2.77888e-12
2.74527e-12
2.72116e-12
2.69437e-12
2.6845e-12
2.67055e-12
2.66511e-12
2.65864e-12
2.65518e-12
2.65279e-12
2.65064e-12
2.64982e-12
2.64834e-12
2.64812e-12
2.64715e-12
2.64717e-12
2.64656e-12
2.64666e-12
2.6463e-12
2.6464e-12
2.6462e-12
2.64626e-12
2.6462e-12
2.6462e-12
2.64626e-12
2.6462e-12
2.64639e-12
2.64629e-12
2.64665e-12
2.64656e-12
2.64717e-12
2.64715e-12
2.64813e-12
2.64836e-12
2.64984e-12
2.65065e-12
2.65277e-12
2.65507e-12
2.6587e-12
2.66512e-12
2.67054e-12
2.68448e-12
2.69434e-12
2.72113e-12
2.74523e-12
2.77885e-12
2.83597e-12
2.88279e-12
2.44877e-12
2.40762e-12
2.35761e-12
2.32766e-12
2.30706e-12
2.28359e-12
2.2753e-12
2.26299e-12
2.25838e-12
2.25269e-12
2.24969e-12
2.24764e-12
2.24578e-12
2.24508e-12
2.24379e-12
2.24361e-12
2.24276e-12
2.24278e-12
2.24225e-12
2.24234e-12
2.24202e-12
2.24211e-12
2.24194e-12
2.242e-12
2.24194e-12
2.24194e-12
2.242e-12
2.24194e-12
2.24211e-12
2.24202e-12
2.24233e-12
2.24225e-12
2.24278e-12
2.24276e-12
2.24362e-12
2.2438e-12
2.2451e-12
2.24579e-12
2.24763e-12
2.2496e-12
2.25274e-12
2.25839e-12
2.26298e-12
2.27528e-12
2.28357e-12
2.30704e-12
2.32763e-12
2.35757e-12
2.40756e-12
2.44873e-12
2.061e-12
2.0251e-12
1.98156e-12
1.95514e-12
1.93771e-12
1.91732e-12
1.91043e-12
1.89966e-12
1.89578e-12
1.89082e-12
1.88824e-12
1.88649e-12
1.88488e-12
1.8843e-12
1.88318e-12
1.88303e-12
1.8823e-12
1.88233e-12
1.88186e-12
1.88194e-12
1.88167e-12
1.88175e-12
1.8816e-12
1.88165e-12
1.8816e-12
1.8816e-12
1.88165e-12
1.8816e-12
1.88174e-12
1.88166e-12
1.88194e-12
1.88186e-12
1.88233e-12
1.8823e-12
1.88304e-12
1.88319e-12
1.88431e-12
1.88489e-12
1.88647e-12
1.88816e-12
1.89086e-12
1.89579e-12
1.89964e-12
1.91041e-12
1.9173e-12
1.93769e-12
1.95511e-12
1.98153e-12
2.02505e-12
2.06096e-12
1.71571e-12
1.68402e-12
1.64784e-12
1.62479e-12
1.61021e-12
1.59265e-12
1.58702e-12
1.57767e-12
1.57446e-12
1.57015e-12
1.56794e-12
1.56647e-12
1.5651e-12
1.56462e-12
1.56366e-12
1.56354e-12
1.56291e-12
1.56294e-12
1.56254e-12
1.56262e-12
1.56238e-12
1.56245e-12
1.56232e-12
1.56237e-12
1.56232e-12
1.56232e-12
1.56236e-12
1.56232e-12
1.56245e-12
1.56237e-12
1.56261e-12
1.56254e-12
1.56294e-12
1.56291e-12
1.56355e-12
1.56367e-12
1.56463e-12
1.56511e-12
1.56646e-12
1.56787e-12
1.57019e-12
1.57446e-12
1.57766e-12
1.587e-12
1.59263e-12
1.61019e-12
1.62477e-12
1.64782e-12
1.68399e-12
1.71568e-12
1.4118e-12
1.38458e-12
1.35374e-12
1.33387e-12
1.32184e-12
1.30688e-12
1.30238e-12
1.29435e-12
1.29172e-12
1.28801e-12
1.28615e-12
1.28491e-12
1.28377e-12
1.28337e-12
1.28256e-12
1.28247e-12
1.28193e-12
1.28196e-12
1.28162e-12
1.28169e-12
1.28149e-12
1.28155e-12
1.28144e-12
1.28148e-12
1.28144e-12
1.28144e-12
1.28148e-12
1.28144e-12
1.28155e-12
1.28148e-12
1.28169e-12
1.28162e-12
1.28196e-12
1.28193e-12
1.28247e-12
1.28256e-12
1.28338e-12
1.28377e-12
1.2849e-12
1.28609e-12
1.28804e-12
1.29172e-12
1.29433e-12
1.30236e-12
1.30686e-12
1.32182e-12
1.33385e-12
1.35372e-12
1.38456e-12
1.41178e-12
1.14587e-12
1.12271e-12
1.09672e-12
1.07985e-12
1.07009e-12
1.0575e-12
1.05402e-12
1.04721e-12
1.0451e-12
1.04193e-12
1.04038e-12
1.03935e-12
1.03841e-12
1.03809e-12
1.03741e-12
1.03735e-12
1.03689e-12
1.03693e-12
1.03664e-12
1.0367e-12
1.03653e-12
1.03659e-12
1.03649e-12
1.03653e-12
1.03649e-12
1.03649e-12
1.03653e-12
1.03649e-12
1.03658e-12
1.03653e-12
1.0367e-12
1.03664e-12
1.03693e-12
1.03689e-12
1.03735e-12
1.03742e-12
1.0381e-12
1.03842e-12
1.03935e-12
1.04035e-12
1.04194e-12
1.04509e-12
1.0472e-12
1.05401e-12
1.05748e-12
1.07008e-12
1.07983e-12
1.09671e-12
1.1227e-12
1.14585e-12
9.15539e-13
8.96067e-13
8.7447e-13
8.60378e-13
8.52176e-13
8.41469e-13
8.3888e-13
8.33071e-13
8.31373e-13
8.28657e-13
8.2735e-13
8.265e-13
8.25722e-13
8.25465e-13
8.24895e-13
8.24847e-13
8.24468e-13
8.24501e-13
8.2426e-13
8.24313e-13
8.24171e-13
8.24218e-13
8.2414e-13
8.24168e-13
8.24142e-13
8.24142e-13
8.24168e-13
8.24138e-13
8.24215e-13
8.24167e-13
8.24311e-13
8.24258e-13
8.245e-13
8.24469e-13
8.24851e-13
8.249e-13
8.25472e-13
8.25728e-13
8.26498e-13
8.27334e-13
8.28655e-13
8.31371e-13
8.33062e-13
8.38869e-13
8.41457e-13
8.52166e-13
8.60365e-13
8.7446e-13
8.96059e-13
9.15519e-13
7.1861e-13
7.02359e-13
6.84887e-13
6.73288e-13
6.66843e-13
6.58002e-13
6.56325e-13
6.51539e-13
6.5023e-13
6.47953e-13
6.469e-13
6.46213e-13
6.45595e-13
6.45396e-13
6.44933e-13
6.44901e-13
6.44593e-13
6.44624e-13
6.44428e-13
6.44474e-13
6.44358e-13
6.44398e-13
6.44335e-13
6.44358e-13
6.44337e-13
6.44336e-13
6.44358e-13
6.44333e-13
6.44395e-13
6.44355e-13
6.44472e-13
6.44427e-13
6.44623e-13
6.44594e-13
6.44905e-13
6.44937e-13
6.45401e-13
6.456e-13
6.46213e-13
6.46891e-13
6.47948e-13
6.50228e-13
6.51531e-13
6.56316e-13
6.57991e-13
6.66836e-13
6.73278e-13
6.84879e-13
7.02355e-13
7.18593e-13
5.52718e-13
5.39601e-13
5.25792e-13
5.16439e-13
5.11368e-13
5.04289e-13
5.02193e-13
4.983e-13
4.97296e-13
4.95388e-13
4.94551e-13
4.94e-13
4.93516e-13
4.93361e-13
4.92992e-13
4.9297e-13
4.92724e-13
4.92751e-13
4.92594e-13
4.92633e-13
4.9254e-13
4.92573e-13
4.92522e-13
4.92541e-13
4.92524e-13
4.92524e-13
4.92541e-13
4.92521e-13
4.92571e-13
4.92537e-13
4.92631e-13
4.92593e-13
4.9275e-13
4.92725e-13
4.92973e-13
4.92995e-13
4.93366e-13
4.9352e-13
4.94001e-13
4.94546e-13
4.95382e-13
4.97293e-13
4.98293e-13
5.02185e-13
5.0428e-13
5.11357e-13
5.16431e-13
5.25786e-13
5.39597e-13
5.52705e-13
4.16028e-13
4.05525e-13
3.94906e-13
3.87584e-13
3.8381e-13
3.78196e-13
3.76782e-13
3.7371e-13
3.72981e-13
3.71405e-13
3.7077e-13
3.70341e-13
3.69973e-13
3.69859e-13
3.69573e-13
3.6956e-13
3.69369e-13
3.69393e-13
3.69271e-13
3.69303e-13
3.69231e-13
3.69257e-13
3.69218e-13
3.69233e-13
3.6922e-13
3.6922e-13
3.69233e-13
3.69217e-13
3.69256e-13
3.69229e-13
3.69301e-13
3.6927e-13
3.69393e-13
3.6937e-13
3.69562e-13
3.69576e-13
3.69862e-13
3.69977e-13
3.70343e-13
3.70766e-13
3.714e-13
3.72979e-13
3.73704e-13
3.76776e-13
3.78188e-13
3.83802e-13
3.87578e-13
3.94901e-13
4.05521e-13
4.16019e-13
3.05891e-13
2.97609e-13
2.89708e-13
2.84192e-13
2.81163e-13
2.76734e-13
2.75781e-13
2.73375e-13
2.72849e-13
2.71512e-13
2.71037e-13
2.70705e-13
2.70428e-13
2.70344e-13
2.70126e-13
2.70118e-13
2.69972e-13
2.69992e-13
2.69899e-13
2.69924e-13
2.69869e-13
2.6989e-13
2.6986e-13
2.69872e-13
2.69862e-13
2.69862e-13
2.69872e-13
2.69859e-13
2.69889e-13
2.69868e-13
2.69923e-13
2.69898e-13
2.69992e-13
2.69973e-13
2.7012e-13
2.70128e-13
2.70347e-13
2.70431e-13
2.70708e-13
2.71034e-13
2.71507e-13
2.72846e-13
2.7337e-13
2.75776e-13
2.76728e-13
2.81158e-13
2.84187e-13
2.89705e-13
2.97606e-13
3.05884e-13
2.18332e-13
2.12926e-13
2.07002e-13
2.02349e-13
2.00141e-13
1.96876e-13
1.96249e-13
1.94471e-13
1.94114e-13
1.92976e-13
1.92638e-13
1.92395e-13
1.92197e-13
1.92137e-13
1.91979e-13
1.91974e-13
1.91869e-13
1.91884e-13
1.91816e-13
1.91835e-13
1.91795e-13
1.91811e-13
1.91789e-13
1.91798e-13
1.9179e-13
1.9179e-13
1.91798e-13
1.91789e-13
1.9181e-13
1.91794e-13
1.91834e-13
1.91816e-13
1.91883e-13
1.91869e-13
1.91975e-13
1.91981e-13
1.92139e-13
1.92199e-13
1.92397e-13
1.92636e-13
1.92973e-13
1.94112e-13
1.94468e-13
1.96245e-13
1.96871e-13
2.00137e-13
2.02345e-13
2.06998e-13
2.12924e-13
2.18327e-13
1.52077e-13
1.47693e-13
1.43219e-13
1.39918e-13
1.38386e-13
1.36071e-13
1.35666e-13
1.344e-13
1.34176e-13
1.3391e-13
1.33679e-13
1.33508e-13
1.33369e-13
1.33327e-13
1.33215e-13
1.33213e-13
1.33138e-13
1.3315e-13
1.33102e-13
1.33116e-13
1.33088e-13
1.33099e-13
1.33084e-13
1.3309e-13
1.33084e-13
1.33084e-13
1.3309e-13
1.33083e-13
1.33098e-13
1.33087e-13
1.33115e-13
1.33101e-13
1.3315e-13
1.33138e-13
1.33214e-13
1.33216e-13
1.33328e-13
1.3337e-13
1.33509e-13
1.33678e-13
1.33908e-13
1.34175e-13
1.34397e-13
1.35664e-13
1.36068e-13
1.38383e-13
1.39915e-13
1.43216e-13
1.47689e-13
1.52073e-13
1.02593e-13
9.94996e-14
9.64279e-14
9.41153e-14
9.30965e-14
9.14841e-14
9.12424e-14
9.03524e-14
9.02236e-14
9.00242e-14
8.98717e-14
8.9754e-14
8.96597e-14
8.96321e-14
8.95554e-14
8.95546e-14
8.95032e-14
8.95118e-14
8.94787e-14
8.94888e-14
8.94694e-14
8.94774e-14
8.94668e-14
8.94713e-14
8.94675e-14
8.94674e-14
8.94712e-14
8.94666e-14
8.94769e-14
8.94687e-14
8.94884e-14
8.94785e-14
8.95116e-14
8.95034e-14
8.95552e-14
8.95561e-14
8.9633e-14
8.96607e-14
8.97549e-14
8.9871e-14
9.00228e-14
9.02224e-14
9.03505e-14
9.12404e-14
9.14818e-14
9.30946e-14
9.41133e-14
9.64259e-14
9.94964e-14
1.02591e-13
6.66668e-14
6.4564e-14
6.25295e-14
6.09704e-14
6.03218e-14
5.92407e-14
5.91053e-14
5.85028e-14
5.84343e-14
5.82913e-14
5.81945e-14
5.81165e-14
5.80554e-14
5.80377e-14
5.79872e-14
5.79871e-14
5.79531e-14
5.79592e-14
5.79373e-14
5.79441e-14
5.79313e-14
5.79367e-14
5.79297e-14
5.79327e-14
5.79302e-14
5.79301e-14
5.79326e-14
5.79295e-14
5.79363e-14
5.79308e-14
5.79438e-14
5.79371e-14
5.7959e-14
5.79532e-14
5.79875e-14
5.79876e-14
5.80383e-14
5.80561e-14
5.81171e-14
5.81942e-14
5.82904e-14
5.84334e-14
5.85015e-14
5.91039e-14
5.92392e-14
6.03205e-14
6.09691e-14
6.25281e-14
6.45616e-14
6.66651e-14
4.14433e-14
4.00782e-14
3.87914e-14
3.77911e-14
3.74007e-14
3.67095e-14
3.66403e-14
3.62505e-14
3.62181e-14
3.61206e-14
3.60621e-14
3.60126e-14
3.5975e-14
3.59641e-14
3.59323e-14
3.59325e-14
3.59111e-14
3.59151e-14
3.59013e-14
3.59057e-14
3.58976e-14
3.59011e-14
3.58967e-14
3.58986e-14
3.5897e-14
3.5897e-14
3.58986e-14
3.58966e-14
3.59009e-14
3.58973e-14
3.59055e-14
3.59012e-14
3.5915e-14
3.59112e-14
3.59328e-14
3.59326e-14
3.59645e-14
3.59755e-14
3.60129e-14
3.60619e-14
3.61201e-14
3.62175e-14
3.62497e-14
3.66394e-14
3.67085e-14
3.74e-14
3.77903e-14
3.87906e-14
4.00765e-14
4.14423e-14
2.45113e-14
2.36725e-14
2.2865e-14
2.22375e-14
2.20016e-14
2.15755e-14
2.15404e-14
2.1306e-14
2.12917e-14
2.12299e-14
2.11963e-14
2.11665e-14
2.11451e-14
2.11386e-14
2.11199e-14
2.112e-14
2.11074e-14
2.11097e-14
2.11016e-14
2.11042e-14
2.10994e-14
2.11014e-14
2.10989e-14
2.11e-14
2.1099e-14
2.1099e-14
2.11e-14
2.10988e-14
2.11013e-14
2.10992e-14
2.11041e-14
2.11015e-14
2.11096e-14
2.11074e-14
2.11201e-14
2.11201e-14
2.11388e-14
2.11454e-14
2.11667e-14
2.11961e-14
2.12296e-14
2.12913e-14
2.13055e-14
2.15399e-14
2.15749e-14
2.2001e-14
2.22369e-14
2.28644e-14
2.36714e-14
2.45107e-14
1.3677e-14
1.32015e-14
1.28098e-14
1.24516e-14
1.23246e-14
1.20807e-14
1.20659e-14
1.19337e-14
1.19289e-14
1.18921e-14
1.18739e-14
1.18571e-14
1.18457e-14
1.1842e-14
1.18316e-14
1.18317e-14
1.18247e-14
1.1826e-14
1.18214e-14
1.18229e-14
1.18203e-14
1.18214e-14
1.18199e-14
1.18206e-14
1.18201e-14
1.182e-14
1.18206e-14
1.18199e-14
1.18213e-14
1.18201e-14
1.18228e-14
1.18214e-14
1.18259e-14
1.18247e-14
1.18318e-14
1.18317e-14
1.18422e-14
1.18459e-14
1.18572e-14
1.18738e-14
1.18919e-14
1.19287e-14
1.19334e-14
1.20656e-14
1.20804e-14
1.23243e-14
1.24513e-14
1.28095e-14
1.32009e-14
1.36767e-14
7.31661e-15
7.06093e-15
6.85552e-15
6.66107e-15
6.59587e-15
6.46996e-15
6.46427e-15
6.38721e-15
6.38614e-15
6.36548e-15
6.35609e-15
6.34698e-15
6.34135e-15
6.33935e-15
6.33391e-15
6.33391e-15
6.33022e-15
6.3309e-15
6.3285e-15
6.32926e-15
6.32787e-15
6.32846e-15
6.32771e-15
6.32804e-15
6.32776e-15
6.32775e-15
6.32803e-15
6.32769e-15
6.32842e-15
6.32782e-15
6.32923e-15
6.32848e-15
6.33087e-15
6.33023e-15
6.33396e-15
6.33396e-15
6.33942e-15
6.34144e-15
6.34704e-15
6.35605e-15
6.36539e-15
6.38604e-15
6.38705e-15
6.46411e-15
6.46977e-15
6.59571e-15
6.66089e-15
6.85533e-15
7.06061e-15
7.31646e-15
3.80629e-15
3.67619e-15
3.57432e-15
3.47563e-15
3.44391e-15
3.38031e-15
3.37822e-15
3.339e-15
3.33906e-15
3.32822e-15
3.32353e-15
3.31888e-15
3.31632e-15
3.31528e-15
3.3126e-15
3.31257e-15
3.31074e-15
3.31106e-15
3.30988e-15
3.31024e-15
3.30956e-15
3.30985e-15
3.30947e-15
3.30963e-15
3.30949e-15
3.30949e-15
3.30963e-15
3.30946e-15
3.30982e-15
3.30953e-15
3.31023e-15
3.30986e-15
3.31105e-15
3.31075e-15
3.31259e-15
3.31262e-15
3.31532e-15
3.31637e-15
3.31891e-15
3.32351e-15
3.32818e-15
3.33901e-15
3.33892e-15
3.37814e-15
3.38022e-15
3.44383e-15
3.47554e-15
3.57422e-15
3.67604e-15
3.80621e-15
2.0115e-15
1.94655e-15
1.897e-15
1.84822e-15
1.83274e-15
1.80143e-15
1.80043e-15
1.78106e-15
1.78121e-15
1.77571e-15
1.77319e-15
1.77086e-15
1.76989e-15
1.76934e-15
1.76804e-15
1.768e-15
1.76712e-15
1.76726e-15
1.76668e-15
1.76686e-15
1.76652e-15
1.76666e-15
1.76648e-15
1.76655e-15
1.76649e-15
1.76649e-15
1.76655e-15
1.76647e-15
1.76665e-15
1.76651e-15
1.76685e-15
1.76668e-15
1.76726e-15
1.76712e-15
1.76802e-15
1.76805e-15
1.76936e-15
1.76991e-15
1.77087e-15
1.77318e-15
1.77569e-15
1.78119e-15
1.78102e-15
1.80039e-15
1.80138e-15
1.8327e-15
1.84818e-15
1.89695e-15
1.94648e-15
2.01146e-15
1.17337e-15
1.13877e-15
1.11322e-15
1.0879e-15
1.07942e-15
1.06334e-15
1.06241e-15
1.05251e-15
1.05247e-15
1.04959e-15
1.04877e-15
1.04752e-15
1.04648e-15
1.04617e-15
1.0455e-15
1.04546e-15
1.045e-15
1.04506e-15
1.04476e-15
1.04485e-15
1.04467e-15
1.04474e-15
1.04465e-15
1.04469e-15
1.04465e-15
1.04465e-15
1.04469e-15
1.04465e-15
1.04474e-15
1.04467e-15
1.04485e-15
1.04476e-15
1.04506e-15
1.045e-15
1.04547e-15
1.0455e-15
1.04618e-15
1.0465e-15
1.04753e-15
1.04876e-15
1.04958e-15
1.05246e-15
1.05249e-15
1.0624e-15
1.06332e-15
1.0794e-15
1.08788e-15
1.11319e-15
1.13874e-15
1.17335e-15
8.33941e-16
8.1094e-16
7.95744e-16
7.80612e-16
7.74752e-16
7.65297e-16
7.64133e-16
7.58386e-16
7.58152e-16
7.56412e-16
7.55824e-16
7.55038e-16
7.54408e-16
7.54189e-16
7.53774e-16
7.53733e-16
7.53451e-16
7.5348e-16
7.53296e-16
7.53343e-16
7.53234e-16
7.53276e-16
7.53214e-16
7.5324e-16
7.53217e-16
7.53216e-16
7.53239e-16
7.53212e-16
7.53272e-16
7.53229e-16
7.5334e-16
7.53293e-16
7.53478e-16
7.53452e-16
7.53736e-16
7.53778e-16
7.54195e-16
7.54415e-16
7.55043e-16
7.55824e-16
7.56406e-16
7.58144e-16
7.58375e-16
7.64126e-16
7.65285e-16
7.74739e-16
7.80598e-16
7.95727e-16
8.10921e-16
8.33923e-16
7.29222e-16
7.09332e-16
6.98146e-16
6.867e-16
6.81573e-16
6.74635e-16
6.73152e-16
6.69016e-16
6.68631e-16
6.67307e-16
6.66775e-16
6.6615e-16
6.65658e-16
6.65461e-16
6.65138e-16
6.65086e-16
6.64867e-16
6.64878e-16
6.64734e-16
6.64766e-16
6.64679e-16
6.6471e-16
6.64661e-16
6.64681e-16
6.64662e-16
6.64661e-16
6.6468e-16
6.64659e-16
6.64707e-16
6.64675e-16
6.64763e-16
6.64732e-16
6.64877e-16
6.64868e-16
6.65089e-16
6.65141e-16
6.65465e-16
6.65664e-16
6.66155e-16
6.66777e-16
6.67304e-16
6.68626e-16
6.69008e-16
6.73147e-16
6.74626e-16
6.81562e-16
6.86688e-16
6.98133e-16
7.09319e-16
7.29206e-16
7.11116e-16
6.9141e-16
6.81551e-16
6.71266e-16
6.66163e-16
6.60045e-16
6.58335e-16
6.54739e-16
6.54267e-16
6.53062e-16
6.52529e-16
6.51949e-16
6.51494e-16
6.51294e-16
6.50997e-16
6.50935e-16
6.50735e-16
6.50737e-16
6.50604e-16
6.50629e-16
6.50549e-16
6.50577e-16
6.5053e-16
6.50548e-16
6.5053e-16
6.5053e-16
6.50548e-16
6.50528e-16
6.50574e-16
6.50545e-16
6.50627e-16
6.50602e-16
6.50735e-16
6.50735e-16
6.50938e-16
6.50999e-16
6.51297e-16
6.51499e-16
6.51953e-16
6.52534e-16
6.5306e-16
6.54263e-16
6.54733e-16
6.5833e-16
6.60037e-16
6.66153e-16
6.71254e-16
6.81538e-16
6.914e-16
7.11099e-16
)
;

boundaryField
{
    fuel
    {
        type            fixedValue;
        value           nonuniform 0();
    }
    wall
    {
        type            zeroGradient;
    }
    outlet
    {
        type            zeroGradient;
    }
    frontAndBack
    {
        type            empty;
    }
    procBoundary3to2
    {
        type            processor;
        value           nonuniform List<scalar> 
51
(
1.7815e-11
1.78049e-11
1.78001e-11
1.77936e-11
1.77919e-11
1.77877e-11
1.77874e-11
1.77848e-11
1.7785e-11
1.77835e-11
1.77838e-11
1.7783e-11
1.77832e-11
1.77829e-11
1.77829e-11
1.77832e-11
1.7783e-11
1.77838e-11
1.77835e-11
1.7785e-11
1.77848e-11
1.77874e-11
1.77877e-11
1.77919e-11
1.77936e-11
1.78002e-11
1.7805e-11
1.78149e-11
1.78264e-11
1.78433e-11
1.78709e-11
1.79022e-11
1.79581e-11
1.80157e-11
1.81286e-11
1.82568e-11
1.84013e-11
1.86441e-11
1.87809e-11
1.72062e-11
1.70741e-11
1.68408e-11
1.67038e-11
1.65837e-11
1.64779e-11
1.64235e-11
1.63711e-11
1.63422e-11
1.63161e-11
1.63006e-11
1.63006e-11
)
;
    }
}


// ************************************************************************* //
