/*--------------------------------*- C++ -*----------------------------------*\
| =========                 |                                                 |
| \\      /  F ield         | OpenFOAM: The Open Source CFD Toolbox           |
|  \\    /   O peration     | Version:  dev                                   |
|   \\  /    A nd           | Web:      www.OpenFOAM.org                      |
|    \\/     M anipulation  |                                                 |
\*---------------------------------------------------------------------------*/
FoamFile
{
    version     2.0;
    format      ascii;
    class       volScalarField;
    location    "0.085";
    object      AC3H4;
}
// * * * * * * * * * * * * * * * * * * * * * * * * * * * * * * * * * * * * * //

dimensions      [0 0 0 0 0 0 0];

internalField   nonuniform List<scalar> 
25
(
1.97756e-13
2.31829e-13
2.74166e-13
3.31827e-13
4.01853e-13
4.89338e-13
5.98022e-13
7.31412e-13
8.91115e-13
1.07636e-12
1.28371e-12
1.50615e-12
1.73304e-12
1.95079e-12
2.14421e-12
2.29824e-12
2.39962e-12
2.43806e-12
2.40654e-12
2.30072e-12
2.11777e-12
1.85567e-12
1.51391e-12
1.09522e-12
5.58634e-13
)
;

boundaryField
{
    wall
    {
        type            zeroGradient;
    }
    fuel
    {
        type            fixedValue;
        value           nonuniform 0();
    }
    outlet
    {
        type            inletOutlet;
        inletValue      uniform 0;
        value           uniform 0;
    }
    procBoundary3to2
    {
        type            processor;
        value           uniform 1.69816e-13;
    }
}


// ************************************************************************* //
