/*--------------------------------*- C++ -*----------------------------------*\
| =========                 |                                                 |
| \\      /  F ield         | OpenFOAM: The Open Source CFD Toolbox           |
|  \\    /   O peration     | Version:  dev                                   |
|   \\  /    A nd           | Web:      www.OpenFOAM.org                      |
|    \\/     M anipulation  |                                                 |
\*---------------------------------------------------------------------------*/
FoamFile
{
    version     2.0;
    format      ascii;
    class       volScalarField;
    location    "0.085";
    object      C;
}
// * * * * * * * * * * * * * * * * * * * * * * * * * * * * * * * * * * * * * //

dimensions      [0 0 0 0 0 0 0];

internalField   nonuniform List<scalar> 
250
(
8.63241e-07
8.62802e-07
8.62657e-07
8.62624e-07
8.62768e-07
8.62492e-07
8.62417e-07
8.58169e-07
8.11236e-07
4.11256e-07
1.99051e-11
1.7623e-06
1.76107e-06
1.76072e-06
1.76053e-06
1.76082e-06
1.76021e-06
1.76003e-06
1.75313e-06
1.6826e-06
1.04423e-06
7.13365e-11
6.74384e-07
6.73801e-07
6.73636e-07
6.73454e-07
6.73727e-07
6.73287e-07
6.73379e-07
6.70914e-07
6.43971e-07
4.31986e-07
3.68151e-11
2.05599e-07
2.05399e-07
2.05321e-07
2.05237e-07
2.05377e-07
2.0517e-07
2.05254e-07
2.04542e-07
1.95102e-07
1.33928e-07
1.32313e-11
7.29347e-08
7.28367e-08
7.27899e-08
7.27552e-08
7.28177e-08
7.27257e-08
7.2765e-08
7.24985e-08
6.88699e-08
4.48248e-08
4.91419e-12
3.4064e-08
3.39503e-08
3.39043e-08
3.3889e-08
3.39147e-08
3.38682e-08
3.38814e-08
3.37217e-08
2.98825e-08
1.71629e-08
2.05749e-12
2.03301e-08
2.0348e-08
2.03261e-08
2.03178e-08
2.03369e-08
2.03044e-08
2.0308e-08
2.01815e-08
1.76269e-08
8.27124e-09
1.08281e-12
1.47418e-08
1.47139e-08
1.46728e-08
1.46592e-08
1.46467e-08
1.46242e-08
1.46221e-08
1.45045e-08
1.2284e-08
4.40457e-09
6.41875e-13
1.18609e-08
1.18582e-08
1.18449e-08
1.18599e-08
1.1882e-08
1.18685e-08
1.17859e-08
1.17599e-08
9.53552e-09
2.87788e-09
6.25193e-13
1.02224e-08
1.02028e-08
1.01837e-08
1.02171e-08
1.02769e-08
1.02224e-08
1.02449e-08
1.00822e-08
8.17135e-09
2.11299e-09
9.09003e-13
9.16179e-09
9.25592e-09
9.17368e-09
9.23067e-09
9.17119e-09
9.26275e-09
9.05143e-09
7.32718e-09
1.68564e-09
1.39468e-12
8.51215e-09
8.53701e-09
8.43228e-09
8.50259e-09
8.42562e-09
8.52492e-09
8.33259e-09
6.7275e-09
1.4536e-09
2.34393e-12
7.95775e-09
7.96267e-09
7.91528e-09
7.93415e-09
7.90479e-09
7.95136e-09
7.77069e-09
6.26624e-09
1.37117e-09
4.59186e-12
7.4699e-09
7.47593e-09
7.4794e-09
7.50973e-09
7.46257e-09
7.46972e-09
7.35694e-09
5.90181e-09
1.36297e-09
9.4598e-12
7.02215e-09
7.03333e-09
7.03595e-09
7.07795e-09
7.06631e-09
7.0333e-09
6.94899e-09
5.62524e-09
1.40624e-09
1.7723e-11
6.58948e-09
6.66514e-09
6.61647e-09
6.66855e-09
6.64358e-09
6.66997e-09
6.55532e-09
5.35337e-09
1.48533e-09
3.03383e-11
6.21106e-09
6.26161e-09
6.2047e-09
6.26833e-09
6.22599e-09
6.27225e-09
6.17046e-09
5.07439e-09
1.59707e-09
4.92273e-11
5.83278e-09
5.85734e-09
5.83954e-09
5.86866e-09
5.85496e-09
5.87491e-09
5.78454e-09
4.82447e-09
1.71512e-09
7.81134e-11
5.42885e-09
5.44553e-09
5.43885e-09
5.46114e-09
5.47089e-09
5.46947e-09
5.38939e-09
4.55745e-09
1.83408e-09
1.22453e-10
5.03739e-09
5.06447e-09
5.01347e-09
5.09158e-09
5.05308e-09
5.10132e-09
5.03562e-09
4.2872e-09
1.94136e-09
1.88239e-10
4.63877e-09
4.68207e-09
4.62367e-09
4.67811e-09
4.63838e-09
4.6948e-09
4.67745e-09
4.00393e-09
2.02418e-09
2.79645e-10
4.20735e-09
4.24987e-09
4.18232e-09
4.23728e-09
4.24507e-09
4.25762e-09
4.26213e-09
3.70468e-09
2.07131e-09
3.95477e-10
3.77891e-09
3.79851e-09
3.77058e-09
3.83239e-09
3.79264e-09
3.85486e-09
3.83048e-09
3.38997e-09
2.07434e-09
5.26376e-10
3.36435e-09
3.38744e-09
3.35604e-09
3.42075e-09
3.38132e-09
3.44513e-09
3.43867e-09
3.06241e-09
2.02958e-09
6.55477e-10
)
;

boundaryField
{
    fuel
    {
        type            fixedValue;
        value           uniform 0;
    }
    wall
    {
        type            zeroGradient;
    }
    outlet
    {
        type            zeroGradient;
    }
    frontAndBack
    {
        type            empty;
    }
    procBoundary3to0
    {
        type            processor;
        value           nonuniform List<scalar> 10(2.94442e-09 2.97405e-09 2.93162e-09 3.00596e-09 2.96737e-09 3.0314e-09 3.04086e-09 2.72378e-09 1.93546e-09 7.59372e-10);
    }
    procBoundary3to2
    {
        type            processor;
        value           nonuniform List<scalar> 
25
(
8.6322e-07
1.76212e-06
6.74481e-07
2.05731e-07
7.30102e-08
3.40852e-08
2.03706e-08
1.475e-08
1.18886e-08
1.02298e-08
9.19871e-09
9.19871e-09
8.47117e-09
7.96489e-09
7.50002e-09
7.05797e-09
6.63903e-09
6.22955e-09
5.8196e-09
5.40057e-09
5.01839e-09
4.60298e-09
4.19879e-09
3.78705e-09
3.3702e-09
)
;
    }
}


// ************************************************************************* //
