/*--------------------------------*- C++ -*----------------------------------*\
| =========                 |                                                 |
| \\      /  F ield         | OpenFOAM: The Open Source CFD Toolbox           |
|  \\    /   O peration     | Version:  dev                                   |
|   \\  /    A nd           | Web:      www.OpenFOAM.org                      |
|    \\/     M anipulation  |                                                 |
\*---------------------------------------------------------------------------*/
FoamFile
{
    version     2.0;
    format      ascii;
    class       volScalarField;
    location    "0.085";
    object      CH;
}
// * * * * * * * * * * * * * * * * * * * * * * * * * * * * * * * * * * * * * //

dimensions      [0 0 0 0 0 0 0];

internalField   nonuniform List<scalar> 
25
(
1.09434e-11
9.25665e-12
7.70444e-12
6.1979e-12
4.91994e-12
3.81672e-12
2.88512e-12
2.11407e-12
1.49505e-12
1.01656e-12
6.61448e-13
4.09741e-13
2.40445e-13
1.33211e-13
6.98175e-14
3.5242e-14
1.80908e-14
1.04656e-14
7.37085e-15
5.98571e-15
4.97862e-15
3.93024e-15
2.86257e-15
1.87338e-15
8.61331e-16
)
;

boundaryField
{
    wall
    {
        type            zeroGradient;
    }
    fuel
    {
        type            fixedValue;
        value           nonuniform 0();
    }
    outlet
    {
        type            inletOutlet;
        inletValue      uniform 0;
        value           uniform 0;
    }
    procBoundary3to2
    {
        type            processor;
        value           uniform 1.27328e-11;
    }
}


// ************************************************************************* //
