/*--------------------------------*- C++ -*----------------------------------*\
| =========                 |                                                 |
| \\      /  F ield         | OpenFOAM: The Open Source CFD Toolbox           |
|  \\    /   O peration     | Version:  dev                                   |
|   \\  /    A nd           | Web:      www.OpenFOAM.org                      |
|    \\/     M anipulation  |                                                 |
\*---------------------------------------------------------------------------*/
FoamFile
{
    version     2.0;
    format      ascii;
    class       volScalarField;
    location    "0.085";
    object      CH2CO;
}
// * * * * * * * * * * * * * * * * * * * * * * * * * * * * * * * * * * * * * //

dimensions      [0 0 0 0 0 0 0];

internalField   nonuniform List<scalar> 
250
(
0.00118953
0.00118982
0.00118991
0.00118991
0.00118982
0.00118997
0.00119002
0.00119281
0.00122503
0.00167109
0.00015162
0.000284546
0.000284657
0.000284694
0.000284683
0.000284693
0.000284697
0.000284758
0.000285444
0.000292087
0.000386604
0.000348308
0.000131733
0.000131813
0.000131838
0.000131827
0.000131851
0.000131833
0.000131905
0.000132269
0.000135
0.000172512
0.0004741
8.69143e-05
8.69857e-05
8.70073e-05
8.6997e-05
8.70234e-05
8.70018e-05
8.7083e-05
8.74046e-05
8.93637e-05
0.000116647
0.000523343
6.58933e-05
6.59537e-05
6.59718e-05
6.59625e-05
6.59899e-05
6.59673e-05
6.60543e-05
6.63804e-05
6.82119e-05
9.19285e-05
0.00051726
5.39418e-05
5.39681e-05
5.39753e-05
5.39686e-05
5.3994e-05
5.39713e-05
5.40595e-05
5.43965e-05
5.5235e-05
7.58942e-05
0.000482337
4.65275e-05
4.66156e-05
4.66255e-05
4.66224e-05
4.66509e-05
4.66251e-05
4.67123e-05
4.70673e-05
4.79102e-05
6.48618e-05
0.000439162
4.19355e-05
4.19804e-05
4.19637e-05
4.19554e-05
4.19589e-05
4.1933e-05
4.20163e-05
4.23952e-05
4.29649e-05
5.54111e-05
0.000397024
3.86464e-05
3.87215e-05
3.87361e-05
3.87616e-05
3.8813e-05
3.87901e-05
3.87708e-05
3.92961e-05
3.93698e-05
4.89787e-05
0.000349613
3.61659e-05
3.62163e-05
3.62292e-05
3.62828e-05
3.64154e-05
3.63131e-05
3.64689e-05
3.68103e-05
3.70345e-05
4.39657e-05
0.000288088
3.42263e-05
3.44777e-05
3.42869e-05
3.44343e-05
3.43049e-05
3.4635e-05
3.48823e-05
3.52252e-05
3.9663e-05
0.000220708
3.27575e-05
3.28487e-05
3.25858e-05
3.27742e-05
3.25929e-05
3.29783e-05
3.32651e-05
3.36588e-05
3.59393e-05
0.000160913
3.13428e-05
3.1372e-05
3.12599e-05
3.13068e-05
3.12543e-05
3.15129e-05
3.18283e-05
3.22381e-05
3.34949e-05
0.000114396
3.0009e-05
3.00297e-05
3.00735e-05
3.01423e-05
3.00477e-05
3.01901e-05
3.06964e-05
3.09763e-05
3.16297e-05
8.00367e-05
2.87575e-05
2.87813e-05
2.88386e-05
2.89295e-05
2.89461e-05
2.89614e-05
2.95451e-05
2.99587e-05
3.02188e-05
5.72514e-05
2.75641e-05
2.77591e-05
2.76843e-05
2.77907e-05
2.77814e-05
2.79525e-05
2.84343e-05
2.8943e-05
2.91535e-05
4.25594e-05
2.65625e-05
2.6678e-05
2.65941e-05
2.67152e-05
2.66691e-05
2.68842e-05
2.73749e-05
2.79301e-05
2.82806e-05
3.35637e-05
2.56162e-05
2.56485e-05
2.56805e-05
2.56955e-05
2.57327e-05
2.5868e-05
2.63563e-05
2.70818e-05
2.76333e-05
2.83406e-05
2.4667e-05
2.4662e-05
2.47393e-05
2.47198e-05
2.4822e-05
2.48919e-05
2.53677e-05
2.62528e-05
2.71054e-05
2.54694e-05
2.38076e-05
2.38111e-05
2.38054e-05
2.38963e-05
2.38926e-05
2.4065e-05
2.45379e-05
2.54935e-05
2.66586e-05
2.4022e-05
2.29907e-05
2.30162e-05
2.30084e-05
2.30376e-05
2.30333e-05
2.32128e-05
2.37535e-05
2.47756e-05
2.62656e-05
2.34376e-05
2.21586e-05
2.21731e-05
2.21611e-05
2.21783e-05
2.22715e-05
2.23524e-05
2.28997e-05
2.40856e-05
2.59044e-05
2.33579e-05
2.13783e-05
2.13397e-05
2.14143e-05
2.14351e-05
2.14422e-05
2.16057e-05
2.20607e-05
2.34151e-05
2.55558e-05
2.35302e-05
2.06588e-05
2.0617e-05
2.06977e-05
2.07169e-05
2.07242e-05
2.08835e-05
2.1337e-05
2.27563e-05
2.52022e-05
2.37743e-05
)
;

boundaryField
{
    fuel
    {
        type            fixedValue;
        value           uniform 0;
    }
    wall
    {
        type            zeroGradient;
    }
    outlet
    {
        type            zeroGradient;
    }
    frontAndBack
    {
        type            empty;
    }
    procBoundary3to0
    {
        type            processor;
        value           nonuniform List<scalar> 10(1.99517e-05 1.99159e-05 1.99862e-05 2.0018e-05 2.00261e-05 2.01797e-05 2.06297e-05 2.20931e-05 2.4814e-05 2.39522e-05);
    }
    procBoundary3to2
    {
        type            processor;
        value           nonuniform List<scalar> 
25
(
0.00118955
0.00028459
0.000131786
8.69745e-05
6.59551e-05
5.39936e-05
4.65985e-05
4.19855e-05
3.87285e-05
3.62232e-05
3.42072e-05
3.42072e-05
3.2546e-05
3.12535e-05
2.99867e-05
2.87537e-05
2.75986e-05
2.65101e-05
2.54769e-05
2.44857e-05
2.36434e-05
2.27886e-05
2.20091e-05
2.12595e-05
2.05347e-05
)
;
    }
}


// ************************************************************************* //
