/*--------------------------------*- C++ -*----------------------------------*\
| =========                 |                                                 |
| \\      /  F ield         | OpenFOAM: The Open Source CFD Toolbox           |
|  \\    /   O peration     | Version:  dev                                   |
|   \\  /    A nd           | Web:      www.OpenFOAM.org                      |
|    \\/     M anipulation  |                                                 |
\*---------------------------------------------------------------------------*/
FoamFile
{
    version     2.0;
    format      ascii;
    class       volScalarField;
    location    "0.085";
    object      CH3OH;
}
// * * * * * * * * * * * * * * * * * * * * * * * * * * * * * * * * * * * * * //

dimensions      [0 0 0 0 0 0 0];

internalField   nonuniform List<scalar> 
25
(
5.24726e-10
5.28436e-10
5.26066e-10
5.16357e-10
4.99948e-10
4.76724e-10
4.47024e-10
4.11624e-10
3.72048e-10
3.30401e-10
2.89081e-10
2.50654e-10
2.17588e-10
1.91895e-10
1.74783e-10
1.66361e-10
1.6547e-10
1.69675e-10
1.75427e-10
1.78422e-10
1.74282e-10
1.59681e-10
1.33552e-10
9.73521e-11
4.95367e-11
)
;

boundaryField
{
    wall
    {
        type            zeroGradient;
    }
    fuel
    {
        type            fixedValue;
        value           nonuniform 0();
    }
    outlet
    {
        type            inletOutlet;
        inletValue      uniform 0;
        value           uniform 0;
    }
    procBoundary3to2
    {
        type            processor;
        value           uniform 5.15586e-10;
    }
}


// ************************************************************************* //
