/*--------------------------------*- C++ -*----------------------------------*\
| =========                 |                                                 |
| \\      /  F ield         | OpenFOAM: The Open Source CFD Toolbox           |
|  \\    /   O peration     | Version:  dev                                   |
|   \\  /    A nd           | Web:      www.OpenFOAM.org                      |
|    \\/     M anipulation  |                                                 |
\*---------------------------------------------------------------------------*/
FoamFile
{
    version     2.0;
    format      ascii;
    class       volScalarField;
    location    "0.085";
    object      H;
}
// * * * * * * * * * * * * * * * * * * * * * * * * * * * * * * * * * * * * * //

dimensions      [0 0 0 0 0 0 0];

internalField   nonuniform List<scalar> 
250
(
0.000111615
0.0001116
0.000111595
0.000111594
0.000111599
0.000111589
0.000111584
0.000111407
0.000109448
8.86077e-05
4.28948e-09
0.000123813
0.000123791
0.000123786
0.000123782
0.000123788
0.000123773
0.000123764
0.00012358
0.000121766
0.000103882
7.2358e-09
8.57874e-05
8.57686e-05
8.57634e-05
8.5757e-05
8.57668e-05
8.57482e-05
8.57421e-05
8.55844e-05
8.40475e-05
7.18887e-05
6.358e-09
5.91507e-05
5.91361e-05
5.91298e-05
5.9124e-05
5.91339e-05
5.91157e-05
5.91093e-05
5.89686e-05
5.75601e-05
4.79405e-05
5.25297e-09
4.44864e-05
4.4471e-05
4.44625e-05
4.44581e-05
4.44661e-05
4.44502e-05
4.44405e-05
4.43035e-05
4.30363e-05
3.4117e-05
5.10489e-09
3.66025e-05
3.65714e-05
3.65576e-05
3.65543e-05
3.65585e-05
3.65452e-05
3.65306e-05
3.63845e-05
3.45749e-05
2.57496e-05
7.3748e-09
3.22236e-05
3.22324e-05
3.2223e-05
3.222e-05
3.2224e-05
3.22112e-05
3.2193e-05
3.20315e-05
3.02661e-05
2.09819e-05
1.97286e-08
2.98543e-05
2.98425e-05
2.98223e-05
2.98152e-05
2.98055e-05
2.97947e-05
2.97735e-05
2.95915e-05
2.76962e-05
1.76888e-05
6.76855e-08
2.84332e-05
2.84317e-05
2.84222e-05
2.84293e-05
2.84361e-05
2.84292e-05
2.8364e-05
2.82082e-05
2.61002e-05
1.58608e-05
2.04313e-07
2.75816e-05
2.75688e-05
2.75525e-05
2.75712e-05
2.75963e-05
2.75683e-05
2.75518e-05
2.73059e-05
2.52314e-05
1.47354e-05
4.59216e-07
2.70309e-05
2.70703e-05
2.70321e-05
2.70556e-05
2.70246e-05
2.70376e-05
2.67501e-05
2.4684e-05
1.4068e-05
7.62429e-07
2.67049e-05
2.67132e-05
2.66624e-05
2.66943e-05
2.66529e-05
2.66662e-05
2.63738e-05
2.43068e-05
1.37836e-05
1.1286e-06
2.6434e-05
2.64359e-05
2.64071e-05
2.64192e-05
2.6396e-05
2.63851e-05
2.60857e-05
2.4032e-05
1.38123e-05
1.62353e-06
2.61903e-05
2.61963e-05
2.61858e-05
2.62082e-05
2.61718e-05
2.61448e-05
2.58692e-05
2.38231e-05
1.40393e-05
2.26471e-06
2.59483e-05
2.59617e-05
2.59439e-05
2.5979e-05
2.59557e-05
2.59111e-05
2.56443e-05
2.36627e-05
1.44047e-05
2.98598e-06
2.56845e-05
2.57428e-05
2.56868e-05
2.57366e-05
2.56993e-05
2.56939e-05
2.54066e-05
2.34936e-05
1.48552e-05
3.78095e-06
2.54186e-05
2.54705e-05
2.53969e-05
2.54663e-05
2.54097e-05
2.5425e-05
2.51457e-05
2.32959e-05
1.53867e-05
4.65246e-06
2.51125e-05
2.51569e-05
2.51003e-05
2.51556e-05
2.5113e-05
2.5117e-05
2.48483e-05
2.30876e-05
1.58903e-05
5.61015e-06
2.47374e-05
2.47895e-05
2.47276e-05
2.47905e-05
2.47617e-05
2.4756e-05
2.45008e-05
2.28266e-05
1.63615e-05
6.65368e-06
2.43215e-05
2.43997e-05
2.42745e-05
2.44111e-05
2.43258e-05
2.4381e-05
2.41461e-05
2.252e-05
1.67678e-05
7.76074e-06
2.38407e-05
2.3956e-05
2.38014e-05
2.39294e-05
2.38317e-05
2.39115e-05
2.37402e-05
2.21525e-05
1.70802e-05
8.88511e-06
2.32535e-05
2.33895e-05
2.31967e-05
2.33466e-05
2.33016e-05
2.33393e-05
2.32096e-05
2.17145e-05
1.72758e-05
9.96268e-06
2.25945e-05
2.2719e-05
2.25603e-05
2.27407e-05
2.26149e-05
2.27427e-05
2.2585e-05
2.11998e-05
1.73383e-05
1.09242e-05
2.18768e-05
2.2027e-05
2.18406e-05
2.20476e-05
2.19097e-05
2.20599e-05
2.1944e-05
2.06043e-05
1.72601e-05
1.17101e-05
)
;

boundaryField
{
    fuel
    {
        type            fixedValue;
        value           uniform 0;
    }
    wall
    {
        type            zeroGradient;
    }
    outlet
    {
        type            zeroGradient;
    }
    frontAndBack
    {
        type            empty;
    }
    procBoundary3to0
    {
        type            processor;
        value           nonuniform List<scalar> 10(2.106e-05 2.12418e-05 2.10124e-05 2.12607e-05 2.11114e-05 2.12832e-05 2.12116e-05 1.99213e-05 1.70344e-05 1.22632e-05);
    }
    procBoundary3to2
    {
        type            processor;
        value           nonuniform List<scalar> 
25
(
0.000111615
0.000123812
8.57935e-05
5.91628e-05
4.44986e-05
3.66072e-05
3.22383e-05
2.98567e-05
2.8445e-05
2.75822e-05
2.70569e-05
2.70569e-05
2.66982e-05
2.64533e-05
2.62252e-05
2.59928e-05
2.57459e-05
2.54691e-05
2.51484e-05
2.47693e-05
2.43717e-05
2.38802e-05
2.33382e-05
2.27157e-05
2.2006e-05
)
;
    }
}


// ************************************************************************* //
