/*--------------------------------*- C++ -*----------------------------------*\
| =========                 |                                                 |
| \\      /  F ield         | OpenFOAM: The Open Source CFD Toolbox           |
|  \\    /   O peration     | Version:  dev                                   |
|   \\  /    A nd           | Web:      www.OpenFOAM.org                      |
|    \\/     M anipulation  |                                                 |
\*---------------------------------------------------------------------------*/
FoamFile
{
    version     2.0;
    format      ascii;
    class       volScalarField;
    location    "0.085";
    object      H2;
}
// * * * * * * * * * * * * * * * * * * * * * * * * * * * * * * * * * * * * * //

dimensions      [0 0 0 0 0 0 0];

internalField   nonuniform List<scalar> 
250
(
0.00609678
0.00609723
0.00609737
0.00609742
0.0060974
0.00609738
0.00609718
0.00609544
0.00607945
0.00589335
0.000954828
0.00701732
0.00701822
0.0070185
0.00701865
0.0070185
0.00701858
0.00701799
0.00701478
0.00699057
0.00675033
0.00254934
0.00743645
0.00743781
0.00743825
0.0074385
0.00743821
0.0074384
0.00743723
0.00743184
0.00739615
0.00706797
0.00404037
0.00769289
0.00769479
0.00769543
0.00769579
0.00769535
0.00769564
0.0076938
0.00768599
0.00764006
0.00725708
0.00526969
0.00786976
0.00787243
0.00787331
0.00787378
0.00787317
0.00787359
0.00787103
0.0078606
0.00780485
0.00739572
0.00620689
0.0080035
0.0080074
0.00800872
0.00800925
0.00800848
0.00800904
0.00800584
0.00799263
0.00794027
0.00751805
0.00688799
0.00811372
0.00811742
0.00811911
0.00811966
0.00811865
0.00811943
0.00811577
0.00809953
0.00804037
0.00762067
0.00736875
0.0082042
0.00820943
0.0082121
0.00821287
0.00821224
0.00821323
0.00820934
0.00818986
0.008131
0.0077283
0.00770235
0.00828913
0.00829399
0.00829595
0.00829604
0.00829377
0.00829495
0.00829367
0.0082676
0.00821902
0.00781915
0.00793275
0.0083697
0.0083758
0.0083777
0.00837723
0.00837143
0.00837581
0.00836799
0.00834611
0.00829085
0.00790743
0.00809425
0.00845244
0.00844464
0.00845462
0.00844742
0.00845349
0.00843758
0.00841843
0.00835739
0.00800189
0.00821163
0.00851536
0.00851426
0.00852845
0.00851875
0.00852765
0.00850805
0.00848662
0.00842355
0.00810461
0.00830013
0.00858062
0.00858213
0.00859018
0.00858655
0.00858983
0.00857523
0.00855197
0.00849037
0.00818741
0.00836888
0.00864536
0.00864679
0.00864812
0.00864284
0.00864852
0.00863891
0.00860596
0.00855492
0.00826607
0.00842603
0.00870835
0.00870882
0.0087106
0.00870331
0.00870389
0.00869996
0.00866273
0.00861068
0.00834105
0.00847313
0.00877005
0.00876064
0.00877063
0.00876138
0.0087639
0.00875118
0.00871889
0.00866987
0.0084129
0.00851471
0.00882291
0.00881617
0.00882857
0.00881713
0.00882238
0.00880623
0.0087735
0.00873246
0.00848839
0.00855333
0.00887361
0.00886953
0.00887798
0.00887059
0.00887236
0.00885917
0.00882678
0.00878783
0.00855863
0.00859101
0.00892505
0.00892086
0.00892953
0.00892209
0.00892148
0.00891036
0.00887904
0.00884474
0.00862925
0.00862964
0.00897194
0.00896509
0.00898108
0.00896565
0.00897187
0.00895382
0.00892317
0.0088992
0.00870083
0.00867069
0.00901651
0.00900608
0.00902516
0.00901084
0.00901845
0.00899838
0.00896485
0.00895243
0.00877353
0.00871513
0.00906152
0.00904889
0.00907161
0.0090555
0.00905936
0.00904285
0.00900982
0.00900445
0.00884729
0.00876339
0.00910294
0.00909022
0.00911178
0.00909338
0.00910295
0.00908071
0.00905329
0.00905487
0.00892169
0.00881528
0.00913985
0.00912493
0.00914899
0.00912882
0.00913948
0.0091162
0.00908981
0.00910304
0.00899599
0.00887002
)
;

boundaryField
{
    fuel
    {
        type            fixedValue;
        value           uniform 0;
    }
    wall
    {
        type            zeroGradient;
    }
    outlet
    {
        type            zeroGradient;
    }
    frontAndBack
    {
        type            empty;
    }
    procBoundary3to0
    {
        type            processor;
        value           nonuniform List<scalar> 10(0.00917427 0.00915708 0.00918391 0.00916175 0.00917317 0.00914932 0.00912407 0.00914816 0.00906841 0.00892646);
    }
    procBoundary3to2
    {
        type            processor;
        value           nonuniform List<scalar> 
25
(
0.006097
0.00701766
0.00743687
0.00769341
0.00787047
0.0080046
0.00811477
0.0082059
0.00829006
0.00837162
0.00844485
0.00844485
0.00851607
0.00857552
0.00863668
0.00869822
0.00875725
0.00881378
0.00886798
0.0089202
0.00896452
0.00900908
0.0090491
0.00908666
0.00912174
)
;
    }
}


// ************************************************************************* //
