/*--------------------------------*- C++ -*----------------------------------*\
| =========                 |                                                 |
| \\      /  F ield         | OpenFOAM: The Open Source CFD Toolbox           |
|  \\    /   O peration     | Version:  dev                                   |
|   \\  /    A nd           | Web:      www.OpenFOAM.org                      |
|    \\/     M anipulation  |                                                 |
\*---------------------------------------------------------------------------*/
FoamFile
{
    version     2.0;
    format      ascii;
    class       volScalarField;
    location    "0.085";
    object      H2C4O;
}
// * * * * * * * * * * * * * * * * * * * * * * * * * * * * * * * * * * * * * //

dimensions      [0 0 0 0 0 0 0];

internalField   nonuniform List<scalar> 
25
(
1.88244e-15
1.44168e-15
1.09912e-15
8.12703e-16
6.00757e-16
4.38843e-16
3.16774e-16
2.25078e-16
1.56888e-16
1.07082e-16
7.14587e-17
4.66097e-17
2.97651e-17
1.86885e-17
1.16185e-17
7.22697e-18
4.56132e-18
2.97105e-18
2.0295e-18
1.46576e-18
1.11186e-18
8.64846e-19
6.61938e-19
4.6574e-19
2.35557e-19
)
;

boundaryField
{
    wall
    {
        type            zeroGradient;
    }
    fuel
    {
        type            fixedValue;
        value           nonuniform 0();
    }
    outlet
    {
        type            inletOutlet;
        inletValue      uniform 0;
        value           uniform 0;
    }
    procBoundary3to2
    {
        type            processor;
        value           uniform 2.42699e-15;
    }
}


// ************************************************************************* //
