/*--------------------------------*- C++ -*----------------------------------*\
| =========                 |                                                 |
| \\      /  F ield         | OpenFOAM: The Open Source CFD Toolbox           |
|  \\    /   O peration     | Version:  dev                                   |
|   \\  /    A nd           | Web:      www.OpenFOAM.org                      |
|    \\/     M anipulation  |                                                 |
\*---------------------------------------------------------------------------*/
FoamFile
{
    version     2.0;
    format      ascii;
    class       volScalarField;
    location    "0.085";
    object      HCCOH;
}
// * * * * * * * * * * * * * * * * * * * * * * * * * * * * * * * * * * * * * //

dimensions      [0 0 0 0 0 0 0];

internalField   nonuniform List<scalar> 
250
(
1.95695e-05
1.957e-05
1.95701e-05
1.95697e-05
1.95709e-05
1.95691e-05
1.95708e-05
1.95587e-05
1.93777e-05
1.69789e-05
3.03145e-07
2.02017e-05
2.02061e-05
2.02073e-05
2.02063e-05
2.02088e-05
2.02059e-05
2.02119e-05
2.02176e-05
2.01529e-05
1.85861e-05
6.12457e-07
1.83955e-05
1.84034e-05
1.84056e-05
1.84042e-05
1.84081e-05
1.8404e-05
1.84149e-05
1.84338e-05
1.83974e-05
1.65779e-05
7.92427e-07
1.70041e-05
1.70147e-05
1.70178e-05
1.70161e-05
1.70213e-05
1.7016e-05
1.70321e-05
1.70639e-05
1.70308e-05
1.46845e-05
8.57421e-07
1.59207e-05
1.59322e-05
1.59361e-05
1.59341e-05
1.59407e-05
1.59341e-05
1.59556e-05
1.6001e-05
1.59718e-05
1.31766e-05
8.44811e-07
1.50205e-05
1.50292e-05
1.50324e-05
1.50306e-05
1.50386e-05
1.50306e-05
1.50564e-05
1.51166e-05
1.50058e-05
1.19746e-05
7.91246e-07
1.42272e-05
1.42432e-05
1.42459e-05
1.4245e-05
1.42548e-05
1.42448e-05
1.42729e-05
1.43502e-05
1.42483e-05
1.11364e-05
7.23476e-07
1.35472e-05
1.3557e-05
1.35548e-05
1.35532e-05
1.356e-05
1.35483e-05
1.35766e-05
1.3673e-05
1.3541e-05
1.04346e-05
6.56832e-07
1.28916e-05
1.29094e-05
1.29152e-05
1.29197e-05
1.29389e-05
1.29257e-05
1.29327e-05
1.30737e-05
1.28513e-05
9.95157e-06
5.94969e-07
1.22623e-05
1.22752e-05
1.22838e-05
1.2294e-05
1.23393e-05
1.2302e-05
1.23576e-05
1.24603e-05
1.22941e-05
9.57249e-06
5.42389e-07
1.1681e-05
1.17641e-05
1.16976e-05
1.17513e-05
1.17027e-05
1.1817e-05
1.18937e-05
1.1789e-05
9.25244e-06
5.22656e-07
1.11947e-05
1.1226e-05
1.11329e-05
1.1202e-05
1.11347e-05
1.12719e-05
1.1362e-05
1.13018e-05
8.97696e-06
5.67035e-07
1.06955e-05
1.07059e-05
1.06646e-05
1.06846e-05
1.06621e-05
1.07567e-05
1.08576e-05
1.08277e-05
8.80834e-06
7.13661e-07
1.02074e-05
1.02156e-05
1.023e-05
1.02579e-05
1.02207e-05
1.02734e-05
1.04439e-05
1.0388e-05
8.68587e-06
1.00575e-06
9.74036e-06
9.75036e-06
9.7693e-06
9.80515e-06
9.80886e-06
9.81535e-06
1.00145e-05
1.00231e-05
8.59584e-06
1.44115e-06
9.29062e-06
9.36327e-06
9.33373e-06
9.37523e-06
9.36964e-06
9.43306e-06
9.59527e-06
9.653e-06
8.52714e-06
2.0094e-06
8.90911e-06
8.95241e-06
8.9196e-06
8.96648e-06
8.94772e-06
9.02682e-06
9.1927e-06
9.28002e-06
8.46158e-06
2.67505e-06
8.54666e-06
8.55972e-06
8.56893e-06
8.57729e-06
8.58904e-06
8.63887e-06
8.80418e-06
8.96343e-06
8.4064e-06
3.39362e-06
8.18271e-06
8.18265e-06
8.2073e-06
8.2038e-06
8.23895e-06
8.26527e-06
8.4265e-06
8.65106e-06
8.34879e-06
4.11959e-06
7.85073e-06
7.85399e-06
7.84785e-06
7.88499e-06
7.88181e-06
7.94527e-06
8.10589e-06
8.36088e-06
8.28474e-06
4.81247e-06
7.53327e-06
7.54485e-06
7.53726e-06
7.5526e-06
7.54855e-06
7.61526e-06
7.80039e-06
8.08287e-06
8.21121e-06
5.4402e-06
7.21011e-06
7.21753e-06
7.20803e-06
7.21996e-06
7.25026e-06
7.28208e-06
7.46897e-06
7.81219e-06
8.12518e-06
5.98017e-06
6.90329e-06
6.89337e-06
6.91366e-06
6.92785e-06
6.92677e-06
6.98865e-06
7.14242e-06
7.54559e-06
8.02201e-06
6.4187e-06
6.61725e-06
6.60709e-06
6.62812e-06
6.64291e-06
6.64134e-06
6.70224e-06
6.85557e-06
7.28015e-06
7.89888e-06
6.74958e-06
)
;

boundaryField
{
    fuel
    {
        type            fixedValue;
        value           uniform 0;
    }
    wall
    {
        type            zeroGradient;
    }
    outlet
    {
        type            zeroGradient;
    }
    frontAndBack
    {
        type            empty;
    }
    procBoundary3to0
    {
        type            processor;
        value           nonuniform List<scalar> 10(6.33353e-06 6.32639e-06 6.3425e-06 6.36291e-06 6.36087e-06 6.42033e-06 6.57237e-06 7.01022e-06 7.74884e-06 6.96375e-06);
    }
    procBoundary3to2
    {
        type            processor;
        value           nonuniform List<scalar> 
25
(
1.95709e-05
2.02056e-05
1.84022e-05
1.70134e-05
1.59321e-05
1.50326e-05
1.4243e-05
1.35612e-05
1.29146e-05
1.22804e-05
1.16757e-05
1.16757e-05
1.11242e-05
1.06671e-05
1.02029e-05
9.74229e-06
9.30595e-06
8.89207e-06
8.49771e-06
8.11864e-06
7.79332e-06
7.46314e-06
7.15924e-06
6.86488e-06
6.57786e-06
)
;
    }
}


// ************************************************************************* //
