/*--------------------------------*- C++ -*----------------------------------*\
| =========                 |                                                 |
| \\      /  F ield         | OpenFOAM: The Open Source CFD Toolbox           |
|  \\    /   O peration     | Version:  dev                                   |
|   \\  /    A nd           | Web:      www.OpenFOAM.org                      |
|    \\/     M anipulation  |                                                 |
\*---------------------------------------------------------------------------*/
FoamFile
{
    version     2.0;
    format      ascii;
    class       volScalarField;
    location    "0.085";
    object      HCCOH;
}
// * * * * * * * * * * * * * * * * * * * * * * * * * * * * * * * * * * * * * //

dimensions      [0 0 0 0 0 0 0];

internalField   nonuniform List<scalar> 
1989
(
1.89742e-06
1.89671e-06
1.89637e-06
1.8959e-06
1.89578e-06
1.89548e-06
1.89545e-06
1.89527e-06
1.89528e-06
1.89518e-06
1.89519e-06
1.89514e-06
1.89515e-06
1.89513e-06
1.89513e-06
1.89515e-06
1.89514e-06
1.89519e-06
1.89518e-06
1.89528e-06
1.89527e-06
1.89545e-06
1.89548e-06
1.89578e-06
1.89591e-06
1.89637e-06
1.89671e-06
1.89741e-06
1.89823e-06
1.89945e-06
1.90141e-06
1.90359e-06
1.90757e-06
1.9117e-06
1.9197e-06
1.92863e-06
1.93922e-06
1.95704e-06
1.96743e-06
1.84777e-06
1.83747e-06
1.81973e-06
1.80941e-06
1.80079e-06
1.79305e-06
1.78904e-06
1.78518e-06
1.78311e-06
1.78119e-06
1.78005e-06
1.77925e-06
1.77857e-06
1.77824e-06
1.77779e-06
1.77768e-06
1.77739e-06
1.77736e-06
1.77719e-06
1.7772e-06
1.7771e-06
1.77711e-06
1.77706e-06
1.77707e-06
1.77706e-06
1.77706e-06
1.77707e-06
1.77706e-06
1.77711e-06
1.7771e-06
1.7772e-06
1.77719e-06
1.77736e-06
1.77739e-06
1.77768e-06
1.7778e-06
1.77825e-06
1.77857e-06
1.77924e-06
1.78004e-06
1.7812e-06
1.78311e-06
1.78518e-06
1.78904e-06
1.79304e-06
1.80078e-06
1.8094e-06
1.81972e-06
1.83746e-06
1.84776e-06
1.73015e-06
1.71997e-06
1.7024e-06
1.69237e-06
1.68408e-06
1.6766e-06
1.67277e-06
1.66904e-06
1.66707e-06
1.66522e-06
1.66413e-06
1.66336e-06
1.6627e-06
1.6624e-06
1.66197e-06
1.66186e-06
1.66158e-06
1.66156e-06
1.66139e-06
1.6614e-06
1.6613e-06
1.66132e-06
1.66127e-06
1.66128e-06
1.66126e-06
1.66126e-06
1.66128e-06
1.66127e-06
1.66132e-06
1.6613e-06
1.6614e-06
1.66139e-06
1.66156e-06
1.66158e-06
1.66186e-06
1.66197e-06
1.66241e-06
1.66271e-06
1.66335e-06
1.66411e-06
1.66523e-06
1.66707e-06
1.66903e-06
1.67277e-06
1.67659e-06
1.68408e-06
1.69236e-06
1.70239e-06
1.71996e-06
1.73013e-06
1.61385e-06
1.60375e-06
1.58623e-06
1.57647e-06
1.56848e-06
1.56122e-06
1.55762e-06
1.55396e-06
1.55209e-06
1.55031e-06
1.54926e-06
1.54853e-06
1.54789e-06
1.54761e-06
1.54719e-06
1.54708e-06
1.54682e-06
1.5468e-06
1.54663e-06
1.54665e-06
1.54655e-06
1.54657e-06
1.54652e-06
1.54653e-06
1.54651e-06
1.54651e-06
1.54653e-06
1.54652e-06
1.54657e-06
1.54655e-06
1.54664e-06
1.54663e-06
1.5468e-06
1.54682e-06
1.54709e-06
1.54719e-06
1.54761e-06
1.5479e-06
1.54852e-06
1.54924e-06
1.55032e-06
1.5521e-06
1.55396e-06
1.55761e-06
1.56121e-06
1.56848e-06
1.57646e-06
1.58622e-06
1.60373e-06
1.61383e-06
1.49888e-06
1.48906e-06
1.47424e-06
1.46487e-06
1.4573e-06
1.45032e-06
1.44695e-06
1.44342e-06
1.44166e-06
1.43996e-06
1.43896e-06
1.43827e-06
1.43766e-06
1.4374e-06
1.43699e-06
1.4369e-06
1.43665e-06
1.43663e-06
1.43647e-06
1.43648e-06
1.43639e-06
1.43641e-06
1.43636e-06
1.43637e-06
1.43636e-06
1.43636e-06
1.43637e-06
1.43636e-06
1.43641e-06
1.43639e-06
1.43648e-06
1.43647e-06
1.43663e-06
1.43665e-06
1.4369e-06
1.437e-06
1.4374e-06
1.43767e-06
1.43826e-06
1.43894e-06
1.43997e-06
1.44167e-06
1.44341e-06
1.44694e-06
1.45031e-06
1.45729e-06
1.46486e-06
1.47422e-06
1.48905e-06
1.49887e-06
1.38962e-06
1.38014e-06
1.36555e-06
1.35661e-06
1.34952e-06
1.34283e-06
1.33969e-06
1.3363e-06
1.33466e-06
1.33305e-06
1.3321e-06
1.33145e-06
1.33087e-06
1.33063e-06
1.33024e-06
1.33016e-06
1.32991e-06
1.3299e-06
1.32975e-06
1.32976e-06
1.32968e-06
1.32969e-06
1.32965e-06
1.32966e-06
1.32964e-06
1.32964e-06
1.32966e-06
1.32965e-06
1.32969e-06
1.32967e-06
1.32976e-06
1.32975e-06
1.3299e-06
1.32991e-06
1.33016e-06
1.33025e-06
1.33063e-06
1.33088e-06
1.33143e-06
1.33208e-06
1.33306e-06
1.33466e-06
1.33629e-06
1.33969e-06
1.34282e-06
1.34951e-06
1.3566e-06
1.36554e-06
1.38013e-06
1.3896e-06
1.28399e-06
1.27484e-06
1.26072e-06
1.25217e-06
1.24556e-06
1.23919e-06
1.23629e-06
1.23304e-06
1.23152e-06
1.23e-06
1.22911e-06
1.2285e-06
1.22796e-06
1.22773e-06
1.22737e-06
1.22729e-06
1.22706e-06
1.22705e-06
1.22691e-06
1.22692e-06
1.22684e-06
1.22685e-06
1.22681e-06
1.22682e-06
1.22681e-06
1.22681e-06
1.22682e-06
1.22681e-06
1.22685e-06
1.22683e-06
1.22692e-06
1.22691e-06
1.22705e-06
1.22706e-06
1.22729e-06
1.22737e-06
1.22773e-06
1.22796e-06
1.22849e-06
1.22908e-06
1.23002e-06
1.23153e-06
1.23304e-06
1.23628e-06
1.23918e-06
1.24555e-06
1.25216e-06
1.26071e-06
1.27483e-06
1.28398e-06
1.18141e-06
1.1724e-06
1.15889e-06
1.15059e-06
1.14442e-06
1.13835e-06
1.13566e-06
1.13256e-06
1.13115e-06
1.12971e-06
1.12888e-06
1.1283e-06
1.1278e-06
1.12758e-06
1.12724e-06
1.12717e-06
1.12695e-06
1.12694e-06
1.12681e-06
1.12682e-06
1.12674e-06
1.12676e-06
1.12672e-06
1.12673e-06
1.12672e-06
1.12672e-06
1.12673e-06
1.12672e-06
1.12676e-06
1.12674e-06
1.12682e-06
1.12681e-06
1.12694e-06
1.12695e-06
1.12717e-06
1.12724e-06
1.12759e-06
1.1278e-06
1.12829e-06
1.12885e-06
1.12973e-06
1.13116e-06
1.13256e-06
1.13566e-06
1.13834e-06
1.14441e-06
1.15059e-06
1.15888e-06
1.17239e-06
1.1814e-06
1.08213e-06
1.07353e-06
1.06094e-06
1.05296e-06
1.04729e-06
1.04163e-06
1.03917e-06
1.03627e-06
1.03498e-06
1.03364e-06
1.03287e-06
1.03234e-06
1.03188e-06
1.03168e-06
1.03137e-06
1.0313e-06
1.0311e-06
1.03109e-06
1.03097e-06
1.03098e-06
1.03091e-06
1.03092e-06
1.03088e-06
1.0309e-06
1.03088e-06
1.03088e-06
1.03089e-06
1.03088e-06
1.03092e-06
1.0309e-06
1.03098e-06
1.03097e-06
1.03109e-06
1.0311e-06
1.03131e-06
1.03137e-06
1.03169e-06
1.03188e-06
1.03233e-06
1.03284e-06
1.03366e-06
1.03498e-06
1.03627e-06
1.03917e-06
1.04162e-06
1.04729e-06
1.05295e-06
1.06092e-06
1.07352e-06
1.08211e-06
9.87833e-07
9.797e-07
9.68091e-07
9.60435e-07
9.55275e-07
9.50034e-07
9.47812e-07
9.45115e-07
9.43951e-07
9.42717e-07
9.42017e-07
9.41531e-07
9.41106e-07
9.4093e-07
9.40639e-07
9.40584e-07
9.40395e-07
9.40391e-07
9.40274e-07
9.40288e-07
9.4022e-07
9.40236e-07
9.40199e-07
9.40209e-07
9.40197e-07
9.40197e-07
9.40209e-07
9.40198e-07
9.40234e-07
9.40218e-07
9.40287e-07
9.40274e-07
9.40391e-07
9.40396e-07
9.40586e-07
9.40642e-07
9.40933e-07
9.41108e-07
9.41525e-07
9.41986e-07
9.42737e-07
9.43953e-07
9.45111e-07
9.47807e-07
9.50027e-07
9.55269e-07
9.60427e-07
9.68081e-07
9.79691e-07
9.87823e-07
8.98942e-07
8.91309e-07
8.807e-07
8.74907e-07
8.70243e-07
8.65383e-07
8.63397e-07
8.60886e-07
8.59846e-07
8.58712e-07
8.58075e-07
8.57638e-07
8.57248e-07
8.57092e-07
8.56825e-07
8.56777e-07
8.56603e-07
8.56602e-07
8.56493e-07
8.56508e-07
8.56444e-07
8.5646e-07
8.56426e-07
8.56436e-07
8.56425e-07
8.56424e-07
8.56435e-07
8.56425e-07
8.56459e-07
8.56443e-07
8.56507e-07
8.56493e-07
8.56601e-07
8.56604e-07
8.56779e-07
8.56827e-07
8.57095e-07
8.5725e-07
8.57633e-07
8.58049e-07
8.58728e-07
8.59847e-07
8.60882e-07
8.63392e-07
8.65377e-07
8.70238e-07
8.749e-07
8.80692e-07
8.91299e-07
8.98933e-07
8.17207e-07
8.10091e-07
8.00388e-07
7.94985e-07
7.90807e-07
7.86336e-07
7.84579e-07
7.8226e-07
7.81289e-07
7.80201e-07
7.79599e-07
7.79186e-07
7.78815e-07
7.78668e-07
7.78412e-07
7.78368e-07
7.78201e-07
7.78201e-07
7.78096e-07
7.78111e-07
7.7805e-07
7.78065e-07
7.78032e-07
7.78042e-07
7.78031e-07
7.78031e-07
7.78041e-07
7.78031e-07
7.78064e-07
7.78048e-07
7.7811e-07
7.78096e-07
7.782e-07
7.78202e-07
7.7837e-07
7.78414e-07
7.78671e-07
7.78816e-07
7.79182e-07
7.79576e-07
7.80214e-07
7.8129e-07
7.82256e-07
7.84575e-07
7.86331e-07
7.90801e-07
7.94979e-07
8.00381e-07
8.10082e-07
8.17198e-07
7.40456e-07
7.33715e-07
7.24738e-07
7.19704e-07
7.15986e-07
7.1195e-07
7.10405e-07
7.08301e-07
7.07444e-07
7.06461e-07
7.05924e-07
7.05556e-07
7.05223e-07
7.05093e-07
7.04862e-07
7.04825e-07
7.04674e-07
7.04675e-07
7.0458e-07
7.04594e-07
7.04539e-07
7.04553e-07
7.04523e-07
7.04532e-07
7.04522e-07
7.04522e-07
7.04531e-07
7.04522e-07
7.04551e-07
7.04537e-07
7.04593e-07
7.0458e-07
7.04674e-07
7.04674e-07
7.04826e-07
7.04864e-07
7.05096e-07
7.05224e-07
7.05553e-07
7.05904e-07
7.06471e-07
7.07445e-07
7.08298e-07
7.10401e-07
7.11944e-07
7.15981e-07
7.19699e-07
7.24732e-07
7.33706e-07
7.40447e-07
6.69273e-07
6.63099e-07
6.55031e-07
6.50506e-07
6.47241e-07
6.4364e-07
6.42297e-07
6.40411e-07
6.39663e-07
6.38783e-07
6.3831e-07
6.37987e-07
6.37691e-07
6.37578e-07
6.37372e-07
6.3734e-07
6.37205e-07
6.37206e-07
6.37122e-07
6.37134e-07
6.37085e-07
6.37098e-07
6.37071e-07
6.37079e-07
6.37071e-07
6.3707e-07
6.37079e-07
6.3707e-07
6.37097e-07
6.37084e-07
6.37134e-07
6.37121e-07
6.37206e-07
6.37205e-07
6.37341e-07
6.37373e-07
6.3758e-07
6.37692e-07
6.37984e-07
6.38294e-07
6.38792e-07
6.39664e-07
6.40408e-07
6.42294e-07
6.43635e-07
6.47237e-07
6.505e-07
6.55026e-07
6.63089e-07
6.69266e-07
6.05493e-07
5.99815e-07
5.92682e-07
5.88604e-07
5.85769e-07
5.82566e-07
5.8142e-07
5.79733e-07
5.79091e-07
5.78308e-07
5.77894e-07
5.77613e-07
5.77351e-07
5.77254e-07
5.77071e-07
5.77044e-07
5.76924e-07
5.76927e-07
5.76851e-07
5.76863e-07
5.76819e-07
5.76831e-07
5.76807e-07
5.76815e-07
5.76807e-07
5.76807e-07
5.76814e-07
5.76806e-07
5.7683e-07
5.76818e-07
5.76863e-07
5.76851e-07
5.76927e-07
5.76924e-07
5.77046e-07
5.77072e-07
5.77256e-07
5.77352e-07
5.7761e-07
5.77881e-07
5.78315e-07
5.79091e-07
5.7973e-07
5.81416e-07
5.82562e-07
5.85765e-07
5.88599e-07
5.92678e-07
5.99806e-07
6.05487e-07
5.47919e-07
5.42804e-07
5.36582e-07
5.32925e-07
5.30439e-07
5.27533e-07
5.26535e-07
5.25005e-07
5.24444e-07
5.23738e-07
5.2337e-07
5.23121e-07
5.22892e-07
5.22811e-07
5.22652e-07
5.22632e-07
5.22527e-07
5.22531e-07
5.22465e-07
5.22476e-07
5.22438e-07
5.22449e-07
5.22428e-07
5.22435e-07
5.22428e-07
5.22428e-07
5.22435e-07
5.22427e-07
5.22448e-07
5.22437e-07
5.22476e-07
5.22464e-07
5.22531e-07
5.22527e-07
5.22633e-07
5.22653e-07
5.22813e-07
5.22893e-07
5.23119e-07
5.23359e-07
5.23743e-07
5.24443e-07
5.25002e-07
5.26532e-07
5.27529e-07
5.30435e-07
5.32921e-07
5.36578e-07
5.42796e-07
5.47914e-07
4.96553e-07
4.92093e-07
4.86673e-07
4.8344e-07
4.81326e-07
4.78793e-07
4.7796e-07
4.7662e-07
4.76147e-07
4.75533e-07
4.75217e-07
4.75004e-07
4.74806e-07
4.74739e-07
4.74601e-07
4.74585e-07
4.74493e-07
4.74498e-07
4.74441e-07
4.74452e-07
4.74418e-07
4.74428e-07
4.7441e-07
4.74416e-07
4.7441e-07
4.7441e-07
4.74416e-07
4.74409e-07
4.74427e-07
4.74417e-07
4.74451e-07
4.7444e-07
4.74498e-07
4.74494e-07
4.74586e-07
4.74602e-07
4.7474e-07
4.74807e-07
4.75003e-07
4.75207e-07
4.75537e-07
4.76147e-07
4.76617e-07
4.77957e-07
4.7879e-07
4.81323e-07
4.83437e-07
4.86669e-07
4.92086e-07
4.96549e-07
4.51359e-07
4.47522e-07
4.42843e-07
4.40028e-07
4.38254e-07
4.36075e-07
4.35389e-07
4.3423e-07
4.33837e-07
4.3331e-07
4.33041e-07
4.32862e-07
4.32693e-07
4.32637e-07
4.32519e-07
4.32507e-07
4.32428e-07
4.32434e-07
4.32384e-07
4.32394e-07
4.32365e-07
4.32374e-07
4.32358e-07
4.32364e-07
4.32359e-07
4.32358e-07
4.32364e-07
4.32358e-07
4.32373e-07
4.32364e-07
4.32394e-07
4.32384e-07
4.32433e-07
4.32429e-07
4.32508e-07
4.3252e-07
4.32639e-07
4.32694e-07
4.3286e-07
4.33033e-07
4.33313e-07
4.33837e-07
4.34228e-07
4.35386e-07
4.36072e-07
4.38252e-07
4.40025e-07
4.4284e-07
4.47517e-07
4.51356e-07
4.1205e-07
4.08717e-07
4.04891e-07
4.02477e-07
4.01009e-07
3.99159e-07
3.98603e-07
3.97614e-07
3.97293e-07
3.96846e-07
3.96619e-07
3.9647e-07
3.96329e-07
3.96284e-07
3.96184e-07
3.96175e-07
3.96108e-07
3.96113e-07
3.96071e-07
3.9608e-07
3.96056e-07
3.96064e-07
3.9605e-07
3.96055e-07
3.96051e-07
3.96051e-07
3.96055e-07
3.9605e-07
3.96063e-07
3.96055e-07
3.9608e-07
3.96071e-07
3.96113e-07
3.96108e-07
3.96175e-07
3.96184e-07
3.96285e-07
3.9633e-07
3.9647e-07
3.96612e-07
3.96849e-07
3.97292e-07
3.97612e-07
3.98601e-07
3.99157e-07
4.01007e-07
4.02474e-07
4.04889e-07
4.08713e-07
4.12047e-07
3.78536e-07
3.75733e-07
3.72524e-07
3.70485e-07
3.69288e-07
3.67741e-07
3.67299e-07
3.66467e-07
3.66207e-07
3.65833e-07
3.65646e-07
3.65523e-07
3.65406e-07
3.6537e-07
3.65286e-07
3.6528e-07
3.65224e-07
3.65229e-07
3.65194e-07
3.65202e-07
3.65182e-07
3.65189e-07
3.65177e-07
3.65181e-07
3.65178e-07
3.65178e-07
3.65181e-07
3.65177e-07
3.65188e-07
3.65181e-07
3.65202e-07
3.65194e-07
3.65229e-07
3.65224e-07
3.6528e-07
3.65287e-07
3.65371e-07
3.65407e-07
3.65523e-07
3.6564e-07
3.65836e-07
3.66207e-07
3.66465e-07
3.67297e-07
3.67738e-07
3.69287e-07
3.70483e-07
3.72522e-07
3.7573e-07
3.78533e-07
3.50355e-07
3.48026e-07
3.45365e-07
3.43671e-07
3.42711e-07
3.41434e-07
3.41092e-07
3.40402e-07
3.40196e-07
3.39888e-07
3.39734e-07
3.39635e-07
3.39539e-07
3.3951e-07
3.39442e-07
3.39437e-07
3.39392e-07
3.39396e-07
3.39367e-07
3.39374e-07
3.39357e-07
3.39363e-07
3.39354e-07
3.39358e-07
3.39355e-07
3.39355e-07
3.39358e-07
3.39354e-07
3.39363e-07
3.39357e-07
3.39374e-07
3.39367e-07
3.39396e-07
3.39392e-07
3.39438e-07
3.39442e-07
3.39511e-07
3.3954e-07
3.39634e-07
3.3973e-07
3.39889e-07
3.40195e-07
3.40401e-07
3.41091e-07
3.41432e-07
3.4271e-07
3.43669e-07
3.45364e-07
3.48024e-07
3.50353e-07
3.27065e-07
3.2515e-07
3.22969e-07
3.21583e-07
3.20778e-07
3.19713e-07
3.19454e-07
3.18879e-07
3.18712e-07
3.18457e-07
3.18329e-07
3.18248e-07
3.1817e-07
3.18147e-07
3.18091e-07
3.18088e-07
3.1805e-07
3.18054e-07
3.1803e-07
3.18036e-07
3.18022e-07
3.18027e-07
3.1802e-07
3.18023e-07
3.1802e-07
3.1802e-07
3.18023e-07
3.1802e-07
3.18027e-07
3.18022e-07
3.18036e-07
3.1803e-07
3.18054e-07
3.1805e-07
3.18088e-07
3.18091e-07
3.18148e-07
3.18171e-07
3.18248e-07
3.18327e-07
3.18457e-07
3.18711e-07
3.18877e-07
3.19452e-07
3.19712e-07
3.20776e-07
3.21582e-07
3.22968e-07
3.25149e-07
3.27063e-07
3.08166e-07
3.06594e-07
3.04842e-07
3.03719e-07
3.03082e-07
3.02216e-07
3.02038e-07
3.01573e-07
3.01442e-07
3.01237e-07
3.01134e-07
3.01069e-07
3.01007e-07
3.00989e-07
3.00944e-07
3.00942e-07
3.00911e-07
3.00915e-07
3.00896e-07
3.00901e-07
3.0089e-07
3.00894e-07
3.00888e-07
3.00891e-07
3.00889e-07
3.00889e-07
3.00891e-07
3.00888e-07
3.00894e-07
3.0089e-07
3.00901e-07
3.00896e-07
3.00915e-07
3.00911e-07
3.00942e-07
3.00944e-07
3.00989e-07
3.01007e-07
3.01069e-07
3.01132e-07
3.01236e-07
3.01442e-07
3.01572e-07
3.02037e-07
3.02214e-07
3.03081e-07
3.03718e-07
3.04841e-07
3.06594e-07
3.08165e-07
2.93097e-07
2.91835e-07
2.90445e-07
2.89543e-07
2.8903e-07
2.88339e-07
2.88118e-07
2.87743e-07
2.87639e-07
2.87472e-07
2.87389e-07
2.87336e-07
2.87288e-07
2.87273e-07
2.87237e-07
2.87236e-07
2.87212e-07
2.87215e-07
2.872e-07
2.87204e-07
2.87195e-07
2.87199e-07
2.87194e-07
2.87196e-07
2.87194e-07
2.87194e-07
2.87196e-07
2.87194e-07
2.87198e-07
2.87195e-07
2.87204e-07
2.872e-07
2.87215e-07
2.87212e-07
2.87236e-07
2.87237e-07
2.87273e-07
2.87288e-07
2.87336e-07
2.87388e-07
2.87471e-07
2.87639e-07
2.87743e-07
2.88117e-07
2.88338e-07
2.89028e-07
2.89542e-07
2.90444e-07
2.91835e-07
2.93096e-07
2.81341e-07
2.80319e-07
2.79226e-07
2.78512e-07
2.78109e-07
2.77555e-07
2.7739e-07
2.77093e-07
2.77011e-07
2.76875e-07
2.76809e-07
2.76768e-07
2.76729e-07
2.76718e-07
2.7669e-07
2.76689e-07
2.7667e-07
2.76673e-07
2.76661e-07
2.76664e-07
2.76657e-07
2.7666e-07
2.76657e-07
2.76658e-07
2.76657e-07
2.76657e-07
2.76658e-07
2.76657e-07
2.7666e-07
2.76657e-07
2.76664e-07
2.76661e-07
2.76673e-07
2.7667e-07
2.76689e-07
2.7669e-07
2.76718e-07
2.7673e-07
2.76768e-07
2.76809e-07
2.76874e-07
2.77011e-07
2.77092e-07
2.7739e-07
2.77554e-07
2.78108e-07
2.78511e-07
2.79226e-07
2.80319e-07
2.8134e-07
2.72342e-07
2.71507e-07
2.70657e-07
2.70098e-07
2.69755e-07
2.69304e-07
2.69177e-07
2.68938e-07
2.68872e-07
2.68755e-07
2.68703e-07
2.68669e-07
2.68639e-07
2.6863e-07
2.68607e-07
2.68607e-07
2.68592e-07
2.68594e-07
2.68585e-07
2.68588e-07
2.68582e-07
2.68585e-07
2.68582e-07
2.68583e-07
2.68582e-07
2.68582e-07
2.68583e-07
2.68582e-07
2.68585e-07
2.68582e-07
2.68588e-07
2.68585e-07
2.68594e-07
2.68592e-07
2.68607e-07
2.68607e-07
2.6863e-07
2.68639e-07
2.68669e-07
2.68702e-07
2.68755e-07
2.68872e-07
2.68938e-07
2.69176e-07
2.69304e-07
2.69754e-07
2.70098e-07
2.70656e-07
2.71507e-07
2.72342e-07
2.65506e-07
2.64899e-07
2.64219e-07
2.63731e-07
2.63452e-07
2.63097e-07
2.62995e-07
2.62809e-07
2.62755e-07
2.62653e-07
2.62611e-07
2.62584e-07
2.62561e-07
2.62553e-07
2.62536e-07
2.62535e-07
2.62524e-07
2.62526e-07
2.62519e-07
2.62521e-07
2.62517e-07
2.62519e-07
2.62517e-07
2.62518e-07
2.62517e-07
2.62517e-07
2.62518e-07
2.62517e-07
2.62519e-07
2.62517e-07
2.62521e-07
2.62519e-07
2.62526e-07
2.62524e-07
2.62535e-07
2.62536e-07
2.62553e-07
2.62561e-07
2.62584e-07
2.62611e-07
2.62652e-07
2.62755e-07
2.62809e-07
2.62994e-07
2.63097e-07
2.63451e-07
2.63731e-07
2.64218e-07
2.64899e-07
2.65505e-07
2.60536e-07
2.60006e-07
2.59448e-07
2.59065e-07
2.58837e-07
2.5856e-07
2.58474e-07
2.5833e-07
2.58286e-07
2.5825e-07
2.58217e-07
2.58195e-07
2.58176e-07
2.5817e-07
2.58157e-07
2.58156e-07
2.58148e-07
2.58149e-07
2.58144e-07
2.58146e-07
2.58142e-07
2.58144e-07
2.58142e-07
2.58143e-07
2.58143e-07
2.58143e-07
2.58143e-07
2.58142e-07
2.58144e-07
2.58142e-07
2.58145e-07
2.58144e-07
2.58149e-07
2.58148e-07
2.58156e-07
2.58157e-07
2.5817e-07
2.58177e-07
2.58195e-07
2.58217e-07
2.58249e-07
2.58286e-07
2.58329e-07
2.58474e-07
2.58559e-07
2.58836e-07
2.59065e-07
2.59447e-07
2.60005e-07
2.60536e-07
2.56953e-07
2.56518e-07
2.56075e-07
2.55768e-07
2.55579e-07
2.55358e-07
2.55285e-07
2.55171e-07
2.55135e-07
2.55104e-07
2.55078e-07
2.55061e-07
2.55045e-07
2.5504e-07
2.5503e-07
2.55029e-07
2.55022e-07
2.55023e-07
2.55019e-07
2.55021e-07
2.55018e-07
2.5502e-07
2.55018e-07
2.55019e-07
2.55019e-07
2.55019e-07
2.55019e-07
2.55018e-07
2.5502e-07
2.55018e-07
2.55021e-07
2.55019e-07
2.55023e-07
2.55022e-07
2.55029e-07
2.5503e-07
2.5504e-07
2.55045e-07
2.55061e-07
2.55078e-07
2.55104e-07
2.55135e-07
2.55171e-07
2.55285e-07
2.55358e-07
2.55578e-07
2.55767e-07
2.56075e-07
2.56518e-07
2.56952e-07
2.5443e-07
2.54068e-07
2.53712e-07
2.53461e-07
2.53302e-07
2.53125e-07
2.53061e-07
2.5297e-07
2.52939e-07
2.52914e-07
2.52892e-07
2.52877e-07
2.52865e-07
2.5286e-07
2.52852e-07
2.52851e-07
2.52846e-07
2.52847e-07
2.52844e-07
2.52845e-07
2.52843e-07
2.52844e-07
2.52843e-07
2.52844e-07
2.52844e-07
2.52844e-07
2.52844e-07
2.52843e-07
2.52844e-07
2.52843e-07
2.52845e-07
2.52844e-07
2.52847e-07
2.52846e-07
2.52851e-07
2.52852e-07
2.5286e-07
2.52865e-07
2.52877e-07
2.52892e-07
2.52913e-07
2.52939e-07
2.5297e-07
2.53061e-07
2.53125e-07
2.53302e-07
2.53461e-07
2.53712e-07
2.54068e-07
2.5443e-07
2.52694e-07
2.52388e-07
2.52097e-07
2.51889e-07
2.51752e-07
2.51608e-07
2.51551e-07
2.51477e-07
2.5145e-07
2.51428e-07
2.5141e-07
2.51398e-07
2.51387e-07
2.51383e-07
2.51377e-07
2.51376e-07
2.51372e-07
2.51372e-07
2.5137e-07
2.51371e-07
2.51369e-07
2.5137e-07
2.51369e-07
2.5137e-07
2.5137e-07
2.5137e-07
2.5137e-07
2.51369e-07
2.5137e-07
2.51369e-07
2.51371e-07
2.5137e-07
2.51372e-07
2.51372e-07
2.51376e-07
2.51377e-07
2.51383e-07
2.51387e-07
2.51398e-07
2.5141e-07
2.51428e-07
2.5145e-07
2.51477e-07
2.51551e-07
2.51608e-07
2.51752e-07
2.51889e-07
2.52096e-07
2.52387e-07
2.52694e-07
2.51526e-07
2.51261e-07
2.51015e-07
2.50838e-07
2.50717e-07
2.50598e-07
2.50546e-07
2.50485e-07
2.50461e-07
2.50442e-07
2.50426e-07
2.50416e-07
2.50407e-07
2.50403e-07
2.50398e-07
2.50397e-07
2.50394e-07
2.50394e-07
2.50392e-07
2.50393e-07
2.50392e-07
2.50392e-07
2.50392e-07
2.50392e-07
2.50392e-07
2.50392e-07
2.50392e-07
2.50392e-07
2.50392e-07
2.50392e-07
2.50393e-07
2.50392e-07
2.50394e-07
2.50394e-07
2.50397e-07
2.50398e-07
2.50403e-07
2.50407e-07
2.50416e-07
2.50426e-07
2.50442e-07
2.50461e-07
2.50485e-07
2.50545e-07
2.50598e-07
2.50717e-07
2.50838e-07
2.51015e-07
2.5126e-07
2.51526e-07
2.50744e-07
2.50511e-07
2.50309e-07
2.50156e-07
2.50049e-07
2.49948e-07
2.499e-07
2.4985e-07
2.49828e-07
2.49811e-07
2.49797e-07
2.49788e-07
2.4978e-07
2.49777e-07
2.49772e-07
2.49771e-07
2.49769e-07
2.49769e-07
2.49767e-07
2.49768e-07
2.49767e-07
2.49768e-07
2.49767e-07
2.49767e-07
2.49767e-07
2.49767e-07
2.49767e-07
2.49767e-07
2.49767e-07
2.49767e-07
2.49768e-07
2.49767e-07
2.49769e-07
2.49769e-07
2.49771e-07
2.49772e-07
2.49777e-07
2.4978e-07
2.49788e-07
2.49797e-07
2.49811e-07
2.49828e-07
2.4985e-07
2.499e-07
2.49948e-07
2.50049e-07
2.50156e-07
2.50308e-07
2.50511e-07
2.50744e-07
2.50236e-07
2.50026e-07
2.49852e-07
2.49718e-07
2.49621e-07
2.49536e-07
2.49491e-07
2.49448e-07
2.49428e-07
2.49413e-07
2.494e-07
2.49392e-07
2.49385e-07
2.49382e-07
2.49378e-07
2.49377e-07
2.49375e-07
2.49375e-07
2.49374e-07
2.49374e-07
2.49373e-07
2.49374e-07
2.49373e-07
2.49374e-07
2.49373e-07
2.49373e-07
2.49374e-07
2.49373e-07
2.49374e-07
2.49373e-07
2.49374e-07
2.49374e-07
2.49375e-07
2.49375e-07
2.49377e-07
2.49378e-07
2.49382e-07
2.49385e-07
2.49392e-07
2.494e-07
2.49413e-07
2.49428e-07
2.49448e-07
2.49491e-07
2.49536e-07
2.49621e-07
2.49718e-07
2.49852e-07
2.50026e-07
2.50236e-07
2.49902e-07
2.49709e-07
2.49559e-07
2.49439e-07
2.49352e-07
2.49277e-07
2.49236e-07
2.49199e-07
2.4918e-07
2.49167e-07
2.49156e-07
2.49148e-07
2.49142e-07
2.49139e-07
2.49135e-07
2.49134e-07
2.49132e-07
2.49132e-07
2.49131e-07
2.49131e-07
2.49131e-07
2.49131e-07
2.49131e-07
2.49131e-07
2.49131e-07
2.49131e-07
2.49131e-07
2.49131e-07
2.49131e-07
2.4913e-07
2.49131e-07
2.49131e-07
2.49132e-07
2.49132e-07
2.49134e-07
2.49135e-07
2.49139e-07
2.49142e-07
2.49148e-07
2.49156e-07
2.49167e-07
2.4918e-07
2.49199e-07
2.49236e-07
2.49277e-07
2.49352e-07
2.49439e-07
2.49558e-07
2.49709e-07
2.49902e-07
2.49681e-07
2.49501e-07
2.4937e-07
2.49263e-07
2.49183e-07
2.49117e-07
2.49079e-07
2.49047e-07
2.49029e-07
2.49017e-07
2.49006e-07
2.48999e-07
2.48994e-07
2.48991e-07
2.48988e-07
2.48987e-07
2.48985e-07
2.48985e-07
2.48984e-07
2.48984e-07
2.48983e-07
2.48984e-07
2.48983e-07
2.48984e-07
2.48983e-07
2.48983e-07
2.48984e-07
2.48983e-07
2.48984e-07
2.48983e-07
2.48984e-07
2.48984e-07
2.48985e-07
2.48985e-07
2.48987e-07
2.48988e-07
2.48991e-07
2.48994e-07
2.48999e-07
2.49006e-07
2.49017e-07
2.49029e-07
2.49047e-07
2.49079e-07
2.49117e-07
2.49183e-07
2.49263e-07
2.4937e-07
2.49501e-07
2.49681e-07
2.49536e-07
2.49361e-07
2.49249e-07
2.49151e-07
2.49078e-07
2.49019e-07
2.48984e-07
2.48955e-07
2.48939e-07
2.48927e-07
2.48918e-07
2.48911e-07
2.48906e-07
2.48903e-07
2.489e-07
2.48899e-07
2.48897e-07
2.48897e-07
2.48896e-07
2.48896e-07
2.48896e-07
2.48896e-07
2.48896e-07
2.48896e-07
2.48896e-07
2.48896e-07
2.48896e-07
2.48896e-07
2.48896e-07
2.48896e-07
2.48896e-07
2.48896e-07
2.48897e-07
2.48897e-07
2.48899e-07
2.489e-07
2.48903e-07
2.48906e-07
2.48911e-07
2.48918e-07
2.48927e-07
2.48939e-07
2.48955e-07
2.48984e-07
2.49019e-07
2.49078e-07
2.49151e-07
2.49248e-07
2.49361e-07
2.49535e-07
2.49441e-07
2.49266e-07
2.49171e-07
2.49081e-07
2.49013e-07
2.4896e-07
2.48927e-07
2.48901e-07
2.48886e-07
2.48875e-07
2.48866e-07
2.4886e-07
2.48855e-07
2.48852e-07
2.4885e-07
2.48848e-07
2.48847e-07
2.48847e-07
2.48846e-07
2.48846e-07
2.48845e-07
2.48846e-07
2.48845e-07
2.48846e-07
2.48845e-07
2.48845e-07
2.48845e-07
2.48845e-07
2.48845e-07
2.48845e-07
2.48846e-07
2.48846e-07
2.48846e-07
2.48847e-07
2.48848e-07
2.4885e-07
2.48852e-07
2.48855e-07
2.4886e-07
2.48866e-07
2.48875e-07
2.48886e-07
2.48901e-07
2.48927e-07
2.4896e-07
2.49013e-07
2.49081e-07
2.49171e-07
2.49266e-07
2.49441e-07
2.4938e-07
2.49204e-07
2.49123e-07
2.49039e-07
2.48975e-07
2.48927e-07
2.48895e-07
2.48871e-07
2.48857e-07
2.48846e-07
2.48838e-07
2.48832e-07
2.48827e-07
2.48825e-07
2.48822e-07
2.48821e-07
2.48819e-07
2.48819e-07
2.48818e-07
2.48818e-07
2.48818e-07
2.48818e-07
2.48818e-07
2.48818e-07
2.48818e-07
2.48818e-07
2.48818e-07
2.48818e-07
2.48818e-07
2.48818e-07
2.48818e-07
2.48818e-07
2.48819e-07
2.48819e-07
2.48821e-07
2.48822e-07
2.48824e-07
2.48827e-07
2.48832e-07
2.48838e-07
2.48846e-07
2.48857e-07
2.48871e-07
2.48895e-07
2.48926e-07
2.48975e-07
2.49039e-07
2.49123e-07
2.49204e-07
2.4938e-07
2.49347e-07
2.49171e-07
2.49098e-07
2.49017e-07
2.48956e-07
2.4891e-07
2.4888e-07
2.48857e-07
2.48843e-07
2.48833e-07
2.48825e-07
2.48819e-07
2.48815e-07
2.48812e-07
2.48809e-07
2.48808e-07
2.48807e-07
2.48806e-07
2.48806e-07
2.48806e-07
2.48805e-07
2.48805e-07
2.48805e-07
2.48805e-07
2.48805e-07
2.48805e-07
2.48805e-07
2.48805e-07
2.48805e-07
2.48805e-07
2.48806e-07
2.48806e-07
2.48806e-07
2.48807e-07
2.48808e-07
2.48809e-07
2.48812e-07
2.48815e-07
2.48819e-07
2.48825e-07
2.48833e-07
2.48843e-07
2.48857e-07
2.4888e-07
2.4891e-07
2.48956e-07
2.49017e-07
2.49097e-07
2.4917e-07
2.49346e-07
)
;

boundaryField
{
    fuel
    {
        type            fixedValue;
        value           nonuniform 0();
    }
    wall
    {
        type            zeroGradient;
    }
    outlet
    {
        type            zeroGradient;
    }
    frontAndBack
    {
        type            empty;
    }
    procBoundary3to2
    {
        type            processor;
        value           nonuniform List<scalar> 
51
(
2.01747e-06
2.01674e-06
2.01638e-06
2.01591e-06
2.01577e-06
2.01547e-06
2.01544e-06
2.01525e-06
2.01526e-06
2.01515e-06
2.01517e-06
2.01511e-06
2.01512e-06
2.01511e-06
2.01511e-06
2.01512e-06
2.01511e-06
2.01517e-06
2.01515e-06
2.01526e-06
2.01525e-06
2.01544e-06
2.01547e-06
2.01577e-06
2.01591e-06
2.01639e-06
2.01674e-06
2.01747e-06
2.01832e-06
2.01957e-06
2.0216e-06
2.02387e-06
2.02797e-06
2.03221e-06
2.04044e-06
2.04966e-06
2.06045e-06
2.07833e-06
2.08875e-06
1.96744e-06
1.95705e-06
1.93923e-06
1.92864e-06
1.9197e-06
1.91171e-06
1.90758e-06
1.90359e-06
1.90141e-06
1.89944e-06
1.89825e-06
1.89825e-06
)
;
    }
}


// ************************************************************************* //
