/*--------------------------------*- C++ -*----------------------------------*\
| =========                 |                                                 |
| \\      /  F ield         | OpenFOAM: The Open Source CFD Toolbox           |
|  \\    /   O peration     | Version:  dev                                   |
|   \\  /    A nd           | Web:      www.OpenFOAM.org                      |
|    \\/     M anipulation  |                                                 |
\*---------------------------------------------------------------------------*/
FoamFile
{
    version     2.0;
    format      ascii;
    class       volScalarField;
    location    "0.085";
    object      i-A1C2H2;
}
// * * * * * * * * * * * * * * * * * * * * * * * * * * * * * * * * * * * * * //

dimensions      [0 0 0 0 0 0 0];

internalField   nonuniform List<scalar> 
250
(
3.58651e-09
3.58433e-09
3.57859e-09
3.57776e-09
3.58261e-09
3.58779e-09
3.58682e-09
3.60297e-09
3.70235e-09
4.44573e-09
1.15665e-09
2.10922e-09
2.10898e-09
2.10756e-09
2.10738e-09
2.10805e-09
2.11017e-09
2.11127e-09
2.12305e-09
2.20389e-09
2.82804e-09
3.14102e-09
1.12305e-09
1.12293e-09
1.12287e-09
1.1229e-09
1.1223e-09
1.12392e-09
1.12483e-09
1.13376e-09
1.19506e-09
1.70189e-09
4.60307e-09
6.00273e-10
6.005e-10
6.00956e-10
6.0102e-10
5.99565e-10
6.01553e-10
6.02156e-10
6.08546e-10
6.54407e-10
1.07426e-09
5.07135e-09
3.38592e-10
3.40674e-10
3.41067e-10
3.41105e-10
3.38104e-10
3.41511e-10
3.41888e-10
3.4599e-10
3.79049e-10
7.40232e-10
4.6495e-09
2.05203e-10
2.03139e-10
2.02972e-10
2.02975e-10
2.05595e-10
2.03622e-10
2.03998e-10
2.08943e-10
2.38876e-10
5.57281e-10
4.13785e-09
1.34523e-10
1.33823e-10
1.33361e-10
1.33345e-10
1.35233e-10
1.34259e-10
1.34475e-10
1.38171e-10
1.6365e-10
4.50155e-10
4.731e-09
9.2818e-11
9.43063e-11
9.3882e-11
9.3853e-11
9.40588e-11
9.34993e-11
9.39584e-11
9.81637e-11
1.18898e-10
3.83674e-10
8.87618e-09
6.87998e-11
7.05424e-11
7.02383e-11
7.02052e-11
7.02987e-11
7.00069e-11
7.0389e-11
7.31119e-11
8.94075e-11
3.3398e-10
1.123e-08
5.34773e-11
5.34645e-11
5.32767e-11
5.32462e-11
5.3281e-11
5.31467e-11
5.34697e-11
5.61747e-11
7.24962e-11
2.88501e-10
8.60368e-09
4.34033e-11
4.32946e-11
4.32645e-11
4.32778e-11
4.322e-11
4.34997e-11
4.4947e-11
6.02821e-11
2.48551e-10
5.59267e-09
3.59007e-11
3.58401e-11
3.58059e-11
3.58178e-11
3.57995e-11
3.6098e-11
3.80562e-11
5.10522e-11
2.15704e-10
3.81012e-09
3.0323e-11
3.0299e-11
3.0264e-11
3.02762e-11
3.02819e-11
3.05582e-11
3.24427e-11
4.41104e-11
1.86816e-10
2.86649e-09
2.61886e-11
2.6188e-11
2.61519e-11
2.61672e-11
2.61851e-11
2.64461e-11
2.82264e-11
3.93829e-11
1.64288e-10
2.31171e-09
2.30227e-11
2.30351e-11
2.29983e-11
2.30171e-11
2.3041e-11
2.32905e-11
2.49581e-11
3.53019e-11
1.45101e-10
1.91523e-09
2.05247e-11
2.05444e-11
2.05077e-11
2.05293e-11
2.05559e-11
2.07947e-11
2.23542e-11
3.17358e-11
1.28046e-10
1.57592e-09
1.85043e-11
1.85277e-11
1.8492e-11
1.85151e-11
1.85426e-11
1.87712e-11
2.02293e-11
2.90829e-11
1.12405e-10
1.27741e-09
1.68388e-11
1.68635e-11
1.68294e-11
1.68528e-11
1.68805e-11
1.70987e-11
1.84582e-11
2.66807e-11
9.97689e-11
1.01291e-09
1.54475e-11
1.54719e-11
1.54402e-11
1.54629e-11
1.54901e-11
1.56979e-11
1.69578e-11
2.44399e-11
8.71396e-11
7.85593e-10
1.42769e-11
1.42998e-11
1.42708e-11
1.4292e-11
1.43185e-11
1.45156e-11
1.5672e-11
2.24705e-11
7.60078e-11
5.98619e-10
1.32904e-11
1.33108e-11
1.3285e-11
1.33038e-11
1.33296e-11
1.3516e-11
1.45613e-11
2.07366e-11
6.62434e-11
4.51138e-10
1.24625e-11
1.24798e-11
1.24576e-11
1.24734e-11
1.24982e-11
1.26741e-11
1.37192e-11
1.92171e-11
5.7699e-11
3.38758e-10
1.18607e-11
1.18751e-11
1.18557e-11
1.18689e-11
1.18926e-11
1.20596e-11
1.30207e-11
1.78943e-11
5.02118e-11
2.55277e-10
1.13439e-11
1.13557e-11
1.13391e-11
1.13499e-11
1.13729e-11
1.15308e-11
1.24235e-11
1.67556e-11
4.44129e-11
1.94261e-10
)
;

boundaryField
{
    fuel
    {
        type            fixedValue;
        value           uniform 0;
    }
    wall
    {
        type            zeroGradient;
    }
    outlet
    {
        type            zeroGradient;
    }
    frontAndBack
    {
        type            empty;
    }
    procBoundary3to0
    {
        type            processor;
        value           nonuniform List<scalar> 10(1.09911e-11 1.09995e-11 1.09861e-11 1.09937e-11 1.10156e-11 1.11649e-11 1.19815e-11 1.57868e-11 3.93107e-11 1.50114e-10);
    }
    procBoundary3to2
    {
        type            processor;
        value           nonuniform List<scalar> 
25
(
3.58431e-09
2.10882e-09
1.1232e-09
6.01112e-10
3.41256e-10
2.03377e-10
1.34119e-10
9.33782e-11
6.99407e-11
5.31269e-11
4.32852e-11
4.32852e-11
3.55726e-11
3.04782e-11
2.61908e-11
2.32883e-11
2.07392e-11
1.86664e-11
1.69567e-11
1.55299e-11
1.43316e-11
1.33242e-11
1.24809e-11
1.18692e-11
1.1346e-11
)
;
    }
}


// ************************************************************************* //
