/*--------------------------------*- C++ -*----------------------------------*\
| =========                 |                                                 |
| \\      /  F ield         | OpenFOAM: The Open Source CFD Toolbox           |
|  \\    /   O peration     | Version:  dev                                   |
|   \\  /    A nd           | Web:      www.OpenFOAM.org                      |
|    \\/     M anipulation  |                                                 |
\*---------------------------------------------------------------------------*/
FoamFile
{
    version     2.0;
    format      ascii;
    class       volScalarField;
    location    "0.085";
    object      n-C6H7;
}
// * * * * * * * * * * * * * * * * * * * * * * * * * * * * * * * * * * * * * //

dimensions      [0 0 0 0 0 0 0];

internalField   nonuniform List<scalar> 
1989
(
8.91238e-15
8.90538e-15
8.90202e-15
8.89743e-15
8.89619e-15
8.8933e-15
8.893e-15
8.89124e-15
8.89131e-15
8.89029e-15
8.89045e-15
8.8899e-15
8.89002e-15
8.88984e-15
8.88984e-15
8.89002e-15
8.88989e-15
8.89043e-15
8.89026e-15
8.8913e-15
8.89123e-15
8.893e-15
8.89331e-15
8.89622e-15
8.89747e-15
8.90207e-15
8.90541e-15
8.91233e-15
8.92042e-15
8.9323e-15
8.95162e-15
8.97329e-15
9.01241e-15
9.05322e-15
9.13242e-15
9.22232e-15
9.3266e-15
9.50331e-15
9.60506e-15
8.47504e-15
8.38074e-15
8.21658e-15
8.1216e-15
8.04044e-15
7.96895e-15
7.93179e-15
7.89653e-15
7.87721e-15
7.85967e-15
7.84917e-15
7.84181e-15
7.83551e-15
7.83253e-15
7.82838e-15
7.82729e-15
7.82467e-15
7.82442e-15
7.82282e-15
7.8229e-15
7.82197e-15
7.82212e-15
7.82163e-15
7.82174e-15
7.82157e-15
7.82157e-15
7.82173e-15
7.82161e-15
7.82211e-15
7.82195e-15
7.82288e-15
7.82281e-15
7.82442e-15
7.82468e-15
7.82731e-15
7.82841e-15
7.83257e-15
7.83554e-15
7.84176e-15
7.84906e-15
7.85972e-15
7.87721e-15
7.89651e-15
7.93177e-15
7.96887e-15
8.04043e-15
8.12152e-15
8.21647e-15
8.38064e-15
8.47492e-15
7.44289e-15
7.35626e-15
7.20528e-15
7.11952e-15
7.04693e-15
6.9828e-15
6.9497e-15
6.91805e-15
6.901e-15
6.88529e-15
6.87595e-15
6.8694e-15
6.86377e-15
6.86114e-15
6.85742e-15
6.85647e-15
6.85413e-15
6.85392e-15
6.85248e-15
6.85256e-15
6.85173e-15
6.85187e-15
6.85143e-15
6.85153e-15
6.85138e-15
6.85138e-15
6.85152e-15
6.85142e-15
6.85186e-15
6.85171e-15
6.85255e-15
6.85248e-15
6.85392e-15
6.85414e-15
6.8565e-15
6.85745e-15
6.86118e-15
6.86379e-15
6.86934e-15
6.87584e-15
6.88534e-15
6.90101e-15
6.91804e-15
6.94968e-15
6.98272e-15
7.04692e-15
7.11945e-15
7.20518e-15
7.35617e-15
7.44277e-15
6.50054e-15
6.42119e-15
6.28216e-15
6.20517e-15
6.14045e-15
6.08316e-15
6.05421e-15
6.02575e-15
6.01075e-15
5.99678e-15
5.98851e-15
5.98271e-15
5.97772e-15
5.97541e-15
5.97211e-15
5.97128e-15
5.96919e-15
5.96901e-15
5.96774e-15
5.96781e-15
5.96707e-15
5.9672e-15
5.96681e-15
5.9669e-15
5.96677e-15
5.96676e-15
5.96689e-15
5.9668e-15
5.96719e-15
5.96705e-15
5.9678e-15
5.96773e-15
5.96901e-15
5.9692e-15
5.9713e-15
5.97213e-15
5.97544e-15
5.97774e-15
5.98265e-15
5.98839e-15
5.99683e-15
6.01078e-15
6.02574e-15
6.05418e-15
6.08309e-15
6.14042e-15
6.2051e-15
6.28206e-15
6.4211e-15
6.50043e-15
5.64618e-15
5.57549e-15
5.46653e-15
5.39872e-15
5.34218e-15
5.29167e-15
5.26665e-15
5.24149e-15
5.22849e-15
5.21628e-15
5.20904e-15
5.20399e-15
5.19961e-15
5.19762e-15
5.19473e-15
5.19402e-15
5.19219e-15
5.19204e-15
5.19092e-15
5.19099e-15
5.19034e-15
5.19046e-15
5.19011e-15
5.19019e-15
5.19008e-15
5.19008e-15
5.19019e-15
5.1901e-15
5.19045e-15
5.19032e-15
5.19098e-15
5.19091e-15
5.19204e-15
5.19219e-15
5.19404e-15
5.19475e-15
5.19765e-15
5.19963e-15
5.20392e-15
5.20892e-15
5.21632e-15
5.22853e-15
5.24147e-15
5.26662e-15
5.29161e-15
5.34215e-15
5.39866e-15
5.46644e-15
5.57542e-15
5.64608e-15
4.90596e-15
4.84389e-15
4.74631e-15
4.68735e-15
4.63877e-15
4.59468e-15
4.57327e-15
4.55127e-15
4.54015e-15
4.52959e-15
4.52334e-15
4.51897e-15
4.51519e-15
4.51349e-15
4.51098e-15
4.51038e-15
4.50879e-15
4.50868e-15
4.5077e-15
4.50777e-15
4.5072e-15
4.50731e-15
4.50701e-15
4.50708e-15
4.50698e-15
4.50698e-15
4.50708e-15
4.507e-15
4.5073e-15
4.50719e-15
4.50776e-15
4.5077e-15
4.50868e-15
4.5088e-15
4.5104e-15
4.511e-15
4.51351e-15
4.51521e-15
4.51891e-15
4.52321e-15
4.52965e-15
4.54018e-15
4.55126e-15
4.57325e-15
4.59463e-15
4.63874e-15
4.6873e-15
4.74623e-15
4.84382e-15
4.90587e-15
4.25891e-15
4.20477e-15
4.11933e-15
4.06839e-15
4.02714e-15
3.98912e-15
3.97103e-15
3.95204e-15
3.94263e-15
3.93362e-15
3.92829e-15
3.92456e-15
3.92134e-15
3.9199e-15
3.91775e-15
3.91725e-15
3.91589e-15
3.9158e-15
3.91496e-15
3.91503e-15
3.91454e-15
3.91463e-15
3.91437e-15
3.91443e-15
3.91435e-15
3.91435e-15
3.91443e-15
3.91436e-15
3.91462e-15
3.91452e-15
3.91502e-15
3.91495e-15
3.9158e-15
3.91589e-15
3.91726e-15
3.91777e-15
3.91992e-15
3.92135e-15
3.9245e-15
3.92815e-15
3.9337e-15
3.94266e-15
3.95203e-15
3.97101e-15
3.98908e-15
4.02712e-15
4.06835e-15
4.11926e-15
4.20472e-15
4.25883e-15
3.69607e-15
3.64853e-15
3.57506e-15
3.53092e-15
3.49609e-15
3.46365e-15
3.44842e-15
3.43222e-15
3.42431e-15
3.41668e-15
3.41217e-15
3.40901e-15
3.40629e-15
3.40508e-15
3.40326e-15
3.40285e-15
3.40169e-15
3.40162e-15
3.40091e-15
3.40096e-15
3.40055e-15
3.40063e-15
3.40041e-15
3.40047e-15
3.40039e-15
3.40039e-15
3.40046e-15
3.40041e-15
3.40062e-15
3.40054e-15
3.40096e-15
3.4009e-15
3.40162e-15
3.40169e-15
3.40286e-15
3.40328e-15
3.4051e-15
3.4063e-15
3.40896e-15
3.41203e-15
3.41677e-15
3.42433e-15
3.43221e-15
3.4484e-15
3.46361e-15
3.49606e-15
3.53088e-15
3.575e-15
3.64848e-15
3.69601e-15
3.21349e-15
3.17335e-15
3.11227e-15
3.07463e-15
3.04589e-15
3.01893e-15
3.00638e-15
2.99292e-15
2.98641e-15
2.98013e-15
2.9764e-15
2.97377e-15
2.97154e-15
2.97054e-15
2.96904e-15
2.9687e-15
2.96774e-15
2.96768e-15
2.9671e-15
2.96714e-15
2.9668e-15
2.96687e-15
2.96669e-15
2.96673e-15
2.96667e-15
2.96667e-15
2.96673e-15
2.96668e-15
2.96686e-15
2.96679e-15
2.96714e-15
2.96709e-15
2.96768e-15
2.96775e-15
2.9687e-15
2.96905e-15
2.97055e-15
2.97155e-15
2.97374e-15
2.97626e-15
2.98022e-15
2.98643e-15
2.99291e-15
3.00636e-15
3.0189e-15
3.04587e-15
3.0746e-15
3.11222e-15
3.17331e-15
3.21344e-15
2.81212e-15
2.77889e-15
2.72913e-15
2.6972e-15
2.67382e-15
2.65181e-15
2.64158e-15
2.63061e-15
2.62534e-15
2.62025e-15
2.61723e-15
2.61509e-15
2.61328e-15
2.61246e-15
2.61125e-15
2.61096e-15
2.61019e-15
2.61014e-15
2.60967e-15
2.6097e-15
2.60943e-15
2.60948e-15
2.60933e-15
2.60937e-15
2.60932e-15
2.60932e-15
2.60937e-15
2.60933e-15
2.60947e-15
2.60942e-15
2.6097e-15
2.60966e-15
2.61014e-15
2.61019e-15
2.61097e-15
2.61126e-15
2.61247e-15
2.61329e-15
2.61506e-15
2.6171e-15
2.62034e-15
2.62535e-15
2.6306e-15
2.64157e-15
2.65179e-15
2.6738e-15
2.69718e-15
2.72909e-15
2.77885e-15
2.81208e-15
2.48528e-15
2.45836e-15
2.41858e-15
2.39669e-15
2.37785e-15
2.36e-15
2.35176e-15
2.34288e-15
2.33867e-15
2.33461e-15
2.33218e-15
2.33047e-15
2.32901e-15
2.32835e-15
2.32737e-15
2.32714e-15
2.32653e-15
2.32648e-15
2.3261e-15
2.32613e-15
2.32591e-15
2.32595e-15
2.32584e-15
2.32587e-15
2.32583e-15
2.32583e-15
2.32586e-15
2.32583e-15
2.32595e-15
2.32591e-15
2.32613e-15
2.3261e-15
2.32648e-15
2.32653e-15
2.32715e-15
2.32738e-15
2.32835e-15
2.32901e-15
2.33044e-15
2.33208e-15
2.33468e-15
2.33868e-15
2.34288e-15
2.35175e-15
2.35998e-15
2.37784e-15
2.39667e-15
2.41855e-15
2.45833e-15
2.48525e-15
2.22979e-15
2.20843e-15
2.17692e-15
2.15938e-15
2.14439e-15
2.13015e-15
2.12358e-15
2.11654e-15
2.11308e-15
2.10976e-15
2.10777e-15
2.10635e-15
2.10515e-15
2.1046e-15
2.1038e-15
2.1036e-15
2.1031e-15
2.10306e-15
2.10275e-15
2.10277e-15
2.10259e-15
2.10262e-15
2.10253e-15
2.10255e-15
2.10252e-15
2.10252e-15
2.10255e-15
2.10253e-15
2.10262e-15
2.10259e-15
2.10277e-15
2.10275e-15
2.10306e-15
2.1031e-15
2.10361e-15
2.10381e-15
2.10461e-15
2.10515e-15
2.10633e-15
2.10768e-15
2.10982e-15
2.11309e-15
2.11653e-15
2.12357e-15
2.13014e-15
2.14438e-15
2.15936e-15
2.17689e-15
2.20841e-15
2.22976e-15
2.0307e-15
2.01385e-15
1.98902e-15
1.97526e-15
1.96348e-15
1.95244e-15
1.94724e-15
1.94183e-15
1.93911e-15
1.93658e-15
1.93502e-15
1.93391e-15
1.93297e-15
1.93253e-15
1.93191e-15
1.93174e-15
1.93136e-15
1.93132e-15
1.93108e-15
1.93109e-15
1.93096e-15
1.93098e-15
1.93091e-15
1.93092e-15
1.9309e-15
1.9309e-15
1.93092e-15
1.9309e-15
1.93097e-15
1.93095e-15
1.93109e-15
1.93108e-15
1.93132e-15
1.93136e-15
1.93175e-15
1.93191e-15
1.93253e-15
1.93297e-15
1.93389e-15
1.93495e-15
1.93662e-15
1.93912e-15
1.94183e-15
1.94724e-15
1.95243e-15
1.96347e-15
1.97524e-15
1.989e-15
2.01384e-15
2.03067e-15
1.88227e-15
1.86966e-15
1.85077e-15
1.84049e-15
1.83135e-15
1.823e-15
1.8189e-15
1.81487e-15
1.81275e-15
1.81087e-15
1.80968e-15
1.80882e-15
1.80809e-15
1.80773e-15
1.80726e-15
1.80713e-15
1.80684e-15
1.8068e-15
1.80662e-15
1.80662e-15
1.80652e-15
1.80653e-15
1.80648e-15
1.80649e-15
1.80647e-15
1.80647e-15
1.80649e-15
1.80648e-15
1.80653e-15
1.80652e-15
1.80662e-15
1.80662e-15
1.8068e-15
1.80684e-15
1.80713e-15
1.80727e-15
1.80774e-15
1.80809e-15
1.8088e-15
1.80962e-15
1.81091e-15
1.81276e-15
1.81487e-15
1.8189e-15
1.823e-15
1.83134e-15
1.84048e-15
1.85075e-15
1.86965e-15
1.88225e-15
1.7805e-15
1.77123e-15
1.75728e-15
1.74979e-15
1.74274e-15
1.73655e-15
1.73333e-15
1.73042e-15
1.72878e-15
1.72743e-15
1.72653e-15
1.72586e-15
1.72531e-15
1.72502e-15
1.72467e-15
1.72455e-15
1.72433e-15
1.72429e-15
1.72416e-15
1.72416e-15
1.72409e-15
1.72409e-15
1.72405e-15
1.72406e-15
1.72405e-15
1.72404e-15
1.72406e-15
1.72405e-15
1.72409e-15
1.72408e-15
1.72416e-15
1.72416e-15
1.72429e-15
1.72433e-15
1.72455e-15
1.72467e-15
1.72502e-15
1.72531e-15
1.72585e-15
1.72648e-15
1.72746e-15
1.72879e-15
1.73042e-15
1.73333e-15
1.73655e-15
1.74273e-15
1.74978e-15
1.75727e-15
1.77123e-15
1.78049e-15
1.71709e-15
1.71066e-15
1.70081e-15
1.69561e-15
1.69018e-15
1.68571e-15
1.68313e-15
1.68113e-15
1.67985e-15
1.67895e-15
1.67828e-15
1.67777e-15
1.67735e-15
1.67711e-15
1.67686e-15
1.67676e-15
1.6766e-15
1.67656e-15
1.67647e-15
1.67646e-15
1.67641e-15
1.67641e-15
1.67639e-15
1.67639e-15
1.67638e-15
1.67638e-15
1.67639e-15
1.67638e-15
1.67641e-15
1.67641e-15
1.67646e-15
1.67647e-15
1.67656e-15
1.6766e-15
1.67676e-15
1.67686e-15
1.67712e-15
1.67735e-15
1.67775e-15
1.67824e-15
1.67897e-15
1.67986e-15
1.68113e-15
1.68313e-15
1.68571e-15
1.69017e-15
1.6956e-15
1.70081e-15
1.71065e-15
1.71708e-15
1.68768e-15
1.68375e-15
1.67727e-15
1.67403e-15
1.66993e-15
1.66698e-15
1.66492e-15
1.66372e-15
1.66274e-15
1.66224e-15
1.66176e-15
1.66138e-15
1.66107e-15
1.66088e-15
1.66071e-15
1.66061e-15
1.66051e-15
1.66047e-15
1.66041e-15
1.6604e-15
1.66036e-15
1.66036e-15
1.66034e-15
1.66034e-15
1.66033e-15
1.66033e-15
1.66034e-15
1.66034e-15
1.66036e-15
1.66036e-15
1.6604e-15
1.66041e-15
1.66047e-15
1.66051e-15
1.66061e-15
1.66071e-15
1.66088e-15
1.66107e-15
1.66137e-15
1.66172e-15
1.66226e-15
1.66275e-15
1.66372e-15
1.66492e-15
1.66698e-15
1.66993e-15
1.67403e-15
1.67726e-15
1.68374e-15
1.68767e-15
1.68994e-15
1.68829e-15
1.68473e-15
1.68328e-15
1.68028e-15
1.67869e-15
1.67703e-15
1.67657e-15
1.67584e-15
1.67571e-15
1.6754e-15
1.67513e-15
1.67492e-15
1.67477e-15
1.67466e-15
1.67457e-15
1.67452e-15
1.67447e-15
1.67445e-15
1.67442e-15
1.67441e-15
1.67439e-15
1.67439e-15
1.67438e-15
1.67438e-15
1.67438e-15
1.67438e-15
1.67439e-15
1.67439e-15
1.67441e-15
1.67442e-15
1.67445e-15
1.67447e-15
1.67452e-15
1.67457e-15
1.67466e-15
1.67477e-15
1.67492e-15
1.67512e-15
1.67536e-15
1.67573e-15
1.67585e-15
1.67658e-15
1.67703e-15
1.67869e-15
1.68028e-15
1.68328e-15
1.68472e-15
1.68828e-15
1.68994e-15
1.72444e-15
1.72511e-15
1.72419e-15
1.72453e-15
1.72253e-15
1.72229e-15
1.72094e-15
1.72124e-15
1.72072e-15
1.72098e-15
1.72083e-15
1.72068e-15
1.72056e-15
1.72043e-15
1.72039e-15
1.72031e-15
1.7203e-15
1.72025e-15
1.72025e-15
1.72022e-15
1.72022e-15
1.7202e-15
1.7202e-15
1.72019e-15
1.72019e-15
1.72019e-15
1.72019e-15
1.7202e-15
1.7202e-15
1.72022e-15
1.72022e-15
1.72025e-15
1.72025e-15
1.7203e-15
1.72031e-15
1.72039e-15
1.72043e-15
1.72056e-15
1.72066e-15
1.7208e-15
1.721e-15
1.72073e-15
1.72125e-15
1.72095e-15
1.7223e-15
1.72253e-15
1.72453e-15
1.72419e-15
1.72511e-15
1.72444e-15
1.79539e-15
1.79864e-15
1.80065e-15
1.80301e-15
1.80198e-15
1.80329e-15
1.80217e-15
1.80333e-15
1.803e-15
1.80374e-15
1.80376e-15
1.80372e-15
1.8037e-15
1.8036e-15
1.80364e-15
1.80356e-15
1.8036e-15
1.80354e-15
1.80357e-15
1.80353e-15
1.80355e-15
1.80352e-15
1.80353e-15
1.80352e-15
1.80352e-15
1.80352e-15
1.80352e-15
1.80353e-15
1.80352e-15
1.80355e-15
1.80353e-15
1.80357e-15
1.80354e-15
1.8036e-15
1.80356e-15
1.80364e-15
1.8036e-15
1.8037e-15
1.80371e-15
1.80373e-15
1.80376e-15
1.80302e-15
1.80334e-15
1.80218e-15
1.8033e-15
1.80198e-15
1.80301e-15
1.80064e-15
1.79864e-15
1.7954e-15
1.91264e-15
1.91916e-15
1.92461e-15
1.92949e-15
1.92953e-15
1.9328e-15
1.9318e-15
1.93406e-15
1.93392e-15
1.93528e-15
1.9355e-15
1.93559e-15
1.93569e-15
1.93561e-15
1.93575e-15
1.93566e-15
1.93576e-15
1.93569e-15
1.93576e-15
1.93571e-15
1.93575e-15
1.93571e-15
1.93574e-15
1.93572e-15
1.93573e-15
1.93573e-15
1.93572e-15
1.93574e-15
1.93571e-15
1.93575e-15
1.93571e-15
1.93576e-15
1.93569e-15
1.93576e-15
1.93566e-15
1.93575e-15
1.93561e-15
1.93569e-15
1.93558e-15
1.93546e-15
1.9353e-15
1.93394e-15
1.93407e-15
1.93181e-15
1.9328e-15
1.92954e-15
1.9295e-15
1.9246e-15
1.91917e-15
1.91265e-15
2.09368e-15
2.10471e-15
2.11455e-15
2.12285e-15
2.1245e-15
2.13063e-15
2.12965e-15
2.13351e-15
2.13359e-15
2.13587e-15
2.13635e-15
2.13664e-15
2.13689e-15
2.13685e-15
2.13711e-15
2.13702e-15
2.13721e-15
2.13712e-15
2.13725e-15
2.13717e-15
2.13725e-15
2.1372e-15
2.13724e-15
2.13721e-15
2.13723e-15
2.13723e-15
2.13721e-15
2.13724e-15
2.1372e-15
2.13725e-15
2.13718e-15
2.13725e-15
2.13712e-15
2.13721e-15
2.13702e-15
2.13711e-15
2.13684e-15
2.13689e-15
2.13663e-15
2.13631e-15
2.13589e-15
2.13361e-15
2.13353e-15
2.12966e-15
2.13065e-15
2.12451e-15
2.12285e-15
2.11455e-15
2.10472e-15
2.09369e-15
2.36776e-15
2.38531e-15
2.40107e-15
2.4142e-15
2.41748e-15
2.42748e-15
2.42609e-15
2.43211e-15
2.43237e-15
2.43594e-15
2.43673e-15
2.43728e-15
2.43772e-15
2.43771e-15
2.43815e-15
2.43804e-15
2.43835e-15
2.43822e-15
2.43843e-15
2.43832e-15
2.43844e-15
2.43837e-15
2.43844e-15
2.4384e-15
2.43842e-15
2.43842e-15
2.4384e-15
2.43844e-15
2.43838e-15
2.43845e-15
2.43833e-15
2.43843e-15
2.43823e-15
2.43835e-15
2.43803e-15
2.43814e-15
2.43771e-15
2.43771e-15
2.43726e-15
2.4367e-15
2.43597e-15
2.43239e-15
2.43214e-15
2.42611e-15
2.4275e-15
2.41749e-15
2.41421e-15
2.40107e-15
2.38533e-15
2.36777e-15
2.78326e-15
2.81003e-15
2.83417e-15
2.85431e-15
2.86006e-15
2.87537e-15
2.87643e-15
2.88576e-15
2.88621e-15
2.89183e-15
2.89307e-15
2.894e-15
2.89472e-15
2.89476e-15
2.89545e-15
2.89532e-15
2.8958e-15
2.89563e-15
2.89595e-15
2.89581e-15
2.89599e-15
2.89589e-15
2.89599e-15
2.89593e-15
2.89597e-15
2.89597e-15
2.89593e-15
2.89599e-15
2.89589e-15
2.896e-15
2.89581e-15
2.89595e-15
2.89564e-15
2.8958e-15
2.89531e-15
2.89545e-15
2.89475e-15
2.89471e-15
2.89397e-15
2.89303e-15
2.89186e-15
2.88624e-15
2.88579e-15
2.87646e-15
2.8754e-15
2.86009e-15
2.85433e-15
2.83418e-15
2.81006e-15
2.78328e-15
3.41858e-15
3.45983e-15
3.49607e-15
3.52652e-15
3.53502e-15
3.55854e-15
3.55896e-15
3.5731e-15
3.57353e-15
3.58222e-15
3.58401e-15
3.58546e-15
3.58656e-15
3.58665e-15
3.5877e-15
3.58752e-15
3.58825e-15
3.588e-15
3.58848e-15
3.58827e-15
3.58855e-15
3.5884e-15
3.58855e-15
3.58847e-15
3.58853e-15
3.58853e-15
3.58847e-15
3.58855e-15
3.58841e-15
3.58856e-15
3.58828e-15
3.58849e-15
3.58801e-15
3.58824e-15
3.58751e-15
3.58769e-15
3.58663e-15
3.58654e-15
3.58543e-15
3.58397e-15
3.58225e-15
3.57357e-15
3.57314e-15
3.55901e-15
3.55858e-15
3.53505e-15
3.52655e-15
3.49608e-15
3.45987e-15
3.41861e-15
4.40595e-15
4.46986e-15
4.52372e-15
4.56931e-15
4.58456e-15
4.62158e-15
4.62149e-15
4.64348e-15
4.64377e-15
4.65776e-15
4.6604e-15
4.66271e-15
4.66438e-15
4.66457e-15
4.66618e-15
4.66593e-15
4.66705e-15
4.66669e-15
4.66743e-15
4.66712e-15
4.66754e-15
4.66732e-15
4.66755e-15
4.66743e-15
4.66751e-15
4.66752e-15
4.66744e-15
4.66755e-15
4.66733e-15
4.66756e-15
4.66713e-15
4.66743e-15
4.6667e-15
4.66704e-15
4.66591e-15
4.66616e-15
4.66454e-15
4.66435e-15
4.66266e-15
4.66037e-15
4.6578e-15
4.64383e-15
4.64355e-15
4.62156e-15
4.62165e-15
4.58462e-15
4.56935e-15
4.52374e-15
4.46991e-15
4.40599e-15
5.98715e-15
6.06825e-15
6.15299e-15
6.23491e-15
6.25714e-15
6.31261e-15
6.31133e-15
6.34445e-15
6.3439e-15
6.36668e-15
6.37035e-15
6.37383e-15
6.37623e-15
6.37654e-15
6.37892e-15
6.37856e-15
6.38022e-15
6.37971e-15
6.3808e-15
6.38035e-15
6.38097e-15
6.38065e-15
6.38099e-15
6.38082e-15
6.38094e-15
6.38095e-15
6.38083e-15
6.381e-15
6.38067e-15
6.381e-15
6.38036e-15
6.38081e-15
6.37972e-15
6.38021e-15
6.37854e-15
6.37889e-15
6.3765e-15
6.37618e-15
6.37377e-15
6.37031e-15
6.36673e-15
6.34397e-15
6.34455e-15
6.31144e-15
6.31271e-15
6.25721e-15
6.23498e-15
6.15305e-15
6.06832e-15
5.98721e-15
8.51465e-15
8.66127e-15
8.80062e-15
8.92049e-15
8.95131e-15
9.03426e-15
9.03043e-15
9.08029e-15
9.07759e-15
9.08165e-15
9.08656e-15
9.09176e-15
9.09517e-15
9.09559e-15
9.09913e-15
9.09858e-15
9.10106e-15
9.10029e-15
9.10191e-15
9.10124e-15
9.10217e-15
9.1017e-15
9.1022e-15
9.10195e-15
9.10213e-15
9.10213e-15
9.10196e-15
9.10221e-15
9.10173e-15
9.10221e-15
9.10126e-15
9.10193e-15
9.1003e-15
9.10105e-15
9.09854e-15
9.0991e-15
9.09554e-15
9.09509e-15
9.09168e-15
9.08652e-15
9.08172e-15
9.07769e-15
9.08045e-15
9.03061e-15
9.0344e-15
8.95141e-15
8.9206e-15
8.80071e-15
8.66148e-15
8.51474e-15
1.26497e-14
1.28677e-14
1.30698e-14
1.325e-14
1.32899e-14
1.34151e-14
1.34045e-14
1.34804e-14
1.34731e-14
1.34877e-14
1.34941e-14
1.35019e-14
1.35064e-14
1.3507e-14
1.35122e-14
1.35113e-14
1.3515e-14
1.35138e-14
1.35162e-14
1.35152e-14
1.35166e-14
1.35159e-14
1.35166e-14
1.35163e-14
1.35165e-14
1.35165e-14
1.35163e-14
1.35167e-14
1.35159e-14
1.35166e-14
1.35153e-14
1.35162e-14
1.35138e-14
1.3515e-14
1.35113e-14
1.35121e-14
1.35069e-14
1.35063e-14
1.35017e-14
1.34941e-14
1.34878e-14
1.34733e-14
1.34806e-14
1.34048e-14
1.34154e-14
1.329e-14
1.32502e-14
1.307e-14
1.2868e-14
1.26498e-14
1.94631e-14
1.97853e-14
2.00762e-14
2.03428e-14
2.03906e-14
2.05764e-14
2.05523e-14
2.06658e-14
2.065e-14
2.06764e-14
2.06846e-14
2.06958e-14
2.07015e-14
2.07022e-14
2.07095e-14
2.07082e-14
2.07135e-14
2.07118e-14
2.07152e-14
2.07138e-14
2.07157e-14
2.07147e-14
2.07158e-14
2.07153e-14
2.07156e-14
2.07156e-14
2.07153e-14
2.07158e-14
2.07148e-14
2.07158e-14
2.07138e-14
2.07152e-14
2.07118e-14
2.07134e-14
2.07081e-14
2.07095e-14
2.0702e-14
2.07013e-14
2.06956e-14
2.06846e-14
2.06765e-14
2.06502e-14
2.06661e-14
2.05527e-14
2.05767e-14
2.03908e-14
2.0343e-14
2.00764e-14
1.97857e-14
1.94632e-14
3.07363e-14
3.12009e-14
3.16113e-14
3.19964e-14
3.2045e-14
3.23146e-14
3.22652e-14
3.24314e-14
3.24002e-14
3.24434e-14
3.2453e-14
3.24689e-14
3.24749e-14
3.24756e-14
3.24857e-14
3.24837e-14
3.2491e-14
3.24886e-14
3.24934e-14
3.24914e-14
3.2494e-14
3.24927e-14
3.24941e-14
3.24934e-14
3.24939e-14
3.24939e-14
3.24934e-14
3.24942e-14
3.24928e-14
3.24942e-14
3.24914e-14
3.24934e-14
3.24886e-14
3.2491e-14
3.24836e-14
3.24856e-14
3.24754e-14
3.24746e-14
3.24687e-14
3.2453e-14
3.24435e-14
3.24005e-14
3.24319e-14
3.22657e-14
3.2315e-14
3.20453e-14
3.19967e-14
3.16115e-14
3.12015e-14
3.07365e-14
4.9572e-14
5.02284e-14
5.08373e-14
5.14199e-14
5.14774e-14
5.18801e-14
5.17901e-14
5.20272e-14
5.19708e-14
5.20384e-14
5.20495e-14
5.20719e-14
5.20757e-14
5.20764e-14
5.20898e-14
5.2087e-14
5.20968e-14
5.20935e-14
5.20999e-14
5.20972e-14
5.21007e-14
5.2099e-14
5.21009e-14
5.20999e-14
5.21005e-14
5.21006e-14
5.20999e-14
5.21009e-14
5.20991e-14
5.21009e-14
5.20973e-14
5.21e-14
5.20936e-14
5.20968e-14
5.20868e-14
5.20896e-14
5.20762e-14
5.20753e-14
5.20716e-14
5.20497e-14
5.20386e-14
5.19713e-14
5.20279e-14
5.17909e-14
5.18808e-14
5.1478e-14
5.14204e-14
5.08379e-14
5.0229e-14
4.95723e-14
8.23638e-14
8.32788e-14
8.38357e-14
8.46765e-14
8.46985e-14
8.52931e-14
8.51196e-14
8.54679e-14
8.53632e-14
8.54708e-14
8.5483e-14
8.55151e-14
8.55115e-14
8.5512e-14
8.55297e-14
8.55256e-14
8.55389e-14
8.55341e-14
8.55427e-14
8.55391e-14
8.55437e-14
8.55414e-14
8.55438e-14
8.55426e-14
8.55433e-14
8.55434e-14
8.55426e-14
8.55439e-14
8.55415e-14
8.55439e-14
8.55392e-14
8.55428e-14
8.55342e-14
8.55388e-14
8.55253e-14
8.55295e-14
8.55117e-14
8.5511e-14
8.55146e-14
8.54834e-14
8.54711e-14
8.53638e-14
8.5469e-14
8.51205e-14
8.52941e-14
8.46993e-14
8.46772e-14
8.38364e-14
8.32796e-14
8.23642e-14
1.42327e-13
1.43683e-13
1.44511e-13
1.45847e-13
1.45797e-13
1.46661e-13
1.46322e-13
1.46981e-13
1.46783e-13
1.46966e-13
1.46984e-13
1.47034e-13
1.47011e-13
1.47012e-13
1.47037e-13
1.4703e-13
1.47049e-13
1.47042e-13
1.47055e-13
1.47049e-13
1.47056e-13
1.47053e-13
1.47056e-13
1.47054e-13
1.47055e-13
1.47055e-13
1.47054e-13
1.47056e-13
1.47053e-13
1.47056e-13
1.47049e-13
1.47055e-13
1.47043e-13
1.47049e-13
1.4703e-13
1.47036e-13
1.47011e-13
1.4701e-13
1.47034e-13
1.46984e-13
1.46966e-13
1.46784e-13
1.46982e-13
1.46324e-13
1.46662e-13
1.45798e-13
1.45848e-13
1.44512e-13
1.43684e-13
1.42328e-13
2.64697e-13
2.66846e-13
2.68084e-13
2.70326e-13
2.7007e-13
2.71579e-13
2.70873e-13
2.72004e-13
2.71605e-13
2.71934e-13
2.71966e-13
2.72052e-13
2.71972e-13
2.71972e-13
2.72007e-13
2.71997e-13
2.72025e-13
2.72014e-13
2.72032e-13
2.72024e-13
2.72033e-13
2.72028e-13
2.72032e-13
2.7203e-13
2.72031e-13
2.72031e-13
2.7203e-13
2.72033e-13
2.72029e-13
2.72033e-13
2.72024e-13
2.72032e-13
2.72014e-13
2.72025e-13
2.71996e-13
2.72007e-13
2.71971e-13
2.7197e-13
2.72051e-13
2.71967e-13
2.71935e-13
2.71606e-13
2.72007e-13
2.70875e-13
2.71581e-13
2.70072e-13
2.70328e-13
2.68085e-13
2.66848e-13
2.64698e-13
5.49273e-13
5.52876e-13
5.54843e-13
5.58992e-13
5.58154e-13
5.61053e-13
5.59429e-13
5.61626e-13
5.60738e-13
5.61387e-13
5.61468e-13
5.61633e-13
5.61372e-13
5.61372e-13
5.61421e-13
5.61403e-13
5.61445e-13
5.61425e-13
5.61451e-13
5.61439e-13
5.6145e-13
5.61444e-13
5.61449e-13
5.61446e-13
5.61447e-13
5.61447e-13
5.61446e-13
5.61449e-13
5.61444e-13
5.61451e-13
5.61439e-13
5.61452e-13
5.61426e-13
5.61444e-13
5.61401e-13
5.61421e-13
5.6137e-13
5.61369e-13
5.61631e-13
5.61468e-13
5.61388e-13
5.60741e-13
5.61632e-13
5.59432e-13
5.61058e-13
5.58157e-13
5.58995e-13
5.54845e-13
5.52877e-13
5.49274e-13
1.31839e-12
1.32422e-12
1.32764e-12
1.33627e-12
1.3337e-12
1.33996e-12
1.3358e-12
1.34062e-12
1.33841e-12
1.33982e-12
1.33887e-12
1.33922e-12
1.33957e-12
1.33957e-12
1.33963e-12
1.33959e-12
1.33965e-12
1.33961e-12
1.33965e-12
1.33963e-12
1.33964e-12
1.33963e-12
1.33963e-12
1.33963e-12
1.33963e-12
1.33963e-12
1.33963e-12
1.33963e-12
1.33963e-12
1.33964e-12
1.33963e-12
1.33965e-12
1.33962e-12
1.33965e-12
1.33959e-12
1.33963e-12
1.33957e-12
1.33957e-12
1.33922e-12
1.33887e-12
1.33982e-12
1.33842e-12
1.34063e-12
1.3358e-12
1.33997e-12
1.3337e-12
1.33628e-12
1.32765e-12
1.32422e-12
1.31839e-12
3.74646e-12
3.75144e-12
3.75557e-12
3.77236e-12
3.76309e-12
3.77656e-12
3.76437e-12
3.77525e-12
3.76903e-12
3.77213e-12
3.76964e-12
3.77034e-12
3.77052e-12
3.77046e-12
3.77039e-12
3.77028e-12
3.77028e-12
3.77021e-12
3.7702e-12
3.77018e-12
3.77014e-12
3.77015e-12
3.77011e-12
3.77012e-12
3.77011e-12
3.77011e-12
3.77012e-12
3.77011e-12
3.77015e-12
3.77014e-12
3.77017e-12
3.7702e-12
3.77021e-12
3.77028e-12
3.77027e-12
3.77039e-12
3.77045e-12
3.77051e-12
3.77033e-12
3.76964e-12
3.77214e-12
3.76904e-12
3.77528e-12
3.76438e-12
3.77658e-12
3.76309e-12
3.77237e-12
3.75557e-12
3.75145e-12
3.74644e-12
1.23143e-11
1.22708e-11
1.22447e-11
1.22722e-11
1.22217e-11
1.22411e-11
1.22031e-11
1.22223e-11
1.2204e-11
1.22089e-11
1.22008e-11
1.22012e-11
1.21998e-11
1.21991e-11
1.21979e-11
1.21975e-11
1.21968e-11
1.21967e-11
1.21962e-11
1.21962e-11
1.21959e-11
1.2196e-11
1.21957e-11
1.21958e-11
1.21957e-11
1.21957e-11
1.21958e-11
1.21957e-11
1.2196e-11
1.21959e-11
1.21962e-11
1.21962e-11
1.21967e-11
1.21968e-11
1.21975e-11
1.21979e-11
1.21991e-11
1.21998e-11
1.22011e-11
1.22008e-11
1.22089e-11
1.22041e-11
1.22223e-11
1.22032e-11
1.22411e-11
1.22217e-11
1.22722e-11
1.22446e-11
1.22708e-11
1.23142e-11
3.8692e-11
3.82822e-11
3.80879e-11
3.79643e-11
3.7791e-11
3.77241e-11
3.76265e-11
3.76004e-11
3.75593e-11
3.75466e-11
3.75232e-11
3.75139e-11
3.75027e-11
3.74977e-11
3.74904e-11
3.74883e-11
3.74837e-11
3.74832e-11
3.74801e-11
3.74804e-11
3.74784e-11
3.7479e-11
3.74778e-11
3.74783e-11
3.74778e-11
3.74777e-11
3.74782e-11
3.74777e-11
3.7479e-11
3.74784e-11
3.74804e-11
3.74801e-11
3.74831e-11
3.74837e-11
3.74883e-11
3.74905e-11
3.74977e-11
3.75028e-11
3.75139e-11
3.75233e-11
3.75466e-11
3.75593e-11
3.76004e-11
3.76265e-11
3.77239e-11
3.77908e-11
3.7964e-11
3.80876e-11
3.82821e-11
3.86915e-11
)
;

boundaryField
{
    fuel
    {
        type            fixedValue;
        value           nonuniform 0();
    }
    wall
    {
        type            zeroGradient;
    }
    outlet
    {
        type            zeroGradient;
    }
    frontAndBack
    {
        type            empty;
    }
    procBoundary3to2
    {
        type            processor;
        value           nonuniform List<scalar> 
51
(
1.00801e-14
1.00724e-14
1.00687e-14
1.00636e-14
1.00622e-14
1.00591e-14
1.00587e-14
1.00568e-14
1.00569e-14
1.00557e-14
1.00559e-14
1.00553e-14
1.00554e-14
1.00552e-14
1.00552e-14
1.00554e-14
1.00553e-14
1.00559e-14
1.00557e-14
1.00569e-14
1.00568e-14
1.00587e-14
1.00591e-14
1.00623e-14
1.00637e-14
1.00687e-14
1.00724e-14
1.00801e-14
1.0089e-14
1.0102e-14
1.01233e-14
1.01473e-14
1.01903e-14
1.02349e-14
1.03217e-14
1.04205e-14
1.05337e-14
1.07228e-14
1.08313e-14
9.6052e-15
9.50342e-15
9.32672e-15
9.22241e-15
9.13244e-15
9.0533e-15
9.01244e-15
8.97331e-15
8.95166e-15
8.93222e-15
8.92054e-15
8.92054e-15
)
;
    }
}


// ************************************************************************* //
