/*--------------------------------*- C++ -*----------------------------------*\
| =========                 |                                                 |
| \\      /  F ield         | OpenFOAM: The Open Source CFD Toolbox           |
|  \\    /   O peration     | Version:  dev                                   |
|   \\  /    A nd           | Web:      www.OpenFOAM.org                      |
|    \\/     M anipulation  |                                                 |
\*---------------------------------------------------------------------------*/
FoamFile
{
    version     2.0;
    format      ascii;
    class       volScalarField;
    location    "0.085";
    object      OH;
}
// * * * * * * * * * * * * * * * * * * * * * * * * * * * * * * * * * * * * * //

dimensions      [0 0 0 0 0 0 0];

internalField   nonuniform List<scalar> 
1989
(
1.88422e-06
1.88276e-06
1.88205e-06
1.8811e-06
1.88083e-06
1.88023e-06
1.88015e-06
1.87978e-06
1.87979e-06
1.87958e-06
1.87961e-06
1.87949e-06
1.87951e-06
1.87947e-06
1.87947e-06
1.87951e-06
1.87949e-06
1.8796e-06
1.87957e-06
1.87979e-06
1.87978e-06
1.88015e-06
1.88023e-06
1.88083e-06
1.88111e-06
1.88206e-06
1.88277e-06
1.88421e-06
1.88589e-06
1.88833e-06
1.89231e-06
1.89678e-06
1.90478e-06
1.91317e-06
1.92935e-06
1.94786e-06
1.96917e-06
2.00528e-06
2.02621e-06
1.80147e-06
1.78198e-06
1.74826e-06
1.72876e-06
1.71198e-06
1.69728e-06
1.68961e-06
1.68236e-06
1.67835e-06
1.67472e-06
1.67255e-06
1.67101e-06
1.66969e-06
1.66906e-06
1.66819e-06
1.66795e-06
1.6674e-06
1.66734e-06
1.66701e-06
1.66702e-06
1.66682e-06
1.66685e-06
1.66674e-06
1.66676e-06
1.66673e-06
1.66673e-06
1.66676e-06
1.66674e-06
1.66685e-06
1.66682e-06
1.66701e-06
1.66701e-06
1.66734e-06
1.66741e-06
1.66796e-06
1.6682e-06
1.66907e-06
1.6697e-06
1.671e-06
1.67252e-06
1.67473e-06
1.67835e-06
1.68235e-06
1.68961e-06
1.69727e-06
1.71198e-06
1.72875e-06
1.74824e-06
1.78196e-06
1.80145e-06
1.59462e-06
1.57655e-06
1.54524e-06
1.52747e-06
1.51232e-06
1.49901e-06
1.49211e-06
1.48553e-06
1.48196e-06
1.47868e-06
1.47672e-06
1.47534e-06
1.47415e-06
1.47359e-06
1.4728e-06
1.4726e-06
1.4721e-06
1.47205e-06
1.47174e-06
1.47175e-06
1.47157e-06
1.4716e-06
1.47151e-06
1.47153e-06
1.47149e-06
1.47149e-06
1.47153e-06
1.4715e-06
1.4716e-06
1.47157e-06
1.47175e-06
1.47174e-06
1.47205e-06
1.4721e-06
1.4726e-06
1.47281e-06
1.4736e-06
1.47416e-06
1.47533e-06
1.4767e-06
1.47868e-06
1.48196e-06
1.48552e-06
1.4921e-06
1.49899e-06
1.51232e-06
1.52745e-06
1.54522e-06
1.57653e-06
1.5946e-06
1.40334e-06
1.38654e-06
1.3573e-06
1.34112e-06
1.32743e-06
1.31535e-06
1.30924e-06
1.30323e-06
1.30004e-06
1.29708e-06
1.29532e-06
1.29408e-06
1.29301e-06
1.29251e-06
1.2918e-06
1.29162e-06
1.29117e-06
1.29113e-06
1.29085e-06
1.29086e-06
1.2907e-06
1.29073e-06
1.29064e-06
1.29066e-06
1.29063e-06
1.29063e-06
1.29066e-06
1.29064e-06
1.29073e-06
1.2907e-06
1.29086e-06
1.29085e-06
1.29113e-06
1.29117e-06
1.29163e-06
1.29181e-06
1.29252e-06
1.29302e-06
1.29407e-06
1.2953e-06
1.29709e-06
1.30005e-06
1.30322e-06
1.30923e-06
1.31534e-06
1.32742e-06
1.3411e-06
1.35728e-06
1.38652e-06
1.40332e-06
1.22666e-06
1.21137e-06
1.18797e-06
1.17342e-06
1.16124e-06
1.15037e-06
1.14499e-06
1.13956e-06
1.13675e-06
1.1341e-06
1.13254e-06
1.13143e-06
1.13048e-06
1.13004e-06
1.12941e-06
1.12925e-06
1.12884e-06
1.12881e-06
1.12856e-06
1.12857e-06
1.12843e-06
1.12845e-06
1.12837e-06
1.12839e-06
1.12837e-06
1.12837e-06
1.12839e-06
1.12837e-06
1.12845e-06
1.12842e-06
1.12857e-06
1.12856e-06
1.12881e-06
1.12885e-06
1.12925e-06
1.12941e-06
1.13005e-06
1.13048e-06
1.13142e-06
1.13251e-06
1.13411e-06
1.13676e-06
1.13955e-06
1.14499e-06
1.15036e-06
1.16124e-06
1.1734e-06
1.18795e-06
1.21135e-06
1.22664e-06
1.06976e-06
1.05594e-06
1.03442e-06
1.02143e-06
1.01072e-06
1.00097e-06
9.9626e-07
9.9137e-07
9.88912e-07
9.86559e-07
9.8517e-07
9.84194e-07
9.83348e-07
9.82964e-07
9.82399e-07
9.82262e-07
9.81901e-07
9.81873e-07
9.81651e-07
9.81665e-07
9.81535e-07
9.81558e-07
9.81488e-07
9.81504e-07
9.81481e-07
9.8148e-07
9.81503e-07
9.81486e-07
9.81556e-07
9.81532e-07
9.81663e-07
9.8165e-07
9.81874e-07
9.81903e-07
9.82266e-07
9.82403e-07
9.8297e-07
9.83352e-07
9.84179e-07
9.85139e-07
9.86573e-07
9.88919e-07
9.91366e-07
9.96254e-07
1.00096e-06
1.01071e-06
1.02141e-06
1.0344e-06
1.05592e-06
1.06974e-06
9.28044e-07
9.15528e-07
8.9605e-07
8.84425e-07
8.75064e-07
8.66365e-07
8.62274e-07
8.57897e-07
8.55759e-07
8.5368e-07
8.52456e-07
8.51597e-07
8.50852e-07
8.50519e-07
8.50018e-07
8.49902e-07
8.49581e-07
8.4956e-07
8.49361e-07
8.49376e-07
8.4926e-07
8.49282e-07
8.49219e-07
8.49234e-07
8.49213e-07
8.49213e-07
8.49233e-07
8.49217e-07
8.49279e-07
8.49257e-07
8.49374e-07
8.4936e-07
8.4956e-07
8.49582e-07
8.49905e-07
8.50022e-07
8.50524e-07
8.50855e-07
8.51583e-07
8.52423e-07
8.537e-07
8.55766e-07
8.57894e-07
8.62268e-07
8.66355e-07
8.75057e-07
8.84414e-07
8.96034e-07
9.15514e-07
9.28027e-07
7.99454e-07
7.87931e-07
7.70489e-07
7.59964e-07
7.5177e-07
7.44027e-07
7.40467e-07
7.3656e-07
7.34698e-07
7.3286e-07
7.31785e-07
7.31027e-07
7.30375e-07
7.30084e-07
7.29642e-07
7.29543e-07
7.29259e-07
7.29242e-07
7.29066e-07
7.2908e-07
7.28977e-07
7.28997e-07
7.28941e-07
7.28955e-07
7.28937e-07
7.28936e-07
7.28955e-07
7.2894e-07
7.28995e-07
7.28975e-07
7.29079e-07
7.29065e-07
7.29242e-07
7.2926e-07
7.29546e-07
7.29646e-07
7.30089e-07
7.30377e-07
7.31016e-07
7.31749e-07
7.32884e-07
7.34704e-07
7.36557e-07
7.40462e-07
7.44018e-07
7.51764e-07
7.59954e-07
7.70474e-07
7.87919e-07
7.99438e-07
6.8317e-07
6.72861e-07
6.57631e-07
6.48175e-07
6.41123e-07
6.34354e-07
6.31302e-07
6.27875e-07
6.26281e-07
6.24684e-07
6.23753e-07
6.23097e-07
6.22534e-07
6.22284e-07
6.21901e-07
6.21816e-07
6.21569e-07
6.21556e-07
6.21403e-07
6.21416e-07
6.21326e-07
6.21344e-07
6.21295e-07
6.21308e-07
6.21292e-07
6.21291e-07
6.21307e-07
6.21294e-07
6.21342e-07
6.21324e-07
6.21415e-07
6.21402e-07
6.21556e-07
6.2157e-07
6.21819e-07
6.21904e-07
6.22288e-07
6.22536e-07
6.23088e-07
6.23717e-07
6.24708e-07
6.26285e-07
6.27872e-07
6.31298e-07
6.34346e-07
6.41117e-07
6.48166e-07
6.57618e-07
6.72851e-07
6.83157e-07
5.7989e-07
5.70732e-07
5.57577e-07
5.49071e-07
5.43051e-07
5.37181e-07
5.34587e-07
5.31604e-07
5.30251e-07
5.28872e-07
5.28076e-07
5.27514e-07
5.27031e-07
5.26819e-07
5.26489e-07
5.26417e-07
5.26204e-07
5.26194e-07
5.26062e-07
5.26074e-07
5.25996e-07
5.26012e-07
5.2597e-07
5.25981e-07
5.25967e-07
5.25966e-07
5.2598e-07
5.25969e-07
5.2601e-07
5.25994e-07
5.26072e-07
5.26061e-07
5.26194e-07
5.26205e-07
5.2642e-07
5.26491e-07
5.26822e-07
5.27033e-07
5.27508e-07
5.28042e-07
5.28895e-07
5.30254e-07
5.31602e-07
5.34583e-07
5.37175e-07
5.43045e-07
5.49064e-07
5.57567e-07
5.70721e-07
5.79879e-07
4.88713e-07
4.80636e-07
4.69361e-07
4.63192e-07
4.58078e-07
4.52973e-07
4.50787e-07
4.48184e-07
4.47045e-07
4.45856e-07
4.45177e-07
4.44701e-07
4.44285e-07
4.44107e-07
4.43822e-07
4.43764e-07
4.4358e-07
4.43573e-07
4.43458e-07
4.4347e-07
4.43403e-07
4.43417e-07
4.4338e-07
4.4339e-07
4.43378e-07
4.43378e-07
4.4339e-07
4.4338e-07
4.43416e-07
4.43401e-07
4.43469e-07
4.43458e-07
4.43573e-07
4.43581e-07
4.43766e-07
4.43825e-07
4.4411e-07
4.44287e-07
4.44696e-07
4.45149e-07
4.45875e-07
4.47048e-07
4.48181e-07
4.50784e-07
4.52968e-07
4.58073e-07
4.63185e-07
4.69353e-07
4.80626e-07
4.88703e-07
4.10014e-07
4.02925e-07
3.93243e-07
3.87845e-07
3.83536e-07
3.79127e-07
3.77303e-07
3.75045e-07
3.74051e-07
3.72985e-07
3.72384e-07
3.71964e-07
3.71594e-07
3.71438e-07
3.71184e-07
3.71134e-07
3.70969e-07
3.70963e-07
3.7086e-07
3.70871e-07
3.70811e-07
3.70824e-07
3.70791e-07
3.708e-07
3.70789e-07
3.70789e-07
3.708e-07
3.70791e-07
3.70823e-07
3.70809e-07
3.7087e-07
3.7086e-07
3.70963e-07
3.70969e-07
3.71135e-07
3.71186e-07
3.71441e-07
3.71596e-07
3.7196e-07
3.72361e-07
3.73e-07
3.74053e-07
3.75042e-07
3.773e-07
3.79122e-07
3.83532e-07
3.8784e-07
3.93236e-07
4.02916e-07
4.10006e-07
3.40554e-07
3.34242e-07
3.25846e-07
3.21131e-07
3.17528e-07
3.13785e-07
3.12275e-07
3.10348e-07
3.09522e-07
3.08616e-07
3.08111e-07
3.07759e-07
3.07447e-07
3.07317e-07
3.07102e-07
3.0706e-07
3.0692e-07
3.06917e-07
3.06829e-07
3.06839e-07
3.06788e-07
3.06799e-07
3.06771e-07
3.06779e-07
3.06769e-07
3.06769e-07
3.06778e-07
3.0677e-07
3.06798e-07
3.06786e-07
3.06838e-07
3.06829e-07
3.06916e-07
3.06921e-07
3.07062e-07
3.07103e-07
3.07319e-07
3.07448e-07
3.07756e-07
3.08093e-07
3.08627e-07
3.09524e-07
3.10346e-07
3.12272e-07
3.1378e-07
3.17524e-07
3.21126e-07
3.25841e-07
3.34234e-07
3.40546e-07
2.79872e-07
2.74421e-07
2.67327e-07
2.63336e-07
2.60359e-07
2.57216e-07
2.55978e-07
2.54351e-07
2.53672e-07
2.52908e-07
2.52488e-07
2.52197e-07
2.51935e-07
2.51828e-07
2.51648e-07
2.51614e-07
2.51496e-07
2.51494e-07
2.5142e-07
2.51429e-07
2.51386e-07
2.51396e-07
2.51372e-07
2.51379e-07
2.51371e-07
2.51371e-07
2.51378e-07
2.51372e-07
2.51395e-07
2.51385e-07
2.51428e-07
2.5142e-07
2.51494e-07
2.51497e-07
2.51615e-07
2.51649e-07
2.5183e-07
2.51936e-07
2.52194e-07
2.52474e-07
2.52916e-07
2.53673e-07
2.54349e-07
2.55976e-07
2.57212e-07
2.60356e-07
2.63332e-07
2.67322e-07
2.74413e-07
2.79866e-07
2.28463e-07
2.23729e-07
2.17819e-07
2.14427e-07
2.11991e-07
2.09355e-07
2.08357e-07
2.06985e-07
2.06434e-07
2.05792e-07
2.05445e-07
2.05205e-07
2.04988e-07
2.049e-07
2.04749e-07
2.04723e-07
2.04624e-07
2.04623e-07
2.04561e-07
2.04569e-07
2.04532e-07
2.04541e-07
2.04521e-07
2.04527e-07
2.0452e-07
2.0452e-07
2.04527e-07
2.04521e-07
2.0454e-07
2.04531e-07
2.04568e-07
2.04561e-07
2.04623e-07
2.04624e-07
2.04724e-07
2.04751e-07
2.04902e-07
2.04989e-07
2.05203e-07
2.05434e-07
2.05798e-07
2.06435e-07
2.06983e-07
2.08355e-07
2.09352e-07
2.11988e-07
2.14424e-07
2.17815e-07
2.23721e-07
2.28458e-07
1.84455e-07
1.80423e-07
1.75561e-07
1.72688e-07
1.7068e-07
1.68432e-07
1.67616e-07
1.66443e-07
1.6599e-07
1.65444e-07
1.65153e-07
1.64954e-07
1.64774e-07
1.64705e-07
1.64581e-07
1.64561e-07
1.6448e-07
1.6448e-07
1.64429e-07
1.64437e-07
1.64407e-07
1.64414e-07
1.64398e-07
1.64403e-07
1.64397e-07
1.64397e-07
1.64402e-07
1.64397e-07
1.64413e-07
1.64406e-07
1.64436e-07
1.64429e-07
1.6448e-07
1.6448e-07
1.64562e-07
1.64582e-07
1.64707e-07
1.64775e-07
1.64952e-07
1.65144e-07
1.65448e-07
1.6599e-07
1.66441e-07
1.67614e-07
1.68429e-07
1.70677e-07
1.72685e-07
1.75558e-07
1.80416e-07
1.84451e-07
1.47108e-07
1.43777e-07
1.39784e-07
1.37382e-07
1.35773e-07
1.33924e-07
1.33282e-07
1.32311e-07
1.31951e-07
1.315e-07
1.31264e-07
1.31104e-07
1.30957e-07
1.30903e-07
1.30801e-07
1.30786e-07
1.30719e-07
1.30721e-07
1.30678e-07
1.30685e-07
1.3066e-07
1.30667e-07
1.30653e-07
1.30657e-07
1.30653e-07
1.30653e-07
1.30657e-07
1.30653e-07
1.30666e-07
1.30659e-07
1.30684e-07
1.30678e-07
1.3072e-07
1.3072e-07
1.30787e-07
1.30802e-07
1.30904e-07
1.30958e-07
1.31102e-07
1.31257e-07
1.31504e-07
1.31952e-07
1.3231e-07
1.33281e-07
1.33922e-07
1.35771e-07
1.3738e-07
1.39781e-07
1.43772e-07
1.47104e-07
1.15752e-07
1.13037e-07
1.09787e-07
1.07808e-07
1.06538e-07
1.05036e-07
1.0454e-07
1.03745e-07
1.03464e-07
1.03096e-07
1.02906e-07
1.02778e-07
1.02661e-07
1.02618e-07
1.02536e-07
1.02525e-07
1.02471e-07
1.02473e-07
1.02438e-07
1.02444e-07
1.02424e-07
1.02429e-07
1.02418e-07
1.02422e-07
1.02418e-07
1.02418e-07
1.02422e-07
1.02418e-07
1.02429e-07
1.02423e-07
1.02444e-07
1.02438e-07
1.02472e-07
1.02471e-07
1.02526e-07
1.02537e-07
1.02619e-07
1.02662e-07
1.02777e-07
1.02901e-07
1.03099e-07
1.03464e-07
1.03744e-07
1.04539e-07
1.05035e-07
1.06536e-07
1.07807e-07
1.09785e-07
1.13034e-07
1.15749e-07
8.96516e-08
8.74234e-08
8.49135e-08
8.33096e-08
8.23226e-08
8.11204e-08
8.0745e-08
8.01038e-08
7.98874e-08
7.95903e-08
7.94397e-08
7.93392e-08
7.92469e-08
7.92141e-08
7.91487e-08
7.91406e-08
7.90974e-08
7.90992e-08
7.90719e-08
7.90767e-08
7.90606e-08
7.90652e-08
7.90563e-08
7.90591e-08
7.90562e-08
7.90562e-08
7.90591e-08
7.90561e-08
7.90648e-08
7.90601e-08
7.90764e-08
7.90717e-08
7.90991e-08
7.90975e-08
7.91411e-08
7.91492e-08
7.92148e-08
7.92475e-08
7.93387e-08
7.94352e-08
7.95926e-08
7.98873e-08
8.01028e-08
8.07438e-08
8.1119e-08
8.23213e-08
8.3308e-08
8.49119e-08
8.74211e-08
8.96495e-08
6.82949e-08
6.65247e-08
6.45474e-08
6.32702e-08
6.25183e-08
6.1571e-08
6.12949e-08
6.07856e-08
6.06225e-08
6.03857e-08
6.02686e-08
6.01908e-08
6.01193e-08
6.00946e-08
6.00433e-08
6.00377e-08
6.00037e-08
6.00057e-08
5.99841e-08
5.99882e-08
5.99755e-08
5.99793e-08
5.99723e-08
5.99746e-08
5.99723e-08
5.99722e-08
5.99745e-08
5.99721e-08
5.9979e-08
5.99751e-08
5.9988e-08
5.9984e-08
6.00056e-08
6.00039e-08
6.00381e-08
6.00438e-08
6.00952e-08
6.01197e-08
6.01905e-08
6.02654e-08
6.03872e-08
6.06224e-08
6.07848e-08
6.1294e-08
6.15699e-08
6.25173e-08
6.32689e-08
6.45462e-08
6.65233e-08
6.82931e-08
5.10278e-08
4.9644e-08
4.81136e-08
4.71174e-08
4.65584e-08
4.58255e-08
4.56306e-08
4.52336e-08
4.51137e-08
4.49279e-08
4.48384e-08
4.47793e-08
4.47251e-08
4.47069e-08
4.46676e-08
4.46638e-08
4.46377e-08
4.46395e-08
4.46229e-08
4.46263e-08
4.46165e-08
4.46195e-08
4.46141e-08
4.46159e-08
4.46142e-08
4.46141e-08
4.46159e-08
4.4614e-08
4.46193e-08
4.46162e-08
4.46261e-08
4.46228e-08
4.46394e-08
4.46378e-08
4.46641e-08
4.46679e-08
4.47074e-08
4.47255e-08
4.47791e-08
4.48366e-08
4.49285e-08
4.51135e-08
4.52329e-08
4.56299e-08
4.58246e-08
4.65576e-08
4.71164e-08
4.81128e-08
4.96432e-08
5.10263e-08
3.73008e-08
3.62385e-08
3.50784e-08
3.43195e-08
3.38905e-08
3.33219e-08
3.31901e-08
3.28814e-08
3.27937e-08
3.26481e-08
3.25795e-08
3.25349e-08
3.24943e-08
3.24809e-08
3.24509e-08
3.24484e-08
3.24284e-08
3.24301e-08
3.24173e-08
3.24201e-08
3.24126e-08
3.2415e-08
3.24109e-08
3.24123e-08
3.24109e-08
3.24109e-08
3.24123e-08
3.24108e-08
3.24148e-08
3.24123e-08
3.24199e-08
3.24172e-08
3.243e-08
3.24284e-08
3.24486e-08
3.24511e-08
3.24813e-08
3.24946e-08
3.25348e-08
3.25788e-08
3.26479e-08
3.27936e-08
3.28809e-08
3.31895e-08
3.33212e-08
3.389e-08
3.43188e-08
3.50778e-08
3.6238e-08
3.72996e-08
2.66039e-08
2.58004e-08
2.495e-08
2.43843e-08
2.40793e-08
2.36537e-08
2.35781e-08
2.33476e-08
2.32867e-08
2.31761e-08
2.31261e-08
2.30935e-08
2.30643e-08
2.30549e-08
2.30329e-08
2.30314e-08
2.30167e-08
2.30181e-08
2.30087e-08
2.30109e-08
2.30054e-08
2.30072e-08
2.30042e-08
2.30053e-08
2.30043e-08
2.30042e-08
2.30053e-08
2.30041e-08
2.30071e-08
2.30052e-08
2.30108e-08
2.30087e-08
2.30181e-08
2.30167e-08
2.30315e-08
2.30331e-08
2.30552e-08
2.30645e-08
2.30935e-08
2.31258e-08
2.31758e-08
2.32865e-08
2.33472e-08
2.35776e-08
2.36532e-08
2.40789e-08
2.43838e-08
2.49497e-08
2.58001e-08
2.6603e-08
1.84521e-08
1.78689e-08
1.72646e-08
1.68544e-08
1.66389e-08
1.63326e-08
1.62456e-08
1.60772e-08
1.60354e-08
1.59523e-08
1.59167e-08
1.58932e-08
1.58727e-08
1.58662e-08
1.58504e-08
1.58495e-08
1.58389e-08
1.58401e-08
1.58333e-08
1.5835e-08
1.5831e-08
1.58324e-08
1.58302e-08
1.5831e-08
1.58303e-08
1.58303e-08
1.5831e-08
1.58302e-08
1.58323e-08
1.58309e-08
1.58349e-08
1.58333e-08
1.584e-08
1.5839e-08
1.58496e-08
1.58505e-08
1.58664e-08
1.58728e-08
1.58933e-08
1.59165e-08
1.5952e-08
1.60353e-08
1.60768e-08
1.62452e-08
1.63323e-08
1.66384e-08
1.68541e-08
1.72643e-08
1.78687e-08
1.84515e-08
1.24224e-08
1.20061e-08
1.15915e-08
1.13051e-08
1.11625e-08
1.09461e-08
1.0894e-08
1.07755e-08
1.07487e-08
1.06877e-08
1.06638e-08
1.06475e-08
1.06336e-08
1.06293e-08
1.06184e-08
1.06179e-08
1.06106e-08
1.06116e-08
1.06069e-08
1.06081e-08
1.06053e-08
1.06063e-08
1.06048e-08
1.06054e-08
1.06049e-08
1.06049e-08
1.06054e-08
1.06048e-08
1.06063e-08
1.06053e-08
1.0608e-08
1.06069e-08
1.06115e-08
1.06107e-08
1.0618e-08
1.06185e-08
1.06294e-08
1.06337e-08
1.06475e-08
1.06636e-08
1.06875e-08
1.07486e-08
1.07753e-08
1.08938e-08
1.09458e-08
1.11622e-08
1.13048e-08
1.15913e-08
1.20059e-08
1.2422e-08
8.09756e-09
7.80712e-09
7.53455e-09
7.34407e-09
7.24295e-09
7.09213e-09
7.0614e-09
6.97943e-09
6.9625e-09
6.91714e-09
6.90134e-09
6.89021e-09
6.881e-09
6.87822e-09
6.87089e-09
6.87065e-09
6.86573e-09
6.86641e-09
6.86326e-09
6.86411e-09
6.86226e-09
6.86295e-09
6.86194e-09
6.86233e-09
6.86198e-09
6.86197e-09
6.86232e-09
6.86191e-09
6.8629e-09
6.8622e-09
6.86407e-09
6.86324e-09
6.86639e-09
6.86575e-09
6.87071e-09
6.87095e-09
6.87831e-09
6.88109e-09
6.89031e-09
6.90125e-09
6.91699e-09
6.9624e-09
6.97926e-09
7.06123e-09
7.09193e-09
7.24275e-09
7.3439e-09
7.53443e-09
7.80698e-09
8.09732e-09
5.06832e-09
4.90276e-09
4.72409e-09
4.5837e-09
4.5194e-09
4.42226e-09
4.4048e-09
4.35187e-09
4.34196e-09
4.30815e-09
4.29836e-09
4.29126e-09
4.28551e-09
4.28378e-09
4.27915e-09
4.27903e-09
4.27592e-09
4.27637e-09
4.27438e-09
4.27493e-09
4.27376e-09
4.27421e-09
4.27357e-09
4.27383e-09
4.2736e-09
4.2736e-09
4.27382e-09
4.27356e-09
4.27418e-09
4.27372e-09
4.27491e-09
4.27437e-09
4.27636e-09
4.27593e-09
4.27906e-09
4.27919e-09
4.28384e-09
4.28557e-09
4.29132e-09
4.29831e-09
4.30805e-09
4.34189e-09
4.35176e-09
4.40468e-09
4.42212e-09
4.51927e-09
4.58358e-09
4.72396e-09
4.90269e-09
5.06815e-09
3.0692e-09
2.9533e-09
2.83674e-09
2.75072e-09
2.71228e-09
2.65284e-09
2.64322e-09
2.61067e-09
2.60538e-09
2.59851e-09
2.59274e-09
2.5884e-09
2.58492e-09
2.58389e-09
2.58106e-09
2.58101e-09
2.57911e-09
2.57941e-09
2.57818e-09
2.57854e-09
2.57782e-09
2.5781e-09
2.57771e-09
2.57787e-09
2.57773e-09
2.57773e-09
2.57787e-09
2.5777e-09
2.57809e-09
2.5778e-09
2.57852e-09
2.57817e-09
2.5794e-09
2.57912e-09
2.58104e-09
2.58108e-09
2.58393e-09
2.58496e-09
2.58844e-09
2.59272e-09
2.59846e-09
2.60534e-09
2.6106e-09
2.64315e-09
2.65276e-09
2.71221e-09
2.75064e-09
2.83667e-09
2.95319e-09
3.06909e-09
1.78321e-09
1.71335e-09
1.64503e-09
1.59362e-09
1.57185e-09
1.53649e-09
1.53168e-09
1.51216e-09
1.50961e-09
1.50526e-09
1.50202e-09
1.49948e-09
1.49747e-09
1.49689e-09
1.49523e-09
1.49522e-09
1.4941e-09
1.49429e-09
1.49357e-09
1.49379e-09
1.49337e-09
1.49354e-09
1.49331e-09
1.4934e-09
1.49332e-09
1.49332e-09
1.4934e-09
1.4933e-09
1.49353e-09
1.49335e-09
1.49378e-09
1.49357e-09
1.49429e-09
1.49411e-09
1.49523e-09
1.49524e-09
1.49691e-09
1.49749e-09
1.4995e-09
1.50201e-09
1.50523e-09
1.50958e-09
1.51212e-09
1.53163e-09
1.53644e-09
1.57181e-09
1.59357e-09
1.64499e-09
1.71327e-09
1.78314e-09
9.89992e-10
9.50001e-10
9.11924e-10
8.82725e-10
8.71069e-10
8.5108e-10
8.48858e-10
8.37723e-10
8.36613e-10
8.33987e-10
8.32256e-10
8.30836e-10
8.29739e-10
8.29424e-10
8.28503e-10
8.28505e-10
8.27884e-10
8.27995e-10
8.27594e-10
8.27718e-10
8.27484e-10
8.27581e-10
8.27453e-10
8.27506e-10
8.27461e-10
8.2746e-10
8.27505e-10
8.2745e-10
8.27574e-10
8.27475e-10
8.27713e-10
8.27591e-10
8.27992e-10
8.27887e-10
8.28513e-10
8.28511e-10
8.29436e-10
8.29753e-10
8.30846e-10
8.3225e-10
8.33971e-10
8.36597e-10
8.37699e-10
8.48831e-10
8.51052e-10
8.71045e-10
8.827e-10
9.11898e-10
9.49955e-10
9.8996e-10
5.23223e-10
5.01628e-10
4.81592e-10
4.65996e-10
4.60161e-10
4.4951e-10
4.48592e-10
4.42591e-10
4.42173e-10
4.40677e-10
4.39805e-10
4.39052e-10
4.38493e-10
4.3833e-10
4.37848e-10
4.37852e-10
4.37526e-10
4.37587e-10
4.37376e-10
4.37442e-10
4.37319e-10
4.37371e-10
4.37304e-10
4.37332e-10
4.37309e-10
4.37308e-10
4.37332e-10
4.37302e-10
4.37368e-10
4.37315e-10
4.3744e-10
4.37374e-10
4.37585e-10
4.37527e-10
4.37856e-10
4.37852e-10
4.38337e-10
4.385e-10
4.39058e-10
4.39802e-10
4.40668e-10
4.42164e-10
4.42578e-10
4.48577e-10
4.49496e-10
4.60149e-10
4.65983e-10
4.81579e-10
5.01601e-10
5.23207e-10
2.63315e-10
2.5237e-10
2.42011e-10
2.33938e-10
2.31024e-10
2.25603e-10
2.25227e-10
2.22244e-10
2.221e-10
2.21313e-10
2.20898e-10
2.20524e-10
2.20262e-10
2.20181e-10
2.19947e-10
2.19948e-10
2.19789e-10
2.19819e-10
2.19716e-10
2.19748e-10
2.19688e-10
2.19713e-10
2.19681e-10
2.19695e-10
2.19683e-10
2.19683e-10
2.19694e-10
2.1968e-10
2.19712e-10
2.19686e-10
2.19747e-10
2.19715e-10
2.19818e-10
2.1979e-10
2.1995e-10
2.19949e-10
2.20184e-10
2.20266e-10
2.20527e-10
2.20897e-10
2.21309e-10
2.22096e-10
2.22238e-10
2.2522e-10
2.25595e-10
2.31017e-10
2.3393e-10
2.42003e-10
2.52357e-10
2.63308e-10
1.26036e-10
1.20928e-10
1.16792e-10
1.12988e-10
1.11691e-10
1.09128e-10
1.09003e-10
1.0761e-10
1.07577e-10
1.07187e-10
1.07001e-10
1.06825e-10
1.06711e-10
1.06673e-10
1.06565e-10
1.06565e-10
1.06493e-10
1.06506e-10
1.06459e-10
1.06473e-10
1.06446e-10
1.06458e-10
1.06443e-10
1.06449e-10
1.06444e-10
1.06443e-10
1.06449e-10
1.06442e-10
1.06457e-10
1.06445e-10
1.06473e-10
1.06458e-10
1.06506e-10
1.06493e-10
1.06566e-10
1.06566e-10
1.06674e-10
1.06713e-10
1.06826e-10
1.07e-10
1.07185e-10
1.07575e-10
1.07607e-10
1.08999e-10
1.09124e-10
1.11688e-10
1.12984e-10
1.16788e-10
1.20922e-10
1.26032e-10
5.88061e-11
5.65198e-11
5.47198e-11
5.29975e-11
5.2442e-11
5.13375e-11
5.13005e-11
5.06216e-11
5.06202e-11
5.04359e-11
5.03549e-11
5.02751e-11
5.0229e-11
5.02113e-11
5.01644e-11
5.0164e-11
5.01321e-11
5.01377e-11
5.01169e-11
5.01233e-11
5.01113e-11
5.01162e-11
5.01097e-11
5.01125e-11
5.01101e-11
5.011e-11
5.01124e-11
5.01095e-11
5.01159e-11
5.01108e-11
5.0123e-11
5.01168e-11
5.01375e-11
5.01322e-11
5.01644e-11
5.01648e-11
5.0212e-11
5.02298e-11
5.02756e-11
5.03545e-11
5.04351e-11
5.06192e-11
5.06201e-11
5.12991e-11
5.13359e-11
5.24406e-11
5.29959e-11
5.47181e-11
5.6517e-11
5.88046e-11
2.68356e-11
2.58488e-11
2.50977e-11
2.43557e-11
2.4128e-11
2.36539e-11
2.36448e-11
2.33504e-11
2.33553e-11
2.3272e-11
2.32374e-11
2.32025e-11
2.31858e-11
2.31778e-11
2.31582e-11
2.31577e-11
2.31443e-11
2.31465e-11
2.31378e-11
2.31404e-11
2.31353e-11
2.31374e-11
2.31346e-11
2.31358e-11
2.31348e-11
2.31347e-11
2.31357e-11
2.31345e-11
2.31372e-11
2.31351e-11
2.31402e-11
2.31377e-11
2.31464e-11
2.31444e-11
2.31579e-11
2.31584e-11
2.31781e-11
2.31861e-11
2.32027e-11
2.32372e-11
2.32717e-11
2.33549e-11
2.33498e-11
2.36443e-11
2.36532e-11
2.41274e-11
2.4355e-11
2.50969e-11
2.58477e-11
2.68349e-11
1.18471e-11
1.14306e-11
1.11277e-11
1.08178e-11
1.07268e-11
1.05292e-11
1.05279e-11
1.04043e-11
1.04085e-11
1.03721e-11
1.03564e-11
1.03415e-11
1.03372e-11
1.03336e-11
1.03257e-11
1.03253e-11
1.03199e-11
1.03207e-11
1.03172e-11
1.03181e-11
1.03161e-11
1.03169e-11
1.03158e-11
1.03162e-11
1.03158e-11
1.03158e-11
1.03162e-11
1.03157e-11
1.03168e-11
1.0316e-11
1.03181e-11
1.03171e-11
1.03206e-11
1.03199e-11
1.03254e-11
1.03258e-11
1.03337e-11
1.03374e-11
1.03416e-11
1.03564e-11
1.0372e-11
1.04084e-11
1.0404e-11
1.05278e-11
1.05289e-11
1.07265e-11
1.08175e-11
1.11274e-11
1.14302e-11
1.18468e-11
4.837e-12
4.66889e-12
4.55364e-12
4.43032e-12
4.39522e-12
4.31702e-12
4.31727e-12
4.26808e-12
4.27056e-12
4.25561e-12
4.25337e-12
4.24725e-12
4.24211e-12
4.24051e-12
4.23754e-12
4.23725e-12
4.23521e-12
4.23542e-12
4.23409e-12
4.23441e-12
4.23365e-12
4.23393e-12
4.23351e-12
4.23367e-12
4.23352e-12
4.23351e-12
4.23367e-12
4.2335e-12
4.2339e-12
4.23362e-12
4.23439e-12
4.23408e-12
4.2354e-12
4.23522e-12
4.23728e-12
4.23757e-12
4.24056e-12
4.24217e-12
4.24729e-12
4.25337e-12
4.25557e-12
4.2705e-12
4.26798e-12
4.31721e-12
4.31691e-12
4.39512e-12
4.43021e-12
4.55352e-12
4.66875e-12
4.83686e-12
1.68016e-12
1.61989e-12
1.58292e-12
1.54131e-12
1.52945e-12
1.50296e-12
1.5033e-12
1.48656e-12
1.48767e-12
1.48241e-12
1.48178e-12
1.47962e-12
1.47796e-12
1.47734e-12
1.47639e-12
1.47625e-12
1.47559e-12
1.47563e-12
1.4752e-12
1.47529e-12
1.47505e-12
1.47513e-12
1.47499e-12
1.47504e-12
1.47499e-12
1.47499e-12
1.47504e-12
1.47499e-12
1.47512e-12
1.47503e-12
1.47528e-12
1.4752e-12
1.47562e-12
1.47559e-12
1.47626e-12
1.4764e-12
1.47736e-12
1.47798e-12
1.47963e-12
1.48179e-12
1.4824e-12
1.48765e-12
1.48652e-12
1.50328e-12
1.50292e-12
1.52941e-12
1.54127e-12
1.58288e-12
1.61985e-12
1.6801e-12
4.29333e-13
4.13653e-13
4.05608e-13
3.94817e-13
3.92405e-13
3.85847e-13
3.85975e-13
3.81815e-13
3.82142e-13
3.80796e-13
3.80662e-13
3.80105e-13
3.79719e-13
3.79547e-13
3.79327e-13
3.79275e-13
3.79124e-13
3.79123e-13
3.79024e-13
3.79039e-13
3.78983e-13
3.78999e-13
3.78968e-13
3.78979e-13
3.78967e-13
3.78967e-13
3.78979e-13
3.78967e-13
3.78997e-13
3.7898e-13
3.79037e-13
3.79023e-13
3.79121e-13
3.79124e-13
3.79278e-13
3.79329e-13
3.79551e-13
3.79724e-13
3.80108e-13
3.80666e-13
3.80794e-13
3.82137e-13
3.81807e-13
3.8597e-13
3.85838e-13
3.92396e-13
3.94807e-13
4.05597e-13
4.13644e-13
4.2932e-13
6.46877e-14
6.24397e-14
6.13956e-14
5.99045e-14
5.95732e-14
5.86712e-14
5.86856e-14
5.81136e-14
5.816e-14
5.79701e-14
5.79529e-14
5.78728e-14
5.78228e-14
5.77961e-14
5.77676e-14
5.77583e-14
5.77387e-14
5.77371e-14
5.77245e-14
5.77256e-14
5.77185e-14
5.77202e-14
5.77161e-14
5.77174e-14
5.77159e-14
5.77158e-14
5.77174e-14
5.7716e-14
5.77198e-14
5.7718e-14
5.77253e-14
5.77243e-14
5.77369e-14
5.77388e-14
5.77587e-14
5.77679e-14
5.77966e-14
5.78235e-14
5.78733e-14
5.79535e-14
5.79699e-14
5.81594e-14
5.81125e-14
5.86848e-14
5.86699e-14
5.95719e-14
5.99031e-14
6.13942e-14
6.24386e-14
6.46858e-14
)
;

boundaryField
{
    fuel
    {
        type            fixedValue;
        value           nonuniform 0();
    }
    wall
    {
        type            zeroGradient;
    }
    outlet
    {
        type            zeroGradient;
    }
    frontAndBack
    {
        type            empty;
    }
    procBoundary3to2
    {
        type            processor;
        value           nonuniform List<scalar> 
51
(
2.11547e-06
2.11386e-06
2.11307e-06
2.11203e-06
2.11172e-06
2.11106e-06
2.11098e-06
2.11058e-06
2.11058e-06
2.11035e-06
2.11038e-06
2.11025e-06
2.11027e-06
2.11023e-06
2.11023e-06
2.11027e-06
2.11025e-06
2.11037e-06
2.11034e-06
2.11058e-06
2.11058e-06
2.11098e-06
2.11107e-06
2.11173e-06
2.11204e-06
2.11308e-06
2.11387e-06
2.11546e-06
2.11729e-06
2.11998e-06
2.12434e-06
2.1293e-06
2.13808e-06
2.14721e-06
2.16495e-06
2.18527e-06
2.20838e-06
2.24699e-06
2.26931e-06
2.02624e-06
2.0053e-06
1.96919e-06
1.94788e-06
1.92936e-06
1.91318e-06
1.90479e-06
1.89678e-06
1.89232e-06
1.88832e-06
1.88591e-06
1.88591e-06
)
;
    }
}


// ************************************************************************* //
