/*--------------------------------*- C++ -*----------------------------------*\
| =========                 |                                                 |
| \\      /  F ield         | OpenFOAM: The Open Source CFD Toolbox           |
|  \\    /   O peration     | Version:  dev                                   |
|   \\  /    A nd           | Web:      www.OpenFOAM.org                      |
|    \\/     M anipulation  |                                                 |
\*---------------------------------------------------------------------------*/
FoamFile
{
    version     2.0;
    format      ascii;
    class       volScalarField;
    location    "0.085";
    object      P2;
}
// * * * * * * * * * * * * * * * * * * * * * * * * * * * * * * * * * * * * * //

dimensions      [0 0 0 0 0 0 0];

internalField   nonuniform List<scalar> 
250
(
8.28674e-08
8.29225e-08
8.28424e-08
8.28241e-08
8.28476e-08
8.29445e-08
8.30064e-08
8.33395e-08
8.62833e-08
1.06228e-07
3.68613e-09
6.56923e-08
6.57133e-08
6.56901e-08
6.56821e-08
6.56636e-08
6.57463e-08
6.58355e-08
6.63373e-08
7.03203e-08
9.96684e-08
8.31319e-09
4.41138e-08
4.41068e-08
4.41248e-08
4.41239e-08
4.40698e-08
4.41631e-08
4.42425e-08
4.47686e-08
4.87502e-08
8.04486e-08
1.15094e-08
2.77887e-08
2.77862e-08
2.78302e-08
2.78319e-08
2.77321e-08
2.78612e-08
2.79219e-08
2.83788e-08
3.19203e-08
6.21664e-08
1.35784e-08
1.69713e-08
1.70647e-08
1.71023e-08
1.71038e-08
1.69263e-08
1.71308e-08
1.71725e-08
1.75117e-08
2.03552e-08
4.77353e-08
1.48392e-08
1.02616e-08
1.01437e-08
1.01375e-08
1.01377e-08
1.02768e-08
1.01793e-08
1.02135e-08
1.0577e-08
1.30649e-08
3.72403e-08
1.55213e-08
6.2975e-09
6.25314e-09
6.22621e-09
6.22554e-09
6.3342e-09
6.28205e-09
6.30187e-09
6.56817e-09
8.59517e-09
2.98595e-08
1.56859e-08
3.87949e-09
3.95973e-09
3.93487e-09
3.9336e-09
3.94531e-09
3.9144e-09
3.94445e-09
4.21424e-09
5.76479e-09
2.46636e-08
1.51402e-08
2.52766e-09
2.6178e-09
2.60045e-09
2.59908e-09
2.6042e-09
2.58836e-09
2.61096e-09
2.77338e-09
3.89818e-09
2.09136e-08
1.3338e-08
1.725e-09
1.72273e-09
1.71246e-09
1.71135e-09
1.71305e-09
1.70606e-09
1.72285e-09
1.86454e-09
2.87155e-09
1.80912e-08
1.07709e-08
1.24312e-09
1.2373e-09
1.23631e-09
1.23679e-09
1.23386e-09
1.24685e-09
1.31697e-09
2.17934e-09
1.58567e-08
9.81892e-09
9.22431e-10
9.19184e-10
9.18132e-10
9.18419e-10
9.17437e-10
9.29739e-10
1.01306e-09
1.69811e-09
1.40088e-08
1.09636e-08
7.09175e-10
7.07668e-10
7.06675e-10
7.06895e-10
7.06955e-10
7.17301e-10
7.90717e-10
1.36579e-09
1.22891e-08
1.36752e-08
5.6693e-10
5.66432e-10
5.6547e-10
5.6576e-10
5.6628e-10
5.75296e-10
6.39784e-10
1.1559e-09
1.08643e-08
1.7315e-08
4.68023e-10
4.68047e-10
4.67115e-10
4.67492e-10
4.68197e-10
4.76264e-10
5.331e-10
9.87511e-10
9.57972e-09
2.11521e-08
3.96443e-10
3.96742e-10
3.95853e-10
3.96291e-10
3.97056e-10
4.04369e-10
4.54866e-10
8.49751e-10
8.37995e-09
2.453e-08
3.42834e-10
3.43262e-10
3.42431e-10
3.42896e-10
3.43662e-10
3.50348e-10
3.95583e-10
7.5237e-10
7.23135e-09
2.66785e-08
3.01572e-10
3.02041e-10
3.01281e-10
3.01741e-10
3.02483e-10
3.08631e-10
3.49335e-10
6.68433e-10
6.27421e-09
2.73754e-08
2.69191e-10
2.6965e-10
2.68968e-10
2.69397e-10
2.70106e-10
2.75779e-10
3.1243e-10
5.93503e-10
5.29466e-09
2.66776e-08
2.43501e-10
2.43919e-10
2.43321e-10
2.437e-10
2.44371e-10
2.49618e-10
2.82526e-10
5.30238e-10
4.42555e-09
2.48612e-08
2.23097e-10
2.23452e-10
2.22941e-10
2.23254e-10
2.23887e-10
2.28751e-10
2.58073e-10
4.76654e-10
3.66951e-09
2.23027e-08
2.07063e-10
2.07338e-10
2.06921e-10
2.07151e-10
2.07749e-10
2.12272e-10
2.40486e-10
4.31476e-10
3.02222e-09
1.93744e-08
1.96271e-10
1.96473e-10
1.96131e-10
1.96289e-10
1.9685e-10
2.01107e-10
2.2684e-10
3.93777e-10
2.47364e-09
1.63825e-08
1.88172e-10
1.88294e-10
1.88032e-10
1.88111e-10
1.88645e-10
1.92651e-10
2.16281e-10
3.62963e-10
2.06614e-09
1.35438e-08
)
;

boundaryField
{
    fuel
    {
        type            fixedValue;
        value           uniform 0;
    }
    wall
    {
        type            zeroGradient;
    }
    outlet
    {
        type            zeroGradient;
    }
    frontAndBack
    {
        type            empty;
    }
    procBoundary3to0
    {
        type            processor;
        value           nonuniform List<scalar> 10(1.83898e-10 1.83926e-10 1.8375e-10 1.83733e-10 1.84239e-10 1.88038e-10 2.09662e-10 3.38343e-10 1.72402e-09 1.10096e-08);
    }
    procBoundary3to2
    {
        type            processor;
        value           nonuniform List<scalar> 
25
(
8.28669e-08
6.56925e-08
4.41256e-08
2.78351e-08
1.71142e-08
1.01639e-08
6.27334e-09
3.90738e-09
2.5848e-09
1.7051e-09
1.23985e-09
1.23985e-09
9.11038e-10
7.15612e-10
5.67697e-10
4.76255e-10
4.02661e-10
3.47306e-10
3.04705e-10
2.71317e-10
2.44888e-10
2.23951e-10
2.07538e-10
1.96513e-10
1.88256e-10
)
;
    }
}


// ************************************************************************* //
