/*--------------------------------*- C++ -*----------------------------------*\
| =========                 |                                                 |
| \\      /  F ield         | OpenFOAM: The Open Source CFD Toolbox           |
|  \\    /   O peration     | Version:  dev                                   |
|   \\  /    A nd           | Web:      www.OpenFOAM.org                      |
|    \\/     M anipulation  |                                                 |
\*---------------------------------------------------------------------------*/
FoamFile
{
    version     2.0;
    format      ascii;
    class       volScalarField;
    location    "0.085";
    object      PC3H4;
}
// * * * * * * * * * * * * * * * * * * * * * * * * * * * * * * * * * * * * * //

dimensions      [0 0 0 0 0 0 0];

internalField   nonuniform List<scalar> 
1989
(
1.24634e-07
1.24626e-07
1.24623e-07
1.24618e-07
1.24617e-07
1.24614e-07
1.24614e-07
1.24612e-07
1.24612e-07
1.24611e-07
1.24611e-07
1.24611e-07
1.24611e-07
1.24611e-07
1.24611e-07
1.24611e-07
1.24611e-07
1.24611e-07
1.24611e-07
1.24612e-07
1.24612e-07
1.24614e-07
1.24614e-07
1.24617e-07
1.24618e-07
1.24623e-07
1.24626e-07
1.24634e-07
1.24643e-07
1.24657e-07
1.2468e-07
1.24705e-07
1.24752e-07
1.248e-07
1.24894e-07
1.24994e-07
1.25113e-07
1.25317e-07
1.25429e-07
1.23886e-07
1.23765e-07
1.23545e-07
1.23418e-07
1.23313e-07
1.23214e-07
1.23164e-07
1.23115e-07
1.23089e-07
1.23065e-07
1.23051e-07
1.23041e-07
1.23033e-07
1.23029e-07
1.23024e-07
1.23023e-07
1.23019e-07
1.23019e-07
1.23017e-07
1.23018e-07
1.23016e-07
1.23017e-07
1.23016e-07
1.23016e-07
1.23016e-07
1.23016e-07
1.23016e-07
1.23016e-07
1.23017e-07
1.23016e-07
1.23018e-07
1.23017e-07
1.23019e-07
1.23019e-07
1.23023e-07
1.23024e-07
1.23029e-07
1.23033e-07
1.23041e-07
1.23051e-07
1.23065e-07
1.23089e-07
1.23115e-07
1.23164e-07
1.23214e-07
1.23313e-07
1.23418e-07
1.23545e-07
1.23765e-07
1.23886e-07
1.22255e-07
1.22124e-07
1.21887e-07
1.21753e-07
1.21643e-07
1.2154e-07
1.21488e-07
1.21436e-07
1.2141e-07
1.21385e-07
1.2137e-07
1.2136e-07
1.21351e-07
1.21348e-07
1.21342e-07
1.21341e-07
1.21337e-07
1.21337e-07
1.21335e-07
1.21335e-07
1.21334e-07
1.21335e-07
1.21334e-07
1.21334e-07
1.21334e-07
1.21334e-07
1.21334e-07
1.21334e-07
1.21334e-07
1.21334e-07
1.21335e-07
1.21335e-07
1.21337e-07
1.21337e-07
1.21341e-07
1.21342e-07
1.21348e-07
1.21351e-07
1.2136e-07
1.2137e-07
1.21385e-07
1.2141e-07
1.21436e-07
1.21488e-07
1.2154e-07
1.21643e-07
1.21753e-07
1.21887e-07
1.22124e-07
1.22255e-07
1.20518e-07
1.20375e-07
1.20119e-07
1.19977e-07
1.19862e-07
1.19753e-07
1.197e-07
1.19645e-07
1.19618e-07
1.19591e-07
1.19576e-07
1.19566e-07
1.19556e-07
1.19553e-07
1.19547e-07
1.19546e-07
1.19542e-07
1.19542e-07
1.19539e-07
1.1954e-07
1.19538e-07
1.19539e-07
1.19538e-07
1.19538e-07
1.19538e-07
1.19538e-07
1.19538e-07
1.19538e-07
1.19539e-07
1.19538e-07
1.1954e-07
1.19539e-07
1.19542e-07
1.19542e-07
1.19546e-07
1.19547e-07
1.19553e-07
1.19556e-07
1.19565e-07
1.19576e-07
1.19592e-07
1.19618e-07
1.19645e-07
1.197e-07
1.19753e-07
1.19861e-07
1.19977e-07
1.20119e-07
1.20375e-07
1.20518e-07
1.18666e-07
1.18514e-07
1.1828e-07
1.18132e-07
1.18013e-07
1.179e-07
1.17847e-07
1.17789e-07
1.17761e-07
1.17734e-07
1.17718e-07
1.17707e-07
1.17698e-07
1.17694e-07
1.17688e-07
1.17687e-07
1.17683e-07
1.17683e-07
1.1768e-07
1.17681e-07
1.17679e-07
1.1768e-07
1.17679e-07
1.17679e-07
1.17679e-07
1.17679e-07
1.17679e-07
1.17679e-07
1.1768e-07
1.17679e-07
1.17681e-07
1.1768e-07
1.17683e-07
1.17683e-07
1.17687e-07
1.17688e-07
1.17694e-07
1.17698e-07
1.17707e-07
1.17718e-07
1.17734e-07
1.17761e-07
1.17789e-07
1.17847e-07
1.179e-07
1.18013e-07
1.18131e-07
1.1828e-07
1.18514e-07
1.18665e-07
1.16764e-07
1.16604e-07
1.16354e-07
1.16199e-07
1.16079e-07
1.15961e-07
1.15908e-07
1.15848e-07
1.1582e-07
1.15792e-07
1.15775e-07
1.15764e-07
1.15755e-07
1.15751e-07
1.15744e-07
1.15743e-07
1.15739e-07
1.15739e-07
1.15737e-07
1.15737e-07
1.15736e-07
1.15736e-07
1.15735e-07
1.15736e-07
1.15735e-07
1.15735e-07
1.15736e-07
1.15735e-07
1.15736e-07
1.15736e-07
1.15737e-07
1.15737e-07
1.15739e-07
1.15739e-07
1.15743e-07
1.15744e-07
1.15751e-07
1.15755e-07
1.15764e-07
1.15775e-07
1.15792e-07
1.1582e-07
1.15848e-07
1.15908e-07
1.15961e-07
1.16079e-07
1.16199e-07
1.16354e-07
1.16604e-07
1.16764e-07
1.14778e-07
1.1461e-07
1.14347e-07
1.14186e-07
1.14065e-07
1.13944e-07
1.1389e-07
1.13828e-07
1.138e-07
1.13771e-07
1.13754e-07
1.13743e-07
1.13733e-07
1.13729e-07
1.13723e-07
1.13722e-07
1.13717e-07
1.13718e-07
1.13715e-07
1.13715e-07
1.13714e-07
1.13714e-07
1.13714e-07
1.13714e-07
1.13714e-07
1.13714e-07
1.13714e-07
1.13714e-07
1.13714e-07
1.13714e-07
1.13715e-07
1.13715e-07
1.13718e-07
1.13717e-07
1.13722e-07
1.13723e-07
1.13729e-07
1.13733e-07
1.13743e-07
1.13754e-07
1.13771e-07
1.138e-07
1.13828e-07
1.1389e-07
1.13943e-07
1.14065e-07
1.14186e-07
1.14347e-07
1.14609e-07
1.14778e-07
1.12695e-07
1.12514e-07
1.12242e-07
1.12073e-07
1.1195e-07
1.11825e-07
1.11771e-07
1.11707e-07
1.11679e-07
1.11649e-07
1.11632e-07
1.11621e-07
1.11611e-07
1.11607e-07
1.116e-07
1.11599e-07
1.11595e-07
1.11595e-07
1.11592e-07
1.11593e-07
1.11591e-07
1.11591e-07
1.11591e-07
1.11591e-07
1.11591e-07
1.11591e-07
1.11591e-07
1.11591e-07
1.11591e-07
1.11591e-07
1.11593e-07
1.11592e-07
1.11595e-07
1.11595e-07
1.11599e-07
1.116e-07
1.11607e-07
1.11611e-07
1.11621e-07
1.11632e-07
1.11649e-07
1.11679e-07
1.11707e-07
1.11771e-07
1.11825e-07
1.1195e-07
1.12073e-07
1.12242e-07
1.12514e-07
1.12695e-07
1.10519e-07
1.10332e-07
1.10058e-07
1.09882e-07
1.09761e-07
1.09634e-07
1.09582e-07
1.09516e-07
1.09489e-07
1.09459e-07
1.09442e-07
1.09431e-07
1.09421e-07
1.09417e-07
1.0941e-07
1.09409e-07
1.09405e-07
1.09405e-07
1.09402e-07
1.09403e-07
1.09401e-07
1.09401e-07
1.09401e-07
1.09401e-07
1.09401e-07
1.09401e-07
1.09401e-07
1.09401e-07
1.09401e-07
1.09401e-07
1.09403e-07
1.09402e-07
1.09405e-07
1.09405e-07
1.09409e-07
1.0941e-07
1.09417e-07
1.09421e-07
1.09431e-07
1.09442e-07
1.09459e-07
1.09489e-07
1.09516e-07
1.09582e-07
1.09634e-07
1.09761e-07
1.09882e-07
1.10058e-07
1.10332e-07
1.10519e-07
1.08294e-07
1.08103e-07
1.07831e-07
1.0765e-07
1.0753e-07
1.07405e-07
1.07353e-07
1.07288e-07
1.07261e-07
1.07232e-07
1.07215e-07
1.07204e-07
1.07194e-07
1.0719e-07
1.07184e-07
1.07183e-07
1.07178e-07
1.07179e-07
1.07176e-07
1.07176e-07
1.07175e-07
1.07175e-07
1.07174e-07
1.07175e-07
1.07174e-07
1.07174e-07
1.07175e-07
1.07174e-07
1.07175e-07
1.07175e-07
1.07176e-07
1.07176e-07
1.07178e-07
1.07178e-07
1.07183e-07
1.07184e-07
1.07191e-07
1.07194e-07
1.07204e-07
1.07215e-07
1.07232e-07
1.07261e-07
1.07288e-07
1.07353e-07
1.07405e-07
1.0753e-07
1.0765e-07
1.07831e-07
1.08103e-07
1.08294e-07
1.06045e-07
1.05852e-07
1.05587e-07
1.05441e-07
1.05325e-07
1.05201e-07
1.05152e-07
1.05087e-07
1.05061e-07
1.05032e-07
1.05017e-07
1.05006e-07
1.04996e-07
1.04992e-07
1.04986e-07
1.04985e-07
1.04981e-07
1.04981e-07
1.04978e-07
1.04979e-07
1.04977e-07
1.04978e-07
1.04977e-07
1.04977e-07
1.04977e-07
1.04977e-07
1.04977e-07
1.04977e-07
1.04978e-07
1.04977e-07
1.04979e-07
1.04978e-07
1.04981e-07
1.04981e-07
1.04985e-07
1.04986e-07
1.04993e-07
1.04996e-07
1.05006e-07
1.05016e-07
1.05033e-07
1.05062e-07
1.05087e-07
1.05152e-07
1.05201e-07
1.05325e-07
1.05441e-07
1.05586e-07
1.05852e-07
1.06045e-07
1.03843e-07
1.03652e-07
1.03394e-07
1.03249e-07
1.0314e-07
1.03019e-07
1.02973e-07
1.02909e-07
1.02884e-07
1.02854e-07
1.02838e-07
1.02828e-07
1.02818e-07
1.02814e-07
1.02807e-07
1.02806e-07
1.02802e-07
1.02802e-07
1.028e-07
1.028e-07
1.02798e-07
1.02799e-07
1.02798e-07
1.02798e-07
1.02798e-07
1.02798e-07
1.02798e-07
1.02798e-07
1.02799e-07
1.02798e-07
1.028e-07
1.02799e-07
1.02802e-07
1.02802e-07
1.02806e-07
1.02807e-07
1.02814e-07
1.02818e-07
1.02827e-07
1.02838e-07
1.02855e-07
1.02884e-07
1.02909e-07
1.02973e-07
1.03019e-07
1.0314e-07
1.03249e-07
1.03394e-07
1.03652e-07
1.03843e-07
1.01666e-07
1.01476e-07
1.01226e-07
1.01084e-07
1.00982e-07
1.00868e-07
1.00826e-07
1.00766e-07
1.00742e-07
1.00715e-07
1.007e-07
1.0069e-07
1.0068e-07
1.00677e-07
1.00671e-07
1.0067e-07
1.00666e-07
1.00666e-07
1.00663e-07
1.00664e-07
1.00662e-07
1.00663e-07
1.00662e-07
1.00662e-07
1.00662e-07
1.00662e-07
1.00662e-07
1.00662e-07
1.00663e-07
1.00662e-07
1.00664e-07
1.00663e-07
1.00666e-07
1.00666e-07
1.0067e-07
1.00671e-07
1.00677e-07
1.00681e-07
1.0069e-07
1.00699e-07
1.00715e-07
1.00742e-07
1.00766e-07
1.00826e-07
1.00868e-07
1.00982e-07
1.01084e-07
1.01226e-07
1.01476e-07
1.01666e-07
9.95771e-08
9.93982e-08
9.91677e-08
9.90367e-08
9.89443e-08
9.88404e-08
9.88023e-08
9.87477e-08
9.87265e-08
9.87014e-08
9.86879e-08
9.86789e-08
9.86705e-08
9.86675e-08
9.86617e-08
9.8661e-08
9.86573e-08
9.86574e-08
9.86551e-08
9.86556e-08
9.86542e-08
9.86547e-08
9.8654e-08
9.86542e-08
9.8654e-08
9.8654e-08
9.86542e-08
9.86539e-08
9.86546e-08
9.86542e-08
9.86555e-08
9.86551e-08
9.86574e-08
9.86573e-08
9.8661e-08
9.86618e-08
9.86675e-08
9.86705e-08
9.86788e-08
9.86875e-08
9.87016e-08
9.87265e-08
9.87476e-08
9.88022e-08
9.88403e-08
9.89442e-08
9.90365e-08
9.91676e-08
9.9398e-08
9.95769e-08
9.76907e-08
9.75269e-08
9.73238e-08
9.72066e-08
9.71264e-08
9.7035e-08
9.70022e-08
9.69542e-08
9.6936e-08
9.69141e-08
9.69024e-08
9.68946e-08
9.68873e-08
9.68847e-08
9.68797e-08
9.68791e-08
9.68758e-08
9.6876e-08
9.68739e-08
9.68743e-08
9.68732e-08
9.68736e-08
9.68729e-08
9.68732e-08
9.6873e-08
9.6873e-08
9.68732e-08
9.68729e-08
9.68735e-08
9.68731e-08
9.68743e-08
9.68739e-08
9.68759e-08
9.68758e-08
9.68791e-08
9.68797e-08
9.68848e-08
9.68874e-08
9.68946e-08
9.69021e-08
9.69143e-08
9.6936e-08
9.69542e-08
9.70022e-08
9.70349e-08
9.71263e-08
9.72065e-08
9.73238e-08
9.75267e-08
9.76906e-08
9.60471e-08
9.59069e-08
9.57387e-08
9.56396e-08
9.55721e-08
9.54943e-08
9.54665e-08
9.5426e-08
9.54107e-08
9.53927e-08
9.53828e-08
9.53763e-08
9.53703e-08
9.53682e-08
9.53641e-08
9.53636e-08
9.5361e-08
9.53611e-08
9.53595e-08
9.53599e-08
9.53589e-08
9.53592e-08
9.53587e-08
9.53589e-08
9.53588e-08
9.53588e-08
9.53589e-08
9.53587e-08
9.53592e-08
9.53589e-08
9.53598e-08
9.53595e-08
9.53611e-08
9.5361e-08
9.53637e-08
9.53641e-08
9.53682e-08
9.53703e-08
9.53763e-08
9.53826e-08
9.53928e-08
9.54107e-08
9.5426e-08
9.54664e-08
9.54942e-08
9.5572e-08
9.56396e-08
9.57386e-08
9.59067e-08
9.6047e-08
9.47341e-08
9.46274e-08
9.44992e-08
9.4424e-08
9.43726e-08
9.43147e-08
9.42931e-08
9.42634e-08
9.42518e-08
9.42391e-08
9.42318e-08
9.4227e-08
9.42225e-08
9.42209e-08
9.42179e-08
9.42175e-08
9.42155e-08
9.42156e-08
9.42145e-08
9.42147e-08
9.4214e-08
9.42143e-08
9.42139e-08
9.42141e-08
9.42139e-08
9.42139e-08
9.4214e-08
9.42139e-08
9.42142e-08
9.4214e-08
9.42147e-08
9.42144e-08
9.42156e-08
9.42155e-08
9.42175e-08
9.42179e-08
9.42209e-08
9.42225e-08
9.42269e-08
9.42316e-08
9.42392e-08
9.42518e-08
9.42634e-08
9.4293e-08
9.43146e-08
9.43726e-08
9.4424e-08
9.44991e-08
9.46272e-08
9.4734e-08
9.38486e-08
9.37818e-08
9.37001e-08
9.36541e-08
9.36203e-08
9.35857e-08
9.35703e-08
9.35536e-08
9.35459e-08
9.35396e-08
9.35351e-08
9.35321e-08
9.35294e-08
9.35283e-08
9.35266e-08
9.35262e-08
9.35251e-08
9.35251e-08
9.35245e-08
9.35245e-08
9.35242e-08
9.35243e-08
9.35241e-08
9.35242e-08
9.35242e-08
9.35242e-08
9.35242e-08
9.35241e-08
9.35243e-08
9.35242e-08
9.35245e-08
9.35244e-08
9.35251e-08
9.35251e-08
9.35262e-08
9.35266e-08
9.35283e-08
9.35294e-08
9.35321e-08
9.35349e-08
9.35397e-08
9.35459e-08
9.35536e-08
9.35703e-08
9.35857e-08
9.36203e-08
9.36541e-08
9.37001e-08
9.37817e-08
9.38485e-08
9.34871e-08
9.34657e-08
9.34373e-08
9.34249e-08
9.34096e-08
9.34012e-08
9.33916e-08
9.33897e-08
9.33858e-08
9.33869e-08
9.33854e-08
9.33845e-08
9.33836e-08
9.3383e-08
9.33827e-08
9.33824e-08
9.33822e-08
9.3382e-08
9.3382e-08
9.33819e-08
9.33819e-08
9.33819e-08
9.33819e-08
9.33819e-08
9.33819e-08
9.33819e-08
9.33819e-08
9.33819e-08
9.33819e-08
9.33819e-08
9.33819e-08
9.3382e-08
9.3382e-08
9.33822e-08
9.33823e-08
9.33827e-08
9.3383e-08
9.33836e-08
9.33845e-08
9.33853e-08
9.3387e-08
9.33858e-08
9.33897e-08
9.33917e-08
9.34012e-08
9.34095e-08
9.34249e-08
9.34373e-08
9.34657e-08
9.34871e-08
9.37443e-08
9.37735e-08
9.38002e-08
9.38247e-08
9.38276e-08
9.38478e-08
9.38429e-08
9.38571e-08
9.38568e-08
9.38663e-08
9.38679e-08
9.3869e-08
9.387e-08
9.38699e-08
9.3871e-08
9.38706e-08
9.38715e-08
9.38711e-08
9.38717e-08
9.38714e-08
9.38718e-08
9.38716e-08
9.38718e-08
9.38717e-08
9.38718e-08
9.38718e-08
9.38717e-08
9.38718e-08
9.38716e-08
9.38718e-08
9.38714e-08
9.38717e-08
9.38711e-08
9.38715e-08
9.38706e-08
9.3871e-08
9.38698e-08
9.387e-08
9.38689e-08
9.38677e-08
9.38663e-08
9.38568e-08
9.38571e-08
9.3843e-08
9.38479e-08
9.38276e-08
9.38247e-08
9.38002e-08
9.37735e-08
9.37444e-08
9.46981e-08
9.47808e-08
9.48634e-08
9.49261e-08
9.49462e-08
9.49962e-08
9.4994e-08
9.5025e-08
9.50277e-08
9.50462e-08
9.50508e-08
9.50539e-08
9.50568e-08
9.5057e-08
9.50597e-08
9.50591e-08
9.5061e-08
9.50604e-08
9.50617e-08
9.50611e-08
9.50619e-08
9.50615e-08
9.50619e-08
9.50618e-08
9.50619e-08
9.50619e-08
9.50618e-08
9.50619e-08
9.50615e-08
9.50619e-08
9.50611e-08
9.50617e-08
9.50604e-08
9.5061e-08
9.50591e-08
9.50596e-08
9.50569e-08
9.50567e-08
9.50539e-08
9.50507e-08
9.50463e-08
9.50278e-08
9.50251e-08
9.49941e-08
9.49963e-08
9.49462e-08
9.49262e-08
9.48634e-08
9.47808e-08
9.46982e-08
9.64041e-08
9.65407e-08
9.66767e-08
9.67769e-08
9.6816e-08
9.68983e-08
9.68966e-08
9.69454e-08
9.69507e-08
9.6979e-08
9.69866e-08
9.69918e-08
9.69965e-08
9.6997e-08
9.70012e-08
9.70005e-08
9.70034e-08
9.70025e-08
9.70044e-08
9.70036e-08
9.70048e-08
9.70042e-08
9.70049e-08
9.70046e-08
9.70048e-08
9.70048e-08
9.70046e-08
9.70049e-08
9.70042e-08
9.70048e-08
9.70036e-08
9.70044e-08
9.70025e-08
9.70034e-08
9.70004e-08
9.70011e-08
9.69969e-08
9.69964e-08
9.69917e-08
9.69865e-08
9.69792e-08
9.69508e-08
9.69455e-08
9.68967e-08
9.68985e-08
9.68161e-08
9.6777e-08
9.66768e-08
9.65408e-08
9.64042e-08
9.88853e-08
9.90745e-08
9.92565e-08
9.93913e-08
9.94421e-08
9.95537e-08
9.95479e-08
9.96123e-08
9.96188e-08
9.96565e-08
9.96663e-08
9.96731e-08
9.96791e-08
9.96797e-08
9.96851e-08
9.96842e-08
9.9688e-08
9.96867e-08
9.96893e-08
9.96882e-08
9.96897e-08
9.96889e-08
9.96898e-08
9.96894e-08
9.96897e-08
9.96897e-08
9.96894e-08
9.96898e-08
9.96889e-08
9.96897e-08
9.96882e-08
9.96893e-08
9.96867e-08
9.9688e-08
9.96841e-08
9.96851e-08
9.96796e-08
9.9679e-08
9.9673e-08
9.96661e-08
9.96567e-08
9.96189e-08
9.96125e-08
9.95481e-08
9.95539e-08
9.94423e-08
9.93914e-08
9.92565e-08
9.90746e-08
9.88855e-08
1.0213e-07
1.02362e-07
1.02581e-07
1.02745e-07
1.02806e-07
1.02941e-07
1.02958e-07
1.03037e-07
1.03043e-07
1.03091e-07
1.03102e-07
1.03111e-07
1.03118e-07
1.03119e-07
1.03125e-07
1.03124e-07
1.03128e-07
1.03127e-07
1.0313e-07
1.03128e-07
1.0313e-07
1.03129e-07
1.0313e-07
1.0313e-07
1.0313e-07
1.0313e-07
1.0313e-07
1.0313e-07
1.03129e-07
1.0313e-07
1.03128e-07
1.0313e-07
1.03127e-07
1.03128e-07
1.03124e-07
1.03125e-07
1.03118e-07
1.03118e-07
1.03111e-07
1.03102e-07
1.03091e-07
1.03044e-07
1.03037e-07
1.02958e-07
1.02942e-07
1.02807e-07
1.02745e-07
1.02581e-07
1.02362e-07
1.02131e-07
1.06074e-07
1.06344e-07
1.06588e-07
1.06773e-07
1.06837e-07
1.06992e-07
1.07e-07
1.0709e-07
1.07095e-07
1.07151e-07
1.07163e-07
1.07172e-07
1.0718e-07
1.0718e-07
1.07187e-07
1.07186e-07
1.07191e-07
1.07189e-07
1.07192e-07
1.07191e-07
1.07193e-07
1.07192e-07
1.07193e-07
1.07192e-07
1.07193e-07
1.07193e-07
1.07192e-07
1.07193e-07
1.07192e-07
1.07193e-07
1.07191e-07
1.07192e-07
1.07189e-07
1.07191e-07
1.07186e-07
1.07187e-07
1.0718e-07
1.0718e-07
1.07172e-07
1.07163e-07
1.07151e-07
1.07095e-07
1.0709e-07
1.07e-07
1.06992e-07
1.06837e-07
1.06773e-07
1.06588e-07
1.06344e-07
1.06075e-07
1.10624e-07
1.10922e-07
1.11178e-07
1.11374e-07
1.11451e-07
1.11624e-07
1.11626e-07
1.11725e-07
1.11728e-07
1.11794e-07
1.11806e-07
1.11816e-07
1.11824e-07
1.11824e-07
1.11832e-07
1.1183e-07
1.11836e-07
1.11833e-07
1.11837e-07
1.11835e-07
1.11837e-07
1.11836e-07
1.11837e-07
1.11837e-07
1.11837e-07
1.11837e-07
1.11837e-07
1.11837e-07
1.11836e-07
1.11837e-07
1.11835e-07
1.11837e-07
1.11833e-07
1.11836e-07
1.1183e-07
1.11832e-07
1.11824e-07
1.11824e-07
1.11816e-07
1.11806e-07
1.11795e-07
1.11729e-07
1.11726e-07
1.11627e-07
1.11624e-07
1.11452e-07
1.11374e-07
1.11178e-07
1.10922e-07
1.10625e-07
1.15718e-07
1.15968e-07
1.1624e-07
1.16485e-07
1.1656e-07
1.16734e-07
1.1673e-07
1.1683e-07
1.16829e-07
1.16902e-07
1.16913e-07
1.16922e-07
1.1693e-07
1.1693e-07
1.16937e-07
1.16935e-07
1.1694e-07
1.16938e-07
1.16942e-07
1.1694e-07
1.16942e-07
1.16941e-07
1.16942e-07
1.16941e-07
1.16941e-07
1.16941e-07
1.16941e-07
1.16942e-07
1.16941e-07
1.16942e-07
1.1694e-07
1.16942e-07
1.16938e-07
1.1694e-07
1.16935e-07
1.16937e-07
1.1693e-07
1.1693e-07
1.16922e-07
1.16913e-07
1.16902e-07
1.16829e-07
1.1683e-07
1.1673e-07
1.16734e-07
1.1656e-07
1.16486e-07
1.16241e-07
1.15968e-07
1.15718e-07
1.21081e-07
1.21376e-07
1.2167e-07
1.21904e-07
1.21968e-07
1.22135e-07
1.22125e-07
1.22222e-07
1.22215e-07
1.22221e-07
1.22229e-07
1.22237e-07
1.22244e-07
1.22244e-07
1.22251e-07
1.22248e-07
1.22253e-07
1.22251e-07
1.22254e-07
1.22252e-07
1.22254e-07
1.22253e-07
1.22254e-07
1.22253e-07
1.22254e-07
1.22254e-07
1.22253e-07
1.22254e-07
1.22253e-07
1.22254e-07
1.22252e-07
1.22254e-07
1.22251e-07
1.22253e-07
1.22248e-07
1.2225e-07
1.22243e-07
1.22244e-07
1.22237e-07
1.22229e-07
1.22221e-07
1.22215e-07
1.22222e-07
1.22125e-07
1.22135e-07
1.21968e-07
1.21904e-07
1.2167e-07
1.21376e-07
1.21081e-07
1.26619e-07
1.26899e-07
1.2717e-07
1.2739e-07
1.27439e-07
1.27596e-07
1.27578e-07
1.2767e-07
1.27658e-07
1.27666e-07
1.27671e-07
1.27679e-07
1.27684e-07
1.27683e-07
1.2769e-07
1.27687e-07
1.27692e-07
1.27689e-07
1.27692e-07
1.2769e-07
1.27692e-07
1.27691e-07
1.27692e-07
1.27691e-07
1.27691e-07
1.27691e-07
1.27691e-07
1.27692e-07
1.27691e-07
1.27692e-07
1.2769e-07
1.27692e-07
1.27689e-07
1.27691e-07
1.27687e-07
1.27689e-07
1.27683e-07
1.27684e-07
1.27679e-07
1.27671e-07
1.27666e-07
1.27658e-07
1.2767e-07
1.27578e-07
1.27596e-07
1.27439e-07
1.2739e-07
1.27171e-07
1.26899e-07
1.26619e-07
1.32176e-07
1.32431e-07
1.32672e-07
1.3287e-07
1.32903e-07
1.33044e-07
1.33019e-07
1.33104e-07
1.33086e-07
1.33095e-07
1.33098e-07
1.33104e-07
1.33109e-07
1.33107e-07
1.33112e-07
1.33109e-07
1.33113e-07
1.33111e-07
1.33114e-07
1.33112e-07
1.33113e-07
1.33112e-07
1.33113e-07
1.33112e-07
1.33112e-07
1.33112e-07
1.33112e-07
1.33113e-07
1.33112e-07
1.33113e-07
1.33112e-07
1.33113e-07
1.33111e-07
1.33113e-07
1.33109e-07
1.33112e-07
1.33107e-07
1.33108e-07
1.33104e-07
1.33098e-07
1.33095e-07
1.33087e-07
1.33104e-07
1.33019e-07
1.33045e-07
1.32903e-07
1.3287e-07
1.32672e-07
1.32431e-07
1.32176e-07
1.37617e-07
1.37839e-07
1.38047e-07
1.38218e-07
1.38233e-07
1.38357e-07
1.38325e-07
1.384e-07
1.38378e-07
1.38387e-07
1.38388e-07
1.38392e-07
1.38395e-07
1.38392e-07
1.38397e-07
1.38394e-07
1.38397e-07
1.38395e-07
1.38397e-07
1.38395e-07
1.38396e-07
1.38395e-07
1.38396e-07
1.38395e-07
1.38395e-07
1.38395e-07
1.38395e-07
1.38396e-07
1.38395e-07
1.38396e-07
1.38395e-07
1.38397e-07
1.38394e-07
1.38397e-07
1.38394e-07
1.38397e-07
1.38392e-07
1.38395e-07
1.38392e-07
1.38388e-07
1.38387e-07
1.38379e-07
1.384e-07
1.38325e-07
1.38357e-07
1.38233e-07
1.38218e-07
1.38047e-07
1.37839e-07
1.37617e-07
1.42838e-07
1.43023e-07
1.43208e-07
1.4336e-07
1.43366e-07
1.43474e-07
1.43438e-07
1.43501e-07
1.43477e-07
1.43485e-07
1.43483e-07
1.43486e-07
1.43487e-07
1.43484e-07
1.43487e-07
1.43484e-07
1.43487e-07
1.43484e-07
1.43486e-07
1.43484e-07
1.43485e-07
1.43484e-07
1.43485e-07
1.43484e-07
1.43484e-07
1.43484e-07
1.43484e-07
1.43485e-07
1.43484e-07
1.43485e-07
1.43484e-07
1.43486e-07
1.43484e-07
1.43487e-07
1.43484e-07
1.43487e-07
1.43484e-07
1.43487e-07
1.43486e-07
1.43483e-07
1.43485e-07
1.43477e-07
1.43502e-07
1.43438e-07
1.43474e-07
1.43366e-07
1.4336e-07
1.43208e-07
1.43023e-07
1.42838e-07
1.47832e-07
1.47976e-07
1.4808e-07
1.48203e-07
1.48195e-07
1.48284e-07
1.48244e-07
1.48296e-07
1.48269e-07
1.48276e-07
1.48272e-07
1.48273e-07
1.48272e-07
1.48269e-07
1.48271e-07
1.48268e-07
1.4827e-07
1.48268e-07
1.48269e-07
1.48267e-07
1.48268e-07
1.48267e-07
1.48267e-07
1.48267e-07
1.48267e-07
1.48267e-07
1.48267e-07
1.48267e-07
1.48267e-07
1.48268e-07
1.48267e-07
1.48269e-07
1.48268e-07
1.4827e-07
1.48268e-07
1.48271e-07
1.48269e-07
1.48272e-07
1.48273e-07
1.48272e-07
1.48276e-07
1.48269e-07
1.48296e-07
1.48244e-07
1.48284e-07
1.48195e-07
1.48203e-07
1.4808e-07
1.47976e-07
1.47832e-07
1.52478e-07
1.52585e-07
1.52662e-07
1.52761e-07
1.52741e-07
1.52806e-07
1.52764e-07
1.52813e-07
1.52785e-07
1.5279e-07
1.52785e-07
1.52785e-07
1.52783e-07
1.52779e-07
1.5278e-07
1.52777e-07
1.52778e-07
1.52776e-07
1.52777e-07
1.52775e-07
1.52776e-07
1.52775e-07
1.52775e-07
1.52775e-07
1.52775e-07
1.52775e-07
1.52775e-07
1.52775e-07
1.52775e-07
1.52776e-07
1.52775e-07
1.52777e-07
1.52776e-07
1.52778e-07
1.52777e-07
1.5278e-07
1.52779e-07
1.52783e-07
1.52785e-07
1.52785e-07
1.52791e-07
1.52785e-07
1.52814e-07
1.52764e-07
1.52806e-07
1.52741e-07
1.52761e-07
1.52662e-07
1.52585e-07
1.52478e-07
1.56838e-07
1.5691e-07
1.5696e-07
1.57034e-07
1.57005e-07
1.57054e-07
1.5701e-07
1.57049e-07
1.5702e-07
1.57023e-07
1.57017e-07
1.57016e-07
1.57011e-07
1.57008e-07
1.57008e-07
1.57005e-07
1.57005e-07
1.57003e-07
1.57003e-07
1.57002e-07
1.57002e-07
1.57001e-07
1.57001e-07
1.57001e-07
1.57001e-07
1.57001e-07
1.57001e-07
1.57001e-07
1.57001e-07
1.57002e-07
1.57002e-07
1.57003e-07
1.57003e-07
1.57005e-07
1.57005e-07
1.57008e-07
1.57008e-07
1.57011e-07
1.57015e-07
1.57017e-07
1.57023e-07
1.5702e-07
1.57049e-07
1.5701e-07
1.57054e-07
1.57005e-07
1.57034e-07
1.5696e-07
1.5691e-07
1.56838e-07
1.6092e-07
1.60959e-07
1.60986e-07
1.61037e-07
1.60999e-07
1.61033e-07
1.60988e-07
1.61018e-07
1.60988e-07
1.6099e-07
1.60982e-07
1.6098e-07
1.60974e-07
1.60971e-07
1.6097e-07
1.60967e-07
1.60966e-07
1.60964e-07
1.60964e-07
1.60963e-07
1.60963e-07
1.60962e-07
1.60962e-07
1.60962e-07
1.60962e-07
1.60962e-07
1.60962e-07
1.60962e-07
1.60962e-07
1.60963e-07
1.60963e-07
1.60964e-07
1.60964e-07
1.60966e-07
1.60967e-07
1.60969e-07
1.60971e-07
1.60974e-07
1.6098e-07
1.60982e-07
1.6099e-07
1.60988e-07
1.61018e-07
1.60988e-07
1.61033e-07
1.60999e-07
1.61037e-07
1.60986e-07
1.60959e-07
1.6092e-07
1.64694e-07
1.64702e-07
1.64711e-07
1.64741e-07
1.64697e-07
1.64717e-07
1.64672e-07
1.64693e-07
1.64664e-07
1.64663e-07
1.6465e-07
1.64647e-07
1.64645e-07
1.64641e-07
1.64639e-07
1.64636e-07
1.64636e-07
1.64634e-07
1.64633e-07
1.64632e-07
1.64632e-07
1.64631e-07
1.64631e-07
1.64631e-07
1.64631e-07
1.64631e-07
1.64631e-07
1.64631e-07
1.64631e-07
1.64632e-07
1.64632e-07
1.64633e-07
1.64634e-07
1.64636e-07
1.64636e-07
1.64639e-07
1.64641e-07
1.64645e-07
1.64647e-07
1.6465e-07
1.64663e-07
1.64664e-07
1.64693e-07
1.64673e-07
1.64717e-07
1.64697e-07
1.64741e-07
1.64711e-07
1.64702e-07
1.64694e-07
1.68061e-07
1.68036e-07
1.68029e-07
1.68039e-07
1.67989e-07
1.67997e-07
1.67952e-07
1.67965e-07
1.67935e-07
1.67933e-07
1.67919e-07
1.67915e-07
1.67912e-07
1.67908e-07
1.67905e-07
1.67902e-07
1.67901e-07
1.67899e-07
1.67898e-07
1.67897e-07
1.67897e-07
1.67896e-07
1.67896e-07
1.67896e-07
1.67895e-07
1.67895e-07
1.67896e-07
1.67896e-07
1.67896e-07
1.67897e-07
1.67897e-07
1.67898e-07
1.67899e-07
1.67901e-07
1.67902e-07
1.67905e-07
1.67908e-07
1.67912e-07
1.67915e-07
1.67919e-07
1.67933e-07
1.67935e-07
1.67965e-07
1.67952e-07
1.67997e-07
1.67989e-07
1.68038e-07
1.68029e-07
1.68036e-07
1.68061e-07
1.70829e-07
1.70774e-07
1.70751e-07
1.70746e-07
1.70688e-07
1.70685e-07
1.70641e-07
1.70646e-07
1.70617e-07
1.70612e-07
1.70598e-07
1.70593e-07
1.70589e-07
1.70585e-07
1.70581e-07
1.70579e-07
1.70577e-07
1.70575e-07
1.70574e-07
1.70573e-07
1.70572e-07
1.70572e-07
1.70571e-07
1.70571e-07
1.70571e-07
1.70571e-07
1.70571e-07
1.70571e-07
1.70572e-07
1.70572e-07
1.70573e-07
1.70574e-07
1.70575e-07
1.70577e-07
1.70579e-07
1.70581e-07
1.70585e-07
1.70589e-07
1.70593e-07
1.70598e-07
1.70612e-07
1.70617e-07
1.70646e-07
1.70641e-07
1.70685e-07
1.70688e-07
1.70746e-07
1.70751e-07
1.70774e-07
1.70829e-07
1.72638e-07
1.72561e-07
1.72531e-07
1.72511e-07
1.72452e-07
1.7244e-07
1.72396e-07
1.72396e-07
1.72368e-07
1.72361e-07
1.72347e-07
1.72341e-07
1.72337e-07
1.72332e-07
1.72329e-07
1.72326e-07
1.72324e-07
1.72322e-07
1.72321e-07
1.7232e-07
1.72319e-07
1.72319e-07
1.72318e-07
1.72318e-07
1.72318e-07
1.72318e-07
1.72318e-07
1.72318e-07
1.72318e-07
1.72319e-07
1.7232e-07
1.72321e-07
1.72322e-07
1.72324e-07
1.72326e-07
1.72329e-07
1.72332e-07
1.72337e-07
1.72341e-07
1.72347e-07
1.72361e-07
1.72368e-07
1.72396e-07
1.72396e-07
1.7244e-07
1.72452e-07
1.72511e-07
1.72531e-07
1.7256e-07
1.72637e-07
)
;

boundaryField
{
    fuel
    {
        type            fixedValue;
        value           nonuniform 0();
    }
    wall
    {
        type            zeroGradient;
    }
    outlet
    {
        type            zeroGradient;
    }
    frontAndBack
    {
        type            empty;
    }
    procBoundary3to2
    {
        type            processor;
        value           nonuniform List<scalar> 
51
(
1.26141e-07
1.26133e-07
1.2613e-07
1.26125e-07
1.26124e-07
1.26121e-07
1.26121e-07
1.26119e-07
1.2612e-07
1.26119e-07
1.26119e-07
1.26118e-07
1.26119e-07
1.26118e-07
1.26118e-07
1.26119e-07
1.26118e-07
1.26119e-07
1.26118e-07
1.2612e-07
1.26119e-07
1.26121e-07
1.26121e-07
1.26124e-07
1.26125e-07
1.2613e-07
1.26133e-07
1.26141e-07
1.26149e-07
1.26163e-07
1.26185e-07
1.26208e-07
1.26253e-07
1.26298e-07
1.26387e-07
1.26483e-07
1.26594e-07
1.26782e-07
1.26884e-07
1.25429e-07
1.25317e-07
1.25114e-07
1.24994e-07
1.24894e-07
1.248e-07
1.24752e-07
1.24705e-07
1.2468e-07
1.24657e-07
1.24644e-07
1.24644e-07
)
;
    }
}


// ************************************************************************* //
