/*--------------------------------*- C++ -*----------------------------------*\
| =========                 |                                                 |
| \\      /  F ield         | OpenFOAM: The Open Source CFD Toolbox           |
|  \\    /   O peration     | Version:  dev                                   |
|   \\  /    A nd           | Web:      www.OpenFOAM.org                      |
|    \\/     M anipulation  |                                                 |
\*---------------------------------------------------------------------------*/
FoamFile
{
    version     2.0;
    format      ascii;
    class       volVectorField;
    location    "0.085";
    object      U;
}
// * * * * * * * * * * * * * * * * * * * * * * * * * * * * * * * * * * * * * //

dimensions      [0 1 -1 0 0 0 0];

internalField   nonuniform List<vector> 
13
(
(3.65473e-13 -3.65473e-13 0.0849793)
(3.58899e-13 -3.58899e-13 0.0859563)
(3.52322e-13 -3.52322e-13 0.0869729)
(3.4574e-13 -3.4574e-13 0.0880929)
(3.39153e-13 -3.39153e-13 0.0890459)
(3.32563e-13 -3.32563e-13 0.0899165)
(3.25971e-13 -3.25971e-13 0.0907013)
(3.1938e-13 -3.1938e-13 0.0913653)
(3.1279e-13 -3.1279e-13 0.0920584)
(3.06202e-13 -3.06202e-13 0.0927624)
(2.99614e-13 -2.99614e-13 0.0933333)
(2.93023e-13 -2.93023e-13 0.093974)
(2.86429e-13 -2.86429e-13 0.0946038)
)
;

boundaryField
{
    wall
    {
        type            zeroGradient;
    }
    fuel
    {
        type            fixedValue;
        value           nonuniform 0();
    }
    outlet
    {
        type            pressureInletOutletVelocity;
        value           nonuniform 0();
    }
    procBoundary3to2
    {
        type            processor;
        value           uniform (3.72044e-13 -3.72044e-13 0.0838385);
    }
    procBoundary3to4
    {
        type            processor;
        value           uniform (2.79834e-13 -2.79834e-13 0.0951369);
    }
}


// ************************************************************************* //
