/*--------------------------------*- C++ -*----------------------------------*\
| =========                 |                                                 |
| \\      /  F ield         | OpenFOAM: The Open Source CFD Toolbox           |
|  \\    /   O peration     | Version:  dev                                   |
|   \\  /    A nd           | Web:      www.OpenFOAM.org                      |
|    \\/     M anipulation  |                                                 |
\*---------------------------------------------------------------------------*/
FoamFile
{
    version     2.0;
    format      ascii;
    class       volScalarField;
    location    "0.135";
    object      A1C2H*;
}
// * * * * * * * * * * * * * * * * * * * * * * * * * * * * * * * * * * * * * //

dimensions      [0 0 0 0 0 0 0];

internalField   nonuniform List<scalar> 
250
(
2.20474e-09
1.30925e-09
9.95027e-10
8.93597e-10
8.92505e-10
8.33197e-10
8.67316e-10
8.24772e-10
8.53017e-10
8.28361e-10
1.55146e-09
9.82123e-10
7.64914e-10
6.88974e-10
6.91517e-10
6.41092e-10
6.71222e-10
6.3411e-10
6.59032e-10
6.37417e-10
6.44927e-10
6.49622e-10
6.45813e-10
6.53513e-10
6.57764e-10
6.62512e-10
7.12429e-10
7.30214e-10
8.95342e-10
1.03382e-09
1.05736e-09
7.12019e-10
5.67033e-10
5.1183e-10
5.16236e-10
4.75248e-10
5.00601e-10
4.69741e-10
4.90603e-10
4.72611e-10
4.78856e-10
4.8273e-10
4.79534e-10
4.85682e-10
4.88998e-10
4.92555e-10
5.31099e-10
5.40519e-10
6.62039e-10
7.62251e-10
6.97404e-10
4.97595e-10
4.04199e-10
3.6542e-10
3.70388e-10
3.38379e-10
3.58892e-10
3.34249e-10
3.50872e-10
3.36614e-10
3.41549e-10
3.446e-10
3.42055e-10
3.46721e-10
3.49192e-10
3.52005e-10
3.80425e-10
3.84384e-10
4.70768e-10
5.40035e-10
4.43947e-10
3.33399e-10
2.75384e-10
2.47475e-10
2.52607e-10
2.29855e-10
2.44204e-10
2.26935e-10
2.39554e-10
2.28795e-10
2.32502e-10
2.34795e-10
2.3287e-10
2.36232e-10
2.37984e-10
2.38572e-10
2.59214e-10
2.60986e-10
3.20366e-10
3.65934e-10
2.66425e-10
2.11862e-10
1.77318e-10
1.58823e-10
1.63154e-10
1.4716e-10
1.57503e-10
1.45207e-10
1.5427e-10
1.46588e-10
1.49217e-10
1.50852e-10
1.49476e-10
1.51758e-10
1.52938e-10
1.53277e-10
1.67155e-10
1.67236e-10
2.04016e-10
2.31963e-10
1.51439e-10
1.25255e-10
1.05774e-10
9.41945e-11
9.74513e-11
8.69834e-11
9.39147e-11
8.57673e-11
9.18249e-11
8.67228e-11
8.84539e-11
8.95389e-11
8.8626e-11
9.00584e-11
9.08066e-11
9.09846e-11
9.9702e-11
9.91256e-11
1.21506e-10
1.37639e-10
7.81842e-11
6.6708e-11
5.65695e-11
4.99527e-11
5.20963e-11
4.59158e-11
5.01021e-11
4.52329e-11
4.88844e-11
4.58288e-11
4.68551e-11
4.75031e-11
4.69594e-11
4.77644e-11
4.82014e-11
4.82782e-11
5.32388e-11
5.25921e-11
6.49681e-11
7.34072e-11
3.48092e-11
3.03876e-11
2.57637e-11
2.25122e-11
2.36886e-11
2.05764e-11
2.27308e-11
2.02488e-11
2.21253e-11
2.05652e-11
2.10836e-11
2.1412e-11
2.11378e-11
2.15206e-11
2.17442e-11
2.17656e-11
2.41852e-11
2.37327e-11
2.96115e-11
3.3403e-11
1.24433e-11
1.10425e-11
9.34778e-12
8.08848e-12
8.5847e-12
7.35612e-12
8.22398e-12
7.23219e-12
7.98765e-12
7.36359e-12
7.5686e-12
7.69868e-12
7.59103e-12
7.73288e-12
7.82485e-12
7.82554e-12
8.75531e-12
8.53845e-12
1.07403e-11
1.20887e-11
3.23005e-12
2.88502e-12
2.4315e-12
2.07911e-12
2.2266e-12
1.87972e-12
2.12934e-12
1.84611e-12
2.06331e-12
1.88503e-12
1.9427e-12
1.97983e-12
1.94961e-12
1.98703e-12
2.0146e-12
2.01262e-12
2.2691e-12
2.20175e-12
2.79663e-12
3.14995e-12
4.75671e-13
4.24752e-13
3.56393e-13
3.03131e-13
3.26002e-13
2.73322e-13
3.11793e-13
2.68279e-13
3.01826e-13
2.74407e-13
2.83131e-13
2.88866e-13
2.8431e-13
2.89648e-13
2.94131e-13
2.93546e-13
3.32051e-13
3.21585e-13
4.10126e-13
4.63355e-13
4.55348e-14
4.09549e-14
3.48089e-14
3.01081e-14
3.21032e-14
2.73909e-14
3.08578e-14
2.6916e-14
2.99679e-14
2.7475e-14
2.8263e-14
2.87891e-14
2.83811e-14
2.88473e-14
2.92699e-14
2.92105e-14
3.26527e-14
3.17622e-14
3.95673e-14
4.44416e-14
)
;

boundaryField
{
    fuel
    {
        type            fixedValue;
        value           nonuniform 0();
    }
    wall
    {
        type            zeroGradient;
    }
    outlet
    {
        type            zeroGradient;
    }
    frontAndBack
    {
        type            empty;
    }
    procBoundary1to0
    {
        type            processor;
        value           nonuniform List<scalar> 
21
(
3.03554e-09
1.68952e-09
1.25039e-09
1.11834e-09
1.11154e-09
1.04488e-09
1.08157e-09
1.03523e-09
1.06552e-09
1.03887e-09
8.36921e-10
8.36921e-10
8.42336e-10
8.3805e-10
8.47198e-10
8.52413e-10
8.58731e-10
9.20646e-10
9.5046e-10
1.16786e-09
1.35143e-09
)
;
    }
}


// ************************************************************************* //
