/*--------------------------------*- C++ -*----------------------------------*\
| =========                 |                                                 |
| \\      /  F ield         | OpenFOAM: The Open Source CFD Toolbox           |
|  \\    /   O peration     | Version:  dev                                   |
|   \\  /    A nd           | Web:      www.OpenFOAM.org                      |
|    \\/     M anipulation  |                                                 |
\*---------------------------------------------------------------------------*/
FoamFile
{
    version     2.0;
    format      ascii;
    class       volScalarField;
    location    "0.135";
    object      A1C2H*;
}
// * * * * * * * * * * * * * * * * * * * * * * * * * * * * * * * * * * * * * //

dimensions      [0 0 0 0 0 0 0];

internalField   nonuniform List<scalar> 
250
(
1.29988e-09
1.13479e-09
9.57737e-10
9.15102e-10
8.6057e-10
8.51602e-10
8.48307e-10
8.38144e-10
8.43764e-10
8.36538e-10
9.90274e-10
8.66244e-10
7.35673e-10
7.07139e-10
6.63479e-10
6.56558e-10
6.53888e-10
6.4517e-10
6.50257e-10
6.43907e-10
6.38435e-10
6.57468e-10
6.33666e-10
6.73043e-10
6.30352e-10
7.1312e-10
6.46052e-10
8.43014e-10
8.03944e-10
1.67619e-09
7.28582e-10
6.38243e-10
5.44581e-10
5.26405e-10
4.92913e-10
4.87795e-10
4.85599e-10
4.78511e-10
4.82846e-10
4.77549e-10
4.73117e-10
4.8881e-10
4.69098e-10
5.01554e-10
4.66302e-10
5.33377e-10
4.7716e-10
6.31443e-10
5.82349e-10
1.14291e-09
5.15915e-10
4.52371e-10
3.8735e-10
3.76524e-10
3.5198e-10
3.48398e-10
3.46404e-10
3.40925e-10
3.44422e-10
3.40212e-10
3.36796e-10
3.49106e-10
3.33583e-10
3.59235e-10
3.31348e-10
3.83168e-10
3.38853e-10
4.54482e-10
4.07343e-10
7.58043e-10
3.4972e-10
3.06572e-10
2.63086e-10
2.56104e-10
2.38339e-10
2.36009e-10
2.35836e-10
2.31815e-10
2.34491e-10
2.31298e-10
2.28796e-10
2.37985e-10
2.26355e-10
2.44156e-10
2.24638e-10
2.62041e-10
2.28001e-10
3.12512e-10
2.71074e-10
4.8683e-10
2.22274e-10
1.9641e-10
1.6866e-10
1.64858e-10
1.52976e-10
1.51555e-10
1.51387e-10
1.48599e-10
1.50531e-10
1.48237e-10
1.46508e-10
1.52994e-10
1.4476e-10
1.57262e-10
1.43526e-10
1.69409e-10
1.45469e-10
2.0311e-10
1.71779e-10
3.00191e-10
1.32066e-10
1.16642e-10
1.00019e-10
9.81205e-11
9.07039e-11
8.98842e-11
8.97622e-11
8.79677e-11
8.92615e-11
8.7728e-11
8.66178e-11
9.08773e-11
8.54546e-11
9.36218e-11
8.46356e-11
1.01281e-10
8.56565e-11
1.22382e-10
1.00913e-10
1.71905e-10
7.0523e-11
6.21441e-11
5.30864e-11
5.22457e-11
4.80589e-11
4.76218e-11
4.75542e-11
4.65151e-11
4.72934e-11
4.63705e-11
4.57278e-11
4.82526e-11
4.50295e-11
4.98423e-11
4.45402e-11
5.41982e-11
4.50081e-11
6.62011e-11
5.3131e-11
9.0644e-11
3.21109e-11
2.81907e-11
2.3949e-11
2.36381e-11
2.16176e-11
2.1415e-11
2.13854e-11
2.08738e-11
2.12709e-11
2.07994e-11
2.04817e-11
2.17587e-11
2.01239e-11
2.2543e-11
1.9875e-11
2.46615e-11
2.00503e-11
3.05287e-11
2.37913e-11
4.12581e-11
1.16104e-11
1.01627e-11
8.59774e-12
8.50779e-12
7.74231e-12
7.6677e-12
7.65733e-12
7.46039e-12
7.61823e-12
7.43023e-12
7.30727e-12
7.81296e-12
7.16372e-12
8.11547e-12
7.06501e-12
8.92482e-12
7.11516e-12
1.11811e-11
8.48415e-12
1.50016e-11
3.00947e-12
2.61993e-12
2.20366e-12
2.1833e-12
1.97612e-12
1.95623e-12
1.95327e-12
1.8993e-12
1.94402e-12
1.89032e-12
1.85673e-12
1.999e-12
1.81601e-12
2.08156e-12
1.78857e-12
2.30157e-12
1.79918e-12
2.92072e-12
2.1634e-12
3.92185e-12
4.35837e-13
3.77233e-13
3.16791e-13
3.13719e-13
2.83591e-13
2.80651e-13
2.80181e-13
2.72264e-13
2.78982e-13
2.70829e-13
2.65904e-13
2.873e-13
2.59746e-13
2.99374e-13
2.55725e-13
3.31415e-13
2.57247e-13
4.22641e-13
3.10884e-13
5.69448e-13
4.10644e-14
3.5862e-14
3.06697e-14
3.03463e-14
2.774e-14
2.74701e-14
2.74275e-14
2.6733e-14
2.73235e-14
2.65984e-14
2.61644e-14
2.80654e-14
2.56149e-14
2.91173e-14
2.52735e-14
3.18696e-14
2.54565e-14
3.96346e-14
3.0309e-14
5.19773e-14
)
;

boundaryField
{
    fuel
    {
        type            fixedValue;
        value           nonuniform 0();
    }
    wall
    {
        type            zeroGradient;
    }
    outlet
    {
        type            zeroGradient;
    }
    frontAndBack
    {
        type            empty;
    }
    procBoundary1to0
    {
        type            processor;
        value           nonuniform List<scalar> 
21
(
1.65297e-09
1.43875e-09
1.20368e-09
1.14258e-09
1.07709e-09
1.0659e-09
1.06194e-09
1.05074e-09
1.05654e-09
1.04876e-09
8.30114e-10
8.30114e-10
8.52005e-10
8.2477e-10
8.70241e-10
8.21062e-10
9.1819e-10
8.4314e-10
1.08478e-09
1.07474e-09
2.39675e-09
)
;
    }
}


// ************************************************************************* //
