/*--------------------------------*- C++ -*----------------------------------*\
| =========                 |                                                 |
| \\      /  F ield         | OpenFOAM: The Open Source CFD Toolbox           |
|  \\    /   O peration     | Version:  dev                                   |
|   \\  /    A nd           | Web:      www.OpenFOAM.org                      |
|    \\/     M anipulation  |                                                 |
\*---------------------------------------------------------------------------*/
FoamFile
{
    version     2.0;
    format      ascii;
    class       volScalarField;
    location    "0.135";
    object      A2C2HA*;
}
// * * * * * * * * * * * * * * * * * * * * * * * * * * * * * * * * * * * * * //

dimensions      [0 0 0 0 0 0 0];

internalField   nonuniform List<scalar> 
250
(
8.30832e-13
6.57231e-13
5.24266e-13
4.90409e-13
4.60361e-13
4.55078e-13
4.53276e-13
4.48379e-13
4.50902e-13
4.47602e-13
6.26427e-13
5.02332e-13
4.05762e-13
3.83018e-13
3.58133e-13
3.53986e-13
3.52468e-13
3.47951e-13
3.50491e-13
3.47317e-13
3.44384e-13
3.54354e-13
3.4182e-13
3.62569e-13
3.40078e-13
3.83956e-13
3.50804e-13
4.65415e-13
4.84877e-13
1.36556e-12
4.52687e-13
3.66388e-13
2.98225e-13
2.83712e-13
2.64239e-13
2.61158e-13
2.59885e-13
2.56055e-13
2.58357e-13
2.55561e-13
2.53099e-13
2.61678e-13
2.50845e-13
2.68679e-13
2.49291e-13
2.86288e-13
2.56604e-13
3.47807e-13
3.43121e-13
8.8943e-13
3.11756e-13
2.53734e-13
2.0747e-13
1.98782e-13
1.84525e-13
1.82397e-13
1.81252e-13
1.78263e-13
1.8016e-13
1.77897e-13
1.75989e-13
1.82788e-13
1.74171e-13
1.88404e-13
1.7291e-13
2.01764e-13
1.77819e-13
2.46004e-13
2.31868e-13
5.58475e-13
2.03564e-13
1.66048e-13
1.3614e-13
1.3072e-13
1.20656e-13
1.19316e-13
1.19222e-13
1.17072e-13
1.18503e-13
1.16814e-13
1.15447e-13
1.20422e-13
1.14096e-13
1.23754e-13
1.13144e-13
1.33559e-13
1.15372e-13
1.63957e-13
1.47555e-13
3.36359e-13
1.23698e-13
1.01981e-13
8.37722e-14
8.08376e-14
7.4398e-14
7.36164e-14
7.35295e-14
7.20998e-14
7.30931e-14
7.19275e-14
7.10228e-14
7.4388e-14
7.00965e-14
7.66011e-14
6.94424e-14
8.2994e-14
7.06848e-14
1.02364e-13
8.90733e-14
1.93076e-13
7.02647e-14
5.80331e-14
4.77334e-14
4.62726e-14
4.24666e-14
4.20383e-14
4.19783e-14
4.11041e-14
4.17364e-14
4.09955e-14
4.04448e-14
4.25413e-14
3.98612e-14
4.3894e-14
3.94504e-14
4.77215e-14
4.00821e-14
5.91598e-14
4.9953e-14
1.02447e-13
3.60788e-14
2.98309e-14
2.45461e-14
2.38983e-14
2.1859e-14
2.16417e-14
2.16098e-14
2.11268e-14
2.149e-14
2.10639e-14
2.07605e-14
2.19438e-14
2.04275e-14
2.26906e-14
2.01948e-14
2.47626e-14
2.04772e-14
3.08953e-14
2.5331e-14
5.03503e-14
1.59717e-14
1.32178e-14
1.08711e-14
1.06289e-14
9.68182e-15
9.585e-15
9.57137e-15
9.34079e-15
9.5206e-15
9.30904e-15
9.16435e-15
9.74293e-15
8.99975e-15
1.00991e-14
8.88569e-15
1.10715e-14
8.99061e-15
1.39293e-14
1.10744e-14
2.16229e-14
5.69315e-15
4.72345e-15
3.88892e-15
3.81735e-15
3.4651e-15
3.43017e-15
3.42543e-15
3.33762e-15
3.4084e-15
3.32475e-15
3.26961e-15
3.49563e-15
3.2046e-15
3.63101e-15
3.16013e-15
3.99657e-15
3.19051e-15
5.06498e-15
3.91583e-15
7.55119e-15
1.4753e-15
1.22414e-15
1.00645e-15
9.90454e-16
8.94953e-16
8.85655e-16
8.84288e-16
8.60009e-16
8.80267e-16
8.56091e-16
8.40966e-16
9.04972e-16
8.22447e-16
9.42104e-16
8.1004e-16
1.04185e-15
8.16554e-16
1.33304e-15
1.00404e-15
1.93439e-15
2.12307e-16
1.7581e-16
1.44625e-16
1.42401e-16
1.2848e-16
1.27109e-16
1.26888e-16
1.23302e-16
1.26373e-16
1.22662e-16
1.20444e-16
1.30115e-16
1.17639e-16
1.3556e-16
1.15818e-16
1.50138e-16
1.16715e-16
1.92969e-16
1.43754e-16
2.76336e-16
1.74569e-17
1.46109e-17
1.22568e-17
1.20632e-17
1.10081e-17
1.0898e-17
1.08799e-17
1.06044e-17
1.08417e-17
1.05512e-17
1.03811e-17
1.11327e-17
1.01625e-17
1.15465e-17
1.0028e-17
1.26405e-17
1.01177e-17
1.58318e-17
1.22541e-17
2.19192e-17
)
;

boundaryField
{
    fuel
    {
        type            fixedValue;
        value           nonuniform 0();
    }
    wall
    {
        type            zeroGradient;
    }
    outlet
    {
        type            zeroGradient;
    }
    frontAndBack
    {
        type            empty;
    }
    procBoundary1to0
    {
        type            processor;
        value           nonuniform List<scalar> 
21
(
1.06352e-12
8.26067e-13
6.46272e-13
5.98066e-13
5.6328e-13
5.56832e-13
5.54768e-13
5.49865e-13
5.52103e-13
5.48951e-13
4.44369e-13
4.44369e-13
4.55025e-13
4.41708e-13
4.64007e-13
4.39947e-13
4.88143e-13
4.55122e-13
5.92281e-13
6.56612e-13
2.02919e-12
)
;
    }
}


// ************************************************************************* //
