/*--------------------------------*- C++ -*----------------------------------*\
| =========                 |                                                 |
| \\      /  F ield         | OpenFOAM: The Open Source CFD Toolbox           |
|  \\    /   O peration     | Version:  dev                                   |
|   \\  /    A nd           | Web:      www.OpenFOAM.org                      |
|    \\/     M anipulation  |                                                 |
\*---------------------------------------------------------------------------*/
FoamFile
{
    version     2.0;
    format      ascii;
    class       volScalarField;
    location    "0.135";
    object      CH2OH;
}
// * * * * * * * * * * * * * * * * * * * * * * * * * * * * * * * * * * * * * //

dimensions      [0 0 0 0 0 0 0];

internalField   nonuniform List<scalar> 
250
(
8.7625e-10
1.02611e-09
9.72487e-10
9.09292e-10
9.39532e-10
8.39529e-10
9.02129e-10
8.26704e-10
8.7714e-10
8.33425e-10
6.06103e-10
6.98903e-10
6.52866e-10
6.06227e-10
6.27664e-10
5.57544e-10
6.02103e-10
5.48654e-10
5.84647e-10
5.53526e-10
5.64213e-10
5.71219e-10
5.65102e-10
5.76253e-10
5.81422e-10
5.83611e-10
6.41085e-10
6.17588e-10
6.95238e-10
6.43342e-10
4.06707e-10
4.60899e-10
4.26023e-10
3.93169e-10
4.08008e-10
3.60653e-10
3.91241e-10
3.54781e-10
3.79392e-10
3.58172e-10
3.65479e-10
3.70209e-10
3.6608e-10
3.73435e-10
3.76828e-10
3.78513e-10
4.16611e-10
4.01387e-10
4.58481e-10
4.33912e-10
2.6624e-10
2.95917e-10
2.71742e-10
2.49761e-10
2.59717e-10
2.28728e-10
2.49149e-10
2.25009e-10
2.4119e-10
2.2728e-10
2.32066e-10
2.3516e-10
2.32467e-10
2.37142e-10
2.39284e-10
2.40747e-10
2.64913e-10
2.55099e-10
2.94441e-10
2.83743e-10
1.7161e-10
1.86534e-10
1.70928e-10
1.55539e-10
1.62346e-10
1.43632e-10
1.55638e-10
1.41381e-10
1.51652e-10
1.42852e-10
1.45868e-10
1.47838e-10
1.46133e-10
1.49009e-10
1.50305e-10
1.5024e-10
1.65473e-10
1.60051e-10
1.85971e-10
1.81763e-10
1.08897e-10
1.17037e-10
1.07618e-10
9.7826e-11
1.02215e-10
9.07883e-11
9.81713e-11
8.94607e-11
9.57766e-11
9.03793e-11
9.22145e-11
9.34461e-11
9.23922e-11
9.41163e-11
9.48729e-11
9.48616e-11
1.0394e-10
1.00697e-10
1.15691e-10
1.14297e-10
7.10062e-11
7.47665e-11
6.94252e-11
6.33112e-11
6.6078e-11
5.92326e-11
6.36697e-11
5.84583e-11
6.22508e-11
5.9014e-11
6.00997e-11
6.08693e-11
6.02227e-11
6.12454e-11
6.1676e-11
6.17049e-11
6.7001e-11
6.51048e-11
7.40916e-11
7.37508e-11
4.85711e-11
5.0243e-11
4.73741e-11
4.35449e-11
4.52833e-11
4.11738e-11
4.383e-11
4.07133e-11
4.29845e-11
4.10431e-11
4.16793e-11
4.2177e-11
4.1771e-11
4.23903e-11
4.26355e-11
4.26853e-11
4.57789e-11
4.46745e-11
4.99836e-11
4.99571e-11
3.6079e-11
3.68562e-11
3.53792e-11
3.28949e-11
3.4022e-11
3.14599e-11
3.30984e-11
3.11678e-11
3.25728e-11
3.13639e-11
3.17451e-11
3.20937e-11
3.18207e-11
3.2222e-11
3.23666e-11
3.2426e-11
3.43037e-11
3.36316e-11
3.68148e-11
3.68033e-11
3.05645e-11
3.10306e-11
3.0361e-11
2.86355e-11
2.94146e-11
2.77089e-11
2.87696e-11
2.75039e-11
2.84174e-11
2.76175e-11
2.78523e-11
2.81304e-11
2.79231e-11
2.82167e-11
2.83043e-11
2.8374e-11
2.95926e-11
2.91472e-11
3.11147e-11
3.09834e-11
3.23078e-11
3.24589e-11
3.22725e-11
3.06663e-11
3.1358e-11
2.99287e-11
3.07743e-11
2.97501e-11
3.0478e-11
2.98231e-11
2.99831e-11
3.02927e-11
3.00731e-11
3.03606e-11
3.04226e-11
3.05251e-11
3.15073e-11
3.11845e-11
3.26984e-11
3.25428e-11
4.00265e-11
3.90897e-11
3.91479e-11
3.67867e-11
3.76976e-11
3.5966e-11
3.69511e-11
3.57651e-11
3.65992e-11
3.58417e-11
3.5959e-11
3.64649e-11
3.61142e-11
3.65132e-11
3.65819e-11
3.67587e-11
3.79019e-11
3.76867e-11
3.96466e-11
3.99788e-11
4.29062e-11
4.11955e-11
4.15153e-11
3.88894e-11
3.97563e-11
3.81332e-11
3.89813e-11
3.79297e-11
3.86497e-11
3.79729e-11
3.7986e-11
3.86474e-11
3.8195e-11
3.86664e-11
3.8717e-11
3.89577e-11
4.00515e-11
4.00085e-11
4.20391e-11
4.27764e-11
)
;

boundaryField
{
    fuel
    {
        type            fixedValue;
        value           nonuniform 0();
    }
    wall
    {
        type            zeroGradient;
    }
    outlet
    {
        type            zeroGradient;
    }
    frontAndBack
    {
        type            empty;
    }
    procBoundary1to0
    {
        type            processor;
        value           nonuniform List<scalar> 
21
(
1.22628e-09
1.45633e-09
1.40169e-09
1.32216e-09
1.3622e-09
1.22641e-09
1.31023e-09
1.20856e-09
1.27597e-09
1.21734e-09
8.48346e-10
8.48346e-10
8.58308e-10
8.49642e-10
8.65805e-10
8.7341e-10
8.76323e-10
9.59059e-10
9.23409e-10
1.01946e-09
9.17679e-10
)
;
    }
}


// ************************************************************************* //
