/*--------------------------------*- C++ -*----------------------------------*\
| =========                 |                                                 |
| \\      /  F ield         | OpenFOAM: The Open Source CFD Toolbox           |
|  \\    /   O peration     | Version:  dev                                   |
|   \\  /    A nd           | Web:      www.OpenFOAM.org                      |
|    \\/     M anipulation  |                                                 |
\*---------------------------------------------------------------------------*/
FoamFile
{
    version     2.0;
    format      ascii;
    class       volScalarField;
    location    "0.135";
    object      CO2;
}
// * * * * * * * * * * * * * * * * * * * * * * * * * * * * * * * * * * * * * //

dimensions      [0 0 0 0 0 0 0];

internalField   nonuniform List<scalar> 
250
(
0.048408
0.0480432
0.0477751
0.0476513
0.0476391
0.0476305
0.0476303
0.0476392
0.0476323
0.0476401
0.0484213
0.048108
0.0478814
0.047775
0.0477631
0.0477555
0.0477552
0.0477627
0.0477566
0.0477637
0.0477665
0.0477512
0.0477696
0.0477402
0.047773
0.0477227
0.0478161
0.0478379
0.0481492
0.0486722
0.0484263
0.048157
0.0479642
0.0478732
0.047861
0.0478543
0.0478539
0.0478601
0.047855
0.0478611
0.0478632
0.047851
0.0478653
0.0478424
0.0478677
0.0478299
0.0479045
0.0479298
0.048185
0.0486297
0.0484203
0.0481884
0.0480235
0.047946
0.0479335
0.0479276
0.0479274
0.0479323
0.0479281
0.0479334
0.0479347
0.0479254
0.047936
0.0479189
0.0479375
0.047911
0.0479686
0.0479986
0.0482046
0.0485826
0.0484025
0.0482028
0.0480617
0.0479965
0.0479842
0.0479791
0.0479783
0.047982
0.0479787
0.0479833
0.047984
0.047977
0.0479844
0.0479731
0.0479852
0.0479685
0.048012
0.0480452
0.0482092
0.0485298
0.0483737
0.0482027
0.0480821
0.0480274
0.0480155
0.0480111
0.0480105
0.0480134
0.0480108
0.0480147
0.0480149
0.0480099
0.0480147
0.0480073
0.048015
0.0480055
0.0480372
0.0480726
0.0482017
0.048472
0.0483378
0.0481917
0.0480895
0.048044
0.0480328
0.0480291
0.0480287
0.048031
0.048029
0.0480324
0.0480323
0.0480286
0.0480316
0.0480269
0.0480314
0.048027
0.0480497
0.0480848
0.0481858
0.0484094
0.048298
0.048174
0.0480884
0.0480508
0.0480409
0.0480379
0.0480376
0.0480395
0.0480379
0.0480409
0.0480405
0.0480378
0.0480395
0.0480366
0.048039
0.0480377
0.0480539
0.0480866
0.0481653
0.0483482
0.0482578
0.0481537
0.0480828
0.0480523
0.0480437
0.0480413
0.0480411
0.0480427
0.0480415
0.0480442
0.0480437
0.0480415
0.0480425
0.0480407
0.0480418
0.0480421
0.0480538
0.0480825
0.0481439
0.0482904
0.0482203
0.0481338
0.048076
0.0480513
0.0480442
0.0480424
0.0480423
0.0480436
0.0480427
0.0480451
0.0480446
0.0480427
0.0480432
0.048042
0.0480424
0.0480434
0.048052
0.0480761
0.0481241
0.0482389
0.0481879
0.0481164
0.0480696
0.0480499
0.048044
0.0480426
0.0480426
0.0480438
0.048043
0.0480452
0.0480447
0.048043
0.0480432
0.0480424
0.0480424
0.0480436
0.0480499
0.0480696
0.0481074
0.048196
0.0481622
0.0481026
0.0480645
0.0480486
0.0480437
0.0480427
0.0480427
0.0480437
0.0480432
0.0480452
0.0480447
0.048043
0.0480432
0.0480425
0.0480423
0.0480434
0.0480483
0.0480642
0.0480947
0.0481631
0.0481456
0.0480937
0.0480612
0.0480478
0.0480435
0.0480428
0.0480428
0.0480437
0.0480433
0.0480452
0.0480447
0.0480431
0.0480431
0.0480425
0.0480423
0.0480432
0.0480473
0.0480607
0.0480868
0.0481425
)
;

boundaryField
{
    fuel
    {
        type            fixedValue;
        value           nonuniform 0();
    }
    wall
    {
        type            zeroGradient;
    }
    outlet
    {
        type            zeroGradient;
    }
    frontAndBack
    {
        type            empty;
    }
    procBoundary1to0
    {
        type            processor;
        value           nonuniform List<scalar> 
21
(
0.048391
0.0479667
0.0476477
0.047504
0.0474905
0.0474809
0.0474808
0.047491
0.0474834
0.0474919
0.0476437
0.0476437
0.0476254
0.0476478
0.0476117
0.0476521
0.0475895
0.0477023
0.0477242
0.0480977
0.0487125
)
;
    }
}


// ************************************************************************* //
