/*--------------------------------*- C++ -*----------------------------------*\
| =========                 |                                                 |
| \\      /  F ield         | OpenFOAM: The Open Source CFD Toolbox           |
|  \\    /   O peration     | Version:  dev                                   |
|   \\  /    A nd           | Web:      www.OpenFOAM.org                      |
|    \\/     M anipulation  |                                                 |
\*---------------------------------------------------------------------------*/
FoamFile
{
    version     2.0;
    format      ascii;
    class       volScalarField;
    location    "0.135";
    object      n-C6H7;
}
// * * * * * * * * * * * * * * * * * * * * * * * * * * * * * * * * * * * * * //

dimensions      [0 0 0 0 0 0 0];

internalField   nonuniform List<scalar> 
250
(
2.33257e-14
1.62454e-14
1.29573e-14
1.17495e-14
1.19114e-14
1.0867e-14
1.15037e-14
1.07256e-14
1.12473e-14
1.07948e-14
1.53242e-14
1.12117e-14
9.03669e-15
8.16859e-15
8.32011e-15
7.51256e-15
8.01701e-15
7.40546e-15
7.81892e-15
7.46163e-15
7.58493e-15
7.66358e-15
7.59737e-15
7.72209e-15
7.78585e-15
7.83407e-15
8.55385e-15
8.54117e-15
1.03214e-14
1.11284e-14
9.55558e-15
7.33325e-15
5.98114e-15
5.39742e-15
5.52e-15
4.94873e-15
5.313e-15
4.875e-15
5.17196e-15
4.91612e-15
5.00431e-15
5.05984e-15
5.01287e-15
5.09888e-15
5.14262e-15
5.17638e-15
5.67201e-15
5.63697e-15
6.86386e-15
7.45274e-15
5.71112e-15
4.60643e-15
3.83079e-15
3.47839e-15
3.56106e-15
3.20097e-15
3.4346e-15
3.15553e-15
3.34285e-15
3.18155e-15
3.23711e-15
3.27139e-15
3.24238e-15
3.295e-15
3.32189e-15
3.34603e-15
3.65075e-15
3.61547e-15
4.38283e-15
4.76734e-15
3.41511e-15
2.92562e-15
2.53008e-15
2.33737e-15
2.38334e-15
2.19964e-15
2.31373e-15
2.17498e-15
2.27332e-15
2.18808e-15
2.2177e-15
2.23489e-15
2.22045e-15
2.24808e-15
2.26243e-15
2.26626e-15
2.43205e-15
2.41585e-15
2.83573e-15
3.04982e-15
2.24305e-15
2.09585e-15
1.92997e-15
1.85104e-15
1.86709e-15
1.78895e-15
1.83423e-15
1.77659e-15
1.81586e-15
1.78067e-15
1.79351e-15
1.79953e-15
1.79468e-15
1.80711e-15
1.81363e-15
1.81597e-15
1.89012e-15
1.88255e-15
2.05977e-15
2.14481e-15
1.85924e-15
1.86495e-15
1.82248e-15
1.80179e-15
1.80242e-15
1.77782e-15
1.78684e-15
1.77142e-15
1.77928e-15
1.77042e-15
1.77455e-15
1.77499e-15
1.77494e-15
1.78034e-15
1.78265e-15
1.78469e-15
1.81223e-15
1.80891e-15
1.86188e-15
1.86526e-15
1.97896e-15
2.05706e-15
2.0899e-15
2.10381e-15
2.09401e-15
2.1066e-15
2.08752e-15
2.1045e-15
2.08687e-15
2.09877e-15
2.09589e-15
2.09247e-15
2.09563e-15
2.09699e-15
2.09566e-15
2.09829e-15
2.09535e-15
2.09573e-15
2.07297e-15
2.02316e-15
2.84169e-15
2.98823e-15
3.14433e-15
3.23788e-15
3.19313e-15
3.30247e-15
3.20561e-15
3.31037e-15
3.2216e-15
3.29003e-15
3.26804e-15
3.25425e-15
3.26571e-15
3.25817e-15
3.24714e-15
3.25246e-15
3.1805e-15
3.19716e-15
3.03625e-15
2.91222e-15
6.8129e-15
7.17654e-15
7.74298e-15
8.10727e-15
7.93096e-15
8.37265e-15
7.99918e-15
8.41055e-15
8.07046e-15
8.33556e-15
8.2469e-15
8.20098e-15
8.2381e-15
8.20667e-15
8.15987e-15
8.17948e-15
7.87882e-15
7.95653e-15
7.3377e-15
6.96712e-15
2.87261e-14
2.96967e-14
3.17193e-14
3.26246e-14
3.21398e-14
3.34076e-14
3.22624e-14
3.35091e-14
3.24615e-14
3.32635e-14
3.298e-14
3.29019e-14
3.29658e-14
3.29282e-14
3.27624e-14
3.28644e-14
3.19801e-14
3.22388e-14
3.0334e-14
2.91236e-14
1.6931e-13
1.6839e-13
1.74884e-13
1.72655e-13
1.732e-13
1.73532e-13
1.72111e-13
1.73543e-13
1.72042e-13
1.73019e-13
1.72458e-13
1.73078e-13
1.72611e-13
1.73221e-13
1.72806e-13
1.734e-13
1.72829e-13
1.73325e-13
1.71385e-13
1.69029e-13
1.36094e-12
1.30767e-12
1.34198e-12
1.28256e-12
1.30641e-12
1.27462e-12
1.28845e-12
1.27271e-12
1.28196e-12
1.27293e-12
1.27304e-12
1.28355e-12
1.27551e-12
1.2843e-12
1.28362e-12
1.28832e-12
1.30442e-12
1.30425e-12
1.33267e-12
1.34063e-12
)
;

boundaryField
{
    fuel
    {
        type            fixedValue;
        value           nonuniform 0();
    }
    wall
    {
        type            zeroGradient;
    }
    outlet
    {
        type            zeroGradient;
    }
    frontAndBack
    {
        type            empty;
    }
    procBoundary1to0
    {
        type            processor;
        value           nonuniform List<scalar> 
21
(
3.36995e-14
2.23516e-14
1.75988e-14
1.60091e-14
1.6144e-14
1.48955e-14
1.56356e-14
1.47216e-14
1.53277e-14
1.47991e-14
1.09508e-14
1.09508e-14
1.10515e-14
1.09676e-14
1.11316e-14
1.1217e-14
1.12838e-14
1.22418e-14
1.22879e-14
1.46849e-14
1.5688e-14
)
;
    }
}


// ************************************************************************* //
