/*--------------------------------*- C++ -*----------------------------------*\
| =========                 |                                                 |
| \\      /  F ield         | OpenFOAM: The Open Source CFD Toolbox           |
|  \\    /   O peration     | Version:  dev                                   |
|   \\  /    A nd           | Web:      www.OpenFOAM.org                      |
|    \\/     M anipulation  |                                                 |
\*---------------------------------------------------------------------------*/
FoamFile
{
    version     2.0;
    format      ascii;
    class       volVectorField;
    location    "0.135";
    object      U;
}
// * * * * * * * * * * * * * * * * * * * * * * * * * * * * * * * * * * * * * //

dimensions      [0 1 -1 0 0 0 0];

internalField   nonuniform List<vector> 
250
(
(0 1.99502 0.390969)
(0 1.58051 0.36531)
(0 1.49163 0.322088)
(0 1.20184 0.323296)
(0 1.07946 0.300185)
(0 0.839109 0.29928)
(0 0.697368 0.303855)
(0 0.464677 0.298132)
(0 0.333068 0.299449)
(0 0.0744633 0.303694)
(0 2.01458 0.360836)
(0 1.59155 0.336109)
(0 1.50096 0.296314)
(0 1.2086 0.297676)
(0 1.08396 0.276267)
(0 0.84357 0.275118)
(0 0.700276 0.279682)
(0 0.466407 0.274175)
(0 0.3344 0.27534)
(0 0.0742355 0.279375)
(0 -0.0246107 0.266257)
(0 -0.325618 0.295674)
(0 -0.363652 0.252476)
(0 -0.751558 0.314032)
(0 -0.700759 0.240178)
(0 -1.17996 0.335933)
(0 -1.08423 0.252917)
(0 -1.59506 0.346632)
(0 -1.55515 0.378636)
(0 -2.10019 0.396882)
(0 2.02834 0.329792)
(0 1.59845 0.30617)
(0 1.50673 0.270081)
(0 1.2125 0.271409)
(0 1.08598 0.251882)
(0 0.845975 0.2505)
(0 0.701654 0.254949)
(0 0.466922 0.249751)
(0 0.33504 0.250714)
(0 0.0736566 0.254556)
(0 -0.0254276 0.242136)
(0 -0.326117 0.270195)
(0 -0.366877 0.228922)
(0 -0.751786 0.287389)
(0 -0.706461 0.217195)
(0 -1.18061 0.307614)
(0 -1.0899 0.228042)
(0 -1.60005 0.318419)
(0 -1.56108 0.341795)
(0 -2.1184 0.36612)
(0 2.03604 0.297922)
(0 1.601 0.275563)
(0 1.50871 0.243443)
(0 1.21334 0.244581)
(0 1.08539 0.227047)
(0 0.846173 0.225459)
(0 0.701419 0.229737)
(0 0.466133 0.224893)
(0 0.334938 0.225685)
(0 0.0726999 0.229309)
(0 -0.0261111 0.217662)
(0 -0.326002 0.244153)
(0 -0.369207 0.205102)
(0 -0.750337 0.260057)
(0 -0.71038 0.194082)
(0 -1.17856 0.278556)
(0 -1.09281 0.203169)
(0 -1.60105 0.289107)
(0 -1.56293 0.305024)
(0 -2.13029 0.333259)
(0 2.03743 0.265328)
(0 1.59903 0.244467)
(0 1.50665 0.216479)
(0 1.21095 0.217252)
(0 1.08209 0.201839)
(0 0.844025 0.200066)
(0 0.699487 0.204163)
(0 0.46396 0.19975)
(0 0.334047 0.20033)
(0 0.0713431 0.203726)
(0 -0.0266658 0.192942)
(0 -0.325237 0.217611)
(0 -0.370634 0.181119)
(0 -0.747115 0.23214)
(0 -0.712494 0.170912)
(0 -1.17362 0.248863)
(0 -1.09293 0.178362)
(0 -1.59775 0.258818)
(0 -1.56052 0.268462)
(0 -2.13529 0.298574)
(0 2.03232 0.232172)
(0 1.59239 0.213042)
(0 1.50036 0.189318)
(0 1.20517 0.189609)
(0 1.07598 0.176414)
(0 0.839396 0.174464)
(0 0.695794 0.178327)
(0 0.46034 0.174412)
(0 0.332326 0.174765)
(0 0.0695707 0.177921)
(0 -0.027108 0.1681)
(0 -0.323786 0.190723)
(0 -0.371169 0.157136)
(0 -0.742007 0.203788)
(0 -0.712807 0.147827)
(0 -1.16561 0.218636)
(0 -1.09024 0.15379)
(0 -1.58986 0.227718)
(0 -1.55373 0.232295)
(0 -2.13282 0.262392)
(0 2.02053 0.198713)
(0 1.58102 0.181496)
(0 1.48969 0.16209)
(0 1.19591 0.161829)
(0 1.06703 0.150909)
(0 0.832214 0.148831)
(0 0.690297 0.152375)
(0 0.455235 0.149009)
(0 0.32974 0.149133)
(0 0.067381 0.152031)
(0 -0.0274609 0.143267)
(0 -0.321619 0.163601)
(0 -0.370845 0.133293)
(0 -0.734939 0.175136)
(0 -0.711372 0.124971)
(0 -1.15436 0.188057)
(0 -1.08485 0.129636)
(0 -1.57712 0.196019)
(0 -1.54255 0.196649)
(0 -2.12243 0.225045)
(0 2.00204 0.165208)
(0 1.56498 0.150099)
(0 1.4746 0.134946)
(0 1.18315 0.134106)
(0 1.05526 0.125461)
(0 0.822464 0.123348)
(0 0.682999 0.126482)
(0 0.448652 0.123698)
(0 0.326272 0.123605)
(0 0.0647947 0.126222)
(0 -0.0277559 0.118609)
(0 -0.318707 0.136395)
(0 -0.369726 0.109763)
(0 -0.725853 0.146322)
(0 -0.708309 0.102518)
(0 -1.13978 0.157285)
(0 -1.07692 0.106061)
(0 -1.55935 0.163962)
(0 -1.52712 0.161714)
(0 -2.10372 0.187086)
(0 1.977 0.131903)
(0 1.54452 0.11914)
(0 1.45521 0.108061)
(0 1.16704 0.106681)
(0 1.04084 0.100246)
(0 0.810247 0.098207)
(0 0.673972 0.100847)
(0 0.440679 0.0986653)
(0 0.321938 0.0983848)
(0 0.0618697 0.100688)
(0 -0.0280303 0.0943177)
(0 -0.315031 0.109292)
(0 -0.367916 0.0867483)
(0 -0.714747 0.117535)
(0 -0.703816 0.0806791)
(0 -1.12186 0.126517)
(0 -1.06677 0.0832622)
(0 -1.53657 0.131825)
(0 -1.50779 0.127773)
(0 -2.07665 0.14917)
(0 1.94592 0.0991448)
(0 1.52021 0.0889533)
(0 1.43196 0.0816471)
(0 1.14794 0.0798488)
(0 1.02409 0.0754857)
(0 0.795859 0.0736326)
(0 0.663404 0.07572)
(0 0.431542 0.0741401)
(0 0.316822 0.0737199)
(0 0.0587275 0.0756669)
(0 -0.0283202 0.0706242)
(0 -0.310589 0.0825308)
(0 -0.365564 0.0644865)
(0 -0.701716 0.0889932)
(0 -0.698174 0.0597205)
(0 -1.10087 0.0960036)
(0 -1.05487 0.0614662)
(0 -1.50919 0.0999347)
(0 -1.48524 0.0951199)
(0 -2.04174 0.111871)
(0 1.91002 0.0675158)
(0 1.4932 0.0600735)
(0 1.40585 0.056091)
(0 1.12672 0.0540927)
(0 1.00572 0.0515795)
(0 0.779951 0.0500247)
(0 0.651696 0.0515267)
(0 0.421725 0.0505229)
(0 0.311129 0.0500295)
(0 0.0555926 0.0515695)
(0 -0.0286461 0.0479187)
(0 -0.305435 0.0565496)
(0 -0.362862 0.0433575)
(0 -0.68706 0.0612943)
(0 -0.691727 0.039852)
(0 -1.07765 0.0662158)
(0 -1.04187 0.0410051)
(0 -1.47841 0.0688345)
(0 -1.46054 0.0641892)
(0 -2.00065 0.0760164)
(0 1.87208 0.0382777)
(0 1.46585 0.0336697)
(0 1.37905 0.0322975)
(0 1.10514 0.0304562)
(0 0.987217 0.0294329)
(0 0.763905 0.0282981)
(0 0.639778 0.0292136)
(0 0.41214 0.0287159)
(0 0.305324 0.0282441)
(0 0.0528466 0.029315)
(0 -0.0289955 0.0270707)
(0 -0.299829 0.0323524)
(0 -0.36009 0.0241802)
(0 -0.671756 0.0353023)
(0 -0.684945 0.0220074)
(0 -1.05423 0.0382539)
(0 -1.0287 0.0226172)
(0 -1.44719 0.0397191)
(0 -1.4355 0.0359977)
(0 -1.95744 0.0431364)
(0 1.83994 0.0138597)
(0 1.44412 0.0122286)
(0 1.35736 0.011838)
(0 1.08788 0.0110144)
(0 0.972486 0.0107011)
(0 0.75122 0.0102393)
(0 0.630254 0.0105767)
(0 0.40479 0.0104016)
(0 0.300619 0.0102101)
(0 0.0510967 0.0106116)
(0 -0.0293593 0.00978693)
(0 -0.29493 0.01175)
(0 -0.357976 0.00868998)
(0 -0.659099 0.012894)
(0 -0.679269 0.00785119)
(0 -1.03593 0.0140445)
(0 -1.0177 0.00800737)
(0 -1.42307 0.0148464)
(0 -1.41464 0.0126486)
(0 -1.92212 0.0162629)
)
;

boundaryField
{
    fuel
    {
        type            fixedValue;
        value           nonuniform 0();
    }
    wall
    {
        type            slip;
    }
    outlet
    {
        type            pressureInletOutletVelocity;
        value           nonuniform List<vector> 
25
(
(0 1.99502 0.390969)
(0 2.01458 0.360836)
(0 2.02834 0.329792)
(0 2.03604 0.297922)
(0 2.03743 0.265328)
(0 2.03232 0.232172)
(0 2.02053 0.198713)
(0 2.00204 0.165208)
(0 1.977 0.131903)
(0 1.94592 0.0991448)
(0 1.91002 0.0675158)
(0 1.87208 0.0382777)
(0 1.83994 0.0138597)
(0 -2.10019 0.396882)
(0 -2.1184 0.36612)
(0 -2.13029 0.333259)
(0 -2.13529 0.298574)
(0 -2.13282 0.262392)
(0 -2.12243 0.225045)
(0 -2.10372 0.187086)
(0 -2.07665 0.14917)
(0 -2.04174 0.111871)
(0 -2.00065 0.0760164)
(0 -1.95744 0.0431364)
(0 -1.92212 0.0162629)
)
;
    }
    frontAndBack
    {
        type            empty;
    }
    procBoundary1to0
    {
        type            processor;
        value           nonuniform List<vector> 
21
(
(0 1.96993 0.420062)
(0 1.56554 0.393599)
(0 1.47901 0.347282)
(0 1.19241 0.348163)
(0 1.07261 0.323545)
(0 0.832749 0.322922)
(0 0.693021 0.327443)
(0 0.461818 0.321571)
(0 0.331089 0.323002)
(0 0.074376 0.327445)
(0 -0.023653 0.289969)
(0 -0.023653 0.289969)
(0 -0.324539 0.320553)
(0 -0.359553 0.275717)
(0 -0.749758 0.339967)
(0 -0.693323 0.262925)
(0 -1.17679 0.363438)
(0 -1.07588 0.277717)
(0 -1.58638 0.373637)
(0 -1.5454 0.415477)
(0 -2.0763 0.425294)
)
;
    }
}


// ************************************************************************* //
