/*--------------------------------*- C++ -*----------------------------------*\
| =========                 |                                                 |
| \\      /  F ield         | OpenFOAM: The Open Source CFD Toolbox           |
|  \\    /   O peration     | Version:  dev                                   |
|   \\  /    A nd           | Web:      www.OpenFOAM.org                      |
|    \\/     M anipulation  |                                                 |
\*---------------------------------------------------------------------------*/
FoamFile
{
    version     2.0;
    format      ascii;
    class       volScalarField;
    location    "0.04";
    object      A1C2H-;
}
// * * * * * * * * * * * * * * * * * * * * * * * * * * * * * * * * * * * * * //

dimensions      [0 0 0 0 0 0 0];

internalField   nonuniform List<scalar> 
12
(
1.27563e-17
9.33152e-18
6.75694e-18
4.87971e-18
3.57479e-18
2.62727e-18
1.94233e-18
1.4484e-18
1.09284e-18
8.34267e-19
6.40031e-19
5.07956e-19
)
;

boundaryField
{
    front
    {
        type            wedge;
    }
    back
    {
        type            wedge;
    }
    wall
    {
        type            zeroGradient;
    }
    fuel
    {
        type            fixedValue;
        value           nonuniform 0();
    }
    outlet
    {
        type            inletOutlet;
        inletValue      nonuniform 0();
        value           nonuniform 0();
    }
    axis
    {
        type            empty;
    }
    procBoundary6to5
    {
        type            processor;
        value           uniform 1.72798e-17;
    }
    procBoundary6to7
    {
        type            processor;
        value           uniform 4.11019e-19;
    }
}


// ************************************************************************* //
