/*--------------------------------*- C++ -*----------------------------------*\
| =========                 |                                                 |
| \\      /  F ield         | OpenFOAM: The Open Source CFD Toolbox           |
|  \\    /   O peration     | Version:  dev                                   |
|   \\  /    A nd           | Web:      www.OpenFOAM.org                      |
|    \\/     M anipulation  |                                                 |
\*---------------------------------------------------------------------------*/
FoamFile
{
    version     2.0;
    format      ascii;
    class       volScalarField;
    location    "0.125";
    object      A1C2H3*;
}
// * * * * * * * * * * * * * * * * * * * * * * * * * * * * * * * * * * * * * //

dimensions      [0 0 0 0 0 0 0];

internalField   nonuniform List<scalar> 
250
(
2.10375e-10
7.1131e-09
4.37712e-09
4.12152e-09
4.08697e-09
4.08651e-09
4.08362e-09
4.08592e-09
4.08563e-09
2.22249e-10
3.38453e-09
1.99926e-09
1.86725e-09
1.8512e-09
1.85027e-09
1.84949e-09
1.84988e-09
1.84991e-09
1.24068e-10
1.83952e-09
9.53101e-10
8.74164e-10
8.64912e-10
8.64146e-10
8.63934e-10
8.63817e-10
8.63988e-10
6.24305e-11
1.12566e-09
4.86341e-10
4.35313e-10
4.29449e-10
4.28911e-10
4.2887e-10
4.28467e-10
4.28817e-10
3.51093e-11
7.55404e-10
2.66469e-10
2.32298e-10
2.28673e-10
2.28364e-10
2.28375e-10
2.27023e-10
2.28264e-10
2.49052e-11
5.56304e-10
1.62001e-10
1.34302e-10
1.30503e-10
1.30169e-10
1.30131e-10
1.30565e-10
1.29893e-10
2.55522e-11
4.37556e-10
1.09146e-10
8.71033e-11
8.41428e-11
8.41137e-11
8.40863e-11
8.34076e-11
8.35322e-11
4.25946e-11
3.58185e-10
7.88113e-11
6.15019e-11
5.84606e-11
5.79131e-11
5.78325e-11
5.79049e-11
5.82108e-11
9.59089e-11
3.00099e-10
6.12099e-11
4.56055e-11
4.36332e-11
4.32947e-11
4.32083e-11
4.2846e-11
4.33062e-11
2.11999e-10
2.54726e-10
4.88289e-11
3.48878e-11
3.31681e-11
3.29099e-11
3.28112e-11
3.33412e-11
3.29038e-11
4.49261e-10
2.17714e-10
3.98563e-11
2.85761e-11
2.70459e-11
2.68278e-11
2.67258e-11
2.70844e-11
2.66423e-11
2.70695e-11
7.64447e-10
1.86568e-10
3.40628e-11
2.39665e-11
2.23932e-11
2.21738e-11
2.22181e-11
2.23348e-11
2.23362e-11
2.23226e-11
9.38658e-10
1.59608e-10
2.94407e-11
2.04119e-11
1.89838e-11
1.8783e-11
1.88447e-11
1.88665e-11
1.88708e-11
1.88623e-11
8.98219e-10
1.35809e-10
2.59836e-11
1.77505e-11
1.64414e-11
1.62537e-11
1.63041e-11
1.62845e-11
1.62981e-11
1.62911e-11
7.30363e-10
1.11464e-10
2.28847e-11
1.56861e-11
1.44799e-11
1.43019e-11
1.43334e-11
1.42939e-11
1.43213e-11
1.43138e-11
5.29821e-10
9.34821e-11
2.02742e-11
1.4035e-11
1.29204e-11
1.27503e-11
1.27641e-11
1.27104e-11
1.27552e-11
1.27465e-11
3.56253e-10
7.82854e-11
1.80818e-11
1.26798e-11
1.16494e-11
1.14864e-11
1.14864e-11
1.14161e-11
1.14824e-11
1.14724e-11
2.31222e-10
6.55524e-11
1.62181e-11
1.15442e-11
1.05934e-11
1.04374e-11
1.0428e-11
1.03331e-11
1.04275e-11
1.04163e-11
1.50422e-10
5.4976e-11
1.46224e-11
1.05769e-11
9.70418e-12
9.55527e-12
9.54109e-12
9.52689e-12
9.54147e-12
9.52925e-12
1.00915e-10
4.62882e-11
1.32515e-11
9.74152e-12
8.94925e-12
8.80773e-12
8.79097e-12
8.7621e-12
8.79089e-12
8.77833e-12
7.1103e-11
3.83165e-11
1.20723e-11
9.0113e-12
8.30615e-12
8.17245e-12
8.15491e-12
8.10775e-12
8.15337e-12
8.14114e-12
5.29947e-11
3.14573e-11
1.10658e-11
8.45459e-12
7.75849e-12
7.63357e-12
7.61701e-12
7.61488e-12
7.61323e-12
7.60186e-12
4.16868e-11
2.66538e-11
1.02155e-11
7.98722e-12
7.34759e-12
7.23531e-12
7.21987e-12
7.20861e-12
7.21427e-12
7.20418e-12
3.43018e-11
2.28006e-11
9.50089e-12
7.59493e-12
7.00517e-12
6.88797e-12
6.87405e-12
6.88202e-12
6.86665e-12
6.85718e-12
2.92065e-11
1.97304e-11
8.97606e-12
7.253e-12
6.74311e-12
6.63839e-12
6.62573e-12
6.631e-12
6.61734e-12
6.6102e-12
2.54897e-11
1.73115e-11
8.53723e-12
7.02054e-12
6.55424e-12
6.4598e-12
6.4482e-12
6.45228e-12
6.43936e-12
6.43515e-12
)
;

boundaryField
{
    fuel
    {
        type            fixedValue;
        value           uniform 0;
    }
    wall
    {
        type            zeroGradient;
    }
    outlet
    {
        type            zeroGradient;
    }
    frontAndBack
    {
        type            empty;
    }
    procBoundary2to0
    {
        type            processor;
        value           nonuniform List<scalar> 
12
(
6.60423e-12
2.26715e-11
1.54457e-11
8.2201e-12
6.85992e-12
6.43606e-12
6.34981e-12
6.33904e-12
6.34332e-12
6.33022e-12
6.43042e-12
6.32943e-12
)
;
    }
    procBoundary2to3
    {
        type            processor;
        value           nonuniform List<scalar> 
25
(
4.0855e-09
1.84958e-09
8.63423e-10
4.27766e-10
2.2604e-10
1.31658e-10
8.47164e-11
5.78824e-11
4.28252e-11
3.33218e-11
3.33218e-11
2.68864e-11
2.21908e-11
1.87714e-11
1.62245e-11
1.42621e-11
1.27044e-11
1.14372e-11
1.03867e-11
9.50449e-12
8.75799e-12
8.1248e-12
7.58911e-12
7.19405e-12
6.84949e-12
)
;
    }
}


// ************************************************************************* //
