/*--------------------------------*- C++ -*----------------------------------*\
| =========                 |                                                 |
| \\      /  F ield         | OpenFOAM: The Open Source CFD Toolbox           |
|  \\    /   O peration     | Version:  dev                                   |
|   \\  /    A nd           | Web:      www.OpenFOAM.org                      |
|    \\/     M anipulation  |                                                 |
\*---------------------------------------------------------------------------*/
FoamFile
{
    version     2.0;
    format      ascii;
    class       volScalarField;
    location    "0.125";
    object      c-C6H7;
}
// * * * * * * * * * * * * * * * * * * * * * * * * * * * * * * * * * * * * * //

dimensions      [0 0 0 0 0 0 0];

internalField   nonuniform List<scalar> 
50
(
2.38538e-22
2.24782e-22
2.12251e-22
2.00799e-22
1.90338e-22
1.8093e-22
1.72206e-22
1.64154e-22
1.56787e-22
1.50099e-22
1.44167e-22
1.38804e-22
1.33922e-22
1.29642e-22
1.2585e-22
1.22501e-22
1.19558e-22
1.17034e-22
1.14902e-22
1.13133e-22
1.11751e-22
1.10733e-22
1.10079e-22
1.09774e-22
1.09825e-22
1.10223e-22
1.10961e-22
1.12034e-22
1.13437e-22
1.15164e-22
1.17208e-22
1.19557e-22
1.22198e-22
1.2512e-22
1.28307e-22
1.31746e-22
1.35424e-22
1.39332e-22
1.43502e-22
1.47784e-22
1.52255e-22
1.56912e-22
1.61682e-22
1.66529e-22
1.71379e-22
1.76325e-22
1.81362e-22
1.86582e-22
1.91889e-22
1.9729e-22
)
;

boundaryField
{
    wall
    {
        type            zeroGradient;
    }
    fuel
    {
        type            fixedValue;
        value           nonuniform 0();
    }
    outlet
    {
        type            inletOutlet;
        inletValue      nonuniform 0();
        value           nonuniform 0();
    }
    procBoundary2to1
    {
        type            processor;
        value           uniform 2.5404e-22;
    }
    procBoundary2to3
    {
        type            processor;
        value           uniform 2.02791e-22;
    }
}


// ************************************************************************* //
