/*--------------------------------*- C++ -*----------------------------------*\
| =========                 |                                                 |
| \\      /  F ield         | OpenFOAM: The Open Source CFD Toolbox           |
|  \\    /   O peration     | Version:  dev                                   |
|   \\  /    A nd           | Web:      www.OpenFOAM.org                      |
|    \\/     M anipulation  |                                                 |
\*---------------------------------------------------------------------------*/
FoamFile
{
    version     2.0;
    format      ascii;
    class       volScalarField;
    location    "0.125";
    object      C2H6;
}
// * * * * * * * * * * * * * * * * * * * * * * * * * * * * * * * * * * * * * //

dimensions      [0 0 0 0 0 0 0];

internalField   nonuniform List<scalar> 
50
(
5.35301e-20
5.18538e-20
5.04206e-20
4.92004e-20
4.81769e-20
4.73568e-20
4.66969e-20
4.6197e-20
4.58627e-20
4.57003e-20
4.57206e-20
4.59154e-20
4.62869e-20
4.68411e-20
4.75845e-20
4.8524e-20
4.96727e-20
5.10409e-20
5.26492e-20
5.45267e-20
5.66806e-20
5.91521e-20
6.1967e-20
6.5183e-20
6.88137e-20
7.29273e-20
7.75898e-20
8.28788e-20
8.88865e-20
9.57224e-20
1.03514e-19
1.12387e-19
1.22511e-19
1.34091e-19
1.47374e-19
1.62662e-19
1.80338e-19
2.00913e-19
2.2529e-19
2.53201e-19
2.86187e-19
3.25481e-19
3.71691e-19
4.2582e-19
4.8849e-19
5.63158e-19
6.52566e-19
7.62564e-19
8.94563e-19
1.05413e-18
)
;

boundaryField
{
    wall
    {
        type            zeroGradient;
    }
    fuel
    {
        type            fixedValue;
        value           nonuniform 0();
    }
    outlet
    {
        type            inletOutlet;
        inletValue      nonuniform 0();
        value           nonuniform 0();
    }
    procBoundary2to1
    {
        type            processor;
        value           uniform 5.55395e-20;
    }
    procBoundary2to3
    {
        type            processor;
        value           uniform 1.24403e-18;
    }
}


// ************************************************************************* //
