/*--------------------------------*- C++ -*----------------------------------*\
| =========                 |                                                 |
| \\      /  F ield         | OpenFOAM: The Open Source CFD Toolbox           |
|  \\    /   O peration     | Version:  dev                                   |
|   \\  /    A nd           | Web:      www.OpenFOAM.org                      |
|    \\/     M anipulation  |                                                 |
\*---------------------------------------------------------------------------*/
FoamFile
{
    version     2.0;
    format      ascii;
    class       volScalarField;
    location    "0.125";
    object      C5H4O;
}
// * * * * * * * * * * * * * * * * * * * * * * * * * * * * * * * * * * * * * //

dimensions      [0 0 0 0 0 0 0];

internalField   nonuniform List<scalar> 
50
(
2.05998e-21
1.96457e-21
1.87821e-21
1.79983e-21
1.72881e-21
1.66568e-21
1.60781e-21
1.55513e-21
1.50785e-21
1.46606e-21
1.43044e-21
1.39973e-21
1.37336e-21
1.3523e-21
1.33585e-21
1.32377e-21
1.31592e-21
1.31248e-21
1.31344e-21
1.31876e-21
1.32868e-21
1.34329e-21
1.36272e-21
1.3872e-21
1.41682e-21
1.45188e-21
1.49262e-21
1.53936e-21
1.59245e-21
1.65229e-21
1.71929e-21
1.79384e-21
1.87644e-21
1.96764e-21
2.06811e-21
2.17865e-21
2.30021e-21
2.43401e-21
2.58305e-21
2.74414e-21
2.92205e-21
3.11913e-21
3.33493e-21
3.57044e-21
3.82389e-21
4.10238e-21
4.40825e-21
4.75058e-21
5.12487e-21
5.53477e-21
)
;

boundaryField
{
    wall
    {
        type            zeroGradient;
    }
    fuel
    {
        type            fixedValue;
        value           nonuniform 0();
    }
    outlet
    {
        type            inletOutlet;
        inletValue      nonuniform 0();
        value           nonuniform 0();
    }
    procBoundary2to1
    {
        type            processor;
        value           uniform 2.1682e-21;
    }
    procBoundary2to3
    {
        type            processor;
        value           uniform 5.9818e-21;
    }
}


// ************************************************************************* //
