/*--------------------------------*- C++ -*----------------------------------*\
| =========                 |                                                 |
| \\      /  F ield         | OpenFOAM: The Open Source CFD Toolbox           |
|  \\    /   O peration     | Version:  dev                                   |
|   \\  /    A nd           | Web:      www.OpenFOAM.org                      |
|    \\/     M anipulation  |                                                 |
\*---------------------------------------------------------------------------*/
FoamFile
{
    version     2.0;
    format      ascii;
    class       volScalarField;
    location    "0.125";
    object      H;
}
// * * * * * * * * * * * * * * * * * * * * * * * * * * * * * * * * * * * * * //

dimensions      [0 0 0 0 0 0 0];

internalField   nonuniform List<scalar> 
250
(
6.26423e-08
0.000120102
0.000133934
0.000135647
0.000135833
0.000135841
0.000135857
0.000135844
0.000135848
6.80255e-08
0.000111934
0.000124819
0.000126661
0.000126875
0.000126889
0.000126906
0.000126896
0.0001269
4.46425e-08
8.04449e-05
9.17262e-05
9.36157e-05
9.38355e-05
9.38499e-05
9.38719e-05
9.38583e-05
9.3866e-05
2.91761e-08
5.57769e-05
6.51649e-05
6.70388e-05
6.72631e-05
6.72811e-05
6.73048e-05
6.72758e-05
6.72974e-05
2.20936e-08
4.01552e-05
4.838e-05
5.03302e-05
5.05994e-05
5.06278e-05
5.06518e-05
5.05288e-05
5.06407e-05
2.01085e-08
3.05364e-05
3.83746e-05
4.01097e-05
4.02573e-05
4.02764e-05
4.02925e-05
4.03573e-05
4.02671e-05
2.23248e-08
2.44596e-05
3.24749e-05
3.43597e-05
3.45579e-05
3.46138e-05
3.46299e-05
3.45669e-05
3.45621e-05
3.37451e-08
2.04687e-05
2.88296e-05
3.102e-05
3.11849e-05
3.11738e-05
3.11822e-05
3.12162e-05
3.12357e-05
8.27855e-08
1.77588e-05
2.67049e-05
2.89642e-05
2.92561e-05
2.92741e-05
2.92813e-05
2.9252e-05
2.92988e-05
2.47966e-07
1.58792e-05
2.52851e-05
2.76618e-05
2.79851e-05
2.80157e-05
2.80206e-05
2.80817e-05
2.80357e-05
6.33888e-07
1.45712e-05
2.43369e-05
2.69475e-05
2.72975e-05
2.73349e-05
2.73377e-05
2.73705e-05
2.73322e-05
2.73742e-05
1.23212e-06
1.36799e-05
2.37739e-05
2.64601e-05
2.6813e-05
2.68527e-05
2.68667e-05
2.68704e-05
2.68796e-05
2.68753e-05
1.85698e-06
1.31055e-05
2.33642e-05
2.60957e-05
2.64656e-05
2.6509e-05
2.65231e-05
2.65131e-05
2.65248e-05
2.65201e-05
2.4281e-06
1.27786e-05
2.30817e-05
2.58106e-05
2.61888e-05
2.62343e-05
2.62468e-05
2.6228e-05
2.62437e-05
2.62379e-05
2.99495e-06
1.26343e-05
2.28456e-05
2.55598e-05
2.59378e-05
2.59842e-05
2.59948e-05
2.59681e-05
2.59894e-05
2.59818e-05
3.57139e-06
1.26674e-05
2.26497e-05
2.53154e-05
2.56851e-05
2.57313e-05
2.574e-05
2.57044e-05
2.57332e-05
2.57234e-05
4.12884e-06
1.28259e-05
2.24749e-05
2.50588e-05
2.54125e-05
2.54573e-05
2.54642e-05
2.54168e-05
2.54562e-05
2.54436e-05
4.64833e-06
1.30804e-05
2.23024e-05
2.47753e-05
2.51062e-05
2.51485e-05
2.51539e-05
2.50892e-05
2.51444e-05
2.51282e-05
5.13977e-06
1.34022e-05
2.21156e-05
2.4452e-05
2.47546e-05
2.47931e-05
2.47974e-05
2.47554e-05
2.47859e-05
2.47653e-05
5.63277e-06
1.37627e-05
2.18989e-05
2.40749e-05
2.43462e-05
2.438e-05
2.43832e-05
2.43224e-05
2.43693e-05
2.43434e-05
6.15947e-06
1.41831e-05
2.16371e-05
2.36283e-05
2.38691e-05
2.38973e-05
2.38997e-05
2.38134e-05
2.38828e-05
2.38506e-05
6.74011e-06
1.46123e-05
2.13151e-05
2.31653e-05
2.33082e-05
2.33315e-05
2.33337e-05
2.32834e-05
2.3313e-05
2.32735e-05
7.3754e-06
1.49405e-05
2.09154e-05
2.26335e-05
2.272e-05
2.27466e-05
2.27485e-05
2.26748e-05
2.27242e-05
2.26771e-05
8.04826e-06
1.51981e-05
2.04187e-05
2.20115e-05
2.20295e-05
2.20214e-05
2.20233e-05
2.19799e-05
2.19945e-05
2.19356e-05
8.72528e-06
1.53614e-05
1.98764e-05
2.12334e-05
2.12581e-05
2.12513e-05
2.12528e-05
2.11925e-05
2.12203e-05
2.11521e-05
9.36189e-06
1.54072e-05
1.91962e-05
2.04312e-05
2.03933e-05
2.03822e-05
2.0383e-05
2.03069e-05
2.03472e-05
2.02692e-05
)
;

boundaryField
{
    fuel
    {
        type            fixedValue;
        value           uniform 0;
    }
    wall
    {
        type            zeroGradient;
    }
    outlet
    {
        type            zeroGradient;
    }
    frontAndBack
    {
        type            empty;
    }
    procBoundary2to0
    {
        type            processor;
        value           nonuniform List<scalar> 
12
(
2.1162e-05
9.90828e-06
1.53155e-05
1.84344e-05
1.95259e-05
1.94269e-05
1.94099e-05
1.941e-05
1.93192e-05
1.93713e-05
2.02817e-05
1.92833e-05
)
;
    }
    procBoundary2to3
    {
        type            processor;
        value           nonuniform List<scalar> 
25
(
0.000135847
0.0001269
9.38568e-05
6.72444e-05
5.04475e-05
4.05068e-05
3.47421e-05
3.1219e-05
2.9255e-05
2.80846e-05
2.80846e-05
2.73502e-05
2.68606e-05
2.65113e-05
2.62322e-05
2.59779e-05
2.57205e-05
2.54414e-05
2.51266e-05
2.47644e-05
2.43435e-05
2.38521e-05
2.32767e-05
2.26821e-05
2.19431e-05
)
;
    }
}


// ************************************************************************* //
