/*--------------------------------*- C++ -*----------------------------------*\
| =========                 |                                                 |
| \\      /  F ield         | OpenFOAM: The Open Source CFD Toolbox           |
|  \\    /   O peration     | Version:  dev                                   |
|   \\  /    A nd           | Web:      www.OpenFOAM.org                      |
|    \\/     M anipulation  |                                                 |
\*---------------------------------------------------------------------------*/
FoamFile
{
    version     2.0;
    format      ascii;
    class       volScalarField;
    location    "0.125";
    object      H2O2;
}
// * * * * * * * * * * * * * * * * * * * * * * * * * * * * * * * * * * * * * //

dimensions      [0 0 0 0 0 0 0];

internalField   nonuniform List<scalar> 
250
(
5.34265e-05
1.72093e-07
1.27874e-07
1.25497e-07
1.25136e-07
1.25084e-07
1.25104e-07
1.25102e-07
1.25072e-07
0.000129779
1.00231e-07
2.73663e-08
2.6799e-08
2.67411e-08
2.67253e-08
2.6723e-08
2.67253e-08
2.67235e-08
0.000185385
1.1656e-07
7.10175e-09
6.81658e-09
6.80897e-09
6.80152e-09
6.79983e-09
6.80053e-09
6.80022e-09
0.000243686
1.53016e-07
2.42132e-09
2.18595e-09
2.18612e-09
2.18151e-09
2.18101e-09
2.18099e-09
2.18085e-09
0.00031173
1.90296e-07
1.0881e-09
8.7853e-10
8.78309e-10
8.75293e-10
8.75181e-10
8.75046e-10
8.75032e-10
2.95593e-05
3.72734e-08
4.96632e-10
4.23478e-10
4.28851e-10
4.26926e-10
4.26799e-10
4.26793e-10
4.26834e-10
3.48243e-06
6.39977e-09
2.73849e-10
2.45117e-10
2.49068e-10
2.47842e-10
2.47389e-10
2.47756e-10
2.47817e-10
4.75446e-07
1.32003e-09
1.74058e-10
1.67226e-10
1.69514e-10
1.68686e-10
1.67294e-10
1.68622e-10
1.68685e-10
8.59187e-08
5.18485e-10
1.30794e-10
1.26207e-10
1.27566e-10
1.2728e-10
1.28485e-10
1.27242e-10
1.27311e-10
2.83639e-08
3.31494e-10
1.07935e-10
1.05191e-10
1.07974e-10
1.0789e-10
1.08413e-10
1.0786e-10
1.07926e-10
1.70091e-08
2.59233e-10
9.33951e-11
9.46836e-11
9.67024e-11
9.66315e-11
9.67671e-11
9.65936e-11
9.66652e-11
9.66852e-11
1.32962e-08
2.15186e-10
8.43053e-11
8.74876e-11
8.92646e-11
8.92997e-11
8.91313e-11
8.92598e-11
8.9337e-11
8.93252e-11
1.12986e-08
1.83427e-10
7.79759e-11
8.25251e-11
8.42318e-11
8.4314e-11
8.45151e-11
8.42595e-11
8.43479e-11
8.43211e-11
9.81444e-09
1.58577e-10
7.39281e-11
7.87249e-11
8.04233e-11
8.05191e-11
8.07542e-11
8.04412e-11
8.05491e-11
8.05149e-11
8.50254e-09
1.39387e-10
7.02952e-11
7.55278e-11
7.72393e-11
7.73341e-11
7.74831e-11
7.72233e-11
7.73595e-11
7.73221e-11
7.20331e-09
1.22395e-10
6.70264e-11
7.2641e-11
7.43655e-11
7.44538e-11
7.45611e-11
7.42971e-11
7.44732e-11
7.44349e-11
5.91672e-09
1.06578e-10
6.40935e-11
6.99015e-11
7.16292e-11
7.1708e-11
7.17927e-11
7.14863e-11
7.17203e-11
7.1682e-11
4.77442e-09
9.27548e-11
6.1485e-11
6.72087e-11
6.89274e-11
6.89946e-11
6.90659e-11
6.86771e-11
6.89994e-11
6.89607e-11
3.77199e-09
8.07436e-11
5.92877e-11
6.44881e-11
6.61919e-11
6.62454e-11
6.63109e-11
6.61733e-11
6.62435e-11
6.62026e-11
2.92238e-09
7.03433e-11
5.67964e-11
6.16725e-11
6.33705e-11
6.34085e-11
6.34692e-11
6.32655e-11
6.33986e-11
6.33553e-11
2.13983e-09
6.14295e-11
5.42891e-11
5.90695e-11
6.04179e-11
6.04373e-11
6.04947e-11
6.02006e-11
6.04187e-11
6.03725e-11
1.57824e-09
5.39742e-11
5.1758e-11
5.61244e-11
5.7284e-11
5.72843e-11
5.73408e-11
5.73365e-11
5.72566e-11
5.72064e-11
1.1448e-09
4.78067e-11
4.91496e-11
5.32634e-11
5.43734e-11
5.43236e-11
5.43824e-11
5.43401e-11
5.42888e-11
5.42338e-11
8.09045e-10
4.26045e-11
4.63957e-11
5.00853e-11
5.10639e-11
5.09438e-11
5.09999e-11
5.09201e-11
5.08947e-11
5.0831e-11
5.68696e-10
3.81908e-11
4.3419e-11
4.6895e-11
4.77926e-11
4.76151e-11
4.76696e-11
4.75633e-11
4.7557e-11
4.7489e-11
3.96463e-10
3.44055e-11
4.06612e-11
4.35382e-11
4.43391e-11
4.4113e-11
4.41651e-11
4.40368e-11
4.40466e-11
4.39746e-11
)
;

boundaryField
{
    fuel
    {
        type            fixedValue;
        value           uniform 0;
    }
    wall
    {
        type            zeroGradient;
    }
    outlet
    {
        type            zeroGradient;
    }
    frontAndBack
    {
        type            empty;
    }
    procBoundary2to0
    {
        type            processor;
        value           nonuniform List<scalar> 
12
(
4.74239e-11
2.77972e-10
3.10762e-11
3.77319e-11
4.00186e-11
4.07153e-11
4.04487e-11
4.04988e-11
4.0352e-11
4.03757e-11
4.38933e-11
4.03001e-11
)
;
    }
    procBoundary2to3
    {
        type            processor;
        value           nonuniform List<scalar> 
25
(
1.25108e-07
2.67243e-08
6.79966e-09
2.18053e-09
8.74803e-10
4.2665e-10
2.4767e-10
1.6857e-10
1.27242e-10
1.07913e-10
1.07913e-10
9.66526e-11
8.93249e-11
8.43342e-11
8.05321e-11
7.73378e-11
7.44452e-11
7.16842e-11
6.89527e-11
6.6182e-11
6.33184e-11
6.03134e-11
5.71216e-11
5.41416e-11
5.07621e-11
)
;
    }
}


// ************************************************************************* //
