/*--------------------------------*- C++ -*----------------------------------*\
| =========                 |                                                 |
| \\      /  F ield         | OpenFOAM: The Open Source CFD Toolbox           |
|  \\    /   O peration     | Version:  dev                                   |
|   \\  /    A nd           | Web:      www.OpenFOAM.org                      |
|    \\/     M anipulation  |                                                 |
\*---------------------------------------------------------------------------*/
FoamFile
{
    version     2.0;
    format      ascii;
    class       volScalarField;
    location    "0.125";
    object      HCO;
}
// * * * * * * * * * * * * * * * * * * * * * * * * * * * * * * * * * * * * * //

dimensions      [0 0 0 0 0 0 0];

internalField   nonuniform List<scalar> 
250
(
9.20395e-09
1.81892e-05
1.76187e-05
1.75504e-05
1.75405e-05
1.75381e-05
1.75386e-05
1.75387e-05
1.75382e-05
8.57368e-09
5.81539e-06
5.71214e-06
5.68733e-06
5.68743e-06
5.68613e-06
5.68505e-06
5.68561e-06
5.68586e-06
1.00069e-08
1.92415e-06
1.87127e-06
1.85711e-06
1.8598e-06
1.85865e-06
1.85803e-06
1.85824e-06
1.85826e-06
1.61304e-07
8.18842e-07
7.53248e-07
7.45692e-07
7.4799e-07
7.46993e-07
7.46742e-07
7.46777e-07
7.46794e-07
5.65916e-06
4.63216e-07
3.9156e-07
3.88558e-07
3.89783e-07
3.89044e-07
3.88901e-07
3.88922e-07
3.88966e-07
2.82149e-05
3.22026e-07
2.5268e-07
2.49998e-07
2.53001e-07
2.52495e-07
2.52316e-07
2.52414e-07
2.52472e-07
1.16062e-05
2.30559e-07
1.90237e-07
1.89356e-07
1.91728e-07
1.91376e-07
1.91024e-07
1.91315e-07
1.91378e-07
5.0143e-06
1.73626e-07
1.55215e-07
1.59106e-07
1.60808e-07
1.60543e-07
1.59757e-07
1.60492e-07
1.60557e-07
2.42709e-06
1.40657e-07
1.36909e-07
1.40316e-07
1.41667e-07
1.41614e-07
1.42132e-07
1.41575e-07
1.41647e-07
1.30343e-06
1.1858e-07
1.25413e-07
1.28813e-07
1.3114e-07
1.31175e-07
1.31386e-07
1.31141e-07
1.31214e-07
7.737e-07
1.03739e-07
1.16668e-07
1.2199e-07
1.23941e-07
1.23953e-07
1.23948e-07
1.23911e-07
1.23993e-07
1.23952e-07
5.02038e-07
9.25542e-08
1.10218e-07
1.16433e-07
1.18273e-07
1.18339e-07
1.18121e-07
1.1829e-07
1.18381e-07
1.18337e-07
3.49653e-07
8.39688e-08
1.05059e-07
1.11994e-07
1.13812e-07
1.139e-07
1.14052e-07
1.13832e-07
1.13938e-07
1.13893e-07
2.5687e-07
7.73497e-08
1.01418e-07
1.08206e-07
1.10031e-07
1.1012e-07
1.10338e-07
1.10024e-07
1.10153e-07
1.10107e-07
1.96484e-07
7.25664e-08
9.78925e-08
1.0479e-07
1.06627e-07
1.06709e-07
1.06854e-07
1.06575e-07
1.06736e-07
1.0669e-07
1.53492e-07
6.86933e-08
9.45557e-08
1.01582e-07
1.03424e-07
1.03496e-07
1.03605e-07
1.0331e-07
1.03515e-07
1.0347e-07
1.21707e-07
6.53758e-08
9.14699e-08
9.84788e-08
1.00314e-07
1.00374e-07
1.00462e-07
1.00115e-07
1.00384e-07
1.00341e-07
9.96661e-08
6.27039e-08
8.86737e-08
9.5408e-08
9.72251e-08
9.72713e-08
9.73466e-08
9.69071e-08
9.72732e-08
9.72297e-08
8.33559e-08
6.05213e-08
8.62881e-08
9.23078e-08
9.41024e-08
9.41341e-08
9.42039e-08
9.40482e-08
9.41283e-08
9.40828e-08
7.10352e-08
5.86895e-08
8.3562e-08
8.91144e-08
9.09002e-08
9.0916e-08
9.09809e-08
9.07534e-08
9.09016e-08
9.08538e-08
6.0441e-08
5.71172e-08
8.08011e-08
8.61743e-08
8.75743e-08
8.75719e-08
8.76332e-08
8.73079e-08
8.7548e-08
8.74973e-08
5.30218e-08
5.57184e-08
7.80017e-08
8.28725e-08
8.40716e-08
8.40511e-08
8.41113e-08
8.41054e-08
8.40176e-08
8.39627e-08
4.72318e-08
5.44187e-08
7.51079e-08
7.96782e-08
8.08323e-08
8.07597e-08
8.08227e-08
8.07752e-08
8.0719e-08
8.06589e-08
4.25768e-08
5.31154e-08
7.20458e-08
7.61466e-08
7.71701e-08
7.70246e-08
7.70846e-08
7.69964e-08
7.69686e-08
7.68991e-08
3.906e-08
5.17292e-08
6.87288e-08
7.26058e-08
7.3555e-08
7.335e-08
7.34085e-08
7.32912e-08
7.32846e-08
7.32103e-08
3.63712e-08
5.02101e-08
6.56404e-08
6.88781e-08
6.97374e-08
6.94818e-08
6.95381e-08
6.93962e-08
6.94076e-08
6.93285e-08
)
;

boundaryField
{
    fuel
    {
        type            fixedValue;
        value           uniform 0;
    }
    wall
    {
        type            zeroGradient;
    }
    outlet
    {
        type            zeroGradient;
    }
    frontAndBack
    {
        type            empty;
    }
    procBoundary2to0
    {
        type            processor;
        value           nonuniform List<scalar> 
12
(
7.31388e-08
3.43844e-08
4.85008e-08
6.23436e-08
6.49562e-08
6.57183e-08
6.54197e-08
6.54743e-08
6.53112e-08
6.53383e-08
6.92391e-08
6.52545e-08
)
;
    }
    procBoundary2to3
    {
        type            processor;
        value           nonuniform List<scalar> 
25
(
1.75387e-05
5.68521e-06
1.85796e-06
7.46615e-07
3.88828e-07
2.52356e-07
1.91279e-07
1.60472e-07
1.41579e-07
1.31167e-07
1.31167e-07
1.23981e-07
1.18369e-07
1.13923e-07
1.10134e-07
1.06711e-07
1.03483e-07
1.00343e-07
9.72203e-08
9.40591e-08
9.08119e-08
8.74314e-08
8.38693e-08
8.0558e-08
7.68234e-08
)
;
    }
}


// ************************************************************************* //
