/*--------------------------------*- C++ -*----------------------------------*\
| =========                 |                                                 |
| \\      /  F ield         | OpenFOAM: The Open Source CFD Toolbox           |
|  \\    /   O peration     | Version:  dev                                   |
|   \\  /    A nd           | Web:      www.OpenFOAM.org                      |
|    \\/     M anipulation  |                                                 |
\*---------------------------------------------------------------------------*/
FoamFile
{
    version     2.0;
    format      ascii;
    class       volScalarField;
    location    "0.125";
    object      i-A1C2H2;
}
// * * * * * * * * * * * * * * * * * * * * * * * * * * * * * * * * * * * * * //

dimensions      [0 0 0 0 0 0 0];

internalField   nonuniform List<scalar> 
250
(
8.75347e-10
5.73226e-09
4.20406e-09
4.03669e-09
4.01466e-09
4.01378e-09
4.01243e-09
4.01339e-09
4.01321e-09
2.10314e-09
3.65038e-09
2.40444e-09
2.2737e-09
2.25824e-09
2.25706e-09
2.25655e-09
2.25668e-09
2.25672e-09
2.87911e-09
2.27385e-09
1.27394e-09
1.17815e-09
1.16705e-09
1.16604e-09
1.16588e-09
1.16565e-09
1.16587e-09
3.16918e-09
1.50813e-09
6.91184e-10
6.21391e-10
6.13436e-10
6.12694e-10
6.12662e-10
6.12091e-10
6.12569e-10
3.10108e-09
1.08732e-09
4.02686e-10
3.50953e-10
3.45498e-10
3.45035e-10
3.45052e-10
3.43107e-10
3.44879e-10
2.99426e-09
8.42665e-10
2.5592e-10
2.1153e-10
2.05539e-10
2.05018e-10
2.04958e-10
2.05502e-10
2.04582e-10
3.30587e-09
6.87271e-10
1.76786e-10
1.40312e-10
1.35483e-10
1.35426e-10
1.35382e-10
1.34268e-10
1.34501e-10
4.58488e-09
5.79578e-10
1.29261e-10
1.00087e-10
9.507e-11
9.41878e-11
9.40578e-11
9.41617e-11
9.46643e-11
6.97583e-09
4.99115e-10
1.00975e-10
7.45132e-11
7.12163e-11
7.06627e-11
7.05226e-11
6.99316e-11
7.06831e-11
8.5378e-09
4.33452e-10
8.07962e-11
5.706e-11
5.41796e-11
5.37543e-11
5.35936e-11
5.44632e-11
5.37485e-11
7.91708e-09
3.75605e-10
6.60588e-11
4.67306e-11
4.41657e-11
4.38056e-11
4.36386e-11
4.42313e-11
4.35052e-11
4.42048e-11
5.98654e-09
3.23497e-10
5.65059e-11
3.91759e-11
3.65462e-11
3.61842e-11
3.62563e-11
3.64537e-11
3.64526e-11
3.64318e-11
3.87145e-09
2.76938e-10
4.88679e-11
3.3354e-11
3.09679e-11
3.06368e-11
3.07377e-11
3.07794e-11
3.07827e-11
3.07702e-11
2.30819e-09
2.35851e-10
4.31509e-11
2.9004e-11
2.68182e-11
2.65087e-11
2.65915e-11
2.65649e-11
2.6583e-11
2.6573e-11
1.36086e-09
1.94237e-10
3.80253e-11
2.56397e-11
2.36268e-11
2.33334e-11
2.33855e-11
2.33262e-11
2.33665e-11
2.33558e-11
8.20038e-10
1.63532e-10
3.37085e-11
2.29576e-11
2.10988e-11
2.08184e-11
2.08416e-11
2.07594e-11
2.08277e-11
2.0815e-11
5.10892e-10
1.37455e-10
3.00848e-11
2.07641e-11
1.90464e-11
1.87777e-11
1.87782e-11
1.86693e-11
1.87723e-11
1.87576e-11
3.3129e-10
1.15394e-10
2.70066e-11
1.89326e-11
1.7348e-11
1.70907e-11
1.70758e-11
1.69271e-11
1.70757e-11
1.70593e-11
2.24666e-10
9.68788e-11
2.43738e-11
1.73786e-11
1.59239e-11
1.56782e-11
1.56552e-11
1.56365e-11
1.56569e-11
1.56389e-11
1.59695e-10
8.15414e-11
2.21159e-11
1.60422e-11
1.47208e-11
1.44871e-11
1.44598e-11
1.44179e-11
1.44609e-11
1.44426e-11
1.18986e-10
6.74025e-11
2.01788e-11
1.48797e-11
1.37023e-11
1.34813e-11
1.34525e-11
1.33814e-11
1.34514e-11
1.34339e-11
9.26469e-11
5.52147e-11
1.85318e-11
1.40005e-11
1.28422e-11
1.26352e-11
1.2608e-11
1.26085e-11
1.26034e-11
1.25876e-11
7.49686e-11
4.66787e-11
1.71491e-11
1.32705e-11
1.22063e-11
1.20194e-11
1.19939e-11
1.19804e-11
1.19864e-11
1.19731e-11
6.25826e-11
3.98504e-11
1.5998e-11
1.2668e-11
1.1687e-11
1.14932e-11
1.14701e-11
1.14869e-11
1.14599e-11
1.14482e-11
5.35319e-11
3.44337e-11
1.51668e-11
1.21562e-11
1.13045e-11
1.11305e-11
1.11095e-11
1.11227e-11
1.10977e-11
1.10904e-11
4.66818e-11
3.0192e-11
1.44888e-11
1.18275e-11
1.10489e-11
1.08915e-11
1.08722e-11
1.08844e-11
1.08598e-11
1.0858e-11
)
;

boundaryField
{
    fuel
    {
        type            fixedValue;
        value           uniform 0;
    }
    wall
    {
        type            zeroGradient;
    }
    outlet
    {
        type            zeroGradient;
    }
    frontAndBack
    {
        type            empty;
    }
    procBoundary2to0
    {
        type            processor;
        value           nonuniform List<scalar> 
12
(
1.10797e-11
4.14071e-11
2.69551e-11
1.40227e-11
1.1626e-11
1.09188e-11
1.07746e-11
1.07565e-11
1.07702e-11
1.07444e-11
1.08492e-11
1.07491e-11
)
;
    }
    procBoundary2to3
    {
        type            processor;
        value           nonuniform List<scalar> 
25
(
4.01307e-09
2.25632e-09
1.16507e-09
6.11007e-10
3.4159e-10
2.0721e-10
1.36348e-10
9.41287e-11
6.98969e-11
5.44301e-11
5.44301e-11
4.39043e-11
3.62149e-11
3.06206e-11
2.64637e-11
2.3271e-11
2.07461e-11
1.87001e-11
1.70108e-11
1.55983e-11
1.44091e-11
1.34068e-11
1.25662e-11
1.19559e-11
1.14348e-11
)
;
    }
}


// ************************************************************************* //
