/*--------------------------------*- C++ -*----------------------------------*\
| =========                 |                                                 |
| \\      /  F ield         | OpenFOAM: The Open Source CFD Toolbox           |
|  \\    /   O peration     | Version:  dev                                   |
|   \\  /    A nd           | Web:      www.OpenFOAM.org                      |
|    \\/     M anipulation  |                                                 |
\*---------------------------------------------------------------------------*/
FoamFile
{
    version     2.0;
    format      ascii;
    class       volScalarField;
    location    "0.125";
    object      i-A1C2H2;
}
// * * * * * * * * * * * * * * * * * * * * * * * * * * * * * * * * * * * * * //

dimensions      [0 0 0 0 0 0 0];

internalField   nonuniform List<scalar> 
250
(
1.65695e-09
9.83842e-09
8.6432e-09
8.47464e-09
8.45024e-09
8.4439e-09
8.44423e-09
8.44381e-09
8.44467e-09
4.56963e-09
3.9422e-09
3.26798e-09
3.16357e-09
3.15015e-09
3.14629e-09
3.14588e-09
3.14593e-09
3.14625e-09
7.00113e-09
1.79519e-09
1.3484e-09
1.2786e-09
1.27097e-09
1.26822e-09
1.26783e-09
1.26788e-09
1.26789e-09
1.0822e-08
1.00701e-09
6.60399e-10
6.09988e-10
6.04552e-10
6.02354e-10
6.02059e-10
6.02097e-10
6.02067e-10
1.93367e-08
6.62843e-10
3.74795e-10
3.36591e-10
3.31878e-10
3.30083e-10
3.29793e-10
3.2988e-10
3.29878e-10
6.20101e-09
4.68598e-10
2.3805e-10
2.04824e-10
2.03298e-10
2.01827e-10
2.01441e-10
2.01663e-10
2.01685e-10
4.49672e-09
3.58168e-10
1.6539e-10
1.37169e-10
1.35628e-10
1.3438e-10
1.33733e-10
1.34244e-10
1.34279e-10
3.93182e-09
2.86142e-10
1.19016e-10
9.90778e-11
9.71055e-11
9.60004e-11
9.47681e-11
9.5885e-11
9.59227e-11
3.45529e-09
2.41195e-10
9.26896e-11
7.30517e-11
7.08856e-11
7.01207e-11
7.0796e-11
7.00342e-11
7.00756e-11
3.03767e-09
2.0848e-10
7.53173e-11
5.62378e-11
5.56979e-11
5.5099e-11
5.53867e-11
5.50302e-11
5.50652e-11
2.6781e-09
1.8447e-10
6.18587e-11
4.62256e-11
4.51838e-11
4.45857e-11
4.45842e-11
4.45185e-11
4.45549e-11
4.45041e-11
2.36702e-09
1.64396e-10
5.21543e-11
3.84061e-11
3.72009e-11
3.6713e-11
3.64264e-11
3.66549e-11
3.669e-11
3.66482e-11
2.09232e-09
1.47092e-10
4.48191e-11
3.26979e-11
3.14466e-11
3.10192e-11
3.12008e-11
3.09587e-11
3.09959e-11
3.09598e-11
1.8451e-09
1.32038e-10
4.00334e-11
2.8407e-11
2.71595e-11
2.67638e-11
2.69954e-11
2.66951e-11
2.67398e-11
2.67074e-11
1.61962e-09
1.19797e-10
3.58042e-11
2.50744e-11
2.38587e-11
2.34841e-11
2.36168e-11
2.34026e-11
2.34594e-11
2.34306e-11
1.40279e-09
1.0858e-10
3.21699e-11
2.24107e-11
2.12408e-11
2.08859e-11
2.0966e-11
2.07854e-11
2.08598e-11
2.08353e-11
1.19483e-09
9.76658e-11
2.91193e-11
2.02306e-11
1.91137e-11
1.87792e-11
1.88284e-11
1.86511e-11
1.87516e-11
1.87318e-11
1.01216e-09
8.77308e-11
2.66256e-11
1.8413e-11
1.7354e-11
1.70409e-11
1.70705e-11
1.68716e-11
1.70122e-11
1.6997e-11
8.49019e-10
7.86463e-11
2.47143e-11
1.68751e-11
1.5881e-11
1.55902e-11
1.56082e-11
1.55614e-11
1.55617e-11
1.55503e-11
7.05387e-10
7.03153e-11
2.27604e-11
1.55574e-11
1.46405e-11
1.43729e-11
1.43827e-11
1.43248e-11
1.43448e-11
1.43371e-11
5.65174e-10
6.27539e-11
2.10207e-11
1.45616e-11
1.35951e-11
1.33513e-11
1.33558e-11
1.32791e-11
1.33242e-11
1.33199e-11
4.56951e-10
5.59693e-11
1.9506e-11
1.36563e-11
1.2717e-11
1.24984e-11
1.24999e-11
1.25094e-11
1.24727e-11
1.24713e-11
3.66735e-10
4.99826e-11
1.81938e-11
1.29669e-11
1.20889e-11
1.18856e-11
1.18861e-11
1.18924e-11
1.18617e-11
1.18625e-11
2.90766e-10
4.46478e-11
1.7062e-11
1.2386e-11
1.15587e-11
1.13694e-11
1.13682e-11
1.13722e-11
1.13465e-11
1.1349e-11
2.31472e-10
3.99138e-11
1.60905e-11
1.19679e-11
1.1195e-11
1.10201e-11
1.10176e-11
1.10215e-11
1.09988e-11
1.10033e-11
1.84932e-10
3.57974e-11
1.54035e-11
1.16805e-11
1.09574e-11
1.07982e-11
1.07942e-11
1.07993e-11
1.07785e-11
1.07851e-11
)
;

boundaryField
{
    fuel
    {
        type            fixedValue;
        value           uniform 0;
    }
    wall
    {
        type            zeroGradient;
    }
    outlet
    {
        type            zeroGradient;
    }
    frontAndBack
    {
        type            empty;
    }
    procBoundary2to0
    {
        type            processor;
        value           nonuniform List<scalar> 
12
(
1.10025e-11
1.49609e-10
3.22739e-11
1.48701e-11
1.1521e-11
1.08438e-11
1.07015e-11
1.06958e-11
1.07033e-11
1.06834e-11
1.07843e-11
1.06919e-11
)
;
    }
    procBoundary2to3
    {
        type            processor;
        value           nonuniform List<scalar> 
25
(
8.44439e-09
3.14597e-09
1.26778e-09
6.01978e-10
3.29778e-10
2.01581e-10
1.34179e-10
9.58318e-11
7.00027e-11
5.50109e-11
5.50109e-11
4.4554e-11
3.66899e-11
3.0996e-11
2.67395e-11
2.34587e-11
2.08585e-11
1.87496e-11
1.70096e-11
1.55577e-11
1.43398e-11
1.33177e-11
1.24643e-11
1.18543e-11
1.13458e-11
)
;
    }
}


// ************************************************************************* //
