/*--------------------------------*- C++ -*----------------------------------*\
| =========                 |                                                 |
| \\      /  F ield         | OpenFOAM: The Open Source CFD Toolbox           |
|  \\    /   O peration     | Version:  dev                                   |
|   \\  /    A nd           | Web:      www.OpenFOAM.org                      |
|    \\/     M anipulation  |                                                 |
\*---------------------------------------------------------------------------*/
FoamFile
{
    version     2.0;
    format      ascii;
    class       volScalarField;
    location    "0.125";
    object      p;
}
// * * * * * * * * * * * * * * * * * * * * * * * * * * * * * * * * * * * * * //

dimensions      [1 -1 -2 0 0 0 0];

internalField   nonuniform List<scalar> 
50
(
99844.4
99845.3
99846.3
99847.2
99848.2
99849.2
99850.2
99851.2
99852.2
99853.2
99854.2
99855.2
99856.3
99857.3
99858.4
99859.4
99860.5
99861.6
99862.6
99863.7
99864.8
99865.9
99867
99868.2
99869.3
99870.4
99871.6
99872.7
99873.9
99875
99876.2
99877.4
99878.6
99879.8
99881
99882.2
99883.4
99884.7
99885.9
99887.2
99888.4
99889.7
99891
99892.3
99893.6
99894.9
99896.2
99897.5
99898.8
99900.2
)
;

boundaryField
{
    wall
    {
        type            zeroGradient;
    }
    fuel
    {
        type            zeroGradient;
    }
    outlet
    {
        type            totalPressure;
        rho             none;
        psi             none;
        gamma           1;
        p0              nonuniform 0();
        value           nonuniform 0();
    }
    procBoundary2to1
    {
        type            processor;
        value           uniform 99843.4;
    }
    procBoundary2to3
    {
        type            processor;
        value           uniform 99901.5;
    }
}


// ************************************************************************* //
