/*--------------------------------*- C++ -*----------------------------------*\
| =========                 |                                                 |
| \\      /  F ield         | OpenFOAM: The Open Source CFD Toolbox           |
|  \\    /   O peration     | Version:  dev                                   |
|   \\  /    A nd           | Web:      www.OpenFOAM.org                      |
|    \\/     M anipulation  |                                                 |
\*---------------------------------------------------------------------------*/
FoamFile
{
    version     2.0;
    format      ascii;
    class       volScalarField;
    location    "0.125";
    object      P2-;
}
// * * * * * * * * * * * * * * * * * * * * * * * * * * * * * * * * * * * * * //

dimensions      [0 0 0 0 0 0 0];

internalField   nonuniform List<scalar> 
250
(
1.19623e-10
4.00831e-09
3.72163e-09
3.65399e-09
3.64516e-09
3.64207e-09
3.64164e-09
3.64138e-09
3.64233e-09
2.01822e-10
5.64637e-09
4.60971e-09
4.42144e-09
4.3974e-09
4.39076e-09
4.38993e-09
4.38976e-09
4.38974e-09
1.30223e-10
4.08847e-09
3.0138e-09
2.81599e-09
2.79346e-09
2.78589e-09
2.78474e-09
2.7848e-09
2.78458e-09
5.32966e-11
2.49864e-09
1.64574e-09
1.48967e-09
1.47252e-09
1.46585e-09
1.46484e-09
1.46496e-09
1.46481e-09
7.60779e-11
1.51476e-09
8.71962e-10
7.61193e-10
7.47772e-10
7.42631e-10
7.41769e-10
7.41993e-10
7.41969e-10
2.39374e-10
9.67614e-10
4.78505e-10
3.93382e-10
3.90408e-10
3.86697e-10
3.85769e-10
3.86263e-10
3.8631e-10
8.92314e-10
6.6411e-10
2.80714e-10
2.18023e-10
2.15758e-10
2.13072e-10
2.11749e-10
2.12778e-10
2.12849e-10
1.93244e-09
4.77961e-10
1.68032e-10
1.31068e-10
1.28273e-10
1.26242e-10
1.23917e-10
1.26036e-10
1.26103e-10
2.62518e-09
3.69473e-10
1.11849e-10
8.02981e-11
7.7458e-11
7.62941e-11
7.75341e-11
7.61677e-11
7.62313e-11
2.7484e-09
2.95209e-10
7.93555e-11
5.24095e-11
5.22413e-11
5.14662e-11
5.19884e-11
5.13804e-11
5.14267e-11
2.48889e-09
2.43595e-10
5.73907e-11
3.80225e-11
3.71719e-11
3.64902e-11
3.65727e-11
3.64155e-11
3.64576e-11
3.63919e-11
2.08695e-09
2.02928e-10
4.34434e-11
2.82196e-11
2.72248e-11
2.6744e-11
2.64773e-11
2.66877e-11
2.67231e-11
2.6676e-11
1.69052e-09
1.7014e-10
3.40437e-11
2.18734e-11
2.08829e-11
2.05095e-11
2.07222e-11
2.04566e-11
2.04903e-11
2.04543e-11
1.3585e-09
1.43583e-10
2.84312e-11
1.75713e-11
1.66329e-11
1.63173e-11
1.6552e-11
1.62617e-11
1.62991e-11
1.62696e-11
1.09935e-09
1.23422e-10
2.38817e-11
1.45112e-11
1.36426e-11
1.33642e-11
1.34924e-11
1.33018e-11
1.33468e-11
1.3322e-11
8.93548e-10
1.06217e-10
2.02633e-11
1.22403e-11
1.14441e-11
1.11953e-11
1.12696e-11
1.11218e-11
1.11777e-11
1.11574e-11
7.29576e-10
9.06221e-11
1.74179e-11
1.04934e-11
9.76668e-12
9.54377e-12
9.58826e-12
9.45377e-12
9.52566e-12
9.50961e-12
6.07281e-10
7.73041e-11
1.52042e-11
9.10917e-12
8.44831e-12
8.24872e-12
8.27531e-12
8.13327e-12
8.23034e-12
8.21804e-12
5.09573e-10
6.58243e-11
1.35722e-11
7.98429e-12
7.38814e-12
7.20993e-12
7.22625e-12
7.19195e-12
7.19203e-12
7.18254e-12
4.28836e-10
5.5847e-11
1.19717e-11
7.0489e-12
6.52099e-12
6.3626e-12
6.37212e-12
6.33192e-12
6.34527e-12
6.33829e-12
3.51757e-10
4.72242e-11
1.05875e-11
6.34798e-12
5.80302e-12
5.66302e-12
5.6682e-12
5.61765e-12
5.64642e-12
5.64154e-12
2.91548e-10
3.98204e-11
9.40529e-12
5.71474e-12
5.20224e-12
5.07995e-12
5.08273e-12
5.08667e-12
5.06431e-12
5.06106e-12
2.39626e-10
3.35487e-11
8.38968e-12
5.22016e-12
4.75822e-12
4.64634e-12
4.64822e-12
4.64907e-12
4.63179e-12
4.62959e-12
1.93352e-10
2.81661e-11
7.51006e-12
4.78596e-12
4.36579e-12
4.26297e-12
4.26369e-12
4.26222e-12
4.24887e-12
4.2473e-12
1.55127e-10
2.3557e-11
6.74007e-12
4.4405e-12
4.0625e-12
3.96841e-12
3.96834e-12
3.96588e-12
3.95513e-12
3.95438e-12
1.23277e-10
1.96708e-11
6.15592e-12
4.15541e-12
3.81532e-12
3.73004e-12
3.72922e-12
3.72639e-12
3.71752e-12
3.71745e-12
)
;

boundaryField
{
    fuel
    {
        type            fixedValue;
        value           uniform 0;
    }
    wall
    {
        type            zeroGradient;
    }
    outlet
    {
        type            zeroGradient;
    }
    frontAndBack
    {
        type            empty;
    }
    procBoundary2to0
    {
        type            processor;
        value           nonuniform List<scalar> 
12
(
3.95192e-12
9.78763e-11
1.64322e-11
5.65329e-12
3.922e-12
3.61643e-12
3.53985e-12
3.53836e-12
3.53555e-12
3.52804e-12
3.71438e-12
3.52851e-12
)
;
    }
    procBoundary2to3
    {
        type            processor;
        value           nonuniform List<scalar> 
25
(
3.64155e-09
4.38976e-09
2.78447e-09
1.46455e-09
7.41659e-10
3.86027e-10
2.12618e-10
1.25923e-10
7.61079e-11
5.13454e-11
5.13454e-11
3.64545e-11
2.67214e-11
2.04891e-11
1.62978e-11
1.3345e-11
1.11753e-11
9.52264e-12
8.22654e-12
7.18697e-12
6.33904e-12
5.63883e-12
5.05535e-12
4.62338e-12
4.24379e-12
)
;
    }
}


// ************************************************************************* //
