/*--------------------------------*- C++ -*----------------------------------*\
| =========                 |                                                 |
| \\      /  F ield         | OpenFOAM: The Open Source CFD Toolbox           |
|  \\    /   O peration     | Version:  dev                                   |
|   \\  /    A nd           | Web:      www.OpenFOAM.org                      |
|    \\/     M anipulation  |                                                 |
\*---------------------------------------------------------------------------*/
FoamFile
{
    version     2.0;
    format      ascii;
    class       volScalarField;
    location    "0.085";
    object      A1;
}
// * * * * * * * * * * * * * * * * * * * * * * * * * * * * * * * * * * * * * //

dimensions      [0 0 0 0 0 0 0];

internalField   nonuniform List<scalar> 
25
(
4.84379e-06
1.85565e-06
5.98305e-07
1.80717e-07
5.1877e-08
1.48453e-08
4.15321e-09
1.15641e-09
3.2815e-10
9.24023e-11
2.66846e-11
7.68253e-12
2.24064e-12
6.6386e-13
2.01119e-13
6.3332e-14
2.15293e-14
8.46326e-15
4.13924e-15
2.53664e-15
1.81762e-15
1.41131e-15
1.13525e-15
9.27455e-16
7.637e-16
)
;

boundaryField
{
    wall
    {
        type            zeroGradient;
    }
    fuel
    {
        type            fixedValue;
        value           uniform 0;
    }
    outlet
    {
        type            inletOutlet;
        inletValue      nonuniform 0();
        value           nonuniform 0();
    }
    procBoundary0to1
    {
        type            processor;
        value           uniform 6.34505e-16;
    }
}


// ************************************************************************* //
