/*--------------------------------*- C++ -*----------------------------------*\
| =========                 |                                                 |
| \\      /  F ield         | OpenFOAM: The Open Source CFD Toolbox           |
|  \\    /   O peration     | Version:  dev                                   |
|   \\  /    A nd           | Web:      www.OpenFOAM.org                      |
|    \\/     M anipulation  |                                                 |
\*---------------------------------------------------------------------------*/
FoamFile
{
    version     2.0;
    format      ascii;
    class       volScalarField;
    location    "0.085";
    object      i-C6H7;
}
// * * * * * * * * * * * * * * * * * * * * * * * * * * * * * * * * * * * * * //

dimensions      [0 0 0 0 0 0 0];

internalField   nonuniform List<scalar> 
25
(
7.76524e-13
2.5948e-13
7.76721e-14
2.23211e-14
6.17225e-15
1.70398e-15
4.63736e-16
1.25662e-16
3.46443e-17
9.44804e-18
2.6335e-18
7.28829e-19
2.03529e-19
5.74916e-20
1.6512e-20
4.88274e-21
1.53177e-21
5.41453e-22
2.33807e-22
1.27911e-22
8.41626e-23
6.12999e-23
4.67189e-23
3.6285e-23
2.84174e-23
)
;

boundaryField
{
    wall
    {
        type            zeroGradient;
    }
    fuel
    {
        type            fixedValue;
        value           uniform 0;
    }
    outlet
    {
        type            inletOutlet;
        inletValue      nonuniform 0();
        value           nonuniform 0();
    }
    procBoundary0to1
    {
        type            processor;
        value           uniform 2.24308e-23;
    }
}


// ************************************************************************* //
