/*--------------------------------*- C++ -*----------------------------------*\
| =========                 |                                                 |
| \\      /  F ield         | OpenFOAM: The Open Source CFD Toolbox           |
|  \\    /   O peration     | Version:  dev                                   |
|   \\  /    A nd           | Web:      www.OpenFOAM.org                      |
|    \\/     M anipulation  |                                                 |
\*---------------------------------------------------------------------------*/
FoamFile
{
    version     2.0;
    format      ascii;
    class       volScalarField;
    location    "0.085";
    object      P2;
}
// * * * * * * * * * * * * * * * * * * * * * * * * * * * * * * * * * * * * * //

dimensions      [0 0 0 0 0 0 0];

internalField   nonuniform List<scalar> 
25
(
1.03258e-10
2.59472e-11
6.56172e-12
1.68045e-12
4.25156e-13
1.09133e-13
2.75758e-14
6.92749e-15
1.76768e-15
4.53109e-16
1.24913e-16
3.90554e-17
1.58432e-17
8.75028e-18
6.03142e-18
4.63661e-18
3.72579e-18
3.04205e-18
2.49365e-18
2.04115e-18
1.66405e-18
1.34969e-18
1.08903e-18
8.74714e-19
7.00182e-19
)
;

boundaryField
{
    wall
    {
        type            zeroGradient;
    }
    fuel
    {
        type            fixedValue;
        value           uniform 0;
    }
    outlet
    {
        type            inletOutlet;
        inletValue      nonuniform 0();
        value           nonuniform 0();
    }
    procBoundary0to1
    {
        type            processor;
        value           uniform 5.61993e-19;
    }
}


// ************************************************************************* //
