/*--------------------------------*- C++ -*----------------------------------*\
| =========                 |                                                 |
| \\      /  F ield         | OpenFOAM: The Open Source CFD Toolbox           |
|  \\    /   O peration     | Version:  dev                                   |
|   \\  /    A nd           | Web:      www.OpenFOAM.org                      |
|    \\/     M anipulation  |                                                 |
\*---------------------------------------------------------------------------*/
FoamFile
{
    version     2.0;
    format      ascii;
    class       volScalarField;
    location    "0.075";
    object      A2C2HA*;
}
// * * * * * * * * * * * * * * * * * * * * * * * * * * * * * * * * * * * * * //

dimensions      [0 0 0 0 0 0 0];

internalField   nonuniform List<scalar> 
25
(
4.95115e-12
1.31515e-12
3.55285e-13
9.92294e-14
2.86253e-14
9.11181e-15
3.29899e-15
1.44348e-15
7.73137e-16
4.77201e-16
3.27926e-16
2.38894e-16
1.81182e-16
1.40635e-16
1.10382e-16
8.68897e-17
6.82462e-17
5.33312e-17
4.14101e-17
3.19405e-17
2.44849e-17
1.86729e-17
1.41869e-17
1.07534e-17
8.13685e-18
)
;

boundaryField
{
    wall
    {
        type            zeroGradient;
    }
    fuel
    {
        type            fixedValue;
        value           uniform 0;
    }
    outlet
    {
        type            inletOutlet;
        inletValue      nonuniform 0();
        value           nonuniform 0();
    }
    procBoundary0to1
    {
        type            processor;
        value           uniform 6.18079e-18;
    }
}


// ************************************************************************* //
