/*--------------------------------*- C++ -*----------------------------------*\
| =========                 |                                                 |
| \\      /  F ield         | OpenFOAM: The Open Source CFD Toolbox           |
|  \\    /   O peration     | Version:  dev                                   |
|   \\  /    A nd           | Web:      www.OpenFOAM.org                      |
|    \\/     M anipulation  |                                                 |
\*---------------------------------------------------------------------------*/
FoamFile
{
    version     2.0;
    format      ascii;
    class       volScalarField;
    location    "0.075";
    object      i-C4H5;
}
// * * * * * * * * * * * * * * * * * * * * * * * * * * * * * * * * * * * * * //

dimensions      [0 0 0 0 0 0 0];

internalField   nonuniform List<scalar> 
25
(
7.8533e-09
2.99042e-09
1.01887e-09
3.35727e-10
1.08026e-10
3.31831e-11
1.10507e-11
3.89009e-12
1.4706e-12
5.81069e-13
2.44412e-13
1.0549e-13
4.67622e-14
2.11382e-14
9.7149e-15
4.54177e-15
2.1661e-15
1.05806e-15
5.31333e-16
2.75013e-16
1.46821e-16
8.07654e-17
4.56919e-17
2.65608e-17
1.59198e-17
)
;

boundaryField
{
    wall
    {
        type            zeroGradient;
    }
    fuel
    {
        type            fixedValue;
        value           uniform 0;
    }
    outlet
    {
        type            inletOutlet;
        inletValue      nonuniform 0();
        value           nonuniform 0();
    }
    procBoundary0to1
    {
        type            processor;
        value           uniform 9.73177e-18;
    }
}


// ************************************************************************* //
