/*--------------------------------*- C++ -*----------------------------------*\
| =========                 |                                                 |
| \\      /  F ield         | OpenFOAM: The Open Source CFD Toolbox           |
|  \\    /   O peration     | Version:  dev                                   |
|   \\  /    A nd           | Web:      www.OpenFOAM.org                      |
|    \\/     M anipulation  |                                                 |
\*---------------------------------------------------------------------------*/
FoamFile
{
    version     2.0;
    format      ascii;
    class       volScalarField;
    location    "0.075";
    object      PC3H4;
}
// * * * * * * * * * * * * * * * * * * * * * * * * * * * * * * * * * * * * * //

dimensions      [0 0 0 0 0 0 0];

internalField   nonuniform List<scalar> 
25
(
2.67275e-09
7.0805e-09
8.84079e-09
8.85691e-09
8.01725e-09
6.84335e-09
5.62489e-09
4.52645e-09
3.61041e-09
2.88506e-09
2.32972e-09
1.9108e-09
1.59685e-09
1.36441e-09
1.192e-09
1.06378e-09
9.677e-10
8.94728e-10
8.38151e-10
7.93072e-10
7.55957e-10
7.24322e-10
6.96471e-10
6.71261e-10
6.47948e-10
)
;

boundaryField
{
    wall
    {
        type            zeroGradient;
    }
    fuel
    {
        type            fixedValue;
        value           uniform 0;
    }
    outlet
    {
        type            inletOutlet;
        inletValue      nonuniform 0();
        value           nonuniform 0();
    }
    procBoundary0to1
    {
        type            processor;
        value           uniform 6.26054e-10;
    }
}


// ************************************************************************* //
