/*--------------------------------*- C++ -*----------------------------------*\
| =========                 |                                                 |
| \\      /  F ield         | OpenFOAM: The Open Source CFD Toolbox           |
|  \\    /   O peration     | Version:  dev                                   |
|   \\  /    A nd           | Web:      www.OpenFOAM.org                      |
|    \\/     M anipulation  |                                                 |
\*---------------------------------------------------------------------------*/
FoamFile
{
    version     2.0;
    format      ascii;
    class       volScalarField;
    location    "0.07";
    object      A1C2H3*;
}
// * * * * * * * * * * * * * * * * * * * * * * * * * * * * * * * * * * * * * //

dimensions      [0 0 0 0 0 0 0];

internalField   nonuniform List<scalar> 
1997
(
1.09982e-11
1.10266e-11
1.1051e-11
1.10677e-11
1.1079e-11
1.10853e-11
1.10896e-11
1.10925e-11
1.10942e-11
1.10957e-11
1.10966e-11
1.10976e-11
1.10981e-11
1.10988e-11
1.10991e-11
1.10995e-11
1.10997e-11
1.11e-11
1.09533e-11
1.09808e-11
1.10048e-11
1.10215e-11
1.10334e-11
1.10399e-11
1.10445e-11
1.10476e-11
1.10494e-11
1.10511e-11
1.10521e-11
1.10531e-11
1.10537e-11
1.10543e-11
1.10547e-11
1.10551e-11
1.10554e-11
1.10556e-11
1.10558e-11
1.10559e-11
1.1056e-11
1.10561e-11
1.10561e-11
1.10561e-11
1.10562e-11
1.10562e-11
1.10561e-11
1.10561e-11
1.09183e-11
1.09448e-11
1.09687e-11
1.09854e-11
1.09979e-11
1.10045e-11
1.10094e-11
1.10127e-11
1.10147e-11
1.10164e-11
1.10176e-11
1.10186e-11
1.10193e-11
1.102e-11
1.10204e-11
1.10208e-11
1.10211e-11
1.10213e-11
1.10215e-11
1.10216e-11
1.10217e-11
1.10218e-11
1.10218e-11
1.10219e-11
1.10219e-11
1.10219e-11
1.10219e-11
1.10218e-11
1.10218e-11
1.10217e-11
1.10216e-11
1.10215e-11
1.10213e-11
1.10211e-11
1.10208e-11
1.10204e-11
1.102e-11
1.10193e-11
1.10186e-11
1.10176e-11
1.08928e-11
1.09185e-11
1.09423e-11
1.09591e-11
1.09722e-11
1.0979e-11
1.09841e-11
1.09876e-11
1.09898e-11
1.09917e-11
1.09929e-11
1.0994e-11
1.09947e-11
1.09954e-11
1.09959e-11
1.09963e-11
1.09966e-11
1.09969e-11
1.0997e-11
1.09972e-11
1.09973e-11
1.09974e-11
1.09974e-11
1.09974e-11
1.09974e-11
1.09974e-11
1.09974e-11
1.09974e-11
1.09974e-11
1.09973e-11
1.09972e-11
1.0997e-11
1.09969e-11
1.09966e-11
1.09963e-11
1.09959e-11
1.09954e-11
1.09947e-11
1.0994e-11
1.09929e-11
1.09917e-11
1.09898e-11
1.09876e-11
1.09841e-11
1.0979e-11
1.09722e-11
1.09591e-11
1.09423e-11
1.09185e-11
1.08928e-11
1.08768e-11
1.09017e-11
1.09255e-11
1.09424e-11
1.09561e-11
1.09631e-11
1.09685e-11
1.09721e-11
1.09745e-11
1.09765e-11
1.09778e-11
1.0979e-11
1.09798e-11
1.09805e-11
1.0981e-11
1.09814e-11
1.09817e-11
1.0982e-11
1.09821e-11
1.09823e-11
1.09824e-11
1.09825e-11
1.09825e-11
1.09826e-11
1.09826e-11
1.09826e-11
1.09826e-11
1.09825e-11
1.09825e-11
1.09824e-11
1.09823e-11
1.09821e-11
1.0982e-11
1.09817e-11
1.09814e-11
1.0981e-11
1.09805e-11
1.09797e-11
1.0979e-11
1.09778e-11
1.09765e-11
1.09745e-11
1.09721e-11
1.09685e-11
1.0963e-11
1.0956e-11
1.09424e-11
1.09254e-11
1.09017e-11
1.08767e-11
1.08697e-11
1.0894e-11
1.09179e-11
1.09349e-11
1.09491e-11
1.09563e-11
1.0962e-11
1.09658e-11
1.09684e-11
1.09704e-11
1.09718e-11
1.09731e-11
1.09739e-11
1.09746e-11
1.09752e-11
1.09756e-11
1.09759e-11
1.09762e-11
1.09764e-11
1.09766e-11
1.09767e-11
1.09767e-11
1.09768e-11
1.09768e-11
1.09768e-11
1.09768e-11
1.09768e-11
1.09768e-11
1.09767e-11
1.09767e-11
1.09766e-11
1.09764e-11
1.09762e-11
1.09759e-11
1.09756e-11
1.09752e-11
1.09746e-11
1.09739e-11
1.0973e-11
1.09718e-11
1.09704e-11
1.09683e-11
1.09658e-11
1.0962e-11
1.09563e-11
1.09491e-11
1.09349e-11
1.09178e-11
1.0894e-11
1.08697e-11
1.08718e-11
1.08955e-11
1.09194e-11
1.09367e-11
1.09514e-11
1.09588e-11
1.09648e-11
1.09688e-11
1.09715e-11
1.09736e-11
1.09751e-11
1.09764e-11
1.09773e-11
1.0978e-11
1.09786e-11
1.09791e-11
1.09794e-11
1.09797e-11
1.09799e-11
1.098e-11
1.09801e-11
1.09802e-11
1.09803e-11
1.09803e-11
1.09803e-11
1.09803e-11
1.09803e-11
1.09803e-11
1.09802e-11
1.09801e-11
1.098e-11
1.09799e-11
1.09797e-11
1.09794e-11
1.09791e-11
1.09786e-11
1.0978e-11
1.09773e-11
1.09764e-11
1.09751e-11
1.09736e-11
1.09714e-11
1.09687e-11
1.09647e-11
1.09588e-11
1.09513e-11
1.09366e-11
1.09194e-11
1.08954e-11
1.08717e-11
1.08825e-11
1.09057e-11
1.09298e-11
1.09472e-11
1.09624e-11
1.09701e-11
1.09764e-11
1.09805e-11
1.09834e-11
1.09856e-11
1.09872e-11
1.09885e-11
1.09895e-11
1.09903e-11
1.09908e-11
1.09913e-11
1.09917e-11
1.09919e-11
1.09922e-11
1.09923e-11
1.09924e-11
1.09925e-11
1.09926e-11
1.09926e-11
1.09926e-11
1.09926e-11
1.09926e-11
1.09926e-11
1.09925e-11
1.09924e-11
1.09923e-11
1.09921e-11
1.09919e-11
1.09917e-11
1.09913e-11
1.09908e-11
1.09902e-11
1.09895e-11
1.09885e-11
1.09872e-11
1.09856e-11
1.09833e-11
1.09805e-11
1.09763e-11
1.09701e-11
1.09624e-11
1.09472e-11
1.09298e-11
1.09056e-11
1.08824e-11
1.09015e-11
1.09243e-11
1.09487e-11
1.09663e-11
1.09819e-11
1.09898e-11
1.09964e-11
1.10007e-11
1.10037e-11
1.1006e-11
1.10077e-11
1.1009e-11
1.101e-11
1.10108e-11
1.10114e-11
1.10119e-11
1.10123e-11
1.10126e-11
1.10128e-11
1.1013e-11
1.10131e-11
1.10132e-11
1.10132e-11
1.10133e-11
1.10133e-11
1.10133e-11
1.10133e-11
1.10132e-11
1.10132e-11
1.10131e-11
1.10129e-11
1.10128e-11
1.10126e-11
1.10123e-11
1.10119e-11
1.10114e-11
1.10108e-11
1.101e-11
1.1009e-11
1.10077e-11
1.1006e-11
1.10037e-11
1.10007e-11
1.09964e-11
1.09898e-11
1.09819e-11
1.09663e-11
1.09487e-11
1.09242e-11
1.09015e-11
1.09289e-11
1.09512e-11
1.09759e-11
1.09938e-11
1.10098e-11
1.1018e-11
1.10248e-11
1.10293e-11
1.10324e-11
1.10349e-11
1.10366e-11
1.1038e-11
1.10391e-11
1.10399e-11
1.10405e-11
1.1041e-11
1.10414e-11
1.10417e-11
1.10419e-11
1.1042e-11
1.10422e-11
1.10423e-11
1.10423e-11
1.10424e-11
1.10424e-11
1.10424e-11
1.10424e-11
1.10423e-11
1.10423e-11
1.10422e-11
1.1042e-11
1.10419e-11
1.10417e-11
1.10414e-11
1.1041e-11
1.10405e-11
1.10398e-11
1.1039e-11
1.1038e-11
1.10366e-11
1.10349e-11
1.10324e-11
1.10293e-11
1.10248e-11
1.10179e-11
1.10097e-11
1.09937e-11
1.09759e-11
1.09512e-11
1.09289e-11
1.09645e-11
1.09865e-11
1.10116e-11
1.10296e-11
1.10459e-11
1.10544e-11
1.10615e-11
1.10661e-11
1.10694e-11
1.10719e-11
1.10737e-11
1.10751e-11
1.10762e-11
1.1077e-11
1.10777e-11
1.10782e-11
1.10786e-11
1.10789e-11
1.10791e-11
1.10793e-11
1.10794e-11
1.10795e-11
1.10796e-11
1.10796e-11
1.10796e-11
1.10796e-11
1.10796e-11
1.10796e-11
1.10795e-11
1.10794e-11
1.10793e-11
1.10791e-11
1.10789e-11
1.10786e-11
1.10782e-11
1.10777e-11
1.1077e-11
1.10762e-11
1.10751e-11
1.10737e-11
1.10719e-11
1.10694e-11
1.10661e-11
1.10615e-11
1.10544e-11
1.10459e-11
1.10296e-11
1.10115e-11
1.09865e-11
1.09645e-11
1.10066e-11
1.10283e-11
1.10536e-11
1.10719e-11
1.10885e-11
1.10973e-11
1.11046e-11
1.11093e-11
1.11127e-11
1.11153e-11
1.11171e-11
1.11186e-11
1.11197e-11
1.11205e-11
1.11212e-11
1.11217e-11
1.11221e-11
1.11224e-11
1.11227e-11
1.11228e-11
1.1123e-11
1.1123e-11
1.11231e-11
1.11232e-11
1.11232e-11
1.11232e-11
1.11232e-11
1.11231e-11
1.1123e-11
1.1123e-11
1.11228e-11
1.11227e-11
1.11224e-11
1.11221e-11
1.11217e-11
1.11212e-11
1.11205e-11
1.11197e-11
1.11186e-11
1.11171e-11
1.11153e-11
1.11127e-11
1.11093e-11
1.11045e-11
1.10972e-11
1.10884e-11
1.10719e-11
1.10536e-11
1.10282e-11
1.10065e-11
1.10555e-11
1.1077e-11
1.11027e-11
1.11212e-11
1.11379e-11
1.11471e-11
1.11545e-11
1.11594e-11
1.11629e-11
1.11655e-11
1.11674e-11
1.11689e-11
1.117e-11
1.11709e-11
1.11716e-11
1.11721e-11
1.11725e-11
1.11728e-11
1.11731e-11
1.11732e-11
1.11734e-11
1.11734e-11
1.11735e-11
1.11735e-11
1.11736e-11
1.11736e-11
1.11735e-11
1.11735e-11
1.11734e-11
1.11733e-11
1.11732e-11
1.1173e-11
1.11728e-11
1.11725e-11
1.11721e-11
1.11716e-11
1.11709e-11
1.117e-11
1.11689e-11
1.11674e-11
1.11655e-11
1.11628e-11
1.11594e-11
1.11545e-11
1.1147e-11
1.11379e-11
1.11211e-11
1.11026e-11
1.1077e-11
1.10555e-11
1.11109e-11
1.11322e-11
1.11582e-11
1.11769e-11
1.11938e-11
1.12032e-11
1.12107e-11
1.12158e-11
1.12193e-11
1.1222e-11
1.1224e-11
1.12255e-11
1.12266e-11
1.12275e-11
1.12282e-11
1.12287e-11
1.12292e-11
1.12294e-11
1.12297e-11
1.12298e-11
1.123e-11
1.12301e-11
1.12302e-11
1.12302e-11
1.12302e-11
1.12302e-11
1.12302e-11
1.12302e-11
1.12301e-11
1.123e-11
1.12298e-11
1.12297e-11
1.12294e-11
1.12291e-11
1.12287e-11
1.12282e-11
1.12275e-11
1.12266e-11
1.12254e-11
1.1224e-11
1.1222e-11
1.12193e-11
1.12158e-11
1.12107e-11
1.12032e-11
1.11937e-11
1.11768e-11
1.11581e-11
1.11321e-11
1.11109e-11
1.11732e-11
1.11944e-11
1.12208e-11
1.12397e-11
1.12568e-11
1.12666e-11
1.12742e-11
1.12795e-11
1.12831e-11
1.12858e-11
1.12878e-11
1.12893e-11
1.12905e-11
1.12914e-11
1.12921e-11
1.12926e-11
1.12931e-11
1.12933e-11
1.12936e-11
1.12938e-11
1.12939e-11
1.1294e-11
1.12941e-11
1.12941e-11
1.12941e-11
1.12941e-11
1.12941e-11
1.12941e-11
1.1294e-11
1.12939e-11
1.12937e-11
1.12936e-11
1.12933e-11
1.1293e-11
1.12926e-11
1.12921e-11
1.12913e-11
1.12905e-11
1.12893e-11
1.12878e-11
1.12858e-11
1.1283e-11
1.12794e-11
1.12742e-11
1.12666e-11
1.12568e-11
1.12397e-11
1.12208e-11
1.11944e-11
1.11732e-11
1.12399e-11
1.12609e-11
1.12875e-11
1.13066e-11
1.13237e-11
1.13338e-11
1.13414e-11
1.13468e-11
1.13505e-11
1.13532e-11
1.13552e-11
1.13567e-11
1.1358e-11
1.13588e-11
1.13596e-11
1.13601e-11
1.13605e-11
1.13608e-11
1.13611e-11
1.13612e-11
1.13614e-11
1.13615e-11
1.13616e-11
1.13616e-11
1.13616e-11
1.13616e-11
1.13616e-11
1.13616e-11
1.13615e-11
1.13614e-11
1.13612e-11
1.13611e-11
1.13608e-11
1.13605e-11
1.13601e-11
1.13596e-11
1.13588e-11
1.1358e-11
1.13567e-11
1.13552e-11
1.13532e-11
1.13504e-11
1.13468e-11
1.13414e-11
1.13338e-11
1.13237e-11
1.13066e-11
1.12875e-11
1.12609e-11
1.12398e-11
1.13131e-11
1.13339e-11
1.13608e-11
1.138e-11
1.13971e-11
1.14075e-11
1.14151e-11
1.14206e-11
1.14243e-11
1.14271e-11
1.14291e-11
1.14306e-11
1.14319e-11
1.14327e-11
1.14335e-11
1.1434e-11
1.14344e-11
1.14347e-11
1.1435e-11
1.14351e-11
1.14353e-11
1.14354e-11
1.14355e-11
1.14355e-11
1.14355e-11
1.14355e-11
1.14355e-11
1.14355e-11
1.14354e-11
1.14353e-11
1.14351e-11
1.1435e-11
1.14347e-11
1.14344e-11
1.1434e-11
1.14335e-11
1.14327e-11
1.14319e-11
1.14306e-11
1.14291e-11
1.14271e-11
1.14242e-11
1.14205e-11
1.1415e-11
1.14074e-11
1.1397e-11
1.13799e-11
1.13607e-11
1.13339e-11
1.1313e-11
1.13908e-11
1.14116e-11
1.14386e-11
1.14578e-11
1.14749e-11
1.14855e-11
1.14931e-11
1.14987e-11
1.15023e-11
1.15052e-11
1.15072e-11
1.15087e-11
1.15099e-11
1.15108e-11
1.15116e-11
1.1512e-11
1.15125e-11
1.15128e-11
1.15131e-11
1.15132e-11
1.15134e-11
1.15135e-11
1.15135e-11
1.15136e-11
1.15136e-11
1.15136e-11
1.15136e-11
1.15135e-11
1.15135e-11
1.15134e-11
1.15132e-11
1.15131e-11
1.15128e-11
1.15125e-11
1.1512e-11
1.15115e-11
1.15108e-11
1.15099e-11
1.15087e-11
1.15072e-11
1.15051e-11
1.15023e-11
1.14986e-11
1.1493e-11
1.14854e-11
1.14749e-11
1.14578e-11
1.14386e-11
1.14116e-11
1.13908e-11
1.14703e-11
1.1491e-11
1.15181e-11
1.15373e-11
1.15544e-11
1.1565e-11
1.15726e-11
1.15782e-11
1.15819e-11
1.15847e-11
1.15868e-11
1.15883e-11
1.15895e-11
1.15904e-11
1.15911e-11
1.15916e-11
1.15921e-11
1.15924e-11
1.15926e-11
1.15928e-11
1.1593e-11
1.1593e-11
1.15931e-11
1.15931e-11
1.15932e-11
1.15932e-11
1.15931e-11
1.15931e-11
1.1593e-11
1.15929e-11
1.15928e-11
1.15926e-11
1.15923e-11
1.15921e-11
1.15916e-11
1.15911e-11
1.15903e-11
1.15895e-11
1.15883e-11
1.15867e-11
1.15847e-11
1.15819e-11
1.15782e-11
1.15726e-11
1.1565e-11
1.15544e-11
1.15372e-11
1.1518e-11
1.1491e-11
1.14702e-11
1.15547e-11
1.15756e-11
1.16026e-11
1.16216e-11
1.16389e-11
1.16496e-11
1.16572e-11
1.16628e-11
1.16665e-11
1.16693e-11
1.16713e-11
1.16729e-11
1.16741e-11
1.16749e-11
1.16757e-11
1.16762e-11
1.16767e-11
1.16769e-11
1.16772e-11
1.16774e-11
1.16775e-11
1.16776e-11
1.16777e-11
1.16777e-11
1.16778e-11
1.16778e-11
1.16777e-11
1.16777e-11
1.16776e-11
1.16775e-11
1.16774e-11
1.16772e-11
1.16769e-11
1.16767e-11
1.16762e-11
1.16757e-11
1.16749e-11
1.16741e-11
1.16729e-11
1.16713e-11
1.16693e-11
1.16665e-11
1.16627e-11
1.16572e-11
1.16496e-11
1.16388e-11
1.16216e-11
1.16025e-11
1.15756e-11
1.15546e-11
1.16423e-11
1.16616e-11
1.1688e-11
1.1707e-11
1.17242e-11
1.17349e-11
1.17425e-11
1.1748e-11
1.17517e-11
1.17545e-11
1.17565e-11
1.1758e-11
1.17592e-11
1.17601e-11
1.17609e-11
1.17613e-11
1.17618e-11
1.17621e-11
1.17624e-11
1.17625e-11
1.17627e-11
1.17627e-11
1.17628e-11
1.17629e-11
1.17629e-11
1.17629e-11
1.17629e-11
1.17628e-11
1.17627e-11
1.17627e-11
1.17625e-11
1.17624e-11
1.17621e-11
1.17618e-11
1.17613e-11
1.17608e-11
1.17601e-11
1.17592e-11
1.1758e-11
1.17565e-11
1.17545e-11
1.17517e-11
1.17479e-11
1.17424e-11
1.17349e-11
1.17241e-11
1.17069e-11
1.1688e-11
1.16616e-11
1.16422e-11
1.17299e-11
1.17495e-11
1.17758e-11
1.17945e-11
1.18118e-11
1.18224e-11
1.18299e-11
1.18353e-11
1.1839e-11
1.18418e-11
1.18438e-11
1.18453e-11
1.18465e-11
1.18473e-11
1.18481e-11
1.18485e-11
1.1849e-11
1.18493e-11
1.18496e-11
1.18497e-11
1.18499e-11
1.185e-11
1.185e-11
1.18501e-11
1.18501e-11
1.18501e-11
1.18501e-11
1.185e-11
1.18499e-11
1.18499e-11
1.18497e-11
1.18496e-11
1.18493e-11
1.1849e-11
1.18485e-11
1.18481e-11
1.18473e-11
1.18465e-11
1.18453e-11
1.18438e-11
1.18418e-11
1.1839e-11
1.18353e-11
1.18298e-11
1.18223e-11
1.18117e-11
1.17944e-11
1.17757e-11
1.17495e-11
1.17299e-11
1.18212e-11
1.18409e-11
1.18671e-11
1.18856e-11
1.19029e-11
1.19135e-11
1.19209e-11
1.19263e-11
1.193e-11
1.19327e-11
1.19347e-11
1.19362e-11
1.19374e-11
1.19382e-11
1.1939e-11
1.19394e-11
1.19399e-11
1.19402e-11
1.19404e-11
1.19406e-11
1.19407e-11
1.19408e-11
1.19409e-11
1.19409e-11
1.1941e-11
1.1941e-11
1.19409e-11
1.19409e-11
1.19408e-11
1.19407e-11
1.19406e-11
1.19404e-11
1.19401e-11
1.19399e-11
1.19394e-11
1.19389e-11
1.19382e-11
1.19374e-11
1.19362e-11
1.19347e-11
1.19327e-11
1.19299e-11
1.19262e-11
1.19208e-11
1.19134e-11
1.19029e-11
1.18856e-11
1.18671e-11
1.18409e-11
1.18212e-11
1.19125e-11
1.19322e-11
1.19583e-11
1.19765e-11
1.19937e-11
1.20043e-11
1.20115e-11
1.20169e-11
1.20205e-11
1.20232e-11
1.20251e-11
1.20266e-11
1.20278e-11
1.20286e-11
1.20293e-11
1.20298e-11
1.20303e-11
1.20305e-11
1.20308e-11
1.20309e-11
1.20311e-11
1.20312e-11
1.20312e-11
1.20313e-11
1.20313e-11
1.20313e-11
1.20313e-11
1.20312e-11
1.20312e-11
1.20311e-11
1.20309e-11
1.20308e-11
1.20305e-11
1.20302e-11
1.20298e-11
1.20293e-11
1.20285e-11
1.20277e-11
1.20266e-11
1.20251e-11
1.20232e-11
1.20204e-11
1.20168e-11
1.20114e-11
1.20042e-11
1.19937e-11
1.19765e-11
1.19582e-11
1.19322e-11
1.19124e-11
1.20052e-11
1.20249e-11
1.20509e-11
1.2069e-11
1.20858e-11
1.20964e-11
1.21034e-11
1.21088e-11
1.21124e-11
1.21151e-11
1.2117e-11
1.21185e-11
1.21197e-11
1.21205e-11
1.21212e-11
1.21217e-11
1.21222e-11
1.21224e-11
1.21227e-11
1.21228e-11
1.2123e-11
1.21231e-11
1.21232e-11
1.21232e-11
1.21232e-11
1.21232e-11
1.21232e-11
1.21232e-11
1.21231e-11
1.2123e-11
1.21228e-11
1.21227e-11
1.21224e-11
1.21222e-11
1.21217e-11
1.21212e-11
1.21205e-11
1.21197e-11
1.21185e-11
1.2117e-11
1.21151e-11
1.21123e-11
1.21087e-11
1.21034e-11
1.20963e-11
1.20858e-11
1.20689e-11
1.20509e-11
1.20249e-11
1.20051e-11
1.21006e-11
1.21207e-11
1.21467e-11
1.21647e-11
1.21813e-11
1.2192e-11
1.21987e-11
1.22041e-11
1.22077e-11
1.22104e-11
1.22122e-11
1.22137e-11
1.22148e-11
1.22156e-11
1.22164e-11
1.22168e-11
1.22173e-11
1.22176e-11
1.22178e-11
1.2218e-11
1.22181e-11
1.22182e-11
1.22183e-11
1.22183e-11
1.22184e-11
1.22184e-11
1.22183e-11
1.22183e-11
1.22182e-11
1.22181e-11
1.2218e-11
1.22178e-11
1.22175e-11
1.22173e-11
1.22168e-11
1.22164e-11
1.22156e-11
1.22148e-11
1.22137e-11
1.22122e-11
1.22104e-11
1.22076e-11
1.2204e-11
1.21987e-11
1.21919e-11
1.21812e-11
1.21646e-11
1.21466e-11
1.21206e-11
1.21006e-11
1.21984e-11
1.22164e-11
1.22422e-11
1.226e-11
1.22762e-11
1.2287e-11
1.22935e-11
1.22989e-11
1.23023e-11
1.2305e-11
1.23068e-11
1.23083e-11
1.23094e-11
1.23102e-11
1.23109e-11
1.23114e-11
1.23118e-11
1.23121e-11
1.23124e-11
1.23125e-11
1.23127e-11
1.23127e-11
1.23128e-11
1.23128e-11
1.23129e-11
1.23129e-11
1.23128e-11
1.23128e-11
1.23127e-11
1.23127e-11
1.23125e-11
1.23124e-11
1.23121e-11
1.23118e-11
1.23114e-11
1.23109e-11
1.23102e-11
1.23094e-11
1.23083e-11
1.23068e-11
1.2305e-11
1.23023e-11
1.22988e-11
1.22935e-11
1.22869e-11
1.22762e-11
1.226e-11
1.22422e-11
1.22163e-11
1.21984e-11
1.22957e-11
1.23144e-11
1.23408e-11
1.23587e-11
1.23748e-11
1.23857e-11
1.23921e-11
1.23975e-11
1.24009e-11
1.24036e-11
1.24054e-11
1.24069e-11
1.2408e-11
1.24087e-11
1.24095e-11
1.24099e-11
1.24104e-11
1.24106e-11
1.24109e-11
1.2411e-11
1.24112e-11
1.24113e-11
1.24113e-11
1.24114e-11
1.24114e-11
1.24114e-11
1.24114e-11
1.24113e-11
1.24113e-11
1.24112e-11
1.2411e-11
1.24109e-11
1.24106e-11
1.24104e-11
1.24099e-11
1.24095e-11
1.24087e-11
1.2408e-11
1.24069e-11
1.24054e-11
1.24036e-11
1.24008e-11
1.23974e-11
1.2392e-11
1.23856e-11
1.23747e-11
1.23586e-11
1.23408e-11
1.23144e-11
1.22957e-11
1.23958e-11
1.24149e-11
1.24413e-11
1.2459e-11
1.24748e-11
1.24857e-11
1.24919e-11
1.24973e-11
1.25006e-11
1.25033e-11
1.25051e-11
1.25065e-11
1.25076e-11
1.25084e-11
1.25091e-11
1.25095e-11
1.251e-11
1.25102e-11
1.25105e-11
1.25106e-11
1.25108e-11
1.25108e-11
1.25109e-11
1.2511e-11
1.2511e-11
1.2511e-11
1.2511e-11
1.25109e-11
1.25108e-11
1.25108e-11
1.25106e-11
1.25105e-11
1.25102e-11
1.251e-11
1.25095e-11
1.25091e-11
1.25083e-11
1.25076e-11
1.25065e-11
1.25051e-11
1.25033e-11
1.25005e-11
1.24972e-11
1.24918e-11
1.24856e-11
1.24747e-11
1.24589e-11
1.24412e-11
1.24148e-11
1.23957e-11
1.24994e-11
1.25189e-11
1.25457e-11
1.25633e-11
1.2579e-11
1.25901e-11
1.25964e-11
1.26019e-11
1.26052e-11
1.26079e-11
1.26097e-11
1.26111e-11
1.26123e-11
1.2613e-11
1.26138e-11
1.26142e-11
1.26146e-11
1.26149e-11
1.26151e-11
1.26153e-11
1.26154e-11
1.26155e-11
1.26156e-11
1.26156e-11
1.26156e-11
1.26156e-11
1.26156e-11
1.26156e-11
1.26155e-11
1.26154e-11
1.26153e-11
1.26151e-11
1.26148e-11
1.26146e-11
1.26141e-11
1.26137e-11
1.2613e-11
1.26122e-11
1.26112e-11
1.26097e-11
1.26079e-11
1.26051e-11
1.26018e-11
1.25963e-11
1.25901e-11
1.25789e-11
1.25632e-11
1.25456e-11
1.25189e-11
1.24994e-11
1.26098e-11
1.26299e-11
1.26554e-11
1.2673e-11
1.26885e-11
1.26998e-11
1.27059e-11
1.27114e-11
1.27147e-11
1.27175e-11
1.27192e-11
1.27206e-11
1.27218e-11
1.27225e-11
1.27232e-11
1.27236e-11
1.27241e-11
1.27243e-11
1.27246e-11
1.27247e-11
1.27249e-11
1.2725e-11
1.27251e-11
1.27251e-11
1.27251e-11
1.27251e-11
1.27251e-11
1.2725e-11
1.2725e-11
1.27249e-11
1.27247e-11
1.27246e-11
1.27243e-11
1.27241e-11
1.27236e-11
1.27232e-11
1.27225e-11
1.27218e-11
1.27207e-11
1.27192e-11
1.27174e-11
1.27146e-11
1.27113e-11
1.27058e-11
1.26997e-11
1.26884e-11
1.26729e-11
1.26553e-11
1.26299e-11
1.26098e-11
1.27247e-11
1.27455e-11
1.27728e-11
1.2791e-11
1.28069e-11
1.28186e-11
1.28247e-11
1.28305e-11
1.28338e-11
1.28366e-11
1.28384e-11
1.28398e-11
1.2841e-11
1.28417e-11
1.28425e-11
1.28429e-11
1.28434e-11
1.28436e-11
1.28439e-11
1.2844e-11
1.28441e-11
1.28442e-11
1.28443e-11
1.28443e-11
1.28443e-11
1.28443e-11
1.28443e-11
1.28443e-11
1.28442e-11
1.28441e-11
1.2844e-11
1.28439e-11
1.28436e-11
1.28433e-11
1.28429e-11
1.28425e-11
1.28417e-11
1.2841e-11
1.28399e-11
1.28384e-11
1.28366e-11
1.28336e-11
1.28304e-11
1.28246e-11
1.28185e-11
1.28068e-11
1.2791e-11
1.27727e-11
1.27455e-11
1.27247e-11
1.28514e-11
1.28734e-11
1.29021e-11
1.29208e-11
1.2934e-11
1.29461e-11
1.29522e-11
1.29581e-11
1.29615e-11
1.29644e-11
1.29662e-11
1.29677e-11
1.29688e-11
1.29696e-11
1.29703e-11
1.29707e-11
1.29712e-11
1.29714e-11
1.29717e-11
1.29718e-11
1.2972e-11
1.29721e-11
1.29722e-11
1.29722e-11
1.29722e-11
1.29722e-11
1.29722e-11
1.29722e-11
1.29721e-11
1.2972e-11
1.29718e-11
1.29717e-11
1.29714e-11
1.29712e-11
1.29707e-11
1.29703e-11
1.29696e-11
1.29688e-11
1.29678e-11
1.29663e-11
1.29643e-11
1.29613e-11
1.2958e-11
1.29521e-11
1.2946e-11
1.2934e-11
1.29207e-11
1.2902e-11
1.28733e-11
1.28514e-11
1.29876e-11
1.30109e-11
1.30413e-11
1.30609e-11
1.30752e-11
1.30881e-11
1.30943e-11
1.31007e-11
1.31041e-11
1.31073e-11
1.31092e-11
1.31107e-11
1.31119e-11
1.31127e-11
1.31135e-11
1.31139e-11
1.31144e-11
1.31146e-11
1.31149e-11
1.3115e-11
1.31152e-11
1.31152e-11
1.31153e-11
1.31154e-11
1.31154e-11
1.31154e-11
1.31154e-11
1.31153e-11
1.31152e-11
1.31152e-11
1.3115e-11
1.31149e-11
1.31146e-11
1.31144e-11
1.31139e-11
1.31135e-11
1.31127e-11
1.31119e-11
1.31108e-11
1.31093e-11
1.31072e-11
1.3104e-11
1.31006e-11
1.30942e-11
1.3088e-11
1.30752e-11
1.30609e-11
1.30413e-11
1.30108e-11
1.29876e-11
1.31405e-11
1.31656e-11
1.31984e-11
1.32193e-11
1.32347e-11
1.32481e-11
1.32546e-11
1.32614e-11
1.3265e-11
1.32683e-11
1.32703e-11
1.32719e-11
1.32732e-11
1.3274e-11
1.32748e-11
1.32752e-11
1.32757e-11
1.32759e-11
1.32762e-11
1.32763e-11
1.32765e-11
1.32766e-11
1.32767e-11
1.32767e-11
1.32767e-11
1.32767e-11
1.32767e-11
1.32767e-11
1.32766e-11
1.32765e-11
1.32763e-11
1.32762e-11
1.32759e-11
1.32757e-11
1.32752e-11
1.32748e-11
1.32739e-11
1.32732e-11
1.3272e-11
1.32704e-11
1.32682e-11
1.32648e-11
1.32613e-11
1.32545e-11
1.3248e-11
1.32346e-11
1.32192e-11
1.31984e-11
1.31655e-11
1.31405e-11
1.33154e-11
1.3343e-11
1.33786e-11
1.34014e-11
1.34182e-11
1.34329e-11
1.34401e-11
1.34477e-11
1.34515e-11
1.34551e-11
1.34573e-11
1.34589e-11
1.34603e-11
1.3461e-11
1.34619e-11
1.34622e-11
1.34628e-11
1.3463e-11
1.34633e-11
1.34634e-11
1.34636e-11
1.34636e-11
1.34637e-11
1.34637e-11
1.34638e-11
1.34638e-11
1.34637e-11
1.34637e-11
1.34636e-11
1.34636e-11
1.34634e-11
1.34633e-11
1.34629e-11
1.34628e-11
1.34622e-11
1.34619e-11
1.3461e-11
1.34603e-11
1.3459e-11
1.34574e-11
1.3455e-11
1.34514e-11
1.34475e-11
1.344e-11
1.34328e-11
1.34182e-11
1.34013e-11
1.33786e-11
1.33429e-11
1.33153e-11
1.35186e-11
1.35496e-11
1.35889e-11
1.36142e-11
1.36328e-11
1.36486e-11
1.36563e-11
1.36646e-11
1.36687e-11
1.36726e-11
1.36752e-11
1.36769e-11
1.36784e-11
1.36792e-11
1.36801e-11
1.36805e-11
1.36811e-11
1.36813e-11
1.36816e-11
1.36817e-11
1.36819e-11
1.3682e-11
1.36821e-11
1.36821e-11
1.36821e-11
1.36821e-11
1.36821e-11
1.36821e-11
1.3682e-11
1.36819e-11
1.36817e-11
1.36816e-11
1.36812e-11
1.36811e-11
1.36805e-11
1.36801e-11
1.36791e-11
1.36784e-11
1.3677e-11
1.36752e-11
1.36726e-11
1.36686e-11
1.36644e-11
1.36562e-11
1.36485e-11
1.36328e-11
1.36141e-11
1.35889e-11
1.35496e-11
1.35186e-11
1.37582e-11
1.37934e-11
1.38377e-11
1.38659e-11
1.38867e-11
1.39041e-11
1.39125e-11
1.39218e-11
1.39263e-11
1.39307e-11
1.39336e-11
1.39355e-11
1.39371e-11
1.3938e-11
1.3939e-11
1.39394e-11
1.39401e-11
1.39402e-11
1.39407e-11
1.39407e-11
1.3941e-11
1.3941e-11
1.39411e-11
1.39411e-11
1.39412e-11
1.39412e-11
1.39411e-11
1.39411e-11
1.3941e-11
1.3941e-11
1.39407e-11
1.39407e-11
1.39402e-11
1.39401e-11
1.39394e-11
1.3939e-11
1.39379e-11
1.39371e-11
1.39356e-11
1.39336e-11
1.39307e-11
1.39262e-11
1.39217e-11
1.39125e-11
1.3904e-11
1.38867e-11
1.38658e-11
1.38377e-11
1.37934e-11
1.37582e-11
1.40434e-11
1.40838e-11
1.41346e-11
1.41664e-11
1.41899e-11
1.42094e-11
1.42187e-11
1.42292e-11
1.42342e-11
1.42393e-11
1.42425e-11
1.42446e-11
1.42465e-11
1.42474e-11
1.42486e-11
1.42489e-11
1.42497e-11
1.42499e-11
1.42504e-11
1.42504e-11
1.42507e-11
1.42507e-11
1.42508e-11
1.42508e-11
1.42509e-11
1.42509e-11
1.42508e-11
1.42508e-11
1.42507e-11
1.42507e-11
1.42504e-11
1.42504e-11
1.42498e-11
1.42497e-11
1.42489e-11
1.42486e-11
1.42473e-11
1.42465e-11
1.42447e-11
1.42426e-11
1.42392e-11
1.42341e-11
1.42291e-11
1.42186e-11
1.42093e-11
1.41898e-11
1.41663e-11
1.41346e-11
1.40838e-11
1.40434e-11
1.43856e-11
1.44334e-11
1.44906e-11
1.45267e-11
1.45532e-11
1.45753e-11
1.45858e-11
1.45978e-11
1.46034e-11
1.46093e-11
1.46129e-11
1.46154e-11
1.46174e-11
1.46184e-11
1.46198e-11
1.46201e-11
1.4621e-11
1.46211e-11
1.46217e-11
1.46217e-11
1.46221e-11
1.4622e-11
1.46222e-11
1.46222e-11
1.46223e-11
1.46223e-11
1.46222e-11
1.46222e-11
1.4622e-11
1.46221e-11
1.46217e-11
1.46217e-11
1.46211e-11
1.4621e-11
1.46201e-11
1.46197e-11
1.46183e-11
1.46174e-11
1.46155e-11
1.4613e-11
1.46091e-11
1.46033e-11
1.45978e-11
1.45857e-11
1.45753e-11
1.45532e-11
1.45267e-11
1.44906e-11
1.44334e-11
1.43856e-11
1.47953e-11
1.48503e-11
1.49175e-11
1.49588e-11
1.49886e-11
1.50139e-11
1.50255e-11
1.50395e-11
1.50457e-11
1.50525e-11
1.50565e-11
1.50594e-11
1.50617e-11
1.50627e-11
1.50643e-11
1.50647e-11
1.50657e-11
1.50658e-11
1.50665e-11
1.50664e-11
1.50668e-11
1.50668e-11
1.5067e-11
1.5067e-11
1.50671e-11
1.50671e-11
1.5067e-11
1.5067e-11
1.50668e-11
1.50668e-11
1.50664e-11
1.50665e-11
1.50658e-11
1.50657e-11
1.50647e-11
1.50643e-11
1.50627e-11
1.50617e-11
1.50595e-11
1.50567e-11
1.50523e-11
1.50456e-11
1.50395e-11
1.50255e-11
1.50139e-11
1.49886e-11
1.49588e-11
1.49176e-11
1.48503e-11
1.47953e-11
1.52853e-11
1.53487e-11
1.54274e-11
1.54742e-11
1.55077e-11
1.55368e-11
1.55496e-11
1.55658e-11
1.55726e-11
1.55804e-11
1.5585e-11
)
;

boundaryField
{
    fuel
    {
        type            fixedValue;
        value           nonuniform 0();
    }
    wall
    {
        type            zeroGradient;
    }
    outlet
    {
        type            zeroGradient;
    }
    frontAndBack
    {
        type            empty;
    }
    procBoundary2to0
    {
        type            processor;
        value           nonuniform List<scalar> 
53
(
1.10531e-11
1.10826e-11
1.11074e-11
1.11241e-11
1.11348e-11
1.11409e-11
1.1145e-11
1.11478e-11
1.11492e-11
1.11507e-11
1.11515e-11
1.11524e-11
1.11529e-11
1.11535e-11
1.11538e-11
1.11542e-11
1.11543e-11
1.11546e-11
1.11001e-11
1.11001e-11
1.11003e-11
1.11003e-11
1.11004e-11
1.11004e-11
1.11005e-11
1.11005e-11
1.11005e-11
1.11005e-11
1.11004e-11
1.10561e-11
1.10561e-11
1.1056e-11
1.10559e-11
1.10558e-11
1.10556e-11
1.10554e-11
1.10551e-11
1.10547e-11
1.10543e-11
1.10537e-11
1.10531e-11
1.10521e-11
1.10164e-11
1.10164e-11
1.10147e-11
1.10126e-11
1.10094e-11
1.10045e-11
1.09979e-11
1.09854e-11
1.09686e-11
1.09448e-11
1.09182e-11
)
;
    }
    procBoundary2to3
    {
        type            processor;
        value           nonuniform List<scalar> 
51
(
1.55883e-11
1.55909e-11
1.5592e-11
1.55938e-11
1.55941e-11
1.55953e-11
1.55954e-11
1.55961e-11
1.55961e-11
1.55965e-11
1.55965e-11
1.55967e-11
1.55967e-11
1.55968e-11
1.55968e-11
1.55967e-11
1.55967e-11
1.55965e-11
1.55965e-11
1.55961e-11
1.55961e-11
1.55954e-11
1.55953e-11
1.55941e-11
1.55938e-11
1.55919e-11
1.55909e-11
1.55884e-11
1.55853e-11
1.55803e-11
1.55726e-11
1.55658e-11
1.55497e-11
1.55369e-11
1.55078e-11
1.54742e-11
1.54275e-11
1.53487e-11
1.52853e-11
1.58672e-11
1.59398e-11
1.60312e-11
1.6084e-11
1.61213e-11
1.61546e-11
1.61685e-11
1.61871e-11
1.61944e-11
1.62034e-11
1.55883e-11
1.62085e-11
)
;
    }
}


// ************************************************************************* //
