/*--------------------------------*- C++ -*----------------------------------*\
| =========                 |                                                 |
| \\      /  F ield         | OpenFOAM: The Open Source CFD Toolbox           |
|  \\    /   O peration     | Version:  dev                                   |
|   \\  /    A nd           | Web:      www.OpenFOAM.org                      |
|    \\/     M anipulation  |                                                 |
\*---------------------------------------------------------------------------*/
FoamFile
{
    version     2.0;
    format      ascii;
    class       volScalarField;
    location    "0.07";
    object      A2C2HA;
}
// * * * * * * * * * * * * * * * * * * * * * * * * * * * * * * * * * * * * * //

dimensions      [0 0 0 0 0 0 0];

internalField   nonuniform List<scalar> 
1997
(
5.72304e-10
5.73853e-10
5.75256e-10
5.76211e-10
5.76915e-10
5.77297e-10
5.77582e-10
5.77778e-10
5.779e-10
5.78009e-10
5.78079e-10
5.78145e-10
5.78188e-10
5.7823e-10
5.78256e-10
5.78282e-10
5.78298e-10
5.78315e-10
5.70593e-10
5.72103e-10
5.73537e-10
5.74521e-10
5.75298e-10
5.75708e-10
5.76025e-10
5.76244e-10
5.76387e-10
5.76508e-10
5.7659e-10
5.76662e-10
5.76712e-10
5.76757e-10
5.76787e-10
5.76815e-10
5.76833e-10
5.76851e-10
5.76862e-10
5.76872e-10
5.76877e-10
5.76882e-10
5.76885e-10
5.76887e-10
5.76888e-10
5.76888e-10
5.76887e-10
5.76885e-10
5.69753e-10
5.71233e-10
5.7271e-10
5.73731e-10
5.74585e-10
5.75027e-10
5.75381e-10
5.75625e-10
5.75789e-10
5.75924e-10
5.76018e-10
5.76098e-10
5.76155e-10
5.76203e-10
5.76238e-10
5.76267e-10
5.76288e-10
5.76306e-10
5.76318e-10
5.76328e-10
5.76335e-10
5.7634e-10
5.76343e-10
5.76346e-10
5.76347e-10
5.76347e-10
5.76346e-10
5.76343e-10
5.76341e-10
5.76336e-10
5.7633e-10
5.76319e-10
5.76307e-10
5.76289e-10
5.76269e-10
5.76239e-10
5.76205e-10
5.76156e-10
5.76099e-10
5.76019e-10
5.69822e-10
5.7128e-10
5.72816e-10
5.73879e-10
5.74818e-10
5.75296e-10
5.7569e-10
5.7596e-10
5.76148e-10
5.76296e-10
5.76404e-10
5.76491e-10
5.76556e-10
5.76608e-10
5.76647e-10
5.76678e-10
5.76702e-10
5.7672e-10
5.76734e-10
5.76745e-10
5.76752e-10
5.76757e-10
5.76761e-10
5.76763e-10
5.76765e-10
5.76765e-10
5.76763e-10
5.76761e-10
5.76758e-10
5.76753e-10
5.76746e-10
5.76735e-10
5.76721e-10
5.76703e-10
5.76679e-10
5.76648e-10
5.76609e-10
5.76557e-10
5.76492e-10
5.76405e-10
5.76298e-10
5.76148e-10
5.7596e-10
5.7569e-10
5.75295e-10
5.74817e-10
5.73878e-10
5.72815e-10
5.71279e-10
5.69822e-10
5.70843e-10
5.72287e-10
5.73896e-10
5.7501e-10
5.76039e-10
5.76558e-10
5.76996e-10
5.77295e-10
5.77507e-10
5.77671e-10
5.77792e-10
5.77887e-10
5.7796e-10
5.78016e-10
5.78061e-10
5.78093e-10
5.7812e-10
5.78139e-10
5.78155e-10
5.78165e-10
5.78174e-10
5.78179e-10
5.78183e-10
5.78186e-10
5.78187e-10
5.78187e-10
5.78186e-10
5.78183e-10
5.7818e-10
5.78175e-10
5.78166e-10
5.78156e-10
5.7814e-10
5.78121e-10
5.78094e-10
5.78062e-10
5.78017e-10
5.77961e-10
5.77888e-10
5.77793e-10
5.77672e-10
5.77507e-10
5.77295e-10
5.76996e-10
5.76557e-10
5.76038e-10
5.75008e-10
5.73895e-10
5.72286e-10
5.70843e-10
5.72893e-10
5.74327e-10
5.76026e-10
5.77201e-10
5.78334e-10
5.78901e-10
5.79392e-10
5.79723e-10
5.79963e-10
5.80144e-10
5.80281e-10
5.80385e-10
5.80468e-10
5.80528e-10
5.80578e-10
5.80612e-10
5.80643e-10
5.80662e-10
5.80681e-10
5.80691e-10
5.80701e-10
5.80706e-10
5.80711e-10
5.80713e-10
5.80715e-10
5.80715e-10
5.80713e-10
5.80711e-10
5.80707e-10
5.80701e-10
5.80692e-10
5.80681e-10
5.80663e-10
5.80644e-10
5.80613e-10
5.80579e-10
5.80528e-10
5.80468e-10
5.80386e-10
5.80282e-10
5.80146e-10
5.79963e-10
5.79722e-10
5.79391e-10
5.789e-10
5.78333e-10
5.772e-10
5.76025e-10
5.74327e-10
5.72892e-10
5.75961e-10
5.77401e-10
5.79204e-10
5.80447e-10
5.81683e-10
5.82301e-10
5.82845e-10
5.83209e-10
5.83476e-10
5.83676e-10
5.83828e-10
5.83941e-10
5.84033e-10
5.84097e-10
5.84153e-10
5.8419e-10
5.84224e-10
5.84244e-10
5.84264e-10
5.84275e-10
5.84286e-10
5.84291e-10
5.84296e-10
5.84299e-10
5.84301e-10
5.84301e-10
5.84299e-10
5.84296e-10
5.84291e-10
5.84286e-10
5.84275e-10
5.84264e-10
5.84244e-10
5.84224e-10
5.8419e-10
5.84154e-10
5.84097e-10
5.84033e-10
5.83941e-10
5.83829e-10
5.83677e-10
5.83476e-10
5.83208e-10
5.82844e-10
5.823e-10
5.81682e-10
5.80445e-10
5.79202e-10
5.774e-10
5.7596e-10
5.80131e-10
5.81588e-10
5.83511e-10
5.84831e-10
5.86176e-10
5.86852e-10
5.87453e-10
5.87853e-10
5.88151e-10
5.88373e-10
5.88544e-10
5.88667e-10
5.88771e-10
5.8884e-10
5.88903e-10
5.88942e-10
5.8898e-10
5.89001e-10
5.89024e-10
5.89034e-10
5.89047e-10
5.89052e-10
5.89059e-10
5.89061e-10
5.89063e-10
5.89063e-10
5.89061e-10
5.89058e-10
5.89052e-10
5.89047e-10
5.89035e-10
5.89024e-10
5.89001e-10
5.8898e-10
5.88941e-10
5.88903e-10
5.8884e-10
5.88771e-10
5.88667e-10
5.88544e-10
5.88374e-10
5.88151e-10
5.87852e-10
5.87452e-10
5.8685e-10
5.86175e-10
5.84829e-10
5.83509e-10
5.81587e-10
5.80131e-10
5.85462e-10
5.86946e-10
5.89006e-10
5.90413e-10
5.91873e-10
5.92612e-10
5.93277e-10
5.93714e-10
5.94042e-10
5.94285e-10
5.94472e-10
5.94606e-10
5.9472e-10
5.94794e-10
5.94863e-10
5.94904e-10
5.94946e-10
5.94968e-10
5.94993e-10
5.95004e-10
5.95018e-10
5.95023e-10
5.9503e-10
5.95032e-10
5.95034e-10
5.95034e-10
5.95032e-10
5.9503e-10
5.95023e-10
5.95018e-10
5.95004e-10
5.94993e-10
5.94968e-10
5.94946e-10
5.94903e-10
5.94863e-10
5.94793e-10
5.94719e-10
5.94606e-10
5.94473e-10
5.94285e-10
5.94041e-10
5.93713e-10
5.93276e-10
5.92611e-10
5.91871e-10
5.90411e-10
5.89005e-10
5.86945e-10
5.85461e-10
5.92113e-10
5.93621e-10
5.95839e-10
5.97347e-10
5.98941e-10
5.99756e-10
6.00498e-10
6.00979e-10
6.01343e-10
6.0161e-10
6.01818e-10
6.01963e-10
6.02089e-10
6.02169e-10
6.02246e-10
6.02288e-10
6.02335e-10
6.02358e-10
6.02386e-10
6.02397e-10
6.02412e-10
6.02418e-10
6.02426e-10
6.02428e-10
6.0243e-10
6.0243e-10
6.02428e-10
6.02426e-10
6.02418e-10
6.02412e-10
6.02397e-10
6.02385e-10
6.02357e-10
6.02335e-10
6.02288e-10
6.02245e-10
6.02168e-10
6.02088e-10
6.01963e-10
6.01818e-10
6.0161e-10
6.01342e-10
6.00977e-10
6.00497e-10
5.99754e-10
5.98939e-10
5.97345e-10
5.95838e-10
5.93619e-10
5.92112e-10
6.002e-10
6.01768e-10
6.04157e-10
6.05778e-10
6.07497e-10
6.08394e-10
6.09206e-10
6.09732e-10
6.1013e-10
6.10421e-10
6.10646e-10
6.10804e-10
6.1094e-10
6.11026e-10
6.11109e-10
6.11155e-10
6.11206e-10
6.11229e-10
6.11259e-10
6.11271e-10
6.11288e-10
6.11293e-10
6.11302e-10
6.11304e-10
6.11307e-10
6.11307e-10
6.11304e-10
6.11302e-10
6.11293e-10
6.11288e-10
6.11271e-10
6.11259e-10
6.11229e-10
6.11205e-10
6.11154e-10
6.11108e-10
6.11025e-10
6.1094e-10
6.10803e-10
6.10647e-10
6.10421e-10
6.10128e-10
6.0973e-10
6.09204e-10
6.08392e-10
6.07495e-10
6.05776e-10
6.04156e-10
6.01766e-10
6.00199e-10
6.09396e-10
6.11029e-10
6.13608e-10
6.15347e-10
6.17195e-10
6.18182e-10
6.19061e-10
6.19637e-10
6.20068e-10
6.20384e-10
6.20628e-10
6.20797e-10
6.20945e-10
6.21036e-10
6.21127e-10
6.21175e-10
6.2123e-10
6.21254e-10
6.21287e-10
6.21299e-10
6.21318e-10
6.21323e-10
6.21333e-10
6.21335e-10
6.21338e-10
6.21338e-10
6.21335e-10
6.21333e-10
6.21323e-10
6.21317e-10
6.21299e-10
6.21287e-10
6.21254e-10
6.21229e-10
6.21174e-10
6.21126e-10
6.21035e-10
6.20944e-10
6.20797e-10
6.20629e-10
6.20384e-10
6.20067e-10
6.19634e-10
6.19059e-10
6.18179e-10
6.17193e-10
6.15345e-10
6.13606e-10
6.11028e-10
6.09395e-10
6.19995e-10
6.21707e-10
6.24492e-10
6.2636e-10
6.2834e-10
6.29426e-10
6.30372e-10
6.31003e-10
6.31469e-10
6.3181e-10
6.32073e-10
6.32254e-10
6.32414e-10
6.32511e-10
6.32608e-10
6.32658e-10
6.32718e-10
6.32743e-10
6.32779e-10
6.32791e-10
6.32811e-10
6.32817e-10
6.32827e-10
6.32829e-10
6.32833e-10
6.32833e-10
6.32829e-10
6.32827e-10
6.32816e-10
6.32811e-10
6.32791e-10
6.32779e-10
6.32743e-10
6.32717e-10
6.32657e-10
6.32607e-10
6.32509e-10
6.32413e-10
6.32254e-10
6.32074e-10
6.3181e-10
6.31466e-10
6.30999e-10
6.3037e-10
6.29424e-10
6.28338e-10
6.26357e-10
6.2449e-10
6.21705e-10
6.19993e-10
6.32053e-10
6.33858e-10
6.36867e-10
6.38873e-10
6.40989e-10
6.42184e-10
6.43193e-10
6.43884e-10
6.44386e-10
6.44753e-10
6.45036e-10
6.45229e-10
6.45401e-10
6.45503e-10
6.45609e-10
6.45661e-10
6.45725e-10
6.45751e-10
6.4579e-10
6.45802e-10
6.45824e-10
6.45829e-10
6.45841e-10
6.45843e-10
6.45847e-10
6.45847e-10
6.45843e-10
6.45841e-10
6.45829e-10
6.45824e-10
6.45802e-10
6.45789e-10
6.4575e-10
6.45724e-10
6.4566e-10
6.45607e-10
6.45501e-10
6.454e-10
6.45229e-10
6.45036e-10
6.44753e-10
6.44383e-10
6.4388e-10
6.43191e-10
6.42181e-10
6.40986e-10
6.38871e-10
6.36864e-10
6.33856e-10
6.32052e-10
6.45886e-10
6.47808e-10
6.51085e-10
6.53263e-10
6.55539e-10
6.56867e-10
6.57951e-10
6.58714e-10
6.59257e-10
6.59656e-10
6.59961e-10
6.6017e-10
6.60355e-10
6.60464e-10
6.60578e-10
6.60634e-10
6.60703e-10
6.6073e-10
6.60772e-10
6.60785e-10
6.60809e-10
6.60814e-10
6.60827e-10
6.60829e-10
6.60833e-10
6.60833e-10
6.60829e-10
6.60827e-10
6.60814e-10
6.60809e-10
6.60784e-10
6.60772e-10
6.6073e-10
6.60702e-10
6.60632e-10
6.60576e-10
6.60462e-10
6.60354e-10
6.60169e-10
6.59962e-10
6.59657e-10
6.59254e-10
6.5871e-10
6.57948e-10
6.56863e-10
6.55535e-10
6.5326e-10
6.51083e-10
6.47806e-10
6.45885e-10
6.61027e-10
6.6307e-10
6.66604e-10
6.68937e-10
6.71355e-10
6.72805e-10
6.73956e-10
6.74785e-10
6.75363e-10
6.75791e-10
6.76115e-10
6.76337e-10
6.76534e-10
6.76649e-10
6.76771e-10
6.76829e-10
6.76903e-10
6.76931e-10
6.76976e-10
6.76988e-10
6.77015e-10
6.7702e-10
6.77034e-10
6.77035e-10
6.7704e-10
6.7704e-10
6.77035e-10
6.77034e-10
6.7702e-10
6.77014e-10
6.76988e-10
6.76975e-10
6.7693e-10
6.76902e-10
6.76827e-10
6.76769e-10
6.76647e-10
6.76533e-10
6.76336e-10
6.76116e-10
6.75791e-10
6.75359e-10
6.74779e-10
6.73953e-10
6.72801e-10
6.71351e-10
6.68934e-10
6.66601e-10
6.63068e-10
6.61025e-10
6.78217e-10
6.80387e-10
6.84192e-10
6.86693e-10
6.89268e-10
6.90855e-10
6.92079e-10
6.92983e-10
6.93601e-10
6.9406e-10
6.94406e-10
6.94643e-10
6.94853e-10
6.94975e-10
6.95105e-10
6.95166e-10
6.95246e-10
6.95275e-10
6.95323e-10
6.95336e-10
6.95364e-10
6.95369e-10
6.95384e-10
6.95385e-10
6.9539e-10
6.9539e-10
6.95385e-10
6.95384e-10
6.95369e-10
6.95364e-10
6.95335e-10
6.95322e-10
6.95274e-10
6.95244e-10
6.95164e-10
6.95103e-10
6.94973e-10
6.94852e-10
6.94642e-10
6.94407e-10
6.94061e-10
6.93596e-10
6.92977e-10
6.92077e-10
6.90851e-10
6.89264e-10
6.8669e-10
6.8419e-10
6.80385e-10
6.78216e-10
6.97138e-10
6.99475e-10
7.03551e-10
7.06217e-10
7.0895e-10
7.1066e-10
7.11952e-10
7.12922e-10
7.13575e-10
7.14064e-10
7.14427e-10
7.14678e-10
7.149e-10
7.15028e-10
7.15165e-10
7.15229e-10
7.15313e-10
7.15344e-10
7.15394e-10
7.15408e-10
7.15438e-10
7.15443e-10
7.15459e-10
7.1546e-10
7.15466e-10
7.15466e-10
7.1546e-10
7.15459e-10
7.15442e-10
7.15437e-10
7.15407e-10
7.15394e-10
7.15342e-10
7.15312e-10
7.15227e-10
7.15163e-10
7.15025e-10
7.14898e-10
7.14677e-10
7.14428e-10
7.14065e-10
7.1357e-10
7.12915e-10
7.11949e-10
7.10655e-10
7.08946e-10
7.06213e-10
7.03549e-10
6.99473e-10
6.97136e-10
7.17147e-10
7.19658e-10
7.2401e-10
7.26831e-10
7.29731e-10
7.3156e-10
7.32924e-10
7.3395e-10
7.34642e-10
7.3516e-10
7.3554e-10
7.35804e-10
7.36037e-10
7.36171e-10
7.36316e-10
7.36383e-10
7.36471e-10
7.36502e-10
7.36556e-10
7.3657e-10
7.36602e-10
7.36607e-10
7.36624e-10
7.36625e-10
7.36631e-10
7.36631e-10
7.36625e-10
7.36624e-10
7.36606e-10
7.36601e-10
7.36569e-10
7.36555e-10
7.36501e-10
7.3647e-10
7.36381e-10
7.36314e-10
7.36168e-10
7.36036e-10
7.35803e-10
7.35541e-10
7.35162e-10
7.34636e-10
7.33944e-10
7.3292e-10
7.31555e-10
7.29727e-10
7.26827e-10
7.24007e-10
7.19656e-10
7.17145e-10
7.39257e-10
7.41991e-10
7.46591e-10
7.49577e-10
7.5267e-10
7.54633e-10
7.56081e-10
7.57163e-10
7.57905e-10
7.58452e-10
7.58853e-10
7.59133e-10
7.59379e-10
7.59519e-10
7.59673e-10
7.59743e-10
7.59837e-10
7.59869e-10
7.59926e-10
7.5994e-10
7.59974e-10
7.59979e-10
7.59997e-10
7.59999e-10
7.60005e-10
7.60005e-10
7.59998e-10
7.59997e-10
7.59979e-10
7.59974e-10
7.59939e-10
7.59925e-10
7.59868e-10
7.59835e-10
7.59741e-10
7.59671e-10
7.59517e-10
7.59377e-10
7.59132e-10
7.58855e-10
7.58455e-10
7.57898e-10
7.57156e-10
7.56077e-10
7.54627e-10
7.52665e-10
7.49574e-10
7.46588e-10
7.41989e-10
7.39255e-10
7.63141e-10
7.65602e-10
7.70266e-10
7.73394e-10
7.76668e-10
7.78733e-10
7.80255e-10
7.81384e-10
7.82164e-10
7.82733e-10
7.83151e-10
7.83444e-10
7.837e-10
7.83846e-10
7.84007e-10
7.84079e-10
7.84178e-10
7.8421e-10
7.84271e-10
7.84284e-10
7.8432e-10
7.84325e-10
7.84345e-10
7.84346e-10
7.84352e-10
7.84352e-10
7.84346e-10
7.84344e-10
7.84325e-10
7.8432e-10
7.84284e-10
7.8427e-10
7.84209e-10
7.84176e-10
7.84077e-10
7.84004e-10
7.83843e-10
7.83698e-10
7.83443e-10
7.83154e-10
7.82736e-10
7.82156e-10
7.81376e-10
7.80249e-10
7.78726e-10
7.76663e-10
7.7339e-10
7.70262e-10
7.656e-10
7.6314e-10
7.87885e-10
7.90576e-10
7.95447e-10
7.98705e-10
8.0217e-10
8.04319e-10
8.05909e-10
8.07084e-10
8.07901e-10
8.0849e-10
8.08923e-10
8.09228e-10
8.09494e-10
8.09645e-10
8.09812e-10
8.09886e-10
8.09989e-10
8.10023e-10
8.10086e-10
8.101e-10
8.10138e-10
8.10142e-10
8.10163e-10
8.10164e-10
8.10171e-10
8.10171e-10
8.10164e-10
8.10163e-10
8.10142e-10
8.10137e-10
8.10099e-10
8.10085e-10
8.10022e-10
8.09988e-10
8.09884e-10
8.0981e-10
8.09642e-10
8.09492e-10
8.09228e-10
8.08927e-10
8.08494e-10
8.07892e-10
8.07076e-10
8.05903e-10
8.04311e-10
8.02164e-10
7.98701e-10
7.95444e-10
7.90574e-10
7.87883e-10
8.14611e-10
8.17495e-10
8.22617e-10
8.26004e-10
8.29683e-10
8.31922e-10
8.33578e-10
8.34807e-10
8.35662e-10
8.36273e-10
8.36723e-10
8.37042e-10
8.37316e-10
8.37474e-10
8.37648e-10
8.37725e-10
8.37832e-10
8.37867e-10
8.37932e-10
8.37947e-10
8.37986e-10
8.37991e-10
8.38012e-10
8.38014e-10
8.3802e-10
8.3802e-10
8.38013e-10
8.38012e-10
8.37991e-10
8.37986e-10
8.37946e-10
8.37932e-10
8.37866e-10
8.3783e-10
8.37722e-10
8.37645e-10
8.37471e-10
8.37315e-10
8.37042e-10
8.36727e-10
8.36279e-10
8.35653e-10
8.34797e-10
8.33571e-10
8.31914e-10
8.29678e-10
8.26e-10
8.22614e-10
8.17493e-10
8.14609e-10
8.4211e-10
8.45179e-10
8.50537e-10
8.54036e-10
8.57869e-10
8.60192e-10
8.61894e-10
8.63163e-10
8.64048e-10
8.64674e-10
8.65134e-10
8.65463e-10
8.65744e-10
8.65906e-10
8.66085e-10
8.66164e-10
8.66275e-10
8.6631e-10
8.66378e-10
8.66393e-10
8.66434e-10
8.66439e-10
8.66461e-10
8.66462e-10
8.66469e-10
8.66469e-10
8.66462e-10
8.6646e-10
8.66438e-10
8.66433e-10
8.66392e-10
8.66378e-10
8.66309e-10
8.66273e-10
8.66162e-10
8.66083e-10
8.65903e-10
8.65743e-10
8.65463e-10
8.65139e-10
8.64681e-10
8.64037e-10
8.63154e-10
8.61886e-10
8.60183e-10
8.57863e-10
8.54032e-10
8.50533e-10
8.45177e-10
8.42108e-10
8.70771e-10
8.74026e-10
8.79599e-10
8.83207e-10
8.87152e-10
8.89562e-10
8.91296e-10
8.92604e-10
8.93517e-10
8.94181e-10
8.94664e-10
8.95013e-10
8.95309e-10
8.95478e-10
8.95668e-10
8.9575e-10
8.95867e-10
8.95904e-10
8.95976e-10
8.9599e-10
8.96034e-10
8.96038e-10
8.96062e-10
8.96063e-10
8.9607e-10
8.9607e-10
8.96063e-10
8.96062e-10
8.96038e-10
8.96033e-10
8.9599e-10
8.95975e-10
8.95903e-10
8.95865e-10
8.95747e-10
8.95665e-10
8.95475e-10
8.95307e-10
8.95014e-10
8.9467e-10
8.94189e-10
8.93503e-10
8.92594e-10
8.91288e-10
8.89553e-10
8.87146e-10
8.83202e-10
8.79595e-10
8.74024e-10
8.70769e-10
9.00965e-10
9.04444e-10
9.1026e-10
9.14011e-10
9.18057e-10
9.20586e-10
9.2234e-10
9.23697e-10
9.2463e-10
9.25312e-10
9.25803e-10
9.26163e-10
9.26463e-10
9.26638e-10
9.26832e-10
9.26916e-10
9.27036e-10
9.27074e-10
9.27148e-10
9.27163e-10
9.27207e-10
9.27212e-10
9.27236e-10
9.27237e-10
9.27245e-10
9.27245e-10
9.27237e-10
9.27236e-10
9.27212e-10
9.27207e-10
9.27162e-10
9.27147e-10
9.27073e-10
9.27035e-10
9.26913e-10
9.26829e-10
9.26634e-10
9.26462e-10
9.26164e-10
9.25809e-10
9.25321e-10
9.24615e-10
9.23686e-10
9.2233e-10
9.20577e-10
9.18051e-10
9.14006e-10
9.10256e-10
9.04442e-10
9.00963e-10
9.32297e-10
9.35098e-10
9.41072e-10
9.44904e-10
9.48998e-10
9.51601e-10
9.53354e-10
9.5474e-10
9.5568e-10
9.56371e-10
9.56866e-10
9.57233e-10
9.57534e-10
9.57711e-10
9.57908e-10
9.57993e-10
9.58115e-10
9.58153e-10
9.58228e-10
9.58244e-10
9.58289e-10
9.58294e-10
9.58318e-10
9.58319e-10
9.58327e-10
9.58327e-10
9.58319e-10
9.58318e-10
9.58294e-10
9.58289e-10
9.58243e-10
9.58228e-10
9.58152e-10
9.58113e-10
9.5799e-10
9.57905e-10
9.57707e-10
9.57533e-10
9.57234e-10
9.56872e-10
9.56382e-10
9.55663e-10
9.54728e-10
9.53344e-10
9.51591e-10
9.48992e-10
9.44898e-10
9.41067e-10
9.35095e-10
9.32294e-10
9.63383e-10
9.66409e-10
9.72724e-10
9.76712e-10
9.80936e-10
9.83639e-10
9.8541e-10
9.86837e-10
9.87791e-10
9.88498e-10
9.88998e-10
9.89374e-10
9.89679e-10
9.8986e-10
9.9006e-10
9.90147e-10
9.90272e-10
9.90312e-10
9.90388e-10
9.90404e-10
9.9045e-10
9.90455e-10
9.9048e-10
9.90481e-10
9.90489e-10
9.90489e-10
9.90481e-10
9.9048e-10
9.90455e-10
9.9045e-10
9.90404e-10
9.90387e-10
9.9031e-10
9.90271e-10
9.90145e-10
9.90057e-10
9.89857e-10
9.89678e-10
9.89376e-10
9.89006e-10
9.88508e-10
9.87775e-10
9.86823e-10
9.854e-10
9.83628e-10
9.8093e-10
9.76706e-10
9.7272e-10
9.66406e-10
9.63381e-10
9.94787e-10
9.97908e-10
1.00433e-09
1.00833e-09
1.01259e-09
1.01531e-09
1.01706e-09
1.01849e-09
1.01945e-09
1.02015e-09
1.02065e-09
1.02102e-09
1.02133e-09
1.02151e-09
1.02171e-09
1.0218e-09
1.02192e-09
1.02196e-09
1.02204e-09
1.02206e-09
1.0221e-09
1.02211e-09
1.02213e-09
1.02213e-09
1.02214e-09
1.02214e-09
1.02213e-09
1.02213e-09
1.02211e-09
1.0221e-09
1.02206e-09
1.02204e-09
1.02196e-09
1.02192e-09
1.0218e-09
1.02171e-09
1.02151e-09
1.02133e-09
1.02103e-09
1.02066e-09
1.02016e-09
1.01943e-09
1.01848e-09
1.01705e-09
1.0153e-09
1.01258e-09
1.00832e-09
1.00432e-09
9.97906e-10
9.94785e-10
1.02624e-09
1.02942e-09
1.03591e-09
1.03989e-09
1.04421e-09
1.04702e-09
1.04878e-09
1.05024e-09
1.0512e-09
1.05192e-09
1.05242e-09
1.0528e-09
1.05311e-09
1.0533e-09
1.0535e-09
1.05359e-09
1.05371e-09
1.05375e-09
1.05383e-09
1.05385e-09
1.0539e-09
1.0539e-09
1.05393e-09
1.05393e-09
1.05394e-09
1.05394e-09
1.05393e-09
1.05393e-09
1.0539e-09
1.0539e-09
1.05385e-09
1.05383e-09
1.05375e-09
1.05371e-09
1.05358e-09
1.0535e-09
1.05329e-09
1.05311e-09
1.05281e-09
1.05243e-09
1.05193e-09
1.05118e-09
1.05023e-09
1.04877e-09
1.047e-09
1.04421e-09
1.03989e-09
1.0359e-09
1.02942e-09
1.02624e-09
1.05808e-09
1.06133e-09
1.06718e-09
1.0711e-09
1.07541e-09
1.0782e-09
1.07991e-09
1.08136e-09
1.0823e-09
1.08301e-09
1.0835e-09
1.08388e-09
1.08418e-09
1.08436e-09
1.08456e-09
1.08465e-09
1.08478e-09
1.08482e-09
1.0849e-09
1.08491e-09
1.08496e-09
1.08496e-09
1.08499e-09
1.08499e-09
1.085e-09
1.085e-09
1.08499e-09
1.08499e-09
1.08496e-09
1.08496e-09
1.08491e-09
1.0849e-09
1.08482e-09
1.08478e-09
1.08465e-09
1.08456e-09
1.08436e-09
1.08418e-09
1.08388e-09
1.08351e-09
1.08302e-09
1.08228e-09
1.08134e-09
1.0799e-09
1.07818e-09
1.07541e-09
1.07109e-09
1.06717e-09
1.06133e-09
1.05807e-09
1.08878e-09
1.09203e-09
1.09802e-09
1.10196e-09
1.10633e-09
1.10913e-09
1.11081e-09
1.11226e-09
1.11318e-09
1.11389e-09
1.11437e-09
1.11474e-09
1.11505e-09
1.11523e-09
1.11543e-09
1.11552e-09
1.11564e-09
1.11568e-09
1.11576e-09
1.11578e-09
1.11582e-09
1.11583e-09
1.11585e-09
1.11585e-09
1.11586e-09
1.11586e-09
1.11585e-09
1.11585e-09
1.11583e-09
1.11582e-09
1.11578e-09
1.11576e-09
1.11568e-09
1.11564e-09
1.11551e-09
1.11542e-09
1.11522e-09
1.11505e-09
1.11475e-09
1.11438e-09
1.11389e-09
1.11316e-09
1.11224e-09
1.1108e-09
1.10912e-09
1.10632e-09
1.10195e-09
1.09802e-09
1.09203e-09
1.08877e-09
1.11936e-09
1.12263e-09
1.12854e-09
1.13236e-09
1.13586e-09
1.13861e-09
1.14022e-09
1.14163e-09
1.14252e-09
1.14321e-09
1.14367e-09
1.14404e-09
1.14433e-09
1.14451e-09
1.14471e-09
1.14479e-09
1.14492e-09
1.14496e-09
1.14503e-09
1.14505e-09
1.14509e-09
1.1451e-09
1.14512e-09
1.14513e-09
1.14513e-09
1.14513e-09
1.14512e-09
1.14512e-09
1.1451e-09
1.14509e-09
1.14505e-09
1.14503e-09
1.14495e-09
1.14491e-09
1.14479e-09
1.1447e-09
1.14451e-09
1.14433e-09
1.14405e-09
1.14369e-09
1.14321e-09
1.1425e-09
1.14161e-09
1.14021e-09
1.1386e-09
1.13586e-09
1.13235e-09
1.12854e-09
1.12262e-09
1.11935e-09
1.14809e-09
1.1513e-09
1.15708e-09
1.16076e-09
1.16414e-09
1.16687e-09
1.16842e-09
1.16981e-09
1.17067e-09
1.17135e-09
1.1718e-09
1.17216e-09
1.17244e-09
1.17262e-09
1.17281e-09
1.1729e-09
1.17302e-09
1.17306e-09
1.17313e-09
1.17315e-09
1.17319e-09
1.1732e-09
1.17322e-09
1.17322e-09
1.17323e-09
1.17323e-09
1.17322e-09
1.17322e-09
1.1732e-09
1.17319e-09
1.17315e-09
1.17313e-09
1.17305e-09
1.17301e-09
1.17289e-09
1.17281e-09
1.17262e-09
1.17244e-09
1.17217e-09
1.17181e-09
1.17135e-09
1.17065e-09
1.16979e-09
1.16841e-09
1.16686e-09
1.16414e-09
1.16075e-09
1.15708e-09
1.1513e-09
1.14809e-09
1.17538e-09
1.17849e-09
1.1841e-09
1.18761e-09
1.1908e-09
1.19344e-09
1.19489e-09
1.19623e-09
1.19704e-09
1.1977e-09
1.19812e-09
1.19846e-09
1.19874e-09
1.19891e-09
1.19909e-09
1.19918e-09
1.19929e-09
1.19933e-09
1.1994e-09
1.19942e-09
1.19946e-09
1.19947e-09
1.19949e-09
1.19949e-09
1.1995e-09
1.1995e-09
1.19949e-09
1.19949e-09
1.19947e-09
1.19946e-09
1.19942e-09
1.1994e-09
1.19933e-09
1.19929e-09
1.19917e-09
1.19909e-09
1.19891e-09
1.19874e-09
1.19847e-09
1.19813e-09
1.19769e-09
1.19702e-09
1.19621e-09
1.19488e-09
1.19343e-09
1.1908e-09
1.1876e-09
1.18409e-09
1.17848e-09
1.17538e-09
1.20095e-09
1.20394e-09
1.20928e-09
1.21263e-09
1.21564e-09
1.21819e-09
1.2196e-09
1.2209e-09
1.22167e-09
1.22228e-09
1.22268e-09
1.223e-09
1.22326e-09
1.22342e-09
1.22359e-09
1.22367e-09
1.22377e-09
1.22381e-09
1.22388e-09
1.22389e-09
1.22393e-09
1.22394e-09
1.22396e-09
1.22396e-09
1.22397e-09
1.22397e-09
1.22396e-09
1.22396e-09
1.22394e-09
1.22393e-09
1.22389e-09
1.22388e-09
1.22381e-09
1.22377e-09
1.22366e-09
1.22358e-09
1.22341e-09
1.22326e-09
1.22301e-09
1.22269e-09
1.22228e-09
1.22165e-09
1.22088e-09
1.21958e-09
1.21818e-09
1.21563e-09
1.21262e-09
1.20928e-09
1.20394e-09
1.20094e-09
1.22453e-09
1.2274e-09
1.2324e-09
1.23557e-09
1.23838e-09
1.24076e-09
1.24207e-09
1.24329e-09
1.24401e-09
1.24459e-09
1.24497e-09
1.24526e-09
1.24551e-09
1.24566e-09
1.24582e-09
1.24589e-09
1.246e-09
1.24603e-09
1.2461e-09
1.24611e-09
1.24615e-09
1.24616e-09
1.24618e-09
1.24618e-09
1.24619e-09
1.24619e-09
1.24618e-09
1.24618e-09
1.24616e-09
1.24615e-09
1.24611e-09
1.2461e-09
1.24603e-09
1.246e-09
1.24589e-09
1.24582e-09
1.24565e-09
1.24551e-09
1.24528e-09
1.24498e-09
1.24458e-09
1.244e-09
1.24327e-09
1.24206e-09
1.24075e-09
1.23838e-09
1.23556e-09
1.2324e-09
1.2274e-09
1.22453e-09
1.24591e-09
1.24862e-09
1.25325e-09
1.2562e-09
1.25881e-09
1.26101e-09
1.26222e-09
1.26334e-09
1.26402e-09
1.26455e-09
1.2649e-09
1.26517e-09
1.26541e-09
1.26555e-09
1.2657e-09
1.26577e-09
1.26587e-09
1.2659e-09
1.26596e-09
1.26598e-09
1.26601e-09
1.26602e-09
1.26604e-09
1.26604e-09
1.26605e-09
1.26605e-09
1.26604e-09
1.26604e-09
1.26602e-09
1.26601e-09
1.26598e-09
1.26596e-09
1.2659e-09
1.26587e-09
1.26577e-09
1.2657e-09
1.26554e-09
1.26541e-09
1.26519e-09
1.26491e-09
1.26454e-09
1.264e-09
1.26333e-09
1.26221e-09
1.261e-09
1.25881e-09
1.25619e-09
1.25324e-09
1.24862e-09
1.2459e-09
1.26488e-09
1.26742e-09
1.27164e-09
1.27435e-09
1.27675e-09
1.27876e-09
1.27987e-09
1.28089e-09
1.2815e-09
1.28199e-09
1.28232e-09
1.28257e-09
1.28278e-09
1.28292e-09
1.28306e-09
1.28313e-09
1.28322e-09
1.28325e-09
1.28331e-09
1.28332e-09
1.28336e-09
1.28336e-09
1.28338e-09
1.28338e-09
1.28339e-09
1.28339e-09
1.28338e-09
1.28338e-09
1.28336e-09
1.28335e-09
1.28332e-09
1.2833e-09
1.28325e-09
1.28321e-09
1.28312e-09
1.28305e-09
1.28291e-09
1.28278e-09
1.28258e-09
1.28233e-09
1.28199e-09
1.28149e-09
1.28087e-09
1.27985e-09
1.27874e-09
1.27675e-09
1.27434e-09
1.27163e-09
1.26741e-09
1.26488e-09
1.28133e-09
1.28371e-09
1.28742e-09
1.28989e-09
1.29207e-09
1.29386e-09
1.29487e-09
1.29578e-09
1.29635e-09
1.29679e-09
1.29709e-09
1.29731e-09
1.29751e-09
1.29764e-09
1.29777e-09
1.29783e-09
1.29791e-09
1.29795e-09
1.298e-09
1.29801e-09
1.29804e-09
1.29805e-09
1.29807e-09
1.29807e-09
1.29808e-09
1.29808e-09
1.29807e-09
1.29807e-09
1.29805e-09
1.29804e-09
1.29801e-09
1.298e-09
1.29794e-09
1.29791e-09
1.29783e-09
1.29776e-09
1.29763e-09
1.29751e-09
1.29733e-09
1.29709e-09
1.29678e-09
1.29633e-09
1.29576e-09
1.29486e-09
1.29384e-09
1.29206e-09
1.28988e-09
1.28742e-09
1.2837e-09
1.28132e-09
1.29507e-09
1.29722e-09
1.3005e-09
1.30271e-09
1.30466e-09
1.30623e-09
1.30714e-09
1.30795e-09
1.30846e-09
1.30885e-09
1.30912e-09
1.30932e-09
1.3095e-09
1.30962e-09
1.30974e-09
1.3098e-09
1.30987e-09
1.30991e-09
1.30995e-09
1.30997e-09
1.31e-09
1.31001e-09
1.31002e-09
1.31002e-09
1.31003e-09
1.31003e-09
1.31002e-09
1.31002e-09
1.31e-09
1.31e-09
1.30997e-09
1.30995e-09
1.3099e-09
1.30987e-09
1.3098e-09
1.30973e-09
1.30962e-09
1.3095e-09
1.30934e-09
1.30912e-09
1.30884e-09
1.30844e-09
1.30793e-09
1.30713e-09
1.30621e-09
1.30465e-09
1.3027e-09
1.30049e-09
1.29721e-09
1.29506e-09
1.30606e-09
1.30797e-09
1.31081e-09
1.31274e-09
1.31447e-09
1.31582e-09
1.31663e-09
1.31733e-09
1.31779e-09
1.31813e-09
1.31837e-09
)
;

boundaryField
{
    fuel
    {
        type            fixedValue;
        value           nonuniform 0();
    }
    wall
    {
        type            zeroGradient;
    }
    outlet
    {
        type            zeroGradient;
    }
    frontAndBack
    {
        type            empty;
    }
    procBoundary2to0
    {
        type            processor;
        value           nonuniform List<scalar> 
53
(
5.74854e-10
5.76448e-10
5.77834e-10
5.78765e-10
5.79403e-10
5.79761e-10
5.80016e-10
5.80191e-10
5.80293e-10
5.8039e-10
5.80449e-10
5.8051e-10
5.80546e-10
5.80586e-10
5.80607e-10
5.80633e-10
5.80645e-10
5.80662e-10
5.78324e-10
5.78324e-10
5.78334e-10
5.78338e-10
5.78343e-10
5.78345e-10
5.78348e-10
5.78349e-10
5.78349e-10
5.78348e-10
5.78345e-10
5.76883e-10
5.76883e-10
5.76877e-10
5.76872e-10
5.76862e-10
5.76852e-10
5.76835e-10
5.76816e-10
5.76789e-10
5.76758e-10
5.76713e-10
5.76664e-10
5.76591e-10
5.75925e-10
5.75925e-10
5.7579e-10
5.75625e-10
5.75381e-10
5.75027e-10
5.74585e-10
5.7373e-10
5.7271e-10
5.71232e-10
5.69753e-10
)
;
    }
    procBoundary2to3
    {
        type            processor;
        value           nonuniform List<scalar> 
51
(
1.31856e-09
1.31872e-09
1.31883e-09
1.31894e-09
1.31899e-09
1.31906e-09
1.31909e-09
1.31914e-09
1.31915e-09
1.31918e-09
1.31919e-09
1.3192e-09
1.3192e-09
1.31921e-09
1.31921e-09
1.3192e-09
1.3192e-09
1.31919e-09
1.31918e-09
1.31915e-09
1.31913e-09
1.31909e-09
1.31906e-09
1.31899e-09
1.31893e-09
1.31883e-09
1.31872e-09
1.31857e-09
1.31838e-09
1.31813e-09
1.31778e-09
1.31732e-09
1.31662e-09
1.31581e-09
1.31446e-09
1.31274e-09
1.31081e-09
1.30797e-09
1.30606e-09
1.31428e-09
1.31594e-09
1.31834e-09
1.31999e-09
1.3215e-09
1.32264e-09
1.32335e-09
1.32395e-09
1.32435e-09
1.32465e-09
1.31856e-09
1.32486e-09
)
;
    }
}


// ************************************************************************* //
