/*--------------------------------*- C++ -*----------------------------------*\
| =========                 |                                                 |
| \\      /  F ield         | OpenFOAM: The Open Source CFD Toolbox           |
|  \\    /   O peration     | Version:  dev                                   |
|   \\  /    A nd           | Web:      www.OpenFOAM.org                      |
|    \\/     M anipulation  |                                                 |
\*---------------------------------------------------------------------------*/
FoamFile
{
    version     2.0;
    format      ascii;
    class       volScalarField;
    location    "0.07";
    object      A2C2HB*;
}
// * * * * * * * * * * * * * * * * * * * * * * * * * * * * * * * * * * * * * //

dimensions      [0 0 0 0 0 0 0];

internalField   nonuniform List<scalar> 
250
(
1.46699e-11
2.22444e-09
1.63973e-09
1.56683e-09
1.56065e-09
1.56178e-09
1.55971e-09
1.5601e-09
1.55833e-09
7.65898e-12
2.03965e-09
1.13521e-09
1.0492e-09
1.04074e-09
1.04037e-09
1.03976e-09
1.03996e-09
1.0395e-09
2.09948e-12
1.35886e-09
6.11992e-10
5.47683e-10
5.4127e-10
5.40722e-10
5.40595e-10
5.4056e-10
5.40504e-10
7.72397e-13
8.82921e-10
3.30111e-10
2.85303e-10
2.80834e-10
2.80388e-10
2.80426e-10
2.803e-10
2.80356e-10
4.00577e-13
5.97825e-10
1.9118e-10
1.59307e-10
1.56244e-10
1.5596e-10
1.56043e-10
1.55899e-10
1.55985e-10
2.58391e-13
4.25453e-10
1.21143e-10
9.51441e-11
9.20704e-11
9.17952e-11
9.18903e-11
9.16713e-11
9.18182e-11
1.97431e-13
3.14756e-10
8.37189e-11
6.27802e-11
6.02515e-11
6.02349e-11
6.01956e-11
5.99264e-11
6.0144e-11
2.31705e-13
2.41557e-10
6.14673e-11
4.4553e-11
4.22745e-11
4.17595e-11
4.19063e-11
4.19281e-11
4.18729e-11
2.9841e-13
1.90556e-10
4.80049e-11
3.28451e-11
3.13421e-11
3.10506e-11
3.10633e-11
3.10588e-11
3.10437e-11
4.12736e-13
1.53521e-10
3.77053e-11
2.47147e-11
2.33936e-11
2.31705e-11
2.31656e-11
2.31378e-11
2.31531e-11
6.32664e-13
1.25727e-10
3.02024e-11
1.98052e-11
1.8616e-11
1.84291e-11
1.8424e-11
1.8387e-11
1.84118e-11
1.84199e-11
9.7647e-13
1.04305e-10
2.51491e-11
1.60273e-11
1.48555e-11
1.46752e-11
1.46687e-11
1.46257e-11
1.46544e-11
1.46504e-11
1.40041e-12
8.61962e-11
2.1182e-11
1.31393e-11
1.20916e-11
1.19321e-11
1.19248e-11
1.18815e-11
1.19099e-11
1.19004e-11
1.90364e-12
6.94396e-11
1.78971e-11
1.09609e-11
1.00243e-11
9.8811e-12
9.87294e-12
9.83028e-12
9.85802e-12
9.8453e-12
2.50137e-12
5.76768e-11
1.50037e-11
9.27815e-12
8.4419e-12
8.31168e-12
8.3028e-12
8.26128e-12
8.28827e-12
8.27337e-12
3.14079e-12
4.78951e-11
1.26445e-11
7.95072e-12
7.20429e-12
7.08454e-12
7.07522e-12
7.03501e-12
7.06129e-12
7.04486e-12
3.7679e-12
3.96994e-11
1.07078e-11
6.88274e-12
6.21602e-12
6.10493e-12
6.09552e-12
6.05663e-12
6.08224e-12
6.06474e-12
4.35495e-12
3.28713e-11
9.11054e-12
6.0072e-12
5.41091e-12
5.30723e-12
5.298e-12
5.26042e-12
5.28537e-12
5.26716e-12
4.89504e-12
2.6775e-11
7.78696e-12
5.27633e-12
4.74234e-12
4.64527e-12
4.63643e-12
4.60021e-12
4.62446e-12
4.60586e-12
5.39307e-12
2.20363e-11
6.68717e-12
4.65514e-12
4.17708e-12
4.08614e-12
4.07786e-12
4.04312e-12
4.06655e-12
4.04785e-12
5.83227e-12
1.74923e-11
5.76701e-12
4.11712e-12
3.69099e-12
3.60598e-12
3.59834e-12
3.56532e-12
3.58772e-12
3.56926e-12
6.19899e-12
1.4194e-11
4.99735e-12
3.64115e-12
3.26582e-12
3.18671e-12
3.17978e-12
3.14882e-12
3.16991e-12
3.15205e-12
6.46215e-12
1.15574e-11
4.34927e-12
3.26709e-12
2.93117e-12
2.8579e-12
2.85149e-12
2.82227e-12
2.84232e-12
2.82506e-12
6.59848e-12
9.47149e-12
3.79534e-12
2.93753e-12
2.61993e-12
2.55115e-12
2.54584e-12
2.51637e-12
2.53658e-12
2.51847e-12
6.60192e-12
7.83582e-12
3.36637e-12
2.61674e-12
2.35782e-12
2.29522e-12
2.29046e-12
2.26293e-12
2.2819e-12
2.26467e-12
6.48735e-12
6.55794e-12
2.99598e-12
2.35826e-12
2.12569e-12
2.06961e-12
2.06537e-12
2.03996e-12
2.05754e-12
2.04139e-12
)
;

boundaryField
{
    fuel
    {
        type            fixedValue;
        value           uniform 0;
    }
    wall
    {
        type            zeroGradient;
    }
    outlet
    {
        type            zeroGradient;
    }
    frontAndBack
    {
        type            empty;
    }
    procBoundary2to0
    {
        type            processor;
        value           nonuniform List<scalar> 
12
(
2.26787e-12
6.27088e-12
5.53059e-12
2.67476e-12
2.12936e-12
1.92172e-12
1.87168e-12
1.86787e-12
1.84483e-12
1.86082e-12
2.0448e-12
1.846e-12
)
;
    }
    procBoundary2to3
    {
        type            processor;
        value           nonuniform List<scalar> 
25
(
1.5611e-09
1.03997e-09
5.40547e-10
2.80324e-10
1.55935e-10
9.17245e-11
6.01264e-11
4.1803e-11
3.10751e-11
2.31725e-11
2.31725e-11
1.83931e-11
1.46305e-11
1.18852e-11
9.83354e-12
8.26458e-12
7.03857e-12
6.06057e-12
5.26476e-12
4.6049e-12
4.04809e-12
3.57045e-12
3.15398e-12
2.82743e-12
2.52146e-12
)
;
    }
}


// ************************************************************************* //
