/*--------------------------------*- C++ -*----------------------------------*\
| =========                 |                                                 |
| \\      /  F ield         | OpenFOAM: The Open Source CFD Toolbox           |
|  \\    /   O peration     | Version:  dev                                   |
|   \\  /    A nd           | Web:      www.OpenFOAM.org                      |
|    \\/     M anipulation  |                                                 |
\*---------------------------------------------------------------------------*/
FoamFile
{
    version     2.0;
    format      ascii;
    class       volScalarField;
    location    "0.07";
    object      A2R5;
}
// * * * * * * * * * * * * * * * * * * * * * * * * * * * * * * * * * * * * * //

dimensions      [0 0 0 0 0 0 0];

internalField   nonuniform List<scalar> 
250
(
2.02494e-08
3.81104e-07
3.23047e-07
3.08426e-07
3.06848e-07
3.06306e-07
3.06307e-07
3.06268e-07
3.06251e-07
5.23743e-08
4.44997e-07
3.57459e-07
3.3566e-07
3.33312e-07
3.32536e-07
3.32539e-07
3.32478e-07
3.32449e-07
9.27381e-08
4.45437e-07
3.46265e-07
3.19381e-07
3.16686e-07
3.15655e-07
3.1568e-07
3.15585e-07
3.15544e-07
1.47488e-07
4.32851e-07
3.29438e-07
2.98464e-07
2.9558e-07
2.94264e-07
2.94325e-07
2.94188e-07
2.94131e-07
1.65419e-07
4.19287e-07
3.12707e-07
2.78363e-07
2.75361e-07
2.73743e-07
2.73845e-07
2.73664e-07
2.73592e-07
1.90033e-07
4.06416e-07
2.96528e-07
2.5951e-07
2.56446e-07
2.54517e-07
2.54666e-07
2.54442e-07
2.54358e-07
2.2452e-07
3.9279e-07
2.81296e-07
2.41699e-07
2.38663e-07
2.36425e-07
2.36626e-07
2.36361e-07
2.36272e-07
2.67061e-07
3.79094e-07
2.6706e-07
2.24794e-07
2.21933e-07
2.19393e-07
2.19657e-07
2.19352e-07
2.19266e-07
3.14953e-07
3.66316e-07
2.5106e-07
2.08894e-07
2.06404e-07
2.03539e-07
2.0389e-07
2.03539e-07
2.0347e-07
3.64592e-07
3.52628e-07
2.35135e-07
1.92958e-07
1.90389e-07
1.87097e-07
1.87504e-07
1.87121e-07
1.87074e-07
4.11296e-07
3.38686e-07
2.19474e-07
1.7733e-07
1.74694e-07
1.71306e-07
1.71726e-07
1.71344e-07
1.71326e-07
1.71273e-07
4.50331e-07
3.24918e-07
2.07464e-07
1.62757e-07
1.59947e-07
1.5653e-07
1.56955e-07
1.5658e-07
1.56598e-07
1.56594e-07
4.7832e-07
3.11351e-07
1.94953e-07
1.49361e-07
1.46305e-07
1.4292e-07
1.43337e-07
1.42973e-07
1.43029e-07
1.4308e-07
4.94106e-07
2.97986e-07
1.82365e-07
1.37196e-07
1.33869e-07
1.30563e-07
1.3096e-07
1.3061e-07
1.30703e-07
1.30795e-07
4.98688e-07
2.85526e-07
1.70599e-07
1.26268e-07
1.2267e-07
1.19481e-07
1.19848e-07
1.19515e-07
1.19636e-07
1.19745e-07
4.94464e-07
2.7328e-07
1.59691e-07
1.16536e-07
1.12685e-07
1.09639e-07
1.09969e-07
1.09653e-07
1.09793e-07
1.09903e-07
4.84288e-07
2.60762e-07
1.49628e-07
1.07926e-07
1.03849e-07
1.00963e-07
1.01251e-07
1.00953e-07
1.01102e-07
1.01203e-07
4.70712e-07
2.48292e-07
1.40354e-07
1.00339e-07
9.6071e-08
9.33538e-08
9.35995e-08
9.33184e-08
9.34683e-08
9.35585e-08
4.55559e-07
2.36021e-07
1.31703e-07
9.36646e-08
8.9245e-08
8.6702e-08
8.69049e-08
8.66413e-08
8.67851e-08
8.68654e-08
4.401e-07
2.23954e-07
1.25266e-07
8.77923e-08
8.32586e-08
8.08957e-08
8.10558e-08
8.08117e-08
8.09442e-08
8.10164e-08
4.20751e-07
2.1204e-07
1.18527e-07
8.26067e-08
7.79964e-08
7.58256e-08
7.59415e-08
7.5721e-08
7.58385e-08
7.59047e-08
4.03935e-07
2.00305e-07
1.11938e-07
7.80141e-08
7.33388e-08
7.13893e-08
7.14538e-08
7.12646e-08
7.1364e-08
7.14267e-08
3.86131e-07
1.88791e-07
1.05816e-07
7.43319e-08
6.97828e-08
6.79436e-08
6.79939e-08
6.78166e-08
6.79039e-08
6.79635e-08
3.67682e-07
1.77561e-07
1.00109e-07
7.08838e-08
6.64138e-08
6.47211e-08
6.47403e-08
6.4582e-08
6.46578e-08
6.47136e-08
3.49466e-07
1.66689e-07
9.47172e-08
6.80683e-08
6.37415e-08
6.21795e-08
6.21786e-08
6.20377e-08
6.2103e-08
6.21571e-08
3.30276e-07
1.56245e-07
9.05062e-08
6.56508e-08
6.14793e-08
6.00467e-08
6.00262e-08
5.99028e-08
5.99591e-08
6.00118e-08
)
;

boundaryField
{
    fuel
    {
        type            fixedValue;
        value           uniform 0;
    }
    wall
    {
        type            zeroGradient;
    }
    outlet
    {
        type            zeroGradient;
    }
    frontAndBack
    {
        type            empty;
    }
    procBoundary2to0
    {
        type            processor;
        value           nonuniform List<scalar> 
12
(
6.20167e-08
3.07213e-07
1.46268e-07
8.66148e-08
6.36014e-08
5.95975e-08
5.82913e-08
5.82522e-08
5.81461e-08
5.81945e-08
5.98921e-08
5.82461e-08
)
;
    }
    procBoundary2to3
    {
        type            processor;
        value           nonuniform List<scalar> 
25
(
3.06224e-07
3.32407e-07
3.15473e-07
2.94031e-07
2.73467e-07
2.54218e-07
2.36128e-07
2.1913e-07
2.03347e-07
1.86981e-07
1.86981e-07
1.71304e-07
1.56513e-07
1.42884e-07
1.30506e-07
1.19401e-07
1.09534e-07
1.00834e-07
9.32026e-08
8.65332e-08
8.07151e-08
7.56399e-08
7.12017e-08
6.77718e-08
6.45478e-08
)
;
    }
}


// ************************************************************************* //
