/*--------------------------------*- C++ -*----------------------------------*\
| =========                 |                                                 |
| \\      /  F ield         | OpenFOAM: The Open Source CFD Toolbox           |
|  \\    /   O peration     | Version:  dev                                   |
|   \\  /    A nd           | Web:      www.OpenFOAM.org                      |
|    \\/     M anipulation  |                                                 |
\*---------------------------------------------------------------------------*/
FoamFile
{
    version     2.0;
    format      ascii;
    class       volScalarField;
    location    "0.07";
    object      CH2(S);
}
// * * * * * * * * * * * * * * * * * * * * * * * * * * * * * * * * * * * * * //

dimensions      [0 0 0 0 0 0 0];

internalField   nonuniform List<scalar> 
250
(
9.08881e-10
2.00116e-06
2.19367e-06
2.21306e-06
2.21353e-06
2.21511e-06
2.21377e-06
2.21368e-06
2.21611e-06
5.64513e-10
1.18712e-06
1.29902e-06
1.31329e-06
1.31435e-06
1.31451e-06
1.31452e-06
1.31433e-06
1.31486e-06
2.13009e-10
5.73954e-07
6.49113e-07
6.60269e-07
6.6128e-07
6.61218e-07
6.61437e-07
6.61226e-07
6.61432e-07
1.13784e-10
2.74559e-07
3.23367e-07
3.32754e-07
3.33627e-07
3.33575e-07
3.3378e-07
3.33601e-07
3.33721e-07
6.50436e-11
1.40894e-07
1.75517e-07
1.84113e-07
1.85076e-07
1.85109e-07
1.85267e-07
1.85132e-07
1.8522e-07
4.03338e-11
7.94454e-08
1.08145e-07
1.14253e-07
1.14391e-07
1.14369e-07
1.14493e-07
1.14314e-07
1.14436e-07
2.81783e-11
4.89224e-08
7.59899e-08
8.2133e-08
8.23952e-08
8.25909e-08
8.25768e-08
8.2363e-08
8.25368e-08
3.09185e-11
3.30205e-08
5.90773e-08
6.58369e-08
6.60902e-08
6.58444e-08
6.60098e-08
6.60355e-08
6.59798e-08
4.53036e-11
2.41386e-08
5.00995e-08
5.65007e-08
5.71947e-08
5.71374e-08
5.7182e-08
5.71775e-08
5.71593e-08
9.39611e-11
1.89031e-08
4.4116e-08
5.06728e-08
5.13694e-08
5.13606e-08
5.139e-08
5.13566e-08
5.13702e-08
1.93851e-10
1.57154e-08
4.0261e-08
4.73658e-08
4.8064e-08
4.80741e-08
4.8104e-08
4.80557e-08
4.80822e-08
4.80719e-08
3.03931e-10
1.37697e-08
3.7886e-08
4.48593e-08
4.54786e-08
4.54833e-08
4.55128e-08
4.54516e-08
4.54867e-08
4.54648e-08
3.93415e-10
1.25518e-08
3.61306e-08
4.28472e-08
4.34488e-08
4.34554e-08
4.34849e-08
4.34135e-08
4.34548e-08
4.34237e-08
4.87678e-10
1.18217e-08
3.47109e-08
4.11513e-08
4.17169e-08
4.17205e-08
4.17496e-08
4.16674e-08
4.17157e-08
4.16757e-08
6.06815e-10
1.15809e-08
3.34264e-08
3.96173e-08
4.01306e-08
4.01274e-08
4.0156e-08
4.00622e-08
4.01183e-08
4.00688e-08
7.53722e-10
1.16244e-08
3.22953e-08
3.81573e-08
3.86035e-08
3.85903e-08
3.86183e-08
3.85118e-08
3.85767e-08
3.8517e-08
9.33034e-10
1.1879e-08
3.12443e-08
3.6717e-08
3.70833e-08
3.70572e-08
3.70849e-08
3.69644e-08
3.7039e-08
3.69683e-08
1.15871e-09
1.22821e-08
3.022e-08
3.52594e-08
3.55354e-08
3.54941e-08
3.55215e-08
3.53861e-08
3.54711e-08
3.53886e-08
1.45364e-09
1.28173e-08
2.91801e-08
3.37558e-08
3.39342e-08
3.38759e-08
3.39031e-08
3.3752e-08
3.38481e-08
3.37529e-08
1.84478e-09
1.33637e-08
2.80892e-08
3.218e-08
3.22586e-08
3.21821e-08
3.22094e-08
3.20422e-08
3.21496e-08
3.20412e-08
2.3573e-09
1.3981e-08
2.69172e-08
3.05048e-08
3.04895e-08
3.0394e-08
3.04216e-08
3.02384e-08
3.03572e-08
3.02352e-08
3.0018e-09
1.44631e-08
2.5638e-08
2.86996e-08
2.86057e-08
2.84912e-08
2.85193e-08
2.83209e-08
2.84505e-08
2.83152e-08
3.76929e-09
1.48187e-08
2.42309e-08
2.69909e-08
2.68183e-08
2.66902e-08
2.67182e-08
2.65054e-08
2.66462e-08
2.6498e-08
4.62339e-09
1.49992e-08
2.26683e-08
2.51903e-08
2.48287e-08
2.46759e-08
2.47078e-08
2.44655e-08
2.46271e-08
2.44542e-08
5.49906e-09
1.49678e-08
2.11207e-08
2.30977e-08
2.28393e-08
2.26765e-08
2.27091e-08
2.24536e-08
2.2626e-08
2.24402e-08
6.31497e-09
1.46999e-08
1.9443e-08
2.10975e-08
2.07622e-08
2.05922e-08
2.0626e-08
2.03595e-08
2.05416e-08
2.03443e-08
)
;

boundaryField
{
    fuel
    {
        type            fixedValue;
        value           uniform 0;
    }
    wall
    {
        type            zeroGradient;
    }
    outlet
    {
        type            zeroGradient;
    }
    frontAndBack
    {
        type            empty;
    }
    procBoundary2to0
    {
        type            processor;
        value           nonuniform List<scalar> 
12
(
2.24822e-08
6.95243e-09
1.41464e-08
1.76425e-08
1.90145e-08
1.86126e-08
1.84391e-08
1.84736e-08
1.82002e-08
1.83896e-08
2.03906e-08
1.81835e-08
)
;
    }
    procBoundary2to3
    {
        type            processor;
        value           nonuniform List<scalar> 
25
(
2.21522e-06
1.31465e-06
6.6134e-07
3.33668e-07
1.85179e-07
1.14368e-07
8.25441e-08
6.59124e-08
5.71796e-08
5.13738e-08
5.13738e-08
4.80559e-08
4.54513e-08
4.34132e-08
4.1668e-08
4.00641e-08
3.85156e-08
3.69705e-08
3.53947e-08
3.37633e-08
3.20563e-08
3.02553e-08
2.83405e-08
2.65279e-08
2.44915e-08
)
;
    }
}


// ************************************************************************* //
