/*--------------------------------*- C++ -*----------------------------------*\
| =========                 |                                                 |
| \\      /  F ield         | OpenFOAM: The Open Source CFD Toolbox           |
|  \\    /   O peration     | Version:  dev                                   |
|   \\  /    A nd           | Web:      www.OpenFOAM.org                      |
|    \\/     M anipulation  |                                                 |
\*---------------------------------------------------------------------------*/
FoamFile
{
    version     2.0;
    format      ascii;
    class       volScalarField;
    location    "0.07";
    object      CO2;
}
// * * * * * * * * * * * * * * * * * * * * * * * * * * * * * * * * * * * * * //

dimensions      [0 0 0 0 0 0 0];

internalField   nonuniform List<scalar> 
1997
(
0.047414
0.0474198
0.0474267
0.0474312
0.0474353
0.0474376
0.0474394
0.0474407
0.0474416
0.0474423
0.0474429
0.0474433
0.0474436
0.0474438
0.047444
0.0474442
0.0474443
0.0474444
0.0474221
0.0474278
0.0474347
0.0474393
0.0474437
0.047446
0.0474479
0.0474493
0.0474503
0.047451
0.0474516
0.0474521
0.0474524
0.0474526
0.0474529
0.047453
0.0474531
0.0474532
0.0474533
0.0474533
0.0474534
0.0474534
0.0474534
0.0474534
0.0474534
0.0474534
0.0474534
0.0474534
0.047433
0.0474385
0.0474456
0.0474503
0.0474549
0.0474573
0.0474593
0.0474608
0.0474618
0.0474626
0.0474633
0.0474637
0.0474641
0.0474643
0.0474646
0.0474647
0.0474648
0.0474649
0.047465
0.047465
0.0474651
0.0474651
0.0474651
0.0474651
0.0474651
0.0474651
0.0474651
0.0474651
0.0474651
0.0474651
0.047465
0.047465
0.0474649
0.0474648
0.0474647
0.0474645
0.0474643
0.047464
0.0474637
0.0474632
0.0474467
0.0474521
0.0474593
0.0474642
0.047469
0.0474715
0.0474736
0.0474751
0.0474763
0.0474771
0.0474777
0.0474782
0.0474786
0.0474789
0.0474791
0.0474792
0.0474794
0.0474795
0.0474795
0.0474796
0.0474796
0.0474797
0.0474797
0.0474797
0.0474797
0.0474797
0.0474797
0.0474797
0.0474797
0.0474796
0.0474796
0.0474795
0.0474795
0.0474794
0.0474792
0.0474791
0.0474788
0.0474786
0.0474782
0.0474777
0.0474771
0.0474762
0.0474751
0.0474736
0.0474714
0.047469
0.0474641
0.0474593
0.0474521
0.0474467
0.0474632
0.0474685
0.0474759
0.0474808
0.0474859
0.0474885
0.0474907
0.0474923
0.0474935
0.0474944
0.047495
0.0474955
0.0474959
0.0474962
0.0474965
0.0474966
0.0474968
0.0474969
0.0474969
0.047497
0.047497
0.047497
0.0474971
0.0474971
0.0474971
0.0474971
0.0474971
0.0474971
0.047497
0.047497
0.047497
0.0474969
0.0474968
0.0474967
0.0474966
0.0474964
0.0474962
0.0474959
0.0474955
0.047495
0.0474943
0.0474934
0.0474923
0.0474907
0.0474884
0.0474859
0.0474808
0.0474758
0.0474685
0.0474631
0.0474827
0.0474879
0.0474955
0.0475005
0.0475059
0.0475086
0.047511
0.0475126
0.0475139
0.0475148
0.0475156
0.0475161
0.0475165
0.0475168
0.047517
0.0475172
0.0475174
0.0475174
0.0475175
0.0475176
0.0475176
0.0475177
0.0475177
0.0475177
0.0475177
0.0475177
0.0475177
0.0475177
0.0475176
0.0475176
0.0475176
0.0475175
0.0475174
0.0475173
0.0475172
0.047517
0.0475168
0.0475165
0.047516
0.0475155
0.0475148
0.0475139
0.0475126
0.047511
0.0475086
0.0475059
0.0475005
0.0474954
0.0474879
0.0474827
0.0475047
0.0475099
0.0475176
0.0475228
0.0475284
0.0475312
0.0475337
0.0475354
0.0475367
0.0475377
0.0475384
0.047539
0.0475394
0.0475397
0.04754
0.0475401
0.0475403
0.0475404
0.0475405
0.0475405
0.0475406
0.0475406
0.0475406
0.0475406
0.0475407
0.0475407
0.0475406
0.0475406
0.0475406
0.0475406
0.0475405
0.0475405
0.0475404
0.0475403
0.0475401
0.04754
0.0475397
0.0475394
0.0475389
0.0475384
0.0475376
0.0475367
0.0475354
0.0475336
0.0475311
0.0475283
0.0475227
0.0475175
0.0475098
0.0475046
0.0475293
0.0475345
0.0475424
0.0475477
0.0475536
0.0475564
0.0475591
0.0475609
0.0475623
0.0475633
0.0475641
0.0475646
0.0475651
0.0475654
0.0475657
0.0475659
0.047566
0.0475661
0.0475662
0.0475663
0.0475663
0.0475663
0.0475664
0.0475664
0.0475664
0.0475664
0.0475664
0.0475664
0.0475663
0.0475663
0.0475662
0.0475662
0.0475661
0.047566
0.0475658
0.0475657
0.0475654
0.0475651
0.0475646
0.047564
0.0475632
0.0475622
0.0475608
0.047559
0.0475564
0.0475535
0.0475477
0.0475423
0.0475344
0.0475293
0.0475566
0.0475618
0.0475699
0.0475754
0.0475814
0.0475844
0.0475871
0.047589
0.0475904
0.0475915
0.0475923
0.0475929
0.0475934
0.0475937
0.047594
0.0475941
0.0475943
0.0475944
0.0475945
0.0475946
0.0475946
0.0475946
0.0475947
0.0475947
0.0475947
0.0475947
0.0475947
0.0475947
0.0475946
0.0475946
0.0475945
0.0475945
0.0475944
0.0475943
0.0475941
0.0475939
0.0475936
0.0475933
0.0475928
0.0475923
0.0475914
0.0475904
0.0475889
0.0475871
0.0475843
0.0475813
0.0475753
0.0475698
0.0475617
0.0475565
0.0475869
0.047592
0.0476003
0.047606
0.0476122
0.0476154
0.0476183
0.0476202
0.0476217
0.0476228
0.0476237
0.0476242
0.0476248
0.0476251
0.0476254
0.0476256
0.0476258
0.0476259
0.047626
0.047626
0.0476261
0.0476261
0.0476261
0.0476261
0.0476261
0.0476261
0.0476261
0.0476261
0.0476261
0.0476261
0.047626
0.0476259
0.0476258
0.0476257
0.0476255
0.0476254
0.0476251
0.0476247
0.0476242
0.0476236
0.0476228
0.0476217
0.0476202
0.0476182
0.0476153
0.0476122
0.0476059
0.0476003
0.0475919
0.0475868
0.0476202
0.0476254
0.0476339
0.0476398
0.0476462
0.0476494
0.0476525
0.0476544
0.047656
0.0476571
0.047658
0.0476586
0.0476591
0.0476595
0.0476598
0.04766
0.0476602
0.0476603
0.0476604
0.0476604
0.0476605
0.0476605
0.0476605
0.0476605
0.0476606
0.0476605
0.0476605
0.0476605
0.0476605
0.0476605
0.0476604
0.0476603
0.0476602
0.0476601
0.0476599
0.0476598
0.0476594
0.0476591
0.0476586
0.047658
0.0476571
0.0476559
0.0476544
0.0476524
0.0476494
0.0476461
0.0476397
0.0476339
0.0476253
0.0476202
0.047655
0.0476602
0.047669
0.047675
0.0476815
0.0476849
0.0476881
0.0476901
0.0476917
0.0476928
0.0476937
0.0476944
0.0476949
0.0476953
0.0476956
0.0476958
0.047696
0.047696
0.0476962
0.0476962
0.0476963
0.0476963
0.0476963
0.0476963
0.0476964
0.0476964
0.0476963
0.0476963
0.0476963
0.0476963
0.0476962
0.0476961
0.047696
0.0476959
0.0476957
0.0476956
0.0476952
0.0476949
0.0476943
0.0476937
0.0476928
0.0476916
0.04769
0.047688
0.0476849
0.0476815
0.0476749
0.047669
0.0476601
0.047655
0.0476921
0.0476973
0.0477064
0.0477125
0.0477192
0.0477227
0.0477259
0.047728
0.0477297
0.0477308
0.0477318
0.0477324
0.047733
0.0477333
0.0477336
0.0477338
0.047734
0.0477341
0.0477342
0.0477343
0.0477343
0.0477344
0.0477344
0.0477344
0.0477344
0.0477344
0.0477344
0.0477344
0.0477344
0.0477343
0.0477343
0.0477342
0.0477341
0.047734
0.0477338
0.0477336
0.0477333
0.0477329
0.0477324
0.0477317
0.0477308
0.0477296
0.047728
0.0477259
0.0477227
0.0477191
0.0477125
0.0477063
0.0476973
0.047692
0.0477314
0.0477367
0.047746
0.0477523
0.047759
0.0477627
0.047766
0.0477681
0.0477698
0.047771
0.0477719
0.0477726
0.0477732
0.0477735
0.0477738
0.047774
0.0477742
0.0477743
0.0477744
0.0477745
0.0477746
0.0477746
0.0477746
0.0477746
0.0477746
0.0477746
0.0477746
0.0477746
0.0477746
0.0477745
0.0477745
0.0477744
0.0477743
0.0477742
0.047774
0.0477738
0.0477735
0.0477731
0.0477726
0.0477719
0.047771
0.0477697
0.0477681
0.0477659
0.0477626
0.047759
0.0477522
0.0477459
0.0477366
0.0477313
0.0477735
0.0477789
0.0477885
0.047795
0.0478019
0.0478058
0.0478091
0.0478114
0.0478131
0.0478143
0.0478153
0.0478159
0.0478165
0.0478169
0.0478172
0.0478174
0.0478176
0.0478177
0.0478178
0.0478179
0.047818
0.047818
0.047818
0.047818
0.047818
0.047818
0.047818
0.047818
0.047818
0.0478179
0.0478179
0.0478178
0.0478177
0.0478176
0.0478174
0.0478172
0.0478168
0.0478165
0.0478159
0.0478153
0.0478143
0.047813
0.0478113
0.047809
0.0478057
0.0478018
0.047795
0.0477885
0.0477788
0.0477734
0.0478167
0.0478223
0.0478321
0.0478388
0.0478457
0.0478498
0.0478531
0.0478555
0.0478572
0.0478584
0.0478594
0.0478601
0.0478607
0.047861
0.0478614
0.0478616
0.0478618
0.0478619
0.047862
0.047862
0.0478621
0.0478621
0.0478622
0.0478622
0.0478622
0.0478622
0.0478622
0.0478622
0.0478621
0.0478621
0.047862
0.047862
0.0478618
0.0478617
0.0478615
0.0478613
0.047861
0.0478606
0.04786
0.0478594
0.0478584
0.0478571
0.0478554
0.047853
0.0478497
0.0478457
0.0478387
0.0478321
0.0478222
0.0478167
0.047863
0.0478686
0.0478787
0.0478855
0.0478925
0.0478967
0.0479001
0.0479025
0.0479043
0.0479056
0.0479065
0.0479072
0.0479078
0.0479082
0.0479085
0.0479087
0.0479089
0.047909
0.0479092
0.0479092
0.0479093
0.0479093
0.0479093
0.0479093
0.0479094
0.0479094
0.0479093
0.0479093
0.0479093
0.0479093
0.0479092
0.0479091
0.047909
0.0479089
0.0479087
0.0479085
0.0479081
0.0479078
0.0479072
0.0479065
0.0479055
0.0479042
0.0479025
0.0479
0.0478967
0.0478925
0.0478855
0.0478787
0.0478686
0.047863
0.0479111
0.0479169
0.0479272
0.0479341
0.0479412
0.0479455
0.0479488
0.0479513
0.0479531
0.0479544
0.0479554
0.047956
0.0479566
0.047957
0.0479574
0.0479575
0.0479578
0.0479579
0.047958
0.047958
0.0479581
0.0479581
0.0479582
0.0479582
0.0479582
0.0479582
0.0479582
0.0479582
0.0479581
0.0479581
0.047958
0.047958
0.0479578
0.0479577
0.0479575
0.0479573
0.047957
0.0479566
0.047956
0.0479553
0.0479543
0.047953
0.0479513
0.0479488
0.0479454
0.0479411
0.047934
0.0479272
0.0479169
0.0479111
0.0479594
0.0479653
0.0479758
0.0479827
0.0479899
0.0479943
0.0479977
0.0480002
0.0480019
0.0480033
0.0480042
0.0480049
0.0480055
0.0480059
0.0480062
0.0480064
0.0480066
0.0480067
0.0480069
0.0480069
0.048007
0.048007
0.048007
0.0480071
0.0480071
0.0480071
0.0480071
0.048007
0.048007
0.048007
0.0480069
0.0480068
0.0480067
0.0480066
0.0480064
0.0480062
0.0480058
0.0480055
0.0480049
0.0480042
0.0480032
0.0480019
0.0480001
0.0479976
0.0479942
0.0479898
0.0479827
0.0479757
0.0479652
0.0479593
0.04801
0.0480162
0.0480267
0.0480338
0.048041
0.0480455
0.0480489
0.0480515
0.0480533
0.0480546
0.0480556
0.0480563
0.0480569
0.0480572
0.0480576
0.0480578
0.048058
0.0480581
0.0480582
0.0480583
0.0480583
0.0480584
0.0480584
0.0480584
0.0480584
0.0480584
0.0480584
0.0480584
0.0480584
0.0480583
0.0480582
0.0480582
0.0480581
0.048058
0.0480577
0.0480576
0.0480572
0.0480568
0.0480562
0.0480555
0.0480546
0.0480532
0.0480514
0.0480489
0.0480454
0.0480409
0.0480337
0.0480267
0.0480161
0.0480099
0.048062
0.0480674
0.0480777
0.0480847
0.048092
0.0480965
0.0481
0.0481025
0.0481043
0.0481057
0.0481066
0.0481073
0.0481079
0.0481083
0.0481086
0.0481088
0.0481091
0.0481091
0.0481093
0.0481093
0.0481094
0.0481094
0.0481095
0.0481095
0.0481095
0.0481095
0.0481095
0.0481095
0.0481094
0.0481094
0.0481093
0.0481093
0.0481091
0.048109
0.0481088
0.0481086
0.0481082
0.0481079
0.0481073
0.0481066
0.0481056
0.0481043
0.0481025
0.0481
0.0480965
0.0480919
0.0480846
0.0480776
0.0480673
0.048062
0.0481136
0.0481192
0.0481294
0.0481364
0.0481438
0.0481484
0.0481518
0.0481544
0.0481562
0.0481575
0.0481584
0.0481591
0.0481597
0.0481601
0.0481604
0.0481606
0.0481608
0.0481609
0.0481611
0.0481611
0.0481612
0.0481612
0.0481613
0.0481613
0.0481613
0.0481613
0.0481613
0.0481613
0.0481612
0.0481612
0.0481611
0.0481611
0.0481609
0.0481608
0.0481606
0.0481604
0.04816
0.0481597
0.0481591
0.0481584
0.0481574
0.0481561
0.0481543
0.0481518
0.0481483
0.0481438
0.0481364
0.0481294
0.0481191
0.0481135
0.0481668
0.0481726
0.0481829
0.0481899
0.0481974
0.048202
0.0482054
0.048208
0.0482098
0.0482111
0.0482121
0.0482127
0.0482133
0.0482137
0.048214
0.0482142
0.0482144
0.0482145
0.0482147
0.0482147
0.0482148
0.0482148
0.0482149
0.0482149
0.0482149
0.0482149
0.0482149
0.0482148
0.0482148
0.0482148
0.0482147
0.0482146
0.0482145
0.0482144
0.0482142
0.048214
0.0482136
0.0482133
0.0482127
0.048212
0.0482111
0.0482097
0.0482079
0.0482054
0.0482019
0.0481974
0.0481899
0.0481829
0.0481725
0.0481668
0.0482195
0.0482254
0.0482358
0.0482427
0.0482502
0.0482548
0.0482582
0.0482607
0.0482625
0.0482638
0.0482648
0.0482654
0.048266
0.0482664
0.0482667
0.0482669
0.0482671
0.0482672
0.0482674
0.0482674
0.0482675
0.0482675
0.0482675
0.0482675
0.0482676
0.0482676
0.0482675
0.0482675
0.0482675
0.0482675
0.0482674
0.0482673
0.0482672
0.0482671
0.0482669
0.0482667
0.0482663
0.048266
0.0482654
0.0482647
0.0482638
0.0482625
0.0482607
0.0482582
0.0482547
0.0482502
0.0482427
0.0482357
0.0482253
0.0482194
0.0482724
0.0482784
0.0482888
0.0482957
0.0483032
0.0483077
0.0483111
0.0483136
0.0483154
0.0483167
0.0483176
0.0483183
0.0483189
0.0483193
0.0483196
0.0483198
0.04832
0.0483201
0.0483203
0.0483203
0.0483204
0.0483204
0.0483205
0.0483205
0.0483205
0.0483205
0.0483205
0.0483204
0.0483204
0.0483204
0.0483203
0.0483202
0.0483201
0.04832
0.0483198
0.0483196
0.0483192
0.0483189
0.0483183
0.0483176
0.0483167
0.0483153
0.0483135
0.048311
0.0483076
0.0483031
0.0482956
0.0482887
0.0482783
0.0482723
0.0483262
0.0483324
0.0483428
0.0483498
0.0483572
0.0483618
0.0483651
0.0483676
0.0483694
0.0483707
0.0483716
0.0483723
0.0483729
0.0483732
0.0483736
0.0483738
0.048374
0.0483741
0.0483742
0.0483743
0.0483744
0.0483744
0.0483744
0.0483744
0.0483744
0.0483744
0.0483744
0.0483744
0.0483744
0.0483743
0.0483743
0.0483742
0.0483741
0.048374
0.0483738
0.0483736
0.0483732
0.0483729
0.0483723
0.0483716
0.0483707
0.0483693
0.0483676
0.0483651
0.0483617
0.0483571
0.0483497
0.0483428
0.0483323
0.0483261
0.0483803
0.0483852
0.0483956
0.0484025
0.0484097
0.0484143
0.0484176
0.04842
0.0484218
0.048423
0.048424
0.0484246
0.0484252
0.0484255
0.0484259
0.0484261
0.0484263
0.0484264
0.0484265
0.0484266
0.0484266
0.0484267
0.0484267
0.0484267
0.0484267
0.0484267
0.0484267
0.0484267
0.0484267
0.0484266
0.0484265
0.0484265
0.0484264
0.0484263
0.0484261
0.0484259
0.0484255
0.0484252
0.0484246
0.0484239
0.048423
0.0484217
0.04842
0.0484175
0.0484142
0.0484097
0.0484024
0.0483955
0.0483851
0.0483802
0.0484325
0.0484376
0.0484483
0.0484553
0.0484626
0.0484672
0.0484704
0.0484729
0.0484746
0.0484759
0.0484768
0.0484775
0.048478
0.0484783
0.0484787
0.0484789
0.0484791
0.0484792
0.0484793
0.0484794
0.0484794
0.0484795
0.0484795
0.0484795
0.0484795
0.0484795
0.0484795
0.0484795
0.0484794
0.0484794
0.0484793
0.0484793
0.0484792
0.0484791
0.0484788
0.0484787
0.0484783
0.048478
0.0484774
0.0484767
0.0484758
0.0484745
0.0484728
0.0484703
0.0484672
0.0484625
0.0484552
0.0484483
0.0484376
0.0484325
0.0484841
0.0484892
0.0484999
0.0485067
0.0485139
0.0485184
0.0485215
0.0485239
0.0485256
0.0485269
0.0485277
0.0485284
0.0485289
0.0485293
0.0485296
0.0485298
0.04853
0.0485301
0.0485302
0.0485303
0.0485303
0.0485304
0.0485304
0.0485304
0.0485304
0.0485304
0.0485304
0.0485304
0.0485303
0.0485303
0.0485302
0.0485302
0.0485301
0.04853
0.0485298
0.0485296
0.0485292
0.0485289
0.0485284
0.0485277
0.0485268
0.0485255
0.0485239
0.0485214
0.0485184
0.0485138
0.0485066
0.0484998
0.0484892
0.048484
0.0485347
0.0485399
0.0485504
0.0485571
0.0485642
0.0485688
0.0485719
0.0485743
0.048576
0.0485772
0.0485781
0.0485787
0.0485792
0.0485796
0.0485799
0.0485801
0.0485803
0.0485804
0.0485805
0.0485806
0.0485806
0.0485807
0.0485807
0.0485807
0.0485807
0.0485807
0.0485807
0.0485807
0.0485806
0.0485806
0.0485805
0.0485805
0.0485804
0.0485803
0.0485801
0.0485799
0.0485795
0.0485792
0.0485787
0.048578
0.0485772
0.0485759
0.0485742
0.0485718
0.0485688
0.0485641
0.048557
0.0485503
0.0485398
0.0485347
0.0485853
0.0485904
0.0485998
0.0486063
0.0486133
0.0486178
0.0486207
0.0486231
0.0486247
0.0486259
0.0486267
0.0486274
0.0486279
0.0486282
0.0486285
0.0486287
0.0486289
0.048629
0.0486291
0.0486292
0.0486292
0.0486293
0.0486293
0.0486293
0.0486293
0.0486293
0.0486293
0.0486293
0.0486293
0.0486292
0.0486291
0.0486291
0.048629
0.0486289
0.0486287
0.0486285
0.0486282
0.0486278
0.0486273
0.0486267
0.0486258
0.0486246
0.048623
0.0486206
0.0486177
0.0486132
0.0486062
0.0485997
0.0485904
0.0485852
0.0486335
0.0486386
0.0486481
0.0486545
0.0486616
0.0486661
0.0486689
0.0486712
0.0486728
0.048674
0.0486748
0.0486754
0.0486759
0.0486762
0.0486766
0.0486767
0.0486769
0.048677
0.0486771
0.0486772
0.0486772
0.0486773
0.0486773
0.0486773
0.0486773
0.0486773
0.0486773
0.0486773
0.0486773
0.0486772
0.0486771
0.0486771
0.048677
0.0486769
0.0486767
0.0486765
0.0486762
0.0486759
0.0486754
0.0486747
0.0486739
0.0486727
0.0486711
0.0486688
0.048666
0.0486615
0.0486544
0.048648
0.0486386
0.0486335
0.0486814
0.0486865
0.0486958
0.048702
0.0487076
0.048712
0.0487147
0.048717
0.0487184
0.0487196
0.0487204
0.048721
0.0487215
0.0487218
0.0487221
0.0487223
0.0487225
0.0487225
0.0487227
0.0487227
0.0487228
0.0487228
0.0487228
0.0487228
0.0487229
0.0487229
0.0487228
0.0487228
0.0487228
0.0487228
0.0487227
0.0487226
0.0487225
0.0487224
0.0487222
0.0487221
0.0487217
0.0487214
0.048721
0.0487203
0.0487195
0.0487184
0.0487169
0.0487146
0.0487119
0.0487075
0.0487019
0.0486957
0.0486864
0.0486813
0.0487265
0.0487315
0.0487406
0.0487465
0.0487519
0.0487563
0.0487589
0.0487611
0.0487626
0.0487637
0.0487644
0.048765
0.0487655
0.0487658
0.0487661
0.0487663
0.0487665
0.0487665
0.0487667
0.0487667
0.0487668
0.0487668
0.0487668
0.0487668
0.0487669
0.0487669
0.0487668
0.0487668
0.0487668
0.0487668
0.0487667
0.0487666
0.0487665
0.0487664
0.0487662
0.0487661
0.0487658
0.0487655
0.048765
0.0487644
0.0487636
0.0487625
0.048761
0.0487588
0.0487562
0.0487519
0.0487464
0.0487405
0.0487314
0.0487264
0.0487698
0.0487746
0.0487834
0.0487891
0.0487943
0.0487985
0.0488009
0.0488031
0.0488044
0.0488055
0.0488062
0.0488068
0.0488073
0.0488076
0.0488079
0.048808
0.0488082
0.0488083
0.0488084
0.0488084
0.0488085
0.0488085
0.0488086
0.0488086
0.0488086
0.0488086
0.0488086
0.0488086
0.0488085
0.0488085
0.0488084
0.0488084
0.0488083
0.0488082
0.048808
0.0488078
0.0488075
0.0488072
0.0488068
0.0488062
0.0488055
0.0488044
0.048803
0.0488008
0.0487984
0.0487942
0.048789
0.0487833
0.0487745
0.0487697
0.048811
0.0488157
0.0488242
0.0488296
0.0488345
0.0488387
0.048841
0.0488432
0.0488445
0.0488455
0.0488462
0.0488467
0.0488472
0.0488474
0.0488477
0.0488479
0.048848
0.0488481
0.0488482
0.0488482
0.0488483
0.0488483
0.0488484
0.0488484
0.0488484
0.0488484
0.0488484
0.0488484
0.0488483
0.0488483
0.0488482
0.0488482
0.0488481
0.048848
0.0488478
0.0488477
0.0488474
0.0488471
0.0488467
0.0488462
0.0488454
0.0488444
0.0488431
0.0488409
0.0488386
0.0488345
0.0488295
0.0488241
0.0488156
0.0488109
0.04885
0.0488546
0.0488627
0.0488679
0.0488726
0.0488765
0.0488788
0.0488808
0.048882
0.048883
0.0488837
0.0488842
0.0488846
0.0488848
0.0488851
0.0488853
0.0488854
0.0488855
0.0488856
0.0488856
0.0488857
0.0488857
0.0488858
0.0488858
0.0488858
0.0488858
0.0488858
0.0488858
0.0488857
0.0488857
0.0488856
0.0488856
0.0488855
0.0488854
0.0488852
0.0488851
0.0488848
0.0488846
0.0488842
0.0488836
0.0488829
0.0488819
0.0488807
0.0488787
0.0488764
0.0488725
0.0488679
0.0488626
0.0488545
0.04885
0.0488868
0.0488913
0.0488989
0.0489039
0.0489084
0.0489121
0.0489142
0.0489161
0.0489173
0.0489182
0.0489188
0.0489193
0.0489197
0.0489199
0.0489202
0.0489203
0.0489205
0.0489206
0.0489207
0.0489207
0.0489208
0.0489208
0.0489208
0.0489208
0.0489208
0.0489208
0.0489208
0.0489208
0.0489208
0.0489207
0.0489207
0.0489206
0.0489205
0.0489205
0.0489203
0.0489202
0.0489199
0.0489196
0.0489193
0.0489188
0.0489181
0.0489172
0.048916
0.0489141
0.048912
0.0489083
0.0489038
0.0488988
0.0488912
0.0488867
0.0489213
0.0489255
0.0489327
0.0489375
0.0489417
0.0489452
0.0489471
0.0489489
0.0489501
0.0489509
0.0489515
0.048952
0.0489523
0.0489526
0.0489528
0.048953
0.0489531
0.0489532
0.0489533
0.0489533
0.0489534
0.0489534
0.0489534
0.0489534
0.0489535
0.0489535
0.0489534
0.0489534
0.0489534
0.0489534
0.0489533
0.0489533
0.0489532
0.0489531
0.0489529
0.0489528
0.0489526
0.0489523
0.048952
0.0489515
0.0489509
0.04895
0.0489488
0.048947
0.0489451
0.0489416
0.0489374
0.0489327
0.0489254
0.0489212
0.0489533
0.0489575
0.0489641
0.0489686
0.0489725
0.0489758
0.0489776
0.0489793
0.0489804
0.0489812
0.0489818
0.0489822
0.0489825
0.0489828
0.048983
0.0489831
0.0489833
0.0489833
0.0489834
0.0489835
0.0489835
0.0489835
0.0489836
0.0489836
0.0489836
0.0489836
0.0489836
0.0489836
0.0489835
0.0489835
0.0489835
0.0489834
0.0489833
0.0489833
0.0489831
0.048983
0.0489827
0.0489825
0.0489822
0.0489817
0.0489811
0.0489803
0.0489792
0.0489775
0.0489757
0.0489724
0.0489685
0.048964
0.0489574
0.0489532
0.0489828
0.0489868
0.048993
0.0489972
0.0490009
0.0490039
0.0490056
0.0490072
0.0490082
0.0490089
0.0490095
0.0490099
0.0490102
0.0490104
0.0490107
0.0490108
0.0490109
0.049011
0.0490111
0.0490111
0.0490112
0.0490112
0.0490112
0.0490112
0.0490112
0.0490112
0.0490112
0.0490112
0.0490112
0.0490111
0.0490111
0.0490111
0.049011
0.0490109
0.0490107
0.0490106
0.0490104
0.0490102
0.0490099
0.0490094
0.0490089
0.0490081
0.0490071
0.0490055
0.0490038
0.0490008
0.0489971
0.0489929
0.0489867
0.0489827
0.0490097
0.0490135
0.0490193
0.0490232
0.0490267
0.0490294
0.049031
0.0490325
0.0490334
0.0490342
0.0490347
)
;

boundaryField
{
    fuel
    {
        type            fixedValue;
        value           nonuniform 0();
    }
    wall
    {
        type            zeroGradient;
    }
    outlet
    {
        type            zeroGradient;
    }
    frontAndBack
    {
        type            empty;
    }
    procBoundary2to0
    {
        type            processor;
        value           nonuniform List<scalar> 
53
(
0.0474088
0.0474147
0.0474215
0.047426
0.0474298
0.047432
0.0474337
0.0474349
0.0474358
0.0474365
0.047437
0.0474373
0.0474376
0.0474379
0.0474381
0.0474382
0.0474383
0.0474384
0.0474444
0.0474444
0.0474445
0.0474445
0.0474445
0.0474445
0.0474446
0.0474446
0.0474446
0.0474446
0.0474445
0.0474534
0.0474534
0.0474533
0.0474533
0.0474533
0.0474532
0.0474531
0.047453
0.0474528
0.0474526
0.0474524
0.047452
0.0474516
0.0474626
0.0474626
0.0474618
0.0474607
0.0474593
0.0474573
0.0474549
0.0474503
0.0474456
0.0474385
0.047433
)
;
    }
    procBoundary2to3
    {
        type            processor;
        value           nonuniform List<scalar> 
51
(
0.0490351
0.0490354
0.0490356
0.0490358
0.0490359
0.0490361
0.0490361
0.0490362
0.0490362
0.0490363
0.0490363
0.0490363
0.0490364
0.0490364
0.0490364
0.0490363
0.0490363
0.0490363
0.0490363
0.0490362
0.0490362
0.0490361
0.049036
0.0490359
0.0490358
0.0490356
0.0490354
0.0490351
0.0490347
0.0490341
0.0490334
0.0490325
0.049031
0.0490294
0.0490266
0.0490232
0.0490193
0.0490135
0.0490097
0.0490342
0.0490378
0.0490431
0.0490467
0.0490499
0.0490525
0.049054
0.0490553
0.0490562
0.0490569
0.0490351
0.0490573
)
;
    }
}


// ************************************************************************* //
