/*--------------------------------*- C++ -*----------------------------------*\
| =========                 |                                                 |
| \\      /  F ield         | OpenFOAM: The Open Source CFD Toolbox           |
|  \\    /   O peration     | Version:  dev                                   |
|   \\  /    A nd           | Web:      www.OpenFOAM.org                      |
|    \\/     M anipulation  |                                                 |
\*---------------------------------------------------------------------------*/
FoamFile
{
    version     2.0;
    format      ascii;
    class       volScalarField;
    location    "0.07";
    object      naphthyne;
}
// * * * * * * * * * * * * * * * * * * * * * * * * * * * * * * * * * * * * * //

dimensions      [0 0 0 0 0 0 0];

internalField   nonuniform List<scalar> 
1997
(
2.0159e-09
2.02252e-09
2.02877e-09
2.03296e-09
2.0361e-09
2.0378e-09
2.03905e-09
2.03992e-09
2.04046e-09
2.04093e-09
2.04123e-09
2.04151e-09
2.0417e-09
2.04187e-09
2.04198e-09
2.04209e-09
2.04216e-09
2.04223e-09
2.00979e-09
2.01621e-09
2.02244e-09
2.02666e-09
2.02999e-09
2.03175e-09
2.03308e-09
2.034e-09
2.03459e-09
2.03509e-09
2.03543e-09
2.03572e-09
2.03593e-09
2.03611e-09
2.03623e-09
2.03634e-09
2.03642e-09
2.03649e-09
2.03653e-09
2.03657e-09
2.03659e-09
2.03661e-09
2.03662e-09
2.03664e-09
2.03664e-09
2.03664e-09
2.03664e-09
2.03662e-09
2.00634e-09
2.01257e-09
2.01881e-09
2.02307e-09
2.0266e-09
2.02842e-09
2.02984e-09
2.03081e-09
2.03146e-09
2.03199e-09
2.03236e-09
2.03267e-09
2.03289e-09
2.03308e-09
2.03322e-09
2.03333e-09
2.03341e-09
2.03348e-09
2.03353e-09
2.03357e-09
2.0336e-09
2.03362e-09
2.03363e-09
2.03364e-09
2.03364e-09
2.03364e-09
2.03364e-09
2.03363e-09
2.03362e-09
2.0336e-09
2.03358e-09
2.03354e-09
2.03349e-09
2.03342e-09
2.03334e-09
2.03322e-09
2.03309e-09
2.0329e-09
2.03268e-09
2.03237e-09
2.00553e-09
2.01158e-09
2.01787e-09
2.02219e-09
2.02591e-09
2.02779e-09
2.02931e-09
2.03034e-09
2.03105e-09
2.03161e-09
2.03201e-09
2.03234e-09
2.03258e-09
2.03277e-09
2.03292e-09
2.03304e-09
2.03312e-09
2.03319e-09
2.03325e-09
2.03329e-09
2.03331e-09
2.03334e-09
2.03335e-09
2.03336e-09
2.03336e-09
2.03336e-09
2.03336e-09
2.03335e-09
2.03334e-09
2.03332e-09
2.03329e-09
2.03325e-09
2.0332e-09
2.03313e-09
2.03304e-09
2.03292e-09
2.03278e-09
2.03258e-09
2.03234e-09
2.03201e-09
2.03161e-09
2.03105e-09
2.03034e-09
2.02931e-09
2.02779e-09
2.02591e-09
2.02219e-09
2.01786e-09
2.01158e-09
2.00553e-09
2.00732e-09
2.01323e-09
2.01959e-09
2.02398e-09
2.0279e-09
2.02986e-09
2.03146e-09
2.03255e-09
2.03332e-09
2.03391e-09
2.03434e-09
2.03469e-09
2.03494e-09
2.03515e-09
2.03531e-09
2.03543e-09
2.03552e-09
2.03559e-09
2.03565e-09
2.03569e-09
2.03572e-09
2.03574e-09
2.03576e-09
2.03577e-09
2.03577e-09
2.03577e-09
2.03577e-09
2.03576e-09
2.03574e-09
2.03572e-09
2.03569e-09
2.03565e-09
2.0356e-09
2.03553e-09
2.03543e-09
2.03531e-09
2.03515e-09
2.03495e-09
2.03469e-09
2.03435e-09
2.03392e-09
2.03332e-09
2.03255e-09
2.03146e-09
2.02985e-09
2.0279e-09
2.02398e-09
2.01959e-09
2.01323e-09
2.00732e-09
2.01177e-09
2.01755e-09
2.02401e-09
2.02849e-09
2.03262e-09
2.03465e-09
2.03637e-09
2.03752e-09
2.03834e-09
2.03897e-09
2.03943e-09
2.03979e-09
2.04007e-09
2.04029e-09
2.04046e-09
2.04058e-09
2.04068e-09
2.04075e-09
2.04082e-09
2.04086e-09
2.04089e-09
2.04091e-09
2.04092e-09
2.04093e-09
2.04094e-09
2.04094e-09
2.04093e-09
2.04092e-09
2.04091e-09
2.04089e-09
2.04086e-09
2.04082e-09
2.04076e-09
2.04068e-09
2.04058e-09
2.04046e-09
2.04029e-09
2.04008e-09
2.0398e-09
2.03944e-09
2.03898e-09
2.03834e-09
2.03752e-09
2.03637e-09
2.03465e-09
2.03262e-09
2.02848e-09
2.02401e-09
2.01755e-09
2.01177e-09
2.01872e-09
2.0244e-09
2.03099e-09
2.03555e-09
2.03988e-09
2.042e-09
2.04381e-09
2.04503e-09
2.0459e-09
2.04656e-09
2.04706e-09
2.04743e-09
2.04773e-09
2.04795e-09
2.04813e-09
2.04826e-09
2.04837e-09
2.04844e-09
2.04851e-09
2.04855e-09
2.04858e-09
2.0486e-09
2.04862e-09
2.04863e-09
2.04863e-09
2.04863e-09
2.04863e-09
2.04862e-09
2.0486e-09
2.04858e-09
2.04855e-09
2.04851e-09
2.04844e-09
2.04837e-09
2.04826e-09
2.04813e-09
2.04795e-09
2.04773e-09
2.04744e-09
2.04706e-09
2.04657e-09
2.0459e-09
2.04503e-09
2.04381e-09
2.04199e-09
2.03988e-09
2.03555e-09
2.03098e-09
2.0244e-09
2.01872e-09
2.0282e-09
2.03381e-09
2.04054e-09
2.0452e-09
2.04972e-09
2.05192e-09
2.05385e-09
2.05512e-09
2.05605e-09
2.05675e-09
2.05728e-09
2.05767e-09
2.05799e-09
2.05822e-09
2.05842e-09
2.05855e-09
2.05866e-09
2.05874e-09
2.05881e-09
2.05885e-09
2.05889e-09
2.05891e-09
2.05892e-09
2.05893e-09
2.05894e-09
2.05894e-09
2.05893e-09
2.05892e-09
2.05891e-09
2.05889e-09
2.05885e-09
2.05881e-09
2.05874e-09
2.05866e-09
2.05855e-09
2.05842e-09
2.05822e-09
2.05799e-09
2.05768e-09
2.05728e-09
2.05675e-09
2.05605e-09
2.05512e-09
2.05385e-09
2.05192e-09
2.04971e-09
2.0452e-09
2.04053e-09
2.0338e-09
2.0282e-09
2.04018e-09
2.04572e-09
2.05262e-09
2.05739e-09
2.06208e-09
2.06439e-09
2.06642e-09
2.06775e-09
2.06873e-09
2.06946e-09
2.07002e-09
2.07043e-09
2.07077e-09
2.071e-09
2.07121e-09
2.07134e-09
2.07146e-09
2.07154e-09
2.07161e-09
2.07165e-09
2.07169e-09
2.07171e-09
2.07173e-09
2.07174e-09
2.07175e-09
2.07175e-09
2.07174e-09
2.07173e-09
2.07171e-09
2.07169e-09
2.07165e-09
2.07161e-09
2.07154e-09
2.07146e-09
2.07134e-09
2.07121e-09
2.071e-09
2.07077e-09
2.07043e-09
2.07002e-09
2.06946e-09
2.06873e-09
2.06775e-09
2.06642e-09
2.06438e-09
2.06208e-09
2.05739e-09
2.05262e-09
2.04572e-09
2.04018e-09
2.05481e-09
2.06028e-09
2.06736e-09
2.07226e-09
2.07715e-09
2.07956e-09
2.08173e-09
2.08312e-09
2.08415e-09
2.08492e-09
2.08551e-09
2.08594e-09
2.0863e-09
2.08654e-09
2.08676e-09
2.08689e-09
2.08702e-09
2.0871e-09
2.08718e-09
2.08722e-09
2.08726e-09
2.08728e-09
2.0873e-09
2.08731e-09
2.08732e-09
2.08732e-09
2.08731e-09
2.0873e-09
2.08728e-09
2.08726e-09
2.08722e-09
2.08718e-09
2.0871e-09
2.08702e-09
2.08689e-09
2.08675e-09
2.08654e-09
2.08629e-09
2.08594e-09
2.08551e-09
2.08492e-09
2.08415e-09
2.08311e-09
2.08172e-09
2.07956e-09
2.07714e-09
2.07226e-09
2.06736e-09
2.06028e-09
2.05481e-09
2.07213e-09
2.0776e-09
2.08487e-09
2.0899e-09
2.09494e-09
2.09746e-09
2.09973e-09
2.10118e-09
2.10226e-09
2.10306e-09
2.10367e-09
2.10412e-09
2.10449e-09
2.10474e-09
2.10496e-09
2.1051e-09
2.10524e-09
2.10531e-09
2.1054e-09
2.10544e-09
2.10548e-09
2.1055e-09
2.10553e-09
2.10553e-09
2.10554e-09
2.10554e-09
2.10553e-09
2.10553e-09
2.1055e-09
2.10548e-09
2.10544e-09
2.1054e-09
2.10531e-09
2.10524e-09
2.1051e-09
2.10496e-09
2.10473e-09
2.10449e-09
2.10412e-09
2.10368e-09
2.10306e-09
2.10226e-09
2.10117e-09
2.09972e-09
2.09746e-09
2.09493e-09
2.08989e-09
2.08487e-09
2.0776e-09
2.07213e-09
2.09125e-09
2.09672e-09
2.10419e-09
2.10935e-09
2.11452e-09
2.11716e-09
2.11951e-09
2.12102e-09
2.12215e-09
2.12298e-09
2.12361e-09
2.12407e-09
2.12445e-09
2.12471e-09
2.12494e-09
2.12508e-09
2.12523e-09
2.1253e-09
2.12539e-09
2.12543e-09
2.12548e-09
2.1255e-09
2.12552e-09
2.12553e-09
2.12554e-09
2.12554e-09
2.12553e-09
2.12552e-09
2.1255e-09
2.12548e-09
2.12543e-09
2.12539e-09
2.1253e-09
2.12523e-09
2.12508e-09
2.12494e-09
2.12471e-09
2.12445e-09
2.12407e-09
2.12361e-09
2.12298e-09
2.12214e-09
2.12102e-09
2.11951e-09
2.11716e-09
2.11451e-09
2.10934e-09
2.10419e-09
2.09671e-09
2.09125e-09
2.11256e-09
2.11804e-09
2.12572e-09
2.131e-09
2.13629e-09
2.13906e-09
2.14148e-09
2.14305e-09
2.14421e-09
2.14507e-09
2.14573e-09
2.14619e-09
2.14659e-09
2.14685e-09
2.1471e-09
2.14724e-09
2.14739e-09
2.14746e-09
2.14755e-09
2.14759e-09
2.14764e-09
2.14766e-09
2.14769e-09
2.14769e-09
2.1477e-09
2.1477e-09
2.14769e-09
2.14769e-09
2.14766e-09
2.14764e-09
2.14759e-09
2.14755e-09
2.14746e-09
2.14739e-09
2.14723e-09
2.14709e-09
2.14685e-09
2.14659e-09
2.14619e-09
2.14573e-09
2.14507e-09
2.14421e-09
2.14305e-09
2.14147e-09
2.13905e-09
2.13629e-09
2.131e-09
2.12572e-09
2.11804e-09
2.11256e-09
2.13594e-09
2.14145e-09
2.14934e-09
2.15474e-09
2.16012e-09
2.16302e-09
2.16549e-09
2.16713e-09
2.16832e-09
2.1692e-09
2.16988e-09
2.17035e-09
2.17076e-09
2.17103e-09
2.17128e-09
2.17142e-09
2.17158e-09
2.17165e-09
2.17174e-09
2.17178e-09
2.17183e-09
2.17185e-09
2.17188e-09
2.17189e-09
2.1719e-09
2.1719e-09
2.17189e-09
2.17188e-09
2.17185e-09
2.17183e-09
2.17178e-09
2.17174e-09
2.17165e-09
2.17157e-09
2.17142e-09
2.17128e-09
2.17102e-09
2.17076e-09
2.17035e-09
2.16988e-09
2.1692e-09
2.16832e-09
2.16712e-09
2.16548e-09
2.16301e-09
2.16011e-09
2.15473e-09
2.14933e-09
2.14145e-09
2.13594e-09
2.16173e-09
2.16729e-09
2.17543e-09
2.18099e-09
2.18648e-09
2.18953e-09
2.19205e-09
2.19378e-09
2.195e-09
2.19591e-09
2.19661e-09
2.1971e-09
2.19752e-09
2.19778e-09
2.19804e-09
2.19819e-09
2.19835e-09
2.19842e-09
2.19852e-09
2.19856e-09
2.19861e-09
2.19863e-09
2.19866e-09
2.19867e-09
2.19868e-09
2.19868e-09
2.19867e-09
2.19866e-09
2.19863e-09
2.19861e-09
2.19856e-09
2.19852e-09
2.19842e-09
2.19834e-09
2.19818e-09
2.19804e-09
2.19778e-09
2.19751e-09
2.19709e-09
2.19661e-09
2.19591e-09
2.195e-09
2.19377e-09
2.19205e-09
2.18953e-09
2.18647e-09
2.18098e-09
2.17542e-09
2.16729e-09
2.16173e-09
2.18881e-09
2.19442e-09
2.20274e-09
2.20841e-09
2.21395e-09
2.21713e-09
2.21967e-09
2.22146e-09
2.2227e-09
2.22363e-09
2.22434e-09
2.22483e-09
2.22526e-09
2.22553e-09
2.2258e-09
2.22594e-09
2.2261e-09
2.22618e-09
2.22628e-09
2.22631e-09
2.22637e-09
2.22639e-09
2.22642e-09
2.22642e-09
2.22643e-09
2.22643e-09
2.22642e-09
2.22642e-09
2.22639e-09
2.22637e-09
2.22631e-09
2.22627e-09
2.22618e-09
2.2261e-09
2.22594e-09
2.22579e-09
2.22553e-09
2.22526e-09
2.22483e-09
2.22434e-09
2.22363e-09
2.2227e-09
2.22145e-09
2.21967e-09
2.21712e-09
2.21394e-09
2.2084e-09
2.20273e-09
2.19441e-09
2.18881e-09
2.21822e-09
2.22386e-09
2.23234e-09
2.2381e-09
2.2437e-09
2.247e-09
2.24957e-09
2.25141e-09
2.25268e-09
2.25363e-09
2.25434e-09
2.25484e-09
2.25528e-09
2.25555e-09
2.25582e-09
2.25596e-09
2.25613e-09
2.2562e-09
2.2563e-09
2.25634e-09
2.2564e-09
2.25642e-09
2.25645e-09
2.25645e-09
2.25646e-09
2.25646e-09
2.25645e-09
2.25645e-09
2.25642e-09
2.2564e-09
2.25634e-09
2.2563e-09
2.2562e-09
2.25613e-09
2.25596e-09
2.25581e-09
2.25554e-09
2.25527e-09
2.25484e-09
2.25434e-09
2.25363e-09
2.25267e-09
2.2514e-09
2.24956e-09
2.24699e-09
2.24369e-09
2.2381e-09
2.23234e-09
2.22385e-09
2.21822e-09
2.2491e-09
2.25481e-09
2.26341e-09
2.26923e-09
2.27485e-09
2.27822e-09
2.2808e-09
2.28269e-09
2.28395e-09
2.28491e-09
2.28562e-09
2.28613e-09
2.28657e-09
2.28684e-09
2.28711e-09
2.28726e-09
2.28742e-09
2.2875e-09
2.2876e-09
2.28764e-09
2.2877e-09
2.28771e-09
2.28774e-09
2.28775e-09
2.28776e-09
2.28776e-09
2.28775e-09
2.28774e-09
2.28771e-09
2.28769e-09
2.28763e-09
2.2876e-09
2.2875e-09
2.28742e-09
2.28725e-09
2.28711e-09
2.28683e-09
2.28656e-09
2.28613e-09
2.28563e-09
2.28491e-09
2.28394e-09
2.28267e-09
2.2808e-09
2.27822e-09
2.27484e-09
2.26922e-09
2.26341e-09
2.25481e-09
2.24909e-09
2.28016e-09
2.28593e-09
2.29462e-09
2.30046e-09
2.30611e-09
2.30953e-09
2.31212e-09
2.31401e-09
2.31528e-09
2.31625e-09
2.31695e-09
2.31746e-09
2.3179e-09
2.31817e-09
2.31844e-09
2.31858e-09
2.31875e-09
2.31883e-09
2.31893e-09
2.31896e-09
2.31903e-09
2.31904e-09
2.31907e-09
2.31908e-09
2.31909e-09
2.31909e-09
2.31908e-09
2.31907e-09
2.31904e-09
2.31902e-09
2.31896e-09
2.31893e-09
2.31882e-09
2.31875e-09
2.31858e-09
2.31844e-09
2.31816e-09
2.31789e-09
2.31746e-09
2.31695e-09
2.31625e-09
2.31527e-09
2.314e-09
2.31211e-09
2.30952e-09
2.3061e-09
2.30045e-09
2.29462e-09
2.28593e-09
2.28016e-09
2.31269e-09
2.31856e-09
2.32725e-09
2.33309e-09
2.33877e-09
2.34224e-09
2.34484e-09
2.34672e-09
2.34801e-09
2.34897e-09
2.34968e-09
2.35019e-09
2.35062e-09
2.35089e-09
2.35117e-09
2.35131e-09
2.35148e-09
2.35155e-09
2.35166e-09
2.35169e-09
2.35175e-09
2.35177e-09
2.3518e-09
2.35181e-09
2.35182e-09
2.35182e-09
2.35181e-09
2.3518e-09
2.35177e-09
2.35175e-09
2.35169e-09
2.35165e-09
2.35155e-09
2.35148e-09
2.35131e-09
2.35116e-09
2.35089e-09
2.35062e-09
2.35018e-09
2.34968e-09
2.34898e-09
2.348e-09
2.34671e-09
2.34483e-09
2.34223e-09
2.33876e-09
2.33308e-09
2.32725e-09
2.31856e-09
2.31269e-09
2.34588e-09
2.35114e-09
2.35954e-09
2.36532e-09
2.371e-09
2.37445e-09
2.37704e-09
2.37889e-09
2.38018e-09
2.38113e-09
2.38183e-09
2.38233e-09
2.38276e-09
2.38303e-09
2.3833e-09
2.38344e-09
2.38361e-09
2.38368e-09
2.38378e-09
2.38382e-09
2.38388e-09
2.38389e-09
2.38393e-09
2.38393e-09
2.38394e-09
2.38394e-09
2.38393e-09
2.38393e-09
2.38389e-09
2.38388e-09
2.38382e-09
2.38378e-09
2.38368e-09
2.3836e-09
2.38344e-09
2.38329e-09
2.38302e-09
2.38276e-09
2.38233e-09
2.38183e-09
2.38113e-09
2.38017e-09
2.37888e-09
2.37703e-09
2.37444e-09
2.37099e-09
2.36531e-09
2.35954e-09
2.35114e-09
2.34588e-09
2.37822e-09
2.38355e-09
2.39181e-09
2.3975e-09
2.40317e-09
2.40655e-09
2.4091e-09
2.41093e-09
2.4122e-09
2.41313e-09
2.41381e-09
2.4143e-09
2.41473e-09
2.41499e-09
2.41526e-09
2.4154e-09
2.41556e-09
2.41563e-09
2.41574e-09
2.41577e-09
2.41583e-09
2.41585e-09
2.41588e-09
2.41589e-09
2.4159e-09
2.4159e-09
2.41588e-09
2.41588e-09
2.41585e-09
2.41583e-09
2.41577e-09
2.41573e-09
2.41563e-09
2.41556e-09
2.41539e-09
2.41525e-09
2.41498e-09
2.41472e-09
2.4143e-09
2.41381e-09
2.41313e-09
2.41219e-09
2.41091e-09
2.40909e-09
2.40654e-09
2.40316e-09
2.39749e-09
2.39181e-09
2.38354e-09
2.37822e-09
2.41093e-09
2.41624e-09
2.42437e-09
2.42992e-09
2.43558e-09
2.43888e-09
2.44139e-09
2.44317e-09
2.44443e-09
2.44533e-09
2.446e-09
2.44649e-09
2.4469e-09
2.44715e-09
2.44742e-09
2.44755e-09
2.44772e-09
2.44779e-09
2.44789e-09
2.44792e-09
2.44798e-09
2.448e-09
2.44803e-09
2.44804e-09
2.44805e-09
2.44805e-09
2.44804e-09
2.44803e-09
2.448e-09
2.44798e-09
2.44792e-09
2.44789e-09
2.44779e-09
2.44772e-09
2.44755e-09
2.44741e-09
2.44715e-09
2.44689e-09
2.44648e-09
2.446e-09
2.44534e-09
2.44441e-09
2.44316e-09
2.44138e-09
2.43887e-09
2.43557e-09
2.42991e-09
2.42437e-09
2.41623e-09
2.41092e-09
2.44226e-09
2.44752e-09
2.45548e-09
2.46086e-09
2.46642e-09
2.46962e-09
2.47205e-09
2.47378e-09
2.475e-09
2.47586e-09
2.47651e-09
2.47698e-09
2.47738e-09
2.47763e-09
2.47789e-09
2.47802e-09
2.47818e-09
2.47825e-09
2.47835e-09
2.47838e-09
2.47844e-09
2.47845e-09
2.47849e-09
2.47849e-09
2.4785e-09
2.4785e-09
2.47849e-09
2.47849e-09
2.47845e-09
2.47844e-09
2.47838e-09
2.47835e-09
2.47825e-09
2.47818e-09
2.47802e-09
2.47788e-09
2.47763e-09
2.47738e-09
2.47698e-09
2.47651e-09
2.47587e-09
2.47498e-09
2.47376e-09
2.47204e-09
2.46961e-09
2.46641e-09
2.46085e-09
2.45547e-09
2.44751e-09
2.44226e-09
2.47247e-09
2.47765e-09
2.48538e-09
2.49057e-09
2.49594e-09
2.49904e-09
2.50137e-09
2.50303e-09
2.50421e-09
2.50507e-09
2.5057e-09
2.50617e-09
2.50656e-09
2.5068e-09
2.50705e-09
2.50719e-09
2.50734e-09
2.50741e-09
2.50751e-09
2.50754e-09
2.5076e-09
2.50762e-09
2.50765e-09
2.50765e-09
2.50766e-09
2.50766e-09
2.50765e-09
2.50765e-09
2.50761e-09
2.5076e-09
2.50754e-09
2.50751e-09
2.50741e-09
2.50734e-09
2.50718e-09
2.50705e-09
2.5068e-09
2.50655e-09
2.50616e-09
2.5057e-09
2.50508e-09
2.5042e-09
2.50302e-09
2.50136e-09
2.49903e-09
2.49593e-09
2.49056e-09
2.48537e-09
2.47765e-09
2.47247e-09
2.50167e-09
2.50679e-09
2.51426e-09
2.51927e-09
2.52441e-09
2.52742e-09
2.52963e-09
2.53122e-09
2.53235e-09
2.53317e-09
2.53376e-09
2.53422e-09
2.53459e-09
2.53482e-09
2.53507e-09
2.53519e-09
2.53535e-09
2.53541e-09
2.53551e-09
2.53554e-09
2.5356e-09
2.53561e-09
2.53564e-09
2.53565e-09
2.53566e-09
2.53566e-09
2.53565e-09
2.53564e-09
2.53561e-09
2.5356e-09
2.53554e-09
2.5355e-09
2.53541e-09
2.53534e-09
2.53519e-09
2.53506e-09
2.53482e-09
2.53458e-09
2.53421e-09
2.53377e-09
2.53318e-09
2.53233e-09
2.53121e-09
2.52961e-09
2.52741e-09
2.5244e-09
2.51927e-09
2.51425e-09
2.50678e-09
2.50167e-09
2.52921e-09
2.53345e-09
2.54056e-09
2.54533e-09
2.55017e-09
2.55305e-09
2.55511e-09
2.55662e-09
2.55768e-09
2.55845e-09
2.55901e-09
2.55944e-09
2.55979e-09
2.56001e-09
2.56025e-09
2.56037e-09
2.56051e-09
2.56058e-09
2.56067e-09
2.5607e-09
2.56075e-09
2.56077e-09
2.5608e-09
2.5608e-09
2.56081e-09
2.56081e-09
2.5608e-09
2.5608e-09
2.56077e-09
2.56075e-09
2.5607e-09
2.56067e-09
2.56058e-09
2.56051e-09
2.56036e-09
2.56024e-09
2.56001e-09
2.55978e-09
2.55944e-09
2.55901e-09
2.55846e-09
2.55766e-09
2.5566e-09
2.55509e-09
2.55304e-09
2.55016e-09
2.54532e-09
2.54055e-09
2.53344e-09
2.5292e-09
2.55374e-09
2.55787e-09
2.56472e-09
2.56928e-09
2.57387e-09
2.57661e-09
2.57853e-09
2.57996e-09
2.58095e-09
2.58167e-09
2.5822e-09
2.58261e-09
2.58294e-09
2.58315e-09
2.58337e-09
2.58349e-09
2.58363e-09
2.58369e-09
2.58378e-09
2.58381e-09
2.58386e-09
2.58388e-09
2.5839e-09
2.58391e-09
2.58392e-09
2.58392e-09
2.58391e-09
2.5839e-09
2.58387e-09
2.58386e-09
2.58381e-09
2.58378e-09
2.58369e-09
2.58363e-09
2.58349e-09
2.58337e-09
2.58315e-09
2.58293e-09
2.58261e-09
2.5822e-09
2.58168e-09
2.58094e-09
2.57994e-09
2.57852e-09
2.5766e-09
2.57386e-09
2.56927e-09
2.56471e-09
2.55786e-09
2.55373e-09
2.57562e-09
2.57953e-09
2.58592e-09
2.59015e-09
2.59442e-09
2.59696e-09
2.59871e-09
2.60003e-09
2.60095e-09
2.60161e-09
2.60209e-09
2.60248e-09
2.60278e-09
2.60298e-09
2.60319e-09
2.6033e-09
2.60343e-09
2.60349e-09
2.60357e-09
2.6036e-09
2.60365e-09
2.60367e-09
2.60369e-09
2.6037e-09
2.60371e-09
2.60371e-09
2.6037e-09
2.60369e-09
2.60367e-09
2.60365e-09
2.6036e-09
2.60357e-09
2.60349e-09
2.60343e-09
2.6033e-09
2.60318e-09
2.60298e-09
2.60278e-09
2.60248e-09
2.6021e-09
2.60162e-09
2.60093e-09
2.60001e-09
2.5987e-09
2.59694e-09
2.59441e-09
2.59014e-09
2.58591e-09
2.57952e-09
2.57562e-09
2.59456e-09
2.59821e-09
2.60409e-09
2.60798e-09
2.61192e-09
2.61428e-09
2.61589e-09
2.6171e-09
2.61795e-09
2.61856e-09
2.619e-09
2.61936e-09
2.61964e-09
2.61983e-09
2.62002e-09
2.62013e-09
2.62025e-09
2.62031e-09
2.62039e-09
2.62042e-09
2.62046e-09
2.62048e-09
2.6205e-09
2.62051e-09
2.62052e-09
2.62052e-09
2.62051e-09
2.6205e-09
2.62048e-09
2.62046e-09
2.62042e-09
2.62039e-09
2.62031e-09
2.62025e-09
2.62013e-09
2.62002e-09
2.61983e-09
2.61964e-09
2.61936e-09
2.61901e-09
2.61857e-09
2.61793e-09
2.61709e-09
2.61588e-09
2.61426e-09
2.61191e-09
2.60797e-09
2.60408e-09
2.5982e-09
2.59456e-09
2.61062e-09
2.61399e-09
2.61901e-09
2.6225e-09
2.6261e-09
2.62821e-09
2.62965e-09
2.63073e-09
2.6315e-09
2.63204e-09
2.63244e-09
2.63277e-09
2.63302e-09
2.6332e-09
2.63337e-09
2.63347e-09
2.63359e-09
2.63364e-09
2.63371e-09
2.63374e-09
2.63379e-09
2.6338e-09
2.63382e-09
2.63383e-09
2.63384e-09
2.63384e-09
2.63383e-09
2.63382e-09
2.6338e-09
2.63378e-09
2.63374e-09
2.63371e-09
2.63364e-09
2.63358e-09
2.63347e-09
2.63337e-09
2.63319e-09
2.63302e-09
2.63277e-09
2.63244e-09
2.63205e-09
2.63148e-09
2.63072e-09
2.62964e-09
2.6282e-09
2.62609e-09
2.62249e-09
2.619e-09
2.61398e-09
2.61061e-09
2.62298e-09
2.62604e-09
2.63055e-09
2.63369e-09
2.63693e-09
2.63882e-09
2.64009e-09
2.64105e-09
2.64172e-09
2.64221e-09
2.64256e-09
2.64285e-09
2.64308e-09
2.64325e-09
2.64341e-09
2.6435e-09
2.6436e-09
2.64366e-09
2.64372e-09
2.64375e-09
2.64379e-09
2.64381e-09
2.64383e-09
2.64383e-09
2.64384e-09
2.64384e-09
2.64383e-09
2.64383e-09
2.6438e-09
2.64379e-09
2.64375e-09
2.64372e-09
2.64365e-09
2.6436e-09
2.6435e-09
2.6434e-09
2.64324e-09
2.64308e-09
2.64285e-09
2.64256e-09
2.64221e-09
2.64171e-09
2.64104e-09
2.64008e-09
2.6388e-09
2.63692e-09
2.63368e-09
2.63054e-09
2.62603e-09
2.62297e-09
2.63204e-09
2.63478e-09
2.63868e-09
2.64141e-09
2.64408e-09
2.64571e-09
2.64682e-09
2.64764e-09
2.64823e-09
2.64865e-09
2.64895e-09
2.64921e-09
2.64941e-09
2.64957e-09
2.64971e-09
2.6498e-09
2.64989e-09
2.64994e-09
2.65e-09
2.65003e-09
2.65006e-09
2.65008e-09
2.6501e-09
2.6501e-09
2.65011e-09
2.65011e-09
2.6501e-09
2.6501e-09
2.65008e-09
2.65006e-09
2.65003e-09
2.65e-09
2.64994e-09
2.64989e-09
2.64979e-09
2.6497e-09
2.64956e-09
2.64941e-09
2.64922e-09
2.64895e-09
2.64865e-09
2.64821e-09
2.64763e-09
2.64681e-09
2.6457e-09
2.64407e-09
2.64139e-09
2.63867e-09
2.63477e-09
2.63203e-09
2.63735e-09
2.63974e-09
2.64304e-09
2.64538e-09
2.64765e-09
2.64905e-09
2.64999e-09
2.65068e-09
2.65118e-09
2.65154e-09
2.6518e-09
2.65203e-09
2.6522e-09
2.65234e-09
2.65247e-09
2.65255e-09
2.65263e-09
2.65268e-09
2.65273e-09
2.65276e-09
2.6528e-09
2.65281e-09
2.65283e-09
2.65283e-09
2.65284e-09
2.65284e-09
2.65283e-09
2.65283e-09
2.65281e-09
2.65279e-09
2.65276e-09
2.65273e-09
2.65268e-09
2.65263e-09
2.65255e-09
2.65246e-09
2.65234e-09
2.6522e-09
2.65203e-09
2.6518e-09
2.65154e-09
2.65117e-09
2.65067e-09
2.64998e-09
2.64904e-09
2.64765e-09
2.64537e-09
2.64303e-09
2.63973e-09
2.63734e-09
2.63913e-09
2.64117e-09
2.64389e-09
2.64584e-09
2.64773e-09
2.64888e-09
2.64966e-09
2.65022e-09
2.65064e-09
2.65094e-09
2.65115e-09
2.65135e-09
2.6515e-09
2.65163e-09
2.65173e-09
2.65181e-09
2.65188e-09
2.65193e-09
2.65198e-09
2.65201e-09
2.65204e-09
2.65205e-09
2.65207e-09
2.65207e-09
2.65208e-09
2.65208e-09
2.65207e-09
2.65207e-09
2.65205e-09
2.65203e-09
2.65201e-09
2.65198e-09
2.65193e-09
2.65188e-09
2.65181e-09
2.65173e-09
2.65162e-09
2.6515e-09
2.65135e-09
2.65115e-09
2.65093e-09
2.65063e-09
2.6502e-09
2.64965e-09
2.64886e-09
2.64772e-09
2.64583e-09
2.64388e-09
2.64116e-09
2.63912e-09
2.63749e-09
2.6392e-09
2.64133e-09
2.64292e-09
2.64445e-09
2.64534e-09
2.64597e-09
2.6464e-09
2.64674e-09
2.64698e-09
2.64715e-09
2.64733e-09
2.64746e-09
2.64757e-09
2.64766e-09
2.64774e-09
2.6478e-09
2.64785e-09
2.64789e-09
2.64791e-09
2.64794e-09
2.64796e-09
2.64797e-09
2.64798e-09
2.64798e-09
2.64798e-09
2.64798e-09
2.64797e-09
2.64795e-09
2.64794e-09
2.64791e-09
2.64788e-09
2.64784e-09
2.6478e-09
2.64773e-09
2.64766e-09
2.64757e-09
2.64745e-09
2.64733e-09
2.64716e-09
2.64698e-09
2.64673e-09
2.64638e-09
2.64596e-09
2.64533e-09
2.64444e-09
2.64291e-09
2.64132e-09
2.63919e-09
2.63748e-09
2.63262e-09
2.63401e-09
2.63557e-09
2.63682e-09
2.63803e-09
2.63869e-09
2.63918e-09
2.63949e-09
2.63977e-09
2.63995e-09
2.64009e-09
2.64024e-09
2.64034e-09
2.64045e-09
2.64053e-09
2.6406e-09
2.64065e-09
2.64069e-09
2.64073e-09
2.64076e-09
2.64078e-09
2.64079e-09
2.64081e-09
2.64081e-09
2.64082e-09
2.64082e-09
2.64081e-09
2.64081e-09
2.64079e-09
2.64078e-09
2.64076e-09
2.64073e-09
2.64069e-09
2.64064e-09
2.64059e-09
2.64052e-09
2.64044e-09
2.64034e-09
2.64024e-09
2.64009e-09
2.63995e-09
2.63976e-09
2.63948e-09
2.63917e-09
2.63867e-09
2.63802e-09
2.63681e-09
2.63556e-09
2.634e-09
2.63261e-09
2.62477e-09
2.62586e-09
2.62689e-09
2.62783e-09
2.62875e-09
2.62919e-09
2.62957e-09
2.62978e-09
2.62999e-09
2.63012e-09
2.63023e-09
2.63035e-09
2.63044e-09
2.63053e-09
2.6306e-09
2.63066e-09
2.63071e-09
2.63075e-09
2.63078e-09
2.63081e-09
2.63083e-09
2.63085e-09
2.63086e-09
2.63086e-09
2.63087e-09
2.63087e-09
2.63086e-09
2.63085e-09
2.63084e-09
2.63083e-09
2.63081e-09
2.63078e-09
2.63075e-09
2.6307e-09
2.63066e-09
2.63059e-09
2.63053e-09
2.63044e-09
2.63036e-09
2.63023e-09
2.63012e-09
2.62998e-09
2.62976e-09
2.62956e-09
2.62918e-09
2.62874e-09
2.62782e-09
2.62688e-09
2.62584e-09
2.62476e-09
2.61427e-09
2.61506e-09
2.61563e-09
2.61628e-09
2.61695e-09
2.6172e-09
2.61748e-09
2.61759e-09
2.61776e-09
2.61784e-09
2.61792e-09
2.61802e-09
2.61809e-09
2.61818e-09
2.61823e-09
2.61829e-09
2.61833e-09
2.61837e-09
2.6184e-09
2.61843e-09
2.61844e-09
2.61846e-09
2.61847e-09
2.61847e-09
2.61848e-09
2.61848e-09
2.61847e-09
2.61847e-09
2.61846e-09
2.61844e-09
2.61842e-09
2.61839e-09
2.61837e-09
2.61833e-09
2.61829e-09
2.61823e-09
2.61817e-09
2.61809e-09
2.61803e-09
2.61792e-09
2.61784e-09
2.61775e-09
2.61758e-09
2.61747e-09
2.61719e-09
2.61694e-09
2.61627e-09
2.61562e-09
2.61505e-09
2.61425e-09
2.60144e-09
2.60193e-09
2.60216e-09
2.60257e-09
2.60302e-09
2.6031e-09
2.6033e-09
2.60333e-09
2.60345e-09
2.6035e-09
2.60356e-09
2.60364e-09
2.6037e-09
2.60377e-09
2.60382e-09
2.60388e-09
2.60391e-09
2.60395e-09
2.60397e-09
2.604e-09
2.60401e-09
2.60403e-09
2.60403e-09
2.60404e-09
2.60405e-09
2.60404e-09
2.60404e-09
2.60403e-09
2.60403e-09
2.60401e-09
2.604e-09
2.60397e-09
2.60395e-09
2.6039e-09
2.60387e-09
2.60381e-09
2.60377e-09
2.60369e-09
2.60364e-09
2.60356e-09
2.6035e-09
2.60344e-09
2.60332e-09
2.60329e-09
2.60309e-09
2.603e-09
2.60256e-09
2.60215e-09
2.60192e-09
2.60143e-09
2.58676e-09
2.58702e-09
2.5869e-09
2.5871e-09
2.58737e-09
2.58732e-09
2.58746e-09
2.58742e-09
2.58751e-09
2.58753e-09
2.58757e-09
2.58763e-09
2.58767e-09
2.58775e-09
2.58778e-09
2.58784e-09
2.58786e-09
2.5879e-09
2.58792e-09
2.58795e-09
2.58796e-09
2.58798e-09
2.58798e-09
2.58799e-09
2.58799e-09
2.58799e-09
2.58799e-09
2.58798e-09
2.58798e-09
2.58796e-09
2.58795e-09
2.58792e-09
2.5879e-09
2.58786e-09
2.58783e-09
2.58777e-09
2.58774e-09
2.58767e-09
2.58763e-09
2.58756e-09
2.58752e-09
2.5875e-09
2.5874e-09
2.58744e-09
2.58731e-09
2.58736e-09
2.58708e-09
2.58689e-09
2.587e-09
2.58675e-09
2.57063e-09
2.57068e-09
2.57029e-09
2.57032e-09
2.57046e-09
2.5703e-09
2.57038e-09
2.57029e-09
2.57036e-09
2.57035e-09
2.57038e-09
)
;

boundaryField
{
    fuel
    {
        type            fixedValue;
        value           nonuniform 0();
    }
    wall
    {
        type            zeroGradient;
    }
    outlet
    {
        type            zeroGradient;
    }
    frontAndBack
    {
        type            empty;
    }
    procBoundary2to0
    {
        type            processor;
        value           nonuniform List<scalar> 
53
(
2.02467e-09
2.03153e-09
2.03784e-09
2.042e-09
2.04496e-09
2.04662e-09
2.04779e-09
2.0486e-09
2.04908e-09
2.04952e-09
2.0498e-09
2.05006e-09
2.05023e-09
2.05039e-09
2.05049e-09
2.0506e-09
2.05066e-09
2.05073e-09
2.04226e-09
2.04226e-09
2.04231e-09
2.04232e-09
2.04235e-09
2.04236e-09
2.04237e-09
2.04237e-09
2.04237e-09
2.04237e-09
2.04236e-09
2.03662e-09
2.03662e-09
2.03659e-09
2.03657e-09
2.03653e-09
2.03649e-09
2.03642e-09
2.03635e-09
2.03623e-09
2.03611e-09
2.03593e-09
2.03573e-09
2.03543e-09
2.032e-09
2.032e-09
2.03147e-09
2.03081e-09
2.02984e-09
2.02842e-09
2.0266e-09
2.02307e-09
2.0188e-09
2.01257e-09
2.00635e-09
)
;
    }
    procBoundary2to3
    {
        type            processor;
        value           nonuniform List<scalar> 
51
(
2.57044e-09
2.57047e-09
2.57054e-09
2.57057e-09
2.57062e-09
2.57064e-09
2.57068e-09
2.5707e-09
2.57073e-09
2.57073e-09
2.57075e-09
2.57076e-09
2.57077e-09
2.57077e-09
2.57077e-09
2.57077e-09
2.57076e-09
2.57075e-09
2.57073e-09
2.57072e-09
2.57069e-09
2.57068e-09
2.57064e-09
2.57062e-09
2.57056e-09
2.57053e-09
2.57047e-09
2.57044e-09
2.57038e-09
2.57035e-09
2.57035e-09
2.57029e-09
2.57038e-09
2.57029e-09
2.57045e-09
2.57032e-09
2.57028e-09
2.57068e-09
2.57062e-09
2.5535e-09
2.55339e-09
2.55278e-09
2.55269e-09
2.55272e-09
2.55249e-09
2.55254e-09
2.55241e-09
2.55246e-09
2.55244e-09
2.57044e-09
2.55245e-09
)
;
    }
}


// ************************************************************************* //
