/*--------------------------------*- C++ -*----------------------------------*\
| =========                 |                                                 |
| \\      /  F ield         | OpenFOAM: The Open Source CFD Toolbox           |
|  \\    /   O peration     | Version:  dev                                   |
|   \\  /    A nd           | Web:      www.OpenFOAM.org                      |
|    \\/     M anipulation  |                                                 |
\*---------------------------------------------------------------------------*/
FoamFile
{
    version     2.0;
    format      ascii;
    class       volVectorField;
    location    "0.07";
    object      U;
}
// * * * * * * * * * * * * * * * * * * * * * * * * * * * * * * * * * * * * * //

dimensions      [0 1 -1 0 0 0 0];

internalField   nonuniform List<vector> 
1997
(
(0 1.21271 0.479942)
(0 1.14242 0.494367)
(0 1.12475 0.485387)
(0 1.05675 0.488793)
(0 1.02734 0.484155)
(0 0.964016 0.484169)
(0 0.926763 0.481761)
(0 0.86793 0.48155)
(0 0.825921 0.480258)
(0 0.770169 0.480231)
(0 0.725315 0.479426)
(0 0.671543 0.47956)
(0 0.624955 0.479007)
(0 0.572452 0.479203)
(0 0.524777 0.478813)
(0 0.4731 0.479008)
(0 0.424724 0.478736)
(0 0.373591 0.478898)
(0 1.22494 0.476634)
(0 1.15357 0.490855)
(0 1.1356 0.481589)
(0 1.06683 0.484861)
(0 1.03704 0.480166)
(0 0.973124 0.48008)
(0 0.935438 0.477685)
(0 0.876083 0.477424)
(0 0.83362 0.476144)
(0 0.777377 0.476095)
(0 0.732064 0.475296)
(0 0.677812 0.475421)
(0 0.630765 0.474869)
(0 0.577789 0.475063)
(0 0.529654 0.474672)
(0 0.477506 0.474867)
(0 0.42867 0.474594)
(0 0.377069 0.474756)
(0 0.327775 0.474572)
(0 0.276528 0.474688)
(0 0.226944 0.474573)
(0 0.175922 0.474646)
(0 0.126166 0.474582)
(0 0.0752663 0.474617)
(0 0.0254307 0.474598)
(0 -0.0254298 0.474597)
(0 -0.0752657 0.474618)
(0 -0.126165 0.474582)
(0 1.23705 0.47326)
(0 1.16461 0.48727)
(0 1.14633 0.477726)
(0 1.07678 0.480865)
(0 1.04663 0.476119)
(0 0.98212 0.475927)
(0 0.944006 0.473551)
(0 0.884135 0.473237)
(0 0.841223 0.471972)
(0 0.784494 0.4719)
(0 0.738728 0.471106)
(0 0.684003 0.471223)
(0 0.636502 0.470673)
(0 0.583058 0.470864)
(0 0.534469 0.470474)
(0 0.481857 0.470667)
(0 0.432566 0.470395)
(0 0.380502 0.470556)
(0 0.330754 0.470372)
(0 0.279046 0.470488)
(0 0.229007 0.470373)
(0 0.177523 0.470446)
(0 0.127312 0.470382)
(0 0.0759522 0.470417)
(0 0.0256606 0.470397)
(0 -0.0256597 0.470397)
(0 -0.0759517 0.470418)
(0 -0.127311 0.470382)
(0 -0.177522 0.470446)
(0 -0.229006 0.470372)
(0 -0.279045 0.470489)
(0 -0.330753 0.470372)
(0 -0.380501 0.470557)
(0 -0.432566 0.470395)
(0 -0.481855 0.470669)
(0 -0.534468 0.470475)
(0 -0.583056 0.470866)
(0 -0.6365 0.470674)
(0 -0.684 0.471225)
(0 -0.738724 0.471107)
(0 1.24904 0.469821)
(0 1.17552 0.483612)
(0 1.15694 0.473801)
(0 1.08662 0.476803)
(0 1.0561 0.472011)
(0 0.991003 0.471716)
(0 0.952466 0.469358)
(0 0.892084 0.468991)
(0 0.848729 0.467741)
(0 0.791519 0.467646)
(0 0.745305 0.466859)
(0 0.690113 0.466967)
(0 0.642164 0.466419)
(0 0.588258 0.466608)
(0 0.539221 0.466217)
(0 0.486151 0.46641)
(0 0.436412 0.466137)
(0 0.383891 0.466298)
(0 0.333694 0.466114)
(0 0.281531 0.46623)
(0 0.231042 0.466114)
(0 0.179104 0.466187)
(0 0.128443 0.466123)
(0 0.0766292 0.466158)
(0 0.0258876 0.466139)
(0 -0.0258866 0.466138)
(0 -0.0766286 0.466159)
(0 -0.128442 0.466123)
(0 -0.179103 0.466188)
(0 -0.231041 0.466114)
(0 -0.28153 0.466231)
(0 -0.333693 0.466114)
(0 -0.38389 0.466299)
(0 -0.436412 0.466137)
(0 -0.486149 0.466412)
(0 -0.539221 0.466218)
(0 -0.588256 0.466609)
(0 -0.642162 0.46642)
(0 -0.69011 0.466969)
(0 -0.745301 0.46686)
(0 -0.791516 0.467646)
(0 -0.848727 0.467739)
(0 -0.892084 0.46899)
(0 -0.952466 0.469357)
(0 -0.991005 0.471713)
(0 -1.0561 0.472011)
(0 -1.08662 0.476798)
(0 -1.15694 0.473799)
(0 -1.17552 0.483607)
(0 -1.24905 0.469819)
(0 1.2609 0.466312)
(0 1.18629 0.479878)
(0 1.16742 0.469808)
(0 1.09633 0.472673)
(0 1.06545 0.467842)
(0 0.99977 0.467439)
(0 0.960815 0.465103)
(0 0.899928 0.464683)
(0 0.856133 0.463448)
(0 0.79845 0.463331)
(0 0.751793 0.46255)
(0 0.69614 0.462651)
(0 0.647749 0.462103)
(0 0.593388 0.46229)
(0 0.54391 0.461899)
(0 0.490386 0.462092)
(0 0.440206 0.461818)
(0 0.387234 0.46198)
(0 0.336594 0.461795)
(0 0.283982 0.461911)
(0 0.23305 0.461795)
(0 0.180664 0.461868)
(0 0.129559 0.461805)
(0 0.077297 0.46184)
(0 0.0261114 0.46182)
(0 -0.0261105 0.46182)
(0 -0.0772964 0.461841)
(0 -0.129557 0.461804)
(0 -0.180662 0.461868)
(0 -0.233049 0.461794)
(0 -0.283981 0.461912)
(0 -0.336593 0.461794)
(0 -0.387233 0.46198)
(0 -0.440205 0.461818)
(0 -0.490385 0.462093)
(0 -0.543909 0.4619)
(0 -0.593386 0.462291)
(0 -0.647747 0.462105)
(0 -0.696137 0.462652)
(0 -0.75179 0.46255)
(0 -0.798447 0.463331)
(0 -0.856132 0.463446)
(0 -0.899927 0.464682)
(0 -0.960815 0.465101)
(0 -0.999772 0.467436)
(0 -1.06545 0.467841)
(0 -1.09633 0.472667)
(0 -1.16743 0.469805)
(0 -1.1863 0.479872)
(0 -1.26091 0.466311)
(0 1.27263 0.462734)
(0 1.19694 0.476067)
(0 1.17778 0.465748)
(0 1.10591 0.468474)
(0 1.07468 0.46361)
(0 1.00842 0.463098)
(0 0.96905 0.460786)
(0 0.907663 0.460313)
(0 0.863436 0.459094)
(0 0.805285 0.458955)
(0 0.758192 0.458181)
(0 0.702084 0.458273)
(0 0.653257 0.457727)
(0 0.598446 0.457911)
(0 0.548533 0.457521)
(0 0.494563 0.457713)
(0 0.443946 0.457439)
(0 0.39053 0.4576)
(0 0.339454 0.457415)
(0 0.286398 0.457532)
(0 0.23503 0.457415)
(0 0.182201 0.457489)
(0 0.130659 0.457425)
(0 0.0779554 0.45746)
(0 0.0263322 0.45744)
(0 -0.0263312 0.45744)
(0 -0.0779548 0.457461)
(0 -0.130658 0.457425)
(0 -0.1822 0.457489)
(0 -0.235029 0.457415)
(0 -0.286398 0.457533)
(0 -0.339453 0.457415)
(0 -0.390529 0.457601)
(0 -0.443946 0.457439)
(0 -0.494561 0.457715)
(0 -0.548532 0.457522)
(0 -0.598444 0.457913)
(0 -0.653255 0.457729)
(0 -0.702081 0.458274)
(0 -0.758189 0.458181)
(0 -0.805282 0.458954)
(0 -0.863434 0.459092)
(0 -0.907663 0.46031)
(0 -0.96905 0.460784)
(0 -1.00842 0.463094)
(0 -1.07468 0.46361)
(0 -1.10591 0.468468)
(0 -1.17778 0.465745)
(0 -1.19695 0.476061)
(0 -1.27264 0.462733)
(0 1.28423 0.45909)
(0 1.20745 0.472182)
(0 1.188 0.461624)
(0 1.11536 0.46421)
(0 1.08378 0.459319)
(0 1.01695 0.458697)
(0 0.977169 0.456411)
(0 0.915289 0.455884)
(0 0.870635 0.454682)
(0 0.812022 0.454521)
(0 0.764499 0.453754)
(0 0.707942 0.453838)
(0 0.658686 0.453294)
(0 0.603431 0.453476)
(0 0.553089 0.453086)
(0 0.498679 0.453278)
(0 0.447633 0.453003)
(0 0.393779 0.453164)
(0 0.342273 0.452979)
(0 0.28878 0.453095)
(0 0.236981 0.452979)
(0 0.183716 0.453052)
(0 0.131743 0.452989)
(0 0.0786043 0.453024)
(0 0.0265498 0.453004)
(0 -0.0265488 0.453003)
(0 -0.0786036 0.453025)
(0 -0.131742 0.452988)
(0 -0.183715 0.453053)
(0 -0.23698 0.452978)
(0 -0.288779 0.453096)
(0 -0.342272 0.452979)
(0 -0.393777 0.453165)
(0 -0.447633 0.453003)
(0 -0.498677 0.453279)
(0 -0.553088 0.453087)
(0 -0.603429 0.453478)
(0 -0.658684 0.453296)
(0 -0.707939 0.45384)
(0 -0.764496 0.453754)
(0 -0.812019 0.454521)
(0 -0.870633 0.45468)
(0 -0.915289 0.455882)
(0 -0.97717 0.45641)
(0 -1.01695 0.458694)
(0 -1.08378 0.459319)
(0 -1.11537 0.464205)
(0 -1.188 0.461622)
(0 -1.20746 0.472177)
(0 -1.28423 0.459088)
(0 1.29568 0.455378)
(0 1.21783 0.468223)
(0 1.19808 0.457435)
(0 1.12469 0.459881)
(0 1.09275 0.454969)
(0 1.02535 0.454235)
(0 0.98517 0.451978)
(0 0.922803 0.451396)
(0 0.877727 0.450213)
(0 0.818659 0.450029)
(0 0.770712 0.449269)
(0 0.713712 0.449346)
(0 0.664033 0.448804)
(0 0.608342 0.448984)
(0 0.557577 0.448594)
(0 0.502733 0.448785)
(0 0.451264 0.44851)
(0 0.396978 0.448671)
(0 0.345049 0.448486)
(0 0.291126 0.448603)
(0 0.238903 0.448486)
(0 0.185209 0.44856)
(0 0.132811 0.448495)
(0 0.0792434 0.448531)
(0 0.0267642 0.448511)
(0 -0.0267632 0.44851)
(0 -0.0792427 0.448532)
(0 -0.13281 0.448495)
(0 -0.185208 0.44856)
(0 -0.238902 0.448485)
(0 -0.291125 0.448603)
(0 -0.345048 0.448486)
(0 -0.396977 0.448672)
(0 -0.451264 0.44851)
(0 -0.502731 0.448787)
(0 -0.557576 0.448595)
(0 -0.60834 0.448986)
(0 -0.664031 0.448806)
(0 -0.713709 0.449348)
(0 -0.770708 0.44927)
(0 -0.818656 0.450029)
(0 -0.877725 0.450211)
(0 -0.922802 0.451395)
(0 -0.985171 0.451977)
(0 -1.02535 0.454232)
(0 -1.09275 0.45497)
(0 -1.12469 0.459876)
(0 -1.19809 0.457432)
(0 -1.21783 0.468218)
(0 -1.29569 0.455376)
(0 1.30699 0.451593)
(0 1.22806 0.464185)
(0 1.20803 0.453177)
(0 1.13387 0.455481)
(0 1.1016 0.450555)
(0 1.03363 0.449707)
(0 0.99305 0.447482)
(0 0.930201 0.446845)
(0 0.88471 0.445681)
(0 0.825194 0.445475)
(0 0.776829 0.444723)
(0 0.719393 0.444792)
(0 0.669298 0.444252)
(0 0.613176 0.44443)
(0 0.561995 0.44404)
(0 0.506724 0.444231)
(0 0.45484 0.443956)
(0 0.400128 0.444117)
(0 0.347782 0.443931)
(0 0.293436 0.444048)
(0 0.240795 0.443931)
(0 0.186678 0.444005)
(0 0.133862 0.44394)
(0 0.0798726 0.443976)
(0 0.0269752 0.443956)
(0 -0.0269742 0.443955)
(0 -0.0798719 0.443977)
(0 -0.133861 0.44394)
(0 -0.186677 0.444005)
(0 -0.240794 0.44393)
(0 -0.293435 0.444049)
(0 -0.347781 0.443931)
(0 -0.400127 0.444118)
(0 -0.454839 0.443956)
(0 -0.506723 0.444232)
(0 -0.561995 0.444041)
(0 -0.613174 0.444432)
(0 -0.669296 0.444254)
(0 -0.71939 0.444794)
(0 -0.776825 0.444723)
(0 -0.82519 0.445475)
(0 -0.884708 0.445679)
(0 -0.930201 0.446843)
(0 -0.993051 0.447481)
(0 -1.03363 0.449704)
(0 -1.1016 0.450555)
(0 -1.13388 0.455475)
(0 -1.20803 0.453175)
(0 -1.22806 0.46418)
(0 -1.307 0.451591)
(0 1.31816 0.447731)
(0 1.23814 0.460063)
(0 1.21784 0.448845)
(0 1.14292 0.451005)
(0 1.11031 0.446072)
(0 1.04178 0.445108)
(0 1.00081 0.442917)
(0 0.937483 0.442225)
(0 0.891582 0.441082)
(0 0.831624 0.440853)
(0 0.782848 0.440109)
(0 0.724983 0.440171)
(0 0.674478 0.439633)
(0 0.617933 0.439809)
(0 0.566343 0.439419)
(0 0.510651 0.43961)
(0 0.458357 0.439334)
(0 0.403227 0.439496)
(0 0.350472 0.439309)
(0 0.295708 0.439427)
(0 0.242657 0.439309)
(0 0.188124 0.439383)
(0 0.134897 0.439319)
(0 0.0804916 0.439355)
(0 0.0271829 0.439335)
(0 -0.0271819 0.439334)
(0 -0.0804909 0.439355)
(0 -0.134896 0.439319)
(0 -0.188123 0.439384)
(0 -0.242656 0.439308)
(0 -0.295707 0.439427)
(0 -0.350471 0.439309)
(0 -0.403226 0.439497)
(0 -0.458357 0.439334)
(0 -0.51065 0.439611)
(0 -0.566342 0.43942)
(0 -0.617931 0.439811)
(0 -0.674476 0.439635)
(0 -0.72498 0.440173)
(0 -0.782844 0.44011)
(0 -0.83162 0.440854)
(0 -0.89158 0.44108)
(0 -0.937483 0.442224)
(0 -1.00081 0.442916)
(0 -1.04178 0.445105)
(0 -1.11031 0.446073)
(0 -1.14293 0.451)
(0 -1.21784 0.448843)
(0 -1.23814 0.460058)
(0 -1.31816 0.447729)
(0 1.32917 0.443794)
(0 1.24807 0.45586)
(0 1.2275 0.444443)
(0 1.15183 0.446458)
(0 1.11888 0.441524)
(0 1.0498 0.440443)
(0 1.00844 0.43829)
(0 0.944645 0.437542)
(0 0.89834 0.43642)
(0 0.837947 0.436169)
(0 0.788767 0.435434)
(0 0.73048 0.435488)
(0 0.679572 0.434953)
(0 0.62261 0.435127)
(0 0.570618 0.434737)
(0 0.514513 0.434927)
(0 0.461816 0.434652)
(0 0.406275 0.434813)
(0 0.353116 0.434627)
(0 0.297942 0.434744)
(0 0.244487 0.434626)
(0 0.189545 0.434701)
(0 0.135914 0.434636)
(0 0.0811002 0.434672)
(0 0.0273872 0.434652)
(0 -0.0273862 0.434651)
(0 -0.0810995 0.434673)
(0 -0.135913 0.434636)
(0 -0.189544 0.434701)
(0 -0.244487 0.434626)
(0 -0.297941 0.434745)
(0 -0.353115 0.434626)
(0 -0.406274 0.434814)
(0 -0.461816 0.434652)
(0 -0.514511 0.434929)
(0 -0.570617 0.434738)
(0 -0.622608 0.435129)
(0 -0.67957 0.434955)
(0 -0.730477 0.43549)
(0 -0.788764 0.435434)
(0 -0.837944 0.436169)
(0 -0.898338 0.436418)
(0 -0.944644 0.43754)
(0 -1.00844 0.438288)
(0 -1.0498 0.440441)
(0 -1.11888 0.441525)
(0 -1.15183 0.446453)
(0 -1.2275 0.444441)
(0 -1.24808 0.455855)
(0 -1.32918 0.443793)
(0 1.34003 0.439792)
(0 1.25786 0.451585)
(0 1.23701 0.439979)
(0 1.16059 0.441848)
(0 1.12731 0.43692)
(0 1.05768 0.43572)
(0 1.01594 0.433607)
(0 0.951684 0.432803)
(0 0.904983 0.431704)
(0 0.844162 0.431431)
(0 0.794585 0.430704)
(0 0.735882 0.430751)
(0 0.684578 0.430219)
(0 0.627206 0.430391)
(0 0.574819 0.430001)
(0 0.518307 0.430192)
(0 0.465216 0.429916)
(0 0.409269 0.430077)
(0 0.355715 0.429891)
(0 0.300137 0.430008)
(0 0.246286 0.42989)
(0 0.190942 0.429965)
(0 0.136914 0.4299)
(0 0.0816982 0.429936)
(0 0.0275879 0.429916)
(0 -0.0275869 0.429916)
(0 -0.0816975 0.429937)
(0 -0.136913 0.4299)
(0 -0.190941 0.429965)
(0 -0.246285 0.42989)
(0 -0.300137 0.430009)
(0 -0.355714 0.42989)
(0 -0.409268 0.430078)
(0 -0.465215 0.429916)
(0 -0.518306 0.430193)
(0 -0.574819 0.430003)
(0 -0.627204 0.430393)
(0 -0.684576 0.430221)
(0 -0.735878 0.430753)
(0 -0.794581 0.430705)
(0 -0.844158 0.431431)
(0 -0.904981 0.431701)
(0 -0.951684 0.432801)
(0 -1.01594 0.433606)
(0 -1.05768 0.435718)
(0 -1.12731 0.436921)
(0 -1.1606 0.441842)
(0 -1.23701 0.439976)
(0 -1.25786 0.45158)
(0 -1.34004 0.43979)
(0 1.35073 0.435721)
(0 1.26748 0.447236)
(0 1.24636 0.435451)
(0 1.16921 0.437173)
(0 1.1356 0.432257)
(0 1.06543 0.430938)
(0 1.02331 0.428868)
(0 0.958599 0.428007)
(0 0.911508 0.426931)
(0 0.850265 0.426637)
(0 0.800297 0.425919)
(0 0.741186 0.425959)
(0 0.689494 0.425429)
(0 0.631719 0.4256)
(0 0.578945 0.42521)
(0 0.522033 0.425401)
(0 0.468554 0.425125)
(0 0.41221 0.425286)
(0 0.358267 0.425099)
(0 0.302293 0.425217)
(0 0.248053 0.425099)
(0 0.192313 0.425174)
(0 0.137896 0.425109)
(0 0.0822854 0.425145)
(0 0.0277851 0.425125)
(0 -0.0277841 0.425124)
(0 -0.0822846 0.425146)
(0 -0.137895 0.425109)
(0 -0.192312 0.425174)
(0 -0.248052 0.425098)
(0 -0.302292 0.425218)
(0 -0.358266 0.425099)
(0 -0.412208 0.425287)
(0 -0.468553 0.425125)
(0 -0.522031 0.425402)
(0 -0.578944 0.425212)
(0 -0.631718 0.425602)
(0 -0.689492 0.425431)
(0 -0.741183 0.425961)
(0 -0.800294 0.425919)
(0 -0.850262 0.426637)
(0 -0.911505 0.426929)
(0 -0.958599 0.428005)
(0 -1.02331 0.428866)
(0 -1.06543 0.430935)
(0 -1.1356 0.432258)
(0 -1.16921 0.437167)
(0 -1.24637 0.435448)
(0 -1.26748 0.447231)
(0 -1.35074 0.435719)
(0 1.36127 0.431574)
(0 1.27694 0.442805)
(0 1.25556 0.430851)
(0 1.17767 0.432424)
(0 1.14374 0.427528)
(0 1.07303 0.426087)
(0 1.03054 0.424063)
(0 0.965385 0.423145)
(0 0.917911 0.422094)
(0 0.856254 0.421778)
(0 0.805904 0.421069)
(0 0.746391 0.421102)
(0 0.694319 0.420576)
(0 0.636148 0.420745)
(0 0.582993 0.420355)
(0 0.525688 0.420546)
(0 0.471829 0.42027)
(0 0.415095 0.420431)
(0 0.360771 0.420244)
(0 0.304408 0.420362)
(0 0.249786 0.420244)
(0 0.193659 0.420319)
(0 0.138859 0.420254)
(0 0.0828615 0.42029)
(0 0.0279786 0.42027)
(0 -0.0279776 0.420269)
(0 -0.0828608 0.420291)
(0 -0.138858 0.420254)
(0 -0.193658 0.420319)
(0 -0.249785 0.420243)
(0 -0.304408 0.420362)
(0 -0.36077 0.420244)
(0 -0.415093 0.420432)
(0 -0.471829 0.42027)
(0 -0.525687 0.420547)
(0 -0.582993 0.420357)
(0 -0.636146 0.420747)
(0 -0.694316 0.420578)
(0 -0.746388 0.421105)
(0 -0.8059 0.42107)
(0 -0.856251 0.421778)
(0 -0.917908 0.422091)
(0 -0.965385 0.423143)
(0 -1.03054 0.424061)
(0 -1.07303 0.426084)
(0 -1.14374 0.427529)
(0 -1.17768 0.432419)
(0 -1.25557 0.430849)
(0 -1.27695 0.4428)
(0 -1.36127 0.431572)
(0 1.37164 0.427349)
(0 1.28624 0.438291)
(0 1.2646 0.426179)
(0 1.18598 0.427602)
(0 1.15173 0.422731)
(0 1.08049 0.421167)
(0 1.03764 0.419191)
(0 0.972041 0.418216)
(0 0.92419 0.41719)
(0 0.862128 0.416853)
(0 0.811401 0.416154)
(0 0.751495 0.41618)
(0 0.699049 0.415656)
(0 0.64049 0.415824)
(0 0.586963 0.415435)
(0 0.529273 0.415625)
(0 0.475041 0.415349)
(0 0.417923 0.415511)
(0 0.363226 0.415323)
(0 0.306482 0.415441)
(0 0.251486 0.415323)
(0 0.194978 0.415398)
(0 0.139804 0.415333)
(0 0.0834263 0.415369)
(0 0.0281683 0.415349)
(0 -0.0281674 0.415349)
(0 -0.0834256 0.41537)
(0 -0.139802 0.415333)
(0 -0.194977 0.415398)
(0 -0.251485 0.415322)
(0 -0.306482 0.415442)
(0 -0.363225 0.415323)
(0 -0.417922 0.415512)
(0 -0.47504 0.415349)
(0 -0.529272 0.415627)
(0 -0.586962 0.415437)
(0 -0.640488 0.415826)
(0 -0.699047 0.415658)
(0 -0.751492 0.416183)
(0 -0.811398 0.416154)
(0 -0.862124 0.416853)
(0 -0.924188 0.417187)
(0 -0.972041 0.418214)
(0 -1.03764 0.41919)
(0 -1.08049 0.421164)
(0 -1.15173 0.422732)
(0 -1.18598 0.427596)
(0 -1.2646 0.426176)
(0 -1.28625 0.438286)
(0 -1.37164 0.427348)
(0 1.38183 0.423046)
(0 1.29537 0.433694)
(0 1.27348 0.421434)
(0 1.19413 0.422706)
(0 1.15957 0.417867)
(0 1.0878 0.416179)
(0 1.0446 0.414255)
(0 0.978563 0.413223)
(0 0.930344 0.412222)
(0 0.867882 0.411864)
(0 0.816788 0.411175)
(0 0.756495 0.411195)
(0 0.703683 0.410674)
(0 0.644743 0.41084)
(0 0.590852 0.410452)
(0 0.532784 0.410642)
(0 0.478187 0.410365)
(0 0.420694 0.410527)
(0 0.365631 0.41034)
(0 0.308514 0.410458)
(0 0.253151 0.41034)
(0 0.196271 0.410415)
(0 0.140729 0.41035)
(0 0.0839796 0.410386)
(0 0.0283543 0.410366)
(0 -0.0283533 0.410366)
(0 -0.0839789 0.410387)
(0 -0.140728 0.41035)
(0 -0.19627 0.410415)
(0 -0.25315 0.410339)
(0 -0.308513 0.410459)
(0 -0.36563 0.41034)
(0 -0.420693 0.410528)
(0 -0.478187 0.410366)
(0 -0.532783 0.410643)
(0 -0.590851 0.410453)
(0 -0.644742 0.410842)
(0 -0.703681 0.410676)
(0 -0.756492 0.411198)
(0 -0.816784 0.411175)
(0 -0.867878 0.411864)
(0 -0.930341 0.41222)
(0 -0.978563 0.413221)
(0 -1.0446 0.414253)
(0 -1.0878 0.416176)
(0 -1.15957 0.417868)
(0 -1.19413 0.422699)
(0 -1.27348 0.421432)
(0 -1.29537 0.433688)
(0 -1.38184 0.423045)
(0 1.39185 0.418661)
(0 1.30433 0.429008)
(0 1.28218 0.416614)
(0 1.20212 0.417733)
(0 1.16724 0.412933)
(0 1.09496 0.41112)
(0 1.05141 0.40925)
(0 0.984949 0.408161)
(0 0.936368 0.407188)
(0 0.873515 0.406808)
(0 0.82206 0.40613)
(0 0.761389 0.406144)
(0 0.70822 0.405625)
(0 0.648907 0.40579)
(0 0.594659 0.405403)
(0 0.536221 0.405593)
(0 0.481267 0.405316)
(0 0.423406 0.405478)
(0 0.367986 0.405291)
(0 0.310502 0.405409)
(0 0.254781 0.405291)
(0 0.197536 0.405366)
(0 0.141635 0.405301)
(0 0.0845211 0.405337)
(0 0.0285363 0.405317)
(0 -0.0285354 0.405317)
(0 -0.0845204 0.405338)
(0 -0.141634 0.405301)
(0 -0.197535 0.405366)
(0 -0.25478 0.40529)
(0 -0.310502 0.405409)
(0 -0.367985 0.405291)
(0 -0.423405 0.405479)
(0 -0.481267 0.405316)
(0 -0.53622 0.405594)
(0 -0.594658 0.405404)
(0 -0.648905 0.405793)
(0 -0.708218 0.405628)
(0 -0.761386 0.406146)
(0 -0.822057 0.40613)
(0 -0.873511 0.406809)
(0 -0.936366 0.407185)
(0 -0.984949 0.408159)
(0 -1.05141 0.409249)
(0 -1.09497 0.411118)
(0 -1.16724 0.412934)
(0 -1.20212 0.417727)
(0 -1.28218 0.416611)
(0 -1.30433 0.429003)
(0 -1.39185 0.41866)
(0 1.40168 0.414199)
(0 1.3131 0.424237)
(0 1.29071 0.411722)
(0 1.20994 0.412688)
(0 1.17476 0.407933)
(0 1.10197 0.405995)
(0 1.05807 0.404181)
(0 0.991195 0.403036)
(0 0.94226 0.402091)
(0 0.879024 0.40169)
(0 0.827217 0.401023)
(0 0.766175 0.40103)
(0 0.712657 0.400515)
(0 0.652978 0.400679)
(0 0.598381 0.400292)
(0 0.539582 0.400482)
(0 0.484279 0.400205)
(0 0.426058 0.400368)
(0 0.370288 0.40018)
(0 0.312447 0.400298)
(0 0.256375 0.40018)
(0 0.198773 0.400255)
(0 0.142521 0.400191)
(0 0.0850506 0.400227)
(0 0.0287144 0.400206)
(0 -0.0287134 0.400206)
(0 -0.0850499 0.400227)
(0 -0.14252 0.40019)
(0 -0.198772 0.400255)
(0 -0.256374 0.400179)
(0 -0.312446 0.400299)
(0 -0.370287 0.40018)
(0 -0.426058 0.400368)
(0 -0.484279 0.400206)
(0 -0.539581 0.400483)
(0 -0.598381 0.400293)
(0 -0.652976 0.400681)
(0 -0.712655 0.400518)
(0 -0.766172 0.401033)
(0 -0.827214 0.401023)
(0 -0.87902 0.401691)
(0 -0.942258 0.402088)
(0 -0.991196 0.403034)
(0 -1.05807 0.40418)
(0 -1.10197 0.405992)
(0 -1.17476 0.407935)
(0 -1.20994 0.412681)
(0 -1.29072 0.411719)
(0 -1.31311 0.424231)
(0 -1.40169 0.414198)
(0 1.41133 0.409664)
(0 1.3217 0.419356)
(0 1.29906 0.406765)
(0 1.21759 0.407576)
(0 1.18211 0.402873)
(0 1.10882 0.400809)
(0 1.06459 0.399054)
(0 0.997299 0.397853)
(0 0.948018 0.396936)
(0 0.884406 0.396515)
(0 0.832256 0.395858)
(0 0.77085 0.39586)
(0 0.716991 0.395348)
(0 0.656955 0.395511)
(0 0.602018 0.395124)
(0 0.542864 0.395315)
(0 0.487221 0.395038)
(0 0.428649 0.3952)
(0 0.372537 0.395013)
(0 0.314346 0.395131)
(0 0.257932 0.395013)
(0 0.199981 0.395088)
(0 0.143386 0.395024)
(0 0.0855677 0.39506)
(0 0.0288883 0.395039)
(0 -0.0288874 0.395039)
(0 -0.0855671 0.39506)
(0 -0.143385 0.395023)
(0 -0.19998 0.395088)
(0 -0.257931 0.395012)
(0 -0.314345 0.395132)
(0 -0.372537 0.395013)
(0 -0.428648 0.395201)
(0 -0.487221 0.395038)
(0 -0.542863 0.395316)
(0 -0.602018 0.395126)
(0 -0.656953 0.395514)
(0 -0.716989 0.395351)
(0 -0.770847 0.395863)
(0 -0.832252 0.395858)
(0 -0.884402 0.396516)
(0 -0.948015 0.396933)
(0 -0.997299 0.39785)
(0 -1.06459 0.399053)
(0 -1.10882 0.400806)
(0 -1.18211 0.402875)
(0 -1.21759 0.407569)
(0 -1.29907 0.406762)
(0 -1.3217 0.41935)
(0 -1.41134 0.409663)
(0 1.42079 0.405048)
(0 1.33011 0.414353)
(0 1.30723 0.401739)
(0 1.22506 0.402396)
(0 1.1893 0.39775)
(0 1.11551 0.395559)
(0 1.07095 0.393867)
(0 1.00326 0.392608)
(0 0.953638 0.391721)
(0 0.889658 0.39128)
(0 0.837173 0.390634)
(0 0.775413 0.390631)
(0 0.721221 0.390122)
(0 0.660836 0.390284)
(0 0.605567 0.389898)
(0 0.546068 0.390088)
(0 0.490092 0.389812)
(0 0.431177 0.389974)
(0 0.374732 0.389786)
(0 0.316199 0.389905)
(0 0.259451 0.389787)
(0 0.20116 0.389862)
(0 0.14423 0.389797)
(0 0.0860723 0.389834)
(0 0.0290581 0.389813)
(0 -0.0290573 0.389813)
(0 -0.0860717 0.389834)
(0 -0.144229 0.389797)
(0 -0.201159 0.389862)
(0 -0.259451 0.389786)
(0 -0.316198 0.389906)
(0 -0.374732 0.389786)
(0 -0.431176 0.389975)
(0 -0.490092 0.389812)
(0 -0.546067 0.39009)
(0 -0.605567 0.3899)
(0 -0.660834 0.390286)
(0 -0.721219 0.390125)
(0 -0.775409 0.390634)
(0 -0.837169 0.390635)
(0 -0.889655 0.391281)
(0 -0.953635 0.391718)
(0 -1.00326 0.392606)
(0 -1.07095 0.393866)
(0 -1.11551 0.395556)
(0 -1.1893 0.397752)
(0 -1.22506 0.402389)
(0 -1.30724 0.401736)
(0 -1.33011 0.414347)
(0 -1.42079 0.405047)
(0 1.43006 0.400352)
(0 1.33833 0.409344)
(0 1.31521 0.396646)
(0 1.23236 0.397148)
(0 1.19631 0.392566)
(0 1.12203 0.390247)
(0 1.07715 0.388621)
(0 1.00906 0.387305)
(0 0.959116 0.386449)
(0 0.894778 0.385988)
(0 0.841966 0.385353)
(0 0.779859 0.385345)
(0 0.725344 0.384839)
(0 0.664618 0.385)
(0 0.609027 0.384615)
(0 0.54919 0.384805)
(0 0.492891 0.384529)
(0 0.43364 0.384691)
(0 0.376872 0.384503)
(0 0.318005 0.384622)
(0 0.260932 0.384504)
(0 0.202309 0.384579)
(0 0.145053 0.384515)
(0 0.086564 0.384551)
(0 0.0292237 0.384531)
(0 -0.0292229 0.384531)
(0 -0.0865634 0.384552)
(0 -0.145053 0.384515)
(0 -0.202308 0.38458)
(0 -0.260932 0.384503)
(0 -0.318005 0.384623)
(0 -0.376871 0.384503)
(0 -0.43364 0.384692)
(0 -0.492891 0.384529)
(0 -0.549189 0.384807)
(0 -0.609026 0.384616)
(0 -0.664616 0.385003)
(0 -0.725342 0.384842)
(0 -0.779856 0.385347)
(0 -0.841962 0.385354)
(0 -0.894775 0.385988)
(0 -0.959114 0.386445)
(0 -1.00907 0.387302)
(0 -1.07715 0.388619)
(0 -1.12203 0.390244)
(0 -1.19631 0.392568)
(0 -1.23236 0.39714)
(0 -1.31522 0.396643)
(0 -1.33833 0.409338)
(0 -1.43006 0.400349)
(0 1.43912 0.395581)
(0 1.34635 0.404329)
(0 1.323 0.391481)
(0 1.23947 0.391828)
(0 1.20314 0.387316)
(0 1.12838 0.384869)
(0 1.08319 0.383311)
(0 1.01472 0.381938)
(0 0.964451 0.381114)
(0 0.899763 0.380634)
(0 0.846632 0.380011)
(0 0.784188 0.379997)
(0 0.729358 0.379495)
(0 0.668299 0.379655)
(0 0.612394 0.37927)
(0 0.552228 0.379461)
(0 0.495615 0.379185)
(0 0.436038 0.379348)
(0 0.378954 0.37916)
(0 0.319763 0.379278)
(0 0.262374 0.37916)
(0 0.203427 0.379236)
(0 0.145855 0.379171)
(0 0.0870426 0.379208)
(0 0.0293849 0.379187)
(0 -0.0293841 0.379187)
(0 -0.087042 0.379208)
(0 -0.145854 0.379171)
(0 -0.203426 0.379236)
(0 -0.262373 0.37916)
(0 -0.319763 0.379279)
(0 -0.378954 0.37916)
(0 -0.436038 0.379348)
(0 -0.495615 0.379185)
(0 -0.552227 0.379463)
(0 -0.612394 0.379272)
(0 -0.668298 0.379658)
(0 -0.729356 0.379497)
(0 -0.784185 0.38)
(0 -0.846629 0.380011)
(0 -0.899759 0.380634)
(0 -0.964449 0.381111)
(0 -1.01472 0.381935)
(0 -1.08319 0.38331)
(0 -1.12839 0.384867)
(0 -1.20314 0.387318)
(0 -1.23947 0.39182)
(0 -1.32301 0.391479)
(0 -1.34635 0.404324)
(0 -1.43912 0.395578)
(0 1.44797 0.390733)
(0 1.35417 0.399191)
(0 1.3306 0.386242)
(0 1.2464 0.386433)
(0 1.20979 0.381997)
(0 1.13456 0.379422)
(0 1.08907 0.377935)
(0 1.02022 0.376505)
(0 0.969639 0.375714)
(0 0.904608 0.375214)
(0 0.851169 0.374603)
(0 0.788396 0.374585)
(0 0.73326 0.374086)
(0 0.671878 0.374246)
(0 0.615668 0.373862)
(0 0.555182 0.374053)
(0 0.498264 0.373776)
(0 0.438369 0.373939)
(0 0.380979 0.373751)
(0 0.321472 0.37387)
(0 0.263775 0.373752)
(0 0.204514 0.373828)
(0 0.146634 0.373763)
(0 0.0875077 0.3738)
(0 0.0295417 0.373779)
(0 -0.0295409 0.373779)
(0 -0.0875072 0.3738)
(0 -0.146633 0.373763)
(0 -0.204513 0.373828)
(0 -0.263775 0.373752)
(0 -0.321471 0.373871)
(0 -0.380978 0.373751)
(0 -0.438368 0.37394)
(0 -0.498264 0.373776)
(0 -0.555181 0.374054)
(0 -0.615668 0.373863)
(0 -0.671877 0.374248)
(0 -0.733258 0.374088)
(0 -0.788392 0.374587)
(0 -0.851166 0.374603)
(0 -0.904605 0.375214)
(0 -0.969636 0.37571)
(0 -1.02022 0.376502)
(0 -1.08907 0.377934)
(0 -1.13457 0.379419)
(0 -1.20979 0.381999)
(0 -1.2464 0.386425)
(0 -1.3306 0.38624)
(0 -1.35417 0.399185)
(0 -1.44797 0.390731)
(0 1.4566 0.385811)
(0 1.36178 0.39394)
(0 1.33799 0.380935)
(0 1.25313 0.380969)
(0 1.21626 0.376616)
(0 1.14056 0.373912)
(0 1.09478 0.372499)
(0 1.02556 0.371012)
(0 0.974675 0.370255)
(0 0.909312 0.369736)
(0 0.855574 0.369138)
(0 0.79248 0.369114)
(0 0.737048 0.368619)
(0 0.675351 0.368778)
(0 0.618846 0.368395)
(0 0.558049 0.368587)
(0 0.500835 0.36831)
(0 0.440631 0.368473)
(0 0.382944 0.368285)
(0 0.323131 0.368404)
(0 0.265136 0.368287)
(0 0.205569 0.368362)
(0 0.14739 0.368298)
(0 0.0879592 0.368334)
(0 0.0296939 0.368314)
(0 -0.0296932 0.368314)
(0 -0.0879587 0.368335)
(0 -0.147389 0.368298)
(0 -0.205568 0.368362)
(0 -0.265135 0.368286)
(0 -0.32313 0.368405)
(0 -0.382944 0.368285)
(0 -0.440631 0.368474)
(0 -0.500835 0.36831)
(0 -0.558048 0.368588)
(0 -0.618846 0.368397)
(0 -0.67535 0.368781)
(0 -0.737047 0.368622)
(0 -0.792477 0.369117)
(0 -0.85557 0.369138)
(0 -0.909309 0.369736)
(0 -0.974673 0.370251)
(0 -1.02556 0.371009)
(0 -1.09478 0.372498)
(0 -1.14057 0.373909)
(0 -1.21626 0.376619)
(0 -1.25313 0.380961)
(0 -1.338 0.380932)
(0 -1.36179 0.393934)
(0 -1.45661 0.385808)
(0 1.46502 0.380807)
(0 1.36919 0.388603)
(0 1.34518 0.375556)
(0 1.25967 0.375433)
(0 1.22254 0.37117)
(0 1.14639 0.368336)
(0 1.10031 0.367)
(0 1.03074 0.365457)
(0 0.979558 0.364734)
(0 0.913871 0.364197)
(0 0.859843 0.36361)
(0 0.796438 0.363583)
(0 0.74072 0.363091)
(0 0.678717 0.36325)
(0 0.621927 0.362867)
(0 0.560827 0.363059)
(0 0.503327 0.362782)
(0 0.442823 0.362946)
(0 0.384849 0.362758)
(0 0.324738 0.362877)
(0 0.266454 0.362759)
(0 0.206591 0.362835)
(0 0.148123 0.362771)
(0 0.0883966 0.362807)
(0 0.0298415 0.362787)
(0 -0.0298409 0.362787)
(0 -0.0883961 0.362808)
(0 -0.148122 0.362771)
(0 -0.20659 0.362835)
(0 -0.266454 0.362759)
(0 -0.324737 0.362878)
(0 -0.384848 0.362758)
(0 -0.442823 0.362947)
(0 -0.503327 0.362783)
(0 -0.560826 0.36306)
(0 -0.621926 0.362869)
(0 -0.678716 0.363252)
(0 -0.740718 0.363094)
(0 -0.796435 0.363585)
(0 -0.85984 0.36361)
(0 -0.913868 0.364197)
(0 -0.979556 0.364731)
(0 -1.03074 0.365454)
(0 -1.10031 0.366999)
(0 -1.14639 0.368333)
(0 -1.22253 0.371173)
(0 -1.25967 0.375424)
(0 -1.34519 0.375554)
(0 -1.36919 0.388598)
(0 -1.46502 0.380805)
(0 1.47321 0.375713)
(0 1.37637 0.383179)
(0 1.35216 0.370102)
(0 1.266 0.36982)
(0 1.22862 0.365654)
(0 1.15202 0.36269)
(0 1.10567 0.361434)
(0 1.03574 0.359833)
(0 0.984284 0.359147)
(0 0.918282 0.358591)
(0 0.863975 0.358017)
(0 0.800267 0.357985)
(0 0.744273 0.357497)
(0 0.681973 0.357656)
(0 0.624907 0.357274)
(0 0.563514 0.357466)
(0 0.505737 0.35719)
(0 0.444944 0.357354)
(0 0.386691 0.357166)
(0 0.326292 0.357285)
(0 0.26773 0.357168)
(0 0.20758 0.357243)
(0 0.148832 0.357179)
(0 0.0888196 0.357215)
(0 0.0299844 0.357195)
(0 -0.0299838 0.357195)
(0 -0.0888192 0.357216)
(0 -0.148831 0.357179)
(0 -0.207579 0.357243)
(0 -0.26773 0.357167)
(0 -0.326292 0.357286)
(0 -0.386691 0.357166)
(0 -0.444943 0.357354)
(0 -0.505738 0.35719)
(0 -0.563514 0.357468)
(0 -0.624907 0.357276)
(0 -0.681972 0.357658)
(0 -0.744271 0.3575)
(0 -0.800264 0.357988)
(0 -0.863971 0.358017)
(0 -0.918279 0.358591)
(0 -0.984281 0.359144)
(0 -1.03575 0.359831)
(0 -1.10567 0.361432)
(0 -1.15203 0.362687)
(0 -1.22862 0.365658)
(0 -1.266 0.369811)
(0 -1.35216 0.3701)
(0 -1.37638 0.383173)
(0 -1.47322 0.37571)
(0 1.48117 0.370533)
(0 1.38334 0.377672)
(0 1.35892 0.364579)
(0 1.27213 0.364137)
(0 1.2345 0.360073)
(0 1.15747 0.356978)
(0 1.11085 0.355804)
(0 1.04058 0.354148)
(0 0.988848 0.353498)
(0 0.922542 0.352925)
(0 0.867964 0.352363)
(0 0.803964 0.352328)
(0 0.747703 0.351844)
(0 0.685117 0.352002)
(0 0.627785 0.351621)
(0 0.566109 0.351814)
(0 0.508065 0.351538)
(0 0.446991 0.351702)
(0 0.388471 0.351514)
(0 0.327793 0.351633)
(0 0.268962 0.351516)
(0 0.208535 0.351592)
(0 0.149517 0.351528)
(0 0.089228 0.351564)
(0 0.0301224 0.351544)
(0 -0.0301219 0.351544)
(0 -0.0892276 0.351564)
(0 -0.149516 0.351527)
(0 -0.208534 0.351592)
(0 -0.268961 0.351515)
(0 -0.327793 0.351634)
(0 -0.388471 0.351514)
(0 -0.446991 0.351702)
(0 -0.508066 0.351538)
(0 -0.566108 0.351815)
(0 -0.627785 0.351623)
(0 -0.685116 0.352005)
(0 -0.747702 0.351846)
(0 -0.803961 0.352331)
(0 -0.867961 0.352363)
(0 -0.922539 0.352924)
(0 -0.988846 0.353495)
(0 -1.04058 0.354145)
(0 -1.11085 0.355803)
(0 -1.15747 0.356975)
(0 -1.2345 0.360077)
(0 -1.27213 0.364127)
(0 -1.35892 0.364576)
(0 -1.38334 0.377667)
(0 -1.48118 0.37053)
(0 1.4889 0.365281)
(0 1.39007 0.372087)
(0 1.36546 0.358988)
(0 1.27805 0.358385)
(0 1.24018 0.354429)
(0 1.16272 0.351203)
(0 1.11585 0.350114)
(0 1.04525 0.348402)
(0 0.993249 0.34779)
(0 0.926646 0.347199)
(0 0.87181 0.346651)
(0 0.807526 0.346612)
(0 0.75101 0.346131)
(0 0.688146 0.34629)
(0 0.630558 0.34591)
(0 0.568608 0.346103)
(0 0.510309 0.345827)
(0 0.448964 0.345992)
(0 0.390186 0.345804)
(0 0.329239 0.345923)
(0 0.270149 0.345806)
(0 0.209454 0.345882)
(0 0.150176 0.345818)
(0 0.0896214 0.345854)
(0 0.0302555 0.345834)
(0 -0.030255 0.345834)
(0 -0.0896211 0.345855)
(0 -0.150176 0.345818)
(0 -0.209454 0.345882)
(0 -0.270148 0.345805)
(0 -0.329239 0.345924)
(0 -0.390185 0.345804)
(0 -0.448963 0.345992)
(0 -0.510309 0.345828)
(0 -0.568608 0.346104)