/*--------------------------------*- C++ -*----------------------------------*\
| =========                 |                                                 |
| \\      /  F ield         | OpenFOAM: The Open Source CFD Toolbox           |
|  \\    /   O peration     | Version:  dev                                   |
|   \\  /    A nd           | Web:      www.OpenFOAM.org                      |
|    \\/     M anipulation  |                                                 |
\*---------------------------------------------------------------------------*/
FoamFile
{
    version     2.0;
    format      ascii;
    class       volScalarField;
    location    "0.2";
    object      A1;
}
// * * * * * * * * * * * * * * * * * * * * * * * * * * * * * * * * * * * * * //

dimensions      [0 0 0 0 0 0 0];

internalField   nonuniform List<scalar> 
1000
(
1.54505e-05
0.000397214
0.0003782
0.000373348
0.000372922
0.000372679
0.000372706
0.000372703
0.000372714
0.000372703
0.00037269
0.000372705
0.000372707
0.000372692
0.000372707
0.000372794
0.000373608
0.000380348
0.000426694
1.50461e-05
3.50952e-05
0.000344053
0.000307819
0.000298937
0.000298329
0.000297866
0.000297935
0.000297901
0.000297915
0.000297909
0.00029789
0.000297903
0.000297903
0.000297884
0.000297914
0.00029804
0.000299408
0.000311207
0.00041233
3.49488e-05
6.59696e-05
0.000254309
0.000215987
0.00020478
0.00020445
0.000203721
0.000203863
0.00020378
0.000203805
0.000203793
0.000203773
0.000203789
0.000203781
0.000203771
0.000203796
0.000203939
0.000205469
0.000218672
0.000343173
5.09337e-05
0.000205876
0.000188753
0.000151324
0.000138989
0.000138944
0.000138029
0.00013822
0.000138108
0.000138142
0.000138121
0.000138107
0.000138124
0.000138108
0.0001381
0.000138125
0.000138275
0.000139823
0.000153091
0.000288023
6.32483e-05
0.000249363
0.000146349
0.000109263
9.64715e-05
9.65865e-05
9.55958e-05
9.5791e-05
9.5681e-05
9.57205e-05
9.56915e-05
9.56849e-05
9.56998e-05
9.56789e-05
9.5661e-05
9.56977e-05
9.58508e-05
9.73642e-05
0.000110184
0.000249376
7.17363e-05
0.000246149
0.000119231
8.03682e-05
6.91249e-05
6.92746e-05
6.82949e-05
6.84524e-05
6.83749e-05
6.84135e-05
6.83802e-05
6.8381e-05
6.8393e-05
6.83688e-05
6.83332e-05
6.83892e-05
6.85454e-05
7.0013e-05
8.21732e-05
0.00022192
7.6828e-05
0.000248265
0.000100605
6.1974e-05
5.13543e-05
5.14346e-05
5.05182e-05
5.06233e-05
5.05847e-05
5.06212e-05
5.05813e-05
5.05934e-05
5.06023e-05
5.05708e-05
5.05032e-05
5.05986e-05
5.07571e-05
5.2202e-05
6.36332e-05
0.000201209
7.94773e-05
0.000262813
8.84896e-05
4.9475e-05
3.95781e-05
3.9571e-05
3.87608e-05
3.8843e-05
3.88141e-05
3.88458e-05
3.88084e-05
3.88228e-05
3.88289e-05
3.87998e-05
3.87428e-05
3.88272e-05
3.89733e-05
4.03738e-05
5.12016e-05
0.000184319
8.07102e-05
0.000288495
8.08176e-05
4.04645e-05
3.13711e-05
3.15813e-05
3.0919e-05
3.10336e-05
3.09614e-05
3.09896e-05
3.09616e-05
3.09706e-05
3.09743e-05
3.09545e-05
3.09434e-05
3.09759e-05
3.10795e-05
3.20096e-05
4.20948e-05
0.000169449
8.11946e-05
0.000320503
7.50342e-05
3.37499e-05
2.58889e-05
2.58312e-05
2.52207e-05
2.53658e-05
2.52451e-05
2.52704e-05
2.52481e-05
2.52567e-05
2.5259e-05
2.52363e-05
2.52904e-05
2.52701e-05
2.53908e-05
2.64959e-05
3.52026e-05
0.000155566
8.12224e-05
0.000351842
7.07136e-05
2.89838e-05
2.18554e-05
2.1672e-05
2.11757e-05
2.12929e-05
2.11866e-05
2.1208e-05
2.11886e-05
2.11985e-05
2.11994e-05
2.11706e-05
2.12274e-05
2.1215e-05
2.13313e-05
2.23703e-05
3.07423e-05
0.000142158
8.08604e-05
0.00037598
6.68347e-05
2.54703e-05
1.89957e-05
1.87177e-05
1.8299e-05
1.83641e-05
1.82999e-05
1.83196e-05
1.83011e-05
1.83132e-05
1.83132e-05
1.82717e-05
1.82876e-05
1.83327e-05
1.84498e-05
1.94407e-05
2.71773e-05
0.000129027
8.00638e-05
0.00038898
6.32436e-05
2.27365e-05
1.68962e-05
1.65516e-05
1.61895e-05
1.6188e-05
1.6182e-05
1.62015e-05
1.6186e-05
1.61971e-05
1.6197e-05
1.61354e-05
1.63643e-05
1.62214e-05
1.63384e-05
1.72832e-05
2.4225e-05
0.000116219
7.87237e-05
0.00038995
5.97595e-05
2.09866e-05
1.5303e-05
1.49096e-05
1.45917e-05
1.47323e-05
1.45755e-05
1.45958e-05
1.45844e-05
1.45929e-05
1.45931e-05
1.4497e-05
1.47124e-05
1.46199e-05
1.47383e-05
1.56408e-05
2.21161e-05
0.000102885
7.67396e-05
0.000380303
5.6477e-05
1.94721e-05
1.40539e-05
1.36255e-05
1.33408e-05
1.34504e-05
1.33164e-05
1.33397e-05
1.33321e-05
1.33379e-05
1.33394e-05
1.3365e-05
1.34185e-05
1.33667e-05
1.34869e-05
1.43494e-05
2.01331e-05
8.91159e-05
7.40841e-05
0.000362625
5.32005e-05
1.8112e-05
1.30454e-05
1.25938e-05
1.23348e-05
1.24125e-05
1.2301e-05
1.23302e-05
1.23253e-05
1.23295e-05
1.2332e-05
1.23455e-05
1.2383e-05
1.23595e-05
1.24811e-05
1.33049e-05
1.84392e-05
7.80219e-05
7.07762e-05
0.000339757
4.98188e-05
1.695e-05
1.22116e-05
1.17465e-05
1.15086e-05
1.15618e-05
1.14626e-05
1.15018e-05
1.14983e-05
1.15019e-05
1.15053e-05
1.15068e-05
1.1539e-05
1.15329e-05
1.16551e-05
1.24399e-05
1.69864e-05
6.7745e-05
6.68758e-05
0.000314264
4.64222e-05
1.59146e-05
1.15103e-05
1.10399e-05
1.08206e-05
1.08561e-05
1.07573e-05
1.08122e-05
1.08094e-05
1.08131e-05
1.0817e-05
1.08033e-05
1.08407e-05
1.08447e-05
1.09663e-05
1.17115e-05
1.57326e-05
5.85208e-05
6.25412e-05
0.000288236
4.31113e-05
1.51687e-05
1.09147e-05
1.04457e-05
1.02439e-05
1.02677e-05
1.02341e-05
1.02347e-05
1.02321e-05
1.02361e-05
1.024e-05
1.02034e-05
1.02581e-05
1.02675e-05
1.03876e-05
1.10918e-05
1.46483e-05
5.05091e-05
5.79622e-05
0.000258076
3.99128e-05
1.44608e-05
1.04073e-05
9.94624e-06
9.76174e-06
9.77728e-06
9.7444e-06
9.75188e-06
9.74964e-06
9.75388e-06
9.75757e-06
9.75483e-06
9.77274e-06
9.78438e-06
9.9018e-06
1.05636e-05
1.37116e-05
4.29935e-05
5.33018e-05
0.000232108
3.68776e-05
1.37726e-05
1.00238e-05
9.53052e-06
9.36394e-06
9.37336e-06
9.33749e-06
9.35358e-06
9.35212e-06
9.35645e-06
9.35922e-06
9.3767e-06
9.37274e-06
9.38494e-06
9.49879e-06
1.01139e-05
1.29118e-05
3.66687e-05
4.8719e-05
0.000208159
3.40297e-05
1.31695e-05
9.69667e-06
9.19216e-06
9.04558e-06
9.05005e-06
9.04904e-06
9.03479e-06
9.03448e-06
9.03865e-06
9.03982e-06
9.05429e-06
9.05187e-06
9.06398e-06
9.17343e-06
9.74648e-06
1.22397e-05
3.16296e-05
4.43254e-05
0.000183962
3.1387e-05
1.26477e-05
9.46056e-06
8.96794e-06
8.83464e-06
8.83671e-06
8.83748e-06
8.82442e-06
8.82525e-06
8.8286e-06
8.82852e-06
8.84294e-06
8.8391e-06
8.8509e-06
8.95544e-06
9.48639e-06
1.16913e-05
2.74444e-05
4.02246e-05
0.00016288
2.89772e-05
1.22062e-05
9.29056e-06
8.80597e-06
8.68882e-06
8.68763e-06
8.69094e-06
8.67858e-06
8.681e-06
8.6867e-06
8.6817e-06
8.6973e-06
8.69049e-06
8.70178e-06
8.80105e-06
9.29645e-06
1.12619e-05
2.41263e-05
3.64894e-05
0.000144599
2.68132e-05
1.18455e-05
9.20933e-06
8.73404e-06
8.63337e-06
8.62918e-06
8.63572e-06
8.62343e-06
8.62783e-06
8.63296e-06
8.6249e-06
8.64273e-06
8.63147e-06
8.64238e-06
8.73507e-06
9.19154e-06
1.09876e-05
2.15477e-05
3.31938e-05
0.000125344
2.48975e-05
1.16244e-05
9.21324e-06
8.74632e-06
8.66338e-06
8.65592e-06
8.66654e-06
8.65373e-06
8.66049e-06
8.66604e-06
8.6529e-06
8.67379e-06
8.65697e-06
8.66762e-06
8.75218e-06
9.17094e-06
1.08131e-05
1.95929e-05
3.03927e-05
0.000106713
2.32364e-05
1.14964e-05
9.30849e-06
8.84891e-06
8.78501e-06
8.77395e-06
8.78957e-06
8.77564e-06
8.78513e-06
8.79133e-06
8.77167e-06
8.79671e-06
8.77303e-06
8.78361e-06
8.86041e-06
9.2392e-06
1.07629e-05
1.8142e-05
2.80618e-05
9.16266e-05
2.18378e-05
1.14702e-05
9.50157e-06
9.04875e-06
9.0049e-06
8.98996e-06
9.01149e-06
8.99584e-06
9.00842e-06
9.01539e-06
8.98795e-06
9.01832e-06
8.98635e-06
8.99711e-06
9.06643e-06
9.40344e-06
1.08289e-05
1.69918e-05
2.62024e-05
8.02387e-05
2.07011e-05
1.15525e-05
9.79851e-06
9.3521e-06
9.32896e-06
9.30998e-06
9.33823e-06
9.3202e-06
9.33628e-06
9.34426e-06
9.308e-06
9.34481e-06
9.30305e-06
9.31435e-06
9.37649e-06
9.67056e-06
1.10145e-05
1.62105e-05
2.48007e-05
6.91528e-05
1.98564e-05
1.1749e-05
1.02034e-05
9.7635e-06
9.76111e-06
9.73807e-06
9.77374e-06
9.75245e-06
9.77265e-06
9.78182e-06
9.73604e-06
9.78012e-06
9.72724e-06
9.73956e-06
9.79482e-06
1.00459e-05
1.13212e-05
1.58276e-05
2.3827e-05
5.83557e-05
1.92368e-05
1.20615e-05
1.07165e-05
1.02838e-05
1.03013e-05
1.02744e-05
1.03179e-05
1.0292e-05
1.03174e-05
1.03279e-05
1.02724e-05
1.03241e-05
1.02591e-05
1.02731e-05
1.03217e-05
1.05315e-05
1.17461e-05
1.5709e-05
2.32359e-05
5.07441e-05
1.88307e-05
1.2486e-05
1.13326e-05
1.09082e-05
1.09436e-05
1.09131e-05
1.09649e-05
1.09324e-05
1.09646e-05
1.09764e-05
1.09117e-05
1.09708e-05
1.08933e-05
1.09096e-05
1.09514e-05
1.11243e-05
1.22804e-05
1.58166e-05
2.29739e-05
4.4304e-05
1.86112e-05
1.30106e-05
1.20393e-05
1.16514e-05
1.16909e-05
1.16578e-05
1.17014e-05
1.16787e-05
1.17011e-05
1.1714e-05
1.16412e-05
1.17069e-05
1.16349e-05
1.16537e-05
1.16969e-05
1.18148e-05
1.29582e-05
1.61136e-05
2.29799e-05
3.91431e-05
1.85467e-05
1.36769e-05
1.28159e-05
1.24458e-05
1.24941e-05
1.24591e-05
1.25066e-05
1.24791e-05
1.25061e-05
1.252e-05
1.2441e-05
1.25117e-05
1.24324e-05
1.24539e-05
1.24914e-05
1.25833e-05
1.36992e-05
1.65584e-05
2.31863e-05
3.50201e-05
1.86068e-05
1.4361e-05
1.36361e-05
1.32874e-05
1.33404e-05
1.33044e-05
1.3354e-05
1.33235e-05
1.33532e-05
1.33677e-05
1.3285e-05
1.33586e-05
1.3275e-05
1.32987e-05
1.33315e-05
1.34043e-05
1.44647e-05
1.71059e-05
2.35205e-05
3.17665e-05
1.87562e-05
1.50823e-05
1.44711e-05
1.41474e-05
1.42009e-05
1.41649e-05
1.42147e-05
1.41831e-05
1.42136e-05
1.42283e-05
1.41444e-05
1.42187e-05
1.4134e-05
1.41591e-05
1.41881e-05
1.42484e-05
1.52486e-05
1.77102e-05
2.39101e-05
2.92198e-05
1.89639e-05
1.5812e-05
1.52935e-05
1.49977e-05
1.50482e-05
1.50131e-05
1.50611e-05
1.50297e-05
1.50597e-05
1.50743e-05
1.49917e-05
1.50646e-05
1.49817e-05
1.50074e-05
1.50334e-05
1.50866e-05
1.60208e-05
1.83266e-05
2.42854e-05
2.72541e-05
1.92052e-05
1.65239e-05
1.60814e-05
1.58146e-05
1.58601e-05
1.58266e-05
1.58714e-05
1.58412e-05
1.58699e-05
1.5884e-05
1.58045e-05
1.58745e-05
1.57957e-05
1.58213e-05
1.58445e-05
1.58944e-05
1.67569e-05
1.89176e-05
2.45949e-05
2.5775e-05
1.94622e-05
1.71992e-05
1.68204e-05
1.65823e-05
1.66222e-05
1.65907e-05
1.66316e-05
1.66031e-05
1.66301e-05
1.66435e-05
1.65683e-05
1.66344e-05
1.65611e-05
1.65861e-05
1.66066e-05
1.66547e-05
1.74409e-05
1.94539e-05
2.47927e-05
2.46504e-05
1.97235e-05
1.78293e-05
1.75035e-05
1.72936e-05
1.73281e-05
1.7299e-05
1.73356e-05
1.7309e-05
1.73341e-05
1.73468e-05
1.72766e-05
1.73381e-05
1.72714e-05
1.7295e-05
1.73132e-05
1.73593e-05
1.80661e-05
1.99197e-05
2.48579e-05
2.38137e-05
1.99846e-05
1.84112e-05
1.81309e-05
1.7947e-05
1.79776e-05
1.79511e-05
1.79833e-05
1.79589e-05
1.7982e-05
1.7994e-05
1.79289e-05
1.79858e-05
1.79261e-05
1.79479e-05
1.79644e-05
1.80068e-05
1.86336e-05
2.03151e-05
2.48069e-05
2.32094e-05
2.02473e-05
1.89473e-05
1.87157e-05
1.85579e-05
1.85744e-05
1.85505e-05
1.85785e-05
1.85563e-05
1.85776e-05
1.85889e-05
1.85289e-05
1.85811e-05
1.85285e-05
1.85483e-05
1.85655e-05
1.86064e-05
1.91487e-05
2.06454e-05
2.46528e-05
2.27924e-05
2.05073e-05
1.94418e-05
1.92459e-05
1.91103e-05
1.91237e-05
1.91025e-05
1.91266e-05
1.91065e-05
1.91261e-05
1.91366e-05
1.90817e-05
1.91293e-05
1.90836e-05
1.91012e-05
1.91169e-05
1.9153e-05
1.9618e-05
2.09216e-05
2.44208e-05
2.25269e-05
2.07684e-05
1.99007e-05
1.97363e-05
1.96212e-05
1.96316e-05
1.96129e-05
1.96333e-05
1.96154e-05
1.96334e-05
1.96431e-05
1.95933e-05
1.96363e-05
1.95967e-05
1.96125e-05
1.96258e-05
1.96578e-05
2.00495e-05
2.11574e-05
2.41418e-05
2.23849e-05
2.1033e-05
2.03304e-05
2.01933e-05
2.0097e-05
2.01045e-05
2.00882e-05
2.01053e-05
2.00896e-05
2.0106e-05
2.01148e-05
2.00699e-05
2.01084e-05
2.00742e-05
2.00886e-05
2.00995e-05
2.01276e-05
2.04515e-05
2.13681e-05
2.38489e-05
2.23452e-05
2.13035e-05
2.07376e-05
2.06234e-05
2.05437e-05
2.05486e-05
2.05346e-05
2.05486e-05
2.05349e-05
2.05498e-05
2.05576e-05
2.05178e-05
2.05518e-05
2.05226e-05
2.05356e-05
2.05445e-05
2.05692e-05
2.0832e-05
2.15689e-05
2.35744e-05
2.23894e-05
2.15793e-05
2.11254e-05
2.10287e-05
2.09634e-05
2.09657e-05
2.0954e-05
2.0965e-05
2.09534e-05
2.09668e-05
2.09734e-05
2.0939e-05
2.09681e-05
2.09439e-05
2.09555e-05
2.09631e-05
2.09855e-05
2.11947e-05
2.17714e-05
2.33467e-05
2.24949e-05
2.18501e-05
2.14866e-05
2.14006e-05
2.13479e-05
2.13472e-05
2.13379e-05
2.13456e-05
2.13364e-05
2.1348e-05
2.13532e-05
2.13249e-05
2.13485e-05
2.13296e-05
2.13398e-05
2.13467e-05
2.13687e-05
2.15324e-05
2.19764e-05
2.31822e-05
2.26253e-05
2.20894e-05
2.1795e-05
2.17135e-05
2.16711e-05
2.16671e-05
2.166e-05
2.16647e-05
2.16577e-05
2.16676e-05
2.16713e-05
2.16491e-05
2.16672e-05
2.16535e-05
2.16623e-05
2.1669e-05
2.16924e-05
2.18203e-05
2.21652e-05
2.30798e-05
2.27369e-05
2.22602e-05
2.20095e-05
2.19282e-05
2.18926e-05
2.18859e-05
2.18806e-05
2.18828e-05
2.18776e-05
2.1886e-05
2.18885e-05
2.18714e-05
2.18849e-05
2.18754e-05
2.18831e-05
2.18898e-05
2.19154e-05
2.20204e-05
2.23055e-05
2.3035e-05
)
;

boundaryField
{
    fuel
    {
        type            fixedValue;
        value           uniform 0;
    }
    wall
    {
        type            zeroGradient;
    }
    outlet
    {
        type            zeroGradient;
    }
    frontAndBack
    {
        type            empty;
    }
}


// ************************************************************************* //
