/*--------------------------------*- C++ -*----------------------------------*\
| =========                 |                                                 |
| \\      /  F ield         | OpenFOAM: The Open Source CFD Toolbox           |
|  \\    /   O peration     | Version:  dev                                   |
|   \\  /    A nd           | Web:      www.OpenFOAM.org                      |
|    \\/     M anipulation  |                                                 |
\*---------------------------------------------------------------------------*/
FoamFile
{
    version     2.0;
    format      ascii;
    class       volScalarField;
    location    "0.2";
    object      A1C2H3*;
}
// * * * * * * * * * * * * * * * * * * * * * * * * * * * * * * * * * * * * * //

dimensions      [0 0 0 0 0 0 0];

internalField   nonuniform List<scalar> 
1000
(
3.57134e-10
3.67559e-08
2.98205e-08
2.89266e-08
2.8816e-08
2.88055e-08
2.88014e-08
2.88029e-08
2.8804e-08
2.8804e-08
2.88032e-08
2.88033e-08
2.88035e-08
2.88038e-08
2.88033e-08
2.88232e-08
2.88982e-08
2.94835e-08
3.29386e-08
5.60773e-10
3.22359e-10
8.20838e-09
5.58595e-09
5.30669e-09
5.27173e-09
5.26851e-09
5.26751e-09
5.2676e-09
5.26834e-09
5.268e-09
5.26804e-09
5.26809e-09
5.2676e-09
5.26953e-09
5.26643e-09
5.27928e-09
5.29392e-09
5.50916e-09
6.65106e-09
6.87354e-10
1.73904e-10
2.3437e-09
1.28347e-09
1.19056e-09
1.17861e-09
1.17752e-09
1.17726e-09
1.17718e-09
1.17749e-09
1.17729e-09
1.17743e-09
1.17749e-09
1.17723e-09
1.17828e-09
1.17644e-09
1.18314e-09
1.18438e-09
1.26968e-09
1.73583e-09
3.80113e-09
8.64486e-11
1.1042e-09
4.68035e-10
4.21464e-10
4.15345e-10
4.1477e-10
4.1462e-10
4.1458e-10
4.14743e-10
4.14628e-10
4.14728e-10
4.14791e-10
4.14659e-10
4.1516e-10
4.14231e-10
4.18127e-10
4.17727e-10
4.65059e-10
7.56105e-10
5.11958e-08
4.80175e-11
7.1277e-10
2.41531e-10
2.10311e-10
2.06165e-10
2.05754e-10
2.05576e-10
2.05606e-10
2.0572e-10
2.05641e-10
2.0572e-10
2.05779e-10
2.05696e-10
2.05914e-10
2.05457e-10
2.08118e-10
2.07652e-10
2.41464e-10
4.12447e-10
2.67466e-08
3.32188e-11
5.28775e-10
1.50024e-10
1.25875e-10
1.22662e-10
1.22323e-10
1.22054e-10
1.22193e-10
1.22278e-10
1.22219e-10
1.22287e-10
1.22339e-10
1.22279e-10
1.22299e-10
1.22144e-10
1.24143e-10
1.23821e-10
1.47299e-10
2.60486e-10
8.10889e-09
3.25732e-11
4.19997e-10
1.0399e-10
8.37096e-11
8.10027e-11
8.06868e-11
8.02828e-11
8.05443e-11
8.06132e-11
8.05545e-11
8.06331e-11
8.06787e-11
8.06288e-11
8.04327e-11
8.05729e-11
8.21834e-11
8.20515e-11
1.0145e-10
1.86945e-10
3.12557e-09
5.24575e-11
3.47094e-10
7.54174e-11
6.00968e-11
5.74438e-11
5.71232e-11
5.66846e-11
5.69659e-11
5.70147e-11
5.69636e-11
5.70386e-11
5.70777e-11
5.7033e-11
5.67994e-11
5.70448e-11
5.84616e-11
5.86859e-11
7.37274e-11
1.47902e-10
1.84571e-09
1.17955e-10
2.93991e-10
5.92529e-11
4.38914e-11
4.24177e-11
4.23118e-11
4.23827e-11
4.22668e-11
4.22989e-11
4.22518e-11
4.23239e-11
4.23568e-11
4.23158e-11
4.24675e-11
4.22519e-11
4.29983e-11
4.28377e-11
5.72128e-11
1.25534e-10
1.48159e-09
2.63649e-10
2.52527e-10
4.74556e-11
3.47798e-11
3.31883e-11
3.30094e-11
3.31643e-11
3.29469e-11
3.2953e-11
3.28985e-11
3.29885e-11
3.30198e-11
3.29618e-11
3.32252e-11
3.29576e-11
3.37468e-11
3.38497e-11
4.53682e-11
1.09315e-10
1.35697e-09
5.53877e-10
2.18106e-10
3.90271e-11
2.81465e-11
2.65791e-11
2.64082e-11
2.64498e-11
2.63444e-11
2.63438e-11
2.63068e-11
2.63699e-11
2.63938e-11
2.63301e-11
2.64072e-11
2.63696e-11
2.70024e-11
2.73301e-11
3.72803e-11
9.78766e-11
1.29049e-09
9.71319e-10
1.88081e-10
3.35806e-11
2.34591e-11
2.20201e-11
2.1854e-11
2.18883e-11
2.17975e-11
2.17952e-11
2.17842e-11
2.18085e-11
2.18269e-11
2.17474e-11
2.21993e-11
2.18217e-11
2.23454e-11
2.27631e-11
3.14486e-11
8.81888e-11
1.22971e-09
1.23432e-09
1.61242e-10
2.90358e-11
2.00635e-11
1.87311e-11
1.857e-11
1.88361e-11
1.85204e-11
1.85237e-11
1.85387e-11
1.85213e-11
1.85353e-11
1.84265e-11
1.88023e-11
1.85373e-11
1.89828e-11
1.94581e-11
2.70018e-11
7.98564e-11
1.15991e-09
1.19386e-09
1.37529e-10
2.57331e-11
1.75112e-11
1.62655e-11
1.61062e-11
1.62368e-11
1.60603e-11
1.60758e-11
1.61049e-11
1.60575e-11
1.60688e-11
1.59114e-11
1.62223e-11
1.60731e-11
1.64621e-11
1.69774e-11
2.41349e-11
7.24296e-11
1.07682e-09
9.66038e-10
1.15273e-10
2.28939e-11
1.55212e-11
1.43538e-11
1.41962e-11
1.42496e-11
1.41475e-11
1.4179e-11
1.42081e-11
1.41474e-11
1.4158e-11
1.41891e-11
1.42474e-11
1.41623e-11
1.45089e-11
1.50462e-11
2.17579e-11
6.6103e-11
9.81332e-10
6.95876e-10
9.48483e-11
2.03502e-11
1.39185e-11
1.28276e-11
1.26728e-11
1.26869e-11
1.2614e-11
1.2664e-11
1.26847e-11
1.26233e-11
1.26334e-11
1.2647e-11
1.26866e-11
1.26378e-11
1.29505e-11
1.34934e-11
1.95799e-11
6.02478e-11
8.76098e-10
4.63644e-10
7.98864e-11
1.82019e-11
1.25933e-11
1.15792e-11
1.14286e-11
1.1423e-11
1.13523e-11
1.14237e-11
1.14339e-11
1.13784e-11
1.13881e-11
1.13866e-11
1.14212e-11
1.13928e-11
1.16767e-11
1.22127e-11
1.77363e-11
5.44931e-11
7.66659e-10
2.98142e-10
6.72854e-11
1.63624e-11
1.14734e-11
1.0539e-11
1.03941e-11
1.03789e-11
1.02914e-11
1.03895e-11
1.03909e-11
1.03434e-11
1.03525e-11
1.0336e-11
1.03745e-11
1.03577e-11
1.06158e-11
1.11354e-11
1.61221e-11
4.90894e-11
6.60084e-10
1.91647e-10
5.66723e-11
1.47751e-11
1.05089e-11
9.66089e-12
9.52294e-12
9.50439e-12
9.49966e-12
9.51669e-12
9.51198e-12
9.47239e-12
9.48044e-12
9.44768e-12
9.49658e-12
9.48652e-12
9.7208e-12
1.02169e-11
1.49587e-11
4.40846e-11
5.45744e-10
1.26431e-10
4.77545e-11
1.34019e-11
9.66361e-12
8.91389e-12
8.78407e-12
8.76449e-12
8.74646e-12
8.77494e-12
8.76694e-12
8.73448e-12
8.74116e-12
8.69007e-12
8.75435e-12
8.74831e-12
8.95985e-12
9.42497e-12
1.38227e-11
3.94956e-11
4.53586e-10
8.70819e-11
4.0286e-11
1.22168e-11
9.01751e-12
8.27663e-12
8.15596e-12
8.13685e-12
8.10229e-12
8.14377e-12
8.13458e-12
8.10828e-12
8.11354e-12
8.12457e-12
8.12572e-12
8.12166e-12
8.31088e-12
8.81272e-12
1.27587e-11
3.53024e-11
3.66499e-10
6.31525e-11
3.36141e-11
1.11962e-11
8.43083e-12
7.73316e-12
7.62329e-12
7.60605e-12
7.61897e-12
7.60867e-12
7.59958e-12
7.57856e-12
7.58241e-12
7.59956e-12
7.59344e-12
7.59147e-12
7.75689e-12
8.25796e-12
1.18188e-11
3.15085e-11
2.97005e-10
4.82675e-11
2.80037e-11
1.03267e-11
7.96717e-12
7.32804e-12
7.23052e-12
7.21487e-12
7.22295e-12
7.21415e-12
7.20608e-12
7.18886e-12
7.19269e-12
7.21137e-12
7.20255e-12
7.20037e-12
7.35226e-12
7.82293e-12
1.09908e-11
2.81091e-11
2.35392e-10
3.86712e-11
2.39526e-11
9.59244e-12
7.57048e-12
7.00002e-12
6.88668e-12
6.87254e-12
6.87633e-12
6.86902e-12
6.86166e-12
6.8478e-12
6.85275e-12
6.86845e-12
6.85956e-12
6.85906e-12
6.99463e-12
7.44395e-12
1.02624e-11
2.5091e-11
1.87685e-10
3.21819e-11
2.06582e-11
9.05183e-12
7.2649e-12
6.74541e-12
6.64166e-12
6.62896e-12
6.63098e-12
6.62346e-12
6.6183e-12
6.60699e-12
6.61232e-12
6.62425e-12
6.61633e-12
6.61694e-12
6.73809e-12
7.16208e-12
9.62191e-12
2.2435e-11
1.49519e-10
2.75537e-11
1.80398e-11
8.60662e-12
7.03522e-12
6.56122e-12
6.46762e-12
6.45628e-12
6.45778e-12
6.44939e-12
6.44692e-12
6.43753e-12
6.44213e-12
6.45116e-12
6.44414e-12
6.44608e-12
6.55343e-12
6.95261e-12
9.16323e-12
2.01202e-11
1.19607e-10
2.40962e-11
1.60026e-11
8.27731e-12
6.87715e-12
6.44733e-12
6.36234e-12
6.35223e-12
6.35428e-12
6.34446e-12
6.34508e-12
6.33723e-12
6.34021e-12
6.34773e-12
6.34086e-12
6.34433e-12
6.43818e-12
6.81464e-12
8.79006e-12
1.81234e-11
9.54827e-11
2.14406e-11
1.43197e-11
8.0445e-12
6.78875e-12
6.40137e-12
6.32375e-12
6.31472e-12
6.3181e-12
6.30642e-12
6.31045e-12
6.30378e-12
6.3048e-12
6.31184e-12
6.30436e-12
6.30946e-12
6.39028e-12
6.74577e-12
8.50077e-12
1.64216e-11
7.61518e-11
1.93513e-11
1.29514e-11
7.90074e-12
6.7676e-12
6.42051e-12
6.34911e-12
6.34109e-12
6.34617e-12
6.33241e-12
6.33995e-12
6.33413e-12
6.33319e-12
6.34032e-12
6.33172e-12
6.33847e-12
6.407e-12
6.74252e-12
8.29286e-12
1.49901e-11
6.19761e-11
1.77123e-11
1.2046e-11
7.8383e-12
6.8096e-12
6.50031e-12
6.43399e-12
6.42696e-12
6.43377e-12
6.41791e-12
6.42883e-12
6.42362e-12
6.42094e-12
6.42836e-12
6.41843e-12
6.4268e-12
6.48411e-12
6.8e-12
8.16216e-12
1.3871e-11
5.03214e-11
1.64367e-11
1.13886e-11
7.847e-12
6.90839e-12
6.63421e-12
6.57186e-12
6.5657e-12
6.57405e-12
6.55629e-12
6.57024e-12
6.56545e-12
6.56122e-12
6.569e-12
6.55785e-12
6.56777e-12
6.61531e-12
6.91124e-12
8.1019e-12
1.29519e-11
4.02352e-11
1.54555e-11
1.09283e-11
7.91538e-12
7.05518e-12
6.81363e-12
6.75409e-12
6.74844e-12
6.75818e-12
6.73888e-12
6.75532e-12
6.75081e-12
6.745e-12
6.75334e-12
6.74134e-12
6.75258e-12
6.79218e-12
7.06716e-12
8.10342e-12
1.22115e-11
3.34649e-11
1.4709e-11
1.06214e-11
8.03341e-12
7.24092e-12
7.03236e-12
6.97519e-12
6.9653e-12
6.98142e-12
6.96037e-12
6.97927e-12
6.97448e-12
6.96247e-12
6.97659e-12
6.96348e-12
6.97545e-12
7.00891e-12
7.25778e-12
8.15737e-12
1.16221e-11
2.78818e-11
1.41466e-11
1.04323e-11
8.18636e-12
7.45701e-12
7.27148e-12
7.21769e-12
7.20879e-12
7.22445e-12
7.20281e-12
7.22306e-12
7.21848e-12
7.20644e-12
7.21996e-12
7.2069e-12
7.21951e-12
7.24818e-12
7.47557e-12
8.2563e-12
1.11359e-11
2.36656e-11
1.37303e-11
1.03377e-11
8.36755e-12
7.70258e-12
7.53864e-12
7.48882e-12
7.48042e-12
7.49651e-12
7.47389e-12
7.496e-12
7.49134e-12
7.47882e-12
7.49248e-12
7.47918e-12
7.49219e-12
7.51632e-12
7.72193e-12
8.39063e-12
1.07918e-11
2.03973e-11
1.34452e-11
1.03342e-11
8.60191e-12
7.99389e-12
7.85351e-12
7.8087e-12
7.80067e-12
7.81914e-12
7.7939e-12
7.81996e-12
7.81467e-12
7.80075e-12
7.81553e-12
7.80081e-12
7.81448e-12
7.83251e-12
8.01708e-12
8.58183e-12
1.05782e-11
1.79057e-11
1.33153e-11
1.04533e-11
8.94285e-12
8.38177e-12
8.27348e-12
8.23556e-12
8.228e-12
8.25325e-12
8.22123e-12
8.25645e-12
8.24926e-12
8.23155e-12
8.2497e-12
8.23054e-12
8.24615e-12
8.25302e-12
8.4186e-12
8.87597e-12
1.05399e-11
1.60828e-11
1.3425e-11
1.07893e-11
9.5158e-12
8.98553e-12
8.92912e-12
8.90126e-12
8.89462e-12
8.93509e-12
8.8877e-12
8.94268e-12
8.93207e-12
8.90556e-12
8.93182e-12
8.90188e-12
8.92254e-12
8.90713e-12
9.05799e-12
9.38506e-12
1.07913e-11
1.48991e-11
1.39716e-11
1.15502e-11
1.05694e-11
1.00462e-11
1.00737e-11
1.00609e-11
1.00555e-11
1.01242e-11
1.00471e-11
1.01391e-11
1.01216e-11
1.00782e-11
1.01205e-11
1.00696e-11
1.01013e-11
1.00448e-11
1.019e-11
1.03354e-11
1.15629e-11
1.44518e-11
1.529e-11
1.30937e-11
1.24708e-11
1.19366e-11
1.20719e-11
1.20762e-11
1.20719e-11
1.21775e-11
1.20579e-11
1.22015e-11
1.2173e-11
1.21068e-11
1.21713e-11
1.20929e-11
1.21401e-11
1.20324e-11
1.2175e-11
1.21001e-11
1.31805e-11
1.4991e-11
1.76924e-11
1.57784e-11
1.54795e-11
1.4958e-11
1.51625e-11
1.51707e-11
1.51661e-11
1.52911e-11
1.51386e-11
1.53197e-11
1.5282e-11
1.52014e-11
1.52812e-11
1.51875e-11
1.52466e-11
1.51098e-11
1.52499e-11
1.5001e-11
1.58772e-11
1.67616e-11
2.10298e-11
1.94917e-11
1.92362e-11
1.88481e-11
1.89878e-11
1.89264e-11
1.89184e-11
1.9002e-11
1.887e-11
1.90207e-11
1.89856e-11
1.89245e-11
1.89879e-11
1.89237e-11
1.89742e-11
1.89348e-11
1.90448e-11
1.88166e-11
1.9337e-11
1.9647e-11
2.41744e-11
2.30777e-11
2.23628e-11
2.21988e-11
2.20029e-11
2.19395e-11
2.19251e-11
2.18842e-11
2.18581e-11
2.18737e-11
2.18608e-11
2.18692e-11
2.18673e-11
2.18963e-11
2.1904e-11
2.19866e-11
2.20317e-11
2.22798e-11
2.21981e-11
2.26326e-11
2.51269e-11
2.44358e-11
2.28803e-11
2.30282e-11
2.23744e-11
2.22956e-11
2.22732e-11
2.20665e-11
2.22046e-11
2.20174e-11
2.20409e-11
2.2149e-11
2.20501e-11
2.22074e-11
2.21476e-11
2.2414e-11
2.23726e-11
2.33417e-11
2.26265e-11
2.38081e-11
2.21986e-11
2.17865e-11
1.95499e-11
1.99475e-11
1.89732e-11
1.88924e-11
1.88644e-11
1.8545e-11
1.88168e-11
1.84697e-11
1.85239e-11
1.87077e-11
1.85322e-11
1.87819e-11
1.8665e-11
1.90673e-11
1.89492e-11
2.0475e-11
1.93745e-11
2.13909e-11
1.5644e-11
1.5394e-11
1.32084e-11
1.36554e-11
1.27202e-11
1.2661e-11
1.26341e-11
1.23286e-11
1.26167e-11
1.22567e-11
1.23163e-11
1.2502e-11
1.23208e-11
1.25659e-11
1.24397e-11
1.28326e-11
1.26893e-11
1.42098e-11
1.31584e-11
1.5356e-11
8.22378e-12
8.08608e-12
6.67488e-12
6.97813e-12
6.38762e-12
6.35864e-12
6.34043e-12
6.14973e-12
6.34181e-12
6.1046e-12
6.14511e-12
6.26595e-12
6.14622e-12
6.30295e-12
6.21708e-12
6.4693e-12
6.36486e-12
7.35095e-12
6.68962e-12
8.20997e-12
2.96391e-12
2.89607e-12
2.3083e-12
2.43398e-12
2.19365e-12
2.18465e-12
2.17638e-12
2.09968e-12
2.18132e-12
2.08123e-12
2.09882e-12
2.14922e-12
2.09878e-12
2.1631e-12
2.12629e-12
2.23043e-12
2.18445e-12
2.5934e-12
2.33214e-12
2.99419e-12
6.02979e-13
5.84401e-13
4.59147e-13
4.85211e-13
4.34997e-13
4.33528e-13
4.31609e-13
4.1573e-13
4.33276e-13
4.11816e-13
4.15664e-13
4.26421e-13
4.15593e-13
4.29182e-13
4.21125e-13
4.43351e-13
4.32945e-13
5.20052e-13
4.66148e-13
6.12215e-13
1.21266e-13
1.17691e-13
9.56631e-14
1.00162e-13
9.1165e-14
9.08515e-14
9.04993e-14
8.75489e-14
9.0831e-14
8.6789e-14
8.75541e-14
8.95188e-14
8.75614e-14
9.00034e-14
8.86166e-14
9.24787e-14
9.09205e-14
1.05883e-13
9.72507e-14
1.21506e-13
)
;

boundaryField
{
    fuel
    {
        type            fixedValue;
        value           uniform 0;
    }
    wall
    {
        type            zeroGradient;
    }
    outlet
    {
        type            zeroGradient;
    }
    frontAndBack
    {
        type            empty;
    }
}


// ************************************************************************* //
