/*--------------------------------*- C++ -*----------------------------------*\
| =========                 |                                                 |
| \\      /  F ield         | OpenFOAM: The Open Source CFD Toolbox           |
|  \\    /   O peration     | Version:  dev                                   |
|   \\  /    A nd           | Web:      www.OpenFOAM.org                      |
|    \\/     M anipulation  |                                                 |
\*---------------------------------------------------------------------------*/
FoamFile
{
    version     2.0;
    format      ascii;
    class       volScalarField;
    location    "0.2";
    object      A1C2H-;
}
// * * * * * * * * * * * * * * * * * * * * * * * * * * * * * * * * * * * * * //

dimensions      [0 0 0 0 0 0 0];

internalField   nonuniform List<scalar> 
1000
(
5.44643e-09
4.77246e-07
4.83042e-07
4.80998e-07
4.80533e-07
4.80483e-07
4.8049e-07
4.80455e-07
4.80529e-07
4.80496e-07
4.80515e-07
4.80522e-07
4.80537e-07
4.80519e-07
4.80515e-07
4.80812e-07
4.80642e-07
4.83987e-07
4.76805e-07
6.62902e-09
5.75835e-09
7.83715e-07
6.72425e-07
6.54344e-07
6.51705e-07
6.51437e-07
6.5138e-07
6.51327e-07
6.51451e-07
6.51381e-07
6.51445e-07
6.51454e-07
6.51471e-07
6.51493e-07
6.51384e-07
6.52517e-07
6.53032e-07
6.69938e-07
7.13296e-07
5.96861e-09
2.90945e-09
6.1968e-07
4.63137e-07
4.41181e-07
4.3797e-07
4.37645e-07
4.37567e-07
4.37501e-07
4.37641e-07
4.3755e-07
4.3764e-07
4.37666e-07
4.37638e-07
4.37787e-07
4.37468e-07
4.39306e-07
4.39256e-07
4.62056e-07
5.18919e-07
5.45118e-09
1.23015e-09
4.30942e-07
2.81925e-07
2.62515e-07
2.59615e-07
2.59315e-07
2.59218e-07
2.59173e-07
2.593e-07
2.59212e-07
2.59303e-07
2.59347e-07
2.59294e-07
2.59464e-07
2.59113e-07
2.61103e-07
2.60488e-07
2.83051e-07
3.35665e-07
5.2508e-08
5.64113e-10
3.03127e-07
1.7486e-07
1.5876e-07
1.56315e-07
1.56053e-07
1.55907e-07
1.55921e-07
1.56027e-07
1.55952e-07
1.56036e-07
1.56087e-07
1.56029e-07
1.56123e-07
1.55888e-07
1.57682e-07
1.56924e-07
1.77455e-07
2.23568e-07
4.41606e-07
3.19185e-10
2.22732e-07
1.1502e-07
1.01482e-07
9.94163e-08
9.91812e-08
9.89475e-08
9.90594e-08
9.91424e-08
9.90823e-08
9.91575e-08
9.92058e-08
9.91527e-08
9.91265e-08
9.90615e-08
1.00571e-07
9.99119e-08
1.15439e-07
1.58521e-07
7.6937e-07
2.27771e-10
1.70797e-07
8.07694e-08
6.8936e-08
6.7118e-08
6.68894e-08
6.65362e-08
6.67572e-08
6.68242e-08
6.67649e-08
6.68475e-08
6.68905e-08
6.6842e-08
6.66514e-08
6.68048e-08
6.8083e-08
6.76066e-08
8.09672e-08
1.16967e-07
8.00271e-07
2.06339e-10
1.35494e-07
5.82818e-08
4.96462e-08
4.77815e-08
4.75428e-08
4.71625e-08
4.73993e-08
4.74472e-08
4.73946e-08
4.74728e-08
4.75099e-08
4.74644e-08
4.72529e-08
4.74802e-08
4.8631e-08
4.84863e-08
5.88511e-08
9.12406e-08
7.27452e-07
2.38032e-10
1.1029e-07
4.52384e-08
3.60177e-08
3.50915e-08
3.50323e-08
3.50908e-08
3.49864e-08
3.50185e-08
3.49697e-08
3.50436e-08
3.50749e-08
3.50321e-08
3.51582e-08
3.49815e-08
3.55769e-08
3.51398e-08
4.52987e-08
7.53679e-08
6.28233e-07
3.21858e-10
9.15171e-08
3.56193e-08
2.82487e-08
2.71882e-08
2.70645e-08
2.71962e-08
2.70052e-08
2.70143e-08
2.69595e-08
2.7047e-08
2.70763e-08
2.7019e-08
2.72445e-08
2.70186e-08
2.76573e-08
2.7466e-08
3.54064e-08
6.34804e-08
5.25044e-07
5.37721e-10
7.70627e-08
2.8746e-08
2.25558e-08
2.14886e-08
2.13704e-08
2.14062e-08
2.13112e-08
2.13145e-08
2.12761e-08
2.13377e-08
2.13601e-08
2.12981e-08
2.13661e-08
2.13346e-08
2.18416e-08
2.18636e-08
2.85931e-08
5.50064e-08
4.27799e-07
1.02896e-09
6.5647e-08
2.43263e-08
1.85252e-08
1.7548e-08
1.7433e-08
1.74626e-08
1.73804e-08
1.7383e-08
1.73692e-08
1.7394e-08
1.74112e-08
1.73364e-08
1.77272e-08
1.74021e-08
1.78162e-08
1.7931e-08
2.36691e-08
4.79377e-08
3.42317e-07
1.76773e-09
5.64468e-08
2.06789e-08
1.56075e-08
1.47064e-08
1.4595e-08
1.48236e-08
1.45482e-08
1.45563e-08
1.45656e-08
1.4553e-08
1.45664e-08
1.44676e-08
1.47921e-08
1.45636e-08
1.49107e-08
1.50865e-08
1.99248e-08
4.2068e-08
2.71144e-07
2.62555e-09
4.89348e-08
1.80604e-08
1.34186e-08
1.25794e-08
1.24693e-08
1.25817e-08
1.24251e-08
1.24443e-08
1.24656e-08
1.24271e-08
1.2438e-08
1.22993e-08
1.25669e-08
1.24375e-08
1.27362e-08
1.29548e-08
1.75147e-08
3.70867e-08
2.13801e-07
3.53073e-09
4.20998e-08
1.58422e-08
1.17157e-08
1.09327e-08
1.08239e-08
1.08707e-08
1.07767e-08
1.08099e-08
1.0831e-08
1.07814e-08
1.07916e-08
1.08139e-08
1.08666e-08
1.07914e-08
1.10539e-08
1.12982e-08
1.5526e-08
3.30632e-08
1.69089e-07
4.43419e-09
3.58036e-08
1.38843e-08
1.03465e-08
9.61865e-09
9.51215e-09
9.52579e-09
9.45596e-09
9.50491e-09
9.51858e-09
9.46887e-09
9.47857e-09
9.48553e-09
9.52339e-09
9.47884e-09
9.71254e-09
9.96774e-09
1.37198e-08
2.95453e-08
1.34615e-07
5.27076e-09
3.1155e-08
1.22499e-08
9.21445e-09
8.54224e-09
8.4393e-09
8.43647e-09
8.36818e-09
8.43481e-09
8.4395e-09
8.39509e-09
8.40434e-09
8.39829e-09
8.43287e-09
8.40534e-09
8.61493e-09
8.8699e-09
1.22043e-08
2.62749e-08
1.08348e-07
5.96818e-09
2.71139e-08
1.08631e-08
8.25571e-09
7.64147e-09
7.5433e-09
7.53263e-09
7.45021e-09
7.53863e-09
7.53579e-09
7.49836e-09
7.507e-09
7.4884e-09
7.52692e-09
7.50898e-09
7.69741e-09
7.94416e-09
1.08891e-08
2.33481e-08
8.86528e-08
6.50289e-09
2.3567e-08
9.67257e-09
7.42584e-09
6.87492e-09
6.7826e-09
6.76923e-09
6.7569e-09
6.77622e-09
6.76795e-09
6.73738e-09
6.74515e-09
6.7133e-09
6.76069e-09
6.74836e-09
6.91758e-09
7.15026e-09
9.94163e-09
2.07459e-08
7.1832e-08
6.88812e-09
2.04499e-08
8.64295e-09
6.69268e-09
6.21413e-09
6.12863e-09
6.11448e-09
6.0903e-09
6.11959e-09
6.10818e-09
6.08373e-09
6.09043e-09
6.04411e-09
6.10404e-09
6.09499e-09
6.24629e-09
6.45868e-09
9.02003e-09
1.84247e-08
6.02343e-08
7.1558e-09
1.77134e-08
7.74919e-09
6.12104e-09
5.63892e-09
5.56102e-09
5.54728e-09
5.50887e-09
5.54928e-09
5.53631e-09
5.5171e-09
5.52287e-09
5.53097e-09
5.53603e-09
5.52858e-09
5.66261e-09
5.91172e-09
8.15733e-09
1.63446e-08
5.04645e-08
7.3342e-09
1.51346e-08
6.96948e-09
5.58912e-09
5.13325e-09
5.06422e-09
5.05197e-09
5.05533e-09
5.05035e-09
5.03671e-09
5.02198e-09
5.02703e-09
5.03955e-09
5.03941e-09
5.03374e-09
5.14947e-09
5.4027e-09
7.39009e-09
1.44782e-08
4.30964e-08
7.43949e-09
1.28578e-08
6.28933e-09
5.15001e-09
4.73477e-09
4.6761e-09
4.66504e-09
4.66303e-09
4.66065e-09
4.64696e-09
4.63544e-09
4.64107e-09
4.65413e-09
4.65267e-09
4.64666e-09
4.75332e-09
4.98352e-09
6.70385e-09
1.28056e-08
3.66049e-08
7.46979e-09
1.11361e-08
5.69279e-09
4.75092e-09
4.38599e-09
4.31048e-09
4.3004e-09
4.29349e-09
4.29378e-09
4.27935e-09
4.2706e-09
4.27776e-09
4.28769e-09
4.28717e-09
4.28255e-09
4.378e-09
4.59371e-09
6.08444e-09
1.13072e-08
3.13938e-08
7.41246e-09
9.66732e-09
5.22381e-09
4.41134e-09
4.08073e-09
4.01336e-09
4.00421e-09
3.99455e-09
3.99604e-09
3.98205e-09
3.97551e-09
3.98351e-09
3.98976e-09
3.99117e-09
3.98714e-09
4.07346e-09
4.26912e-09
5.51876e-09
9.96897e-09
2.69721e-08
7.25879e-09
8.43802e-09
4.80064e-09
4.11291e-09
3.81251e-09
3.75319e-09
3.74486e-09
3.73327e-09
3.73563e-09
3.72216e-09
3.7175e-09
3.72545e-09
3.72877e-09
3.73222e-09
3.72881e-09
3.80698e-09
3.98229e-09
5.08226e-09
8.77825e-09
2.32222e-08
7.00062e-09
7.41918e-09
4.43808e-09
3.84793e-09
3.57622e-09
3.52372e-09
3.51602e-09
3.50319e-09
3.50621e-09
3.49325e-09
3.49003e-09
3.49728e-09
3.49877e-09
3.50387e-09
3.50112e-09
3.57178e-09
3.72807e-09
4.68817e-09
7.71739e-09
1.98586e-08
6.64848e-09
6.50817e-09
4.11532e-09
3.60968e-09
3.36476e-09
3.3181e-09
3.31081e-09
3.29721e-09
3.30081e-09
3.28824e-09
3.2861e-09
3.29245e-09
3.29289e-09
3.29925e-09
3.29707e-09
3.36104e-09
3.49941e-09
4.33082e-09
6.77365e-09
1.68377e-08
6.23504e-09
5.69513e-09
3.82277e-09
3.39072e-09
3.17035e-09
3.1286e-09
3.12153e-09
3.10734e-09
3.11163e-09
3.09914e-09
3.09792e-09
3.10345e-09
3.10325e-09
3.11066e-09
3.10888e-09
3.16713e-09
3.28819e-09
4.0034e-09
5.93325e-09
1.4357e-08
5.78609e-09
5.07987e-09
3.55029e-09
3.1825e-09
2.98438e-09
2.94664e-09
2.9396e-09
2.92485e-09
2.93007e-09
2.91724e-09
2.9168e-09
2.92173e-09
2.9211e-09
2.92953e-09
2.9279e-09
2.98154e-09
3.08557e-09
3.69805e-09
5.22374e-09
1.20504e-08
5.31665e-09
4.54303e-09
3.28699e-09
2.97564e-09
2.79761e-09
2.7631e-09
2.75581e-09
2.74057e-09
2.74701e-09
2.73338e-09
2.73363e-09
2.73809e-09
2.73722e-09
2.74674e-09
2.74497e-09
2.79513e-09
2.88225e-09
3.40585e-09
4.58312e-09
9.79018e-09
4.83442e-09
4.05928e-09
3.02309e-09
2.76067e-09
2.60129e-09
2.56926e-09
2.56115e-09
2.54586e-09
2.55376e-09
2.53893e-09
2.53976e-09
2.54358e-09
2.54294e-09
2.5536e-09
2.55137e-09
2.59907e-09
2.6693e-09
3.11795e-09
4.00027e-09
8.10234e-09
4.34123e-09
3.60672e-09
2.73559e-09
2.53002e-09
2.38038e-09
2.3518e-09
2.34829e-09
2.32629e-09
2.33678e-09
2.31972e-09
2.32167e-09
2.33098e-09
2.32412e-09
2.33688e-09
2.33422e-09
2.37999e-09
2.43942e-09
2.82743e-09
3.46304e-09
6.56247e-09
3.83668e-09
3.16958e-09
2.42861e-09
2.27893e-09
2.14287e-09
2.11714e-09
2.11352e-09
2.09082e-09
2.10308e-09
2.08446e-09
2.08693e-09
2.09668e-09
2.0892e-09
2.10311e-09
2.09964e-09
2.14377e-09
2.18898e-09
2.50363e-09
2.9408e-09
5.2847e-09
3.32238e-09
2.73943e-09
2.11962e-09
2.00736e-09
1.88418e-09
1.86153e-09
1.85803e-09
1.83502e-09
1.84875e-09
1.82895e-09
1.83181e-09
1.842e-09
1.83389e-09
1.84861e-09
1.84435e-09
1.88657e-09
1.91932e-09
2.18829e-09
2.47163e-09
4.19793e-09
2.80545e-09
2.31514e-09
1.80044e-09
1.72099e-09
1.61117e-09
1.59173e-09
1.58854e-09
1.56598e-09
1.58058e-09
1.56033e-09
1.56342e-09
1.57372e-09
1.56522e-09
1.58017e-09
1.57535e-09
1.61487e-09
1.63719e-09
1.86486e-09
2.0345e-09
3.28228e-09
2.29962e-09
1.9034e-09
1.48291e-09
1.43063e-09
1.33522e-09
1.31905e-09
1.3163e-09
1.2951e-09
1.30976e-09
1.29003e-09
1.29313e-09
1.30309e-09
1.29459e-09
1.30903e-09
1.30398e-09
1.33975e-09
1.3539e-09
1.54316e-09
1.63384e-09
2.51927e-09
1.82248e-09
1.51578e-09
1.18114e-09
1.14991e-09
1.06981e-09
1.05683e-09
1.05459e-09
1.03563e-09
1.04946e-09
1.03126e-09
1.03418e-09
1.04332e-09
1.03528e-09
1.04848e-09
1.04359e-09
1.07458e-09
1.08288e-09
1.23587e-09
1.2761e-09
1.89224e-09
1.39194e-09
1.16543e-09
9.08164e-10
8.92041e-10
8.27449e-10
8.17399e-10
8.15634e-10
7.99555e-10
8.11824e-10
7.95935e-10
7.98526e-10
8.06504e-10
7.99296e-10
8.10753e-10
8.06269e-10
8.32075e-10
8.36229e-10
9.56193e-10
9.66501e-10
1.38766e-09
1.02263e-09
8.63469e-10
6.73054e-10
6.66914e-10
6.1702e-10
6.09402e-10
6.08081e-10
5.95087e-10
6.05409e-10
5.92217e-10
5.94367e-10
6.01011e-10
5.94874e-10
6.04357e-10
6.0041e-10
6.21227e-10
6.22468e-10
7.13772e-10
7.07957e-10
9.91318e-10
7.20749e-10
6.14747e-10
4.79452e-10
4.79298e-10
4.42485e-10
4.3666e-10
4.35718e-10
4.25694e-10
4.33963e-10
4.2351e-10
4.25214e-10
4.30492e-10
4.25528e-10
4.32991e-10
4.29715e-10
4.46001e-10
4.4561e-10
5.12158e-10
5.00265e-10
6.86285e-10
4.84928e-10
4.18319e-10
3.26281e-10
3.27952e-10
3.01137e-10
2.98808e-10
2.98167e-10
2.90795e-10
2.97109e-10
2.89201e-10
2.90496e-10
2.94489e-10
2.90673e-10
2.9626e-10
2.93683e-10
3.04033e-10
3.02963e-10
3.51132e-10
3.37393e-10
4.57473e-10
3.0845e-10
2.69245e-10
2.09725e-10
2.12485e-10
1.94424e-10
1.92982e-10
1.9256e-10
1.87431e-10
1.91997e-10
1.86324e-10
1.8726e-10
1.90121e-10
1.87349e-10
1.913e-10
1.89392e-10
1.96526e-10
1.95309e-10
2.27521e-10
2.16131e-10
2.90438e-10
1.82263e-10
1.60938e-10
1.24886e-10
1.27549e-10
1.16171e-10
1.15354e-10
1.15086e-10
1.1177e-10
1.14844e-10
1.11053e-10
1.11685e-10
1.13593e-10
1.1172e-10
1.14318e-10
1.13007e-10
1.17565e-10
1.16538e-10
1.36725e-10
1.28527e-10
1.72341e-10
9.71712e-11
8.67366e-11
6.68781e-11
6.88613e-11
6.23672e-11
6.19594e-11
6.18001e-11
5.98729e-11
6.1736e-11
5.94535e-11
5.98377e-11
6.09841e-11
5.98449e-11
6.1384e-11
6.05721e-11
6.32177e-11
6.24796e-11
7.39809e-11
6.88378e-11
9.27272e-11
4.4932e-11
4.05619e-11
3.11746e-11
3.23223e-11
2.91641e-11
2.89963e-11
2.8913e-11
2.79678e-11
2.8919e-11
2.77607e-11
2.79576e-11
2.85383e-11
2.79545e-11
2.87241e-11
2.8301e-11
2.96085e-11
2.9179e-11
3.47809e-11
3.21028e-11
4.3428e-11
1.85389e-11
1.70507e-11
1.36221e-11
1.40615e-11
1.28967e-11
1.28382e-11
1.28064e-11
1.24571e-11
1.28167e-11
1.23799e-11
1.24555e-11
1.26726e-11
1.24532e-11
1.27383e-11
1.258e-11
1.30602e-11
1.29023e-11
1.49656e-11
1.39943e-11
1.81295e-11
1.11439e-11
1.05919e-11
9.4844e-12
9.54872e-12
9.17431e-12
9.13515e-12
9.13007e-12
9.00664e-12
9.12673e-12
8.97757e-12
9.0069e-12
9.0751e-12
9.01045e-12
9.09654e-12
9.06058e-12
9.19678e-12
9.20704e-12
9.82316e-12
9.70506e-12
1.09131e-11
1.29123e-11
1.22916e-11
1.09469e-11
1.10295e-11
1.05408e-11
1.04875e-11
1.04814e-11
1.03037e-11
1.04892e-11
1.02581e-11
1.03073e-11
1.04082e-11
1.03153e-11
1.04333e-11
1.0386e-11
1.05638e-11
1.05924e-11
1.13515e-11
1.12835e-11
1.26749e-11
1.13917e-11
1.06355e-11
9.02296e-12
9.16654e-12
8.58372e-12
8.53641e-12
8.52351e-12
8.31325e-12
8.55005e-12
8.25692e-12
8.32157e-12
8.44557e-12
8.32954e-12
8.47096e-12
8.40912e-12
8.62051e-12
8.63861e-12
9.52642e-12
9.41735e-12
1.10822e-11
)
;

boundaryField
{
    fuel
    {
        type            fixedValue;
        value           uniform 0;
    }
    wall
    {
        type            zeroGradient;
    }
    outlet
    {
        type            zeroGradient;
    }
    frontAndBack
    {
        type            empty;
    }
}


// ************************************************************************* //
