/*--------------------------------*- C++ -*----------------------------------*\
| =========                 |                                                 |
| \\      /  F ield         | OpenFOAM: The Open Source CFD Toolbox           |
|  \\    /   O peration     | Version:  dev                                   |
|   \\  /    A nd           | Web:      www.OpenFOAM.org                      |
|    \\/     M anipulation  |                                                 |
\*---------------------------------------------------------------------------*/
FoamFile
{
    version     2.0;
    format      ascii;
    class       volScalarField;
    location    "0.2";
    object      A1C2H;
}
// * * * * * * * * * * * * * * * * * * * * * * * * * * * * * * * * * * * * * //

dimensions      [0 0 0 0 0 0 0];

internalField   nonuniform List<scalar> 
1000
(
7.99348e-07
1.7543e-05
1.68369e-05
1.6598e-05
1.65827e-05
1.65678e-05
1.65691e-05
1.65691e-05
1.65697e-05
1.65687e-05
1.65682e-05
1.65694e-05
1.65692e-05
1.65688e-05
1.65694e-05
1.65746e-05
1.66135e-05
1.69122e-05
1.87907e-05
5.83364e-07
1.93377e-06
1.95461e-05
1.75056e-05
1.69327e-05
1.68933e-05
1.68608e-05
1.68641e-05
1.68629e-05
1.6864e-05
1.6863e-05
1.68621e-05
1.68633e-05
1.68628e-05
1.68615e-05
1.6864e-05
1.68743e-05
1.69659e-05
1.77033e-05
2.36115e-05
1.34238e-06
3.34682e-06
1.74725e-05
1.4856e-05
1.40136e-05
1.39741e-05
1.39206e-05
1.39272e-05
1.39241e-05
1.3926e-05
1.39245e-05
1.39237e-05
1.39251e-05
1.39237e-05
1.3922e-05
1.39259e-05
1.39402e-05
1.40669e-05
1.50819e-05
2.38525e-05
1.91617e-06
9.30456e-06
1.49574e-05
1.20603e-05
1.10123e-05
1.09838e-05
1.09108e-05
1.09197e-05
1.09156e-05
1.09183e-05
1.09159e-05
1.09157e-05
1.09172e-05
1.09148e-05
1.09122e-05
1.09177e-05
1.0935e-05
1.10838e-05
1.2263e-05
2.30678e-05
2.3499e-06
1.48931e-05
1.27758e-05
9.64266e-06
8.45348e-06
8.43763e-06
8.35052e-06
8.35949e-06
8.35609e-06
8.35952e-06
8.35614e-06
8.35666e-06
8.35815e-06
8.35492e-06
8.3505e-06
8.3583e-06
8.3777e-06
8.53775e-06
9.7896e-06
2.19114e-05
2.65724e-06
1.69317e-05
1.10708e-05
7.57628e-06
6.43303e-06
6.425e-06
6.33097e-06
6.33745e-06
6.33673e-06
6.34055e-06
6.33631e-06
6.33768e-06
6.33901e-06
6.33513e-06
6.32842e-06
6.33893e-06
6.35956e-06
6.52376e-06
7.77977e-06
2.06357e-05
2.86386e-06
1.88077e-05
9.69171e-06
6.0377e-06
4.91086e-06
4.90245e-06
4.8085e-06
4.81168e-06
4.81368e-06
4.81768e-06
4.81249e-06
4.81503e-06
4.81611e-06
4.81135e-06
4.80176e-06
4.81601e-06
4.83705e-06
5.0028e-06
6.21754e-06
1.93291e-05
3.01231e-06
2.15567e-05
8.65955e-06
4.86955e-06
3.79251e-06
3.78162e-06
3.69502e-06
3.69825e-06
3.69941e-06
3.7032e-06
3.69812e-06
3.70091e-06
3.7017e-06
3.69714e-06
3.68953e-06
3.70182e-06
3.72114e-06
3.88222e-06
5.04205e-06
1.80005e-05
3.13853e-06
2.53673e-05
7.91762e-06
3.96044e-06
2.95816e-06
2.97544e-06
2.90285e-06
2.91158e-06
2.90646e-06
2.91002e-06
2.90594e-06
2.90807e-06
2.90862e-06
2.90506e-06
2.90341e-06
2.90913e-06
2.9233e-06
3.03274e-06
4.10659e-06
1.66399e-05
3.24885e-06
2.96547e-05
7.28989e-06
3.24338e-06
2.37889e-06
2.37145e-06
2.30376e-06
2.3169e-06
2.30569e-06
2.30902e-06
2.30554e-06
2.30758e-06
2.30797e-06
2.30408e-06
2.31003e-06
2.30954e-06
2.32495e-06
2.45047e-06
3.35883e-06
1.52451e-05
3.35191e-06
3.33925e-05
6.77432e-06
2.71452e-06
1.94184e-06
1.92376e-06
1.86855e-06
1.8792e-06
1.86916e-06
1.87208e-06
1.86902e-06
1.87108e-06
1.87132e-06
1.86677e-06
1.87328e-06
1.87337e-06
1.88773e-06
2.00321e-06
2.86028e-06
1.38283e-05
3.48528e-06
3.57473e-05
6.28192e-06
2.31461e-06
1.62784e-06
1.60181e-06
1.55557e-06
1.56106e-06
1.55517e-06
1.5579e-06
1.55523e-06
1.5572e-06
1.55737e-06
1.55149e-06
1.55385e-06
1.55981e-06
1.57369e-06
1.68112e-06
2.45524e-06
1.24089e-05
3.67994e-06
3.6419e-05
5.81506e-06
1.99875e-06
1.3959e-06
1.36458e-06
1.32516e-06
1.32401e-06
1.32389e-06
1.32657e-06
1.32447e-06
1.32609e-06
1.32625e-06
1.31835e-06
1.34401e-06
1.32918e-06
1.34251e-06
1.44236e-06
2.11809e-06
1.10168e-05
3.8889e-06
3.55686e-05
5.36533e-06
1.7948e-06
1.2196e-06
1.18473e-06
1.15076e-06
1.16543e-06
1.14858e-06
1.15132e-06
1.14982e-06
1.15098e-06
1.1512e-06
1.13986e-06
1.16372e-06
1.15432e-06
1.16731e-06
1.26028e-06
1.87793e-06
9.57547e-06
4.03201e-06
3.35967e-05
4.95191e-06
1.61722e-06
1.08154e-06
1.0445e-06
1.01473e-06
1.02612e-06
1.01169e-06
1.01474e-06
1.01372e-06
1.0145e-06
1.01488e-06
1.01692e-06
1.02309e-06
1.01797e-06
1.0307e-06
1.11732e-06
1.65412e-06
8.10779e-06
4.07206e-06
3.0952e-05
4.55316e-06
1.45752e-06
9.70444e-07
9.3239e-07
9.05919e-07
9.13936e-07
9.01942e-07
9.05588e-07
9.04893e-07
9.05436e-07
9.0595e-07
9.06719e-07
9.11227e-07
9.08981e-07
9.21442e-07
1.00212e-06
1.46561e-06
6.94751e-06
4.01832e-06
2.80213e-05
4.15709e-06
1.32161e-06
8.79009e-07
8.40853e-07
8.17111e-07
8.22581e-07
8.11941e-07
8.16561e-07
8.16038e-07
8.16474e-07
8.17094e-07
8.16603e-07
8.20613e-07
8.20069e-07
8.32203e-07
9.07207e-07
1.30664e-06
5.89372e-06
3.89678e-06
2.50911e-05
3.77439e-06
1.20155e-06
8.0244e-07
7.64901e-07
7.4353e-07
7.47209e-07
7.3669e-07
7.42842e-07
7.42394e-07
7.42798e-07
7.43489e-07
7.41415e-07
7.46018e-07
7.46405e-07
7.58141e-07
8.27676e-07
1.17183e-06
4.96726e-06
3.733e-06
2.23534e-05
3.41511e-06
1.11565e-06
7.37578e-07
7.01201e-07
6.81979e-07
6.84513e-07
6.80842e-07
6.81223e-07
6.80793e-07
6.8119e-07
6.81913e-07
6.77507e-07
6.83896e-07
6.84755e-07
6.96029e-07
7.60253e-07
1.05713e-06
4.17934e-06
3.54274e-06
1.94355e-05
3.08004e-06
1.03479e-06
6.82167e-07
6.47492e-07
6.30287e-07
6.32036e-07
6.28394e-07
6.29481e-07
6.29085e-07
6.29472e-07
6.30204e-07
6.29428e-07
6.31917e-07
6.3293e-07
6.43686e-07
7.02715e-07
9.59375e-07
3.45521e-06
3.3334e-06
1.70815e-05
2.77194e-06
9.56802e-07
6.3959e-07
6.02214e-07
5.86972e-07
5.88153e-07
5.84157e-07
5.86126e-07
5.85791e-07
5.86151e-07
5.86852e-07
5.88208e-07
5.88414e-07
5.89429e-07
5.99629e-07
6.53295e-07
8.76559e-07
2.85901e-06
3.11219e-06
1.50329e-05
2.49108e-06
8.88638e-07
6.02101e-07
5.64183e-07
5.51008e-07
5.51738e-07
5.5144e-07
5.5012e-07
5.4987e-07
5.50172e-07
5.50809e-07
5.51775e-07
5.52241e-07
5.53205e-07
5.62828e-07
6.11939e-07
8.06917e-07
2.39337e-06
2.8839e-06
1.30629e-05
2.23723e-06
8.29245e-07
5.73064e-07
5.37008e-07
5.25044e-07
5.25601e-07
5.25341e-07
5.24219e-07
5.24039e-07
5.24188e-07
5.24854e-07
5.25711e-07
5.26159e-07
5.27068e-07
5.36129e-07
5.80905e-07
7.49207e-07
2.01385e-06
2.65517e-06
1.14089e-05
2.01088e-06
7.7779e-07
5.48953e-07
5.14181e-07
5.03602e-07
5.03896e-07
5.03742e-07
5.02758e-07
5.0267e-07
5.03124e-07
5.03375e-07
5.04191e-07
5.04544e-07
5.0538e-07
5.13924e-07
5.55468e-07
7.02129e-07
1.71793e-06
2.43247e-06
1.00152e-05
1.81138e-06
7.33419e-07
5.32069e-07
4.98701e-07
4.8943e-07
4.89511e-07
4.89515e-07
4.88607e-07
4.88639e-07
4.88966e-07
4.89143e-07
4.90011e-07
4.90144e-07
4.9093e-07
4.98869e-07
5.36885e-07
6.6895e-07
1.48996e-06
2.22226e-06
8.58366e-06
1.63728e-06
7.02582e-07
5.21138e-07
4.89005e-07
4.81045e-07
4.80902e-07
4.81112e-07
4.80235e-07
4.80406e-07
4.80712e-07
4.80646e-07
4.81608e-07
4.81474e-07
4.82226e-07
4.89481e-07
5.24303e-07
6.4252e-07
1.31599e-06
2.03052e-06
7.22479e-06
1.48742e-06
6.78788e-07
5.16115e-07
4.85087e-07
4.78427e-07
4.78053e-07
4.7851e-07
4.77625e-07
4.77948e-07
4.78262e-07
4.77863e-07
4.78978e-07
4.78524e-07
4.79256e-07
4.859e-07
5.17565e-07
6.25727e-07
1.18541e-06
1.86168e-06
6.11545e-06
1.36084e-06
6.6213e-07
5.16987e-07
4.86956e-07
4.81572e-07
4.80964e-07
4.81705e-07
4.80776e-07
4.81262e-07
4.81592e-07
4.80801e-07
4.82132e-07
4.81295e-07
4.82026e-07
4.88126e-07
5.1669e-07
6.16555e-07
1.07811e-06
1.71854e-06
5.28962e-06
1.25589e-06
6.52524e-07
5.23693e-07
4.94574e-07
4.90431e-07
4.89589e-07
4.90645e-07
4.89638e-07
4.90295e-07
4.90647e-07
4.89425e-07
4.91028e-07
4.89749e-07
4.90497e-07
4.9612e-07
5.21668e-07
6.14665e-07
9.98774e-07
1.60231e-06
4.48947e-06
1.17435e-06
6.49774e-07
5.36036e-07
5.0778e-07
5.04812e-07
5.03746e-07
5.05136e-07
5.04013e-07
5.04858e-07
5.05235e-07
5.0357e-07
5.05478e-07
5.03709e-07
5.045e-07
5.09708e-07
5.32372e-07
6.19611e-07
9.50814e-07
1.51223e-06
3.7111e-06
1.10923e-06
6.53433e-07
5.53584e-07
5.26193e-07
5.24291e-07
5.2302e-07
5.24748e-07
5.23453e-07
5.24521e-07
5.24925e-07
5.22837e-07
5.25053e-07
5.2277e-07
5.23633e-07
5.28486e-07
5.48463e-07
6.30685e-07
9.20631e-07
1.44545e-06
3.16236e-06
1.05864e-06
6.6274e-07
5.75585e-07
5.49128e-07
5.48121e-07
5.46678e-07
5.48719e-07
5.47178e-07
5.48522e-07
5.4895e-07
5.46494e-07
5.48986e-07
5.46212e-07
5.47176e-07
5.51699e-07
5.69313e-07
6.4689e-07
9.04448e-07
1.3981e-06
2.69673e-06
1.01988e-06
6.76562e-07
6.00914e-07
5.7658e-07
5.75811e-07
5.74252e-07
5.75906e-07
5.74795e-07
5.75718e-07
5.7616e-07
5.73429e-07
5.76129e-07
5.73644e-07
5.74713e-07
5.79231e-07
5.93942e-07
6.68666e-07
8.98865e-07
1.36559e-06
2.32117e-06
9.89231e-07
6.95324e-07
6.2803e-07
6.0513e-07
6.04699e-07
6.03076e-07
6.04796e-07
6.03543e-07
6.04609e-07
6.05052e-07
6.02171e-07
6.04975e-07
6.02311e-07
6.03487e-07
6.07706e-07
6.2084e-07
6.92169e-07
9.00483e-07
1.34295e-06
2.01763e-06
9.6602e-07
7.14063e-07
6.55205e-07
6.33913e-07
6.33605e-07
6.31978e-07
6.33678e-07
6.32365e-07
6.33486e-07
6.33912e-07
6.31021e-07
6.33812e-07
6.31107e-07
6.32355e-07
6.36288e-07
6.48274e-07
7.15063e-07
9.05972e-07
1.3252e-06
1.77357e-06
9.46823e-07
7.32408e-07
6.80738e-07
6.61234e-07
6.60856e-07
6.59279e-07
6.60866e-07
6.5958e-07
6.60668e-07
6.61062e-07
6.58291e-07
6.60956e-07
6.58357e-07
6.59632e-07
6.63302e-07
6.74449e-07
7.36348e-07
9.12263e-07
1.30772e-06
1.57755e-06
9.29726e-07
7.48796e-07
7.03228e-07
6.85657e-07
6.85068e-07
6.83588e-07
6.84988e-07
6.83789e-07
6.84785e-07
6.85135e-07
6.82582e-07
6.85036e-07
6.82658e-07
6.83918e-07
6.87331e-07
6.97833e-07
7.54508e-07
9.16785e-07
1.28692e-06
1.42e-06
9.13459e-07
7.62133e-07
7.21825e-07
7.06257e-07
7.05394e-07
7.04045e-07
7.05214e-07
7.04135e-07
7.05012e-07
7.05318e-07
7.03033e-07
7.05229e-07
7.03133e-07
7.04348e-07
7.07492e-07
7.17417e-07
7.68625e-07
9.17775e-07
1.26052e-06
1.29297e-06
8.97433e-07
7.71944e-07
7.36307e-07
7.22725e-07
7.21598e-07
7.20398e-07
7.21325e-07
7.20379e-07
7.21131e-07
7.21397e-07
7.19389e-07
7.21318e-07
7.19515e-07
7.20667e-07
7.23522e-07
7.32844e-07
7.78469e-07
9.14432e-07
1.22763e-06
1.18991e-06
8.81516e-07
7.7829e-07
7.46879e-07
7.35196e-07
7.33853e-07
7.32811e-07
7.33504e-07
7.32692e-07
7.33323e-07
7.33556e-07
7.31819e-07
7.33486e-07
7.31971e-07
7.33048e-07
7.35602e-07
7.44263e-07
7.84328e-07
9.06848e-07
1.18882e-06
1.10578e-06
8.65577e-07
7.81371e-07
7.53738e-07
7.43821e-07
7.42303e-07
7.41426e-07
7.41888e-07
7.41216e-07
7.41726e-07
7.41925e-07
7.40474e-07
7.41867e-07
7.40656e-07
7.41643e-07
7.4392e-07
7.51899e-07
7.86534e-07
8.95543e-07
1.14538e-06
1.03622e-06
8.48865e-07
7.81006e-07
7.56664e-07
7.4842e-07
7.46626e-07
7.45927e-07
7.46149e-07
7.45633e-07
7.46013e-07
7.46164e-07
7.4505e-07
7.46127e-07
7.4526e-07
7.4614e-07
7.48185e-07
7.55607e-07
7.8496e-07
8.80764e-07
1.09838e-06
9.77107e-07
8.30637e-07
7.76468e-07
7.54809e-07
7.48067e-07
7.46085e-07
7.45576e-07
7.45554e-07
7.45206e-07
7.4545e-07
7.45538e-07
7.4481e-07
7.45527e-07
7.4503e-07
7.45794e-07
7.47601e-07
7.54579e-07
7.78971e-07
8.62185e-07
1.04828e-06
9.24858e-07
8.09942e-07
7.67103e-07
7.47817e-07
7.42408e-07
7.40301e-07
7.39969e-07
7.39741e-07
7.39548e-07
7.39674e-07
7.39697e-07
7.39332e-07
7.39707e-07
7.39537e-07
7.40189e-07
7.41757e-07
7.48296e-07
7.68164e-07
8.39386e-07
9.95425e-07
8.7744e-07
7.87325e-07
7.53498e-07
7.36684e-07
7.32375e-07
7.30305e-07
7.30101e-07
7.29763e-07
7.29671e-07
7.29734e-07
7.29712e-07
7.29581e-07
7.29724e-07
7.29753e-07
7.30307e-07
7.31625e-07
7.37535e-07
7.53485e-07
8.13042e-07
9.41163e-07
8.35204e-07
7.65147e-07
7.38172e-07
7.24168e-07
7.20684e-07
7.18863e-07
7.1871e-07
7.18386e-07
7.1832e-07
7.18392e-07
7.18361e-07
7.18271e-07
7.18351e-07
7.18413e-07
7.18889e-07
7.19952e-07
7.24953e-07
7.3769e-07
7.85798e-07
8.88646e-07
8.00342e-07
7.46581e-07
7.24708e-07
7.13649e-07
7.1075e-07
7.09309e-07
7.09148e-07
7.08921e-07
7.08824e-07
7.08954e-07
7.08937e-07
7.08758e-07
7.08893e-07
7.08884e-07
7.09298e-07
7.1013e-07
7.14083e-07
7.24261e-07
7.61594e-07
8.42234e-07
7.74625e-07
7.33468e-07
7.15497e-07
7.07002e-07
7.04544e-07
7.03465e-07
7.03283e-07
7.03154e-07
7.0302e-07
7.03212e-07
7.03204e-07
7.02939e-07
7.03131e-07
7.03059e-07
7.03415e-07
7.04073e-07
7.07101e-07
7.15225e-07
7.43342e-07
8.05272e-07
7.57716e-07
7.25425e-07
7.10449e-07
7.03804e-07
7.01706e-07
7.00878e-07
7.00693e-07
7.00621e-07
7.00472e-07
7.00705e-07
7.00689e-07
7.00402e-07
7.00596e-07
7.00518e-07
7.00818e-07
7.01364e-07
7.03741e-07
7.10254e-07
7.31378e-07
7.78703e-07
7.48522e-07
7.21393e-07
7.08327e-07
7.02757e-07
7.00904e-07
7.00212e-07
7.00034e-07
6.99986e-07
6.99836e-07
7.00088e-07
7.00058e-07
6.99787e-07
6.99956e-07
6.999e-07
7.00157e-07
7.00645e-07
7.02652e-07
7.08131e-07
7.24929e-07
7.62941e-07
)
;

boundaryField
{
    fuel
    {
        type            fixedValue;
        value           uniform 0;
    }
    wall
    {
        type            zeroGradient;
    }
    outlet
    {
        type            zeroGradient;
    }
    frontAndBack
    {
        type            empty;
    }
}


// ************************************************************************* //
