/*--------------------------------*- C++ -*----------------------------------*\
| =========                 |                                                 |
| \\      /  F ield         | OpenFOAM: The Open Source CFD Toolbox           |
|  \\    /   O peration     | Version:  dev                                   |
|   \\  /    A nd           | Web:      www.OpenFOAM.org                      |
|    \\/     M anipulation  |                                                 |
\*---------------------------------------------------------------------------*/
FoamFile
{
    version     2.0;
    format      ascii;
    class       volScalarField;
    location    "0.2";
    object      A1C2H22;
}
// * * * * * * * * * * * * * * * * * * * * * * * * * * * * * * * * * * * * * //

dimensions      [0 0 0 0 0 0 0];

internalField   nonuniform List<scalar> 
1000
(
5.8446e-09
1.07546e-07
1.08822e-07
1.07643e-07
1.0769e-07
1.07559e-07
1.07571e-07
1.0757e-07
1.07575e-07
1.07562e-07
1.0756e-07
1.07575e-07
1.07569e-07
1.07575e-07
1.07572e-07
1.07612e-07
1.07769e-07
1.08596e-07
1.08298e-07
2.7622e-09
1.34041e-08
1.66164e-07
1.49382e-07
1.43773e-07
1.43454e-07
1.43103e-07
1.43131e-07
1.43123e-07
1.43134e-07
1.43119e-07
1.43112e-07
1.43129e-07
1.43119e-07
1.4311e-07
1.43134e-07
1.43246e-07
1.44129e-07
1.50898e-07
2.01252e-07
5.92676e-09
1.34048e-08
1.47875e-07
1.24762e-07
1.16463e-07
1.16119e-07
1.15567e-07
1.1562e-07
1.15599e-07
1.15618e-07
1.15599e-07
1.15595e-07
1.15612e-07
1.15592e-07
1.15574e-07
1.15617e-07
1.15772e-07
1.17019e-07
1.26618e-07
2.0685e-07
7.45181e-09
6.41555e-08
1.2204e-07
9.71109e-08
8.72785e-08
8.70293e-08
8.63285e-08
8.63912e-08
8.63691e-08
8.63953e-08
8.63679e-08
8.63704e-08
8.63868e-08
8.63576e-08
8.63285e-08
8.63897e-08
8.65694e-08
8.79782e-08
9.86922e-08
1.9448e-07
8.23596e-09
1.44643e-07
1.00707e-07
7.47703e-08
6.41611e-08
6.40142e-08
6.32294e-08
6.32818e-08
6.32735e-08
6.33058e-08
6.32697e-08
6.32803e-08
6.32952e-08
6.32586e-08
6.32107e-08
6.32956e-08
6.34873e-08
6.49385e-08
7.58205e-08
1.78602e-07
8.5652e-09
1.62159e-07
8.46314e-08
5.67667e-08
4.69989e-08
4.69133e-08
4.61082e-08
4.61331e-08
4.61512e-08
4.6186e-08
4.61436e-08
4.61618e-08
4.61744e-08
4.61332e-08
4.60658e-08
4.61735e-08
4.63682e-08
4.77971e-08
5.82881e-08
1.62615e-07
8.51334e-09
1.75019e-07
7.19125e-08
4.39016e-08
3.46318e-08
3.45454e-08
3.37735e-08
3.37718e-08
3.38103e-08
3.38455e-08
3.37971e-08
3.38243e-08
3.38341e-08
3.37873e-08
3.37004e-08
3.38337e-08
3.40233e-08
3.54105e-08
4.52044e-08
1.4735e-07
8.07724e-09
1.96979e-07
6.24931e-08
3.44134e-08
2.58379e-08
2.57414e-08
2.50544e-08
2.50584e-08
2.50843e-08
2.5117e-08
2.50712e-08
2.50993e-08
2.51065e-08
2.50629e-08
2.49984e-08
2.51083e-08
2.52756e-08
2.65744e-08
3.56345e-08
1.32881e-07
7.06814e-09
2.28539e-07
5.57496e-08
2.71926e-08
1.94485e-08
1.95767e-08
1.90171e-08
1.90681e-08
1.90408e-08
1.9071e-08
1.90345e-08
1.90564e-08
1.90613e-08
1.90269e-08
1.90133e-08
1.90665e-08
1.91872e-08
2.00482e-08
2.81778e-08
1.19134e-07
5.22164e-09
2.61542e-07
5.00875e-08
2.15936e-08
1.51125e-08
1.50635e-08
1.45555e-08
1.46409e-08
1.45667e-08
1.45944e-08
1.45639e-08
1.45839e-08
1.45875e-08
1.45517e-08
1.45964e-08
1.46006e-08
1.47249e-08
1.56741e-08
2.23276e-08
1.06079e-07
3.09409e-09
2.83948e-07
4.54865e-08
1.75222e-08
1.19011e-08
1.17839e-08
1.13794e-08
1.14468e-08
1.13812e-08
1.14052e-08
1.13794e-08
1.13981e-08
1.14005e-08
1.13609e-08
1.14097e-08
1.14169e-08
1.15284e-08
1.23743e-08
1.84904e-08
9.37482e-08
1.71024e-09
2.87836e-07
4.1176e-08
1.44811e-08
9.63199e-09
9.46732e-09
9.13667e-09
9.16837e-09
9.13158e-09
9.15358e-09
9.13208e-09
9.14864e-09
9.15059e-09
9.10271e-09
9.12242e-09
9.16931e-09
9.27287e-09
1.00361e-08
1.54156e-08
8.2177e-08
1.23709e-09
2.73136e-07
3.71964e-08
1.21092e-08
7.98108e-09
7.78815e-09
7.51307e-09
7.50066e-09
7.50218e-09
7.52334e-09
7.50704e-09
7.51987e-09
7.52181e-09
7.46136e-09
7.64379e-09
7.5434e-09
7.63914e-09
8.32809e-09
1.28926e-08
7.14404e-08
1.33027e-09
2.45433e-07
3.34835e-08
1.0595e-08
6.74425e-09
6.53499e-09
6.30381e-09
6.40208e-09
6.28702e-09
6.30809e-09
6.29672e-09
6.3056e-09
6.30801e-09
6.22624e-09
6.39216e-09
6.33019e-09
6.4202e-09
7.04379e-09
1.11203e-08
6.08184e-08
1.78412e-09
2.11883e-07
3.01829e-08
9.28946e-09
5.78971e-09
5.57323e-09
5.37564e-09
5.45087e-09
5.35352e-09
5.37622e-09
5.36862e-09
5.37441e-09
5.37789e-09
5.38877e-09
5.43198e-09
5.39924e-09
5.48448e-09
6.04964e-09
9.49422e-09
5.03973e-08
2.54242e-09
1.78301e-07
2.71087e-08
8.12914e-09
5.03298e-09
4.8165e-09
4.64529e-09
4.69728e-09
4.6175e-09
4.64366e-09
4.63842e-09
4.64234e-09
4.64669e-09
4.64927e-09
4.68095e-09
4.6671e-09
4.74786e-09
5.26017e-09
8.15019e-09
4.23998e-08
3.57576e-09
1.48192e-07
2.41624e-08
7.15619e-09
4.41961e-09
4.20847e-09
4.0588e-09
4.09378e-09
4.02398e-09
4.05583e-09
4.05185e-09
4.05486e-09
4.05986e-09
4.05424e-09
4.08255e-09
4.07939e-09
4.15563e-09
4.61952e-09
7.03938e-09
3.52905e-08
4.79957e-09
1.23047e-07
2.14134e-08
6.31164e-09
3.91364e-09
3.71172e-09
3.58036e-09
3.60372e-09
3.5358e-09
3.5766e-09
3.57319e-09
3.57582e-09
3.58123e-09
3.5656e-09
3.59751e-09
3.59991e-09
3.67152e-09
4.09065e-09
6.11654e-09
2.91463e-08
6.10558e-09
1.03093e-07
1.89167e-08
5.71683e-09
3.49094e-09
3.3009e-09
3.1856e-09
3.20173e-09
3.17805e-09
3.18151e-09
3.17825e-09
3.18068e-09
3.18627e-09
3.15635e-09
3.19906e-09
3.20407e-09
3.27097e-09
3.64853e-09
5.34712e-09
2.3999e-08
7.37418e-09
8.50615e-08
1.66576e-08
5.16509e-09
3.13391e-09
2.95836e-09
2.85752e-09
2.8688e-09
2.84542e-09
2.8532e-09
2.85018e-09
2.85239e-09
2.85806e-09
2.85156e-09
2.86911e-09
2.87478e-09
2.93695e-09
3.27564e-09
4.70356e-09
1.93302e-08
8.48185e-09
7.23582e-08
1.46358e-08
4.64098e-09
2.86091e-09
2.67142e-09
2.58401e-09
2.59186e-09
2.56643e-09
2.57951e-09
2.57685e-09
2.57877e-09
2.58434e-09
2.59128e-09
2.59439e-09
2.59984e-09
2.65737e-09
2.95789e-09
4.16711e-09
1.55449e-08
9.33045e-09
6.25718e-08
1.28362e-08
4.18873e-09
2.61999e-09
2.4301e-09
2.35613e-09
2.36133e-09
2.35902e-09
2.35143e-09
2.34923e-09
2.35066e-09
2.35602e-09
2.36036e-09
2.36522e-09
2.37019e-09
2.42327e-09
2.69244e-09
3.72124e-09
1.26326e-08
9.84305e-09
5.40413e-08
1.12429e-08
3.7979e-09
2.43044e-09
2.25478e-09
2.18827e-09
2.19258e-09
2.19014e-09
2.184e-09
2.18213e-09
2.18245e-09
2.18833e-09
2.19171e-09
2.19672e-09
2.20126e-09
2.25032e-09
2.49102e-09
3.3535e-09
1.02944e-08
9.99531e-09
4.73245e-08
9.84604e-09
3.45957e-09
2.26734e-09
2.10177e-09
2.04336e-09
2.04623e-09
2.04403e-09
2.03897e-09
2.03748e-09
2.03978e-09
2.04336e-09
2.04604e-09
2.05095e-09
2.05497e-09
2.10058e-09
2.32108e-09
3.05152e-09
8.49757e-09
9.81455e-09
4.18625e-08
8.63124e-09
3.16486e-09
2.1442e-09
1.9892e-09
1.93802e-09
1.93984e-09
1.93814e-09
1.93376e-09
1.93281e-09
1.93415e-09
1.93785e-09
1.94038e-09
1.9445e-09
1.94817e-09
1.99001e-09
2.18901e-09
2.8328e-09
7.1302e-09
9.36952e-09
3.62521e-08
7.58151e-09
2.95344e-09
2.05062e-09
1.90487e-09
1.86058e-09
1.86133e-09
1.86034e-09
1.8564e-09
1.85603e-09
1.85713e-09
1.85995e-09
1.86252e-09
1.86571e-09
1.86915e-09
1.90695e-09
2.08722e-09
2.64818e-09
6.0965e-09
8.75835e-09
3.07903e-08
6.68149e-09
2.7799e-09
1.98451e-09
1.84708e-09
1.80924e-09
1.80895e-09
1.80883e-09
1.80511e-09
1.80535e-09
1.80638e-09
1.80794e-09
1.8108e-09
1.81288e-09
1.81618e-09
1.85051e-09
2.01306e-09
2.51555e-09
5.32058e-09
8.08397e-09
2.62757e-08
5.91848e-09
2.64263e-09
1.94406e-09
1.81432e-09
1.78239e-09
1.78114e-09
1.78197e-09
1.77831e-09
1.77916e-09
1.78016e-09
1.78026e-09
1.78369e-09
1.78447e-09
1.78771e-09
1.81905e-09
1.96492e-09
2.4192e-09
4.67663e-09
7.42431e-09
2.27511e-08
5.27709e-09
2.53817e-09
1.92728e-09
1.80465e-09
1.77818e-09
1.77601e-09
1.77786e-09
1.77413e-09
1.77557e-09
1.77654e-09
1.77512e-09
1.7793e-09
1.77865e-09
1.78191e-09
1.81072e-09
1.94097e-09
2.35501e-09
4.18558e-09
6.82963e-09
1.91648e-08
4.76267e-09
2.46299e-09
1.93099e-09
1.81532e-09
1.79364e-09
1.79068e-09
1.79347e-09
1.78957e-09
1.79157e-09
1.7925e-09
1.78969e-09
1.79466e-09
1.79257e-09
1.79595e-09
1.82268e-09
1.93855e-09
2.3182e-09
3.86563e-09
6.32199e-09
1.55189e-08
4.3283e-09
2.41164e-09
1.94994e-09
1.84164e-09
1.82372e-09
1.82019e-09
1.82366e-09
1.81952e-09
1.82203e-09
1.82288e-09
1.81908e-09
1.8246e-09
1.82139e-09
1.82497e-09
1.85007e-09
1.95318e-09
2.30192e-09
3.62987e-09
5.89816e-09
1.28583e-08
3.95737e-09
2.37602e-09
1.97572e-09
1.8759e-09
1.8602e-09
1.85643e-09
1.85998e-09
1.85569e-09
1.85852e-09
1.85919e-09
1.85516e-09
1.86068e-09
1.85715e-09
1.86095e-09
1.88482e-09
1.97745e-09
2.29675e-09
3.45165e-09
5.53973e-09
1.05245e-08
3.62829e-09
2.34475e-09
1.99593e-09
1.90809e-09
1.89185e-09
1.88832e-09
1.88996e-09
1.88709e-09
1.88858e-09
1.88889e-09
1.88577e-09
1.89037e-09
1.88904e-09
1.89293e-09
1.91637e-09
2.00011e-09
2.2907e-09
3.30531e-09
5.21836e-09
8.58158e-09
3.30887e-09
2.30095e-09
1.9945e-09
1.9184e-09
1.90037e-09
1.8976e-09
1.89758e-09
1.89543e-09
1.89624e-09
1.89598e-09
1.89518e-09
1.89768e-09
1.89875e-09
1.90245e-09
1.92511e-09
2.00531e-09
2.26326e-09
3.16432e-09
4.90026e-09
6.95838e-09
3.00012e-09
2.22864e-09
1.95444e-09
1.8913e-09
1.86991e-09
1.86842e-09
1.86598e-09
1.86512e-09
1.86469e-09
1.86362e-09
1.86648e-09
1.86573e-09
1.8705e-09
1.87363e-09
1.89566e-09
1.97542e-09
2.19686e-09
3.00236e-09
4.55155e-09
5.60332e-09
2.67748e-09
2.11086e-09
1.86227e-09
1.81271e-09
1.7872e-09
1.78732e-09
1.78199e-09
1.78285e-09
1.78079e-09
1.77879e-09
1.78614e-09
1.7814e-09
1.79068e-09
1.79289e-09
1.81429e-09
1.89496e-09
2.0773e-09
2.79701e-09
4.14539e-09
4.46636e-09
2.33532e-09
1.93927e-09
1.71303e-09
1.67661e-09
1.64746e-09
1.64926e-09
1.64114e-09
1.64377e-09
1.6401e-09
1.63721e-09
1.64896e-09
1.64025e-09
1.65387e-09
1.65498e-09
1.67544e-09
1.75621e-09
1.8991e-09
2.53542e-09
3.67268e-09
3.51069e-09
1.97758e-09
1.71695e-09
1.51293e-09
1.48852e-09
1.45717e-09
1.46045e-09
1.45025e-09
1.45435e-09
1.44942e-09
1.4459e-09
1.46101e-09
1.44917e-09
1.4659e-09
1.46597e-09
1.48494e-09
1.563e-09
1.66883e-09
2.21913e-09
3.1428e-09
2.71187e-09
1.61727e-09
1.45783e-09
1.27843e-09
1.26412e-09
1.23261e-09
1.23695e-09
1.22574e-09
1.23077e-09
1.22514e-09
1.22138e-09
1.23817e-09
1.22463e-09
1.24255e-09
1.24189e-09
1.25867e-09
1.33041e-09
1.40395e-09
1.86411e-09
2.58248e-09
2.04136e-09
1.27185e-09
1.18223e-09
1.03096e-09
1.02421e-09
9.94691e-10
9.99471e-10
9.88424e-10
9.93759e-10
9.88061e-10
9.84393e-10
1.00108e-09
9.87371e-10
1.00457e-09
1.00358e-09
1.01758e-09
1.07992e-09
1.12733e-09
1.49603e-09
2.02828e-09
1.48734e-09
9.57003e-10
9.11998e-10
7.90815e-10
7.89295e-10
7.63107e-10
7.6778e-10
7.57826e-10
7.62907e-10
7.57657e-10
7.54373e-10
7.69559e-10
7.56907e-10
7.71971e-10
7.70959e-10
7.81841e-10
8.33141e-10
8.60925e-10
1.14268e-09
1.51789e-09
1.04005e-09
6.81951e-10
6.65323e-10
5.70842e-10
5.71886e-10
5.53417e-10
5.57573e-10
5.49311e-10
5.53727e-10
5.49284e-10
5.46565e-10
5.59294e-10
5.48562e-10
5.60681e-10
5.59837e-10
5.67087e-10
6.0583e-10
6.2175e-10
8.2603e-10
1.0767e-09
6.91126e-10
4.59258e-10
4.5563e-10
3.88347e-10
3.90729e-10
3.76781e-10
3.80135e-10
3.73856e-10
3.77346e-10
3.73914e-10
3.7185e-10
3.81601e-10
3.73292e-10
3.82207e-10
3.81601e-10
3.8624e-10
4.14206e-10
4.21663e-10
5.60905e-10
7.18988e-10
4.32665e-10
2.9021e-10
2.91312e-10
2.47181e-10
2.49596e-10
2.40084e-10
2.42507e-10
2.38212e-10
2.40679e-10
2.383e-10
2.36898e-10
2.43584e-10
2.37832e-10
2.43729e-10
2.43352e-10
2.46106e-10
2.64469e-10
2.67503e-10
3.55581e-10
4.49611e-10
2.55675e-10
1.73902e-10
1.75221e-10
1.49059e-10
1.50807e-10
1.4506e-10
1.46593e-10
1.44008e-10
1.45531e-10
1.44086e-10
1.4326e-10
1.47252e-10
1.43787e-10
1.47204e-10
1.47013e-10
1.48485e-10
1.59255e-10
1.60545e-10
2.11633e-10
2.64984e-10
1.47284e-10
1.03554e-10
1.03437e-10
8.95575e-11
9.04781e-11
8.74413e-11
8.82679e-11
8.69271e-11
8.77274e-11
8.69765e-11
8.65688e-11
8.85828e-11
8.68209e-11
8.85011e-11
8.84419e-11
8.91322e-11
9.47266e-11
9.56526e-11
1.22925e-10
1.52927e-10
9.0009e-11
6.75571e-11
6.60471e-11
5.93462e-11
5.96072e-11
5.8201e-11
5.85654e-11
5.79742e-11
5.83227e-11
5.79947e-11
5.7831e-11
5.867e-11
5.79307e-11
5.86135e-11
5.86262e-11
5.89242e-11
6.15485e-11
6.25544e-11
7.65532e-11
9.44864e-11
6.52298e-11
5.32544e-11
5.09656e-11
4.77973e-11
4.76547e-11
4.70612e-11
4.71777e-11
4.69515e-11
4.70732e-11
4.69525e-11
4.68904e-11
4.71992e-11
4.69266e-11
4.71731e-11
4.72026e-11
4.7359e-11
4.85789e-11
4.96653e-11
5.73174e-11
6.94581e-11
5.73261e-11
4.97692e-11
4.72926e-11
4.54797e-11
4.51546e-11
4.48651e-11
4.4883e-11
4.47793e-11
4.48238e-11
4.47712e-11
4.47177e-11
4.49127e-11
4.47421e-11
4.49011e-11
4.49069e-11
4.50548e-11
4.57866e-11
4.68352e-11
5.1969e-11
6.13341e-11
5.49781e-11
4.91562e-11
4.67634e-11
4.54044e-11
4.50263e-11
4.48292e-11
4.48171e-11
4.47438e-11
4.47693e-11
4.47324e-11
4.46635e-11
4.48728e-11
4.46902e-11
4.48656e-11
4.48426e-11
4.50119e-11
4.55899e-11
4.65661e-11
5.06829e-11
5.85743e-11
)
;

boundaryField
{
    fuel
    {
        type            fixedValue;
        value           uniform 0;
    }
    wall
    {
        type            zeroGradient;
    }
    outlet
    {
        type            zeroGradient;
    }
    frontAndBack
    {
        type            empty;
    }
}


// ************************************************************************* //
