/*--------------------------------*- C++ -*----------------------------------*\
| =========                 |                                                 |
| \\      /  F ield         | OpenFOAM: The Open Source CFD Toolbox           |
|  \\    /   O peration     | Version:  dev                                   |
|   \\  /    A nd           | Web:      www.OpenFOAM.org                      |
|    \\/     M anipulation  |                                                 |
\*---------------------------------------------------------------------------*/
FoamFile
{
    version     2.0;
    format      ascii;
    class       volScalarField;
    location    "0.2";
    object      A1C2H22;
}
// * * * * * * * * * * * * * * * * * * * * * * * * * * * * * * * * * * * * * //

dimensions      [0 0 0 0 0 0 0];

internalField   nonuniform List<scalar> 
1000
(
3.18568e-09
1.04809e-07
1.03125e-07
1.02138e-07
1.01961e-07
1.01942e-07
1.01941e-07
1.01933e-07
1.01951e-07
1.01943e-07
1.01948e-07
1.0195e-07
1.01954e-07
1.01948e-07
1.0195e-07
1.02028e-07
1.02039e-07
1.03144e-07
1.03082e-07
5.62835e-09
6.88677e-09
1.91141e-07
1.47151e-07
1.40745e-07
1.39853e-07
1.3976e-07
1.39732e-07
1.39723e-07
1.39753e-07
1.39737e-07
1.39753e-07
1.39758e-07
1.39761e-07
1.39758e-07
1.39753e-07
1.40022e-07
1.40399e-07
1.45553e-07
1.63401e-07
1.31298e-08
8.75344e-09
1.9195e-07
1.23507e-07
1.1447e-07
1.13213e-07
1.13077e-07
1.1303e-07
1.13019e-07
1.13058e-07
1.13034e-07
1.13063e-07
1.13073e-07
1.13068e-07
1.13077e-07
1.13053e-07
1.13492e-07
1.13941e-07
1.21494e-07
1.46011e-07
1.48928e-08
9.62869e-09
1.7697e-07
9.62442e-08
8.6142e-08
8.47266e-08
8.45688e-08
8.45027e-08
8.44974e-08
8.45409e-08
8.45123e-08
8.45509e-08
8.45672e-08
8.45536e-08
8.45631e-08
8.45333e-08
8.50962e-08
8.549e-08
9.43757e-08
1.20526e-07
7.90553e-09
1.00424e-08
1.59976e-07
7.39462e-08
6.3634e-08
6.21856e-08
6.20194e-08
6.19236e-08
6.1941e-08
6.19846e-08
6.19537e-08
6.19997e-08
6.202e-08
6.20004e-08
6.19892e-08
6.19799e-08
6.26093e-08
6.29178e-08
7.24914e-08
9.95291e-08
9.68316e-08
1.01416e-08
1.44032e-07
5.69215e-08
4.68741e-08
4.54686e-08
4.53015e-08
4.51586e-08
4.52215e-08
4.52607e-08
4.52305e-08
4.52794e-08
4.53015e-08
4.52785e-08
4.5225e-08
4.52641e-08
4.59069e-08
4.61475e-08
5.50093e-08
8.38952e-08
1.64928e-07
9.81138e-09
1.29804e-07
4.43541e-08
3.47897e-08
3.34539e-08
3.32856e-08
3.30801e-08
3.31995e-08
3.32333e-08
3.32007e-08
3.32555e-08
3.32773e-08
3.32525e-08
3.31303e-08
3.32528e-08
3.38824e-08
3.4091e-08
4.25489e-08
7.14406e-08
2.00926e-07
8.70349e-09
1.17151e-07
3.43105e-08
2.62973e-08
2.4941e-08
2.47685e-08
2.45483e-08
2.46772e-08
2.4702e-08
2.46706e-08
2.47247e-08
2.47449e-08
2.47193e-08
2.45919e-08
2.47401e-08
2.53607e-08
2.56373e-08
3.29215e-08
6.22055e-08
2.35676e-07
6.46951e-09
1.05737e-07
2.76394e-08
1.95367e-08
1.86854e-08
1.86086e-08
1.86192e-08
1.85694e-08
1.85855e-08
1.85551e-08
1.86067e-08
1.86244e-08
1.85988e-08
1.86543e-08
1.85829e-08
1.89461e-08
1.90023e-08
2.62448e-08
5.55974e-08
2.65214e-07
3.67645e-09
9.5238e-08
2.22214e-08
1.53981e-08
1.45188e-08
1.44136e-08
1.44697e-08
1.4371e-08
1.43741e-08
1.43406e-08
1.43979e-08
1.44146e-08
1.43805e-08
1.44965e-08
1.43889e-08
1.47808e-08
1.4913e-08
2.09177e-08
4.99095e-08
2.80481e-07
1.76666e-09
8.54441e-08
1.80801e-08
1.22324e-08
1.13859e-08
1.12886e-08
1.12975e-08
1.12494e-08
1.12488e-08
1.12252e-08
1.12658e-08
1.12787e-08
1.12416e-08
1.1276e-08
1.12688e-08
1.15889e-08
1.18021e-08
1.70213e-08
4.52945e-08
2.7769e-07
1.0557e-09
7.62436e-08
1.52995e-08
9.93485e-09
9.17249e-09
9.08121e-09
9.09105e-09
9.04811e-09
9.04693e-09
9.03875e-09
9.0558e-09
9.06566e-09
9.02136e-09
9.24094e-09
9.06408e-09
9.32931e-09
9.56827e-09
1.40947e-08
4.09447e-08
2.58995e-07
1.05213e-09
6.75958e-08
1.2933e-08
8.2527e-09
7.5636e-09
7.47811e-09
7.60249e-09
7.45009e-09
7.45207e-09
7.45802e-09
7.45195e-09
7.45945e-09
7.40216e-09
7.58492e-09
7.46087e-09
7.68432e-09
7.9372e-09
1.18151e-08
3.69157e-08
2.30126e-07
1.44961e-09
5.95345e-08
1.11989e-08
6.98838e-09
6.36122e-09
6.27978e-09
6.33934e-09
6.25461e-09
6.26286e-09
6.27599e-09
6.25437e-09
6.26035e-09
6.18168e-09
6.33128e-09
6.26261e-09
6.45444e-09
6.71474e-09
1.033e-08
3.31725e-08
1.9725e-07
2.15656e-09
5.13356e-08
9.70964e-09
6.00984e-09
5.43831e-09
5.36057e-09
5.38385e-09
5.33492e-09
5.35086e-09
5.3639e-09
5.33587e-09
5.34131e-09
5.35381e-09
5.38194e-09
5.34342e-09
5.51066e-09
5.7712e-09
9.09672e-09
2.99254e-08
1.65555e-07
3.13723e-09
4.31243e-08
8.38667e-09
5.23162e-09
4.71222e-09
4.63842e-09
4.64376e-09
4.60896e-09
4.63323e-09
4.64216e-09
4.61416e-09
4.61921e-09
4.62401e-09
4.64297e-09
4.62125e-09
4.76851e-09
5.02273e-09
7.97352e-09
2.69228e-08
1.37689e-07
4.35335e-09
3.67386e-08
7.2846e-09
4.59839e-09
4.12868e-09
4.05918e-09
4.05591e-09
4.02276e-09
4.05609e-09
4.06016e-09
4.03527e-09
4.03996e-09
4.03818e-09
4.05459e-09
4.04208e-09
4.1724e-09
4.41562e-09
7.03323e-09
2.40053e-08
1.14717e-07
5.69758e-09
3.10292e-08
6.35752e-09
4.07302e-09
3.65164e-09
3.58676e-09
3.5796e-09
3.5398e-09
3.58404e-09
3.58417e-09
3.56329e-09
3.56755e-09
3.55949e-09
3.57727e-09
3.56989e-09
3.68538e-09
3.91449e-09
6.22282e-09
2.13063e-08
9.67185e-08
7.05704e-09
2.59869e-08
5.57347e-09
3.62942e-09
3.25672e-09
3.19669e-09
3.18839e-09
3.18524e-09
3.19344e-09
3.1909e-09
3.17388e-09
3.17758e-09
3.16299e-09
3.18468e-09
3.18026e-09
3.28247e-09
3.4955e-09
5.64574e-09
1.88498e-08
8.10233e-08
8.30656e-09
2.16118e-08
4.90946e-09
3.24864e-09
2.92704e-09
2.87204e-09
2.86359e-09
2.8551e-09
2.86771e-09
2.86382e-09
2.85017e-09
2.85322e-09
2.83152e-09
2.859e-09
2.85629e-09
2.9464e-09
3.14117e-09
5.09264e-09
1.6628e-08
7.00671e-08
9.32483e-09
1.78795e-08
4.34835e-09
2.96158e-09
2.65068e-09
2.60077e-09
2.59275e-09
2.5778e-09
2.59531e-09
2.59096e-09
2.58015e-09
2.58259e-09
2.58692e-09
2.58786e-09
2.58598e-09
2.66481e-09
2.87067e-09
4.58456e-09
1.46264e-08
6.08032e-08
1.00136e-08
1.45123e-08
3.87489e-09
2.70499e-09
2.41849e-09
2.37398e-09
2.3669e-09
2.3713e-09
2.36766e-09
2.36337e-09
2.35493e-09
2.3568e-09
2.36337e-09
2.3615e-09
2.36049e-09
2.42805e-09
2.62929e-09
4.14374e-09
1.28353e-08
5.37346e-08
1.03288e-08
1.16977e-08
3.479e-09
2.50359e-09
2.24573e-09
2.20685e-09
2.20053e-09
2.20287e-09
2.19993e-09
2.19604e-09
2.18925e-09
2.19112e-09
2.19818e-09
2.19531e-09
2.19422e-09
2.25528e-09
2.44078e-09
3.76178e-09
1.12467e-08
4.73449e-08
1.02752e-08
9.6926e-09
3.14999e-09
2.33213e-09
2.10554e-09
2.0612e-09
2.05556e-09
2.05618e-09
2.05386e-09
2.05023e-09
2.04485e-09
2.04709e-09
2.05298e-09
2.05012e-09
2.0497e-09
2.10343e-09
2.27736e-09
3.43091e-09
9.84796e-09
4.19713e-08
9.90159e-09
8.08516e-09
2.90843e-09
2.19875e-09
1.99507e-09
1.95506e-09
1.95004e-09
1.94991e-09
1.94757e-09
1.94476e-09
1.94046e-09
1.9428e-09
1.94721e-09
1.9448e-09
1.94479e-09
1.99234e-09
2.15392e-09
3.14412e-09
8.62691e-09
3.71409e-08
9.29493e-09
6.82782e-09
2.70972e-09
2.09583e-09
1.91198e-09
1.87625e-09
1.87178e-09
1.8714e-09
1.8688e-09
1.86696e-09
1.86353e-09
1.86559e-09
1.86886e-09
1.86685e-09
1.86733e-09
1.90919e-09
2.05935e-09
2.93726e-09
7.57079e-09
3.27577e-08
8.5534e-09
5.86411e-09
2.56009e-09
2.02065e-09
1.85535e-09
1.82316e-09
1.81916e-09
1.81894e-09
1.81588e-09
1.81514e-09
1.81236e-09
1.81382e-09
1.81646e-09
1.81458e-09
1.81563e-09
1.8521e-09
1.99218e-09
2.76741e-09
6.66483e-09
2.85264e-08
7.77041e-09
5.07905e-09
2.4497e-09
1.9716e-09
1.82356e-09
1.7943e-09
1.7907e-09
1.79094e-09
1.78726e-09
1.78774e-09
1.78539e-09
1.78614e-09
1.78855e-09
1.78652e-09
1.78816e-09
1.81958e-09
1.95067e-09
2.63248e-09
5.89603e-09
2.44879e-08
7.02484e-09
4.44912e-09
2.37396e-09
1.94685e-09
1.81475e-09
1.78791e-09
1.78465e-09
1.78548e-09
1.7811e-09
1.7828e-09
1.78077e-09
1.78085e-09
1.78324e-09
1.78086e-09
1.78309e-09
1.80987e-09
1.9327e-09
2.52989e-09
5.24912e-09
2.10236e-08
6.36334e-09
4.02896e-09
2.32786e-09
1.94371e-09
1.82612e-09
1.80118e-09
1.79827e-09
1.79958e-09
1.79457e-09
1.79735e-09
1.79558e-09
1.79514e-09
1.79754e-09
1.79479e-09
1.79757e-09
1.82026e-09
1.93513e-09
2.45612e-09
4.73652e-09
1.77073e-08
5.79971e-09
3.71523e-09
2.30434e-09
1.95764e-09
1.85285e-09
1.82932e-09
1.82674e-09
1.82821e-09
1.82279e-09
1.8263e-09
1.82476e-09
1.82403e-09
1.82632e-09
1.8234e-09
1.82663e-09
1.84608e-09
1.95283e-09
2.4057e-09
4.3042e-09
1.44225e-08
5.32624e-09
3.47806e-09
2.29375e-09
1.98103e-09
1.88703e-09
1.8644e-09
1.86202e-09
1.86314e-09
1.85778e-09
1.86139e-09
1.86009e-09
1.85931e-09
1.86133e-09
1.85866e-09
1.86216e-09
1.87957e-09
1.97749e-09
2.37043e-09
3.93576e-09
1.19858e-08
4.92062e-09
3.28873e-09
2.28355e-09
2.00268e-09
1.91797e-09
1.89593e-09
1.89198e-09
1.89384e-09
1.88909e-09
1.892e-09
1.89088e-09
1.88872e-09
1.89202e-09
1.89004e-09
1.89337e-09
1.91035e-09
1.9968e-09
2.33887e-09
3.61006e-09
9.80172e-09
4.55198e-09
3.11836e-09
2.25413e-09
2.0069e-09
1.926e-09
1.9047e-09
1.90076e-09
1.90032e-09
1.89739e-09
1.8982e-09
1.89758e-09
1.89641e-09
1.89861e-09
1.89836e-09
1.90114e-09
1.91934e-09
1.99482e-09
2.29405e-09
3.2936e-09
8.0251e-09
4.18687e-09
2.93879e-09
2.18723e-09
1.97613e-09
1.89576e-09
1.87526e-09
1.87142e-09
1.86757e-09
1.86744e-09
1.86499e-09
1.86504e-09
1.86561e-09
1.86607e-09
1.86829e-09
1.87003e-09
1.89083e-09
1.95461e-09
2.22026e-09
2.9893e-09
6.53866e-09
3.79628e-09
2.72607e-09
2.06834e-09
1.89505e-09
1.81361e-09
1.79409e-09
1.79038e-09
1.78269e-09
1.78594e-09
1.77957e-09
1.78039e-09
1.78305e-09
1.78146e-09
1.78653e-09
1.78686e-09
1.81094e-09
1.86263e-09
2.10087e-09
2.67082e-09
5.29358e-09
3.36315e-09
2.46551e-09
1.89171e-09
1.75599e-09
1.67412e-09
1.65594e-09
1.65244e-09
1.64126e-09
1.64789e-09
1.6377e-09
1.63924e-09
1.64391e-09
1.64031e-09
1.64805e-09
1.6469e-09
1.67386e-09
1.71379e-09
1.92799e-09
2.33234e-09
4.24438e-09
2.88718e-09
2.15605e-09
1.66341e-09
1.56275e-09
1.48321e-09
1.46687e-09
1.46367e-09
1.45014e-09
1.45941e-09
1.44635e-09
1.44842e-09
1.45462e-09
1.44941e-09
1.45909e-09
1.45665e-09
1.48506e-09
1.51432e-09
1.70457e-09
1.97798e-09
3.35455e-09
2.3859e-09
1.81139e-09
1.40048e-09
1.3303e-09
1.25689e-09
1.24282e-09
1.24003e-09
1.22567e-09
1.23639e-09
1.22195e-09
1.22426e-09
1.23127e-09
1.22508e-09
1.23569e-09
1.23231e-09
1.26037e-09
1.28033e-09
1.44521e-09
1.62001e-09
2.60002e-09
1.88861e-09
1.45534e-09
1.12552e-09
1.08004e-09
1.01619e-09
1.00455e-09
1.00223e-09
9.88476e-10
9.99426e-10
9.85079e-10
9.87392e-10
9.94457e-10
9.88016e-10
9.98474e-10
9.94608e-10
1.02059e-09
1.03299e-09
1.17079e-09
1.27544e-09
1.96455e-09
1.42521e-09
1.11321e-09
8.60263e-10
8.3351e-10
7.81383e-10
7.71916e-10
7.70094e-10
7.58004e-10
7.68159e-10
7.55118e-10
7.57224e-10
7.63721e-10
7.57653e-10
7.67094e-10
7.63212e-10
7.86029e-10
7.92759e-10
9.02419e-10
9.60673e-10
1.43605e-09
1.01938e-09
8.05951e-10
6.21785e-10
6.06258e-10
5.65001e-10
5.60732e-10
5.5938e-10
5.49581e-10
5.5822e-10
5.473e-10
5.49065e-10
5.54554e-10
5.4932e-10
5.57175e-10
5.53651e-10
5.6958e-10
5.72524e-10
6.57881e-10
6.85156e-10
1.00689e-09
6.86025e-10
5.4807e-10
4.22024e-10
4.1465e-10
3.85172e-10
3.8238e-10
3.81425e-10
3.74166e-10
3.80865e-10
3.72507e-10
3.73855e-10
3.78094e-10
3.73978e-10
3.79961e-10
3.77071e-10
3.88988e-10
3.89689e-10
4.50299e-10
4.61799e-10
6.70531e-10
4.31967e-10
3.47953e-10
2.67935e-10
2.64851e-10
2.456e-10
2.43962e-10
2.43324e-10
2.38509e-10
2.43153e-10
2.37425e-10
2.38341e-10
2.41279e-10
2.38377e-10
2.42477e-10
2.40363e-10
2.48411e-10
2.48156e-10
2.87854e-10
2.91997e-10
4.20577e-10
2.5606e-10
2.07479e-10
1.6091e-10
1.59539e-10
1.48287e-10
1.47435e-10
1.47037e-10
1.44256e-10
1.47055e-10
1.43639e-10
1.44174e-10
1.45955e-10
1.44164e-10
1.46635e-10
1.45285e-10
1.50144e-10
1.49694e-10
1.73239e-10
1.75006e-10
2.49109e-10
1.48501e-10
1.20886e-10
9.59073e-11
9.49144e-11
8.91e-11
8.87023e-11
8.8468e-11
8.71125e-11
8.85381e-11
8.6817e-11
8.70734e-11
8.79945e-11
8.70501e-11
8.83306e-11
8.7596e-11
9.0183e-11
8.99208e-11
1.02459e-10
1.04142e-10
1.44041e-10
9.22439e-11
7.56716e-11
6.27145e-11
6.16663e-11
5.89633e-11
5.87765e-11
5.86451e-11
5.81016e-11
5.8702e-11
5.79874e-11
5.80827e-11
5.84792e-11
5.80624e-11
5.86238e-11
5.8296e-11
5.95108e-11
5.95278e-11
6.56409e-11
6.78242e-11
8.85578e-11
6.83267e-11
5.70124e-11
4.97653e-11
4.86594e-11
4.7414e-11
4.72959e-11
4.72251e-11
4.70336e-11
4.72577e-11
4.69968e-11
4.70283e-11
4.71691e-11
4.70159e-11
4.72258e-11
4.71184e-11
4.76425e-11
4.78799e-11
5.08277e-11
5.33576e-11
6.46353e-11
6.08632e-11
5.19314e-11
4.69068e-11
4.58594e-11
4.51011e-11
4.4985e-11
4.49492e-11
4.48299e-11
4.49724e-11
4.48073e-11
4.484e-11
4.48993e-11
4.48347e-11
4.49258e-11
4.49076e-11
4.51695e-11
4.55252e-11
4.72527e-11
4.98132e-11
5.70972e-11
5.84933e-11
5.07664e-11
4.6625e-11
4.56649e-11
4.50477e-11
4.49204e-11
4.49058e-11
4.47755e-11
4.4929e-11
4.47494e-11
4.47989e-11
4.48405e-11
4.47974e-11
4.48582e-11
4.48684e-11
4.50484e-11
4.54402e-11
4.67531e-11
4.91852e-11
5.48944e-11
)
;

boundaryField
{
    fuel
    {
        type            fixedValue;
        value           uniform 0;
    }
    wall
    {
        type            zeroGradient;
    }
    outlet
    {
        type            zeroGradient;
    }
    frontAndBack
    {
        type            empty;
    }
}


// ************************************************************************* //
