/*--------------------------------*- C++ -*----------------------------------*\
| =========                 |                                                 |
| \\      /  F ield         | OpenFOAM: The Open Source CFD Toolbox           |
|  \\    /   O peration     | Version:  dev                                   |
|   \\  /    A nd           | Web:      www.OpenFOAM.org                      |
|    \\/     M anipulation  |                                                 |
\*---------------------------------------------------------------------------*/
FoamFile
{
    version     2.0;
    format      ascii;
    class       volScalarField;
    location    "0.2";
    object      A2-1;
}
// * * * * * * * * * * * * * * * * * * * * * * * * * * * * * * * * * * * * * //

dimensions      [0 0 0 0 0 0 0];

internalField   nonuniform List<scalar> 
1000
(
7.87984e-10
6.64325e-08
6.25216e-08
6.12814e-08
6.11982e-08
6.1124e-08
6.11307e-08
6.11313e-08
6.11341e-08
6.11288e-08
6.1126e-08
6.11323e-08
6.11318e-08
6.11301e-08
6.11321e-08
6.11586e-08
6.13597e-08
6.29625e-08
7.36752e-08
6.0656e-10
7.33319e-10
4.73155e-08
3.91602e-08
3.72622e-08
3.71367e-08
3.704e-08
3.70512e-08
3.70466e-08
3.70489e-08
3.70469e-08
3.7043e-08
3.70467e-08
3.70463e-08
3.70426e-08
3.70484e-08
3.70767e-08
3.7365e-08
3.98849e-08
6.47127e-08
4.91463e-10
4.4871e-09
2.22986e-08
1.67914e-08
1.53373e-08
1.52985e-08
1.52064e-08
1.52221e-08
1.52133e-08
1.52162e-08
1.52142e-08
1.52119e-08
1.52144e-08
1.5213e-08
1.52117e-08
1.5215e-08
1.52341e-08
1.54277e-08
1.71363e-08
3.77088e-08
2.48627e-10
2.842e-08
1.12434e-08
7.68218e-09
6.66449e-09
6.66075e-09
6.58757e-09
6.60145e-09
6.59353e-09
6.59634e-09
6.59423e-09
6.59337e-09
6.59489e-09
6.59337e-09
6.59254e-09
6.5949e-09
6.60778e-09
6.73292e-09
7.83585e-09
2.35932e-08
1.36074e-10
2.98485e-08
6.63481e-09
4.07783e-09
3.33357e-09
3.33711e-09
3.28226e-09
3.29195e-09
3.28672e-09
3.28902e-09
3.28714e-09
3.28703e-09
3.28792e-09
3.28649e-09
3.28522e-09
3.28779e-09
3.29723e-09
3.38437e-09
4.15236e-09
1.67762e-08
8.76293e-11
2.09862e-08
4.49522e-09
2.41187e-09
1.9064e-09
1.90877e-09
1.86756e-09
1.87313e-09
1.87068e-09
1.87242e-09
1.8708e-09
1.87107e-09
1.87161e-09
1.87032e-09
1.86853e-09
1.87148e-09
1.87904e-09
1.94521e-09
2.52643e-09
1.30998e-08
6.65424e-11
1.72489e-08
3.33289e-09
1.613e-09
1.21348e-09
1.21224e-09
1.18054e-09
1.18317e-09
1.18261e-09
1.18397e-09
1.1824e-09
1.18303e-09
1.18337e-09
1.18201e-09
1.17942e-09
1.18329e-09
1.18972e-09
1.24434e-09
1.71448e-09
1.08071e-08
6.13734e-11
1.70047e-08
2.69461e-09
1.16567e-09
8.37029e-10
8.33108e-10
8.08617e-10
8.10177e-10
8.10005e-10
8.11047e-10
8.09747e-10
8.10387e-10
8.10593e-10
8.09461e-10
8.0754e-10
8.10604e-10
8.15882e-10
8.62631e-10
1.26494e-09
9.18031e-09
7.94133e-11
1.85881e-08
2.33872e-09
8.82783e-10
6.072e-10
6.09523e-10
5.91216e-10
5.93525e-10
5.92181e-10
5.93039e-10
5.92101e-10
5.92546e-10
5.9267e-10
5.91871e-10
5.914e-10
5.92782e-10
5.9642e-10
6.26312e-10
9.74647e-10
7.90739e-09
1.33747e-10
2.09115e-08
2.09736e-09
6.90005e-10
4.66253e-10
4.6228e-10
4.46573e-10
4.49555e-10
4.47041e-10
4.4777e-10
4.47039e-10
4.4744e-10
4.47518e-10
4.46699e-10
4.47934e-10
4.47865e-10
4.51576e-10
4.83291e-10
7.7159e-10
6.84307e-09
1.87135e-10
2.30754e-08
1.93169e-09
5.60774e-10
3.68252e-10
3.62029e-10
3.49874e-10
3.52148e-10
3.50014e-10
3.50614e-10
3.5001e-10
3.50399e-10
3.50442e-10
3.49524e-10
3.50828e-10
3.50876e-10
3.54184e-10
3.82152e-10
6.45616e-10
5.91841e-09
2.23572e-10
2.44001e-08
1.79062e-09
4.6881e-10
3.01402e-10
2.93754e-10
2.83918e-10
2.85036e-10
2.8384e-10
2.84376e-10
2.83854e-10
2.84233e-10
2.84257e-10
2.83098e-10
2.83493e-10
2.84758e-10
2.87841e-10
3.13025e-10
5.46638e-10
5.09894e-09
2.80743e-10
2.4542e-08
1.66337e-09
3.98887e-10
2.53669e-10
2.4523e-10
2.37041e-10
2.36775e-10
2.36792e-10
2.37303e-10
2.36894e-10
2.37206e-10
2.37227e-10
2.35687e-10
2.4077e-10
2.37813e-10
2.40688e-10
2.63474e-10
4.65066e-10
4.36924e-09
3.63174e-10
2.35254e-08
1.54114e-09
3.54876e-10
2.18249e-10
2.09375e-10
2.02444e-10
2.05303e-10
2.02025e-10
2.02534e-10
2.02244e-10
2.02468e-10
2.025e-10
2.00296e-10
2.04953e-10
2.0311e-10
2.05838e-10
2.26559e-10
4.06704e-10
3.66974e-09
4.61537e-10
2.16459e-08
1.42675e-09
3.17115e-10
1.91022e-10
1.81971e-10
1.75983e-10
1.78173e-10
1.75409e-10
1.75967e-10
1.75774e-10
1.75923e-10
1.75983e-10
1.76406e-10
1.77565e-10
1.76578e-10
1.7919e-10
1.98082e-10
3.51934e-10
2.99943e-09
5.72086e-10
1.92992e-08
1.31355e-09
2.83489e-10
1.69443e-10
1.60417e-10
1.55159e-10
1.5668e-10
1.54416e-10
1.5508e-10
1.54949e-10
1.55052e-10
1.55136e-10
1.55313e-10
1.56134e-10
1.55712e-10
1.58218e-10
1.75467e-10
3.05755e-10
2.49179e-09
6.83304e-10
1.68393e-08
1.19854e-09
2.55088e-10
1.51906e-10
1.43061e-10
1.38394e-10
1.39418e-10
1.3743e-10
1.38276e-10
1.38179e-10
1.3826e-10
1.38364e-10
1.38301e-10
1.39015e-10
1.38922e-10
1.41321e-10
1.57071e-10
2.66843e-10
2.04549e-09
7.78138e-10
1.4514e-08
1.08559e-09
2.30117e-10
1.37371e-10
1.28827e-10
1.2466e-10
1.25339e-10
1.23382e-10
1.24519e-10
1.24436e-10
1.24511e-10
1.24627e-10
1.24263e-10
1.25085e-10
1.25169e-10
1.27456e-10
1.41826e-10
2.34012e-10
1.66324e-09
8.45243e-10
1.24638e-08
9.7824e-10
2.12372e-10
1.25156e-10
1.16998e-10
1.13273e-10
1.13735e-10
1.13072e-10
1.13122e-10
1.13042e-10
1.13116e-10
1.13237e-10
1.12427e-10
1.13591e-10
1.13763e-10
1.15934e-10
1.29024e-10
2.06348e-10
1.34596e-09
8.80989e-10
1.041e-08
8.76982e-10
1.9569e-10
1.14776e-10
1.07092e-10
1.03772e-10
1.04086e-10
1.03423e-10
1.03613e-10
1.03539e-10
1.03611e-10
1.03734e-10
1.03604e-10
1.04037e-10
1.04237e-10
1.06289e-10
1.18183e-10
1.83045e-10
1.06231e-09
8.86867e-10
8.84819e-09
7.83382e-10
1.79605e-10
1.06858e-10
9.87764e-11
9.58415e-11
9.605e-11
9.53106e-11
9.56768e-11
9.56129e-11
9.56808e-11
9.57979e-11
9.60708e-11
9.60743e-11
9.62728e-11
9.82049e-11
1.08923e-10
1.63633e-10
8.35203e-10
8.67054e-10
7.55632e-09
6.97534e-10
1.65561e-10
9.98946e-11
9.18071e-11
8.92729e-11
8.93983e-11
8.93614e-11
8.91015e-11
8.9053e-11
8.91108e-11
8.92155e-11
8.94133e-11
8.94692e-11
8.9657e-11
9.14702e-11
1.01203e-10
1.47597e-10
6.63623e-10
8.25721e-10
6.36849e-09
6.19305e-10
1.53328e-10
9.45456e-11
8.68866e-11
8.45863e-11
8.46805e-11
8.46492e-11
8.44279e-11
8.43926e-11
8.44226e-11
8.45314e-11
8.47089e-11
8.47621e-11
8.49391e-11
8.66409e-11
9.5478e-11
1.34567e-10
5.27915e-10
7.67667e-10
5.40835e-09
5.4914e-10
1.42732e-10
9.01426e-11
8.27826e-11
8.07497e-11
8.07942e-11
8.07817e-11
8.05884e-11
8.05713e-11
8.06588e-11
8.06871e-11
8.08589e-11
8.08923e-11
8.10551e-11
8.26576e-11
9.08336e-11
1.2417e-10
4.25767e-10
6.98529e-10
4.62409e-09
4.86892e-10
1.33611e-10
8.71939e-11
8.01271e-11
7.83536e-11
7.83556e-11
7.83774e-11
7.81972e-11
7.82064e-11
7.82721e-11
7.82777e-11
7.84662e-11
7.84488e-11
7.86025e-11
8.00886e-11
8.75581e-11
1.17085e-10
3.50176e-10
6.24502e-10
3.84167e-09
4.32048e-10
1.27431e-10
8.55332e-11
7.86989e-11
7.71985e-11
7.7152e-11
7.72252e-11
7.7046e-11
7.70883e-11
7.71565e-11
7.70965e-11
7.73183e-11
7.72294e-11
7.73778e-11
7.87296e-11
8.55564e-11
1.117e-10
2.94957e-10
5.52259e-10
3.12073e-09
3.84544e-10
1.22902e-10
8.52817e-11
7.86231e-11
7.74136e-11
7.73125e-11
7.74564e-11
7.72655e-11
7.7349e-11
7.74263e-11
7.7269e-11
7.75479e-11
7.73597e-11
7.75073e-11
7.8735e-11
8.49107e-11
1.0871e-10
2.55443e-10
4.87206e-10
2.55033e-09
3.44442e-10
1.20196e-10
8.66185e-11
8.00849e-11
7.91872e-11
7.90251e-11
7.92615e-11
7.90449e-11
7.91793e-11
7.92705e-11
7.8984e-11
7.93496e-11
7.90256e-11
7.91788e-11
8.02879e-11
8.57947e-11
1.07798e-10
2.24785e-10
4.32618e-10
2.13331e-09
3.11232e-10
1.19466e-10
8.97585e-11
8.3304e-11
8.27424e-11
8.25121e-11
8.28648e-11
8.26056e-11
8.28033e-11
8.2915e-11
8.24679e-11
8.29512e-11
8.24503e-11
8.26181e-11
8.36112e-11
8.84278e-11
1.09069e-10
2.0376e-10
3.89891e-10
1.73713e-09
2.85395e-10
1.20872e-10
9.48851e-11
8.84903e-11
8.82748e-11
8.79732e-11
8.84609e-11
8.81382e-11
8.84151e-11
8.85529e-11
8.79214e-11
8.85473e-11
8.78338e-11
8.80289e-11
8.89087e-11
9.30269e-11
1.12618e-10
1.92609e-10
3.58871e-10
1.35922e-09
2.64712e-10
1.24459e-10
1.02033e-10
9.57275e-11
9.58312e-11
9.54633e-11
9.60867e-11
9.56784e-11
9.60507e-11
9.62167e-11
9.53982e-11
9.61732e-11
9.52377e-11
9.54744e-11
9.6249e-11
9.97004e-11
1.18408e-10
1.87363e-10
3.38128e-10
1.09715e-09
2.48504e-10
1.30023e-10
1.10906e-10
1.04798e-10
1.05128e-10
1.0471e-10
1.05434e-10
1.04934e-10
1.05401e-10
1.0559e-10
1.04622e-10
1.05518e-10
1.04407e-10
1.04696e-10
1.05385e-10
1.08281e-10
1.26119e-10
1.86705e-10
3.25478e-10
8.77677e-10
2.35309e-10
1.36947e-10
1.2068e-10
1.15272e-10
1.15524e-10
1.15099e-10
1.15652e-10
1.15307e-10
1.15615e-10
1.15808e-10
1.14787e-10
1.15725e-10
1.14768e-10
1.151e-10
1.15846e-10
1.18111e-10
1.35508e-10
1.89148e-10
3.18102e-10
7.02582e-10
2.22817e-10
1.4457e-10
1.29876e-10
1.25038e-10
1.25132e-10
1.2475e-10
1.2524e-10
1.24883e-10
1.25196e-10
1.25364e-10
1.24445e-10
1.25295e-10
1.24432e-10
1.24784e-10
1.25527e-10
1.27845e-10
1.44106e-10
1.92743e-10
3.12599e-10
5.61903e-10
2.10075e-10
1.49853e-10
1.36524e-10
1.32481e-10
1.3218e-10
1.31903e-10
1.32202e-10
1.31927e-10
1.32152e-10
1.32259e-10
1.31632e-10
1.32232e-10
1.31675e-10
1.32002e-10
1.32806e-10
1.35563e-10
1.49875e-10
1.95061e-10
3.05198e-10
4.48432e-10
1.94956e-10
1.51355e-10
1.38591e-10
1.35511e-10
1.34626e-10
1.3451e-10
1.34507e-10
1.34391e-10
1.34455e-10
1.34467e-10
1.34302e-10
1.34504e-10
1.34442e-10
1.34695e-10
1.35607e-10
1.3911e-10
1.51013e-10
1.93482e-10
2.92267e-10
3.55847e-10
1.76403e-10
1.47314e-10
1.34633e-10
1.32558e-10
1.31035e-10
1.31108e-10
1.30753e-10
1.30834e-10
1.30706e-10
1.30604e-10
1.3099e-10
1.30715e-10
1.31237e-10
1.31382e-10
1.32409e-10
1.36755e-10
1.45953e-10
1.85815e-10
2.71361e-10
2.79447e-10
1.54315e-10
1.37022e-10
1.24367e-10
1.23229e-10
1.21156e-10
1.21415e-10
1.20736e-10
1.21008e-10
1.20702e-10
1.20495e-10
1.21401e-10
1.20671e-10
1.2173e-10
1.21754e-10
1.2286e-10
1.2787e-10
1.34345e-10
1.71071e-10
2.41911e-10
2.16031e-10
1.29682e-10
1.21161e-10
1.08862e-10
1.08508e-10
1.06085e-10
1.06493e-10
1.05587e-10
1.06006e-10
1.05569e-10
1.05291e-10
1.06573e-10
1.05508e-10
1.06934e-10
1.06857e-10
1.0797e-10
1.13242e-10
1.17282e-10
1.49907e-10
2.05561e-10
1.63041e-10
1.04309e-10
1.01486e-10
9.02138e-11
9.03906e-11
8.78913e-11
8.83753e-11
8.73811e-11
8.78771e-11
8.73805e-11
8.70698e-11
8.85224e-11
8.72988e-11
8.88604e-11
8.87254e-11
8.976e-11
9.48227e-11
9.69321e-11
1.24486e-10
1.6572e-10
1.19351e-10
8.00866e-11
8.0394e-11
7.07763e-11
7.1251e-11
6.88897e-11
6.93781e-11
6.84236e-11
6.8926e-11
6.84364e-11
6.81324e-11
6.95635e-11
6.83471e-11
6.98339e-11
6.96828e-11
7.05673e-11
7.50413e-11
7.58007e-11
9.77641e-11
1.26461e-10
8.41695e-11
5.82901e-11
6.01149e-11
5.22224e-11
5.27578e-11
5.10184e-11
5.14576e-11
5.06319e-11
5.10857e-11
5.06525e-11
5.03831e-11
5.1652e-11
5.05658e-11
5.18329e-11
5.16989e-11
5.23263e-11
5.58974e-11
5.60052e-11
7.24699e-11
9.11453e-11
5.67202e-11
4.02068e-11
4.22539e-11
3.63741e-11
3.68908e-11
3.55328e-11
3.58918e-11
3.52382e-11
3.56113e-11
3.52612e-11
3.50419e-11
3.60713e-11
3.51847e-11
3.61683e-11
3.60668e-11
3.64935e-11
3.92079e-11
3.89259e-11
5.05014e-11
6.1799e-11
3.60622e-11
2.59056e-11
2.76385e-11
2.35677e-11
2.39916e-11
2.30168e-11
2.3286e-11
2.28108e-11
2.30915e-11
2.28318e-11
2.26677e-11
2.34344e-11
2.27702e-11
2.34722e-11
2.34022e-11
2.36791e-11
2.55791e-11
2.51808e-11
3.27751e-11
3.90649e-11
2.11665e-11
1.52515e-11
1.6488e-11
1.39022e-11
1.4206e-11
1.35715e-11
1.37551e-11
1.34413e-11
1.36325e-11
1.34578e-11
1.33462e-11
1.38643e-11
1.34131e-11
1.38702e-11
1.3825e-11
1.39916e-11
1.52029e-11
1.48446e-11
1.94315e-11
2.25966e-11
1.10568e-11
7.91693e-12
8.66406e-12
7.20938e-12
7.39647e-12
7.0345e-12
7.14455e-12
6.96285e-12
7.07671e-12
6.97383e-12
6.90759e-12
7.21361e-12
6.94574e-12
7.20776e-12
7.18135e-12
7.26906e-12
7.94964e-12
7.70119e-12
1.01695e-11
1.15674e-11
4.90826e-12
3.48622e-12
3.84732e-12
3.16578e-12
3.25889e-12
3.08808e-12
3.14242e-12
3.05554e-12
3.11128e-12
3.06139e-12
3.02884e-12
3.17804e-12
3.04688e-12
3.17146e-12
3.15863e-12
3.19666e-12
3.51476e-12
3.3837e-12
4.50275e-12
5.03176e-12
1.74741e-12
1.22491e-12
1.35485e-12
1.10165e-12
1.13659e-12
1.07302e-12
1.09397e-12
1.06119e-12
1.08262e-12
1.06351e-12
1.05063e-12
1.10865e-12
1.05749e-12
1.10477e-12
1.09973e-12
1.11303e-12
1.23136e-12
1.18092e-12
1.59165e-12
1.76845e-12
4.17353e-13
2.89694e-13
3.18331e-13
2.57463e-13
2.65568e-13
2.50354e-13
2.55469e-13
2.47546e-13
2.52788e-13
2.48098e-13
2.44781e-13
2.59346e-13
2.46495e-13
2.58121e-13
2.56811e-13
2.59957e-13
2.8842e-13
2.76853e-13
3.77013e-13
4.22423e-13
7.83575e-14
5.67287e-14
6.0767e-14
5.04609e-14
5.16426e-14
4.90715e-14
4.99289e-14
4.85525e-14
4.94662e-14
4.86422e-14
4.80023e-14
5.06893e-14
4.83255e-14
5.04486e-14
5.01831e-14
5.07889e-14
5.57513e-14
5.39767e-14
7.1603e-14
8.07536e-14
)
;

boundaryField
{
    fuel
    {
        type            fixedValue;
        value           uniform 0;
    }
    wall
    {
        type            zeroGradient;
    }
    outlet
    {
        type            zeroGradient;
    }
    frontAndBack
    {
        type            empty;
    }
}


// ************************************************************************* //
