/*--------------------------------*- C++ -*----------------------------------*\
| =========                 |                                                 |
| \\      /  F ield         | OpenFOAM: The Open Source CFD Toolbox           |
|  \\    /   O peration     | Version:  dev                                   |
|   \\  /    A nd           | Web:      www.OpenFOAM.org                      |
|    \\/     M anipulation  |                                                 |
\*---------------------------------------------------------------------------*/
FoamFile
{
    version     2.0;
    format      ascii;
    class       volScalarField;
    location    "0.2";
    object      A2-2;
}
// * * * * * * * * * * * * * * * * * * * * * * * * * * * * * * * * * * * * * //

dimensions      [0 0 0 0 0 0 0];

internalField   nonuniform List<scalar> 
1000
(
8.03889e-10
6.48143e-08
6.16519e-08
6.04788e-08
6.0416e-08
6.03389e-08
6.0346e-08
6.03463e-08
6.03491e-08
6.03431e-08
6.03404e-08
6.03476e-08
6.03468e-08
6.03463e-08
6.03473e-08
6.03739e-08
6.05588e-08
6.20042e-08
7.13651e-08
6.35961e-10
5.86628e-10
5.68557e-08
4.79332e-08
4.57167e-08
4.558e-08
4.54622e-08
4.54756e-08
4.54697e-08
4.54726e-08
4.54695e-08
4.54649e-08
4.547e-08
4.54693e-08
4.54658e-08
4.54722e-08
4.55065e-08
4.58398e-08
4.87268e-08
7.61272e-08
5.65922e-10
1.79683e-09
2.94031e-08
2.28026e-08
2.09292e-08
2.08855e-08
2.07638e-08
2.07844e-08
2.07727e-08
2.07765e-08
2.07735e-08
2.07706e-08
2.07742e-08
2.07722e-08
2.0771e-08
2.07751e-08
2.08002e-08
2.10478e-08
2.32203e-08
4.80354e-08
2.73662e-10
2.83147e-08
1.54913e-08
1.10163e-08
9.63053e-09
9.63117e-09
9.5293e-09
9.5487e-09
9.53747e-09
9.54135e-09
9.53831e-09
9.53711e-09
9.53937e-09
9.53723e-09
9.53646e-09
9.53955e-09
9.55719e-09
9.72575e-09
1.12101e-08
3.08973e-08
1.28572e-10
3.90341e-08
9.30269e-09
5.99201e-09
4.94562e-09
4.95574e-09
4.87688e-09
4.89109e-09
4.88325e-09
4.88656e-09
4.88381e-09
4.88364e-09
4.88499e-09
4.88295e-09
4.88146e-09
4.88491e-09
4.89808e-09
5.01883e-09
6.08939e-09
2.20401e-08
7.07223e-11
2.99579e-08
6.33509e-09
3.5776e-09
2.85538e-09
2.86306e-09
2.80269e-09
2.81125e-09
2.80729e-09
2.80985e-09
2.80745e-09
2.80783e-09
2.80866e-09
2.80681e-09
2.80447e-09
2.80854e-09
2.81919e-09
2.91249e-09
3.7442e-09
1.71335e-08
4.65447e-11
2.51728e-08
4.70111e-09
2.39712e-09
1.81993e-09
1.82159e-09
1.77468e-09
1.77893e-09
1.77778e-09
1.7798e-09
1.77747e-09
1.77839e-09
1.77892e-09
1.77694e-09
1.77329e-09
1.77883e-09
1.78796e-09
1.86597e-09
2.55341e-09
1.40656e-08
3.56326e-11
2.47057e-08
3.80068e-09
1.72994e-09
1.25197e-09
1.24902e-09
1.21256e-09
1.21514e-09
1.21468e-09
1.21624e-09
1.21429e-09
1.21523e-09
1.21556e-09
1.2139e-09
1.21114e-09
1.21559e-09
1.22311e-09
1.29053e-09
1.88933e-09
1.19129e-08
3.16431e-11
2.66297e-08
3.29928e-09
1.30587e-09
9.03714e-10
9.09662e-10
8.82345e-10
8.8597e-10
8.83833e-10
8.85119e-10
8.83705e-10
8.84359e-10
8.84564e-10
8.83401e-10
8.8272e-10
8.84726e-10
8.89861e-10
9.32731e-10
1.45903e-09
1.02577e-08
3.41202e-11
2.92756e-08
2.963e-09
1.01643e-09
6.89468e-10
6.85594e-10
6.62168e-10
6.66805e-10
6.62905e-10
6.63996e-10
6.62898e-10
6.63485e-10
6.63617e-10
6.62435e-10
6.64303e-10
6.64123e-10
6.69394e-10
7.15437e-10
1.15706e-09
8.89866e-09
4.73348e-11
3.12291e-08
2.73369e-09
8.22321e-10
5.40558e-10
5.33019e-10
5.14969e-10
5.18557e-10
5.15211e-10
5.16104e-10
5.15197e-10
5.15768e-10
5.15842e-10
5.14528e-10
5.16504e-10
5.16476e-10
5.2115e-10
5.61799e-10
9.68485e-10
7.73563e-09
8.52229e-11
3.16729e-08
2.53984e-09
6.84341e-10
4.39179e-10
4.29281e-10
4.14755e-10
4.16592e-10
4.14669e-10
4.15461e-10
4.14679e-10
4.15236e-10
4.1528e-10
4.13619e-10
4.14202e-10
4.16009e-10
4.20356e-10
4.56946e-10
8.19439e-10
6.71464e-09
1.53227e-10
3.05051e-08
2.36478e-09
5.79732e-10
3.67078e-10
3.55829e-10
3.43812e-10
3.43533e-10
3.43471e-10
3.44221e-10
3.43607e-10
3.44067e-10
3.44105e-10
3.41884e-10
3.49468e-10
3.44957e-10
3.48998e-10
3.82042e-10
6.95818e-10
5.80806e-09
2.40271e-10
2.81158e-08
2.19597e-09
5.13878e-10
3.13877e-10
3.0185e-10
2.91748e-10
2.96078e-10
2.91158e-10
2.91899e-10
2.91463e-10
2.91792e-10
2.91843e-10
2.88636e-10
2.95563e-10
2.9273e-10
2.96557e-10
3.26517e-10
6.06646e-10
4.93436e-09
3.41921e-10
2.50673e-08
2.03708e-09
4.57616e-10
2.73253e-10
2.6086e-10
2.52193e-10
2.55498e-10
2.51378e-10
2.52184e-10
2.51893e-10
2.5211e-10
2.52202e-10
2.52857e-10
2.54605e-10
2.53064e-10
2.56722e-10
2.83939e-10
5.22685e-10
4.08652e-09
4.58797e-10
2.1858e-08
1.8795e-09
4.0781e-10
2.41272e-10
2.28838e-10
2.21275e-10
2.2357e-10
2.20215e-10
2.21171e-10
2.20974e-10
2.2112e-10
2.21247e-10
2.21525e-10
2.22762e-10
2.2208e-10
2.25587e-10
2.50339e-10
4.51767e-10
3.436e-09
5.82889e-10
1.88253e-08
1.7193e-09
3.65925e-10
2.15441e-10
2.03214e-10
1.96535e-10
1.98081e-10
1.9516e-10
1.96372e-10
1.96226e-10
1.96338e-10
1.96494e-10
1.96415e-10
1.9748e-10
1.97301e-10
2.00656e-10
2.23168e-10
3.91949e-10
2.85394e-09
6.99456e-10
1.6149e-08
1.56162e-09
3.29246e-10
1.94137e-10
1.82304e-10
1.76366e-10
1.77391e-10
1.74546e-10
1.76167e-10
1.76042e-10
1.76145e-10
1.7632e-10
1.75806e-10
1.77011e-10
1.77104e-10
1.80301e-10
2.0076e-10
3.41489e-10
2.34576e-09
7.9684e-10
1.38966e-08
1.41116e-09
3.03091e-10
1.76294e-10
1.64987e-10
1.59697e-10
1.60393e-10
1.59412e-10
1.59482e-10
1.59361e-10
1.59461e-10
1.59647e-10
1.58502e-10
1.60178e-10
1.60406e-10
1.6344e-10
1.82007e-10
2.99023e-10
1.91595e-09
8.6973e-10
1.17147e-08
1.26838e-09
2.78528e-10
1.6116e-10
1.50509e-10
1.45804e-10
1.46278e-10
1.45308e-10
1.45578e-10
1.45464e-10
1.45561e-10
1.45753e-10
1.45576e-10
1.46205e-10
1.46479e-10
1.49345e-10
1.66155e-10
2.63298e-10
1.52332e-09
9.17144e-10
1.0083e-08
1.13546e-09
2.54869e-10
1.49558e-10
1.3835e-10
1.34201e-10
1.34517e-10
1.33455e-10
1.33965e-10
1.33865e-10
1.33955e-10
1.34142e-10
1.34526e-10
1.34553e-10
1.34828e-10
1.37525e-10
1.52617e-10
2.33614e-10
1.20331e-09
9.39692e-10
8.7439e-09
1.01245e-09
2.34147e-10
1.39339e-10
1.28144e-10
1.24565e-10
1.2476e-10
1.24684e-10
1.2432e-10
1.2424e-10
1.24316e-10
1.24489e-10
1.24759e-10
1.24865e-10
1.25127e-10
1.27656e-10
1.41322e-10
2.09135e-10
9.57402e-10
9.37158e-10
7.50723e-09
8.9911e-10
2.16004e-10
1.314e-10
1.20833e-10
1.17589e-10
1.17736e-10
1.17668e-10
1.17361e-10
1.17299e-10
1.17336e-10
1.17517e-10
1.17752e-10
1.17859e-10
1.18107e-10
1.20477e-10
1.32845e-10
1.89269e-10
7.60048e-10
9.09799e-10
6.49619e-09
7.96273e-10
2.00183e-10
1.24811e-10
1.14695e-10
1.11834e-10
1.11909e-10
1.11868e-10
1.11602e-10
1.11565e-10
1.11685e-10
1.11753e-10
1.11976e-10
1.12058e-10
1.12286e-10
1.14512e-10
1.25909e-10
1.73416e-10
6.09868e-10
8.601e-10
5.65684e-09
7.03908e-10
1.86477e-10
1.2026e-10
1.10591e-10
1.08101e-10
1.08115e-10
1.08123e-10
1.07876e-10
1.07876e-10
1.07965e-10
1.08001e-10
1.08246e-10
1.08258e-10
1.08473e-10
1.1053e-10
1.20899e-10
1.62466e-10
4.9775e-10
7.93039e-10
4.79626e-09
6.21437e-10
1.76923e-10
1.17521e-10
1.08217e-10
1.06121e-10
1.06065e-10
1.06146e-10
1.05901e-10
1.05948e-10
1.06038e-10
1.05979e-10
1.06271e-10
1.06182e-10
1.0639e-10
1.08253e-10
1.17679e-10
1.54043e-10
4.15234e-10
7.17049e-10
3.97596e-09
5.49089e-10
1.69694e-10
1.16757e-10
1.07749e-10
1.0607e-10
1.05938e-10
1.06118e-10
1.05858e-10
1.05962e-10
1.06065e-10
1.05867e-10
1.06241e-10
1.06009e-10
1.06217e-10
1.07898e-10
1.16365e-10
1.49091e-10
3.55897e-10
6.41816e-10
3.30435e-09
4.87241e-10
1.65021e-10
1.18204e-10
1.09437e-10
1.082e-10
1.07983e-10
1.08291e-10
1.07997e-10
1.08171e-10
1.08296e-10
1.07916e-10
1.08413e-10
1.07988e-10
1.08204e-10
1.0971e-10
1.17193e-10
1.47109e-10
3.09701e-10
5.74368e-10
2.79746e-09
4.35211e-10
1.6308e-10
1.22118e-10
1.13545e-10
1.12776e-10
1.12467e-10
1.12935e-10
1.12583e-10
1.12843e-10
1.12998e-10
1.12395e-10
1.13055e-10
1.12384e-10
1.12622e-10
1.13956e-10
1.20433e-10
1.48172e-10
2.778e-10
5.18984e-10
2.29857e-09
3.93744e-10
1.64011e-10
1.28645e-10
1.20264e-10
1.19958e-10
1.19559e-10
1.20202e-10
1.19767e-10
1.20131e-10
1.20321e-10
1.19475e-10
1.20323e-10
1.1937e-10
1.19647e-10
1.20816e-10
1.26299e-10
1.52288e-10
2.60238e-10
4.77147e-10
1.8065e-09
3.59563e-10
1.67715e-10
1.37622e-10
1.29511e-10
1.29596e-10
1.29121e-10
1.29924e-10
1.29383e-10
1.29866e-10
1.3009e-10
1.2902e-10
1.30045e-10
1.28822e-10
1.29156e-10
1.30178e-10
1.34759e-10
1.59193e-10
2.50962e-10
4.47815e-10
1.45605e-09
3.31655e-10
1.73657e-10
1.4833e-10
1.40674e-10
1.40976e-10
1.40461e-10
1.41353e-10
1.40706e-10
1.41296e-10
1.4154e-10
1.40329e-10
1.41467e-10
1.40076e-10
1.40476e-10
1.41389e-10
1.45283e-10
1.68131e-10
2.47743e-10
4.28268e-10
1.15607e-09
3.07837e-10
1.80663e-10
1.59278e-10
1.52774e-10
1.52843e-10
1.52353e-10
1.52951e-10
1.52545e-10
1.52887e-10
1.53121e-10
1.51931e-10
1.53047e-10
1.51965e-10
1.5241e-10
1.53419e-10
1.5659e-10
1.78384e-10
2.48075e-10
4.14529e-10
9.13018e-10
2.8488e-10
1.87462e-10
1.68205e-10
1.62638e-10
1.62375e-10
1.61982e-10
1.62431e-10
1.62046e-10
1.62361e-10
1.62542e-10
1.61596e-10
1.62501e-10
1.6165e-10
1.621e-10
1.6312e-10
1.66529e-10
1.8627e-10
2.48902e-10
4.01786e-10
7.16206e-10
2.6184e-10
1.9002e-10
1.72539e-10
1.68146e-10
1.67282e-10
1.67059e-10
1.67209e-10
1.66967e-10
1.67135e-10
1.67217e-10
1.66743e-10
1.6724e-10
1.6688e-10
1.67271e-10
1.68377e-10
1.7247e-10
1.89187e-10
2.46815e-10
3.85058e-10
5.57682e-10
2.36265e-10
1.86767e-10
1.70137e-10
1.67036e-10
1.65424e-10
1.65421e-10
1.65169e-10
1.6515e-10
1.65099e-10
1.65052e-10
1.65207e-10
1.65158e-10
1.65463e-10
1.65737e-10
1.66963e-10
1.7199e-10
1.85281e-10
2.38682e-10
3.6022e-10
4.29962e-10
2.0747e-10
1.76254e-10
1.60102e-10
1.58224e-10
1.55919e-10
1.56141e-10
1.55484e-10
1.55703e-10
1.55427e-10
1.55243e-10
1.5605e-10
1.5543e-10
1.56416e-10
1.56544e-10
1.57866e-10
1.63755e-10
1.73511e-10
2.22561e-10
3.25396e-10
3.27162e-10
1.76009e-10
1.58702e-10
1.4316e-10
1.42331e-10
1.39536e-10
1.39952e-10
1.38974e-10
1.39395e-10
1.38938e-10
1.38648e-10
1.39985e-10
1.38892e-10
1.40415e-10
1.404e-10
1.41751e-10
1.48117e-10
1.54588e-10
1.98461e-10
2.81494e-10
2.44764e-10
1.43556e-10
1.35915e-10
1.2146e-10
1.21439e-10
1.18434e-10
1.18982e-10
1.17827e-10
1.18378e-10
1.17814e-10
1.17466e-10
1.19112e-10
1.17735e-10
1.19543e-10
1.19425e-10
1.2071e-10
1.27014e-10
1.30759e-10
1.68385e-10
2.31952e-10
1.78841e-10
1.12287e-10
1.10489e-10
9.78195e-11
9.82847e-11
9.53782e-11
9.59708e-11
9.47977e-11
9.53941e-11
9.48056e-11
9.44437e-11
9.61613e-11
9.4707e-11
9.65352e-11
9.63691e-11
9.7502e-11
1.03247e-10
1.04976e-10
1.356e-10
1.81516e-10
1.26936e-10
8.40183e-11
8.51789e-11
7.47886e-11
7.54825e-11
7.2872e-11
7.34348e-11
7.23678e-11
7.29373e-11
7.23899e-11
7.2053e-11
7.36538e-11
7.22866e-11
7.39363e-11
7.37651e-11
7.46905e-11
7.95563e-11
7.99645e-11
1.03532e-10
1.34697e-10
8.69111e-11
5.96533e-11
6.20974e-11
5.38467e-11
5.4529e-11
5.26736e-11
5.31589e-11
5.22707e-11
5.2765e-11
5.22998e-11
5.20113e-11
5.33774e-11
5.22025e-11
5.35573e-11
5.34117e-11
5.40446e-11
5.77996e-11
5.76378e-11
7.47537e-11
9.45168e-11
5.68156e-11
4.00604e-11
4.25071e-11
3.65304e-11
3.71393e-11
3.57324e-11
3.61168e-11
3.54343e-11
3.58286e-11
3.54638e-11
3.5235e-11
3.63122e-11
3.538e-11
3.64033e-11
3.62953e-11
3.67142e-11
3.94916e-11
3.90147e-11
5.07007e-11
6.23004e-11
3.48443e-11
2.49428e-11
2.69034e-11
2.28804e-11
2.33543e-11
2.23735e-11
2.26532e-11
2.2171e-11
2.24593e-11
2.21965e-11
2.20293e-11
2.28103e-11
2.21305e-11
2.28421e-11
2.27688e-11
2.30332e-11
2.49252e-11
2.44018e-11
3.18325e-11
3.80292e-11
1.94471e-11
1.39602e-11
1.5295e-11
1.28346e-11
1.31572e-11
1.25431e-11
1.27266e-11
1.24201e-11
1.26092e-11
1.24391e-11
1.23292e-11
1.28381e-11
1.23928e-11
1.28399e-11
1.27938e-11
1.29469e-11
1.41093e-11
1.36856e-11
1.7989e-11
2.0912e-11
9.38398e-12
6.67984e-12
7.43756e-12
6.13848e-12
6.32387e-12
5.99533e-12
6.09853e-12
5.93211e-12
6.03768e-12
5.94379e-12
5.88238e-12
6.1648e-12
5.91636e-12
6.15732e-12
6.13176e-12
6.20718e-12
6.82052e-12
6.55215e-12
8.7146e-12
9.86987e-12
3.65141e-12
2.57035e-12
2.90289e-12
2.35922e-12
2.44229e-12
2.30372e-12
2.34939e-12
2.2783e-12
2.32448e-12
2.28389e-12
2.25693e-12
2.37983e-12
2.2712e-12
2.37355e-12
2.3624e-12
2.39132e-12
2.64725e-12
2.52097e-12
3.38917e-12
3.74667e-12
1.04755e-12
7.26858e-13
8.29414e-13
6.6386e-13
6.90277e-13
6.47841e-13
6.6241e-13
6.40424e-13
6.54988e-13
6.42288e-13
6.33666e-13
6.72475e-13
6.38044e-13
6.69637e-13
6.66128e-13
6.74173e-13
7.51902e-13
7.11143e-13
9.67823e-13
1.05202e-12
1.91266e-13
1.3285e-13
1.51707e-13
1.21249e-13
1.26314e-13
1.18446e-13
1.21232e-13
1.17149e-13
1.19887e-13
1.17514e-13
1.15886e-13
1.23146e-13
1.16694e-13
1.22502e-13
1.21867e-13
1.23223e-13
1.37403e-13
1.29847e-13
1.76132e-13
1.89788e-13
4.14308e-14
3.08173e-14
3.39447e-14
2.82539e-14
2.90748e-14
2.76044e-14
2.81203e-14
2.7322e-14
2.78607e-14
2.73926e-14
2.70336e-14
2.85548e-14
2.7207e-14
2.84163e-14
2.82692e-14
2.85732e-14
3.13718e-14
2.99749e-14
3.90344e-14
4.1998e-14
)
;

boundaryField
{
    fuel
    {
        type            fixedValue;
        value           uniform 0;
    }
    wall
    {
        type            zeroGradient;
    }
    outlet
    {
        type            zeroGradient;
    }
    frontAndBack
    {
        type            empty;
    }
}


// ************************************************************************* //
