/*--------------------------------*- C++ -*----------------------------------*\
| =========                 |                                                 |
| \\      /  F ield         | OpenFOAM: The Open Source CFD Toolbox           |
|  \\    /   O peration     | Version:  dev                                   |
|   \\  /    A nd           | Web:      www.OpenFOAM.org                      |
|    \\/     M anipulation  |                                                 |
\*---------------------------------------------------------------------------*/
FoamFile
{
    version     2.0;
    format      ascii;
    class       volScalarField;
    location    "0.2";
    object      A2C2HA;
}
// * * * * * * * * * * * * * * * * * * * * * * * * * * * * * * * * * * * * * //

dimensions      [0 0 0 0 0 0 0];

internalField   nonuniform List<scalar> 
1000
(
1.66679e-09
4.45527e-08
4.04076e-08
3.9313e-08
3.92206e-08
3.91635e-08
3.91676e-08
3.91689e-08
3.91711e-08
3.91675e-08
3.91652e-08
3.91694e-08
3.91692e-08
3.91667e-08
3.91694e-08
3.91917e-08
3.93758e-08
4.08907e-08
5.25133e-08
1.11928e-09
3.59063e-09
3.48094e-08
2.78558e-08
2.62846e-08
2.61575e-08
2.60825e-08
2.60888e-08
2.60872e-08
2.60892e-08
2.60872e-08
2.60846e-08
2.60873e-08
2.6087e-08
2.6083e-08
2.60892e-08
2.61151e-08
2.63669e-08
2.85519e-08
5.07088e-08
2.17242e-09
6.19553e-09
2.21847e-08
1.62763e-08
1.47872e-08
1.47009e-08
1.46194e-08
1.46285e-08
1.46243e-08
1.46267e-08
1.46248e-08
1.46231e-08
1.46252e-08
1.46238e-08
1.46208e-08
1.46268e-08
1.46502e-08
1.48728e-08
1.6825e-08
3.98877e-08
2.71259e-09
1.65013e-08
1.54139e-08
1.04593e-08
9.09807e-09
9.03943e-09
8.95795e-09
8.96709e-09
8.96279e-09
8.96547e-09
8.96311e-09
8.96246e-09
8.96414e-09
8.96204e-09
8.95896e-09
8.9652e-09
8.98667e-09
9.18179e-09
1.09073e-08
3.39287e-08
3.04427e-09
1.87339e-08
1.18219e-08
7.38529e-09
6.12426e-09
6.08064e-09
6.00234e-09
6.00936e-09
6.00676e-09
6.00959e-09
6.00679e-09
6.00701e-09
6.00835e-09
6.00573e-09
6.0016e-09
6.009e-09
6.0292e-09
6.20446e-09
7.77046e-09
3.0914e-08
3.25878e-09
1.64842e-08
9.75304e-09
5.47286e-09
4.39313e-09
4.3567e-09
4.28326e-09
4.28679e-09
4.28705e-09
4.2898e-09
4.28668e-09
4.28762e-09
4.28867e-09
4.2857e-09
4.28019e-09
4.28909e-09
4.30841e-09
4.46914e-09
5.91361e-09
2.91823e-08
3.40308e-09
1.71125e-08
8.39613e-09
4.28532e-09
3.29993e-09
3.26474e-09
3.19722e-09
3.19756e-09
3.20015e-09
3.20283e-09
3.19923e-09
3.20102e-09
3.20182e-09
3.19833e-09
3.19104e-09
3.20218e-09
3.22066e-09
3.37142e-09
4.7123e-09
2.78799e-08
3.53173e-09
2.06399e-08
7.52645e-09
3.46893e-09
2.56832e-09
2.53354e-09
2.47378e-09
2.47381e-09
2.476e-09
2.47845e-09
2.47499e-09
2.47698e-09
2.47756e-09
2.47423e-09
2.46846e-09
2.47804e-09
2.49469e-09
2.63533e-09
3.88871e-09
2.65758e-08
3.68438e-09
2.69927e-08
6.97511e-09
2.86458e-09
2.04438e-09
2.0294e-09
1.97969e-09
1.98326e-09
1.98136e-09
1.98367e-09
1.98083e-09
1.98246e-09
1.98286e-09
1.98017e-09
1.97837e-09
1.98357e-09
1.9965e-09
2.10017e-09
3.25436e-09
2.50633e-08
3.84239e-09
3.57008e-08
6.55062e-09
2.39761e-09
1.6834e-09
1.65558e-09
1.60931e-09
1.61592e-09
1.60998e-09
1.61217e-09
1.60968e-09
1.61129e-09
1.61158e-09
1.60866e-09
1.61185e-09
1.61293e-09
1.62622e-09
1.73623e-09
2.74207e-09
2.32714e-08
3.95297e-09
4.53501e-08
6.21802e-09
2.05217e-09
1.40766e-09
1.37555e-09
1.337e-09
1.3424e-09
1.3369e-09
1.33888e-09
1.33666e-09
1.33826e-09
1.33846e-09
1.33509e-09
1.33887e-09
1.34011e-09
1.35241e-09
1.45319e-09
2.38824e-09
2.12194e-08
3.99415e-09
5.39565e-08
5.89257e-09
1.78644e-09
1.20483e-09
1.16958e-09
1.13653e-09
1.13898e-09
1.13584e-09
1.13773e-09
1.1358e-09
1.13729e-09
1.13744e-09
1.13317e-09
1.13455e-09
1.13936e-09
1.15108e-09
1.24431e-09
2.08612e-09
1.89785e-08
4.02474e-09
5.98438e-08
5.56037e-09
1.57135e-09
1.05067e-09
1.01355e-09
9.847e-10
9.83113e-10
9.8348e-10
9.85378e-10
9.83841e-10
9.85056e-10
9.85206e-10
9.79512e-10
9.96698e-10
9.87456e-10
9.98584e-10
1.08483e-09
1.82022e-09
1.66541e-08
4.10104e-09
6.22548e-08
5.21077e-09
1.42902e-09
9.30002e-10
8.91776e-10
8.66356e-10
8.75911e-10
8.64538e-10
8.66511e-10
8.65387e-10
8.66268e-10
8.66468e-10
8.58352e-10
8.74737e-10
8.68853e-10
8.79573e-10
9.59456e-10
1.62059e-09
1.41701e-08
4.22064e-09
6.13979e-08
4.86281e-09
1.30172e-09
8.32767e-10
7.94116e-10
7.71379e-10
7.79008e-10
7.68963e-10
7.71196e-10
7.70406e-10
7.71006e-10
7.71326e-10
7.72598e-10
7.76859e-10
7.73708e-10
7.84105e-10
8.58104e-10
1.42642e-09
1.16157e-08
4.36287e-09
5.80938e-08
4.50487e-09
1.18401e-09
7.52342e-10
7.13894e-10
6.93311e-10
6.98792e-10
6.90196e-10
6.92915e-10
6.92338e-10
6.92761e-10
6.93193e-10
6.93586e-10
6.96829e-10
6.95558e-10
7.05654e-10
7.74189e-10
1.25801e-09
9.61031e-09
4.5014e-09
5.33427e-08
4.13228e-09
1.0811e-09
6.84333e-10
6.46625e-10
6.27848e-10
6.31667e-10
6.238e-10
6.27313e-10
6.26844e-10
6.27183e-10
6.27713e-10
6.27175e-10
6.30208e-10
6.30066e-10
6.39846e-10
7.03277e-10
1.11295e-09
7.82319e-09
4.59669e-09
4.80242e-08
3.76037e-09
9.8776e-10
6.25761e-10
5.89251e-10
5.72058e-10
5.74689e-10
5.66662e-10
5.71433e-10
5.71001e-10
5.71309e-10
5.7192e-10
5.70139e-10
5.7378e-10
5.74265e-10
5.83703e-10
6.42346e-10
9.88223e-10
6.29653e-09
4.61307e-09
4.27764e-08
3.40306e-09
9.19343e-10
5.74592e-10
5.39653e-10
5.23909e-10
5.25783e-10
5.22932e-10
5.23241e-10
5.22797e-10
5.23095e-10
5.23767e-10
5.20083e-10
5.25293e-10
5.26098e-10
5.35168e-10
5.89302e-10
8.81205e-10
5.04597e-09
4.52658e-09
3.7023e-08
3.06369e-09
8.53249e-10
5.29291e-10
4.96344e-10
4.81973e-10
4.83324e-10
4.80318e-10
4.81267e-10
4.80823e-10
4.81107e-10
4.81835e-10
4.81064e-10
4.8322e-10
4.84121e-10
4.928e-10
5.42652e-10
7.89352e-10
3.94912e-09
4.3294e-09
3.23313e-08
2.74865e-09
7.8762e-10
4.93005e-10
4.58245e-10
4.45238e-10
4.46206e-10
4.42724e-10
4.44494e-10
4.44069e-10
4.44326e-10
4.4509e-10
4.46126e-10
4.46419e-10
4.47306e-10
4.55581e-10
5.01098e-10
7.11044e-10
3.09199e-09
4.03579e-09
2.82222e-08
2.45893e-09
7.28286e-10
4.59344e-10
4.24483e-10
4.12974e-10
4.1363e-10
4.1335e-10
4.12185e-10
4.11795e-10
4.11991e-10
4.12784e-10
4.13446e-10
4.14064e-10
4.14901e-10
4.22768e-10
4.64719e-10
6.44477e-10
2.45869e-09
3.67113e-09
2.42506e-08
2.19451e-09
6.74464e-10
4.3149e-10
3.98679e-10
3.87941e-10
3.88516e-10
3.88153e-10
3.87203e-10
3.86837e-10
3.86866e-10
3.87796e-10
3.88305e-10
3.89016e-10
3.89805e-10
3.9727e-10
4.35833e-10
5.8828e-10
1.96746e-09
3.27033e-09
2.09015e-08
1.95694e-09
6.25475e-10
4.06151e-10
3.7482e-10
3.65007e-10
3.65403e-10
3.6501e-10
3.64231e-10
3.63901e-10
3.64256e-10
3.64871e-10
3.65251e-10
3.66025e-10
3.6675e-10
3.73881e-10
4.10213e-10
5.40984e-10
1.60286e-09
2.86818e-09
1.80703e-08
1.74573e-09
5.80551e-10
3.85947e-10
3.56238e-10
3.47322e-10
3.47583e-10
3.47225e-10
3.46558e-10
3.46296e-10
3.46505e-10
3.4718e-10
3.47519e-10
3.48226e-10
3.48908e-10
3.556e-10
3.89288e-10
5.05962e-10
1.33466e-09
2.4935e-09
1.51625e-08
1.55916e-09
5.47019e-10
3.69725e-10
3.41449e-10
3.33466e-10
3.33575e-10
3.33307e-10
3.32708e-10
3.32537e-10
3.32711e-10
3.3327e-10
3.33612e-10
3.34197e-10
3.34849e-10
3.41022e-10
3.72333e-10
4.75682e-10
1.13766e-09
2.16549e-09
1.24168e-08
1.39691e-09
5.18533e-10
3.57751e-10
3.30705e-10
3.23701e-10
3.23639e-10
3.23521e-10
3.22949e-10
3.2289e-10
3.23064e-10
3.23396e-10
3.2381e-10
3.24196e-10
3.24831e-10
3.30534e-10
3.59436e-10
4.53791e-10
9.94521e-10
1.89363e-09
1.01881e-08
1.25917e-09
4.95636e-10
3.50512e-10
3.24456e-10
3.185e-10
3.18246e-10
3.1835e-10
3.17758e-10
3.17841e-10
3.18029e-10
3.18031e-10
3.18615e-10
3.18687e-10
3.19323e-10
3.2459e-10
3.51022e-10
4.3839e-10
8.79852e-10
1.67894e-09
8.55647e-09
1.1448e-09
4.79001e-10
3.48726e-10
3.23388e-10
3.18579e-10
3.18104e-10
3.18519e-10
3.17851e-10
3.18115e-10
3.18338e-10
3.17893e-10
3.18763e-10
3.18373e-10
3.19033e-10
3.23887e-10
3.47754e-10
4.29839e-10
7.96599e-10
1.51773e-09
7.01258e-09
1.05632e-09
4.69487e-10
3.53328e-10
3.28426e-10
3.24878e-10
3.2415e-10
3.24978e-10
3.24158e-10
3.24663e-10
3.24947e-10
3.23926e-10
3.25213e-10
3.24179e-10
3.24898e-10
3.2935e-10
3.50536e-10
4.28784e-10
7.47532e-10
1.40378e-09
5.55425e-09
9.87459e-10
4.68029e-10
3.65369e-10
3.40637e-10
3.38456e-10
3.37443e-10
3.38792e-10
3.37714e-10
3.38549e-10
3.38926e-10
3.37198e-10
3.39031e-10
3.37164e-10
3.37987e-10
3.42037e-10
3.60443e-10
4.35986e-10
7.18877e-10
1.32976e-09
4.55675e-09
9.37742e-10
4.75465e-10
3.85761e-10
3.61015e-10
3.60241e-10
3.58918e-10
3.60875e-10
3.59405e-10
3.60685e-10
3.61182e-10
3.58644e-10
3.61125e-10
3.5827e-10
3.59255e-10
3.62874e-10
3.78528e-10
4.52123e-10
7.07915e-10
1.28872e-09
3.7385e-09
9.04839e-10
4.9218e-10
4.14858e-10
3.91161e-10
3.91277e-10
3.89654e-10
3.91559e-10
3.90374e-10
3.91398e-10
3.92025e-10
3.88647e-10
3.91815e-10
3.88664e-10
3.89844e-10
3.93352e-10
4.05437e-10
4.79487e-10
7.12566e-10
1.27403e-09
3.10114e-09
8.85191e-10
5.20365e-10
4.51857e-10
4.2844e-10
4.29564e-10
4.27679e-10
4.30037e-10
4.28501e-10
4.29891e-10
4.30638e-10
4.26514e-10
4.30297e-10
4.26322e-10
4.27717e-10
4.30829e-10
4.40696e-10
5.14898e-10
7.30329e-10
1.27873e-09
2.60345e-09
8.7595e-10
5.53614e-10
4.94448e-10
4.71649e-10
4.73387e-10
4.71329e-10
4.73974e-10
4.72201e-10
4.73829e-10
4.74653e-10
4.70031e-10
4.7422e-10
4.69697e-10
4.71271e-10
4.74079e-10
4.82396e-10
5.54979e-10
7.57617e-10
1.29493e-09
2.21544e-09
8.71611e-10
5.90504e-10
5.38719e-10
5.17046e-10
5.18851e-10
5.16753e-10
5.19424e-10
5.17584e-10
5.19273e-10
5.20101e-10
5.15369e-10
5.19635e-10
5.14998e-10
5.16672e-10
5.19314e-10
5.2693e-10
5.96845e-10
7.89421e-10
1.31363e-09
1.91065e-09
8.66907e-10
6.2618e-10
5.79622e-10
5.59652e-10
5.60929e-10
5.58956e-10
5.61351e-10
5.59624e-10
5.61196e-10
5.6194e-10
5.57556e-10
5.61505e-10
5.57254e-10
5.58921e-10
5.61534e-10
5.69344e-10
6.352e-10
8.19468e-10
1.3251e-09
1.667e-09
8.56954e-10
6.55276e-10
6.12001e-10
5.94254e-10
5.94503e-10
5.92817e-10
5.94666e-10
5.93215e-10
5.94518e-10
5.95098e-10
5.91485e-10
5.94748e-10
5.91322e-10
5.92876e-10
5.95559e-10
6.0427e-10
6.64627e-10
8.41169e-10
1.32073e-09
1.46667e-09
8.38221e-10
6.7316e-10
6.31846e-10
6.16668e-10
6.15609e-10
6.14332e-10
6.15469e-10
6.14406e-10
6.15343e-10
6.15707e-10
6.13145e-10
6.15474e-10
6.13139e-10
6.145e-10
6.17282e-10
6.27224e-10
6.80917e-10
8.49042e-10
1.29459e-09
1.29665e-09
8.09265e-10
6.77091e-10
6.373e-10
6.2479e-10
6.2243e-10
6.21607e-10
6.22007e-10
6.2137e-10
6.21918e-10
6.22057e-10
6.2062e-10
6.2194e-10
6.20731e-10
6.21865e-10
6.24695e-10
6.35749e-10
6.82133e-10
8.40069e-10
1.24483e-09
1.14845e-09
7.70925e-10
6.66914e-10
6.29035e-10
6.19056e-10
6.15653e-10
6.1525e-10
6.15022e-10
6.14776e-10
6.14981e-10
6.14925e-10
6.14483e-10
6.149e-10
6.14639e-10
6.15556e-10
6.1831e-10
6.29982e-10
6.69027e-10
8.14392e-10
1.17383e-09
1.01748e-09
7.25528e-10
6.44998e-10
6.09639e-10
6.01836e-10
5.98167e-10
5.98089e-10
5.97432e-10
5.9748e-10
5.9744e-10
5.97247e-10
5.97525e-10
5.97274e-10
5.97652e-10
5.9839e-10
6.00844e-10
6.1236e-10
6.44714e-10
7.75119e-10
1.08739e-09
9.02204e-10
6.78049e-10
6.15578e-10
5.84091e-10
5.78034e-10
5.74272e-10
5.7439e-10
5.73537e-10
5.73752e-10
5.73588e-10
5.73329e-10
5.73985e-10
5.73362e-10
5.74046e-10
5.74646e-10
5.76754e-10
5.87492e-10
6.13833e-10
7.27417e-10
9.93159e-10
8.02935e-10
6.32466e-10
5.83676e-10
5.56913e-10
5.52129e-10
5.48696e-10
5.4888e-10
5.4804e-10
5.483e-10
5.48125e-10
5.47863e-10
5.4858e-10
5.47869e-10
5.48579e-10
5.49074e-10
5.50813e-10
5.60171e-10
5.81469e-10
6.77277e-10
8.9901e-10
7.20745e-10
5.92677e-10
5.54047e-10
5.32388e-10
5.28479e-10
5.2565e-10
5.25798e-10
5.25117e-10
5.25327e-10
5.25224e-10
5.25005e-10
5.25552e-10
5.24963e-10
5.25518e-10
5.2593e-10
5.27311e-10
5.34955e-10
5.52154e-10
6.30299e-10
8.11734e-10
6.56385e-10
5.61319e-10
5.30242e-10
5.13494e-10
5.10178e-10
5.08046e-10
5.08104e-10
5.07645e-10
5.07756e-10
5.07763e-10
5.07605e-10
5.07882e-10
5.07512e-10
5.07842e-10
5.08188e-10
5.09259e-10
5.15158e-10
5.29052e-10
5.907e-10
7.36169e-10
6.09395e-10
5.39232e-10
5.13912e-10
5.01361e-10
4.98482e-10
4.96977e-10
4.96939e-10
4.96685e-10
4.967e-10
4.9681e-10
4.96703e-10
4.96736e-10
4.96569e-10
4.96708e-10
4.96995e-10
4.97832e-10
5.02214e-10
5.13413e-10
5.6061e-10
6.7473e-10
5.77725e-10
5.2547e-10
5.04663e-10
4.95291e-10
4.92783e-10
4.91736e-10
4.91632e-10
4.91518e-10
4.91472e-10
4.91649e-10
4.91568e-10
4.9146e-10
4.91411e-10
4.91451e-10
4.91678e-10
4.92363e-10
4.95604e-10
5.04585e-10
5.39953e-10
6.27623e-10
5.58179e-10
5.17836e-10
5.00499e-10
4.93225e-10
4.91046e-10
4.9027e-10
4.90142e-10
4.90091e-10
4.90027e-10
4.90229e-10
4.90148e-10
4.90015e-10
4.89982e-10
4.9002e-10
4.90186e-10
4.90788e-10
4.93295e-10
5.0052e-10
5.27047e-10
5.93879e-10
5.47591e-10
5.13928e-10
4.988e-10
4.92692e-10
4.9075e-10
4.90105e-10
4.89977e-10
4.89946e-10
4.89885e-10
4.90089e-10
4.9e-10
4.89886e-10
4.89832e-10
4.89898e-10
4.90021e-10
4.90582e-10
4.92686e-10
4.98778e-10
5.19816e-10
5.73213e-10
)
;

boundaryField
{
    fuel
    {
        type            fixedValue;
        value           uniform 0;
    }
    wall
    {
        type            zeroGradient;
    }
    outlet
    {
        type            zeroGradient;
    }
    frontAndBack
    {
        type            empty;
    }
}


// ************************************************************************* //
