/*--------------------------------*- C++ -*----------------------------------*\
| =========                 |                                                 |
| \\      /  F ield         | OpenFOAM: The Open Source CFD Toolbox           |
|  \\    /   O peration     | Version:  dev                                   |
|   \\  /    A nd           | Web:      www.OpenFOAM.org                      |
|    \\/     M anipulation  |                                                 |
\*---------------------------------------------------------------------------*/
FoamFile
{
    version     2.0;
    format      ascii;
    class       volScalarField;
    location    "0.2";
    object      A2C2HA;
}
// * * * * * * * * * * * * * * * * * * * * * * * * * * * * * * * * * * * * * //

dimensions      [0 0 0 0 0 0 0];

internalField   nonuniform List<scalar> 
1000
(
1.15672e-09
5.09595e-08
4.0062e-08
3.85515e-08
3.83565e-08
3.83371e-08
3.83313e-08
3.83314e-08
3.83362e-08
3.83343e-08
3.83352e-08
3.83359e-08
3.83379e-08
3.8336e-08
3.83372e-08
3.83797e-08
3.84907e-08
3.95566e-08
4.43212e-08
1.55108e-09
2.2786e-09
4.67162e-08
2.78978e-08
2.58427e-08
2.55888e-08
2.5564e-08
2.5556e-08
2.55569e-08
2.55609e-08
2.5559e-08
2.55607e-08
2.55612e-08
2.55617e-08
2.55636e-08
2.55584e-08
2.56223e-08
2.57617e-08
2.72127e-08
3.46146e-08
3.29934e-09
2.85711e-09
3.53852e-08
1.63736e-08
1.4554e-08
1.43308e-08
1.43086e-08
1.43016e-08
1.43016e-08
1.43056e-08
1.43033e-08
1.43057e-08
1.43067e-08
1.43058e-08
1.43101e-08
1.43016e-08
1.43713e-08
1.44714e-08
1.58226e-08
2.21607e-08
4.76778e-09
3.19531e-09
2.9177e-08
1.05696e-08
8.96496e-09
8.76975e-09
8.74967e-09
8.74276e-09
8.74279e-09
8.74673e-09
8.74422e-09
8.74709e-09
8.74867e-09
8.74719e-09
8.75081e-09
8.74353e-09
8.81201e-09
8.88447e-09
1.01151e-08
1.54155e-08
9.13362e-09
3.44317e-09
2.60046e-08
7.50589e-09
6.0461e-09
5.87125e-09
5.85266e-09
5.84432e-09
5.84578e-09
5.84954e-09
5.84702e-09
5.8502e-09
5.85211e-09
5.85045e-09
5.8514e-09
5.84787e-09
5.91242e-09
5.96937e-09
7.11171e-09
1.1831e-08
2.55851e-08
3.66084e-09
2.42597e-08
5.70863e-09
4.35101e-09
4.19187e-09
4.17433e-09
4.16274e-09
4.1675e-09
4.17087e-09
4.1685e-09
4.17181e-09
4.17383e-09
4.17213e-09
4.16901e-09
4.17077e-09
4.2304e-09
4.27896e-09
5.26456e-09
9.78245e-09
2.83613e-08
3.87768e-09
2.3135e-08
4.56544e-09
3.28459e-09
3.13717e-09
3.12006e-09
3.10358e-09
3.11272e-09
3.11572e-09
3.11314e-09
3.117e-09
3.119e-09
3.11727e-09
3.10804e-09
3.11741e-09
3.1729e-09
3.21755e-09
4.12361e-09
8.43823e-09
2.92728e-08
4.09957e-09
2.22071e-08
3.71709e-09
2.5817e-09
2.43539e-09
2.41813e-09
2.40002e-09
2.41025e-09
2.4126e-09
2.41006e-09
2.41401e-09
2.4159e-09
2.41412e-09
2.40378e-09
2.41604e-09
2.46978e-09
2.51877e-09
3.30491e-09
7.58052e-09
3.41101e-08
4.29625e-09
2.12438e-08
3.16306e-09
2.03249e-09
1.92824e-09
1.91872e-09
1.91873e-09
1.91486e-09
1.91654e-09
1.91401e-09
1.91795e-09
1.91966e-09
1.91784e-09
1.92175e-09
1.91687e-09
1.95003e-09
1.9798e-09
2.75174e-09
7.03404e-09
4.18603e-08
4.40751e-09
2.01233e-08
2.70445e-09
1.69175e-09
1.58584e-09
1.57401e-09
1.57795e-09
1.56978e-09
1.57039e-09
1.5675e-09
1.57213e-09
1.57378e-09
1.57118e-09
1.58031e-09
1.5722e-09
1.60822e-09
1.64296e-09
2.31223e-09
6.59545e-09
5.02863e-08
4.40152e-09
1.88007e-08
2.33689e-09
1.42359e-09
1.32072e-09
1.30952e-09
1.30969e-09
1.30553e-09
1.30576e-09
1.30365e-09
1.30704e-09
1.30837e-09
1.30539e-09
1.30795e-09
1.30804e-09
1.33879e-09
1.37928e-09
1.98537e-09
6.2442e-09
5.7261e-08
4.3558e-09
1.72865e-08
2.0746e-09
1.22128e-09
1.12587e-09
1.11514e-09
1.11558e-09
1.11166e-09
1.11176e-09
1.11094e-09
1.1124e-09
1.11346e-09
1.10969e-09
1.1292e-09
1.11381e-09
1.14052e-09
1.18256e-09
1.73258e-09
5.89473e-09
6.14111e-08
4.39176e-09
1.56288e-08
1.83538e-09
1.06666e-09
9.78008e-10
9.67717e-10
9.79085e-10
9.64697e-10
9.65022e-10
9.6551e-10
9.64876e-10
9.65713e-10
9.60508e-10
9.77519e-10
9.66296e-10
9.89888e-10
1.0328e-09
1.52831e-09
5.53909e-09
6.23548e-08
4.54954e-09
1.39011e-08
1.64753e-09
9.45277e-10
8.62612e-10
8.52602e-10
8.58159e-10
8.49845e-10
8.50723e-10
8.51968e-10
8.49782e-10
8.50468e-10
8.42877e-10
8.57485e-10
8.51108e-10
8.72307e-10
9.15729e-10
1.39037e-09
5.17218e-09
6.05109e-08
4.79088e-09
1.20024e-08
1.47516e-09
8.47242e-10
7.70213e-10
7.60454e-10
7.62591e-10
7.57619e-10
7.59257e-10
7.60574e-10
7.57643e-10
7.58274e-10
7.59731e-10
7.62509e-10
7.58879e-10
7.78186e-10
8.21566e-10
1.27165e-09
4.82164e-09
5.67516e-08
5.05661e-09
1.00084e-08
1.31252e-09
7.65993e-10
6.9447e-10
6.84992e-10
6.85344e-10
6.81689e-10
6.84242e-10
6.85195e-10
6.82151e-10
6.82749e-10
6.83397e-10
6.85364e-10
6.83329e-10
7.01063e-10
7.43785e-10
1.15924e-09
4.46875e-09
5.19612e-08
5.28973e-09
8.41901e-09
1.17012e-09
6.97169e-10
6.31074e-10
6.21926e-10
6.21362e-10
6.17733e-10
6.21388e-10
6.21847e-10
6.19035e-10
6.19606e-10
6.19521e-10
6.21312e-10
6.2018e-10
6.36538e-10
6.78087e-10
1.06118e-09
4.09971e-09
4.68729e-08
5.4262e-09
6.99025e-09
1.04503e-09
6.37731e-10
5.7707e-10
5.68305e-10
5.67289e-10
5.62708e-10
5.67796e-10
5.67815e-10
5.65362e-10
5.65902e-10
5.65055e-10
5.67108e-10
5.66488e-10
5.81596e-10
6.21556e-10
9.72933e-10
3.7361e-09
4.20066e-08
5.4255e-09
5.73875e-09
9.3518e-10
5.8543e-10
5.30412e-10
5.22079e-10
5.20902e-10
5.2058e-10
5.21493e-10
5.2118e-10
5.19102e-10
5.19596e-10
5.1788e-10
5.20535e-10
5.20213e-10
5.34153e-10
5.72185e-10
9.0753e-10
3.38605e-09
3.69017e-08
5.27232e-09
4.67228e-09
8.39029e-10
5.38534e-10
4.89662e-10
4.81809e-10
4.80581e-10
4.79508e-10
4.81073e-10
4.80558e-10
4.78828e-10
4.79261e-10
4.7653e-10
4.80078e-10
4.79923e-10
4.92742e-10
5.28444e-10
8.42158e-10
3.05498e-09
3.27586e-08
4.97655e-09
3.78516e-09
7.55268e-10
5.01634e-10
4.53799e-10
4.46471e-10
4.45266e-10
4.43233e-10
4.45567e-10
4.44948e-10
4.43528e-10
4.43901e-10
4.44557e-10
4.44691e-10
4.44606e-10
4.56311e-10
4.93455e-10
7.79307e-10
2.74453e-09
2.87104e-08
4.56747e-09
3.00868e-09
6.82487e-10
4.67097e-10
4.22036e-10
4.15321e-10
4.14211e-10
4.14828e-10
4.14274e-10
4.13614e-10
4.12465e-10
4.12782e-10
4.13755e-10
4.13532e-10
4.13531e-10
4.24019e-10
4.60596e-10
7.22091e-10
2.45684e-09
2.52465e-08
4.08905e-09
2.37742e-09
6.19922e-10
4.38681e-10
3.97123e-10
3.91119e-10
3.90091e-10
3.90389e-10
3.89961e-10
3.89312e-10
3.88363e-10
3.88701e-10
3.89754e-10
3.89409e-10
3.89363e-10
3.99197e-10
4.33563e-10
6.69967e-10
2.19376e-09
2.185e-08
3.58576e-09
1.94011e-09
5.66468e-10
4.1322e-10
3.75722e-10
3.68694e-10
3.67741e-10
3.67752e-10
3.67447e-10
3.66786e-10
3.66013e-10
3.66436e-10
3.67319e-10
3.66995e-10
3.67019e-10
3.7603e-10
4.0872e-10
6.2241e-10
1.95579e-09
1.88704e-08
3.09549e-09
1.59881e-09
5.26219e-10
3.92359e-10
3.57798e-10
3.51326e-10
3.50447e-10
3.50324e-10
3.50036e-10
3.49466e-10
3.48832e-10
3.49292e-10
3.49951e-10
3.49706e-10
3.4977e-10
3.58031e-10
3.88855e-10
5.78871e-10
1.74319e-09
1.61569e-08
2.64749e-09
1.33856e-09
4.92298e-10
3.7539e-10
3.43429e-10
3.37552e-10
3.36745e-10
3.36579e-10
3.36254e-10
3.35825e-10
3.35302e-10
3.35728e-10
3.36214e-10
3.36027e-10
3.36157e-10
3.43649e-10
3.72735e-10
5.46e-10
1.55559e-09
1.37071e-08
2.26042e-09
1.1442e-09
4.66424e-10
3.62407e-10
3.33028e-10
3.27652e-10
3.26914e-10
3.26803e-10
3.26382e-10
3.26155e-10
3.25713e-10
3.26038e-10
3.26438e-10
3.26245e-10
3.26465e-10
3.3315e-10
3.60721e-10
5.18032e-10
1.39214e-09
1.14606e-08
1.94151e-09
9.90313e-10
4.47657e-10
3.53849e-10
3.27068e-10
3.22117e-10
3.2145e-10
3.21493e-10
3.20907e-10
3.20958e-10
3.20569e-10
3.20749e-10
3.21139e-10
3.20854e-10
3.21187e-10
3.27011e-10
3.53316e-10
4.95513e-10
1.25261e-09
9.44637e-09
1.69014e-09
8.71224e-10
4.36271e-10
3.50394e-10
3.26267e-10
3.21677e-10
3.21091e-10
3.21391e-10
3.20559e-10
3.20981e-10
3.20615e-10
3.20625e-10
3.21059e-10
3.20591e-10
3.21065e-10
3.25954e-10
3.51242e-10
4.79165e-10
1.13644e-09
7.83066e-09
1.50117e-09
7.96877e-10
4.32867e-10
3.52954e-10
3.31581e-10
3.2729e-10
3.26811e-10
3.27463e-10
3.26293e-10
3.27194e-10
3.26824e-10
3.26646e-10
3.2716e-10
3.26415e-10
3.27066e-10
3.30935e-10
3.55452e-10
4.69889e-10
1.04768e-09
6.40085e-09
1.36621e-09
7.48624e-10
4.38129e-10
3.62606e-10
3.44095e-10
3.40049e-10
3.39713e-10
3.40793e-10
3.39192e-10
3.40682e-10
3.40279e-10
3.39905e-10
3.40511e-10
3.39408e-10
3.40279e-10
3.43054e-10
3.67021e-10
4.68642e-10
9.78609e-10
5.0952e-09
1.27635e-09
7.22591e-10
4.52679e-10
3.80377e-10
3.64788e-10
3.60929e-10
3.60776e-10
3.62322e-10
3.60218e-10
3.62381e-10
3.61922e-10
3.61348e-10
3.6204e-10
3.60528e-10
3.61663e-10
3.63317e-10
3.86893e-10
4.76273e-10
9.28673e-10
4.19259e-09
1.22297e-09
7.15667e-10
4.78207e-10
4.06928e-10
3.95136e-10
3.91336e-10
3.9043e-10
3.93608e-10
3.90805e-10
3.93814e-10
3.93176e-10
3.91355e-10
3.9326e-10
3.91168e-10
3.92539e-10
3.93135e-10
4.15452e-10
4.93165e-10
8.95648e-10
3.4391e-09
1.19765e-09
7.24599e-10
5.13231e-10
4.41821e-10
4.32474e-10
4.28833e-10
4.27974e-10
4.31674e-10
4.28383e-10
4.32024e-10
4.31304e-10
4.2918e-10
4.31293e-10
4.28838e-10
4.30457e-10
4.30204e-10
4.51943e-10
5.21375e-10
8.76028e-10
2.86753e-09
1.19168e-09
7.45239e-10
5.52518e-10
4.83159e-10
4.7555e-10
4.72036e-10
4.71203e-10
4.75197e-10
4.71587e-10
4.75645e-10
4.74872e-10
4.72567e-10
4.74799e-10
4.72132e-10
4.73922e-10
4.73149e-10
4.94099e-10
5.54576e-10
8.67159e-10
2.42238e-09
1.19574e-09
7.72282e-10
5.93883e-10
5.27364e-10
5.20557e-10
5.17128e-10
5.16293e-10
5.20255e-10
5.16599e-10
5.20737e-10
5.19964e-10
5.1765e-10
5.19865e-10
5.17216e-10
5.19051e-10
5.18215e-10
5.38041e-10
5.91254e-10
8.63457e-10
2.07583e-09
1.20016e-09
7.99304e-10
6.32036e-10
5.69499e-10
5.62506e-10
5.59126e-10
5.58268e-10
5.61836e-10
5.58458e-10
5.62283e-10
5.61571e-10
5.59446e-10
5.61468e-10
5.59107e-10
5.60839e-10
5.60433e-10
5.78745e-10
6.26538e-10
8.59643e-10
1.80349e-09
1.19591e-09
8.19592e-10
6.61537e-10
6.04212e-10
5.9624e-10
5.92898e-10
5.92014e-10
5.94874e-10
5.92074e-10
5.95229e-10
5.94635e-10
5.92873e-10
5.94532e-10
5.92699e-10
5.94187e-10
5.9462e-10
6.1106e-10
6.55096e-10
8.5077e-10
1.58493e-09
1.17618e-09
8.27509e-10
6.78116e-10
6.27025e-10
6.17684e-10
6.14409e-10
6.13512e-10
6.15479e-10
6.1346e-10
6.1571e-10
6.15271e-10
6.13987e-10
6.15162e-10
6.14006e-10
6.15147e-10
6.16637e-10
6.30952e-10
6.72382e-10
8.33198e-10
1.4042e-09
1.13768e-09
8.19811e-10
6.79762e-10
6.35483e-10
6.2487e-10
6.21721e-10
6.2084e-10
6.21896e-10
6.20718e-10
6.22004e-10
6.21729e-10
6.20948e-10
6.21605e-10
6.21147e-10
6.21895e-10
6.24423e-10
6.36518e-10
6.75785e-10
8.05348e-10
1.24946e-09
1.08106e-09
7.96326e-10
6.67145e-10
6.29719e-10
6.1835e-10
6.15406e-10
6.14572e-10
6.14857e-10
6.14434e-10
6.14869e-10
6.1474e-10
6.14399e-10
6.14591e-10
6.14728e-10
6.15107e-10
6.18437e-10
6.28386e-10
6.65236e-10
7.6798e-10
1.11308e-09
1.01036e-09
7.59822e-10
6.43312e-10
6.1212e-10
6.0059e-10
5.98263e-10
5.97502e-10
5.9726e-10
5.97398e-10
5.97221e-10
5.97198e-10
5.97173e-10
5.97018e-10
5.97563e-10
5.9765e-10
6.01109e-10
6.09113e-10
6.43149e-10
7.23371e-10
9.91293e-10
9.31843e-10
7.15153e-10
6.1286e-10
5.87291e-10
5.7652e-10
5.74553e-10
5.73882e-10
5.73385e-10
5.73841e-10
5.73343e-10
5.7338e-10
5.73518e-10
5.73167e-10
5.739e-10
5.73805e-10
5.77257e-10
5.83658e-10
6.1376e-10
6.76485e-10
8.83161e-10
8.52375e-10
6.68046e-10
5.8085e-10
5.6001e-10
5.50616e-10
5.49011e-10
5.48438e-10
5.47924e-10
5.48465e-10
5.47919e-10
5.4797e-10
5.4813e-10
5.47728e-10
5.48451e-10
5.48286e-10
5.51398e-10
5.5654e-10
5.82051e-10
6.31319e-10
7.89438e-10
7.78144e-10
6.23894e-10
5.5181e-10
5.34834e-10
5.27164e-10
5.2589e-10
5.25417e-10
5.25041e-10
5.25496e-10
5.25096e-10
5.2513e-10
5.25209e-10
5.24867e-10
5.2544e-10
5.25296e-10
5.27861e-10
5.3205e-10
5.52712e-10
5.91813e-10
7.11512e-10
7.13675e-10
5.86759e-10
5.2891e-10
5.15074e-10
5.09166e-10
5.08167e-10
5.07792e-10
5.07607e-10
5.07896e-10
5.07726e-10
5.07732e-10
5.0768e-10
5.07453e-10
5.07815e-10
5.07743e-10
5.09691e-10
5.13173e-10
5.29221e-10
5.60646e-10
6.50365e-10
6.61253e-10
5.58662e-10
5.13406e-10
5.02164e-10
4.97785e-10
4.96994e-10
4.9671e-10
4.9668e-10
4.96815e-10
4.9685e-10
4.96833e-10
4.96659e-10
4.96545e-10
4.96713e-10
4.96719e-10
4.98109e-10
5.01053e-10
5.13169e-10
5.38697e-10
6.05706e-10
6.21053e-10
5.39469e-10
5.04658e-10
4.95585e-10
4.92346e-10
4.91701e-10
4.91494e-10
4.91539e-10
4.91588e-10
4.91739e-10
4.91716e-10
4.91462e-10
4.91423e-10
4.91458e-10
4.91518e-10
4.9249e-10
4.95e-10
5.04123e-10
5.25043e-10
5.75635e-10
5.92126e-10
5.27503e-10
5.00631e-10
4.93304e-10
4.90788e-10
4.90236e-10
4.9009e-10
4.90131e-10
4.90174e-10
4.90339e-10
4.90328e-10
4.90047e-10
4.90032e-10
4.90008e-10
4.90085e-10
4.90803e-10
4.92956e-10
5.00083e-10
5.17492e-10
5.57093e-10
5.74175e-10
5.20747e-10
4.98898e-10
4.92713e-10
4.90591e-10
4.90091e-10
4.89984e-10
4.89996e-10
4.90061e-10
4.90204e-10
4.90207e-10
4.89925e-10
4.8991e-10
4.89867e-10
4.89943e-10
4.90532e-10
4.92441e-10
4.98447e-10
5.13634e-10
5.47033e-10
)
;

boundaryField
{
    fuel
    {
        type            fixedValue;
        value           uniform 0;
    }
    wall
    {
        type            zeroGradient;
    }
    outlet
    {
        type            zeroGradient;
    }
    frontAndBack
    {
        type            empty;
    }
}


// ************************************************************************* //
