/*--------------------------------*- C++ -*----------------------------------*\
| =========                 |                                                 |
| \\      /  F ield         | OpenFOAM: The Open Source CFD Toolbox           |
|  \\    /   O peration     | Version:  dev                                   |
|   \\  /    A nd           | Web:      www.OpenFOAM.org                      |
|    \\/     M anipulation  |                                                 |
\*---------------------------------------------------------------------------*/
FoamFile
{
    version     2.0;
    format      ascii;
    class       volScalarField;
    location    "0.2";
    object      A2C2H22;
}
// * * * * * * * * * * * * * * * * * * * * * * * * * * * * * * * * * * * * * //

dimensions      [0 0 0 0 0 0 0];

internalField   nonuniform List<scalar> 
1000
(
2.27469e-15
1.09988e-12
1.10444e-12
1.08365e-12
1.08402e-12
1.08198e-12
1.08214e-12
1.08216e-12
1.08223e-12
1.08203e-12
1.08199e-12
1.08222e-12
1.08213e-12
1.08222e-12
1.08216e-12
1.08282e-12
1.08568e-12
1.10369e-12
1.16094e-12
8.90415e-16
4.82474e-15
1.86669e-12
1.60183e-12
1.51598e-12
1.51134e-12
1.50611e-12
1.5065e-12
1.50639e-12
1.50654e-12
1.5063e-12
1.50618e-12
1.50646e-12
1.50631e-12
1.50623e-12
1.50652e-12
1.50822e-12
1.52139e-12
1.62687e-12
2.50617e-12
1.75459e-15
1.12391e-14
1.44242e-12
1.16478e-12
1.06326e-12
1.05959e-12
1.05293e-12
1.05355e-12
1.05329e-12
1.0535e-12
1.05325e-12
1.05318e-12
1.05342e-12
1.05317e-12
1.05304e-12
1.05347e-12
1.05535e-12
1.07013e-12
1.18944e-12
2.29583e-12
1.09597e-15
5.24584e-13
1.06218e-12
8.22192e-13
7.21505e-13
7.19388e-13
7.12329e-13
7.12924e-13
7.12704e-13
7.12953e-13
7.12661e-13
7.12675e-13
7.12872e-13
7.12553e-13
7.12342e-13
7.12889e-13
7.14736e-13
7.28833e-13
8.42617e-13
1.92949e-12
6.19709e-16
1.58108e-12
8.11539e-13
6.00123e-13
5.03883e-13
5.02817e-13
4.9586e-13
4.96254e-13
4.96211e-13
4.96487e-13
4.96148e-13
4.96241e-13
4.96401e-13
4.9604e-13
4.95673e-13
4.96392e-13
4.98155e-13
5.11201e-13
6.16637e-13
1.62494e-12
4.11209e-16
1.76769e-12
6.44145e-13
4.43784e-13
3.61611e-13
3.61063e-13
3.54472e-13
3.54573e-13
3.54783e-13
3.55063e-13
3.54692e-13
3.54849e-13
3.54977e-13
3.54596e-13
3.54066e-13
3.54957e-13
3.56626e-13
3.68689e-13
4.65752e-13
1.38596e-12
3.31059e-16
1.85024e-12
5.21146e-13
3.39884e-13
2.65487e-13
2.64954e-13
2.58903e-13
2.58774e-13
2.59154e-13
2.59432e-13
2.59023e-13
2.59252e-13
2.59349e-13
2.58939e-13
2.58249e-13
2.59334e-13
2.60889e-13
2.72208e-13
3.61214e-13
1.19466e-12
3.04062e-16
1.97742e-12
4.34351e-13
2.65817e-13
1.98743e-13
1.98195e-13
1.92911e-13
1.92842e-13
1.93108e-13
1.93367e-13
1.92983e-13
1.9322e-13
1.93291e-13
1.92917e-13
1.92399e-13
1.93295e-13
1.94629e-13
2.05052e-13
2.87027e-13
1.03622e-12
3.23126e-16
2.1338e-12
3.7433e-13
2.10034e-13
1.50218e-13
1.51445e-13
1.47153e-13
1.47485e-13
1.47311e-13
1.47552e-13
1.47241e-13
1.47431e-13
1.47482e-13
1.47187e-13
1.47067e-13
1.47514e-13
1.48459e-13
1.55453e-13
2.29283e-13
9.00783e-13
3.85113e-16
2.24e-12
3.25895e-13
1.66569e-13
1.16822e-13
1.16736e-13
1.12817e-13
1.13457e-13
1.12888e-13
1.13112e-13
1.12847e-13
1.13024e-13
1.13062e-13
1.12763e-13
1.13103e-13
1.13155e-13
1.14108e-13
1.21748e-13
1.83176e-13
7.82373e-13
4.62966e-16
2.22166e-12
2.87954e-13
1.34546e-13
9.15636e-14
9.09861e-14
8.7848e-14
8.8378e-14
8.78534e-14
8.80506e-14
8.78224e-14
8.79884e-14
8.80153e-14
8.7694e-14
8.80687e-14
8.81346e-14
8.89696e-14
9.57655e-14
1.52071e-13
6.77523e-13
5.7758e-16
2.06111e-12
2.53958e-13
1.10268e-13
7.33668e-14
7.24284e-14
6.98584e-14
7.01232e-14
6.98152e-14
6.99966e-14
6.98099e-14
6.99516e-14
6.99732e-14
6.95925e-14
6.97401e-14
7.01116e-14
7.08696e-14
7.69638e-14
1.26371e-13
5.83957e-13
8.12535e-16
1.7971e-12
2.23991e-13
9.11186e-14
5.99426e-14
5.87747e-14
5.66437e-14
5.65629e-14
5.65588e-14
5.67321e-14
5.65911e-14
5.66985e-14
5.67192e-14
5.6242e-14
5.77132e-14
5.68807e-14
5.75655e-14
6.30087e-14
1.04688e-13
5.00457e-13
1.32629e-15
1.49113e-12
1.97309e-13
7.87823e-14
4.98188e-14
4.85056e-14
4.67296e-14
4.75513e-14
4.66009e-14
4.67713e-14
4.66726e-14
4.67449e-14
4.6769e-14
4.61213e-14
4.74603e-14
4.69352e-14
4.75665e-14
5.24227e-14
8.91119e-14
4.2023e-13
2.34606e-15
1.19612e-12
1.74592e-13
6.81171e-14
4.20046e-14
4.06164e-14
3.91155e-14
3.9747e-14
3.89472e-14
3.9128e-14
3.9061e-14
3.91062e-14
3.91388e-14
3.92384e-14
3.95867e-14
3.92986e-14
3.9887e-14
4.42118e-14
7.46445e-14
3.43279e-13
4.13957e-15
9.42757e-13
1.54299e-13
5.86773e-14
3.58343e-14
3.44308e-14
3.31464e-14
3.35866e-14
3.29354e-14
3.3141e-14
3.30937e-14
3.31219e-14
3.31619e-14
3.31867e-14
3.34472e-14
3.33148e-14
3.3865e-14
3.77111e-14
6.26415e-14
2.85443e-13
6.95223e-15
7.41158e-13
1.35594e-13
5.08137e-14
3.08576e-14
2.94858e-14
2.83759e-14
2.86752e-14
2.8111e-14
2.83594e-14
2.83222e-14
2.83415e-14
2.83878e-14
2.83418e-14
2.85771e-14
2.85346e-14
2.90485e-14
3.24636e-14
5.27406e-14
2.34735e-13
1.08439e-14
5.88763e-13
1.18712e-13
4.40405e-14
2.67635e-14
2.54589e-14
2.44939e-14
2.46965e-14
2.41532e-14
2.44705e-14
2.44372e-14
2.44524e-14
2.45037e-14
2.4375e-14
2.46399e-14
2.46451e-14
2.51235e-14
2.81509e-14
4.45638e-14
1.91419e-13
1.56573e-14
4.7769e-13
1.03782e-13
3.92647e-14
2.33347e-14
2.21231e-14
2.12816e-14
2.14238e-14
2.12307e-14
2.1255e-14
2.12217e-14
2.12347e-14
2.12898e-14
2.10477e-14
2.13974e-14
2.14257e-14
2.18691e-14
2.45479e-14
3.77989e-14
1.55522e-13
2.09898e-14
3.8495e-13
9.05286e-14
3.48315e-14
2.04095e-14
1.93158e-14
1.85826e-14
1.86845e-14
1.84898e-14
1.85533e-14
1.85205e-14
1.85313e-14
1.85901e-14
1.85339e-14
1.8684e-14
1.8719e-14
1.91284e-14
2.14915e-14
3.21794e-14
1.23189e-13
2.62478e-14
3.23768e-13
7.88054e-14
3.06015e-14
1.81159e-14
1.69183e-14
1.62835e-14
1.63574e-14
1.61434e-14
1.6252e-14
1.62203e-14
1.62283e-14
1.62902e-14
1.6338e-14
1.63765e-14
1.64108e-14
1.67874e-14
1.88487e-14
2.7513e-14
9.72085e-14
3.0837e-14
2.79015e-13
6.8415e-14
2.68987e-14
1.6025e-14
1.4837e-14
1.42999e-14
1.43527e-14
1.43265e-14
1.42659e-14
1.4236e-14
1.42393e-14
1.43046e-14
1.43239e-14
1.43843e-14
1.44158e-14
1.47612e-14
1.65843e-14
2.36239e-14
7.7326e-14
3.42575e-14
2.41256e-13
5.91885e-14
2.36193e-14
1.42905e-14
1.32372e-14
1.27487e-14
1.27955e-14
1.2761e-14
1.27178e-14
1.26886e-14
1.26812e-14
1.27568e-14
1.27615e-14
1.28305e-14
1.28591e-14
1.3176e-14
1.47833e-14
2.03758e-14
6.14028e-14
3.62561e-14
2.12064e-13
5.10219e-14
2.06777e-14
1.26913e-14
1.17381e-14
1.1303e-14
1.13394e-14
1.12999e-14
1.12703e-14
1.12419e-14
1.12539e-14
1.1313e-14
1.13046e-14
1.13812e-14
1.14061e-14
1.16994e-14
1.31658e-14
1.76372e-14
4.91864e-14
3.68351e-14
1.8841e-13
4.38086e-14
1.79941e-14
1.13527e-14
1.05079e-14
1.012e-14
1.015e-14
1.01087e-14
1.00884e-14
1.00623e-14
1.00646e-14
1.01312e-14
1.01153e-14
1.01927e-14
1.0215e-14
1.04804e-14
1.17875e-14
1.55463e-14
3.98567e-14
3.61529e-14
1.63696e-13
3.74511e-14
1.59336e-14
1.01762e-14
9.42983e-15
9.08649e-15
9.11037e-15
9.06926e-15
9.05597e-15
9.03238e-15
9.03121e-15
9.09664e-15
9.07527e-15
9.15188e-15
9.17221e-15
9.40794e-15
1.05755e-14
1.36434e-14
3.27149e-14
3.45201e-14
1.39085e-13
3.18709e-14
1.4094e-14
9.14314e-15
8.48772e-15
8.1853e-15
8.20396e-15
8.16424e-15
8.156e-15
8.13504e-15
8.13231e-15
8.19359e-15
8.16891e-15
8.24326e-15
8.26191e-15
8.47134e-15
9.50696e-15
1.21093e-14
2.72623e-14
3.23508e-14
1.18077e-13
2.70155e-14
1.24658e-14
8.24109e-15
7.66917e-15
7.40416e-15
7.41843e-15
7.38101e-15
7.37636e-15
7.35797e-15
7.35444e-15
7.40995e-15
7.38434e-15
7.45459e-15
7.47176e-15
7.65774e-15
8.56836e-15
1.07905e-14
2.26039e-14
2.99398e-14
1.0144e-13
2.28227e-14
1.10322e-14
7.4616e-15
6.96388e-15
6.73445e-15
6.74471e-15
6.7106e-15
6.70838e-15
6.69253e-15
6.68825e-15
6.73697e-15
6.71255e-15
6.77684e-15
6.79269e-15
6.95777e-15
7.75012e-15
9.65862e-15
1.88834e-14
2.74992e-14
8.41833e-14
1.93757e-14
9.78384e-15
6.79538e-15
6.36378e-15
6.1676e-15
6.17429e-15
6.14415e-15
6.14352e-15
6.13001e-15
6.12528e-15
6.16673e-15
6.14503e-15
6.20195e-15
6.21664e-15
6.36313e-15
7.04437e-15
8.69137e-15
1.6276e-14
2.51488e-14
6.64292e-14
1.64239e-14
8.70771e-15
6.23092e-15
5.85881e-15
5.69267e-15
5.69642e-15
5.67034e-15
5.67074e-15
5.65927e-15
5.65439e-15
5.68879e-15
5.67052e-15
5.71952e-15
5.73321e-15
5.86335e-15
6.44176e-15
7.8661e-15
1.41721e-14
2.29165e-14
5.34234e-14
1.39146e-14
7.78543e-15
5.75057e-15
5.43342e-15
5.29276e-15
5.29444e-15
5.27151e-15
5.27289e-15
5.26279e-15
5.25793e-15
5.28641e-15
5.27121e-15
5.31334e-15
5.3261e-15
5.44158e-15
5.92819e-15
7.1587e-15
1.24366e-14
2.07887e-14
4.20075e-14
1.17726e-14
6.99106e-15
5.32752e-15
5.05632e-15
4.93818e-15
4.93873e-15
4.92082e-15
4.91969e-15
4.91389e-15
4.90896e-15
4.93373e-15
4.92015e-15
4.95397e-15
4.96574e-15
5.06478e-15
5.48113e-15
6.50881e-15
1.09648e-14
1.87298e-14
3.25843e-14
9.86867e-15
6.24351e-15
4.92614e-15
4.70463e-15
4.60017e-15
4.60102e-15
4.58289e-15
4.5837e-15
4.57733e-15
4.57198e-15
4.5961e-15
4.58181e-15
4.61425e-15
4.62452e-15
4.71072e-15
5.06623e-15
5.91715e-15
9.67088e-15
1.66958e-14
2.48702e-14
8.25413e-15
5.5773e-15
4.50739e-15
4.33298e-15
4.23683e-15
4.23917e-15
4.21928e-15
4.22261e-15
4.2148e-15
4.20862e-15
4.23524e-15
4.21773e-15
4.2518e-15
4.25995e-15
4.3347e-15
4.64356e-15
5.33687e-15
8.47913e-15
1.46458e-14
1.86546e-14
6.80948e-15
4.90907e-15
4.03855e-15
3.90818e-15
3.81672e-15
3.82141e-15
3.7986e-15
3.80493e-15
3.79508e-15
3.78776e-15
3.81912e-15
3.79655e-15
3.83452e-15
3.83999e-15
3.90479e-15
4.17674e-15
4.71976e-15
7.32833e-15
1.25565e-14
1.37112e-14
5.49626e-15
4.21275e-15
3.50454e-15
3.4135e-15
3.32576e-15
3.33305e-15
3.30734e-15
3.31659e-15
3.30471e-15
3.29625e-15
3.33279e-15
3.30482e-15
3.34698e-15
3.34956e-15
3.40534e-15
3.64527e-15
4.0496e-15
6.18191e-15
1.04451e-14
9.83822e-15
4.29859e-15
3.48701e-15
2.91384e-15
2.85681e-15
2.77369e-15
2.78334e-15
2.75585e-15
2.76735e-15
2.75407e-15
2.745e-15
2.7851e-15
2.75315e-15
2.79758e-15
2.79757e-15
2.84471e-15
3.05281e-15
3.33549e-15
5.03571e-15
8.35729e-15
6.8515e-15
3.22477e-15
2.7537e-15
2.29852e-15
2.26858e-15
2.19275e-15
2.20384e-15
2.17665e-15
2.18919e-15
2.17562e-15
2.16671e-15
2.20709e-15
2.17408e-15
2.21715e-15
2.21548e-15
2.25377e-15
2.42786e-15
2.6107e-15
3.91734e-15
6.37073e-15
4.58145e-15
2.29677e-15
2.05083e-15
1.70425e-15
1.69288e-15
1.62806e-15
1.6391e-15
1.61463e-15
1.62674e-15
1.6142e-15
1.60613e-15
1.6431e-15
1.61235e-15
1.65024e-15
1.64798e-15
1.67713e-15
1.81531e-15
1.92259e-15
2.87737e-15
4.57883e-15
2.90708e-15
1.53456e-15
1.4238e-15
1.17561e-15
1.17529e-15
1.1238e-15
1.1335e-15
1.11357e-15
1.12401e-15
1.11355e-15
1.10692e-15
1.13758e-15
1.11173e-15
1.14187e-15
1.13973e-15
1.16002e-15
1.2626e-15
1.31794e-15
1.97203e-15
3.06745e-15
1.72358e-15
9.44229e-16
9.0886e-16
7.40632e-16
7.44361e-16
7.12111e-16
7.1967e-16
7.05088e-16
7.13086e-16
7.05269e-16
7.00359e-16
7.23216e-16
7.03722e-16
7.25247e-16
7.23624e-16
7.35555e-16
8.03868e-16
8.30025e-16
1.24313e-15
1.88752e-15
9.35649e-16
5.28641e-16
5.23955e-16
4.22949e-16
4.27676e-16
4.07008e-16
4.12187e-16
4.02712e-16
4.08124e-16
4.02945e-16
3.99703e-16
4.14838e-16
4.01804e-16
4.15485e-16
4.14425e-16
4.21001e-16
4.62978e-16
4.71813e-16
7.07401e-16
1.04634e-15
4.51912e-16
2.61091e-16
2.65666e-16
2.12193e-16
2.15847e-16
2.04355e-16
2.07424e-16
2.02072e-16
2.05241e-16
2.02263e-16
2.00398e-16
2.09107e-16
2.01544e-16
2.09143e-16
2.08533e-16
2.11766e-16
2.34327e-16
2.35747e-16
3.53767e-16
5.08368e-16
1.86051e-16
1.09044e-16
1.13686e-16
8.97156e-17
9.18108e-17
8.64653e-17
8.79843e-17
8.54525e-17
8.70004e-17
8.55694e-17
8.46694e-17
8.88634e-17
8.51946e-17
8.87505e-17
8.845e-17
8.97967e-17
1.00011e-16
9.93419e-17
1.49214e-16
2.07664e-16
6.09512e-17
3.59525e-17
3.83662e-17
2.9853e-17
3.07455e-17
2.87918e-17
2.93814e-17
2.84411e-17
2.90325e-17
2.84939e-17
2.81536e-17
2.97357e-17
2.83429e-17
2.96524e-17
2.95369e-17
2.99733e-17
3.36271e-17
3.29794e-17
4.96308e-17
6.67038e-17
1.41149e-17
8.31089e-18
9.07516e-18
6.94514e-18
7.20371e-18
6.70328e-18
6.86305e-18
6.61925e-18
6.7764e-18
6.63531e-18
6.54586e-18
6.96083e-18
6.59352e-18
6.92958e-18
6.89983e-18
6.99615e-18
7.91486e-18
7.66449e-18
1.15808e-17
1.50077e-17
1.85791e-18
1.0836e-18
1.21087e-18
9.09754e-19
9.51308e-19
8.79091e-19
9.03367e-19
8.68003e-19
8.91256e-19
8.70677e-19
8.57689e-19
9.18017e-19
8.6438e-19
9.12208e-19
9.0826e-19
9.19644e-19
1.0496e-18
1.00412e-18
1.52599e-18
1.90944e-18
9.30004e-20
5.34738e-20
6.11815e-20
4.51925e-20
4.77122e-20
4.37947e-20
4.51755e-20
4.32732e-20
4.45408e-20
4.34366e-20
4.27634e-20
4.59323e-20
4.31058e-20
4.55672e-20
4.54061e-20
4.58632e-20
5.26726e-20
4.9901e-20
7.60042e-20
9.23745e-20
1.21317e-21
6.76096e-22
7.95873e-22
5.77408e-22
6.17128e-22
5.62574e-22
5.82553e-22
5.56825e-22
5.74029e-22
5.59285e-22
5.51222e-22
5.90925e-22
5.55461e-22
5.85862e-22
5.84817e-22
5.88947e-22
6.77801e-22
6.38665e-22
9.73439e-22
1.17027e-21
)
;

boundaryField
{
    fuel
    {
        type            fixedValue;
        value           uniform 0;
    }
    wall
    {
        type            zeroGradient;
    }
    outlet
    {
        type            zeroGradient;
    }
    frontAndBack
    {
        type            empty;
    }
}


// ************************************************************************* //
