/*--------------------------------*- C++ -*----------------------------------*\
| =========                 |                                                 |
| \\      /  F ield         | OpenFOAM: The Open Source CFD Toolbox           |
|  \\    /   O peration     | Version:  dev                                   |
|   \\  /    A nd           | Web:      www.OpenFOAM.org                      |
|    \\/     M anipulation  |                                                 |
\*---------------------------------------------------------------------------*/
FoamFile
{
    version     2.0;
    format      ascii;
    class       volScalarField;
    location    "0.2";
    object      A2C2HB;
}
// * * * * * * * * * * * * * * * * * * * * * * * * * * * * * * * * * * * * * //

dimensions      [0 0 0 0 0 0 0];

internalField   nonuniform List<scalar> 
1000
(
2.90784e-09
6.77513e-08
6.19495e-08
6.02478e-08
6.0122e-08
6.00275e-08
6.00353e-08
6.00379e-08
6.00417e-08
6.00352e-08
6.00315e-08
6.00391e-08
6.00377e-08
6.00344e-08
6.00364e-08
6.00718e-08
6.0351e-08
6.26436e-08
8.03487e-08
1.84435e-09
6.64799e-09
6.688e-08
5.41154e-08
5.11356e-08
5.09002e-08
5.07552e-08
5.07684e-08
5.0765e-08
5.07693e-08
5.0765e-08
5.07597e-08
5.07657e-08
5.07647e-08
5.07577e-08
5.07682e-08
5.08178e-08
5.12928e-08
5.54281e-08
9.66231e-08
3.79927e-09
1.03809e-08
4.74597e-08
3.56098e-08
3.2485e-08
3.23137e-08
3.21394e-08
3.21606e-08
3.21507e-08
3.2156e-08
3.21517e-08
3.21479e-08
3.21528e-08
3.21496e-08
3.21441e-08
3.21552e-08
3.22039e-08
3.26669e-08
3.67584e-08
8.32808e-08
4.83793e-09
2.2421e-08
3.42719e-08
2.41288e-08
2.11258e-08
2.10146e-08
2.08298e-08
2.08533e-08
2.08417e-08
2.08479e-08
2.08426e-08
2.08408e-08
2.08448e-08
2.084e-08
2.08343e-08
2.08462e-08
2.08922e-08
2.13156e-08
2.51076e-08
7.23735e-08
5.46919e-09
3.51263e-08
2.6393e-08
1.73144e-08
1.44605e-08
1.43863e-08
1.42027e-08
1.42227e-08
1.42141e-08
1.42207e-08
1.42143e-08
1.42144e-08
1.42177e-08
1.42116e-08
1.42035e-08
1.42182e-08
1.42618e-08
1.46495e-08
1.81757e-08
6.52803e-08
5.87782e-09
3.68127e-08
2.15273e-08
1.27806e-08
1.03151e-08
1.02599e-08
1.00841e-08
1.00967e-08
1.00944e-08
1.01009e-08
1.00937e-08
1.00954e-08
1.0098e-08
1.00912e-08
1.00795e-08
1.00979e-08
1.01397e-08
1.0499e-08
1.38013e-08
6.03717e-08
6.1691e-09
4.07919e-08
1.81742e-08
9.86072e-09
7.59593e-09
7.54423e-09
7.38069e-09
7.38563e-09
7.3891e-09
7.39547e-09
7.38699e-09
7.39072e-09
7.39274e-09
7.38484e-09
7.36806e-09
7.39252e-09
7.43238e-09
7.77211e-09
1.08725e-08
5.64572e-08
6.45793e-09
4.88758e-08
1.59356e-08
7.81068e-09
5.73465e-09
5.68383e-09
5.5383e-09
5.54225e-09
5.54508e-09
5.55089e-09
5.54272e-09
5.54694e-09
5.54839e-09
5.54108e-09
5.52716e-09
5.5484e-09
5.58375e-09
5.90205e-09
8.82861e-09
5.28426e-08
6.83191e-09
6.05529e-08
1.446e-08
6.2724e-09
4.38377e-09
4.38368e-09
4.26323e-09
4.27602e-09
4.26876e-09
4.27414e-09
4.26755e-09
4.27083e-09
4.27178e-09
4.26637e-09
4.26179e-09
4.27232e-09
4.29808e-09
4.52396e-09
7.24128e-09
4.91602e-08
7.27927e-09
7.35543e-08
1.32862e-08
5.07326e-09
3.44783e-09
3.41382e-09
3.30243e-09
3.32319e-09
3.30546e-09
3.31042e-09
3.30476e-09
3.30798e-09
3.3086e-09
3.30304e-09
3.31079e-09
3.31071e-09
3.33716e-09
3.5811e-09
5.95638e-09
4.52548e-08
7.7324e-09
8.46337e-08
1.23517e-08
4.18503e-09
2.73604e-09
2.69003e-09
2.59947e-09
2.61722e-09
2.60062e-09
2.60486e-09
2.59991e-09
2.60314e-09
2.60345e-09
2.59726e-09
2.60605e-09
2.60624e-09
2.6298e-09
2.85023e-09
5.07101e-09
4.11117e-08
8.11604e-09
9.1171e-08
1.14608e-08
3.50647e-09
2.2205e-09
2.16549e-09
2.09026e-09
2.10013e-09
2.09004e-09
2.09386e-09
2.08959e-09
2.09264e-09
2.09277e-09
2.08486e-09
2.08674e-09
2.09607e-09
2.11783e-09
2.31827e-09
4.32062e-09
3.6797e-08
8.37611e-09
9.22126e-08
1.06049e-08
2.96543e-09
1.83922e-09
1.77847e-09
1.71527e-09
1.71428e-09
1.71391e-09
1.7175e-09
1.71416e-09
1.71662e-09
1.71668e-09
1.70583e-09
1.74541e-09
1.72068e-09
1.74065e-09
1.92204e-09
3.66785e-09
3.2435e-08
8.48377e-09
8.84328e-08
9.76825e-09
2.61476e-09
1.55195e-09
1.48752e-09
1.43422e-09
1.45837e-09
1.43167e-09
1.43515e-09
1.43279e-09
1.43451e-09
1.4346e-09
1.41825e-09
1.45497e-09
1.4388e-09
1.45747e-09
1.6213e-09
3.18527e-09
2.78182e-08
8.43159e-09
8.14273e-08
8.99261e-09
2.31063e-09
1.3312e-09
1.26485e-09
1.21931e-09
1.23804e-09
1.21569e-09
1.21941e-09
1.21786e-09
1.21894e-09
1.21921e-09
1.22372e-09
1.23255e-09
1.2233e-09
1.24095e-09
1.38858e-09
2.72403e-09
2.30541e-08
8.24585e-09
7.29265e-08
8.24365e-09
2.04031e-09
1.15815e-09
1.09147e-09
1.05209e-09
1.06526e-09
1.0473e-09
1.05167e-09
1.05066e-09
1.05131e-09
1.05176e-09
1.05417e-09
1.06016e-09
1.05571e-09
1.07246e-09
1.20527e-09
2.33114e-09
1.92698e-08
7.96633e-09
6.42987e-08
7.50251e-09
1.81393e-09
1.0199e-09
9.54218e-10
9.19804e-10
9.28752e-10
9.13443e-10
9.19056e-10
9.18336e-10
9.18782e-10
9.19384e-10
9.19855e-10
9.24765e-10
9.23201e-10
9.39109e-10
1.05842e-09
1.99948e-09
1.58418e-08
7.61735e-09
5.63981e-08
6.78955e-09
1.61725e-09
9.07425e-10
8.43817e-10
8.13532e-10
8.19479e-10
8.04793e-10
8.1258e-10
8.11972e-10
8.12352e-10
8.13073e-10
8.11261e-10
8.16733e-10
8.16782e-10
8.31852e-10
9.38907e-10
1.72056e-09
1.2855e-08
7.21948e-09
4.96366e-08
6.12184e-09
1.47835e-09
8.14409e-10
7.53706e-10
7.26944e-10
7.30955e-10
7.26051e-10
7.25891e-10
7.25283e-10
7.25655e-10
7.26463e-10
7.21312e-10
7.29177e-10
7.30069e-10
7.44304e-10
8.40278e-10
1.48688e-09
1.03546e-08
6.78482e-09
4.30488e-08
5.49881e-09
1.34911e-09
7.36087e-10
6.79187e-10
6.55517e-10
6.58225e-10
6.53411e-10
6.54386e-10
6.53784e-10
6.54154e-10
6.55039e-10
6.54682e-10
6.57284e-10
6.58505e-10
6.71915e-10
7.57851e-10
1.29137e-09
8.10955e-09
6.31647e-09
3.80653e-08
4.92428e-09
1.22524e-09
6.76032e-10
6.16848e-10
5.95998e-10
5.97802e-10
5.92424e-10
5.94802e-10
5.94232e-10
5.94579e-10
5.95509e-10
5.97803e-10
5.9751e-10
5.98811e-10
6.11413e-10
6.87845e-10
1.1292e-09
6.31368e-09
5.82408e-09
3.39161e-08
4.39674e-09
1.11672e-09
6.2251e-10
5.6404e-10
5.46017e-10
5.47143e-10
5.46767e-10
5.44752e-10
5.44238e-10
5.44514e-10
5.4547e-10
5.46946e-10
5.47294e-10
5.48579e-10
5.60401e-10
6.29108e-10
9.95234e-10
4.95766e-09
5.31344e-09
2.99945e-08
3.91445e-09
1.02088e-09
5.79768e-10
5.25224e-10
5.08746e-10
5.09626e-10
5.09138e-10
5.07561e-10
5.07086e-10
5.07133e-10
5.08266e-10
5.09373e-10
5.09942e-10
5.11188e-10
5.22279e-10
5.84144e-10
8.85504e-10
3.88728e-09
4.7984e-09
2.66686e-08
3.47802e-09
9.35581e-10
5.42166e-10
4.90679e-10
4.75908e-10
4.76437e-10
4.75926e-10
4.74678e-10
4.74263e-10
4.74783e-10
4.75437e-10
4.76278e-10
4.7698e-10
4.7815e-10
4.88619e-10
5.45652e-10
7.95969e-10
3.0825e-09
4.29545e-09
2.37883e-08
3.08635e-09
8.58716e-10
5.13153e-10
4.64788e-10
4.5159e-10
4.51865e-10
4.51428e-10
4.50386e-10
4.50079e-10
4.50398e-10
4.51106e-10
4.51857e-10
4.52468e-10
4.53584e-10
4.63308e-10
5.15292e-10
7.316e-10
2.48602e-09
3.82199e-09
2.07057e-08
2.73712e-09
8.02027e-10
4.90723e-10
4.45121e-10
4.33494e-10
4.33507e-10
4.33229e-10
4.3231e-10
4.32142e-10
4.3242e-10
4.32928e-10
4.33678e-10
4.34102e-10
4.35177e-10
4.44052e-10
4.91636e-10
6.77559e-10
2.04704e-09
3.39389e-09
1.76331e-08
2.4296e-09
7.54229e-10
4.75055e-10
4.31856e-10
4.21825e-10
4.21566e-10
4.21536e-10
4.20663e-10
4.20668e-10
4.20955e-10
4.21101e-10
4.21969e-10
4.22077e-10
4.2313e-10
4.31246e-10
4.74572e-10
6.39483e-10
1.72892e-09
3.02339e-09
1.4991e-08
2.16375e-09
7.15854e-10
4.66681e-10
4.255e-10
4.17127e-10
4.16575e-10
4.16895e-10
4.15994e-10
4.16212e-10
4.16534e-10
4.16168e-10
4.17301e-10
4.16925e-10
4.17979e-10
4.25397e-10
4.64531e-10
6.1321e-10
1.47525e-09
2.7166e-09
1.29445e-08
1.93769e-09
6.87607e-10
4.66413e-10
4.26853e-10
4.20234e-10
4.19361e-10
4.20147e-10
4.19135e-10
4.19617e-10
4.20003e-10
4.18971e-10
4.20533e-10
4.19465e-10
4.20553e-10
4.27318e-10
4.62262e-10
5.9859e-10
1.29113e-09
2.47513e-09
1.08949e-08
1.7576e-09
6.70331e-10
4.75207e-10
4.369e-10
4.32126e-10
4.30906e-10
4.32277e-10
4.31055e-10
4.31874e-10
4.32357e-10
4.30507e-10
4.32657e-10
4.30679e-10
4.31847e-10
4.37988e-10
4.68729e-10
5.95818e-10
1.18069e-09
2.2959e-09
8.8445e-09
1.61052e-09
6.6472e-10
4.93888e-10
4.56553e-10
4.53657e-10
4.52074e-10
4.54131e-10
4.5257e-10
4.53827e-10
4.54437e-10
4.5165e-10
4.54517e-10
4.51438e-10
4.52748e-10
4.58287e-10
4.84867e-10
6.05005e-10
1.11114e-09
2.17168e-09
7.36953e-09
1.49468e-09
6.71043e-10
5.22738e-10
4.86248e-10
4.85133e-10
4.83195e-10
4.85982e-10
4.83936e-10
4.85747e-10
4.86503e-10
4.82734e-10
4.86376e-10
4.82099e-10
4.83614e-10
4.88547e-10
5.11234e-10
6.25889e-10
1.07403e-09
2.09358e-09
6.09876e-09
1.40555e-09
6.88686e-10
5.61002e-10
5.26922e-10
5.26721e-10
5.2449e-10
5.27041e-10
5.25459e-10
5.26844e-10
5.27737e-10
5.23062e-10
5.27432e-10
5.23012e-10
5.24757e-10
5.29542e-10
5.47504e-10
6.59917e-10
1.06259e-09
2.05171e-09
5.06342e-09
1.33546e-09
7.18637e-10
6.0646e-10
5.73814e-10
5.74587e-10
5.72147e-10
5.75094e-10
5.73154e-10
5.74921e-10
5.75917e-10
5.70554e-10
5.75469e-10
5.70288e-10
5.72265e-10
5.76527e-10
5.91803e-10
7.01576e-10
1.07026e-09
2.03534e-09
4.2218e-09
1.28367e-09
7.52766e-10
6.55569e-10
6.24757e-10
6.25989e-10
6.2347e-10
6.26592e-10
6.24458e-10
6.26434e-10
6.27472e-10
6.21763e-10
6.26932e-10
6.21362e-10
6.23499e-10
6.27343e-10
6.4087e-10
7.46017e-10
1.09016e-09
2.03312e-09
3.54375e-09
1.24193e-09
7.88997e-10
7.0398e-10
6.75476e-10
6.76618e-10
6.74163e-10
6.77196e-10
6.75058e-10
6.77052e-10
6.78057e-10
6.72401e-10
6.77479e-10
6.71968e-10
6.74163e-10
6.77716e-10
6.90398e-10
7.89993e-10
1.11514e-09
2.03376e-09
2.99971e-09
1.20517e-09
8.22819e-10
7.47467e-10
7.21685e-10
7.22284e-10
7.20027e-10
7.22734e-10
7.20749e-10
7.22612e-10
7.23517e-10
7.18276e-10
7.22945e-10
7.17898e-10
7.20041e-10
7.23399e-10
7.35945e-10
8.2894e-10
1.13829e-09
2.02705e-09
2.56346e-09
1.1697e-09
8.505e-10
7.82916e-10
7.60111e-10
7.5991e-10
7.57951e-10
7.60176e-10
7.58448e-10
7.6009e-10
7.6085e-10
7.5627e-10
7.60311e-10
7.55992e-10
7.57998e-10
7.61203e-10
7.73979e-10
8.59455e-10
1.15406e-09
2.00531e-09
2.21242e-09
1.13361e-09
8.69891e-10
8.08936e-10
7.89163e-10
7.88129e-10
7.86515e-10
7.88208e-10
7.86783e-10
7.88171e-10
7.88773e-10
7.84952e-10
7.88273e-10
7.84777e-10
7.86592e-10
7.89636e-10
8.0263e-10
8.79971e-10
1.15898e-09
1.96404e-09
1.92875e-09
1.09664e-09
8.80674e-10
8.25878e-10
8.08995e-10
8.07288e-10
8.06013e-10
8.07216e-10
8.06086e-10
8.07238e-10
8.07691e-10
8.04595e-10
8.07224e-10
8.045e-10
8.06105e-10
8.0895e-10
8.21863e-10
8.90812e-10
1.15206e-09
1.90227e-09
1.69898e-09
1.05968e-09
8.84046e-10
8.35331e-10
8.21064e-10
8.18948e-10
8.17967e-10
8.18777e-10
8.17904e-10
8.18864e-10
8.19193e-10
8.1671e-10
8.18744e-10
8.16663e-10
8.18059e-10
8.2067e-10
8.33055e-10
8.93674e-10
1.1344e-09
1.82189e-09
1.51308e-09
1.02376e-09
8.82046e-10
8.39492e-10
8.27564e-10
8.25199e-10
8.2445e-10
8.2498e-10
8.2431e-10
8.25132e-10
8.25365e-10
8.23357e-10
8.2492e-10
8.23333e-10
8.24532e-10
8.26874e-10
8.38385e-10
8.90886e-10
1.10834e-09
1.72655e-09
1.36346e-09
9.90926e-10
8.76852e-10
8.40325e-10
8.3036e-10
8.28053e-10
8.27478e-10
8.27826e-10
8.27308e-10
8.28038e-10
8.282e-10
8.26543e-10
8.27751e-10
8.26527e-10
8.27546e-10
8.29575e-10
8.39926e-10
8.84737e-10
1.07673e-09
1.62085e-09
1.24409e-09
9.61778e-10
8.7028e-10
8.39497e-10
8.31205e-10
8.29085e-10
8.28636e-10
8.28875e-10
8.28468e-10
8.29141e-10
8.29249e-10
8.27852e-10
8.28791e-10
8.27834e-10
8.28691e-10
8.30407e-10
8.39458e-10
8.77069e-10
1.04229e-09
1.50974e-09
1.14992e-09
9.36735e-10
8.63568e-10
8.38052e-10
8.31182e-10
8.29315e-10
8.28959e-10
8.29135e-10
8.28812e-10
8.29447e-10
8.29511e-10
8.28317e-10
8.29044e-10
8.28294e-10
8.29003e-10
8.30435e-10
8.38152e-10
8.69135e-10
1.00734e-09
1.39807e-09
1.0766e-09
9.15788e-10
8.57397e-10
8.36538e-10
8.30876e-10
8.29281e-10
8.28996e-10
8.29135e-10
8.28877e-10
8.29487e-10
8.29511e-10
8.28484e-10
8.29038e-10
8.28454e-10
8.29031e-10
8.30218e-10
8.36652e-10
8.61666e-10
9.73708e-10
1.29045e-09
1.02044e-09
8.98683e-10
8.52052e-10
8.35175e-10
8.30532e-10
8.29197e-10
8.28969e-10
8.29086e-10
8.2888e-10
8.29469e-10
8.29459e-10
8.28573e-10
8.2898e-10
8.28536e-10
8.28995e-10
8.29978e-10
8.35245e-10
8.55037e-10
9.4286e-10
1.1912e-09
9.78506e-10
8.85135e-10
8.47632e-10
8.3403e-10
8.30225e-10
8.29122e-10
8.2894e-10
8.29042e-10
8.28879e-10
8.29451e-10
8.29411e-10
8.28642e-10
8.28927e-10
8.28597e-10
8.28953e-10
8.29775e-10
8.34033e-10
8.49456e-10
9.16084e-10
1.10456e-09
9.4888e-10
8.75045e-10
8.44223e-10
8.33139e-10
8.29979e-10
8.29066e-10
8.28919e-10
8.29013e-10
8.28882e-10
8.29439e-10
8.29375e-10
8.28695e-10
8.28886e-10
8.28645e-10
8.28919e-10
8.29619e-10
8.33073e-10
8.45119e-10
8.94767e-10
1.03527e-09
9.31369e-10
8.68825e-10
8.42061e-10
8.32571e-10
8.29821e-10
8.29032e-10
8.28908e-10
8.28997e-10
8.28886e-10
8.29435e-10
8.29355e-10
8.2873e-10
8.28862e-10
8.28675e-10
8.28895e-10
8.2952e-10
8.32455e-10
8.42377e-10
8.81047e-10
9.90559e-10
)
;

boundaryField
{
    fuel
    {
        type            fixedValue;
        value           uniform 0;
    }
    wall
    {
        type            zeroGradient;
    }
    outlet
    {
        type            zeroGradient;
    }
    frontAndBack
    {
        type            empty;
    }
}


// ************************************************************************* //
