/*--------------------------------*- C++ -*----------------------------------*\
| =========                 |                                                 |
| \\      /  F ield         | OpenFOAM: The Open Source CFD Toolbox           |
|  \\    /   O peration     | Version:  dev                                   |
|   \\  /    A nd           | Web:      www.OpenFOAM.org                      |
|    \\/     M anipulation  |                                                 |
\*---------------------------------------------------------------------------*/
FoamFile
{
    version     2.0;
    format      ascii;
    class       volScalarField;
    location    "0.2";
    object      A2C2HB*;
}
// * * * * * * * * * * * * * * * * * * * * * * * * * * * * * * * * * * * * * //

dimensions      [0 0 0 0 0 0 0];

internalField   nonuniform List<scalar> 
1000
(
1.59271e-11
1.20655e-09
1.18046e-09
1.15675e-09
1.15646e-09
1.15451e-09
1.1547e-09
1.15473e-09
1.1548e-09
1.15463e-09
1.15457e-09
1.15478e-09
1.1547e-09
1.15475e-09
1.15469e-09
1.15532e-09
1.15874e-09
1.18354e-09
1.31867e-09
1.17287e-11
1.07317e-11
1.49379e-09
1.28181e-09
1.21743e-09
1.21446e-09
1.21058e-09
1.21099e-09
1.21083e-09
1.21094e-09
1.21079e-09
1.21067e-09
1.21088e-09
1.21078e-09
1.21074e-09
1.21088e-09
1.212e-09
1.22142e-09
1.30022e-09
1.9968e-09
8.99819e-12
2.65078e-11
8.39119e-10
6.76729e-10
6.1867e-10
6.18138e-10
6.14006e-10
6.14638e-10
6.14299e-10
6.14432e-10
6.143e-10
6.14226e-10
6.14374e-10
6.14243e-10
6.14249e-10
6.14354e-10
6.15237e-10
6.22738e-10
6.86065e-10
1.32885e-09
2.9142e-12
4.70835e-10
4.51186e-10
3.4627e-10
3.02839e-10
3.03521e-10
3.00067e-10
3.00654e-10
3.00332e-10
3.00465e-10
3.00341e-10
3.00318e-10
3.00412e-10
3.0029e-10
3.00284e-10
3.00379e-10
3.01002e-10
3.06168e-10
3.4972e-10
8.23499e-10
9.09878e-13
1.21857e-09
2.68349e-10
1.95401e-10
1.62689e-10
1.63551e-10
1.60882e-10
1.61298e-10
1.61088e-10
1.61203e-10
1.61091e-10
1.61099e-10
1.61157e-10
1.61051e-10
1.61003e-10
1.61126e-10
1.61584e-10
1.65284e-10
1.96452e-10
5.44026e-10
3.72223e-13
1.18965e-09
1.76983e-10
1.1951e-10
9.72052e-11
9.78979e-11
9.58504e-11
9.6085e-11
9.59997e-11
9.60906e-11
9.59925e-11
9.60179e-11
9.60544e-11
9.59631e-11
9.58752e-11
9.60291e-11
9.63944e-11
9.92607e-11
1.23236e-10
3.86794e-10
2.04114e-13
1.04428e-09
1.24691e-10
8.12168e-11
6.35217e-11
6.39512e-11
6.23511e-11
6.24532e-11
6.24527e-11
6.25272e-11
6.24322e-11
6.24752e-11
6.24989e-11
6.24097e-11
6.22738e-11
6.24808e-11
6.27885e-11
6.52107e-11
8.48645e-11
2.90983e-10
1.43837e-13
9.27322e-10
9.4633e-11
5.89876e-11
4.43761e-11
4.46162e-11
4.33642e-11
4.34285e-11
4.34351e-11
4.34949e-11
4.34144e-11
4.34569e-11
4.34725e-11
4.33987e-11
4.32965e-11
4.3462e-11
4.37092e-11
4.58207e-11
6.28707e-11
2.27832e-10
1.30807e-13
8.28662e-10
7.69968e-11
4.45012e-11
3.2215e-11
3.27576e-11
3.18141e-11
3.1936e-11
3.18657e-11
3.19169e-11
3.18564e-11
3.18877e-11
3.18979e-11
3.18451e-11
3.18234e-11
3.1895e-11
3.20536e-11
3.33354e-11
4.82421e-11
1.83447e-10
1.57007e-13
7.26911e-10
6.45242e-11
3.43195e-11
2.44996e-11
2.4665e-11
2.38422e-11
2.40138e-11
2.38689e-11
2.39137e-11
2.38648e-11
2.38934e-11
2.39005e-11
2.38489e-11
2.39228e-11
2.39121e-11
2.40764e-11
2.55234e-11
3.77514e-11
1.50628e-10
2.42937e-13
6.18306e-10
5.57437e-11
2.73128e-11
1.89664e-11
1.8977e-11
1.83397e-11
1.84781e-11
1.83495e-11
1.83873e-11
1.83461e-11
1.83733e-11
1.83779e-11
1.83229e-11
1.84001e-11
1.83956e-11
1.85382e-11
1.98227e-11
3.11143e-11
1.25412e-10
4.78328e-13
5.09644e-10
4.85027e-11
2.22282e-11
1.51056e-11
1.50088e-11
1.44964e-11
1.45715e-11
1.44948e-11
1.45286e-11
1.44941e-11
1.45187e-11
1.4522e-11
1.44552e-11
1.44788e-11
1.45442e-11
1.46746e-11
1.58326e-11
2.58364e-11
1.05428e-10
9.08731e-13
4.08796e-10
4.25151e-11
1.83243e-11
1.23145e-11
1.21479e-11
1.17274e-11
1.17223e-11
1.17165e-11
1.17484e-11
1.17218e-11
1.17411e-11
1.17441e-11
1.16568e-11
1.19546e-11
1.17716e-11
1.18904e-11
1.29317e-11
2.14744e-11
8.92319e-11
1.45233e-12
3.21215e-10
3.74196e-11
1.5854e-11
1.02391e-11
1.00255e-11
9.67723e-12
9.85399e-12
9.65712e-12
9.68814e-12
9.66925e-12
9.68248e-12
9.68604e-12
9.56096e-12
9.83276e-12
9.71512e-12
9.82592e-12
1.07616e-11
1.83705e-11
7.47994e-11
2.06589e-12
2.49354e-10
3.32184e-11
1.37468e-11
8.65427e-12
8.41152e-12
8.11827e-12
8.25379e-12
8.08991e-12
8.12278e-12
8.10999e-12
8.11816e-12
8.12336e-12
8.14957e-12
8.21859e-12
8.15173e-12
8.25643e-12
9.09556e-12
1.54919e-11
6.16409e-11
2.75368e-12
1.93036e-10
2.95433e-11
1.19004e-11
7.41363e-12
7.1564e-12
6.90575e-12
7.00067e-12
6.86852e-12
6.90625e-12
6.89736e-12
6.90225e-12
6.90896e-12
6.91896e-12
6.96923e-12
6.93646e-12
7.03578e-12
7.78691e-12
1.30946e-11
5.19732e-11
3.47862e-12
1.50412e-10
2.61963e-11
1.03728e-11
6.4196e-12
6.15956e-12
5.94275e-12
6.0076e-12
5.89408e-12
5.9407e-12
5.9338e-12
5.937e-12
5.94504e-12
5.94018e-12
5.98442e-12
5.97179e-12
6.06591e-12
6.73693e-12
1.11036e-11
4.35571e-11
4.17001e-12
1.1897e-10
2.31898e-11
9.05933e-12
5.60542e-12
5.35174e-12
5.16266e-12
5.20662e-12
5.09727e-12
5.15897e-12
5.15278e-12
5.15526e-12
5.16442e-12
5.14234e-12
5.19215e-12
5.19054e-12
5.27938e-12
5.87767e-12
9.44604e-12
3.63058e-11
4.78467e-12
9.62481e-11
2.05269e-11
8.13543e-12
4.92473e-12
4.68444e-12
4.51875e-12
4.5495e-12
4.51137e-12
4.51419e-12
4.50791e-12
4.51005e-12
4.52015e-12
4.47389e-12
4.54162e-12
4.54562e-12
4.62908e-12
5.16144e-12
8.06312e-12
3.0178e-11
5.31454e-12
7.7212e-11
1.81473e-11
7.27615e-12
4.34304e-12
4.12311e-12
3.97781e-12
3.99975e-12
3.96106e-12
3.97254e-12
3.9662e-12
3.96804e-12
3.97908e-12
3.96967e-12
3.99757e-12
4.00356e-12
4.08161e-12
4.55395e-12
6.90479e-12
2.45163e-11
5.76623e-12
6.4534e-11
1.60185e-11
6.45155e-12
3.8865e-12
3.64258e-12
3.51584e-12
3.5317e-12
3.48825e-12
3.50995e-12
3.50371e-12
3.50511e-12
3.51696e-12
3.5283e-12
3.5339e-12
3.54019e-12
3.61288e-12
4.02731e-12
5.936e-12
1.98007e-11
6.14942e-12
5.51322e-11
1.41022e-11
5.72447e-12
3.46752e-12
3.223e-12
3.11504e-12
3.12632e-12
3.12164e-12
3.10848e-12
3.10249e-12
3.10304e-12
3.11576e-12
3.12067e-12
3.13146e-12
3.13746e-12
3.20495e-12
3.57347e-12
5.1234e-12
1.6063e-11
6.45421e-12
4.7148e-11
1.23677e-11
5.07426e-12
3.11838e-12
2.89999e-12
2.801e-12
2.81096e-12
2.80429e-12
2.79499e-12
2.78905e-12
2.78739e-12
2.80245e-12
2.80403e-12
2.81704e-12
2.82265e-12
2.88515e-12
3.21166e-12
4.44111e-12
1.29596e-11
6.66078e-12
4.09691e-11
1.07984e-11
4.48368e-12
2.79313e-12
2.59413e-12
2.50522e-12
2.51296e-12
2.50501e-12
2.49871e-12
2.49286e-12
2.49527e-12
2.50706e-12
2.50567e-12
2.52069e-12
2.52566e-12
2.58418e-12
2.88404e-12
3.863e-12
1.05018e-11
6.74738e-12
3.60053e-11
9.37916e-12
3.93615e-12
2.51938e-12
2.34218e-12
2.26234e-12
2.26873e-12
2.26027e-12
2.25602e-12
2.25057e-12
2.25097e-12
2.26449e-12
2.26142e-12
2.27685e-12
2.28137e-12
2.33478e-12
2.60335e-12
3.42194e-12
8.57638e-12
6.69273e-12
3.09857e-11
8.09751e-12
3.51267e-12
2.277e-12
2.12002e-12
2.04892e-12
2.05404e-12
2.04553e-12
2.04276e-12
2.03781e-12
2.03758e-12
2.05098e-12
2.04666e-12
2.06212e-12
2.0663e-12
2.11403e-12
2.35497e-12
3.01831e-12
7.07358e-12
6.50159e-12
2.61767e-11
6.94571e-12
3.12982e-12
2.06284e-12
1.92493e-12
1.862e-12
1.86604e-12
1.85777e-12
1.85607e-12
1.85164e-12
1.85113e-12
1.86372e-12
1.85866e-12
1.87378e-12
1.87766e-12
1.92026e-12
2.13475e-12
2.69329e-12
5.91208e-12
6.20793e-12
2.21712e-11
5.92032e-12
2.78691e-12
1.87475e-12
1.75478e-12
1.69943e-12
1.70256e-12
1.69474e-12
1.6938e-12
1.68991e-12
1.68921e-12
1.70064e-12
1.69534e-12
1.70971e-12
1.71332e-12
1.75127e-12
1.94036e-12
2.41339e-12
4.91058e-12
5.84415e-12
1.90546e-11
5.01392e-12
2.48145e-12
1.71096e-12
1.60746e-12
1.5593e-12
1.56164e-12
1.55443e-12
1.55401e-12
1.55064e-12
1.54978e-12
1.55987e-12
1.55476e-12
1.56802e-12
1.57139e-12
1.6051e-12
1.76994e-12
2.17231e-12
4.10446e-12
5.44329e-12
1.58684e-11
4.25455e-12
2.21183e-12
1.56887e-12
1.48064e-12
1.43906e-12
1.44076e-12
1.4342e-12
1.43416e-12
1.43122e-12
1.43025e-12
1.439e-12
1.4343e-12
1.44629e-12
1.44945e-12
1.47938e-12
1.62132e-12
1.9645e-12
3.53973e-12
5.03023e-12
1.25864e-11
3.59135e-12
1.97494e-12
1.44457e-12
1.37078e-12
1.33482e-12
1.33609e-12
1.32998e-12
1.33035e-12
1.32763e-12
1.32658e-12
1.33423e-12
1.32992e-12
1.34082e-12
1.34376e-12
1.37043e-12
1.49122e-12
1.7837e-12
3.08168e-12
4.61445e-12
1.01528e-11
3.017e-12
1.76597e-12
1.33225e-12
1.27248e-12
1.24084e-12
1.24194e-12
1.23581e-12
1.23685e-12
1.23395e-12
1.23278e-12
1.2398e-12
1.23561e-12
1.24605e-12
1.24872e-12
1.27259e-12
1.37462e-12
1.62302e-12
2.69906e-12
4.19697e-12
7.98537e-12
2.51863e-12
1.5786e-12
1.22438e-12
1.17533e-12
1.14782e-12
1.14901e-12
1.14401e-12
1.14418e-12
1.14253e-12
1.14121e-12
1.14823e-12
1.1437e-12
1.1526e-12
1.15492e-12
1.17516e-12
1.26462e-12
1.46383e-12
2.36702e-12
3.77383e-12
6.17118e-12
2.06764e-12
1.38945e-12
1.11312e-12
1.07622e-12
1.0507e-12
1.05226e-12
1.0467e-12
1.0477e-12
1.04553e-12
1.04397e-12
1.05163e-12
1.04627e-12
1.05576e-12
1.05754e-12
1.07526e-12
1.1531e-12
1.3096e-12
2.06634e-12
3.34009e-12
4.6714e-12
1.68698e-12
1.2162e-12
9.92561e-13
9.66533e-13
9.42281e-13
9.44343e-13
9.38068e-13
9.39914e-13
9.37168e-13
9.35328e-13
9.4403e-13
9.3753e-13
9.47978e-13
9.49097e-13
9.64482e-13
1.03319e-12
1.1542e-12
1.78256e-12
2.89366e-12
3.45971e-12
1.35237e-12
1.04178e-12
8.6092e-13
8.44057e-13
8.20988e-13
8.2355e-13
8.16649e-13
8.1921e-13
8.1599e-13
8.13906e-13
8.23624e-13
8.16025e-13
8.27368e-13
8.27793e-13
8.4102e-13
9.01771e-13
9.9095e-13
1.50733e-12
2.43835e-12
2.50295e-12
1.05969e-12
8.66718e-13
7.21557e-13
7.11774e-13
6.90383e-13
6.93283e-13
6.86119e-13
6.89139e-13
6.85681e-13
6.83455e-13
6.93745e-13
6.85446e-13
6.97165e-13
6.9698e-13
7.08147e-13
7.61068e-13
8.23187e-13
1.23982e-12
1.98893e-12
1.76717e-12
8.07685e-13
6.965e-13
5.81689e-13
5.77057e-13
5.57946e-13
5.60973e-13
5.54023e-13
5.57204e-13
5.53775e-13
5.51582e-13
5.61747e-13
5.53371e-13
5.64695e-13
5.64066e-13
5.73255e-13
6.17921e-13
6.58482e-13
9.85676e-13
1.56264e-12
1.21705e-12
5.96547e-13
5.38786e-13
4.49967e-13
4.48829e-13
4.32451e-13
4.35384e-13
4.29093e-13
4.32149e-13
4.28993e-13
4.27e-13
4.36322e-13
4.28525e-13
4.38681e-13
4.37842e-13
4.45135e-13
4.81271e-13
5.05817e-13
7.53835e-13
1.17782e-12
8.14544e-13
4.26014e-13
3.99936e-13
3.33761e-13
3.34535e-13
3.21205e-13
3.23806e-13
3.18507e-13
3.2121e-13
3.18507e-13
3.16808e-13
3.24768e-13
3.1804e-13
3.26493e-13
3.25662e-13
3.3119e-13
3.59093e-13
3.72575e-13
5.52752e-13
8.48942e-13
5.28446e-13
2.93293e-13
2.84224e-13
2.37107e-13
2.38742e-13
2.28313e-13
2.30449e-13
2.26272e-13
2.28496e-13
2.26329e-13
2.24966e-13
2.3135e-13
2.25908e-13
2.32481e-13
2.31782e-13
2.3575e-13
2.56325e-13
2.62713e-13
3.87591e-13
5.83456e-13
3.30777e-13
1.92789e-13
1.92575e-13
1.59653e-13
1.6129e-13
1.5467e-13
1.56313e-13
1.53215e-13
1.54931e-13
1.53295e-13
1.52261e-13
1.57092e-13
1.52944e-13
1.57733e-13
1.57217e-13
1.59661e-13
1.73775e-13
1.76604e-13
2.5876e-13
3.80447e-13
1.9805e-13
1.20647e-13
1.23338e-13
1.01991e-13
1.03464e-13
9.89144e-14
1.00099e-13
9.79376e-14
9.918e-14
9.80167e-14
9.72761e-14
1.00724e-13
9.77437e-14
1.01018e-13
1.00675e-13
1.02148e-13
1.11558e-13
1.12152e-13
1.63065e-13
2.33237e-13
1.11514e-13
7.02714e-14
7.3365e-14
6.03656e-14
6.14978e-14
5.85862e-14
5.93819e-14
5.79769e-14
5.88131e-14
5.80425e-14
5.75466e-14
5.98423e-14
5.78459e-14
5.99365e-14
5.97234e-14
6.05748e-14
6.64213e-14
6.60447e-14
9.53714e-14
1.3217e-13
5.71865e-14
3.67912e-14
3.92163e-14
3.19724e-14
3.27261e-14
3.10402e-14
3.15266e-14
3.06982e-14
3.12073e-14
3.07446e-14
3.04437e-14
3.18291e-14
3.06175e-14
3.18343e-14
3.17097e-14
3.21623e-14
3.54616e-14
3.48535e-14
5.01508e-14
6.70857e-14
2.52327e-14
1.63465e-14
1.78037e-14
1.43159e-14
1.47343e-14
1.39006e-14
1.41552e-14
1.37382e-14
1.40021e-14
1.37655e-14
1.361e-14
1.4322e-14
1.36959e-14
1.4303e-14
1.4239e-14
1.4443e-14
1.60416e-14
1.5573e-14
2.24272e-14
2.88657e-14
8.82371e-15
5.72395e-15
6.35698e-15
5.04186e-15
5.21806e-15
4.89773e-15
5.00105e-15
4.83841e-15
4.94391e-15
4.85051e-15
4.78835e-15
5.07114e-15
4.8212e-15
5.05642e-15
5.03092e-15
5.10141e-15
5.70589e-15
5.47529e-15
7.88753e-15
9.74938e-15
2.16843e-15
1.40016e-15
1.57889e-15
1.23284e-15
1.28258e-15
1.19715e-15
1.22601e-15
1.18207e-15
1.21117e-15
1.18564e-15
1.16823e-15
1.24641e-15
1.17704e-15
1.24052e-15
1.2335e-15
1.25037e-15
1.40992e-15
1.33959e-15
1.93855e-15
2.30967e-15
2.75565e-16
1.77652e-16
2.01475e-16
1.56319e-16
1.63109e-16
1.51851e-16
1.55791e-16
1.49969e-16
1.5388e-16
1.50464e-16
1.48079e-16
1.58642e-16
1.4925e-16
1.57643e-16
1.56716e-16
1.58725e-16
1.79513e-16
1.69808e-16
2.45049e-16
2.85076e-16
1.72444e-17
1.16994e-17
1.30171e-17
1.04227e-17
1.08195e-17
1.01606e-17
1.03952e-17
1.00528e-17
1.02837e-17
1.00828e-17
9.93762e-18
1.05661e-17
1.0008e-17
1.0502e-17
1.04474e-17
1.05633e-17
1.17591e-17
1.12196e-17
1.54633e-17
1.77942e-17
)
;

boundaryField
{
    fuel
    {
        type            fixedValue;
        value           uniform 0;
    }
    wall
    {
        type            zeroGradient;
    }
    outlet
    {
        type            zeroGradient;
    }
    frontAndBack
    {
        type            empty;
    }
}


// ************************************************************************* //
