/*--------------------------------*- C++ -*----------------------------------*\
| =========                 |                                                 |
| \\      /  F ield         | OpenFOAM: The Open Source CFD Toolbox           |
|  \\    /   O peration     | Version:  dev                                   |
|   \\  /    A nd           | Web:      www.OpenFOAM.org                      |
|    \\/     M anipulation  |                                                 |
\*---------------------------------------------------------------------------*/
FoamFile
{
    version     2.0;
    format      ascii;
    class       volScalarField;
    location    "0.2";
    object      A2C2H2;
}
// * * * * * * * * * * * * * * * * * * * * * * * * * * * * * * * * * * * * * //

dimensions      [0 0 0 0 0 0 0];

internalField   nonuniform List<scalar> 
1000
(
4.18502e-11
1.37284e-11
1.01557e-11
9.70416e-12
9.64824e-12
9.6428e-12
9.6409e-12
9.64142e-12
9.64214e-12
9.64195e-12
9.64189e-12
9.64201e-12
9.64237e-12
9.64215e-12
9.64228e-12
9.65263e-12
9.68904e-12
9.98725e-12
1.16325e-11
3.99899e-11
1.43401e-10
5.72537e-12
3.23678e-12
2.98588e-12
2.95567e-12
2.9528e-12
2.95189e-12
2.95208e-12
2.95242e-12
2.95224e-12
2.95238e-12
2.9524e-12
2.95236e-12
2.953e-12
2.95174e-12
2.95992e-12
2.97631e-12
3.15178e-12
4.16097e-12
1.29525e-10
2.34665e-10
2.64398e-12
1.11119e-12
9.83467e-13
9.68114e-13
9.66643e-13
9.6624e-13
9.66235e-13
9.66483e-13
9.66319e-13
9.66459e-13
9.6652e-13
9.66394e-13
9.67028e-13
9.65842e-13
9.71635e-13
9.77216e-13
1.07524e-12
1.59321e-12
5.02191e-11
2.30462e-10
1.54974e-12
4.88867e-13
4.1394e-13
4.0491e-13
4.04013e-13
4.03757e-13
4.0373e-13
4.03913e-13
4.03787e-13
4.03898e-13
4.03982e-13
4.03874e-13
4.04268e-13
4.03533e-13
4.07496e-13
4.09644e-13
4.70988e-13
7.70671e-13
6.48241e-12
1.29823e-10
1.07495e-12
2.69746e-13
2.18778e-13
2.12642e-13
2.12003e-13
2.11755e-13
2.11776e-13
2.11916e-13
2.11819e-13
2.11914e-13
2.11996e-13
2.11914e-13
2.12086e-13
2.11731e-13
2.14515e-13
2.15675e-13
2.592e-13
4.62905e-13
5.30195e-12
4.0508e-11
8.30958e-13
1.76367e-13
1.37432e-13
1.32766e-13
1.32253e-13
1.31938e-13
1.32054e-13
1.32161e-13
1.32085e-13
1.32172e-13
1.32245e-13
1.3218e-13
1.32169e-13
1.32095e-13
1.34153e-13
1.35063e-13
1.6525e-13
3.22302e-13
3.2008e-12
1.03627e-11
6.93594e-13
1.30221e-13
9.77907e-14
9.39052e-14
9.34446e-14
9.30167e-14
9.324e-14
9.33276e-14
9.32522e-14
9.33523e-14
9.34166e-14
9.33595e-14
9.31516e-14
9.33486e-14
9.49822e-14
9.58825e-14
1.20359e-13
2.45274e-13
2.19626e-12
4.51471e-12
6.03449e-13
1.02244e-13
7.61457e-14
7.24725e-14
7.20235e-14
7.15718e-14
7.18091e-14
7.18737e-14
7.18046e-14
7.19054e-14
7.19618e-14
7.19067e-14
7.16713e-14
7.19584e-14
7.339e-14
7.45075e-14
9.39306e-14
2.02096e-13
1.91369e-12
3.1916e-12
5.33684e-13
8.6477e-14
6.13827e-14
5.88732e-14
5.86267e-14
5.86407e-14
5.85161e-14
5.85613e-14
5.8495e-14
5.85964e-14
5.86458e-14
5.85895e-14
5.87124e-14
5.85745e-14
5.93995e-14
6.00866e-14
7.83974e-14
1.77173e-13
1.94269e-12
2.24304e-12
4.73349e-13
7.46935e-14
5.29343e-14
5.03606e-14
5.00493e-14
5.01413e-14
4.99249e-14
4.99427e-14
4.98706e-14
4.99884e-14
5.00352e-14
4.9957e-14
5.01922e-14
4.99997e-14
5.08816e-14
5.17519e-14
6.72123e-14
1.59103e-13
2.07451e-12
1.45251e-12
4.1826e-13
6.58267e-14
4.65099e-14
4.39688e-14
4.36643e-14
4.36535e-14
4.35414e-14
4.35504e-14
4.34986e-14
4.35859e-14
4.36248e-14
4.35319e-14
4.3603e-14
4.36216e-14
4.43826e-14
4.54272e-14
5.9367e-14
1.46316e-13
2.19644e-12
1.06544e-12
3.67099e-13
5.96872e-14
4.16529e-14
3.92384e-14
3.89368e-14
3.89302e-14
3.88221e-14
3.88299e-14
3.88088e-14
3.88488e-14
3.88815e-14
3.87612e-14
3.92588e-14
3.88947e-14
3.9577e-14
4.06807e-14
5.34291e-14
1.35192e-13
2.2524e-12
8.27465e-13
3.19649e-13
5.41061e-14
3.78261e-14
3.55175e-14
3.52185e-14
3.54915e-14
3.511e-14
3.51275e-14
3.51389e-14
3.51239e-14
3.51517e-14
3.49859e-14
3.5437e-14
3.51704e-14
3.57996e-14
3.69409e-14
4.85955e-14
1.25209e-13
2.22551e-12
6.43322e-13
2.76307e-13
4.96879e-14
3.46687e-14
3.24502e-14
3.21506e-14
3.2277e-14
3.20424e-14
3.20807e-14
3.2111e-14
3.20522e-14
3.20771e-14
3.18396e-14
3.22485e-14
3.20967e-14
3.26894e-14
3.38571e-14
4.52646e-14
1.1587e-13
2.12107e-12
5.06582e-13
2.33603e-13
4.55541e-14
3.19606e-14
2.98296e-14
2.95297e-14
2.95702e-14
2.94113e-14
2.94788e-14
2.95094e-14
2.9427e-14
2.94515e-14
2.94779e-14
2.95584e-14
2.94698e-14
3.0035e-14
3.12138e-14
4.22849e-14
1.07558e-13
1.95838e-12
4.05275e-13
1.92563e-13
4.15507e-14
2.95677e-14
2.75291e-14
2.7231e-14
2.72261e-14
2.70896e-14
2.71934e-14
2.7212e-14
2.71229e-14
2.71473e-14
2.71498e-14
2.72175e-14
2.71649e-14
2.77067e-14
2.88793e-14
3.93188e-14
9.95654e-14
1.75939e-12
3.25901e-13
1.61724e-13
3.79339e-14
2.7407e-14
2.54687e-14
2.51749e-14
2.5146e-14
2.49956e-14
2.51442e-14
2.51466e-14
2.50609e-14
2.50853e-14
2.50633e-14
2.51354e-14
2.51029e-14
2.56223e-14
2.6773e-14
3.66007e-14
9.1456e-14
1.5468e-12
2.6141e-13
1.35175e-13
3.46467e-14
2.5422e-14
2.35961e-14
2.33096e-14
2.32684e-14
2.30735e-14
2.32801e-14
2.32674e-14
2.31898e-14
2.32137e-14
2.31634e-14
2.32535e-14
2.32323e-14
2.37287e-14
2.48429e-14
3.4033e-14
8.36424e-14
1.34043e-12
2.08769e-13
1.12611e-13
3.16529e-14
2.35685e-14
2.18763e-14
2.15999e-14
2.15547e-14
2.15176e-14
2.15681e-14
2.15431e-14
2.14752e-14
2.14976e-14
2.14126e-14
2.15331e-14
2.15182e-14
2.19904e-14
2.30544e-14
3.20577e-14
7.62421e-14
1.1213e-12
1.66573e-13
9.37325e-14
2.89277e-14
2.18101e-14
2.02844e-14
2.00214e-14
1.99751e-14
1.99044e-14
1.99843e-14
1.9951e-14
1.98929e-14
1.99132e-14
1.97862e-14
1.99482e-14
1.99367e-14
2.03825e-14
2.13791e-14
2.99894e-14
6.93046e-14
9.45193e-13
1.33491e-13
7.8146e-14
2.64525e-14
2.03591e-14
1.88019e-14
1.85557e-14
1.85105e-14
1.83964e-14
1.85123e-14
1.84737e-14
1.84251e-14
1.84433e-14
1.84645e-14
1.84808e-14
1.84697e-14
1.88858e-14
1.99721e-14
2.79109e-14
6.28222e-14
7.77503e-13
1.07921e-13
6.45052e-14
2.42023e-14
1.89259e-14
1.74118e-14
1.71879e-14
1.71466e-14
1.71542e-14
1.71389e-14
1.70968e-14
1.70573e-14
1.70739e-14
1.71116e-14
1.71121e-14
1.71031e-14
1.74815e-14
1.85756e-14
2.5937e-14
5.681e-14
6.41189e-13
8.82753e-14
5.32752e-14
2.21634e-14
1.76829e-14
1.6261e-14
1.60662e-14
1.6028e-14
1.60203e-14
1.60125e-14
1.59688e-14
1.59364e-14
1.59555e-14
1.59967e-14
1.59932e-14
1.59808e-14
1.63438e-14
1.73646e-14
2.40582e-14
5.12739e-14
5.16952e-13
7.31298e-14
4.53068e-14
2.03104e-14
1.64946e-14
1.5203e-14
1.49464e-14
1.49107e-14
1.48874e-14
1.48885e-14
1.48406e-14
1.4815e-14
1.48404e-14
1.48724e-14
1.48722e-14
1.48621e-14
1.52014e-14
1.61736e-14
2.22578e-14
4.62051e-14
4.17653e-13
6.13585e-14
3.88959e-14
1.88222e-14
1.54443e-14
1.42382e-14
1.40035e-14
1.39703e-14
1.39381e-14
1.39432e-14
1.38957e-14
1.38756e-14
1.39048e-14
1.39252e-14
1.39313e-14
1.39218e-14
1.42392e-14
1.51442e-14
2.05143e-14
4.1589e-14
3.35652e-13
5.21559e-14
3.38044e-14
1.74508e-14
1.44944e-14
1.33661e-14
1.31551e-14
1.31244e-14
1.30863e-14
1.30939e-14
1.3048e-14
1.30322e-14
1.30617e-14
1.3073e-14
1.30852e-14
1.3077e-14
1.33721e-14
1.42081e-14
1.91251e-14
3.74137e-14
2.68939e-13
4.49528e-14
2.97922e-14
1.62746e-14
1.36417e-14
1.25939e-14
1.24033e-14
1.23748e-14
1.23338e-14
1.23423e-14
1.22993e-14
1.22873e-14
1.23141e-14
1.232e-14
1.23365e-14
1.23303e-14
1.26016e-14
1.33736e-14
1.78395e-14
3.36561e-14
2.13913e-13
3.93251e-14
2.63738e-14
1.52503e-14
1.28904e-14
1.19254e-14
1.17527e-14
1.17259e-14
1.16851e-14
1.1693e-14
1.16543e-14
1.16454e-14
1.16679e-14
1.16713e-14
1.16896e-14
1.1686e-14
1.19324e-14
1.26457e-14
1.66684e-14
3.03033e-14
1.69184e-13
3.49329e-14
2.34562e-14
1.43776e-14
1.22479e-14
1.13679e-14
1.12105e-14
1.11854e-14
1.11474e-14
1.11532e-14
1.11204e-14
1.11138e-14
1.11311e-14
1.11342e-14
1.11519e-14
1.11512e-14
1.13715e-14
1.20306e-14
1.56245e-14
2.73417e-14
1.36075e-13
3.15345e-14
2.13996e-14
1.36609e-14
1.17234e-14
1.09309e-14
1.07863e-14
1.07628e-14
1.07303e-14
1.07325e-14
1.07071e-14
1.07019e-14
1.07138e-14
1.07179e-14
1.07329e-14
1.07354e-14
1.09289e-14
1.15375e-14
1.47222e-14
2.49145e-14
1.08745e-13
2.89152e-14
1.97771e-14
1.31053e-14
1.13275e-14
1.06249e-14
1.04908e-14
1.04683e-14
1.04441e-14
1.04411e-14
1.04248e-14
1.04203e-14
1.04261e-14
1.04327e-14
1.04432e-14
1.04492e-14
1.06156e-14
1.11765e-14
1.3975e-14
2.28266e-14
8.51629e-14
2.6903e-14
1.85206e-14
1.27156e-14
1.1069e-14
1.04587e-14
1.03325e-14
1.03098e-14
1.02967e-14
1.02873e-14
1.02812e-14
1.02766e-14
1.02751e-14
1.02862e-14
1.02909e-14
1.03004e-14
1.04404e-14
1.09553e-14
1.33946e-14
2.10705e-14
6.94537e-14
2.53581e-14
1.75734e-14
1.24639e-14
1.09522e-14
1.04214e-14
1.03044e-14
1.02859e-14
1.02787e-14
1.02633e-14
1.02671e-14
1.02624e-14
1.02586e-14
1.02694e-14
1.02688e-14
1.02817e-14
1.03969e-14
1.08723e-14
1.29874e-14
1.96129e-14
5.65799e-14
2.41591e-14
1.68814e-14
1.23501e-14
1.09654e-14
1.05068e-14
1.03983e-14
1.03805e-14
1.03811e-14
1.03606e-14
1.03725e-14
1.03675e-14
1.03595e-14
1.03728e-14
1.03677e-14
1.03831e-14
1.04782e-14
1.09109e-14
1.26998e-14
1.83396e-14
4.68834e-14
2.31917e-14
1.6383e-14
1.23465e-14
1.1077e-14
1.06753e-14
1.05749e-14
1.05575e-14
1.05623e-14
1.05395e-14
1.0556e-14
1.05509e-14
1.05407e-14
1.0555e-14
1.0548e-14
1.05644e-14
1.06459e-14
1.10347e-14
1.2565e-14
1.73291e-14
3.92989e-14
2.23446e-14
1.60041e-14
1.23837e-14
1.12365e-14
1.08738e-14
1.07811e-14
1.07639e-14
1.07679e-14
1.07466e-14
1.07628e-14
1.07582e-14
1.07485e-14
1.07615e-14
1.07561e-14
1.07716e-14
1.0847e-14
1.11902e-14
1.25042e-14
1.64572e-14
3.33287e-14
2.15172e-14
1.56664e-14
1.23991e-14
1.13835e-14
1.10429e-14
1.09571e-14
1.09403e-14
1.09385e-14
1.09229e-14
1.09336e-14
1.09301e-14
1.09235e-14
1.09327e-14
1.09323e-14
1.09452e-14
1.10215e-14
1.13177e-14
1.24574e-14
1.5665e-14
2.85858e-14
2.06312e-14
1.53007e-14
1.23418e-14
1.14646e-14
1.11341e-14
1.10548e-14
1.10385e-14
1.10271e-14
1.10204e-14
1.10218e-14
1.10203e-14
1.10186e-14
1.10222e-14
1.10292e-14
1.10383e-14
1.11196e-14
1.13698e-14
1.237e-14
1.49108e-14
2.4776e-14
1.96523e-14
1.48668e-14
1.21916e-14
1.14531e-14
1.11276e-14
1.10545e-14
1.10391e-14
1.1017e-14
1.10201e-14
1.10109e-14
1.10118e-14
1.10156e-14
1.10129e-14
1.10278e-14
1.10328e-14
1.11204e-14
1.1328e-14
1.22129e-14
1.418e-14
2.16961e-14
1.86112e-14
1.43749e-14
1.1969e-14
1.13622e-14
1.10435e-14
1.09754e-14
1.09613e-14
1.09294e-14
1.09415e-14
1.09227e-14
1.09251e-14
1.0934e-14
1.09254e-14
1.09477e-14
1.09484e-14
1.10429e-14
1.12109e-14
1.19995e-14
1.34882e-14
1.92236e-14
1.75868e-14
1.38782e-14
1.1731e-14
1.12435e-14
1.09384e-14
1.0871e-14
1.08585e-14
1.08192e-14
1.08383e-14
1.08121e-14
1.08157e-14
1.08283e-14
1.08152e-14
1.08429e-14
1.08402e-14
1.09409e-14
1.10768e-14
1.17737e-14
1.28888e-14
1.72724e-14
1.66928e-14
1.34646e-14
1.1559e-14
1.1164e-14
1.08697e-14
1.08187e-14
1.0808e-14
1.07636e-14
1.07876e-14
1.07565e-14
1.07609e-14
1.07757e-14
1.07596e-14
1.07906e-14
1.07857e-14
1.08759e-14
1.09847e-14
1.16105e-14
1.24323e-14
1.58148e-14
1.60583e-14
1.32422e-14
1.15492e-14
1.12328e-14
1.09549e-14
1.09098e-14
1.09011e-14
1.0853e-14
1.08803e-14
1.08458e-14
1.08509e-14
1.08669e-14
1.0849e-14
1.08817e-14
1.08757e-14
1.09597e-14
1.10506e-14
1.16056e-14
1.22231e-14
1.486e-14
1.58182e-14
1.33333e-14
1.18078e-14
1.1555e-14
1.12887e-14
1.12471e-14
1.12403e-14
1.11877e-14
1.1219e-14
1.11803e-14
1.11863e-14
1.12036e-14
1.11838e-14
1.12186e-14
1.12115e-14
1.12898e-14
1.13691e-14
1.18701e-14
1.2342e-14
1.44499e-14
1.61223e-14
1.38835e-14
1.2461e-14
1.2263e-14
1.19948e-14
1.19544e-14
1.19493e-14
1.18888e-14
1.19273e-14
1.18801e-14
1.1888e-14
1.19085e-14
1.18849e-14
1.19242e-14
1.19151e-14
1.19929e-14
1.20633e-14
1.25398e-14
1.29017e-14
1.4671e-14
1.72118e-14
1.51331e-14
1.37371e-14
1.35897e-14
1.33019e-14
1.32599e-14
1.32566e-14
1.31828e-14
1.32336e-14
1.31718e-14
1.31828e-14
1.3209e-14
1.31791e-14
1.32264e-14
1.32138e-14
1.32975e-14
1.33604e-14
1.38485e-14
1.41196e-14
1.57202e-14
1.9991e-14
1.79343e-14
1.64997e-14
1.63827e-14
1.60706e-14
1.60216e-14
1.60217e-14
1.59323e-14
1.59957e-14
1.59188e-14
1.59341e-14
1.59641e-14
1.59297e-14
1.59833e-14
1.59703e-14
1.6056e-14
1.61245e-14
1.663e-14
1.68633e-14
1.84067e-14
2.80176e-14
2.54878e-14
2.36687e-14
2.35433e-14
2.3123e-14
2.30442e-14
2.30522e-14
2.29085e-14
2.3021e-14
2.28837e-14
2.29168e-14
2.29627e-14
2.29132e-14
2.29876e-14
2.29763e-14
2.30787e-14
2.31967e-14
2.38269e-14
2.416e-14
2.59911e-14
5.71284e-14
5.22267e-14
4.88639e-14
4.85205e-14
4.77759e-14
4.75544e-14
4.76081e-14
4.72651e-14
4.75603e-14
4.71941e-14
4.73089e-14
4.73903e-14
4.73194e-14
4.74267e-14
4.74682e-14
4.75549e-14
4.7986e-14
4.88974e-14
5.00233e-14
5.30538e-14
2.38334e-13
2.13596e-13
1.87297e-13
1.87567e-13
1.79466e-13
1.78062e-13
1.78264e-13
1.74505e-13
1.78658e-13
1.73555e-13
1.75018e-13
1.76539e-13
1.75168e-13
1.76837e-13
1.76594e-13
1.78534e-13
1.81058e-13
1.90988e-13
1.96093e-13
2.18804e-13
)
;

boundaryField
{
    fuel
    {
        type            fixedValue;
        value           uniform 0;
    }
    wall
    {
        type            zeroGradient;
    }
    outlet
    {
        type            zeroGradient;
    }
    frontAndBack
    {
        type            empty;
    }
}


// ************************************************************************* //
