/*--------------------------------*- C++ -*----------------------------------*\
| =========                 |                                                 |
| \\      /  F ield         | OpenFOAM: The Open Source CFD Toolbox           |
|  \\    /   O peration     | Version:  dev                                   |
|   \\  /    A nd           | Web:      www.OpenFOAM.org                      |
|    \\/     M anipulation  |                                                 |
\*---------------------------------------------------------------------------*/
FoamFile
{
    version     2.0;
    format      ascii;
    class       volScalarField;
    location    "0.2";
    object      A2C2HB;
}
// * * * * * * * * * * * * * * * * * * * * * * * * * * * * * * * * * * * * * //

dimensions      [0 0 0 0 0 0 0];

internalField   nonuniform List<scalar> 
1000
(
1.93788e-09
7.95071e-08
6.28912e-08
6.05654e-08
6.02621e-08
6.02312e-08
6.02225e-08
6.02212e-08
6.023e-08
6.0226e-08
6.02278e-08
6.02292e-08
6.02336e-08
6.023e-08
6.02333e-08
6.03033e-08
6.04653e-08
6.21436e-08
6.90092e-08
2.72462e-09
4.05759e-09
8.9357e-08
5.43074e-08
5.04162e-08
4.99352e-08
4.9888e-08
4.98736e-08
4.98745e-08
4.98829e-08
4.98787e-08
4.98819e-08
4.98829e-08
4.98851e-08
4.98871e-08
4.98799e-08
5.00008e-08
5.02587e-08
5.30242e-08
6.66022e-08
6.19451e-09
5.20179e-09
7.40853e-08
3.56997e-08
3.19027e-08
3.14384e-08
3.13924e-08
3.13788e-08
3.13783e-08
3.13872e-08
3.13819e-08
3.13868e-08
3.13888e-08
3.1388e-08
3.13962e-08
3.13797e-08
3.15259e-08
3.17261e-08
3.45629e-08
4.72246e-08
8.76663e-09
5.85871e-09
6.25566e-08
2.42514e-08
2.07501e-08
2.03271e-08
2.02842e-08
2.02703e-08
2.02699e-08
2.02789e-08
2.02732e-08
2.0279e-08
2.02823e-08
2.02799e-08
2.02882e-08
2.02716e-08
2.04247e-08
2.05688e-08
2.32738e-08
3.40869e-08
1.44094e-08
6.32755e-09
5.53324e-08
1.74907e-08
1.42347e-08
1.38491e-08
1.38091e-08
1.37917e-08
1.37947e-08
1.38035e-08
1.37978e-08
1.38042e-08
1.38083e-08
1.38052e-08
1.38084e-08
1.37985e-08
1.39483e-08
1.40562e-08
1.66252e-08
2.61997e-08
3.76991e-08
6.74894e-09
5.06572e-08
1.32625e-08
1.01937e-08
9.84008e-09
9.80236e-09
9.77699e-09
9.78808e-09
9.79611e-09
9.79081e-09
9.79731e-09
9.80186e-09
9.79851e-09
9.79242e-09
9.79414e-09
9.93554e-09
1.00223e-08
1.22545e-08
2.13931e-08
5.21723e-08
7.19871e-09
4.73268e-08
1.04777e-08
7.5521e-09
7.22319e-09
7.18636e-09
7.1483e-09
7.17073e-09
7.17807e-09
7.17232e-09
7.18002e-09
7.18458e-09
7.18116e-09
7.15967e-09
7.18011e-09
7.31349e-09
7.39019e-09
9.45355e-09
1.80744e-08
5.99864e-08
7.70897e-09
4.461e-08
8.37169e-09
5.77134e-09
5.44137e-09
5.40401e-09
5.36089e-09
5.38687e-09
5.39281e-09
5.38726e-09
5.39505e-09
5.39939e-09
5.39595e-09
5.37075e-09
5.39907e-09
5.52951e-09
5.61751e-09
7.39941e-09
1.5854e-08
7.02586e-08
8.26059e-09
4.20722e-08
6.98468e-09
4.36047e-09
4.13584e-09
4.11846e-09
4.12139e-09
4.11154e-09
4.11603e-09
4.11052e-09
4.11825e-09
4.12218e-09
4.11886e-09
4.12951e-09
4.11414e-09
4.19226e-09
4.23119e-09
5.99284e-09
1.4378e-08
8.12414e-08
8.80289e-09
3.94651e-08
5.83518e-09
3.47968e-09
3.24927e-09
3.22604e-09
3.23918e-09
3.21801e-09
3.21989e-09
3.21336e-09
3.22305e-09
3.22684e-09
3.22183e-09
3.24563e-09
3.22189e-09
3.30744e-09
3.35957e-09
4.86579e-09
1.31629e-08
8.93353e-08
9.27983e-09
3.66733e-08
4.91781e-09
2.78831e-09
2.56555e-09
2.54421e-09
2.5475e-09
2.53664e-09
2.53761e-09
2.53286e-09
2.53979e-09
2.54277e-09
2.53726e-09
2.54349e-09
2.54108e-09
2.61235e-09
2.67955e-09
4.02683e-09
1.2194e-08
9.24161e-08
9.64388e-09
3.36745e-08
4.26907e-09
2.27354e-09
2.07048e-09
2.0506e-09
2.05426e-09
2.04434e-09
2.04485e-09
2.04299e-09
2.04571e-09
2.04798e-09
2.04099e-09
2.0891e-09
2.04804e-09
2.10796e-09
2.17945e-09
3.38265e-09
1.12737e-08
9.03838e-08
9.86452e-09
3.05118e-08
3.68551e-09
1.88943e-09
1.70453e-09
1.68604e-09
1.71637e-09
1.68108e-09
1.68179e-09
1.68293e-09
1.68107e-09
1.68275e-09
1.67273e-09
1.71348e-09
1.68346e-09
1.73434e-09
1.80841e-09
2.87003e-09
1.04018e-08
8.45157e-08
9.92861e-09
2.72759e-08
3.2348e-09
1.59803e-09
1.42932e-09
1.41177e-09
1.42749e-09
1.40775e-09
1.40929e-09
1.41226e-09
1.40706e-09
1.40831e-09
1.39281e-09
1.42666e-09
1.40922e-09
1.453e-09
1.52882e-09
2.53116e-09
9.56736e-09
7.64957e-08
9.8379e-09
2.37369e-08
2.82896e-09
1.37256e-09
1.21894e-09
1.20217e-09
1.20924e-09
1.19838e-09
1.20111e-09
1.20435e-09
1.19768e-09
1.19874e-09
1.20338e-09
1.20975e-09
1.19962e-09
1.23779e-09
1.314e-09
2.24828e-09
8.82146e-09
6.79268e-08
9.61594e-09
1.99965e-08
2.45341e-09
1.19459e-09
1.0554e-09
1.03941e-09
1.04193e-09
1.03505e-09
1.0392e-09
1.04173e-09
1.03504e-09
1.03597e-09
1.0386e-09
1.04263e-09
1.03683e-09
1.07045e-09
1.14557e-09
1.99071e-09
8.11104e-09
5.98083e-08
9.29554e-09
1.69759e-08
2.13077e-09
1.05153e-09
9.26119e-10
9.10953e-10
9.11132e-10
9.05162e-10
9.11062e-10
9.1258e-10
9.06625e-10
9.07467e-10
9.08481e-10
9.11626e-10
9.08339e-10
9.38141e-10
1.01099e-09
1.77525e-09
7.39898e-09
5.26917e-08
8.89504e-09
1.42152e-08
1.85285e-09
9.34425e-10
8.22221e-10
8.07932e-10
8.06933e-10
7.99645e-10
8.0798e-10
8.08605e-10
8.03617e-10
8.04385e-10
8.03907e-10
8.07129e-10
8.0529e-10
8.31828e-10
9.01524e-10
1.58926e-09
6.71789e-09
4.67949e-08
8.42237e-09
1.17503e-08
1.61369e-09
8.36693e-10
7.3744e-10
7.2407e-10
7.22585e-10
7.23101e-10
7.23863e-10
7.23825e-10
7.19777e-10
7.20461e-10
7.18415e-10
7.2241e-10
7.21423e-10
7.45114e-10
8.10994e-10
1.45645e-09
6.07556e-09
4.13173e-08
7.88417e-09
9.60594e-09
1.40859e-09
7.53312e-10
6.6731e-10
6.54891e-10
6.53203e-10
6.52438e-10
6.54321e-10
6.53887e-10
6.50654e-10
6.51241e-10
6.47385e-10
6.52761e-10
6.52275e-10
6.73432e-10
7.34722e-10
1.32864e-09
5.47388e-09
3.7218e-08
7.28832e-09
7.7836e-09
1.2336e-09
6.90476e-10
6.08625e-10
5.9718e-10
5.95457e-10
5.93058e-10
5.96242e-10
5.95604e-10
5.93052e-10
5.93549e-10
5.94988e-10
5.94873e-10
5.94645e-10
6.13477e-10
6.76354e-10
1.20997e-09
4.91214e-09
3.34272e-08
6.64603e-09
6.15332e-09
1.08477e-09
6.33988e-10
5.58953e-10
5.4858e-10
5.46963e-10
5.48537e-10
5.47342e-10
5.46619e-10
5.44629e-10
5.4504e-10
5.46756e-10
5.46201e-10
5.46199e-10
5.62704e-10
6.23742e-10
1.10519e-09
4.3912e-09
3.02479e-08
5.98097e-09
4.80039e-09
9.59737e-10
5.89184e-10
5.21507e-10
5.12323e-10
5.10807e-10
5.11773e-10
5.10865e-10
5.10153e-10
5.08557e-10
5.08988e-10
5.10711e-10
5.10033e-10
5.10023e-10
5.25209e-10
5.82007e-10
1.01222e-09
3.91243e-09
2.70944e-08
5.31711e-09
3.84705e-09
8.55426e-10
5.50431e-10
4.90541e-10
4.80047e-10
4.78631e-10
4.79084e-10
4.78421e-10
4.77699e-10
4.76437e-10
4.76965e-10
4.78377e-10
4.77764e-10
4.77897e-10
4.91564e-10
5.44957e-10
9.29267e-10
3.47605e-09
2.42326e-08
4.6761e-09
3.09369e-09
7.78622e-10
5.19768e-10
4.65616e-10
4.56056e-10
4.54744e-10
4.54956e-10
4.54347e-10
4.53771e-10
4.52756e-10
4.53318e-10
4.54375e-10
4.53887e-10
4.54105e-10
4.6644e-10
5.16317e-10
8.54631e-10
3.08235e-09
2.15052e-08
4.07959e-09
2.51454e-09
7.15272e-10
4.95779e-10
4.46579e-10
4.37984e-10
4.36776e-10
4.36907e-10
4.36254e-10
4.35904e-10
4.35077e-10
4.35577e-10
4.36366e-10
4.35959e-10
4.36291e-10
4.47308e-10
4.9396e-10
7.98954e-10
2.73099e-09
1.89018e-08
3.54602e-09
2.08008e-09
6.67807e-10
4.78347e-10
4.33858e-10
4.26064e-10
4.24957e-10
4.25168e-10
4.24371e-10
4.2434e-10
4.23646e-10
4.23996e-10
4.24648e-10
4.24219e-10
4.24692e-10
4.34374e-10
4.78194e-10
7.51966e-10
2.4209e-09
1.63699e-08
3.08662e-09
1.73513e-09
6.33672e-10
4.67922e-10
4.27985e-10
4.20865e-10
4.19864e-10
4.20307e-10
4.19259e-10
4.19658e-10
4.19045e-10
4.1919e-10
4.19817e-10
4.19241e-10
4.19881e-10
4.28184e-10
4.69576e-10
7.14215e-10
2.15174e-09
1.39662e-08
2.70698e-09
1.46681e-09
6.12523e-10
4.65264e-10
4.29796e-10
4.23247e-10
4.22367e-10
4.23186e-10
4.2177e-10
4.22726e-10
4.22149e-10
4.22056e-10
4.22739e-10
4.21888e-10
4.22726e-10
4.29585e-10
4.68925e-10
6.86464e-10
1.92243e-09
1.19271e-08
2.4074e-09
1.29665e-09
6.04446e-10
4.71342e-10
4.40303e-10
4.34234e-10
4.33507e-10
4.34815e-10
4.32921e-10
4.34558e-10
4.33975e-10
4.33631e-10
4.34414e-10
4.33177e-10
4.3425e-10
4.39603e-10
4.77222e-10
6.69607e-10
1.74193e-09
1.00127e-08
2.18153e-09
1.18081e-09
6.0939e-10
4.87092e-10
4.6042e-10
4.54746e-10
4.54214e-10
4.56073e-10
4.53612e-10
4.56028e-10
4.55405e-10
4.54809e-10
4.557e-10
4.54002e-10
4.55352e-10
4.5918e-10
4.95333e-10
6.64362e-10
1.59464e-09
8.15663e-09
2.01989e-09
1.10836e-09
6.26948e-10
5.13025e-10
4.90544e-10
4.85176e-10
4.8488e-10
4.87275e-10
4.84212e-10
4.87442e-10
4.86755e-10
4.85924e-10
4.86894e-10
4.84725e-10
4.86381e-10
4.88769e-10
5.23582e-10
6.70997e-10
1.47876e-09
6.80555e-09
1.91129e-09
1.07023e-09
6.57707e-10
5.48837e-10
5.31425e-10
5.26186e-10
5.24858e-10
5.29264e-10
5.25424e-10
5.29593e-10
5.28694e-10
5.26259e-10
5.28786e-10
5.25986e-10
5.27872e-10
5.29042e-10
5.61262e-10
6.88882e-10
1.3899e-09
5.62003e-09
1.84362e-09
1.05807e-09
6.982e-10
5.92694e-10
5.78282e-10
5.7331e-10
5.72041e-10
5.76887e-10
5.72618e-10
5.77365e-10
5.76397e-10
5.73675e-10
5.7636e-10
5.7327e-10
5.75372e-10
5.75689e-10
6.06206e-10
7.18862e-10
1.32021e-09
4.67965e-09
1.80441e-09
1.06356e-09
7.41302e-10
6.41348e-10
6.28928e-10
6.24202e-10
6.2298e-10
6.27953e-10
6.23498e-10
6.28525e-10
6.27531e-10
6.24692e-10
6.27406e-10
6.24226e-10
6.26428e-10
6.26325e-10
6.54908e-10
7.52912e-10
1.26943e-09
3.91757e-09
1.78149e-09
1.0786e-09
7.84484e-10
6.90522e-10
6.79073e-10
6.74573e-10
6.73378e-10
6.78153e-10
6.73797e-10
6.7876e-10
6.77792e-10
6.75016e-10
6.77617e-10
6.74575e-10
6.76737e-10
6.76672e-10
7.03034e-10
7.88893e-10
1.22895e-09
3.30492e-09
1.76388e-09
1.09563e-09
8.23121e-10
7.35788e-10
7.2449e-10
7.20214e-10
7.19035e-10
7.23337e-10
7.19342e-10
7.23932e-10
7.2304e-10
7.20479e-10
7.22831e-10
7.20132e-10
7.22125e-10
7.2247e-10
7.46358e-10
8.22331e-10
1.19364e-09
2.81399e-09
1.74277e-09
1.10856e-09
8.53731e-10
7.73617e-10
7.62019e-10
7.5799e-10
7.56832e-10
7.60493e-10
7.57039e-10
7.6105e-10
7.60264e-10
7.58018e-10
7.60021e-10
7.57794e-10
7.59529e-10
7.60488e-10
7.81746e-10
8.49563e-10
1.15974e-09
2.42002e-09
1.71237e-09
1.1135e-09
8.74662e-10
8.02145e-10
7.90192e-10
7.86457e-10
7.85338e-10
7.88313e-10
7.85472e-10
7.88829e-10
7.8816e-10
7.8626e-10
7.87874e-10
7.86153e-10
7.87589e-10
7.89177e-10
8.0778e-10
8.68535e-10
1.12519e-09
2.10277e-09
1.67004e-09
1.10902e-09
8.86144e-10
8.2133e-10
8.09276e-10
8.0589e-10
8.04835e-10
8.0718e-10
8.0493e-10
8.07664e-10
8.07107e-10
8.05527e-10
8.06768e-10
8.0551e-10
8.06648e-10
8.08729e-10
8.24775e-10
8.79017e-10
1.08966e-09
1.84585e-09
1.61556e-09
1.09567e-09
8.89786e-10
8.32545e-10
8.20791e-10
8.17804e-10
8.16836e-10
8.18662e-10
8.1692e-10
8.19133e-10
8.18671e-10
8.17353e-10
8.18274e-10
8.17386e-10
8.18262e-10
8.20608e-10
8.34301e-10
8.82241e-10
1.05401e-09
1.63706e-09
1.5505e-09
1.07526e-09
8.87834e-10
8.37928e-10
8.26931e-10
8.2427e-10
8.23405e-10
8.24836e-10
8.23497e-10
8.25309e-10
8.24923e-10
8.23799e-10
8.24468e-10
8.23845e-10
8.24509e-10
8.26987e-10
8.38543e-10
8.80239e-10
1.01923e-09
1.46759e-09
1.47729e-09
1.05005e-09
8.8251e-10
8.39534e-10
8.29555e-10
8.273e-10
8.26547e-10
8.27687e-10
8.26656e-10
8.28173e-10
8.27847e-10
8.26857e-10
8.27339e-10
8.26889e-10
8.2739e-10
8.29743e-10
8.39456e-10
8.75157e-10
9.87388e-10
1.33075e-09
1.39875e-09
1.02221e-09
8.75599e-10
8.39141e-10
8.3036e-10
8.2848e-10
8.2784e-10
8.28764e-10
8.27966e-10
8.29264e-10
8.28989e-10
8.28089e-10
8.28434e-10
8.28089e-10
8.28468e-10
8.30593e-10
8.38708e-10
8.68768e-10
9.59076e-10
1.22119e-09
1.31774e-09
9.93521e-10
8.6831e-10
8.37912e-10
8.30386e-10
8.28838e-10
8.28307e-10
8.29063e-10
8.28448e-10
8.29576e-10
8.29345e-10
8.28508e-10
8.28752e-10
8.2847e-10
8.28755e-10
8.306e-10
8.37338e-10
8.62269e-10
9.34725e-10
1.13445e-09
1.23722e-09
9.65385e-10
8.61341e-10
8.36487e-10
8.30177e-10
8.28917e-10
8.28487e-10
8.29102e-10
8.28639e-10
8.29624e-10
8.29434e-10
8.28645e-10
8.28811e-10
8.28568e-10
8.2878e-10
8.30334e-10
8.35893e-10
8.56306e-10
9.14332e-10
1.06664e-09
1.16035e-09
9.38969e-10
8.55057e-10
8.35142e-10
8.29948e-10
8.2893e-10
8.28591e-10
8.29086e-10
8.28751e-10
8.29612e-10
8.29461e-10
8.2871e-10
8.28815e-10
8.28598e-10
8.2875e-10
8.3003e-10
8.34589e-10
8.51143e-10
8.97649e-10
1.01443e-09
1.09072e-09
9.15419e-10
8.49675e-10
8.33977e-10
8.29755e-10
8.28931e-10
8.28672e-10
8.29065e-10
8.28837e-10
8.29592e-10
8.29477e-10
8.28758e-10
8.28815e-10
8.28614e-10
8.28718e-10
8.29758e-10
8.33492e-10
8.46869e-10
8.844e-10
9.75222e-10
1.03296e-09
8.96142e-10
8.45419e-10
8.33048e-10
8.29607e-10
8.28929e-10
8.28734e-10
8.29047e-10
8.28901e-10
8.29573e-10
8.29487e-10
8.28793e-10
8.28816e-10
8.28626e-10
8.28693e-10
8.29538e-10
8.32632e-10
8.43562e-10
8.74498e-10
9.47336e-10
9.94506e-10
8.8342e-10
8.42684e-10
8.32446e-10
8.29513e-10
8.28926e-10
8.28771e-10
8.29033e-10
8.28939e-10
8.29559e-10
8.29493e-10
8.28814e-10
8.28816e-10
8.28632e-10
8.28675e-10
8.29394e-10
8.3208e-10
8.41458e-10
8.68371e-10
9.30751e-10
)
;

boundaryField
{
    fuel
    {
        type            fixedValue;
        value           uniform 0;
    }
    wall
    {
        type            zeroGradient;
    }
    outlet
    {
        type            zeroGradient;
    }
    frontAndBack
    {
        type            empty;
    }
}


// ************************************************************************* //
