/*--------------------------------*- C++ -*----------------------------------*\
| =========                 |                                                 |
| \\      /  F ield         | OpenFOAM: The Open Source CFD Toolbox           |
|  \\    /   O peration     | Version:  dev                                   |
|   \\  /    A nd           | Web:      www.OpenFOAM.org                      |
|    \\/     M anipulation  |                                                 |
\*---------------------------------------------------------------------------*/
FoamFile
{
    version     2.0;
    format      ascii;
    class       volScalarField;
    location    "0.1";
    object      A2C2HA*;
}
// * * * * * * * * * * * * * * * * * * * * * * * * * * * * * * * * * * * * * //

dimensions      [0 0 0 0 0 0 0];

internalField   nonuniform List<scalar> 
100
(
4.95115e-12
1.31515e-12
3.55285e-13
9.92293e-14
2.86253e-14
9.11181e-15
3.29899e-15
1.44348e-15
7.73137e-16
4.77201e-16
3.27926e-16
2.38894e-16
1.81182e-16
1.40635e-16
1.10382e-16
8.68896e-17
6.82462e-17
5.33312e-17
4.14101e-17
3.19405e-17
2.44849e-17
1.86729e-17
1.41869e-17
1.07534e-17
8.13685e-18
6.18079e-18
4.74377e-18
3.6641e-18
2.85761e-18
2.25787e-18
1.81372e-18
1.49677e-18
1.26646e-18
1.10341e-18
9.93268e-19
9.25557e-19
8.92796e-19
8.89717e-19
9.12573e-19
9.58413e-19
1.02621e-18
1.1142e-18
1.22043e-18
1.33909e-18
1.47237e-18
1.61912e-18
1.77787e-18
1.9355e-18
2.09603e-18
2.25982e-18
2.41594e-18
2.56449e-18
2.70448e-18
2.83595e-18
2.95e-18
3.03988e-18
3.11025e-18
3.15955e-18
3.18671e-18
3.19104e-18
3.17227e-18
3.1305e-18
3.06624e-18
2.98035e-18
2.87403e-18
2.74876e-18
2.60625e-18
2.44824e-18
2.27638e-18
2.09316e-18
1.90186e-18
1.70964e-18
1.5169e-18
1.32647e-18
1.14137e-18
9.61634e-19
7.99709e-19
6.51164e-19
5.15041e-19
4.00386e-19
3.02757e-19
2.22913e-19
1.59174e-19
1.09488e-19
7.20826e-20
4.64354e-20
2.87941e-20
1.72063e-20
9.92604e-21
5.54723e-21
3.0162e-21
1.60255e-21
8.32117e-22
4.18497e-22
1.99554e-22
8.75683e-23
3.4696e-23
1.2756e-23
4.74191e-24
1.70384e-24
)
;

boundaryField
{
    wall
    {
        type            zeroGradient;
    }
    fuel
    {
        type            fixedValue;
        value           uniform 0;
    }
    outlet
    {
        type            inletOutlet;
        inletValue      uniform 0;
        value           uniform 1.70384e-24;
    }
}


// ************************************************************************* //
