/*--------------------------------*- C++ -*----------------------------------*\
| =========                 |                                                 |
| \\      /  F ield         | OpenFOAM: The Open Source CFD Toolbox           |
|  \\    /   O peration     | Version:  dev                                   |
|   \\  /    A nd           | Web:      www.OpenFOAM.org                      |
|    \\/     M anipulation  |                                                 |
\*---------------------------------------------------------------------------*/
FoamFile
{
    version     2.0;
    format      ascii;
    class       volScalarField;
    location    "0.2";
    object      A2C2H2;
}
// * * * * * * * * * * * * * * * * * * * * * * * * * * * * * * * * * * * * * //

dimensions      [0 0 0 0 0 0 0];

internalField   nonuniform List<scalar> 
1000
(
4.19092e-11
1.12611e-11
9.81198e-12
9.51825e-12
9.48593e-12
9.47399e-12
9.47473e-12
9.47508e-12
9.47554e-12
9.47502e-12
9.47439e-12
9.47498e-12
9.47523e-12
9.47408e-12
9.47524e-12
9.48044e-12
9.53208e-12
9.97711e-12
1.37308e-11
4.32411e-11
1.40938e-10
4.11454e-12
3.18675e-12
2.9986e-12
2.98448e-12
2.97558e-12
2.97654e-12
2.97621e-12
2.97641e-12
2.97628e-12
2.97592e-12
2.97619e-12
2.97616e-12
2.97573e-12
2.97637e-12
2.97918e-12
3.00849e-12
3.26967e-12
6.13641e-12
1.45664e-10
2.98405e-11
1.55817e-12
1.10095e-12
9.92274e-13
9.88125e-13
9.81685e-13
9.8266e-13
9.82149e-13
9.82338e-13
9.82204e-13
9.82048e-13
9.82211e-13
9.82099e-13
9.81976e-13
9.82264e-13
9.83786e-13
9.98845e-13
1.13344e-12
2.9536e-12
2.26621e-10
5.94975e-12
7.46537e-13
4.85962e-13
4.17609e-13
4.1633e-13
4.11762e-13
4.12516e-13
4.12104e-13
4.12271e-13
4.12141e-13
4.12088e-13
4.12183e-13
4.12073e-13
4.12e-13
4.12194e-13
4.13151e-13
4.22051e-13
5.01261e-13
1.77863e-12
2.08244e-10
2.27489e-12
4.44445e-13
2.68675e-13
2.20421e-13
2.19861e-13
2.16541e-13
2.17032e-13
2.16784e-13
2.16919e-13
2.16803e-13
2.168e-13
2.16856e-13
2.16753e-13
2.1666e-13
2.16856e-13
2.1755e-13
2.23621e-13
2.77248e-13
1.25161e-12
1.12118e-10
1.22847e-12
3.0878e-13
1.71149e-13
1.381e-13
1.37625e-13
1.35118e-13
1.35374e-13
1.35284e-13
1.35389e-13
1.35286e-13
1.35309e-13
1.35344e-13
1.35248e-13
1.35126e-13
1.35344e-13
1.35908e-13
1.40557e-13
1.80947e-13
9.70864e-13
3.77772e-11
9.6337e-13
2.34894e-13
1.24412e-13
9.79536e-14
9.73412e-14
9.53721e-14
9.5463e-14
9.54776e-14
9.5564e-14
9.54605e-14
9.55084e-14
9.55317e-14
9.54285e-14
9.52622e-14
9.55355e-14
9.60292e-14
9.9948e-14
1.32751e-13
8.0304e-13
1.21315e-11
9.50192e-13
1.93597e-13
9.80495e-14
7.57824e-14
7.50505e-14
7.34786e-14
7.35153e-14
7.35447e-14
7.36163e-14
7.35251e-14
7.35765e-14
7.35924e-14
7.34984e-14
7.33785e-14
7.36034e-14
7.40313e-14
7.74851e-14
1.05733e-13
6.86601e-13
5.44795e-12
1.05094e-12
1.69997e-13
8.11607e-14
6.18699e-14
6.15508e-14
6.03155e-14
6.04095e-14
6.03567e-14
6.04213e-14
6.03488e-14
6.03911e-14
6.04024e-14
6.03234e-14
6.03011e-14
6.04222e-14
6.0756e-14
6.32091e-14
8.7891e-14
5.94506e-13
3.43848e-12
1.21707e-12
1.53512e-13
6.93593e-14
5.29832e-14
5.2284e-14
5.11562e-14
5.13015e-14
5.11665e-14
5.12282e-14
5.11651e-14
5.12073e-14
5.12165e-14
5.11273e-14
5.12217e-14
5.12543e-14
5.1605e-14
5.42329e-14
7.49576e-14
5.15309e-13
2.07143e-12
1.41175e-12
1.41939e-13
6.11226e-14
4.63907e-14
4.55577e-14
4.46071e-14
4.47114e-14
4.45952e-14
4.46538e-14
4.45969e-14
4.46393e-14
4.46471e-14
4.45398e-14
4.4648e-14
4.46948e-14
4.50314e-14
4.74809e-14
6.65735e-14
4.4467e-13
1.23198e-12
1.59503e-12
1.3197e-13
5.49143e-14
4.14969e-14
4.05742e-14
3.97315e-14
3.9762e-14
3.97022e-14
3.97622e-14
3.97097e-14
3.97514e-14
3.97594e-14
3.96207e-14
3.96773e-14
3.98163e-14
4.01489e-14
4.24761e-14
5.96179e-14
3.80927e-13
8.08801e-13
1.72876e-12
1.23016e-13
4.98436e-14
3.7634e-14
3.66576e-14
3.58886e-14
3.58223e-14
3.58423e-14
3.59068e-14
3.58624e-14
3.58981e-14
3.59076e-14
3.57224e-14
3.62013e-14
3.59761e-14
3.63039e-14
3.85258e-14
5.35317e-14
3.23745e-13
5.63373e-13
1.78727e-12
1.1451e-13
4.64174e-14
3.44356e-14
3.34259e-14
3.27143e-14
3.29657e-14
3.26476e-14
3.27194e-14
3.26843e-14
3.27118e-14
3.27243e-14
3.24649e-14
3.29412e-14
3.27995e-14
3.3126e-14
3.52556e-14
4.89309e-14
2.69256e-13
4.12389e-13
1.76417e-12
1.06641e-13
4.32257e-14
3.16844e-14
3.06583e-14
2.99899e-14
3.02003e-14
2.99007e-14
2.99862e-14
2.99587e-14
2.9979e-14
2.99968e-14
3.00119e-14
3.01482e-14
3.00748e-14
3.04012e-14
3.24441e-14
4.43513e-14
2.1802e-13
3.17947e-13
1.67049e-12
9.89014e-14
4.01208e-14
2.92493e-14
2.82228e-14
2.75892e-14
2.77478e-14
2.74721e-14
2.75796e-14
2.75569e-14
2.75725e-14
2.75954e-14
2.75832e-14
2.77016e-14
2.76761e-14
2.80015e-14
2.99601e-14
4.02584e-14
1.80143e-13
2.53355e-13
1.52743e-12
9.10521e-14
3.72648e-14
2.70494e-14
2.60375e-14
2.54349e-14
2.55522e-14
2.52797e-14
2.5421e-14
2.54003e-14
2.54135e-14
2.54413e-14
2.53961e-14
2.5521e-14
2.55246e-14
2.58475e-14
2.77217e-14
3.66085e-14
1.47821e-13
2.04594e-13
1.35861e-12
8.33405e-14
3.45425e-14
2.50331e-14
2.40497e-14
2.34772e-14
2.35645e-14
2.32677e-14
2.34602e-14
2.34396e-14
2.34517e-14
2.34839e-14
2.33902e-14
2.35495e-14
2.35698e-14
2.38882e-14
2.56765e-14
3.33455e-14
1.21014e-13
1.66172e-13
1.18489e-12
7.60017e-14
3.24716e-14
2.31662e-14
2.22248e-14
2.16831e-14
2.17517e-14
2.16409e-14
2.16645e-14
2.16424e-14
2.16537e-14
2.16897e-14
2.15189e-14
2.1749e-14
2.17779e-14
2.20897e-14
2.37896e-14
3.04233e-14
9.94297e-14
1.35751e-13
9.88267e-13
6.90557e-14
3.03806e-14
2.14214e-14
2.05383e-14
2.00296e-14
2.00848e-14
1.99577e-14
2.00092e-14
1.99864e-14
1.99965e-14
2.00365e-14
1.99839e-14
2.00947e-14
2.01253e-14
2.04287e-14
2.20361e-14
2.7799e-14
8.06895e-14
1.11812e-13
8.27593e-13
6.25886e-14
2.82094e-14
1.99562e-14
1.89714e-14
1.84999e-14
1.85445e-14
1.8389e-14
1.84775e-14
1.84545e-14
1.84629e-14
1.85065e-14
1.85344e-14
1.85657e-14
1.85946e-14
1.88881e-14
2.03876e-14
2.5446e-14
6.59841e-14
9.30868e-14
6.8848e-13
5.66023e-14
2.61627e-14
1.8523e-14
1.75044e-14
1.70805e-14
1.71154e-14
1.71018e-14
1.70554e-14
1.7033e-14
1.7038e-14
1.70854e-14
1.70982e-14
1.71449e-14
1.71711e-14
1.74539e-14
1.88652e-14
2.33346e-14
5.49857e-14
7.8381e-14
5.5895e-13
5.10825e-14
2.42245e-14
1.72744e-14
1.63251e-14
1.59195e-14
1.5954e-14
1.59325e-14
1.58963e-14
1.58738e-14
1.58698e-14
1.59272e-14
1.59326e-14
1.59855e-14
1.60095e-14
1.62802e-14
1.75954e-14
2.14419e-14
4.62766e-14
6.67523e-14
4.55708e-13
4.60437e-14
2.2374e-14
1.60608e-14
1.51557e-14
1.47756e-14
1.48045e-14
1.47773e-14
1.47497e-14
1.47272e-14
1.47394e-14
1.47848e-14
1.47817e-14
1.48417e-14
1.48628e-14
1.51253e-14
1.63943e-14
1.97353e-14
3.96035e-14
5.74969e-14
3.73964e-13
4.14689e-14
2.05799e-14
1.5016e-14
1.41703e-14
1.38164e-14
1.38417e-14
1.38118e-14
1.37906e-14
1.37695e-14
1.37735e-14
1.3827e-14
1.38187e-14
1.38801e-14
1.38994e-14
1.41474e-14
1.53367e-14
1.83746e-14
3.44764e-14
5.01217e-14
2.96767e-13
3.73286e-14
1.91665e-14
1.40767e-14
1.32877e-14
1.29617e-14
1.29827e-14
1.29522e-14
1.29358e-14
1.29167e-14
1.29186e-14
1.29723e-14
1.29596e-14
1.30215e-14
1.30394e-14
1.32692e-14
1.43839e-14
1.70672e-14
3.04942e-14
4.428e-14
2.30537e-13
3.3606e-14
1.78643e-14
1.32443e-14
1.25099e-14
1.22127e-14
1.22291e-14
1.21995e-14
1.21867e-14
1.217e-14
1.21706e-14
1.22212e-14
1.22059e-14
1.22666e-14
1.22837e-14
1.24965e-14
1.35327e-14
1.59874e-14
2.73865e-14
3.9656e-14
1.81699e-13
3.02975e-14
1.66853e-14
1.25229e-14
1.18404e-14
1.15723e-14
1.15843e-14
1.15569e-14
1.15466e-14
1.15326e-14
1.15321e-14
1.15772e-14
1.15615e-14
1.1619e-14
1.16356e-14
1.18325e-14
1.27865e-14
1.50446e-14
2.46422e-14
3.60108e-14
1.48351e-13
2.73845e-14
1.56374e-14
1.1919e-14
1.12841e-14
1.10463e-14
1.10536e-14
1.103e-14
1.10209e-14
1.10102e-14
1.10088e-14
1.10466e-14
1.1033e-14
1.10844e-14
1.11009e-14
1.1283e-14
1.21515e-14
1.42392e-14
2.23685e-14
3.31518e-14
1.1881e-13
2.49715e-14
1.47339e-14
1.14406e-14
1.08494e-14
1.06429e-14
1.06453e-14
1.06268e-14
1.06178e-14
1.06107e-14
1.0609e-14
1.06376e-14
1.06285e-14
1.06712e-14
1.0688e-14
1.08564e-14
1.16363e-14
1.35766e-14
2.07687e-14
3.09239e-14
9.24249e-14
2.28975e-14
1.3987e-14
1.10968e-14
1.05463e-14
1.0371e-14
1.03684e-14
1.03559e-14
1.03461e-14
1.03429e-14
1.03414e-14
1.03592e-14
1.03567e-14
1.03884e-14
1.04061e-14
1.0562e-14
1.12511e-14
1.30636e-14
1.94931e-14
2.91868e-14
7.50589e-14
2.11536e-14
1.3408e-14
1.08932e-14
1.03826e-14
1.02369e-14
1.02295e-14
1.02228e-14
1.02122e-14
1.02122e-14
1.02115e-14
1.02175e-14
1.0223e-14
1.02431e-14
1.02619e-14
1.04061e-14
1.10051e-14
1.27072e-14
1.84913e-14
2.78292e-14
6.11161e-14
1.97032e-14
1.30027e-14
1.08272e-14
1.03504e-14
1.02343e-14
1.02224e-14
1.0224e-14
1.02096e-14
1.02153e-14
1.02156e-14
1.02101e-14
1.02239e-14
1.02291e-14
1.02494e-14
1.03786e-14
1.09015e-14
1.24754e-14
1.77251e-14
2.67584e-14
5.03586e-14
1.84369e-14
1.27176e-14
1.08807e-14
1.04429e-14
1.03492e-14
1.0334e-14
1.03405e-14
1.03249e-14
1.03333e-14
1.03346e-14
1.03196e-14
1.034e-14
1.0335e-14
1.03564e-14
1.04724e-14
1.09272e-14
1.2384e-14
1.71576e-14
2.58864e-14
4.19509e-14
1.74221e-14
1.25856e-14
1.10166e-14
1.06213e-14
1.05422e-14
1.05254e-14
1.0534e-14
1.05184e-14
1.05278e-14
1.05295e-14
1.05092e-14
1.0533e-14
1.05224e-14
1.05443e-14
1.06483e-14
1.105e-14
1.23901e-14
1.67388e-14
2.51187e-14
3.53436e-14
1.65417e-14
1.25283e-14
1.11808e-14
1.08321e-14
1.07589e-14
1.07426e-14
1.07495e-14
1.07354e-14
1.07441e-14
1.07452e-14
1.07253e-14
1.07478e-14
1.07379e-14
1.07593e-14
1.08534e-14
1.12183e-14
1.24305e-14
1.6403e-14
2.43497e-14
3.01028e-14
1.57371e-14
1.24846e-14
1.13136e-14
1.10145e-14
1.09394e-14
1.09257e-14
1.09272e-14
1.09163e-14
1.09224e-14
1.09221e-14
1.09085e-14
1.09247e-14
1.09221e-14
1.09415e-14
1.10281e-14
1.13711e-14
1.24433e-14
1.60769e-14
2.34956e-14
2.5912e-14
1.49666e-14
1.24003e-14
1.13673e-14
1.11186e-14
1.10364e-14
1.10269e-14
1.10204e-14
1.10143e-14
1.10164e-14
1.10138e-14
1.10111e-14
1.1017e-14
1.10268e-14
1.10428e-14
1.11241e-14
1.14556e-14
1.23792e-14
1.56981e-14
2.24926e-14
2.25586e-14
1.42155e-14
1.22498e-14
1.13233e-14
1.1124e-14
1.1032e-14
1.10281e-14
1.10124e-14
1.10117e-14
1.10094e-14
1.10043e-14
1.10144e-14
1.10085e-14
1.10329e-14
1.10445e-14
1.11217e-14
1.14455e-14
1.22196e-14
1.52337e-14
2.13282e-14
1.98641e-14
1.35081e-14
1.20378e-14
1.12038e-14
1.10477e-14
1.09472e-14
1.09484e-14
1.09247e-14
1.09291e-14
1.09226e-14
1.09154e-14
1.09372e-14
1.09205e-14
1.09585e-14
1.09656e-14
1.10402e-14
1.1354e-14
1.1986e-14
1.4696e-14
2.00557e-14
1.77435e-14
1.28957e-14
1.18102e-14
1.10664e-14
1.09458e-14
1.08371e-14
1.08421e-14
1.08125e-14
1.0821e-14
1.08115e-14
1.08026e-14
1.08334e-14
1.08085e-14
1.08568e-14
1.086e-14
1.09331e-14
1.12324e-14
1.17369e-14
1.41468e-14
1.87883e-14
1.6157e-14
1.24283e-14
1.16423e-14
1.09711e-14
1.08769e-14
1.07795e-14
1.07866e-14
1.07538e-14
1.0765e-14
1.07537e-14
1.07436e-14
1.07805e-14
1.07499e-14
1.08044e-14
1.0805e-14
1.08703e-14
1.11493e-14
1.15544e-14
1.36793e-14
1.76623e-14
1.51047e-14
1.22098e-14
1.16305e-14
1.10333e-14
1.09592e-14
1.08653e-14
1.08733e-14
1.08386e-14
1.08517e-14
1.08395e-14
1.08284e-14
1.08696e-14
1.0835e-14
1.08922e-14
1.08921e-14
1.09499e-14
1.12133e-14
1.15348e-14
1.34057e-14
1.68207e-14
1.46213e-14
1.23187e-14
1.18866e-14
1.13465e-14
1.12873e-14
1.11951e-14
1.12036e-14
1.11671e-14
1.11821e-14
1.11687e-14
1.11564e-14
1.12029e-14
1.11636e-14
1.12233e-14
1.1223e-14
1.1277e-14
1.15289e-14
1.17831e-14
1.34504e-14
1.6403e-14
1.4787e-14
1.28647e-14
1.25462e-14
1.20312e-14
1.19843e-14
1.18889e-14
1.18992e-14
1.18582e-14
1.18767e-14
1.18608e-14
1.1846e-14
1.19026e-14
1.18543e-14
1.19211e-14
1.19198e-14
1.19744e-14
1.22264e-14
1.24233e-14
1.39587e-14
1.65541e-14
1.57906e-14
1.40608e-14
1.38403e-14
1.33106e-14
1.32754e-14
1.31703e-14
1.31842e-14
1.3135e-14
1.31594e-14
1.31389e-14
1.31198e-14
1.31936e-14
1.31303e-14
1.3211e-14
1.32069e-14
1.32665e-14
1.35347e-14
1.36791e-14
1.51671e-14
1.75053e-14
1.84259e-14
1.67705e-14
1.65926e-14
1.60439e-14
1.60052e-14
1.58964e-14
1.59102e-14
1.58547e-14
1.58833e-14
1.58598e-14
1.58354e-14
1.59266e-14
1.58479e-14
1.59454e-14
1.59359e-14
1.6007e-14
1.62939e-14
1.64083e-14
1.79154e-14
2.01535e-14
2.59255e-14
2.39898e-14
2.37205e-14
2.30413e-14
2.29581e-14
2.28287e-14
2.28404e-14
2.27638e-14
2.28053e-14
2.27695e-14
2.27228e-14
2.28833e-14
2.27445e-14
2.29058e-14
2.28765e-14
2.29933e-14
2.33695e-14
2.35005e-14
2.53756e-14
2.80311e-14
5.26795e-14
4.9586e-14
4.85191e-14
4.75782e-14
4.71807e-14
4.70694e-14
4.70239e-14
4.69143e-14
4.69691e-14
4.69092e-14
4.67696e-14
4.71785e-14
4.68262e-14
4.72212e-14
4.7095e-14
4.74185e-14
4.80295e-14
4.8437e-14
5.17777e-14
5.67554e-14
2.18882e-13
1.95326e-13
1.91057e-13
1.8032e-13
1.78259e-13
1.76009e-13
1.7633e-13
1.74598e-13
1.75668e-13
1.74573e-13
1.72746e-13
1.78603e-13
1.73471e-13
1.78328e-13
1.76943e-13
1.79509e-13
1.86425e-13
1.86859e-13
2.1383e-13
2.37532e-13
)
;

boundaryField
{
    fuel
    {
        type            fixedValue;
        value           uniform 0;
    }
    wall
    {
        type            zeroGradient;
    }
    outlet
    {
        type            zeroGradient;
    }
    frontAndBack
    {
        type            empty;
    }
}


// ************************************************************************* //
