/*--------------------------------*- C++ -*----------------------------------*\
| =========                 |                                                 |
| \\      /  F ield         | OpenFOAM: The Open Source CFD Toolbox           |
|  \\    /   O peration     | Version:  dev                                   |
|   \\  /    A nd           | Web:      www.OpenFOAM.org                      |
|    \\/     M anipulation  |                                                 |
\*---------------------------------------------------------------------------*/
FoamFile
{
    version     2.0;
    format      ascii;
    class       volScalarField;
    location    "0.2";
    object      A2R5-;
}
// * * * * * * * * * * * * * * * * * * * * * * * * * * * * * * * * * * * * * //

dimensions      [0 0 0 0 0 0 0];

internalField   nonuniform List<scalar> 
1000
(
5.97008e-10
2.18519e-08
1.613e-08
1.52161e-08
1.51015e-08
1.50888e-08
1.50858e-08
1.50846e-08
1.50886e-08
1.50864e-08
1.50873e-08
1.50888e-08
1.50899e-08
1.50876e-08
1.50918e-08
1.51128e-08
1.51795e-08
1.57723e-08
1.78319e-08
9.05938e-10
1.26286e-09
4.6484e-08
3.05245e-08
2.81076e-08
2.78089e-08
2.77754e-08
2.77668e-08
2.77639e-08
2.77727e-08
2.77676e-08
2.77703e-08
2.77742e-08
2.77758e-08
2.77706e-08
2.7781e-08
2.78347e-08
2.80121e-08
2.95593e-08
3.52609e-08
2.04927e-09
1.36308e-09
5.20838e-08
3.22221e-08
2.90786e-08
2.86853e-08
2.86399e-08
2.86275e-08
2.86223e-08
2.86348e-08
2.86271e-08
2.86323e-08
2.86385e-08
2.86383e-08
2.86338e-08
2.86444e-08
2.87285e-08
2.89401e-08
3.10099e-08
3.76848e-08
2.03865e-09
1.11037e-09
4.91896e-08
2.96887e-08
2.63234e-08
2.58916e-08
2.58401e-08
2.58232e-08
2.58174e-08
2.58322e-08
2.58225e-08
2.58307e-08
2.58389e-08
2.58363e-08
2.58317e-08
2.58421e-08
2.59509e-08
2.61547e-08
2.84546e-08
3.48089e-08
2.29318e-09
7.78956e-10
4.40909e-08
2.65793e-08
2.32045e-08
2.2757e-08
2.27014e-08
2.26769e-08
2.26742e-08
2.26901e-08
2.2679e-08
2.26904e-08
2.27004e-08
2.26953e-08
2.26861e-08
2.27016e-08
2.28268e-08
2.30159e-08
2.54165e-08
3.11683e-08
1.13074e-08
5.108e-10
3.90075e-08
2.38923e-08
2.0579e-08
2.0122e-08
2.00628e-08
2.00252e-08
2.00313e-08
2.00472e-08
2.00349e-08
2.00498e-08
2.00609e-08
2.00536e-08
2.00345e-08
2.00617e-08
2.01971e-08
2.03775e-08
2.26787e-08
2.79307e-08
2.17601e-08
3.33229e-10
3.45078e-08
2.17511e-08
1.85142e-08
1.80454e-08
1.79813e-08
1.7926e-08
1.79444e-08
1.79596e-08
1.79452e-08
1.7965e-08
1.79768e-08
1.7967e-08
1.79326e-08
1.79791e-08
1.81239e-08
1.83033e-08
2.05858e-08
2.50183e-08
2.7309e-08
2.26983e-10
3.06446e-08
1.98749e-08
1.68983e-08
1.63942e-08
1.63244e-08
1.62622e-08
1.62823e-08
1.62955e-08
1.62794e-08
1.63033e-08
1.63152e-08
1.63027e-08
1.6268e-08
1.63205e-08
1.64793e-08
1.66777e-08
1.88414e-08
2.26196e-08
2.89035e-08
1.6968e-10
2.7351e-08
1.84547e-08
1.54049e-08
1.49818e-08
1.49295e-08
1.492e-08
1.48965e-08
1.49071e-08
1.48892e-08
1.49164e-08
1.49282e-08
1.49125e-08
1.49249e-08
1.49234e-08
1.50409e-08
1.51903e-08
1.75002e-08
2.07608e-08
2.78833e-08
1.53066e-10
2.45424e-08
1.70966e-08
1.43133e-08
1.38556e-08
1.37909e-08
1.37914e-08
1.37547e-08
1.37612e-08
1.37409e-08
1.37724e-08
1.37843e-08
1.37622e-08
1.37952e-08
1.3782e-08
1.3927e-08
1.40904e-08
1.62661e-08
1.91061e-08
2.53764e-08
1.87081e-10
2.21455e-08
1.5845e-08
1.32882e-08
1.28025e-08
1.27349e-08
1.27214e-08
1.26981e-08
1.27032e-08
1.26863e-08
1.27124e-08
1.27232e-08
1.26948e-08
1.27086e-08
1.27242e-08
1.28689e-08
1.30586e-08
1.51902e-08
1.77541e-08
2.22731e-08
2.88854e-10
2.00991e-08
1.48316e-08
1.23582e-08
1.18662e-08
1.17957e-08
1.17862e-08
1.17592e-08
1.1765e-08
1.17563e-08
1.17698e-08
1.17797e-08
1.1742e-08
1.18518e-08
1.17828e-08
1.19282e-08
1.21295e-08
1.4211e-08
1.65092e-08
1.91723e-08
4.51341e-10
1.83493e-08
1.37997e-08
1.15086e-08
1.10127e-08
1.09398e-08
1.09977e-08
1.09029e-08
1.09125e-08
1.09125e-08
1.09109e-08
1.09199e-08
1.08685e-08
1.098e-08
1.09237e-08
1.10701e-08
1.12813e-08
1.32862e-08
1.53928e-08
1.64021e-08
6.57337e-10
1.68536e-08
1.29089e-08
1.07206e-08
1.02228e-08
1.01474e-08
1.01741e-08
1.01084e-08
1.01253e-08
1.01302e-08
1.0116e-08
1.01246e-08
1.00532e-08
1.01633e-08
1.01284e-08
1.02757e-08
1.04957e-08
1.25665e-08
1.43857e-08
1.40741e-08
8.99382e-10
1.54348e-08
1.20223e-08
9.98088e-09
9.48487e-09
9.40746e-09
9.41472e-09
9.36337e-09
9.39026e-09
9.39526e-09
9.37343e-09
9.38217e-09
9.38373e-09
9.40841e-09
9.38564e-09
9.53327e-09
9.75927e-09
1.18609e-08
1.35267e-08
1.22091e-08
1.17142e-09
1.40704e-08
1.11202e-08
9.28034e-09
8.7909e-09
8.7124e-09
8.70877e-09
8.65952e-09
8.69882e-09
8.70028e-09
8.67556e-09
8.68447e-09
8.67929e-09
8.70346e-09
8.68788e-09
8.83477e-09
9.06304e-09
1.11083e-08
1.27373e-08
1.07452e-08
1.46113e-09
1.30272e-08
1.02669e-08
8.61287e-09
8.13527e-09
8.05673e-09
8.047e-09
7.99075e-09
8.045e-09
8.04155e-09
8.01701e-09
8.026e-09
8.01332e-09
8.04115e-09
8.02972e-09
8.17459e-09
8.40122e-09
1.03785e-08
1.1964e-08
9.61482e-09
1.74762e-09
1.20807e-08
9.45949e-09
7.97307e-09
7.51375e-09
7.43631e-09
7.42333e-09
7.35181e-09
7.42477e-09
7.41653e-09
7.39385e-09
7.40271e-09
7.38101e-09
7.41614e-09
7.40712e-09
7.54865e-09
7.76966e-09
9.65983e-09
1.12296e-08
8.75884e-09
2.02093e-09
1.12057e-08
8.69616e-09
7.3552e-09
6.92301e-09
6.84788e-09
6.83388e-09
6.81337e-09
6.83543e-09
6.82306e-09
6.80297e-09
6.81143e-09
6.77883e-09
6.82451e-09
6.81691e-09
6.95379e-09
7.16521e-09
9.08178e-09
1.0533e-08
8.02433e-09
2.28178e-09
1.03864e-08
7.97528e-09
6.75347e-09
6.36026e-09
6.28871e-09
6.27443e-09
6.24254e-09
6.27443e-09
6.25904e-09
6.24185e-09
6.2497e-09
6.20444e-09
6.26338e-09
6.25649e-09
6.38735e-09
6.58409e-09
8.46104e-09
9.8626e-09
7.50909e-09
2.53803e-09
9.6097e-09
7.29584e-09
6.24074e-09
5.82309e-09
5.75637e-09
5.7425e-09
5.69655e-09
5.73996e-09
5.72243e-09
5.7082e-09
5.71558e-09
5.7214e-09
5.73048e-09
5.7236e-09
5.84679e-09
6.08043e-09
7.82234e-09
9.2099e-09
7.06582e-09
2.79674e-09
8.80493e-09
6.65445e-09
5.72333e-09
5.30833e-09
5.24828e-09
5.23568e-09
5.2317e-09
5.23001e-09
5.21087e-09
5.19957e-09
5.20676e-09
5.21775e-09
5.22201e-09
5.21584e-09
5.32832e-09
5.57086e-09
7.20013e-09
8.56932e-09
6.71634e-09
3.05897e-09
8.01959e-09
6.04912e-09
5.26053e-09
4.86741e-09
4.81642e-09
4.80475e-09
4.79513e-09
4.79659e-09
4.77643e-09
4.76743e-09
4.77582e-09
4.7876e-09
4.79098e-09
4.78364e-09
4.89274e-09
5.11515e-09
6.59279e-09
7.9368e-09
6.38682e-09
3.31533e-09
7.35786e-09
5.47482e-09
4.80644e-09
4.44996e-09
4.37627e-09
4.36527e-09
4.35e-09
4.35506e-09
4.3329e-09
4.32607e-09
4.33679e-09
4.34522e-09
4.35014e-09
4.34368e-09
4.4463e-09
4.657e-09
5.99633e-09
7.30981e-09
6.09249e-09
3.54721e-09
6.72502e-09
4.98696e-09
4.38956e-09
4.05563e-09
3.98929e-09
3.97901e-09
3.96032e-09
3.96737e-09
3.94477e-09
3.93985e-09
3.95198e-09
3.95632e-09
3.96382e-09
3.95747e-09
4.05431e-09
4.24505e-09
5.40617e-09
6.68876e-09
5.81316e-09
3.73313e-09
6.1274e-09
4.51316e-09
3.99551e-09
3.68312e-09
3.62451e-09
3.6149e-09
3.59373e-09
3.60238e-09
3.5796e-09
3.57639e-09
3.58875e-09
3.58979e-09
3.59993e-09
3.59387e-09
3.68475e-09
3.85421e-09
4.91468e-09
6.07651e-09
5.54455e-09
3.84688e-09
5.56443e-09
4.07785e-09
3.62174e-09
3.33244e-09
3.28067e-09
3.2716e-09
3.24892e-09
3.25879e-09
3.2361e-09
3.23426e-09
3.2459e-09
3.24489e-09
3.25709e-09
3.25148e-09
3.33596e-09
3.48513e-09
4.44054e-09
5.47233e-09
5.25556e-09
3.87126e-09
4.99007e-09
3.66652e-09
3.26693e-09
3.0019e-09
2.95618e-09
2.94752e-09
2.9242e-09
2.93497e-09
2.9126e-09
2.91181e-09
2.92228e-09
2.92015e-09
2.93374e-09
2.92862e-09
3.00646e-09
3.13642e-09
3.9854e-09
4.87897e-09
4.94079e-09
3.80852e-09
4.40897e-09
3.27743e-09
2.9298e-09
2.68979e-09
2.64935e-09
2.64095e-09
2.61772e-09
2.62914e-09
2.60724e-09
2.60732e-09
2.6165e-09
2.61385e-09
2.62821e-09
2.62355e-09
2.69468e-09
2.80618e-09
3.55055e-09
4.3006e-09
4.62563e-09
3.66381e-09
3.91723e-09
2.90903e-09
2.60888e-09
2.39437e-09
2.35844e-09
2.35018e-09
2.32772e-09
2.33957e-09
2.31829e-09
2.31904e-09
2.32697e-09
2.3242e-09
2.33884e-09
2.33452e-09
2.399e-09
2.49275e-09
3.1371e-09
3.77406e-09
4.2592e-09
3.445e-09
3.44903e-09
2.55982e-09
2.30284e-09
2.11409e-09
2.08202e-09
2.07371e-09
2.05267e-09
2.06473e-09
2.04422e-09
2.04545e-09
2.05215e-09
2.04964e-09
2.06413e-09
2.06001e-09
2.11799e-09
2.19482e-09
2.74585e-09
3.27138e-09
3.80876e-09
3.16391e-09
3.00293e-09
2.22932e-09
2.01074e-09
1.84795e-09
1.81912e-09
1.81046e-09
1.79157e-09
1.80361e-09
1.78403e-09
1.78558e-09
1.7909e-09
1.78912e-09
1.80309e-09
1.79902e-09
1.85072e-09
1.91158e-09
2.3777e-09
2.79732e-09
3.39887e-09
2.83501e-09
2.5784e-09
1.90181e-09
1.73294e-09
1.58728e-09
1.5628e-09
1.56007e-09
1.53617e-09
1.54893e-09
1.52967e-09
1.53207e-09
1.54274e-09
1.5346e-09
1.54875e-09
1.54501e-09
1.59035e-09
1.64288e-09
2.03436e-09
2.35584e-09
2.94988e-09
2.47461e-09
2.17724e-09
1.59235e-09
1.47041e-09
1.34709e-09
1.32609e-09
1.32334e-09
1.30187e-09
1.3142e-09
1.29619e-09
1.29866e-09
1.30829e-09
1.30083e-09
1.314e-09
1.31027e-09
1.34975e-09
1.3897e-09
1.69176e-09
1.93373e-09
2.5126e-09
2.10019e-09
1.803e-09
1.31809e-09
1.22489e-09
1.12201e-09
1.10446e-09
1.1019e-09
1.08289e-09
1.09457e-09
1.07802e-09
1.08045e-09
1.08909e-09
1.08226e-09
1.09429e-09
1.09065e-09
1.12457e-09
1.15388e-09
1.39688e-09
1.56813e-09
2.08676e-09
1.72961e-09
1.45975e-09
1.06702e-09
9.98932e-10
9.14701e-10
9.00445e-10
8.98223e-10
8.81737e-10
8.92498e-10
8.77629e-10
8.79917e-10
8.87556e-10
8.81346e-10
8.92102e-10
8.88645e-10
9.17283e-10
9.37929e-10
1.12938e-09
1.24478e-09
1.68635e-09
1.37988e-09
1.15231e-09
8.429e-10
7.95621e-10
7.28227e-10
7.16984e-10
7.15167e-10
7.01212e-10
7.10831e-10
6.97836e-10
6.99896e-10
7.06486e-10
7.00964e-10
7.10298e-10
7.07144e-10
7.3075e-10
7.44678e-10
8.92037e-10
9.65534e-10
1.32367e-09
1.06484e-09
8.84775e-10
6.48698e-10
6.17719e-10
5.65233e-10
5.5664e-10
5.55225e-10
5.43768e-10
5.52052e-10
5.41067e-10
5.42849e-10
5.48369e-10
5.43606e-10
5.51435e-10
5.48678e-10
5.6757e-10
5.7659e-10
6.86999e-10
7.30928e-10
1.00782e-09
7.93982e-10
6.59684e-10
4.85855e-10
4.66913e-10
4.27241e-10
4.20869e-10
4.19806e-10
4.10715e-10
4.17575e-10
4.08615e-10
4.10102e-10
4.1459e-10
4.10615e-10
4.16967e-10
4.14623e-10
4.29363e-10
4.34821e-10
5.15477e-10
5.39305e-10
7.44353e-10
5.72088e-10
4.77363e-10
3.53833e-10
3.43265e-10
3.14201e-10
3.09559e-10
3.08794e-10
3.01805e-10
3.07289e-10
3.00218e-10
3.0139e-10
3.04935e-10
3.01723e-10
3.06723e-10
3.04765e-10
3.16054e-10
3.18973e-10
3.76574e-10
3.8737e-10
5.33545e-10
3.97942e-10
3.34712e-10
2.50022e-10
2.44948e-10
2.24352e-10
2.20941e-10
2.20412e-10
2.15204e-10
2.19446e-10
2.14036e-10
2.14935e-10
2.17651e-10
2.15143e-10
2.18946e-10
2.17374e-10
2.25878e-10
2.27202e-10
2.67069e-10
2.70572e-10
3.70452e-10
2.66364e-10
2.26477e-10
1.7051e-10
1.68172e-10
1.53629e-10
1.52152e-10
1.51799e-10
1.48042e-10
1.51219e-10
1.47207e-10
1.47876e-10
1.49891e-10
1.47998e-10
1.50794e-10
1.49576e-10
1.54898e-10
1.55322e-10
1.82937e-10
1.82088e-10
2.48352e-10
1.70183e-10
1.46535e-10
1.11059e-10
1.1057e-10
1.00901e-10
9.99876e-11
9.97573e-11
9.71515e-11
9.94425e-11
9.65738e-11
9.70553e-11
9.84948e-11
9.71219e-11
9.90966e-11
9.81914e-11
1.01842e-10
1.01797e-10
1.19828e-10
1.17648e-10
1.59505e-10
1.02128e-10
8.91162e-11
6.78033e-11
6.81559e-11
6.20388e-11
6.15144e-11
6.1368e-11
5.9657e-11
6.12238e-11
5.92774e-11
5.96062e-11
6.05825e-11
5.96382e-11
6.09598e-11
6.03224e-11
6.26868e-11
6.24673e-11
7.37019e-11
7.13905e-11
9.65639e-11
5.59547e-11
4.9471e-11
3.76277e-11
3.82037e-11
3.46216e-11
3.4352e-11
3.42629e-11
3.32309e-11
3.42169e-11
3.30009e-11
3.32076e-11
3.38177e-11
3.32195e-11
3.4034e-11
3.36204e-11
3.50413e-11
3.47946e-11
4.13028e-11
3.94492e-11
5.35462e-11
2.67528e-11
2.3949e-11
1.81373e-11
1.86056e-11
1.676e-11
1.66433e-11
1.65938e-11
1.60516e-11
1.65923e-11
1.593e-11
1.60432e-11
1.63758e-11
1.60453e-11
1.64837e-11
1.62492e-11
1.70019e-11
1.68111e-11
2.01469e-11
1.89573e-11
2.59756e-11
1.05793e-11
9.58196e-12
7.23257e-12
7.48728e-12
6.70934e-12
6.66972e-12
6.64663e-12
6.41561e-12
6.65541e-12
6.36332e-12
6.41355e-12
6.5605e-12
6.41268e-12
6.6042e-12
6.49672e-12
6.82266e-12
6.71689e-12
8.12231e-12
7.54023e-12
1.04255e-11
3.30998e-12
3.02123e-12
2.27669e-12
2.3715e-12
2.11722e-12
2.10701e-12
2.09855e-12
2.02262e-12
2.1044e-12
2.00516e-12
2.02243e-12
2.07232e-12
2.02164e-12
2.08601e-12
2.04847e-12
2.15756e-12
2.1166e-12
2.57672e-12
2.37164e-12
3.29894e-12
8.59262e-13
7.87974e-13
6.0517e-13
6.28743e-13
5.65485e-13
5.63117e-13
5.60859e-13
5.41729e-13
5.6277e-13
5.37206e-13
5.41787e-13
5.54484e-13
5.4156e-13
5.5778e-13
5.48279e-13
5.75483e-13
5.65393e-13
6.78831e-13
6.301e-13
8.56205e-13
3.89647e-13
3.57414e-13
2.86214e-13
2.93206e-13
2.68717e-13
2.6708e-13
2.66394e-13
2.58083e-13
2.67315e-13
2.55966e-13
2.58415e-13
2.63262e-13
2.58522e-13
2.64391e-13
2.61666e-13
2.70459e-13
2.70394e-13
3.08331e-13
3.0106e-13
3.74966e-13
)
;

boundaryField
{
    fuel
    {
        type            fixedValue;
        value           uniform 0;
    }
    wall
    {
        type            zeroGradient;
    }
    outlet
    {
        type            zeroGradient;
    }
    frontAndBack
    {
        type            empty;
    }
}


// ************************************************************************* //
