/*--------------------------------*- C++ -*----------------------------------*\
| =========                 |                                                 |
| \\      /  F ield         | OpenFOAM: The Open Source CFD Toolbox           |
|  \\    /   O peration     | Version:  dev                                   |
|   \\  /    A nd           | Web:      www.OpenFOAM.org                      |
|    \\/     M anipulation  |                                                 |
\*---------------------------------------------------------------------------*/
FoamFile
{
    version     2.0;
    format      ascii;
    class       volScalarField;
    location    "0.2";
    object      A2R5;
}
// * * * * * * * * * * * * * * * * * * * * * * * * * * * * * * * * * * * * * //

dimensions      [0 0 0 0 0 0 0];

internalField   nonuniform List<scalar> 
1000
(
1.94932e-08
3.7074e-07
3.10473e-07
2.96352e-07
2.94683e-07
2.94152e-07
2.94151e-07
2.94185e-07
2.94192e-07
2.94185e-07
2.94157e-07
2.94177e-07
2.94173e-07
2.94138e-07
2.94192e-07
2.94474e-07
2.97044e-07
3.1991e-07
5.08301e-07
1.3969e-08
5.08226e-08
4.29914e-07
3.39565e-07
3.18638e-07
3.16156e-07
3.15397e-07
3.15386e-07
3.15426e-07
3.15432e-07
3.15432e-07
3.15398e-07
3.15417e-07
3.15406e-07
3.15355e-07
3.15451e-07
3.1586e-07
3.1964e-07
3.53609e-07
6.49758e-07
3.26474e-08
8.67449e-08
4.26838e-07
3.24094e-07
2.98367e-07
2.95502e-07
2.94503e-07
2.94485e-07
2.9453e-07
2.94539e-07
2.94535e-07
2.94505e-07
2.94526e-07
2.94498e-07
2.94437e-07
2.94568e-07
2.95081e-07
2.99657e-07
3.40625e-07
7.02466e-07
4.82674e-08
1.39796e-07
4.13118e-07
3.04313e-07
2.74717e-07
2.71585e-07
2.70337e-07
2.70294e-07
2.70361e-07
2.7038e-07
2.7036e-07
2.70344e-07
2.70368e-07
2.70318e-07
2.70234e-07
2.70413e-07
2.71031e-07
2.76277e-07
3.22612e-07
7.28829e-07
6.24122e-08
1.81299e-07
3.99901e-07
2.86243e-07
2.53431e-07
2.50051e-07
2.48564e-07
2.48463e-07
2.4858e-07
2.48614e-07
2.48571e-07
2.48577e-07
2.48603e-07
2.48526e-07
2.48398e-07
2.48652e-07
2.49377e-07
2.5523e-07
3.05784e-07
7.41264e-07
7.5332e-08
2.16896e-07
3.89078e-07
2.69479e-07
2.35032e-07
2.31392e-07
2.29681e-07
2.29489e-07
2.29684e-07
2.29734e-07
2.29664e-07
2.29698e-07
2.29725e-07
2.29617e-07
2.29432e-07
2.29781e-07
2.30615e-07
2.37035e-07
2.9071e-07
7.42753e-07
8.74551e-08
2.56439e-07
3.79533e-07
2.55508e-07
2.19203e-07
2.15269e-07
2.13359e-07
2.13083e-07
2.13344e-07
2.13413e-07
2.13309e-07
2.1338e-07
2.13405e-07
2.13258e-07
2.1302e-07
2.13472e-07
2.14409e-07
2.2138e-07
2.77105e-07
7.34464e-07
9.99252e-08
3.01482e-07
3.7139e-07
2.43361e-07
2.0537e-07
2.0121e-07
1.99167e-07
1.98896e-07
1.99136e-07
1.99221e-07
1.99095e-07
1.99191e-07
1.99215e-07
1.9904e-07
1.98845e-07
1.99297e-07
2.00299e-07
2.07695e-07
2.64629e-07
7.17273e-07
1.13912e-07
3.50314e-07
3.64275e-07
2.32352e-07
1.92705e-07
1.88923e-07
1.86844e-07
1.8671e-07
1.868e-07
1.86904e-07
1.86772e-07
1.86876e-07
1.86898e-07
1.86707e-07
1.86657e-07
1.87002e-07
1.87996e-07
1.94982e-07
2.51953e-07
6.92185e-07
1.29432e-07
3.98707e-07
3.5665e-07
2.21887e-07
1.81799e-07
1.77491e-07
1.7517e-07
1.75168e-07
1.75094e-07
1.7522e-07
1.75076e-07
1.75196e-07
1.75219e-07
1.74973e-07
1.75126e-07
1.75361e-07
1.76473e-07
1.84222e-07
2.38686e-07
6.60438e-07
1.45625e-07
4.41399e-07
3.48998e-07
2.12311e-07
1.71262e-07
1.66681e-07
1.64317e-07
1.6429e-07
1.64207e-07
1.64351e-07
1.64201e-07
1.64332e-07
1.64355e-07
1.64033e-07
1.64254e-07
1.64529e-07
1.65702e-07
1.73657e-07
2.27319e-07
6.23507e-07
1.61415e-07
4.74113e-07
3.4031e-07
2.03179e-07
1.6157e-07
1.56749e-07
1.54333e-07
1.54201e-07
1.54186e-07
1.54352e-07
1.54205e-07
1.54335e-07
1.54361e-07
1.53929e-07
1.54102e-07
1.5457e-07
1.55802e-07
1.63922e-07
2.15513e-07
5.82914e-07
1.7596e-07
4.94894e-07
3.3082e-07
1.94091e-07
1.52507e-07
1.47492e-07
1.45039e-07
1.44725e-07
1.44844e-07
1.45039e-07
1.44908e-07
1.45022e-07
1.45054e-07
1.44464e-07
1.45772e-07
1.45305e-07
1.46579e-07
1.54792e-07
2.03134e-07
5.40291e-07
1.88655e-07
5.04232e-07
3.20531e-07
1.86956e-07
1.43948e-07
1.38779e-07
1.36316e-07
1.3695e-07
1.36055e-07
1.36285e-07
1.36176e-07
1.36269e-07
1.36311e-07
1.35485e-07
1.36888e-07
1.36592e-07
1.37906e-07
1.4615e-07
1.92429e-07
4.9365e-07
1.99087e-07
5.04294e-07
3.10034e-07
1.794e-07
1.35811e-07
1.30535e-07
1.28073e-07
1.28653e-07
1.27732e-07
1.28019e-07
1.27929e-07
1.28002e-07
1.28062e-07
1.28073e-07
1.28494e-07
1.28361e-07
1.29709e-07
1.3792e-07
1.80533e-07
4.43702e-07
2.07153e-07
4.97859e-07
2.98845e-07
1.71186e-07
1.28046e-07
1.22718e-07
1.20271e-07
1.20732e-07
1.19827e-07
1.202e-07
1.20122e-07
1.20182e-07
1.20259e-07
1.20197e-07
1.20584e-07
1.20575e-07
1.21947e-07
1.30063e-07
1.68899e-07
4.02286e-07
2.12907e-07
4.87467e-07
2.86591e-07
1.62914e-07
1.20627e-07
1.15305e-07
1.12891e-07
1.13246e-07
1.12304e-07
1.12807e-07
1.12735e-07
1.12788e-07
1.12882e-07
1.12715e-07
1.13141e-07
1.13214e-07
1.14598e-07
1.22563e-07
1.57752e-07
3.62883e-07
2.1634e-07
4.75002e-07
2.73572e-07
1.54446e-07
1.13538e-07
1.08285e-07
1.05926e-07
1.06196e-07
1.05136e-07
1.05831e-07
1.05758e-07
1.0581e-07
1.05918e-07
1.05583e-07
1.06142e-07
1.06264e-07
1.07649e-07
1.15412e-07
1.47188e-07
3.26515e-07
2.17563e-07
4.61614e-07
2.60175e-07
1.47643e-07
1.06776e-07
1.01651e-07
9.93692e-08
9.95857e-08
9.91834e-08
9.92682e-08
9.91898e-08
9.92406e-08
9.93621e-08
9.87461e-08
9.95714e-08
9.97205e-08
1.01094e-07
1.08607e-07
1.37267e-07
2.93904e-07
2.16748e-07
4.44956e-07
2.46507e-07
1.4048e-07
1.00324e-07
9.54004e-08
9.32181e-08
9.33933e-08
9.29268e-08
9.31108e-08
9.30295e-08
9.30776e-08
9.32121e-08
9.30315e-08
9.34228e-08
9.35766e-08
9.49279e-08
1.02145e-07
1.28016e-07
2.62105e-07
2.14075e-07
4.29149e-07
2.32706e-07
1.32777e-07
9.48298e-08
8.9524e-08
8.7469e-08
8.76094e-08
8.70356e-08
8.73544e-08
8.72734e-08
8.73164e-08
8.74618e-08
8.75856e-08
8.768e-08
8.78266e-08
8.91474e-08
9.59865e-08
1.19465e-07
2.3408e-07
2.09878e-07
4.12642e-07
2.18927e-07
1.253e-07
8.9429e-08
8.39969e-08
8.21165e-08
8.22233e-08
8.21761e-08
8.19922e-08
8.19143e-08
8.1946e-08
8.2103e-08
8.21794e-08
8.23254e-08
8.24614e-08
8.37454e-08
9.02609e-08
1.11617e-07
2.10539e-07
2.04443e-07
3.93419e-07
2.05313e-07
1.18063e-07
8.4716e-08
7.95484e-08
7.77414e-08
7.78474e-08
7.77779e-08
7.76245e-08
7.75473e-08
7.75473e-08
7.77378e-08
7.77939e-08
7.79584e-08
7.80856e-08
7.93251e-08
8.54727e-08
1.04476e-07
1.89889e-07
1.98141e-07
3.74226e-07
1.9201e-07
1.11047e-07
8.01666e-08
7.51849e-08
7.34832e-08
7.35685e-08
7.34832e-08
7.3357e-08
7.32812e-08
7.33414e-08
7.34846e-08
7.35163e-08
7.37021e-08
7.38178e-08
7.50242e-08
8.09771e-08
9.79879e-08
1.72439e-07
1.91305e-07
3.55265e-07
1.7915e-07
1.04182e-07
7.62835e-08
7.1551e-08
6.99592e-08
7.00303e-08
6.9939e-08
6.98332e-08
6.97642e-08
6.97952e-08
6.99652e-08
6.99823e-08
7.01704e-08
7.02781e-08
7.14272e-08
7.70621e-08
9.28045e-08
1.57764e-07
1.84215e-07
3.32457e-07
1.66863e-07
9.87213e-08
7.28457e-08
6.83628e-08
6.68883e-08
6.69424e-08
6.68513e-08
6.67616e-08
6.67014e-08
6.67231e-08
6.68927e-08
6.68962e-08
6.70845e-08
6.71859e-08
6.82611e-08
7.35983e-08
8.78699e-08
1.45419e-07
1.77099e-07
3.07238e-07
1.55229e-07
9.36726e-08
6.98565e-08
6.56215e-08
6.42689e-08
6.43045e-08
6.42185e-08
6.41411e-08
6.4091e-08
6.41073e-08
6.42648e-08
6.42585e-08
6.44439e-08
6.45409e-08
6.55487e-08
7.05678e-08
8.38255e-08
1.35122e-07
1.7014e-07
2.83444e-07
1.44332e-07
8.90736e-08
6.73159e-08
6.33243e-08
6.20957e-08
6.21123e-08
6.20354e-08
6.1967e-08
6.19277e-08
6.19387e-08
6.20774e-08
6.20675e-08
6.22448e-08
6.23389e-08
6.32857e-08
6.79709e-08
8.03321e-08
1.25495e-07
1.63453e-07
2.63406e-07
1.34247e-07
8.49521e-08
6.52166e-08
6.14634e-08
6.03587e-08
6.03565e-08
6.02913e-08
6.02291e-08
6.02009e-08
6.02066e-08
6.03225e-08
6.03151e-08
6.04784e-08
6.05712e-08
6.14639e-08
6.58032e-08
7.73632e-08
1.17132e-07
1.57153e-07
2.41622e-07
1.25501e-07
8.13261e-08
6.35438e-08
6.00256e-08
5.90419e-08
5.90215e-08
5.89698e-08
5.89114e-08
5.8894e-08
5.88948e-08
5.89858e-08
5.8986e-08
5.91301e-08
5.92228e-08
6.00692e-08
6.40539e-08
7.4893e-08
1.10956e-07
1.51314e-07
2.17799e-07
1.17616e-07
7.81991e-08
6.22758e-08
5.89907e-08
5.81221e-08
5.80849e-08
5.80468e-08
5.79907e-08
5.79831e-08
5.798e-08
5.80454e-08
5.80566e-08
5.8178e-08
5.82717e-08
5.90798e-08
6.27046e-08
7.28869e-08
1.05775e-07
1.45909e-07
1.99085e-07
1.10582e-07
7.55627e-08
6.13822e-08
5.83296e-08
5.75676e-08
5.75151e-08
5.74896e-08
5.74355e-08
5.74358e-08
5.74298e-08
5.74703e-08
5.7494e-08
5.75918e-08
5.76868e-08
5.84598e-08
6.17328e-08
7.13061e-08
1.01404e-07
1.40877e-07
1.81359e-07
1.04351e-07
7.33986e-08
6.08229e-08
5.79901e-08
5.73311e-08
5.72653e-08
5.7256e-08
5.71979e-08
5.72101e-08
5.72023e-08
5.72196e-08
5.7256e-08
5.73243e-08
5.74209e-08
5.81454e-08
6.11119e-08
7.0004e-08
9.76919e-08
1.3614e-07
1.65439e-07
9.86305e-08
7.14948e-08
6.05488e-08
5.79441e-08
5.73708e-08
5.72942e-08
5.72944e-08
5.72371e-08
5.72546e-08
5.72459e-08
5.72432e-08
5.72908e-08
5.73372e-08
5.74347e-08
5.81097e-08
6.07917e-08
6.90527e-08
9.4507e-08
1.31602e-07
1.51149e-07
9.38066e-08
7.0085e-08
6.05031e-08
5.81233e-08
5.76232e-08
5.75387e-08
5.75458e-08
5.74891e-08
5.75105e-08
5.75015e-08
5.74828e-08
5.7539e-08
5.75669e-08
5.76646e-08
5.82861e-08
6.07143e-08
6.83726e-08
9.17269e-08
1.27163e-07
1.38443e-07
8.95889e-08
6.89701e-08
6.06232e-08
5.84643e-08
5.80252e-08
5.79355e-08
5.79465e-08
5.7891e-08
5.79146e-08
5.79055e-08
5.78756e-08
5.7937e-08
5.79509e-08
5.80478e-08
5.86164e-08
6.08127e-08
6.78636e-08
8.92364e-08
1.22718e-07
1.27229e-07
8.58915e-08
6.80847e-08
6.08465e-08
5.89032e-08
5.85137e-08
5.84217e-08
5.84335e-08
5.838e-08
5.84041e-08
5.83952e-08
5.83588e-08
5.8422e-08
5.84265e-08
5.85215e-08
5.90395e-08
6.10214e-08
6.74607e-08
8.6934e-08
1.18221e-07
1.17394e-07
8.26376e-08
6.73657e-08
6.11162e-08
5.93811e-08
5.90318e-08
5.894e-08
5.89501e-08
5.88996e-08
5.89226e-08
5.89138e-08
5.88753e-08
5.89371e-08
5.89367e-08
5.90284e-08
5.94989e-08
6.12802e-08
6.71068e-08
8.47371e-08
1.1362e-07
1.08802e-07
7.9761e-08
6.67574e-08
6.13854e-08
5.98494e-08
5.95331e-08
5.94437e-08
5.94501e-08
5.94033e-08
5.94241e-08
5.94156e-08
5.93785e-08
5.94362e-08
5.94345e-08
5.95218e-08
5.99477e-08
6.15397e-08
6.67577e-08
8.2587e-08
1.08897e-07
1.01325e-07
7.72073e-08
6.62166e-08
6.16209e-08
6.02727e-08
5.99845e-08
5.98994e-08
5.99009e-08
5.98585e-08
5.98763e-08
5.98681e-08
5.98348e-08
5.98867e-08
5.98862e-08
5.99682e-08
6.03524e-08
6.17641e-08
6.63849e-08
8.04521e-08
1.04081e-07
9.48408e-08
7.49349e-08
6.57133e-08
6.18033e-08
6.06297e-08
6.0367e-08
6.02872e-08
6.02836e-08
6.02458e-08
6.02603e-08
6.02526e-08
6.02244e-08
6.02697e-08
6.0272e-08
6.03477e-08
6.06936e-08
6.19317e-08
6.59753e-08
7.83251e-08
9.92271e-08
8.9237e-08
7.28905e-08
6.52305e-08
6.19264e-08
6.09166e-08
6.0673e-08
6.05992e-08
6.05908e-08
6.05576e-08
6.05688e-08
6.05618e-08
6.05392e-08
6.05777e-08
6.05833e-08
6.06524e-08
6.09608e-08
6.2038e-08
6.55288e-08
7.62194e-08
9.44142e-08
8.44154e-08
7.1091e-08
6.47609e-08
6.19877e-08
6.11241e-08
6.09035e-08
6.08361e-08
6.08236e-08
6.07948e-08
6.08031e-08
6.07969e-08
6.07797e-08
6.08118e-08
6.08205e-08
6.08828e-08
6.11528e-08
6.20823e-08
6.50539e-08
7.4162e-08
8.97319e-08
8.02874e-08
6.94981e-08
6.43043e-08
6.19956e-08
6.12635e-08
6.10652e-08
6.10043e-08
6.09888e-08
6.0964e-08
6.09697e-08
6.09645e-08
6.09521e-08
6.09784e-08
6.09895e-08
6.10454e-08
6.12781e-08
6.20718e-08
6.45641e-08
7.21872e-08
8.52707e-08
7.67758e-08
6.80973e-08
6.38645e-08
6.19596e-08
6.13445e-08
6.1168e-08
6.11135e-08
6.1096e-08
6.10747e-08
6.10785e-08
6.10742e-08
6.10658e-08
6.10872e-08
6.10999e-08
6.11496e-08
6.13477e-08
6.20167e-08
6.40755e-08
7.03314e-08
8.11154e-08
7.38158e-08
6.68786e-08
6.34487e-08
6.18916e-08
6.13788e-08
6.12237e-08
6.11753e-08
6.11567e-08
6.11386e-08
6.11409e-08
6.11376e-08
6.11322e-08
6.11497e-08
6.11631e-08
6.12072e-08
6.13738e-08
6.19298e-08
6.36049e-08
6.86304e-08
7.73424e-08
7.13582e-08
6.58373e-08
6.3067e-08
6.18049e-08
6.138e-08
6.12452e-08
6.12023e-08
6.11837e-08
6.11681e-08
6.11696e-08
6.11671e-08
6.11637e-08
6.11782e-08
6.11917e-08
6.12307e-08
6.13697e-08
6.18256e-08
6.31703e-08
6.71201e-08
7.40218e-08
6.93761e-08
6.49772e-08
6.2733e-08
6.17141e-08
6.1362e-08
6.12458e-08
6.12078e-08
6.11899e-08
6.11762e-08
6.11773e-08
6.11756e-08
6.11733e-08
6.11858e-08
6.11988e-08
6.12333e-08
6.1349e-08
6.17195e-08
6.27908e-08
6.58389e-08
7.12252e-08
6.78771e-08
6.43152e-08
6.2465e-08
6.16339e-08
6.13384e-08
6.12377e-08
6.12037e-08
6.11868e-08
6.11745e-08
6.11756e-08
6.11743e-08
6.11726e-08
6.11838e-08
6.11961e-08
6.1227e-08
6.13245e-08
6.16275e-08
6.24885e-08
6.48357e-08
6.90467e-08
6.69432e-08
6.38988e-08
6.2292e-08
6.158e-08
6.13204e-08
6.12302e-08
6.11989e-08
6.11827e-08
6.11713e-08
6.11725e-08
6.11716e-08
6.11699e-08
6.11804e-08
6.11922e-08
6.12208e-08
6.13066e-08
6.15663e-08
6.2295e-08
6.41977e-08
6.76656e-08
)
;

boundaryField
{
    fuel
    {
        type            fixedValue;
        value           uniform 0;
    }
    wall
    {
        type            zeroGradient;
    }
    outlet
    {
        type            zeroGradient;
    }
    frontAndBack
    {
        type            empty;
    }
}


// ************************************************************************* //
