/*--------------------------------*- C++ -*----------------------------------*\
| =========                 |                                                 |
| \\      /  F ield         | OpenFOAM: The Open Source CFD Toolbox           |
|  \\    /   O peration     | Version:  dev                                   |
|   \\  /    A nd           | Web:      www.OpenFOAM.org                      |
|    \\/     M anipulation  |                                                 |
\*---------------------------------------------------------------------------*/
FoamFile
{
    version     2.0;
    format      ascii;
    class       volScalarField;
    location    "0.2";
    object      A3;
}
// * * * * * * * * * * * * * * * * * * * * * * * * * * * * * * * * * * * * * //

dimensions      [0 0 0 0 0 0 0];

internalField   nonuniform List<scalar> 
1000
(
8.42122e-09
1.36696e-07
1.14606e-07
1.09112e-07
1.08582e-07
1.08341e-07
1.08351e-07
1.08355e-07
1.08362e-07
1.08357e-07
1.08346e-07
1.08355e-07
1.0835e-07
1.08339e-07
1.08358e-07
1.08461e-07
1.09402e-07
1.17654e-07
1.90953e-07
5.08993e-09
2.25002e-08
2.08438e-07
1.61373e-07
1.50451e-07
1.49413e-07
1.48945e-07
1.48971e-07
1.48966e-07
1.48978e-07
1.48973e-07
1.48956e-07
1.48967e-07
1.4896e-07
1.48935e-07
1.48981e-07
1.49171e-07
1.51006e-07
1.67425e-07
3.27851e-07
1.23302e-08
3.39627e-08
2.20042e-07
1.58648e-07
1.43446e-07
1.4227e-07
1.41551e-07
1.41606e-07
1.41584e-07
1.41601e-07
1.41591e-07
1.41573e-07
1.41588e-07
1.41572e-07
1.41542e-07
1.41604e-07
1.41855e-07
1.44271e-07
1.66318e-07
4.01706e-07
1.80157e-08
4.8318e-08
2.05358e-07
1.38826e-07
1.20922e-07
1.1985e-07
1.18912e-07
1.18991e-07
1.18957e-07
1.1898e-07
1.18961e-07
1.18947e-07
1.18965e-07
1.18939e-07
1.189e-07
1.18977e-07
1.19264e-07
1.21971e-07
1.47132e-07
4.34943e-07
2.27691e-08
8.93727e-08
1.84659e-07
1.16689e-07
9.73759e-08
9.6463e-08
9.53797e-08
9.5457e-08
9.54322e-08
9.54626e-08
9.54305e-08
9.54263e-08
9.54452e-08
9.54099e-08
9.53487e-08
9.54511e-08
9.57565e-08
9.85698e-08
1.25141e-07
4.4499e-07
2.68456e-08
1.35884e-07
1.65481e-07
9.58545e-08
7.73257e-08
7.65321e-08
7.53799e-08
7.54261e-08
7.5434e-08
7.54683e-08
7.54261e-08
7.54325e-08
7.54495e-08
7.54075e-08
7.53148e-08
7.54518e-08
7.57658e-08
7.85925e-08
1.05501e-07
4.41407e-07
3.05934e-08
1.91145e-07
1.48314e-07
7.9516e-08
6.14995e-08
6.07422e-08
5.95857e-08
5.95942e-08
5.96347e-08
5.96716e-08
5.96178e-08
5.96387e-08
5.96524e-08
5.96014e-08
5.94696e-08
5.96536e-08
5.9968e-08
6.27862e-08
8.93546e-08
4.28868e-07
3.4624e-08
2.57672e-07
1.34537e-07
6.65707e-08
4.93248e-08
4.85884e-08
4.74994e-08
4.75149e-08
4.7542e-08
4.75779e-08
4.75235e-08
4.75491e-08
4.7559e-08
4.7511e-08
4.73973e-08
4.75619e-08
4.78524e-08
5.05967e-08
7.65252e-08
4.09726e-07
3.94466e-08
3.28557e-07
1.24044e-07
5.60762e-08
3.97548e-08
3.94063e-08
3.84602e-08
3.85548e-08
3.8497e-08
3.8532e-08
3.84875e-08
3.8507e-08
3.85133e-08
3.84788e-08
3.84367e-08
3.85201e-08
3.8745e-08
4.08585e-08
6.5607e-08
3.85447e-07
4.4888e-08
3.89187e-07
1.14694e-07
4.74168e-08
3.27541e-08
3.21551e-08
3.12422e-08
3.14071e-08
3.12624e-08
3.1296e-08
3.12562e-08
3.12769e-08
3.12805e-08
3.12438e-08
3.12982e-08
3.12997e-08
3.15359e-08
3.38251e-08
5.61487e-08
3.57255e-07
5.0396e-08
4.25978e-07
1.06771e-07
4.07231e-08
2.71766e-08
2.64826e-08
2.5706e-08
2.58508e-08
2.57127e-08
2.5742e-08
2.57056e-08
2.57282e-08
2.57293e-08
2.56858e-08
2.57492e-08
2.57542e-08
2.59736e-08
2.81103e-08
4.93118e-08
3.26375e-07
5.53722e-08
4.3354e-07
9.91172e-08
3.54301e-08
2.29791e-08
2.22067e-08
2.15345e-08
2.16161e-08
2.15307e-08
2.15577e-08
2.15253e-08
2.15478e-08
2.15471e-08
2.14873e-08
2.14957e-08
2.1577e-08
2.17865e-08
2.37854e-08
4.32809e-08
2.93998e-07
5.93712e-08
4.15344e-07
9.19147e-08
3.10838e-08
1.97711e-08
1.89428e-08
1.83558e-08
1.83463e-08
1.83427e-08
1.83687e-08
1.83428e-08
1.83615e-08
1.83599e-08
1.82722e-08
1.86089e-08
1.83965e-08
1.85952e-08
2.0454e-08
3.78507e-08
2.61357e-07
6.21283e-08
3.79971e-07
8.51052e-08
2.82034e-08
1.72842e-08
1.64149e-08
1.59011e-08
1.6116e-08
1.58777e-08
1.59033e-08
1.58849e-08
1.58982e-08
1.58966e-08
1.57577e-08
1.6077e-08
1.59359e-08
1.61273e-08
1.78501e-08
3.37245e-08
2.26968e-07
6.35174e-08
3.36841e-07
7.8993e-08
2.56517e-08
1.53249e-08
1.44292e-08
1.39746e-08
1.41444e-08
1.39413e-08
1.39697e-08
1.39579e-08
1.39661e-08
1.3966e-08
1.40147e-08
1.40861e-08
1.40052e-08
1.41912e-08
1.57826e-08
2.96737e-08
1.91552e-07
6.36467e-08
2.93393e-07
7.32313e-08
2.33348e-08
1.37554e-08
1.2848e-08
1.24415e-08
1.25626e-08
1.23968e-08
1.24321e-08
1.24246e-08
1.24296e-08
1.24309e-08
1.24607e-08
1.25075e-08
1.24697e-08
1.26508e-08
1.41172e-08
2.61347e-08
1.63354e-07
6.27428e-08
2.54152e-07
6.76041e-08
2.13542e-08
1.24779e-08
1.1572e-08
1.12057e-08
1.12883e-08
1.1145e-08
1.11932e-08
1.1188e-08
1.11915e-08
1.11942e-08
1.1206e-08
1.12436e-08
1.12327e-08
1.14088e-08
1.2757e-08
2.30767e-08
1.37644e-07
6.09708e-08
2.21094e-07
6.22127e-08
1.95983e-08
1.14218e-08
1.05293e-08
1.01973e-08
1.02518e-08
1.01125e-08
1.01827e-08
1.01783e-08
1.01817e-08
1.01854e-08
1.0175e-08
1.0219e-08
1.02237e-08
1.03946e-08
1.1632e-08
2.04472e-08
1.14988e-07
5.85377e-08
1.9453e-07
5.71516e-08
1.83373e-08
1.05362e-08
9.66722e-09
9.36547e-09
9.40141e-09
9.35581e-09
9.34984e-09
9.34516e-09
9.34886e-09
9.35338e-09
9.30984e-09
9.37819e-09
9.3915e-09
9.55669e-09
1.06912e-08
1.81973e-08
9.57046e-08
5.56414e-08
1.69962e-07
5.23997e-08
1.71421e-08
9.78183e-09
8.94728e-09
8.67303e-09
8.69613e-09
8.65087e-09
8.6565e-09
8.65168e-09
8.65572e-09
8.66097e-09
8.6636e-09
8.68145e-09
8.69851e-09
8.85766e-09
9.89656e-09
1.62778e-08
7.79982e-08
5.24348e-08
1.51967e-07
4.79586e-08
1.59728e-08
9.19888e-09
8.34079e-09
8.09256e-09
8.10655e-09
8.05516e-09
8.07523e-09
8.07058e-09
8.07471e-09
8.08037e-09
8.10892e-09
8.09874e-09
8.11706e-09
8.26994e-09
9.21626e-09
1.46547e-08
6.34273e-08
4.91114e-08
1.37316e-07
4.38179e-08
1.49258e-08
8.67572e-09
7.825e-09
7.60379e-09
7.61084e-09
7.60874e-09
7.58561e-09
7.58141e-09
7.58507e-09
7.59099e-09
7.61143e-09
7.60797e-09
7.62651e-09
7.77303e-09
8.64242e-09
1.329e-08
5.20624e-08
4.57932e-08
1.23665e-07
3.9969e-08
1.39796e-08
8.25591e-09
7.44631e-09
7.24012e-09
7.24454e-09
7.24138e-09
7.22258e-09
7.21867e-09
7.22025e-09
7.228e-09
7.24468e-09
7.24387e-09
7.26226e-09
7.40246e-09
8.20285e-09
1.21532e-08
4.27962e-08
4.26086e-08
1.1217e-07
3.6412e-08
1.31149e-08
7.88381e-09
7.10935e-09
6.92005e-09
6.92085e-09
6.91729e-09
6.90191e-09
6.89846e-09
6.90474e-09
6.90812e-09
6.92187e-09
6.92308e-09
6.9409e-09
7.0756e-09
7.82646e-09
1.12102e-08
3.55803e-08
3.96448e-08
1.02246e-07
3.31416e-08
1.23104e-08
7.59288e-09
6.85632e-09
6.68262e-09
6.68084e-09
6.67763e-09
6.66455e-09
6.66199e-09
6.66625e-09
6.67076e-09
6.68302e-09
6.68439e-09
6.70176e-09
6.82936e-09
7.52904e-09
1.05211e-08
3.00335e-08
3.69528e-08
9.16289e-08
3.01494e-08
1.16954e-08
7.35989e-09
6.66026e-09
6.50175e-09
6.49751e-09
6.49514e-09
6.48368e-09
6.48215e-09
6.48585e-09
6.48949e-09
6.50066e-09
6.50184e-09
6.5188e-09
6.63787e-09
7.29398e-09
9.92668e-09
2.5799e-08
3.45581e-08
8.09923e-08
2.7425e-08
1.11472e-08
7.18055e-09
6.51708e-09
6.37323e-09
6.36667e-09
6.36547e-09
6.35512e-09
6.35471e-09
6.35811e-09
6.36005e-09
6.3706e-09
6.37127e-09
6.38792e-09
6.49981e-09
7.11406e-09
9.48618e-09
2.26084e-08
3.24684e-08
7.17457e-08
2.4962e-08
1.06645e-08
7.05077e-09
6.42278e-09
6.29291e-09
6.28422e-09
6.28438e-09
6.27475e-09
6.27549e-09
6.27857e-09
6.27843e-09
6.28886e-09
6.28865e-09
6.30509e-09
6.41104e-09
6.98498e-09
9.14531e-09
1.99411e-08
3.06733e-08
6.44507e-08
2.27502e-08
1.02449e-08
6.9659e-09
6.37291e-09
6.25619e-09
6.24559e-09
6.24719e-09
6.23798e-09
6.23982e-09
6.24255e-09
6.24021e-09
6.25094e-09
6.24952e-09
6.26587e-09
6.36704e-09
6.90207e-09
8.88968e-09
1.78797e-08
2.91625e-08
5.69523e-08
2.08742e-08
9.88502e-09
6.92041e-09
6.36225e-09
6.25763e-09
6.2454e-09
6.24836e-09
6.23935e-09
6.24222e-09
6.24458e-09
6.24018e-09
6.25143e-09
6.24858e-09
6.26495e-09
6.36249e-09
6.85983e-09
8.70575e-09
1.65224e-08
2.79124e-08
4.91687e-08
1.92084e-08
9.57906e-09
6.90772e-09
6.38453e-09
6.29073e-09
6.27719e-09
6.28132e-09
6.27231e-09
6.27616e-09
6.27814e-09
6.27198e-09
6.28375e-09
6.27949e-09
6.29594e-09
6.39093e-09
6.85169e-09
8.57875e-09
1.55097e-08
2.68744e-08
4.33174e-08
1.77339e-08
9.32002e-09
6.92021e-09
6.43235e-09
6.3479e-09
6.33343e-09
6.33841e-09
6.32923e-09
6.334e-09
6.33561e-09
6.32816e-09
6.34026e-09
6.33479e-09
6.35136e-09
6.44412e-09
6.87053e-09
8.49416e-09
1.4746e-08
2.59922e-08
3.79962e-08
1.64255e-08
9.09998e-09
6.94955e-09
6.49987e-09
6.4224e-09
6.40742e-09
6.41126e-09
6.40366e-09
6.40741e-09
6.40864e-09
6.40045e-09
6.41255e-09
6.40801e-09
6.42462e-09
6.51472e-09
6.90912e-09
8.4332e-09
1.41555e-08
2.52054e-08
3.33843e-08
1.52111e-08
8.89101e-09
6.9871e-09
6.57391e-09
6.50274e-09
6.48761e-09
6.49131e-09
6.48384e-09
6.48789e-09
6.48875e-09
6.48041e-09
6.49208e-09
6.48744e-09
6.50399e-09
6.58984e-09
6.95797e-09
8.38772e-09
1.36776e-08
2.44537e-08
2.93693e-08
1.41657e-08
8.71551e-09
7.02515e-09
6.6484e-09
6.58244e-09
6.56752e-09
6.57072e-09
6.56362e-09
6.56764e-09
6.56813e-09
6.56018e-09
6.57104e-09
6.56675e-09
6.58301e-09
6.66379e-09
7.00841e-09
8.345e-09
1.32631e-08
2.36807e-08
2.58892e-08
1.32276e-08
8.55096e-09
7.05744e-09
6.71676e-09
6.65517e-09
6.64075e-09
6.64319e-09
6.63667e-09
6.64038e-09
6.64052e-09
6.63337e-09
6.6431e-09
6.63957e-09
6.6553e-09
6.73072e-09
7.05273e-09
8.29423e-09
1.28736e-08
2.28384e-08
2.28809e-08
1.23821e-08
8.39204e-09
7.07987e-09
6.77441e-09
6.71672e-09
6.703e-09
6.70454e-09
6.69871e-09
6.70195e-09
6.70179e-09
6.69569e-09
6.70411e-09
6.70156e-09
6.71656e-09
6.78651e-09
7.08577e-09
8.22947e-09
1.24814e-08
2.19004e-08
2.02881e-08
1.16191e-08
8.23602e-09
7.09072e-09
6.81915e-09
6.76518e-09
6.75229e-09
6.75291e-09
6.74781e-09
6.75052e-09
6.75012e-09
6.74513e-09
6.75223e-09
6.7507e-09
6.76481e-09
6.82929e-09
7.10502e-09
8.14836e-09
1.20697e-08
2.08512e-08
1.80584e-08
1.09323e-08
8.08255e-09
7.09039e-09
6.85095e-09
6.80073e-09
6.78874e-09
6.78851e-09
6.7841e-09
6.78631e-09
6.78575e-09
6.7818e-09
6.78768e-09
6.78707e-09
6.80019e-09
6.85924e-09
7.11045e-09
8.05166e-09
1.1631e-08
1.96911e-08
1.61456e-08
1.03176e-08
7.93303e-09
7.08076e-09
6.87135e-09
6.825e-09
6.81394e-09
6.81302e-09
6.80923e-09
6.81099e-09
6.81036e-09
6.80729e-09
6.81212e-09
6.81223e-09
6.82431e-09
6.87807e-09
7.10388e-09
7.94255e-09
1.11667e-08
1.84387e-08
1.45111e-08
9.77158e-09
7.78981e-09
7.06443e-09
6.8827e-09
6.8404e-09
6.83024e-09
6.82881e-09
6.82555e-09
6.82695e-09
6.8263e-09
6.82394e-09
6.82791e-09
6.82854e-09
6.83958e-09
6.88829e-09
7.08806e-09
7.82559e-09
1.06846e-08
1.71255e-08
1.3122e-08
9.2862e-09
7.65538e-09
7.0437e-09
6.8876e-09
6.84937e-09
6.84009e-09
6.83831e-09
6.8355e-09
6.83662e-09
6.83602e-09
6.83419e-09
6.83748e-09
6.83846e-09
6.84844e-09
6.8919e-09
7.06633e-09
7.7056e-09
1.01957e-08
1.57883e-08
1.19496e-08
8.8675e-09
7.53185e-09
7.02145e-09
6.88814e-09
6.85405e-09
6.84561e-09
6.84364e-09
6.84119e-09
6.8421e-09
6.84159e-09
6.84016e-09
6.84292e-09
6.8441e-09
6.85306e-09
6.89115e-09
7.04181e-09
7.58702e-09
9.71277e-09
1.44656e-08
1.09679e-08
8.5068e-09
7.42054e-09
6.99904e-09
6.88611e-09
6.85606e-09
6.84844e-09
6.84638e-09
6.84425e-09
6.845e-09
6.84459e-09
6.84347e-09
6.8458e-09
6.8471e-09
6.85506e-09
6.88796e-09
7.01633e-09
7.4736e-09
9.24847e-09
1.31954e-08
1.01534e-08
8.19964e-09
7.32209e-09
6.97762e-09
6.88274e-09
6.85654e-09
6.84969e-09
6.84763e-09
6.84577e-09
6.84642e-09
6.84611e-09
6.84522e-09
6.84721e-09
6.84856e-09
6.85558e-09
6.88364e-09
6.9914e-09
7.36828e-09
8.8146e-09
1.20115e-08
9.48532e-09
7.94157e-09
7.23665e-09
6.95791e-09
6.8788e-09
6.8562e-09
6.85009e-09
6.8481e-09
6.84647e-09
6.84704e-09
6.84682e-09
6.84612e-09
6.84782e-09
6.84919e-09
6.85533e-09
6.879e-09
6.96808e-09
7.27332e-09
8.42134e-09
1.09428e-08
8.94604e-09
7.72862e-09
7.16408e-09
6.94035e-09
6.87479e-09
6.85545e-09
6.85004e-09
6.84815e-09
6.84672e-09
6.84724e-09
6.8471e-09
6.84654e-09
6.84801e-09
6.84936e-09
6.85471e-09
6.87451e-09
6.94712e-09
7.19042e-09
8.0773e-09
1.00128e-08
8.52264e-09
7.55803e-09
7.10441e-09
6.92529e-09
6.87101e-09
6.85452e-09
6.84973e-09
6.84796e-09
6.84671e-09
6.84719e-09
6.84711e-09
6.84667e-09
6.84794e-09
6.84927e-09
6.85392e-09
6.87043e-09
6.92911e-09
7.12109e-09
7.79008e-09
9.24126e-09
8.20957e-09
7.42965e-09
7.0584e-09
6.91323e-09
6.86771e-09
6.85353e-09
6.84927e-09
6.84761e-09
6.8465e-09
6.84697e-09
6.84692e-09
6.84656e-09
6.84768e-09
6.84898e-09
6.85307e-09
6.867e-09
6.91473e-09
7.06728e-09
7.56843e-09
8.65007e-09
8.01759e-09
7.34994e-09
7.02919e-09
6.90536e-09
6.86542e-09
6.85277e-09
6.84886e-09
6.84729e-09
6.84626e-09
6.84673e-09
6.8467e-09
6.84638e-09
6.84741e-09
6.84868e-09
6.8524e-09
6.86467e-09
6.90539e-09
7.03323e-09
7.42896e-09
8.28083e-09
)
;

boundaryField
{
    fuel
    {
        type            fixedValue;
        value           uniform 0;
    }
    wall
    {
        type            zeroGradient;
    }
    outlet
    {
        type            zeroGradient;
    }
    frontAndBack
    {
        type            empty;
    }
}


// ************************************************************************* //
