/*--------------------------------*- C++ -*----------------------------------*\
| =========                 |                                                 |
| \\      /  F ield         | OpenFOAM: The Open Source CFD Toolbox           |
|  \\    /   O peration     | Version:  dev                                   |
|   \\  /    A nd           | Web:      www.OpenFOAM.org                      |
|    \\/     M anipulation  |                                                 |
\*---------------------------------------------------------------------------*/
FoamFile
{
    version     2.0;
    format      ascii;
    class       volScalarField;
    location    "0.2";
    object      A3-1;
}
// * * * * * * * * * * * * * * * * * * * * * * * * * * * * * * * * * * * * * //

dimensions      [0 0 0 0 0 0 0];

internalField   nonuniform List<scalar> 
1000
(
5.10198e-11
4.31583e-09
3.12512e-09
2.95423e-09
2.93225e-09
2.92986e-09
2.92933e-09
2.929e-09
2.92983e-09
2.92941e-09
2.9296e-09
2.92981e-09
2.93005e-09
2.92976e-09
2.93028e-09
2.93531e-09
2.94664e-09
3.06749e-09
3.48142e-09
4.96399e-11
6.6306e-11
9.49686e-09
5.77184e-09
5.30123e-09
5.24254e-09
5.23639e-09
5.23486e-09
5.23438e-09
5.236e-09
5.23514e-09
5.23565e-09
5.23604e-09
5.23639e-09
5.2361e-09
5.23663e-09
5.2509e-09
5.28068e-09
5.61463e-09
6.94943e-09
5.4761e-11
3.9724e-11
9.45917e-09
4.8338e-09
4.29891e-09
4.23302e-09
4.22626e-09
4.2246e-09
4.22401e-09
4.22584e-09
4.22475e-09
4.22553e-09
4.22601e-09
4.22602e-09
4.22683e-09
4.22533e-09
4.24691e-09
4.27147e-09
4.67815e-09
6.21911e-09
4.7385e-11
1.9366e-11
7.66356e-09
3.33299e-09
2.86018e-09
2.8025e-09
2.79662e-09
2.79494e-09
2.79456e-09
2.79626e-09
2.7952e-09
2.796e-09
2.79662e-09
2.79632e-09
2.79755e-09
2.79513e-09
2.81873e-09
2.83184e-09
3.21643e-09
4.56842e-09
4.09071e-10
9.91281e-12
6.00098e-09
2.26666e-09
1.86859e-09
1.82072e-09
1.8158e-09
1.81368e-09
1.81397e-09
1.81542e-09
1.81451e-09
1.81526e-09
1.81594e-09
1.81554e-09
1.81606e-09
1.81447e-09
1.83623e-09
1.84263e-09
2.18202e-09
3.28849e-09
2.12563e-09
5.99979e-12
4.775e-09
1.61269e-09
1.27077e-09
1.23044e-09
1.2262e-09
1.22304e-09
1.22453e-09
1.22572e-09
1.22497e-09
1.22565e-09
1.22633e-09
1.22592e-09
1.22509e-09
1.22522e-09
1.24401e-09
1.24797e-09
1.51415e-09
2.44963e-09
4.90815e-09
4.34174e-12
3.89002e-09
1.21532e-09
9.10499e-10
8.75014e-10
8.71069e-10
8.66388e-10
8.6929e-10
8.70297e-10
8.69554e-10
8.70347e-10
8.70975e-10
8.70576e-10
8.67779e-10
8.7037e-10
8.86749e-10
8.90482e-10
1.11969e-09
1.87003e-09
6.66119e-09
3.68359e-12
3.23162e-09
9.40491e-10
6.85873e-10
6.5091e-10
6.46987e-10
6.41917e-10
6.45059e-10
6.45844e-10
6.45164e-10
6.45948e-10
6.46516e-10
6.46127e-10
6.43058e-10
6.46459e-10
6.61623e-10
6.6776e-10
8.53827e-10
1.4896e-09
7.0966e-09
3.84709e-12
2.72413e-09
7.7246e-10
5.18322e-10
4.95768e-10
4.94204e-10
4.94707e-10
4.93487e-10
4.94081e-10
4.93427e-10
4.94202e-10
4.94702e-10
4.9433e-10
4.95615e-10
4.93748e-10
5.02297e-10
5.03584e-10
6.8389e-10
1.24492e-09
6.59818e-09
5.35568e-12
2.32089e-09
6.40692e-10
4.17677e-10
3.94053e-10
3.91753e-10
3.93308e-10
3.90875e-10
3.91166e-10
3.90409e-10
3.91409e-10
3.91882e-10
3.91311e-10
3.94018e-10
3.91307e-10
4.0063e-10
4.04117e-10
5.54094e-10
1.05637e-09
5.61219e-09
9.86679e-12
1.99334e-09
5.39713e-10
3.39987e-10
3.1671e-10
3.14556e-10
3.1494e-10
3.13707e-10
3.13901e-10
3.1335e-10
3.14044e-10
3.14415e-10
3.13777e-10
3.14474e-10
3.14214e-10
3.21946e-10
3.27704e-10
4.60497e-10
9.19999e-10
4.49082e-09
1.9695e-11
1.72306e-09
4.70068e-10
2.82324e-10
2.60747e-10
2.58693e-10
2.59122e-10
2.5797e-10
2.58117e-10
2.57907e-10
2.5812e-10
2.58407e-10
2.57582e-10
2.63067e-10
2.58403e-10
2.64945e-10
2.71624e-10
3.89887e-10
8.0587e-10
3.45701e-09
3.37649e-11
1.49739e-09
4.084e-10
2.39017e-10
2.19015e-10
2.17056e-10
2.20523e-10
2.16457e-10
2.16633e-10
2.16764e-10
2.16464e-10
2.1668e-10
2.15486e-10
2.20171e-10
2.16753e-10
2.2238e-10
2.29708e-10
3.34168e-10
7.11644e-10
2.61127e-09
4.93604e-11
1.30772e-09
3.61229e-10
2.05739e-10
1.87168e-10
1.85259e-10
1.87051e-10
1.84743e-10
1.85021e-10
1.85353e-10
1.84683e-10
1.84849e-10
1.83011e-10
1.86951e-10
1.84947e-10
1.89873e-10
1.97691e-10
2.97355e-10
6.32558e-10
1.96445e-09
6.5462e-11
1.13079e-09
3.18964e-10
1.79554e-10
1.6237e-10
1.60502e-10
1.61307e-10
1.59985e-10
1.60409e-10
1.60764e-10
1.59937e-10
1.6008e-10
1.60626e-10
1.61363e-10
1.6018e-10
1.64553e-10
1.72654e-10
2.66444e-10
5.6951e-10
1.49444e-09
8.14643e-11
9.64166e-10
2.79882e-10
1.5848e-10
1.42683e-10
1.40865e-10
1.41148e-10
1.4025e-10
1.40852e-10
1.41118e-10
1.40297e-10
1.40426e-10
1.40718e-10
1.41223e-10
1.4053e-10
1.44451e-10
1.5262e-10
2.38062e-10
5.15036e-10
1.15945e-09
9.61848e-11
8.38869e-10
2.46115e-10
1.41165e-10
1.2675e-10
1.24995e-10
1.25004e-10
1.24175e-10
1.25003e-10
1.25144e-10
1.24415e-10
1.24534e-10
1.24616e-10
1.25053e-10
1.24645e-10
1.28185e-10
1.36241e-10
2.14074e-10
4.64762e-10
9.23617e-10
1.08151e-10
7.28274e-10
2.16738e-10
1.26643e-10
1.13605e-10
1.11928e-10
1.11795e-10
1.10773e-10
1.11913e-10
1.11941e-10
1.11331e-10
1.11442e-10
1.11324e-10
1.11804e-10
1.11564e-10
1.14772e-10
1.22568e-10
1.93113e-10
4.19818e-10
7.59434e-10
1.16918e-10
6.29919e-10
1.91087e-10
1.14184e-10
1.02553e-10
1.00966e-10
1.00773e-10
1.0075e-10
1.00908e-10
1.00849e-10
1.00354e-10
1.00456e-10
1.00126e-10
1.00732e-10
1.00591e-10
1.03504e-10
1.10921e-10
1.77892e-10
3.79674e-10
6.28784e-10
1.22876e-10
5.42473e-10
1.6866e-10
1.03225e-10
9.30865e-11
9.16026e-11
9.13813e-11
9.11654e-11
9.14877e-11
9.13714e-11
9.09774e-11
9.10689e-11
9.05016e-11
9.13037e-11
9.12207e-11
9.38635e-11
1.00771e-10
1.62926e-10
3.43411e-10
5.43e-10
1.26801e-10
4.64909e-10
1.49052e-10
9.46605e-11
8.48275e-11
8.34577e-11
8.32298e-11
8.27764e-11
8.32875e-11
8.3134e-11
8.2826e-11
8.29095e-11
8.30961e-11
8.31302e-11
8.30753e-11
8.54629e-11
9.2675e-11
1.48667e-10
3.10302e-10
4.73192e-10
1.29367e-10
3.9108e-10
1.31865e-10
8.66144e-11
7.74742e-11
7.62399e-11
7.60239e-11
7.61497e-11
7.60238e-11
7.58447e-11
7.56093e-11
7.56881e-11
7.59147e-11
7.58949e-11
7.58666e-11
7.79856e-11
8.50067e-11
1.35659e-10
2.7984e-10
4.21162e-10
1.31048e-10
3.25176e-10
1.16833e-10
7.98539e-11
7.15481e-11
7.04751e-11
7.02697e-11
7.02901e-11
7.02239e-11
7.0029e-11
6.98459e-11
6.99383e-11
7.01573e-11
7.01349e-11
7.00987e-11
7.20851e-11
7.85194e-11
1.23628e-10
2.51646e-10
3.74837e-10
1.31934e-10
2.74956e-10
1.03613e-10
7.35452e-11
6.61887e-11
6.4858e-11
6.46618e-11
6.45824e-11
6.45769e-11
6.43533e-11
6.42157e-11
6.43372e-11
6.44978e-11
6.45048e-11
6.44842e-11
6.63057e-11
7.22569e-11
1.1231e-10
2.2542e-10
3.36571e-10
1.31799e-10
2.31956e-10
9.31769e-11
6.79878e-11
6.12927e-11
6.00947e-11
5.99091e-11
5.97657e-11
5.97951e-11
5.95623e-11
5.94608e-11
5.96004e-11
5.96979e-11
5.97462e-11
5.9728e-11
6.14126e-11
6.68005e-11
1.01455e-10
2.00967e-10
3.02843e-10
1.30387e-10
1.95975e-10
8.3683e-11
6.28862e-11
5.67609e-11
5.56999e-11
5.55243e-11
5.53315e-11
5.53892e-11
5.51488e-11
5.50774e-11
5.52214e-11
5.52684e-11
5.53586e-11
5.53428e-11
5.69007e-11
6.17172e-11
9.26509e-11
1.78175e-10
2.72849e-10
1.27327e-10
1.66315e-10
7.54659e-11
5.81183e-11
5.25325e-11
5.15882e-11
5.14211e-11
5.11915e-11
5.12728e-11
5.10257e-11
5.09786e-11
5.1116e-11
5.113e-11
5.12553e-11
5.1242e-11
5.26787e-11
5.69458e-11
8.42907e-11
1.56865e-10
2.44352e-10
1.22502e-10
1.40055e-10
6.80647e-11
5.35962e-11
4.8522e-11
4.76785e-11
4.75176e-11
4.72617e-11
4.73637e-11
4.711e-11
4.70822e-11
4.72084e-11
4.72021e-11
4.7355e-11
4.7343e-11
4.86653e-11
5.2406e-11
7.6332e-11
1.36955e-10
2.17122e-10
1.16223e-10
1.16909e-10
6.12983e-11
4.92381e-11
4.46504e-11
4.38937e-11
4.37368e-11
4.34629e-11
4.35842e-11
4.33231e-11
4.33113e-11
4.34255e-11
4.34069e-11
4.35811e-11
4.35684e-11
4.47838e-11
4.8017e-11
6.87353e-11
1.18401e-10
1.93201e-10
1.08771e-10
9.9762e-11
5.50164e-11
4.49668e-11
4.08465e-11
4.01635e-11
4.00084e-11
3.97248e-11
3.98643e-11
3.95952e-11
3.95965e-11
3.96993e-11
3.9674e-11
3.98644e-11
3.98483e-11
4.09643e-11
4.37088e-11
6.1465e-11
1.02194e-10
1.69142e-10
1.00324e-10
8.52487e-11
4.90797e-11
4.07172e-11
3.70523e-11
3.64318e-11
3.62751e-11
3.59914e-11
3.61478e-11
3.58707e-11
3.58825e-11
3.59734e-11
3.59472e-11
3.61493e-11
3.61268e-11
3.71499e-11
3.94274e-11
5.44877e-11
8.72382e-11
1.43432e-10
9.10532e-11
7.27272e-11
4.33941e-11
3.6444e-11
3.3233e-11
3.2665e-11
3.25006e-11
3.22301e-11
3.24006e-11
3.21175e-11
3.2137e-11
3.22119e-11
3.21938e-11
3.24021e-11
3.23704e-11
3.33049e-11
3.51413e-11
4.77889e-11
7.35454e-11
1.22584e-10
8.11302e-11
6.16847e-11
3.76035e-11
3.21454e-11
2.92398e-11
2.87458e-11
2.86784e-11
2.83028e-11
2.85007e-11
2.82015e-11
2.82378e-11
2.84087e-11
2.82799e-11
2.85063e-11
2.84697e-11
2.93125e-11
3.08482e-11
4.13881e-11
6.11059e-11
1.01961e-10
7.07546e-11
5.17751e-11
3.195e-11
2.78503e-11
2.5338e-11
2.49068e-11
2.48418e-11
2.44845e-11
2.46891e-11
2.43918e-11
2.44322e-11
2.45953e-11
2.44698e-11
2.46928e-11
2.46473e-11
2.54018e-11
2.65859e-11
3.47919e-11
4.94357e-11
8.35599e-11
6.01837e-11
4.28014e-11
2.67874e-11
2.36218e-11
2.14817e-11
2.11156e-11
2.10562e-11
2.07237e-11
2.09287e-11
2.06405e-11
2.06827e-11
2.08363e-11
2.07151e-11
2.09294e-11
2.08772e-11
2.15429e-11
2.24252e-11
2.89818e-11
3.95374e-11
6.69279e-11
4.97451e-11
3.46743e-11
2.19159e-11
1.95534e-11
1.7767e-11
1.74655e-11
1.74141e-11
1.7113e-11
1.73109e-11
1.70402e-11
1.70817e-11
1.7223e-11
1.71081e-11
1.73077e-11
1.72524e-11
1.78274e-11
1.84606e-11
2.35879e-11
3.09339e-11
5.2258e-11
3.98184e-11
2.74036e-11
1.74489e-11
1.57548e-11
1.43014e-11
1.40606e-11
1.40187e-11
1.37544e-11
1.3938e-11
1.36925e-11
1.37314e-11
1.38575e-11
1.37515e-11
1.39308e-11
1.38762e-11
1.43594e-11
1.47959e-11
1.87078e-11
2.36255e-11
3.96824e-11
3.07627e-11
2.10408e-11
1.34897e-11
1.23294e-11
1.11821e-11
1.09961e-11
1.09635e-11
1.07401e-11
1.09028e-11
1.06891e-11
1.07237e-11
1.08322e-11
1.07382e-11
1.08927e-11
1.08422e-11
1.1235e-11
1.15243e-11
1.4425e-11
1.75826e-11
2.92401e-11
2.28678e-11
1.56408e-11
1.01082e-11
9.35452e-12
8.47911e-12
8.34007e-12
8.31557e-12
8.13423e-12
8.27196e-12
8.09364e-12
8.12307e-12
8.21305e-12
8.13298e-12
8.26079e-12
8.21617e-12
8.52591e-12
8.70734e-12
1.07976e-11
1.27249e-11
2.08853e-11
1.63214e-11
1.12283e-11
7.32767e-12
6.86874e-12
6.22485e-12
6.12311e-12
6.10555e-12
5.96402e-12
6.07572e-12
5.93279e-12
5.95645e-12
6.02849e-12
5.96291e-12
6.06482e-12
6.02651e-12
6.26511e-12
6.36912e-12
7.83533e-12
8.93646e-12
1.44494e-11
1.1149e-11
7.75826e-12
5.12348e-12
4.86708e-12
4.41222e-12
4.33775e-12
4.32568e-12
4.21956e-12
4.30647e-12
4.19637e-12
4.21464e-12
4.27011e-12
4.21865e-12
4.29651e-12
4.26528e-12
4.44477e-12
4.49864e-12
5.49064e-12
6.07794e-12
9.64956e-12
7.25288e-12
5.13223e-12
3.43536e-12
3.29679e-12
2.9802e-12
2.94734e-12
2.93942e-12
2.86317e-12
2.92798e-12
2.84658e-12
2.86016e-12
2.90111e-12
2.86249e-12
2.91941e-12
2.89514e-12
3.00671e-12
3.03058e-12
3.69451e-12
3.96292e-12
6.19365e-12
4.45345e-12
3.21951e-12
2.18599e-12
2.12539e-12
1.91957e-12
1.89968e-12
1.89465e-12
1.8425e-12
1.88857e-12
1.83116e-12
1.84079e-12
1.86963e-12
1.84203e-12
1.88163e-12
1.86375e-12
1.93873e-12
1.94617e-12
2.3632e-12
2.47001e-12
3.78945e-12
2.53875e-12
1.88228e-12
1.29512e-12
1.27615e-12
1.15005e-12
1.13895e-12
1.13587e-12
1.10242e-12
1.13319e-12
1.09511e-12
1.10155e-12
1.12065e-12
1.10212e-12
1.12799e-12
1.11565e-12
1.16284e-12
1.16276e-12
1.41064e-12
1.4387e-12
2.17413e-12
1.30375e-12
9.94186e-13
6.91038e-13
6.90423e-13
6.19598e-13
6.14113e-13
6.12324e-13
5.92796e-13
6.11543e-13
5.885e-13
5.92422e-13
6.03977e-13
5.92618e-13
6.08042e-13
6.00262e-13
6.27595e-13
6.24804e-13
7.60624e-13
7.5732e-13
1.13464e-12
5.72587e-13
4.49963e-13
3.1469e-13
3.18943e-13
2.8446e-13
2.82222e-13
2.81286e-13
2.71508e-13
2.81314e-13
2.69336e-13
2.71388e-13
2.77398e-13
2.71413e-13
2.79324e-13
2.75106e-13
2.88854e-13
2.86104e-13
3.51084e-13
3.41208e-13
5.10746e-13
2.00344e-13
1.62441e-13
1.14351e-13
1.1744e-13
1.04131e-13
1.03443e-13
1.03042e-13
9.92005e-14
1.03221e-13
9.83372e-14
9.91803e-14
1.01631e-13
9.91603e-14
1.02348e-13
1.0056e-13
1.06032e-13
1.0447e-13
1.29279e-13
1.22919e-13
1.84098e-13
5.05845e-14
4.20864e-14
2.96903e-14
3.08346e-14
2.71493e-14
2.70057e-14
2.68799e-14
2.58038e-14
2.69796e-14
2.55569e-14
2.58065e-14
2.65179e-14
2.57938e-14
2.67068e-14
2.61727e-14
2.77295e-14
2.71859e-14
3.4007e-14
3.17766e-14
4.78588e-14
7.2594e-15
6.14741e-15
4.37108e-15
4.56255e-15
4.01144e-15
3.99541e-15
3.97425e-15
3.81291e-15
3.99542e-15
3.7749e-15
3.8142e-15
3.92428e-15
3.81148e-15
3.95152e-15
3.86647e-15
4.1061e-15
4.01084e-15
5.03604e-15
4.66308e-15
7.02097e-15
8.14312e-16
6.96398e-16
5.13863e-16
5.32675e-16
4.75285e-16
4.73607e-16
4.71268e-16
4.54268e-16
4.7368e-16
4.50132e-16
4.54427e-16
4.66115e-16
4.54129e-16
4.68951e-16
4.59909e-16
4.85193e-16
4.75277e-16
5.81836e-16
5.45665e-16
7.88181e-16
)
;

boundaryField
{
    fuel
    {
        type            fixedValue;
        value           uniform 0;
    }
    wall
    {
        type            zeroGradient;
    }
    outlet
    {
        type            zeroGradient;
    }
    frontAndBack
    {
        type            empty;
    }
}


// ************************************************************************* //
