/*--------------------------------*- C++ -*----------------------------------*\
| =========                 |                                                 |
| \\      /  F ield         | OpenFOAM: The Open Source CFD Toolbox           |
|  \\    /   O peration     | Version:  dev                                   |
|   \\  /    A nd           | Web:      www.OpenFOAM.org                      |
|    \\/     M anipulation  |                                                 |
\*---------------------------------------------------------------------------*/
FoamFile
{
    version     2.0;
    format      ascii;
    class       volScalarField;
    location    "0.2";
    object      A3-1;
}
// * * * * * * * * * * * * * * * * * * * * * * * * * * * * * * * * * * * * * //

dimensions      [0 0 0 0 0 0 0];

internalField   nonuniform List<scalar> 
1000
(
5.20136e-11
3.52037e-09
3.13631e-09
3.00576e-09
2.99606e-09
2.98909e-09
2.98942e-09
2.98948e-09
2.98967e-09
2.98941e-09
2.98917e-09
2.98955e-09
2.9893e-09
2.98925e-09
2.98955e-09
2.99229e-09
3.01382e-09
3.19522e-09
4.57003e-09
4.6002e-11
5.99971e-11
7.03707e-09
5.75876e-09
5.39811e-09
5.37126e-09
5.35303e-09
5.35429e-09
5.35384e-09
5.35428e-09
5.35391e-09
5.35335e-09
5.35398e-09
5.35347e-09
5.35307e-09
5.35431e-09
5.36085e-09
5.41873e-09
5.92216e-09
1.02845e-08
5.95644e-11
1.33274e-10
6.25895e-09
4.8165e-09
4.36777e-09
4.34856e-09
4.32203e-09
4.32502e-09
4.32346e-09
4.32417e-09
4.32357e-09
4.32302e-09
4.3238e-09
4.3229e-09
4.32264e-09
4.32391e-09
4.33124e-09
4.39622e-09
4.96957e-09
1.04167e-08
3.55531e-11
1.43292e-09
4.57278e-09
3.33606e-09
2.90548e-09
2.89862e-09
2.86954e-09
2.87349e-09
2.8714e-09
2.87235e-09
2.87146e-09
2.87117e-09
2.8719e-09
2.87085e-09
2.87052e-09
2.87175e-09
2.87832e-09
2.9355e-09
3.44348e-09
8.53581e-09
1.84206e-11
4.38839e-09
3.28568e-09
2.27622e-09
1.89478e-09
1.89433e-09
1.86711e-09
1.87058e-09
1.86893e-09
1.86994e-09
1.86891e-09
1.86891e-09
1.86948e-09
1.86842e-09
1.86766e-09
1.86924e-09
1.87485e-09
1.92271e-09
2.34891e-09
6.6934e-09
1.02439e-11
6.39917e-09
2.44085e-09
1.58039e-09
1.28323e-09
1.28425e-09
1.26048e-09
1.26263e-09
1.262e-09
1.26292e-09
1.26187e-09
1.26209e-09
1.26251e-09
1.26149e-09
1.26022e-09
1.26227e-09
1.26716e-09
1.30806e-09
1.66953e-09
5.27801e-09
6.43511e-12
7.43162e-09
1.86227e-09
1.1676e-09
9.14019e-10
9.13828e-10
8.93514e-10
8.94446e-10
8.94659e-10
8.95488e-10
8.94374e-10
8.94839e-10
8.95132e-10
8.94073e-10
8.92163e-10
8.94947e-10
8.99321e-10
9.36037e-10
1.25095e-09
4.22989e-09
4.51924e-12
7.83756e-09
1.48587e-09
9.01615e-10
6.80864e-10
6.79409e-10
6.62459e-10
6.63152e-10
6.63314e-10
6.64026e-10
6.63026e-10
6.63522e-10
6.6372e-10
6.62811e-10
6.61306e-10
6.63617e-10
6.67308e-10
7.00667e-10
9.84166e-10
3.44537e-09
3.60293e-12
7.64211e-09
1.24405e-09
7.1555e-10
5.21365e-10
5.24781e-10
5.11331e-10
5.12997e-10
5.11988e-10
5.12627e-10
5.11856e-10
5.12224e-10
5.12353e-10
5.11704e-10
5.11316e-10
5.12346e-10
5.1489e-10
5.37366e-10
7.92528e-10
2.84599e-09
3.53694e-12
6.89849e-09
1.06078e-09
5.77525e-10
4.14752e-10
4.13397e-10
4.01149e-10
4.0364e-10
4.01494e-10
4.02076e-10
4.01427e-10
4.01785e-10
4.01872e-10
4.01212e-10
4.02201e-10
4.02068e-10
4.04747e-10
4.29747e-10
6.46663e-10
2.37837e-09
4.626e-12
5.83059e-09
9.25955e-10
4.78478e-10
3.34852e-10
3.31544e-10
3.21632e-10
3.23701e-10
3.21752e-10
3.22255e-10
3.21686e-10
3.2205e-10
3.22101e-10
3.21361e-10
3.22421e-10
3.22389e-10
3.24809e-10
3.4766e-10
5.5023e-10
2.00701e-09
8.26735e-12
4.69091e-09
8.12366e-10
4.04075e-10
2.77035e-10
2.72282e-10
2.63996e-10
2.65138e-10
2.63953e-10
2.64416e-10
2.63926e-10
2.64268e-10
2.64299e-10
2.63348e-10
2.63629e-10
2.6466e-10
2.66942e-10
2.88051e-10
4.70668e-10
1.70715e-09
1.52554e-11
3.64867e-09
7.18143e-10
3.45203e-10
2.33906e-10
2.28167e-10
2.21117e-10
2.21028e-10
2.20934e-10
2.21383e-10
2.20995e-10
2.21272e-10
2.21297e-10
2.19987e-10
2.24623e-10
2.2175e-10
2.23891e-10
2.43323e-10
4.02744e-10
1.46194e-09
2.44234e-11
2.78146e-09
6.38512e-10
3.07056e-10
2.00938e-10
1.94502e-10
1.8846e-10
1.91326e-10
1.88128e-10
1.88576e-10
1.88297e-10
1.8849e-10
1.88523e-10
1.86563e-10
1.90891e-10
1.89012e-10
1.91062e-10
2.08919e-10
3.53115e-10
1.2427e-09
3.51338e-11
2.1047e-09
5.73537e-10
2.73776e-10
1.75135e-10
1.68251e-10
1.62996e-10
1.65236e-10
1.62523e-10
1.63014e-10
1.62824e-10
1.62944e-10
1.63004e-10
1.63516e-10
1.64569e-10
1.63492e-10
1.65476e-10
1.8184e-10
3.05896e-10
1.04259e-09
4.74347e-11
1.59957e-09
5.17175e-10
2.43944e-10
1.54479e-10
1.47373e-10
1.42741e-10
1.44335e-10
1.42109e-10
1.42696e-10
1.42564e-10
1.42636e-10
1.42722e-10
1.42964e-10
1.43728e-10
1.43207e-10
1.45132e-10
1.60091e-10
2.656e-10
8.95347e-10
6.06282e-11
1.23362e-09
4.66014e-10
2.18697e-10
1.37585e-10
1.30451e-10
1.26328e-10
1.27428e-10
1.25482e-10
1.26242e-10
1.26138e-10
1.26186e-10
1.26296e-10
1.26282e-10
1.26962e-10
1.2678e-10
1.28644e-10
1.42286e-10
2.31363e-10
7.6675e-10
7.3383e-11
9.73543e-10
4.19979e-10
1.96493e-10
1.23478e-10
1.16482e-10
1.12786e-10
1.13535e-10
1.11628e-10
1.12673e-10
1.12576e-10
1.12617e-10
1.12749e-10
1.12424e-10
1.13222e-10
1.13232e-10
1.1503e-10
1.27445e-10
2.0223e-10
6.55201e-10
8.48329e-11
7.91234e-10
3.7898e-10
1.80562e-10
1.11462e-10
1.04743e-10
1.01417e-10
1.0194e-10
1.01277e-10
1.01288e-10
1.01186e-10
1.01225e-10
1.01377e-10
1.00604e-10
1.01747e-10
1.01859e-10
1.03584e-10
1.14862e-10
1.77406e-10
5.59848e-10
9.48209e-11
6.42479e-10
3.42037e-10
1.65427e-10
1.01001e-10
9.47021e-11
9.17089e-11
9.2078e-11
9.13902e-11
9.15671e-11
9.14604e-11
9.14968e-11
9.16696e-11
9.15485e-11
9.19926e-11
9.21444e-11
9.37926e-11
1.04012e-10
1.56185e-10
4.70212e-10
1.036e-10
5.44982e-10
3.08519e-10
1.50554e-10
9.26486e-11
8.59616e-11
8.32808e-11
8.35427e-11
8.27509e-11
8.31271e-11
8.30187e-11
8.30495e-11
8.3242e-11
8.34981e-11
8.35443e-11
8.37045e-11
8.5273e-11
9.44491e-11
1.38063e-10
3.9379e-10
1.11601e-10
4.73588e-10
2.77848e-10
1.371e-10
8.48351e-11
7.81937e-11
7.58413e-11
7.60217e-11
7.59467e-11
7.56742e-11
7.55669e-11
7.55832e-11
7.57983e-11
7.59325e-11
7.60858e-11
7.62427e-11
7.7731e-11
8.60656e-11
1.22545e-10
3.3149e-10
1.18964e-10
4.13557e-10
2.49568e-10
1.24732e-10
7.81904e-11
7.21098e-11
6.991e-11
7.00696e-11
6.99526e-11
6.97528e-11
6.96428e-11
6.96172e-11
6.98848e-11
6.99523e-11
7.0159e-11
7.03097e-11
7.17171e-11
7.927e-11
1.09229e-10
2.78255e-10
1.25597e-10
3.67414e-10
2.23381e-10
1.13146e-10
7.18409e-11
6.62182e-11
6.41938e-11
6.43154e-11
6.41666e-11
6.40257e-11
6.39128e-11
6.39658e-11
6.41814e-11
6.41845e-11
6.44462e-11
6.45848e-11
6.5929e-11
7.29891e-11
9.76767e-11
2.34706e-10
1.31187e-10
3.30549e-10
1.99048e-10
1.02017e-10
6.63285e-11
6.12287e-11
5.93626e-11
5.94632e-11
5.9295e-11
5.91966e-11
5.90866e-11
5.90991e-11
5.93627e-11
5.93223e-11
5.96113e-11
5.9741e-11
6.09956e-11
6.74693e-11
8.86405e-11
1.99367e-10
1.35123e-10
2.93374e-10
1.76417e-10
9.30896e-11
6.12414e-11
5.66554e-11
5.49404e-11
5.50225e-11
5.48407e-11
5.47761e-11
5.46696e-11
5.46672e-11
5.49468e-11
5.48668e-11
5.51813e-11
5.53031e-11
5.64528e-11
6.24124e-11
8.00927e-11
1.70734e-10
1.3699e-10
2.57629e-10
1.55325e-10
8.46541e-11
5.64842e-11
5.24109e-11
5.08331e-11
5.09016e-11
5.07081e-11
5.06714e-11
5.05676e-11
5.05552e-11
5.08427e-11
5.07274e-11
5.10663e-11
5.11803e-11
5.2237e-11
5.76982e-11
7.29091e-11
1.47674e-10
1.36762e-10
2.27548e-10
1.35691e-10
7.66742e-11
5.19715e-11
4.84086e-11
4.69519e-11
4.70125e-11
4.68068e-11
4.67944e-11
4.66916e-11
4.66696e-11
4.6963e-11
4.68174e-11
4.71789e-11
4.72849e-11
4.82586e-11
5.32353e-11
6.63519e-11
1.26787e-10
1.34371e-10
2.03564e-10
1.1747e-10
6.90758e-11
4.76265e-11
4.45594e-11
4.32143e-11
4.32705e-11
4.30524e-11
4.3062e-11
4.2958e-11
4.29256e-11
4.32255e-11
4.30538e-11
4.34362e-11
4.35332e-11
4.44329e-11
4.89371e-11
6.02512e-11
1.0895e-10
1.29934e-10
1.78063e-10
1.01423e-10
6.18159e-11
4.33735e-11
4.07867e-11
3.95432e-11
3.95987e-11
3.93666e-11
3.93985e-11
3.92894e-11
3.92468e-11
3.95551e-11
3.93601e-11
3.97626e-11
3.98489e-11
4.06826e-11
4.47241e-11
5.44668e-11
9.55794e-11
1.23652e-10
1.50273e-10
8.66369e-11
5.48543e-11
3.91519e-11
3.70273e-11
3.58762e-11
3.59338e-11
3.56857e-11
3.57432e-11
3.56228e-11
3.5571e-11
3.5889e-11
3.5673e-11
3.60956e-11
3.61689e-11
3.69439e-11
4.05292e-11
4.88815e-11
8.38447e-11
1.15646e-10
1.28242e-10
7.30913e-11
4.81708e-11
3.49241e-11
3.32396e-11
3.21736e-11
3.22357e-11
3.19688e-11
3.2059e-11
3.1918e-11
3.18588e-11
3.2186e-11
3.19518e-11
3.23953e-11
3.24529e-11
3.31716e-11
3.63108e-11
4.34275e-11
7.31972e-11
1.06078e-10
1.07019e-10
6.07607e-11
4.17814e-11
3.06832e-11
2.92803e-11
2.8351e-11
2.84169e-11
2.82061e-11
2.82496e-11
2.81662e-11
2.81018e-11
2.84352e-11
2.81869e-11
2.85666e-11
2.8608e-11
2.9217e-11
3.20619e-11
3.76914e-11
6.32698e-11
9.5175e-11
8.76736e-11
4.92205e-11
3.51662e-11
2.64651e-11
2.54103e-11
2.45723e-11
2.46426e-11
2.44269e-11
2.44933e-11
2.43961e-11
2.4329e-11
2.46626e-11
2.44067e-11
2.4787e-11
2.48109e-11
2.53434e-11
2.78076e-11
3.21922e-11
5.38878e-11
8.32626e-11
7.02041e-11
3.93814e-11
2.9336e-11
2.23398e-11
2.15798e-11
2.0836e-11
2.09087e-11
2.06957e-11
2.07756e-11
2.06725e-11
2.06055e-11
2.0931e-11
2.06755e-11
2.1045e-11
2.10536e-11
2.15049e-11
2.36093e-11
2.70234e-11
4.50088e-11
7.07686e-11
5.47971e-11
3.08273e-11
2.39073e-11
1.84017e-11
1.78799e-11
1.72346e-11
1.7307e-11
1.71049e-11
1.71893e-11
1.70881e-11
1.70238e-11
1.73314e-11
1.70857e-11
1.7432e-11
1.74284e-11
1.78003e-11
1.9559e-11
2.21177e-11
3.66931e-11
5.82025e-11
4.15796e-11
2.35541e-11
1.89804e-11
1.47562e-11
1.44157e-11
1.38725e-11
1.39415e-11
1.37578e-11
1.38398e-11
1.37464e-11
1.36872e-11
1.39673e-11
1.37403e-11
1.40522e-11
1.40401e-11
1.43382e-11
1.57681e-11
1.76045e-11
2.90785e-11
4.62156e-11
3.06246e-11
1.75271e-11
1.4653e-11
1.14952e-11
1.12892e-11
1.08449e-11
1.09081e-11
1.07483e-11
1.08234e-11
1.0741e-11
1.06891e-11
1.09343e-11
1.07332e-11
1.10026e-11
1.09856e-11
1.12182e-11
1.23439e-11
1.3599e-11
2.23261e-11
3.53245e-11
2.18778e-11
1.26778e-11
1.09847e-11
8.68401e-12
8.57461e-12
8.22023e-12
8.2764e-12
8.1428e-12
8.20828e-12
8.13871e-12
8.09531e-12
8.30124e-12
8.13069e-12
8.35308e-12
8.33495e-12
8.51112e-12
9.36693e-12
1.01781e-11
1.65613e-11
2.59231e-11
1.51121e-11
8.90344e-12
7.97447e-12
6.35222e-12
6.30435e-12
6.03047e-12
6.07772e-12
5.97105e-12
6.02542e-12
5.96914e-12
5.93423e-12
6.09987e-12
5.96165e-12
6.13664e-12
6.12034e-12
6.24915e-12
6.87721e-12
7.36766e-12
1.18395e-11
1.82236e-11
1.00715e-11
6.05415e-12
5.58912e-12
4.48632e-12
4.47525e-12
4.26814e-12
4.30591e-12
4.22447e-12
4.26756e-12
4.22393e-12
4.19698e-12
4.32492e-12
4.21743e-12
4.34882e-12
4.33574e-12
4.42597e-12
4.87128e-12
5.14345e-12
8.13675e-12
1.22454e-11
6.44872e-12
3.94611e-12
3.76081e-12
3.02183e-12
3.02667e-12
2.89676e-12
2.92557e-12
2.86614e-12
2.89874e-12
2.86638e-12
2.84639e-12
2.94117e-12
2.86102e-12
2.95488e-12
2.94548e-12
3.00102e-12
3.29861e-12
3.44345e-12
5.35043e-12
7.83099e-12
3.93515e-12
2.45809e-12
2.40548e-12
1.9401e-12
1.95289e-12
1.86443e-12
1.88529e-12
1.84405e-12
1.86748e-12
1.84464e-12
1.83047e-12
1.89743e-12
1.84044e-12
1.90402e-12
1.89786e-12
1.93118e-12
2.1257e-12
2.18803e-12
3.33636e-12
4.72686e-12
2.25201e-12
1.4307e-12
1.43593e-12
1.15872e-12
1.17228e-12
1.11576e-12
1.12994e-12
1.10308e-12
1.11887e-12
1.10374e-12
1.09429e-12
1.13876e-12
1.10066e-12
1.14117e-12
1.13736e-12
1.15646e-12
1.27583e-12
1.29471e-12
1.94019e-12
2.65089e-12
1.17281e-12
7.52388e-13
7.74459e-13
6.22264e-13
6.33001e-13
6.00111e-13
6.08949e-13
5.92986e-13
6.02673e-13
5.93541e-13
5.87783e-13
6.14732e-13
5.91488e-13
6.15164e-13
6.12915e-13
6.2299e-13
6.89972e-13
6.90063e-13
1.02055e-12
1.34126e-12
5.27103e-13
3.38565e-13
3.57614e-13
2.84676e-13
2.91368e-13
2.74884e-13
2.79636e-13
2.71471e-13
2.76575e-13
2.71842e-13
2.68829e-13
2.82856e-13
2.70676e-13
2.82636e-13
2.8146e-13
2.85995e-13
3.18566e-13
3.13906e-13
4.60677e-13
5.81598e-13
1.89667e-13
1.21789e-13
1.31673e-13
1.03812e-13
1.06892e-13
1.00383e-13
1.02385e-13
9.91054e-14
1.01208e-13
9.92884e-14
9.80501e-14
1.03775e-13
9.87733e-14
1.03534e-13
1.03049e-13
1.04642e-13
1.17199e-13
1.13921e-13
1.6603e-13
2.01414e-13
4.91394e-14
3.13857e-14
3.45666e-14
2.6927e-14
2.78814e-14
2.60512e-14
2.66457e-14
2.57104e-14
2.63232e-14
2.57704e-14
2.54052e-14
2.70714e-14
2.56083e-14
2.69611e-14
2.68198e-14
2.72175e-14
3.06863e-14
2.94891e-14
4.2922e-14
5.04118e-14
7.12731e-15
4.56115e-15
5.06638e-15
3.93342e-15
4.08685e-15
3.8106e-15
3.90399e-15
3.76221e-15
3.8564e-15
3.77197e-15
3.71525e-15
3.97107e-15
3.74589e-15
3.94938e-15
3.92828e-15
3.98203e-15
4.49561e-15
4.29799e-15
6.20837e-15
7.1397e-15
7.83169e-16
5.27382e-16
5.75081e-16
4.6048e-16
4.75839e-16
4.47498e-16
4.57162e-16
4.4249e-16
4.52272e-16
4.43506e-16
4.37466e-16
4.64237e-16
4.40742e-16
4.61855e-16
4.59691e-16
4.65262e-16
5.17548e-16
4.98571e-16
6.90025e-16
7.87114e-16
)
;

boundaryField
{
    fuel
    {
        type            fixedValue;
        value           uniform 0;
    }
    wall
    {
        type            zeroGradient;
    }
    outlet
    {
        type            zeroGradient;
    }
    frontAndBack
    {
        type            empty;
    }
}


// ************************************************************************* //
