/*--------------------------------*- C++ -*----------------------------------*\
| =========                 |                                                 |
| \\      /  F ield         | OpenFOAM: The Open Source CFD Toolbox           |
|  \\    /   O peration     | Version:  dev                                   |
|   \\  /    A nd           | Web:      www.OpenFOAM.org                      |
|    \\/     M anipulation  |                                                 |
\*---------------------------------------------------------------------------*/
FoamFile
{
    version     2.0;
    format      ascii;
    class       volScalarField;
    location    "0.2";
    object      A3C2H;
}
// * * * * * * * * * * * * * * * * * * * * * * * * * * * * * * * * * * * * * //

dimensions      [0 0 0 0 0 0 0];

internalField   nonuniform List<scalar> 
1000
(
5.28182e-11
8.15812e-10
7.01489e-10
6.68247e-10
6.65426e-10
6.63788e-10
6.6385e-10
6.63878e-10
6.63923e-10
6.63866e-10
6.63808e-10
6.63888e-10
6.63839e-10
6.63797e-10
6.63896e-10
6.64573e-10
6.7017e-10
7.17854e-10
1.10871e-09
2.88092e-11
1.37135e-10
1.36789e-09
1.06249e-09
9.85536e-10
9.78881e-10
9.75274e-10
9.75443e-10
9.75428e-10
9.75521e-10
9.75445e-10
9.75342e-10
9.75451e-10
9.7536e-10
9.75206e-10
9.75536e-10
9.76957e-10
9.8972e-10
1.10083e-09
2.15952e-09
6.79592e-11
1.89833e-10
1.41899e-09
1.0234e-09
9.1693e-10
9.09397e-10
9.03975e-10
9.0428e-10
9.042e-10
9.04337e-10
9.04214e-10
9.04125e-10
9.0426e-10
9.04078e-10
9.03858e-10
9.04349e-10
9.06251e-10
9.23093e-10
1.07121e-09
2.61671e-09
9.44086e-11
3.19812e-10
1.30235e-09
8.81035e-10
7.57576e-10
7.50704e-10
7.43874e-10
7.44223e-10
7.44156e-10
7.44347e-10
7.44137e-10
7.44107e-10
7.44259e-10
7.43987e-10
7.43658e-10
7.44318e-10
7.46499e-10
7.65228e-10
9.31487e-10
2.77686e-09
1.14065e-10
6.91558e-10
1.15041e-09
7.29037e-10
5.98169e-10
5.92357e-10
5.84693e-10
5.84921e-10
5.85004e-10
5.85247e-10
5.84944e-10
5.84995e-10
5.85146e-10
5.84799e-10
5.84271e-10
5.85173e-10
5.87478e-10
6.06686e-10
7.78611e-10
2.76863e-09
1.2921e-10
1.0265e-09
1.00981e-09
5.87468e-10
4.64499e-10
4.59539e-10
4.51584e-10
4.51543e-10
4.51893e-10
4.52166e-10
4.51789e-10
4.51925e-10
4.52057e-10
4.51661e-10
4.50903e-10
4.52068e-10
4.54398e-10
4.73343e-10
6.43129e-10
2.66467e-09
1.4154e-10
1.40091e-09
8.82506e-10
4.77094e-10
3.60106e-10
3.55503e-10
3.47706e-10
3.47431e-10
3.47975e-10
3.48267e-10
3.47817e-10
3.48052e-10
3.48157e-10
3.47704e-10
3.46725e-10
3.48169e-10
3.50442e-10
3.68905e-10
5.31898e-10
2.50625e-09
1.53354e-10
1.83572e-09
7.78743e-10
3.90201e-10
2.80724e-10
2.76445e-10
2.69289e-10
2.69135e-10
2.69514e-10
2.69798e-10
2.69358e-10
2.69615e-10
2.69692e-10
2.69268e-10
2.68491e-10
2.69723e-10
2.71762e-10
2.89242e-10
4.43734e-10
2.31642e-09
1.65293e-10
2.2719e-09
6.98644e-10
3.20351e-10
2.19279e-10
2.17664e-10
2.11599e-10
2.12018e-10
2.11787e-10
2.12062e-10
2.11699e-10
2.11907e-10
2.11958e-10
2.11628e-10
2.11383e-10
2.12021e-10
2.1357e-10
2.26531e-10
3.69213e-10
2.10916e-09
1.73173e-10
2.59495e-09
6.27265e-10
2.63151e-10
1.75162e-10
1.72096e-10
1.66381e-10
1.67253e-10
1.66466e-10
1.66728e-10
1.66408e-10
1.66612e-10
1.66647e-10
1.66303e-10
1.66689e-10
1.66791e-10
1.68358e-10
1.82065e-10
3.05627e-10
1.89428e-09
1.716e-10
2.71291e-09
5.67333e-10
2.19335e-10
1.40609e-10
1.37108e-10
1.32366e-10
1.33105e-10
1.32368e-10
1.326e-10
1.32315e-10
1.32517e-10
1.32537e-10
1.32153e-10
1.32597e-10
1.32716e-10
1.34127e-10
1.46538e-10
2.60611e-10
1.6796e-09
1.59702e-10
2.61324e-09
5.10747e-10
1.8502e-10
1.15044e-10
1.1122e-10
1.0722e-10
1.0759e-10
1.07159e-10
1.07373e-10
1.07136e-10
1.07314e-10
1.07325e-10
1.06848e-10
1.06978e-10
1.07531e-10
1.08835e-10
1.20109e-10
2.21818e-10
1.47105e-09
1.43558e-10
2.35335e-09
4.59204e-10
1.57164e-10
9.58005e-11
9.17942e-11
8.83913e-11
8.82612e-11
8.82751e-11
8.84798e-11
8.82997e-11
8.84375e-11
8.84455e-11
8.78174e-11
8.98796e-11
8.86856e-11
8.98825e-11
1.00073e-10
1.87844e-10
1.27383e-09
1.29799e-10
2.01579e-09
4.12287e-10
1.38891e-10
8.10774e-11
7.69774e-11
7.40758e-11
7.52729e-11
7.38993e-11
7.41008e-11
7.39757e-11
7.40695e-11
7.40805e-11
7.3187e-11
7.50908e-11
7.43291e-11
7.54453e-11
8.46359e-11
1.62749e-10
1.07722e-09
1.21049e-10
1.6713e-09
3.71747e-10
1.22809e-10
6.9605e-11
6.54934e-11
6.29919e-11
6.39207e-11
6.27596e-11
6.29767e-11
6.28948e-11
6.29533e-11
6.29751e-11
6.31809e-11
6.3632e-11
6.32155e-11
6.42658e-11
7.25345e-11
1.38802e-10
8.84469e-10
1.1812e-10
1.36344e-09
3.34949e-10
1.08313e-10
6.05006e-11
5.64526e-11
5.4274e-11
5.49218e-11
5.39794e-11
5.42344e-11
5.41797e-11
5.42164e-11
5.42477e-11
5.43477e-11
5.46626e-11
5.44789e-11
5.54699e-11
6.28955e-11
1.18491e-10
7.37295e-10
1.2061e-10
1.1103e-09
3.00354e-10
9.60448e-11
5.31486e-11
4.92271e-11
4.73146e-11
4.77504e-11
4.69379e-11
4.726e-11
4.72194e-11
4.72457e-11
4.7285e-11
4.72829e-11
4.75546e-11
4.7508e-11
4.84424e-11
5.51006e-11
1.01443e-10
6.07618e-10
1.26332e-10
9.13145e-10
2.68451e-10
8.53156e-11
4.71133e-11
4.33685e-11
4.16811e-11
4.19684e-11
4.11849e-11
4.16175e-11
4.15821e-11
4.16051e-11
4.16505e-11
4.15258e-11
4.18382e-11
4.18663e-11
4.27452e-11
4.8708e-11
8.71787e-11
4.96706e-10
1.32778e-10
7.65303e-10
2.39618e-10
7.77096e-11
4.20845e-11
3.85544e-11
3.7062e-11
3.72549e-11
3.69914e-11
3.69945e-11
3.6959e-11
3.6981e-11
3.70308e-11
3.6731e-11
3.71739e-11
3.72396e-11
3.8064e-11
4.33986e-11
7.52716e-11
4.04753e-10
1.37922e-10
6.3785e-10
2.13511e-10
7.05896e-11
3.78258e-11
3.45501e-11
3.32305e-11
3.336e-11
3.30974e-11
3.31602e-11
3.3125e-11
3.31461e-11
3.32e-11
3.31641e-11
3.33215e-11
3.33998e-11
3.41709e-11
3.89371e-11
6.53357e-11
3.22267e-10
1.40532e-10
5.50251e-10
1.89931e-10
6.37313e-11
3.45401e-11
3.11814e-11
3.00201e-11
3.01057e-11
2.98127e-11
2.99475e-11
2.99141e-11
2.9933e-11
2.99896e-11
3.01017e-11
3.01001e-11
3.01792e-11
3.08989e-11
3.51281e-11
5.70841e-11
2.55948e-10
1.40459e-10
4.83369e-10
1.68658e-10
5.76955e-11
3.15872e-11
2.83095e-11
2.73058e-11
2.73582e-11
2.73361e-11
2.72303e-11
2.71997e-11
2.72138e-11
2.7273e-11
2.73435e-11
2.73751e-11
2.74509e-11
2.81216e-11
3.19144e-11
5.02416e-11
2.05274e-10
1.37902e-10
4.24817e-10
1.49497e-10
5.23335e-11
2.9196e-11
2.61723e-11
2.52538e-11
2.52958e-11
2.52656e-11
2.51833e-11
2.51541e-11
2.51546e-11
2.5226e-11
2.52765e-11
2.5321e-11
2.53929e-11
2.60191e-11
2.9429e-11
4.45863e-11
1.64769e-10
1.33447e-10
3.78031e-10
1.32308e-10
4.75139e-11
2.70404e-11
2.42256e-11
2.33984e-11
2.34243e-11
2.33894e-11
2.33259e-11
2.32984e-11
2.33245e-11
2.33734e-11
2.34064e-11
2.34623e-11
2.35286e-11
2.41174e-11
2.72591e-11
3.98947e-11
1.33736e-10
1.27701e-10
3.3931e-10
1.16947e-10
4.30991e-11
2.52963e-11
2.26959e-11
2.19489e-11
2.19644e-11
2.19287e-11
2.18781e-11
2.18542e-11
2.18675e-11
2.19262e-11
2.19489e-11
2.20071e-11
2.20693e-11
2.2615e-11
2.54797e-11
3.64211e-11
1.10164e-10
1.21157e-10
2.99041e-10
1.03279e-10
3.97421e-11
2.38171e-11
2.14167e-11
2.07444e-11
2.07502e-11
2.07156e-11
2.06746e-11
2.06546e-11
2.06638e-11
2.07213e-11
2.07354e-11
2.07951e-11
2.08539e-11
2.13524e-11
2.39819e-11
3.33485e-11
9.23262e-11
1.14268e-10
2.59517e-10
9.11248e-11
3.6751e-11
2.25654e-11
2.03542e-11
1.97497e-11
1.97471e-11
1.97146e-11
1.96809e-11
1.96647e-11
1.96713e-11
1.97244e-11
1.97318e-11
1.97923e-11
1.98484e-11
2.03071e-11
2.27174e-11
3.09622e-11
7.88695e-11
1.07395e-10
2.26375e-10
8.03464e-11
3.40968e-11
2.15069e-11
1.94763e-11
1.89324e-11
1.89229e-11
1.88925e-11
1.88645e-11
1.88515e-11
1.88557e-11
1.89034e-11
1.89062e-11
1.89667e-11
1.90205e-11
1.94457e-11
2.16515e-11
2.89766e-11
6.75249e-11
1.00766e-10
2.00347e-10
7.08534e-11
3.17381e-11
2.06083e-11
1.87493e-11
1.82598e-11
1.82447e-11
1.82163e-11
1.81929e-11
1.81825e-11
1.8184e-11
1.82266e-11
1.82263e-11
1.82862e-11
1.83381e-11
1.87356e-11
2.07496e-11
2.73128e-11
5.85952e-11
9.45466e-11
1.73619e-10
6.29066e-11
2.96377e-11
1.98337e-11
1.81396e-11
1.76982e-11
1.76788e-11
1.76516e-11
1.76323e-11
1.76236e-11
1.76222e-11
1.76611e-11
1.76582e-11
1.77176e-11
1.77676e-11
1.81427e-11
1.99763e-11
2.58996e-11
5.24903e-11
8.88001e-11
1.45959e-10
5.59109e-11
2.77527e-11
1.91454e-11
1.76117e-11
1.72117e-11
1.71895e-11
1.71621e-11
1.71473e-11
1.71387e-11
1.71346e-11
1.71715e-11
1.71659e-11
1.72256e-11
1.72736e-11
1.76311e-11
1.92937e-11
2.46668e-11
4.76528e-11
8.34451e-11
1.25262e-10
4.97381e-11
2.6039e-11
1.85044e-11
1.71286e-11
1.67631e-11
1.67399e-11
1.67102e-11
1.67006e-11
1.66904e-11
1.66836e-11
1.67207e-11
1.67114e-11
1.67735e-11
1.68192e-11
1.7161e-11
1.86645e-11
2.35511e-11
4.36876e-11
7.83495e-11
1.06493e-10
4.42531e-11
2.44552e-11
1.78716e-11
1.66383e-11
1.63068e-11
1.62839e-11
1.62574e-11
1.62459e-11
1.62405e-11
1.62312e-11
1.6271e-11
1.62565e-11
1.63149e-11
1.63578e-11
1.66757e-11
1.80528e-11
2.2421e-11
4.02961e-11
7.336e-11
9.02648e-11
3.91458e-11
2.28235e-11
1.72097e-11
1.61272e-11
1.58193e-11
1.57984e-11
1.57672e-11
1.57614e-11
1.57526e-11
1.57408e-11
1.57855e-11
1.57644e-11
1.58281e-11
1.58674e-11
1.6163e-11
1.74181e-11
2.13119e-11
3.72539e-11
6.83262e-11
7.61695e-11
3.4701e-11
2.13277e-11
1.64863e-11
1.55493e-11
1.52608e-11
1.52432e-11
1.52067e-11
1.52065e-11
1.51941e-11
1.518e-11
1.52315e-11
1.52024e-11
1.52724e-11
1.53073e-11
1.55781e-11
1.6724e-11
2.01828e-11
3.43904e-11
6.31208e-11
6.39723e-11
3.06527e-11
1.98217e-11
1.56749e-11
1.48771e-11
1.46051e-11
1.4592e-11
1.45496e-11
1.45549e-11
1.45387e-11
1.45224e-11
1.45821e-11
1.45441e-11
1.46212e-11
1.4651e-11
1.48965e-11
1.59394e-11
1.89676e-11
3.15823e-11
5.76564e-11
5.34313e-11
2.69346e-11
1.82822e-11
1.47575e-11
1.40908e-11
1.38338e-11
1.38258e-11
1.37777e-11
1.37883e-11
1.37683e-11
1.375e-11
1.38185e-11
1.37711e-11
1.38554e-11
1.38797e-11
1.41003e-11
1.50431e-11
1.76481e-11
2.87534e-11
5.19518e-11
4.43623e-11
2.34962e-11
1.66985e-11
1.37252e-11
1.31811e-11
1.29376e-11
1.29355e-11
1.28821e-11
1.28978e-11
1.28742e-11
1.28543e-11
1.29313e-11
1.28748e-11
1.29655e-11
1.29841e-11
1.31806e-11
1.40244e-11
1.62198e-11
2.58722e-11
4.60608e-11
3.66188e-11
2.0309e-11
1.50701e-11
1.25817e-11
1.215e-11
1.19195e-11
1.19235e-11
1.18658e-11
1.18861e-11
1.18593e-11
1.18385e-11
1.19224e-11
1.18583e-11
1.19531e-11
1.19664e-11
1.21396e-11
1.28855e-11
1.46924e-11
2.29399e-11
4.00729e-11
2.99738e-11
1.73721e-11
1.34066e-11
1.13476e-11
1.10147e-11
1.07984e-11
1.08076e-11
1.07479e-11
1.07717e-11
1.07428e-11
1.07216e-11
1.08095e-11
1.07405e-11
1.08356e-11
1.08447e-11
1.09949e-11
1.16439e-11
1.30933e-11
1.99942e-11
3.41348e-11
2.4314e-11
1.46983e-11
1.1742e-11
1.00642e-11
9.81495e-12
9.61474e-12
9.62759e-12
9.56886e-12
9.59434e-12
9.56509e-12
9.54448e-12
9.63197e-12
9.56178e-12
9.65232e-12
9.65866e-12
9.78546e-12
1.03393e-11
1.14741e-11
1.71206e-11
2.84932e-11
1.95614e-11
1.22991e-11
1.01359e-11
8.77816e-12
8.59281e-12
8.43446e-12
8.44875e-12
8.39467e-12
8.41955e-12
8.39196e-12
8.37315e-12
8.45445e-12
8.38822e-12
8.46866e-12
8.47357e-12
8.57258e-12
9.02676e-12
9.90888e-12
1.442e-11
2.33519e-11
1.56686e-11
1.02719e-11
8.672e-12
7.61368e-12
7.47628e-12
7.34405e-12
7.35713e-12
7.31125e-12
7.33308e-12
7.30927e-12
7.29342e-12
7.3627e-12
7.30571e-12
7.37142e-12
7.37595e-12
7.45227e-12
7.81664e-12
8.49073e-12
1.20078e-11
1.88916e-11
1.26e-11
8.64402e-12
7.43904e-12
6.64037e-12
6.53401e-12
6.4312e-12
6.44082e-12
6.40551e-12
6.42237e-12
6.40385e-12
6.39173e-12
6.44493e-12
6.40106e-12
6.44985e-12
6.45443e-12
6.51235e-12
6.79139e-12
7.30992e-12
9.99018e-12
1.52324e-11
1.03068e-11
7.43664e-12
6.50239e-12
5.91886e-12
5.83088e-12
5.75674e-12
5.76172e-12
5.7373e-12
5.74849e-12
5.73558e-12
5.72727e-12
5.76372e-12
5.73393e-12
5.7667e-12
5.77134e-12
5.81496e-12
6.01943e-12
6.42559e-12
8.43036e-12
1.2402e-11
8.69976e-12
6.62109e-12
5.87582e-12
5.45842e-12
5.38157e-12
5.33115e-12
5.33168e-12
5.31638e-12
5.32256e-12
5.31434e-12
5.30914e-12
5.33176e-12
5.31386e-12
5.33412e-12
5.33865e-12
5.37195e-12
5.51766e-12
5.8419e-12
7.32328e-12
1.03266e-11
7.64116e-12
6.11834e-12
5.51329e-12
5.2141e-12
5.14564e-12
5.11182e-12
5.10916e-12
5.10002e-12
5.10276e-12
5.0976e-12
5.09441e-12
5.10811e-12
5.09803e-12
5.11048e-12
5.1146e-12
5.14107e-12
5.24504e-12
5.50634e-12
6.59477e-12
8.85715e-12
6.97339e-12
5.82866e-12
5.33316e-12
5.11256e-12
5.05192e-12
5.02815e-12
5.02378e-12
5.01802e-12
5.01894e-12
5.01525e-12
5.0131e-12
5.02238e-12
5.01628e-12
5.02494e-12
5.02838e-12
5.05058e-12
5.12707e-12
5.3379e-12
6.13685e-12
7.82951e-12
6.56328e-12
5.66501e-12
5.25347e-12
5.08206e-12
5.02873e-12
5.01027e-12
5.00536e-12
5.00104e-12
5.00132e-12
4.99802e-12
4.99628e-12
5.00411e-12
4.99937e-12
5.00679e-12
5.00949e-12
5.02902e-12
5.08844e-12
5.25987e-12
5.85337e-12
7.12359e-12
6.33298e-12
5.57485e-12
5.21654e-12
5.07268e-12
5.02466e-12
5.00878e-12
5.00382e-12
5.00006e-12
5.00019e-12
4.99688e-12
4.99533e-12
5.00275e-12
4.99843e-12
5.00548e-12
5.00765e-12
5.0256e-12
5.07529e-12
5.22148e-12
5.68957e-12
6.6973e-12
)
;

boundaryField
{
    fuel
    {
        type            fixedValue;
        value           uniform 0;
    }
    wall
    {
        type            zeroGradient;
    }
    outlet
    {
        type            zeroGradient;
    }
    frontAndBack
    {
        type            empty;
    }
}


// ************************************************************************* //
