/*--------------------------------*- C++ -*----------------------------------*\
| =========                 |                                                 |
| \\      /  F ield         | OpenFOAM: The Open Source CFD Toolbox           |
|  \\    /   O peration     | Version:  dev                                   |
|   \\  /    A nd           | Web:      www.OpenFOAM.org                      |
|    \\/     M anipulation  |                                                 |
\*---------------------------------------------------------------------------*/
FoamFile
{
    version     2.0;
    format      ascii;
    class       volScalarField;
    location    "0.1";
    object      A4-;
}
// * * * * * * * * * * * * * * * * * * * * * * * * * * * * * * * * * * * * * //

dimensions      [0 0 0 0 0 0 0];

internalField   nonuniform List<scalar> 
100
(
3.59126e-12
2.29735e-12
1.54212e-12
1.07149e-12
7.22457e-13
4.6792e-13
2.86829e-13
1.6913e-13
9.85661e-14
5.68539e-14
3.36972e-14
2.05097e-14
1.30576e-14
8.70529e-15
6.03715e-15
4.30975e-15
3.13368e-15
2.30097e-15
1.69571e-15
1.2492e-15
9.17716e-16
6.71536e-16
4.89335e-16
3.5522e-16
2.57054e-16
1.86546e-16
1.36524e-16
1.01009e-16
7.614e-17
5.90457e-17
4.75963e-17
4.04638e-17
3.62605e-17
3.42581e-17
3.39403e-17
3.49469e-17
3.70304e-17
4.00257e-17
4.38226e-17
4.83288e-17
5.35721e-17
5.94699e-17
6.59446e-17
7.27235e-17
8.00337e-17
8.78971e-17
9.63277e-17
1.04729e-16
1.13445e-16
1.22646e-16
1.31817e-16
1.41106e-16
1.506e-16
1.605e-16
1.70339e-16
1.7957e-16
1.8862e-16
1.97363e-16
2.05685e-16
2.13468e-16
2.2059e-16
2.26928e-16
2.32364e-16
2.36783e-16
2.40081e-16
2.42162e-16
2.42945e-16
2.42369e-16
2.40401e-16
2.37023e-16
2.32125e-16
2.25852e-16
2.18203e-16
2.09242e-16
1.99086e-16
1.87575e-16
1.75331e-16
1.62287e-16
1.48239e-16
1.34178e-16
1.19859e-16
1.05614e-16
9.15839e-17
7.79311e-17
6.47392e-17
5.29037e-17
4.20972e-17
3.24999e-17
2.42198e-17
1.73097e-17
1.17734e-17
7.54365e-18
4.49658e-18
2.45662e-18
1.21077e-18
5.32096e-19
2.09687e-19
7.73694e-20
2.8845e-20
1.02559e-20
)
;

boundaryField
{
    wall
    {
        type            zeroGradient;
    }
    fuel
    {
        type            fixedValue;
        value           uniform 0;
    }
    outlet
    {
        type            inletOutlet;
        inletValue      uniform 0;
        value           uniform 1.02559e-20;
    }
}


// ************************************************************************* //
