/*--------------------------------*- C++ -*----------------------------------*\
| =========                 |                                                 |
| \\      /  F ield         | OpenFOAM: The Open Source CFD Toolbox           |
|  \\    /   O peration     | Version:  dev                                   |
|   \\  /    A nd           | Web:      www.OpenFOAM.org                      |
|    \\/     M anipulation  |                                                 |
\*---------------------------------------------------------------------------*/
FoamFile
{
    version     2.0;
    format      ascii;
    class       volScalarField;
    location    "0.2";
    object      C;
}
// * * * * * * * * * * * * * * * * * * * * * * * * * * * * * * * * * * * * * //

dimensions      [0 0 0 0 0 0 0];

internalField   nonuniform List<scalar> 
1000
(
6.01213e-11
5.36867e-07
8.09566e-07
8.5063e-07
8.55463e-07
8.55922e-07
8.56166e-07
8.56001e-07
8.56136e-07
8.56055e-07
8.56112e-07
8.56118e-07
8.56148e-07
8.56116e-07
8.56085e-07
8.55816e-07
8.51243e-07
8.28992e-07
6.65277e-07
1.25417e-10
1.78013e-10
1.26667e-06
1.71149e-06
1.78132e-06
1.78979e-06
1.7907e-06
1.79119e-06
1.7909e-06
1.79106e-06
1.7909e-06
1.79104e-06
1.79096e-06
1.79104e-06
1.79127e-06
1.7905e-06
1.79145e-06
1.78149e-06
1.74953e-06
1.50514e-06
4.87467e-10
7.49007e-11
5.25652e-07
6.76614e-07
7.05866e-07
7.09204e-07
7.09634e-07
7.09935e-07
7.09713e-07
7.09872e-07
7.09722e-07
7.09827e-07
7.0981e-07
7.09725e-07
7.10393e-07
7.09007e-07
7.11951e-07
7.04002e-07
7.03107e-07
6.24343e-07
4.29782e-10
2.36565e-11
1.67072e-07
2.07476e-07
2.18583e-07
2.19725e-07
2.19889e-07
2.20018e-07
2.19903e-07
2.19996e-07
2.19916e-07
2.19959e-07
2.19989e-07
2.19907e-07
2.20332e-07
2.19513e-07
2.21534e-07
2.17095e-07
2.22001e-07
2.0682e-07
1.9098e-08
8.84048e-12
5.85892e-08
7.21687e-08
7.74564e-08
7.79767e-08
7.80483e-08
7.80887e-08
7.80432e-08
7.80932e-08
7.80546e-08
7.80734e-08
7.81009e-08
7.80549e-08
7.82433e-08
7.78843e-08
7.89122e-08
7.66451e-08
8.02586e-08
7.75887e-08
8.65732e-07
4.36054e-12
2.49311e-08
3.23957e-08
3.56826e-08
3.6018e-08
3.60578e-08
3.60507e-08
3.60483e-08
3.60762e-08
3.60567e-08
3.60667e-08
3.60857e-08
3.60604e-08
3.61297e-08
3.59866e-08
3.65074e-08
3.52482e-08
3.60525e-08
3.55705e-08
1.96686e-06
2.75636e-12
1.26201e-08
1.86375e-08
2.10892e-08
2.1352e-08
2.13761e-08
2.13335e-08
2.1359e-08
2.13782e-08
2.13625e-08
2.13755e-08
2.13887e-08
2.13722e-08
2.13669e-08
2.13418e-08
2.16358e-08
2.08344e-08
2.10753e-08
1.84669e-08
1.18178e-06
2.0609e-12
7.27066e-09
1.2459e-08
1.50094e-08
1.51855e-08
1.51982e-08
1.51448e-08
1.51764e-08
1.51895e-08
1.51778e-08
1.51893e-08
1.51992e-08
1.51859e-08
1.51647e-08
1.51789e-08
1.53784e-08
1.48341e-08
1.44196e-08
1.1052e-08
4.90387e-07
1.68103e-12
4.61374e-09
9.69584e-09
1.17016e-08
1.20455e-08
1.20927e-08
1.21247e-08
1.20899e-08
1.20997e-08
1.20896e-08
1.21009e-08
1.21088e-08
1.20965e-08
1.21358e-08
1.20794e-08
1.21293e-08
1.15959e-08
1.12217e-08
7.60503e-09
1.90431e-07
1.44506e-12
3.16059e-09
8.00179e-09
1.00963e-08
1.03741e-08
1.04039e-08
1.04432e-08
1.03951e-08
1.04009e-08
1.03901e-08
1.04046e-08
1.04119e-08
1.03961e-08
1.04485e-08
1.03923e-08
1.04456e-08
1.00024e-08
9.25668e-09
5.5815e-09
7.76631e-08
1.44885e-12
2.31092e-09
6.92906e-09
9.0206e-09
9.27345e-09
9.30199e-09
9.31765e-09
9.28977e-09
9.2957e-09
9.28813e-09
9.29809e-09
9.30424e-09
9.28611e-09
9.30507e-09
9.29178e-09
9.31957e-09
8.92832e-09
8.03007e-09
4.41097e-09
3.45158e-08
2.86384e-12
1.79135e-09
6.28225e-09
8.27374e-09
8.52234e-09
8.54984e-09
8.56029e-09
8.53556e-09
8.54302e-09
8.53821e-09
8.54305e-09
8.54852e-09
8.52578e-09
8.6066e-09
8.5392e-09
8.55288e-09
8.17874e-09
7.17235e-09
3.60177e-09
1.68619e-08
7.83548e-12
1.46511e-09
5.76401e-09
7.70826e-09
7.94906e-09
7.97568e-09
8.02593e-09
7.95889e-09
7.96976e-09
7.96812e-09
7.96637e-09
7.97148e-09
7.94112e-09
8.01351e-09
7.96321e-09
7.96924e-09
7.60307e-09
6.50818e-09
3.03591e-09
9.05214e-09
1.63295e-11
1.26038e-09
5.3937e-09
7.24183e-09
7.46985e-09
7.49485e-09
7.52183e-09
7.4744e-09
7.49062e-09
7.49038e-09
7.48321e-09
7.4883e-09
7.44577e-09
7.51353e-09
7.48039e-09
7.48294e-09
7.12224e-09
6.0596e-09
2.62351e-09
5.29144e-09
2.81353e-11
1.12421e-09
5.07552e-09
6.8295e-09
7.04075e-09
7.06374e-09
7.07742e-09
7.0377e-09
7.06085e-09
7.05951e-09
7.04937e-09
7.05484e-09
7.05374e-09
7.07157e-09
7.04709e-09
7.04885e-09
6.6932e-09
5.66271e-09
2.33152e-09
3.34773e-09
4.37969e-11
1.04055e-09
4.78483e-09
6.44562e-09
6.63707e-09
6.65781e-09
6.66428e-09
6.62378e-09
6.65539e-09
6.65117e-09
6.64022e-09
6.6461e-09
6.63875e-09
6.65866e-09
6.63887e-09
6.64161e-09
6.29172e-09
5.27121e-09
2.1038e-09
2.265e-09
6.20588e-11
1.00592e-09
4.52677e-09
6.07441e-09
6.24401e-09
6.26239e-09
6.26469e-09
6.21736e-09
6.25941e-09
6.25157e-09
6.24116e-09
6.24741e-09
6.23369e-09
6.25838e-09
6.24111e-09
6.2461e-09
5.90363e-09
4.91302e-09
1.91263e-09
1.62529e-09
7.94552e-11
9.99121e-10
4.28741e-09
5.70475e-09
5.85211e-09
5.86815e-09
5.86796e-09
5.80791e-09
5.86374e-09
5.85221e-09
5.84302e-09
5.84948e-09
5.82854e-09
5.86045e-09
5.84458e-09
5.85274e-09
5.51978e-09
4.57229e-09
1.75611e-09
1.23212e-09
9.35508e-11
1.0129e-09
4.05613e-09
5.3276e-09
5.45496e-09
5.46886e-09
5.46746e-09
5.44096e-09
5.4625e-09
5.4474e-09
5.43971e-09
5.4462e-09
5.41667e-09
5.45819e-09
5.44316e-09
5.45514e-09
5.13373e-09
4.30382e-09
1.62692e-09
9.47824e-10
1.04676e-10
1.04124e-09
3.82459e-09
4.93516e-09
5.04806e-09
5.06019e-09
5.05788e-09
5.02028e-09
5.05142e-09
5.03319e-09
5.0271e-09
5.0335e-09
4.99379e-09
5.0472e-09
5.03265e-09
5.04872e-09
4.73981e-09
4.01451e-09
1.517e-09
7.7409e-10
1.15466e-10
1.07835e-09
3.58655e-09
4.57778e-09
4.62812e-09
4.63908e-09
4.63621e-09
4.58516e-09
4.62784e-09
4.60678e-09
4.60234e-09
4.60887e-09
4.61144e-09
4.6246e-09
4.61015e-09
4.62991e-09
4.37683e-09
3.71245e-09
1.41993e-09
6.41317e-10
1.29131e-10
1.12098e-09
3.33585e-09
4.18732e-09
4.19203e-09
4.20311e-09
4.20031e-09
4.18623e-09
4.18972e-09
4.16605e-09
4.16329e-09
4.1704e-09
4.17662e-09
4.18701e-09
4.17357e-09
4.1948e-09
3.98223e-09
3.40994e-09
1.33051e-09
5.47615e-10
1.4811e-10
1.15958e-09
3.06812e-09
3.8108e-09
3.79044e-09
3.80455e-09
3.80149e-09
3.78116e-09
3.78936e-09
3.7637e-09
3.76225e-09
3.77127e-09
3.77702e-09
3.78802e-09
3.77384e-09
3.80233e-09
3.60569e-09
3.10236e-09
1.24427e-09
4.68456e-10
1.73671e-10
1.18209e-09
2.77927e-09
3.41124e-09
3.38108e-09
3.36439e-09
3.36069e-09
3.33435e-09
3.34756e-09
3.3188e-09
3.31857e-09
3.33061e-09
3.33241e-09
3.34576e-09
3.33303e-09
3.36643e-09
3.19967e-09
2.78436e-09
1.15727e-09
4.07169e-10
2.05713e-10
1.187e-09
2.50402e-09
3.01867e-09
2.96878e-09
2.95331e-09
2.94927e-09
2.91971e-09
2.93566e-09
2.90581e-09
2.90661e-09
2.92032e-09
2.91827e-09
2.93432e-09
2.92205e-09
2.96003e-09
2.81323e-09
2.45237e-09
1.06686e-09
3.57104e-10
2.42326e-10
1.16819e-09
2.2058e-09
2.62467e-09
2.55885e-09
2.54453e-09
2.54024e-09
2.50889e-09
2.52673e-09
2.49644e-09
2.49803e-09
2.51197e-09
2.50724e-09
2.52565e-09
2.51397e-09
2.55569e-09
2.4276e-09
2.16458e-09
9.71497e-10
3.17059e-10
2.78365e-10
1.12038e-09
1.90724e-09
2.2348e-09
2.15815e-09
2.14492e-09
2.14041e-09
2.10883e-09
2.12762e-09
2.09774e-09
2.09989e-09
2.11295e-09
2.10694e-09
2.12664e-09
2.11584e-09
2.15937e-09
2.05101e-09
1.8735e-09
8.68735e-10
2.82919e-10
3.07301e-10
1.03534e-09
1.60694e-09
1.85647e-09
1.77464e-09
1.76256e-09
1.75786e-09
1.72757e-09
1.74638e-09
1.71784e-09
1.72031e-09
1.73191e-09
1.72558e-09
1.74543e-09
1.73568e-09
1.779e-09
1.69039e-09
1.5842e-09
7.5853e-10
2.52908e-10
3.23653e-10
9.13621e-10
1.31428e-09
1.49853e-09
1.4171e-09
1.40619e-09
1.40139e-09
1.37371e-09
1.39171e-09
1.36533e-09
1.36791e-09
1.37776e-09
1.37176e-09
1.3907e-09
1.3821e-09
1.42326e-09
1.35312e-09
1.30335e-09
6.4267e-10
2.27701e-10
3.22819e-10
7.8561e-10
1.03891e-09
1.16987e-09
1.09402e-09
1.08432e-09
1.07947e-09
1.05553e-09
1.07195e-09
1.04851e-09
1.05099e-09
1.05895e-09
1.05379e-09
1.07091e-09
1.06349e-09
1.10075e-09
1.04697e-09
1.03862e-09
5.31731e-10
2.02454e-10
3.02904e-10
6.46072e-10
7.90161e-10
8.78756e-10
8.12696e-10
8.04252e-10
7.9936e-10
7.79995e-10
7.94229e-10
7.74312e-10
7.7652e-10
7.82494e-10
7.78604e-10
7.9324e-10
7.86972e-10
8.19011e-10
7.79013e-10
7.97826e-10
4.23315e-10
1.73913e-10
2.65973e-10
5.05412e-10
5.75907e-10
6.31556e-10
5.78171e-10
5.71003e-10
5.66006e-10
5.51688e-10
5.63327e-10
5.47263e-10
5.49079e-10
5.52958e-10
5.50729e-10
5.62466e-10
5.57293e-10
5.83326e-10
5.54365e-10
5.87997e-10
3.22469e-10
1.48408e-10
2.17573e-10
3.73853e-10
3.9138e-10
4.31845e-10
3.85946e-10
3.80981e-10
3.81086e-10
3.65655e-10
3.7527e-10
3.62542e-10
3.6442e-10
3.71648e-10
3.65306e-10
3.74814e-10
3.71015e-10
3.90608e-10
3.7515e-10
4.14319e-10
2.33729e-10
1.20532e-10
1.6514e-10
2.60144e-10
2.49306e-10
2.79501e-10
2.46552e-10
2.42924e-10
2.42771e-10
2.32089e-10
2.3907e-10
2.29925e-10
2.31308e-10
2.3637e-10
2.31973e-10
2.38724e-10
2.35918e-10
2.49851e-10
2.40189e-10
2.67059e-10
1.57141e-10
9.37116e-11
1.15872e-10
1.69554e-10
1.52628e-10
1.7035e-10
1.48298e-10
1.45849e-10
1.45628e-10
1.38708e-10
1.43443e-10
1.373e-10
1.38246e-10
1.41565e-10
1.3869e-10
1.43182e-10
1.4125e-10
1.50512e-10
1.4479e-10
1.66691e-10
1.00881e-10
6.8636e-11
7.49299e-11
1.03012e-10
8.74216e-11
9.73227e-11
8.36283e-11
8.2103e-11
8.19218e-11
7.77336e-11
8.07202e-11
7.68813e-11
7.74803e-11
7.95148e-11
7.77378e-11
8.05226e-11
7.92969e-11
8.5015e-11
8.18325e-11
9.74161e-11
6.05988e-11
4.69167e-11
4.45711e-11
5.81217e-11
4.66927e-11
5.19396e-11
4.40824e-11
4.32069e-11
4.30922e-11
4.07323e-11
4.24775e-11
4.02535e-11
4.06017e-11
4.1761e-11
4.07332e-11
4.23325e-11
4.16178e-11
4.48792e-11
4.32295e-11
5.30751e-11
3.39305e-11
2.96972e-11
2.43569e-11
3.03623e-11
2.32147e-11
2.58362e-11
2.16838e-11
2.12211e-11
2.11591e-11
1.99272e-11
2.08678e-11
1.96782e-11
1.98657e-11
2.04775e-11
1.99258e-11
2.07729e-11
2.03909e-11
2.21019e-11
2.1315e-11
2.68791e-11
1.7674e-11
1.73e-11
1.22196e-11
1.46539e-11
1.07387e-11
1.19665e-11
9.94868e-12
9.72307e-12
9.69257e-12
9.09933e-12
9.56548e-12
8.97944e-12
9.07678e-12
9.37582e-12
9.10171e-12
9.51614e-12
9.32695e-12
1.01576e-11
9.80649e-12
1.26536e-11
8.55148e-12
9.25719e-12
5.64787e-12
6.55028e-12
4.63326e-12
5.17214e-12
4.27005e-12
4.16593e-12
4.15242e-12
3.88807e-12
4.10147e-12
3.83459e-12
3.87798e-12
4.01368e-12
3.88749e-12
4.07548e-12
3.98751e-12
4.36547e-12
4.21336e-12
5.55116e-12
3.84275e-12
4.55764e-12
2.41598e-12
2.72096e-12
1.87222e-12
2.09463e-12
1.72356e-12
1.6759e-12
1.67042e-12
1.56124e-12
1.65174e-12
1.53908e-12
1.55736e-12
1.61453e-12
1.56073e-12
1.63963e-12
1.60181e-12
1.7638e-12
1.70195e-12
2.27317e-12
1.61539e-12
2.06428e-12
9.64501e-13
1.05765e-12
7.14048e-13
7.92762e-13
6.47418e-13
6.38004e-13
6.35953e-13
5.93988e-13
6.297e-13
5.85423e-13
5.92629e-13
6.15046e-13
5.93728e-13
6.24506e-13
6.09387e-13
6.63869e-13
6.40895e-13
8.74245e-13
6.33772e-13
8.65365e-13
3.64768e-13
3.89841e-13
2.61051e-13
2.88723e-13
2.3659e-13
2.33367e-13
2.32631e-13
2.17503e-13
2.3072e-13
2.1439e-13
2.17061e-13
2.25314e-13
2.17395e-13
2.28647e-13
2.22995e-13
2.42631e-13
2.34468e-13
3.20248e-13
2.39633e-13
3.40577e-13
1.34378e-13
1.39889e-13
9.4252e-14
1.03433e-13
8.56226e-14
8.45352e-14
8.42746e-14
7.90724e-14
8.37356e-14
7.7989e-14
7.89356e-14
8.18367e-14
7.90313e-14
8.29552e-14
8.09463e-14
8.76835e-14
8.49879e-14
1.14856e-13
8.93011e-14
1.29298e-13
5.07234e-14
5.14412e-14
3.55314e-14
3.84979e-14
3.24635e-14
3.20927e-14
3.19986e-14
3.02189e-14
3.18514e-14
2.98424e-14
3.01763e-14
3.119e-14
3.02039e-14
3.15632e-14
3.08587e-14
3.31603e-14
3.22916e-14
4.25426e-14
3.46166e-14
4.97638e-14
2.1186e-14
2.10488e-14
1.51761e-14
1.61888e-14
1.39934e-14
1.38524e-14
1.38163e-14
1.31553e-14
1.37727e-14
1.30121e-14
1.31411e-14
1.35225e-14
1.3151e-14
1.36563e-14
1.33967e-14
1.42342e-14
1.39543e-14
1.76706e-14
1.50976e-14
2.09345e-14
1.07358e-14
1.0555e-14
8.03281e-15
8.42858e-15
7.48421e-15
7.4114e-15
7.39751e-15
7.09722e-15
7.38111e-15
7.02894e-15
7.09308e-15
7.26285e-15
7.09995e-15
7.31896e-15
7.21524e-15
7.55929e-15
7.48788e-15
9.01459e-15
8.10612e-15
1.05211e-14
7.07654e-15
6.89978e-15
5.54532e-15
5.70551e-15
5.20125e-15
5.13952e-15
5.13806e-15
4.95391e-15
5.13014e-15
4.9081e-15
4.95619e-15
5.05098e-15
4.9654e-15
5.07988e-15
5.0401e-15
5.19977e-15
5.22855e-15
5.95702e-15
5.66983e-15
6.78031e-15
5.74537e-15
5.54681e-15
4.67772e-15
4.71451e-15
4.40102e-15
4.3316e-15
4.34073e-15
4.19552e-15
4.33641e-15
4.15606e-15
4.20344e-15
4.26817e-15
4.21668e-15
4.28632e-15
4.2782e-15
4.35943e-15
4.44281e-15
4.83582e-15
4.8311e-15
5.4108e-15
5.10381e-15
4.89574e-15
4.27002e-15
4.24252e-15
4.02634e-15
3.95051e-15
3.96703e-15
3.83919e-15
3.96437e-15
3.80294e-15
3.85056e-15
3.90178e-15
3.86653e-15
3.91521e-15
3.92156e-15
3.96989e-15
4.07272e-15
4.32037e-15
4.42908e-15
4.80284e-15
)
;

boundaryField
{
    fuel
    {
        type            fixedValue;
        value           uniform 0;
    }
    wall
    {
        type            zeroGradient;
    }
    outlet
    {
        type            zeroGradient;
    }
    frontAndBack
    {
        type            empty;
    }
}


// ************************************************************************* //
