/*--------------------------------*- C++ -*----------------------------------*\
| =========                 |                                                 |
| \\      /  F ield         | OpenFOAM: The Open Source CFD Toolbox           |
|  \\    /   O peration     | Version:  dev                                   |
|   \\  /    A nd           | Web:      www.OpenFOAM.org                      |
|    \\/     M anipulation  |                                                 |
\*---------------------------------------------------------------------------*/
FoamFile
{
    version     2.0;
    format      ascii;
    class       volScalarField;
    location    "0.1";
    object      c-C6H7;
}
// * * * * * * * * * * * * * * * * * * * * * * * * * * * * * * * * * * * * * //

dimensions      [0 0 0 0 0 0 0];

internalField   nonuniform List<scalar> 
100
(
1.46671e-10
5.02539e-11
1.50671e-11
4.30826e-12
1.18392e-12
3.26177e-13
8.82681e-14
2.38354e-14
6.569e-15
1.79769e-15
5.04917e-16
1.4145e-16
4.01692e-17
1.15939e-17
3.42108e-18
1.04745e-18
3.44682e-19
1.30349e-19
6.12294e-20
3.63204e-20
2.54544e-20
1.94537e-20
1.54413e-20
1.2456e-20
1.01266e-20
8.30413e-21
6.89805e-21
5.79295e-21
4.94442e-21
4.33302e-21
3.98133e-21
3.99317e-21
4.61086e-21
6.4021e-21
1.0554e-20
1.94444e-20
3.76605e-20
7.3719e-20
1.4276e-19
2.70428e-19
5.04373e-19
9.20333e-19
1.63453e-18
2.77728e-18
4.60271e-18
7.45966e-18
1.18532e-17
1.80255e-17
2.68102e-17
3.92862e-17
5.57501e-17
7.7558e-17
1.05904e-16
1.43272e-16
1.90153e-16
2.45305e-16
3.12164e-16
3.91805e-16
4.85361e-16
5.9397e-16
7.18761e-16
8.60892e-16
1.02159e-15
1.2022e-15
1.40426e-15
1.6296e-15
1.88066e-15
2.161e-15
2.47581e-15
2.83016e-15
3.22959e-15
3.67273e-15
4.17409e-15
4.74594e-15
5.40364e-15
6.17495e-15
7.04076e-15
8.05918e-15
9.30047e-15
1.07469e-14
1.25038e-14
1.46539e-14
1.73345e-14
2.07285e-14
2.52002e-14
3.08933e-14
3.85565e-14
4.91242e-14
6.41575e-14
8.6365e-14
1.20679e-13
1.76835e-13
2.75775e-13
4.68741e-13
9.05227e-13
2.04234e-12
4.37071e-12
6.06258e-12
5.19152e-12
2.71499e-12
)
;

boundaryField
{
    wall
    {
        type            zeroGradient;
    }
    fuel
    {
        type            fixedValue;
        value           uniform 0;
    }
    outlet
    {
        type            inletOutlet;
        inletValue      uniform 0;
        value           uniform 2.71499e-12;
    }
}


// ************************************************************************* //
