/*--------------------------------*- C++ -*----------------------------------*\
| =========                 |                                                 |
| \\      /  F ield         | OpenFOAM: The Open Source CFD Toolbox           |
|  \\    /   O peration     | Version:  dev                                   |
|   \\  /    A nd           | Web:      www.OpenFOAM.org                      |
|    \\/     M anipulation  |                                                 |
\*---------------------------------------------------------------------------*/
FoamFile
{
    version     2.0;
    format      ascii;
    class       volScalarField;
    location    "0.2";
    object      C2H;
}
// * * * * * * * * * * * * * * * * * * * * * * * * * * * * * * * * * * * * * //

dimensions      [0 0 0 0 0 0 0];

internalField   nonuniform List<scalar> 
1000
(
1.6827e-09
5.32078e-06
6.15132e-06
6.24723e-06
6.27119e-06
6.26942e-06
6.26976e-06
6.26956e-06
6.26957e-06
6.26898e-06
6.26916e-06
6.26988e-06
6.26934e-06
6.27056e-06
6.26948e-06
6.26904e-06
6.24768e-06
6.04133e-06
4.43778e-06
5.34357e-10
5.72382e-09
8.59639e-06
9.41688e-06
9.4643e-06
9.49648e-06
9.48859e-06
9.48968e-06
9.48887e-06
9.48905e-06
9.48827e-06
9.4883e-06
9.48929e-06
9.48823e-06
9.48977e-06
9.48858e-06
9.48877e-06
9.47011e-06
9.27003e-06
7.6171e-06
1.10295e-09
1.33342e-07
5.96715e-06
6.55877e-06
6.53024e-06
6.56965e-06
6.55335e-06
6.55662e-06
6.55462e-06
6.55533e-06
6.55426e-06
6.5543e-06
6.5553e-06
6.55393e-06
6.55536e-06
6.55432e-06
6.55511e-06
6.54347e-06
6.39259e-06
5.23252e-06
7.12148e-10
7.10063e-06
3.9355e-06
4.37225e-06
4.31702e-06
4.35833e-06
4.33888e-06
4.34317e-06
4.34073e-06
4.34184e-06
4.34056e-06
4.34078e-06
4.3416e-06
4.34021e-06
4.34121e-06
4.34061e-06
4.34151e-06
4.33288e-06
4.20087e-06
3.29505e-06
4.28214e-10
1.6962e-05
2.78148e-06
3.14432e-06
3.08348e-06
3.1229e-06
3.10403e-06
3.10791e-06
3.10595e-06
3.10721e-06
3.10583e-06
3.10628e-06
3.10689e-06
3.10551e-06
3.10592e-06
3.106e-06
3.1069e-06
3.09934e-06
2.97187e-06
2.18548e-06
3.03599e-10
1.4455e-05
2.09758e-06
2.42842e-06
2.40554e-06
2.44165e-06
2.42493e-06
2.42751e-06
2.42659e-06
2.42783e-06
2.42641e-06
2.42706e-06
2.42752e-06
2.42613e-06
2.42602e-06
2.42677e-06
2.4277e-06
2.42057e-06
2.29072e-06
1.55139e-06
2.58925e-10
1.01292e-05
1.6481e-06
2.02925e-06
2.01694e-06
2.04941e-06
2.03515e-06
2.03636e-06
2.03641e-06
2.03763e-06
2.03608e-06
2.03701e-06
2.03737e-06
2.03581e-06
2.03505e-06
2.03677e-06
2.03773e-06
2.03127e-06
1.89602e-06
1.16796e-06
2.55239e-10
6.70737e-06
1.35678e-06
1.78147e-06
1.77873e-06
1.80895e-06
1.79719e-06
1.79789e-06
1.79812e-06
1.79931e-06
1.79777e-06
1.79881e-06
1.79912e-06
1.79751e-06
1.79712e-06
1.79867e-06
1.7994e-06
1.79299e-06
1.65423e-06
9.23593e-07
2.76633e-10
4.35193e-06
1.16855e-06
1.60913e-06
1.61632e-06
1.6513e-06
1.64214e-06
1.64353e-06
1.64283e-06
1.64406e-06
1.64263e-06
1.64364e-06
1.64392e-06
1.64231e-06
1.643e-06
1.64365e-06
1.64362e-06
1.62932e-06
1.48523e-06
7.61881e-07
3.17782e-10
2.8292e-06
1.02713e-06
1.47678e-06
1.50309e-06
1.53389e-06
1.52486e-06
1.52694e-06
1.52517e-06
1.52651e-06
1.52511e-06
1.52617e-06
1.52646e-06
1.52451e-06
1.52671e-06
1.52651e-06
1.52699e-06
1.51786e-06
1.35803e-06
6.52355e-07
3.87209e-10
1.87851e-06
9.24148e-07
1.37458e-06
1.41027e-06
1.44008e-06
1.43237e-06
1.434e-06
1.43234e-06
1.43381e-06
1.43245e-06
1.43351e-06
1.43384e-06
1.43136e-06
1.43392e-06
1.43412e-06
1.43466e-06
1.4261e-06
1.27303e-06
5.77682e-07
5.32684e-10
1.28781e-06
8.3938e-07
1.28944e-06
1.33349e-06
1.36278e-06
1.3557e-06
1.35638e-06
1.35533e-06
1.35699e-06
1.35565e-06
1.35671e-06
1.3571e-06
1.35385e-06
1.35591e-06
1.35763e-06
1.35836e-06
1.35098e-06
1.20146e-06
5.27258e-07
9.15837e-10
9.14273e-07
7.71083e-07
1.21353e-06
1.26611e-06
1.29514e-06
1.28836e-06
1.28762e-06
1.28758e-06
1.28951e-06
1.28831e-06
1.28923e-06
1.28972e-06
1.28537e-06
1.29515e-06
1.29055e-06
1.29146e-06
1.28553e-06
1.13838e-06
4.94442e-07
1.83787e-09
6.71884e-07
7.15218e-07
1.15797e-06
1.20461e-06
1.23335e-06
1.22677e-06
1.23231e-06
1.22544e-06
1.22771e-06
1.22669e-06
1.2274e-06
1.22805e-06
1.22203e-06
1.23236e-06
1.22911e-06
1.23029e-06
1.22607e-06
1.09015e-06
4.73104e-07
3.80123e-09
5.1078e-07
6.70996e-07
1.10315e-06
1.14689e-06
1.17527e-06
1.16872e-06
1.17373e-06
1.16674e-06
1.16951e-06
1.16863e-06
1.16915e-06
1.17001e-06
1.16948e-06
1.17334e-06
1.17125e-06
1.17275e-06
1.17043e-06
1.04158e-06
4.61227e-07
7.57655e-09
4.01624e-07
6.33795e-07
1.04747e-06
1.09167e-06
1.11962e-06
1.11299e-06
1.11717e-06
1.11016e-06
1.11365e-06
1.11284e-06
1.11323e-06
1.11432e-06
1.11294e-06
1.11697e-06
1.11574e-06
1.11758e-06
1.11726e-06
9.96698e-07
4.58361e-07
1.39948e-08
3.26654e-07
6.01022e-07
9.94376e-07
1.03808e-06
1.06552e-06
1.05876e-06
1.06226e-06
1.0548e-06
1.05931e-06
1.0585e-06
1.05879e-06
1.06012e-06
1.05769e-06
1.06241e-06
1.06174e-06
1.06393e-06
1.06567e-06
9.54658e-07
4.60707e-07
2.36356e-08
2.7487e-07
5.72263e-07
9.42277e-07
9.85475e-07
1.01235e-06
1.00543e-06
1.00844e-06
9.99892e-07
1.00588e-06
1.00502e-06
1.00523e-06
1.00682e-06
1.00285e-06
1.00897e-06
1.00865e-06
1.01117e-06
1.01494e-06
9.14427e-07
4.66674e-07
3.6747e-08
2.39375e-07
5.47133e-07
9.00914e-07
9.33301e-07
9.596e-07
9.52516e-07
9.55233e-07
9.51479e-07
9.52874e-07
9.51918e-07
9.52055e-07
9.53911e-07
9.4762e-07
9.56063e-07
9.55947e-07
9.58788e-07
9.64495e-07
8.75107e-07
4.74767e-07
5.33799e-08
2.11618e-07
5.24548e-07
8.57759e-07
8.80983e-07
9.06789e-07
8.99576e-07
9.02078e-07
8.97473e-07
8.99825e-07
8.98775e-07
8.98825e-07
9.00988e-07
8.98205e-07
9.0326e-07
9.03188e-07
9.06338e-07
9.13802e-07
8.35922e-07
4.84126e-07
7.35479e-08
1.94611e-07
5.03619e-07
8.11273e-07
8.33201e-07
8.53437e-07
8.46201e-07
8.48518e-07
8.4274e-07
8.46316e-07
8.45179e-07
8.45121e-07
8.47622e-07
8.47387e-07
8.50045e-07
8.4994e-07
8.53395e-07
8.6203e-07
7.96211e-07
4.92802e-07
9.71997e-08
1.83734e-07
4.83551e-07
7.65093e-07
7.82612e-07
7.9889e-07
7.91958e-07
7.94066e-07
7.93051e-07
7.91894e-07
7.90678e-07
7.90442e-07
7.93353e-07
7.92453e-07
7.95879e-07
7.95731e-07
7.99503e-07
8.09906e-07
7.55423e-07
4.98863e-07
1.24048e-07
1.7635e-07
4.63587e-07
7.18473e-07
7.34082e-07
7.50001e-07
7.42419e-07
7.44629e-07
7.43045e-07
7.42348e-07
7.41025e-07
7.40364e-07
7.43967e-07
7.42608e-07
7.46529e-07
7.46359e-07
7.50349e-07
7.61601e-07
7.13107e-07
5.01815e-07
1.53329e-07
1.72184e-07
4.4304e-07
6.70479e-07
6.8221e-07
6.96442e-07
6.88373e-07
6.90469e-07
6.88394e-07
6.88096e-07
6.86644e-07
6.86701e-07
6.9004e-07
6.88109e-07
6.9265e-07
6.92437e-07
6.96873e-07
7.10937e-07
6.68583e-07
5.00555e-07
1.83659e-07
1.70073e-07
4.21326e-07
6.199e-07
6.32072e-07
6.45416e-07
6.36964e-07
6.3903e-07
6.3659e-07
6.36609e-07
6.35087e-07
6.34744e-07
6.38741e-07
6.36384e-07
6.41307e-07
6.41098e-07
6.4567e-07
6.60722e-07
6.26439e-07
4.93985e-07
2.12578e-07
1.68751e-07
3.98065e-07
5.75261e-07
5.81101e-07
5.93446e-07
5.84711e-07
5.86718e-07
5.83979e-07
5.8427e-07
5.82693e-07
5.82199e-07
5.86523e-07
5.83766e-07
5.8904e-07
5.8886e-07
5.93441e-07
6.09362e-07
5.78916e-07
4.81387e-07
2.37483e-07
1.6778e-07
3.72746e-07
5.29314e-07
5.29262e-07
5.40652e-07
5.31656e-07
5.33613e-07
5.30614e-07
5.31145e-07
5.2952e-07
5.28932e-07
5.33474e-07
5.3037e-07
5.3595e-07
5.35801e-07
5.40343e-07
5.56851e-07
5.3217e-07
4.63164e-07
2.56582e-07
1.67062e-07
3.45088e-07
4.82247e-07
4.76698e-07
4.87207e-07
4.77982e-07
4.79906e-07
4.76678e-07
4.77423e-07
4.75753e-07
4.75091e-07
4.79777e-07
4.76401e-07
4.82219e-07
4.82092e-07
4.86549e-07
5.0332e-07
4.83523e-07
4.36521e-07
2.68061e-07
1.65631e-07
3.15013e-07
4.33969e-07
4.23762e-07
4.33338e-07
4.24049e-07
4.25921e-07
4.22523e-07
4.23458e-07
4.2175e-07
4.21012e-07
4.25774e-07
4.22211e-07
4.2818e-07
4.28059e-07
4.32391e-07
4.49057e-07
4.33364e-07
4.0271e-07
2.7086e-07
1.62126e-07
2.84183e-07
3.8486e-07
3.70891e-07
3.79531e-07
3.70358e-07
3.72156e-07
3.68648e-07
3.69768e-07
3.68011e-07
3.67213e-07
3.71975e-07
3.68316e-07
3.7434e-07
3.74201e-07
3.78374e-07
3.94531e-07
3.82304e-07
3.67819e-07
2.64808e-07
1.55112e-07
2.51645e-07
3.35509e-07
3.1872e-07
3.26461e-07
3.17592e-07
3.19294e-07
3.15737e-07
3.17063e-07
3.15222e-07
3.14391e-07
3.19065e-07
3.15404e-07
3.21384e-07
3.21201e-07
3.2519e-07
3.40408e-07
3.31163e-07
3.28853e-07
2.5038e-07
1.46413e-07
2.18018e-07
2.86744e-07
2.68067e-07
2.74989e-07
2.66609e-07
2.68197e-07
2.6464e-07
2.66221e-07
2.64236e-07
2.63403e-07
2.6789e-07
2.64324e-07
2.70169e-07
2.69918e-07
2.73697e-07
2.87557e-07
2.81009e-07
2.8699e-07
2.28773e-07
1.34344e-07
1.8414e-07
2.39662e-07
2.19892e-07
2.24542e-07
2.17478e-07
2.18905e-07
2.16323e-07
2.17144e-07
2.16022e-07
2.15222e-07
2.19416e-07
2.16042e-07
2.20642e-07
2.20341e-07
2.23305e-07
2.37017e-07
2.29724e-07
2.43672e-07
2.0174e-07
1.19561e-07
1.49826e-07
1.91608e-07
1.75279e-07
1.79141e-07
1.72935e-07
1.742e-07
1.71812e-07
1.72752e-07
1.71595e-07
1.70855e-07
1.74654e-07
1.71569e-07
1.75755e-07
1.75405e-07
1.77988e-07
1.89937e-07
1.83002e-07
2.00681e-07
1.71379e-07
1.02587e-07
1.18692e-07
1.504e-07
1.35216e-07
1.3833e-07
1.33067e-07
1.34152e-07
1.32041e-07
1.32976e-07
1.31892e-07
1.31234e-07
1.34554e-07
1.31838e-07
1.35496e-07
1.35129e-07
1.37278e-07
1.47369e-07
1.4193e-07
1.59742e-07
1.39876e-07
8.43871e-08
9.0528e-08
1.13719e-07
1.00494e-07
1.02908e-07
9.86283e-08
9.9527e-08
9.7748e-08
9.85878e-08
9.76512e-08
9.70934e-08
9.98769e-08
9.75838e-08
1.00638e-07
1.00289e-07
1.01998e-07
1.1019e-07
1.05969e-07
1.22363e-07
1.09274e-07
6.61487e-08
6.61349e-08
8.23902e-08
7.16024e-08
7.33832e-08
7.00695e-08
7.07819e-08
6.93612e-08
7.00599e-08
6.93038e-08
6.88515e-08
7.10793e-08
6.92321e-08
7.1656e-08
7.13492e-08
7.26495e-08
7.89973e-08
7.57954e-08
8.97598e-08
8.14867e-08
4.9155e-08
4.5989e-08
5.69087e-08
4.86272e-08
4.98965e-08
4.74485e-08
4.79905e-08
4.69168e-08
4.74623e-08
4.68866e-08
4.65414e-08
4.82337e-08
4.68215e-08
4.86404e-08
4.83909e-08
4.93356e-08
5.39968e-08
5.16507e-08
6.27083e-08
5.77173e-08
3.4429e-08
3.02326e-08
3.72565e-08
3.12701e-08
3.21538e-08
3.04278e-08
3.08225e-08
3.00571e-08
3.04575e-08
3.00441e-08
2.97977e-08
3.10085e-08
2.99923e-08
3.12717e-08
3.10873e-08
3.17359e-08
3.4962e-08
3.33201e-08
4.14509e-08
3.86014e-08
2.25111e-08
1.86549e-08
2.29072e-08
1.8899e-08
1.94796e-08
1.83344e-08
1.86026e-08
1.80941e-08
1.83681e-08
1.80906e-08
1.79253e-08
1.87348e-08
1.8052e-08
1.88876e-08
1.8766e-08
1.91799e-08
2.12738e-08
2.01878e-08
2.57179e-08
2.41985e-08
1.35979e-08
1.06915e-08
1.30865e-08
1.06237e-08
1.09842e-08
1.02685e-08
1.04372e-08
1.01249e-08
1.02981e-08
1.01256e-08
1.00228e-08
1.05249e-08
1.00992e-08
1.0602e-08
1.05301e-08
1.07709e-08
1.20375e-08
1.13654e-08
1.48264e-08
1.40801e-08
7.47823e-09
5.56965e-09
6.83997e-09
5.41463e-09
5.60986e-09
5.26182e-09
5.35888e-09
5.18376e-09
5.2838e-09
5.1858e-09
5.12722e-09
5.41227e-09
5.16918e-09
5.44425e-09
5.40674e-09
5.5209e-09
6.20298e-09
5.85356e-09
7.82554e-09
7.4966e-09
3.66464e-09
2.6029e-09
3.19757e-09
2.48371e-09
2.58399e-09
2.40849e-09
2.4585e-09
2.37066e-09
2.42229e-09
2.37246e-09
2.34251e-09
2.48757e-09
2.36312e-09
2.49751e-09
2.48037e-09
2.53109e-09
2.87041e-09
2.69429e-09
3.69755e-09
3.57295e-09
1.54585e-09
1.04647e-09
1.28941e-09
9.80174e-10
1.02467e-09
9.48363e-10
9.70703e-10
9.32591e-10
9.55615e-10
9.33712e-10
9.20448e-10
9.84344e-10
9.29184e-10
9.86144e-10
9.79302e-10
9.99321e-10
1.14488e-09
1.06785e-09
1.50933e-09
1.47181e-09
5.30349e-10
3.40882e-10
4.23002e-10
3.1332e-10
3.29461e-10
3.02461e-10
3.10645e-10
2.97135e-10
3.05511e-10
2.97654e-10
2.92859e-10
3.1584e-10
2.95876e-10
3.15701e-10
3.13401e-10
3.19925e-10
3.70899e-10
3.43279e-10
5.02294e-10
4.94635e-10
1.34752e-10
8.18333e-11
1.02767e-10
7.38237e-11
7.81912e-11
7.11191e-11
7.33504e-11
6.97998e-11
7.20538e-11
6.99693e-11
6.86883e-11
7.48021e-11
6.94577e-11
7.45915e-11
7.40053e-11
7.55607e-11
8.88215e-11
8.14459e-11
1.24013e-10
1.2338e-10
2.20558e-11
1.26903e-11
1.61613e-11
1.12612e-11
1.20241e-11
1.08355e-11
1.12262e-11
1.06283e-11
1.10158e-11
1.06623e-11
1.04438e-11
1.14828e-11
1.05694e-11
1.14218e-11
1.13264e-11
1.15586e-11
1.37719e-11
1.25097e-11
1.97909e-11
1.98872e-11
1.89175e-12
1.0328e-12
1.33484e-12
9.01393e-13
9.71115e-13
8.66541e-13
9.02226e-13
8.49691e-13
8.84315e-13
8.53114e-13
8.33729e-13
9.25536e-13
8.44448e-13
9.18149e-13
9.10223e-13
9.27935e-13
1.12082e-12
1.00939e-12
1.65799e-12
1.68641e-12
5.93509e-14
3.08441e-14
4.06449e-14
2.66989e-14
2.90763e-14
2.57094e-14
2.68966e-14
2.52273e-14
2.63385e-14
2.53474e-14
2.47449e-14
2.76163e-14
2.50731e-14
2.73375e-14
2.71169e-14
2.75891e-14
3.36293e-14
3.01054e-14
5.07364e-14
5.21493e-14
6.88178e-16
3.45871e-16
4.64826e-16
3.00829e-16
3.30769e-16
2.90948e-16
3.05307e-16
2.85965e-16
2.98864e-16
2.87454e-16
2.80878e-16
3.1283e-16
2.84527e-16
3.09463e-16
3.07417e-16
3.11998e-16
3.80508e-16
3.40107e-16
5.75279e-16
5.95366e-16
)
;

boundaryField
{
    fuel
    {
        type            fixedValue;
        value           uniform 0;
    }
    wall
    {
        type            zeroGradient;
    }
    outlet
    {
        type            zeroGradient;
    }
    frontAndBack
    {
        type            empty;
    }
}


// ************************************************************************* //
