/*--------------------------------*- C++ -*----------------------------------*\
| =========                 |                                                 |
| \\      /  F ield         | OpenFOAM: The Open Source CFD Toolbox           |
|  \\    /   O peration     | Version:  dev                                   |
|   \\  /    A nd           | Web:      www.OpenFOAM.org                      |
|    \\/     M anipulation  |                                                 |
\*---------------------------------------------------------------------------*/
FoamFile
{
    version     2.0;
    format      ascii;
    class       volScalarField;
    location    "0.2";
    object      C2H2;
}
// * * * * * * * * * * * * * * * * * * * * * * * * * * * * * * * * * * * * * //

dimensions      [0 0 0 0 0 0 0];

internalField   nonuniform List<scalar> 
1000
(
0.00093108
0.0184519
0.018591
0.0185872
0.0185852
0.0185849
0.0185849
0.0185847
0.018585
0.0185848
0.018585
0.018585
0.0185851
0.018585
0.0185851
0.0185862
0.0185858
0.0185968
0.0185402
0.000799064
0.00237751
0.0165687
0.0159912
0.0158958
0.0158809
0.0158792
0.0158785
0.0158782
0.0158789
0.0158785
0.0158789
0.015879
0.015879
0.0158792
0.0158787
0.0158842
0.0158898
0.0159725
0.0162547
0.00195907
0.0037626
0.0150618
0.0142509
0.0141089
0.0140847
0.0140816
0.0140803
0.0140797
0.0140809
0.0140802
0.0140812
0.0140815
0.0140813
0.0140813
0.014081
0.0140907
0.014098
0.0142316
0.0146067
0.00337261
0.00502276
0.0143538
0.0133784
0.0131926
0.0131583
0.0131536
0.013151
0.0131505
0.0131522
0.0131511
0.0131529
0.0131536
0.013153
0.0131523
0.013153
0.0131668
0.0131764
0.0133606
0.0137891
0.00700169
0.00610335
0.013939
0.012836
0.0126078
0.012563
0.0125565
0.0125516
0.012552
0.0125541
0.0125525
0.0125553
0.0125564
0.0125554
0.012553
0.0125559
0.0125739
0.0125865
0.0128237
0.0132837
0.0172501
0.00697791
0.0136306
0.0124312
0.0121628
0.012107
0.0120984
0.0120898
0.0120924
0.0120948
0.0120927
0.0120968
0.0120981
0.0120966
0.0120914
0.0120977
0.0121202
0.0121359
0.0124054
0.0129063
0.0161399
0.007652
0.0133644
0.0120961
0.0117896
0.0117219
0.0117109
0.0116973
0.0117031
0.0117055
0.0117027
0.0117084
0.01171
0.0117078
0.0116986
0.01171
0.0117378
0.0117567
0.0120716
0.0125774
0.0149243
0.0081495
0.0131155
0.0117699
0.0114614
0.0113764
0.0113628
0.0113469
0.0113533
0.0113553
0.0113517
0.011359
0.0113609
0.0113578
0.0113483
0.0113616
0.0113961
0.0114217
0.0117607
0.012293
0.0143681
0.00849676
0.0128732
0.011497
0.0111164
0.0110417
0.0110313
0.0110285
0.0110236
0.011025
0.0110206
0.0110292
0.0110313
0.0110271
0.0110299
0.0110294
0.0110572
0.0110726
0.0114936
0.0120538
0.0140841
0.00872164
0.0126319
0.0112097
0.010838
0.0107468
0.010732
0.0107318
0.0107233
0.0107235
0.0107182
0.0107283
0.0107306
0.0107244
0.0107331
0.0107293
0.0107674
0.0107871
0.0112163
0.0118154
0.0138636
0.00886783
0.0123891
0.0109247
0.0105537
0.0104455
0.0104286
0.0104244
0.0104197
0.0104193
0.0104147
0.0104236
0.0104258
0.0104173
0.0104209
0.0104253
0.0104662
0.0104954
0.0109491
0.0115982
0.0136311
0.00899812
0.0121444
0.0106833
0.0102785
0.0101591
0.0101402
0.0101377
0.0101313
0.0101311
0.0101291
0.0101339
0.0101361
0.0101241
0.0101591
0.0101362
0.0101797
0.010215
0.0106864
0.0113733
0.0133692
0.00916198
0.0118978
0.010427
0.0100148
0.00988505
0.0098642
0.00988425
0.00985504
0.00985607
0.00985714
0.00985661
0.00985874
0.00984171
0.00987854
0.0098591
0.00990503
0.00994653
0.0104231
0.0111481
0.0130819
0.00935878
0.0116509
0.0101994
0.00976176
0.00962225
0.0095993
0.00960912
0.00958934
0.0095929
0.0095959
0.00959065
0.00959278
0.00956836
0.00960576
0.00959319
0.00964127
0.00968913
0.0102121
0.010924
0.0127765
0.00955663
0.0113792
0.00996637
0.00951812
0.0093703
0.00934539
0.00934861
0.00933353
0.00934076
0.00934391
0.00933563
0.00933796
0.00933926
0.00934677
0.00933826
0.00938808
0.00944181
0.00999938
0.0107163
0.0124643
0.00972367
0.0110803
0.00972234
0.00928314
0.00912894
0.00910236
0.00910169
0.00908714
0.00909908
0.00910105
0.00909141
0.00909392
0.00909311
0.0091002
0.00909421
0.00914523
0.00920385
0.00976628
0.0105102
0.0121515
0.00984007
0.0108217
0.00948503
0.00905629
0.008898
0.00887012
0.00886711
0.00884971
0.00886756
0.00886779
0.00885794
0.00886058
0.00885719
0.00886542
0.00886097
0.00891259
0.00897494
0.00953636
0.0102937
0.0118457
0.00989491
0.0105624
0.00925465
0.00883681
0.00867736
0.00864858
0.00864422
0.00862072
0.00864611
0.00864461
0.00863522
0.00863789
0.00863116
0.008642
0.00863853
0.00869012
0.0087549
0.00930721
0.0100764
0.0115561
0.00989012
0.0103033
0.00903164
0.00862346
0.00846692
0.0084377
0.00843279
0.00842818
0.00843487
0.00843188
0.00842327
0.00842585
0.00841474
0.0084297
0.00842687
0.00847781
0.00854358
0.00912379
0.0098618
0.0112446
0.00983396
0.0100458
0.00881667
0.00841472
0.00826656
0.00823744
0.00823225
0.00822337
0.00823382
0.00822977
0.00822212
0.00822447
0.008208
0.00822843
0.00822601
0.00827564
0.00834052
0.0089266
0.00964931
0.0109817
0.00973713
0.00979126
0.00861077
0.00823807
0.00807616
0.00804769
0.00804249
0.00802802
0.0080431
0.00803835
0.00803172
0.00803383
0.00803625
0.00803821
0.0080359
0.00808348
0.00816665
0.00872424
0.00943935
0.0107133
0.00961014
0.00952267
0.00841417
0.00806084
0.00789522
0.00786824
0.00786341
0.00786454
0.00786273
0.0078575
0.00785193
0.00785383
0.00785865
0.00785839
0.00785644
0.00790065
0.00799242
0.00852884
0.00923296
0.0104734
0.00946339
0.00925654
0.00822743
0.00790504
0.00774383
0.00771948
0.00771493
0.00771419
0.00771314
0.00770768
0.00770298
0.00770519
0.00771071
0.00770975
0.00770746
0.00775077
0.00784011
0.00834064
0.00903131
0.0102266
0.00930486
0.00902975
0.00805019
0.00775516
0.00760433
0.00757106
0.00756674
0.00756399
0.00756392
0.00755789
0.00755405
0.00755712
0.00756158
0.00756092
0.00755906
0.00760022
0.00769039
0.00815879
0.0088355
0.00999648
0.00913992
0.00881301
0.00790212
0.00762191
0.00747716
0.00744576
0.0074417
0.00743769
0.00743806
0.00743203
0.00742897
0.00743259
0.00743559
0.00743569
0.00743402
0.00747316
0.00756074
0.00798237
0.00864527
0.00977371
0.00897261
0.00861013
0.00776124
0.0075011
0.00736242
0.0073333
0.00732949
0.00732454
0.00732521
0.0073193
0.00731692
0.00732062
0.00732241
0.00732339
0.00732197
0.00735907
0.00744297
0.00784136
0.0084619
0.00956171
0.00880652
0.00842364
0.00763649
0.00739232
0.00726071
0.00723368
0.00723009
0.00722455
0.00722537
0.0072197
0.00721791
0.00722128
0.00722234
0.007224
0.00722294
0.00725772
0.00733796
0.00771057
0.00828767
0.00934852
0.00864424
0.00823993
0.00752433
0.00729558
0.00717186
0.00714675
0.00714332
0.00713752
0.00713838
0.00713306
0.00713174
0.00713459
0.00713529
0.00713738
0.00713671
0.00716898
0.00724559
0.00759063
0.00812342
0.00913555
0.00848729
0.00805987
0.00742452
0.0072108
0.0070956
0.00707219
0.00706888
0.00706306
0.00706388
0.00705898
0.00705804
0.00706031
0.0070609
0.00706318
0.00706293
0.00709257
0.00716544
0.00748205
0.00796988
0.0089422
0.0083383
0.00791513
0.0073369
0.00713759
0.00703143
0.00700946
0.00700623
0.00700062
0.00700132
0.00699689
0.00699626
0.00699795
0.00699858
0.00700087
0.00700103
0.00702801
0.00709693
0.00738512
0.00783663
0.00874429
0.00819842
0.00778532
0.00726098
0.00707535
0.00697864
0.00695783
0.00695463
0.00694942
0.00694996
0.00694602
0.00694564
0.00694678
0.00694755
0.00694974
0.00695028
0.00697464
0.00703938
0.00729985
0.00771513
0.00853104
0.00806828
0.00766973
0.00719612
0.00702323
0.00693635
0.00691641
0.00691314
0.00690851
0.00690887
0.00690542
0.00690524
0.00690583
0.00690686
0.00690885
0.00690972
0.00693156
0.00699194
0.00722598
0.0076055
0.00835742
0.00794797
0.00756732
0.00713805
0.00698055
0.00690185
0.00688303
0.00688063
0.00687551
0.00687583
0.00687276
0.00687282
0.00687395
0.00687416
0.00687606
0.00687727
0.00689666
0.00695355
0.00716309
0.00750736
0.00818499
0.00783714
0.00747689
0.00708855
0.00694615
0.00687597
0.00685821
0.00685583
0.00685124
0.00685141
0.00684876
0.00684893
0.00684978
0.00685013
0.00685181
0.00685327
0.0068705
0.00692298
0.0071053
0.0074158
0.0080294
0.00773498
0.00739705
0.00704869
0.0069186
0.00685615
0.00683954
0.00683719
0.00683309
0.00683315
0.00683085
0.00683111
0.00683176
0.0068322
0.00683371
0.00683534
0.00685069
0.00689877
0.00705973
0.00733774
0.00788539
0.0076403
0.00732596
0.00701415
0.00689618
0.00684061
0.0068252
0.00682291
0.0068192
0.00681924
0.00681717
0.0068175
0.00681804
0.0068185
0.00681991
0.00682167
0.00683542
0.00687915
0.00702073
0.00726792
0.00775272
0.00755158
0.00726154
0.00698295
0.00687682
0.0068273
0.00681311
0.0068109
0.00680745
0.00680756
0.0068056
0.00680599
0.0068065
0.00680692
0.00680831
0.00681012
0.00682258
0.00686206
0.00698638
0.00720449
0.0076305
0.00746659
0.00720122
0.00695278
0.00685821
0.00681391
0.00680091
0.00679881
0.00679549
0.00679577
0.00679378
0.00679422
0.00679479
0.00679509
0.00679655
0.00679834
0.00680981
0.00684518
0.00695435
0.00714526
0.00751715
0.00738307
0.00714238
0.00692129
0.00683793
0.00679812
0.00678627
0.00678428
0.00678097
0.00678153
0.00677937
0.00677986
0.00678056
0.00678068
0.0067823
0.00678398
0.00679474
0.00682612
0.00692225
0.00708775
0.00741138
0.00729935
0.00708285
0.00688652
0.00681384
0.00677797
0.0067672
0.00676532
0.00676197
0.00676286
0.00676045
0.00676099
0.00676187
0.00676177
0.00676359
0.0067651
0.00677533
0.0068029
0.00688787
0.00702984
0.00731165
0.00721405
0.00702095
0.0068473
0.00678465
0.00675237
0.00674261
0.00674087
0.00673746
0.00673869
0.00673603
0.0067366
0.00673766
0.00673734
0.00673935
0.00674066
0.00675046
0.00677444
0.00684954
0.00697044
0.00721507
0.00712687
0.00695619
0.00680371
0.00674993
0.00672088
0.00671268
0.00671108
0.00670771
0.0067092
0.00670636
0.00670694
0.00670815
0.00670764
0.00670978
0.00671089
0.00671969
0.00674033
0.00680692
0.00690866
0.00712061
0.00703889
0.0068895
0.00675723
0.00671167
0.0066861
0.00667893
0.00667746
0.00667426
0.00667587
0.00667302
0.00667358
0.00667485
0.00667423
0.00667637
0.00667732
0.00668544
0.0067031
0.00676111
0.00684683
0.00702856
0.00695251
0.00682322
0.00671046
0.00667211
0.00665014
0.00664395
0.00664262
0.00663975
0.00664131
0.00663863
0.00663914
0.00664037
0.00663974
0.00664175
0.0066426
0.00664985
0.0066649
0.00671451
0.00678657
0.00694049
0.00687114
0.0067607
0.0066667
0.00663457
0.00661627
0.00661101
0.00660982
0.0066074
0.00660875
0.00660643
0.00660684
0.00660794
0.00660741
0.00660915
0.00660996
0.00661621
0.00662897
0.00667035
0.00673088
0.00685907
0.00679863
0.00670563
0.00662931
0.00660248
0.00658776
0.00658335
0.00658229
0.00658039
0.00658139
0.00657956
0.00657985
0.00658076
0.00658039
0.00658179
0.00658261
0.00658778
0.00659859
0.00663209
0.00668293
0.00678755
0.00673841
0.00666123
0.00660082
0.00657849
0.006567
0.00656332
0.00656239
0.00656098
0.00656161
0.00656029
0.00656046
0.00656117
0.00656097
0.00656203
0.00656288
0.00656699
0.00657615
0.00660256
0.0066452
0.00672895
0.00669257
0.00662914
0.00658211
0.00656356
0.0065547
0.00655163
0.00655081
0.00654977
0.0065501
0.00654918
0.00654925
0.0065498
0.00654975
0.00655052
0.00655138
0.00655462
0.00656238
0.00658293
0.00661866
0.00668504
0.00666124
0.00660884
0.00657188
0.00655638
0.00654937
0.00654675
0.00654602
0.0065452
0.00654537
0.00654467
0.00654468
0.00654515
0.00654517
0.00654576
0.00654661
0.00654922
0.00655585
0.00657214
0.00660231
0.00665563
0.00664334
0.00659806
0.00656725
0.00655375
0.0065478
0.00654546
0.00654478
0.00654406
0.00654416
0.00654355
0.00654354
0.00654398
0.00654402
0.00654453
0.00654534
0.00654761
0.00655349
0.00656727
0.00659379
0.00663916
)
;

boundaryField
{
    fuel
    {
        type            fixedValue;
        value           uniform 0;
    }
    wall
    {
        type            zeroGradient;
    }
    outlet
    {
        type            zeroGradient;
    }
    frontAndBack
    {
        type            empty;
    }
}


// ************************************************************************* //
