/*--------------------------------*- C++ -*----------------------------------*\
| =========                 |                                                 |
| \\      /  F ield         | OpenFOAM: The Open Source CFD Toolbox           |
|  \\    /   O peration     | Version:  dev                                   |
|   \\  /    A nd           | Web:      www.OpenFOAM.org                      |
|    \\/     M anipulation  |                                                 |
\*---------------------------------------------------------------------------*/
FoamFile
{
    version     2.0;
    format      ascii;
    class       volScalarField;
    location    "0.2";
    object      C2H2;
}
// * * * * * * * * * * * * * * * * * * * * * * * * * * * * * * * * * * * * * //

dimensions      [0 0 0 0 0 0 0];

internalField   nonuniform List<scalar> 
1000
(
0.000842951
0.0185044
0.0185648
0.018551
0.0185518
0.01855
0.01855
0.0185501
0.0185502
0.01855
0.0185499
0.0185501
0.01855
0.0185501
0.01855
0.0185507
0.0185527
0.0185571
0.0183667
0.00103812
0.00212314
0.0161399
0.0158899
0.0157977
0.0157939
0.0157876
0.0157878
0.0157879
0.0157882
0.0157879
0.0157877
0.015788
0.0157876
0.0157874
0.0157879
0.0157899
0.0158045
0.0159036
0.0165366
0.0026574
0.00496475
0.0145383
0.0142153
0.0140685
0.014064
0.0140525
0.0140527
0.014053
0.0140536
0.0140529
0.014053
0.0140534
0.0140526
0.0140521
0.0140532
0.0140568
0.0140803
0.0142248
0.0150969
0.00419554
0.0175021
0.0137438
0.0133783
0.0131786
0.0131725
0.0131559
0.0131553
0.0131564
0.0131573
0.0131562
0.0131566
0.013157
0.0131558
0.0131545
0.0131569
0.0131624
0.0131956
0.013382
0.0144179
0.00555234
0.0161887
0.0132511
0.0128566
0.0126014
0.0125933
0.0125712
0.0125691
0.0125718
0.012573
0.0125713
0.0125723
0.0125728
0.0125708
0.0125682
0.0125726
0.0125803
0.0126243
0.0128494
0.0140108
0.00665409
0.014774
0.012887
0.0124427
0.012155
0.0121444
0.0121166
0.012112
0.012117
0.0121187
0.0121162
0.0121179
0.0121184
0.0121157
0.0121113
0.0121183
0.0121285
0.0121842
0.0124442
0.0136985
0.00748803
0.0142136
0.0125665
0.0121113
0.0117754
0.0117614
0.0117278
0.0117211
0.0117281
0.0117302
0.0117268
0.0117294
0.0117299
0.0117261
0.0117203
0.0117301
0.0117428
0.0118116
0.0121027
0.013422
0.00808704
0.014
0.0122864
0.0118194
0.0114328
0.0114171
0.011379
0.0113726
0.0113791
0.0113817
0.0113776
0.0113809
0.0113814
0.0113768
0.0113721
0.0113819
0.0113963
0.0114769
0.0117999
0.0131597
0.00850059
0.0138811
0.0120472
0.0115432
0.0111041
0.0111024
0.0110621
0.0110596
0.011062
0.0110653
0.0110608
0.0110644
0.0110649
0.0110597
0.0110589
0.011066
0.0110803
0.0111526
0.0115002
0.0129022
0.00877274
0.0137616
0.0118106
0.0112638
0.0108081
0.0107956
0.0107472
0.0107485
0.0107464
0.0107504
0.0107454
0.0107496
0.0107502
0.0107432
0.010748
0.0107523
0.01077
0.0108667
0.0111946
0.0126451
0.00894569
0.0136093
0.0115914
0.0109954
0.0105099
0.0104924
0.0104413
0.0104421
0.0104396
0.0104443
0.010439
0.0104435
0.0104442
0.0104348
0.0104417
0.0104474
0.0104672
0.0105751
0.0109394
0.0123871
0.00906983
0.0134152
0.011364
0.0107316
0.0102268
0.0102038
0.0101499
0.0101478
0.010147
0.0101525
0.0101473
0.0101518
0.0101526
0.0101396
0.0101455
0.0101569
0.0101789
0.0102984
0.010681
0.0121276
0.0091965
0.013181
0.0111378
0.0104658
0.00995582
0.00992729
0.00987117
0.00986373
0.00986676
0.00987325
0.00986869
0.00987258
0.00987356
0.00985556
0.00989596
0.00987929
0.00990325
0.0100332
0.0104157
0.0118672
0.00934493
0.0129139
0.0109135
0.010257
0.00969592
0.00966171
0.00960416
0.00962596
0.00959755
0.0096053
0.00960156
0.00960464
0.00960601
0.00958049
0.0096243
0.00961279
0.00963884
0.00977838
0.0101895
0.0115863
0.00950104
0.0126242
0.0107022
0.0100376
0.00944614
0.00940646
0.0093478
0.00936805
0.00933848
0.00934817
0.00934515
0.00934751
0.00934949
0.00934981
0.00936352
0.009357
0.00938512
0.00953286
0.00993936
0.0112799
0.00964348
0.0123223
0.0104921
0.00980215
0.00920588
0.00916134
0.00910197
0.00911857
0.00908911
0.00910171
0.00909917
0.00910104
0.00910367
0.00910143
0.00911446
0.00911188
0.0091419
0.00929627
0.00969321
0.0110152
0.00975459
0.0120175
0.0102755
0.00956871
0.00897486
0.00892634
0.00886677
0.00887999
0.00884907
0.00886598
0.00886364
0.00886527
0.00886854
0.00886269
0.00887735
0.00887743
0.00890908
0.00906837
0.00945418
0.0107485
0.00982197
0.0117183
0.0100567
0.00933353
0.00875287
0.00870149
0.00864232
0.00865285
0.00861782
0.00864108
0.00863875
0.00864026
0.00864414
0.00863252
0.0086519
0.00865368
0.00868666
0.00884904
0.00922306
0.0104846
0.00984089
0.0114326
0.00984079
0.00914708
0.00853979
0.00848685
0.00842872
0.00843749
0.00842366
0.00842717
0.00842468
0.00842611
0.00843054
0.00840949
0.0084379
0.00844067
0.00847463
0.00863821
0.0090004
0.010228
0.00981335
0.0111134
0.00962745
0.00895332
0.00833524
0.00828241
0.00822606
0.00823343
0.00821732
0.00822417
0.00822158
0.00822289
0.00822789
0.00822098
0.00823534
0.0082384
0.00827299
0.00843574
0.00878667
0.00995343
0.00974536
0.0108412
0.00941704
0.00874742
0.00815972
0.008088
0.00803432
0.0080405
0.00802072
0.00803206
0.00802947
0.00803056
0.00803609
0.00803921
0.00804385
0.00804679
0.00808171
0.00824034
0.00858255
0.00968557
0.0096458
0.0105889
0.00921048
0.0085494
0.00798578
0.00790288
0.00785347
0.00785847
0.00785639
0.00785076
0.00784825
0.0078489
0.00785501
0.00785642
0.00786294
0.00786564
0.00790065
0.00805621
0.00838869
0.00943633
0.00952289
0.0103292
0.00900871
0.00835903
0.00783247
0.00775175
0.0077034
0.00770834
0.00770546
0.00770083
0.00769831
0.00769782
0.00770527
0.00770586
0.00771317
0.00771566
0.00775031
0.00789988
0.00820586
0.00919583
0.00938454
0.0100955
0.0088129
0.00817518
0.00768275
0.00760112
0.00755487
0.00755906
0.0075556
0.00755185
0.00754933
0.00755087
0.00755691
0.00755651
0.00756475
0.0075669
0.00760164
0.00775056
0.0080335
0.00897141
0.00923682
0.0098837
0.00862433
0.00799553
0.00755305
0.0074732
0.00742939
0.00743306
0.00742934
0.00742627
0.00742393
0.00742439
0.00743158
0.00743055
0.00743904
0.007441
0.00747478
0.00761782
0.00789052
0.00876316
0.00908436
0.00964622
0.0084448
0.00785219
0.00743605
0.00735817
0.00731721
0.00732024
0.00731648
0.00731395
0.00731185
0.00731203
0.00731933
0.00731771
0.00732637
0.00732822
0.00736036
0.0074974
0.00774904
0.00857077
0.00893078
0.0093975
0.00827377
0.00771952
0.0073317
0.00725625
0.00721826
0.00722066
0.00721697
0.00721487
0.00721304
0.00721303
0.00722007
0.00721802
0.00722674
0.00722852
0.00725903
0.00738895
0.0076283
0.0083949
0.00877801
0.00917609
0.00811169
0.00759876
0.00723987
0.00716741
0.00713233
0.00713414
0.0071306
0.00712883
0.00712727
0.00712705
0.00713362
0.00713134
0.00713996
0.00714172
0.00717062
0.0072925
0.00751938
0.00821489
0.00862776
0.00899221
0.00796073
0.0074895
0.00716037
0.00709107
0.007059
0.00706022
0.00705691
0.0070554
0.0070541
0.00705365
0.00705964
0.00705733
0.00706567
0.00706742
0.00709481
0.00720789
0.00742218
0.0080446
0.00848235
0.00879252
0.00782879
0.00739198
0.00709264
0.0070267
0.00699767
0.00699832
0.00699528
0.00699397
0.0069929
0.00699223
0.00699759
0.0069954
0.00700331
0.00700509
0.00703108
0.00713477
0.00733653
0.00790877
0.00834399
0.00857163
0.00770882
0.00730617
0.00703593
0.00697362
0.00694754
0.00694766
0.00694488
0.00694377
0.00694285
0.006942
0.00694671
0.00694475
0.00695214
0.00695394
0.00697869
0.00707259
0.00726204
0.00778637
0.00821327
0.0083946
0.00760067
0.00723182
0.00698934
0.00693092
0.00690762
0.00690726
0.00690469
0.00690382
0.00690294
0.00690195
0.00690604
0.00690437
0.00691121
0.00691301
0.00693659
0.00702069
0.00719818
0.00767627
0.00809041
0.00822251
0.00750379
0.00716854
0.00695175
0.00689625
0.00687607
0.00687526
0.0068735
0.00687219
0.00687199
0.00687091
0.0068744
0.00687303
0.00687859
0.00688041
0.00690212
0.00697836
0.00713985
0.00757747
0.00797533
0.00806327
0.00741371
0.00711022
0.00692192
0.00687047
0.00685268
0.00685151
0.00684995
0.0068488
0.0068486
0.00684747
0.00685045
0.00684936
0.00685432
0.00685611
0.00687621
0.00694436
0.00709154
0.00748913
0.00786767
0.00791551
0.00733655
0.00706429
0.00689835
0.00685103
0.0068353
0.00683384
0.00683243
0.00683139
0.00683119
0.00683005
0.0068326
0.00683174
0.00683616
0.00683793
0.0068563
0.00691723
0.00705166
0.0074101
0.0077667
0.00777906
0.00726754
0.00702498
0.00687926
0.00683609
0.00682207
0.00682041
0.00681906
0.00681813
0.00681791
0.00681676
0.00681903
0.0068183
0.0068223
0.00682403
0.00684072
0.00689516
0.00701693
0.00733886
0.00767119
0.00765302
0.00720474
0.00699034
0.00686257
0.00682353
0.00681086
0.0068091
0.00680772
0.0068069
0.00680662
0.00680548
0.00680763
0.00680691
0.00681063
0.00681229
0.00682743
0.00687606
0.00698543
0.00727357
0.00758044
0.00753673
0.00714577
0.00695816
0.00684593
0.00681098
0.0067993
0.00679754
0.00679603
0.00679536
0.00679497
0.00679383
0.00679604
0.00679519
0.0067988
0.00680037
0.00681411
0.00685762
0.00695492
0.00721207
0.00749272
0.00742908
0.00708825
0.00692601
0.00682698
0.00679608
0.00678506
0.00678339
0.00678167
0.00678118
0.00678063
0.00677949
0.00678191
0.00678081
0.00678446
0.00678591
0.00679839
0.00683743
0.00692308
0.00715189
0.00740585
0.00732677
0.00703045
0.00689149
0.0068038
0.00677679
0.0067662
0.00676469
0.00676272
0.00676245
0.0067617
0.00676055
0.00676329
0.00676186
0.00676562
0.00676694
0.00677827
0.00681338
0.00688789
0.00709076
0.00731802
0.00722792
0.00697106
0.00685301
0.00677531
0.00675198
0.00674172
0.0067404
0.00673819
0.00673813
0.00673719
0.00673605
0.00673911
0.00673734
0.00674119
0.0067424
0.00675264
0.00678416
0.00684829
0.00702727
0.00722861
0.00713143
0.00690925
0.00681019
0.00674114
0.00672116
0.00671185
0.00671071
0.00670834
0.00670847
0.00670736
0.00670626
0.00670955
0.00670753
0.00671136
0.00671246
0.00672146
0.00674943
0.00680436
0.00696101
0.00713761
0.00703754
0.00684738
0.00676411
0.00670384
0.00668686
0.00667816
0.00667717
0.00667477
0.006675
0.00667381
0.00667277
0.00667611
0.006674
0.00667765
0.00667867
0.00668652
0.00671117
0.00675759
0.00689297
0.00704632
0.00694777
0.00678711
0.00671715
0.00666557
0.00665114
0.00664331
0.0066424
0.00664011
0.00664036
0.00663917
0.00663826
0.00664141
0.00663942
0.00664271
0.00664366
0.00665041
0.00667163
0.0067106
0.00682551
0.00695722
0.00686478
0.00673143
0.00667257
0.00662959
0.00661729
0.00661054
0.00660964
0.00660761
0.00660779
0.00660668
0.00660594
0.00660868
0.00660701
0.0066098
0.00661069
0.00661641
0.00663412
0.0066667
0.00676197
0.00687374
0.00679184
0.00668351
0.00663388
0.00659916
0.00658863
0.00658307
0.00658213
0.00658045
0.0065805
0.00657953
0.00657898
0.00658116
0.00657994
0.00658216
0.00658301
0.00658777
0.00660205
0.00662921
0.00670606
0.00679968
0.00673203
0.00664582
0.00660393
0.00657669
0.00656765
0.00656324
0.00656223
0.00656091
0.00656082
0.00656
0.00655964
0.00656124
0.00656051
0.00656216
0.00656298
0.00656691
0.00657809
0.00660067
0.00666102
0.00673839
0.00668717
0.00661931
0.00658398
0.00656289
0.00655513
0.00655166
0.00655062
0.00654959
0.00654939
0.0065487
0.00654848
0.00654962
0.00654929
0.0065505
0.00655129
0.00655454
0.0065632
0.00658194
0.00662851
0.00669187
0.00665711
0.00660297
0.00657298
0.00655634
0.00654963
0.00654682
0.00654578
0.00654495
0.00654469
0.00654407
0.00654395
0.00654482
0.00654471
0.00654566
0.00654641
0.00654917
0.00655605
0.00657171
0.006608
0.00666018
0.00664028
0.00659445
0.006568
0.00655395
0.00654796
0.00654551
0.00654451
0.00654376
0.00654349
0.0065429
0.00654281
0.00654359
0.00654356
0.0065444
0.00654511
0.00654758
0.00655345
0.00656709
0.00659716
0.00664214
)
;

boundaryField
{
    fuel
    {
        type            fixedValue;
        value           uniform 0;
    }
    wall
    {
        type            zeroGradient;
    }
    outlet
    {
        type            zeroGradient;
    }
    frontAndBack
    {
        type            empty;
    }
}


// ************************************************************************* //
