/*--------------------------------*- C++ -*----------------------------------*\
| =========                 |                                                 |
| \\      /  F ield         | OpenFOAM: The Open Source CFD Toolbox           |
|  \\    /   O peration     | Version:  dev                                   |
|   \\  /    A nd           | Web:      www.OpenFOAM.org                      |
|    \\/     M anipulation  |                                                 |
\*---------------------------------------------------------------------------*/
FoamFile
{
    version     2.0;
    format      ascii;
    class       volScalarField;
    location    "0.2";
    object      C2H3;
}
// * * * * * * * * * * * * * * * * * * * * * * * * * * * * * * * * * * * * * //

dimensions      [0 0 0 0 0 0 0];

internalField   nonuniform List<scalar> 
1000
(
7.48537e-08
0.000229311
0.000220749
0.00021972
0.000219508
0.000219509
0.000219507
0.000219508
0.000219507
0.000219512
0.00021951
0.000219504
0.000219508
0.000219497
0.000219507
0.000219515
0.000219727
0.000221707
0.000237259
2.94163e-08
1.14392e-07
4.56057e-05
4.27219e-05
4.19585e-05
4.19866e-05
4.19255e-05
4.1939e-05
4.19328e-05
4.19331e-05
4.19337e-05
4.19318e-05
4.1933e-05
4.19305e-05
4.19315e-05
4.19313e-05
4.19379e-05
4.20219e-05
4.27491e-05
5.0312e-05
8.93704e-09
8.72454e-06
1.07658e-05
9.48161e-06
9.13116e-06
9.17797e-06
9.13774e-06
9.14718e-06
9.14188e-06
9.14304e-06
9.14209e-06
9.14151e-06
9.14266e-06
9.14102e-06
9.14255e-06
9.14152e-06
9.14446e-06
9.1688e-06
9.34721e-06
1.20614e-05
2.86576e-09
0.000289336
4.06361e-06
3.27783e-06
3.10155e-06
3.13062e-06
3.1076e-06
3.11334e-06
3.10994e-06
3.111e-06
3.11009e-06
3.10999e-06
3.11059e-06
3.10971e-06
3.11044e-06
3.10995e-06
3.11145e-06
3.12131e-06
3.17777e-06
4.65999e-06
1.61733e-09
8.05529e-05
2.04525e-06
1.73012e-06
1.61811e-06
1.63705e-06
1.62213e-06
1.6258e-06
1.62369e-06
1.62454e-06
1.62381e-06
1.62389e-06
1.62421e-06
1.62359e-06
1.62385e-06
1.6238e-06
1.62482e-06
1.6305e-06
1.65386e-06
2.65849e-06
1.55527e-09
2.47561e-05
1.31748e-06
1.15842e-06
1.09678e-06
1.11034e-06
1.09962e-06
1.10185e-06
1.10072e-06
1.10137e-06
1.10076e-06
1.10093e-06
1.10113e-06
1.10061e-06
1.1006e-06
1.10083e-06
1.10171e-06
1.10593e-06
1.11601e-06
1.83215e-06
2.61584e-09
1.01674e-05
9.79663e-07
9.08379e-07
8.61503e-07
8.71473e-07
8.63314e-07
8.64507e-07
8.6406e-07
8.64599e-07
8.64007e-07
8.6429e-07
8.64421e-07
8.63869e-07
8.63512e-07
8.6421e-07
8.65063e-07
8.68955e-07
8.7179e-07
1.38217e-06
8.15806e-09
5.50132e-06
8.02196e-07
7.75063e-07
7.37578e-07
7.45262e-07
7.38953e-07
7.39649e-07
7.39459e-07
7.39915e-07
7.39385e-07
7.39689e-07
7.39784e-07
7.39261e-07
7.39029e-07
7.39646e-07
7.40408e-07
7.44151e-07
7.43505e-07
1.10142e-06
4.11861e-08
3.5337e-06
7.02966e-07
6.92815e-07
6.62514e-07
6.71349e-07
6.66587e-07
6.6738e-07
6.66934e-07
6.67359e-07
6.66915e-07
6.67184e-07
6.6726e-07
6.66777e-07
6.66936e-07
6.67191e-07
6.67655e-07
6.67861e-07
6.63879e-07
9.13439e-07
2.14348e-07
2.53266e-06
6.35535e-07
6.36446e-07
6.1516e-07
6.21436e-07
6.1702e-07
6.17962e-07
6.17178e-07
6.17606e-07
6.17206e-07
6.17477e-07
6.1755e-07
6.16967e-07
6.17685e-07
6.17601e-07
6.18305e-07
6.20702e-07
6.09436e-07
7.81745e-07
7.96053e-07
1.98744e-06
5.9004e-07
5.97019e-07
5.7966e-07
5.84912e-07
5.81196e-07
5.8187e-07
5.81211e-07
5.8165e-07
5.81281e-07
5.81551e-07
5.81627e-07
5.80885e-07
5.81681e-07
5.81757e-07
5.82517e-07
5.85134e-07
5.75646e-07
6.86494e-07
1.93867e-06
1.68431e-06
5.54066e-07
5.66581e-07
5.52279e-07
5.56863e-07
5.53477e-07
5.53729e-07
5.53367e-07
5.53849e-07
5.53479e-07
5.53766e-07
5.53855e-07
5.5286e-07
5.53404e-07
5.54067e-07
5.54926e-07
5.5797e-07
5.48508e-07
6.1566e-07
2.96659e-06
1.51099e-06
5.25401e-07
5.40705e-07
5.29395e-07
5.33539e-07
5.30316e-07
5.29997e-07
5.30069e-07
5.3062e-07
5.30286e-07
5.30543e-07
5.30656e-07
5.29295e-07
5.32514e-07
5.30967e-07
5.31916e-07
5.35431e-07
5.25161e-07
5.61817e-07
3.19352e-06
1.40471e-06
5.01501e-07
5.22486e-07
5.09167e-07
5.12969e-07
5.09842e-07
5.1165e-07
5.09421e-07
5.10067e-07
5.09783e-07
5.09988e-07
5.1014e-07
5.08214e-07
5.11572e-07
5.10524e-07
5.11582e-07
5.15606e-07
5.07568e-07
5.17406e-07
2.89014e-06
1.32954e-06
4.81814e-07
5.04738e-07
4.90588e-07
4.94104e-07
4.91012e-07
4.92611e-07
4.90386e-07
4.91178e-07
4.90938e-07
4.91094e-07
4.91302e-07
4.91259e-07
4.92367e-07
4.91738e-07
4.92915e-07
4.97454e-07
4.89746e-07
4.79818e-07
2.4426e-06
1.26437e-06
4.64113e-07
4.86692e-07
4.73095e-07
4.76371e-07
4.73282e-07
4.74576e-07
4.7239e-07
4.73404e-07
4.73188e-07
4.73309e-07
4.73577e-07
4.7329e-07
4.7439e-07
4.74065e-07
4.75358e-07
4.80396e-07
4.73228e-07
4.53508e-07
1.98445e-06
1.19726e-06
4.47157e-07
4.69436e-07
4.56357e-07
4.59437e-07
4.56342e-07
4.57387e-07
4.55084e-07
4.56426e-07
4.56217e-07
4.56314e-07
4.56645e-07
4.56045e-07
4.57317e-07
4.57188e-07
4.58588e-07
4.64086e-07
4.57757e-07
4.32127e-07
1.55819e-06
1.12296e-06
4.30971e-07
4.52398e-07
4.40158e-07
4.43093e-07
4.39998e-07
4.4086e-07
4.38218e-07
4.4005e-07
4.39831e-07
4.39913e-07
4.40307e-07
4.39231e-07
4.40914e-07
4.40907e-07
4.424e-07
4.48303e-07
4.4305e-07
4.14983e-07
1.19245e-06
1.04133e-06
4.15701e-07
4.39075e-07
4.2434e-07
4.27194e-07
4.24113e-07
4.24868e-07
4.238e-07
4.24141e-07
4.23899e-07
4.23965e-07
4.24424e-07
4.22583e-07
4.25017e-07
4.25078e-07
4.26652e-07
4.32888e-07
4.28888e-07
4.01393e-07
9.02669e-07
9.3741e-07
4.01118e-07
4.25189e-07
4.08744e-07
4.11616e-07
4.08576e-07
4.09249e-07
4.07932e-07
4.08575e-07
4.08313e-07
4.0836e-07
4.08889e-07
4.0815e-07
4.09509e-07
4.09586e-07
4.11226e-07
4.17704e-07
4.15098e-07
3.89663e-07
6.88697e-07
8.42539e-07
3.87158e-07
4.10253e-07
3.94934e-07
3.9623e-07
3.93275e-07
3.93881e-07
3.92187e-07
3.93241e-07
3.92962e-07
3.92984e-07
3.93589e-07
3.93667e-07
3.94248e-07
3.94314e-07
3.96009e-07
4.02523e-07
4.01551e-07
3.79764e-07
5.39768e-07
7.52042e-07
3.73739e-07
3.95616e-07
3.80579e-07
3.80845e-07
3.78093e-07
3.78627e-07
3.78431e-07
3.78014e-07
3.77723e-07
3.77699e-07
3.78395e-07
3.78294e-07
3.79082e-07
3.7913e-07
3.80876e-07
3.8756e-07
3.8814e-07
3.71424e-07
4.41357e-07
6.60809e-07
3.60757e-07
3.81112e-07
3.67252e-07
3.67623e-07
3.64784e-07
3.65342e-07
3.65007e-07
3.64712e-07
3.644e-07
3.64258e-07
3.65128e-07
3.64914e-07
3.65822e-07
3.65857e-07
3.67623e-07
3.74229e-07
3.74772e-07
3.63491e-07
3.7938e-07
5.83772e-07
3.48161e-07
3.66477e-07
3.53277e-07
3.53399e-07
3.50525e-07
3.51044e-07
3.50584e-07
3.50402e-07
3.50061e-07
3.50116e-07
3.50898e-07
3.50538e-07
3.51603e-07
3.51617e-07
3.53471e-07
3.60586e-07
3.61257e-07
3.55729e-07
3.42065e-07
5.20279e-07
3.35859e-07
3.51309e-07
3.40218e-07
3.40332e-07
3.37453e-07
3.37958e-07
3.37411e-07
3.37315e-07
3.36964e-07
3.36907e-07
3.37861e-07
3.37392e-07
3.38547e-07
3.38552e-07
3.40401e-07
3.475e-07
3.49167e-07
3.47769e-07
3.204e-07
4.58751e-07
3.23797e-07
3.38517e-07
3.27289e-07
3.27385e-07
3.24525e-07
3.25008e-07
3.24392e-07
3.24368e-07
3.2401e-07
3.23925e-07
3.24956e-07
3.24382e-07
3.25622e-07
3.25626e-07
3.27426e-07
3.34494e-07
3.3592e-07
3.39325e-07
3.08149e-07
4.04947e-07
3.11826e-07
3.25725e-07
3.14461e-07
3.14559e-07
3.11719e-07
3.12183e-07
3.1151e-07
3.11548e-07
3.11183e-07
3.11075e-07
3.12153e-07
3.11487e-07
3.12805e-07
3.12811e-07
3.14555e-07
3.21525e-07
3.2345e-07
3.30419e-07
3.00556e-07
3.64686e-07
2.99867e-07
3.12989e-07
3.01733e-07
3.01865e-07
2.99039e-07
2.99491e-07
2.98765e-07
2.98858e-07
2.98488e-07
2.98352e-07
2.99461e-07
2.98719e-07
3.00102e-07
3.00112e-07
3.01793e-07
3.08594e-07
3.10868e-07
3.19705e-07
2.94752e-07
3.36723e-07
2.87905e-07
3.0026e-07
2.89147e-07
2.89306e-07
2.86518e-07
2.86956e-07
2.86188e-07
2.86328e-07
2.85953e-07
2.85791e-07
2.86917e-07
2.86121e-07
2.87552e-07
2.87564e-07
2.8918e-07
2.95732e-07
2.9822e-07
3.07733e-07
2.89087e-07
3.11451e-07
2.76652e-07
2.8762e-07
2.76773e-07
2.76964e-07
2.74241e-07
2.74663e-07
2.73857e-07
2.74042e-07
2.7366e-07
2.73476e-07
2.74605e-07
2.73774e-07
2.75237e-07
2.75248e-07
2.76799e-07
2.83012e-07
2.85624e-07
2.96718e-07
2.82761e-07
2.87832e-07
2.65582e-07
2.75216e-07
2.64746e-07
2.64991e-07
2.62361e-07
2.62761e-07
2.61922e-07
2.62164e-07
2.61757e-07
2.61558e-07
2.6267e-07
2.61828e-07
2.6331e-07
2.63314e-07
2.64806e-07
2.70569e-07
2.73274e-07
2.85261e-07
2.75421e-07
2.71134e-07
2.54898e-07
2.63299e-07
2.53297e-07
2.53632e-07
2.51125e-07
2.51499e-07
2.50624e-07
2.50956e-07
2.50488e-07
2.50282e-07
2.51349e-07
2.50525e-07
2.52015e-07
2.52008e-07
2.53444e-07
2.58636e-07
2.61488e-07
2.73589e-07
2.67113e-07
2.56603e-07
2.44911e-07
2.52284e-07
2.42783e-07
2.4271e-07
2.40594e-07
2.40926e-07
2.40334e-07
2.40437e-07
2.40226e-07
2.40026e-07
2.41008e-07
2.40238e-07
2.4137e-07
2.41355e-07
2.42534e-07
2.47573e-07
2.49524e-07
2.62075e-07
2.58186e-07
2.44483e-07
2.35498e-07
2.41349e-07
2.3375e-07
2.33669e-07
2.31837e-07
2.32118e-07
2.31596e-07
2.31726e-07
2.31509e-07
2.31331e-07
2.32176e-07
2.31507e-07
2.32497e-07
2.32475e-07
2.33512e-07
2.37915e-07
2.39306e-07
2.51328e-07
2.49247e-07
2.34605e-07
2.28366e-07
2.33287e-07
2.26895e-07
2.26812e-07
2.25309e-07
2.25525e-07
2.251e-07
2.25222e-07
2.25031e-07
2.2489e-07
2.25539e-07
2.25024e-07
2.25822e-07
2.25808e-07
2.2667e-07
2.30356e-07
2.31629e-07
2.4212e-07
2.41105e-07
2.27226e-07
2.2376e-07
2.27952e-07
2.22966e-07
2.22882e-07
2.21741e-07
2.21883e-07
2.21578e-07
2.21657e-07
2.21522e-07
2.21432e-07
2.21839e-07
2.21523e-07
2.22082e-07
2.22094e-07
2.22763e-07
2.25681e-07
2.26838e-07
2.35326e-07
2.34648e-07
2.22762e-07
2.22233e-07
2.26031e-07
2.22522e-07
2.22444e-07
2.21656e-07
2.21723e-07
2.2154e-07
2.21559e-07
2.21492e-07
2.21457e-07
2.21618e-07
2.21508e-07
2.21831e-07
2.21879e-07
2.22364e-07
2.24552e-07
2.25552e-07
2.31795e-07
2.30846e-07
2.21554e-07
2.23949e-07
2.2779e-07
2.2559e-07
2.25521e-07
2.25024e-07
2.2503e-07
2.24931e-07
2.24901e-07
2.24889e-07
2.24899e-07
2.24877e-07
2.24925e-07
2.25094e-07
2.25167e-07
2.2551e-07
2.27152e-07
2.2789e-07
2.32024e-07
2.30229e-07
2.23725e-07
2.28398e-07
2.32912e-07
2.31441e-07
2.31458e-07
2.3108e-07
2.3107e-07
2.30976e-07
2.30938e-07
2.30939e-07
2.30966e-07
2.30898e-07
2.30989e-07
2.3117e-07
2.31226e-07
2.31515e-07
2.32913e-07
2.33226e-07
2.35824e-07
2.3269e-07
2.28698e-07
2.34717e-07
2.40309e-07
2.38932e-07
2.3907e-07
2.38627e-07
2.38643e-07
2.3847e-07
2.38472e-07
2.38439e-07
2.38447e-07
2.38483e-07
2.3849e-07
2.38858e-07
2.38852e-07
2.39206e-07
2.40677e-07
2.40396e-07
2.42267e-07
2.37531e-07
2.3573e-07
2.42188e-07
2.48866e-07
2.47197e-07
2.4746e-07
2.46762e-07
2.46829e-07
2.46525e-07
2.46602e-07
2.46502e-07
2.46462e-07
2.46712e-07
2.46544e-07
2.47203e-07
2.47111e-07
2.47647e-07
2.49392e-07
2.48413e-07
2.50278e-07
2.43944e-07
2.44578e-07
2.50879e-07
2.58395e-07
2.56242e-07
2.56602e-07
2.55756e-07
2.55866e-07
2.55436e-07
2.55591e-07
2.55422e-07
2.55325e-07
2.55812e-07
2.55448e-07
2.56381e-07
2.56217e-07
2.56856e-07
2.58929e-07
2.57378e-07
2.59557e-07
2.51842e-07
2.56404e-07
2.62579e-07
2.70469e-07
2.68033e-07
2.68423e-07
2.67533e-07
2.67657e-07
2.67138e-07
2.67354e-07
2.67132e-07
2.66979e-07
2.67675e-07
2.67139e-07
2.68254e-07
2.6806e-07
2.68711e-07
2.71052e-07
2.69109e-07
2.7152e-07
2.62701e-07
2.74175e-07
2.80272e-07
2.88364e-07
2.85697e-07
2.86107e-07
2.85123e-07
2.85258e-07
2.84639e-07
2.84924e-07
2.84636e-07
2.84416e-07
2.85364e-07
2.84621e-07
2.85915e-07
2.85709e-07
2.8642e-07
2.89043e-07
2.86739e-07
2.89454e-07
2.79694e-07
3.01252e-07
3.05704e-07
3.14822e-07
3.10719e-07
3.11356e-07
3.09898e-07
3.10167e-07
3.09239e-07
3.0973e-07
3.09245e-07
3.08875e-07
3.10458e-07
3.09178e-07
3.10962e-07
3.10701e-07
3.11611e-07
3.15123e-07
3.12113e-07
3.1664e-07
3.05932e-07
3.35613e-07
3.33352e-07
3.45706e-07
3.36873e-07
3.38337e-07
3.35489e-07
3.36225e-07
3.34489e-07
3.3552e-07
3.34538e-07
3.3382e-07
3.3693e-07
3.34329e-07
3.3733e-07
3.36904e-07
3.38211e-07
3.44164e-07
3.39512e-07
3.50071e-07
3.38491e-07
3.6215e-07
3.475e-07
3.64662e-07
3.48145e-07
3.50944e-07
3.45987e-07
3.47489e-07
3.44566e-07
3.46414e-07
3.44695e-07
3.43456e-07
3.48845e-07
3.44241e-07
3.49021e-07
3.48334e-07
3.50111e-07
3.59764e-07
3.52766e-07
3.73598e-07
3.61936e-07
3.53854e-07
3.24989e-07
3.44979e-07
3.20828e-07
3.24679e-07
3.17766e-07
3.20025e-07
3.15998e-07
3.1864e-07
3.16206e-07
3.14389e-07
3.22149e-07
3.15431e-07
3.21949e-07
3.20977e-07
3.2312e-07
3.36327e-07
3.27673e-07
3.59909e-07
3.51169e-07
2.71078e-07
2.39541e-07
2.5541e-07
2.32566e-07
2.35824e-07
2.29514e-07
2.31638e-07
2.27952e-07
2.30418e-07
2.28134e-07
2.26317e-07
2.3385e-07
2.27292e-07
2.33404e-07
2.32433e-07
2.34334e-07
2.46542e-07
2.39341e-07
2.71967e-07
2.69144e-07
1.72323e-07
1.52249e-07
1.59893e-07
1.45913e-07
1.47233e-07
1.43478e-07
1.4471e-07
1.42386e-07
1.43947e-07
1.4247e-07
1.41072e-07
1.46476e-07
1.41772e-07
1.46066e-07
1.45272e-07
1.46684e-07
1.54596e-07
1.50571e-07
1.72992e-07
1.74642e-07
)
;

boundaryField
{
    fuel
    {
        type            fixedValue;
        value           uniform 0;
    }
    wall
    {
        type            zeroGradient;
    }
    outlet
    {
        type            zeroGradient;
    }
    frontAndBack
    {
        type            empty;
    }
}


// ************************************************************************* //
