/*--------------------------------*- C++ -*----------------------------------*\
| =========                 |                                                 |
| \\      /  F ield         | OpenFOAM: The Open Source CFD Toolbox           |
|  \\    /   O peration     | Version:  dev                                   |
|   \\  /    A nd           | Web:      www.OpenFOAM.org                      |
|    \\/     M anipulation  |                                                 |
\*---------------------------------------------------------------------------*/
FoamFile
{
    version     2.0;
    format      ascii;
    class       volScalarField;
    location    "0.2";
    object      C2H4;
}
// * * * * * * * * * * * * * * * * * * * * * * * * * * * * * * * * * * * * * //

dimensions      [0 0 0 0 0 0 0];

internalField   nonuniform List<scalar> 
1000
(
0.109004
0.0102639
0.00960242
0.00953137
0.0095163
0.00951659
0.00951644
0.00951657
0.0095166
0.00951692
0.00951678
0.00951637
0.00951664
0.00951586
0.00951655
0.00951704
0.00953182
0.00967364
0.0111004
0.103697
0.0968249
0.00114387
0.00102218
0.00100037
0.00100035
0.00099879
0.000999213
0.000999041
0.000999065
0.000999087
0.000999042
0.000999053
0.000999007
0.000998989
0.000999015
0.000999208
0.00100199
0.00102695
0.00131884
0.0824752
0.0741194
0.00024547
0.000179479
0.000171733
0.00017219
0.000171487
0.000171652
0.00017157
0.000171587
0.000171578
0.000171567
0.00017158
0.000171558
0.000171567
0.000171568
0.000171641
0.000172433
0.00017903
0.000289951
0.0617605
0.0124201
9.53183e-05
6.22107e-05
5.84418e-05
5.86748e-05
5.83215e-05
5.8398e-05
5.83543e-05
5.83677e-05
5.83574e-05
5.83552e-05
5.83617e-05
5.83515e-05
5.83545e-05
5.83581e-05
5.83976e-05
5.87699e-05
6.16909e-05
0.000137759
0.0440649
0.00185321
5.0826e-05
3.64588e-05
3.39124e-05
3.40403e-05
3.38055e-05
3.38529e-05
3.3826e-05
3.38376e-05
3.38281e-05
3.38287e-05
3.38325e-05
3.3825e-05
3.38234e-05
3.38305e-05
3.38612e-05
3.41183e-05
3.60299e-05
0.000100756
0.0305111
0.000380156
3.63153e-05
2.73813e-05
2.56227e-05
2.56948e-05
2.55114e-05
2.55403e-05
2.55265e-05
2.55361e-05
2.55274e-05
2.55296e-05
2.55322e-05
2.55251e-05
2.55201e-05
2.55309e-05
2.55602e-05
2.57829e-05
2.73364e-05
8.46455e-05
0.0208857
0.0001373
3.02462e-05
2.33948e-05
2.18431e-05
2.1869e-05
2.17157e-05
2.17295e-05
2.1726e-05
2.17344e-05
2.17251e-05
2.17296e-05
2.17314e-05
2.17229e-05
2.17125e-05
2.1731e-05
2.17617e-05
2.19817e-05
2.33847e-05
7.40071e-05
0.0143503
8.51397e-05
2.73564e-05
2.12329e-05
1.97915e-05
1.97806e-05
1.96498e-05
1.96562e-05
1.96565e-05
1.96638e-05
1.96551e-05
1.96602e-05
1.96615e-05
1.96529e-05
1.96448e-05
1.96621e-05
1.96934e-05
1.99193e-05
2.12737e-05
6.56617e-05
0.00999909
7.07596e-05
2.59305e-05
1.988e-05
1.85032e-05
1.8509e-05
1.83987e-05
1.84077e-05
1.84028e-05
1.84097e-05
1.84022e-05
1.84069e-05
1.84079e-05
1.83996e-05
1.83991e-05
1.84097e-05
1.84377e-05
1.86117e-05
1.99341e-05
5.87369e-05
0.00708834
6.77946e-05
2.50964e-05
1.89482e-05
1.76615e-05
1.76151e-05
1.75051e-05
1.75176e-05
1.75059e-05
1.75129e-05
1.7506e-05
1.75109e-05
1.75118e-05
1.75013e-05
1.75117e-05
1.75159e-05
1.75504e-05
1.77734e-05
1.89887e-05
5.2852e-05
0.00511425
7.07592e-05
2.46142e-05
1.82933e-05
1.70081e-05
1.69337e-05
1.68316e-05
1.68394e-05
1.68298e-05
1.6837e-05
1.68304e-05
1.68355e-05
1.68363e-05
1.68225e-05
1.6835e-05
1.6842e-05
1.68798e-05
1.71168e-05
1.8378e-05
4.77723e-05
0.00376441
7.79346e-05
2.42659e-05
1.77827e-05
1.6489e-05
1.63917e-05
1.6292e-05
1.62917e-05
1.62878e-05
1.62957e-05
1.62892e-05
1.62945e-05
1.62954e-05
1.62764e-05
1.62846e-05
1.63029e-05
1.63445e-05
1.65978e-05
1.7862e-05
4.33211e-05
0.00282399
8.80856e-05
2.39767e-05
1.73411e-05
1.60459e-05
1.59299e-05
1.58303e-05
1.5819e-05
1.58235e-05
1.58325e-05
1.58267e-05
1.58315e-05
1.58326e-05
1.58062e-05
1.58691e-05
1.58422e-05
1.58872e-05
1.61558e-05
1.73908e-05
3.93719e-05
0.00213559
9.98072e-05
2.36885e-05
1.70258e-05
1.565e-05
1.55174e-05
1.54178e-05
1.54505e-05
1.54077e-05
1.5418e-05
1.54134e-05
1.54173e-05
1.54188e-05
1.53813e-05
1.54471e-05
1.54299e-05
1.54784e-05
1.57607e-05
1.70149e-05
3.56225e-05
0.00160221
0.000111445
2.33837e-05
1.67122e-05
1.52863e-05
1.51391e-05
1.5039e-05
1.5068e-05
1.5025e-05
1.50378e-05
1.50342e-05
1.50373e-05
1.50394e-05
1.50414e-05
1.50601e-05
1.50515e-05
1.51034e-05
1.53971e-05
1.66142e-05
3.19773e-05
0.00117624
0.000121253
2.30237e-05
1.63848e-05
1.49474e-05
1.47877e-05
1.46873e-05
1.47099e-05
1.46685e-05
1.46851e-05
1.46821e-05
1.46847e-05
1.46875e-05
1.46862e-05
1.47026e-05
1.47004e-05
1.47553e-05
1.50576e-05
1.62298e-05
2.90912e-05
0.000837156
0.000127695
2.25831e-05
1.60653e-05
1.46303e-05
1.44602e-05
1.43602e-05
1.43771e-05
1.43346e-05
1.43571e-05
1.43545e-05
1.43569e-05
1.43603e-05
1.43543e-05
1.4372e-05
1.43739e-05
1.44313e-05
1.47391e-05
1.58634e-05
2.65361e-05
0.000575239
0.000129793
2.20716e-05
1.57467e-05
1.43341e-05
1.41558e-05
1.40572e-05
1.40697e-05
1.40225e-05
1.40534e-05
1.40511e-05
1.40534e-05
1.40572e-05
1.40437e-05
1.4067e-05
1.40715e-05
1.41307e-05
1.44406e-05
1.55161e-05
2.43667e-05
0.000382
0.000127335
2.15111e-05
1.55002e-05
1.40593e-05
1.38752e-05
1.37794e-05
1.37888e-05
1.37718e-05
1.37751e-05
1.37727e-05
1.37751e-05
1.37791e-05
1.37531e-05
1.37878e-05
1.37939e-05
1.38541e-05
1.41627e-05
1.51898e-05
2.25918e-05
0.00024667
0.000119271
2.09161e-05
1.52486e-05
1.38071e-05
1.36199e-05
1.35282e-05
1.35352e-05
1.35163e-05
1.35235e-05
1.35213e-05
1.35236e-05
1.35276e-05
1.35209e-05
1.3536e-05
1.35426e-05
1.36032e-05
1.39066e-05
1.48871e-05
2.10429e-05
0.000156743
0.000109064
2.03123e-05
1.49876e-05
1.36061e-05
1.33919e-05
1.33059e-05
1.33107e-05
1.32881e-05
1.33007e-05
1.3299e-05
1.33013e-05
1.33048e-05
1.33117e-05
1.33131e-05
1.33196e-05
1.33798e-05
1.36731e-05
1.46116e-05
1.97921e-05
9.98925e-05
9.74057e-05
1.97203e-05
1.47484e-05
1.34241e-05
1.31935e-05
1.31158e-05
1.31186e-05
1.31181e-05
1.31102e-05
1.31092e-05
1.31112e-05
1.3114e-05
1.31198e-05
1.31218e-05
1.31281e-05
1.31873e-05
1.34699e-05
1.43675e-05
1.88272e-05
6.55177e-05
8.43321e-05
1.91579e-05
1.45354e-05
1.32868e-05
1.3056e-05
1.29834e-05
1.29853e-05
1.29856e-05
1.29782e-05
1.29778e-05
1.29791e-05
1.29814e-05
1.29875e-05
1.29885e-05
1.29945e-05
1.30518e-05
1.33201e-05
1.41598e-05
1.80308e-05
4.54616e-05
7.26939e-05
1.86472e-05
1.43528e-05
1.31812e-05
1.29475e-05
1.28822e-05
1.28824e-05
1.28837e-05
1.28769e-05
1.28774e-05
1.28803e-05
1.28796e-05
1.28863e-05
1.28855e-05
1.28911e-05
1.29465e-05
1.32036e-05
1.39933e-05
1.73924e-05
3.40086e-05
6.2874e-05
1.82032e-05
1.42066e-05
1.31283e-05
1.28935e-05
1.28371e-05
1.28355e-05
1.28386e-05
1.2832e-05
1.28338e-05
1.28362e-05
1.28336e-05
1.28418e-05
1.28379e-05
1.28433e-05
1.28952e-05
1.3135e-05
1.38922e-05
1.68908e-05
2.75279e-05
5.32847e-05
1.7838e-05
1.41323e-05
1.31295e-05
1.28935e-05
1.28477e-05
1.2844e-05
1.28497e-05
1.28428e-05
1.28463e-05
1.28493e-05
1.2843e-05
1.28534e-05
1.28453e-05
1.28505e-05
1.28974e-05
1.31176e-05
1.38388e-05
1.65117e-05
2.38782e-05
4.4986e-05
1.75663e-05
1.41158e-05
1.31958e-05
1.29574e-05
1.29246e-05
1.29184e-05
1.29279e-05
1.29201e-05
1.29258e-05
1.29293e-05
1.29179e-05
1.29316e-05
1.29178e-05
1.29229e-05
1.29642e-05
1.31606e-05
1.38547e-05
1.62436e-05
2.17399e-05
3.89497e-05
1.74082e-05
1.41713e-05
1.33421e-05
1.31e-05
1.30829e-05
1.30736e-05
1.30884e-05
1.30791e-05
1.30875e-05
1.30918e-05
1.30732e-05
1.30919e-05
1.30701e-05
1.30754e-05
1.31104e-05
1.32779e-05
1.39492e-05
1.60645e-05
2.04667e-05
3.49948e-05
1.73913e-05
1.43179e-05
1.35899e-05
1.33418e-05
1.33441e-05
1.3331e-05
1.33531e-05
1.3341e-05
1.33532e-05
1.33589e-05
1.33307e-05
1.33566e-05
1.33236e-05
1.33293e-05
1.33569e-05
1.34894e-05
1.41421e-05
1.60147e-05
1.97329e-05
3.17108e-05
1.75444e-05
1.45839e-05
1.39716e-05
1.37136e-05
1.37406e-05
1.37227e-05
1.37549e-05
1.37383e-05
1.37561e-05
1.37639e-05
1.37225e-05
1.37588e-05
1.37099e-05
1.37166e-05
1.3735e-05
1.38246e-05
1.44635e-05
1.61165e-05
1.93846e-05
2.90905e-05
1.79145e-05
1.50112e-05
1.4537e-05
1.42632e-05
1.43228e-05
1.42983e-05
1.43452e-05
1.43206e-05
1.43475e-05
1.43586e-05
1.42984e-05
1.43498e-05
1.42778e-05
1.42864e-05
1.42926e-05
1.43286e-05
1.49585e-05
1.63955e-05
1.93645e-05
2.769e-05
1.85817e-05
1.56645e-05
1.53664e-05
1.50666e-05
1.51715e-05
1.51376e-05
1.5207e-05
1.51681e-05
1.52104e-05
1.52267e-05
1.51385e-05
1.52128e-05
1.51056e-05
1.51178e-05
1.51063e-05
1.50738e-05
1.56979e-05
1.69091e-05
1.96821e-05
2.70594e-05
1.96772e-05
1.66473e-05
1.65947e-05
1.62941e-05
1.64489e-05
1.64014e-05
1.64801e-05
1.64465e-05
1.64843e-05
1.65091e-05
1.63777e-05
1.64878e-05
1.63538e-05
1.63721e-05
1.63474e-05
1.61811e-05
1.68837e-05
1.77578e-05
2.04115e-05
2.72952e-05
2.1493e-05
1.82845e-05
1.84511e-05
1.81014e-05
1.83489e-05
1.82797e-05
1.84034e-05
1.83432e-05
1.84085e-05
1.84477e-05
1.8247e-05
1.84148e-05
1.82051e-05
1.82349e-05
1.8175e-05
1.78552e-05
1.86659e-05
1.91114e-05
2.17126e-05
2.85898e-05
2.4273e-05
2.0685e-05
2.13266e-05
2.09045e-05
2.12945e-05
2.11908e-05
2.13838e-05
2.12844e-05
2.13897e-05
2.14528e-05
2.11396e-05
2.14019e-05
2.10733e-05
2.11229e-05
2.10104e-05
2.04506e-05
2.13731e-05
2.12642e-05
2.38788e-05
3.13396e-05
2.86689e-05
2.45087e-05
2.58564e-05
2.53288e-05
2.59361e-05
2.57781e-05
2.60781e-05
2.59186e-05
2.60842e-05
2.61863e-05
2.56938e-05
2.61078e-05
2.55936e-05
2.56765e-05
2.54837e-05
2.45553e-05
2.56697e-05
2.47148e-05
2.74084e-05
3.62028e-05
3.55483e-05
3.06055e-05
3.29841e-05
3.2311e-05
3.3235e-05
3.29953e-05
3.34529e-05
3.32035e-05
3.3458e-05
3.362e-05
3.2857e-05
3.35015e-05
3.27124e-05
3.28479e-05
3.25367e-05
3.10678e-05
3.24742e-05
3.02491e-05
3.30451e-05
4.40971e-05
4.60626e-05
4.01224e-05
4.39439e-05
4.30639e-05
4.44293e-05
4.40719e-05
4.47458e-05
4.43698e-05
4.4748e-05
4.49944e-05
4.38563e-05
4.4823e-05
4.36616e-05
4.38722e-05
4.33982e-05
4.12011e-05
4.30047e-05
3.89813e-05
4.18528e-05
5.61978e-05
6.14397e-05
5.44155e-05
6.0041e-05
5.89013e-05
6.08185e-05
6.03114e-05
6.12485e-05
6.0713e-05
6.12451e-05
6.15956e-05
5.99962e-05
6.13613e-05
5.97624e-05
6.00591e-05
5.93905e-05
5.6315e-05
5.85927e-05
5.22623e-05
5.50864e-05
7.37157e-05
8.2646e-05
7.47121e-05
8.22566e-05
8.08401e-05
8.33593e-05
8.26908e-05
8.3901e-05
8.31922e-05
8.389e-05
8.43506e-05
8.22592e-05
8.40526e-05
8.20211e-05
8.23966e-05
8.15395e-05
7.75405e-05
8.02977e-05
7.13691e-05
7.3919e-05
9.74378e-05
0.000109967
0.000101566
0.000110775
0.000109094
0.000112184
0.000111371
0.000112811
0.000111946
0.000112792
0.000113351
0.000110824
0.000113002
0.000110638
0.000111063
0.000110097
0.000105275
0.00010841
9.70157e-05
9.90006e-05
0.000127274
0.000142959
0.000134406
0.000145165
0.00014341
0.000146247
0.000145339
0.00014691
0.000145941
0.000146887
0.000147509
0.000144702
0.000147133
0.000144622
0.000145056
0.000144208
0.000139051
0.000142049
0.000128854
0.000129989
0.00016187
0.000178973
0.000171283
0.000182149
0.000180393
0.000183283
0.000182359
0.000183921
0.000182931
0.000183902
0.000184536
0.00018168
0.000184163
0.00018172
0.00018213
0.000181366
0.000176177
0.000179034
0.000165191
0.000165297
0.000198625
0.00021534
0.000209125
0.000219049
0.00021749
0.000220114
0.000219264
0.000220671
0.000219752
0.000220665
0.000221252
0.000218605
0.000220913
0.000218735
0.000219108
0.00021844
0.00021377
0.000216207
0.000203088
0.000202164
0.000234005
0.000248579
0.00024422
0.000252313
0.000251112
0.00025321
0.000252516
0.000253646
0.000252881
0.000253665
0.000254153
0.000251938
0.000253868
0.000252109
0.000252433
0.000251895
0.000248159
0.000249959
0.000238824
0.000237064
0.000264211
0.000275421
0.000272972
0.00027874
0.000277979
0.000279426
0.000278939
0.000279728
0.000279167
0.000279783
0.000280142
0.000278481
0.000279917
0.00027865
0.000278916
0.000278518
0.000275915
0.000276985
0.000268635
0.000266377
0.000286207
0.000293748
0.000292906
0.000296416
0.000296074
0.000296908
0.000296629
0.000297099
0.000296737
0.000297193
0.000297426
0.000296299
0.000297251
0.000296435
0.000296645
0.000296362
0.00029482
0.000295227
0.000289738
0.000287359
0.000298919
0.00030345
0.000303647
0.000305476
0.000305447
0.000305839
0.000305721
0.000305961
0.000305746
0.000306091
0.00030623
0.000305487
0.000306083
0.000305582
0.00030575
0.00030553
0.000304751
0.000304697
0.000301436
0.000299235
0.000304116
0.000306887
0.000307532
0.000308488
0.000308626
0.000308799
0.000308768
0.000308897
0.000308753
0.000309055
0.000309146
0.000308582
0.000309002
0.000308644
0.000308794
0.000308586
0.000308185
0.000307909
0.000305858
0.000303928
0.000305677
0.000307686
0.000308445
0.000309067
0.000309268
0.000309363
0.000309367
0.000309456
0.000309337
0.000309631
0.000309703
0.000309199
0.000309555
0.000309242
0.000309387
0.000309173
0.000308915
0.000308558
0.000307013
0.000305277
)
;

boundaryField
{
    fuel
    {
        type            fixedValue;
        value           uniform 0.116;
    }
    wall
    {
        type            zeroGradient;
    }
    outlet
    {
        type            inletOutlet;
        inletValue      uniform 0;
        value           nonuniform List<scalar> 
100
(
0.109004
0.0968249
0.0741194
0.0124201
0.00185321
0.000380156
0.0001373
8.51397e-05
7.07596e-05
6.77946e-05
7.07592e-05
7.79346e-05
8.80856e-05
9.98072e-05
0.000111445
0.000121253
0.000127695
0.000129793
0.000127335
0.000119271
0.000109064
9.74057e-05
8.43321e-05
7.26939e-05
6.2874e-05
5.32847e-05
4.4986e-05
3.89497e-05
3.49948e-05
3.17108e-05
2.90905e-05
2.769e-05
2.70594e-05
2.72952e-05
2.85898e-05
3.13396e-05
3.62028e-05
4.40971e-05
5.61978e-05
7.37157e-05
9.74378e-05
0.000127274
0.00016187
0.000198625
0.000234005
0.000264211
0.000286207
0.000298919
0.000304116
0.000305677
0.103697
0.0824752
0.0617605
0
0
0
0
0
0.00708834
0.00511425
0.00376441
0.00282399
0.00213559
0.00160221
0.00117624
0.000837156
0.000575239
0.000382
0.00024667
0.000156743
9.98925e-05
6.55177e-05
4.54616e-05
3.40086e-05
2.75279e-05
2.38782e-05
2.17399e-05
2.04667e-05
1.97329e-05
1.93846e-05
1.93645e-05
1.96821e-05
2.04115e-05
2.17126e-05
2.38788e-05
2.74084e-05
3.30451e-05
4.18528e-05
5.50864e-05
7.3919e-05
9.90006e-05
0.000129989
0.000165297
0.000202164
0.000237064
0.000266377
0.000287359
0.000299235
0.000303928
0.000305277
)
;
    }
    frontAndBack
    {
        type            empty;
    }
}


// ************************************************************************* //
