/*--------------------------------*- C++ -*----------------------------------*\
| =========                 |                                                 |
| \\      /  F ield         | OpenFOAM: The Open Source CFD Toolbox           |
|  \\    /   O peration     | Version:  dev                                   |
|   \\  /    A nd           | Web:      www.OpenFOAM.org                      |
|    \\/     M anipulation  |                                                 |
\*---------------------------------------------------------------------------*/
FoamFile
{
    version     2.0;
    format      ascii;
    class       volScalarField;
    location    "0.2";
    object      C2H4;
}
// * * * * * * * * * * * * * * * * * * * * * * * * * * * * * * * * * * * * * //

dimensions      [0 0 0 0 0 0 0];

internalField   nonuniform List<scalar> 
1000
(
0.105334
0.0108794
0.00964638
0.00951247
0.0094973
0.00949583
0.00949502
0.0094955
0.00949522
0.00949543
0.00949509
0.00949505
0.00949497
0.00949515
0.00949518
0.00949621
0.0095104
0.00958241
0.0102466
0.109243
0.0868328
0.00130159
0.00103355
0.00100854
0.0010055
0.00100523
0.00100513
0.00100515
0.0010052
0.00100518
0.00100515
0.00100516
0.00100504
0.00100542
0.00100489
0.0010063
0.00100748
0.00102679
0.00116653
0.0979347
0.0683367
0.000301711
0.000191519
0.000184656
0.000183772
0.000183696
0.000183677
0.000183669
0.000183694
0.00018368
0.000183684
0.000183693
0.000183642
0.000183805
0.000183547
0.000184216
0.000184166
0.000190883
0.00026956
0.0835414
0.0515279
0.000147605
6.64265e-05
6.34079e-05
6.30019e-05
6.29652e-05
6.29572e-05
6.2951e-05
6.29628e-05
6.29544e-05
6.29614e-05
6.29677e-05
6.29455e-05
6.30177e-05
6.28927e-05
6.32532e-05
6.31202e-05
6.65892e-05
0.000130016
0.0480733
0.037722
0.000109669
3.72969e-05
3.53561e-05
3.50864e-05
3.50593e-05
3.50494e-05
3.5047e-05
3.50555e-05
3.50492e-05
3.5056e-05
3.50615e-05
3.50498e-05
3.50827e-05
3.50218e-05
3.52502e-05
3.51547e-05
3.7567e-05
7.01377e-05
0.00851334
0.0271986
9.36784e-05
2.76421e-05
2.60575e-05
2.58316e-05
2.58059e-05
2.57884e-05
2.57933e-05
2.58001e-05
2.5795e-05
2.58019e-05
2.58068e-05
2.57992e-05
2.58103e-05
2.57853e-05
2.59499e-05
2.59009e-05
2.75554e-05
4.32804e-05
0.00146712
0.0195794
8.31464e-05
2.35074e-05
2.20303e-05
2.18132e-05
2.1785e-05
2.17548e-05
2.17693e-05
2.17753e-05
2.17694e-05
2.17788e-05
2.17834e-05
2.17772e-05
2.17672e-05
2.17725e-05
2.19062e-05
2.18988e-05
2.33691e-05
3.30236e-05
0.000375241
0.0141994
7.46575e-05
2.12043e-05
1.9942e-05
1.96973e-05
1.96639e-05
1.96269e-05
1.96451e-05
1.96496e-05
1.96437e-05
1.96543e-05
1.96586e-05
1.96525e-05
1.96362e-05
1.96555e-05
1.97792e-05
1.9822e-05
2.10867e-05
2.89526e-05
0.000167045
0.0103915
6.73048e-05
1.99615e-05
1.8542e-05
1.83667e-05
1.83472e-05
1.835e-05
1.83364e-05
1.83393e-05
1.83332e-05
1.8345e-05
1.8349e-05
1.83422e-05
1.83568e-05
1.83404e-05
1.8415e-05
1.84408e-05
1.97865e-05
2.71491e-05
0.000117895
0.00764263
6.07069e-05
1.90603e-05
1.77275e-05
1.75138e-05
1.74835e-05
1.74924e-05
1.74702e-05
1.74702e-05
1.74635e-05
1.74775e-05
1.74816e-05
1.74717e-05
1.74973e-05
1.7477e-05
1.75648e-05
1.76267e-05
1.88701e-05
2.61133e-05
0.000108461
0.00566173
5.47542e-05
1.83845e-05
1.70845e-05
1.68423e-05
1.68083e-05
1.68053e-05
1.67942e-05
1.67931e-05
1.67884e-05
1.67995e-05
1.68032e-05
1.67905e-05
1.67994e-05
1.68023e-05
1.68859e-05
1.69823e-05
1.82238e-05
2.55168e-05
0.000112644
0.00423927
4.94044e-05
1.79076e-05
1.65669e-05
1.63089e-05
1.62711e-05
1.62686e-05
1.62571e-05
1.6256e-05
1.62546e-05
1.62603e-05
1.62637e-05
1.62462e-05
1.6307e-05
1.62648e-05
1.63476e-05
1.64653e-05
1.77179e-05
2.50788e-05
0.000122766
0.00319933
4.45936e-05
1.74575e-05
1.61272e-05
1.58538e-05
1.58126e-05
1.58457e-05
1.57986e-05
1.57991e-05
1.58019e-05
1.58001e-05
1.58032e-05
1.57783e-05
1.58374e-05
1.58051e-05
1.58888e-05
1.6025e-05
1.72818e-05
2.4711e-05
0.000135503
0.00240418
4.02731e-05
1.70839e-05
1.57356e-05
1.54478e-05
1.5403e-05
1.54179e-05
1.53883e-05
1.53921e-05
1.53977e-05
1.53892e-05
1.53922e-05
1.53563e-05
1.54133e-05
1.53944e-05
1.54798e-05
1.56328e-05
1.69637e-05
2.43459e-05
0.000148459
0.00177403
3.613e-05
1.67149e-05
1.53761e-05
1.50762e-05
1.50281e-05
1.50319e-05
1.50112e-05
1.502e-05
1.50257e-05
1.5013e-05
1.50161e-05
1.50193e-05
1.50296e-05
1.50183e-05
1.51056e-05
1.52732e-05
1.66602e-05
2.39717e-05
0.000159157
0.00127263
3.21726e-05
1.63362e-05
1.50405e-05
1.47319e-05
1.4681e-05
1.46786e-05
1.46599e-05
1.46751e-05
1.46791e-05
1.46646e-05
1.46679e-05
1.46682e-05
1.46769e-05
1.46701e-05
1.47586e-05
1.49384e-05
1.63361e-05
2.35398e-05
0.000165603
0.000880838
2.90809e-05
1.59745e-05
1.47249e-05
1.44118e-05
1.43588e-05
1.43528e-05
1.4331e-05
1.43541e-05
1.43558e-05
1.43411e-05
1.43445e-05
1.43414e-05
1.43509e-05
1.43468e-05
1.44358e-05
1.46252e-05
1.60215e-05
2.3014e-05
0.000166542
0.000590733
2.64264e-05
1.56291e-05
1.44277e-05
1.4115e-05
1.40605e-05
1.40526e-05
1.40232e-05
1.40563e-05
1.40558e-05
1.40419e-05
1.40453e-05
1.40377e-05
1.40501e-05
1.40478e-05
1.41361e-05
1.43326e-05
1.57114e-05
2.24211e-05
0.000161789
0.000385168
2.42198e-05
1.53019e-05
1.41476e-05
1.3842e-05
1.37869e-05
1.37783e-05
1.37757e-05
1.37825e-05
1.37804e-05
1.37677e-05
1.37707e-05
1.37573e-05
1.37748e-05
1.37736e-05
1.38601e-05
1.4061e-05
1.54694e-05
2.17822e-05
0.000150244
0.000246005
2.24257e-05
1.49959e-05
1.3884e-05
1.35943e-05
1.35393e-05
1.35304e-05
1.35233e-05
1.35342e-05
1.35314e-05
1.35201e-05
1.35225e-05
1.35019e-05
1.35261e-05
1.35259e-05
1.36093e-05
1.38116e-05
1.52134e-05
2.11231e-05
0.000136419
0.000155872
2.09847e-05
1.47153e-05
1.36751e-05
1.33736e-05
1.33198e-05
1.3311e-05
1.32978e-05
1.33138e-05
1.3311e-05
1.33011e-05
1.33028e-05
1.33062e-05
1.33065e-05
1.33067e-05
1.33857e-05
1.36132e-05
1.4958e-05
2.04638e-05
0.00011929
9.97958e-05
1.97569e-05
1.44638e-05
1.34816e-05
1.31828e-05
1.31313e-05
1.31232e-05
1.31296e-05
1.31248e-05
1.31227e-05
1.31141e-05
1.31149e-05
1.31223e-05
1.31183e-05
1.31192e-05
1.31918e-05
1.34314e-05
1.47234e-05
1.9827e-05
0.000102925
6.6097e-05
1.87414e-05
1.42465e-05
1.33327e-05
1.30478e-05
1.29999e-05
1.29924e-05
1.29984e-05
1.2993e-05
1.29921e-05
1.29846e-05
1.2985e-05
1.29938e-05
1.29879e-05
1.29888e-05
1.30572e-05
1.32954e-05
1.45148e-05
1.92338e-05
8.65561e-05
4.63745e-05
1.80078e-05
1.40688e-05
1.32158e-05
1.29524e-05
1.28978e-05
1.28911e-05
1.28967e-05
1.28909e-05
1.28915e-05
1.28852e-05
1.28858e-05
1.28935e-05
1.28867e-05
1.28887e-05
1.29506e-05
1.31901e-05
1.43368e-05
1.87001e-05
7.28295e-05
3.49954e-05
1.74123e-05
1.39567e-05
1.31466e-05
1.29024e-05
1.2851e-05
1.28452e-05
1.28517e-05
1.28447e-05
1.28479e-05
1.28423e-05
1.28426e-05
1.2849e-05
1.28415e-05
1.28443e-05
1.28991e-05
1.31372e-05
1.41962e-05
1.82361e-05
6.12895e-05
2.84203e-05
1.69458e-05
1.38951e-05
1.31289e-05
1.29055e-05
1.28588e-05
1.28539e-05
1.28626e-05
1.28536e-05
1.28602e-05
1.28549e-05
1.2854e-05
1.28597e-05
1.2851e-05
1.28551e-05
1.29013e-05
1.31374e-05
1.41264e-05
1.78517e-05
5.18447e-05
2.45926e-05
1.66066e-05
1.39009e-05
1.31716e-05
1.29733e-05
1.29313e-05
1.29276e-05
1.29398e-05
1.29278e-05
1.2939e-05
1.29339e-05
1.2931e-05
1.29371e-05
1.2926e-05
1.29317e-05
1.29675e-05
1.32023e-05
1.4115e-05
1.75655e-05
4.42451e-05
2.23706e-05
1.63772e-05
1.39865e-05
1.32887e-05
1.31205e-05
1.30833e-05
1.30811e-05
1.30984e-05
1.30822e-05
1.30995e-05
1.30945e-05
1.30891e-05
1.30962e-05
1.30814e-05
1.30891e-05
1.31122e-05
1.33467e-05
1.41756e-05
1.7396e-05
3.82614e-05
2.1059e-05
1.62768e-05
1.41715e-05
1.35003e-05
1.33685e-05
1.33365e-05
1.33363e-05
1.33606e-05
1.33386e-05
1.33641e-05
1.33587e-05
1.33502e-05
1.33591e-05
1.33388e-05
1.33492e-05
1.33566e-05
1.35923e-05
1.43285e-05
1.73693e-05
3.40437e-05
2.03395e-05
1.63409e-05
1.44859e-05
1.38359e-05
1.37487e-05
1.37227e-05
1.37255e-05
1.37593e-05
1.37291e-05
1.37658e-05
1.37595e-05
1.37472e-05
1.37584e-05
1.37304e-05
1.37444e-05
1.37319e-05
1.39711e-05
1.46023e-05
1.75135e-05
3.08382e-05
2.0068e-05
1.65909e-05
1.49751e-05
1.43404e-05
1.43095e-05
1.42909e-05
1.42985e-05
1.43451e-05
1.43031e-05
1.43557e-05
1.43477e-05
1.43307e-05
1.43448e-05
1.43058e-05
1.4325e-05
1.42863e-05
1.45329e-05
1.50398e-05
1.78738e-05
2.84289e-05
2.02071e-05
1.70851e-05
1.57097e-05
1.50864e-05
1.51285e-05
1.512e-05
1.5136e-05
1.51994e-05
1.51399e-05
1.52158e-05
1.5205e-05
1.51827e-05
1.51994e-05
1.51446e-05
1.51717e-05
1.50971e-05
1.53578e-05
1.57074e-05
1.85287e-05
2.7174e-05
2.08047e-05
1.7925e-05
1.68721e-05
1.61949e-05
1.63782e-05
1.63801e-05
1.63734e-05
1.6506e-05
1.64126e-05
1.65305e-05
1.65106e-05
1.64409e-05
1.65046e-05
1.64192e-05
1.64567e-05
1.63294e-05
1.658e-05
1.6711e-05
1.96056e-05
2.66736e-05
2.20042e-05
1.92833e-05
1.86779e-05
1.78714e-05
1.82182e-05
1.82416e-05
1.82415e-05
1.84291e-05
1.82891e-05
1.84669e-05
1.8437e-05
1.83405e-05
1.84267e-05
1.83013e-05
1.83572e-05
1.81511e-05
1.84279e-05
1.83769e-05
2.14028e-05
2.70408e-05
2.4085e-05
2.1457e-05
2.13765e-05
2.04704e-05
2.10718e-05
2.11282e-05
2.11344e-05
2.14133e-05
2.11962e-05
2.14716e-05
2.14246e-05
2.12815e-05
2.14091e-05
2.12189e-05
2.13042e-05
2.09748e-05
2.12904e-05
2.08222e-05
2.41487e-05
2.8467e-05
2.75269e-05
2.49505e-05
2.56646e-05
2.45795e-05
2.55709e-05
2.56788e-05
2.56916e-05
2.61143e-05
2.57733e-05
2.62041e-05
2.61289e-05
2.59115e-05
2.61072e-05
2.58154e-05
2.59468e-05
2.54271e-05
2.57996e-05
2.47128e-05
2.8498e-05
3.13612e-05
3.30816e-05
3.05568e-05
3.24581e-05
3.10959e-05
3.26585e-05
3.28431e-05
3.2863e-05
3.3498e-05
3.29688e-05
3.3634e-05
3.35151e-05
3.31865e-05
3.34861e-05
3.30439e-05
3.32442e-05
3.24453e-05
3.28954e-05
3.0906e-05
3.53129e-05
3.63949e-05
4.18038e-05
3.94028e-05
4.29717e-05
4.12297e-05
4.3563e-05
4.38521e-05
4.38805e-05
4.47993e-05
4.40097e-05
4.4997e-05
4.48191e-05
4.43379e-05
4.47819e-05
4.4136e-05
4.44316e-05
4.32553e-05
4.37999e-05
4.05819e-05
4.57207e-05
4.45339e-05
5.49599e-05
5.28378e-05
5.85393e-05
5.63382e-05
5.95963e-05
6.00161e-05
6.00534e-05
6.13087e-05
6.01963e-05
6.15804e-05
6.13301e-05
6.06593e-05
6.12849e-05
6.03889e-05
6.08095e-05
5.91603e-05
5.98339e-05
5.5061e-05
6.09894e-05
5.69165e-05
7.37391e-05
7.21223e-05
8.02261e-05
7.75502e-05
8.17564e-05
8.23254e-05
8.23686e-05
8.39678e-05
8.25059e-05
8.43154e-05
8.39854e-05
8.31103e-05
8.39334e-05
8.27739e-05
8.33363e-05
8.11764e-05
8.19942e-05
7.55232e-05
8.21149e-05
7.4701e-05
9.88064e-05
9.79458e-05
0.000108326
0.00010526
0.000110237
0.00011096
0.000111004
0.000112885
0.000111108
0.000113296
0.000112894
0.000111837
0.000112837
0.000111455
0.000112147
0.000109522
0.00011047
0.000102518
0.000109376
9.86708e-05
0.000129832
0.000129922
0.000141962
0.000139025
0.000144702
0.000144924
0.000144962
0.000146992
0.000145007
0.00014744
0.000146989
0.000145815
0.00014693
0.000145419
0.0001462
0.000143835
0.000144847
0.000135438
0.000142358
0.000128682
0.00016522
0.000166319
0.000178958
0.000176136
0.000181742
0.000181983
0.000182012
0.000184013
0.000181983
0.000184463
0.000183999
0.000182801
0.000183938
0.000182433
0.000183234
0.000180857
0.000181845
0.000172306
0.000178411
0.00016333
0.000202188
0.000204172
0.000216152
0.000213724
0.000218742
0.000218965
0.000218981
0.000220772
0.00021888
0.000221186
0.000220753
0.000219635
0.000220686
0.00021933
0.000220071
0.000217927
0.000218786
0.000210043
0.000214869
0.000199991
0.000237176
0.000239756
0.000249933
0.000248118
0.000252132
0.000252315
0.000252314
0.000253754
0.000252162
0.000254105
0.000253739
0.00025279
0.000253662
0.000252574
0.00025318
0.000251455
0.000252109
0.000244954
0.000248233
0.000235143
0.000266535
0.000269335
0.00027699
0.000275885
0.000278692
0.000278833
0.00027881
0.000279841
0.000278644
0.000280116
0.000279839
0.00027911
0.000279747
0.000278986
0.000279411
0.000278207
0.000278605
0.000273483
0.000275208
0.000265038
0.000287514
0.000290184
0.000295258
0.000294801
0.00029648
0.000296598
0.00029655
0.000297213
0.000296403
0.000297421
0.000297232
0.000296713
0.000297119
0.000296667
0.000296908
0.000296204
0.000296346
0.000293208
0.000293649
0.000286716
0.00029935
0.000301673
0.000304747
0.000304741
0.000305612
0.00030573
0.000305659
0.000306073
0.000305548
0.000306242
0.000306118
0.000305745
0.00030598
0.000305751
0.000305849
0.000305512
0.000305453
0.000303798
0.000303426
0.00029918
0.000303993
0.000305971
0.000307965
0.000308176
0.000308651
0.000308784
0.000308699
0.000309005
0.000308619
0.000309163
0.000309072
0.000308761
0.000308912
0.000308791
0.000308811
0.000308659
0.000308485
0.000307604
0.000306894
0.000304236
0.000305306
0.000307069
0.000308616
0.000308903
0.00030923
0.000309378
0.000309286
0.00030956
0.000309224
0.00030972
0.000309642
0.000309345
0.000309467
0.000309384
0.000309373
0.000309287
0.000309068
0.000308485
0.0003077
0.000305736
)
;

boundaryField
{
    fuel
    {
        type            fixedValue;
        value           uniform 0.116;
    }
    wall
    {
        type            zeroGradient;
    }
    outlet
    {
        type            inletOutlet;
        inletValue      uniform 0;
        value           nonuniform List<scalar> 
100
(
0.105334
0.0868328
0.0683367
0.0515279
0.037722
0
0.0195794
0.0141994
0.0103915
0.00764263
0.00566173
0.00423927
0.00319933
0.00240418
0.00177403
0.00127263
0.000880838
0.000590733
0.000385168
0.000246005
0.000155872
9.97958e-05
6.6097e-05
4.63745e-05
3.49954e-05
2.84203e-05
2.45926e-05
2.23706e-05
2.1059e-05
2.03395e-05
2.0068e-05
2.02071e-05
2.08047e-05
2.20042e-05
2.4085e-05
2.75269e-05
3.30816e-05
4.18038e-05
5.49599e-05
7.37391e-05
9.88064e-05
0.000129832
0.00016522
0.000202188
0.000237176
0.000266535
0.000287514
0.00029935
0.000303993
0.000305306
0.109243
0.0979347
0.0835414
0.0480733
0.00851334
0.00146712
0.000375241
0.000167045
0.000117895
0.000108461
0.000112644
0.000122766
0.000135503
0.000148459
0.000159157
0.000165603
0.000166542
0.000161789
0.000150244
0.000136419
0.00011929
0.000102925
8.65561e-05
7.28295e-05
6.12895e-05
5.18447e-05
4.42451e-05
3.82614e-05
3.40437e-05
3.08382e-05
2.84289e-05
2.7174e-05
2.66736e-05
2.70408e-05
2.8467e-05
3.13612e-05
3.63949e-05
4.45339e-05
5.69165e-05
7.4701e-05
9.86708e-05
0.000128682
0.00016333
0.000199991
0.000235143
0.000265038
0.000286716
0.00029918
0.000304236
0.000305736
)
;
    }
    frontAndBack
    {
        type            empty;
    }
}


// ************************************************************************* //
