/*--------------------------------*- C++ -*----------------------------------*\
| =========                 |                                                 |
| \\      /  F ield         | OpenFOAM: The Open Source CFD Toolbox           |
|  \\    /   O peration     | Version:  dev                                   |
|   \\  /    A nd           | Web:      www.OpenFOAM.org                      |
|    \\/     M anipulation  |                                                 |
\*---------------------------------------------------------------------------*/
FoamFile
{
    version     2.0;
    format      ascii;
    class       volScalarField;
    location    "0.2";
    object      C2H5;
}
// * * * * * * * * * * * * * * * * * * * * * * * * * * * * * * * * * * * * * //

dimensions      [0 0 0 0 0 0 0];

internalField   nonuniform List<scalar> 
1000
(
1.94499e-06
7.42048e-06
5.91517e-06
5.75764e-06
5.74021e-06
5.73865e-06
5.7378e-06
5.73847e-06
5.73799e-06
5.73832e-06
5.73801e-06
5.73794e-06
5.73778e-06
5.73803e-06
5.73784e-06
5.73906e-06
5.75539e-06
5.83956e-06
6.62156e-06
2.91126e-06
2.28403e-06
1.59047e-06
1.28648e-06
1.25477e-06
1.25103e-06
1.25072e-06
1.25062e-06
1.25068e-06
1.25068e-06
1.25067e-06
1.25068e-06
1.25066e-06
1.25055e-06
1.25089e-06
1.2503e-06
1.25185e-06
1.25352e-06
1.27697e-06
1.41968e-06
3.96111e-06
1.75006e-06
5.73995e-07
4.55222e-07
4.44325e-07
4.42886e-07
4.42781e-07
4.42775e-07
4.4275e-07
4.42795e-07
4.42758e-07
4.42793e-07
4.42791e-07
4.42714e-07
4.43008e-07
4.42453e-07
4.43903e-07
4.43184e-07
4.56032e-07
5.19009e-07
2.20073e-05
1.43687e-06
2.79264e-07
2.11399e-07
2.06859e-07
2.06148e-07
2.06097e-07
2.06107e-07
2.06068e-07
2.06114e-07
2.06077e-07
2.06105e-07
2.06121e-07
2.06062e-07
2.0629e-07
2.05865e-07
2.07081e-07
2.05851e-07
2.14964e-07
2.82987e-07
9.10184e-05
1.44419e-06
1.63165e-07
1.18518e-07
1.16663e-07
1.16282e-07
1.16253e-07
1.16248e-07
1.16223e-07
1.16262e-07
1.16232e-07
1.16254e-07
1.16277e-07
1.16234e-07
1.16379e-07
1.16107e-07
1.17027e-07
1.15868e-07
1.2286e-07
1.58745e-07
1.24952e-05
1.83171e-06
1.0874e-07
7.82124e-08
7.76584e-08
7.74523e-08
7.74302e-08
7.73933e-08
7.73987e-08
7.74308e-08
7.74079e-08
7.74265e-08
7.74487e-08
7.7417e-08
7.74877e-08
7.73418e-08
7.80123e-08
7.70574e-08
8.09612e-08
1.03646e-07
2.55891e-06
3.06142e-06
7.95356e-08
5.89006e-08
5.89971e-08
5.88783e-08
5.88533e-08
5.87653e-08
5.881e-08
5.88382e-08
5.88138e-08
5.88401e-08
5.88601e-08
5.88338e-08
5.88178e-08
5.87981e-08
5.93008e-08
5.85373e-08
6.14246e-08
7.56439e-08
1.01073e-06
6.61352e-06
6.25152e-08
4.78934e-08
4.93106e-08
4.91397e-08
4.91034e-08
4.89899e-08
4.90488e-08
4.90708e-08
4.90486e-08
4.90764e-08
4.90942e-08
4.90692e-08
4.9027e-08
4.90661e-08
4.94833e-08
4.89322e-08
5.05199e-08
6.03392e-08
6.13594e-07
1.33857e-05
5.24141e-08
4.21157e-08
4.31657e-08
4.33724e-08
4.3406e-08
4.34544e-08
4.33862e-08
4.34033e-08
4.33819e-08
4.34116e-08
4.34276e-08
4.34015e-08
4.34781e-08
4.33771e-08
4.35455e-08
4.28943e-08
4.44305e-08
5.16193e-08
4.53017e-07
1.70519e-05
4.51423e-08
3.81549e-08
3.98579e-08
3.99687e-08
3.99686e-08
4.00359e-08
3.99365e-08
3.99455e-08
3.99217e-08
3.99593e-08
3.99752e-08
3.9939e-08
4.00491e-08
3.99418e-08
4.01325e-08
3.9602e-08
4.0291e-08
4.55335e-08
3.70285e-07
1.33302e-05
3.82114e-08
3.5413e-08
3.74648e-08
3.75366e-08
3.75332e-08
3.75519e-08
3.74939e-08
3.75026e-08
3.74857e-08
3.75134e-08
3.75274e-08
3.74832e-08
3.75245e-08
3.75084e-08
3.76553e-08
3.72086e-08
3.75129e-08
4.14632e-08
3.21673e-07
7.98266e-06
3.22119e-08
3.36343e-08
3.56922e-08
3.5762e-08
3.57544e-08
3.57646e-08
3.57108e-08
3.57228e-08
3.57132e-08
3.57274e-08
3.57403e-08
3.56822e-08
3.58796e-08
3.5728e-08
3.58514e-08
3.54304e-08
3.54525e-08
3.82334e-08
2.90267e-07
4.13849e-06
2.76182e-08
3.21032e-08
3.42741e-08
3.43312e-08
3.43196e-08
3.44339e-08
3.42705e-08
3.42908e-08
3.42903e-08
3.4286e-08
3.42982e-08
3.42183e-08
3.44027e-08
3.42882e-08
3.44002e-08
3.39915e-08
3.37642e-08
3.56178e-08
2.67813e-07
2.00349e-06
2.43462e-08
3.09325e-08
3.305e-08
3.30837e-08
3.30665e-08
3.31236e-08
3.30089e-08
3.30431e-08
3.30473e-08
3.30267e-08
3.30391e-08
3.29253e-08
3.3103e-08
3.30296e-08
3.31382e-08
3.27375e-08
3.25652e-08
3.3384e-08
2.49005e-07
9.60563e-07
2.19174e-08
2.98574e-08
3.19295e-08
3.19335e-08
3.19102e-08
3.19338e-08
3.18388e-08
3.18919e-08
3.18939e-08
3.18634e-08
3.18769e-08
3.18768e-08
3.19195e-08
3.18674e-08
3.1977e-08
3.15815e-08
3.14482e-08
3.15242e-08
2.30411e-07
4.66463e-07
2.01268e-08
2.88136e-08
3.08609e-08
3.08324e-08
3.08032e-08
3.08083e-08
3.07111e-08
3.07878e-08
3.07825e-08
3.07482e-08
3.07629e-08
3.07477e-08
3.07946e-08
3.0754e-08
3.08671e-08
3.04745e-08
3.02829e-08
2.98166e-08
2.09931e-07
2.28865e-07
1.90398e-08
2.78426e-08
2.98127e-08
2.97516e-08
2.97172e-08
2.97115e-08
2.95954e-08
2.97019e-08
2.9687e-08
2.9653e-08
2.96686e-08
2.96373e-08
2.96959e-08
2.96613e-08
2.97792e-08
2.93881e-08
2.91596e-08
2.81338e-08
1.87201e-07
1.14813e-07
1.83004e-08
2.69146e-08
2.87619e-08
2.86726e-08
2.86338e-08
2.86217e-08
2.84696e-08
2.8616e-08
2.85912e-08
2.85596e-08
2.85759e-08
2.85253e-08
2.86027e-08
2.85713e-08
2.86945e-08
2.83036e-08
2.80404e-08
2.65381e-08
1.63272e-07
5.98941e-08
1.78084e-08
2.60067e-08
2.76877e-08
2.75814e-08
2.75397e-08
2.75247e-08
2.74661e-08
2.75174e-08
2.7483e-08
2.7455e-08
2.74715e-08
2.73962e-08
2.75005e-08
2.74707e-08
2.75994e-08
2.72067e-08
2.71305e-08
2.50394e-08
1.35662e-07
3.34111e-08
1.7487e-08
2.51005e-08
2.65686e-08
2.64659e-08
2.64231e-08
2.64061e-08
2.63165e-08
2.63945e-08
2.63516e-08
2.63278e-08
2.6344e-08
2.62379e-08
2.63775e-08
2.63481e-08
2.64818e-08
2.60817e-08
2.61208e-08
2.36306e-08
1.12348e-07
2.05894e-08
1.7273e-08
2.41813e-08
2.55506e-08
2.53134e-08
2.5272e-08
2.52538e-08
2.51241e-08
2.52362e-08
2.51853e-08
2.5166e-08
2.51825e-08
2.51926e-08
2.5222e-08
2.51916e-08
2.53286e-08
2.50419e-08
2.50409e-08
2.22992e-08
8.96943e-08
1.43669e-08
1.71043e-08
2.32301e-08
2.44332e-08
2.41067e-08
2.40713e-08
2.40539e-08
2.40257e-08
2.40287e-08
2.39695e-08
2.39552e-08
2.39731e-08
2.39948e-08
2.40164e-08
2.39871e-08
2.41212e-08
2.38997e-08
2.3939e-08
2.10357e-08
7.15043e-08
1.13946e-08
1.69349e-08
2.22292e-08
2.33459e-08
2.29811e-08
2.29607e-08
2.29431e-08
2.28957e-08
2.29115e-08
2.28452e-08
2.2835e-08
2.28584e-08
2.28803e-08
2.29039e-08
2.28706e-08
2.30197e-08
2.27937e-08
2.27995e-08
1.98277e-08
5.55939e-08
1.00728e-08
1.67458e-08
2.11546e-08
2.21685e-08
2.18056e-08
2.16999e-08
2.1681e-08
2.16123e-08
2.16437e-08
2.1565e-08
2.15591e-08
2.15926e-08
2.16036e-08
2.16355e-08
2.16041e-08
2.17632e-08
2.15677e-08
2.15971e-08
1.86582e-08
4.36302e-08
9.60867e-09
1.64889e-08
2.01252e-08
2.09751e-08
2.05759e-08
2.04769e-08
2.0457e-08
2.03732e-08
2.04152e-08
2.03284e-08
2.03264e-08
2.03672e-08
2.0366e-08
2.04089e-08
2.03764e-08
2.05477e-08
2.03559e-08
2.03036e-08
1.75138e-08
3.44242e-08
9.57963e-09
1.61359e-08
1.8982e-08
1.97213e-08
1.92862e-08
1.91937e-08
1.91729e-08
1.90757e-08
1.91275e-08
1.90327e-08
1.9034e-08
1.90788e-08
1.90674e-08
1.91225e-08
1.90888e-08
1.92739e-08
1.90811e-08
1.91453e-08
1.63815e-08
2.7507e-08
9.72211e-09
1.56555e-08
1.77873e-08
1.83995e-08
1.79336e-08
1.78465e-08
1.78245e-08
1.77162e-08
1.77771e-08
1.76746e-08
1.7679e-08
1.77248e-08
1.77067e-08
1.77727e-08
1.77384e-08
1.79355e-08
1.77469e-08
1.7919e-08
1.5235e-08
2.22079e-08
9.86833e-09
1.49713e-08
1.65058e-08
1.7007e-08
1.65176e-08
1.64353e-08
1.64114e-08
1.6295e-08
1.63638e-08
1.62546e-08
1.62618e-08
1.63069e-08
1.62846e-08
1.63597e-08
1.6325e-08
1.65322e-08
1.63521e-08
1.66227e-08
1.40587e-08
1.81501e-08
9.91493e-09
1.40589e-08
1.51439e-08
1.55478e-08
1.50439e-08
1.49657e-08
1.49395e-08
1.48182e-08
1.48938e-08
1.47791e-08
1.47886e-08
1.48318e-08
1.48072e-08
1.48894e-08
1.48544e-08
1.50687e-08
1.48993e-08
1.52591e-08
1.28425e-08
1.5264e-08
9.79488e-09
1.31034e-08
1.37148e-08
1.40322e-08
1.35258e-08
1.34509e-08
1.34216e-08
1.32998e-08
1.33805e-08
1.32621e-08
1.32734e-08
1.33135e-08
1.32888e-08
1.33755e-08
1.33402e-08
1.35578e-08
1.33997e-08
1.38376e-08
1.16646e-08
1.29184e-08
9.47085e-09
1.20123e-08
1.22415e-08
1.24796e-08
1.19859e-08
1.19138e-08
1.188e-08
1.17636e-08
1.1847e-08
1.17277e-08
1.174e-08
1.1775e-08
1.17533e-08
1.18414e-08
1.18058e-08
1.20217e-08
1.18744e-08
1.23767e-08
1.04614e-08
1.08507e-08
8.93915e-09
1.08129e-08
1.07608e-08
1.09204e-08
1.04585e-08
1.03887e-08
1.03479e-08
1.02444e-08
1.03274e-08
1.02108e-08
1.02233e-08
1.02497e-08
1.02358e-08
1.03215e-08
1.02855e-08
1.04936e-08
1.03557e-08
1.09066e-08
9.25473e-09
9.38652e-09
8.2275e-09
9.5462e-09
9.22623e-09
9.39835e-09
8.92846e-09
8.86982e-09
8.86909e-09
8.72719e-09
8.81349e-09
8.69802e-09
8.71483e-09
8.78122e-09
8.72302e-09
8.81001e-09
8.7769e-09
8.96877e-09
8.88647e-09
9.47159e-09
8.07453e-09
8.06738e-09
7.39128e-09
8.2723e-09
7.76826e-09
7.96865e-09
7.55329e-09
7.50148e-09
7.49846e-09
7.37446e-09
7.45358e-09
7.3491e-09
7.36477e-09
7.4233e-09
7.37254e-09
7.45047e-09
7.4193e-09
7.58932e-09
7.52113e-09
7.98701e-09
6.9039e-09
6.95846e-09
6.50799e-09
7.06487e-09
6.54042e-09
6.69248e-09
6.34326e-09
6.30009e-09
6.296e-09
6.19358e-09
6.26165e-09
6.1728e-09
6.18634e-09
6.23513e-09
6.19299e-09
6.25897e-09
6.23143e-09
6.37415e-09
6.31993e-09
6.74497e-09
5.90651e-09
5.99871e-09
5.67068e-09
6.00193e-09
5.52663e-09
5.63623e-09
5.36319e-09
5.33013e-09
5.32623e-09
5.24828e-09
5.30138e-09
5.23277e-09
5.2432e-09
5.28054e-09
5.24813e-09
5.29932e-09
5.27732e-09
5.3875e-09
5.34731e-09
5.6989e-09
5.08685e-09
5.19885e-09
4.98169e-09
5.16828e-09
4.80123e-09
4.87138e-09
4.68288e-09
4.66107e-09
4.65824e-09
4.60734e-09
4.64151e-09
4.59772e-09
4.60402e-09
4.62815e-09
4.60701e-09
4.64066e-09
4.62597e-09
4.69883e-09
4.67259e-09
4.92175e-09
4.51123e-09
4.595e-09
4.54706e-09
4.65445e-09
4.4461e-09
4.47739e-09
4.38062e-09
4.37102e-09
4.36976e-09
4.34843e-09
4.35949e-09
4.3453e-09
4.34684e-09
4.35583e-09
4.34802e-09
4.3613e-09
4.35569e-09
4.38652e-09
4.37418e-09
4.49515e-09
4.25765e-09
4.24667e-09
4.48112e-09
4.56451e-09
4.5615e-09
4.55286e-09
4.55519e-09
4.55903e-09
4.55954e-09
4.57074e-09
4.55378e-09
4.57484e-09
4.57057e-09
4.56197e-09
4.57022e-09
4.55989e-09
4.56555e-09
4.54868e-09
4.55096e-09
4.51768e-09
4.42507e-09
4.23959e-09
4.92551e-09
5.03691e-09
5.28827e-09
5.2378e-09
5.34913e-09
5.36781e-09
5.37037e-09
5.41788e-09
5.36665e-09
5.43022e-09
5.41834e-09
5.3888e-09
5.41668e-09
5.37875e-09
5.39841e-09
5.32709e-09
5.34437e-09
5.12828e-09
5.15119e-09
4.70073e-09
6.07739e-09
6.27548e-09
6.84507e-09
6.7507e-09
6.98654e-09
7.02116e-09
7.02624e-09
7.11539e-09
7.02119e-09
7.13748e-09
7.11608e-09
7.06062e-09
7.11328e-09
7.04202e-09
7.07984e-09
6.94248e-09
6.97916e-09
6.53801e-09
6.65152e-09
5.81978e-09
8.25432e-09
8.61693e-09
9.60108e-09
9.47899e-09
9.88606e-09
9.89884e-09
9.90754e-09
1.00468e-08
9.89627e-09
1.00811e-08
1.00473e-08
9.95797e-09
1.00435e-08
9.92973e-09
9.99249e-09
9.80817e-09
9.86796e-09
9.10214e-09
9.30623e-09
7.91204e-09
1.20444e-08
1.26895e-08
1.42587e-08
1.40841e-08
1.47022e-08
1.47275e-08
1.47427e-08
1.49489e-08
1.47176e-08
1.50001e-08
1.4949e-08
1.48104e-08
1.49441e-08
1.47702e-08
1.48702e-08
1.45748e-08
1.46722e-08
1.34864e-08
1.37584e-08
1.15556e-08
1.87195e-08
1.98536e-08
2.23557e-08
2.21046e-08
2.30598e-08
2.30975e-08
2.3126e-08
2.34359e-08
2.30732e-08
2.35139e-08
2.34352e-08
2.32154e-08
2.34292e-08
2.31575e-08
2.33207e-08
2.28449e-08
2.30083e-08
2.11418e-08
2.15092e-08
1.79906e-08
3.14205e-08
3.34713e-08
3.76781e-08
3.72898e-08
3.88684e-08
3.89192e-08
3.89773e-08
3.94737e-08
3.88668e-08
3.9601e-08
3.94723e-08
3.90986e-08
3.94653e-08
3.90108e-08
3.92956e-08
3.84788e-08
3.87765e-08
3.56488e-08
3.61983e-08
3.02741e-08
5.92993e-08
6.33475e-08
7.12975e-08
7.0593e-08
7.35771e-08
7.36365e-08
7.37725e-08
7.46807e-08
7.35247e-08
7.49183e-08
7.46804e-08
7.39541e-08
7.46732e-08
7.38031e-08
7.437e-08
7.27767e-08
7.33981e-08
6.74607e-08
6.84625e-08
5.73279e-08
1.3767e-07
1.47006e-07
1.65256e-07
1.63526e-07
1.70433e-07
1.7043e-07
1.7082e-07
1.72811e-07
1.70186e-07
1.73339e-07
1.72834e-07
1.71126e-07
1.72837e-07
1.70807e-07
1.72194e-07
1.68413e-07
1.70072e-07
1.56315e-07
1.58993e-07
1.33545e-07
3.92061e-07
4.11639e-07
4.42925e-07
4.40564e-07
4.51017e-07
4.50268e-07
4.51193e-07
4.53232e-07
4.49951e-07
4.53805e-07
4.53479e-07
4.50887e-07
4.53559e-07
4.50515e-07
4.53044e-07
4.46628e-07
4.50584e-07
4.26823e-07
4.31605e-07
3.82121e-07
8.059e-07
8.21518e-07
8.20937e-07
8.24187e-07
8.20284e-07
8.17469e-07
8.18603e-07
8.13782e-07
8.18019e-07
8.12662e-07
8.14811e-07
8.1545e-07
8.15091e-07
8.15879e-07
8.17107e-07
8.15637e-07
8.20652e-07
8.15868e-07
8.14325e-07
7.88669e-07
9.80306e-07
9.8645e-07
9.68206e-07
9.71872e-07
9.61838e-07
9.57427e-07
9.59032e-07
9.505e-07
9.59066e-07
9.48465e-07
9.52233e-07
9.54484e-07
9.52725e-07
9.55269e-07
9.55977e-07
9.57105e-07
9.62814e-07
9.68337e-07
9.65972e-07
9.59553e-07
)
;

boundaryField
{
    fuel
    {
        type            fixedValue;
        value           uniform 0;
    }
    wall
    {
        type            zeroGradient;
    }
    outlet
    {
        type            zeroGradient;
    }
    frontAndBack
    {
        type            empty;
    }
}


// ************************************************************************* //
