/*--------------------------------*- C++ -*----------------------------------*\
| =========                 |                                                 |
| \\      /  F ield         | OpenFOAM: The Open Source CFD Toolbox           |
|  \\    /   O peration     | Version:  dev                                   |
|   \\  /    A nd           | Web:      www.OpenFOAM.org                      |
|    \\/     M anipulation  |                                                 |
\*---------------------------------------------------------------------------*/
FoamFile
{
    version     2.0;
    format      ascii;
    class       volScalarField;
    location    "0.2";
    object      C2H5;
}
// * * * * * * * * * * * * * * * * * * * * * * * * * * * * * * * * * * * * * //

dimensions      [0 0 0 0 0 0 0];

internalField   nonuniform List<scalar> 
1000
(
3.63848e-06
6.12786e-06
5.36903e-06
5.28614e-06
5.26866e-06
5.26891e-06
5.26867e-06
5.26866e-06
5.26864e-06
5.26905e-06
5.26889e-06
5.26841e-06
5.26882e-06
5.26802e-06
5.26897e-06
5.26958e-06
5.28673e-06
5.4525e-06
7.16784e-06
2.01555e-06
7.24492e-06
1.4084e-06
1.2757e-06
1.24827e-06
1.24706e-06
1.24562e-06
1.24587e-06
1.24571e-06
1.24571e-06
1.24577e-06
1.24571e-06
1.2457e-06
1.24569e-06
1.24565e-06
1.24578e-06
1.24603e-06
1.24986e-06
1.2845e-06
1.64071e-06
2.35753e-06
0.000114855
5.41949e-07
4.5953e-07
4.43381e-07
4.44529e-07
4.43027e-07
4.43355e-07
4.43136e-07
4.43186e-07
4.43161e-07
4.43132e-07
4.43166e-07
4.43118e-07
4.43163e-07
4.43162e-07
4.43303e-07
4.44761e-07
4.56492e-07
5.90365e-07
1.8299e-06
1.67379e-05
2.5768e-07
2.16696e-07
2.05477e-07
2.06975e-07
2.05636e-07
2.05984e-07
2.05765e-07
2.05832e-07
2.05783e-07
2.05772e-07
2.05805e-07
2.0576e-07
2.05803e-07
2.0578e-07
2.05869e-07
2.06585e-07
2.114e-07
2.83623e-07
1.58522e-06
3.36873e-06
1.45907e-07
1.24131e-07
1.15768e-07
1.17128e-07
1.16054e-07
1.16344e-07
1.1617e-07
1.16234e-07
1.16184e-07
1.16186e-07
1.16209e-07
1.16169e-07
1.16196e-07
1.16183e-07
1.16244e-07
1.16634e-07
1.18511e-07
1.62899e-07
1.67491e-06
1.1812e-06
9.65271e-08
8.16046e-08
7.69407e-08
7.80518e-08
7.72366e-08
7.74373e-08
7.73266e-08
7.73776e-08
7.73342e-08
7.73434e-08
7.73587e-08
7.73228e-08
7.73362e-08
7.7337e-08
7.73848e-08
7.76155e-08
7.80032e-08
1.05827e-07
2.18585e-06
6.40822e-07
7.04393e-08
6.17459e-08
5.83807e-08
5.92476e-08
5.86392e-08
5.876e-08
5.87014e-08
5.87432e-08
5.8701e-08
5.87191e-08
5.87294e-08
5.86909e-08
5.86796e-08
5.87132e-08
5.8755e-08
5.89178e-08
5.84386e-08
7.53555e-08
3.79854e-06
4.28967e-07
5.6182e-08
5.11399e-08
4.86889e-08
4.93834e-08
4.8936e-08
4.90121e-08
4.89783e-08
4.90126e-08
4.89761e-08
4.89953e-08
4.90029e-08
4.89671e-08
4.89634e-08
4.89917e-08
4.90234e-08
4.91403e-08
4.81813e-08
5.82891e-08
8.13025e-06
3.17511e-07
4.81973e-08
4.47504e-08
4.30369e-08
4.38079e-08
4.3494e-08
4.35674e-08
4.35227e-08
4.35537e-08
4.35244e-08
4.35407e-08
4.35469e-08
4.35144e-08
4.35346e-08
4.35403e-08
4.35482e-08
4.33789e-08
4.19946e-08
4.83851e-08
1.38692e-05
2.52209e-07
4.28501e-08
4.05495e-08
3.96393e-08
4.02251e-08
3.99564e-08
4.00325e-08
3.99702e-08
4.00004e-08
3.99756e-08
3.99912e-08
3.99973e-08
3.99585e-08
4.00142e-08
3.99986e-08
4.00205e-08
3.99803e-08
3.79431e-08
4.05886e-08
1.37261e-05
2.13851e-07
3.92942e-08
3.77478e-08
3.72324e-08
3.77515e-08
3.75459e-08
3.76002e-08
3.75488e-08
3.75794e-08
3.75579e-08
3.75725e-08
3.75791e-08
3.75304e-08
3.75895e-08
3.75854e-08
3.76083e-08
3.75595e-08
3.55348e-08
3.35645e-08
8.79614e-06
1.92048e-07
3.65119e-08
3.56802e-08
3.54622e-08
3.59459e-08
3.5772e-08
3.57966e-08
3.57657e-08
3.57993e-08
3.57771e-08
3.57935e-08
3.58014e-08
3.57367e-08
3.57781e-08
3.58128e-08
3.58404e-08
3.58018e-08
3.36861e-08
2.81436e-08
4.45217e-06
1.79767e-07
3.42836e-08
3.39806e-08
3.40257e-08
3.44935e-08
3.43354e-08
3.43223e-08
3.43196e-08
3.43583e-08
3.43377e-08
3.43527e-08
3.43628e-08
3.42753e-08
3.44778e-08
3.43804e-08
3.44126e-08
3.43921e-08
3.21615e-08
2.44269e-08
2.03411e-06
1.72077e-07
3.2386e-08
3.27972e-08
3.27681e-08
3.32286e-08
3.30785e-08
3.31917e-08
3.30508e-08
3.30966e-08
3.30783e-08
3.30907e-08
3.3104e-08
3.29809e-08
3.31918e-08
3.31264e-08
3.31649e-08
3.31703e-08
3.10472e-08
2.18435e-08
9.27919e-07
1.65555e-07
3.07699e-08
3.16486e-08
3.16056e-08
3.20625e-08
3.19141e-08
3.20134e-08
3.18722e-08
3.19288e-08
3.19124e-08
3.19219e-08
3.19398e-08
3.19291e-08
3.20062e-08
3.19661e-08
3.20119e-08
3.2049e-08
2.99469e-08
2.00364e-08
4.40673e-07
1.57924e-07
2.92661e-08
3.04762e-08
3.04911e-08
3.09465e-08
3.07957e-08
3.08774e-08
3.07358e-08
3.08079e-08
3.07923e-08
3.07996e-08
3.08224e-08
3.07931e-08
3.08752e-08
3.08529e-08
3.09064e-08
3.09796e-08
2.89405e-08
1.89989e-08
2.15905e-07
1.47931e-07
2.77831e-08
2.93406e-08
2.93971e-08
2.98519e-08
2.96968e-08
2.9765e-08
2.96119e-08
2.97067e-08
2.96907e-08
2.96963e-08
2.97244e-08
2.96721e-08
2.97704e-08
2.97596e-08
2.9821e-08
2.99327e-08
2.79996e-08
1.83367e-08
1.07909e-07
1.3534e-07
2.63353e-08
2.81977e-08
2.83051e-08
2.87606e-08
2.85999e-08
2.86591e-08
2.84791e-08
2.86078e-08
2.85903e-08
2.85946e-08
2.86284e-08
2.85421e-08
2.86724e-08
2.86687e-08
2.87376e-08
2.8889e-08
2.70962e-08
1.79481e-08
5.55823e-08
1.20791e-07
2.49479e-08
2.72779e-08
2.7201e-08
2.7659e-08
2.74925e-08
2.75471e-08
2.74703e-08
2.74987e-08
2.74788e-08
2.74816e-08
2.75215e-08
2.73813e-08
2.75666e-08
2.7567e-08
2.76433e-08
2.78339e-08
2.62079e-08
1.77524e-08
3.04609e-08
1.0223e-07
2.36115e-08
2.62919e-08
2.60696e-08
2.65353e-08
2.63635e-08
2.64148e-08
2.63156e-08
2.63674e-08
2.63451e-08
2.63461e-08
2.63932e-08
2.63303e-08
2.6442e-08
2.64431e-08
2.65266e-08
2.67539e-08
2.53155e-08
1.76803e-08
1.85465e-08
8.58298e-08
2.2328e-08
2.51993e-08
2.50212e-08
2.53758e-08
2.52009e-08
2.52496e-08
2.51187e-08
2.52021e-08
2.51775e-08
2.51761e-08
2.52313e-08
2.52274e-08
2.52846e-08
2.52848e-08
2.53755e-08
2.56281e-08
2.44024e-08
1.76722e-08
1.2993e-08
7.09368e-08
2.10919e-08
2.40893e-08
2.38818e-08
2.41609e-08
2.39909e-08
2.40361e-08
2.40169e-08
2.39881e-08
2.39612e-08
2.39558e-08
2.40212e-08
2.40012e-08
2.40779e-08
2.40771e-08
2.41756e-08
2.44676e-08
2.34531e-08
1.76746e-08
1.05409e-08
5.68327e-08
1.98928e-08
2.29441e-08
2.27682e-08
2.30572e-08
2.2869e-08
2.29181e-08
2.28837e-08
2.28663e-08
2.28364e-08
2.28206e-08
2.29036e-08
2.28723e-08
2.29622e-08
2.29608e-08
2.30648e-08
2.33771e-08
2.24527e-08
1.76409e-08
9.64947e-09
4.57472e-08
1.87222e-08
2.17364e-08
2.1541e-08
2.18075e-08
2.16037e-08
2.16516e-08
2.16032e-08
2.15961e-08
2.15621e-08
2.15635e-08
2.16418e-08
2.15957e-08
2.1703e-08
2.17005e-08
2.18165e-08
2.22012e-08
2.13777e-08
1.75333e-08
9.5655e-09
3.72515e-08
1.75663e-08
2.04261e-08
2.03271e-08
2.059e-08
2.03725e-08
2.04214e-08
2.03622e-08
2.03631e-08
2.03265e-08
2.03177e-08
2.04146e-08
2.03567e-08
2.04761e-08
2.04735e-08
2.0594e-08
2.10076e-08
2.03463e-08
1.73111e-08
9.87358e-09
2.95875e-08
1.6413e-08
1.92562e-08
1.90562e-08
1.93124e-08
1.90826e-08
1.91318e-08
1.9063e-08
1.9071e-08
1.90319e-08
1.90197e-08
1.91276e-08
1.90579e-08
1.91894e-08
1.91873e-08
1.93095e-08
1.97518e-08
1.91431e-08
1.69417e-08
1.03259e-08
2.33622e-08
1.52473e-08
1.80228e-08
1.77226e-08
1.79727e-08
1.77299e-08
1.77798e-08
1.77019e-08
1.77165e-08
1.76748e-08
1.76599e-08
1.77769e-08
1.76959e-08
1.78393e-08
1.78378e-08
1.7961e-08
1.84274e-08
1.79322e-08
1.64284e-08
1.07587e-08
1.90171e-08
1.40584e-08
1.67277e-08
1.63256e-08
1.65708e-08
1.63144e-08
1.63657e-08
1.62789e-08
1.62997e-08
1.62555e-08
1.62377e-08
1.63626e-08
1.62715e-08
1.6426e-08
1.64249e-08
1.65482e-08
1.70323e-08
1.66338e-08
1.56743e-08
1.10514e-08
1.6147e-08
1.28357e-08
1.5365e-08
1.48714e-08
1.51087e-08
1.48423e-08
1.48945e-08
1.47998e-08
1.48265e-08
1.47797e-08
1.47592e-08
1.48906e-08
1.4791e-08
1.49551e-08
1.49539e-08
1.50766e-08
1.55697e-08
1.52526e-08
1.46965e-08
1.11252e-08
1.36306e-08
1.16441e-08
1.39434e-08
1.33715e-08
1.3599e-08
1.33271e-08
1.33796e-08
1.32781e-08
1.33108e-08
1.3261e-08
1.32382e-08
1.33742e-08
1.32684e-08
1.344e-08
1.3438e-08
1.35594e-08
1.40501e-08
1.38029e-08
1.36777e-08
1.09414e-08
1.13375e-08
1.04323e-08
1.24806e-08
1.18469e-08
1.20639e-08
1.17922e-08
1.1844e-08
1.1737e-08
1.17772e-08
1.17228e-08
1.16983e-08
1.18362e-08
1.17268e-08
1.19037e-08
1.19001e-08
1.20196e-08
1.24934e-08
1.231e-08
1.25138e-08
1.04903e-08
9.7458e-09
9.2204e-09
1.10069e-08
1.03298e-08
1.05365e-08
1.02717e-08
1.03217e-08
1.02103e-08
1.02608e-08
1.0199e-08
1.01738e-08
1.03097e-08
1.02003e-08
1.03798e-08
1.03737e-08
1.04906e-08
1.0931e-08
1.08125e-08
1.12354e-08
9.79507e-09
8.35588e-09
8.03707e-09
9.56664e-09
8.86269e-09
9.00207e-09
8.77576e-09
8.82189e-09
8.74221e-09
8.7665e-09
8.7337e-09
8.70902e-09
8.83853e-09
8.73304e-09
8.87386e-09
8.86569e-09
8.95768e-09
9.40642e-09
9.2364e-09
9.88849e-09
8.90783e-09
7.17068e-09
6.87092e-09
8.06905e-09
7.50019e-09
7.61975e-09
7.41922e-09
7.4605e-09
7.3864e-09
7.41511e-09
7.38028e-09
7.35734e-09
7.47517e-09
7.37827e-09
7.50756e-09
7.4974e-09
7.57858e-09
7.97472e-09
7.79468e-09
8.53994e-09
7.90389e-09
6.15308e-09
5.87637e-09
6.81468e-09
6.30239e-09
6.40025e-09
6.23197e-09
6.26685e-09
6.20232e-09
6.2307e-09
6.19817e-09
6.17829e-09
6.27895e-09
6.19551e-09
6.30701e-09
6.29632e-09
6.36337e-09
6.69685e-09
6.55507e-09
7.26534e-09
6.8736e-09
5.30796e-09
5.06271e-09
5.75355e-09
5.33359e-09
5.40774e-09
5.27789e-09
5.30493e-09
5.25396e-09
5.27765e-09
5.2514e-09
5.23587e-09
5.31384e-09
5.24876e-09
5.33609e-09
5.32668e-09
5.37749e-09
5.6387e-09
5.533e-09
6.14448e-09
5.9139e-09
4.66609e-09
4.49476e-09
4.95861e-09
4.66305e-09
4.7119e-09
4.62607e-09
4.64373e-09
4.61004e-09
4.62578e-09
4.60866e-09
4.59881e-09
4.64857e-09
4.60677e-09
4.66411e-09
4.65778e-09
4.69106e-09
4.87167e-09
4.80223e-09
5.26214e-09
5.13505e-09
4.2845e-09
4.24964e-09
4.51263e-09
4.36879e-09
4.39143e-09
4.35487e-09
4.36141e-09
4.34848e-09
4.35357e-09
4.34784e-09
4.34513e-09
4.36095e-09
4.34758e-09
4.36978e-09
4.36809e-09
4.38278e-09
4.4757e-09
4.44412e-09
4.70834e-09
4.6383e-09
4.2491e-09
4.42487e-09
4.51659e-09
4.54928e-09
4.54521e-09
4.56371e-09
4.55715e-09
4.56848e-09
4.56021e-09
4.56817e-09
4.57418e-09
4.54951e-09
4.57045e-09
4.55284e-09
4.55683e-09
4.55188e-09
4.54967e-09
4.558e-09
4.58532e-09
4.53183e-09
4.67826e-09
5.16028e-09
5.10539e-09
5.34749e-09
5.31288e-09
5.39626e-09
5.37345e-09
5.41349e-09
5.38844e-09
5.41311e-09
5.42976e-09
5.356e-09
5.41901e-09
5.35667e-09
5.36687e-09
5.34178e-09
5.23339e-09
5.28382e-09
5.0264e-09
4.94827e-09
5.76156e-09
6.67098e-09
6.49073e-09
6.98784e-09
6.91526e-09
7.07801e-09
7.03441e-09
7.10925e-09
7.06278e-09
7.10842e-09
7.1383e-09
7.00361e-09
7.11941e-09
7.00648e-09
7.02276e-09
6.97952e-09
6.74574e-09
6.84013e-09
6.23255e-09
6.07847e-09
7.81114e-09
9.33755e-09
9.02634e-09
9.88413e-09
9.76925e-09
9.9921e-09
9.92029e-09
1.00396e-08
9.96455e-09
1.00379e-08
1.0085e-08
9.87107e-09
1.00561e-08
9.88262e-09
9.90503e-09
9.85032e-09
9.47375e-09
9.59627e-09
8.53646e-09
8.23379e-09
1.13988e-08
1.38064e-08
1.33737e-08
1.47e-08
1.45174e-08
1.48731e-08
1.47594e-08
1.49416e-08
1.48249e-08
1.49385e-08
1.50099e-08
1.46832e-08
1.49675e-08
1.47107e-08
1.47415e-08
1.46644e-08
1.40804e-08
1.42553e-08
1.25599e-08
1.19969e-08
1.77504e-08
2.15835e-08
2.09736e-08
2.30568e-08
2.27644e-08
2.33298e-08
2.31452e-08
2.34296e-08
2.32441e-08
2.34241e-08
2.35346e-08
2.30252e-08
2.34706e-08
2.3079e-08
2.31246e-08
2.30129e-08
2.21043e-08
2.23565e-08
1.96497e-08
1.86337e-08
2.98871e-08
3.63146e-08
3.53788e-08
3.88586e-08
3.83575e-08
3.93102e-08
3.89897e-08
3.94645e-08
3.91493e-08
3.9454e-08
3.96363e-08
3.87885e-08
3.95329e-08
3.88912e-08
3.89638e-08
3.87974e-08
3.72913e-08
3.76842e-08
3.31338e-08
3.12717e-08
5.65955e-08
6.86074e-08
6.69165e-08
7.34866e-08
7.25006e-08
7.43261e-08
7.36926e-08
7.45965e-08
7.39863e-08
7.45735e-08
7.4916e-08
7.33089e-08
7.47244e-08
7.35257e-08
7.36497e-08
7.33843e-08
7.0536e-08
7.1258e-08
6.26785e-08
5.89913e-08
1.31601e-07
1.59007e-07
1.54766e-07
1.69981e-07
1.6749e-07
1.71792e-07
1.70245e-07
1.72349e-07
1.70906e-07
1.72281e-07
1.73041e-07
1.6938e-07
1.72615e-07
1.6993e-07
1.70145e-07
1.6971e-07
1.63069e-07
1.64908e-07
1.45154e-07
1.36732e-07
3.7855e-07
4.31986e-07
4.24462e-07
4.50802e-07
4.45505e-07
4.52746e-07
4.49937e-07
4.53099e-07
4.50853e-07
4.5298e-07
4.5367e-07
4.49125e-07
4.532e-07
4.50226e-07
4.50022e-07
4.50434e-07
4.39988e-07
4.42902e-07
4.0854e-07
3.90653e-07
7.86667e-07
8.13758e-07
8.14903e-07
8.2003e-07
8.14968e-07
8.1644e-07
8.15188e-07
8.14397e-07
8.14692e-07
8.1439e-07
8.12027e-07
8.18037e-07
8.12836e-07
8.18612e-07
8.16173e-07
8.20562e-07
8.22664e-07
8.2095e-07
8.20813e-07
8.04765e-07
9.58202e-07
9.64768e-07
9.6776e-07
9.61566e-07
9.5637e-07
9.54901e-07
9.54352e-07
9.51685e-07
9.53182e-07
9.51569e-07
9.47431e-07
9.59215e-07
9.48876e-07
9.59384e-07
9.55292e-07
9.62343e-07
9.6946e-07
9.68223e-07
9.86636e-07
9.79367e-07
)
;

boundaryField
{
    fuel
    {
        type            fixedValue;
        value           uniform 0;
    }
    wall
    {
        type            zeroGradient;
    }
    outlet
    {
        type            zeroGradient;
    }
    frontAndBack
    {
        type            empty;
    }
}


// ************************************************************************* //
