/*--------------------------------*- C++ -*----------------------------------*\
| =========                 |                                                 |
| \\      /  F ield         | OpenFOAM: The Open Source CFD Toolbox           |
|  \\    /   O peration     | Version:  dev                                   |
|   \\  /    A nd           | Web:      www.OpenFOAM.org                      |
|    \\/     M anipulation  |                                                 |
\*---------------------------------------------------------------------------*/
FoamFile
{
    version     2.0;
    format      ascii;
    class       volScalarField;
    location    "0.2";
    object      C2H6;
}
// * * * * * * * * * * * * * * * * * * * * * * * * * * * * * * * * * * * * * //

dimensions      [0 0 0 0 0 0 0];

internalField   nonuniform List<scalar> 
1000
(
9.25775e-06
3.24713e-05
2.68924e-05
2.62855e-05
2.61589e-05
2.61601e-05
2.61584e-05
2.61583e-05
2.61582e-05
2.61611e-05
2.616e-05
2.61567e-05
2.61596e-05
2.61539e-05
2.61609e-05
2.61656e-05
2.62907e-05
2.75032e-05
4.07438e-05
2.42148e-05
4.17478e-05
6.76217e-06
5.66096e-06
5.48367e-06
5.46488e-06
5.45916e-06
5.46003e-06
5.45949e-06
5.45951e-06
5.46e-06
5.45966e-06
5.45931e-06
5.45959e-06
5.4588e-06
5.45997e-06
5.46162e-06
5.49095e-06
5.7651e-06
8.77143e-06
6.25914e-05
0.000217083
2.70946e-06
2.14126e-06
2.03837e-06
2.03402e-06
2.02836e-06
2.02943e-06
2.02873e-06
2.02889e-06
2.02893e-06
2.02877e-06
2.02876e-06
2.02876e-06
2.02857e-06
2.02894e-06
2.02996e-06
2.04411e-06
2.17144e-06
3.68002e-06
9.57838e-05
5.60395e-05
1.56535e-06
1.15442e-06
1.07479e-06
1.07455e-06
1.06881e-06
1.07015e-06
1.06931e-06
1.06956e-06
1.06945e-06
1.06936e-06
1.06942e-06
1.06935e-06
1.0693e-06
1.06944e-06
1.07024e-06
1.07981e-06
1.16293e-06
2.29597e-06
0.000119194
1.03469e-05
1.05829e-06
7.46849e-07
6.7958e-07
6.80748e-07
6.75395e-07
6.76711e-07
6.75922e-07
6.76189e-07
6.76028e-07
6.75991e-07
6.76055e-07
6.75958e-07
6.7593e-07
6.76023e-07
6.76704e-07
6.84022e-07
7.44985e-07
1.70077e-06
0.000132162
3.36216e-06
8.0872e-07
5.3939e-07
4.90117e-07
4.91264e-07
4.86671e-07
4.87686e-07
4.87121e-07
4.87351e-07
4.87191e-07
4.87192e-07
4.87239e-07
4.87133e-07
4.87084e-07
4.872e-07
4.8783e-07
4.93926e-07
5.41998e-07
1.3756e-06
0.000136874
2.10869e-06
6.68411e-07
4.35001e-07
3.92699e-07
3.93107e-07
3.89322e-07
3.89971e-07
3.8965e-07
3.89841e-07
3.89673e-07
3.89722e-07
3.89753e-07
3.89616e-07
3.89453e-07
3.89725e-07
3.90348e-07
3.95906e-07
4.36299e-07
1.17065e-06
0.000136913
1.86651e-06
5.92315e-07
3.77148e-07
3.39821e-07
3.39402e-07
3.36352e-07
3.36762e-07
3.36577e-07
3.36727e-07
3.36587e-07
3.36642e-07
3.36661e-07
3.36531e-07
3.36408e-07
3.36651e-07
3.37251e-07
3.42563e-07
3.78854e-07
1.02869e-06
0.000136158
1.91204e-06
5.53282e-07
3.42254e-07
3.08656e-07
3.08566e-07
3.0619e-07
3.06575e-07
3.0634e-07
3.06466e-07
3.06367e-07
3.06404e-07
3.06414e-07
3.06304e-07
3.0631e-07
3.06425e-07
3.06924e-07
3.10704e-07
3.44035e-07
9.23565e-07
0.00013679
2.12693e-06
5.30599e-07
3.20153e-07
2.90224e-07
2.88872e-07
2.86707e-07
2.87094e-07
2.86772e-07
2.86884e-07
2.86811e-07
2.86844e-07
2.8685e-07
2.86713e-07
2.86911e-07
2.86902e-07
2.87515e-07
2.92125e-07
3.21513e-07
8.37844e-07
0.000133672
2.50635e-06
5.18441e-07
3.06383e-07
2.7762e-07
2.75596e-07
2.7375e-07
2.73997e-07
2.73755e-07
2.73857e-07
2.73803e-07
2.73832e-07
2.73836e-07
2.73656e-07
2.73859e-07
2.73912e-07
2.74569e-07
2.79254e-07
3.08482e-07
7.57401e-07
0.00011709
3.06008e-06
5.10262e-07
2.97014e-07
2.68806e-07
2.66274e-07
2.64577e-07
2.6464e-07
2.64536e-07
2.6464e-07
2.64582e-07
2.64624e-07
2.64628e-07
2.64375e-07
2.64459e-07
2.64727e-07
2.65446e-07
2.70284e-07
2.98564e-07
6.7822e-07
8.91324e-05
3.77337e-06
5.0356e-07
2.89802e-07
2.62029e-07
2.59117e-07
2.57487e-07
2.57328e-07
2.57403e-07
2.57517e-07
2.57463e-07
2.57507e-07
2.57512e-07
2.57152e-07
2.5807e-07
2.57642e-07
2.58414e-07
2.63404e-07
2.90256e-07
6.05119e-07
6.0303e-05
4.58686e-06
4.96298e-07
2.85187e-07
2.56401e-07
2.53187e-07
2.5159e-07
2.5207e-07
2.51458e-07
2.51588e-07
2.51543e-07
2.51583e-07
2.51592e-07
2.51061e-07
2.51994e-07
2.51742e-07
2.52569e-07
2.57698e-07
2.84096e-07
5.38865e-07
3.7141e-05
5.39384e-06
4.87894e-07
2.80796e-07
2.51458e-07
2.48003e-07
2.46416e-07
2.46812e-07
2.46231e-07
2.46392e-07
2.46357e-07
2.46391e-07
2.46409e-07
2.46464e-07
2.46681e-07
2.46571e-07
2.4745e-07
2.52688e-07
2.77725e-07
4.81002e-07
2.10983e-05
6.05988e-06
4.77197e-07
2.7624e-07
2.46967e-07
2.43324e-07
2.41743e-07
2.42032e-07
2.4149e-07
2.41702e-07
2.41675e-07
2.41705e-07
2.41731e-07
2.41736e-07
2.41917e-07
2.41905e-07
2.42828e-07
2.48135e-07
2.7175e-07
4.39689e-07
1.12128e-05
6.46113e-06
4.63536e-07
2.71769e-07
2.42817e-07
2.39039e-07
2.3747e-07
2.37673e-07
2.37117e-07
2.37416e-07
2.37394e-07
2.37424e-07
2.37456e-07
2.37395e-07
2.37591e-07
2.3764e-07
2.38597e-07
2.43929e-07
2.66134e-07
4.06251e-07
5.72515e-06
6.52565e-06
4.47442e-07
2.67185e-07
2.38964e-07
2.35105e-07
2.33561e-07
2.33701e-07
2.33058e-07
2.33498e-07
2.33478e-07
2.3351e-07
2.33545e-07
2.33371e-07
2.33652e-07
2.33738e-07
2.34719e-07
2.40026e-07
2.60849e-07
3.79226e-07
2.93912e-06
6.25564e-06
4.29811e-07
2.63708e-07
2.35389e-07
2.31514e-07
2.30011e-07
2.30112e-07
2.29929e-07
2.29943e-07
2.29924e-07
2.29958e-07
2.29992e-07
2.29605e-07
2.30086e-07
2.30193e-07
2.31187e-07
2.36419e-07
2.55908e-07
3.57254e-07
1.61105e-06
5.59171e-06
4.112e-07
2.60028e-07
2.32084e-07
2.28274e-07
2.26831e-07
2.26901e-07
2.26665e-07
2.26759e-07
2.26742e-07
2.26778e-07
2.26808e-07
2.26714e-07
2.26899e-07
2.27012e-07
2.28007e-07
2.33112e-07
2.51336e-07
3.3781e-07
9.89737e-07
4.83525e-06
3.92442e-07
2.56031e-07
2.29537e-07
2.25385e-07
2.24028e-07
2.2407e-07
2.23734e-07
2.23951e-07
2.23941e-07
2.23976e-07
2.23999e-07
2.24131e-07
2.24091e-07
2.24202e-07
2.25187e-07
2.30095e-07
2.47177e-07
3.21369e-07
6.87819e-07
4.04088e-06
3.74106e-07
2.52255e-07
2.27145e-07
2.22829e-07
2.21601e-07
2.21617e-07
2.21669e-07
2.21519e-07
2.21518e-07
2.2155e-07
2.21561e-07
2.21668e-07
2.21653e-07
2.21758e-07
2.22724e-07
2.27421e-07
2.43471e-07
3.08194e-07
5.2894e-07
3.22245e-06
3.56597e-07
2.48737e-07
2.25368e-07
2.21189e-07
2.20027e-07
2.20039e-07
2.20083e-07
2.19954e-07
2.1996e-07
2.19975e-07
2.19988e-07
2.20094e-07
2.20072e-07
2.20174e-07
2.21108e-07
2.25552e-07
2.40249e-07
2.96886e-07
4.38094e-07
2.54927e-06
3.40344e-07
2.45451e-07
2.23811e-07
2.1972e-07
2.18644e-07
2.1864e-07
2.18676e-07
2.18568e-07
2.18582e-07
2.18624e-07
2.18599e-07
2.187e-07
2.18676e-07
2.1877e-07
2.19684e-07
2.23997e-07
2.37488e-07
2.87474e-07
3.8288e-07
2.02235e-06
3.25519e-07
2.42283e-07
2.22876e-07
2.18931e-07
2.17955e-07
2.17938e-07
2.1798e-07
2.17883e-07
2.17907e-07
2.17934e-07
2.1791e-07
2.18015e-07
2.17971e-07
2.1806e-07
2.18928e-07
2.23e-07
2.35702e-07
2.79749e-07
3.48206e-07
1.54727e-06
3.12154e-07
2.40235e-07
2.22393e-07
2.18616e-07
2.17744e-07
2.17712e-07
2.17768e-07
2.17675e-07
2.17711e-07
2.17752e-07
2.17709e-07
2.17818e-07
2.17752e-07
2.17837e-07
2.18642e-07
2.22479e-07
2.34132e-07
2.73485e-07
3.26237e-07
1.16786e-06
3.00267e-07
2.38597e-07
2.22364e-07
2.18775e-07
2.18007e-07
2.17963e-07
2.18035e-07
2.17943e-07
2.17992e-07
2.18035e-07
2.17968e-07
2.18083e-07
2.17996e-07
2.18078e-07
2.18824e-07
2.22416e-07
2.33299e-07
2.68554e-07
3.11807e-07
9.10154e-07
2.89848e-07
2.37408e-07
2.22778e-07
2.19404e-07
2.1873e-07
2.18678e-07
2.18767e-07
2.18673e-07
2.18735e-07
2.1877e-07
2.18678e-07
2.18798e-07
2.18692e-07
2.18774e-07
2.19463e-07
2.22805e-07
2.32957e-07
2.64153e-07
3.02098e-07
7.47743e-07
2.80801e-07
2.36665e-07
2.23612e-07
2.20473e-07
2.1988e-07
2.19823e-07
2.19924e-07
2.19825e-07
2.19901e-07
2.19931e-07
2.19817e-07
2.19944e-07
2.1982e-07
2.19905e-07
2.20543e-07
2.23634e-07
2.33081e-07
2.60499e-07
2.95417e-07
6.15347e-07
2.73643e-07
2.36388e-07
2.24848e-07
2.2197e-07
2.21441e-07
2.21382e-07
2.21488e-07
2.21382e-07
2.2147e-07
2.21498e-07
2.21364e-07
2.21497e-07
2.21364e-07
2.21454e-07
2.22051e-07
2.24886e-07
2.33666e-07
2.58429e-07
2.90768e-07
5.061e-07
2.6775e-07
2.36613e-07
2.26489e-07
2.23914e-07
2.23425e-07
2.23366e-07
2.23457e-07
2.23356e-07
2.23444e-07
2.23469e-07
2.23319e-07
2.23455e-07
2.23334e-07
2.23429e-07
2.23999e-07
2.26562e-07
2.34746e-07
2.57154e-07
2.87494e-07
4.38719e-07
2.63185e-07
2.37443e-07
2.28585e-07
2.26356e-07
2.25886e-07
2.25828e-07
2.25884e-07
2.25817e-07
2.25874e-07
2.25896e-07
2.25729e-07
2.2587e-07
2.25783e-07
2.25883e-07
2.26442e-07
2.28703e-07
2.36411e-07
2.56605e-07
2.85224e-07
3.88096e-07
2.60017e-07
2.39068e-07
2.31274e-07
2.29194e-07
2.28835e-07
2.28777e-07
2.28916e-07
2.28774e-07
2.2891e-07
2.28932e-07
2.2874e-07
2.28893e-07
2.28706e-07
2.28807e-07
2.29278e-07
2.31437e-07
2.38285e-07
2.56804e-07
2.8382e-07
3.51863e-07
2.5794e-07
2.41108e-07
2.34883e-07
2.33049e-07
2.32783e-07
2.32714e-07
2.32881e-07
2.32745e-07
2.32879e-07
2.32906e-07
2.32667e-07
2.32849e-07
2.32622e-07
2.32719e-07
2.33132e-07
2.35057e-07
2.41092e-07
2.57967e-07
2.83381e-07
3.26479e-07
2.58414e-07
2.44925e-07
2.40011e-07
2.38411e-07
2.3828e-07
2.38185e-07
2.3839e-07
2.3825e-07
2.38392e-07
2.38434e-07
2.38106e-07
2.38354e-07
2.38063e-07
2.3816e-07
2.38489e-07
2.4011e-07
2.45563e-07
2.60548e-07
2.84291e-07
3.10237e-07
2.62064e-07
2.51162e-07
2.47723e-07
2.46289e-07
2.46393e-07
2.46246e-07
2.46532e-07
2.46351e-07
2.46539e-07
2.46613e-07
2.46116e-07
2.46499e-07
2.46071e-07
2.4618e-07
2.46388e-07
2.47572e-07
2.5256e-07
2.65375e-07
2.87291e-07
3.02697e-07
2.70648e-07
2.61379e-07
2.59937e-07
2.58526e-07
2.59071e-07
2.58816e-07
2.59275e-07
2.58993e-07
2.59287e-07
2.59431e-07
2.58612e-07
2.59261e-07
2.58555e-07
2.58699e-07
2.58728e-07
2.59196e-07
2.639e-07
2.7396e-07
2.94033e-07
3.05181e-07
2.87708e-07
2.7861e-07
2.8039e-07
2.78687e-07
2.80129e-07
2.79642e-07
2.80478e-07
2.79972e-07
2.80491e-07
2.80773e-07
2.79309e-07
2.80505e-07
2.79232e-07
2.79452e-07
2.79182e-07
2.78356e-07
2.83134e-07
2.89153e-07
3.07399e-07
3.22401e-07
3.20656e-07
3.09397e-07
3.16954e-07
3.14411e-07
3.17682e-07
3.16706e-07
3.18351e-07
3.1736e-07
3.18357e-07
3.18934e-07
3.16103e-07
3.18469e-07
3.16009e-07
3.16376e-07
3.15579e-07
3.12127e-07
3.1775e-07
3.16795e-07
3.33259e-07
3.65277e-07
3.85298e-07
3.67794e-07
3.86421e-07
3.81958e-07
3.88958e-07
3.86968e-07
3.90286e-07
3.88274e-07
3.90262e-07
3.91473e-07
3.85771e-07
3.90619e-07
3.85698e-07
3.86381e-07
3.84644e-07
3.75766e-07
3.83808e-07
3.69508e-07
3.84221e-07
4.57041e-07
5.11136e-07
4.81527e-07
5.19951e-07
5.11795e-07
5.25676e-07
5.21807e-07
5.28168e-07
5.24251e-07
5.28065e-07
5.30457e-07
5.19424e-07
5.28927e-07
5.19529e-07
5.20818e-07
5.1765e-07
4.98625e-07
5.11673e-07
4.72817e-07
4.85374e-07
6.36728e-07
7.43627e-07
6.9416e-07
7.66168e-07
7.53073e-07
7.72805e-07
7.66045e-07
7.76925e-07
7.70087e-07
7.76672e-07
7.80888e-07
7.61715e-07
7.78393e-07
7.6236e-07
7.64602e-07
7.6025e-07
7.27143e-07
7.46067e-07
6.68508e-07
6.77102e-07
9.52501e-07
1.12348e-06
1.05441e-06
1.16345e-06
1.14391e-06
1.17463e-06
1.16432e-06
1.18049e-06
1.17008e-06
1.18004e-06
1.1865e-06
1.15741e-06
1.18292e-06
1.15908e-06
1.16257e-06
1.15632e-06
1.10532e-06
1.13302e-06
1.00631e-06
1.007e-06
1.44347e-06
1.67943e-06
1.59576e-06
1.73974e-06
1.71449e-06
1.75485e-06
1.74111e-06
1.76202e-06
1.7482e-06
1.76138e-06
1.77001e-06
1.73146e-06
1.7655e-06
1.73452e-06
1.73936e-06
1.73149e-06
1.66447e-06
1.69953e-06
1.52353e-06
1.51065e-06
2.12025e-06
2.40597e-06
2.31877e-06
2.48568e-06
2.45716e-06
2.50325e-06
2.48711e-06
2.51078e-06
2.49466e-06
2.51007e-06
2.52019e-06
2.47521e-06
2.51518e-06
2.47977e-06
2.48575e-06
2.47731e-06
2.40046e-06
2.43876e-06
2.22611e-06
2.19414e-06
2.95329e-06
3.25894e-06
3.18239e-06
3.35235e-06
3.32417e-06
3.37018e-06
3.3535e-06
3.37687e-06
3.36039e-06
3.3763e-06
3.3867e-06
3.34056e-06
3.38178e-06
3.34637e-06
3.35287e-06
3.34533e-06
3.26822e-06
3.30382e-06
3.07854e-06
3.02477e-06
3.8635e-06
4.14945e-06
4.09703e-06
4.24598e-06
4.22221e-06
4.26148e-06
4.24663e-06
4.2661e-06
4.25168e-06
4.26595e-06
4.27508e-06
4.23437e-06
4.27092e-06
4.24082e-06
4.24694e-06
4.24169e-06
4.17552e-06
4.20224e-06
3.99584e-06
3.92305e-06
4.69953e-06
4.92128e-06
4.90218e-06
5.00555e-06
4.99015e-06
5.01607e-06
5.00561e-06
5.0177e-06
5.00783e-06
5.0182e-06
5.02452e-06
4.99595e-06
5.02173e-06
5.00197e-06
5.00689e-06
5.00476e-06
4.96063e-06
4.97372e-06
4.82079e-06
4.73963e-06
5.20483e-06
5.34087e-06
5.35173e-06
5.40418e-06
5.39859e-06
5.41018e-06
5.40482e-06
5.40952e-06
5.40445e-06
5.41067e-06
5.41444e-06
5.39767e-06
5.41282e-06
5.40246e-06
5.40654e-06
5.40614e-06
5.38478e-06
5.38551e-06
5.2965e-06
5.22188e-06
5.34755e-06
5.43847e-06
5.46175e-06
5.49116e-06
5.49127e-06
5.49637e-06
5.49356e-06
5.49531e-06
5.4922e-06
5.4968e-06
5.50024e-06
5.4865e-06
5.49878e-06
5.49055e-06
5.49509e-06
5.49392e-06
5.48146e-06
5.47729e-06
5.41502e-06
5.34794e-06
)
;

boundaryField
{
    fuel
    {
        type            fixedValue;
        value           uniform 0;
    }
    wall
    {
        type            zeroGradient;
    }
    outlet
    {
        type            zeroGradient;
    }
    frontAndBack
    {
        type            empty;
    }
}


// ************************************************************************* //
