/*--------------------------------*- C++ -*----------------------------------*\
| =========                 |                                                 |
| \\      /  F ield         | OpenFOAM: The Open Source CFD Toolbox           |
|  \\    /   O peration     | Version:  dev                                   |
|   \\  /    A nd           | Web:      www.OpenFOAM.org                      |
|    \\/     M anipulation  |                                                 |
\*---------------------------------------------------------------------------*/
FoamFile
{
    version     2.0;
    format      ascii;
    class       volScalarField;
    location    "0.1";
    object      C2O;
}
// * * * * * * * * * * * * * * * * * * * * * * * * * * * * * * * * * * * * * //

dimensions      [0 0 0 0 0 0 0];

internalField   nonuniform List<scalar> 
100
(
6.38453e-05
5.01825e-05
3.22023e-05
1.97378e-05
1.19774e-05
7.43243e-06
4.67785e-06
3.00837e-06
1.99257e-06
1.33845e-06
9.21004e-07
6.37601e-07
4.44443e-07
3.10303e-07
2.16092e-07
1.49685e-07
1.03004e-07
7.04208e-08
4.7891e-08
3.24694e-08
2.20148e-08
1.49867e-08
1.02928e-08
7.16898e-09
5.08659e-09
3.68433e-09
2.7349e-09
2.0765e-09
1.61019e-09
1.27114e-09
1.01705e-09
8.26816e-10
6.76316e-10
5.55321e-10
4.57002e-10
3.76651e-10
3.10881e-10
2.57108e-10
2.13254e-10
1.77672e-10
1.48423e-10
1.24727e-10
1.05766e-10
9.10835e-11
7.92589e-11
6.96608e-11
6.18499e-11
5.5871e-11
5.11012e-11
4.72505e-11
4.42217e-11
4.17942e-11
3.98533e-11
3.82392e-11
3.69236e-11
3.58697e-11
3.49551e-11
3.41269e-11
3.33371e-11
3.25446e-11
3.1716e-11
3.08253e-11
2.98537e-11
2.87882e-11
2.76215e-11
2.63516e-11
2.49808e-11
2.35134e-11
2.19536e-11
2.03114e-11
1.86052e-11
1.68918e-11
1.51669e-11
1.34477e-11
1.1755e-11
1.0086e-11
8.55152e-12
7.10787e-12
5.74626e-12
4.56443e-12
3.52627e-12
2.64821e-12
1.9236e-12
1.34135e-12
8.89842e-13
5.73362e-13
3.53047e-13
2.08986e-13
1.21419e-13
7.29429e-14
4.93963e-14
3.99413e-14
3.67268e-14
3.45573e-14
3.0732e-14
2.47951e-14
1.78326e-14
1.13501e-14
6.30347e-15
2.68956e-15
)
;

boundaryField
{
    wall
    {
        type            zeroGradient;
    }
    fuel
    {
        type            fixedValue;
        value           uniform 0;
    }
    outlet
    {
        type            inletOutlet;
        inletValue      uniform 0;
        value           uniform 2.68956e-15;
    }
}


// ************************************************************************* //
