/*--------------------------------*- C++ -*----------------------------------*\
| =========                 |                                                 |
| \\      /  F ield         | OpenFOAM: The Open Source CFD Toolbox           |
|  \\    /   O peration     | Version:  dev                                   |
|   \\  /    A nd           | Web:      www.OpenFOAM.org                      |
|    \\/     M anipulation  |                                                 |
\*---------------------------------------------------------------------------*/
FoamFile
{
    version     2.0;
    format      ascii;
    class       volScalarField;
    location    "0.2";
    object      C2O;
}
// * * * * * * * * * * * * * * * * * * * * * * * * * * * * * * * * * * * * * //

dimensions      [0 0 0 0 0 0 0];

internalField   nonuniform List<scalar> 
1000
(
1.63435e-09
5.17907e-06
5.85806e-06
5.93676e-06
5.95631e-06
5.95497e-06
5.95528e-06
5.9551e-06
5.95509e-06
5.95463e-06
5.95479e-06
5.95536e-06
5.95492e-06
5.95591e-06
5.955e-06
5.95458e-06
5.93702e-06
5.7684e-06
4.43725e-06
5.33639e-10
4.60662e-09
6.60345e-06
7.0707e-06
7.07985e-06
7.1013e-06
7.09474e-06
7.09576e-06
7.09499e-06
7.09507e-06
7.09463e-06
7.09461e-06
7.09526e-06
7.09455e-06
7.0956e-06
7.09482e-06
7.09502e-06
7.08512e-06
6.97647e-06
6.04443e-06
8.76165e-10
1.27047e-07
3.87083e-06
4.11417e-06
4.06035e-06
4.08512e-06
4.07254e-06
4.07517e-06
4.07351e-06
4.07398e-06
4.07334e-06
4.07332e-06
4.07395e-06
4.0731e-06
4.07401e-06
4.07337e-06
4.07409e-06
4.07093e-06
4.01471e-06
3.58428e-06
4.89181e-10
6.802e-06
2.24682e-06
2.35736e-06
2.29001e-06
2.31305e-06
2.29956e-06
2.30258e-06
2.30081e-06
2.30152e-06
2.30076e-06
2.30086e-06
2.30135e-06
2.30055e-06
2.3011e-06
2.30081e-06
2.30166e-06
2.30123e-06
2.26499e-06
2.03369e-06
2.65063e-10
1.33489e-05
1.45924e-06
1.52162e-06
1.45564e-06
1.47494e-06
1.46293e-06
1.46533e-06
1.46409e-06
1.46482e-06
1.46406e-06
1.46429e-06
1.46463e-06
1.46388e-06
1.46401e-06
1.46419e-06
1.4651e-06
1.46587e-06
1.43749e-06
1.27691e-06
1.77783e-10
1.03611e-05
1.04553e-06
1.08965e-06
1.04809e-06
1.06386e-06
1.05373e-06
1.05515e-06
1.05466e-06
1.05533e-06
1.05458e-06
1.05491e-06
1.05516e-06
1.05443e-06
1.05422e-06
1.05481e-06
1.0558e-06
1.05723e-06
1.03114e-06
8.88315e-07
1.4854e-10
6.72375e-06
7.97241e-07
8.66143e-07
8.30935e-07
8.4377e-07
8.3529e-07
8.35856e-07
8.35951e-07
8.36583e-07
8.35782e-07
8.36264e-07
8.36445e-07
8.35639e-07
8.35069e-07
8.3619e-07
8.37242e-07
8.39304e-07
8.12681e-07
6.67414e-07
1.46456e-10
4.2509e-06
6.4546e-07
7.33226e-07
7.03363e-07
7.14409e-07
7.07418e-07
7.07678e-07
7.07882e-07
7.08475e-07
7.07702e-07
7.08225e-07
7.0837e-07
7.07567e-07
7.07202e-07
7.08204e-07
7.0915e-07
7.11392e-07
6.84201e-07
5.30423e-07
1.62499e-10
2.7375e-06
5.5059e-07
6.4328e-07
6.18771e-07
6.31888e-07
6.26381e-07
6.27e-07
6.26709e-07
6.27302e-07
6.26608e-07
6.27096e-07
6.27221e-07
6.2645e-07
6.2666e-07
6.27145e-07
6.27693e-07
6.25814e-07
5.96199e-07
4.39707e-07
2.01299e-10
1.83083e-06
4.80086e-07
5.75791e-07
5.61339e-07
5.71994e-07
5.66708e-07
5.67681e-07
5.66842e-07
5.67464e-07
5.66811e-07
5.67304e-07
5.67428e-07
5.66518e-07
5.67495e-07
5.67504e-07
5.68285e-07
5.6891e-07
5.30647e-07
3.76593e-07
2.78548e-10
1.27569e-06
4.28675e-07
5.24864e-07
5.15725e-07
5.25625e-07
5.21173e-07
5.21914e-07
5.21147e-07
5.21796e-07
5.21188e-07
5.21667e-07
5.21799e-07
5.20684e-07
5.21808e-07
5.21977e-07
5.22748e-07
5.23372e-07
4.87321e-07
3.31079e-07
4.35957e-10
9.15244e-07
3.85723e-07
4.83484e-07
4.7938e-07
4.88843e-07
4.84886e-07
4.85169e-07
4.84712e-07
4.85421e-07
4.84844e-07
4.85306e-07
4.8546e-07
4.84035e-07
4.84867e-07
4.85737e-07
4.86542e-07
4.87356e-07
4.51231e-07
2.97284e-07
7.76494e-10
6.6699e-07
3.50331e-07
4.47516e-07
4.48734e-07
4.57972e-07
4.54359e-07
4.53976e-07
4.54017e-07
4.54813e-07
4.54315e-07
4.54701e-07
4.54892e-07
4.53034e-07
4.57294e-07
4.55287e-07
4.56108e-07
4.57142e-07
4.19842e-07
2.71715e-07
1.42286e-09
4.9124e-07
3.20582e-07
4.21922e-07
4.21851e-07
4.30937e-07
4.27603e-07
4.29932e-07
4.27048e-07
4.27959e-07
4.27548e-07
4.27841e-07
4.28086e-07
4.25567e-07
4.29931e-07
4.2856e-07
4.29428e-07
4.30737e-07
3.96312e-07
2.50596e-07
2.63466e-09
3.66968e-07
2.96349e-07
3.97267e-07
3.97553e-07
4.06521e-07
4.03383e-07
4.05427e-07
4.02581e-07
4.03668e-07
4.03325e-07
4.03537e-07
4.0386e-07
4.03689e-07
4.05231e-07
4.04385e-07
4.05314e-07
4.06938e-07
3.73088e-07
2.3282e-07
4.88609e-09
2.80128e-07
2.75305e-07
3.72803e-07
3.75089e-07
3.8396e-07
3.80959e-07
3.82608e-07
3.7985e-07
3.81191e-07
3.80884e-07
3.81038e-07
3.81443e-07
3.80951e-07
3.82493e-07
3.8202e-07
3.83014e-07
3.84986e-07
3.52216e-07
2.20851e-07
8.65646e-09
2.20105e-07
2.56157e-07
3.50039e-07
3.53947e-07
3.6273e-07
3.59825e-07
3.61162e-07
3.58308e-07
3.60012e-07
3.59714e-07
3.59828e-07
3.60318e-07
3.59431e-07
3.61192e-07
3.60952e-07
3.62011e-07
3.64352e-07
3.33291e-07
2.11363e-07
1.42113e-08
1.78974e-07
2.38885e-07
3.28222e-07
3.33741e-07
3.42437e-07
3.39601e-07
3.40718e-07
3.37508e-07
3.3975e-07
3.39439e-07
3.39522e-07
3.40099e-07
3.38649e-07
3.40897e-07
3.40795e-07
3.41917e-07
3.44638e-07
3.15814e-07
2.03944e-07
2.15772e-08
1.51143e-07
2.23483e-07
3.11347e-07
3.14154e-07
3.22768e-07
3.1998e-07
3.2097e-07
3.19602e-07
3.201e-07
3.19757e-07
3.19811e-07
3.20479e-07
3.18171e-07
3.21262e-07
3.21236e-07
3.22419e-07
3.25518e-07
2.99351e-07
1.98218e-07
3.05373e-08
1.29587e-07
2.0953e-07
2.94111e-07
2.94873e-07
3.03446e-07
3.00701e-07
3.01599e-07
2.9994e-07
3.00784e-07
3.0041e-07
3.00432e-07
3.01204e-07
3.00199e-07
3.0202e-07
3.02007e-07
3.03251e-07
3.06703e-07
2.83525e-07
1.93187e-07
4.06136e-08
1.1631e-07
1.96709e-07
2.7592e-07
2.77557e-07
2.84209e-07
2.81525e-07
2.82348e-07
2.80267e-07
2.81563e-07
2.81161e-07
2.81143e-07
2.82029e-07
2.81959e-07
2.82892e-07
2.82864e-07
2.84174e-07
2.87811e-07
2.68015e-07
1.8895e-07
5.11504e-08
1.07504e-07
1.84745e-07
2.58233e-07
2.59413e-07
2.64738e-07
2.62218e-07
2.62961e-07
2.62615e-07
2.62195e-07
2.61767e-07
2.61685e-07
2.62711e-07
2.62399e-07
2.63603e-07
2.63558e-07
2.64947e-07
2.69028e-07
2.52544e-07
1.85109e-07
6.14823e-08
1.00989e-07
1.73372e-07
2.40731e-07
2.42183e-07
2.47466e-07
2.44747e-07
2.45525e-07
2.44976e-07
2.44724e-07
2.4426e-07
2.44027e-07
2.45293e-07
2.44817e-07
2.46193e-07
2.46138e-07
2.4758e-07
2.51832e-07
2.3688e-07
1.81113e-07
7.11264e-08
9.6531e-08
1.62357e-07
2.2303e-07
2.23865e-07
2.28604e-07
2.25736e-07
2.26471e-07
2.25747e-07
2.25641e-07
2.25133e-07
2.25155e-07
2.26321e-07
2.25643e-07
2.27234e-07
2.27164e-07
2.28746e-07
2.33913e-07
2.20709e-07
1.76655e-07
7.98036e-08
9.3241e-08
1.51492e-07
2.04638e-07
2.06279e-07
2.10734e-07
2.07748e-07
2.0847e-07
2.07619e-07
2.07627e-07
2.07096e-07
2.06975e-07
2.0837e-07
2.07545e-07
2.09263e-07
2.09194e-07
2.10812e-07
2.16268e-07
2.05674e-07
1.71251e-07
8.71611e-08
8.98466e-08
1.40639e-07
1.88679e-07
1.88495e-07
1.92605e-07
1.89532e-07
1.90231e-07
1.89279e-07
1.89381e-07
1.88834e-07
1.88663e-07
1.90166e-07
1.89205e-07
1.91037e-07
1.90979e-07
1.92591e-07
1.98315e-07
1.88889e-07
1.64525e-07
9.28689e-08
8.61264e-08
1.296e-07
1.72451e-07
1.70519e-07
1.74277e-07
1.71128e-07
1.71806e-07
1.70769e-07
1.70953e-07
1.70393e-07
1.70191e-07
1.7176e-07
1.70686e-07
1.72612e-07
1.72565e-07
1.74158e-07
1.80062e-07
1.7258e-07
1.56507e-07
9.67184e-08
8.25297e-08
1.18264e-07
1.56031e-07
1.52435e-07
1.55851e-07
1.52641e-07
1.53302e-07
1.52196e-07
1.52451e-07
1.51881e-07
1.51654e-07
1.5326e-07
1.52102e-07
1.54094e-07
1.54056e-07
1.55613e-07
1.61584e-07
1.55784e-07
1.45969e-07
9.83214e-08
7.8976e-08
1.06594e-07
1.39404e-07
1.34414e-07
1.37459e-07
1.34254e-07
1.3489e-07
1.33739e-07
1.34054e-07
1.33478e-07
1.33229e-07
1.34841e-07
1.33635e-07
1.35656e-07
1.35621e-07
1.37127e-07
1.43031e-07
1.38666e-07
1.33418e-07
9.74207e-08
7.43012e-08
9.5214e-08
1.22739e-07
1.16667e-07
1.19335e-07
1.16207e-07
1.16809e-07
1.15638e-07
1.16008e-07
1.15425e-07
1.1516e-07
1.16748e-07
1.15529e-07
1.17539e-07
1.175e-07
1.18942e-07
1.24623e-07
1.21481e-07
1.21052e-07
9.39818e-08
6.80747e-08
8.37023e-08
1.06279e-07
9.9469e-08
1.01777e-07
9.87985e-08
9.93569e-08
9.81914e-08
9.86197e-08
9.80215e-08
9.77504e-08
9.92785e-08
9.80829e-08
1.00044e-07
9.99918e-08
1.01359e-07
1.06654e-07
1.04561e-07
1.0767e-07
8.81403e-08
6.22202e-08
7.22569e-08
9.03478e-08
8.3144e-08
8.51303e-08
8.23677e-08
8.28753e-08
8.17324e-08
8.2236e-08
8.16009e-08
8.1335e-08
8.27671e-08
8.16311e-08
8.35099e-08
8.34389e-08
8.47219e-08
8.94736e-08
8.83173e-08
9.36661e-08
8.02716e-08
5.56496e-08
6.11343e-08
7.53432e-08
6.8026e-08
6.92283e-08
6.69547e-08
6.7396e-08
6.65957e-08
6.68403e-08
6.64993e-08
6.62499e-08
6.75519e-08
6.65073e-08
6.79403e-08
6.78566e-08
6.88547e-08
7.34581e-08
7.20693e-08
7.95315e-08
7.0942e-08
4.87815e-08
5.02152e-08
6.03962e-08
5.44414e-08
5.53688e-08
5.34227e-08
5.38e-08
5.30819e-08
5.33558e-08
5.3013e-08
5.27883e-08
5.39327e-08
5.30067e-08
5.42738e-08
5.41777e-08
5.50365e-08
5.89703e-08
5.76879e-08
6.58509e-08
6.08283e-08
4.17764e-08
4.06233e-08
4.79841e-08
4.26251e-08
4.33137e-08
4.17046e-08
4.20163e-08
4.13994e-08
4.16648e-08
4.1352e-08
4.11577e-08
4.21276e-08
4.13375e-08
4.24139e-08
4.2316e-08
4.30223e-08
4.62798e-08
4.54298e-08
5.31522e-08
5.06159e-08
3.48932e-08
3.21711e-08
3.7253e-08
3.2693e-08
3.31794e-08
3.18984e-08
3.21475e-08
3.16405e-08
3.18728e-08
3.16092e-08
3.14479e-08
3.22395e-08
3.1591e-08
3.24675e-08
3.2377e-08
3.29354e-08
3.55382e-08
3.49962e-08
4.18397e-08
4.09027e-08
2.84011e-08
2.49813e-08
2.83131e-08
2.46326e-08
2.49546e-08
2.39743e-08
2.41661e-08
2.37676e-08
2.3957e-08
2.37478e-08
2.36188e-08
2.4241e-08
2.37286e-08
2.44131e-08
2.43357e-08
2.47623e-08
2.67657e-08
2.64397e-08
3.21738e-08
3.22108e-08
2.25616e-08
1.90696e-08
2.11488e-08
1.83041e-08
1.85082e-08
1.77809e-08
1.79247e-08
1.76233e-08
1.77705e-08
1.76113e-08
1.75123e-08
1.79844e-08
1.75938e-08
1.81078e-08
1.80456e-08
1.83626e-08
1.98488e-08
1.96699e-08
2.42456e-08
2.48003e-08
1.75508e-08
1.43598e-08
1.56078e-08
1.34784e-08
1.36086e-08
1.30788e-08
1.31849e-08
1.29635e-08
1.30742e-08
1.29565e-08
1.28837e-08
1.32309e-08
1.29425e-08
1.33147e-08
1.32682e-08
1.34977e-08
1.45652e-08
1.44807e-08
1.79803e-08
1.87446e-08
1.33858e-08
1.07102e-08
1.14226e-08
9.88096e-09
9.96218e-09
9.58251e-09
9.6589e-09
9.50039e-09
9.58147e-09
9.49637e-09
9.44356e-09
9.69303e-09
9.48526e-09
9.74681e-09
9.71461e-09
9.87647e-09
1.06259e-08
1.05953e-08
1.31791e-08
1.39627e-08
1.00279e-08
7.91905e-09
8.30912e-09
7.22032e-09
7.2733e-09
6.99911e-09
7.05359e-09
6.94132e-09
7.00014e-09
6.93906e-09
6.90117e-09
7.07902e-09
6.93044e-09
7.11128e-09
7.09017e-09
7.20176e-09
7.72275e-09
7.71612e-09
9.57631e-09
1.0275e-08
7.37093e-09
5.76479e-09
5.99203e-09
5.20961e-09
5.24224e-09
5.07257e-09
5.11167e-09
5.03222e-09
5.07492e-09
5.03102e-09
5.00383e-09
5.13084e-09
5.02431e-09
5.14848e-09
5.13525e-09
5.20504e-09
5.55687e-09
5.57137e-09
6.88692e-09
7.45621e-09
5.29303e-09
4.12667e-09
4.25409e-09
3.71397e-09
3.73828e-09
3.61873e-09
3.64677e-09
3.591e-09
3.62178e-09
3.59044e-09
3.57113e-09
3.66113e-09
3.58526e-09
3.66956e-09
3.66156e-09
3.7059e-09
3.9476e-09
3.95848e-09
4.87061e-09
5.30434e-09
3.70036e-09
2.89049e-09
2.95893e-09
2.59792e-09
2.61538e-09
2.5342e-09
2.55366e-09
2.51592e-09
2.53724e-09
2.51569e-09
2.50256e-09
2.56384e-09
2.51191e-09
2.5671e-09
2.56248e-09
2.59021e-09
2.75029e-09
2.75805e-09
3.36937e-09
3.68349e-09
2.53822e-09
2.00746e-09
2.03597e-09
1.80801e-09
1.81856e-09
1.76712e-09
1.77958e-09
1.7558e-09
1.76945e-09
1.75566e-09
1.74741e-09
1.78607e-09
1.75319e-09
1.78693e-09
1.78448e-09
1.80114e-09
1.90082e-09
1.90879e-09
2.29792e-09
2.51803e-09
1.75947e-09
1.43222e-09
1.43267e-09
1.29841e-09
1.30251e-09
1.27261e-09
1.27964e-09
1.26598e-09
1.27383e-09
1.26575e-09
1.26105e-09
1.28322e-09
1.26439e-09
1.28327e-09
1.28219e-09
1.29181e-09
1.34964e-09
1.35997e-09
1.59459e-09
1.74751e-09
1.29456e-09
1.10096e-09
1.0836e-09
1.00923e-09
1.00825e-09
9.92336e-10
9.95561e-10
9.88449e-10
9.92405e-10
9.88042e-10
9.85571e-10
9.97235e-10
9.87455e-10
9.97211e-10
9.96883e-10
1.00256e-09
1.03424e-09
1.04698e-09
1.18404e-09
1.29236e-09
1.05591e-09
9.40781e-10
9.14492e-10
8.74164e-10
8.6994e-10
8.61964e-10
8.62881e-10
8.59424e-10
8.61146e-10
8.58833e-10
8.57504e-10
8.63603e-10
8.58679e-10
8.63736e-10
8.63658e-10
8.67548e-10
8.84731e-10
8.98704e-10
9.80084e-10
1.05967e-09
9.5713e-10
8.81804e-10
8.53229e-10
8.2905e-10
8.23321e-10
8.18984e-10
8.18793e-10
8.16917e-10
8.17666e-10
8.16181e-10
8.1521e-10
8.19309e-10
8.16159e-10
8.19571e-10
8.1938e-10
8.22768e-10
8.333e-10
8.47109e-10
9.00809e-10
9.62237e-10
9.22601e-10
8.64468e-10
8.36581e-10
8.18794e-10
8.12668e-10
8.09663e-10
8.09067e-10
8.07718e-10
8.08155e-10
8.06894e-10
8.05957e-10
8.09649e-10
8.06873e-10
8.09969e-10
8.09574e-10
8.12939e-10
8.2083e-10
8.34006e-10
8.75443e-10
9.26535e-10
)
;

boundaryField
{
    fuel
    {
        type            fixedValue;
        value           uniform 0;
    }
    wall
    {
        type            zeroGradient;
    }
    outlet
    {
        type            zeroGradient;
    }
    frontAndBack
    {
        type            empty;
    }
}


// ************************************************************************* //
