/*--------------------------------*- C++ -*----------------------------------*\
| =========                 |                                                 |
| \\      /  F ield         | OpenFOAM: The Open Source CFD Toolbox           |
|  \\    /   O peration     | Version:  dev                                   |
|   \\  /    A nd           | Web:      www.OpenFOAM.org                      |
|    \\/     M anipulation  |                                                 |
\*---------------------------------------------------------------------------*/
FoamFile
{
    version     2.0;
    format      ascii;
    class       volScalarField;
    location    "0.2";
    object      C3H2;
}
// * * * * * * * * * * * * * * * * * * * * * * * * * * * * * * * * * * * * * //

dimensions      [0 0 0 0 0 0 0];

internalField   nonuniform List<scalar> 
1000
(
2.64443e-09
8.32857e-06
9.72434e-06
9.89043e-06
9.93034e-06
9.9281e-06
9.92868e-06
9.92844e-06
9.92852e-06
9.92757e-06
9.92787e-06
9.92902e-06
9.92809e-06
9.93005e-06
9.92812e-06
9.92715e-06
9.89056e-06
9.54123e-06
6.84752e-06
8.26759e-10
1.14314e-08
1.85282e-05
2.06405e-05
2.08348e-05
2.0905e-05
2.08945e-05
2.08964e-05
2.08948e-05
2.08954e-05
2.08937e-05
2.08939e-05
2.08959e-05
2.08938e-05
2.08971e-05
2.0894e-05
2.0893e-05
2.08397e-05
2.03061e-05
1.59755e-05
2.31287e-09
1.78586e-07
1.70003e-05
1.95876e-05
1.96849e-05
1.97901e-05
1.9757e-05
1.97655e-05
1.97605e-05
1.97629e-05
1.97599e-05
1.97601e-05
1.97627e-05
1.97591e-05
1.97628e-05
1.97593e-05
1.97593e-05
1.9706e-05
1.91127e-05
1.42612e-05
1.9356e-09
9.21708e-06
1.44507e-05
1.75277e-05
1.75903e-05
1.77187e-05
1.76715e-05
1.76829e-05
1.76777e-05
1.76813e-05
1.76772e-05
1.76784e-05
1.76808e-05
1.76759e-05
1.76784e-05
1.76764e-05
1.76776e-05
1.76246e-05
1.69518e-05
1.10627e-05
1.43347e-09
3.07599e-05
1.28604e-05
1.62158e-05
1.62624e-05
1.6394e-05
1.63445e-05
1.635e-05
1.63501e-05
1.6354e-05
1.63491e-05
1.63516e-05
1.63536e-05
1.63473e-05
1.63466e-05
1.63491e-05
1.63527e-05
1.63059e-05
1.55776e-05
8.50619e-06
1.17948e-09
3.47375e-05
1.18833e-05
1.5372e-05
1.54436e-05
1.55653e-05
1.55156e-05
1.55112e-05
1.55192e-05
1.55234e-05
1.55172e-05
1.55213e-05
1.55231e-05
1.55153e-05
1.55101e-05
1.55191e-05
1.55266e-05
1.54951e-05
1.47579e-05
6.73129e-06
1.12267e-09
3.10256e-05
1.12187e-05
1.47836e-05
1.47919e-05
1.49021e-05
1.48476e-05
1.4836e-05
1.48498e-05
1.48549e-05
1.48467e-05
1.48529e-05
1.48545e-05
1.48447e-05
1.48356e-05
1.48513e-05
1.4863e-05
1.48553e-05
1.41505e-05
5.57311e-06
1.21957e-09
2.47463e-05
1.06838e-05
1.42279e-05
1.41403e-05
1.4249e-05
1.41884e-05
1.41779e-05
1.419e-05
1.41964e-05
1.41869e-05
1.41943e-05
1.41959e-05
1.41847e-05
1.41778e-05
1.41938e-05
1.42074e-05
1.42204e-05
1.35778e-05
4.84678e-06
1.46712e-09
1.84951e-05
1.01759e-05
1.36416e-05
1.34515e-05
1.35969e-05
1.35345e-05
1.35341e-05
1.35361e-05
1.35439e-05
1.3534e-05
1.35417e-05
1.35433e-05
1.35313e-05
1.35333e-05
1.35425e-05
1.35538e-05
1.3541e-05
1.29541e-05
4.41442e-06
1.92017e-09
1.32631e-05
9.61786e-06
1.30024e-05
1.28133e-05
1.2941e-05
1.28652e-05
1.28739e-05
1.28654e-05
1.28747e-05
1.2864e-05
1.28726e-05
1.28744e-05
1.28593e-05
1.28732e-05
1.2876e-05
1.28926e-05
1.29247e-05
1.22962e-05
4.19103e-06
2.71121e-09
9.14304e-06
9.07692e-06
1.23829e-05
1.21792e-05
1.23022e-05
1.22259e-05
1.22336e-05
1.22242e-05
1.22349e-05
1.22238e-05
1.2233e-05
1.2235e-05
1.22155e-05
1.2233e-05
1.22386e-05
1.22575e-05
1.23043e-05
1.17584e-05
4.12768e-06
4.03056e-09
6.0853e-06
8.52602e-06
1.17906e-05
1.15978e-05
1.17155e-05
1.16384e-05
1.16398e-05
1.16345e-05
1.16468e-05
1.16362e-05
1.16449e-05
1.16474e-05
1.16213e-05
1.16354e-05
1.1653e-05
1.16747e-05
1.17368e-05
1.12391e-05
4.1899e-06
6.23416e-09
3.99827e-06
8.01461e-06
1.12177e-05
1.10615e-05
1.11741e-05
1.10967e-05
1.10869e-05
1.10897e-05
1.1104e-05
1.10948e-05
1.11021e-05
1.11053e-05
1.107e-05
1.11492e-05
1.11135e-05
1.11373e-05
1.1214e-05
1.07369e-05
4.34791e-06
1.00382e-08
2.67163e-06
7.55945e-06
1.07839e-05
1.05619e-05
1.06691e-05
1.05921e-05
1.06359e-05
1.05807e-05
1.05977e-05
1.05899e-05
1.05957e-05
1.05998e-05
1.05505e-05
1.0635e-05
1.06099e-05
1.06365e-05
1.07274e-05
1.03324e-05
4.59242e-06
1.69871e-08
1.85847e-06
7.18631e-06
1.0344e-05
1.00909e-05
1.01927e-05
1.01156e-05
1.01556e-05
1.00991e-05
1.01199e-05
1.01134e-05
1.01177e-05
1.01233e-05
1.01211e-05
1.01501e-05
1.01348e-05
1.01642e-05
1.02688e-05
9.9067e-06
4.91208e-06
2.96602e-08
1.36279e-06
6.87233e-06
9.88725e-06
9.64189e-06
9.73884e-06
9.66156e-06
9.69434e-06
9.63835e-06
9.66468e-06
9.65893e-06
9.66216e-06
9.66937e-06
9.66121e-06
9.69024e-06
9.68217e-06
9.71438e-06
9.83184e-06
9.50286e-06
5.20621e-06
5.12627e-08
1.05786e-06
6.60322e-06
9.44589e-06
9.21003e-06
9.30282e-06
9.2254e-06
9.25212e-06
9.19305e-06
9.22759e-06
9.22202e-06
9.22459e-06
9.23344e-06
9.21744e-06
9.2509e-06
9.24765e-06
9.28239e-06
9.41144e-06
9.11984e-06
5.49239e-06
8.62934e-08
8.69312e-07
6.37845e-06
9.00886e-06
8.79133e-06
8.881e-06
8.80371e-06
8.82589e-06
8.75837e-06
8.80508e-06
8.79928e-06
8.80139e-06
8.81189e-06
8.78402e-06
8.8278e-06
8.82755e-06
8.8645e-06
9.00362e-06
8.753e-06
5.74364e-06
1.42788e-07
7.55306e-07
6.19367e-06
8.66462e-06
8.38231e-06
8.47025e-06
8.3935e-06
8.41295e-06
8.38497e-06
8.39426e-06
8.38786e-06
8.38953e-06
8.40172e-06
8.35494e-06
8.4173e-06
8.41875e-06
8.45756e-06
8.60494e-06
8.39791e-06
5.94106e-06
2.37117e-07
6.82674e-07
6.03543e-06
8.30637e-06
7.97901e-06
8.06756e-06
7.99195e-06
8.00936e-06
7.9754e-06
7.99198e-06
7.98504e-06
7.98618e-06
8.00026e-06
7.98109e-06
8.0165e-06
8.01834e-06
8.05866e-06
8.21198e-06
8.05066e-06
6.09069e-06
4.00217e-07
6.52628e-07
5.8902e-06
7.92179e-06
7.61994e-06
7.66947e-06
7.59609e-06
7.6118e-06
7.56875e-06
7.59525e-06
7.58787e-06
7.58831e-06
7.60442e-06
7.60553e-06
7.62166e-06
7.62319e-06
7.66477e-06
7.8189e-06
7.70779e-06
6.17295e-06
6.78254e-07
6.51437e-07
5.7476e-06
7.54409e-06
7.24668e-06
7.27093e-06
7.20253e-06
7.21646e-06
7.21045e-06
7.20054e-06
7.19278e-06
7.19202e-06
7.21061e-06
7.20718e-06
7.22854e-06
7.22962e-06
7.27239e-06
7.43107e-06
7.36634e-06
6.19262e-06
1.11347e-06
6.7727e-07
5.59889e-06
7.16859e-06
6.89738e-06
6.92456e-06
6.85378e-06
6.86835e-06
6.85886e-06
6.85194e-06
6.84356e-06
6.83981e-06
6.86295e-06
6.85654e-06
6.8811e-06
6.88186e-06
6.92509e-06
7.08213e-06
7.02363e-06
6.16322e-06
1.70297e-06
7.25008e-07
5.43658e-06
6.78821e-06
6.53001e-06
6.55142e-06
6.47949e-06
6.49316e-06
6.48045e-06
6.47633e-06
6.46717e-06
6.46845e-06
6.48952e-06
6.47924e-06
6.50798e-06
6.50822e-06
6.55356e-06
6.72364e-06
6.67436e-06
6.08917e-06
2.37638e-06
7.92098e-07
5.25622e-06
6.39266e-06
6.18216e-06
6.20384e-06
6.13131e-06
6.14471e-06
6.12959e-06
6.12773e-06
6.11816e-06
6.11655e-06
6.14225e-06
6.12901e-06
6.16033e-06
6.16038e-06
6.20564e-06
6.376e-06
6.35618e-06
5.97222e-06
3.01607e-06
8.97844e-07
5.05693e-06
6.05247e-06
5.83345e-06
5.85508e-06
5.78237e-06
5.79535e-06
5.7782e-06
5.77829e-06
5.76839e-06
5.76583e-06
5.79385e-06
5.77767e-06
5.81156e-06
5.81161e-06
5.85576e-06
6.02628e-06
6.00476e-06
5.81328e-06
3.52652e-06
1.04747e-06
4.83554e-06
5.7079e-06
5.4818e-06
5.50391e-06
5.43086e-06
5.44351e-06
5.4245e-06
5.42635e-06
5.4161e-06
5.41282e-06
5.44254e-06
5.42364e-06
5.46002e-06
5.46013e-06
5.50304e-06
5.67231e-06
5.66679e-06
5.62008e-06
3.88201e-06
1.22113e-06
4.59097e-06
5.35908e-06
5.12584e-06
5.14919e-06
5.07543e-06
5.08798e-06
5.06715e-06
5.07063e-06
5.05997e-06
5.05597e-06
5.08707e-06
5.06579e-06
5.10448e-06
5.10464e-06
5.14621e-06
5.31273e-06
5.31909e-06
5.36561e-06
4.0837e-06
1.3867e-06
4.3242e-06
5.00318e-06
4.76527e-06
4.78953e-06
4.71555e-06
4.72798e-06
4.70548e-06
4.71048e-06
4.69938e-06
4.69464e-06
4.72689e-06
4.70364e-06
4.74435e-06
4.74448e-06
4.78471e-06
4.94679e-06
4.96145e-06
5.06326e-06
4.15159e-06
1.57704e-06
4.05279e-06
4.64059e-06
4.40016e-06
4.42525e-06
4.35163e-06
4.36389e-06
4.33984e-06
4.34642e-06
4.33468e-06
4.32926e-06
4.36242e-06
4.33761e-06
4.38005e-06
4.38002e-06
4.41896e-06
4.57466e-06
4.59519e-06
4.76714e-06
4.11033e-06
1.77836e-06
3.76679e-06
4.27296e-06
4.03196e-06
4.05803e-06
3.98547e-06
3.99747e-06
3.97196e-06
3.98047e-06
3.96764e-06
3.96165e-06
3.99539e-06
3.96947e-06
4.01338e-06
4.01297e-06
4.05079e-06
4.19776e-06
4.22311e-06
4.44435e-06
3.98079e-06
1.91229e-06
3.46982e-06
3.90386e-06
3.66387e-06
3.69119e-06
3.6205e-06
3.63216e-06
3.60523e-06
3.61642e-06
3.60168e-06
3.59531e-06
3.62913e-06
3.60264e-06
3.64775e-06
3.64673e-06
3.68352e-06
3.81934e-06
3.85017e-06
4.09951e-06
3.78178e-06
1.99596e-06
3.16758e-06
3.5394e-06
3.30091e-06
3.31634e-06
3.25419e-06
3.26514e-06
3.24491e-06
3.25045e-06
3.24211e-06
3.23558e-06
3.26884e-06
3.24238e-06
3.27953e-06
3.27792e-06
3.30867e-06
3.44468e-06
3.45352e-06
3.73958e-06
3.53118e-06
2.01913e-06
2.85444e-06
3.15178e-06
2.95065e-06
2.96501e-06
2.90788e-06
2.91806e-06
2.89829e-06
2.90538e-06
2.8961e-06
2.88966e-06
2.92156e-06
2.89588e-06
2.93169e-06
2.9294e-06
2.95751e-06
3.08126e-06
3.07795e-06
3.37525e-06
3.24683e-06
1.98716e-06
2.56543e-06
2.80822e-06
2.62193e-06
2.63466e-06
2.58347e-06
2.59265e-06
2.57399e-06
2.5817e-06
2.57232e-06
2.56618e-06
2.59587e-06
2.57178e-06
2.60523e-06
2.60249e-06
2.6274e-06
2.73781e-06
2.73479e-06
3.01851e-06
2.94656e-06
1.91218e-06
2.29863e-06
2.49045e-06
2.32427e-06
2.33464e-06
2.29032e-06
2.29829e-06
2.28141e-06
2.28888e-06
2.28017e-06
2.27456e-06
2.30118e-06
2.27945e-06
2.3095e-06
2.30663e-06
2.32806e-06
2.42393e-06
2.4215e-06
2.6817e-06
2.64746e-06
1.81125e-06
2.06338e-06
2.20853e-06
2.06683e-06
2.07416e-06
2.03744e-06
2.04399e-06
2.02947e-06
2.03611e-06
2.02856e-06
2.02366e-06
2.0465e-06
2.0278e-06
2.05358e-06
2.0509e-06
2.06885e-06
2.14929e-06
2.14817e-06
2.37725e-06
2.36822e-06
1.70265e-06
1.86711e-06
1.97176e-06
1.85646e-06
1.86062e-06
1.83156e-06
1.83661e-06
1.82479e-06
1.83027e-06
1.82411e-06
1.82004e-06
1.8387e-06
1.82343e-06
1.8445e-06
1.84222e-06
1.85692e-06
1.92179e-06
1.9227e-06
2.11599e-06
2.12233e-06
1.60212e-06
1.71378e-06
1.78571e-06
1.69576e-06
1.6972e-06
1.67511e-06
1.67872e-06
1.66956e-06
1.67379e-06
1.66902e-06
1.66582e-06
1.68033e-06
1.66854e-06
1.68497e-06
1.68322e-06
1.69506e-06
1.74535e-06
1.74861e-06
1.9048e-06
1.91874e-06
1.5206e-06
1.60256e-06
1.64883e-06
1.58173e-06
1.58075e-06
1.56458e-06
1.56689e-06
1.56008e-06
1.56315e-06
1.5596e-06
1.55715e-06
1.56805e-06
1.55934e-06
1.57174e-06
1.57054e-06
1.58003e-06
1.61786e-06
1.6232e-06
1.74457e-06
1.75994e-06
1.46161e-06
1.52606e-06
1.55383e-06
1.50503e-06
1.50229e-06
1.49047e-06
1.49174e-06
1.48672e-06
1.48889e-06
1.48626e-06
1.48435e-06
1.49258e-06
1.48618e-06
1.49555e-06
1.49479e-06
1.5026e-06
1.53078e-06
1.53741e-06
1.62943e-06
1.64156e-06
1.42149e-06
1.47226e-06
1.4884e-06
1.45174e-06
1.44789e-06
1.43975e-06
1.44033e-06
1.43648e-06
1.43806e-06
1.43599e-06
1.43442e-06
1.441e-06
1.43603e-06
1.44343e-06
1.44295e-06
1.44941e-06
1.4706e-06
1.478e-06
1.54748e-06
1.55322e-06
1.39231e-06
1.43038e-06
1.43916e-06
1.41067e-06
1.40656e-06
1.40006e-06
1.40026e-06
1.39708e-06
1.39833e-06
1.39656e-06
1.39519e-06
1.40085e-06
1.39667e-06
1.40284e-06
1.40253e-06
1.4081e-06
1.4249e-06
1.43188e-06
1.48491e-06
1.48263e-06
1.36623e-06
1.39193e-06
1.39617e-06
1.373e-06
1.36901e-06
1.36357e-06
1.36357e-06
1.36082e-06
1.36186e-06
1.36026e-06
1.35902e-06
1.36409e-06
1.36042e-06
1.36571e-06
1.3655e-06
1.37038e-06
1.38401e-06
1.39025e-06
1.43087e-06
1.4203e-06
1.33936e-06
1.35449e-06
1.35552e-06
1.33657e-06
1.33284e-06
1.32828e-06
1.32813e-06
1.32577e-06
1.32662e-06
1.32517e-06
1.32409e-06
1.32854e-06
1.32538e-06
1.32986e-06
1.32971e-06
1.33394e-06
1.34486e-06
1.35042e-06
1.38067e-06
1.36253e-06
1.31238e-06
1.31978e-06
1.31827e-06
1.30325e-06
1.29976e-06
1.29609e-06
1.29579e-06
1.29384e-06
1.29447e-06
1.2932e-06
1.29233e-06
1.296e-06
1.29348e-06
1.29709e-06
1.29702e-06
1.30059e-06
1.30901e-06
1.31407e-06
1.33513e-06
1.31082e-06
1.28778e-06
1.29006e-06
1.28671e-06
1.27522e-06
1.27198e-06
1.26911e-06
1.26867e-06
1.26713e-06
1.26753e-06
1.26644e-06
1.26579e-06
1.26867e-06
1.26681e-06
1.26958e-06
1.2696e-06
1.27253e-06
1.27878e-06
1.28344e-06
1.29677e-06
1.26817e-06
1.26673e-06
1.26576e-06
1.26133e-06
1.25268e-06
1.24973e-06
1.2475e-06
1.24697e-06
1.24577e-06
1.24598e-06
1.24503e-06
1.24461e-06
1.24676e-06
1.24551e-06
1.24754e-06
1.24767e-06
1.25002e-06
1.25456e-06
1.2588e-06
1.26635e-06
1.23548e-06
1.24911e-06
1.24637e-06
1.24149e-06
1.23498e-06
1.23233e-06
1.23057e-06
1.22999e-06
1.22905e-06
1.22912e-06
1.22829e-06
1.22807e-06
1.2296e-06
1.22887e-06
1.23027e-06
1.23052e-06
1.23236e-06
1.23568e-06
1.23951e-06
1.24314e-06
1.21175e-06
1.23618e-06
1.23289e-06
1.22789e-06
1.22278e-06
1.22037e-06
1.21892e-06
1.21831e-06
1.21755e-06
1.21752e-06
1.21678e-06
1.2167e-06
1.21779e-06
1.21744e-06
1.2184e-06
1.21874e-06
1.22022e-06
1.22276e-06
1.22629e-06
1.22764e-06
1.19658e-06
)
;

boundaryField
{
    fuel
    {
        type            fixedValue;
        value           uniform 0;
    }
    wall
    {
        type            zeroGradient;
    }
    outlet
    {
        type            zeroGradient;
    }
    frontAndBack
    {
        type            empty;
    }
}


// ************************************************************************* //
