/*--------------------------------*- C++ -*----------------------------------*\
| =========                 |                                                 |
| \\      /  F ield         | OpenFOAM: The Open Source CFD Toolbox           |
|  \\    /   O peration     | Version:  dev                                   |
|   \\  /    A nd           | Web:      www.OpenFOAM.org                      |
|    \\/     M anipulation  |                                                 |
\*---------------------------------------------------------------------------*/
FoamFile
{
    version     2.0;
    format      ascii;
    class       volScalarField;
    location    "0.2";
    object      C3H3;
}
// * * * * * * * * * * * * * * * * * * * * * * * * * * * * * * * * * * * * * //

dimensions      [0 0 0 0 0 0 0];

internalField   nonuniform List<scalar> 
1000
(
1.82952e-06
0.000376365
0.000382326
0.000382413
0.000382551
0.000382493
0.000382495
0.000382494
0.000382496
0.000382489
0.000382488
0.000382496
0.000382492
0.000382501
0.000382498
0.000382512
0.000382463
0.000381578
0.000366348
1.07421e-06
2.73711e-06
0.000271321
0.000264647
0.000261892
0.000261913
0.000261704
0.000261722
0.000261711
0.000261715
0.000261712
0.000261705
0.000261713
0.000261703
0.000261706
0.000261715
0.00026176
0.000262111
0.000264655
0.000283473
1.0697e-06
2.2388e-05
0.000175873
0.000169551
0.000165952
0.000166195
0.000165837
0.000165892
0.000165858
0.000165872
0.00016586
0.000165856
0.000165868
0.00016585
0.000165857
0.000165863
0.000165917
0.000166287
0.00016866
0.000188071
8.2189e-07
0.000389618
0.000124911
0.000118236
0.000114406
0.000114802
0.000114355
0.000114437
0.00011439
0.000114413
0.000114392
0.000114393
0.000114406
0.000114384
0.000114387
0.000114396
0.000114454
0.000114798
0.000116627
0.000133225
7.17393e-07
0.000355434
9.62561e-05
9.01606e-05
8.6275e-05
8.67302e-05
8.62561e-05
8.63375e-05
8.6297e-05
8.63251e-05
8.62982e-05
8.63049e-05
8.63159e-05
8.62901e-05
8.62854e-05
8.63052e-05
8.63662e-05
8.66874e-05
8.80169e-05
0.000101517
7.43908e-07
0.000264585
7.87978e-05
7.31836e-05
7.01796e-05
7.06231e-05
7.01643e-05
7.02199e-05
7.02022e-05
7.02311e-05
7.02006e-05
7.02132e-05
7.02224e-05
7.01932e-05
7.01777e-05
7.02125e-05
7.02789e-05
7.05929e-05
7.15047e-05
8.17185e-05
8.81636e-07
0.000206246
6.7011e-05
6.33072e-05
6.05263e-05
6.09114e-05
6.04863e-05
6.05091e-05
6.05157e-05
6.0545e-05
6.05092e-05
6.053e-05
6.05376e-05
6.05017e-05
6.04701e-05
6.05299e-05
6.06029e-05
6.09357e-05
6.15106e-05
6.83823e-05
1.15393e-06
0.000168753
5.92396e-05
5.69827e-05
5.43896e-05
5.47221e-05
5.43417e-05
5.43508e-05
5.4363e-05
5.43919e-05
5.43551e-05
5.43796e-05
5.4386e-05
5.43474e-05
5.43251e-05
5.43817e-05
5.44546e-05
5.48035e-05
5.51807e-05
5.88866e-05
1.62195e-06
0.000142747
5.41565e-05
5.25087e-05
5.00919e-05
5.05455e-05
5.02205e-05
5.02481e-05
5.02354e-05
5.02656e-05
5.0231e-05
5.0255e-05
5.02608e-05
5.02215e-05
5.02288e-05
5.0261e-05
5.03188e-05
5.04714e-05
5.06418e-05
5.18617e-05
2.39351e-06
0.000124194
5.02417e-05
4.90577e-05
4.70477e-05
4.73724e-05
4.70395e-05
4.70864e-05
4.70441e-05
4.70769e-05
4.70427e-05
4.70685e-05
4.70744e-05
4.70251e-05
4.7075e-05
4.70832e-05
4.716e-05
4.74687e-05
4.71395e-05
4.65214e-05
3.7397e-06
0.000110989
4.72958e-05
4.63883e-05
4.4526e-05
4.48019e-05
4.44957e-05
4.45298e-05
4.4491e-05
4.45265e-05
4.4493e-05
4.45197e-05
4.45261e-05
4.44622e-05
4.45225e-05
4.45413e-05
4.46252e-05
4.49643e-05
4.47484e-05
4.23914e-05
5.95964e-06
0.000101348
4.47343e-05
4.41532e-05
4.24267e-05
4.26657e-05
4.23696e-05
4.23765e-05
4.23555e-05
4.23958e-05
4.23628e-05
4.23897e-05
4.23973e-05
4.23115e-05
4.23575e-05
4.24195e-05
4.25131e-05
4.28953e-05
4.26795e-05
3.91618e-05
8.78858e-06
9.3772e-05
4.2512e-05
4.21351e-05
4.05768e-05
4.07883e-05
4.04957e-05
4.04614e-05
4.04706e-05
4.05172e-05
4.04879e-05
4.05114e-05
4.0521e-05
4.04041e-05
4.06706e-05
4.05519e-05
4.06539e-05
4.10807e-05
4.07943e-05
3.66325e-05
1.15912e-05
8.72436e-05
4.0522e-05
4.06475e-05
3.88855e-05
3.90729e-05
3.87825e-05
3.89279e-05
3.87428e-05
3.87978e-05
3.87731e-05
3.87918e-05
3.88046e-05
3.86406e-05
3.8923e-05
3.88419e-05
3.89538e-05
3.9426e-05
3.93122e-05
3.45035e-05
1.40759e-05
8.12011e-05
3.87843e-05
3.91556e-05
3.73006e-05
3.74666e-05
3.7176e-05
3.73072e-05
3.71189e-05
3.71865e-05
3.71658e-05
3.71799e-05
3.71975e-05
3.7192e-05
3.72873e-05
3.72393e-05
3.73617e-05
3.78773e-05
3.77705e-05
3.26945e-05
1.61056e-05
7.53903e-05
3.71583e-05
3.7608e-05
3.57918e-05
3.59397e-05
3.56481e-05
3.57553e-05
3.55686e-05
3.56548e-05
3.56365e-05
3.56474e-05
3.56701e-05
3.56452e-05
3.57396e-05
3.57164e-05
3.58486e-05
3.64042e-05
3.63144e-05
3.1461e-05
1.74007e-05
6.97375e-05
3.5562e-05
3.61054e-05
3.43409e-05
3.44746e-05
3.41827e-05
3.42694e-05
3.40727e-05
3.41861e-05
3.41685e-05
3.41775e-05
3.42053e-05
3.41549e-05
3.42633e-05
3.42563e-05
3.43973e-05
3.49875e-05
3.49353e-05
3.04659e-05
1.78783e-05
6.42745e-05
3.40145e-05
3.46082e-05
3.29353e-05
3.30597e-05
3.27688e-05
3.28402e-05
3.26158e-05
3.27696e-05
3.27513e-05
3.27589e-05
3.27919e-05
3.27028e-05
3.28445e-05
3.28476e-05
3.29962e-05
3.36146e-05
3.36172e-05
2.96591e-05
1.7808e-05
5.90964e-05
3.25407e-05
3.34213e-05
3.15651e-05
3.16861e-05
3.13982e-05
3.14602e-05
3.1368e-05
3.1397e-05
3.13769e-05
3.13833e-05
3.14216e-05
3.12704e-05
3.14728e-05
3.14817e-05
3.16363e-05
3.22756e-05
3.23464e-05
2.8995e-05
1.75451e-05
5.33498e-05
3.11273e-05
3.21813e-05
3.02189e-05
3.03455e-05
3.00633e-05
3.01182e-05
3.0007e-05
3.00597e-05
3.0038e-05
3.00428e-05
3.0087e-05
3.00275e-05
3.01402e-05
3.01504e-05
3.03096e-05
3.09611e-05
3.11114e-05
2.83639e-05
1.73453e-05
4.85109e-05
2.97687e-05
3.08483e-05
2.90253e-05
2.90282e-05
2.87556e-05
2.88046e-05
2.86644e-05
2.87492e-05
2.87263e-05
2.8729e-05
2.87794e-05
2.87865e-05
2.88358e-05
2.88449e-05
2.90077e-05
2.96534e-05
2.99028e-05
2.77765e-05
1.73384e-05
4.41289e-05
2.84577e-05
2.95397e-05
2.7792e-05
2.77185e-05
2.74649e-05
2.75078e-05
2.74888e-05
2.74549e-05
2.74309e-05
2.74298e-05
2.74878e-05
2.74803e-05
2.75465e-05
2.75541e-05
2.77199e-05
2.83716e-05
2.87117e-05
2.72167e-05
1.75523e-05
3.97821e-05
2.71848e-05
2.82419e-05
2.66447e-05
2.65874e-05
2.63287e-05
2.63735e-05
2.63436e-05
2.63193e-05
2.62936e-05
2.62828e-05
2.63552e-05
2.63383e-05
2.64146e-05
2.6421e-05
2.65874e-05
2.72253e-05
2.75299e-05
2.66337e-05
1.79502e-05
3.60658e-05
2.5942e-05
2.69331e-05
2.54462e-05
2.53784e-05
2.51189e-05
2.51606e-05
2.51209e-05
2.51054e-05
2.50773e-05
2.50828e-05
2.51482e-05
2.51192e-05
2.52086e-05
2.52132e-05
2.53852e-05
2.60562e-05
2.63397e-05
2.60205e-05
1.84555e-05
3.29082e-05
2.472e-05
2.55791e-05
2.43167e-05
2.42583e-05
2.39994e-05
2.40402e-05
2.39931e-05
2.39847e-05
2.39554e-05
2.39515e-05
2.40317e-05
2.39934e-05
2.40911e-05
2.40949e-05
2.42653e-05
2.49293e-05
2.52658e-05
2.5352e-05
1.89607e-05
2.96605e-05
2.35114e-05
2.44178e-05
2.31879e-05
2.31387e-05
2.28815e-05
2.29209e-05
2.28674e-05
2.28651e-05
2.28348e-05
2.28277e-05
2.29155e-05
2.28677e-05
2.29739e-05
2.29775e-05
2.3143e-05
2.38007e-05
2.40906e-05
2.46093e-05
1.93727e-05
2.65937e-05
2.23004e-05
2.32444e-05
2.20496e-05
2.20121e-05
2.17554e-05
2.17938e-05
2.17342e-05
2.17376e-05
2.1706e-05
2.16964e-05
2.17902e-05
2.17331e-05
2.18482e-05
2.18519e-05
2.20124e-05
2.26597e-05
2.29647e-05
2.37989e-05
1.96296e-05
2.41463e-05
2.10752e-05
2.20566e-05
2.08921e-05
2.08699e-05
2.06114e-05
2.06498e-05
2.05836e-05
2.05926e-05
2.05593e-05
2.05472e-05
2.06464e-05
2.05808e-05
2.07047e-05
2.07083e-05
2.08639e-05
2.1497e-05
2.18061e-05
2.28013e-05
1.96785e-05
2.23087e-05
1.98266e-05
2.08402e-05
1.9708e-05
1.97007e-05
1.94409e-05
1.94794e-05
1.94068e-05
1.94211e-05
1.93858e-05
1.93708e-05
1.94753e-05
1.94019e-05
1.95345e-05
1.95378e-05
1.9689e-05
2.03038e-05
2.06073e-05
2.16613e-05
1.94923e-05
2.04803e-05
1.86116e-05
1.95899e-05
1.84893e-05
1.84974e-05
1.82368e-05
1.82755e-05
1.81961e-05
1.82164e-05
1.81781e-05
1.81603e-05
1.82701e-05
1.81896e-05
1.83307e-05
1.83332e-05
1.84807e-05
1.90725e-05
1.93644e-05
2.05628e-05
1.90664e-05
1.8589e-05
1.73665e-05
1.83028e-05
1.72314e-05
1.72558e-05
1.69953e-05
1.70342e-05
1.69476e-05
1.69755e-05
1.69322e-05
1.69118e-05
1.70266e-05
1.69398e-05
1.70897e-05
1.70906e-05
1.72353e-05
1.77983e-05
1.80769e-05
1.93686e-05
1.84046e-05
1.71184e-05
1.60911e-05
1.69812e-05
1.59345e-05
1.59767e-05
1.57174e-05
1.57566e-05
1.5662e-05
1.57006e-05
1.56491e-05
1.56265e-05
1.57456e-05
1.56534e-05
1.58124e-05
1.58107e-05
1.59535e-05
1.64812e-05
1.6751e-05
1.80809e-05
1.75242e-05
1.56889e-05
1.4789e-05
1.56358e-05
1.46047e-05
1.46179e-05
1.4382e-05
1.44206e-05
1.43465e-05
1.43663e-05
1.43359e-05
1.43118e-05
1.44339e-05
1.43377e-05
1.44738e-05
1.44696e-05
1.45927e-05
1.51282e-05
1.52906e-05
1.6709e-05
1.64538e-05
1.43269e-05
1.34145e-05
1.4147e-05
1.32578e-05
1.32802e-05
1.30543e-05
1.30922e-05
1.30157e-05
1.3043e-05
1.30072e-05
1.29821e-05
1.31053e-05
1.30068e-05
1.31448e-05
1.31373e-05
1.32529e-05
1.37537e-05
1.38428e-05
1.52757e-05
1.52313e-05
1.3e-05
1.20965e-05
1.27566e-05
1.19152e-05
1.19438e-05
1.17308e-05
1.17675e-05
1.16907e-05
1.17225e-05
1.1684e-05
1.16587e-05
1.17806e-05
1.1682e-05
1.18187e-05
1.18084e-05
1.19143e-05
1.23781e-05
1.24414e-05
1.38097e-05
1.39013e-05
1.17022e-05
1.08067e-05
1.13823e-05
1.06031e-05
1.06343e-05
1.04377e-05
1.04725e-05
1.03977e-05
1.04312e-05
1.03926e-05
1.03677e-05
1.04856e-05
1.03894e-05
1.05211e-05
1.0509e-05
1.0604e-05
1.10267e-05
1.10661e-05
1.23433e-05
1.25105e-05
1.0439e-05
9.56964e-06
1.00537e-05
9.35041e-06
9.38017e-06
9.20327e-06
9.23556e-06
9.16495e-06
9.19805e-06
9.16122e-06
9.13736e-06
9.24867e-06
9.15722e-06
9.28067e-06
9.26753e-06
9.35146e-06
9.72905e-06
9.74882e-06
1.09132e-05
1.11197e-05
9.23205e-06
8.40851e-06
8.80362e-06
8.18324e-06
8.21009e-06
8.05416e-06
8.08351e-06
8.01886e-06
8.05022e-06
8.01623e-06
7.994e-06
8.09663e-06
8.01179e-06
8.12443e-06
8.11103e-06
8.1843e-06
8.51395e-06
8.51948e-06
9.55582e-06
9.77598e-06
8.10746e-06
7.34353e-06
7.65951e-06
7.12224e-06
7.14638e-06
7.01069e-06
7.037e-06
6.97926e-06
7.00811e-06
6.97747e-06
6.95732e-06
7.04979e-06
6.973e-06
7.07309e-06
7.06023e-06
7.12351e-06
7.40496e-06
7.40142e-06
8.30189e-06
8.51855e-06
7.07335e-06
6.38947e-06
6.63319e-06
6.17936e-06
6.19959e-06
6.08323e-06
6.10608e-06
6.05577e-06
6.08163e-06
6.05455e-06
6.03655e-06
6.11834e-06
6.05027e-06
6.13704e-06
6.12551e-06
6.17954e-06
6.41553e-06
6.40695e-06
7.17199e-06
7.37462e-06
6.14e-06
5.54626e-06
5.72766e-06
5.35231e-06
5.36898e-06
5.26892e-06
5.28831e-06
5.24515e-06
5.26796e-06
5.24429e-06
5.22829e-06
5.30007e-06
5.24024e-06
5.31425e-06
5.30437e-06
5.34993e-06
5.54582e-06
5.53484e-06
6.17413e-06
6.35744e-06
5.30588e-06
4.79393e-06
4.932e-06
4.61455e-06
4.62627e-06
4.55276e-06
4.56908e-06
4.53228e-06
4.55227e-06
4.53158e-06
4.51731e-06
4.5804e-06
4.52774e-06
4.59031e-06
4.58218e-06
4.61746e-06
4.77596e-06
4.77039e-06
5.29943e-06
5.46154e-06
4.5581e-06
4.12566e-06
4.22541e-06
3.96465e-06
3.97419e-06
3.91218e-06
3.92592e-06
3.89451e-06
3.91205e-06
3.89387e-06
3.88106e-06
3.93685e-06
3.8902e-06
3.94307e-06
3.93643e-06
3.96494e-06
4.09619e-06
4.09036e-06
4.52618e-06
4.66743e-06
3.87598e-06
3.51275e-06
3.58369e-06
3.37045e-06
3.37804e-06
3.3263e-06
3.33784e-06
3.31124e-06
3.32648e-06
3.31059e-06
3.29917e-06
3.34821e-06
3.30709e-06
3.35163e-06
3.34603e-06
3.36956e-06
3.47684e-06
3.47125e-06
3.82771e-06
3.94947e-06
3.24898e-06
2.95444e-06
3.0009e-06
2.83327e-06
2.83828e-06
2.79733e-06
2.80647e-06
2.78502e-06
2.79757e-06
2.78429e-06
2.77455e-06
2.81575e-06
2.78112e-06
2.81734e-06
2.8125e-06
2.8316e-06
2.91537e-06
2.91171e-06
3.19305e-06
3.29622e-06
2.70153e-06
2.47784e-06
2.5027e-06
2.37875e-06
2.38057e-06
2.35029e-06
2.35685e-06
2.34058e-06
2.35025e-06
2.33969e-06
2.33173e-06
2.36474e-06
2.33698e-06
2.36529e-06
2.36105e-06
2.37621e-06
2.43791e-06
2.43763e-06
2.64773e-06
2.7332e-06
2.25187e-06
2.08909e-06
2.09787e-06
2.00956e-06
2.00865e-06
1.98708e-06
1.99143e-06
1.97948e-06
1.98666e-06
1.9784e-06
1.97198e-06
1.99804e-06
1.97612e-06
1.99803e-06
1.99425e-06
2.00628e-06
2.05027e-06
2.05305e-06
2.20501e-06
2.2749e-06
1.88832e-06
1.7737e-06
1.77168e-06
1.71091e-06
1.70802e-06
1.69318e-06
1.69576e-06
1.68726e-06
1.6924e-06
1.68599e-06
1.68089e-06
1.70122e-06
1.68413e-06
1.70091e-06
1.69754e-06
1.70712e-06
1.73746e-06
1.74253e-06
1.84929e-06
1.90569e-06
1.60387e-06
1.52621e-06
1.51725e-06
1.47733e-06
1.47306e-06
1.46334e-06
1.46452e-06
1.45873e-06
1.46223e-06
1.45731e-06
1.45333e-06
1.46894e-06
1.45584e-06
1.46853e-06
1.46554e-06
1.47321e-06
1.49325e-06
1.49991e-06
1.57226e-06
1.61718e-06
1.41213e-06
1.35902e-06
1.34605e-06
1.31991e-06
1.31476e-06
1.30847e-06
1.30868e-06
1.30475e-06
1.30711e-06
1.30323e-06
1.3001e-06
1.31228e-06
1.3021e-06
1.31191e-06
1.30924e-06
1.31561e-06
1.32887e-06
1.33648e-06
1.38619e-06
1.42283e-06
)
;

boundaryField
{
    fuel
    {
        type            fixedValue;
        value           uniform 0;
    }
    wall
    {
        type            zeroGradient;
    }
    outlet
    {
        type            zeroGradient;
    }
    frontAndBack
    {
        type            empty;
    }
}


// ************************************************************************* //
