/*--------------------------------*- C++ -*----------------------------------*\
| =========                 |                                                 |
| \\      /  F ield         | OpenFOAM: The Open Source CFD Toolbox           |
|  \\    /   O peration     | Version:  dev                                   |
|   \\  /    A nd           | Web:      www.OpenFOAM.org                      |
|    \\/     M anipulation  |                                                 |
\*---------------------------------------------------------------------------*/
FoamFile
{
    version     2.0;
    format      ascii;
    class       volScalarField;
    location    "0.2";
    object      C4H4;
}
// * * * * * * * * * * * * * * * * * * * * * * * * * * * * * * * * * * * * * //

dimensions      [0 0 0 0 0 0 0];

internalField   nonuniform List<scalar> 
1000
(
1.15793e-05
0.000223912
0.000191423
0.000187582
0.00018713
0.000187087
0.000187065
0.000187077
0.000187064
0.00018707
0.000187071
0.00018707
0.000187068
0.000187072
0.000187071
0.000187117
0.000187505
0.000189703
0.000207171
5.71661e-06
2.98727e-05
4.70338e-05
3.65786e-05
3.54446e-05
3.53025e-05
3.52891e-05
3.5284e-05
3.52848e-05
3.52856e-05
3.52845e-05
3.52862e-05
3.52864e-05
3.52831e-05
3.52935e-05
3.52778e-05
3.53304e-05
3.53979e-05
3.62411e-05
4.11076e-05
1.38446e-05
4.86067e-05
1.65728e-05
1.18835e-05
1.14159e-05
1.1352e-05
1.13456e-05
1.13436e-05
1.1343e-05
1.13446e-05
1.13434e-05
1.13448e-05
1.13453e-05
1.13434e-05
1.13493e-05
1.13391e-05
1.1375e-05
1.13842e-05
1.18132e-05
1.40206e-05
3.97016e-05
6.5926e-05
9.99941e-06
6.67797e-06
6.36789e-06
6.32153e-06
6.31635e-06
6.31428e-06
6.31373e-06
6.31528e-06
6.31414e-06
6.31559e-06
6.31629e-06
6.31508e-06
6.31792e-06
6.31262e-06
6.33989e-06
6.34151e-06
6.6605e-06
8.35805e-06
0.000174072
8.06227e-05
7.95972e-06
5.05203e-06
4.77682e-06
4.73262e-06
4.72711e-06
4.72381e-06
4.724e-06
4.72557e-06
4.72438e-06
4.72619e-06
4.72704e-06
4.72602e-06
4.72642e-06
4.72493e-06
4.74826e-06
4.75254e-06
5.04776e-06
6.36613e-06
0.000174625
9.24344e-05
7.10209e-06
4.35183e-06
4.07249e-06
4.0252e-06
4.01879e-06
4.01316e-06
4.01504e-06
4.01659e-06
4.01528e-06
4.01761e-06
4.01856e-06
4.01748e-06
4.01531e-06
4.01737e-06
4.0394e-06
4.04847e-06
4.31871e-06
5.33235e-06
5.05517e-05
0.000101933
6.64934e-06
3.96458e-06
3.66673e-06
3.61387e-06
3.60616e-06
3.5973e-06
3.6015e-06
3.60296e-06
3.60132e-06
3.60446e-06
3.6055e-06
3.60419e-06
3.59878e-06
3.60505e-06
3.62776e-06
3.64172e-06
3.92558e-06
4.81773e-06
2.08026e-05
0.000110353
6.36394e-06
3.67922e-06
3.38769e-06
3.3249e-06
3.31567e-06
3.30542e-06
3.31013e-06
3.31127e-06
3.30936e-06
3.31316e-06
3.31426e-06
3.3126e-06
3.30672e-06
3.31459e-06
3.33975e-06
3.36065e-06
3.64522e-06
4.54409e-06
1.34696e-05
0.000119445
6.15443e-06
3.47966e-06
3.14069e-06
3.08752e-06
3.0808e-06
3.07962e-06
3.0768e-06
3.0775e-06
3.07533e-06
3.07965e-06
3.08078e-06
3.07869e-06
3.08077e-06
3.07956e-06
3.09808e-06
3.11381e-06
3.44297e-06
4.38075e-06
1.14304e-05
0.000130926
5.97811e-06
3.29385e-06
2.96377e-06
2.90158e-06
2.89238e-06
2.89291e-06
2.88789e-06
2.88787e-06
2.88538e-06
2.89033e-06
2.89155e-06
2.88848e-06
2.89391e-06
2.89084e-06
2.9143e-06
2.93469e-06
3.26006e-06
4.24638e-06
1.09353e-05
0.000144286
5.81027e-06
3.12467e-06
2.79953e-06
2.72948e-06
2.71938e-06
2.71743e-06
2.71487e-06
2.71454e-06
2.71251e-06
2.71667e-06
2.7178e-06
2.71375e-06
2.71568e-06
2.71771e-06
2.74142e-06
2.76843e-06
3.10129e-06
4.13396e-06
1.10288e-05
0.000153688
5.62781e-06
2.99018e-06
2.65241e-06
2.57846e-06
2.56751e-06
2.56636e-06
2.56318e-06
2.56285e-06
2.56207e-06
2.56427e-06
2.56531e-06
2.55979e-06
2.57751e-06
2.56563e-06
2.58963e-06
2.62059e-06
2.95695e-06
4.01785e-06
1.14142e-05
0.000151574
5.4097e-06
2.85346e-06
2.52004e-06
2.44291e-06
2.43123e-06
2.44106e-06
2.427e-06
2.42717e-06
2.42785e-06
2.42752e-06
2.42848e-06
2.42075e-06
2.4385e-06
2.42896e-06
2.45324e-06
2.48766e-06
2.82046e-06
3.89846e-06
1.1944e-05
0.000136322
5.15094e-06
2.73625e-06
2.39934e-06
2.31963e-06
2.30722e-06
2.31182e-06
2.30284e-06
2.30407e-06
2.30564e-06
2.30317e-06
2.30409e-06
2.29312e-06
2.31037e-06
2.3046e-06
2.3291e-06
2.36664e-06
2.71625e-06
3.77568e-06
1.24882e-05
0.000112352
4.83673e-06
2.61937e-06
2.28807e-06
2.20668e-06
2.19364e-06
2.19499e-06
2.18866e-06
2.19139e-06
2.19301e-06
2.18927e-06
2.19023e-06
2.19106e-06
2.19428e-06
2.19069e-06
2.21526e-06
2.25534e-06
2.61483e-06
3.65883e-06
1.29072e-05
8.58379e-05
4.48139e-06
2.4999e-06
2.18481e-06
2.10278e-06
2.08929e-06
2.08883e-06
2.08312e-06
2.08772e-06
2.08882e-06
2.08458e-06
2.08559e-06
2.08558e-06
2.08831e-06
2.08603e-06
2.11045e-06
2.15235e-06
2.50647e-06
3.53931e-06
1.3089e-05
6.15033e-05
4.17264e-06
2.38671e-06
2.08865e-06
2.00712e-06
1.99336e-06
1.99189e-06
1.98528e-06
1.99217e-06
1.99255e-06
1.98834e-06
1.98936e-06
1.98834e-06
1.99131e-06
1.98982e-06
2.01383e-06
2.05684e-06
2.40225e-06
3.4102e-06
1.29691e-05
4.21682e-05
3.87856e-06
2.27986e-06
1.9989e-06
1.91914e-06
1.90531e-06
1.9033e-06
1.89447e-06
1.90424e-06
1.90394e-06
1.90002e-06
1.90102e-06
1.89871e-06
1.90255e-06
1.90154e-06
1.9249e-06
1.96829e-06
2.30085e-06
3.27813e-06
1.25455e-05
2.81348e-05
3.60601e-06
2.17957e-06
1.91478e-06
1.83849e-06
1.82478e-06
1.82259e-06
1.82145e-06
1.82364e-06
1.82283e-06
1.8193e-06
1.82023e-06
1.81623e-06
1.82154e-06
1.82085e-06
1.84331e-06
1.88636e-06
2.22229e-06
3.14607e-06
1.17372e-05
1.86097e-05
3.35715e-06
2.08619e-06
1.83554e-06
1.76491e-06
1.75152e-06
1.74928e-06
1.74669e-06
1.75016e-06
1.74904e-06
1.74596e-06
1.74675e-06
1.74069e-06
1.74799e-06
1.74751e-06
1.76885e-06
1.81072e-06
2.13992e-06
3.01517e-06
1.08303e-05
1.24562e-05
3.13154e-06
2.00025e-06
1.77169e-06
1.69819e-06
1.68534e-06
1.68315e-06
1.67863e-06
1.6837e-06
1.68246e-06
1.67982e-06
1.68044e-06
1.68135e-06
1.68176e-06
1.68137e-06
1.70131e-06
1.7492e-06
2.05782e-06
2.88666e-06
9.73097e-06
8.61618e-06
2.91463e-06
1.92196e-06
1.7107e-06
1.63814e-06
1.62614e-06
1.62415e-06
1.62528e-06
1.62426e-06
1.62302e-06
1.62081e-06
1.62125e-06
1.62317e-06
1.62258e-06
1.62234e-06
1.64044e-06
1.69057e-06
1.98155e-06
2.76245e-06
8.68057e-06
6.2732e-06
2.71639e-06
1.85167e-06
1.66058e-06
1.59171e-06
1.5809e-06
1.57907e-06
1.57976e-06
1.57882e-06
1.57769e-06
1.57581e-06
1.57627e-06
1.5785e-06
1.57752e-06
1.57721e-06
1.59437e-06
1.64292e-06
1.91153e-06
2.64433e-06
7.61078e-06
4.85788e-06
2.56059e-06
1.78951e-06
1.61603e-06
1.5528e-06
1.53946e-06
1.53779e-06
1.53799e-06
1.53724e-06
1.53615e-06
1.53462e-06
1.53529e-06
1.53716e-06
1.53615e-06
1.53602e-06
1.5518e-06
1.59982e-06
1.84775e-06
2.53405e-06
6.68583e-06
3.99811e-06
2.42407e-06
1.74278e-06
1.58087e-06
1.52176e-06
1.50929e-06
1.50778e-06
1.50779e-06
1.50701e-06
1.50619e-06
1.50492e-06
1.50568e-06
1.50708e-06
1.50617e-06
1.50617e-06
1.52059e-06
1.56722e-06
1.79026e-06
2.43251e-06
5.87878e-06
3.46256e-06
2.30811e-06
1.70393e-06
1.55421e-06
1.49911e-06
1.4877e-06
1.48637e-06
1.48637e-06
1.48546e-06
1.48501e-06
1.4839e-06
1.48457e-06
1.48561e-06
1.48479e-06
1.48496e-06
1.49795e-06
1.543e-06
1.74995e-06
2.34141e-06
5.19443e-06
3.11696e-06
2.2136e-06
1.67651e-06
1.53655e-06
1.48583e-06
1.47539e-06
1.47423e-06
1.47441e-06
1.47326e-06
1.47329e-06
1.47233e-06
1.47275e-06
1.47364e-06
1.47276e-06
1.47315e-06
1.48457e-06
1.52823e-06
1.71875e-06
2.2634e-06
4.6186e-06
2.886e-06
2.13403e-06
1.66052e-06
1.52897e-06
1.48299e-06
1.47346e-06
1.47248e-06
1.47303e-06
1.47151e-06
1.47216e-06
1.47134e-06
1.47141e-06
1.47232e-06
1.4712e-06
1.47186e-06
1.48152e-06
1.52405e-06
1.69785e-06
2.20047e-06
4.14451e-06
2.72475e-06
2.07101e-06
1.65741e-06
1.53308e-06
1.49229e-06
1.48359e-06
1.48282e-06
1.48397e-06
1.48191e-06
1.48338e-06
1.48262e-06
1.48227e-06
1.48332e-06
1.48177e-06
1.48276e-06
1.49043e-06
1.53209e-06
1.68896e-06
2.15519e-06
3.79455e-06
2.61439e-06
2.03705e-06
1.66959e-06
1.55118e-06
1.51618e-06
1.50826e-06
1.50776e-06
1.50974e-06
1.50695e-06
1.50948e-06
1.50871e-06
1.50788e-06
1.50916e-06
1.50695e-06
1.50837e-06
1.51376e-06
1.55482e-06
1.69451e-06
2.13304e-06
3.51505e-06
2.54711e-06
2.027e-06
1.70063e-06
1.58679e-06
1.5584e-06
1.55124e-06
1.5511e-06
1.55422e-06
1.55041e-06
1.55436e-06
1.55351e-06
1.55212e-06
1.55372e-06
1.55058e-06
1.55254e-06
1.55522e-06
1.5961e-06
1.71798e-06
2.13508e-06
3.29192e-06
2.52186e-06
2.04494e-06
1.75586e-06
1.64538e-06
1.62472e-06
1.61837e-06
1.61885e-06
1.62342e-06
1.61815e-06
1.62407e-06
1.62304e-06
1.62107e-06
1.62298e-06
1.61854e-06
1.62124e-06
1.62056e-06
1.66194e-06
1.76458e-06
2.16745e-06
3.16533e-06
2.5432e-06
2.09818e-06
1.84843e-06
1.73596e-06
1.72761e-06
1.72204e-06
1.72084e-06
1.73067e-06
1.72277e-06
1.73199e-06
1.73033e-06
1.72472e-06
1.73019e-06
1.72335e-06
1.72698e-06
1.7218e-06
1.76216e-06
1.8422e-06
2.23973e-06
3.09974e-06
2.62259e-06
2.1995e-06
1.99463e-06
1.87354e-06
1.8786e-06
1.8745e-06
1.87382e-06
1.88777e-06
1.87634e-06
1.89011e-06
1.88778e-06
1.88009e-06
1.8873e-06
1.87739e-06
1.88256e-06
1.87108e-06
1.91345e-06
1.97471e-06
2.37385e-06
3.10864e-06
2.78274e-06
2.37177e-06
2.21409e-06
2.08501e-06
2.11002e-06
2.1082e-06
2.10796e-06
2.12889e-06
2.11156e-06
2.13281e-06
2.12924e-06
2.11791e-06
2.12837e-06
2.11345e-06
2.12105e-06
2.09992e-06
2.14573e-06
2.17192e-06
2.59042e-06
3.20923e-06
3.06663e-06
2.65773e-06
2.56624e-06
2.42013e-06
2.47671e-06
2.47864e-06
2.47892e-06
2.51161e-06
2.48413e-06
2.51813e-06
2.51233e-06
2.49478e-06
2.51096e-06
2.48763e-06
2.49926e-06
2.46247e-06
2.51419e-06
2.48919e-06
2.94782e-06
3.44135e-06
3.55353e-06
3.13664e-06
3.1477e-06
2.97063e-06
3.07887e-06
3.08719e-06
3.08817e-06
3.14066e-06
3.09558e-06
3.1515e-06
3.14172e-06
3.11359e-06
3.13971e-06
3.10215e-06
3.12062e-06
3.05782e-06
3.11925e-06
3.01346e-06
3.5419e-06
3.87988e-06
4.38318e-06
3.95078e-06
4.12621e-06
3.89749e-06
4.089e-06
4.10778e-06
4.10984e-06
4.19429e-06
4.1199e-06
4.2121e-06
4.1959e-06
4.1503e-06
4.19305e-06
4.13225e-06
4.16204e-06
4.05705e-06
4.13357e-06
3.89889e-06
4.53607e-06
4.65716e-06
5.78337e-06
5.33402e-06
5.76578e-06
5.45744e-06
5.77476e-06
5.8098e-06
5.81337e-06
5.94584e-06
5.82581e-06
5.97408e-06
5.94777e-06
5.87506e-06
5.944e-06
5.84732e-06
5.89558e-06
5.72458e-06
5.82625e-06
5.3898e-06
6.18727e-06
5.98338e-06
8.08146e-06
7.62506e-06
8.42477e-06
8.00555e-06
8.49356e-06
8.55191e-06
8.55716e-06
8.75452e-06
8.57022e-06
8.79674e-06
8.75595e-06
8.64541e-06
8.75135e-06
8.60514e-06
8.68029e-06
8.41717e-06
8.55502e-06
7.83467e-06
8.83738e-06
8.16995e-06
1.16722e-05
1.12341e-05
1.24986e-05
1.19439e-05
1.26318e-05
1.27199e-05
1.27267e-05
1.29999e-05
1.27364e-05
1.30583e-05
1.29997e-05
1.28431e-05
1.29947e-05
1.27894e-05
1.28985e-05
1.25208e-05
1.27062e-05
1.16423e-05
1.28629e-05
1.16055e-05
1.69186e-05
1.65368e-05
1.82965e-05
1.76575e-05
1.85923e-05
1.86018e-05
1.86094e-05
1.89555e-05
1.86098e-05
1.90293e-05
1.89522e-05
1.87488e-05
1.89478e-05
1.86837e-05
1.88295e-05
1.84329e-05
1.86685e-05
1.71617e-05
1.86278e-05
1.66616e-05
2.3993e-05
2.37059e-05
2.58714e-05
2.51305e-05
2.62087e-05
2.62258e-05
2.62338e-05
2.66304e-05
2.62187e-05
2.67147e-05
2.6623e-05
2.63827e-05
2.66201e-05
2.63123e-05
2.64895e-05
2.60157e-05
2.62951e-05
2.45086e-05
2.60849e-05
2.35373e-05
3.2699e-05
3.25275e-05
3.48734e-05
3.40927e-05
3.52049e-05
3.52182e-05
3.52253e-05
3.56315e-05
3.51913e-05
3.57171e-05
3.56194e-05
3.53645e-05
3.56188e-05
3.5298e-05
3.54916e-05
3.49925e-05
3.52962e-05
3.34079e-05
3.49668e-05
3.20857e-05
4.2333e-05
4.22642e-05
4.44598e-05
4.37246e-05
4.47251e-05
4.47252e-05
4.47296e-05
4.50932e-05
4.46783e-05
4.5169e-05
4.50775e-05
4.48391e-05
4.5079e-05
4.47866e-05
4.49735e-05
4.45145e-05
4.48152e-05
4.30753e-05
4.44651e-05
4.16542e-05
5.16391e-05
5.16251e-05
5.33246e-05
5.27221e-05
5.34712e-05
5.34545e-05
5.3453e-05
5.37272e-05
5.33926e-05
5.37829e-05
5.37099e-05
5.35199e-05
5.37123e-05
5.34891e-05
5.36433e-05
5.32911e-05
5.35533e-05
5.2216e-05
5.32986e-05
5.10184e-05
5.90203e-05
5.90044e-05
6.00172e-05
5.95985e-05
6.0033e-05
6.00045e-05
5.99944e-05
6.01619e-05
5.99362e-05
6.01944e-05
6.01455e-05
6.00201e-05
6.01465e-05
6.00125e-05
6.01168e-05
5.99074e-05
6.01006e-05
5.93033e-05
6.00108e-05
5.85709e-05
6.33692e-05
6.33297e-05
6.37667e-05
6.35138e-05
6.36963e-05
6.36675e-05
6.36483e-05
6.3736e-05
6.35997e-05
6.37518e-05
6.37217e-05
6.36496e-05
6.37192e-05
6.36591e-05
6.37165e-05
6.36294e-05
6.37465e-05
6.34097e-05
6.37935e-05
6.31386e-05
6.49978e-05
6.49575e-05
6.51172e-05
6.49662e-05
6.50269e-05
6.50072e-05
6.49809e-05
6.50358e-05
6.49414e-05
6.5046e-05
6.50232e-05
6.49769e-05
6.50164e-05
6.49945e-05
6.50232e-05
6.50022e-05
6.50622e-05
6.49683e-05
6.51586e-05
6.49499e-05
6.53092e-05
6.5286e-05
6.53698e-05
6.52664e-05
6.529e-05
6.52797e-05
6.52491e-05
6.52983e-05
6.52146e-05
6.53086e-05
6.52866e-05
6.52474e-05
6.52765e-05
6.52677e-05
6.52841e-05
6.52864e-05
6.5317e-05
6.53044e-05
6.54128e-05
6.53626e-05
)
;

boundaryField
{
    fuel
    {
        type            fixedValue;
        value           uniform 0;
    }
    wall
    {
        type            zeroGradient;
    }
    outlet
    {
        type            zeroGradient;
    }
    frontAndBack
    {
        type            empty;
    }
}


// ************************************************************************* //
