/*--------------------------------*- C++ -*----------------------------------*\
| =========                 |                                                 |
| \\      /  F ield         | OpenFOAM: The Open Source CFD Toolbox           |
|  \\    /   O peration     | Version:  dev                                   |
|   \\  /    A nd           | Web:      www.OpenFOAM.org                      |
|    \\/     M anipulation  |                                                 |
\*---------------------------------------------------------------------------*/
FoamFile
{
    version     2.0;
    format      ascii;
    class       volScalarField;
    location    "0.2";
    object      C4H612;
}
// * * * * * * * * * * * * * * * * * * * * * * * * * * * * * * * * * * * * * //

dimensions      [0 0 0 0 0 0 0];

internalField   nonuniform List<scalar> 
1000
(
1.27668e-06
5.30475e-06
3.74148e-06
3.58155e-06
3.56372e-06
3.56207e-06
3.56118e-06
3.56181e-06
3.56133e-06
3.56163e-06
3.56137e-06
3.56131e-06
3.56119e-06
3.56141e-06
3.56129e-06
3.56262e-06
3.57911e-06
3.66516e-06
4.45641e-06
1.18941e-06
2.60887e-06
6.9784e-07
4.63687e-07
4.40913e-07
4.38285e-07
4.38054e-07
4.37956e-07
4.38011e-07
4.37981e-07
4.37994e-07
4.37988e-07
4.37981e-07
4.3793e-07
4.38093e-07
4.37841e-07
4.38587e-07
4.40243e-07
4.55289e-07
5.61738e-07
2.31608e-06
3.64602e-06
1.8202e-07
1.04359e-07
9.76907e-08
9.68831e-08
9.68127e-08
9.67923e-08
9.67968e-08
9.68001e-08
9.67954e-08
9.68011e-08
9.68012e-08
9.67797e-08
9.68597e-08
9.67181e-08
9.71316e-08
9.73375e-08
1.02814e-07
1.36683e-07
5.78406e-06
4.44178e-06
8.55082e-08
4.07737e-08
3.75141e-08
3.70983e-08
3.70601e-08
3.70508e-08
3.70489e-08
3.70549e-08
3.70496e-08
3.70545e-08
3.70576e-08
3.70459e-08
3.709e-08
3.701e-08
3.72778e-08
3.72726e-08
4.04387e-08
6.30586e-08
1.40248e-05
4.94833e-06
5.45259e-08
2.20654e-08
2.00196e-08
1.97457e-08
1.97184e-08
1.9709e-08
1.97083e-08
1.97142e-08
1.97096e-08
1.97141e-08
1.9718e-08
1.97106e-08
1.97341e-08
1.96904e-08
1.98782e-08
1.98431e-08
2.21132e-08
3.67215e-08
3.39836e-06
5.14738e-06
4.07547e-08
1.4634e-08
1.31315e-08
1.29217e-08
1.28985e-08
1.2884e-08
1.28888e-08
1.28937e-08
1.289e-08
1.28944e-08
1.28981e-08
1.2893e-08
1.29017e-08
1.28822e-08
1.30207e-08
1.29972e-08
1.45215e-08
2.49614e-08
6.74933e-07
5.06728e-06
3.31835e-08
1.11566e-08
9.91033e-09
9.72877e-09
9.70591e-09
9.6823e-09
9.69439e-09
9.69871e-09
9.69456e-09
9.70067e-09
9.70407e-09
9.69983e-09
9.69251e-09
9.69591e-09
9.80534e-09
9.80318e-09
1.10702e-08
1.9199e-08
2.3745e-07
4.76784e-06
2.82569e-08
9.17431e-09
8.22805e-09
8.0401e-09
8.01508e-09
7.98733e-09
8.00172e-09
8.00482e-09
8.00093e-09
8.00756e-09
8.01061e-09
8.00657e-09
7.99484e-09
8.0084e-09
8.10497e-09
8.13585e-09
9.14565e-09
1.61636e-08
1.51046e-07
4.34145e-06
2.46186e-08
8.12812e-09
7.13312e-09
7.01218e-09
6.99952e-09
7.00328e-09
6.99291e-09
6.99483e-09
6.99108e-09
6.99815e-09
7.00091e-09
6.99663e-09
7.00856e-09
6.99443e-09
7.04826e-09
7.0608e-09
8.07002e-09
1.45044e-08
1.33817e-07
3.91023e-06
2.17016e-08
7.39587e-09
6.52715e-09
6.38595e-09
6.36631e-09
6.37424e-09
6.35795e-09
6.35791e-09
6.35397e-09
6.3623e-09
6.36507e-09
6.35889e-09
6.37785e-09
6.36172e-09
6.42221e-09
6.45867e-09
7.33432e-09
1.3375e-08
1.38552e-07
3.47747e-06
1.92374e-08
6.87201e-09
6.07284e-09
5.91947e-09
5.89826e-09
5.89733e-09
5.88942e-09
5.88873e-09
5.88625e-09
5.89253e-09
5.89492e-09
5.88716e-09
5.89315e-09
5.89427e-09
5.94879e-09
6.00641e-09
6.83672e-09
1.26402e-08
1.53932e-07
2.99819e-06
1.70882e-08
6.52161e-09
5.7256e-09
5.56831e-09
5.54549e-09
5.54439e-09
5.53682e-09
5.53611e-09
5.53548e-09
5.53862e-09
5.54073e-09
5.53022e-09
5.56954e-09
5.54148e-09
5.59307e-09
5.66183e-09
6.46344e-09
1.20415e-08
1.75515e-07
2.50328e-06
1.52004e-08
6.20336e-09
5.4433e-09
5.28179e-09
5.25754e-09
5.27881e-09
5.24897e-09
5.24923e-09
5.25105e-09
5.24975e-09
5.25165e-09
5.23674e-09
5.27356e-09
5.25293e-09
5.30326e-09
5.38065e-09
6.15264e-09
1.15188e-08
1.99961e-07
1.97746e-06
1.35451e-08
5.9499e-09
5.20031e-09
5.03467e-09
5.00889e-09
5.0183e-09
4.99999e-09
5.0023e-09
5.00562e-09
5.00046e-09
5.00226e-09
4.98058e-09
5.01541e-09
5.00367e-09
5.05363e-09
5.1382e-09
5.93444e-09
1.10177e-08
2.23243e-07
1.38144e-06
1.197e-08
5.70656e-09
4.98264e-09
4.81399e-09
4.78688e-09
4.78933e-09
4.77674e-09
4.78199e-09
4.78527e-09
4.7778e-09
4.7797e-09
4.78196e-09
4.78793e-09
4.78103e-09
4.83086e-09
4.92099e-09
5.73038e-09
1.05479e-08
2.40267e-07
8.07968e-07
1.05119e-08
5.46241e-09
4.78287e-09
4.613e-09
4.58488e-09
4.5836e-09
4.57228e-09
4.58127e-09
4.58342e-09
4.57512e-09
4.5771e-09
4.57741e-09
4.58252e-09
4.57839e-09
4.62794e-09
4.72185e-09
5.51462e-09
1.0059e-08
2.46562e-07
4.06017e-07
9.43294e-09
5.23356e-09
4.59715e-09
4.42812e-09
4.39935e-09
4.39603e-09
4.38275e-09
4.39648e-09
4.39716e-09
4.38893e-09
4.39097e-09
4.38908e-09
4.39482e-09
4.39227e-09
4.44118e-09
4.53719e-09
5.30767e-09
9.51996e-09
2.3988e-07
1.93213e-07
8.54423e-09
5.01814e-09
4.42309e-09
4.25747e-09
4.22845e-09
4.22405e-09
4.20576e-09
4.22578e-09
4.22513e-09
4.21746e-09
4.21946e-09
4.21483e-09
4.22248e-09
4.22087e-09
4.26869e-09
4.36509e-09
5.10429e-09
8.96429e-09
2.21322e-07
9.44679e-08
7.80643e-09
4.81561e-09
4.2586e-09
4.10005e-09
4.07118e-09
4.06644e-09
4.06444e-09
4.06836e-09
4.06667e-09
4.05976e-09
4.0616e-09
4.0532e-09
4.06422e-09
4.06321e-09
4.10947e-09
4.20444e-09
4.94804e-09
8.41028e-09
1.89541e-07
4.96711e-08
7.18515e-09
4.62623e-09
4.10147e-09
3.95517e-09
3.92691e-09
3.92205e-09
3.91655e-09
3.92361e-09
3.92132e-09
3.91523e-09
3.91678e-09
3.90339e-09
3.91935e-09
3.91871e-09
3.96293e-09
4.05412e-09
4.78053e-09
7.87179e-09
1.57478e-07
2.86674e-08
6.65566e-09
4.45083e-09
3.9754e-09
3.82213e-09
3.795e-09
3.79023e-09
3.77978e-09
3.79111e-09
3.78854e-09
3.7833e-09
3.78446e-09
3.78669e-09
3.78733e-09
3.78677e-09
3.82839e-09
3.93212e-09
4.61043e-09
7.35697e-09
1.23156e-07
1.82615e-08
6.17557e-09
4.2894e-09
3.85219e-09
3.69973e-09
3.67459e-09
3.67024e-09
3.67303e-09
3.67016e-09
3.66753e-09
3.66312e-09
3.66389e-09
3.66836e-09
3.66689e-09
3.66662e-09
3.70452e-09
3.8125e-09
4.44996e-09
6.8754e-09
9.46197e-08
1.27805e-08
5.75236e-09
4.14201e-09
3.7503e-09
3.60501e-09
3.58301e-09
3.57898e-09
3.58046e-09
3.57814e-09
3.57566e-09
3.57194e-09
3.5728e-09
3.57786e-09
3.57571e-09
3.57515e-09
3.61148e-09
3.71463e-09
4.29961e-09
6.43198e-09
6.9682e-08
9.71548e-09
5.42544e-09
4.00745e-09
3.65619e-09
3.52285e-09
3.49377e-09
3.49002e-09
3.49e-09
3.48849e-09
3.4858e-09
3.48284e-09
3.48439e-09
3.48843e-09
3.48648e-09
3.48622e-09
3.52007e-09
3.62114e-09
4.15807e-09
6.02959e-09
5.13942e-08
7.90382e-09
5.14317e-09
3.90434e-09
3.57906e-09
3.45344e-09
3.42642e-09
3.42297e-09
3.42219e-09
3.4209e-09
3.41851e-09
3.41607e-09
3.41805e-09
3.42084e-09
3.41938e-09
3.41925e-09
3.45071e-09
3.54729e-09
4.02251e-09
5.66699e-09
3.78253e-08
6.77841e-09
4.90324e-09
3.81118e-09
3.51525e-09
3.39677e-09
3.37214e-09
3.36901e-09
3.36772e-09
3.36651e-09
3.36447e-09
3.36226e-09
3.36426e-09
3.36611e-09
3.3652e-09
3.36525e-09
3.3944e-09
3.48558e-09
3.92407e-09
5.34373e-09
2.80583e-08
6.05257e-09
4.70338e-09
3.73648e-09
3.46418e-09
3.35319e-09
3.33064e-09
3.32782e-09
3.32622e-09
3.32498e-09
3.32335e-09
3.32147e-09
3.32316e-09
3.32451e-09
3.32398e-09
3.32426e-09
3.35103e-09
3.43697e-09
3.83811e-09
5.05899e-09
2.1017e-08
5.57048e-09
4.52349e-09
3.67656e-09
3.42588e-09
3.32255e-09
3.30188e-09
3.29931e-09
3.2976e-09
3.29623e-09
3.29508e-09
3.29363e-09
3.29483e-09
3.29599e-09
3.29565e-09
3.2962e-09
3.32056e-09
3.40145e-09
3.76514e-09
4.81042e-09
1.59973e-08
5.23337e-09
4.3593e-09
3.63149e-09
3.40067e-09
3.30512e-09
3.28613e-09
3.28379e-09
3.28214e-09
3.28059e-09
3.27995e-09
3.2788e-09
3.27943e-09
3.28059e-09
3.28028e-09
3.28113e-09
3.3031e-09
3.37894e-09
3.70597e-09
4.59559e-09
1.26918e-08
4.99247e-09
4.24658e-09
3.60198e-09
3.389e-09
3.30145e-09
3.28391e-09
3.28166e-09
3.28037e-09
3.27855e-09
3.27851e-09
3.27754e-09
3.27746e-09
3.27884e-09
3.27842e-09
3.2796e-09
3.2992e-09
3.36984e-09
3.6617e-09
4.42973e-09
1.02603e-08
4.8187e-09
4.16122e-09
3.5898e-09
3.39196e-09
3.31301e-09
3.29664e-09
3.29414e-09
3.2938e-09
3.29156e-09
3.29229e-09
3.29139e-09
3.29018e-09
3.29229e-09
3.29158e-09
3.29307e-09
3.31032e-09
3.37543e-09
3.63412e-09
4.29671e-09
8.382e-09
4.69648e-09
4.10354e-09
3.59861e-09
3.4119e-09
3.34289e-09
3.32733e-09
3.3239e-09
3.32558e-09
3.32265e-09
3.32443e-09
3.32345e-09
3.32038e-09
3.32413e-09
3.32282e-09
3.32459e-09
3.33935e-09
3.3985e-09
3.62671e-09
4.19903e-09
7.24192e-09
4.61967e-09
4.07612e-09
3.62511e-09
3.45386e-09
3.39105e-09
3.37701e-09
3.37613e-09
3.37592e-09
3.3726e-09
3.37535e-09
3.37458e-09
3.3734e-09
3.37487e-09
3.37323e-09
3.37546e-09
3.38717e-09
3.44427e-09
3.64592e-09
4.14086e-09
6.39072e-09
4.5901e-09
4.08596e-09
3.68188e-09
3.5269e-09
3.47391e-09
3.46127e-09
3.46056e-09
3.46202e-09
3.45737e-09
3.46208e-09
3.46112e-09
3.45901e-09
3.46135e-09
3.45845e-09
3.46118e-09
3.46907e-09
3.5225e-09
3.68633e-09
4.11854e-09
5.82175e-09
4.61833e-09
4.14684e-09
3.79436e-09
3.64653e-09
3.60542e-09
3.59453e-09
3.5939e-09
3.59826e-09
3.5913e-09
3.59918e-09
3.59778e-09
3.59407e-09
3.59791e-09
3.59298e-09
3.59656e-09
3.59934e-09
3.6499e-09
3.78198e-09
4.167e-09
5.45604e-09
4.72689e-09
4.28247e-09
3.98443e-09
3.83933e-09
3.81367e-09
3.80513e-09
3.80472e-09
3.81361e-09
3.80279e-09
3.81578e-09
3.81355e-09
3.8073e-09
3.81344e-09
3.80523e-09
3.81035e-09
3.80572e-09
3.85483e-09
3.95097e-09
4.30493e-09
5.27331e-09
4.95776e-09
4.5346e-09
4.29984e-09
4.15122e-09
4.14755e-09
4.14228e-09
4.14235e-09
4.15843e-09
4.1411e-09
4.1625e-09
4.15876e-09
4.14835e-09
4.15825e-09
4.14458e-09
4.15243e-09
4.13635e-09
4.18626e-09
4.23682e-09
4.57844e-09
5.28276e-09
5.38554e-09
4.97771e-09
4.82601e-09
4.66385e-09
4.69408e-09
4.69343e-09
4.69451e-09
4.72226e-09
4.69383e-09
4.72934e-09
4.72354e-09
4.70605e-09
4.72248e-09
4.69944e-09
4.71217e-09
4.67735e-09
4.73183e-09
4.71735e-09
5.07131e-09
5.53157e-09
6.14827e-09
5.74959e-09
5.72424e-09
5.53103e-09
5.61795e-09
5.62446e-09
5.62733e-09
5.67529e-09
5.62686e-09
5.68741e-09
5.6781e-09
5.64783e-09
5.67636e-09
5.63629e-09
5.65853e-09
5.59016e-09
5.65804e-09
5.53573e-09
5.94419e-09
6.12918e-09
7.52534e-09
7.12953e-09
7.32356e-09
7.06623e-09
7.25673e-09
7.27494e-09
7.28117e-09
7.36668e-09
7.28005e-09
7.38797e-09
7.3709e-09
7.3163e-09
7.36835e-09
7.296e-09
7.33682e-09
7.20658e-09
7.30294e-09
6.98817e-09
7.51862e-09
7.32334e-09
1.01253e-08
9.73109e-09
1.03599e-08
9.96865e-09
1.03686e-08
1.04075e-08
1.04206e-08
1.05822e-08
1.04163e-08
1.06218e-08
1.05888e-08
1.04839e-08
1.05854e-08
1.04465e-08
1.05266e-08
1.02688e-08
1.0429e-08
9.73066e-09
1.0517e-08
9.66095e-09
1.54477e-08
1.50736e-08
1.66851e-08
1.60275e-08
1.69421e-08
1.69459e-08
1.6975e-08
1.7308e-08
1.69596e-08
1.7388e-08
1.73188e-08
1.70984e-08
1.73148e-08
1.70241e-08
1.7196e-08
1.67257e-08
1.70253e-08
1.53991e-08
1.67969e-08
1.45067e-08
2.76352e-08
2.73504e-08
3.13112e-08
2.99629e-08
3.20176e-08
3.20414e-08
3.21104e-08
3.28304e-08
3.20583e-08
3.29996e-08
3.28476e-08
3.23597e-08
3.28474e-08
3.22057e-08
3.25974e-08
3.15226e-08
3.21712e-08
2.84756e-08
3.1237e-08
2.56652e-08
5.7014e-08
5.67788e-08
6.46974e-08
6.20794e-08
6.58957e-08
6.58759e-08
6.60165e-08
6.72637e-08
6.58683e-08
6.75434e-08
6.72817e-08
6.64012e-08
6.73085e-08
6.61428e-08
6.6904e-08
6.49073e-08
6.62156e-08
5.9149e-08
6.43777e-08
5.28757e-08
1.12794e-07
1.11472e-07
1.19636e-07
1.16135e-07
1.19989e-07
1.19699e-07
1.19883e-07
1.20969e-07
1.19615e-07
1.21173e-07
1.20965e-07
1.20105e-07
1.21076e-07
1.19875e-07
1.20814e-07
1.18658e-07
1.20599e-07
1.12882e-07
1.19798e-07
1.05883e-07
1.76105e-07
1.72509e-07
1.76253e-07
1.72635e-07
1.74966e-07
1.74278e-07
1.74482e-07
1.74886e-07
1.7415e-07
1.74877e-07
1.74838e-07
1.74383e-07
1.7509e-07
1.74274e-07
1.75171e-07
1.73589e-07
1.75868e-07
1.70632e-07
1.77591e-07
1.68144e-07
2.33588e-07
2.28713e-07
2.30208e-07
2.26261e-07
2.27899e-07
2.26778e-07
2.27062e-07
2.26954e-07
2.26658e-07
2.26753e-07
2.26836e-07
2.26738e-07
2.27293e-07
2.26705e-07
2.27674e-07
2.26398e-07
2.29055e-07
2.25148e-07
2.3231e-07
2.26009e-07
2.95918e-07
2.90597e-07
2.90643e-07
2.86309e-07
2.87352e-07
2.85663e-07
2.86087e-07
2.8532e-07
2.85593e-07
2.8487e-07
2.85109e-07
2.85494e-07
2.85856e-07
2.85533e-07
2.86623e-07
2.85633e-07
2.88796e-07
2.85902e-07
2.93302e-07
2.88909e-07
3.63031e-07
3.57043e-07
3.54047e-07
3.49574e-07
3.49351e-07
3.46988e-07
3.47576e-07
3.45814e-07
3.47036e-07
3.45027e-07
3.45515e-07
3.46621e-07
3.466e-07
3.46754e-07
3.47883e-07
3.47478e-07
3.51116e-07
3.50311e-07
3.57497e-07
3.56514e-07
4.17202e-07
4.10209e-07
4.03762e-07
3.99297e-07
3.97707e-07
3.94785e-07
3.95513e-07
3.92795e-07
3.9499e-07
3.91705e-07
3.92449e-07
3.94241e-07
3.93808e-07
3.94455e-07
3.95543e-07
3.95795e-07
3.99727e-07
4.01281e-07
4.08041e-07
4.11063e-07
)
;

boundaryField
{
    fuel
    {
        type            fixedValue;
        value           uniform 0;
    }
    wall
    {
        type            zeroGradient;
    }
    outlet
    {
        type            zeroGradient;
    }
    frontAndBack
    {
        type            empty;
    }
}


// ************************************************************************* //
