/*--------------------------------*- C++ -*----------------------------------*\
| =========                 |                                                 |
| \\      /  F ield         | OpenFOAM: The Open Source CFD Toolbox           |
|  \\    /   O peration     | Version:  dev                                   |
|   \\  /    A nd           | Web:      www.OpenFOAM.org                      |
|    \\/     M anipulation  |                                                 |
\*---------------------------------------------------------------------------*/
FoamFile
{
    version     2.0;
    format      ascii;
    class       volScalarField;
    location    "0.1";
    object      C4H612;
}
// * * * * * * * * * * * * * * * * * * * * * * * * * * * * * * * * * * * * * //

dimensions      [0 0 0 0 0 0 0];

internalField   nonuniform List<scalar> 
100
(
2.87491e-09
1.62144e-09
6.90133e-10
2.60803e-10
9.0914e-11
3.08904e-11
1.01266e-11
3.28177e-12
1.08624e-12
3.61487e-13
1.25923e-13
4.48838e-14
1.6577e-14
6.3015e-15
2.44089e-15
9.53986e-16
3.73527e-16
1.46038e-16
5.70596e-17
2.23875e-17
8.89792e-18
3.62737e-18
1.54035e-18
6.92667e-19
3.34743e-19
1.74057e-19
9.5337e-20
5.50731e-20
3.33179e-20
2.10289e-20
1.38541e-20
9.72348e-21
7.31653e-21
6.05156e-21
5.62176e-21
5.88339e-21
6.80013e-21
8.4154e-21
1.08361e-20
1.42151e-20
1.88529e-20
2.50543e-20
3.31778e-20
4.33038e-20
5.61572e-20
7.23433e-20
9.25801e-20
1.16002e-19
1.43833e-19
1.77141e-19
2.14601e-19
2.5709e-19
3.04893e-19
3.59638e-19
4.19614e-19
4.81839e-19
5.48933e-19
6.20506e-19
6.96302e-19
7.76159e-19
8.60007e-19
9.47866e-19
1.03983e-18
1.13604e-18
1.23658e-18
1.3415e-18
1.45072e-18
1.56405e-18
1.68083e-18
1.79907e-18
1.91654e-18
2.02787e-18
2.13095e-18
2.22196e-18
2.29731e-18
2.35377e-18
2.38721e-18
2.40281e-18
2.40389e-18
2.39597e-18
2.38638e-18
2.38557e-18
2.40649e-18
2.46124e-18
2.55923e-18
2.692e-18
2.84076e-18
2.95857e-18
2.9822e-18
2.85285e-18
2.54512e-18
2.08563e-18
1.55092e-18
1.0384e-18
6.26175e-19
3.45395e-19
1.80828e-19
9.42474e-20
4.9435e-20
2.18326e-20
)
;

boundaryField
{
    wall
    {
        type            zeroGradient;
    }
    fuel
    {
        type            fixedValue;
        value           uniform 0;
    }
    outlet
    {
        type            inletOutlet;
        inletValue      uniform 0;
        value           uniform 2.18326e-20;
    }
}


// ************************************************************************* //
