/*--------------------------------*- C++ -*----------------------------------*\
| =========                 |                                                 |
| \\      /  F ield         | OpenFOAM: The Open Source CFD Toolbox           |
|  \\    /   O peration     | Version:  dev                                   |
|   \\  /    A nd           | Web:      www.OpenFOAM.org                      |
|    \\/     M anipulation  |                                                 |
\*---------------------------------------------------------------------------*/
FoamFile
{
    version     2.0;
    format      ascii;
    class       volScalarField;
    location    "0.2";
    object      C4H612;
}
// * * * * * * * * * * * * * * * * * * * * * * * * * * * * * * * * * * * * * //

dimensions      [0 0 0 0 0 0 0];

internalField   nonuniform List<scalar> 
100
(
2.05949e-11
6.0851e-11
8.82191e-11
1.00437e-10
9.91476e-11
8.82613e-11
7.2691e-11
5.71135e-11
4.38066e-11
3.3427e-11
2.57727e-11
2.03236e-11
1.65267e-11
1.39695e-11
1.23018e-11
1.12804e-11
1.07363e-11
1.05544e-11
1.06583e-11
1.0999e-11
1.15473e-11
1.2289e-11
1.32218e-11
1.43537e-11
1.57027e-11
1.7296e-11
1.91711e-11
2.13764e-11
2.39724e-11
2.70326e-11
3.06456e-11
3.4916e-11
3.99661e-11
4.59359e-11
5.29816e-11
6.12834e-11
7.0988e-11
8.22593e-11
9.52123e-11
1.09897e-10
1.2638e-10
1.442e-10
1.63061e-10
1.82441e-10
2.01343e-10
2.19007e-10
2.34682e-10
2.47621e-10
2.57621e-10
2.64471e-10
2.68445e-10
2.69931e-10
2.69493e-10
2.67696e-10
2.65112e-10
2.62301e-10
2.59798e-10
2.57941e-10
2.57075e-10
2.57516e-10
2.59473e-10
2.63134e-10
2.68638e-10
2.76086e-10
2.85565e-10
2.97094e-10
3.10749e-10
3.26208e-10
3.4338e-10
3.62315e-10
3.82061e-10
4.02479e-10
4.23039e-10
4.43166e-10
4.62272e-10
4.79777e-10
4.9514e-10
5.07854e-10
5.1749e-10
5.23769e-10
5.2603e-10
5.24435e-10
5.18972e-10
5.09511e-10
4.96602e-10
4.80228e-10
4.60654e-10
4.38148e-10
4.12936e-10
3.85178e-10
3.54676e-10
3.221e-10
2.88009e-10
2.51901e-10
2.17437e-10
1.79862e-10
1.4207e-10
1.00549e-10
6.06939e-11
2.83346e-11
)
;

boundaryField
{
    wall
    {
        type            zeroGradient;
    }
    fuel
    {
        type            fixedValue;
        value           uniform 0;
    }
    outlet
    {
        type            inletOutlet;
        inletValue      uniform 0;
        value           uniform 2.83346e-11;
    }
}


// ************************************************************************* //
