/*--------------------------------*- C++ -*----------------------------------*\
| =========                 |                                                 |
| \\      /  F ield         | OpenFOAM: The Open Source CFD Toolbox           |
|  \\    /   O peration     | Version:  dev                                   |
|   \\  /    A nd           | Web:      www.OpenFOAM.org                      |
|    \\/     M anipulation  |                                                 |
\*---------------------------------------------------------------------------*/
FoamFile
{
    version     2.0;
    format      ascii;
    class       volScalarField;
    location    "0.2";
    object      C5H2;
}
// * * * * * * * * * * * * * * * * * * * * * * * * * * * * * * * * * * * * * //

dimensions      [0 0 0 0 0 0 0];

internalField   nonuniform List<scalar> 
1000
(
4.86332e-09
1.54398e-05
1.79777e-05
1.82277e-05
1.82999e-05
1.82915e-05
1.82929e-05
1.82931e-05
1.82936e-05
1.82914e-05
1.82919e-05
1.82945e-05
1.82923e-05
1.82957e-05
1.82918e-05
1.82914e-05
1.82329e-05
1.76406e-05
1.27032e-05
1.52726e-09
1.31606e-08
2.02101e-05
2.07166e-05
2.05039e-05
2.05434e-05
2.05125e-05
2.0516e-05
2.05144e-05
2.05154e-05
2.05135e-05
2.05132e-05
2.05155e-05
2.05129e-05
2.05147e-05
2.05134e-05
2.05188e-05
2.05318e-05
2.05245e-05
1.96307e-05
2.84188e-09
2.77104e-07
1.16775e-05
1.16019e-05
1.12197e-05
1.12651e-05
1.12185e-05
1.12267e-05
1.12222e-05
1.12242e-05
1.1222e-05
1.12217e-05
1.12237e-05
1.12209e-05
1.12223e-05
1.12217e-05
1.12282e-05
1.12606e-05
1.1414e-05
1.21645e-05
1.65748e-09
1.47243e-05
6.5947e-06
6.4016e-06
6.02719e-06
6.07268e-06
6.02588e-06
6.0351e-06
6.03009e-06
6.03239e-06
6.03007e-06
6.03022e-06
6.03167e-06
6.02926e-06
6.02992e-06
6.03012e-06
6.03592e-06
6.06748e-06
6.21772e-06
7.15493e-06
9.30797e-10
3.46838e-05
4.09596e-06
3.84382e-06
3.5098e-06
3.54912e-06
3.5084e-06
3.51593e-06
3.51211e-06
3.51431e-06
3.51211e-06
3.51262e-06
3.51359e-06
3.51149e-06
3.51133e-06
3.51246e-06
3.51752e-06
3.54507e-06
3.66515e-06
4.46111e-06
6.4749e-10
2.74951e-05
2.77455e-06
2.48328e-06
2.25223e-06
2.28346e-06
2.24992e-06
2.2547e-06
2.25281e-06
2.25472e-06
2.25271e-06
2.25345e-06
2.2541e-06
2.25222e-06
2.25135e-06
2.2533e-06
2.2579e-06
2.28214e-06
2.373e-06
2.98109e-06
5.86359e-10
1.92199e-05
1.98697e-06
1.77885e-06
1.5866e-06
1.60964e-06
1.58243e-06
1.5847e-06
1.58446e-06
1.58612e-06
1.58411e-06
1.58518e-06
1.58563e-06
1.58369e-06
1.58185e-06
1.5851e-06
1.58944e-06
1.61216e-06
1.67963e-06
2.11741e-06
6.70925e-10
1.33695e-05
1.51345e-06
1.37162e-06
1.20939e-06
1.22634e-06
1.20459e-06
1.20573e-06
1.20597e-06
1.20741e-06
1.2056e-06
1.20671e-06
1.20703e-06
1.20524e-06
1.20388e-06
1.20673e-06
1.21056e-06
1.23205e-06
1.28555e-06
1.58129e-06
9.32196e-10
9.477e-06
1.2258e-06
1.10996e-06
9.73251e-07
9.94189e-07
9.77497e-07
9.79297e-07
9.78444e-07
9.7976e-07
9.7828e-07
9.79221e-07
9.79466e-07
9.77892e-07
9.77922e-07
9.79379e-07
9.82037e-07
9.91451e-07
1.03145e-06
1.22973e-06
1.53098e-09
6.89118e-06
1.01922e-06
9.27903e-07
8.23253e-07
8.3622e-07
8.21061e-07
8.23592e-07
8.21461e-07
8.2273e-07
8.2146e-07
8.22345e-07
8.22559e-07
8.20801e-07
8.22697e-07
8.22834e-07
8.26001e-07
8.41242e-07
8.55556e-07
9.88441e-07
2.76551e-09
5.10686e-06
8.74288e-07
8.01325e-07
7.1292e-07
7.22463e-07
7.10023e-07
7.11886e-07
7.10021e-07
7.11249e-07
7.10138e-07
7.1097e-07
7.1117e-07
7.09087e-07
7.11242e-07
7.11659e-07
7.14765e-07
7.29633e-07
7.47106e-07
8.17019e-07
4.84983e-09
3.79937e-06
7.57432e-07
7.061e-07
6.31025e-07
6.38204e-07
6.27352e-07
6.28021e-07
6.27026e-07
6.28291e-07
6.27238e-07
6.28071e-07
6.28284e-07
6.25651e-07
6.26961e-07
6.28968e-07
6.32156e-07
6.47231e-07
6.62247e-07
6.91726e-07
7.82901e-09
2.80082e-06
6.6413e-07
6.28399e-07
5.66088e-07
5.71663e-07
5.6187e-07
5.60936e-07
5.61227e-07
5.6258e-07
5.61682e-07
5.62393e-07
5.62644e-07
5.59211e-07
5.67675e-07
5.63552e-07
5.66779e-07
5.82089e-07
5.9206e-07
5.98381e-07
1.21375e-08
2.03578e-06
5.87805e-07
5.7583e-07
5.12061e-07
5.16424e-07
5.07469e-07
5.11959e-07
5.06453e-07
5.07936e-07
5.07221e-07
5.07763e-07
5.0808e-07
5.03386e-07
5.11842e-07
5.09119e-07
5.12427e-07
5.2797e-07
5.41417e-07
5.22377e-07
1.86045e-08
1.46428e-06
5.27224e-07
5.27253e-07
4.65512e-07
4.68933e-07
4.60619e-07
4.64435e-07
4.59202e-07
4.60915e-07
4.60354e-07
4.60746e-07
4.61165e-07
4.61155e-07
4.63829e-07
4.62264e-07
4.65654e-07
4.81355e-07
4.92777e-07
4.58811e-07
2.80514e-08
1.05238e-06
4.75845e-07
4.80655e-07
4.24425e-07
4.27134e-07
4.19349e-07
4.22284e-07
4.17454e-07
4.19525e-07
4.19065e-07
4.19351e-07
4.19868e-07
4.19399e-07
4.2177e-07
4.21015e-07
4.24463e-07
4.40203e-07
4.50047e-07
4.15439e-07
4.08526e-08
7.65404e-07
4.30034e-07
4.38575e-07
3.87567e-07
3.89763e-07
3.82456e-07
3.84681e-07
3.79931e-07
3.82542e-07
3.82132e-07
3.82354e-07
3.82962e-07
3.81932e-07
3.84411e-07
3.84151e-07
3.87622e-07
4.03252e-07
4.12224e-07
3.80147e-07
5.65048e-08
5.70914e-07
3.89461e-07
3.99389e-07
3.54115e-07
3.55985e-07
3.4914e-07
3.50846e-07
3.45729e-07
3.49158e-07
3.4876e-07
3.48942e-07
3.49631e-07
3.47793e-07
3.50836e-07
3.50859e-07
3.54311e-07
3.69671e-07
3.78322e-07
3.51255e-07
7.38146e-08
4.4242e-07
3.53943e-07
3.70167e-07
3.23479e-07
3.25205e-07
3.18822e-07
3.202e-07
3.18211e-07
3.18796e-07
3.18385e-07
3.18533e-07
3.19293e-07
3.16188e-07
3.20378e-07
3.20548e-07
3.23944e-07
3.38874e-07
3.476e-07
3.27468e-07
9.11864e-08
3.4603e-07
3.22435e-07
3.41406e-07
2.95138e-07
2.96954e-07
2.9105e-07
2.92189e-07
2.89962e-07
2.9098e-07
2.9056e-07
2.90671e-07
2.91505e-07
2.90367e-07
2.92558e-07
2.9276e-07
2.96068e-07
3.10398e-07
3.19497e-07
3.05424e-07
1.0712e-07
2.87665e-07
2.94212e-07
3.1228e-07
2.71452e-07
2.7082e-07
2.65436e-07
2.66388e-07
2.63714e-07
2.6532e-07
2.64899e-07
2.64967e-07
2.65868e-07
2.66057e-07
2.66921e-07
2.671e-07
2.70296e-07
2.837e-07
2.93594e-07
2.8604e-07
1.20713e-07
2.49123e-07
2.68714e-07
2.85376e-07
2.48353e-07
2.46347e-07
2.41621e-07
2.42405e-07
2.42061e-07
2.41448e-07
2.41033e-07
2.41033e-07
2.42014e-07
2.41941e-07
2.43051e-07
2.43194e-07
2.4627e-07
2.59011e-07
2.69557e-07
2.69123e-07
1.3162e-07
2.20393e-07
2.45473e-07
2.60297e-07
2.28089e-07
2.26445e-07
2.21885e-07
2.22658e-07
2.22179e-07
2.21733e-07
2.2131e-07
2.2115e-07
2.22318e-07
2.22098e-07
2.2332e-07
2.23435e-07
2.26369e-07
2.38188e-07
2.47116e-07
2.53134e-07
1.39965e-07
2.00327e-07
2.24121e-07
2.36556e-07
2.08135e-07
2.06401e-07
2.02089e-07
2.0277e-07
2.02173e-07
2.01882e-07
2.01445e-07
2.01553e-07
2.02545e-07
2.02151e-07
2.03512e-07
2.03588e-07
2.0646e-07
2.18169e-07
2.25881e-07
2.38052e-07
1.46005e-07
1.8536e-07
2.04362e-07
2.13536e-07
1.90458e-07
1.88944e-07
1.8488e-07
1.85509e-07
1.84838e-07
1.84665e-07
1.84235e-07
1.84195e-07
1.8536e-07
1.8485e-07
1.86262e-07
1.86318e-07
1.89027e-07
2.00007e-07
2.07924e-07
2.2342e-07
1.49721e-07
1.70878e-07
1.86026e-07
1.9506e-07
1.73882e-07
1.72568e-07
1.68759e-07
1.6933e-07
1.6861e-07
1.68534e-07
1.68114e-07
1.68032e-07
1.69243e-07
1.68626e-07
1.7008e-07
1.70128e-07
1.72627e-07
1.82918e-07
1.89514e-07
2.08896e-07
1.5108e-07
1.56969e-07
1.68794e-07
1.77599e-07
1.58244e-07
1.57141e-07
1.53569e-07
1.5409e-07
1.53334e-07
1.53336e-07
1.52927e-07
1.52818e-07
1.54038e-07
1.53332e-07
1.54821e-07
1.54864e-07
1.57162e-07
1.66735e-07
1.73052e-07
1.94567e-07
1.50284e-07
1.45237e-07
1.52468e-07
1.61127e-07
1.43425e-07
1.42558e-07
1.39188e-07
1.39672e-07
1.38886e-07
1.38955e-07
1.38554e-07
1.38418e-07
1.39628e-07
1.38858e-07
1.40369e-07
1.40409e-07
1.42515e-07
1.51345e-07
1.5728e-07
1.78553e-07
1.47277e-07
1.35485e-07
1.36989e-07
1.45461e-07
1.29359e-07
1.28698e-07
1.25536e-07
1.25985e-07
1.25178e-07
1.25303e-07
1.24909e-07
1.24749e-07
1.25938e-07
1.25127e-07
1.26642e-07
1.26678e-07
1.28606e-07
1.36672e-07
1.42146e-07
1.61905e-07
1.42136e-07
1.24711e-07
1.2307e-07
1.30576e-07
1.15998e-07
1.15524e-07
1.12574e-07
1.12989e-07
1.12169e-07
1.12345e-07
1.11952e-07
1.11772e-07
1.12931e-07
1.12101e-07
1.13604e-07
1.13633e-07
1.154e-07
1.22679e-07
1.27665e-07
1.47323e-07
1.35091e-07
1.12437e-07
1.09951e-07
1.16489e-07
1.03344e-07
1.03044e-07
1.00312e-07
1.00694e-07
9.98661e-08
1.00098e-07
9.96914e-08
9.94976e-08
1.00615e-07
9.97868e-08
1.01267e-07
1.01284e-07
1.02908e-07
1.09372e-07
1.13899e-07
1.329e-07
1.26397e-07
1.02264e-07
9.76587e-08
1.03275e-07
9.14495e-08
9.13162e-08
8.88115e-08
8.91592e-08
8.83251e-08
8.86321e-08
8.81867e-08
8.79864e-08
8.90499e-08
8.82412e-08
8.96911e-08
8.96888e-08
9.1186e-08
9.68184e-08
1.00973e-07
1.18768e-07
1.16444e-07
9.20505e-08
8.62608e-08
9.10735e-08
8.04126e-08
8.00316e-08
7.79372e-08
7.82431e-08
7.76441e-08
7.77757e-08
7.75375e-08
7.73391e-08
7.83335e-08
7.75624e-08
7.871e-08
7.86898e-08
7.99148e-08
8.51339e-08
8.8079e-08
1.05139e-07
1.05723e-07
8.2356e-08
7.54061e-08
7.89235e-08
7.0375e-08
7.00622e-08
6.82417e-08
6.85075e-08
6.79516e-08
6.81218e-08
6.78699e-08
6.76797e-08
6.85902e-08
6.78742e-08
6.89289e-08
6.88882e-08
6.99597e-08
7.44644e-08
7.66163e-08
9.23148e-08
9.47673e-08
7.32546e-08
6.61062e-08
6.88089e-08
6.14689e-08
6.11993e-08
5.96474e-08
5.98711e-08
5.93683e-08
5.95519e-08
5.93059e-08
5.91295e-08
5.9944e-08
5.92973e-08
6.02453e-08
6.01908e-08
6.11083e-08
6.49465e-08
6.67475e-08
8.05748e-08
8.40873e-08
6.49143e-08
5.80395e-08
5.99632e-08
5.37917e-08
5.35382e-08
5.22459e-08
5.24276e-08
5.19859e-08
5.21612e-08
5.19382e-08
5.17789e-08
5.24905e-08
5.19222e-08
5.27529e-08
5.26929e-08
5.34672e-08
5.66852e-08
5.81955e-08
7.01344e-08
7.41006e-08
5.74803e-08
5.12391e-08
5.24561e-08
4.73889e-08
4.71275e-08
4.60796e-08
4.622e-08
4.5844e-08
4.59987e-08
4.58068e-08
4.56662e-08
4.62741e-08
4.57876e-08
4.64979e-08
4.6439e-08
4.7088e-08
4.97393e-08
5.10199e-08
6.11386e-08
6.52037e-08
5.10979e-08
4.56825e-08
4.63127e-08
4.22377e-08
4.19603e-08
4.11292e-08
4.12314e-08
4.09201e-08
4.10495e-08
4.08897e-08
4.0768e-08
4.12779e-08
4.08708e-08
4.1466e-08
4.14124e-08
4.19571e-08
4.41035e-08
4.52092e-08
5.36434e-08
5.75772e-08
4.58664e-08
4.13011e-08
4.14907e-08
3.82578e-08
3.79694e-08
3.7318e-08
3.73871e-08
3.71347e-08
3.72385e-08
3.71079e-08
3.70045e-08
3.74259e-08
3.70924e-08
3.75834e-08
3.75375e-08
3.79977e-08
3.9709e-08
4.06827e-08
4.76079e-08
5.12679e-08
4.17166e-08
3.80022e-08
3.78507e-08
3.53317e-08
3.50292e-08
3.45267e-08
3.45653e-08
3.43649e-08
3.44447e-08
3.4339e-08
3.42518e-08
3.45967e-08
3.43288e-08
3.47291e-08
3.46927e-08
3.50852e-08
3.64332e-08
3.73057e-08
4.29142e-08
4.62229e-08
3.85791e-08
3.5639e-08
3.52363e-08
3.33026e-08
3.29892e-08
3.2603e-08
3.2615e-08
3.24579e-08
3.25165e-08
3.24307e-08
3.23573e-08
3.26394e-08
3.24267e-08
3.27518e-08
3.27244e-08
3.30646e-08
3.41157e-08
3.49088e-08
3.94043e-08
4.23377e-08
3.63301e-08
3.40226e-08
3.34644e-08
3.19731e-08
3.16514e-08
3.13767e-08
3.13667e-08
3.12439e-08
3.12848e-08
3.12136e-08
3.11519e-08
3.13846e-08
3.12164e-08
3.14807e-08
3.14616e-08
3.17543e-08
3.25633e-08
3.33018e-08
3.68768e-08
3.94384e-08
3.48057e-08
3.29996e-08
3.23408e-08
3.11999e-08
3.08813e-08
3.06716e-08
3.0645e-08
3.05475e-08
3.05745e-08
3.0513e-08
3.04613e-08
3.06561e-08
3.05229e-08
3.07393e-08
3.07272e-08
3.09839e-08
3.16127e-08
3.22889e-08
3.51147e-08
3.73227e-08
3.38182e-08
3.23738e-08
3.16729e-08
3.07896e-08
3.04825e-08
3.03187e-08
3.02806e-08
3.02011e-08
3.02178e-08
3.01617e-08
3.01188e-08
3.02847e-08
3.01789e-08
3.03579e-08
3.03515e-08
3.05788e-08
3.10685e-08
3.16828e-08
3.39055e-08
3.57841e-08
3.31829e-08
3.19869e-08
3.12896e-08
3.05926e-08
3.03049e-08
3.01725e-08
3.01276e-08
3.00603e-08
3.00699e-08
3.00159e-08
2.99812e-08
3.01245e-08
3.00405e-08
3.01897e-08
3.01878e-08
3.03892e-08
3.0772e-08
3.13229e-08
3.30619e-08
3.46379e-08
3.27471e-08
3.17219e-08
3.106e-08
3.0499e-08
3.02366e-08
3.01255e-08
3.00776e-08
3.00186e-08
3.00236e-08
2.99696e-08
2.99429e-08
3.0067e-08
3.00015e-08
3.01257e-08
3.0128e-08
3.03047e-08
3.06052e-08
3.10918e-08
3.2442e-08
3.37441e-08
3.24106e-08
3.15109e-08
3.09024e-08
3.04438e-08
3.02099e-08
3.01137e-08
3.00653e-08
3.00124e-08
3.00143e-08
2.99594e-08
2.99405e-08
3.00476e-08
2.99982e-08
3.01006e-08
3.01072e-08
3.02599e-08
3.04967e-08
3.09206e-08
3.19587e-08
3.30193e-08
3.21277e-08
3.13283e-08
3.07792e-08
3.03997e-08
3.01941e-08
3.01086e-08
3.00613e-08
3.00131e-08
3.00131e-08
2.99568e-08
2.99453e-08
3.00372e-08
3.00021e-08
3.00853e-08
3.00962e-08
3.02266e-08
3.04148e-08
3.07808e-08
3.15735e-08
3.243e-08
3.18943e-08
3.11765e-08
3.06822e-08
3.03623e-08
3.01812e-08
3.01037e-08
3.00582e-08
3.00135e-08
3.00125e-08
2.99548e-08
2.99497e-08
3.0029e-08
3.00057e-08
3.0073e-08
3.00881e-08
3.01993e-08
3.03522e-08
3.06697e-08
3.12809e-08
3.19783e-08
3.1737e-08
3.10748e-08
3.06191e-08
3.03369e-08
3.01726e-08
3.01e-08
3.0056e-08
3.00136e-08
3.00122e-08
2.99535e-08
2.99526e-08
3.00237e-08
3.00081e-08
3.00651e-08
3.0083e-08
3.01811e-08
3.03131e-08
3.05979e-08
3.10982e-08
3.16951e-08
)
;

boundaryField
{
    fuel
    {
        type            fixedValue;
        value           uniform 0;
    }
    wall
    {
        type            zeroGradient;
    }
    outlet
    {
        type            zeroGradient;
    }
    frontAndBack
    {
        type            empty;
    }
}


// ************************************************************************* //
