/*--------------------------------*- C++ -*----------------------------------*\
| =========                 |                                                 |
| \\      /  F ield         | OpenFOAM: The Open Source CFD Toolbox           |
|  \\    /   O peration     | Version:  dev                                   |
|   \\  /    A nd           | Web:      www.OpenFOAM.org                      |
|    \\/     M anipulation  |                                                 |
\*---------------------------------------------------------------------------*/
FoamFile
{
    version     2.0;
    format      ascii;
    class       volScalarField;
    location    "0.2";
    object      C5H2;
}
// * * * * * * * * * * * * * * * * * * * * * * * * * * * * * * * * * * * * * //

dimensions      [0 0 0 0 0 0 0];

internalField   nonuniform List<scalar> 
1000
(
1.54126e-09
1.38075e-05
1.8061e-05
1.85839e-05
1.86384e-05
1.86429e-05
1.86457e-05
1.86425e-05
1.86459e-05
1.8644e-05
1.86452e-05
1.86455e-05
1.86463e-05
1.86454e-05
1.86457e-05
1.86469e-05
1.85858e-05
1.83407e-05
1.58941e-05
2.9843e-09
2.81136e-09
1.99609e-05
2.06314e-05
2.06325e-05
2.06186e-05
2.06164e-05
2.06166e-05
2.06138e-05
2.06171e-05
2.06148e-05
2.06172e-05
2.06173e-05
2.06178e-05
2.0619e-05
2.06143e-05
2.06395e-05
2.06092e-05
2.07638e-05
2.03743e-05
6.62935e-09
1.73212e-09
1.22066e-05
1.14348e-05
1.1286e-05
1.12528e-05
1.1249e-05
1.12484e-05
1.12458e-05
1.1249e-05
1.12466e-05
1.12491e-05
1.12497e-05
1.12488e-05
1.12535e-05
1.12437e-05
1.12836e-05
1.12496e-05
1.15564e-05
1.182e-05
9.51169e-09
1.00115e-09
7.14768e-06
6.2189e-06
6.07107e-06
6.03889e-06
6.03507e-06
6.03404e-06
6.03207e-06
6.03479e-06
6.03275e-06
6.03492e-06
6.03593e-06
6.03454e-06
6.03918e-06
6.03006e-06
6.06942e-06
6.03458e-06
6.34506e-06
6.69363e-06
5.01102e-07
6.93838e-10
4.46721e-06
3.67036e-06
3.54836e-06
3.5206e-06
3.51711e-06
3.51522e-06
3.51431e-06
3.51656e-06
3.5149e-06
3.5168e-06
3.51794e-06
3.51655e-06
3.51945e-06
3.51335e-06
3.54691e-06
3.51645e-06
3.80128e-06
4.15213e-06
1.7267e-05
5.99591e-10
3.0052e-06
2.38399e-06
2.28616e-06
2.26243e-06
2.25915e-06
2.25577e-06
2.2565e-06
2.25828e-06
2.25695e-06
2.25869e-06
2.25978e-06
2.25852e-06
2.25916e-06
2.25655e-06
2.28381e-06
2.25939e-06
2.45947e-06
2.84539e-06
2.51624e-05
6.43434e-10
2.152e-06
1.69713e-06
1.61527e-06
1.59399e-06
1.5906e-06
1.58501e-06
1.58767e-06
1.58915e-06
1.58781e-06
1.5898e-06
1.59078e-06
1.5896e-06
1.58705e-06
1.58883e-06
1.61126e-06
1.59283e-06
1.7636e-06
2.04954e-06
1.9143e-05
8.21459e-10
1.61943e-06
1.2722e-06
1.23804e-06
1.21408e-06
1.21024e-06
1.20366e-06
1.207e-06
1.20809e-06
1.20686e-06
1.20886e-06
1.20974e-06
1.20856e-06
1.20519e-06
1.20896e-06
1.22895e-06
1.21827e-06
1.34283e-06
1.565e-06
1.33991e-05
1.20334e-09
1.26756e-06
1.03497e-06
9.81579e-07
9.73246e-07
9.72444e-07
9.73259e-07
9.7087e-07
9.71619e-07
9.70434e-07
9.72463e-07
9.73232e-07
9.72008e-07
9.74327e-07
9.71376e-07
9.81461e-07
9.6611e-07
1.09304e-06
1.26859e-06
9.4714e-06
2.02689e-09
1.02374e-06
8.64345e-07
8.35741e-07
8.23221e-07
8.21024e-07
8.23161e-07
8.19158e-07
8.19427e-07
8.18142e-07
8.20452e-07
8.21194e-07
8.19561e-07
8.23863e-07
8.19994e-07
8.31351e-07
8.21061e-07
9.14287e-07
1.04969e-06
6.75475e-06
3.59767e-09
8.48381e-07
7.42048e-07
7.26107e-07
7.11684e-07
7.09386e-07
7.09664e-07
7.07472e-07
7.07604e-07
7.06645e-07
7.08429e-07
7.09052e-07
7.07137e-07
7.086e-07
7.08456e-07
7.17988e-07
7.11881e-07
7.89603e-07
8.96932e-07
4.79498e-06
6.08901e-09
7.18594e-07
6.61497e-07
6.43602e-07
6.292e-07
6.26778e-07
6.26999e-07
6.24946e-07
6.25092e-07
6.24644e-07
6.2559e-07
6.26124e-07
6.23711e-07
6.32525e-07
6.25837e-07
6.34231e-07
6.29981e-07
6.95556e-07
7.73572e-07
3.36521e-06
9.69608e-09
6.20348e-07
5.92345e-07
5.78512e-07
5.63982e-07
5.6147e-07
5.66544e-07
5.59686e-07
5.60054e-07
5.60175e-07
5.60113e-07
5.60578e-07
5.57366e-07
5.65417e-07
5.60406e-07
5.68055e-07
5.65125e-07
6.19172e-07
6.75096e-07
2.33805e-06
1.48574e-08
5.45062e-07
5.40336e-07
5.24638e-07
5.09846e-07
5.0721e-07
5.09727e-07
5.05374e-07
5.06167e-07
5.06613e-07
5.05745e-07
5.06171e-07
5.01717e-07
5.09057e-07
5.06036e-07
5.13178e-07
5.11325e-07
5.66536e-07
5.94933e-07
1.61608e-06
2.20068e-08
4.81076e-07
4.93982e-07
4.78348e-07
4.63353e-07
4.60613e-07
4.61617e-07
4.5855e-07
4.59906e-07
4.60347e-07
4.59042e-07
4.59471e-07
4.59686e-07
4.61258e-07
4.59333e-07
4.6609e-07
4.65061e-07
5.19848e-07
5.32789e-07
1.1263e-06
3.15133e-08
4.25913e-07
4.50781e-07
4.37496e-07
4.22472e-07
4.19672e-07
4.19875e-07
4.17177e-07
4.19199e-07
4.19416e-07
4.17987e-07
4.18419e-07
4.18243e-07
4.19591e-07
4.18295e-07
4.24711e-07
4.24251e-07
4.74076e-07
4.80419e-07
8.00145e-07
4.36438e-08
3.87262e-07
4.12632e-07
4.00757e-07
3.85932e-07
3.83126e-07
3.82907e-07
3.79961e-07
3.82768e-07
3.8269e-07
3.81327e-07
3.81758e-07
3.8117e-07
3.82603e-07
3.81666e-07
3.87745e-07
3.8764e-07
4.32918e-07
4.33166e-07
5.86345e-07
5.77871e-08
3.55337e-07
3.7844e-07
3.67215e-07
3.52892e-07
3.50132e-07
3.49701e-07
3.45994e-07
3.49788e-07
3.49442e-07
3.4823e-07
3.48647e-07
3.47587e-07
3.49334e-07
3.48607e-07
3.5434e-07
3.544e-07
3.94956e-07
3.91855e-07
4.48851e-07
7.30381e-08
3.28432e-07
3.47446e-07
3.3613e-07
3.22748e-07
3.2009e-07
3.19589e-07
3.18623e-07
3.19697e-07
3.19134e-07
3.18102e-07
3.18492e-07
3.16859e-07
3.19118e-07
3.18521e-07
3.23892e-07
3.23938e-07
3.66366e-07
3.55845e-07
3.50213e-07
8.81372e-08
3.05323e-07
3.19106e-07
3.0686e-07
2.95034e-07
2.92535e-07
2.92011e-07
2.90491e-07
2.92045e-07
2.91336e-07
2.90486e-07
2.90834e-07
2.88518e-07
2.91464e-07
2.90947e-07
2.95935e-07
2.9573e-07
3.37271e-07
3.24027e-07
2.91812e-07
1.01864e-07
2.85018e-07
2.93044e-07
2.82766e-07
2.69357e-07
2.67071e-07
2.66562e-07
2.64323e-07
2.66474e-07
2.65669e-07
2.64991e-07
2.65301e-07
2.65519e-07
2.65981e-07
2.65495e-07
2.70066e-07
2.72201e-07
3.08803e-07
2.95593e-07
2.50415e-07
1.13368e-07
2.65392e-07
2.68854e-07
2.59015e-07
2.45316e-07
2.43333e-07
2.42883e-07
2.42709e-07
2.42644e-07
2.41771e-07
2.41253e-07
2.41539e-07
2.42038e-07
2.42233e-07
2.41809e-07
2.4585e-07
2.49004e-07
2.82372e-07
2.69963e-07
2.23848e-07
1.22358e-07
2.46895e-07
2.46221e-07
2.38273e-07
2.25245e-07
2.23684e-07
2.23275e-07
2.22845e-07
2.2292e-07
2.22007e-07
2.2161e-07
2.21945e-07
2.22494e-07
2.22631e-07
2.2217e-07
2.26064e-07
2.28828e-07
2.57663e-07
2.46666e-07
2.03004e-07
1.28877e-07
2.31415e-07
2.24756e-07
2.18196e-07
2.06534e-07
2.03833e-07
2.03449e-07
2.02748e-07
2.03002e-07
2.01996e-07
2.01711e-07
2.02166e-07
2.02545e-07
2.02751e-07
2.0235e-07
2.0598e-07
2.0884e-07
2.34235e-07
2.25301e-07
1.87358e-07
1.33102e-07
2.16497e-07
2.06578e-07
1.99993e-07
1.89031e-07
1.86609e-07
1.86254e-07
1.85386e-07
1.85742e-07
1.84713e-07
1.84522e-07
1.85052e-07
1.8523e-07
1.85556e-07
1.85174e-07
1.88596e-07
1.91149e-07
2.11664e-07
2.05491e-07
1.7425e-07
1.35241e-07
2.02061e-07
1.8877e-07
1.82892e-07
1.72571e-07
1.70441e-07
1.70111e-07
1.6912e-07
1.69559e-07
1.68516e-07
1.68399e-07
1.68948e-07
1.68963e-07
1.69421e-07
1.69058e-07
1.72305e-07
1.74466e-07
1.93504e-07
1.87024e-07
1.63332e-07
1.35253e-07
1.87951e-07
1.72275e-07
1.66703e-07
1.57054e-07
1.55183e-07
1.54872e-07
1.53802e-07
1.54305e-07
1.53257e-07
1.53201e-07
1.53722e-07
1.5364e-07
1.54201e-07
1.53864e-07
1.56927e-07
1.58756e-07
1.76285e-07
1.69689e-07
1.52787e-07
1.33108e-07
1.72839e-07
1.56513e-07
1.51312e-07
1.42361e-07
1.40718e-07
1.40418e-07
1.39312e-07
1.39862e-07
1.3882e-07
1.38811e-07
1.39283e-07
1.3915e-07
1.39782e-07
1.39472e-07
1.42346e-07
1.43903e-07
1.5991e-07
1.53284e-07
1.42244e-07
1.29094e-07
1.56699e-07
1.41438e-07
1.3665e-07
1.28419e-07
1.26971e-07
1.26676e-07
1.25569e-07
1.26152e-07
1.25124e-07
1.25152e-07
1.25567e-07
1.25413e-07
1.26085e-07
1.25801e-07
1.28483e-07
1.298e-07
1.44325e-07
1.37673e-07
1.32436e-07
1.23421e-07
1.42527e-07
1.27047e-07
1.22675e-07
1.1519e-07
1.13906e-07
1.13607e-07
1.12536e-07
1.13137e-07
1.12133e-07
1.12187e-07
1.12541e-07
1.12389e-07
1.13077e-07
1.12815e-07
1.15299e-07
1.16393e-07
1.29515e-07
1.23734e-07
1.22047e-07
1.16278e-07
1.28594e-07
1.13386e-07
1.0939e-07
1.02685e-07
1.01535e-07
1.01217e-07
1.00224e-07
1.00828e-07
9.98612e-08
9.99319e-08
1.00219e-07
1.00093e-07
1.00773e-07
1.00528e-07
1.02807e-07
1.03688e-07
1.15504e-07
1.10561e-07
1.10392e-07
1.07949e-07
1.15027e-07
1.00557e-07
9.68462e-08
9.09675e-08
8.9921e-08
8.95672e-08
8.86949e-08
8.92841e-08
8.83697e-08
8.84486e-08
8.86555e-08
8.85869e-08
8.92343e-08
8.90014e-08
9.10661e-08
9.17437e-08
1.02368e-07
9.82084e-08
1.00517e-07
9.88087e-08
1.01997e-07
8.79624e-08
8.51634e-08
7.97132e-08
7.88207e-08
7.87565e-08
7.76354e-08
7.82439e-08
7.73567e-08
7.74722e-08
7.79489e-08
7.75688e-08
7.82165e-08
7.80125e-08
7.98373e-08
8.06604e-08
9.02409e-08
8.67574e-08
9.03413e-08
8.92981e-08
8.97454e-08
7.63677e-08
7.44908e-08
6.97808e-08
6.89949e-08
6.89259e-08
6.79261e-08
6.84936e-08
6.7683e-08
6.7798e-08
6.82277e-08
6.78856e-08
6.84726e-08
6.82842e-08
6.98733e-08
7.05784e-08
7.82128e-08
7.58033e-08
8.0895e-08
7.98741e-08
7.85308e-08
6.65808e-08
6.49676e-08
6.09581e-08
6.02751e-08
6.02043e-08
5.93346e-08
5.98491e-08
5.91257e-08
5.92351e-08
5.9613e-08
5.93124e-08
5.98317e-08
5.9664e-08
6.10218e-08
6.16309e-08
6.81957e-08
6.64462e-08
7.20296e-08
7.09626e-08
6.85519e-08
5.80914e-08
5.67043e-08
5.33448e-08
5.27579e-08
5.26902e-08
5.1949e-08
5.24025e-08
5.1772e-08
5.18724e-08
5.2197e-08
5.19373e-08
5.23855e-08
5.22443e-08
5.33795e-08
5.39157e-08
5.94519e-08
5.83146e-08
6.39155e-08
6.29121e-08
5.99502e-08
5.09608e-08
4.97601e-08
4.69897e-08
4.64888e-08
4.64284e-08
4.58069e-08
4.61963e-08
4.56584e-08
4.57481e-08
4.60205e-08
4.58009e-08
4.61777e-08
4.60668e-08
4.69934e-08
4.74787e-08
5.20496e-08
5.14519e-08
5.67027e-08
5.59283e-08
5.27702e-08
4.51796e-08
4.41279e-08
4.18773e-08
4.14506e-08
4.13992e-08
4.08849e-08
4.12106e-08
4.07609e-08
4.08396e-08
4.10633e-08
4.08825e-08
4.11913e-08
4.11119e-08
4.18489e-08
4.2303e-08
4.5992e-08
4.5851e-08
5.04976e-08
5.00924e-08
4.69733e-08
4.06702e-08
3.97359e-08
3.79317e-08
3.7567e-08
3.75241e-08
3.71031e-08
3.73686e-08
3.69988e-08
3.70669e-08
3.72477e-08
3.71034e-08
3.7351e-08
3.73008e-08
3.78757e-08
3.8307e-08
4.12298e-08
4.14392e-08
4.53782e-08
4.54266e-08
4.24774e-08
3.73041e-08
3.6463e-08
3.50328e-08
3.47159e-08
3.46806e-08
3.43372e-08
3.45499e-08
3.42482e-08
3.43063e-08
3.44514e-08
3.43397e-08
3.45357e-08
3.45101e-08
3.49563e-08
3.53632e-08
3.76576e-08
3.81009e-08
4.13645e-08
4.18329e-08
3.91231e-08
3.49136e-08
3.41494e-08
3.30258e-08
3.27435e-08
3.27144e-08
3.24337e-08
3.26022e-08
3.23559e-08
3.24059e-08
3.25223e-08
3.24389e-08
3.25923e-08
3.2588e-08
3.29329e-08
3.33208e-08
3.50979e-08
3.57074e-08
3.83393e-08
3.91541e-08
3.67147e-08
3.33095e-08
3.25983e-08
3.1712e-08
3.14781e-08
3.14538e-08
3.12229e-08
3.13558e-08
3.11529e-08
3.11964e-08
3.12909e-08
3.12307e-08
3.13505e-08
3.13639e-08
3.16111e-08
3.19814e-08
3.3368e-08
3.40679e-08
3.61776e-08
3.72004e-08
3.50403e-08
3.22976e-08
3.16475e-08
3.09541e-08
3.07424e-08
3.07213e-08
3.05293e-08
3.06346e-08
3.04645e-08
3.05027e-08
3.05817e-08
3.05397e-08
3.06344e-08
3.06612e-08
3.08504e-08
3.12014e-08
3.2275e-08
3.30289e-08
3.47173e-08
3.57745e-08
3.38917e-08
3.16913e-08
3.11017e-08
3.05579e-08
3.03657e-08
3.03465e-08
3.01852e-08
3.02694e-08
3.01238e-08
3.01574e-08
3.02264e-08
3.0198e-08
3.02745e-08
3.03106e-08
3.04588e-08
3.0787e-08
3.16282e-08
3.23919e-08
3.3773e-08
3.46994e-08
3.30861e-08
3.13305e-08
3.08028e-08
3.0375e-08
3.02012e-08
3.0183e-08
3.00466e-08
3.01143e-08
2.99877e-08
3.00168e-08
3.008e-08
3.0061e-08
3.01249e-08
3.01664e-08
3.02872e-08
3.05878e-08
3.12585e-08
3.19974e-08
3.31637e-08
3.38426e-08
3.24861e-08
3.10982e-08
3.06327e-08
3.02957e-08
3.01402e-08
3.01221e-08
3.0007e-08
3.0061e-08
2.99502e-08
2.99745e-08
3.00346e-08
3.00222e-08
3.00771e-08
3.0121e-08
3.02236e-08
3.0493e-08
3.10372e-08
3.17269e-08
3.27413e-08
3.31286e-08
3.20095e-08
3.09257e-08
3.05205e-08
3.02551e-08
3.01177e-08
3.00992e-08
3.00027e-08
3.00448e-08
2.99481e-08
2.99671e-08
3.00259e-08
3.00179e-08
3.00663e-08
3.01104e-08
3.02002e-08
3.04372e-08
3.08845e-08
3.15116e-08
3.24099e-08
3.25327e-08
3.16225e-08
3.07847e-08
3.04344e-08
3.02249e-08
3.01048e-08
3.00855e-08
3.00053e-08
3.00366e-08
2.99527e-08
2.99663e-08
3.00248e-08
3.00197e-08
3.00631e-08
3.0106e-08
3.01864e-08
3.03927e-08
3.07641e-08
3.13253e-08
3.21273e-08
3.20657e-08
3.13237e-08
3.06726e-08
3.0368e-08
3.01997e-08
3.00945e-08
3.00743e-08
3.00074e-08
3.00298e-08
2.99566e-08
2.99653e-08
3.00239e-08
3.00206e-08
3.00603e-08
3.01015e-08
3.01748e-08
3.03549e-08
3.06685e-08
3.11705e-08
3.18922e-08
3.17681e-08
3.1135e-08
3.06001e-08
3.0326e-08
3.01828e-08
3.00879e-08
3.0067e-08
3.00087e-08
3.00252e-08
2.99592e-08
2.99643e-08
3.00232e-08
3.00208e-08
3.00583e-08
3.00979e-08
3.01667e-08
3.03292e-08
3.06061e-08
3.10667e-08
3.17329e-08
)
;

boundaryField
{
    fuel
    {
        type            fixedValue;
        value           uniform 0;
    }
    wall
    {
        type            zeroGradient;
    }
    outlet
    {
        type            zeroGradient;
    }
    frontAndBack
    {
        type            empty;
    }
}


// ************************************************************************* //
