/*--------------------------------*- C++ -*----------------------------------*\
| =========                 |                                                 |
| \\      /  F ield         | OpenFOAM: The Open Source CFD Toolbox           |
|  \\    /   O peration     | Version:  dev                                   |
|   \\  /    A nd           | Web:      www.OpenFOAM.org                      |
|    \\/     M anipulation  |                                                 |
\*---------------------------------------------------------------------------*/
FoamFile
{
    version     2.0;
    format      ascii;
    class       volScalarField;
    location    "0.2";
    object      C5H5O;
}
// * * * * * * * * * * * * * * * * * * * * * * * * * * * * * * * * * * * * * //

dimensions      [0 0 0 0 0 0 0];

internalField   nonuniform List<scalar> 
1000
(
7.08723e-07
6.81237e-08
4.3133e-08
4.06069e-08
4.03132e-08
4.02855e-08
4.02733e-08
4.02798e-08
4.02782e-08
4.02801e-08
4.02772e-08
4.0277e-08
4.02766e-08
4.02784e-08
4.02775e-08
4.03173e-08
4.05455e-08
4.20614e-08
5.38477e-08
1.24064e-06
1.64862e-06
7.62127e-09
4.22773e-09
3.93889e-09
3.90448e-09
3.90138e-09
3.90028e-09
3.90066e-09
3.90084e-09
3.90074e-09
3.90075e-09
3.90077e-09
3.90033e-09
3.90201e-09
3.89943e-09
3.91007e-09
3.92819e-09
4.13359e-09
6.11683e-09
3.13072e-06
2.23157e-06
1.8347e-09
5.90341e-10
5.34809e-10
5.28086e-10
5.27501e-10
5.27352e-10
5.27363e-10
5.27455e-10
5.27385e-10
5.27443e-10
5.27463e-10
5.27313e-10
5.27921e-10
5.26867e-10
5.30382e-10
5.31681e-10
5.79486e-10
1.85654e-09
3.93758e-06
2.58922e-06
1.07031e-09
1.26445e-10
1.09409e-10
1.0736e-10
1.07184e-10
1.07144e-10
1.07144e-10
1.0718e-10
1.07152e-10
1.07175e-10
1.0719e-10
1.07135e-10
1.07352e-10
1.06951e-10
1.08315e-10
1.08178e-10
1.2471e-10
6.02704e-10
1.12191e-06
2.8308e-06
9.28483e-10
3.6638e-11
2.98684e-11
2.90839e-11
2.90164e-11
2.8996e-11
2.90005e-11
2.9017e-11
2.90052e-11
2.90141e-11
2.90238e-11
2.90015e-11
2.90813e-11
2.89264e-11
2.95182e-11
2.93163e-11
3.6477e-11
1.57049e-10
1.05476e-07
3.00014e-06
9.01651e-10
1.28188e-11
9.64192e-12
9.30501e-12
9.27566e-12
9.2595e-12
9.26868e-12
9.27614e-12
9.27158e-12
9.27432e-12
9.27989e-12
9.27061e-12
9.29835e-12
9.23997e-12
9.51217e-12
9.38111e-12
1.22669e-11
4.93444e-11
1.16102e-08
3.09007e-06
8.94724e-10
5.20911e-12
3.46178e-12
3.30386e-12
3.28908e-12
3.2733e-12
3.28387e-12
3.28791e-12
3.28497e-12
3.28728e-12
3.29025e-12
3.2863e-12
3.28805e-12
3.27452e-12
3.40637e-12
3.33511e-12
4.79517e-12
2.17731e-11
1.9972e-09
3.03062e-06
8.65603e-10
2.27094e-12
1.35957e-12
1.26488e-12
1.25546e-12
1.2427e-12
1.25149e-12
1.25331e-12
1.25223e-12
1.25285e-12
1.25437e-12
1.25266e-12
1.25017e-12
1.24928e-12
1.32003e-12
1.29435e-12
1.97448e-12
1.21002e-11
7.33733e-10
2.67929e-06
7.6813e-10
1.18571e-12
5.1223e-13
4.96616e-13
4.97618e-13
5.02615e-13
4.9857e-13
4.9946e-13
4.99197e-13
4.99133e-13
4.99877e-13
4.99217e-13
5.06176e-13
4.94909e-13
5.15749e-13
4.85334e-13
8.87843e-13
7.97468e-12
4.91573e-10
1.93753e-06
5.70568e-10
6.37137e-13
2.25231e-13
2.11174e-13
2.10357e-13
2.15926e-13
2.1063e-13
2.1078e-13
2.1078e-13
2.10841e-13
2.11278e-13
2.10706e-13
2.17558e-13
2.09092e-13
2.22455e-13
2.11194e-13
4.02551e-13
5.72063e-12
4.48669e-10
1.05613e-06
3.31719e-10
3.39927e-13
1.00952e-13
9.24828e-14
9.20847e-14
9.4168e-14
9.2065e-14
9.21304e-14
9.25857e-14
9.2124e-14
9.2309e-14
9.20445e-14
9.37421e-14
9.15996e-14
9.76275e-14
9.39128e-14
1.97776e-13
4.53084e-12
4.73645e-10
4.46031e-07
1.57358e-10
1.88445e-13
4.95483e-14
4.51546e-14
4.49355e-14
4.58043e-14
4.48798e-14
4.49074e-14
4.51697e-14
4.48803e-14
4.49631e-14
4.47875e-14
4.82157e-14
4.47445e-14
4.75729e-14
4.61087e-14
1.06205e-13
3.78063e-12
5.28181e-10
1.61428e-07
6.86839e-11
1.0528e-13
2.75557e-14
2.51543e-14
2.50333e-14
2.65926e-14
2.49929e-14
2.50117e-14
2.51846e-14
2.49744e-14
2.50133e-14
2.48258e-14
2.65583e-14
2.49392e-14
2.63287e-14
2.57495e-14
6.23188e-14
3.27695e-12
5.90966e-10
5.39514e-08
3.08525e-11
6.52575e-14
1.7522e-14
1.60592e-14
1.59775e-14
1.65998e-14
1.59521e-14
1.5978e-14
1.60995e-14
1.59339e-14
1.59536e-14
1.56784e-14
1.65906e-14
1.5924e-14
1.6661e-14
1.64761e-14
4.31563e-14
2.88468e-12
6.43634e-10
1.7595e-08
1.49224e-11
4.28044e-14
1.25102e-14
1.15085e-14
1.14424e-14
1.16816e-14
1.14197e-14
1.14563e-14
1.15373e-14
1.14084e-14
1.1421e-14
1.1537e-14
1.16983e-14
1.14054e-14
1.18409e-14
1.18338e-14
3.19685e-14
2.55641e-12
6.69577e-10
5.98204e-09
7.7077e-12
2.90371e-14
9.70747e-15
8.95333e-15
8.8941e-15
8.98569e-15
8.86393e-15
8.91272e-15
8.96097e-15
8.86394e-15
8.87323e-15
8.92484e-15
9.00083e-15
8.86366e-15
9.15342e-15
9.22254e-15
2.4473e-14
2.23517e-12
6.59009e-10
2.19223e-09
4.42248e-12
2.07093e-14
7.94253e-15
7.33713e-15
7.28196e-15
7.31534e-15
7.23578e-15
7.29977e-15
7.32428e-15
7.25267e-15
7.26039e-15
7.27812e-15
7.32434e-15
7.25414e-15
7.46778e-15
7.566e-15
1.94632e-14
1.89833e-12
6.11927e-10
8.63442e-10
2.59436e-12
1.52776e-14
6.70622e-15
6.20365e-15
6.15207e-15
6.16158e-15
6.08034e-15
6.16613e-15
6.17513e-15
6.12245e-15
6.12929e-15
6.12546e-15
6.16535e-15
6.12537e-15
6.29464e-15
6.39966e-15
1.57492e-14
1.56899e-12
5.37772e-10
3.56989e-10
1.52238e-12
1.15886e-14
5.76401e-15
5.345e-15
5.29732e-15
5.29745e-15
5.29859e-15
5.3067e-15
5.30609e-15
5.26712e-15
5.27321e-15
5.25188e-15
5.29662e-15
5.2713e-15
5.41126e-15
5.51196e-15
1.33136e-14
1.25724e-12
4.34698e-10
1.52663e-10
8.86095e-13
9.01698e-15
4.99866e-15
4.65925e-15
4.616e-15
4.6121e-15
4.60017e-15
4.62038e-15
4.61441e-15
4.58545e-15
4.59076e-15
4.55219e-15
4.6084e-15
4.5907e-15
4.70891e-15
4.79643e-15
1.11558e-14
9.84266e-13
3.41735e-10
6.7129e-11
5.1174e-13
7.18475e-15
4.43374e-15
4.09146e-15
4.0532e-15
4.04782e-15
4.01997e-15
4.05308e-15
4.04418e-15
4.0227e-15
4.02745e-15
4.04105e-15
4.04265e-15
4.02892e-15
4.12919e-15
4.25863e-15
9.31059e-15
7.5002e-13
2.50271e-10
3.02441e-11
2.8268e-13
5.83875e-15
3.92609e-15
3.60766e-15
3.57556e-15
3.57032e-15
3.58139e-15
3.5719e-15
3.56133e-15
3.54564e-15
3.55002e-15
3.5654e-15
3.56334e-15
3.5528e-15
3.6359e-15
3.77385e-15
7.80517e-15
5.5952e-13
1.79024e-10
1.39106e-11
1.50994e-13
4.8368e-15
3.51639e-15
3.23344e-15
3.20919e-15
3.20417e-15
3.20804e-15
3.20294e-15
3.19158e-15
3.17981e-15
3.18498e-15
3.19918e-15
3.19702e-15
3.18699e-15
3.26261e-15
3.38271e-15
6.56872e-15
4.09042e-13
1.20341e-10
6.49974e-12
8.54375e-14
4.07148e-15
3.14734e-15
2.90721e-15
2.86449e-15
2.85956e-15
2.85694e-15
2.85606e-15
2.84322e-15
2.83473e-15
2.84158e-15
2.85153e-15
2.85124e-15
2.84315e-15
2.9099e-15
3.02109e-15
5.54322e-15
2.95155e-13
7.98478e-11
3.06844e-12
4.83812e-14
3.52476e-15
2.83321e-15
2.6198e-15
2.58282e-15
2.57815e-15
2.57163e-15
2.57307e-15
2.56001e-15
2.55398e-15
2.56175e-15
2.56752e-15
2.56967e-15
2.56252e-15
2.62246e-15
2.7194e-15
4.67204e-15
2.10684e-13
5.16417e-11
1.45489e-12
2.78131e-14
3.06551e-15
2.55392e-15
2.36317e-15
2.33162e-15
2.3272e-15
2.31788e-15
2.32107e-15
2.30792e-15
2.30379e-15
2.31163e-15
2.3142e-15
2.3187e-15
2.3124e-15
2.36652e-15
2.44922e-15
4.03211e-15
1.48752e-13
3.26867e-11
6.92887e-13
1.6587e-14
2.69169e-15
2.30145e-15
2.13136e-15
2.10426e-15
2.10003e-15
2.0888e-15
2.09333e-15
2.08018e-15
2.07753e-15
2.08481e-15
2.08538e-15
2.09169e-15
2.08617e-15
2.13508e-15
2.2051e-15
3.48617e-15
1.04177e-13
2.01608e-11
3.38349e-13
1.01967e-14
2.37078e-15
2.0698e-15
1.91856e-15
1.89514e-15
1.891e-15
1.8786e-15
1.88416e-15
1.87105e-15
1.86955e-15
1.87602e-15
1.87543e-15
1.88303e-15
1.87817e-15
1.92246e-15
1.98119e-15
3.01876e-15
7.27116e-14
1.21105e-11
1.68106e-13
6.46032e-15
2.08758e-15
1.85407e-15
1.72003e-15
1.69964e-15
1.69549e-15
1.68248e-15
1.68888e-15
1.67582e-15
1.6752e-15
1.68085e-15
1.67961e-15
1.68806e-15
1.68373e-15
1.72393e-15
1.77237e-15
2.61559e-15
5.09818e-14
7.43675e-12
8.54558e-14
4.51738e-15
1.83267e-15
1.65029e-15
1.53213e-15
1.51419e-15
1.50995e-15
1.49687e-15
1.50392e-15
1.49095e-15
1.49098e-15
1.49586e-15
1.49434e-15
1.50328e-15
1.49933e-15
1.53587e-15
1.57489e-15
2.26458e-15
3.65143e-14
4.46467e-12
4.47585e-14
3.31703e-15
1.59912e-15
1.45578e-15
1.35264e-15
1.33669e-15
1.33218e-15
1.31962e-15
1.32712e-15
1.31435e-15
1.31485e-15
1.31891e-15
1.31748e-15
1.32658e-15
1.32287e-15
1.35605e-15
1.38648e-15
1.95481e-15
2.62784e-14
2.53618e-12
2.43329e-14
2.52875e-15
1.38356e-15
1.26949e-15
1.18106e-15
1.16672e-15
1.16165e-15
1.15037e-15
1.15805e-15
1.14569e-15
1.14648e-15
1.14949e-15
1.14866e-15
1.15757e-15
1.15397e-15
1.18389e-15
1.2066e-15
1.67978e-15
1.93116e-14
1.55855e-12
1.38236e-14
1.97597e-15
1.17363e-15
1.0926e-15
1.01251e-15
1.00058e-15
9.99703e-16
9.84473e-16
9.92761e-16
9.80516e-16
9.81948e-16
9.88919e-16
9.8342e-16
9.9255e-16
9.89309e-16
1.01568e-15
1.03653e-15
1.43632e-15
1.44878e-14
9.49132e-13
8.24797e-15
1.566e-15
9.81136e-16
9.28224e-16
8.6092e-16
8.50793e-16
8.49801e-16
8.36328e-16
8.44153e-16
8.32961e-16
8.34428e-16
8.40581e-16
8.35672e-16
8.43974e-16
8.40932e-16
8.63686e-16
8.79677e-16
1.20333e-15
1.10021e-14
5.97637e-13
5.1865e-15
1.25193e-15
8.20942e-16
7.81288e-16
7.26436e-16
7.18163e-16
7.17192e-16
7.05885e-16
7.12802e-16
7.03151e-16
7.04506e-16
7.09684e-16
7.05507e-16
7.12646e-16
7.09954e-16
7.28807e-16
7.41282e-16
1.01693e-15
8.666e-15
3.86105e-13
3.45387e-15
1.01233e-15
6.89558e-16
6.58901e-16
6.16593e-16
6.10208e-16
6.0938e-16
6.00728e-16
6.06164e-16
5.98697e-16
5.99779e-16
6.03728e-16
6.00507e-16
6.06052e-16
6.03944e-16
6.18402e-16
6.2872e-16
8.64765e-16
7.02984e-15
2.57442e-13
2.46881e-15
8.42502e-16
5.98245e-16
5.71807e-16
5.42936e-16
5.38526e-16
5.37939e-16
5.32709e-16
5.35809e-16
5.31523e-16
5.32091e-16
5.34366e-16
5.32531e-16
5.35824e-16
5.34649e-16
5.4379e-16
5.53358e-16
7.55487e-16
5.90065e-15
1.7809e-13
1.96535e-15
7.53024e-16
5.67661e-16
5.39322e-16
5.26891e-16
5.24819e-16
5.24578e-16
5.24364e-16
5.23485e-16
5.24362e-16
5.24114e-16
5.23777e-16
5.24251e-16
5.24009e-16
5.24417e-16
5.26165e-16
5.36629e-16
7.0619e-16
5.16344e-15
1.28277e-13
1.87048e-15
7.80666e-16
6.45209e-16
6.05219e-16
6.18139e-16
6.19626e-16
6.19936e-16
6.28676e-16
6.19922e-16
6.30747e-16
6.28879e-16
6.23602e-16
6.28658e-16
6.21778e-16
6.2537e-16
6.14265e-16
6.28367e-16
7.56877e-16
4.79657e-15
9.68463e-14
2.23466e-15
1.02551e-15
9.58933e-16
8.87524e-16
9.51983e-16
9.60736e-16
9.62194e-16
9.90681e-16
9.63393e-16
9.97328e-16
9.91305e-16
9.74616e-16
9.90542e-16
9.68526e-16
9.79752e-16
9.40395e-16
9.64109e-16
1.01559e-15
4.89719e-15
7.81009e-14
3.4224e-15
1.79898e-15
1.92832e-15
1.77028e-15
1.97797e-15
2.00658e-15
2.01151e-15
2.09706e-15
2.01368e-15
2.11705e-15
2.09849e-15
2.0475e-15
2.09668e-15
2.02973e-15
2.06458e-15
1.94186e-15
1.99555e-15
1.82838e-15
5.85492e-15
6.77171e-14
7.03886e-15
4.51547e-15
5.70864e-15
5.22104e-15
6.13994e-15
6.17612e-15
6.20002e-15
6.55867e-15
6.19669e-15
6.64326e-15
6.56157e-15
6.3411e-15
6.55758e-15
6.27066e-15
6.42503e-15
5.97737e-15
6.16881e-15
4.88955e-15
9.84685e-15
6.52751e-14
2.48108e-14
2.02907e-14
3.00915e-14
2.71919e-14
3.32096e-14
3.34719e-14
3.36496e-14
3.60023e-14
3.35497e-14
3.65553e-14
3.5996e-14
3.45203e-14
3.59956e-14
3.40863e-14
3.5144e-14
3.21201e-14
3.3331e-14
2.40143e-14
3.42249e-14
8.09196e-14
1.57441e-13
1.46493e-13
2.18419e-13
1.98907e-13
2.3903e-13
2.40438e-13
2.41676e-13
2.56848e-13
2.40574e-13
2.60339e-13
2.56627e-13
2.47023e-13
2.56785e-13
2.44373e-13
2.51467e-13
2.31685e-13
2.39771e-13
1.75907e-13
2.17954e-13
2.04752e-13
1.02215e-12
9.73987e-13
1.31698e-12
1.22554e-12
1.40382e-12
1.40762e-12
1.41327e-12
1.47734e-12
1.40622e-12
1.49153e-12
1.4754e-12
1.43452e-12
1.477e-12
1.42397e-12
1.45568e-12
1.36994e-12
1.40766e-12
1.1174e-12
1.28943e-12
9.86472e-13
4.58569e-12
4.33987e-12
5.23824e-12
4.98895e-12
5.43729e-12
5.43689e-12
5.45205e-12
5.60403e-12
5.42713e-12
5.63557e-12
5.5958e-12
5.49773e-12
5.60344e-12
5.47454e-12
5.55733e-12
5.34395e-12
5.45107e-12
4.70184e-12
5.14981e-12
4.19611e-12
1.32251e-11
1.23826e-11
1.37037e-11
1.32872e-11
1.39592e-11
1.39335e-11
1.39598e-11
1.41716e-11
1.39069e-11
1.42102e-11
1.41518e-11
1.40128e-11
1.41726e-11
1.39838e-11
1.41191e-11
1.37947e-11
1.39908e-11
1.28348e-11
1.35635e-11
1.20138e-11
2.70374e-11
2.50998e-11
2.62974e-11
2.58001e-11
2.64842e-11
2.64099e-11
2.64456e-11
2.66322e-11
2.63664e-11
2.66553e-11
2.65998e-11
2.64734e-11
2.66394e-11
2.64525e-11
2.66126e-11
2.62686e-11
2.65344e-11
2.53108e-11
2.6154e-11
2.45445e-11
4.36355e-11
4.01326e-11
4.05347e-11
4.00746e-11
4.05132e-11
4.0377e-11
4.04173e-11
4.04824e-11
4.03277e-11
4.04661e-11
4.04415e-11
4.03911e-11
4.05016e-11
4.03907e-11
4.05342e-11
4.02872e-11
4.05798e-11
3.97235e-11
4.04736e-11
3.95277e-11
5.73349e-11
5.2166e-11
5.15571e-11
5.11753e-11
5.12962e-11
5.11103e-11
5.11501e-11
5.10761e-11
5.10669e-11
5.10178e-11
5.10326e-11
5.10732e-11
5.11084e-11
5.10932e-11
5.12e-11
5.1091e-11
5.13751e-11
5.10397e-11
5.16274e-11
5.16606e-11
)
;

boundaryField
{
    fuel
    {
        type            fixedValue;
        value           uniform 0;
    }
    wall
    {
        type            zeroGradient;
    }
    outlet
    {
        type            zeroGradient;
    }
    frontAndBack
    {
        type            empty;
    }
}


// ************************************************************************* //
