/*--------------------------------*- C++ -*----------------------------------*\
| =========                 |                                                 |
| \\      /  F ield         | OpenFOAM: The Open Source CFD Toolbox           |
|  \\    /   O peration     | Version:  dev                                   |
|   \\  /    A nd           | Web:      www.OpenFOAM.org                      |
|    \\/     M anipulation  |                                                 |
\*---------------------------------------------------------------------------*/
FoamFile
{
    version     2.0;
    format      ascii;
    class       volScalarField;
    location    "0.1";
    object      C6H;
}
// * * * * * * * * * * * * * * * * * * * * * * * * * * * * * * * * * * * * * //

dimensions      [0 0 0 0 0 0 0];

internalField   nonuniform List<scalar> 
100
(
1.09677e-07
4.34387e-08
1.37416e-08
3.99215e-09
1.09385e-09
2.96118e-10
7.80122e-11
2.0325e-11
5.36026e-12
1.39298e-12
3.69784e-13
9.77239e-14
2.62526e-14
7.21306e-15
2.03694e-15
5.92709e-16
1.77668e-16
5.47547e-17
1.73252e-17
5.64248e-18
1.91183e-18
6.90077e-19
2.7555e-19
1.26621e-19
6.7945e-20
4.16771e-20
2.80866e-20
2.01121e-20
1.50153e-20
1.16483e-20
9.51792e-21
8.52253e-21
8.76908e-21
1.08013e-20
1.57044e-20
2.53845e-20
4.29548e-20
7.31972e-20
1.22971e-19
2.01347e-19
3.2255e-19
5.02656e-19
7.5902e-19
1.0966e-18
1.53706e-18
2.09198e-18
2.76741e-18
3.50586e-18
4.31245e-18
5.17114e-18
6.00026e-18
6.76748e-18
7.4306e-18
7.95311e-18
8.26764e-18
8.34942e-18
8.21484e-18
7.87574e-18
7.35796e-18
6.69857e-18
5.94194e-18
5.13509e-18
4.32295e-18
3.54442e-18
2.82979e-18
2.19936e-18
1.66345e-18
1.22316e-18
8.72441e-19
6.02157e-19
4.02192e-19
2.62195e-19
1.65809e-19
1.01516e-19
6.00116e-20
3.36755e-20
1.86087e-20
9.85966e-21
4.91255e-21
2.38996e-21
1.10705e-21
4.90993e-22
2.08553e-22
8.42639e-23
3.19839e-23
1.20699e-23
4.38625e-24
1.53237e-24
5.12301e-25
1.62545e-25
4.85458e-26
1.34812e-26
3.42528e-27
7.77273e-28
1.5172e-28
2.41201e-29
2.92261e-30
2.57181e-31
1.73144e-32
1.077e-33
)
;

boundaryField
{
    wall
    {
        type            zeroGradient;
    }
    fuel
    {
        type            fixedValue;
        value           uniform 0;
    }
    outlet
    {
        type            inletOutlet;
        inletValue      uniform 0;
        value           uniform 1.077e-33;
    }
}


// ************************************************************************* //
