/*--------------------------------*- C++ -*----------------------------------*\
| =========                 |                                                 |
| \\      /  F ield         | OpenFOAM: The Open Source CFD Toolbox           |
|  \\    /   O peration     | Version:  dev                                   |
|   \\  /    A nd           | Web:      www.OpenFOAM.org                      |
|    \\/     M anipulation  |                                                 |
\*---------------------------------------------------------------------------*/
FoamFile
{
    version     2.0;
    format      ascii;
    class       volScalarField;
    location    "0.2";
    object      C6H;
}
// * * * * * * * * * * * * * * * * * * * * * * * * * * * * * * * * * * * * * //

dimensions      [0 0 0 0 0 0 0];

internalField   nonuniform List<scalar> 
1000
(
7.77109e-13
5.39579e-09
7.23131e-09
7.46207e-09
7.48531e-09
7.48719e-09
7.48852e-09
7.48697e-09
7.48866e-09
7.48772e-09
7.48849e-09
7.4887e-09
7.48906e-09
7.48845e-09
7.48868e-09
7.49001e-09
7.46192e-09
7.36054e-09
6.27041e-09
1.68099e-12
1.24656e-12
8.84707e-09
1.00118e-08
1.01068e-08
1.01072e-08
1.01064e-08
1.01068e-08
1.01045e-08
1.01072e-08
1.01054e-08
1.01075e-08
1.01077e-08
1.01081e-08
1.01081e-08
1.01063e-08
1.01207e-08
1.00933e-08
1.01394e-08
9.43306e-09
3.08152e-12
7.6793e-13
5.41239e-09
5.83177e-09
5.83898e-09
5.82719e-09
5.82512e-09
5.82465e-09
5.82256e-09
5.82523e-09
5.82337e-09
5.82555e-09
5.82616e-09
5.82567e-09
5.82721e-09
5.82329e-09
5.84506e-09
5.81845e-09
5.94678e-09
5.65456e-09
6.24728e-12
4.34291e-13
3.10031e-09
3.32664e-09
3.32132e-09
3.30848e-09
3.30623e-09
3.30498e-09
3.3036e-09
3.30584e-09
3.30423e-09
3.30625e-09
3.30709e-09
3.30623e-09
3.30748e-09
3.30435e-09
3.32538e-09
3.30091e-09
3.43471e-09
3.29802e-09
3.9112e-10
2.85448e-13
1.91084e-09
2.10062e-09
2.09813e-09
2.08639e-09
2.08417e-09
2.08196e-09
2.08157e-09
2.08341e-09
2.08202e-09
2.08397e-09
2.08486e-09
2.0839e-09
2.08396e-09
2.08277e-09
2.1007e-09
2.08002e-09
2.2046e-09
2.11478e-09
8.20247e-09
2.21765e-13
1.27654e-09
1.47341e-09
1.4749e-09
1.46416e-09
1.46192e-09
1.4584e-09
1.45933e-09
1.46082e-09
1.45959e-09
1.46153e-09
1.46239e-09
1.4614e-09
1.45998e-09
1.46094e-09
1.47595e-09
1.45901e-09
1.54497e-09
1.47733e-09
1.29883e-08
1.97651e-13
9.08735e-10
1.12449e-09
1.12778e-09
1.11725e-09
1.11481e-09
1.1097e-09
1.11201e-09
1.11323e-09
1.11195e-09
1.11412e-09
1.11492e-09
1.11387e-09
1.11063e-09
1.11407e-09
1.12722e-09
1.11342e-09
1.189e-09
1.07684e-09
9.32204e-09
1.93489e-13
6.78849e-10
8.92518e-10
9.16815e-10
9.03575e-10
9.00812e-10
8.95405e-10
8.97811e-10
8.98705e-10
8.97421e-10
8.99693e-10
9.00439e-10
8.99283e-10
8.96107e-10
9.00149e-10
9.12738e-10
9.03019e-10
9.58124e-10
8.26662e-10
5.7646e-09
2.00102e-13
5.27105e-10
7.51464e-10
7.57352e-10
7.53332e-10
7.52583e-10
7.52628e-10
7.50748e-10
7.51353e-10
7.50032e-10
7.52361e-10
7.53046e-10
7.51751e-10
7.53148e-10
7.51876e-10
7.58735e-10
7.45252e-10
8.09907e-10
6.70051e-10
3.49932e-09
2.1835e-13
4.22878e-10
6.39301e-10
6.57225e-10
6.50004e-10
6.48256e-10
6.49187e-10
6.46275e-10
6.46515e-10
6.45072e-10
6.47585e-10
6.48257e-10
6.46563e-10
6.4955e-10
6.47429e-10
6.55835e-10
6.44821e-10
6.91929e-10
5.52256e-10
2.1397e-09
2.49076e-13
3.49315e-10
5.51491e-10
5.74011e-10
5.64612e-10
5.62759e-10
5.62443e-10
5.60835e-10
5.6098e-10
5.59832e-10
5.61801e-10
5.62384e-10
5.60366e-10
5.61476e-10
5.61904e-10
5.69445e-10
5.6124e-10
6.01014e-10
4.68887e-10
1.32528e-09
3.14617e-13
2.96433e-10
4.89663e-10
5.06034e-10
4.96098e-10
4.94135e-10
4.94031e-10
4.92325e-10
4.92533e-10
4.91989e-10
4.92986e-10
4.93492e-10
4.90993e-10
4.98653e-10
4.93209e-10
5.00148e-10
4.93306e-10
5.2673e-10
4.00926e-10
8.35605e-10
4.7382e-13
2.57888e-10
4.33916e-10
4.49316e-10
4.38889e-10
4.3685e-10
4.41106e-10
4.35091e-10
4.35553e-10
4.3559e-10
4.35551e-10
4.35996e-10
4.32793e-10
4.39984e-10
4.35787e-10
4.42269e-10
4.36553e-10
4.63093e-10
3.4654e-10
5.39481e-10
8.39071e-13
2.29635e-10
3.90717e-10
4.00803e-10
3.8992e-10
3.87784e-10
3.89848e-10
3.8597e-10
3.8686e-10
3.87197e-10
3.86391e-10
3.86801e-10
3.82575e-10
3.89186e-10
3.86616e-10
3.92724e-10
3.88035e-10
4.17817e-10
3.02461e-10
3.57649e-10
1.56039e-12
2.06693e-10
3.5161e-10
3.585e-10
3.47321e-10
3.45115e-10
3.45908e-10
3.43089e-10
3.44507e-10
3.44824e-10
3.43634e-10
3.44044e-10
3.44128e-10
3.45539e-10
3.43861e-10
3.49625e-10
3.45799e-10
3.76875e-10
2.68508e-10
2.45264e-10
2.7704e-12
1.87745e-10
3.15051e-10
3.21086e-10
3.09835e-10
3.07606e-10
3.07739e-10
3.05198e-10
3.07204e-10
3.07309e-10
3.06036e-10
3.06444e-10
3.06171e-10
3.07443e-10
3.06282e-10
3.11701e-10
3.08545e-10
3.3658e-10
2.40153e-10
1.7445e-10
4.55522e-12
1.75063e-10
2.82904e-10
2.87635e-10
2.76558e-10
2.74357e-10
2.74151e-10
2.71393e-10
2.74047e-10
2.73892e-10
2.72704e-10
2.73102e-10
2.72466e-10
2.73843e-10
2.72982e-10
2.78042e-10
2.75389e-10
3.00598e-10
2.14905e-10
1.29286e-10
6.92624e-12
1.64817e-10
2.54327e-10
2.57425e-10
2.46809e-10
2.44683e-10
2.44315e-10
2.40955e-10
2.44375e-10
2.43992e-10
2.42963e-10
2.4334e-10
2.42309e-10
2.43957e-10
2.43278e-10
2.47969e-10
2.4567e-10
2.67878e-10
1.9314e-10
1.00476e-10
9.90228e-12
1.56124e-10
2.28683e-10
2.29834e-10
2.20051e-10
2.18044e-10
2.17633e-10
2.16684e-10
2.17689e-10
2.17131e-10
2.16279e-10
2.16623e-10
2.15152e-10
2.17193e-10
2.16632e-10
2.20946e-10
2.18864e-10
2.43471e-10
1.74392e-10
7.96579e-11
1.34943e-11
1.4835e-10
2.0549e-10
2.04323e-10
1.95842e-10
1.93997e-10
1.9358e-10
1.92181e-10
1.93562e-10
1.92893e-10
1.92213e-10
1.92517e-10
1.90563e-10
1.93088e-10
1.92602e-10
1.9653e-10
1.94489e-10
2.18992e-10
1.57941e-10
6.73582e-11
1.76881e-11
1.40988e-10
1.84393e-10
1.83606e-10
1.73811e-10
1.72167e-10
1.71772e-10
1.6984e-10
1.71648e-10
1.70914e-10
1.7039e-10
1.70663e-10
1.70853e-10
1.71262e-10
1.70816e-10
1.74338e-10
1.74429e-10
1.95463e-10
1.43257e-10
5.86474e-11
2.24184e-11
1.33039e-10
1.65028e-10
1.63532e-10
1.53595e-10
1.52207e-10
1.51866e-10
1.51635e-10
1.51624e-10
1.50851e-10
1.50467e-10
1.50724e-10
1.51102e-10
1.51313e-10
1.50931e-10
1.53974e-10
1.55014e-10
1.73999e-10
1.29953e-10
5.31236e-11
2.75461e-11
1.24744e-10
1.47126e-10
1.46241e-10
1.36943e-10
1.35888e-10
1.35584e-10
1.35139e-10
1.35258e-10
1.34467e-10
1.34186e-10
1.34483e-10
1.34867e-10
1.35047e-10
1.34649e-10
1.37537e-10
1.38364e-10
1.5428e-10
1.17724e-10
4.89672e-11
3.28192e-11
1.17117e-10
1.3038e-10
1.29792e-10
1.21656e-10
1.1974e-10
1.19459e-10
1.18817e-10
1.19075e-10
1.18231e-10
1.1804e-10
1.18417e-10
1.18657e-10
1.18893e-10
1.18558e-10
1.21193e-10
1.22195e-10
1.35938e-10
1.06327e-10
4.60034e-11
3.78645e-11
1.09103e-10
1.16303e-10
1.15102e-10
1.07594e-10
1.05935e-10
1.05679e-10
1.04931e-10
1.05262e-10
1.04421e-10
1.04303e-10
1.0472e-10
1.04809e-10
1.05131e-10
1.0482e-10
1.0726e-10
1.08103e-10
1.1867e-10
9.557e-11
4.37127e-11
4.22372e-11
1.00756e-10
1.02689e-10
1.01521e-10
9.46056e-11
9.31934e-11
9.29587e-11
9.21476e-11
9.25298e-11
9.1701e-11
9.16428e-11
9.20566e-11
9.20333e-11
9.24392e-11
9.21533e-11
9.44205e-11
9.50536e-11
1.04934e-10
8.53582e-11
4.20249e-11
4.53711e-11
9.20799e-11
9.0229e-11
8.88954e-11
8.25949e-11
8.13936e-11
8.11753e-11
8.03391e-11
8.07556e-11
7.99474e-11
7.9933e-11
8.03134e-11
8.02268e-11
8.06903e-11
8.04325e-11
8.25217e-11
8.29924e-11
9.20859e-11
7.55794e-11
4.03441e-11
4.6841e-11
8.24001e-11
7.84971e-11
7.71273e-11
7.14562e-11
7.0437e-11
7.02293e-11
6.94024e-11
6.98377e-11
6.9059e-11
6.90742e-11
6.94093e-11
6.92931e-11
6.9787e-11
6.95566e-11
7.14651e-11
7.1813e-11
8.00623e-11
6.61684e-11
3.84833e-11
4.65893e-11
7.18866e-11
6.74677e-11
6.6154e-11
6.11179e-11
6.02522e-11
6.00513e-11
5.92597e-11
5.97017e-11
5.89593e-11
5.89958e-11
5.92843e-11
5.91587e-11
5.96599e-11
5.9454e-11
6.1181e-11
6.14253e-11
6.88232e-11
5.71051e-11
3.65007e-11
4.46697e-11
6.25221e-11
5.71429e-11
5.59367e-11
5.15374e-11
5.08001e-11
5.06025e-11
4.98698e-11
5.03069e-11
4.96082e-11
4.96586e-11
4.99022e-11
4.97814e-11
5.02706e-11
5.00851e-11
5.16305e-11
5.17809e-11
5.83526e-11
4.89092e-11
3.39818e-11
4.12637e-11
5.3284e-11
4.75498e-11
4.64693e-11
4.27056e-11
4.20762e-11
4.18772e-11
4.12253e-11
4.16462e-11
4.09994e-11
4.10571e-11
4.12561e-11
4.1153e-11
4.16141e-11
4.14446e-11
4.28084e-11
4.2872e-11
4.86575e-11
4.1118e-11
3.05992e-11
3.66875e-11
4.43445e-11
3.87532e-11
3.77785e-11
3.46489e-11
3.41102e-11
3.39024e-11
3.33535e-11
3.37461e-11
3.31605e-11
3.32196e-11
3.33692e-11
3.32992e-11
3.37178e-11
3.35609e-11
3.47426e-11
3.4726e-11
3.97757e-11
3.38169e-11
2.72915e-11
3.13441e-11
3.58886e-11
3.04192e-11
2.9931e-11
2.71804e-11
2.67595e-11
2.6731e-11
2.60723e-11
2.6454e-11
2.59165e-11
2.59918e-11
2.62899e-11
2.60434e-11
2.64379e-11
2.63042e-11
2.72951e-11
2.73962e-11
3.178e-11
2.71035e-11
2.34542e-11
2.5673e-11
2.81281e-11
2.30503e-11
2.3007e-11
2.0806e-11
2.04692e-11
2.04358e-11
1.98942e-11
2.02283e-11
1.97674e-11
1.98356e-11
2.00833e-11
1.98785e-11
2.02138e-11
2.00947e-11
2.09072e-11
2.09568e-11
2.41686e-11
2.08314e-11
1.95644e-11
2.01015e-11
2.12599e-11
1.70642e-11
1.70742e-11
1.53665e-11
1.51075e-11
1.50756e-11
1.46453e-11
1.49264e-11
1.45458e-11
1.46043e-11
1.48043e-11
1.46377e-11
1.49126e-11
1.48107e-11
1.54556e-11
1.54704e-11
1.80555e-11
1.56094e-11
1.56918e-11
1.49967e-11
1.54195e-11
1.21221e-11
1.21731e-11
1.0898e-11
1.07075e-11
1.0681e-11
1.03527e-11
1.05785e-11
1.02777e-11
1.03252e-11
1.04806e-11
1.03491e-11
1.05649e-11
1.04821e-11
1.09735e-11
1.09684e-11
1.2958e-11
1.12387e-11
1.20385e-11
1.06253e-11
1.06797e-11
8.22599e-12
8.29798e-12
7.38852e-12
7.25496e-12
7.23543e-12
6.99623e-12
7.16845e-12
6.94237e-12
6.97884e-12
7.094e-12
6.99454e-12
7.15535e-12
7.09199e-12
7.44867e-12
7.43525e-12
8.88921e-12
7.73875e-12
8.7869e-12
7.12147e-12
7.02707e-12
5.30962e-12
5.38379e-12
4.76844e-12
4.67967e-12
4.6664e-12
4.50143e-12
4.62517e-12
4.4647e-12
4.49097e-12
4.57187e-12
4.50052e-12
4.61361e-12
4.56808e-12
4.81276e-12
4.79912e-12
5.8e-12
5.07353e-12
6.06772e-12
4.49488e-12
4.36948e-12
3.24539e-12
3.30943e-12
2.91676e-12
2.86096e-12
2.85248e-12
2.74543e-12
2.8288e-12
2.72175e-12
2.73941e-12
2.79315e-12
2.74483e-12
2.81979e-12
2.78874e-12
2.94784e-12
2.93554e-12
3.5851e-12
3.14871e-12
3.94773e-12
2.65923e-12
2.55402e-12
1.86724e-12
1.91613e-12
1.68106e-12
1.64754e-12
1.6425e-12
1.57725e-12
1.62996e-12
1.56288e-12
1.57397e-12
1.60763e-12
1.57683e-12
1.62362e-12
1.6034e-12
1.70181e-12
1.69086e-12
2.08846e-12
1.8368e-12
2.408e-12
1.4613e-12
1.38999e-12
1.00048e-12
1.03432e-12
9.03338e-13
8.83771e-13
8.80987e-13
8.43855e-13
8.74974e-13
8.35685e-13
8.42189e-13
8.61915e-13
8.43596e-13
8.70805e-13
8.58557e-13
9.16117e-13
9.07784e-13
1.1332e-12
9.97653e-13
1.36047e-12
7.33407e-13
6.92074e-13
4.89362e-13
5.07264e-13
4.38116e-13
4.3261e-13
4.31195e-13
4.11765e-13
4.28684e-13
4.07486e-13
4.11007e-13
4.21646e-13
4.11628e-13
4.26166e-13
4.19334e-13
4.45623e-13
4.40348e-13
5.61904e-13
4.91277e-13
6.9984e-13
3.26544e-13
3.05846e-13
2.11606e-13
2.21192e-13
1.89381e-13
1.87017e-13
1.86358e-13
1.77308e-13
1.8551e-13
1.7531e-13
1.7701e-13
1.82129e-13
1.77246e-13
1.84162e-13
1.80768e-13
1.9312e-13
1.90149e-13
2.46841e-13
2.14972e-13
3.1866e-13
1.23524e-13
1.14759e-13
7.74073e-14
8.16511e-14
6.9191e-14
6.83475e-14
6.8078e-14
6.4513e-14
6.78794e-14
6.3723e-14
6.44178e-14
6.65056e-14
6.44892e-14
6.72751e-14
6.58471e-14
7.07518e-14
6.93977e-14
9.19085e-14
7.95754e-14
1.23078e-13
3.75112e-14
3.45449e-14
2.27059e-14
2.41737e-14
2.02696e-14
2.00372e-14
1.99458e-14
1.88289e-14
1.99285e-14
1.858e-14
1.88058e-14
1.94846e-14
1.8821e-14
1.97156e-14
1.92364e-14
2.0799e-14
2.03057e-14
2.74577e-14
2.36026e-14
3.81015e-14
8.46721e-15
7.73726e-15
4.96665e-15
5.33851e-15
4.43064e-15
4.38548e-15
4.36176e-15
4.10292e-15
4.36859e-15
4.04483e-15
4.09906e-15
4.26261e-15
4.10081e-15
4.31373e-15
4.19451e-15
4.56523e-15
4.4316e-15
6.1159e-15
5.20862e-15
8.74856e-15
1.26065e-15
1.14609e-15
7.21285e-16
7.82811e-16
6.43421e-16
6.38042e-16
6.33883e-16
5.94379e-16
6.36608e-16
5.85417e-16
5.94001e-16
6.19965e-16
5.9398e-16
6.27404e-16
6.07863e-16
6.66029e-16
6.42286e-16
9.03601e-16
7.60731e-16
1.32102e-15
9.98812e-17
9.01465e-17
5.55333e-17
6.08229e-17
4.94472e-17
4.91403e-17
4.87483e-17
4.55582e-17
4.91055e-17
4.48231e-17
4.55434e-17
4.77233e-17
4.55186e-17
4.82985e-17
4.66045e-17
5.14597e-17
4.92563e-17
7.08272e-17
5.88502e-17
1.05791e-16
2.86696e-18
2.57478e-18
1.58052e-18
1.73598e-18
1.40873e-18
1.40312e-18
1.39027e-18
1.29977e-18
1.4034e-18
1.27851e-18
1.29944e-18
1.3637e-18
1.29811e-18
1.37989e-18
1.32789e-18
1.47261e-18
1.39969e-18
2.0343e-18
1.67351e-18
3.06492e-18
2.86433e-20
2.57163e-20
1.60264e-20
1.75571e-20
1.43474e-20
1.43132e-20
1.4174e-20
1.32997e-20
1.43146e-20
1.30904e-20
1.32924e-20
1.39349e-20
1.32739e-20
1.40979e-20
1.35528e-20
1.5039e-20
1.42139e-20
2.06377e-20
1.6845e-20
3.09393e-20
)
;

boundaryField
{
    fuel
    {
        type            fixedValue;
        value           uniform 0;
    }
    wall
    {
        type            zeroGradient;
    }
    outlet
    {
        type            zeroGradient;
    }
    frontAndBack
    {
        type            empty;
    }
}


// ************************************************************************* //
