/*--------------------------------*- C++ -*----------------------------------*\
| =========                 |                                                 |
| \\      /  F ield         | OpenFOAM: The Open Source CFD Toolbox           |
|  \\    /   O peration     | Version:  dev                                   |
|   \\  /    A nd           | Web:      www.OpenFOAM.org                      |
|    \\/     M anipulation  |                                                 |
\*---------------------------------------------------------------------------*/
FoamFile
{
    version     2.0;
    format      ascii;
    class       volScalarField;
    location    "0.1";
    object      C6H2;
}
// * * * * * * * * * * * * * * * * * * * * * * * * * * * * * * * * * * * * * //

dimensions      [0 0 0 0 0 0 0];

internalField   nonuniform List<scalar> 
100
(
4.22412e-05
1.91104e-05
6.5973e-06
2.04243e-06
5.87043e-07
1.64606e-07
4.46525e-08
1.19476e-08
3.23747e-09
8.67557e-10
2.39062e-10
6.62506e-11
1.89013e-11
5.59108e-12
1.72022e-12
5.49542e-13
1.81286e-13
6.13711e-14
2.12465e-14
7.5423e-15
2.78054e-15
1.09313e-15
4.76725e-16
2.3943e-16
1.39813e-16
9.26252e-17
6.70525e-17
5.14154e-17
4.10782e-17
3.41382e-17
2.99629e-17
2.88757e-17
3.21171e-17
4.28445e-17
6.7344e-17
1.17335e-16
2.13642e-16
3.91586e-16
7.07992e-16
1.24885e-15
2.16064e-15
3.64369e-15
5.96215e-15
9.32572e-15
1.41797e-14
2.09914e-14
3.02995e-14
4.18126e-14
5.61333e-14
7.36997e-14
9.36102e-14
1.1584e-13
1.39851e-13
1.65501e-13
1.90706e-13
2.13101e-13
2.327e-13
2.48307e-13
2.58957e-13
2.63989e-13
2.63099e-13
2.56376e-13
2.44286e-13
2.27621e-13
2.07415e-13
1.84842e-13
1.61099e-13
1.37275e-13
1.14235e-13
9.27002e-14
7.34011e-14
5.70228e-14
4.3323e-14
3.21696e-14
2.33095e-14
1.63118e-14
1.12838e-14
7.59372e-15
4.91674e-15
3.14197e-15
1.94996e-15
1.18335e-15
7.05326e-16
4.12403e-16
2.36473e-16
1.38438e-16
8.15214e-17
4.85707e-17
2.94066e-17
1.81575e-17
1.14902e-17
7.50564e-18
5.10527e-18
3.64162e-18
2.72563e-18
2.11788e-18
1.66681e-18
1.27458e-18
8.788e-19
4.39124e-19
)
;

boundaryField
{
    wall
    {
        type            zeroGradient;
    }
    fuel
    {
        type            fixedValue;
        value           uniform 0;
    }
    outlet
    {
        type            inletOutlet;
        inletValue      uniform 0;
        value           uniform 4.39124e-19;
    }
}


// ************************************************************************* //
