/*--------------------------------*- C++ -*----------------------------------*\
| =========                 |                                                 |
| \\      /  F ield         | OpenFOAM: The Open Source CFD Toolbox           |
|  \\    /   O peration     | Version:  dev                                   |
|   \\  /    A nd           | Web:      www.OpenFOAM.org                      |
|    \\/     M anipulation  |                                                 |
\*---------------------------------------------------------------------------*/
FoamFile
{
    version     2.0;
    format      ascii;
    class       volScalarField;
    location    "0.2";
    object      C6H3;
}
// * * * * * * * * * * * * * * * * * * * * * * * * * * * * * * * * * * * * * //

dimensions      [0 0 0 0 0 0 0];

internalField   nonuniform List<scalar> 
1000
(
3.40657e-11
3.06238e-07
3.00761e-07
2.99077e-07
2.98788e-07
2.9875e-07
2.98737e-07
2.98726e-07
2.98746e-07
2.98736e-07
2.9874e-07
2.98744e-07
2.9875e-07
2.98745e-07
2.98752e-07
2.98845e-07
2.98956e-07
3.00479e-07
3.04022e-07
5.68831e-11
2.0378e-11
1.37755e-07
1.18208e-07
1.15551e-07
1.15164e-07
1.15123e-07
1.15111e-07
1.15103e-07
1.15117e-07
1.15108e-07
1.15119e-07
1.1512e-07
1.15118e-07
1.15135e-07
1.15098e-07
1.15282e-07
1.15372e-07
1.17788e-07
1.26978e-07
6.52692e-11
1.28342e-11
6.75746e-08
5.14496e-08
4.94777e-08
4.91754e-08
4.91428e-08
4.91335e-08
4.91259e-08
4.91389e-08
4.91295e-08
4.91404e-08
4.91433e-08
4.91379e-08
4.91594e-08
4.91161e-08
4.93104e-08
4.92919e-08
5.14215e-08
5.84245e-08
3.59215e-09
1.4077e-11
4.00541e-08
2.73881e-08
2.59331e-08
2.56954e-08
2.56683e-08
2.56579e-08
2.56528e-08
2.5664e-08
2.56557e-08
2.56656e-08
2.56701e-08
2.56641e-08
2.56798e-08
2.56476e-08
2.58199e-08
2.57638e-08
2.7554e-08
3.29408e-08
2.63918e-07
2.71633e-11
2.74431e-08
1.71374e-08
1.59891e-08
1.57905e-08
1.57662e-08
1.57512e-08
1.57511e-08
1.57607e-08
1.57535e-08
1.57631e-08
1.57681e-08
1.57622e-08
1.57683e-08
1.57518e-08
1.58971e-08
1.58418e-08
1.74034e-08
2.1607e-08
2.12681e-07
7.53937e-11
2.07022e-08
1.21033e-08
1.11325e-08
1.09563e-08
1.09328e-08
1.09096e-08
1.09178e-08
1.09257e-08
1.09193e-08
1.09291e-08
1.0934e-08
1.09284e-08
1.09233e-08
1.09232e-08
1.10454e-08
1.10043e-08
1.21895e-08
1.57078e-08
1.34338e-07
2.78931e-10
1.6593e-08
9.35143e-09
8.47623e-09
8.30949e-09
8.28492e-09
8.25029e-09
8.26802e-09
8.27474e-09
8.26788e-09
8.2794e-09
8.28404e-09
8.27836e-09
8.25883e-09
8.27813e-09
8.38565e-09
8.36189e-09
9.42476e-09
1.21129e-08
8.39967e-08
1.36765e-09
1.38062e-08
7.5453e-09
6.88834e-09
6.70593e-09
6.67883e-09
6.64084e-09
6.66012e-09
6.66505e-09
6.65816e-09
6.67048e-09
6.67481e-09
6.66868e-09
6.64756e-09
6.67347e-09
6.77618e-09
6.78083e-09
7.65754e-09
9.89995e-09
5.88405e-08
6.69801e-09
1.17619e-08
6.4632e-09
5.711e-09
5.59991e-09
5.58742e-09
5.58854e-09
5.57692e-09
5.58011e-09
5.57303e-09
5.5859e-09
5.5899e-09
5.58309e-09
5.59368e-09
5.58243e-09
5.64228e-09
5.61917e-09
6.54432e-09
8.51885e-09
4.51041e-08
2.18511e-08
1.01769e-08
5.61119e-09
4.98779e-09
4.85587e-09
4.83605e-09
4.8437e-09
4.82418e-09
4.82486e-09
4.81701e-09
4.83145e-09
4.83544e-09
4.82608e-09
4.84753e-09
4.83074e-09
4.90091e-09
4.89672e-09
5.67924e-09
7.45939e-09
3.63725e-08
4.39972e-08
8.90249e-09
4.94567e-09
4.40015e-09
4.25608e-09
4.23546e-09
4.23375e-09
4.22378e-09
4.22365e-09
4.21761e-09
4.22895e-09
4.23238e-09
4.22102e-09
4.22806e-09
4.23038e-09
4.2936e-09
4.30949e-09
5.0271e-09
6.68996e-09
3.01253e-08
6.248e-08
7.85295e-09
4.47696e-09
3.92973e-09
3.78539e-09
3.76398e-09
3.76343e-09
3.7531e-09
3.75309e-09
3.75059e-09
3.75626e-09
3.75922e-09
3.74467e-09
3.79643e-09
3.75872e-09
3.8171e-09
3.84212e-09
4.50174e-09
6.03166e-09
2.53617e-08
6.53303e-08
6.97303e-09
4.04885e-09
3.54322e-09
3.39908e-09
3.37716e-09
3.40642e-09
3.36683e-09
3.36817e-09
3.36942e-09
3.36855e-09
3.37112e-09
3.35164e-09
3.39979e-09
3.37115e-09
3.42592e-09
3.45776e-09
4.05306e-09
5.47162e-09
2.16077e-08
5.28577e-08
6.23072e-09
3.71292e-09
3.21604e-09
3.07245e-09
3.04991e-09
3.06399e-09
3.0395e-09
3.04338e-09
3.04675e-09
3.04079e-09
3.04313e-09
3.01616e-09
3.06033e-09
3.04329e-09
3.09517e-09
3.13255e-09
3.73549e-09
4.98445e-09
1.85419e-08
3.62087e-08
5.54345e-09
3.40315e-09
2.9325e-09
2.79068e-09
2.76773e-09
2.77288e-09
2.75617e-09
2.7634e-09
2.76676e-09
2.75813e-09
2.76049e-09
2.76253e-09
2.77114e-09
2.76056e-09
2.80984e-09
2.85112e-09
3.44705e-09
4.5823e-09
1.59845e-08
2.30078e-08
4.90722e-09
3.10775e-09
2.68259e-09
2.54419e-09
2.52117e-09
2.52162e-09
2.50722e-09
2.51837e-09
2.52037e-09
2.51106e-09
2.51343e-09
2.51317e-09
2.52034e-09
2.51351e-09
2.56019e-09
2.60359e-09
3.15906e-09
4.22097e-09
1.3791e-08
1.45188e-08
4.42962e-09
2.84401e-09
2.45969e-09
2.32641e-09
2.30368e-09
2.30169e-09
2.28595e-09
2.30165e-09
2.30192e-09
2.2931e-09
2.29544e-09
2.29277e-09
2.30029e-09
2.29562e-09
2.33959e-09
2.38356e-09
2.89814e-09
3.87455e-09
1.18966e-08
9.53183e-09
4.01121e-09
2.60699e-09
2.25882e-09
2.13264e-09
2.11054e-09
2.10736e-09
2.08727e-09
2.10867e-09
2.1074e-09
2.09957e-09
2.10182e-09
2.09641e-09
2.10559e-09
2.1022e-09
2.14331e-09
2.18649e-09
2.65687e-09
3.55576e-09
1.02867e-08
6.62411e-09
3.6406e-09
2.39314e-09
2.07577e-09
1.95933e-09
1.93819e-09
1.93466e-09
1.93089e-09
1.93609e-09
1.93364e-09
1.92696e-09
1.92901e-09
1.92032e-09
1.93228e-09
1.92969e-09
1.96783e-09
2.00895e-09
2.47662e-09
3.26544e-09
8.73028e-09
4.88496e-09
3.3101e-09
2.19989e-09
1.90673e-09
1.80365e-09
1.78378e-09
1.78019e-09
1.7733e-09
1.78117e-09
1.778e-09
1.77245e-09
1.77422e-09
1.7616e-09
1.77738e-09
1.77527e-09
1.81031e-09
1.84781e-09
2.29368e-09
2.99972e-09
7.54507e-09
3.80958e-09
3.01349e-09
2.02543e-09
1.77137e-09
1.66319e-09
1.6449e-09
1.64146e-09
1.63056e-09
1.64171e-09
1.63814e-09
1.63364e-09
1.63515e-09
1.63684e-09
1.63847e-09
1.63656e-09
1.66832e-09
1.71709e-09
2.11619e-09
2.75584e-09
6.46011e-09
3.12258e-09
2.72814e-09
1.86757e-09
1.64126e-09
1.53552e-09
1.51929e-09
1.51625e-09
1.51681e-09
1.5156e-09
1.51182e-09
1.50829e-09
1.50959e-09
1.51281e-09
1.5129e-09
1.51133e-09
1.53921e-09
1.59135e-09
1.95388e-09
2.53212e-09
5.59662e-09
2.67026e-09
2.46606e-09
1.72466e-09
1.53158e-09
1.43314e-09
1.41958e-09
1.41685e-09
1.41604e-09
1.41551e-09
1.41166e-09
1.40886e-09
1.41035e-09
1.41386e-09
1.41354e-09
1.41179e-09
1.43803e-09
1.4859e-09
1.80514e-09
2.32717e-09
4.80846e-09
2.36175e-09
2.25709e-09
1.59432e-09
1.42912e-09
1.3414e-09
1.32231e-09
1.3198e-09
1.31761e-09
1.31789e-09
1.31373e-09
1.31161e-09
1.31364e-09
1.31626e-09
1.31623e-09
1.31481e-09
1.33875e-09
1.38486e-09
1.66755e-09
2.13958e-09
4.16944e-09
2.14111e-09
2.06938e-09
1.4895e-09
1.34032e-09
1.25937e-09
1.24217e-09
1.2399e-09
1.23691e-09
1.23757e-09
1.23345e-09
1.23187e-09
1.23423e-09
1.23581e-09
1.23633e-09
1.23503e-09
1.25705e-09
1.29954e-09
1.53842e-09
1.96731e-09
3.62845e-09
1.97378e-09
1.90292e-09
1.39167e-09
1.26086e-09
1.18597e-09
1.17071e-09
1.16864e-09
1.16508e-09
1.16603e-09
1.16199e-09
1.16082e-09
1.16321e-09
1.16396e-09
1.16509e-09
1.16393e-09
1.18425e-09
1.22276e-09
1.43891e-09
1.80945e-09
3.18097e-09
1.83844e-09
1.75668e-09
1.30617e-09
1.18938e-09
1.12046e-09
1.10686e-09
1.10496e-09
1.10103e-09
1.10218e-09
1.09825e-09
1.09743e-09
1.09963e-09
1.09989e-09
1.10148e-09
1.1005e-09
1.11916e-09
1.15406e-09
1.3481e-09
1.66546e-09
2.79624e-09
1.72207e-09
1.61738e-09
1.22904e-09
1.12487e-09
1.06176e-09
1.04959e-09
1.04781e-09
1.04368e-09
1.04497e-09
1.04117e-09
1.04066e-09
1.04256e-09
1.04257e-09
1.04448e-09
1.04368e-09
1.06077e-09
1.09239e-09
1.26527e-09
1.534e-09
2.46483e-09
1.61657e-09
1.48365e-09
1.15914e-09
1.0664e-09
1.00887e-09
9.97913e-10
9.96201e-10
9.91998e-10
9.9341e-10
9.89717e-10
9.89445e-10
9.91046e-10
9.9094e-10
9.93064e-10
9.92417e-10
1.00805e-09
1.03658e-09
1.18969e-09
1.41371e-09
2.2e-09
1.51876e-09
1.37842e-09
1.09549e-09
1.01295e-09
9.60787e-10
9.50819e-10
9.49115e-10
9.44966e-10
9.46477e-10
9.42885e-10
9.42794e-10
9.44088e-10
9.43974e-10
9.46228e-10
9.45714e-10
9.60018e-10
9.85541e-10
1.12063e-09
1.31117e-09
1.96202e-09
1.42652e-09
1.28389e-09
1.0372e-09
9.63558e-10
9.16617e-10
9.07424e-10
9.05609e-10
9.01691e-10
9.0328e-10
8.99781e-10
8.99824e-10
9.00763e-10
9.00785e-10
9.03101e-10
9.02677e-10
9.15792e-10
9.38334e-10
1.05733e-09
1.21787e-09
1.73428e-09
1.33887e-09
1.19837e-09
9.83743e-10
9.17377e-10
8.75709e-10
8.67068e-10
8.64935e-10
8.61526e-10
8.63155e-10
8.59764e-10
8.5989e-10
8.60329e-10
8.60732e-10
8.63036e-10
8.62642e-10
8.74686e-10
8.94218e-10
9.99284e-10
1.13327e-09
1.56492e-09
1.25552e-09
1.12046e-09
9.30272e-10
8.74075e-10
8.35158e-10
8.27359e-10
8.26693e-10
8.21674e-10
8.23613e-10
8.20106e-10
8.20483e-10
8.22402e-10
8.21107e-10
8.23646e-10
8.23342e-10
8.34313e-10
8.52796e-10
9.46501e-10
1.05694e-09
1.40947e-09
1.17688e-09
1.04962e-09
8.79739e-10
8.33816e-10
7.99048e-10
7.91875e-10
7.91155e-10
7.86446e-10
7.88396e-10
7.85021e-10
7.85454e-10
7.87226e-10
7.86042e-10
7.885e-10
7.88197e-10
7.98162e-10
8.1434e-10
8.91925e-10
9.83987e-10
1.27945e-09
1.10412e-09
9.86287e-10
8.37752e-10
7.97483e-10
7.66619e-10
7.60104e-10
7.59357e-10
7.5505e-10
7.56924e-10
7.53782e-10
7.54232e-10
7.55833e-10
7.54778e-10
7.57092e-10
7.56811e-10
7.65764e-10
7.79904e-10
8.47645e-10
9.23909e-10
1.16831e-09
1.0395e-09
9.31834e-10
8.02463e-10
7.67015e-10
7.39971e-10
7.34149e-10
7.33419e-10
7.29632e-10
7.31293e-10
7.28542e-10
7.28962e-10
7.3034e-10
7.29444e-10
7.31512e-10
7.31312e-10
7.39151e-10
7.5159e-10
8.10166e-10
8.74324e-10
1.07586e-09
9.86844e-10
8.89182e-10
7.77409e-10
7.45771e-10
7.2266e-10
7.17555e-10
7.16889e-10
7.13786e-10
7.15037e-10
7.12909e-10
7.13234e-10
7.14288e-10
7.13637e-10
7.15304e-10
7.15275e-10
7.21793e-10
7.32931e-10
7.82616e-10
8.38187e-10
1.00325e-09
9.51588e-10
8.63172e-10
7.68122e-10
7.39054e-10
7.20222e-10
7.15844e-10
7.15282e-10
7.13096e-10
7.13655e-10
7.12483e-10
7.12699e-10
7.13265e-10
7.13019e-10
7.14053e-10
7.14334e-10
7.19181e-10
7.2952e-10
7.70062e-10
8.20533e-10
9.53465e-10
9.42011e-10
8.61633e-10
7.83483e-10
7.55423e-10
7.41579e-10
7.37953e-10
7.37523e-10
7.36635e-10
7.36047e-10
7.3636e-10
7.3639e-10
7.36201e-10
7.3664e-10
7.36674e-10
7.37508e-10
7.40078e-10
7.50351e-10
7.80563e-10
8.29742e-10
9.32606e-10
9.72236e-10
8.98339e-10
8.38591e-10
8.09538e-10
8.0201e-10
7.99122e-10
7.98866e-10
7.99861e-10
7.97425e-10
8.0005e-10
7.9968e-10
7.98328e-10
7.99881e-10
7.98389e-10
8.00112e-10
7.99618e-10
8.10565e-10
8.28465e-10
8.79911e-10
9.53002e-10
1.06567e-09
9.96962e-10
9.58886e-10
9.26476e-10
9.27221e-10
9.24859e-10
9.24829e-10
9.28443e-10
9.23196e-10
9.29248e-10
9.2829e-10
9.25217e-10
9.28485e-10
9.24757e-10
9.27882e-10
9.23151e-10
9.36007e-10
9.37965e-10
9.95734e-10
1.03494e-09
1.25889e-09
1.19511e-09
1.18122e-09
1.14433e-09
1.1552e-09
1.15117e-09
1.15141e-09
1.15785e-09
1.14914e-09
1.15929e-09
1.15764e-09
1.1525e-09
1.15792e-09
1.15155e-09
1.15656e-09
1.14879e-09
1.16436e-09
1.14616e-09
1.21341e-09
1.21238e-09
1.59302e-09
1.53518e-09
1.53745e-09
1.49611e-09
1.51113e-09
1.50666e-09
1.50716e-09
1.51436e-09
1.50358e-09
1.51593e-09
1.51392e-09
1.50764e-09
1.51446e-09
1.50671e-09
1.51331e-09
1.50226e-09
1.52113e-09
1.49054e-09
1.56195e-09
1.52541e-09
2.07146e-09
2.0195e-09
2.0029e-09
1.96524e-09
1.96748e-09
1.96101e-09
1.96149e-09
1.96317e-09
1.95618e-09
1.96338e-09
1.96233e-09
1.95851e-09
1.96331e-09
1.9589e-09
1.96484e-09
1.95793e-09
1.97797e-09
1.96149e-09
2.02027e-09
1.98274e-09
2.57398e-09
2.52173e-09
2.42145e-09
2.40315e-09
2.36547e-09
2.35595e-09
2.35574e-09
2.34284e-09
2.34953e-09
2.33958e-09
2.34159e-09
2.34623e-09
2.343e-09
2.34959e-09
2.35031e-09
2.36006e-09
2.37522e-09
2.42081e-09
2.4385e-09
2.47969e-09
2.80731e-09
2.74566e-09
2.52351e-09
2.53568e-09
2.44701e-09
2.43574e-09
2.43424e-09
2.40421e-09
2.42939e-09
2.39695e-09
2.40289e-09
2.41876e-09
2.40436e-09
2.42521e-09
2.41766e-09
2.45025e-09
2.45424e-09
2.58861e-09
2.54849e-09
2.73718e-09
2.56409e-09
2.49882e-09
2.22526e-09
2.25619e-09
2.14871e-09
2.13867e-09
2.13642e-09
2.10049e-09
2.13423e-09
2.0918e-09
2.09954e-09
2.12036e-09
2.10073e-09
2.12741e-09
2.11542e-09
2.15758e-09
2.15306e-09
2.32582e-09
2.25562e-09
2.52955e-09
2.05891e-09
1.99706e-09
1.7509e-09
1.78293e-09
1.68676e-09
1.67893e-09
1.67671e-09
1.64399e-09
1.67692e-09
1.63587e-09
1.64366e-09
1.66336e-09
1.64464e-09
1.66914e-09
1.65754e-09
1.69585e-09
1.69003e-09
1.84576e-09
1.78344e-09
2.04136e-09
1.4812e-09
1.4251e-09
1.24334e-09
1.26567e-09
1.19586e-09
1.18991e-09
1.18843e-09
1.1635e-09
1.18986e-09
1.157e-09
1.16378e-09
1.17868e-09
1.16475e-09
1.18247e-09
1.17446e-09
1.20129e-09
1.19947e-09
1.30929e-09
1.274e-09
1.46196e-09
1.23923e-09
1.18035e-09
1.04372e-09
1.05452e-09
1.00354e-09
9.96936e-10
9.96685e-10
9.75496e-10
9.98537e-10
9.69567e-10
9.76721e-10
9.87753e-10
9.78128e-10
9.90191e-10
9.8659e-10
1.00265e-09
1.01002e-09
1.07917e-09
1.07771e-09
1.19687e-09
)
;

boundaryField
{
    fuel
    {
        type            fixedValue;
        value           uniform 0;
    }
    wall
    {
        type            zeroGradient;
    }
    outlet
    {
        type            zeroGradient;
    }
    frontAndBack
    {
        type            empty;
    }
}


// ************************************************************************* //
