/*--------------------------------*- C++ -*----------------------------------*\
| =========                 |                                                 |
| \\      /  F ield         | OpenFOAM: The Open Source CFD Toolbox           |
|  \\    /   O peration     | Version:  dev                                   |
|   \\  /    A nd           | Web:      www.OpenFOAM.org                      |
|    \\/     M anipulation  |                                                 |
\*---------------------------------------------------------------------------*/
FoamFile
{
    version     2.0;
    format      ascii;
    class       volScalarField;
    location    "0.1";
    object      C6H5O;
}
// * * * * * * * * * * * * * * * * * * * * * * * * * * * * * * * * * * * * * //

dimensions      [0 0 0 0 0 0 0];

internalField   nonuniform List<scalar> 
100
(
6.92459e-09
2.1787e-09
6.16124e-10
1.69033e-10
4.49982e-11
1.20714e-11
3.1861e-12
8.38798e-13
2.25028e-13
5.98083e-14
1.6285e-14
4.41771e-15
1.21607e-15
3.41777e-16
9.92734e-17
3.05719e-17
1.04822e-17
4.28572e-18
2.18377e-18
1.34898e-18
9.40873e-19
6.982e-19
5.33562e-19
4.13838e-19
3.23836e-19
2.55855e-19
2.0474e-19
1.65716e-19
1.36291e-19
1.14858e-19
1.00895e-19
9.57589e-20
1.0307e-19
1.32518e-19
2.04554e-19
3.59888e-19
6.76146e-19
1.29541e-18
2.46621e-18
4.60198e-18
8.46031e-18
1.52185e-17
2.66422e-17
4.46248e-17
7.28637e-17
1.16255e-16
1.8167e-16
2.71608e-16
3.96722e-16
5.70042e-16
7.92333e-16
1.07766e-15
1.43589e-15
1.8896e-15
2.43259e-15
3.03745e-15
3.72683e-15
4.49042e-15
5.3131e-15
6.17415e-15
7.04723e-15
7.90136e-15
8.70261e-15
9.41637e-15
1.001e-14
1.04553e-14
1.0731e-14
1.08244e-14
1.0732e-14
1.04596e-14
1.00156e-14
9.43239e-15
8.7321e-15
7.94421e-15
7.10079e-15
6.21683e-15
5.36801e-15
4.55275e-15
3.77517e-15
3.09496e-15
2.49418e-15
1.98152e-15
1.55113e-15
1.19481e-15
9.03602e-16
6.81645e-16
5.07482e-16
3.72575e-16
2.68932e-16
1.89886e-16
1.30174e-16
8.57498e-17
5.35406e-17
3.11269e-17
1.64627e-17
7.68601e-18
3.0524e-18
9.95072e-19
2.70952e-19
7.21629e-20
)
;

boundaryField
{
    wall
    {
        type            zeroGradient;
    }
    fuel
    {
        type            fixedValue;
        value           uniform 0;
    }
    outlet
    {
        type            inletOutlet;
        inletValue      uniform 0;
        value           uniform 7.21629e-20;
    }
}


// ************************************************************************* //
