/*--------------------------------*- C++ -*----------------------------------*\
| =========                 |                                                 |
| \\      /  F ield         | OpenFOAM: The Open Source CFD Toolbox           |
|  \\    /   O peration     | Version:  dev                                   |
|   \\  /    A nd           | Web:      www.OpenFOAM.org                      |
|    \\/     M anipulation  |                                                 |
\*---------------------------------------------------------------------------*/
FoamFile
{
    version     2.0;
    format      ascii;
    class       volScalarField;
    location    "0.2";
    object      C6H5OH;
}
// * * * * * * * * * * * * * * * * * * * * * * * * * * * * * * * * * * * * * //

dimensions      [0 0 0 0 0 0 0];

internalField   nonuniform List<scalar> 
1000
(
5.66495e-07
2.55042e-05
1.98702e-05
1.91922e-05
1.91116e-05
1.91044e-05
1.91014e-05
1.91032e-05
1.91026e-05
1.91031e-05
1.91029e-05
1.91028e-05
1.91027e-05
1.91032e-05
1.91021e-05
1.91152e-05
1.91736e-05
1.95989e-05
2.23918e-05
4.82542e-07
1.15791e-06
8.13683e-06
5.62803e-06
5.35877e-06
5.32628e-06
5.32344e-06
5.32256e-06
5.32288e-06
5.32305e-06
5.32291e-06
5.32305e-06
5.32295e-06
5.32269e-06
5.32418e-06
5.32146e-06
5.33242e-06
5.34765e-06
5.54654e-06
6.63048e-06
9.65072e-07
1.6416e-06
3.41783e-06
2.05573e-06
1.9219e-06
1.90521e-06
1.90377e-06
1.90348e-06
1.90346e-06
1.90373e-06
1.90352e-06
1.90367e-06
1.90369e-06
1.90344e-06
1.90479e-06
1.90228e-06
1.91133e-06
1.91332e-06
2.03312e-06
2.55568e-06
2.54915e-06
2.00358e-06
1.87962e-06
9.42933e-07
8.59864e-07
8.4924e-07
8.48314e-07
8.48143e-07
8.4809e-07
8.48324e-07
8.48146e-07
8.48264e-07
8.48347e-07
8.48145e-07
8.4914e-07
8.4728e-07
8.5448e-07
8.52998e-07
9.38449e-07
1.27654e-06
1.12369e-05
2.22447e-06
1.22685e-06
5.04793e-07
4.46642e-07
4.39116e-07
4.38435e-07
4.38204e-07
4.3825e-07
4.38438e-07
4.38305e-07
4.38395e-07
4.38496e-07
4.38343e-07
4.38926e-07
4.37773e-07
4.43251e-07
4.41321e-07
5.07328e-07
7.60317e-07
1.29122e-05
2.31457e-06
8.96383e-07
3.06099e-07
2.61687e-07
2.55942e-07
2.55385e-07
2.54973e-07
2.55219e-07
2.55362e-07
2.5527e-07
2.55338e-07
2.55433e-07
2.55322e-07
2.55506e-07
2.54976e-07
2.59093e-07
2.57599e-07
3.02723e-07
5.07049e-07
6.36146e-06
2.30788e-06
7.05357e-07
2.06594e-07
1.69905e-07
1.65159e-07
1.6464e-07
1.63952e-07
1.64434e-07
1.64553e-07
1.64461e-07
1.64557e-07
1.64637e-07
1.64553e-07
1.64272e-07
1.64386e-07
1.67597e-07
1.66709e-07
2.03226e-07
3.65965e-07
3.98195e-06
2.24759e-06
5.81753e-07
1.47405e-07
1.20514e-07
1.1584e-07
1.15299e-07
1.14516e-07
1.15052e-07
1.15138e-07
1.15062e-07
1.15153e-07
1.15221e-07
1.15151e-07
1.14756e-07
1.15134e-07
1.17877e-07
1.17876e-07
1.45366e-07
2.87124e-07
3.10844e-06
2.16896e-06
4.93754e-07
1.15325e-07
8.80662e-08
8.56633e-08
8.55298e-08
8.57112e-08
8.54905e-08
8.55491e-08
8.54809e-08
8.55711e-08
8.56275e-08
8.55675e-08
8.58837e-08
8.54111e-08
8.67965e-08
8.61605e-08
1.12183e-07
2.4218e-07
2.73804e-06
2.07902e-06
4.25973e-07
9.28274e-08
7.03696e-08
6.76628e-08
6.73787e-08
6.77167e-08
6.72961e-08
6.73077e-08
6.72248e-08
6.73555e-08
6.74094e-08
6.73192e-08
6.78385e-08
6.72818e-08
6.87314e-08
6.87117e-08
8.92825e-08
2.10493e-07
2.55419e-06
1.96264e-06
3.70622e-07
7.72275e-08
5.77939e-08
5.50822e-08
5.4805e-08
5.49163e-08
5.47104e-08
5.47105e-08
5.46571e-08
5.47463e-08
5.47871e-08
5.4688e-08
5.48401e-08
5.47364e-08
5.58838e-08
5.63509e-08
7.41066e-08
1.88913e-07
2.44048e-06
1.80231e-06
3.23636e-07
6.73493e-08
4.90557e-08
4.65384e-08
4.62625e-08
4.63479e-08
4.61752e-08
4.61715e-08
4.61583e-08
4.61887e-08
4.62199e-08
4.60922e-08
4.69329e-08
4.62074e-08
4.71519e-08
4.78308e-08
6.34066e-08
1.71245e-07
2.35066e-06
1.59007e-06
2.82854e-07
5.92254e-08
4.27951e-08
4.04337e-08
4.016e-08
4.06719e-08
4.00821e-08
4.00868e-08
4.01177e-08
4.00788e-08
4.01026e-08
3.99192e-08
4.06153e-08
4.01049e-08
4.09084e-08
4.17297e-08
5.53739e-08
1.56436e-07
2.26302e-06
1.34506e-06
2.47241e-07
5.33709e-08
3.81215e-08
3.58812e-08
3.56043e-08
3.58615e-08
3.55314e-08
3.55566e-08
3.56129e-08
3.55218e-08
3.55409e-08
3.52625e-08
3.5839e-08
3.55484e-08
3.62534e-08
3.71795e-08
5.02501e-08
1.43422e-07
2.16179e-06
1.09574e-06
2.13105e-07
4.83552e-08
3.449e-08
3.23581e-08
3.20778e-08
3.21878e-08
3.19989e-08
3.20521e-08
3.2109e-08
3.19939e-08
3.20118e-08
3.20785e-08
3.21874e-08
3.20199e-08
3.26535e-08
3.36483e-08
4.60384e-08
1.32384e-07
2.03665e-06
8.63925e-07
1.80562e-07
4.38537e-08
3.15667e-08
2.9543e-08
2.92615e-08
2.92949e-08
2.9163e-08
2.92501e-08
2.92918e-08
2.91751e-08
2.91924e-08
2.9225e-08
2.92974e-08
2.9201e-08
2.97791e-08
3.08095e-08
4.21979e-08
1.22141e-07
1.88219e-06
6.61558e-07
1.5591e-07
4.00296e-08
2.91441e-08
2.72331e-08
2.69536e-08
2.69474e-08
2.68204e-08
2.69484e-08
2.69707e-08
2.68644e-08
2.68813e-08
2.68845e-08
2.69467e-08
2.68906e-08
2.74223e-08
2.84622e-08
3.895e-08
1.11997e-07
1.70222e-06
4.96692e-07
1.34346e-07
3.67273e-08
2.7088e-08
2.52992e-08
2.50248e-08
2.49986e-08
2.48388e-08
2.50194e-08
2.50252e-08
2.49333e-08
2.49493e-08
2.49234e-08
2.49926e-08
2.49598e-08
2.545e-08
2.64791e-08
3.60978e-08
1.02369e-07
1.50855e-06
3.67745e-07
1.1557e-07
3.38484e-08
2.53065e-08
2.36574e-08
2.33913e-08
2.33571e-08
2.33539e-08
2.33821e-08
2.3376e-08
2.32987e-08
2.33131e-08
2.32543e-08
2.33442e-08
2.33252e-08
2.37766e-08
2.47786e-08
3.40371e-08
9.33336e-08
1.2816e-06
2.70573e-07
9.93707e-08
3.13304e-08
2.37344e-08
2.22531e-08
2.19981e-08
2.19608e-08
2.19318e-08
2.19828e-08
2.19703e-08
2.19062e-08
2.19181e-08
2.18218e-08
2.19431e-08
2.19323e-08
2.23459e-08
2.33037e-08
3.2013e-08
8.495e-08
1.08576e-06
2.00104e-07
8.55165e-08
2.91337e-08
2.25293e-08
2.10501e-08
2.08091e-08
2.07718e-08
2.07097e-08
2.07873e-08
2.07726e-08
2.07199e-08
2.07291e-08
2.0752e-08
2.07519e-08
2.07454e-08
2.11203e-08
2.2162e-08
3.0103e-08
7.71917e-08
8.90923e-07
1.508e-07
7.29291e-08
2.72247e-08
2.14327e-08
2.00234e-08
1.98004e-08
1.97662e-08
1.97967e-08
1.97735e-08
1.97592e-08
1.97165e-08
1.97227e-08
1.97585e-08
1.97432e-08
1.9741e-08
2.00731e-08
2.11265e-08
2.84045e-08
7.00823e-08
7.29551e-07
1.1714e-07
6.2168e-08
2.55884e-08
2.05714e-08
1.92671e-08
1.90663e-08
1.90349e-08
1.90567e-08
1.90357e-08
1.9024e-08
1.89885e-08
1.89944e-08
1.90336e-08
1.90124e-08
1.90101e-08
1.93174e-08
2.03222e-08
2.69008e-08
6.36322e-08
5.82356e-07
9.42369e-08
5.42849e-08
2.42055e-08
1.98447e-08
1.86691e-08
1.84362e-08
1.84075e-08
1.84217e-08
1.84029e-08
1.83935e-08
1.83646e-08
1.83725e-08
1.84059e-08
1.83839e-08
1.83852e-08
1.86613e-08
1.96333e-08
2.5575e-08
5.78373e-08
4.66163e-07
7.83612e-08
4.78015e-08
2.3201e-08
1.93053e-08
1.82282e-08
1.80129e-08
1.79871e-08
1.79988e-08
1.79786e-08
1.79748e-08
1.79508e-08
1.79592e-08
1.79853e-08
1.79643e-08
1.79682e-08
1.82152e-08
1.91449e-08
2.44123e-08
5.26835e-08
3.71977e-07
6.70101e-08
4.26056e-08
2.23957e-08
1.89316e-08
1.79453e-08
1.775e-08
1.77271e-08
1.77392e-08
1.7716e-08
1.77193e-08
1.76986e-08
1.77049e-08
1.77256e-08
1.77052e-08
1.77124e-08
1.79301e-08
1.88166e-08
2.36001e-08
4.81503e-08
2.9787e-07
5.86818e-08
3.85513e-08
2.1838e-08
1.8722e-08
1.78277e-08
1.76497e-08
1.76297e-08
1.76448e-08
1.7617e-08
1.76287e-08
1.76107e-08
1.76131e-08
1.76313e-08
1.76097e-08
1.76206e-08
1.78083e-08
1.86544e-08
2.29679e-08
4.42128e-08
2.38134e-07
5.24818e-08
3.5215e-08
2.15005e-08
1.86807e-08
1.78781e-08
1.77156e-08
1.76982e-08
1.77184e-08
1.76848e-08
1.77061e-08
1.76903e-08
1.76878e-08
1.77057e-08
1.7681e-08
1.76959e-08
1.78535e-08
1.86613e-08
2.25216e-08
4.08483e-08
1.90391e-07
4.77722e-08
3.25332e-08
2.13781e-08
1.88116e-08
1.80995e-08
1.79506e-08
1.79359e-08
1.79624e-08
1.7922e-08
1.79537e-08
1.79394e-08
1.79318e-08
1.79507e-08
1.79213e-08
1.79406e-08
1.80683e-08
1.88389e-08
2.22667e-08
3.80313e-08
1.55578e-07
4.42368e-08
3.08262e-08
2.14665e-08
1.9116e-08
1.8492e-08
1.83547e-08
1.83429e-08
1.83764e-08
1.83286e-08
1.83713e-08
1.83577e-08
1.83452e-08
1.83657e-08
1.83308e-08
1.83546e-08
1.84535e-08
1.91867e-08
2.22062e-08
3.58723e-08
1.27276e-07
4.16456e-08
2.96852e-08
2.17575e-08
1.95917e-08
1.90528e-08
1.89254e-08
1.89164e-08
1.89571e-08
1.89017e-08
1.89554e-08
1.8942e-08
1.89246e-08
1.89471e-08
1.89064e-08
1.89349e-08
1.90068e-08
1.97017e-08
2.23393e-08
3.41666e-08
1.03093e-07
3.98297e-08
2.90252e-08
2.22403e-08
2.02342e-08
1.97764e-08
1.96568e-08
1.96509e-08
1.96981e-08
1.96354e-08
1.96998e-08
1.96862e-08
1.96643e-08
1.96886e-08
1.96424e-08
1.96755e-08
1.97231e-08
2.03788e-08
2.26629e-08
3.28941e-08
8.70416e-08
3.86593e-08
2.8777e-08
2.29268e-08
2.1041e-08
2.06771e-08
2.05636e-08
2.05424e-08
2.06181e-08
2.05452e-08
2.06227e-08
2.06066e-08
2.05605e-08
2.06082e-08
2.05537e-08
2.05901e-08
2.06157e-08
2.1214e-08
2.31719e-08
3.2019e-08
7.40011e-08
3.80363e-08
2.88897e-08
2.38031e-08
2.20146e-08
2.17177e-08
2.16136e-08
2.15954e-08
2.16773e-08
2.15968e-08
2.16854e-08
2.16684e-08
2.16184e-08
2.16681e-08
2.1608e-08
2.16485e-08
2.16533e-08
2.22125e-08
2.39037e-08
3.14821e-08
6.4335e-08
3.78986e-08
2.93398e-08
2.4853e-08
2.3177e-08
2.29462e-08
2.28527e-08
2.28363e-08
2.29273e-08
2.28376e-08
2.29392e-08
2.29206e-08
2.2865e-08
2.29189e-08
2.28519e-08
2.28966e-08
2.28793e-08
2.34006e-08
2.48109e-08
3.13674e-08
5.70445e-08
3.82315e-08
3.01428e-08
2.61661e-08
2.45823e-08
2.44209e-08
2.43395e-08
2.43245e-08
2.44282e-08
2.43261e-08
2.44447e-08
2.44235e-08
2.43604e-08
2.44207e-08
2.43442e-08
2.43941e-08
2.43509e-08
2.48382e-08
2.59828e-08
3.1681e-08
5.17212e-08
3.90766e-08
3.13605e-08
2.78309e-08
2.63203e-08
2.6234e-08
2.61659e-08
2.61521e-08
2.6272e-08
2.6154e-08
2.62938e-08
2.6269e-08
2.61962e-08
2.6265e-08
2.61761e-08
2.62331e-08
2.61587e-08
2.66179e-08
2.7503e-08
3.24905e-08
4.80787e-08
4.04824e-08
3.30744e-08
2.99357e-08
2.84854e-08
2.84708e-08
2.84148e-08
2.84023e-08
2.85369e-08
2.84028e-08
2.85636e-08
2.85357e-08
2.84529e-08
2.85308e-08
2.84293e-08
2.84945e-08
2.8388e-08
2.88251e-08
2.94649e-08
3.38575e-08
4.59008e-08
4.24306e-08
3.52993e-08
3.24626e-08
3.10763e-08
3.11033e-08
3.1054e-08
3.10421e-08
3.11793e-08
3.10383e-08
3.12076e-08
3.11793e-08
3.10919e-08
3.11743e-08
3.10673e-08
3.11391e-08
3.1012e-08
3.14327e-08
3.18746e-08
3.57417e-08
4.49884e-08
4.46972e-08
3.78375e-08
3.51514e-08
3.38576e-08
3.38617e-08
3.381e-08
3.37973e-08
3.39131e-08
3.37864e-08
3.39372e-08
3.39128e-08
3.38334e-08
3.39088e-08
3.38132e-08
3.38845e-08
3.37672e-08
3.41676e-08
3.45218e-08
3.78662e-08
4.5031e-08
4.67269e-08
4.01895e-08
3.74944e-08
3.63366e-08
3.62479e-08
3.61877e-08
3.61733e-08
3.62435e-08
3.6155e-08
3.62576e-08
3.62422e-08
3.61851e-08
3.62399e-08
3.61748e-08
3.62352e-08
3.61616e-08
3.65284e-08
3.69346e-08
3.9724e-08
4.5421e-08
4.78702e-08
4.17599e-08
3.90057e-08
3.80276e-08
3.78333e-08
3.77426e-08
3.77264e-08
3.77444e-08
3.77039e-08
3.77468e-08
3.77424e-08
3.77135e-08
3.77417e-08
3.77147e-08
3.77576e-08
3.77638e-08
3.80818e-08
3.85967e-08
4.08448e-08
4.55417e-08
4.78152e-08
4.22628e-08
3.95586e-08
3.87456e-08
3.84747e-08
3.83852e-08
3.83685e-08
3.8349e-08
3.83462e-08
3.83433e-08
3.8347e-08
3.83405e-08
3.83472e-08
3.83499e-08
3.83767e-08
3.84264e-08
3.86924e-08
3.93053e-08
4.10752e-08
4.50342e-08
4.67916e-08
4.19051e-08
3.94321e-08
3.87601e-08
3.84789e-08
3.83963e-08
3.83806e-08
3.83463e-08
3.83613e-08
3.83375e-08
3.83448e-08
3.83491e-08
3.83454e-08
3.83617e-08
3.83789e-08
3.84474e-08
3.86665e-08
3.92839e-08
4.06865e-08
4.39841e-08
4.53264e-08
4.11564e-08
3.90448e-08
3.84861e-08
3.82417e-08
3.8169e-08
3.81552e-08
3.81222e-08
3.81391e-08
3.81138e-08
3.81211e-08
3.81273e-08
3.8122e-08
3.81395e-08
3.81536e-08
3.822e-08
3.84022e-08
3.89478e-08
4.00833e-08
4.27531e-08
4.38652e-08
4.04048e-08
3.86896e-08
3.8225e-08
3.80314e-08
3.79689e-08
3.79571e-08
3.79311e-08
3.79436e-08
3.79244e-08
3.793e-08
3.79347e-08
3.79315e-08
3.79453e-08
3.79592e-08
3.80149e-08
3.81689e-08
3.86154e-08
3.95514e-08
4.16659e-08
4.26101e-08
3.98121e-08
3.84606e-08
3.80786e-08
3.79291e-08
3.78756e-08
3.78655e-08
3.78456e-08
3.78538e-08
3.78402e-08
3.78442e-08
3.78476e-08
3.78463e-08
3.78567e-08
3.78706e-08
3.79159e-08
3.80467e-08
3.84037e-08
3.91804e-08
4.08496e-08
4.1586e-08
3.93745e-08
3.83284e-08
3.80185e-08
3.79012e-08
3.78555e-08
3.78465e-08
3.78304e-08
3.78363e-08
3.78259e-08
3.78285e-08
3.7832e-08
3.78313e-08
3.78399e-08
3.78531e-08
3.7891e-08
3.80018e-08
3.82902e-08
3.89363e-08
4.02732e-08
4.07831e-08
3.90498e-08
3.8243e-08
3.79912e-08
3.78963e-08
3.7857e-08
3.78488e-08
3.78352e-08
3.78397e-08
3.78312e-08
3.78326e-08
3.78368e-08
3.7836e-08
3.78437e-08
3.7856e-08
3.78888e-08
3.79832e-08
3.82218e-08
3.87668e-08
3.98691e-08
4.02587e-08
3.88403e-08
3.81886e-08
3.79741e-08
3.78932e-08
3.78581e-08
3.78503e-08
3.78383e-08
3.78419e-08
3.78346e-08
3.78352e-08
3.78399e-08
3.7839e-08
3.78462e-08
3.78577e-08
3.78873e-08
3.7971e-08
3.81781e-08
3.86594e-08
3.96208e-08
)
;

boundaryField
{
    fuel
    {
        type            fixedValue;
        value           uniform 0;
    }
    wall
    {
        type            zeroGradient;
    }
    outlet
    {
        type            zeroGradient;
    }
    frontAndBack
    {
        type            empty;
    }
}


// ************************************************************************* //
