/*--------------------------------*- C++ -*----------------------------------*\
| =========                 |                                                 |
| \\      /  F ield         | OpenFOAM: The Open Source CFD Toolbox           |
|  \\    /   O peration     | Version:  dev                                   |
|   \\  /    A nd           | Web:      www.OpenFOAM.org                      |
|    \\/     M anipulation  |                                                 |
\*---------------------------------------------------------------------------*/
FoamFile
{
    version     2.0;
    format      ascii;
    class       volScalarField;
    location    "0.2";
    object      C6H5O;
}
// * * * * * * * * * * * * * * * * * * * * * * * * * * * * * * * * * * * * * //

dimensions      [0 0 0 0 0 0 0];

internalField   nonuniform List<scalar> 
1000
(
2.35481e-07
1.41429e-06
1.30863e-06
1.28707e-06
1.28478e-06
1.28386e-06
1.28394e-06
1.28392e-06
1.28394e-06
1.28392e-06
1.28387e-06
1.2839e-06
1.28394e-06
1.28386e-06
1.28397e-06
1.28433e-06
1.28806e-06
1.31998e-06
1.56809e-06
1.17182e-07
5.78622e-07
4.49811e-07
3.90804e-07
3.75969e-07
3.75473e-07
3.74583e-07
3.7473e-07
3.74651e-07
3.74665e-07
3.74659e-07
3.74626e-07
3.74653e-07
3.74641e-07
3.74632e-07
3.74664e-07
3.7485e-07
3.76884e-07
3.94665e-07
5.68957e-07
2.40236e-07
6.58062e-07
1.42513e-07
1.1751e-07
1.09395e-07
1.09597e-07
1.08946e-07
1.09085e-07
1.09002e-07
1.09022e-07
1.09008e-07
1.08994e-07
1.09012e-07
1.08997e-07
1.09006e-07
1.09008e-07
1.09097e-07
1.10001e-07
1.17705e-07
2.04581e-07
2.74001e-07
9.45251e-07
5.90613e-08
4.52279e-08
4.04073e-08
4.06508e-08
4.02128e-08
4.03155e-08
4.0254e-08
4.02717e-08
4.02584e-08
4.02534e-08
4.02634e-08
4.02526e-08
4.02581e-08
4.02584e-08
4.03087e-08
4.07926e-08
4.47915e-08
9.56289e-08
2.58228e-07
4.55033e-07
3.07938e-08
2.20002e-08
1.87402e-08
1.89239e-08
1.86249e-08
1.86926e-08
1.86535e-08
1.86669e-08
1.86562e-08
1.86553e-08
1.86607e-08
1.86526e-08
1.86527e-08
1.86569e-08
1.86905e-08
1.90002e-08
2.14857e-08
5.60178e-08
2.20437e-07
2.24821e-07
1.9016e-08
1.23467e-08
1.03208e-08
1.04444e-08
1.02331e-08
1.02732e-08
1.02524e-08
1.0262e-08
1.02536e-08
1.02545e-08
1.02575e-08
1.02511e-08
1.0247e-08
1.02548e-08
1.02807e-08
1.05077e-08
1.22614e-08
3.78357e-08
1.76369e-07
1.39904e-07
1.30548e-08
8.01317e-09
6.46695e-09
6.54063e-09
6.38547e-09
6.40686e-09
6.39803e-09
6.40517e-09
6.39745e-09
6.40011e-09
6.40188e-09
6.39555e-09
6.38611e-09
6.40013e-09
6.42207e-09
6.60931e-09
7.96243e-09
2.78416e-08
1.33597e-07
1.04182e-07
9.9024e-09
5.70628e-09
4.46393e-09
4.50461e-09
4.38885e-09
4.40232e-09
4.39727e-09
4.40253e-09
4.39641e-09
4.39901e-09
4.40007e-09
4.39505e-09
4.38809e-09
4.3991e-09
4.41681e-09
4.57883e-09
5.70986e-09
2.16177e-08
9.37616e-08
8.59694e-08
8.17006e-09
4.30539e-09
3.28295e-09
3.34243e-09
3.25848e-09
3.27393e-09
3.26436e-09
3.26857e-09
3.26437e-09
3.26598e-09
3.26661e-09
3.26328e-09
3.26266e-09
3.26633e-09
3.27715e-09
3.36598e-09
4.32796e-09
1.73826e-08
5.8437e-08
7.53532e-08
7.00804e-09
3.3814e-09
2.57575e-09
2.59486e-09
2.52359e-09
2.54123e-09
2.5267e-09
2.53024e-09
2.52713e-09
2.5285e-09
2.52892e-09
2.52544e-09
2.53269e-09
2.52994e-09
2.54235e-09
2.64989e-09
3.40823e-09
1.43048e-08
3.44107e-08
6.87524e-08
6.22665e-09
2.77789e-09
2.09231e-09
2.09385e-09
2.03945e-09
2.05284e-09
2.04075e-09
2.04367e-09
2.04115e-09
2.04252e-09
2.04276e-09
2.03871e-09
2.0459e-09
2.04433e-09
2.05578e-09
2.15294e-09
2.86235e-09
1.1958e-08
2.27997e-08
6.4321e-08
5.60059e-09
2.35688e-09
1.76532e-09
1.75517e-09
1.71129e-09
1.7184e-09
1.71136e-09
1.71401e-09
1.71169e-09
1.71323e-09
1.7134e-09
1.70802e-09
1.71042e-09
1.7154e-09
1.72664e-09
1.81692e-09
2.45181e-09
1.01027e-08
1.75542e-08
6.08079e-08
5.08672e-09
2.04126e-09
1.53209e-09
1.51445e-09
1.47774e-09
1.47751e-09
1.47685e-09
1.47944e-09
1.47754e-09
1.4789e-09
1.47907e-09
1.4716e-09
1.4973e-09
1.48159e-09
1.49257e-09
1.57694e-09
2.12729e-09
8.60213e-09
1.45471e-08
5.73712e-08
4.64213e-09
1.84406e-09
1.35806e-09
1.33536e-09
1.30398e-09
1.31921e-09
1.30211e-09
1.30479e-09
1.30339e-09
1.30439e-09
1.30464e-09
1.2936e-09
1.31737e-09
1.30739e-09
1.31832e-09
1.39762e-09
1.90346e-09
7.27414e-09
1.21613e-08
5.35299e-08
4.26288e-09
1.67569e-09
1.22278e-09
1.19673e-09
1.16923e-09
1.18099e-09
1.16644e-09
1.16947e-09
1.16849e-09
1.16918e-09
1.16959e-09
1.17178e-09
1.17793e-09
1.17237e-09
1.18332e-09
1.25808e-09
1.69863e-09
6.07532e-09
9.86195e-09
4.90971e-08
3.91421e-09
1.52595e-09
1.11384e-09
1.08577e-09
1.0612e-09
1.06951e-09
1.05739e-09
1.06108e-09
1.06038e-09
1.06086e-09
1.06143e-09
1.06222e-09
1.06681e-09
1.06422e-09
1.07516e-09
1.14572e-09
1.52756e-09
5.20128e-09
7.70623e-09
4.41206e-08
3.57798e-09
1.39916e-09
1.02355e-09
9.94496e-10
9.72269e-10
9.7802e-10
9.67132e-10
9.71913e-10
9.7136e-10
9.71748e-10
9.72453e-10
9.71851e-10
9.76071e-10
9.75248e-10
9.86118e-10
1.05262e-09
1.38337e-09
4.44928e-09
5.92431e-09
3.88257e-08
3.25895e-09
1.28697e-09
9.46998e-10
9.17808e-10
8.97579e-10
9.01534e-10
8.9058e-10
8.97067e-10
8.96566e-10
8.96928e-10
8.97737e-10
8.95373e-10
9.00375e-10
9.00539e-10
9.11246e-10
9.7376e-10
1.26036e-09
3.80897e-09
4.61171e-09
3.35402e-08
2.96256e-09
1.20658e-09
8.81014e-10
8.52367e-10
8.33947e-10
8.3676e-10
8.32898e-10
8.33349e-10
8.32841e-10
8.33197e-10
8.34079e-10
8.29093e-10
8.36192e-10
8.36872e-10
8.47327e-10
9.0585e-10
1.15455e-09
3.27248e-09
3.69162e-09
2.76036e-08
2.6869e-09
1.13006e-09
8.23371e-10
7.95944e-10
7.79242e-10
7.81272e-10
7.77255e-10
7.78574e-10
7.78076e-10
7.7842e-10
7.79357e-10
7.78259e-10
7.81234e-10
7.82096e-10
7.92219e-10
8.46691e-10
1.06295e-09
2.78102e-09
3.0404e-09
2.27742e-08
2.43402e-09
1.05505e-09
7.78024e-10
7.46988e-10
7.32009e-10
7.33471e-10
7.28864e-10
7.31277e-10
7.30818e-10
7.31129e-10
7.32089e-10
7.33407e-10
7.33856e-10
7.34732e-10
7.44461e-10
7.94501e-10
9.83762e-10
2.37133e-09
2.57126e-09
1.86564e-08
2.20296e-09
9.88169e-10
7.36589e-10
7.04297e-10
6.91234e-10
6.92241e-10
6.9191e-10
6.90433e-10
6.90036e-10
6.90272e-10
6.91237e-10
6.92078e-10
6.92908e-10
6.9374e-10
7.03033e-10
7.49313e-10
9.1544e-10
2.04532e-09
2.23195e-09
1.49064e-08
1.9925e-09
9.28313e-10
7.03065e-10
6.72524e-10
6.60444e-10
6.61314e-10
6.60921e-10
6.59705e-10
6.59351e-10
6.59378e-10
6.60489e-10
6.61142e-10
6.62054e-10
6.62836e-10
6.71663e-10
7.14142e-10
8.56923e-10
1.77252e-09
1.9849e-09
1.20058e-08
1.80294e-09
8.74447e-10
6.73119e-10
6.43703e-10
6.32797e-10
6.33414e-10
6.33007e-10
6.32008e-10
6.31707e-10
6.32124e-10
6.32837e-10
6.33331e-10
6.34294e-10
6.34999e-10
6.43441e-10
6.83436e-10
8.0697e-10
1.55309e-09
1.79926e-09
9.78831e-09
1.63325e-09
8.254e-10
6.4982e-10
6.21908e-10
6.1213e-10
6.12563e-10
6.12209e-10
6.11353e-10
6.11139e-10
6.11365e-10
6.12157e-10
6.12595e-10
6.13462e-10
6.14115e-10
6.22016e-10
6.5885e-10
7.69697e-10
1.37837e-09
1.6529e-09
7.7593e-09
1.4819e-09
7.89162e-10
6.31323e-10
6.04889e-10
5.9624e-10
5.96484e-10
5.96229e-10
5.95467e-10
5.95351e-10
5.95548e-10
5.96219e-10
5.96624e-10
5.97371e-10
5.97987e-10
6.05241e-10
6.39164e-10
7.36723e-10
1.24059e-09
1.53369e-09
6.06304e-09
1.3478e-09
7.58097e-10
6.17302e-10
5.92376e-10
5.84811e-10
5.84876e-10
5.84741e-10
5.84041e-10
5.84023e-10
5.84202e-10
5.84686e-10
5.85094e-10
5.85705e-10
5.86299e-10
5.92964e-10
6.23979e-10
7.1196e-10
1.13248e-09
1.43241e-09
4.85654e-09
1.23009e-09
7.32086e-10
6.07336e-10
5.84008e-10
5.7742e-10
5.77334e-10
5.77318e-10
5.76656e-10
5.7673e-10
5.76879e-10
5.77159e-10
5.77601e-10
5.78065e-10
5.7865e-10
5.84787e-10
6.12953e-10
6.92582e-10
1.03821e-09
1.34542e-09
4.04126e-09
1.12723e-09
7.10534e-10
6.0084e-10
5.79174e-10
5.7345e-10
5.73238e-10
5.73322e-10
5.72685e-10
5.72834e-10
5.72953e-10
5.73051e-10
5.73535e-10
5.73866e-10
5.74455e-10
5.80134e-10
6.05574e-10
6.77798e-10
9.62187e-10
1.27096e-09
3.31428e-09
1.04156e-09
6.92802e-10
5.96938e-10
5.77055e-10
5.72022e-10
5.71723e-10
5.71854e-10
5.71243e-10
5.71443e-10
5.71524e-10
5.71502e-10
5.72001e-10
5.72254e-10
5.72857e-10
5.78162e-10
6.0107e-10
6.66626e-10
9.09969e-10
1.20755e-09
2.65303e-09
9.66223e-10
6.77913e-10
5.94434e-10
5.7651e-10
5.71934e-10
5.71598e-10
5.71683e-10
5.71125e-10
5.71326e-10
5.71357e-10
5.71316e-10
5.71766e-10
5.72055e-10
5.72676e-10
5.77706e-10
5.98338e-10
6.57769e-10
8.68539e-10
1.15281e-09
2.206e-09
8.99473e-10
6.6459e-10
5.91806e-10
5.76048e-10
5.7165e-10
5.71336e-10
5.71252e-10
5.70813e-10
5.70933e-10
5.70896e-10
5.7097e-10
5.71273e-10
5.71763e-10
5.72389e-10
5.77226e-10
5.95949e-10
6.4964e-10
8.34221e-10
1.10382e-09
1.83543e-09
8.38844e-10
6.51293e-10
5.87305e-10
5.73672e-10
5.69268e-10
5.69041e-10
5.68789e-10
5.68422e-10
5.68498e-10
5.68375e-10
5.68716e-10
5.6875e-10
5.69483e-10
5.70085e-10
5.74667e-10
5.92218e-10
6.39364e-10
8.03589e-10
1.05731e-09
1.53853e-09
7.79662e-10
6.34515e-10
5.79192e-10
5.67808e-10
5.63166e-10
5.63079e-10
5.62536e-10
5.62354e-10
5.62268e-10
5.6204e-10
5.62795e-10
5.62441e-10
5.63603e-10
5.64135e-10
5.68506e-10
5.85309e-10
6.25866e-10
7.73543e-10
1.00991e-09
1.29672e-09
7.2485e-10
6.15238e-10
5.66019e-10
5.56897e-10
5.51864e-10
5.51957e-10
5.51037e-10
5.51105e-10
5.50792e-10
5.50445e-10
5.51727e-10
5.50891e-10
5.52619e-10
5.53037e-10
5.57203e-10
5.73608e-10
6.0799e-10
7.41398e-10
9.58577e-10
1.09809e-09
6.70861e-10
5.91141e-10
5.46835e-10
5.39865e-10
5.34383e-10
5.34683e-10
5.33343e-10
5.33681e-10
5.33125e-10
5.3265e-10
5.3453e-10
5.33154e-10
5.35519e-10
5.3579e-10
5.39762e-10
5.55941e-10
5.84263e-10
7.05097e-10
9.0097e-10
9.32692e-10
6.16476e-10
5.61325e-10
5.21071e-10
5.16035e-10
5.10119e-10
5.10636e-10
5.08866e-10
5.09479e-10
5.08679e-10
5.08069e-10
5.10597e-10
5.08639e-10
5.11675e-10
5.11776e-10
5.15577e-10
5.31594e-10
5.54056e-10
6.63336e-10
8.36327e-10
7.9302e-10
5.6008e-10
5.24955e-10
4.87804e-10
4.84525e-10
4.7812e-10
4.78884e-10
4.76661e-10
4.7757e-10
4.76509e-10
4.75754e-10
4.79017e-10
4.76406e-10
4.80165e-10
4.80074e-10
4.83762e-10
4.99697e-10
5.16555e-10
6.15089e-10
7.63975e-10
6.72096e-10
4.99093e-10
4.80257e-10
4.45065e-10
4.43457e-10
4.36419e-10
4.3748e-10
4.34766e-10
4.36007e-10
4.34655e-10
4.33739e-10
4.37839e-10
4.3449e-10
4.39014e-10
4.38724e-10
4.42362e-10
4.58353e-10
4.69884e-10
5.58445e-10
6.82193e-10
5.60653e-10
4.30997e-10
4.24546e-10
3.90936e-10
3.9079e-10
3.83196e-10
3.84539e-10
3.81418e-10
3.82965e-10
3.81352e-10
3.80282e-10
3.85138e-10
3.81117e-10
3.8624e-10
3.85793e-10
3.89326e-10
4.05236e-10
4.11931e-10
4.90715e-10
5.88967e-10
4.54036e-10
3.56625e-10
3.5801e-10
3.27237e-10
3.28155e-10
3.20536e-10
3.22014e-10
3.1881e-10
3.20491e-10
3.1879e-10
3.17673e-10
3.22781e-10
3.18506e-10
3.2367e-10
3.23163e-10
3.26339e-10
3.41276e-10
3.44171e-10
4.11763e-10
4.85731e-10
3.54145e-10
2.82655e-10
2.87639e-10
2.61484e-10
2.62681e-10
2.56885e-10
2.58244e-10
2.55435e-10
2.56968e-10
2.55448e-10
2.54452e-10
2.59016e-10
2.55164e-10
2.59609e-10
2.5916e-10
2.61525e-10
2.73761e-10
2.74839e-10
3.28475e-10
3.81044e-10
2.69421e-10
2.2071e-10
2.25231e-10
2.06163e-10
2.07234e-10
2.02885e-10
2.03929e-10
2.01817e-10
2.03e-10
2.01845e-10
2.01081e-10
2.04562e-10
2.01607e-10
2.04896e-10
2.04572e-10
2.06204e-10
2.15203e-10
2.15394e-10
2.53874e-10
2.8956e-10
2.06794e-10
1.7515e-10
1.78193e-10
1.6517e-10
1.6595e-10
1.62896e-10
1.6364e-10
1.62144e-10
1.62999e-10
1.62173e-10
1.61617e-10
1.64119e-10
1.61987e-10
1.64289e-10
1.64071e-10
1.65176e-10
1.71377e-10
1.71357e-10
1.97399e-10
2.21344e-10
1.62346e-10
1.40315e-10
1.42606e-10
1.32905e-10
1.33584e-10
1.31215e-10
1.31823e-10
1.30643e-10
1.31339e-10
1.30674e-10
1.30224e-10
1.32234e-10
1.30512e-10
1.32293e-10
1.32128e-10
1.32929e-10
1.37568e-10
1.37327e-10
1.55905e-10
1.723e-10
1.2357e-10
1.06689e-10
1.08749e-10
1.00956e-10
1.01642e-10
9.96886e-11
1.00232e-10
9.92497e-11
9.98509e-11
9.92842e-11
9.89068e-11
1.00601e-10
9.9137e-11
1.00579e-10
1.00446e-10
1.01021e-10
1.04696e-10
1.0422e-10
1.182e-10
1.29347e-10
8.57249e-11
7.40355e-11
7.54081e-11
7.00564e-11
7.05973e-11
6.92501e-11
6.96487e-11
6.89792e-11
6.93984e-11
6.90086e-11
6.87577e-11
6.98997e-11
6.89042e-11
6.98465e-11
6.97684e-11
7.00978e-11
7.25461e-11
7.21675e-11
8.14014e-11
8.85165e-11
5.67241e-11
5.03167e-11
5.06472e-11
4.79446e-11
4.82083e-11
4.75404e-11
4.774e-11
4.7426e-11
4.76217e-11
4.74423e-11
4.73375e-11
4.7836e-11
4.73976e-11
4.77978e-11
4.77844e-11
4.7907e-11
4.90779e-11
4.90363e-11
5.37567e-11
5.81242e-11
4.26657e-11
3.95657e-11
3.91948e-11
3.81158e-11
3.81615e-11
3.79128e-11
3.79776e-11
3.78775e-11
3.79338e-11
3.78845e-11
3.78611e-11
3.79868e-11
3.78737e-11
3.79704e-11
3.79907e-11
3.80142e-11
3.8451e-11
3.86296e-11
4.07346e-11
4.36214e-11
3.87336e-11
3.68109e-11
3.62236e-11
3.56743e-11
3.56306e-11
3.55197e-11
3.5538e-11
3.55024e-11
3.55153e-11
3.55073e-11
3.54985e-11
3.55356e-11
3.54994e-11
3.55259e-11
3.55476e-11
3.55515e-11
3.57801e-11
3.59957e-11
3.7272e-11
3.95089e-11
)
;

boundaryField
{
    fuel
    {
        type            fixedValue;
        value           uniform 0;
    }
    wall
    {
        type            zeroGradient;
    }
    outlet
    {
        type            zeroGradient;
    }
    frontAndBack
    {
        type            empty;
    }
}


// ************************************************************************* //
