/*--------------------------------*- C++ -*----------------------------------*\
| =========                 |                                                 |
| \\      /  F ield         | OpenFOAM: The Open Source CFD Toolbox           |
|  \\    /   O peration     | Version:  dev                                   |
|   \\  /    A nd           | Web:      www.OpenFOAM.org                      |
|    \\/     M anipulation  |                                                 |
\*---------------------------------------------------------------------------*/
FoamFile
{
    version     2.0;
    format      ascii;
    class       volScalarField;
    location    "0.2";
    object      C6H5O;
}
// * * * * * * * * * * * * * * * * * * * * * * * * * * * * * * * * * * * * * //

dimensions      [0 0 0 0 0 0 0];

internalField   nonuniform List<scalar> 
1000
(
1.27163e-07
1.52977e-06
1.30635e-06
1.27597e-06
1.27219e-06
1.27185e-06
1.27173e-06
1.27179e-06
1.27182e-06
1.27182e-06
1.27182e-06
1.27182e-06
1.27182e-06
1.27183e-06
1.27177e-06
1.27256e-06
1.27491e-06
1.29556e-06
1.40697e-06
2.23227e-07
2.70795e-07
5.51433e-07
3.96273e-07
3.79117e-07
3.77012e-07
3.76831e-07
3.76783e-07
3.76795e-07
3.7682e-07
3.76803e-07
3.76818e-07
3.76809e-07
3.76789e-07
3.76908e-07
3.76683e-07
3.77522e-07
3.78307e-07
3.91757e-07
4.59527e-07
5.46352e-07
3.17685e-07
1.94122e-07
1.1749e-07
1.10122e-07
1.09192e-07
1.09115e-07
1.09103e-07
1.09098e-07
1.09118e-07
1.09103e-07
1.09114e-07
1.09115e-07
1.09097e-07
1.09192e-07
1.09013e-07
1.09606e-07
1.09585e-07
1.16661e-07
1.47204e-07
6.91797e-07
3.04733e-07
8.90835e-08
4.44393e-08
4.06463e-08
4.01536e-08
4.01119e-08
4.01059e-08
4.01015e-08
4.01144e-08
4.01046e-08
4.01112e-08
4.01158e-08
4.01039e-08
4.01603e-08
4.00545e-08
4.04368e-08
4.02923e-08
4.44931e-08
6.16216e-08
6.19953e-07
2.66726e-07
5.16708e-08
2.1242e-08
1.88812e-08
1.85695e-08
1.85417e-08
1.85325e-08
1.85336e-08
1.85426e-08
1.85363e-08
1.85407e-08
1.85455e-08
1.85379e-08
1.85662e-08
1.85104e-08
1.87618e-08
1.86408e-08
2.15164e-08
3.28591e-08
9.69264e-07
2.21226e-07
3.49423e-08
1.21333e-08
1.0441e-08
1.02171e-08
1.01954e-08
1.01787e-08
1.01884e-08
1.01948e-08
1.01907e-08
1.01938e-08
1.01979e-08
1.01929e-08
1.02014e-08
1.01778e-08
1.03514e-08
1.027e-08
1.20832e-08
2.03278e-08
4.98114e-07
1.74941e-07
2.59577e-08
7.92877e-09
6.5759e-09
6.39663e-09
6.37684e-09
6.34936e-09
6.36843e-09
6.37347e-09
6.36953e-09
6.37367e-09
6.37706e-09
6.37342e-09
6.36226e-09
6.36652e-09
6.49556e-09
6.44788e-09
7.85863e-09
1.39257e-08
2.6127e-07
1.28713e-07
2.04214e-08
5.54159e-09
4.585e-09
4.4101e-09
4.38964e-09
4.35887e-09
4.37977e-09
4.38329e-09
4.38014e-09
4.38396e-09
4.38673e-09
4.38379e-09
4.36826e-09
4.3831e-09
4.49042e-09
4.48178e-09
5.51304e-09
1.05451e-08
1.68652e-07
8.3692e-08
1.66481e-08
4.28118e-09
3.31e-09
3.22446e-09
3.22001e-09
3.22711e-09
3.21836e-09
3.22074e-09
3.21795e-09
3.22167e-09
3.22393e-09
3.22142e-09
3.23374e-09
3.21538e-09
3.26829e-09
3.2366e-09
4.2022e-09
8.67742e-09
1.29358e-07
4.96888e-08
1.38796e-08
3.41109e-09
2.62471e-09
2.52724e-09
2.51695e-09
2.52997e-09
2.51366e-09
2.51419e-09
2.51087e-09
2.51609e-09
2.51822e-09
2.51457e-09
2.53459e-09
2.51318e-09
2.56814e-09
2.56127e-09
3.31146e-09
7.38772e-09
1.09307e-07
3.33061e-08
1.17419e-08
2.8142e-09
2.14179e-09
2.0441e-09
2.03409e-09
2.03835e-09
2.03037e-09
2.03046e-09
2.02831e-09
2.03186e-09
2.03347e-09
2.02949e-09
2.03536e-09
2.03141e-09
2.07451e-09
2.08675e-09
2.72668e-09
6.52175e-09
9.66023e-08
2.65099e-08
1.00315e-08
2.43885e-09
1.80795e-09
1.71767e-09
1.70773e-09
1.71097e-09
1.7043e-09
1.70426e-09
1.70368e-09
1.70492e-09
1.70615e-09
1.70109e-09
1.73319e-09
1.70556e-09
1.74078e-09
1.76126e-09
2.31665e-09
5.82428e-09
8.70216e-08
2.25981e-08
8.62997e-09
2.13195e-09
1.56946e-09
1.48509e-09
1.47526e-09
1.49469e-09
1.47218e-09
1.47248e-09
1.47359e-09
1.47216e-09
1.4731e-09
1.46596e-09
1.49247e-09
1.47308e-09
1.50286e-09
1.52879e-09
2.00995e-09
5.25102e-09
7.88925e-08
1.94049e-08
7.46807e-09
1.91184e-09
1.39167e-09
1.31187e-09
1.30194e-09
1.31168e-09
1.29904e-09
1.30015e-09
1.30221e-09
1.29879e-09
1.29955e-09
1.28884e-09
1.31077e-09
1.29973e-09
1.32572e-09
1.35559e-09
1.81459e-09
4.75852e-09
7.12933e-08
1.62384e-08
6.40213e-09
1.72413e-09
1.25357e-09
1.17784e-09
1.1678e-09
1.17197e-09
1.16464e-09
1.16684e-09
1.16891e-09
1.16459e-09
1.16531e-09
1.16771e-09
1.1719e-09
1.16551e-09
1.18876e-09
1.22116e-09
1.65409e-09
4.35015e-09
6.37836e-08
1.30223e-08
5.41874e-09
1.55643e-09
1.14231e-09
1.07063e-09
1.06058e-09
1.06186e-09
1.05665e-09
1.06015e-09
1.06162e-09
1.05726e-09
1.05795e-09
1.05905e-09
1.0619e-09
1.05818e-09
1.07931e-09
1.11297e-09
1.50788e-09
3.97993e-09
5.61622e-08
1.00202e-08
4.69088e-09
1.41447e-09
1.04996e-09
9.82474e-10
9.72518e-10
9.72321e-10
9.67249e-10
9.72309e-10
9.73044e-10
9.69083e-10
9.69756e-10
9.69729e-10
9.72234e-10
9.7002e-10
9.89377e-10
1.02332e-09
1.38431e-09
3.62159e-09
4.85688e-08
7.57504e-09
4.06219e-09
1.29216e-09
9.71356e-10
9.08393e-10
8.98654e-10
8.97712e-10
8.91365e-10
8.98426e-10
8.98523e-10
8.95115e-10
8.95755e-10
8.9461e-10
8.97426e-10
8.96074e-10
9.13863e-10
9.47315e-10
1.27586e-09
3.28827e-09
4.13524e-08
5.76232e-09
3.51726e-09
1.18563e-09
9.02937e-10
8.45146e-10
8.35739e-10
8.34505e-10
8.34121e-10
8.35358e-10
8.3499e-10
8.32135e-10
8.32716e-10
8.30321e-10
8.33953e-10
8.3311e-10
8.49442e-10
8.81798e-10
1.19732e-09
2.9808e-09
3.376e-08
4.47691e-09
3.04619e-09
1.09234e-09
8.42166e-10
7.90577e-10
7.81613e-10
7.80264e-10
7.78848e-10
7.80988e-10
7.80356e-10
7.78003e-10
7.78495e-10
7.74678e-10
7.79525e-10
7.78984e-10
7.93906e-10
8.24529e-10
1.12004e-09
2.6993e-09
2.77352e-08
3.56834e-09
2.64053e-09
1.01062e-09
7.95035e-10
7.43219e-10
7.34802e-10
7.33456e-10
7.30732e-10
7.33921e-10
7.33172e-10
7.31256e-10
7.31654e-10
7.32489e-10
7.32627e-10
7.32233e-10
7.45735e-10
7.79576e-10
1.04684e-09
2.44134e-09
2.21545e-08
2.92047e-09
2.26742e-09
9.39038e-10
7.51448e-10
7.01986e-10
6.94274e-10
6.93042e-10
6.9394e-10
6.93183e-10
6.92408e-10
6.90873e-10
6.91177e-10
6.9249e-10
6.92081e-10
6.91845e-10
7.03768e-10
7.38041e-10
9.81251e-10
2.20636e-09
1.77891e-08
2.45679e-09
1.94411e-09
8.76808e-10
7.16253e-10
6.7052e-10
6.63677e-10
6.62546e-10
6.63044e-10
6.62429e-10
6.61696e-10
6.6044e-10
6.60763e-10
6.62185e-10
6.61592e-10
6.61331e-10
6.72408e-10
7.04713e-10
9.22425e-10
1.99366e-09
1.39928e-08
2.12176e-09
1.70385e-09
8.2296e-10
6.85262e-10
6.44207e-10
6.35947e-10
6.34909e-10
6.35026e-10
6.34572e-10
6.33843e-10
6.3284e-10
6.3328e-10
6.3445e-10
6.33884e-10
6.33747e-10
6.43748e-10
6.74734e-10
8.69472e-10
1.8022e-09
1.11066e-08
1.87296e-09
1.50297e-09
7.82141e-10
6.60424e-10
6.2278e-10
6.15193e-10
6.14251e-10
6.14176e-10
6.1375e-10
6.13141e-10
6.12332e-10
6.12832e-10
6.13686e-10
6.13232e-10
6.13168e-10
6.22209e-10
6.51408e-10
8.21541e-10
1.63096e-09
8.83416e-09
1.68046e-09
1.33881e-09
7.47103e-10
6.40526e-10
6.05971e-10
5.99122e-10
5.9827e-10
5.98091e-10
5.9765e-10
5.97188e-10
5.96524e-10
5.96994e-10
5.97601e-10
5.97265e-10
5.97285e-10
6.05408e-10
6.32727e-10
7.85965e-10
1.4788e-09
7.084e-09
1.52544e-09
1.2072e-09
7.19472e-10
6.25148e-10
5.93639e-10
5.8743e-10
5.86658e-10
5.86443e-10
5.85956e-10
5.85657e-10
5.85115e-10
5.85488e-10
5.85953e-10
5.8569e-10
5.85804e-10
5.93028e-10
6.18528e-10
7.55452e-10
1.34418e-09
5.68567e-09
1.39778e-09
1.09461e-09
6.97624e-10
6.13944e-10
5.85377e-10
5.79726e-10
5.7902e-10
5.78811e-10
5.78263e-10
5.78127e-10
5.77689e-10
5.77939e-10
5.78339e-10
5.78108e-10
5.78316e-10
5.84691e-10
6.08404e-10
7.29752e-10
1.22583e-09
4.56814e-09
1.2904e-09
9.98947e-10
6.8076e-10
6.06418e-10
5.80621e-10
5.75448e-10
5.74792e-10
5.74597e-10
5.73997e-10
5.73998e-10
5.73643e-10
5.73777e-10
5.7415e-10
5.73935e-10
5.74226e-10
5.7984e-10
6.01739e-10
7.08457e-10
1.12228e-09
3.7483e-09
1.20017e-09
9.31717e-10
6.67911e-10
6.01793e-10
5.78532e-10
5.7375e-10
5.73126e-10
5.72923e-10
5.72305e-10
5.72391e-10
5.72103e-10
5.72142e-10
5.72502e-10
5.72317e-10
5.72672e-10
5.77655e-10
5.97665e-10
6.90915e-10
1.03708e-09
3.07036e-09
1.12394e-09
8.78165e-10
6.57763e-10
5.98958e-10
5.77951e-10
5.73468e-10
5.72836e-10
5.72591e-10
5.72014e-10
5.72102e-10
5.71875e-10
5.71836e-10
5.72193e-10
5.72081e-10
5.72467e-10
5.76996e-10
5.95e-10
6.76138e-10
9.62246e-10
2.47593e-09
1.05855e-09
8.34498e-10
6.48702e-10
5.96442e-10
5.77375e-10
5.73092e-10
5.72404e-10
5.72066e-10
5.71611e-10
5.71593e-10
5.71425e-10
5.7133e-10
5.7169e-10
5.71716e-10
5.72086e-10
5.76369e-10
5.92242e-10
6.6284e-10
8.96038e-10
2.06885e-09
1.00061e-09
7.97033e-10
6.38034e-10
5.92578e-10
5.74739e-10
5.70678e-10
5.70067e-10
5.69337e-10
5.6914e-10
5.68858e-10
5.68779e-10
5.68871e-10
5.69003e-10
5.69279e-10
5.69582e-10
5.73826e-10
5.87656e-10
6.49464e-10
8.36041e-10
1.72389e-09
9.46637e-10
7.62359e-10
6.23993e-10
5.85548e-10
5.68495e-10
5.64643e-10
5.64064e-10
5.62893e-10
5.63042e-10
5.62383e-10
5.62399e-10
5.62709e-10
5.62613e-10
5.632e-10
5.63376e-10
5.67765e-10
5.79504e-10
6.32603e-10
7.77358e-10
1.45334e-09
8.9334e-10
7.27524e-10
6.0608e-10
5.73745e-10
5.57124e-10
5.53484e-10
5.52911e-10
5.51262e-10
5.51832e-10
5.50705e-10
5.50823e-10
5.51383e-10
5.51039e-10
5.5199e-10
5.5199e-10
5.56654e-10
5.66333e-10
6.13169e-10
7.23228e-10
1.2323e-09
8.38064e-10
6.90188e-10
5.82537e-10
5.56019e-10
5.39613e-10
5.36196e-10
5.35625e-10
5.33481e-10
5.34519e-10
5.32869e-10
5.3309e-10
5.33922e-10
5.33307e-10
5.34646e-10
5.34448e-10
5.39444e-10
5.47176e-10
5.88936e-10
6.69841e-10
1.04999e-09
7.79004e-10
6.48733e-10
5.52648e-10
5.3165e-10
5.15349e-10
5.12148e-10
5.11589e-10
5.08941e-10
5.10481e-10
5.08267e-10
5.08598e-10
5.09714e-10
5.08804e-10
5.1054e-10
5.10137e-10
5.15472e-10
5.21446e-10
5.59041e-10
6.1599e-10
8.97588e-10
7.14251e-10
6.01617e-10
5.15507e-10
4.99744e-10
4.83422e-10
4.80408e-10
4.79869e-10
4.7669e-10
4.78778e-10
4.75937e-10
4.76386e-10
4.77809e-10
4.76576e-10
4.78724e-10
4.78112e-10
4.83801e-10
4.88251e-10
5.22497e-10
5.60159e-10
7.67275e-10
6.41417e-10
5.46581e-10
4.69184e-10
4.58385e-10
4.41891e-10
4.39019e-10
4.385e-10
4.34764e-10
4.37456e-10
4.33911e-10
4.34489e-10
4.36256e-10
4.34664e-10
4.37257e-10
4.36401e-10
4.42541e-10
4.45611e-10
4.77502e-10
4.99699e-10
6.52347e-10
5.58102e-10
4.80857e-10
4.1155e-10
4.05267e-10
3.88801e-10
3.86056e-10
3.85569e-10
3.81387e-10
3.8463e-10
3.80448e-10
3.81147e-10
3.83224e-10
3.81304e-10
3.84282e-10
3.8317e-10
3.89739e-10
3.91515e-10
4.21688e-10
4.31889e-10
5.46303e-10
4.64206e-10
4.04025e-10
3.4405e-10
3.41346e-10
3.25957e-10
3.23417e-10
3.22989e-10
3.18784e-10
3.22235e-10
3.17848e-10
3.18589e-10
3.20762e-10
3.18717e-10
3.21778e-10
3.20531e-10
3.27077e-10
3.27815e-10
3.55251e-10
3.57657e-10
4.43688e-10
3.67337e-10
3.22901e-10
2.7492e-10
2.73887e-10
2.60733e-10
2.59433e-10
2.59096e-10
2.55462e-10
2.5857e-10
2.54659e-10
2.55326e-10
2.57257e-10
2.55414e-10
2.58103e-10
2.5694e-10
2.61859e-10
2.62021e-10
2.85334e-10
2.83637e-10
3.46972e-10
2.81516e-10
2.50291e-10
2.15586e-10
2.15389e-10
2.05783e-10
2.04845e-10
2.04607e-10
2.01895e-10
2.04279e-10
2.01299e-10
2.01813e-10
2.0328e-10
2.01864e-10
2.03891e-10
2.02987e-10
2.06652e-10
2.0661e-10
2.23614e-10
2.21512e-10
2.6485e-10
2.16827e-10
1.95267e-10
1.71544e-10
1.71546e-10
1.64931e-10
1.64284e-10
1.64118e-10
1.62207e-10
1.63928e-10
1.61785e-10
1.62161e-10
1.63211e-10
1.62188e-10
1.63629e-10
1.62977e-10
1.6553e-10
1.65482e-10
1.77142e-10
1.75709e-10
2.0408e-10
1.69799e-10
1.54551e-10
1.37458e-10
1.37673e-10
1.32729e-10
1.32272e-10
1.32137e-10
1.30664e-10
1.32053e-10
1.30333e-10
1.30638e-10
1.31483e-10
1.30652e-10
1.31791e-10
1.31253e-10
1.33233e-10
1.33114e-10
1.41824e-10
1.40698e-10
1.6063e-10
1.28069e-10
1.17264e-10
1.04335e-10
1.04775e-10
1.0087e-10
1.00567e-10
1.00443e-10
9.92706e-11
1.0045e-10
9.90025e-11
9.92582e-11
9.99759e-11
9.92612e-11
1.0021e-10
9.9725e-11
1.01373e-10
1.01132e-10
1.08129e-10
1.06993e-10
1.22357e-10
8.79631e-11
8.08389e-11
7.2271e-11
7.26141e-11
7.0025e-11
6.98669e-11
6.97662e-11
6.90152e-11
6.98164e-11
6.88426e-11
6.90102e-11
6.95037e-11
6.90039e-11
6.96503e-11
6.92928e-11
7.04432e-11
7.01939e-11
7.50084e-11
7.42526e-11
8.49587e-11
5.79172e-11
5.35232e-11
4.91032e-11
4.9114e-11
4.78912e-11
4.78359e-11
4.77706e-11
4.74594e-11
4.78117e-11
4.73896e-11
4.74551e-11
4.76813e-11
4.74447e-11
4.77464e-11
4.75657e-11
4.81446e-11
4.80126e-11
5.04625e-11
5.04184e-11
5.6359e-11
4.35712e-11
4.06892e-11
3.86635e-11
3.84596e-11
3.8018e-11
3.80068e-11
3.79671e-11
3.78982e-11
3.79868e-11
3.7886e-11
3.78945e-11
3.79572e-11
3.78841e-11
3.79782e-11
3.79175e-11
3.81378e-11
3.8131e-11
3.91282e-11
3.95894e-11
4.25325e-11
3.95411e-11
3.7285e-11
3.60146e-11
3.57798e-11
3.55545e-11
3.55532e-11
3.5524e-11
3.55122e-11
3.55369e-11
3.55139e-11
3.55126e-11
3.5526e-11
3.55027e-11
3.55341e-11
3.55154e-11
3.56158e-11
3.567e-11
3.61912e-11
3.68066e-11
3.86789e-11
)
;

boundaryField
{
    fuel
    {
        type            fixedValue;
        value           uniform 0;
    }
    wall
    {
        type            zeroGradient;
    }
    outlet
    {
        type            zeroGradient;
    }
    frontAndBack
    {
        type            empty;
    }
}


// ************************************************************************* //
