/*--------------------------------*- C++ -*----------------------------------*\
| =========                 |                                                 |
| \\      /  F ield         | OpenFOAM: The Open Source CFD Toolbox           |
|  \\    /   O peration     | Version:  dev                                   |
|   \\  /    A nd           | Web:      www.OpenFOAM.org                      |
|    \\/     M anipulation  |                                                 |
\*---------------------------------------------------------------------------*/
FoamFile
{
    version     2.0;
    format      ascii;
    class       volScalarField;
    location    "0.1";
    object      C6H8;
}
// * * * * * * * * * * * * * * * * * * * * * * * * * * * * * * * * * * * * * //

dimensions      [0 0 0 0 0 0 0];

internalField   nonuniform List<scalar> 
100
(
1.35917e-12
4.83375e-13
1.519e-13
4.55259e-14
1.30595e-14
3.71094e-15
1.04232e-15
2.91361e-16
8.28832e-17
2.33498e-17
6.73094e-18
1.92955e-18
5.58934e-19
1.64037e-19
4.90652e-20
1.51781e-20
5.02437e-21
1.89856e-21
8.83983e-22
5.17535e-22
3.58334e-22
2.7125e-22
2.13632e-22
1.71137e-22
1.38215e-22
1.12557e-22
9.27862e-23
7.72949e-23
6.54014e-23
5.67764e-23
5.1641e-23
5.12519e-23
5.85264e-23
8.02509e-23
1.30299e-22
2.35694e-22
4.46897e-22
8.54159e-22
1.61115e-21
2.96543e-21
5.35797e-21
9.44222e-21
1.61474e-20
2.6363e-20
4.18449e-20
6.47068e-20
9.76743e-20
1.40814e-19
1.97752e-19
2.72239e-19
3.61863e-19
4.69242e-19
5.94616e-19
7.41088e-19
9.01215e-19
1.06286e-18
1.22893e-18
1.39314e-18
1.54914e-18
1.69079e-18
1.81249e-18
1.90956e-18
1.97856e-18
2.01742e-18
2.02549e-18
2.00348e-18
1.95329e-18
1.87773e-18
1.78035e-18
1.66542e-18
1.53652e-18
1.40103e-18
1.26144e-18
1.12131e-18
9.8396e-19
8.49706e-19
7.28078e-19
6.15564e-19
5.11094e-19
4.21469e-19
3.43054e-19
2.76309e-19
2.20103e-19
1.73043e-19
1.34165e-19
1.0435e-19
8.09661e-20
6.31547e-20
5.002e-20
4.06808e-20
3.42701e-20
2.9925e-20
2.6843e-20
2.4351e-20
2.19575e-20
1.93574e-20
1.6391e-20
1.29789e-20
9.06241e-21
4.5428e-21
)
;

boundaryField
{
    wall
    {
        type            zeroGradient;
    }
    fuel
    {
        type            fixedValue;
        value           uniform 0;
    }
    outlet
    {
        type            inletOutlet;
        inletValue      uniform 0;
        value           uniform 4.5428e-21;
    }
}


// ************************************************************************* //
