/*--------------------------------*- C++ -*----------------------------------*\
| =========                 |                                                 |
| \\      /  F ield         | OpenFOAM: The Open Source CFD Toolbox           |
|  \\    /   O peration     | Version:  dev                                   |
|   \\  /    A nd           | Web:      www.OpenFOAM.org                      |
|    \\/     M anipulation  |                                                 |
\*---------------------------------------------------------------------------*/
FoamFile
{
    version     2.0;
    format      ascii;
    class       volScalarField;
    location    "0.2";
    object      CH;
}
// * * * * * * * * * * * * * * * * * * * * * * * * * * * * * * * * * * * * * //

dimensions      [0 0 0 0 0 0 0];

internalField   nonuniform List<scalar> 
100
(
2.10424e-06
3.35909e-06
3.64726e-06
3.49106e-06
3.05442e-06
2.47598e-06
1.88419e-06
1.3721e-06
9.69067e-07
6.71764e-07
4.61595e-07
3.1615e-07
2.16684e-07
1.49521e-07
1.0404e-07
7.31214e-08
5.19444e-08
3.72917e-08
2.70327e-08
1.97602e-08
1.45419e-08
1.0756e-08
7.98526e-09
5.94264e-09
4.42884e-09
3.30268e-09
2.46226e-09
1.83525e-09
1.36731e-09
1.01814e-09
7.57702e-10
5.63552e-10
4.18897e-10
3.11179e-10
2.31009e-10
1.71283e-10
1.26964e-10
9.40224e-11
6.95063e-11
5.13354e-11
3.77663e-11
2.78033e-11
2.0434e-11
1.49587e-11
1.09448e-11
7.99018e-12
5.81062e-12
4.22091e-12
3.04827e-12
2.20093e-12
1.58358e-12
1.13364e-12
8.08431e-13
5.72366e-13
4.02291e-13
2.81256e-13
1.97049e-13
1.37402e-13
9.49345e-14
6.58687e-14
4.55794e-14
3.14476e-14
2.16116e-14
1.47465e-14
9.99356e-15
6.71319e-15
4.44696e-15
2.91809e-15
1.89155e-15
1.20207e-15
7.59941e-16
4.76486e-16
2.97875e-16
1.87075e-16
1.19179e-16
7.78198e-17
5.24205e-17
3.66957e-17
2.66538e-17
1.98476e-17
1.53482e-17
1.2074e-17
9.6013e-18
7.64085e-18
6.11666e-18
4.88368e-18
3.87819e-18
3.05631e-18
2.38628e-18
1.8424e-18
1.40078e-18
1.0514e-18
7.7841e-19
5.66523e-19
4.18722e-19
3.01214e-19
2.13755e-19
1.38882e-19
7.90072e-20
3.54963e-20
)
;

boundaryField
{
    wall
    {
        type            zeroGradient;
    }
    fuel
    {
        type            fixedValue;
        value           uniform 0;
    }
    outlet
    {
        type            inletOutlet;
        inletValue      uniform 0;
        value           uniform 3.54963e-20;
    }
}


// ************************************************************************* //
