/*--------------------------------*- C++ -*----------------------------------*\
| =========                 |                                                 |
| \\      /  F ield         | OpenFOAM: The Open Source CFD Toolbox           |
|  \\    /   O peration     | Version:  dev                                   |
|   \\  /    A nd           | Web:      www.OpenFOAM.org                      |
|    \\/     M anipulation  |                                                 |
\*---------------------------------------------------------------------------*/
FoamFile
{
    version     2.0;
    format      ascii;
    class       volScalarField;
    location    "0.2";
    object      CH;
}
// * * * * * * * * * * * * * * * * * * * * * * * * * * * * * * * * * * * * * //

dimensions      [0 0 0 0 0 0 0];

internalField   nonuniform List<scalar> 
1000
(
8.51778e-10
2.71452e-06
3.04565e-06
3.08681e-06
3.0964e-06
3.09604e-06
3.09619e-06
3.09609e-06
3.09607e-06
3.09589e-06
3.09597e-06
3.09621e-06
3.09601e-06
3.09649e-06
3.09604e-06
3.0957e-06
3.08665e-06
3.00199e-06
2.33855e-06
2.80153e-10
1.57282e-09
1.88478e-06
2.0242e-06
2.02507e-06
2.0336e-06
2.03113e-06
2.03165e-06
2.03127e-06
2.03127e-06
2.03117e-06
2.03113e-06
2.03134e-06
2.0311e-06
2.03152e-06
2.03116e-06
2.03105e-06
2.02713e-06
1.98976e-06
1.72787e-06
2.50951e-10
6.73942e-08
6.16526e-07
6.65129e-07
6.53256e-07
6.60042e-07
6.57012e-07
6.57812e-07
6.57291e-07
6.57401e-07
6.57275e-07
6.5724e-07
6.57385e-07
6.57208e-07
6.57478e-07
6.57231e-07
6.57228e-07
6.55737e-07
6.39841e-07
5.61707e-07
7.75811e-11
3.6787e-06
2.11215e-07
2.25415e-07
2.17071e-07
2.21196e-07
2.19177e-07
2.19776e-07
2.19403e-07
2.19509e-07
2.19411e-07
2.19405e-07
2.19476e-07
2.1938e-07
2.19513e-07
2.19385e-07
2.19381e-07
2.18649e-07
2.10162e-07
1.80374e-07
2.38238e-11
5.0598e-06
9.04877e-08
9.58564e-08
9.0888e-08
9.33309e-08
9.21489e-08
9.25105e-08
9.22936e-08
9.23676e-08
9.23027e-08
9.23099e-08
9.2342e-08
9.2286e-08
9.2347e-08
9.22902e-08
9.22804e-08
9.18083e-08
8.62437e-08
6.97051e-08
9.78893e-12
2.76769e-06
4.61778e-08
5.05828e-08
4.92292e-08
5.07964e-08
5.00927e-08
5.02947e-08
5.0182e-08
5.02304e-08
5.01863e-08
5.01974e-08
5.02138e-08
5.01761e-08
5.02046e-08
5.01819e-08
5.01708e-08
4.98019e-08
4.54746e-08
3.28299e-08
5.51206e-12
1.26042e-06
2.69207e-08
3.32726e-08
3.28234e-08
3.3926e-08
3.34859e-08
3.35942e-08
3.35402e-08
3.35751e-08
3.35384e-08
3.35548e-08
3.35645e-08
3.35308e-08
3.35317e-08
3.3543e-08
3.35315e-08
3.32177e-08
2.94233e-08
1.80419e-08
3.95217e-12
5.53079e-07
1.78927e-08
2.51246e-08
2.5244e-08
2.61066e-08
2.58262e-08
2.5891e-08
2.58611e-08
2.58877e-08
2.58586e-08
2.58743e-08
2.58809e-08
2.58526e-08
2.58571e-08
2.58657e-08
2.58476e-08
2.55493e-08
2.2034e-08
1.11384e-08
3.34221e-12
2.44124e-07
1.3358e-08
2.05704e-08
2.11449e-08
2.20131e-08
2.18448e-08
2.19037e-08
2.18685e-08
2.18916e-08
2.18689e-08
2.18818e-08
2.18871e-08
2.1863e-08
2.18826e-08
2.18763e-08
2.1841e-08
2.13649e-08
1.79268e-08
7.54223e-09
3.52539e-12
1.12774e-07
1.05696e-08
1.76923e-08
1.87871e-08
1.95086e-08
1.93812e-08
1.94403e-08
1.93941e-08
1.94163e-08
1.93974e-08
1.94093e-08
1.94144e-08
1.93871e-08
1.94295e-08
1.94094e-08
1.93822e-08
1.90067e-08
1.53827e-08
5.51589e-09
8.12228e-12
5.67736e-08
8.83813e-09
1.58104e-08
1.71655e-08
1.78381e-08
1.77598e-08
1.78038e-08
1.77653e-08
1.77876e-08
1.77714e-08
1.77822e-08
1.77878e-08
1.77548e-08
1.77983e-08
1.77861e-08
1.77574e-08
1.73799e-08
1.39272e-08
4.31171e-09
2.95776e-11
3.17298e-08
7.58159e-09
1.44406e-08
1.59975e-08
1.6649e-08
1.65965e-08
1.66211e-08
1.6596e-08
1.66203e-08
1.66038e-08
1.66156e-08
1.66222e-08
1.65797e-08
1.66109e-08
1.66237e-08
1.65959e-08
1.62265e-08
1.28514e-08
3.57348e-09
6.74993e-11
1.9543e-08
6.66496e-09
1.33363e-08
1.50657e-08
1.5711e-08
1.56723e-08
1.56729e-08
1.56656e-08
1.56935e-08
1.56782e-08
1.56887e-08
1.5697e-08
1.56406e-08
1.57716e-08
1.57024e-08
1.56757e-08
1.532e-08
1.20023e-08
3.12108e-09
9.70017e-11
1.30153e-08
5.96976e-09
1.25805e-08
1.42618e-08
1.49053e-08
1.48742e-08
1.49517e-08
1.48599e-08
1.48926e-08
1.4879e-08
1.48873e-08
1.48981e-08
1.48199e-08
1.4955e-08
1.49064e-08
1.48823e-08
1.45473e-08
1.14069e-08
2.83557e-09
1.16777e-10
9.20095e-09
5.44996e-09
1.18684e-08
1.35266e-08
1.41686e-08
1.41397e-08
1.42078e-08
1.41164e-08
1.41561e-08
1.41437e-08
1.41499e-08
1.4164e-08
1.41533e-08
1.42075e-08
1.41748e-08
1.41545e-08
1.38469e-08
1.08466e-08
2.67537e-09
1.3651e-10
6.80612e-09
5.03047e-09
1.11684e-08
1.28262e-08
1.34646e-08
1.34342e-08
1.34913e-08
1.33994e-08
1.3449e-08
1.34371e-08
1.34415e-08
1.34592e-08
1.34352e-08
1.34944e-08
1.34729e-08
1.34572e-08
1.31832e-08
1.03531e-08
2.62863e-09
1.57771e-10
5.21453e-09
4.67217e-09
1.05143e-08
1.21398e-08
1.27714e-08
1.27368e-08
1.27857e-08
1.26863e-08
1.27501e-08
1.27377e-08
1.27407e-08
1.27624e-08
1.27224e-08
1.27936e-08
1.27793e-08
1.2769e-08
1.25336e-08
9.90251e-09
2.64972e-09
1.79644e-10
4.11105e-09
4.3654e-09
9.87781e-09
1.14532e-08
1.20742e-08
1.20334e-08
1.20769e-08
1.19606e-08
1.20452e-08
1.20317e-08
1.20334e-08
1.20593e-08
1.19969e-08
1.20895e-08
1.20797e-08
1.20754e-08
1.18824e-08
9.47298e-09
2.72278e-09
2.03804e-10
3.32578e-09
4.10279e-09
9.37322e-09
1.07556e-08
1.13624e-08
1.1314e-08
1.13548e-08
1.13021e-08
1.13244e-08
1.13091e-08
1.13095e-08
1.13399e-08
1.1244e-08
1.13712e-08
1.1364e-08
1.13661e-08
1.1218e-08
9.04665e-09
2.83344e-09
2.34559e-10
2.65878e-09
3.87082e-09
8.84242e-09
1.00371e-08
1.06275e-08
1.05711e-08
1.061e-08
1.05425e-08
1.05797e-08
1.05626e-08
1.05615e-08
1.05972e-08
1.05509e-08
1.06309e-08
1.06244e-08
1.06333e-08
1.05304e-08
8.60872e-09
2.98072e-09
2.77744e-10
2.20723e-09
3.65944e-09
8.26333e-09
9.36448e-09
9.86217e-09
9.79884e-09
9.83576e-09
9.74893e-09
9.80504e-09
9.78634e-09
9.78346e-09
9.8249e-09
9.81597e-09
9.86122e-09
9.85447e-09
9.87075e-09
9.8068e-09
8.14693e-09
3.13898e-09
3.39577e-10
1.86908e-09
3.4594e-09
7.67935e-09
8.63383e-09
9.05752e-09
8.99206e-09
9.02631e-09
9.01069e-09
8.99511e-09
8.97493e-09
8.9693e-09
9.01753e-09
8.99803e-09
9.05552e-09
9.04856e-09
9.07277e-09
9.05746e-09
7.65175e-09
3.28241e-09
4.25788e-10
1.58497e-09
3.26186e-09
7.07971e-09
7.91994e-09
8.32234e-09
8.24106e-09
8.2771e-09
8.25139e-09
8.24365e-09
8.22166e-09
8.20941e-09
8.26863e-09
8.24179e-09
8.30706e-09
8.30028e-09
8.33066e-09
8.34837e-09
7.11634e-09
3.40173e-09
5.39937e-10
1.3738e-09
3.0593e-09
6.45205e-09
7.14491e-09
7.50165e-09
7.4073e-09
7.44149e-09
7.40741e-09
7.40626e-09
7.38227e-09
7.38141e-09
7.4362e-09
7.40048e-09
7.47511e-09
7.46828e-09
7.50864e-09
7.58997e-09
6.53249e-09
3.47608e-09
6.81395e-10
1.21482e-09
2.84525e-09
5.78185e-09
6.393e-09
6.71605e-09
6.61178e-09
6.64523e-09
6.60552e-09
6.60927e-09
6.58444e-09
6.57758e-09
6.64176e-09
6.60011e-09
6.67951e-09
6.67336e-09
6.71833e-09
6.83148e-09
5.96708e-09
3.4865e-09
8.40222e-10
1.06766e-09
2.616e-09
5.19022e-09
5.63175e-09
5.91828e-09
5.80711e-09
5.83912e-09
5.79552e-09
5.80315e-09
5.77796e-09
5.76927e-09
5.83694e-09
5.79051e-09
5.87324e-09
5.8681e-09
5.91544e-09
6.0555e-09
5.31879e-09
3.41898e-09
9.9977e-10
9.40357e-10
2.368e-09
4.58316e-09
4.86992e-09
5.12009e-09
5.00433e-09
5.03476e-09
4.98863e-09
4.99929e-09
4.97418e-09
4.96459e-09
5.03325e-09
4.98365e-09
5.06794e-09
5.06377e-09
5.11191e-09
5.27151e-09
4.68342e-09
3.27578e-09
1.14098e-09
8.44946e-10
2.10108e-09
3.9703e-09
4.12021e-09
4.33529e-09
4.21768e-09
4.24645e-09
4.19914e-09
4.21205e-09
4.18745e-09
4.17738e-09
4.245e-09
4.19417e-09
4.27783e-09
4.27445e-09
4.32185e-09
4.49228e-09
4.03279e-09
3.03133e-09
1.2407e-09
7.73227e-10
1.81764e-09
3.35937e-09
3.39872e-09
3.57892e-09
3.46415e-09
3.49065e-09
3.44387e-09
3.45827e-09
3.43464e-09
3.42433e-09
3.489e-09
3.439e-09
3.51964e-09
3.51675e-09
3.56201e-09
3.73376e-09
3.38356e-09
2.69922e-09
1.28023e-09
6.96785e-10
1.53846e-09
2.76513e-09
2.7219e-09
2.86901e-09
2.76158e-09
2.78527e-09
2.74061e-09
2.75595e-09
2.73354e-09
2.72342e-09
2.78327e-09
2.73606e-09
2.8114e-09
2.80866e-09
2.8506e-09
3.01417e-09
2.75552e-09
2.35208e-09
1.25077e-09
6.07764e-10
1.2595e-09
2.20445e-09
2.10652e-09
2.2236e-09
2.12736e-09
2.14779e-09
2.10664e-09
2.12274e-09
2.10143e-09
2.09198e-09
2.14533e-09
2.10264e-09
2.17072e-09
2.16785e-09
2.20561e-09
2.35241e-09
2.16945e-09
1.97105e-09
1.15406e-09
5.28984e-10
9.92008e-10
1.69477e-09
1.56745e-09
1.65856e-09
1.57621e-09
1.59321e-09
1.55649e-09
1.57342e-09
1.55285e-09
1.54449e-09
1.59003e-09
1.55319e-09
1.61266e-09
1.60951e-09
1.64252e-09
1.76602e-09
1.64527e-09
1.58081e-09
1.00332e-09
4.43238e-10
7.47423e-10
1.25203e-09
1.11529e-09
1.16974e-09
1.10924e-09
1.12249e-09
1.09964e-09
1.10716e-09
1.09729e-09
1.09035e-09
1.12734e-09
1.09714e-09
1.13743e-09
1.13434e-09
1.1567e-09
1.26854e-09
1.16717e-09
1.20695e-09
8.19867e-10
3.56158e-10
5.27816e-10
8.55006e-10
7.55008e-10
7.92504e-10
7.46973e-10
7.56923e-10
7.39033e-10
7.46249e-10
7.37606e-10
7.3217e-10
7.60582e-10
7.37214e-10
7.68372e-10
7.65423e-10
7.8243e-10
8.67407e-10
7.91309e-10
8.73364e-10
6.27971e-10
2.71392e-10
3.56715e-10
5.6638e-10
4.83752e-10
5.0825e-10
4.76045e-10
4.83086e-10
4.70007e-10
4.75914e-10
4.69201e-10
4.65219e-10
4.85729e-10
4.68757e-10
4.91331e-10
4.88835e-10
5.00817e-10
5.61545e-10
5.13138e-10
5.96124e-10
4.49291e-10
1.94233e-10
2.268e-10
3.52885e-10
2.91858e-10
3.06873e-10
2.85635e-10
2.90314e-10
2.81439e-10
2.85694e-10
2.81026e-10
2.78307e-10
2.92142e-10
2.80631e-10
2.95842e-10
2.93955e-10
3.01791e-10
3.42285e-10
3.12835e-10
3.81753e-10
2.98886e-10
1.29375e-10
1.34914e-10
2.05579e-10
1.65023e-10
1.73559e-10
1.60596e-10
1.63492e-10
1.57935e-10
1.60697e-10
1.57747e-10
1.56021e-10
1.64695e-10
1.5744e-10
1.66925e-10
1.6564e-10
1.70399e-10
1.95429e-10
1.78428e-10
2.28177e-10
1.84601e-10
7.96864e-11
7.46572e-11
1.11508e-10
8.70263e-11
9.15676e-11
8.423e-11
8.59022e-11
8.26945e-11
8.43348e-11
8.26229e-11
8.16141e-11
8.66472e-11
8.24152e-11
8.78674e-11
8.70735e-11
8.97608e-11
1.04014e-10
9.47847e-11
1.26667e-10
1.05433e-10
4.51794e-11
3.82305e-11
5.61318e-11
4.26107e-11
4.49073e-11
4.10379e-11
4.19409e-11
4.02355e-11
4.11301e-11
4.02148e-11
3.9677e-11
4.23634e-11
4.00938e-11
4.29645e-11
4.25258e-11
4.39265e-11
5.13763e-11
4.67034e-11
6.49873e-11
5.54746e-11
2.33725e-11
1.80721e-11
2.60522e-11
1.93165e-11
2.03884e-11
1.85098e-11
1.8955e-11
1.81277e-11
1.85732e-11
1.81253e-11
1.78617e-11
1.91729e-11
1.80607e-11
1.94346e-11
1.9222e-11
1.98877e-11
2.34529e-11
2.12635e-11
3.06668e-11
2.67983e-11
1.09771e-11
7.86496e-12
1.1101e-11
8.0883e-12
8.55244e-12
7.70604e-12
7.9055e-12
7.54087e-12
7.74247e-12
7.54285e-12
7.42501e-12
8.00864e-12
7.51165e-12
8.10711e-12
8.01629e-12
8.30096e-12
9.86086e-12
8.9174e-12
1.32613e-11
1.18525e-11
4.66542e-12
3.11925e-12
4.32997e-12
3.07858e-12
3.25163e-12
2.95861e-12
3.03955e-12
2.89414e-12
2.97667e-12
2.89604e-12
2.84819e-12
3.0839e-12
2.88234e-12
3.11464e-12
3.08084e-12
3.17876e-12
3.77893e-12
3.44004e-12
5.24054e-12
4.79364e-12
1.7983e-12
1.15049e-12
1.54988e-12
1.09708e-12
1.15847e-12
1.05273e-12
1.08231e-12
1.03002e-12
1.06046e-12
1.03107e-12
1.01348e-12
1.09948e-12
1.02563e-12
1.10708e-12
1.09609e-12
1.12791e-12
1.3427e-12
1.22626e-12
1.89486e-12
1.77856e-12
6.36881e-13
3.98989e-13
5.16344e-13
3.68917e-13
3.88391e-13
3.53895e-13
3.63664e-13
3.46664e-13
3.56794e-13
3.47106e-13
3.41254e-13
3.6962e-13
3.45164e-13
3.71001e-13
3.67788e-13
3.77473e-13
4.46598e-13
4.11127e-13
6.34515e-13
6.14073e-13
2.14764e-13
1.35747e-13
1.66764e-13
1.22559e-13
1.28164e-13
1.17793e-13
1.20776e-13
1.15659e-13
1.18771e-13
1.15816e-13
1.14015e-13
1.22658e-13
1.15181e-13
1.22792e-13
1.21913e-13
1.24708e-13
1.45169e-13
1.35553e-13
2.04144e-13
2.04651e-13
7.32239e-14
4.80922e-14
5.59521e-14
4.29285e-14
4.45021e-14
4.14185e-14
4.23219e-14
4.07888e-14
4.17383e-14
4.08398e-14
4.02873e-14
4.29067e-14
4.06361e-14
4.28792e-14
4.2635e-14
4.34408e-14
4.94211e-14
4.69289e-14
6.74679e-14
6.98049e-14
2.61954e-14
1.80737e-14
2.02335e-14
1.61475e-14
1.66267e-14
1.56406e-14
1.59366e-14
1.54376e-14
1.57524e-14
1.54552e-14
1.52685e-14
1.61383e-14
1.53832e-14
1.61105e-14
1.60329e-14
1.62841e-14
1.81704e-14
1.74491e-14
2.39142e-14
2.51271e-14
9.1558e-15
6.50766e-15
7.16227e-15
5.8172e-15
5.97381e-15
5.64217e-15
5.74506e-15
5.57279e-15
5.68377e-15
5.57914e-15
5.50996e-15
5.82305e-15
5.55068e-15
5.8062e-15
5.77733e-15
5.86046e-15
6.49212e-15
6.25202e-15
8.37431e-15
8.83223e-15
2.27888e-15
1.63682e-15
1.7884e-15
1.45979e-15
1.49763e-15
1.41563e-15
1.44184e-15
1.39829e-15
1.42683e-15
1.39982e-15
1.3808e-15
1.46416e-15
1.39153e-15
1.45806e-15
1.44981e-15
1.47041e-15
1.62692e-15
1.56698e-15
2.08846e-15
2.21096e-15
2.97804e-16
2.25492e-16
2.39489e-16
2.02081e-16
2.05501e-16
1.96108e-16
1.99063e-16
1.93873e-16
1.97285e-16
1.9398e-16
1.91349e-16
2.02226e-16
1.92786e-16
2.01339e-16
2.00096e-16
2.02899e-16
2.21446e-16
2.1531e-16
2.7715e-16
2.96361e-16
)
;

boundaryField
{
    fuel
    {
        type            fixedValue;
        value           uniform 0;
    }
    wall
    {
        type            zeroGradient;
    }
    outlet
    {
        type            zeroGradient;
    }
    frontAndBack
    {
        type            empty;
    }
}


// ************************************************************************* //
