/*--------------------------------*- C++ -*----------------------------------*\
| =========                 |                                                 |
| \\      /  F ield         | OpenFOAM: The Open Source CFD Toolbox           |
|  \\    /   O peration     | Version:  dev                                   |
|   \\  /    A nd           | Web:      www.OpenFOAM.org                      |
|    \\/     M anipulation  |                                                 |
\*---------------------------------------------------------------------------*/
FoamFile
{
    version     2.0;
    format      ascii;
    class       volScalarField;
    location    "0.2";
    object      CH2;
}
// * * * * * * * * * * * * * * * * * * * * * * * * * * * * * * * * * * * * * //

dimensions      [0 0 0 0 0 0 0];

internalField   nonuniform List<scalar> 
1000
(
3.90143e-09
3.50499e-05
3.83222e-05
3.8724e-05
3.87691e-05
3.87735e-05
3.87759e-05
3.87742e-05
3.87759e-05
3.8775e-05
3.87757e-05
3.87757e-05
3.87759e-05
3.87756e-05
3.8775e-05
3.8774e-05
3.87284e-05
3.85243e-05
3.67664e-05
6.87862e-09
3.22965e-09
2.28541e-05
2.37064e-05
2.38513e-05
2.38656e-05
2.38676e-05
2.38693e-05
2.38677e-05
2.38694e-05
2.38681e-05
2.38694e-05
2.38689e-05
2.38684e-05
2.38725e-05
2.38634e-05
2.38835e-05
2.38398e-05
2.38625e-05
2.33755e-05
7.87761e-09
1.46161e-09
1.02586e-05
1.0545e-05
1.06543e-05
1.06633e-05
1.06649e-05
1.06666e-05
1.06648e-05
1.06665e-05
1.06651e-05
1.06663e-05
1.06663e-05
1.0665e-05
1.06715e-05
1.06585e-05
1.06894e-05
1.06329e-05
1.07301e-05
1.06261e-05
5.54173e-08
6.91037e-10
4.86811e-06
5.00573e-06
5.10697e-06
5.11501e-06
5.1163e-06
5.1175e-06
5.11601e-06
5.11745e-06
5.1163e-06
5.11713e-06
5.11759e-06
5.11631e-06
5.12176e-06
5.11123e-06
5.13874e-06
5.0859e-06
5.18255e-06
5.28845e-06
4.96809e-06
4.19798e-10
2.68504e-06
2.8079e-06
2.90467e-06
2.91283e-06
2.91389e-06
2.91435e-06
2.91345e-06
2.9146e-06
2.91374e-06
2.91434e-06
2.91494e-06
2.91393e-06
2.91737e-06
2.91068e-06
2.93113e-06
2.88797e-06
2.96874e-06
3.06577e-06
3.9096e-05
3.4477e-10
1.69688e-06
1.86295e-06
1.95869e-06
1.96746e-06
1.96837e-06
1.96785e-06
1.96783e-06
1.96873e-06
1.96808e-06
1.96858e-06
1.96916e-06
1.96837e-06
1.97001e-06
1.96644e-06
1.98096e-06
1.94615e-06
1.97044e-06
1.99931e-06
3.08733e-05
4.35334e-10
1.18137e-06
1.41129e-06
1.50732e-06
1.5166e-06
1.51731e-06
1.51546e-06
1.51643e-06
1.51722e-06
1.51655e-06
1.51723e-06
1.51776e-06
1.51707e-06
1.51662e-06
1.51611e-06
1.5267e-06
1.49779e-06
1.50637e-06
1.4152e-06
1.7554e-05
1.11098e-09
8.78807e-07
1.15168e-06
1.27168e-06
1.27906e-06
1.27947e-06
1.27696e-06
1.27829e-06
1.27892e-06
1.2783e-06
1.27903e-06
1.27951e-06
1.27883e-06
1.27776e-06
1.27865e-06
1.28725e-06
1.26377e-06
1.24534e-06
1.08959e-06
9.71779e-06
4.87666e-09
6.86282e-07
1.01292e-06
1.12036e-06
1.1369e-06
1.13906e-06
1.14048e-06
1.1387e-06
1.13922e-06
1.1386e-06
1.1394e-06
1.13983e-06
1.1391e-06
1.14098e-06
1.1384e-06
1.14093e-06
1.11471e-06
1.09674e-06
9.02187e-07
5.74462e-06
1.94769e-08
5.57147e-07
9.15837e-07
1.03733e-06
1.0516e-06
1.05299e-06
1.05489e-06
1.0523e-06
1.05264e-06
1.05191e-06
1.05294e-06
1.05337e-06
1.05238e-06
1.05514e-06
1.05233e-06
1.05543e-06
1.03172e-06
9.92657e-07
7.70724e-07
3.68292e-06
5.26873e-08
4.67785e-07
8.47394e-07
9.76026e-07
9.89495e-07
9.90878e-07
9.91599e-07
9.89984e-07
9.90341e-07
9.89769e-07
9.9056e-07
9.90949e-07
9.89727e-07
9.90835e-07
9.90235e-07
9.92202e-07
9.70027e-07
9.20356e-07
6.82616e-07
2.53173e-06
9.49292e-08
4.04973e-07
8.02379e-07
9.29697e-07
9.43283e-07
9.44637e-07
9.45138e-07
9.43592e-07
9.44067e-07
9.43706e-07
9.44118e-07
9.44482e-07
9.4289e-07
9.48042e-07
9.4392e-07
9.45241e-07
9.23153e-07
8.6512e-07
6.13868e-07
1.8422e-06
1.19366e-07
3.60771e-07
7.63739e-07
8.92036e-07
9.05395e-07
9.06712e-07
9.09931e-07
9.05475e-07
9.06203e-07
9.0608e-07
9.06002e-07
9.06354e-07
9.04184e-07
9.09076e-07
9.05837e-07
9.06817e-07
8.84533e-07
8.19075e-07
5.60368e-07
1.40455e-06
1.21529e-07
3.30352e-07
7.34396e-07
8.59154e-07
8.71899e-07
8.73121e-07
8.74881e-07
8.71602e-07
8.72734e-07
8.72724e-07
8.72226e-07
8.72586e-07
8.6952e-07
8.74291e-07
8.72078e-07
8.72928e-07
8.50431e-07
7.85949e-07
5.17478e-07
1.10948e-06
1.14515e-07
3.08474e-07
7.07914e-07
8.2879e-07
8.40618e-07
8.41715e-07
8.42599e-07
8.39761e-07
8.41431e-07
8.41353e-07
8.406e-07
8.40997e-07
8.40876e-07
8.4217e-07
8.40487e-07
8.41349e-07
8.18677e-07
7.5519e-07
4.84372e-07
9.00649e-07
1.05855e-07
2.93916e-07
6.82678e-07
7.99566e-07
8.10256e-07
8.1121e-07
8.11598e-07
8.08629e-07
8.1097e-07
8.10683e-07
8.09834e-07
8.10269e-07
8.09707e-07
8.11179e-07
8.09784e-07
8.10756e-07
7.87972e-07
7.2357e-07
4.56513e-07
7.44681e-07
9.722e-08
2.87296e-07
6.59447e-07
7.70569e-07
7.79972e-07
7.80777e-07
7.80865e-07
7.7732e-07
7.80503e-07
7.79939e-07
7.79099e-07
7.7957e-07
7.78531e-07
7.80387e-07
7.79142e-07
7.80297e-07
7.57499e-07
6.93473e-07
4.31418e-07
6.24047e-07
8.95028e-08
2.85212e-07
6.37275e-07
7.41076e-07
7.49162e-07
7.49822e-07
7.49726e-07
7.45141e-07
7.49442e-07
7.48581e-07
7.47811e-07
7.48308e-07
7.46702e-07
7.49143e-07
7.47975e-07
7.49369e-07
7.26671e-07
6.6385e-07
4.09446e-07
5.296e-07
8.35445e-08
2.865e-07
6.15383e-07
7.10414e-07
7.17349e-07
7.17882e-07
7.17691e-07
7.15642e-07
7.17345e-07
7.16182e-07
7.15512e-07
7.16022e-07
7.1372e-07
7.16955e-07
7.15822e-07
7.17502e-07
6.95008e-07
6.39662e-07
3.90148e-07
4.44005e-07
8.01096e-08
2.90111e-07
5.93098e-07
6.77915e-07
6.84114e-07
6.84551e-07
6.84287e-07
6.81313e-07
6.83808e-07
6.82361e-07
6.81806e-07
6.82324e-07
6.79176e-07
6.83415e-07
6.82288e-07
6.84277e-07
6.62007e-07
6.12977e-07
3.72836e-07
3.81645e-07
7.97197e-08
2.95022e-07
5.69851e-07
6.47574e-07
6.49058e-07
6.49447e-07
6.49136e-07
6.44995e-07
6.48476e-07
6.46751e-07
6.46323e-07
6.4687e-07
6.47091e-07
6.48156e-07
6.47002e-07
6.4928e-07
6.30774e-07
5.84398e-07
3.56869e-07
3.26646e-07
8.26157e-08
3.00481e-07
5.45008e-07
6.1372e-07
6.11707e-07
6.12155e-07
6.11844e-07
6.10658e-07
6.10963e-07
6.08953e-07
6.08661e-07
6.0928e-07
6.09807e-07
6.10684e-07
6.0957e-07
6.11979e-07
5.96024e-07
5.54962e-07
3.41669e-07
2.84014e-07
8.87241e-08
3.05189e-07
5.18004e-07
5.80079e-07
5.76081e-07
5.76832e-07
5.76494e-07
5.74712e-07
5.75433e-07
5.73169e-07
5.7299e-07
5.73799e-07
5.7431e-07
5.7527e-07
5.74048e-07
5.77109e-07
5.61733e-07
5.24136e-07
3.26691e-07
2.46291e-07
9.76386e-08
3.07586e-07
4.88193e-07
5.43234e-07
5.38448e-07
5.36513e-07
5.36108e-07
5.3369e-07
5.34894e-07
5.32237e-07
5.32167e-07
5.33284e-07
5.3347e-07
5.34688e-07
5.33538e-07
5.37108e-07
5.23477e-07
4.91211e-07
3.11375e-07
2.16548e-07
1.08606e-07
3.07317e-07
4.58769e-07
5.05485e-07
4.98858e-07
4.96993e-07
4.96542e-07
4.93679e-07
4.9521e-07
4.92303e-07
4.92342e-07
4.93675e-07
4.93502e-07
4.95049e-07
4.9388e-07
4.98002e-07
4.85324e-07
4.5553e-07
2.95301e-07
1.92267e-07
1.20513e-07
3.0354e-07
4.25677e-07
4.65715e-07
4.57367e-07
4.55565e-07
4.55067e-07
4.51836e-07
4.53657e-07
4.50523e-07
4.50666e-07
4.52104e-07
4.51642e-07
4.53532e-07
4.5235e-07
4.57032e-07
4.45231e-07
4.23e-07
2.78119e-07
1.72896e-07
1.31611e-07
2.95401e-07
3.90807e-07
4.23997e-07
4.14192e-07
4.12438e-07
4.11888e-07
4.0839e-07
4.10454e-07
4.07134e-07
4.0736e-07
4.08808e-07
4.08161e-07
4.10339e-07
4.09165e-07
4.14308e-07
4.03561e-07
3.88412e-07
2.59249e-07
1.5658e-07
1.40154e-07
2.81366e-07
3.53506e-07
3.80594e-07
3.6968e-07
3.67977e-07
3.67364e-07
3.63719e-07
3.65967e-07
3.6252e-07
3.62806e-07
3.64204e-07
3.63456e-07
3.65846e-07
3.64694e-07
3.70173e-07
3.60611e-07
3.51906e-07
2.38402e-07
1.42539e-07
1.44936e-07
2.60995e-07
3.14308e-07
3.35993e-07
3.24384e-07
3.22725e-07
3.22045e-07
3.18376e-07
3.20749e-07
3.1724e-07
3.17573e-07
3.18885e-07
3.18098e-07
3.20612e-07
3.19493e-07
3.25157e-07
3.16819e-07
3.13807e-07
2.15496e-07
1.31144e-07
1.44945e-07
2.38481e-07
2.73934e-07
2.90869e-07
2.79049e-07
2.77432e-07
2.76676e-07
2.73127e-07
2.75552e-07
2.72063e-07
2.72426e-07
2.73616e-07
2.72853e-07
2.75397e-07
2.74316e-07
2.79996e-07
2.72848e-07
2.74658e-07
1.9214e-07
1.20062e-07
1.39668e-07
2.12282e-07
2.33333e-07
2.46111e-07
2.34607e-07
2.33038e-07
2.32191e-07
2.28917e-07
2.31312e-07
2.27938e-07
2.2831e-07
2.29338e-07
2.28673e-07
2.31147e-07
2.30107e-07
2.35616e-07
2.29577e-07
2.35222e-07
1.67482e-07
1.07801e-07
1.29281e-07
1.83442e-07
1.93682e-07
2.0278e-07
1.92144e-07
1.90633e-07
1.89663e-07
1.86832e-07
1.89106e-07
1.8595e-07
1.8631e-07
1.87111e-07
1.8664e-07
1.88941e-07
1.87947e-07
1.93098e-07
1.88045e-07
1.96491e-07
1.42207e-07
9.68672e-08
1.14629e-07
1.53276e-07
1.54182e-07
1.62071e-07
1.51458e-07
1.50216e-07
1.5021e-07
1.46644e-07
1.48875e-07
1.45905e-07
1.46345e-07
1.48029e-07
1.46558e-07
1.48768e-07
1.47901e-07
1.52483e-07
1.49351e-07
1.59651e-07
1.17156e-07
8.4588e-08
9.70759e-08
1.23366e-07
1.17958e-07
1.25168e-07
1.16062e-07
1.14978e-07
1.14908e-07
1.11929e-07
1.1389e-07
1.11308e-07
1.117e-07
1.13121e-07
1.11892e-07
1.13789e-07
1.13014e-07
1.16939e-07
1.14574e-07
1.22979e-07
9.2237e-08
7.20289e-08
7.82801e-08
9.52941e-08
8.78385e-08
9.30161e-08
8.55487e-08
8.46529e-08
8.45571e-08
8.21695e-08
8.38171e-08
8.16691e-08
8.20025e-08
8.31562e-08
8.21588e-08
8.37208e-08
8.30616e-08
8.62777e-08
8.45507e-08
9.26455e-08
7.04568e-08
5.91443e-08
5.99075e-08
7.03311e-08
6.25769e-08
6.6217e-08
6.03948e-08
5.96944e-08
5.96025e-08
5.77719e-08
5.90899e-08
5.73879e-08
5.76564e-08
5.8553e-08
5.77706e-08
5.89971e-08
5.84674e-08
6.0974e-08
5.97629e-08
6.68223e-08
5.1513e-08
4.64948e-08
4.33599e-08
4.93657e-08
4.24565e-08
4.49476e-08
4.06539e-08
4.01365e-08
4.00635e-08
3.87274e-08
3.97266e-08
3.84477e-08
3.86523e-08
3.93149e-08
3.87276e-08
3.964e-08
3.92397e-08
4.10869e-08
4.02782e-08
4.59183e-08
3.58743e-08
3.47452e-08
2.95511e-08
3.27729e-08
2.72962e-08
2.89413e-08
2.59615e-08
2.56023e-08
2.55505e-08
2.46293e-08
2.53423e-08
2.44368e-08
2.45837e-08
2.50466e-08
2.46292e-08
2.52682e-08
2.49848e-08
2.62637e-08
2.57571e-08
2.98966e-08
2.36736e-08
2.45017e-08
1.88574e-08
2.04472e-08
1.6531e-08
1.75698e-08
1.56348e-08
1.54009e-08
1.53668e-08
1.47714e-08
1.52471e-08
1.46467e-08
1.4745e-08
1.50497e-08
1.47704e-08
1.51908e-08
1.50011e-08
1.58357e-08
1.55303e-08
1.83439e-08
1.46984e-08
1.62015e-08
1.1196e-08
1.19064e-08
9.35933e-09
9.9819e-09
8.81464e-09
8.66983e-09
8.64927e-09
8.29031e-09
8.58622e-09
8.21494e-09
8.27582e-09
8.46374e-09
8.28889e-09
8.54763e-09
8.42721e-09
8.94183e-09
8.75965e-09
1.05366e-08
8.51344e-09
9.9728e-09
6.12614e-09
6.40685e-09
4.90353e-09
5.25478e-09
4.60765e-09
4.52069e-09
4.50933e-09
4.30937e-09
4.47949e-09
4.26722e-09
4.30209e-09
4.40935e-09
4.30827e-09
4.45514e-09
4.38465e-09
4.68171e-09
4.57909e-09
5.59944e-09
4.55916e-09
5.64215e-09
3.04822e-09
3.14258e-09
2.34373e-09
2.5105e-09
2.17338e-09
2.15246e-09
2.14677e-09
2.04519e-09
2.13445e-09
2.02368e-09
2.04195e-09
2.09781e-09
2.04455e-09
2.12048e-09
2.08284e-09
2.21432e-09
2.16226e-09
2.71412e-09
2.20918e-09
2.8916e-09
1.35301e-09
1.37794e-09
1.00172e-09
1.07877e-09
9.25909e-10
9.16861e-10
9.1424e-10
8.68059e-10
9.10027e-10
8.58216e-10
8.66808e-10
8.92893e-10
8.67751e-10
9.02875e-10
8.84901e-10
9.45235e-10
9.20873e-10
1.17671e-09
9.60686e-10
1.31679e-09
5.20484e-10
5.24441e-10
3.71228e-10
4.02399e-10
3.42001e-10
3.38658e-10
3.37571e-10
3.19314e-10
3.36495e-10
3.15392e-10
3.18914e-10
3.29523e-10
3.19191e-10
3.33323e-10
3.25859e-10
3.4981e-10
3.39965e-10
4.42792e-10
3.61552e-10
5.17749e-10
1.6586e-10
1.65442e-10
1.13757e-10
1.24259e-10
1.04407e-10
1.03416e-10
1.03027e-10
9.70454e-11
1.02881e-10
9.57493e-11
9.69471e-11
1.00529e-10
9.70052e-11
1.01723e-10
9.91489e-11
1.07078e-10
1.0371e-10
1.38006e-10
1.1234e-10
1.68146e-10
4.10357e-11
4.04922e-11
2.7061e-11
2.97861e-11
2.47496e-11
2.4532e-11
2.44215e-11
2.29148e-11
2.44396e-11
2.2585e-11
2.28984e-11
2.38296e-11
2.29044e-11
2.41173e-11
2.34332e-11
2.54656e-11
2.45616e-11
3.33871e-11
2.70607e-11
4.23007e-11
7.49589e-12
7.29018e-12
4.81102e-12
5.30954e-12
4.39721e-12
4.36394e-12
4.3412e-12
4.06953e-12
4.35428e-12
4.00917e-12
4.06813e-12
4.24112e-12
4.0678e-12
4.29071e-12
4.16132e-12
4.53429e-12
4.36167e-12
5.97807e-12
4.86632e-12
7.81469e-12
1.04167e-12
9.68465e-13
6.41446e-13
7.02603e-13
5.86038e-13
5.82292e-13
5.78971e-13
5.44086e-13
5.81988e-13
5.36112e-13
5.44171e-13
5.66928e-13
5.44045e-13
5.72943e-13
5.55932e-13
6.04103e-13
5.82178e-13
7.8931e-13
6.59566e-13
1.07408e-12
1.21931e-13
8.99239e-14
5.88997e-14
6.27742e-14
5.36106e-14
5.33057e-14
5.30177e-14
5.02273e-14
5.33591e-14
4.956e-14
5.02602e-14
5.21035e-14
5.02587e-14
5.25534e-14
5.12104e-14
5.50192e-14
5.34601e-14
6.97304e-14
6.21284e-14
1.0727e-13
3.08646e-14
9.88209e-15
4.5247e-15
4.35876e-15
3.86358e-15
3.83695e-15
3.82378e-15
3.66675e-15
3.84557e-15
3.62639e-15
3.67153e-15
3.7708e-15
3.67457e-15
3.79309e-15
3.73e-15
3.91948e-15
3.87626e-15
4.72601e-15
5.03219e-15
1.25099e-14
)
;

boundaryField
{
    fuel
    {
        type            fixedValue;
        value           uniform 0;
    }
    wall
    {
        type            zeroGradient;
    }
    outlet
    {
        type            zeroGradient;
    }
    frontAndBack
    {
        type            empty;
    }
}


// ************************************************************************* //
