/*--------------------------------*- C++ -*----------------------------------*\
| =========                 |                                                 |
| \\      /  F ield         | OpenFOAM: The Open Source CFD Toolbox           |
|  \\    /   O peration     | Version:  dev                                   |
|   \\  /    A nd           | Web:      www.OpenFOAM.org                      |
|    \\/     M anipulation  |                                                 |
\*---------------------------------------------------------------------------*/
FoamFile
{
    version     2.0;
    format      ascii;
    class       volScalarField;
    location    "0.2";
    object      CH2(S);
}
// * * * * * * * * * * * * * * * * * * * * * * * * * * * * * * * * * * * * * //

dimensions      [0 0 0 0 0 0 0];

internalField   nonuniform List<scalar> 
1000
(
6.41388e-10
2.03753e-06
2.18413e-06
2.2011e-06
2.20535e-06
2.20506e-06
2.20512e-06
2.20505e-06
2.20504e-06
2.20496e-06
2.20499e-06
2.2051e-06
2.20502e-06
2.20525e-06
2.20507e-06
2.20497e-06
2.20115e-06
2.1645e-06
1.86195e-06
2.23657e-10
1.19344e-09
1.32483e-06
1.38845e-06
1.38541e-06
1.38959e-06
1.38809e-06
1.38837e-06
1.38816e-06
1.38816e-06
1.38811e-06
1.38808e-06
1.3882e-06
1.38807e-06
1.38828e-06
1.38814e-06
1.38815e-06
1.38671e-06
1.37153e-06
1.25927e-06
1.8338e-10
5.7495e-08
5.67352e-07
5.978e-07
5.88764e-07
5.93139e-07
5.91062e-07
5.91573e-07
5.91236e-07
5.91311e-07
5.91225e-07
5.91203e-07
5.91301e-07
5.91177e-07
5.91352e-07
5.91212e-07
5.91248e-07
5.90491e-07
5.81196e-07
5.32535e-07
7.31432e-11
2.98082e-06
2.6616e-07
2.77867e-07
2.70152e-07
2.73755e-07
2.71949e-07
2.72462e-07
2.72141e-07
2.72238e-07
2.72147e-07
2.72145e-07
2.72208e-07
2.72119e-07
2.72232e-07
2.72133e-07
2.72149e-07
2.71577e-07
2.64203e-07
2.35236e-07
3.0809e-11
3.12713e-06
1.46871e-07
1.542e-07
1.48414e-07
1.5119e-07
1.49833e-07
1.50232e-07
1.49994e-07
1.5008e-07
1.50003e-07
1.50014e-07
1.50052e-07
1.49984e-07
1.50049e-07
1.49995e-07
1.49995e-07
1.49482e-07
1.42966e-07
1.2042e-07
1.68177e-11
1.85544e-06
9.2412e-08
9.92666e-08
9.73524e-08
9.95146e-08
9.85389e-08
9.88055e-08
9.86589e-08
9.87273e-08
9.86635e-08
9.86814e-08
9.87049e-08
9.86493e-08
9.86854e-08
9.86625e-08
9.86555e-08
9.81573e-08
9.19497e-08
7.06528e-08
1.18584e-11
1.00952e-06
6.36938e-08
7.42196e-08
7.34705e-08
7.5202e-08
7.45077e-08
7.4668e-08
7.45904e-08
7.46466e-08
7.45864e-08
7.46145e-08
7.46304e-08
7.45744e-08
7.45741e-08
7.45983e-08
7.45867e-08
7.41018e-08
6.78923e-08
4.59856e-08
1.02594e-11
5.53458e-07
4.80623e-08
6.09505e-08
6.11054e-08
6.25804e-08
6.20984e-08
6.2202e-08
6.21556e-08
6.22025e-08
6.21503e-08
6.21794e-08
6.21913e-08
6.214e-08
6.21476e-08
6.21672e-08
6.21419e-08
6.16382e-08
5.53803e-08
3.24155e-08
1.12961e-11
3.1165e-07
3.92636e-08
5.29083e-08
5.38886e-08
5.54592e-08
5.51507e-08
5.52521e-08
5.51912e-08
5.52345e-08
5.51912e-08
5.52168e-08
5.5227e-08
5.51802e-08
5.52172e-08
5.52094e-08
5.51512e-08
5.42979e-08
4.7817e-08
2.43854e-08
2.23464e-11
1.83475e-07
3.33469e-08
4.75131e-08
4.95097e-08
5.0863e-08
5.06162e-08
5.0723e-08
5.06382e-08
5.06816e-08
5.06439e-08
5.06685e-08
5.06787e-08
5.06238e-08
5.07058e-08
5.06716e-08
5.06269e-08
4.99359e-08
4.28361e-08
1.9389e-08
7.17219e-11
1.15094e-07
2.94013e-08
4.3819e-08
4.6368e-08
4.76637e-08
4.75022e-08
4.75834e-08
4.75105e-08
4.75555e-08
4.7522e-08
4.75451e-08
4.75565e-08
4.74884e-08
4.75755e-08
4.75558e-08
4.75078e-08
4.67983e-08
3.98548e-08
1.61859e-08
1.97466e-10
7.73855e-08
2.63665e-08
4.1028e-08
4.40241e-08
4.5304e-08
4.51874e-08
4.52325e-08
4.51839e-08
4.52341e-08
4.51995e-08
4.52246e-08
4.52385e-08
4.51493e-08
4.52148e-08
4.52444e-08
4.51979e-08
4.44947e-08
3.75732e-08
1.41104e-08
3.65004e-10
5.53188e-08
2.40371e-08
3.87062e-08
4.20987e-08
4.33857e-08
4.32931e-08
4.3291e-08
4.32766e-08
4.33351e-08
4.33028e-08
4.33254e-08
4.33431e-08
4.32235e-08
4.34967e-08
4.33571e-08
4.33128e-08
4.26302e-08
3.57176e-08
1.2792e-08
4.9656e-10
4.14894e-08
2.21882e-08
3.70726e-08
4.03966e-08
4.1697e-08
4.16169e-08
4.17778e-08
4.1584e-08
4.16536e-08
4.16246e-08
4.16428e-08
4.16658e-08
4.14989e-08
4.17853e-08
4.16864e-08
4.16476e-08
4.1002e-08
3.4382e-08
1.19459e-08
6.00757e-10
3.22674e-08
2.0747e-08
3.54984e-08
3.88082e-08
4.01213e-08
4.00435e-08
4.01872e-08
3.99907e-08
4.00764e-08
4.00499e-08
4.00635e-08
4.00939e-08
4.00699e-08
4.0187e-08
4.01202e-08
4.00894e-08
3.94959e-08
3.30981e-08
1.14785e-08
7.13291e-10
2.58012e-08
1.95395e-08
3.39177e-08
3.72691e-08
3.85905e-08
3.85077e-08
3.86297e-08
3.8429e-08
3.85375e-08
3.85116e-08
3.85215e-08
3.85601e-08
3.85072e-08
3.86368e-08
3.85929e-08
3.85721e-08
3.80446e-08
3.19447e-08
1.13638e-08
8.43565e-10
2.1091e-08
1.84713e-08
3.24095e-08
3.57381e-08
3.70615e-08
3.69682e-08
3.70742e-08
3.68543e-08
3.69951e-08
3.6968e-08
3.69748e-08
3.70225e-08
3.69343e-08
3.70918e-08
3.70629e-08
3.70537e-08
3.66036e-08
3.08738e-08
1.1465e-08
9.92667e-10
1.75701e-08
1.75262e-08
3.09137e-08
3.41855e-08
3.5504e-08
3.5396e-08
3.54916e-08
3.52317e-08
3.542e-08
3.53901e-08
3.53941e-08
3.54518e-08
3.53132e-08
3.55199e-08
3.55006e-08
3.55043e-08
3.51408e-08
2.98391e-08
1.17298e-08
1.16955e-09
1.49057e-08
1.66919e-08
2.97049e-08
3.25872e-08
3.38942e-08
3.37686e-08
3.38595e-08
3.37396e-08
3.37898e-08
3.37555e-08
3.37566e-08
3.38253e-08
3.361e-08
3.38965e-08
3.38828e-08
3.39007e-08
3.36301e-08
2.88006e-08
1.21089e-08
1.39235e-09
1.25175e-08
1.59349e-08
2.84141e-08
3.09187e-08
3.22113e-08
3.20667e-08
3.21543e-08
3.19994e-08
3.2084e-08
3.20452e-08
3.2043e-08
3.21246e-08
3.20197e-08
3.22024e-08
3.21899e-08
3.22231e-08
3.20476e-08
2.77238e-08
1.25949e-08
1.68552e-09
1.08266e-08
1.52295e-08
2.69843e-08
2.93323e-08
3.04343e-08
3.02725e-08
3.03571e-08
3.01555e-08
3.02847e-08
3.02414e-08
3.02352e-08
3.03315e-08
3.03112e-08
3.04167e-08
3.04032e-08
3.04533e-08
3.03601e-08
2.65779e-08
1.31047e-08
2.07399e-09
9.51185e-09
1.45503e-08
2.55182e-08
2.75831e-08
2.85364e-08
2.83678e-08
2.84479e-08
2.841e-08
2.8373e-08
2.83254e-08
2.83124e-08
2.84267e-08
2.83811e-08
2.85175e-08
2.85032e-08
2.8572e-08
2.85868e-08
2.53367e-08
1.3556e-08
2.57679e-09
8.3666e-09
1.38714e-08
2.39863e-08
2.58414e-08
2.67677e-08
2.65591e-08
2.66451e-08
2.65822e-08
2.65634e-08
2.65104e-08
2.64812e-08
2.66243e-08
2.65601e-08
2.6718e-08
2.67037e-08
2.67878e-08
2.68776e-08
2.39781e-08
1.39248e-08
3.19829e-09
7.488e-09
1.31698e-08
2.23521e-08
2.39119e-08
2.47543e-08
2.451e-08
2.45937e-08
2.45088e-08
2.45056e-08
2.44464e-08
2.44446e-08
2.45804e-08
2.44926e-08
2.46775e-08
2.46626e-08
2.47721e-08
2.50148e-08
2.24737e-08
1.41504e-08
3.92118e-09
6.80698e-09
1.24238e-08
2.05689e-08
2.19911e-08
2.27768e-08
2.25022e-08
2.25864e-08
2.24849e-08
2.24941e-08
2.2431e-08
2.24139e-08
2.25773e-08
2.2472e-08
2.26742e-08
2.26604e-08
2.27832e-08
2.31077e-08
2.09864e-08
1.4177e-08
4.68853e-09
6.1537e-09
1.16185e-08
1.89518e-08
1.999e-08
2.07107e-08
2.04108e-08
2.04939e-08
2.0379e-08
2.03987e-08
2.03326e-08
2.03098e-08
2.04878e-08
2.03664e-08
2.05839e-08
2.05722e-08
2.07038e-08
2.11033e-08
1.92425e-08
1.39628e-08
5.42318e-09
5.56638e-09
1.07382e-08
1.72466e-08
1.79186e-08
1.8573e-08
1.82508e-08
1.83329e-08
1.82067e-08
1.82355e-08
1.8167e-08
1.81409e-08
1.83284e-08
1.81936e-08
1.84237e-08
1.84139e-08
1.85513e-08
1.90127e-08
1.74812e-08
1.35118e-08
6.05111e-09
5.11009e-09
9.77597e-09
1.54686e-08
1.57983e-08
1.63871e-08
1.60469e-08
1.6128e-08
1.59928e-08
1.60295e-08
1.59593e-08
1.59306e-08
1.61236e-08
1.59791e-08
1.62177e-08
1.62095e-08
1.63495e-08
1.68554e-08
1.56147e-08
1.27358e-08
6.48844e-09
4.75638e-09
8.7307e-09
1.36275e-08
1.36623e-08
1.41819e-08
1.38343e-08
1.39129e-08
1.37723e-08
1.38154e-08
1.37445e-08
1.37135e-08
1.39077e-08
1.37581e-08
1.4e-08
1.39925e-08
1.4132e-08
1.46613e-08
1.36745e-08
1.16597e-08
6.67097e-09
4.36769e-09
7.66845e-09
1.17545e-08
1.15496e-08
1.19998e-08
1.16562e-08
1.17308e-08
1.15885e-08
1.16374e-08
1.1566e-08
1.15337e-08
1.17243e-08
1.15745e-08
1.18138e-08
1.18061e-08
1.19422e-08
1.24709e-08
1.17047e-08
1.04982e-08
6.56859e-09
3.9041e-09
6.56499e-09
9.89204e-09
9.50819e-09
9.89154e-09
9.56371e-09
9.63248e-09
9.4925e-09
9.54737e-09
9.47477e-09
9.44254e-09
9.62413e-09
9.47924e-09
9.71028e-09
9.70125e-09
9.83142e-09
1.03344e-08
9.75981e-09
9.17277e-09
6.18402e-09
3.48606e-09
5.4542e-09
8.09247e-09
7.59087e-09
7.91283e-09
7.61134e-09
7.67309e-09
7.53861e-09
7.60065e-09
7.52524e-09
7.49449e-09
7.66173e-09
7.52678e-09
7.74415e-09
7.73319e-09
7.85507e-09
8.30851e-09
7.90312e-09
7.74716e-09
5.55694e-09
3.02032e-09
4.37649e-09
6.4155e-09
5.84999e-09
6.05926e-09
5.81774e-09
5.87029e-09
5.7788e-09
5.80906e-09
5.76944e-09
5.74158e-09
5.88962e-09
5.769e-09
5.92983e-09
5.91789e-09
6.00796e-09
6.45176e-09
6.07644e-09
6.29668e-09
4.75635e-09
2.53185e-09
3.33755e-09
4.7835e-09
4.33269e-09
4.49184e-09
4.29198e-09
4.33547e-09
4.25653e-09
4.28852e-09
4.25027e-09
4.22625e-09
4.3515e-09
4.24867e-09
4.38568e-09
4.37303e-09
4.44816e-09
4.81743e-09
4.50548e-09
4.90576e-09
3.868e-09
2.03482e-09
2.45606e-09
3.4772e-09
3.06934e-09
3.18536e-09
3.02819e-09
3.0625e-09
2.99826e-09
3.02737e-09
2.99433e-09
2.97472e-09
3.07544e-09
2.99223e-09
3.10273e-09
3.09075e-09
3.14946e-09
3.44198e-09
3.22109e-09
3.6479e-09
2.97887e-09
1.55523e-09
1.71951e-09
2.40446e-09
2.06957e-09
2.14983e-09
2.03325e-09
2.05896e-09
2.00987e-09
2.03347e-09
2.0076e-09
1.99251e-09
2.06907e-09
2.00546e-09
2.08932e-09
2.07908e-09
2.12219e-09
2.34101e-09
2.18931e-09
2.57594e-09
2.16295e-09
1.12124e-09
1.13898e-09
1.57266e-09
1.32163e-09
1.37377e-09
1.29276e-09
1.31092e-09
1.27589e-09
1.29337e-09
1.27474e-09
1.2638e-09
1.31854e-09
1.27281e-09
1.33239e-09
1.32442e-09
1.35418e-09
1.50776e-09
1.40754e-09
1.71836e-09
1.47716e-09
7.57521e-10
7.0925e-10
9.68191e-10
7.94918e-10
8.2705e-10
7.74216e-10
7.86328e-10
7.6302e-10
7.74989e-10
7.62517e-10
7.55148e-10
7.91772e-10
7.61012e-10
8.00484e-10
7.94798e-10
8.1411e-10
9.14585e-10
8.51509e-10
1.07697e-09
9.44238e-10
4.76675e-10
4.12381e-10
5.58214e-10
4.47525e-10
4.66572e-10
4.34129e-10
4.41761e-10
4.27323e-10
4.34935e-10
4.27161e-10
4.22582e-10
4.45363e-10
4.26135e-10
4.50336e-10
4.46676e-10
4.58362e-10
5.19368e-10
4.81872e-10
6.30218e-10
5.61848e-10
2.76369e-10
2.22437e-10
2.98704e-10
2.34273e-10
2.44808e-10
2.26296e-10
2.3073e-10
2.22495e-10
2.26955e-10
2.22481e-10
2.1984e-10
2.32918e-10
2.21833e-10
2.35444e-10
2.3336e-10
2.39856e-10
2.74102e-10
2.53232e-10
3.41749e-10
3.09112e-10
1.46077e-10
1.10206e-10
1.46852e-10
1.12947e-10
1.18396e-10
1.08545e-10
1.10901e-10
1.06608e-10
1.08998e-10
1.06639e-10
1.05243e-10
1.1213e-10
1.06266e-10
1.1324e-10
1.12187e-10
1.15446e-10
1.33133e-10
1.22347e-10
1.7013e-10
1.55813e-10
6.93699e-11
4.90126e-11
6.53556e-11
4.87683e-11
5.12086e-11
4.71883e-11
4.83214e-11
4.62997e-11
4.74567e-11
4.63313e-11
4.5662e-11
4.89482e-11
4.61371e-11
4.93488e-11
4.88848e-11
5.01935e-11
5.82224e-11
5.35374e-11
7.667e-11
7.09906e-11
2.89865e-11
1.93806e-11
2.57628e-11
1.88197e-11
1.98466e-11
1.81629e-11
1.86461e-11
1.78027e-11
1.82987e-11
1.78228e-11
1.75377e-11
1.89297e-11
1.77328e-11
1.90399e-11
1.88631e-11
1.93499e-11
2.26836e-11
2.07436e-11
3.06115e-11
2.86271e-11
1.03081e-11
6.52973e-12
8.68181e-12
6.19514e-12
6.56606e-12
5.96262e-12
6.13961e-12
5.83803e-12
6.02014e-12
5.84771e-12
5.74341e-12
6.24937e-12
5.81197e-12
6.26896e-12
6.2109e-12
6.37075e-12
7.55299e-12
6.86025e-12
1.04603e-11
9.87645e-12
2.95407e-12
1.76779e-12
2.36185e-12
1.63955e-12
1.74821e-12
1.57383e-12
1.62654e-12
1.53921e-12
1.59327e-12
1.54273e-12
1.51187e-12
1.66072e-12
1.53131e-12
1.66134e-12
1.64544e-12
1.68855e-12
2.02759e-12
1.82632e-12
2.891e-12
2.75698e-12
6.27044e-13
3.53834e-13
4.76832e-13
3.21332e-13
3.45011e-13
3.0783e-13
3.19481e-13
3.00782e-13
3.12625e-13
3.01695e-13
2.94959e-13
3.27275e-13
2.99025e-13
3.26496e-13
3.23183e-13
3.31712e-13
4.03657e-13
3.60239e-13
5.93287e-13
5.72032e-13
9.01608e-14
4.8779e-14
6.5938e-14
4.36245e-14
4.70867e-14
4.1783e-14
4.35076e-14
4.08239e-14
4.25575e-14
4.09761e-14
3.99899e-14
4.46874e-14
4.05618e-14
4.44666e-14
4.39981e-14
4.51189e-14
5.53265e-14
4.90749e-14
8.29194e-14
8.11066e-14
8.38396e-15
4.43248e-15
5.91414e-15
3.90399e-15
4.21731e-15
3.73907e-15
3.89954e-15
3.65478e-15
3.81552e-15
3.66999e-15
3.57637e-15
4.01446e-15
3.6285e-15
3.98525e-15
3.94193e-15
4.03746e-15
4.9557e-15
4.39906e-15
7.51598e-15
7.65559e-15
4.30448e-16
2.17459e-16
2.79452e-16
1.8751e-16
2.01577e-16
1.79632e-16
1.87152e-16
1.75773e-16
1.83326e-16
1.76489e-16
1.71862e-16
1.92904e-16
1.74349e-16
1.91182e-16
1.89046e-16
1.93431e-16
2.3554e-16
2.11936e-16
3.70115e-16
4.5509e-16
1.48932e-17
6.17702e-18
6.92752e-18
4.99504e-18
5.25142e-18
4.7917e-18
4.94779e-18
4.69951e-18
4.86454e-18
4.71253e-18
4.59557e-18
5.09358e-18
4.65612e-18
5.05114e-18
4.99149e-18
5.1073e-18
6.02153e-18
5.80013e-18
1.24702e-17
3.24817e-17
)
;

boundaryField
{
    fuel
    {
        type            fixedValue;
        value           uniform 0;
    }
    wall
    {
        type            zeroGradient;
    }
    outlet
    {
        type            zeroGradient;
    }
    frontAndBack
    {
        type            empty;
    }
}


// ************************************************************************* //
