/*--------------------------------*- C++ -*----------------------------------*\
| =========                 |                                                 |
| \\      /  F ield         | OpenFOAM: The Open Source CFD Toolbox           |
|  \\    /   O peration     | Version:  dev                                   |
|   \\  /    A nd           | Web:      www.OpenFOAM.org                      |
|    \\/     M anipulation  |                                                 |
\*---------------------------------------------------------------------------*/
FoamFile
{
    version     2.0;
    format      ascii;
    class       volScalarField;
    location    "0.2";
    object      CH2CO;
}
// * * * * * * * * * * * * * * * * * * * * * * * * * * * * * * * * * * * * * //

dimensions      [0 0 0 0 0 0 0];

internalField   nonuniform List<scalar> 
1000
(
6.94806e-05
0.00147065
0.00122924
0.00120312
0.00120015
0.00119988
0.00119974
0.00119984
0.00119976
0.0011998
0.00119978
0.00119978
0.00119975
0.00119978
0.00119976
0.00120003
0.00120267
0.0012172
0.0013436
4.29222e-05
0.000169245
0.00034647
0.000292541
0.000286619
0.00028586
0.000285789
0.000285765
0.000285766
0.000285775
0.000285766
0.00028578
0.000285781
0.000285761
0.000285822
0.000285724
0.000286046
0.000286341
0.000291002
0.000315286
0.000145079
0.000259719
0.000160212
0.00013648
0.000133797
0.000133388
0.000133345
0.000133332
0.000133323
0.00013334
0.000133327
0.000133344
0.000133348
0.000133334
0.000133376
0.000133298
0.000133583
0.000133549
0.00013644
0.000147635
0.000783543
0.000330979
0.000109921
9.05273e-05
8.85479e-05
8.82004e-05
8.81598e-05
8.81431e-05
8.81333e-05
8.81526e-05
8.81382e-05
8.8157e-05
8.81648e-05
8.81511e-05
8.81837e-05
8.81174e-05
8.84125e-05
8.82738e-05
9.09844e-05
0.000104578
0.00518933
0.000379397
8.7901e-05
6.87091e-05
6.70242e-05
6.66936e-05
6.66511e-05
6.66233e-05
6.662e-05
6.66404e-05
6.66248e-05
6.66464e-05
6.66572e-05
6.66423e-05
6.66612e-05
6.66153e-05
6.69185e-05
6.67289e-05
6.95565e-05
8.13346e-05
0.00171858
0.000408327
7.52132e-05
5.62022e-05
5.47213e-05
5.44001e-05
5.43542e-05
5.43045e-05
5.43187e-05
5.43383e-05
5.43224e-05
5.43468e-05
5.43593e-05
5.43435e-05
5.43396e-05
5.43263e-05
5.46204e-05
5.44231e-05
5.67641e-05
6.5927e-05
0.000466808
0.000426237
6.65851e-05
4.85661e-05
4.72215e-05
4.68984e-05
4.68455e-05
4.67617e-05
4.68012e-05
4.68197e-05
4.68006e-05
4.68323e-05
4.68454e-05
4.68282e-05
4.67853e-05
4.68242e-05
4.71051e-05
4.69304e-05
4.91766e-05
5.57929e-05
0.000210486
0.000443333
6.00508e-05
4.32442e-05
4.24797e-05
4.2091e-05
4.20272e-05
4.19267e-05
4.19739e-05
4.19888e-05
4.19682e-05
4.20046e-05
4.20178e-05
4.19981e-05
4.1946e-05
4.20097e-05
4.22917e-05
4.2189e-05
4.40292e-05
4.91711e-05
0.000142837
0.000465693
5.47682e-05
3.99509e-05
3.88769e-05
3.86887e-05
3.86659e-05
3.86744e-05
3.86339e-05
3.86445e-05
3.8622e-05
3.86625e-05
3.86754e-05
3.86521e-05
3.86892e-05
3.86493e-05
3.88115e-05
3.86159e-05
4.0668e-05
4.48437e-05
0.000118161
0.000491154
5.03149e-05
3.73224e-05
3.66105e-05
3.63422e-05
3.62939e-05
3.63206e-05
3.6255e-05
3.62584e-05
3.62325e-05
3.62799e-05
3.62934e-05
3.62601e-05
3.63311e-05
3.62756e-05
3.64777e-05
3.63364e-05
3.80092e-05
4.14557e-05
0.000107391
0.000500955
4.64377e-05
3.52293e-05
3.47166e-05
3.439e-05
3.43359e-05
3.43313e-05
3.42947e-05
3.4296e-05
3.42756e-05
3.43141e-05
3.43265e-05
3.42837e-05
3.43104e-05
3.43171e-05
3.45065e-05
3.44245e-05
3.59556e-05
3.89701e-05
0.000102525
0.000470623
4.29686e-05
3.37107e-05
3.3133e-05
3.27821e-05
3.27219e-05
3.27201e-05
3.26805e-05
3.26831e-05
3.26739e-05
3.2694e-05
3.27055e-05
3.2648e-05
3.28331e-05
3.27009e-05
3.28845e-05
3.28289e-05
3.42419e-05
3.6846e-05
0.000100574
0.000400283
3.98296e-05
3.22773e-05
3.1758e-05
3.13812e-05
3.13154e-05
3.14229e-05
3.12726e-05
3.12816e-05
3.12856e-05
3.1282e-05
3.12927e-05
3.12128e-05
3.13951e-05
3.12898e-05
3.14717e-05
3.14376e-05
3.27122e-05
3.50293e-05
0.000100034
0.000314326
3.70357e-05
3.11067e-05
3.05204e-05
3.01162e-05
3.00439e-05
3.00975e-05
2.99969e-05
3.00181e-05
3.00299e-05
3.0006e-05
3.00165e-05
2.99031e-05
3.00808e-05
3.00139e-05
3.01965e-05
3.01824e-05
3.15743e-05
3.34225e-05
9.98212e-05
0.000234453
3.43815e-05
2.99821e-05
2.93775e-05
2.89483e-05
2.88699e-05
2.88904e-05
2.88138e-05
2.88518e-05
2.88632e-05
2.88271e-05
2.88385e-05
2.88434e-05
2.88809e-05
2.88355e-05
2.90191e-05
2.90221e-05
3.04894e-05
3.20559e-05
9.90244e-05
0.000170021
3.1905e-05
2.88611e-05
2.83036e-05
2.78546e-05
2.77711e-05
2.7773e-05
2.76993e-05
2.77584e-05
2.77637e-05
2.77229e-05
2.7735e-05
2.7729e-05
2.77649e-05
2.77322e-05
2.79164e-05
2.7932e-05
2.93503e-05
3.07826e-05
9.69754e-05
0.000121773
3.00645e-05
2.78105e-05
2.72824e-05
2.68205e-05
2.67332e-05
2.67244e-05
2.66377e-05
2.67229e-05
2.67198e-05
2.66793e-05
2.6692e-05
2.66732e-05
2.67152e-05
2.66899e-05
2.68735e-05
2.68976e-05
2.82624e-05
2.95112e-05
9.33683e-05
8.776e-05
2.84962e-05
2.68166e-05
2.63007e-05
2.58355e-05
2.5746e-05
2.57312e-05
2.56166e-05
2.57354e-05
2.57241e-05
2.56864e-05
2.56993e-05
2.56647e-05
2.57196e-05
2.56986e-05
2.58803e-05
2.59083e-05
2.72026e-05
2.82899e-05
8.8293e-05
6.43838e-05
2.71603e-05
2.58693e-05
2.53454e-05
2.48919e-05
2.48018e-05
2.47846e-05
2.4754e-05
2.47889e-05
2.47703e-05
2.47367e-05
2.47492e-05
2.46945e-05
2.47691e-05
2.47507e-05
2.49291e-05
2.49562e-05
2.63666e-05
2.71298e-05
8.09836e-05
4.8593e-05
2.6017e-05
2.49613e-05
2.44028e-05
2.39823e-05
2.38937e-05
2.38753e-05
2.38235e-05
2.38768e-05
2.38526e-05
2.38235e-05
2.38352e-05
2.37561e-05
2.38564e-05
2.38396e-05
2.4013e-05
2.40323e-05
2.54741e-05
2.60281e-05
7.36717e-05
3.80892e-05
2.50255e-05
2.4088e-05
2.35932e-05
2.30997e-05
2.30149e-05
2.29963e-05
2.29169e-05
2.29932e-05
2.29646e-05
2.29403e-05
2.29512e-05
2.29605e-05
2.29753e-05
2.29587e-05
2.3125e-05
2.32274e-05
2.45592e-05
2.4981e-05
6.5392e-05
3.11943e-05
2.40857e-05
2.32413e-05
2.27599e-05
2.22352e-05
2.21577e-05
2.21406e-05
2.21352e-05
2.21315e-05
2.20992e-05
2.20796e-05
2.20902e-05
2.21101e-05
2.2116e-05
2.21007e-05
2.22548e-05
2.2398e-05
2.367e-05
2.39873e-05
5.7751e-05
2.67033e-05
2.32133e-05
2.24146e-05
2.20014e-05
2.14825e-05
2.14176e-05
2.14015e-05
2.13852e-05
2.13874e-05
2.13521e-05
2.13365e-05
2.13497e-05
2.13715e-05
2.13759e-05
2.13586e-05
2.15134e-05
2.16458e-05
2.27997e-05
2.30453e-05
5.01202e-05
2.37687e-05
2.24904e-05
2.1597e-05
2.12358e-05
2.07504e-05
2.06362e-05
2.06204e-05
2.05919e-05
2.06017e-05
2.05611e-05
2.05493e-05
2.0568e-05
2.05833e-05
2.05913e-05
2.05756e-05
2.07266e-05
2.08676e-05
2.19354e-05
2.21495e-05
4.35909e-05
2.1823e-05
2.17972e-05
2.08765e-05
2.05126e-05
2.00362e-05
1.99294e-05
1.9914e-05
1.98772e-05
1.98917e-05
1.98484e-05
1.984e-05
1.98626e-05
1.98699e-05
1.98836e-05
1.9868e-05
2.00168e-05
2.01493e-05
2.10625e-05
2.12902e-05
3.79437e-05
2.05034e-05
2.11255e-05
2.01407e-05
1.98039e-05
1.93352e-05
1.92368e-05
1.92219e-05
1.9178e-05
1.91968e-05
1.91508e-05
1.91454e-05
1.91696e-05
1.91703e-05
1.91904e-05
1.91751e-05
1.93224e-05
1.94424e-05
2.03285e-05
2.04605e-05
3.32131e-05
1.95764e-05
2.04649e-05
1.94302e-05
1.91033e-05
1.86447e-05
1.85537e-05
1.8539e-05
1.84893e-05
1.85119e-05
1.84635e-05
1.84607e-05
1.84846e-05
1.84811e-05
1.85068e-05
1.8492e-05
1.86375e-05
1.87464e-05
1.95999e-05
1.96534e-05
2.92263e-05
1.88861e-05
1.97484e-05
1.87201e-05
1.84056e-05
1.79596e-05
1.78751e-05
1.78601e-05
1.78061e-05
1.7832e-05
1.77815e-05
1.77809e-05
1.78035e-05
1.77975e-05
1.7828e-05
1.78138e-05
1.7957e-05
1.80564e-05
1.8873e-05
1.88591e-05
2.59062e-05
1.8307e-05
1.8963e-05
1.80065e-05
1.77066e-05
1.72751e-05
1.71961e-05
1.71804e-05
1.71234e-05
1.71525e-05
1.70998e-05
1.71012e-05
1.71221e-05
1.71147e-05
1.7149e-05
1.71354e-05
1.72761e-05
1.73663e-05
1.81447e-05
1.80688e-05
2.33927e-05
1.77644e-05
1.82493e-05
1.72862e-05
1.70015e-05
1.6587e-05
1.65122e-05
1.64952e-05
1.64366e-05
1.64687e-05
1.64139e-05
1.64169e-05
1.64358e-05
1.64281e-05
1.64655e-05
1.64522e-05
1.65903e-05
1.66707e-05
1.74121e-05
1.73249e-05
2.1262e-05
1.72085e-05
1.75143e-05
1.65568e-05
1.62859e-05
1.58914e-05
1.58197e-05
1.58004e-05
1.57422e-05
1.57769e-05
1.57202e-05
1.57245e-05
1.57409e-05
1.57342e-05
1.57739e-05
1.57606e-05
1.58958e-05
1.59654e-05
1.66729e-05
1.65766e-05
1.93344e-05
1.66118e-05
1.6755e-05
1.58178e-05
1.55565e-05
1.51863e-05
1.51162e-05
1.50931e-05
1.50378e-05
1.50747e-05
1.50165e-05
1.50218e-05
1.50347e-05
1.50308e-05
1.50718e-05
1.5058e-05
1.519e-05
1.52476e-05
1.59263e-05
1.58219e-05
1.79503e-05
1.59625e-05
1.59697e-05
1.50219e-05
1.48132e-05
1.44414e-05
1.43768e-05
1.43723e-05
1.42934e-05
1.43358e-05
1.42735e-05
1.4282e-05
1.4316e-05
1.42889e-05
1.43343e-05
1.43208e-05
1.44484e-05
1.45163e-05
1.51746e-05
1.50587e-05
1.66966e-05
1.52597e-05
1.51616e-05
1.42037e-05
1.40579e-05
1.37073e-05
1.36457e-05
1.364e-05
1.35625e-05
1.36067e-05
1.35433e-05
1.35526e-05
1.35865e-05
1.35596e-05
1.36054e-05
1.35913e-05
1.37142e-05
1.37735e-05
1.43442e-05
1.42482e-05
1.56201e-05
1.45094e-05
1.43371e-05
1.342e-05
1.32939e-05
1.29643e-05
1.29061e-05
1.28995e-05
1.28241e-05
1.28697e-05
1.28057e-05
1.28156e-05
1.28491e-05
1.28223e-05
1.28684e-05
1.28537e-05
1.29717e-05
1.30228e-05
1.35636e-05
1.34676e-05
1.46363e-05
1.37224e-05
1.35023e-05
1.26312e-05
1.25253e-05
1.22167e-05
1.21622e-05
1.21553e-05
1.20822e-05
1.21288e-05
1.20647e-05
1.2075e-05
1.2108e-05
1.20812e-05
1.21271e-05
1.21121e-05
1.22248e-05
1.22686e-05
1.27777e-05
1.26865e-05
1.37144e-05
1.2912e-05
1.26641e-05
1.18427e-05
1.17565e-05
1.14689e-05
1.14183e-05
1.14114e-05
1.13409e-05
1.13881e-05
1.13241e-05
1.13348e-05
1.13672e-05
1.13402e-05
1.13855e-05
1.13706e-05
1.14774e-05
1.15152e-05
1.19907e-05
1.19092e-05
1.28339e-05
1.20894e-05
1.18272e-05
1.10587e-05
1.09905e-05
1.07239e-05
1.06771e-05
1.06705e-05
1.06028e-05
1.06501e-05
1.05869e-05
1.05977e-05
1.06293e-05
1.06024e-05
1.06467e-05
1.06321e-05
1.07326e-05
1.07659e-05
1.1206e-05
1.11391e-05
1.19817e-05
1.12631e-05
1.09952e-05
1.02822e-05
1.02295e-05
9.9845e-06
9.94116e-06
9.93509e-06
9.87078e-06
9.91752e-06
9.85575e-06
9.86654e-06
9.89711e-06
9.87058e-06
9.91328e-06
9.89916e-06
9.99338e-06
1.00228e-05
1.04277e-05
1.03771e-05
1.11539e-05
1.04438e-05
1.01743e-05
9.51939e-06
9.47889e-06
9.2571e-06
9.21673e-06
9.21125e-06
9.15124e-06
9.19647e-06
9.13718e-06
9.14765e-06
9.1768e-06
9.15115e-06
9.19168e-06
9.17802e-06
9.26612e-06
9.29148e-06
9.66154e-06
9.62756e-06
1.03508e-05
9.64415e-06
9.37563e-06
8.78456e-06
8.75226e-06
8.55713e-06
8.51919e-06
8.51437e-06
8.46014e-06
8.5024e-06
8.44729e-06
8.45714e-06
8.48407e-06
8.46022e-06
8.49733e-06
8.48471e-06
8.56562e-06
8.58801e-06
8.91767e-06
8.90514e-06
9.57066e-06
8.88739e-06
8.62296e-06
8.10479e-06
8.06983e-06
7.90018e-06
7.8764e-06
7.8723e-06
7.82562e-06
7.86305e-06
7.8143e-06
7.82316e-06
7.84682e-06
7.82591e-06
7.85813e-06
7.84732e-06
7.90838e-06
7.92922e-06
8.22147e-06
8.22695e-06
8.82982e-06
8.20825e-06
7.95265e-06
7.51674e-06
7.48113e-06
7.34483e-06
7.32436e-06
7.32096e-06
7.28316e-06
7.31408e-06
7.2736e-06
7.2811e-06
7.30064e-06
7.28369e-06
7.30978e-06
7.30159e-06
7.35074e-06
7.37129e-06
7.61029e-06
7.64084e-06
8.15957e-06
7.64452e-06
7.40344e-06
7.0536e-06
7.01526e-06
6.91219e-06
6.89471e-06
6.89197e-06
6.86326e-06
6.8869e-06
6.85547e-06
6.86144e-06
6.87654e-06
6.86403e-06
6.88356e-06
6.87848e-06
6.91517e-06
6.93649e-06
7.12037e-06
7.17289e-06
7.5969e-06
7.22145e-06
6.99979e-06
6.7306e-06
6.68959e-06
6.61586e-06
6.6008e-06
6.59867e-06
6.57793e-06
6.59476e-06
6.57161e-06
6.57614e-06
6.58728e-06
6.57895e-06
6.59249e-06
6.59047e-06
6.61612e-06
6.63826e-06
6.77176e-06
6.83985e-06
7.16947e-06
6.93832e-06
6.73878e-06
6.53654e-06
6.49465e-06
6.44357e-06
6.43032e-06
6.42868e-06
6.41386e-06
6.42542e-06
6.40856e-06
6.41194e-06
6.42019e-06
6.41511e-06
6.42409e-06
6.42452e-06
6.44176e-06
6.46416e-06
6.55767e-06
6.63311e-06
6.8809e-06
6.76701e-06
6.58983e-06
6.43757e-06
6.3972e-06
6.36153e-06
6.34961e-06
6.34834e-06
6.33729e-06
6.34542e-06
6.33254e-06
6.33511e-06
6.34173e-06
6.33871e-06
6.34481e-06
6.34681e-06
6.3586e-06
6.38031e-06
6.44616e-06
6.52118e-06
6.70686e-06
6.66579e-06
6.50933e-06
6.39211e-06
6.35503e-06
6.32899e-06
6.31813e-06
6.31709e-06
6.30822e-06
6.31439e-06
6.30371e-06
6.30571e-06
6.31169e-06
6.30973e-06
6.31429e-06
6.31705e-06
6.32584e-06
6.34595e-06
6.39464e-06
6.46402e-06
6.60709e-06
6.59355e-06
6.45472e-06
6.3621e-06
6.32866e-06
6.30884e-06
6.29894e-06
6.29802e-06
6.2906e-06
6.29547e-06
6.28625e-06
6.28774e-06
6.29354e-06
6.29211e-06
6.29582e-06
6.29887e-06
6.30602e-06
6.32413e-06
6.36224e-06
6.4244e-06
6.53959e-06
6.55427e-06
6.42765e-06
6.35031e-06
6.31955e-06
6.30333e-06
6.2941e-06
6.29324e-06
6.28668e-06
6.29076e-06
6.28241e-06
6.28354e-06
6.28933e-06
6.28815e-06
6.29143e-06
6.29455e-06
6.30085e-06
6.31747e-06
6.34951e-06
6.40626e-06
6.50479e-06
)
;

boundaryField
{
    fuel
    {
        type            fixedValue;
        value           uniform 0;
    }
    wall
    {
        type            zeroGradient;
    }
    outlet
    {
        type            zeroGradient;
    }
    frontAndBack
    {
        type            empty;
    }
}


// ************************************************************************* //
