/*--------------------------------*- C++ -*----------------------------------*\
| =========                 |                                                 |
| \\      /  F ield         | OpenFOAM: The Open Source CFD Toolbox           |
|  \\    /   O peration     | Version:  dev                                   |
|   \\  /    A nd           | Web:      www.OpenFOAM.org                      |
|    \\/     M anipulation  |                                                 |
\*---------------------------------------------------------------------------*/
FoamFile
{
    version     2.0;
    format      ascii;
    class       volScalarField;
    location    "0.2";
    object      CH2OH;
}
// * * * * * * * * * * * * * * * * * * * * * * * * * * * * * * * * * * * * * //

dimensions      [0 0 0 0 0 0 0];

internalField   nonuniform List<scalar> 
1000
(
1.57443e-10
1.40377e-06
1.46186e-06
1.46937e-06
1.47022e-06
1.47032e-06
1.47037e-06
1.47035e-06
1.47038e-06
1.47036e-06
1.47039e-06
1.47038e-06
1.47038e-06
1.47038e-06
1.47033e-06
1.47038e-06
1.46942e-06
1.46595e-06
1.43523e-06
2.70597e-10
1.17015e-10
8.07453e-07
8.08777e-07
8.09976e-07
8.10005e-07
8.10034e-07
8.10079e-07
8.10034e-07
8.10082e-07
8.1004e-07
8.10091e-07
8.10072e-07
8.10051e-07
8.10202e-07
8.0986e-07
8.10674e-07
8.09449e-07
8.12851e-07
8.1e-07
3.49149e-10
5.22294e-11
3.45667e-07
3.39029e-07
3.402e-07
3.40176e-07
3.40198e-07
3.40242e-07
3.40186e-07
3.40242e-07
3.40194e-07
3.40239e-07
3.40239e-07
3.40194e-07
3.40417e-07
3.39969e-07
3.41088e-07
3.3938e-07
3.4444e-07
3.48104e-07
1.39982e-08
2.53134e-11
1.58709e-07
1.53514e-07
1.55126e-07
1.55165e-07
1.55183e-07
1.55212e-07
1.55167e-07
1.55213e-07
1.55176e-07
1.55204e-07
1.5522e-07
1.55178e-07
1.55354e-07
1.55014e-07
1.55953e-07
1.54383e-07
1.58718e-07
1.66834e-07
1.33505e-06
1.67595e-11
8.51563e-08
8.25414e-08
8.43565e-08
8.44476e-08
8.44628e-08
8.447e-08
8.44449e-08
8.44802e-08
8.44533e-08
8.44732e-08
8.44923e-08
8.44606e-08
8.45675e-08
8.436e-08
8.50349e-08
8.37922e-08
8.72115e-08
9.3543e-08
1.6986e-06
1.75986e-11
5.26644e-08
5.28237e-08
5.47542e-08
5.4886e-08
5.48989e-08
5.48765e-08
5.48793e-08
5.49061e-08
5.48867e-08
5.49024e-08
5.49202e-08
5.48963e-08
5.49446e-08
5.48382e-08
5.53087e-08
5.43414e-08
5.57765e-08
5.96672e-08
1.12566e-06
3.87284e-11
3.61258e-08
3.89354e-08
4.09262e-08
4.10808e-08
4.10883e-08
4.10266e-08
4.10598e-08
4.10825e-08
4.1063e-08
4.10836e-08
4.10992e-08
4.10791e-08
4.10631e-08
4.10512e-08
4.13915e-08
4.06175e-08
4.14814e-08
4.15308e-08
6.16961e-07
1.9358e-10
2.66333e-08
3.1111e-08
3.38305e-08
3.39291e-08
3.39277e-08
3.38481e-08
3.3891e-08
3.39087e-08
3.38911e-08
3.39124e-08
3.39261e-08
3.39068e-08
3.38733e-08
3.39027e-08
3.41779e-08
3.35784e-08
3.35893e-08
3.15905e-08
3.41204e-07
1.36574e-09
2.06857e-08
2.70104e-08
2.9341e-08
2.9709e-08
2.97592e-08
2.97989e-08
2.9748e-08
2.9762e-08
2.9745e-08
2.97675e-08
2.97797e-08
2.97595e-08
2.98147e-08
2.97395e-08
2.98316e-08
2.91625e-08
2.91807e-08
2.59608e-08
2.0424e-07
7.69124e-09
1.66994e-08
2.41887e-08
2.69166e-08
2.72139e-08
2.72406e-08
2.72944e-08
2.72204e-08
2.72287e-08
2.72095e-08
2.72379e-08
2.725e-08
2.72225e-08
2.73027e-08
2.72219e-08
2.73293e-08
2.67446e-08
2.61493e-08
2.20595e-08
1.33009e-07
2.55358e-08
1.38984e-08
2.22299e-08
2.51526e-08
2.54236e-08
2.54494e-08
2.54682e-08
2.54238e-08
2.54324e-08
2.54179e-08
2.54391e-08
2.54498e-08
2.54165e-08
2.54472e-08
2.54316e-08
2.55055e-08
2.49752e-08
2.40838e-08
1.94741e-08
9.28333e-08
4.6528e-08
1.18964e-08
2.09606e-08
2.38407e-08
2.41132e-08
2.41376e-08
2.41502e-08
2.41085e-08
2.41198e-08
2.41112e-08
2.41219e-08
2.41317e-08
2.40885e-08
2.42337e-08
2.41182e-08
2.41729e-08
2.36537e-08
2.25339e-08
1.74673e-08
6.8472e-08
4.69557e-08
1.04744e-08
1.98794e-08
2.27909e-08
2.30565e-08
2.30794e-08
2.31682e-08
2.30458e-08
2.30637e-08
2.30617e-08
2.30588e-08
2.30682e-08
2.30093e-08
2.3145e-08
2.30561e-08
2.31006e-08
2.2583e-08
2.12605e-08
1.59078e-08
5.28e-08
3.10671e-08
9.49252e-09
1.90648e-08
2.18875e-08
2.21369e-08
2.2157e-08
2.22041e-08
2.21165e-08
2.2145e-08
2.21462e-08
2.21318e-08
2.21412e-08
2.20579e-08
2.21886e-08
2.21295e-08
2.21696e-08
2.16518e-08
2.03584e-08
1.46542e-08
4.20649e-08
1.66007e-08
8.78434e-09
1.8332e-08
2.10642e-08
2.12907e-08
2.13072e-08
2.13298e-08
2.12559e-08
2.12984e-08
2.12979e-08
2.12766e-08
2.1287e-08
2.12854e-08
2.13189e-08
2.12752e-08
2.13148e-08
2.07963e-08
1.95276e-08
1.36827e-08
3.43234e-08
8.53726e-09
8.30338e-09
1.76353e-08
2.02815e-08
2.04805e-08
2.04934e-08
2.05023e-08
2.04261e-08
2.04861e-08
2.048e-08
2.04563e-08
2.04676e-08
2.04543e-08
2.04917e-08
2.04564e-08
2.0498e-08
1.99791e-08
1.86772e-08
1.28586e-08
2.84148e-08
4.88501e-09
8.06309e-09
1.69973e-08
1.95138e-08
1.96828e-08
1.9692e-08
1.96929e-08
1.96023e-08
1.96842e-08
1.96708e-08
1.96476e-08
1.96597e-08
1.96341e-08
1.96809e-08
1.965e-08
1.96951e-08
1.91773e-08
1.78723e-08
1.21086e-08
2.3742e-08
3.38971e-09
7.9522e-09
1.63926e-08
1.87418e-08
1.88813e-08
1.88872e-08
1.88832e-08
1.87658e-08
1.88769e-08
1.88559e-08
1.88348e-08
1.88474e-08
1.88071e-08
1.88686e-08
1.884e-08
1.889e-08
1.83749e-08
1.7084e-08
1.14462e-08
2.00095e-08
2.78812e-09
7.93419e-09
1.58013e-08
1.79478e-08
1.80635e-08
1.80666e-08
1.80603e-08
1.80105e-08
1.80525e-08
1.80239e-08
1.80056e-08
1.80185e-08
1.79599e-08
1.80418e-08
1.80143e-08
1.80701e-08
1.75592e-08
1.64474e-08
1.08602e-08
1.65645e-08
2.55086e-09
7.97858e-09
1.52063e-08
1.71143e-08
1.72183e-08
1.72197e-08
1.72117e-08
1.71382e-08
1.72006e-08
1.7165e-08
1.71498e-08
1.71628e-08
1.70819e-08
1.71899e-08
1.71627e-08
1.72247e-08
1.6717e-08
1.57479e-08
1.03321e-08
1.40302e-08
2.4897e-09
8.05751e-09
1.45939e-08
1.63462e-08
1.63356e-08
1.63366e-08
1.63276e-08
1.6224e-08
1.63119e-08
1.62696e-08
1.62578e-08
1.62712e-08
1.62775e-08
1.63031e-08
1.62753e-08
1.63428e-08
1.59296e-08
1.50032e-08
9.84485e-09
1.1782e-08
2.54293e-09
8.15015e-09
1.39482e-08
1.54956e-08
1.54026e-08
1.54062e-08
1.53974e-08
1.53702e-08
1.53761e-08
1.53271e-08
1.53189e-08
1.53339e-08
1.53483e-08
1.53686e-08
1.53419e-08
1.54107e-08
1.50591e-08
1.42425e-08
9.38368e-09
1.00429e-08
2.68651e-09
8.22355e-09
1.32551e-08
1.46588e-08
1.45222e-08
1.45348e-08
1.45256e-08
1.44834e-08
1.44997e-08
1.44447e-08
1.44395e-08
1.4459e-08
1.44731e-08
1.44953e-08
1.44659e-08
1.45494e-08
1.42082e-08
1.34526e-08
8.93466e-09
8.51486e-09
2.903e-09
8.24479e-09
1.2498e-08
1.37475e-08
1.35978e-08
1.35433e-08
1.35326e-08
1.34745e-08
1.35029e-08
1.34383e-08
1.34361e-08
1.34633e-08
1.3469e-08
1.34977e-08
1.347e-08
1.35646e-08
1.32628e-08
1.26151e-08
8.48358e-09
7.32471e-09
3.17099e-09
8.20238e-09
1.17602e-08
1.28198e-08
1.26299e-08
1.25783e-08
1.25666e-08
1.24975e-08
1.25339e-08
1.24634e-08
1.24639e-08
1.24965e-08
1.2493e-08
1.25299e-08
1.25017e-08
1.26085e-08
1.23261e-08
1.17122e-08
8.01981e-09
6.3632e-09
3.46134e-09
8.07643e-09
1.09352e-08
1.18466e-08
1.16188e-08
1.15698e-08
1.15571e-08
1.14788e-08
1.15225e-08
1.14464e-08
1.14494e-08
1.14846e-08
1.14738e-08
1.15192e-08
1.14907e-08
1.16101e-08
1.13448e-08
1.08976e-08
7.53485e-09
5.60241e-09
3.72917e-09
7.84656e-09
1.0071e-08
1.08281e-08
1.05683e-08
1.05214e-08
1.05076e-08
1.04225e-08
1.04722e-08
1.03916e-08
1.03966e-08
1.04321e-08
1.04166e-08
1.04693e-08
1.04409e-08
1.05708e-08
1.03269e-08
1.00354e-08
7.0138e-09
4.97195e-09
3.9307e-09
7.47194e-09
9.14927e-09
9.7693e-09
9.48531e-09
9.44043e-09
9.42517e-09
9.33616e-09
9.3906e-09
9.30661e-09
9.31334e-09
9.34759e-09
9.32954e-09
9.3876e-09
9.35966e-09
9.4972e-09
9.27811e-09
9.12802e-09
6.44899e-09
4.44143e-09
4.03652e-09
6.94057e-09
8.18154e-09
8.68039e-09
8.38168e-09
8.33848e-09
8.3216e-09
8.23161e-09
8.28939e-09
8.20357e-09
8.21158e-09
8.24371e-09
8.22461e-09
8.28603e-09
8.25877e-09
8.40063e-09
8.20743e-09
8.18248e-09
5.83761e-09
4.021e-09
4.02223e-09
6.36386e-09
7.18398e-09
7.57614e-09
7.27378e-09
7.23205e-09
7.21325e-09
7.12572e-09
7.18518e-09
7.0994e-09
7.10822e-09
7.1374e-09
7.11882e-09
7.18138e-09
7.15489e-09
7.2972e-09
7.12929e-09
7.21081e-09
5.22276e-09
3.62855e-09
3.87528e-09
5.69746e-09
6.17844e-09
6.47646e-09
6.18281e-09
6.14252e-09
6.12119e-09
6.04009e-09
6.09925e-09
6.01575e-09
6.02487e-09
6.04992e-09
6.03387e-09
6.09516e-09
6.06948e-09
6.20799e-09
6.06362e-09
6.23046e-09
4.5788e-09
3.21755e-09
3.59993e-09
4.96559e-09
5.19261e-09
5.40575e-09
5.13406e-09
5.09523e-09
5.07029e-09
5.00004e-09
5.05669e-09
4.97794e-09
4.9868e-09
5.00594e-09
4.99507e-09
5.05256e-09
5.02773e-09
5.15804e-09
5.03451e-09
5.26464e-09
3.92177e-09
2.87037e-09
3.21668e-09
4.19908e-09
4.2015e-09
4.39226e-09
4.11894e-09
4.08699e-09
4.08713e-09
3.99629e-09
4.05273e-09
3.97762e-09
3.98874e-09
4.03155e-09
3.99407e-09
4.05011e-09
4.02817e-09
4.14514e-09
4.06806e-09
4.34185e-09
3.27151e-09
2.49877e-09
2.75893e-09
3.43585e-09
3.28325e-09
3.46477e-09
3.22774e-09
3.19968e-09
3.19813e-09
3.12111e-09
3.17145e-09
3.10521e-09
3.11529e-09
3.15195e-09
3.12018e-09
3.169e-09
3.14905e-09
3.25048e-09
3.19069e-09
3.41214e-09
2.6213e-09
2.13337e-09
2.26741e-09
2.71443e-09
2.51282e-09
2.64692e-09
2.44952e-09
2.42605e-09
2.42374e-09
2.36084e-09
2.40394e-09
2.34781e-09
2.35653e-09
2.38685e-09
2.36062e-09
2.40158e-09
2.38425e-09
2.46877e-09
2.42365e-09
2.63742e-09
2.05109e-09
1.76881e-09
1.78345e-09
2.06609e-09
1.85702e-09
1.95469e-09
1.79739e-09
1.7787e-09
1.77638e-09
1.72694e-09
1.76227e-09
1.71672e-09
1.7239e-09
1.74804e-09
1.72697e-09
1.75994e-09
1.74564e-09
1.81304e-09
1.7801e-09
1.96904e-09
1.5505e-09
1.4171e-09
1.3423e-09
1.51336e-09
1.32432e-09
1.39422e-09
1.2746e-09
1.26042e-09
1.25852e-09
1.22119e-09
1.24886e-09
1.2135e-09
1.21914e-09
1.23758e-09
1.22123e-09
1.24659e-09
1.23542e-09
1.28664e-09
1.26355e-09
1.41813e-09
1.13119e-09
1.09284e-09
9.67396e-10
1.06649e-09
9.12074e-10
9.60976e-10
8.74269e-10
8.6402e-10
8.62623e-10
8.35634e-10
8.5629e-10
8.30103e-10
8.34352e-10
8.47828e-10
8.35669e-10
8.54262e-10
8.46003e-10
8.83e-10
8.67648e-10
9.85261e-10
7.96911e-10
8.09293e-10
6.68894e-10
7.24044e-10
6.08146e-10
6.41447e-10
5.81528e-10
5.74425e-10
5.73461e-10
5.548e-10
5.69487e-10
5.5098e-10
5.54032e-10
5.6348e-10
5.54812e-10
5.67847e-10
5.61993e-10
5.87613e-10
5.77717e-10
6.6195e-10
5.42926e-10
5.75959e-10
4.459e-10
4.75602e-10
3.94338e-10
4.16434e-10
3.76887e-10
3.72028e-10
3.71408e-10
3.59008e-10
3.6902e-10
3.56469e-10
3.58544e-10
3.64926e-10
3.58985e-10
3.6778e-10
3.63741e-10
3.81001e-10
3.74575e-10
4.3214e-10
3.58967e-10
3.95398e-10
2.88499e-10
3.04116e-10
2.50328e-10
2.64669e-10
2.39706e-10
2.36279e-10
2.35903e-10
2.27956e-10
2.34529e-10
2.26323e-10
2.27684e-10
2.31843e-10
2.27928e-10
2.33628e-10
2.30961e-10
2.42314e-10
2.38285e-10
2.7542e-10
2.32149e-10
2.62708e-10
1.82987e-10
1.91062e-10
1.57132e-10
1.65426e-10
1.49714e-10
1.48642e-10
1.48427e-10
1.43491e-10
1.47669e-10
1.42469e-10
1.4334e-10
1.45959e-10
1.43472e-10
1.47036e-10
1.45343e-10
1.5138e-10
1.48991e-10
1.72929e-10
1.47548e-10
1.70383e-10
1.15554e-10
1.19681e-10
9.91327e-11
1.04106e-10
9.47779e-11
9.41338e-11
9.40148e-11
9.10241e-11
9.36089e-11
9.0396e-11
9.09431e-11
9.25489e-11
9.10162e-11
9.31779e-11
9.2146e-11
9.57137e-11
9.43569e-11
1.08623e-10
9.44824e-11
1.09487e-10
7.44097e-11
7.65221e-11
6.44433e-11
6.73503e-11
6.19204e-11
6.15241e-11
6.14605e-11
5.96697e-11
6.12449e-11
5.92835e-11
5.9626e-11
6.05958e-11
5.9672e-11
6.09571e-11
6.03506e-11
6.23928e-11
6.16843e-11
6.9928e-11
6.22202e-11
7.13777e-11
5.04607e-11
5.15946e-11
4.45561e-11
4.6247e-11
4.30751e-11
4.2816e-11
4.27838e-11
4.16926e-11
4.26643e-11
4.14468e-11
4.16669e-11
4.22612e-11
4.17028e-11
4.24717e-11
4.21224e-11
4.32935e-11
4.29466e-11
4.76702e-11
4.34631e-11
4.87934e-11
3.72556e-11
3.79679e-11
3.3759e-11
3.47838e-11
3.28525e-11
3.26648e-11
3.26507e-11
3.19444e-11
3.25769e-11
3.1775e-11
3.19262e-11
3.23127e-11
3.19607e-11
3.2443e-11
3.224e-11
3.29385e-11
3.27808e-11
3.55683e-11
3.31587e-11
3.62277e-11
3.13052e-11
3.1905e-11
2.92949e-11
2.99582e-11
2.87107e-11
2.85515e-11
2.85518e-11
2.80497e-11
2.84957e-11
2.79192e-11
2.80342e-11
2.83071e-11
2.80735e-11
2.83953e-11
2.82817e-11
2.87118e-11
2.86717e-11
3.03676e-11
2.8883e-11
3.05603e-11
3.27952e-11
3.33067e-11
3.13547e-11
3.18113e-11
3.08382e-11
3.06497e-11
3.0668e-11
3.02046e-11
3.06188e-11
3.00707e-11
3.01938e-11
3.04362e-11
3.02517e-11
3.05077e-11
3.04569e-11
3.07482e-11
3.0853e-11
3.20071e-11
3.11074e-11
3.19833e-11
4.03627e-11
4.03528e-11
3.79698e-11
3.82596e-11
3.71703e-11
3.68666e-11
3.69186e-11
3.62949e-11
3.68928e-11
3.61026e-11
3.63079e-11
3.66143e-11
3.64063e-11
3.66891e-11
3.66863e-11
3.69626e-11
3.73012e-11
3.84513e-11
3.81338e-11
3.90986e-11
4.31526e-11
4.26691e-11
4.0324e-11
4.03548e-11
3.93667e-11
3.89637e-11
3.90632e-11
3.8358e-11
3.90544e-11
3.81363e-11
3.84007e-11
3.87208e-11
3.85301e-11
3.87918e-11
3.88437e-11
3.90692e-11
3.95738e-11
4.05511e-11
4.07445e-11
4.1681e-11
)
;

boundaryField
{
    fuel
    {
        type            fixedValue;
        value           uniform 0;
    }
    wall
    {
        type            zeroGradient;
    }
    outlet
    {
        type            zeroGradient;
    }
    frontAndBack
    {
        type            empty;
    }
}


// ************************************************************************* //
