/*--------------------------------*- C++ -*----------------------------------*\
| =========                 |                                                 |
| \\      /  F ield         | OpenFOAM: The Open Source CFD Toolbox           |
|  \\    /   O peration     | Version:  dev                                   |
|   \\  /    A nd           | Web:      www.OpenFOAM.org                      |
|    \\/     M anipulation  |                                                 |
\*---------------------------------------------------------------------------*/
FoamFile
{
    version     2.0;
    format      ascii;
    class       volScalarField;
    location    "0.2";
    object      CH3O;
}
// * * * * * * * * * * * * * * * * * * * * * * * * * * * * * * * * * * * * * //

dimensions      [0 0 0 0 0 0 0];

internalField   nonuniform List<scalar> 
1000
(
5.70374e-06
3.80522e-07
3.46776e-07
3.4311e-07
3.42419e-07
3.42394e-07
3.42384e-07
3.42379e-07
3.42376e-07
3.42391e-07
3.42385e-07
3.42368e-07
3.42385e-07
3.42357e-07
3.424e-07
3.42434e-07
3.43163e-07
3.50075e-07
4.25225e-07
2.95852e-06
8.19678e-06
8.76364e-08
8.09944e-08
7.95604e-08
7.96358e-08
7.95148e-08
7.95362e-08
7.95222e-08
7.95223e-08
7.95227e-08
7.95194e-08
7.9523e-08
7.95182e-08
7.95231e-08
7.95243e-08
7.95387e-08
7.96827e-08
8.0875e-08
9.41035e-08
2.28331e-06
1.88153e-05
2.99274e-08
2.25453e-08
2.17629e-08
2.18918e-08
2.1795e-08
2.18167e-08
2.18028e-08
2.18057e-08
2.18029e-08
2.18017e-08
2.1805e-08
2.18008e-08
2.18057e-08
2.1803e-08
2.18096e-08
2.18503e-08
2.2105e-08
2.61331e-08
9.76928e-07
2.13148e-06
1.0505e-08
8.1565e-09
7.7216e-09
7.81594e-09
7.75195e-09
7.76866e-09
7.75821e-09
7.76128e-09
7.75858e-09
7.75834e-09
7.76021e-09
7.75765e-09
7.76047e-09
7.75845e-09
7.76144e-09
7.77465e-09
7.81135e-09
9.61743e-09
4.18569e-07
3.64572e-07
4.52048e-09
3.86457e-09
3.5983e-09
3.66293e-09
3.62163e-09
3.63302e-09
3.62618e-09
3.62859e-09
3.62653e-09
3.62672e-09
3.62771e-09
3.62601e-09
3.62742e-09
3.62646e-09
3.62793e-09
3.63156e-09
3.60315e-09
4.5664e-09
2.08901e-07
9.36522e-08
2.48582e-09
2.23647e-09
2.12089e-09
2.16656e-09
2.13943e-09
2.14645e-09
2.14254e-09
2.14427e-09
2.14273e-09
2.14309e-09
2.14364e-09
2.14238e-09
2.14304e-09
2.14276e-09
2.14363e-09
2.14333e-09
2.08927e-09
2.60116e-09
1.23007e-07
3.55814e-08
1.59595e-09
1.5655e-09
1.49649e-09
1.53e-09
1.51166e-09
1.51564e-09
1.51367e-09
1.51498e-09
1.51362e-09
1.51421e-09
1.51455e-09
1.51334e-09
1.51311e-09
1.51393e-09
1.51453e-09
1.51281e-09
1.44503e-09
1.67269e-09
9.24143e-08
1.75493e-08
1.15788e-09
1.23455e-09
1.19515e-09
1.22157e-09
1.20908e-09
1.2115e-09
1.2104e-09
1.21141e-09
1.21031e-09
1.21089e-09
1.21113e-09
1.21007e-09
1.21005e-09
1.21069e-09
1.21093e-09
1.20815e-09
1.13355e-09
1.17582e-09
9.88442e-08
9.96621e-09
9.28118e-10
1.04498e-09
1.02832e-09
1.05608e-09
1.04794e-09
1.05019e-09
1.04884e-09
1.04973e-09
1.04886e-09
1.04934e-09
1.04953e-09
1.04861e-09
1.04924e-09
1.04923e-09
1.04874e-09
1.03785e-09
9.55583e-10
8.80826e-10
1.0503e-07
6.26129e-09
7.817e-10
9.24061e-10
9.31262e-10
9.53453e-10
9.46895e-10
9.49171e-10
9.47356e-10
9.48206e-10
9.47487e-10
9.47937e-10
9.48116e-10
9.47056e-10
9.4865e-10
9.48041e-10
9.47878e-10
9.40658e-10
8.43411e-10
6.77672e-10
6.21235e-08
4.36898e-09
6.88209e-10
8.44792e-10
8.64109e-10
8.84418e-10
8.79821e-10
8.81479e-10
8.79982e-10
8.80833e-10
8.80216e-10
8.8063e-10
8.80821e-10
8.79517e-10
8.81177e-10
8.80877e-10
8.80673e-10
8.73116e-10
7.78453e-10
5.36877e-10
2.24624e-08
3.38205e-09
6.18335e-10
7.86976e-10
8.15577e-10
8.35014e-10
8.31435e-10
8.32285e-10
8.31354e-10
8.32281e-10
8.31646e-10
8.32107e-10
8.32335e-10
8.30627e-10
8.31782e-10
8.32519e-10
8.32375e-10
8.24982e-10
7.29778e-10
4.44103e-10
7.43974e-09
2.83992e-09
5.65469e-10
7.40099e-10
7.76781e-10
7.95926e-10
7.92897e-10
7.92738e-10
7.92566e-10
7.93627e-10
7.9304e-10
7.93457e-10
7.93747e-10
7.91454e-10
7.96843e-10
7.94088e-10
7.94006e-10
7.87002e-10
6.90663e-10
3.83329e-10
2.85439e-09
2.5051e-09
5.23436e-10
7.07883e-10
7.4328e-10
7.62353e-10
7.59638e-10
7.62755e-10
7.58999e-10
7.60247e-10
7.59727e-10
7.60062e-10
7.60442e-10
7.57235e-10
7.62796e-10
7.60903e-10
7.60935e-10
7.54562e-10
6.62765e-10
3.41143e-10
1.2927e-09
2.25688e-09
4.9018e-10
6.77221e-10
7.12671e-10
7.3174e-10
7.29143e-10
7.31873e-10
7.2814e-10
7.29667e-10
7.29201e-10
7.29454e-10
7.29958e-10
7.29638e-10
7.31737e-10
7.30515e-10
7.30697e-10
7.25164e-10
6.35967e-10
3.12518e-10
6.54589e-10
2.03605e-09
4.61492e-10
6.46659e-10
6.83584e-10
7.02653e-10
7.00043e-10
7.02302e-10
6.98572e-10
7.00502e-10
7.00058e-10
7.00244e-10
7.00886e-10
7.00054e-10
7.023e-10
7.01549e-10
7.01904e-10
6.97385e-10
6.12013e-10
2.97713e-10
3.60883e-10
1.81752e-09
4.35152e-10
6.17727e-10
6.55187e-10
6.74219e-10
6.71509e-10
6.73418e-10
6.69398e-10
6.71911e-10
6.71454e-10
6.71589e-10
6.7238e-10
6.70923e-10
6.73615e-10
6.73165e-10
6.73708e-10
6.70336e-10
5.89984e-10
2.89922e-10
2.21557e-10
1.59628e-09
4.10978e-10
5.89226e-10
6.26904e-10
6.45853e-10
6.42985e-10
6.44658e-10
6.39953e-10
6.43333e-10
6.42834e-10
6.42925e-10
6.43877e-10
6.41518e-10
6.4506e-10
6.44796e-10
6.45537e-10
6.43407e-10
5.69017e-10
2.87257e-10
1.55967e-10
1.3786e-09
3.88965e-10
5.66556e-10
5.98282e-10
6.17114e-10
6.14048e-10
6.15605e-10
6.13532e-10
6.1435e-10
6.13782e-10
6.13825e-10
6.14953e-10
6.11199e-10
6.16168e-10
6.1601e-10
6.16957e-10
6.16123e-10
5.48403e-10
2.88182e-10
1.25153e-10
1.1341e-09
3.68571e-10
5.42552e-10
5.68871e-10
5.87618e-10
5.84343e-10
5.85819e-10
5.83153e-10
5.84582e-10
5.83944e-10
5.83933e-10
5.85265e-10
5.8351e-10
5.8658e-10
5.86443e-10
5.87605e-10
5.88058e-10
5.27544e-10
2.91714e-10
1.11037e-10
9.35063e-10
3.49505e-10
5.16193e-10
5.41425e-10
5.56974e-10
5.53529e-10
5.54935e-10
5.51453e-10
5.53687e-10
5.52981e-10
5.52903e-10
5.54467e-10
5.54234e-10
5.55899e-10
5.55742e-10
5.57136e-10
5.58619e-10
5.05923e-10
2.96352e-10
1.05969e-10
7.64902e-10
3.31386e-10
4.89505e-10
5.11493e-10
5.24675e-10
5.2125e-10
5.22565e-10
5.2199e-10
5.21294e-10
5.20522e-10
5.20333e-10
5.22183e-10
5.21519e-10
5.23704e-10
5.23524e-10
5.25177e-10
5.28103e-10
4.83093e-10
3.00665e-10
1.06907e-10
6.09859e-10
3.13783e-10
4.61972e-10
4.82079e-10
4.95075e-10
4.91075e-10
4.92487e-10
4.91499e-10
4.91112e-10
4.90256e-10
4.8979e-10
4.92115e-10
4.91142e-10
4.93681e-10
4.93493e-10
4.95347e-10
4.99184e-10
4.58662e-10
3.03831e-10
1.12449e-10
4.90828e-10
2.96336e-10
4.32911e-10
4.4967e-10
4.6155e-10
4.57042e-10
4.58412e-10
4.57055e-10
4.56939e-10
4.55979e-10
4.55972e-10
4.5817e-10
4.56799e-10
4.59793e-10
4.59585e-10
4.61816e-10
4.67924e-10
4.32092e-10
3.04836e-10
1.21498e-10
4.00823e-10
2.78644e-10
4.01414e-10
4.17632e-10
4.28871e-10
4.2393e-10
4.25311e-10
4.23674e-10
4.23771e-10
4.22747e-10
4.22478e-10
4.25146e-10
4.23475e-10
4.26765e-10
4.26567e-10
4.28975e-10
4.36164e-10
4.06306e-10
3.02714e-10
1.32482e-10
3.19806e-10
2.6039e-10
3.73198e-10
3.84295e-10
3.94777e-10
3.89464e-10
3.90834e-10
3.88964e-10
3.89243e-10
3.88164e-10
3.87806e-10
3.90732e-10
3.88774e-10
3.92341e-10
3.92169e-10
3.94678e-10
4.02885e-10
3.76232e-10
2.96728e-10
1.43688e-10
2.53926e-10
2.41229e-10
3.43542e-10
3.49701e-10
3.59412e-10
3.5375e-10
3.55113e-10
3.53037e-10
3.53477e-10
3.52351e-10
3.51931e-10
3.55042e-10
3.52833e-10
3.56646e-10
3.56501e-10
3.59075e-10
3.68129e-10
3.46034e-10
2.86952e-10
1.53398e-10
2.08279e-10
2.20956e-10
3.12606e-10
3.14053e-10
3.23004e-10
3.17029e-10
3.18393e-10
3.16137e-10
3.16722e-10
3.15553e-10
3.15078e-10
3.1832e-10
3.15913e-10
3.19921e-10
3.19796e-10
3.22397e-10
3.32068e-10
3.13976e-10
2.71521e-10
1.59864e-10
1.78218e-10
1.99431e-10
2.80413e-10
2.7773e-10
2.85855e-10
2.79706e-10
2.81051e-10
2.78661e-10
2.79371e-10
2.7817e-10
2.77644e-10
2.80961e-10
2.78418e-10
2.82553e-10
2.82438e-10
2.85028e-10
2.95025e-10
2.80418e-10
2.50893e-10
1.61787e-10
1.51631e-10
1.7788e-10
2.47347e-10
2.41219e-10
2.48497e-10
2.42331e-10
2.43634e-10
2.41158e-10
2.41988e-10
2.40753e-10
2.4019e-10
2.43515e-10
2.40907e-10
2.45094e-10
2.44972e-10
2.47515e-10
2.57496e-10
2.45933e-10
2.29082e-10
1.58532e-10
1.26907e-10
1.55565e-10
2.13979e-10
2.05176e-10
2.11627e-10
2.05612e-10
2.06848e-10
2.04336e-10
2.05304e-10
2.04009e-10
2.03429e-10
2.06685e-10
2.0409e-10
2.08249e-10
2.081e-10
2.10571e-10
2.20151e-10
2.11289e-10
2.04229e-10
1.50034e-10
1.09084e-10
1.32971e-10
1.81084e-10
1.70391e-10
1.76077e-10
1.70376e-10
1.71524e-10
1.69017e-10
1.70166e-10
1.68762e-10
1.68188e-10
1.71289e-10
1.68788e-10
1.72845e-10
1.72653e-10
1.75025e-10
1.83819e-10
1.77445e-10
1.7724e-10
1.36881e-10
9.26135e-11
1.10708e-10
1.4962e-10
1.37721e-10
1.41542e-10
1.3681e-10
1.37828e-10
1.36069e-10
1.36634e-10
1.35884e-10
1.35342e-10
1.382e-10
1.3587e-10
1.38977e-10
1.38755e-10
1.40568e-10
1.49432e-10
1.42959e-10
1.49255e-10
1.2019e-10
7.75111e-11
8.86184e-11
1.17745e-10
1.08051e-10
1.11139e-10
1.0704e-10
1.07924e-10
1.06329e-10
1.06967e-10
1.06199e-10
1.05707e-10
1.08248e-10
1.0616e-10
1.08942e-10
1.0869e-10
1.10265e-10
1.17949e-10
1.12119e-10
1.21668e-10
1.01414e-10
6.33746e-11
6.92246e-11
9.11533e-11
8.20849e-11
8.45032e-11
8.1091e-11
8.1831e-11
8.04505e-11
8.10727e-11
8.03641e-11
7.99378e-11
8.21065e-11
8.03127e-11
8.26972e-11
8.2441e-11
8.37387e-11
9.01533e-11
8.57195e-11
9.57826e-11
8.20957e-11
5.02727e-11
5.22388e-11
6.81205e-11
6.0262e-11
6.20808e-11
5.93663e-11
5.99621e-11
5.88258e-11
5.93705e-11
5.87724e-11
5.84194e-11
6.01919e-11
5.87174e-11
6.06655e-11
6.04285e-11
6.14465e-11
6.65748e-11
6.32578e-11
7.26493e-11
6.36283e-11
3.84658e-11
3.80147e-11
4.90416e-11
4.27046e-11
4.40058e-11
4.19515e-11
4.24105e-11
4.15235e-11
4.19646e-11
4.14936e-11
4.12144e-11
4.25988e-11
4.14409e-11
4.29552e-11
4.27529e-11
4.35165e-11
4.74274e-11
4.50016e-11
5.29998e-11
4.72499e-11
2.83024e-11
2.66451e-11
3.40031e-11
2.91976e-11
3.00944e-11
2.86075e-11
2.89476e-11
2.82893e-11
2.86262e-11
2.82749e-11
2.8065e-11
2.90977e-11
2.82295e-11
2.93501e-11
2.91883e-11
2.97386e-11
3.25766e-11
3.08533e-11
3.71595e-11
3.36075e-11
2.00138e-11
1.79883e-11
2.27317e-11
1.92703e-11
1.98769e-11
1.88385e-11
1.90825e-11
1.86161e-11
1.8861e-11
1.86108e-11
1.84613e-11
1.91962e-11
1.85756e-11
1.93641e-11
1.92436e-11
1.96245e-11
2.15853e-11
2.04011e-11
2.50411e-11
2.2912e-11
1.35676e-11
1.17253e-11
1.46518e-11
1.23054e-11
1.26982e-11
1.20021e-11
1.21685e-11
1.18542e-11
1.20237e-11
1.18536e-11
1.17515e-11
1.22506e-11
1.18278e-11
1.23545e-11
1.22721e-11
1.25242e-11
1.38177e-11
1.30326e-11
1.6236e-11
1.50003e-11
8.82755e-12
7.40119e-12
9.12449e-12
7.62681e-12
7.87299e-12
7.41878e-12
7.52656e-12
7.32484e-12
7.4366e-12
7.32614e-12
7.25928e-12
7.58389e-12
7.30803e-12
7.64277e-12
7.59053e-12
7.74915e-12
8.56743e-12
8.06574e-12
1.01545e-11
9.46105e-12
5.52952e-12
4.51976e-12
5.50976e-12
4.56886e-12
4.70927e-12
4.46945e-12
4.53599e-12
4.41239e-12
4.48272e-12
4.41409e-12
4.37196e-12
4.5745e-12
4.40191e-12
4.60412e-12
4.5737e-12
4.6585e-12
5.14085e-12
4.85735e-12
6.14942e-12
5.77586e-12
3.35654e-12
2.71469e-12
3.24877e-12
2.70429e-12
2.78455e-12
2.64454e-12
2.68365e-12
2.61114e-12
2.65347e-12
2.61252e-12
2.58691e-12
2.70851e-12
2.60468e-12
2.72145e-12
2.70495e-12
2.75073e-12
3.0312e-12
2.86841e-12
3.62878e-12
3.43748e-12
1.99383e-12
1.61251e-12
1.88927e-12
1.58717e-12
1.63081e-12
1.5522e-12
1.57427e-12
1.53318e-12
1.55774e-12
1.53406e-12
1.51892e-12
1.58976e-12
1.52922e-12
1.59466e-12
1.58592e-12
1.61103e-12
1.76729e-12
1.67775e-12
2.10639e-12
2.01393e-12
1.16923e-12
9.52081e-13
1.09212e-12
9.28503e-13
9.51466e-13
9.08423e-13
9.20632e-13
8.97738e-13
9.11724e-13
8.98181e-13
8.89359e-13
9.30045e-13
8.953e-13
9.31616e-13
9.26877e-13
9.40835e-13
1.02566e-12
9.77761e-13
1.21249e-12
1.17018e-12
6.73854e-13
5.5269e-13
6.2331e-13
5.35489e-13
5.47566e-13
5.24232e-13
5.30977e-13
5.18295e-13
5.26207e-13
5.1847e-13
5.13392e-13
5.36585e-13
5.168e-13
5.36915e-13
5.34253e-13
5.41947e-13
5.87405e-13
5.61985e-13
6.88291e-13
6.69634e-13
3.74947e-13
3.10091e-13
3.45193e-13
2.99394e-13
3.05675e-13
2.93379e-13
2.97023e-13
2.90195e-13
2.94541e-13
2.90236e-13
2.87414e-13
3.00226e-13
2.89309e-13
3.00154e-13
2.98671e-13
3.02742e-13
3.26351e-13
3.13156e-13
3.78681e-13
3.70771e-13
1.97688e-13
1.63512e-13
1.80124e-13
1.5674e-13
1.59884e-13
1.53553e-13
1.5548e-13
1.51897e-13
1.54224e-13
1.51887e-13
1.50342e-13
1.57281e-13
1.51365e-13
1.57092e-13
1.56275e-13
1.58356e-13
1.70358e-13
1.63853e-13
1.97471e-13
1.96157e-13
8.67279e-14
7.05055e-14
7.66383e-14
6.67576e-14
6.7992e-14
6.53299e-14
6.61517e-14
6.46233e-14
6.56308e-14
6.45991e-14
6.38997e-14
6.69859e-14
6.43545e-14
6.68413e-14
6.64666e-14
6.73524e-14
7.23949e-14
6.99624e-14
8.5626e-14
9.26036e-14
4.14729e-14
3.02065e-14
3.07603e-14
2.7512e-14
2.77212e-14
2.68853e-14
2.71215e-14
2.66063e-14
2.69456e-14
2.65766e-14
2.62898e-14
2.7473e-14
2.64706e-14
2.74131e-14
2.72399e-14
2.76209e-14
2.9363e-14
2.93654e-14
4.28354e-14
9.17409e-14
)
;

boundaryField
{
    fuel
    {
        type            fixedValue;
        value           uniform 0;
    }
    wall
    {
        type            zeroGradient;
    }
    outlet
    {
        type            zeroGradient;
    }
    frontAndBack
    {
        type            empty;
    }
}


// ************************************************************************* //
