/*--------------------------------*- C++ -*----------------------------------*\
| =========                 |                                                 |
| \\      /  F ield         | OpenFOAM: The Open Source CFD Toolbox           |
|  \\    /   O peration     | Version:  dev                                   |
|   \\  /    A nd           | Web:      www.OpenFOAM.org                      |
|    \\/     M anipulation  |                                                 |
\*---------------------------------------------------------------------------*/
FoamFile
{
    version     2.0;
    format      ascii;
    class       volScalarField;
    location    "0.2";
    object      CH3O;
}
// * * * * * * * * * * * * * * * * * * * * * * * * * * * * * * * * * * * * * //

dimensions      [0 0 0 0 0 0 0];

internalField   nonuniform List<scalar> 
1000
(
3.0658e-06
4.40177e-07
3.72858e-07
3.66173e-07
3.65425e-07
3.6536e-07
3.65327e-07
3.65354e-07
3.65338e-07
3.6535e-07
3.65341e-07
3.65337e-07
3.65329e-07
3.6534e-07
3.65325e-07
3.65401e-07
3.66056e-07
3.69793e-07
4.04891e-07
4.92118e-06
2.5441e-06
9.31276e-08
8.20543e-08
8.10147e-08
8.08799e-08
8.08706e-08
8.08697e-08
8.08679e-08
8.08723e-08
8.08685e-08
8.08732e-08
8.08716e-08
8.08655e-08
8.08899e-08
8.08438e-08
8.09612e-08
8.09301e-08
8.20334e-08
8.79659e-08
4.81053e-06
1.17501e-06
2.61122e-08
2.24465e-08
2.22283e-08
2.21902e-08
2.21884e-08
2.21904e-08
2.21869e-08
2.21909e-08
2.21876e-08
2.21908e-08
2.2191e-08
2.21865e-08
2.22054e-08
2.21692e-08
2.22603e-08
2.21614e-08
2.27299e-08
2.76699e-08
1.21324e-05
5.0297e-07
9.77665e-09
7.93027e-09
7.90169e-09
7.88957e-09
7.88935e-09
7.89067e-09
7.88832e-09
7.89084e-09
7.88878e-09
7.89043e-09
7.89133e-09
7.88851e-09
7.89975e-09
7.87836e-09
7.93661e-09
7.85576e-09
8.18901e-09
1.35805e-08
1.37192e-05
2.41247e-07
4.74649e-09
3.6422e-09
3.66926e-09
3.66651e-09
3.66664e-09
3.66694e-09
3.66576e-09
3.66742e-09
3.66615e-09
3.66709e-09
3.66802e-09
3.66631e-09
3.6722e-09
3.66091e-09
3.69657e-09
3.63949e-09
3.8531e-09
5.43989e-09
1.39296e-06
1.36564e-07
2.79065e-09
2.11082e-09
2.15825e-09
2.15971e-09
2.15992e-09
2.15901e-09
2.15909e-09
2.16023e-09
2.15942e-09
2.16005e-09
2.16083e-09
2.15972e-09
2.16229e-09
2.1569e-09
2.17929e-09
2.13862e-09
2.22858e-09
2.78917e-09
2.17183e-07
9.51396e-08
1.85851e-09
1.46621e-09
1.52165e-09
1.52501e-09
1.52506e-09
1.5226e-09
1.52392e-09
1.52483e-09
1.52406e-09
1.52486e-09
1.5255e-09
1.52466e-09
1.52425e-09
1.52336e-09
1.53846e-09
1.508e-09
1.5624e-09
1.75505e-09
5.76195e-08
9.49494e-08
1.34445e-09
1.12911e-09
1.21702e-09
1.21845e-09
1.21817e-09
1.21503e-09
1.21674e-09
1.21743e-09
1.21677e-09
1.21755e-09
1.21809e-09
1.21734e-09
1.21612e-09
1.21711e-09
1.22874e-09
1.20645e-09
1.22035e-09
1.26648e-09
2.37015e-08
1.20857e-07
1.03183e-09
9.61264e-10
1.03413e-09
1.04654e-09
1.04832e-09
1.04988e-09
1.04793e-09
1.04846e-09
1.04784e-09
1.04865e-09
1.04911e-09
1.04837e-09
1.05055e-09
1.04753e-09
1.05148e-09
1.02697e-09
1.03853e-09
1.01042e-09
1.29004e-08
1.05811e-07
8.13259e-10
8.50216e-10
9.38952e-10
9.48516e-10
9.49359e-10
9.51452e-10
9.4863e-10
9.48926e-10
9.48247e-10
9.49266e-10
9.49714e-10
9.4871e-10
9.5181e-10
9.48645e-10
9.5303e-10
9.32293e-10
9.18638e-10
8.42126e-10
8.40588e-09
5.15228e-08
6.45967e-10
7.75364e-10
8.71716e-10
8.80286e-10
8.81087e-10
8.81816e-10
8.80163e-10
8.8046e-10
8.7997e-10
8.80709e-10
8.81098e-10
8.79899e-10
8.81055e-10
8.80435e-10
8.83439e-10
8.65045e-10
8.39592e-10
7.34868e-10
6.17002e-09
1.99051e-08
5.25858e-10
7.27821e-10
8.22853e-10
8.31496e-10
8.3224e-10
8.32716e-10
8.31197e-10
8.31589e-10
8.31301e-10
8.31671e-10
8.32023e-10
8.30475e-10
8.3582e-10
8.31546e-10
8.33776e-10
8.15974e-10
7.81736e-10
6.54052e-10
4.90286e-09
7.68441e-09
4.42562e-10
6.87903e-10
7.84412e-10
7.92826e-10
7.93514e-10
7.96753e-10
7.92319e-10
7.92938e-10
7.9289e-10
7.92772e-10
7.93106e-10
7.91e-10
7.95931e-10
7.92689e-10
7.94501e-10
7.76884e-10
7.35048e-10
5.92439e-10
4.09929e-09
3.21536e-09
3.85807e-10
6.58119e-10
7.51738e-10
7.59592e-10
7.60176e-10
7.61877e-10
7.58747e-10
7.59738e-10
7.59806e-10
7.59274e-10
7.5961e-10
7.56633e-10
7.61333e-10
7.59208e-10
7.60836e-10
7.43298e-10
7.02374e-10
5.4329e-10
3.51945e-09
1.49194e-09
3.44592e-10
6.31503e-10
7.22225e-10
7.2929e-10
7.2975e-10
7.30554e-10
7.27948e-10
7.29432e-10
7.29435e-10
7.28663e-10
7.29028e-10
7.28991e-10
7.30177e-10
7.28625e-10
7.30214e-10
7.12716e-10
6.72537e-10
5.05098e-10
3.04712e-09
7.71213e-10
3.1536e-10
6.06335e-10
6.94361e-10
7.00491e-10
7.00821e-10
7.01131e-10
6.98465e-10
7.00563e-10
7.00367e-10
6.99514e-10
6.9991e-10
6.99463e-10
7.00769e-10
6.99529e-10
7.01168e-10
6.83703e-10
6.42171e-10
4.7238e-10
2.62344e-09
4.46148e-10
2.99048e-10
5.83405e-10
6.67194e-10
6.72311e-10
6.72516e-10
6.72538e-10
6.69378e-10
6.72243e-10
6.7179e-10
6.70958e-10
6.71382e-10
6.70499e-10
6.72126e-10
6.7105e-10
6.72797e-10
6.55398e-10
6.13566e-10
4.42222e-10
2.23061e-09
2.9139e-10
2.89248e-10
5.61788e-10
6.40017e-10
6.44153e-10
6.44245e-10
6.44096e-10
6.40005e-10
6.43889e-10
6.4317e-10
6.42413e-10
6.42855e-10
6.41457e-10
6.43594e-10
6.42604e-10
6.44502e-10
6.27213e-10
5.85663e-10
4.15262e-10
1.87262e-09
2.11897e-10
2.84124e-10
5.40761e-10
6.12198e-10
6.15565e-10
6.15567e-10
6.15338e-10
6.13631e-10
6.15082e-10
6.141e-10
6.13445e-10
6.13893e-10
6.11858e-10
6.14701e-10
6.13755e-10
6.15834e-10
5.98694e-10
5.63232e-10
3.91181e-10
1.50665e-09
1.67652e-10
2.82243e-10
5.19729e-10
5.83126e-10
5.86164e-10
5.86112e-10
5.85824e-10
5.83297e-10
5.85453e-10
5.84232e-10
5.83691e-10
5.84137e-10
5.81324e-10
5.85071e-10
5.84139e-10
5.86412e-10
5.69379e-10
5.38667e-10
3.69457e-10
1.22258e-09
1.4182e-10
2.82376e-10
4.98207e-10
5.56466e-10
5.55584e-10
5.55529e-10
5.55208e-10
5.51643e-10
5.54678e-10
5.53231e-10
5.5281e-10
5.53271e-10
5.5349e-10
5.54367e-10
5.53416e-10
5.55858e-10
5.421e-10
5.12612e-10
3.49522e-10
9.6402e-10
1.27123e-10
2.83476e-10
4.75647e-10
5.27058e-10
5.23394e-10
5.23442e-10
5.2313e-10
5.22215e-10
5.22407e-10
5.20731e-10
5.20437e-10
5.20947e-10
5.21456e-10
5.2214e-10
5.21227e-10
5.23691e-10
5.12047e-10
4.86107e-10
3.309e-10
7.64953e-10
1.20094e-10
2.84361e-10
4.51569e-10
4.98241e-10
4.93147e-10
4.93515e-10
4.9319e-10
4.91766e-10
4.92311e-10
4.90433e-10
4.90244e-10
4.9091e-10
4.91409e-10
4.92154e-10
4.91148e-10
4.94099e-10
4.82789e-10
4.58695e-10
3.13129e-10
5.95132e-10
1.18729e-10
2.83972e-10
4.25399e-10
4.66964e-10
4.61496e-10
4.59563e-10
4.5919e-10
4.5722e-10
4.58179e-10
4.55978e-10
4.55893e-10
4.56823e-10
4.57029e-10
4.57994e-10
4.57051e-10
4.6036e-10
4.50378e-10
4.29744e-10
2.957e-10
4.68812e-10
1.21482e-10
2.81654e-10
4.00021e-10
4.35232e-10
4.28448e-10
4.26624e-10
4.26219e-10
4.23874e-10
4.25107e-10
4.22707e-10
4.22718e-10
4.23832e-10
4.23721e-10
4.24965e-10
4.24008e-10
4.27716e-10
4.18368e-10
3.9864e-10
2.78217e-10
3.72075e-10
1.26797e-10
2.76688e-10
3.71746e-10
4.02032e-10
3.94011e-10
3.9229e-10
3.91854e-10
3.89197e-10
3.90674e-10
3.8809e-10
3.88185e-10
3.89387e-10
3.89024e-10
3.9056e-10
3.89591e-10
3.93713e-10
3.84918e-10
3.70693e-10
2.60335e-10
2.99601e-10
1.32737e-10
2.68347e-10
3.42223e-10
3.67367e-10
3.58309e-10
3.56672e-10
3.562e-10
3.53313e-10
3.54996e-10
3.52258e-10
3.52425e-10
3.53632e-10
3.5311e-10
3.54893e-10
3.53929e-10
3.58389e-10
3.50296e-10
3.412e-10
2.41509e-10
2.43836e-10
1.37515e-10
2.55182e-10
3.10814e-10
3.31397e-10
3.21567e-10
3.20008e-10
3.19488e-10
3.16469e-10
3.18311e-10
3.15463e-10
3.15688e-10
3.16851e-10
3.16242e-10
3.18207e-10
3.17261e-10
3.21967e-10
3.14688e-10
3.10241e-10
2.21442e-10
2.0091e-10
1.39758e-10
2.36769e-10
2.77903e-10
2.94461e-10
2.84174e-10
2.8268e-10
2.82106e-10
2.79054e-10
2.81009e-10
2.78101e-10
2.7837e-10
2.7946e-10
2.78815e-10
2.80894e-10
2.79972e-10
2.84812e-10
2.78385e-10
2.78045e-10
2.00003e-10
1.70337e-10
1.38403e-10
2.16946e-10
2.44028e-10
2.57044e-10
2.4667e-10
2.45232e-10
2.44594e-10
2.41626e-10
2.43638e-10
2.40732e-10
2.4103e-10
2.42017e-10
2.41391e-10
2.43508e-10
2.42613e-10
2.4746e-10
2.41864e-10
2.45012e-10
1.78644e-10
1.45299e-10
1.32854e-10
1.94148e-10
2.09915e-10
2.19806e-10
2.09756e-10
2.08373e-10
2.07648e-10
2.04899e-10
2.06901e-10
2.04073e-10
2.04381e-10
2.05227e-10
2.04687e-10
2.06762e-10
2.05893e-10
2.10607e-10
2.05783e-10
2.11723e-10
1.56422e-10
1.22729e-10
1.23143e-10
1.69176e-10
1.76485e-10
1.83555e-10
1.74271e-10
1.7294e-10
1.72092e-10
1.69711e-10
1.7163e-10
1.6896e-10
1.6926e-10
1.69906e-10
1.69541e-10
1.71489e-10
1.70648e-10
1.7508e-10
1.70941e-10
1.7895e-10
1.33857e-10
1.06058e-10
1.09888e-10
1.43062e-10
1.42862e-10
1.4923e-10
1.39901e-10
1.38806e-10
1.38811e-10
1.35726e-10
1.3764e-10
1.35092e-10
1.35469e-10
1.36921e-10
1.3565e-10
1.37552e-10
1.36808e-10
1.40787e-10
1.38206e-10
1.4764e-10
1.1159e-10
9.0095e-11
9.41741e-11
1.17072e-10
1.11688e-10
1.17792e-10
1.09698e-10
1.08737e-10
1.08685e-10
1.06065e-10
1.07775e-10
1.05524e-10
1.05866e-10
1.07113e-10
1.06033e-10
1.07692e-10
1.07015e-10
1.10468e-10
1.0846e-10
1.16074e-10
8.93599e-11
7.5608e-11
7.73487e-11
9.24999e-11
8.55039e-11
9.00298e-11
8.32826e-11
8.24783e-11
8.24003e-11
8.02556e-11
8.17235e-11
7.98119e-11
8.01087e-11
8.11417e-11
8.02485e-11
8.16434e-11
8.10536e-11
8.3935e-11
8.2415e-11
8.97452e-11
6.98764e-11
6.19109e-11
6.07923e-11
7.0393e-11
6.3174e-11
6.64833e-11
6.10975e-11
6.04562e-11
6.03774e-11
5.86878e-11
5.98941e-11
5.83384e-11
5.85837e-11
5.94083e-11
5.8689e-11
5.98146e-11
5.9327e-11
6.16288e-11
6.05156e-11
6.6993e-11
5.27653e-11
4.91405e-11
4.56893e-11
5.15105e-11
4.4989e-11
4.73664e-11
4.32619e-11
4.27744e-11
4.27093e-11
4.14302e-11
4.23778e-11
4.11669e-11
4.136e-11
4.19914e-11
4.14318e-11
4.23e-11
4.19182e-11
4.36715e-11
4.28891e-11
4.81939e-11
3.84138e-11
3.76083e-11
3.28301e-11
3.62032e-11
3.08713e-11
3.25392e-11
2.95584e-11
2.9205e-11
2.91569e-11
2.82301e-11
2.89393e-11
2.80401e-11
2.81861e-11
2.86486e-11
2.82313e-11
2.88692e-11
2.85865e-11
2.98554e-11
2.93352e-11
3.33775e-11
2.69484e-11
2.76431e-11
2.25645e-11
2.44339e-11
2.04269e-11
2.15634e-11
1.95018e-11
1.92564e-11
1.92231e-11
1.85818e-11
1.90867e-11
1.84503e-11
1.85553e-11
1.888e-11
1.85822e-11
1.90299e-11
1.88293e-11
1.97089e-11
1.93741e-11
2.22727e-11
1.82135e-11
1.94945e-11
1.48735e-11
1.58659e-11
1.30565e-11
1.38078e-11
1.245e-11
1.22825e-11
1.2261e-11
1.1836e-11
1.21796e-11
1.17487e-11
1.182e-11
1.20389e-11
1.18352e-11
1.21365e-11
1.19985e-11
1.25898e-11
1.23736e-11
1.43526e-11
1.18707e-11
1.32077e-11
9.43173e-12
9.93618e-12
8.0843e-12
8.56611e-12
7.71564e-12
7.5991e-12
7.58602e-12
7.31612e-12
7.54006e-12
7.26042e-12
7.30685e-12
7.44833e-12
7.31519e-12
7.50891e-12
7.41838e-12
7.80393e-12
7.66977e-12
8.93985e-12
7.49114e-12
8.59265e-12
5.78109e-12
6.0249e-12
4.8703e-12
5.14241e-12
4.61656e-12
4.5807e-12
4.57321e-12
4.40885e-12
4.54878e-12
4.37459e-12
4.40379e-12
4.49141e-12
4.40822e-12
4.52724e-12
4.47063e-12
4.67237e-12
4.59442e-12
5.40194e-12
4.57233e-12
5.38539e-12
3.45007e-12
3.56031e-12
2.87685e-12
3.03409e-12
2.7313e-12
2.71056e-12
2.70637e-12
2.61016e-12
2.69423e-12
2.58977e-12
2.60754e-12
2.65971e-12
2.6099e-12
2.67997e-12
2.64625e-12
2.76251e-12
2.71916e-12
3.18923e-12
2.74467e-12
3.27366e-12
2.02477e-12
2.07021e-12
1.68311e-12
1.77025e-12
1.60208e-12
1.59025e-12
1.58793e-12
1.53337e-12
1.58233e-12
1.52149e-12
1.53205e-12
1.5622e-12
1.53339e-12
1.57325e-12
1.55399e-12
1.61825e-12
1.59581e-12
1.85817e-12
1.62917e-12
1.94916e-12
1.17765e-12
1.19408e-12
9.8124e-13
1.02826e-12
9.36844e-13
9.30157e-13
9.28849e-13
8.98406e-13
9.26497e-13
8.91527e-13
8.97743e-13
9.14958e-13
8.98582e-13
9.20865e-13
9.10111e-13
9.45176e-13
9.33755e-13
1.07668e-12
9.61414e-13
1.14649e-12
6.74343e-13
6.79256e-13
5.64392e-13
5.89595e-13
5.4044e-13
5.3674e-13
5.35973e-13
5.19152e-13
5.35161e-13
5.15182e-13
5.18807e-13
5.2862e-13
5.19363e-13
5.31748e-13
5.25763e-13
5.44918e-13
5.38905e-13
6.16069e-13
5.5812e-13
6.62856e-13
3.73492e-13
3.74549e-13
3.14866e-13
3.28086e-13
3.02451e-13
3.00503e-13
3.00055e-13
2.91045e-13
2.99899e-13
2.88821e-13
2.90866e-13
2.96317e-13
2.91229e-13
2.97921e-13
2.9467e-13
3.04898e-13
3.01671e-13
3.42153e-13
3.13315e-13
3.70069e-13
1.97394e-13
1.95795e-13
1.65128e-13
1.71733e-13
1.58637e-13
1.57659e-13
1.5739e-13
1.52684e-13
1.57498e-13
1.51468e-13
1.52606e-13
1.55567e-13
1.52831e-13
1.56358e-13
1.5463e-13
1.59991e-13
1.58326e-13
1.79159e-13
1.65509e-13
1.95833e-13
9.17835e-14
8.51297e-14
7.081e-14
7.33461e-14
6.77872e-14
6.73755e-14
6.72477e-14
6.52196e-14
6.73787e-14
6.46711e-14
6.51979e-14
6.65129e-14
6.5313e-14
6.683e-14
6.60861e-14
6.8392e-14
6.77307e-14
7.66586e-14
7.16245e-14
8.62481e-14
8.17231e-14
4.18526e-14
2.96823e-14
2.97662e-14
2.78061e-14
2.76117e-14
2.75811e-14
2.68187e-14
2.76452e-14
2.65989e-14
2.6824e-14
2.72976e-14
2.68867e-14
2.74002e-14
2.71869e-14
2.7923e-14
2.78811e-14
3.08581e-14
3.05333e-14
4.05599e-14
)
;

boundaryField
{
    fuel
    {
        type            fixedValue;
        value           uniform 0;
    }
    wall
    {
        type            zeroGradient;
    }
    outlet
    {
        type            zeroGradient;
    }
    frontAndBack
    {
        type            empty;
    }
}


// ************************************************************************* //
