/*--------------------------------*- C++ -*----------------------------------*\
| =========                 |                                                 |
| \\      /  F ield         | OpenFOAM: The Open Source CFD Toolbox           |
|  \\    /   O peration     | Version:  dev                                   |
|   \\  /    A nd           | Web:      www.OpenFOAM.org                      |
|    \\/     M anipulation  |                                                 |
\*---------------------------------------------------------------------------*/
FoamFile
{
    version     2.0;
    format      ascii;
    class       volScalarField;
    location    "0.2";
    object      CH3OH;
}
// * * * * * * * * * * * * * * * * * * * * * * * * * * * * * * * * * * * * * //

dimensions      [0 0 0 0 0 0 0];

internalField   nonuniform List<scalar> 
1000
(
9.12032e-06
8.11421e-06
7.39485e-06
7.30961e-06
7.29316e-06
7.2927e-06
7.29249e-06
7.29244e-06
7.2924e-06
7.29273e-06
7.2926e-06
7.29222e-06
7.29259e-06
7.29188e-06
7.29282e-06
7.29362e-06
7.31083e-06
7.47283e-06
9.09232e-06
8.4286e-06
4.12842e-05
2.73854e-06
2.5317e-06
2.48658e-06
2.48473e-06
2.48221e-06
2.48256e-06
2.48234e-06
2.48234e-06
2.48238e-06
2.48231e-06
2.48233e-06
2.48229e-06
2.48224e-06
2.48243e-06
2.48295e-06
2.48933e-06
2.54431e-06
3.07526e-06
2.37131e-05
0.000160989
1.40742e-06
1.24552e-06
1.20911e-06
1.21045e-06
1.20737e-06
1.20793e-06
1.20757e-06
1.20766e-06
1.20759e-06
1.20755e-06
1.20763e-06
1.20753e-06
1.20757e-06
1.20763e-06
1.20805e-06
1.21202e-06
1.24293e-06
1.5623e-06
3.58678e-05
2.29764e-05
8.74281e-07
7.67646e-07
7.35501e-07
7.37982e-07
7.34663e-07
7.35386e-07
7.34946e-07
7.35097e-07
7.3497e-07
7.34962e-07
7.3504e-07
7.34925e-07
7.34965e-07
7.34995e-07
7.35367e-07
7.3836e-07
7.59239e-07
1.00722e-06
4.30478e-05
5.21306e-06
6.22943e-07
5.44463e-07
5.15053e-07
5.17849e-07
5.14626e-07
5.15335e-07
5.14933e-07
5.15106e-07
5.14955e-07
5.14978e-07
5.15042e-07
5.14916e-07
5.14922e-07
5.14983e-07
5.15324e-07
5.17764e-07
5.327e-07
7.4024e-07
4.60525e-05
2.22691e-06
4.89474e-07
4.21615e-07
4.0035e-07
4.02953e-07
4.00059e-07
4.00599e-07
4.00333e-07
4.00498e-07
4.00343e-07
4.0039e-07
4.00439e-07
4.00308e-07
4.0027e-07
4.00384e-07
4.00717e-07
4.02839e-07
4.13723e-07
5.88682e-07
4.63005e-05
1.471e-06
4.07449e-07
3.55342e-07
3.36899e-07
3.39016e-07
3.36531e-07
3.36858e-07
3.3674e-07
3.36892e-07
3.36723e-07
3.36807e-07
3.36843e-07
3.36687e-07
3.36563e-07
3.368e-07
3.37138e-07
3.39156e-07
3.47121e-07
4.923e-07
4.51702e-05
1.16735e-06
3.5741e-07
3.15937e-07
2.99846e-07
3.01511e-07
2.99453e-07
2.9966e-07
2.99603e-07
2.99739e-07
2.9958e-07
2.99673e-07
2.99701e-07
2.99544e-07
2.99462e-07
2.99674e-07
2.9999e-07
3.01935e-07
3.08106e-07
4.25928e-07
4.3277e-05
1.00321e-06
3.27144e-07
2.90188e-07
2.76217e-07
2.78366e-07
2.76745e-07
2.76993e-07
2.76849e-07
2.7698e-07
2.76845e-07
2.76927e-07
2.7695e-07
2.76801e-07
2.76845e-07
2.76942e-07
2.77165e-07
2.77945e-07
2.82404e-07
3.76347e-07
3.93564e-05
9.06494e-07
3.05564e-07
2.72054e-07
2.60984e-07
2.62362e-07
2.60836e-07
2.61135e-07
2.60881e-07
2.61014e-07
2.60891e-07
2.60975e-07
2.60997e-07
2.60813e-07
2.6104e-07
2.61026e-07
2.61327e-07
2.62767e-07
2.64233e-07
3.35198e-07
3.14013e-05
8.53203e-07
2.90461e-07
2.59247e-07
2.49504e-07
2.50572e-07
2.49274e-07
2.49485e-07
2.49272e-07
2.49409e-07
2.49297e-07
2.49379e-07
2.49402e-07
2.49167e-07
2.4942e-07
2.49456e-07
2.49775e-07
2.51242e-07
2.52763e-07
2.99564e-07
2.1373e-05
8.28211e-07
2.78007e-07
2.49346e-07
2.40675e-07
2.41541e-07
2.40356e-07
2.4043e-07
2.40313e-07
2.40464e-07
2.40352e-07
2.40439e-07
2.40467e-07
2.4015e-07
2.4032e-07
2.40546e-07
2.40897e-07
2.42456e-07
2.43459e-07
2.69881e-07
1.26887e-05
8.18039e-07
2.6751e-07
2.40917e-07
2.3333e-07
2.34071e-07
2.32945e-07
2.32833e-07
2.32858e-07
2.33031e-07
2.32929e-07
2.33008e-07
2.33043e-07
2.32609e-07
2.33636e-07
2.33154e-07
2.33533e-07
2.35197e-07
2.35401e-07
2.46666e-07
6.76411e-06
8.11326e-07
2.5813e-07
2.34968e-07
2.26855e-07
2.27511e-07
2.26422e-07
2.26988e-07
2.26278e-07
2.26482e-07
2.26395e-07
2.26459e-07
2.26506e-07
2.25891e-07
2.2696e-07
2.2664e-07
2.27053e-07
2.28834e-07
2.29305e-07
2.28221e-07
3.30068e-06
7.99765e-07
2.49802e-07
2.29132e-07
2.20909e-07
2.21506e-07
2.20432e-07
2.20929e-07
2.20223e-07
2.20474e-07
2.204e-07
2.20449e-07
2.20515e-07
2.20502e-07
2.20852e-07
2.20666e-07
2.21114e-07
2.23013e-07
2.23107e-07
2.13692e-07
1.50882e-06
7.783e-07
2.41756e-07
2.23136e-07
2.15297e-07
2.15856e-07
2.14788e-07
2.15188e-07
2.14493e-07
2.14816e-07
2.14749e-07
2.14788e-07
2.14874e-07
2.14781e-07
2.15131e-07
2.15041e-07
2.15524e-07
2.17538e-07
2.17353e-07
2.04322e-07
6.84024e-07
7.44979e-07
2.33555e-07
2.17331e-07
2.09901e-07
2.10445e-07
2.09378e-07
2.097e-07
2.08964e-07
2.09394e-07
2.09328e-07
2.0936e-07
2.09467e-07
2.09272e-07
2.09681e-07
2.09653e-07
2.10167e-07
2.12287e-07
2.11961e-07
1.97248e-07
3.42441e-07
7.00642e-07
2.25333e-07
2.11519e-07
2.04642e-07
2.05194e-07
2.04128e-07
2.04395e-07
2.03542e-07
2.04135e-07
2.04066e-07
2.04093e-07
2.04221e-07
2.0387e-07
2.04417e-07
2.04426e-07
2.04969e-07
2.07181e-07
2.06833e-07
1.91862e-07
2.11412e-07
6.48297e-07
2.1728e-07
2.06918e-07
1.99458e-07
2.00046e-07
1.98985e-07
1.9922e-07
1.98876e-07
1.98985e-07
1.98906e-07
1.98929e-07
1.99079e-07
1.98473e-07
1.99273e-07
1.99304e-07
1.99871e-07
2.02158e-07
2.01891e-07
1.87709e-07
1.62537e-07
5.80154e-07
2.09394e-07
2.0205e-07
1.9428e-07
1.94946e-07
1.93895e-07
1.94108e-07
1.93674e-07
1.93887e-07
1.938e-07
1.93816e-07
1.93993e-07
1.93747e-07
1.94199e-07
1.94234e-07
1.94821e-07
1.97163e-07
1.97067e-07
1.84123e-07
1.43759e-07
5.17816e-07
2.01721e-07
1.96728e-07
1.89627e-07
1.89833e-07
1.88804e-07
1.88999e-07
1.88428e-07
1.88785e-07
1.88691e-07
1.88698e-07
1.88904e-07
1.8893e-07
1.89128e-07
1.89158e-07
1.89764e-07
1.92101e-07
1.92304e-07
1.81064e-07
1.3625e-07
4.58681e-07
1.94274e-07
1.9142e-07
1.84687e-07
1.84613e-07
1.83643e-07
1.83819e-07
1.83754e-07
1.83609e-07
1.83508e-07
1.83499e-07
1.83742e-07
1.83703e-07
1.8398e-07
1.84004e-07
1.8463e-07
1.8702e-07
1.87541e-07
1.78417e-07
1.33598e-07
3.99265e-07
1.87035e-07
1.86048e-07
1.79983e-07
1.80016e-07
1.79001e-07
1.79192e-07
1.7907e-07
1.78969e-07
1.78858e-07
1.78806e-07
1.79118e-07
1.79035e-07
1.79364e-07
1.79383e-07
1.80021e-07
1.82391e-07
1.82718e-07
1.75822e-07
1.33479e-07
3.49158e-07
1.79987e-07
1.80485e-07
1.7488e-07
1.74899e-07
1.73847e-07
1.74031e-07
1.73856e-07
1.73796e-07
1.7367e-07
1.73687e-07
1.7398e-07
1.73837e-07
1.74238e-07
1.74249e-07
1.74926e-07
1.77507e-07
1.77722e-07
1.73185e-07
1.34784e-07
3.07772e-07
1.73077e-07
1.74525e-07
1.69911e-07
1.70001e-07
1.68915e-07
1.69103e-07
1.68884e-07
1.68858e-07
1.68721e-07
1.68696e-07
1.69067e-07
1.68874e-07
1.69327e-07
1.69335e-07
1.70022e-07
1.72643e-07
1.73104e-07
1.70336e-07
1.36675e-07
2.67103e-07
1.66245e-07
1.69294e-07
1.64737e-07
1.64895e-07
1.63773e-07
1.63963e-07
1.63703e-07
1.63707e-07
1.63559e-07
1.6352e-07
1.63943e-07
1.63696e-07
1.64206e-07
1.64214e-07
1.64899e-07
1.67575e-07
1.67819e-07
1.67123e-07
1.3854e-07
2.30831e-07
1.5939e-07
1.63809e-07
1.5928e-07
1.59518e-07
1.58347e-07
1.58543e-07
1.5824e-07
1.58273e-07
1.58112e-07
1.5806e-07
1.5853e-07
1.58226e-07
1.58801e-07
1.58809e-07
1.59495e-07
1.62225e-07
1.62568e-07
1.63535e-07
1.39905e-07
2.03284e-07
1.52416e-07
1.58027e-07
1.53465e-07
1.53798e-07
1.5256e-07
1.52768e-07
1.52415e-07
1.52479e-07
1.52302e-07
1.52233e-07
1.52752e-07
1.52391e-07
1.53036e-07
1.53045e-07
1.53733e-07
1.56516e-07
1.56918e-07
1.58939e-07
1.40361e-07
1.83712e-07
1.4521e-07
1.51843e-07
1.47217e-07
1.47645e-07
1.46333e-07
1.46554e-07
1.46149e-07
1.46245e-07
1.46047e-07
1.45961e-07
1.46534e-07
1.46114e-07
1.46835e-07
1.46843e-07
1.47538e-07
1.50366e-07
1.50793e-07
1.53425e-07
1.39635e-07
1.65415e-07
1.38081e-07
1.45191e-07
1.40461e-07
1.40988e-07
1.39597e-07
1.39833e-07
1.39368e-07
1.39501e-07
1.39277e-07
1.39171e-07
1.39804e-07
1.39323e-07
1.40129e-07
1.40132e-07
1.4084e-07
1.43698e-07
1.44132e-07
1.47899e-07
1.37587e-07
1.47703e-07
1.30595e-07
1.3802e-07
1.33136e-07
1.33773e-07
1.323e-07
1.32552e-07
1.32017e-07
1.32204e-07
1.31936e-07
1.31811e-07
1.32505e-07
1.31964e-07
1.32865e-07
1.32859e-07
1.3359e-07
1.36448e-07
1.36897e-07
1.41592e-07
1.34124e-07
1.34735e-07
1.2271e-07
1.30312e-07
1.2521e-07
1.25972e-07
1.24418e-07
1.24686e-07
1.24069e-07
1.24338e-07
1.23998e-07
1.23855e-07
1.24611e-07
1.24011e-07
1.25019e-07
1.24996e-07
1.25759e-07
1.28576e-07
1.29089e-07
1.34446e-07
1.29232e-07
1.22804e-07
1.14395e-07
1.22102e-07
1.16686e-07
1.17234e-07
1.15755e-07
1.16033e-07
1.15538e-07
1.15678e-07
1.15478e-07
1.15319e-07
1.16132e-07
1.15477e-07
1.16367e-07
1.16326e-07
1.16997e-07
1.20084e-07
1.19986e-07
1.26444e-07
1.22971e-07
1.11938e-07
1.05251e-07
1.12479e-07
1.07639e-07
1.08238e-07
1.06742e-07
1.07031e-07
1.06494e-07
1.06696e-07
1.06444e-07
1.06272e-07
1.07133e-07
1.06431e-07
1.0738e-07
1.07313e-07
1.07979e-07
1.11035e-07
1.10514e-07
1.17662e-07
1.15469e-07
1.01679e-07
9.61658e-08
1.03099e-07
9.81881e-08
9.88226e-08
9.73318e-08
9.76254e-08
9.70574e-08
9.73047e-08
9.70172e-08
9.68355e-08
9.77301e-08
9.69942e-08
9.79851e-08
9.78955e-08
9.85389e-08
1.01535e-07
1.00919e-07
1.08226e-07
1.06911e-07
9.18038e-08
8.69053e-08
9.33759e-08
8.85048e-08
8.91477e-08
8.76917e-08
8.7986e-08
8.74022e-08
8.76752e-08
8.73712e-08
8.71839e-08
8.80941e-08
8.734e-08
8.83484e-08
8.82401e-08
8.88492e-08
9.17439e-08
9.1035e-08
9.83068e-08
9.75169e-08
8.21949e-08
7.76293e-08
8.34955e-08
7.87988e-08
7.94164e-08
7.80306e-08
7.83188e-08
7.77374e-08
7.80206e-08
7.7715e-08
7.75266e-08
7.84321e-08
7.76774e-08
7.86765e-08
7.85551e-08
7.91224e-08
8.1865e-08
8.10809e-08
8.81265e-08
8.76585e-08
7.28832e-08
6.85137e-08
7.37055e-08
6.92865e-08
6.98617e-08
6.857e-08
6.88475e-08
6.82847e-08
6.85676e-08
6.82701e-08
6.80856e-08
6.89665e-08
6.82284e-08
6.91936e-08
6.90639e-08
6.95862e-08
7.21277e-08
7.1297e-08
7.79449e-08
7.76495e-08
6.39841e-08
5.97467e-08
6.4257e-08
6.01792e-08
6.0711e-08
5.95223e-08
5.97864e-08
5.92553e-08
5.95298e-08
5.92473e-08
5.90718e-08
5.99083e-08
5.92045e-08
6.01121e-08
5.99806e-08
6.04562e-08
6.27573e-08
6.19145e-08
6.80211e-08
6.78063e-08
5.55361e-08
5.15317e-08
5.53256e-08
5.16811e-08
5.21524e-08
5.10803e-08
5.1323e-08
5.08373e-08
5.10956e-08
5.08345e-08
5.06714e-08
5.14451e-08
5.07926e-08
5.16195e-08
5.14952e-08
5.19217e-08
5.39564e-08
5.31381e-08
5.85939e-08
5.84208e-08
4.76803e-08
4.40382e-08
4.7101e-08
4.39666e-08
4.43699e-08
4.34167e-08
4.36306e-08
4.3202e-08
4.34363e-08
4.32028e-08
4.30548e-08
4.37503e-08
4.31628e-08
4.38895e-08
4.37796e-08
4.41511e-08
4.59059e-08
4.51502e-08
4.98874e-08
4.97562e-08
4.05879e-08
3.73725e-08
3.97783e-08
3.71011e-08
3.74069e-08
3.67142e-08
3.68925e-08
3.65312e-08
3.67338e-08
3.65335e-08
3.64036e-08
3.70057e-08
3.64969e-08
3.71058e-08
3.7017e-08
3.72989e-08
3.87269e-08
3.81372e-08
4.21098e-08
4.20425e-08
3.44845e-08
3.18766e-08
3.35935e-08
3.15073e-08
3.17252e-08
3.11825e-08
3.13189e-08
3.10323e-08
3.11962e-08
3.10338e-08
3.09247e-08
3.14202e-08
3.10025e-08
3.14849e-08
3.14186e-08
3.16366e-08
3.27665e-08
3.23169e-08
3.5491e-08
3.55121e-08
2.96207e-08
2.76906e-08
2.87844e-08
2.7285e-08
2.74066e-08
2.70175e-08
2.71088e-08
2.68983e-08
2.70199e-08
2.68961e-08
2.68094e-08
2.71931e-08
2.68725e-08
2.72332e-08
2.71855e-08
2.73582e-08
2.81858e-08
2.78946e-08
3.0273e-08
3.03908e-08
2.61883e-08
2.4914e-08
2.54943e-08
2.45159e-08
2.45452e-08
2.42951e-08
2.43435e-08
2.42011e-08
2.42826e-08
2.41925e-08
2.4127e-08
2.44087e-08
2.41783e-08
2.44364e-08
2.4401e-08
2.45427e-08
2.51e-08
2.49626e-08
2.66182e-08
2.68169e-08
2.41732e-08
2.34186e-08
2.36318e-08
2.30443e-08
2.30013e-08
2.2855e-08
2.28692e-08
2.27772e-08
2.28277e-08
2.27605e-08
2.27118e-08
2.29171e-08
2.27561e-08
2.29405e-08
2.29122e-08
2.30352e-08
2.33871e-08
2.33738e-08
2.44623e-08
2.47094e-08
2.32618e-08
2.28222e-08
2.28178e-08
2.24677e-08
2.23813e-08
2.2296e-08
2.22882e-08
2.2226e-08
2.22578e-08
2.22006e-08
2.21637e-08
2.23228e-08
2.22054e-08
2.23453e-08
2.23207e-08
2.2434e-08
2.26553e-08
2.27231e-08
2.34375e-08
2.37009e-08
2.29636e-08
2.26658e-08
2.25556e-08
2.23254e-08
2.22209e-08
2.21643e-08
2.21449e-08
2.20975e-08
2.21202e-08
2.2064e-08
2.20358e-08
2.21692e-08
2.20771e-08
2.21913e-08
2.21693e-08
2.22763e-08
2.24231e-08
2.25349e-08
2.3028e-08
2.32864e-08
2.28847e-08
2.26357e-08
2.24819e-08
2.23086e-08
2.22009e-08
2.2156e-08
2.21313e-08
2.20909e-08
2.21097e-08
2.20505e-08
2.20299e-08
2.21468e-08
2.20714e-08
2.21683e-08
2.21492e-08
2.22499e-08
2.23536e-08
2.24868e-08
2.28473e-08
2.30923e-08
2.2852e-08
2.26183e-08
2.24493e-08
2.23032e-08
2.21976e-08
2.21573e-08
2.21304e-08
2.20935e-08
2.21107e-08
2.20484e-08
2.20336e-08
2.21393e-08
2.20752e-08
2.21603e-08
2.21439e-08
2.2239e-08
2.23187e-08
2.2461e-08
2.27451e-08
2.29775e-08
)
;

boundaryField
{
    fuel
    {
        type            fixedValue;
        value           uniform 0;
    }
    wall
    {
        type            zeroGradient;
    }
    outlet
    {
        type            zeroGradient;
    }
    frontAndBack
    {
        type            empty;
    }
}


// ************************************************************************* //
