/*--------------------------------*- C++ -*----------------------------------*\
| =========                 |                                                 |
| \\      /  F ield         | OpenFOAM: The Open Source CFD Toolbox           |
|  \\    /   O peration     | Version:  dev                                   |
|   \\  /    A nd           | Web:      www.OpenFOAM.org                      |
|    \\/     M anipulation  |                                                 |
\*---------------------------------------------------------------------------*/
FoamFile
{
    version     2.0;
    format      ascii;
    class       volScalarField;
    location    "0.2";
    object      CH3OH;
}
// * * * * * * * * * * * * * * * * * * * * * * * * * * * * * * * * * * * * * //

dimensions      [0 0 0 0 0 0 0];

internalField   nonuniform List<scalar> 
1000
(
7.51679e-06
9.12769e-06
7.74411e-06
7.59502e-06
7.57816e-06
7.57666e-06
7.5759e-06
7.57649e-06
7.57604e-06
7.57631e-06
7.57618e-06
7.57612e-06
7.57597e-06
7.57618e-06
7.57594e-06
7.57755e-06
7.59245e-06
7.67555e-06
8.39643e-06
8.21922e-06
2.18719e-05
3.00168e-06
2.54508e-06
2.4943e-06
2.48802e-06
2.48748e-06
2.48729e-06
2.48735e-06
2.48737e-06
2.48734e-06
2.48742e-06
2.4874e-06
2.48726e-06
2.48773e-06
2.48688e-06
2.48946e-06
2.49208e-06
2.53092e-06
2.75143e-06
3.12225e-05
3.42509e-05
1.52938e-06
1.24603e-06
1.21683e-06
1.21285e-06
1.21249e-06
1.21242e-06
1.21237e-06
1.21247e-06
1.21238e-06
1.21249e-06
1.2125e-06
1.21237e-06
1.21287e-06
1.2119e-06
1.21485e-06
1.21433e-06
1.24466e-06
1.40298e-06
9.75648e-05
4.22241e-05
9.88331e-07
7.60973e-07
7.40972e-07
7.37953e-07
7.3767e-07
7.37607e-07
7.37532e-07
7.37652e-07
7.37553e-07
7.37661e-07
7.3771e-07
7.37573e-07
7.38042e-07
7.3715e-07
7.40162e-07
7.38313e-07
7.65682e-07
9.54423e-07
0.000204538
4.64414e-05
7.30926e-07
5.32996e-07
5.18346e-07
5.15903e-07
5.1565e-07
5.15536e-07
5.15495e-07
5.15619e-07
5.15522e-07
5.15627e-07
5.157e-07
5.15577e-07
5.15911e-07
5.15255e-07
5.18028e-07
5.15807e-07
5.41432e-07
6.61161e-07
2.32956e-05
4.81465e-05
5.89151e-07
4.14222e-07
4.02972e-07
4.00903e-07
4.00655e-07
4.00412e-07
4.00483e-07
4.00598e-07
4.0051e-07
4.00616e-07
4.00697e-07
4.00587e-07
4.00729e-07
4.00376e-07
4.02778e-07
4.00696e-07
4.19479e-07
5.12505e-07
4.76607e-06
4.84864e-05
5.01404e-07
3.48526e-07
3.39297e-07
3.37415e-07
3.37138e-07
3.36677e-07
3.36912e-07
3.37021e-07
3.36918e-07
3.37062e-07
3.37142e-07
3.37038e-07
3.36878e-07
3.36943e-07
3.3902e-07
3.37295e-07
3.53951e-07
4.25844e-07
2.17753e-06
4.81774e-05
4.41514e-07
3.06667e-07
3.02466e-07
3.00257e-07
2.99918e-07
2.99341e-07
2.99636e-07
2.99723e-07
2.99621e-07
2.9978e-07
2.99857e-07
2.99749e-07
2.99497e-07
2.99774e-07
3.01698e-07
3.00636e-07
3.13222e-07
3.73356e-07
1.55136e-06
4.64862e-05
3.96662e-07
2.82788e-07
2.76892e-07
2.76197e-07
2.76147e-07
2.7629e-07
2.76013e-07
2.76078e-07
2.75974e-07
2.76147e-07
2.76219e-07
2.761e-07
2.76401e-07
2.76027e-07
2.77005e-07
2.75418e-07
2.88625e-07
3.41134e-07
1.30795e-06
4.03353e-05
3.58304e-07
2.65212e-07
2.62122e-07
2.60957e-07
2.60748e-07
2.60993e-07
2.60564e-07
2.60587e-07
2.60471e-07
2.60681e-07
2.60755e-07
2.60584e-07
2.61065e-07
2.60631e-07
2.61782e-07
2.60669e-07
2.70747e-07
3.17182e-07
1.18915e-06
2.92365e-05
3.22153e-07
2.52251e-07
2.50771e-07
2.49346e-07
2.49109e-07
2.49139e-07
2.48902e-07
2.48917e-07
2.48835e-07
2.48995e-07
2.49061e-07
2.48846e-07
2.4902e-07
2.48999e-07
2.5e-07
2.49295e-07
2.5805e-07
3.00294e-07
1.12297e-06
1.77109e-05
2.89323e-07
2.4342e-07
2.41947e-07
2.4046e-07
2.40193e-07
2.40209e-07
2.39977e-07
2.40002e-07
2.39965e-07
2.40046e-07
2.40106e-07
2.39818e-07
2.40819e-07
2.40076e-07
2.40996e-07
2.40457e-07
2.48193e-07
2.86163e-07
1.07991e-06
9.30172e-06
2.62142e-07
2.35467e-07
2.34675e-07
2.331e-07
2.32806e-07
2.3338e-07
2.32575e-07
2.32636e-07
2.32656e-07
2.32629e-07
2.32685e-07
2.32282e-07
2.33233e-07
2.32667e-07
2.33549e-07
2.33121e-07
2.39834e-07
2.74105e-07
1.04475e-06
4.4323e-06
2.41309e-07
2.29184e-07
2.28324e-07
2.26636e-07
2.2631e-07
2.26589e-07
2.2605e-07
2.26175e-07
2.26228e-07
2.26107e-07
2.26163e-07
2.25584e-07
2.26499e-07
2.26147e-07
2.27018e-07
2.26678e-07
2.33814e-07
2.6329e-07
1.00751e-06
2.00344e-06
2.24617e-07
2.23261e-07
2.22527e-07
2.20724e-07
2.20367e-07
2.20471e-07
2.20052e-07
2.20266e-07
2.20313e-07
2.20135e-07
2.20196e-07
2.20221e-07
2.20416e-07
2.20178e-07
2.21052e-07
2.20775e-07
2.2815e-07
2.53894e-07
9.62127e-07
9.16662e-07
2.1119e-07
2.17407e-07
2.17074e-07
2.15168e-07
2.14783e-07
2.1479e-07
2.14378e-07
2.14706e-07
2.14717e-07
2.14519e-07
2.14584e-07
2.14544e-07
2.1474e-07
2.14568e-07
2.15447e-07
2.15208e-07
2.22197e-07
2.44924e-07
9.05609e-07
4.6589e-07
2.02219e-07
2.11928e-07
2.11832e-07
2.09847e-07
2.0944e-07
2.09391e-07
2.089e-07
2.09371e-07
2.09337e-07
2.0914e-07
2.09209e-07
2.09096e-07
2.09334e-07
2.09197e-07
2.10083e-07
2.09856e-07
2.16463e-07
2.35767e-07
8.38842e-07
2.86399e-07
1.95188e-07
2.06716e-07
2.06705e-07
2.04681e-07
2.04259e-07
2.04179e-07
2.03522e-07
2.04184e-07
2.04104e-07
2.03921e-07
2.03992e-07
2.03789e-07
2.04107e-07
2.0399e-07
2.04878e-07
2.04639e-07
2.10783e-07
2.26814e-07
7.6584e-07
2.11902e-07
1.8955e-07
2.01689e-07
2.01599e-07
1.99609e-07
1.99181e-07
1.99088e-07
1.98888e-07
1.9909e-07
1.98968e-07
1.98804e-07
1.98875e-07
1.98554e-07
1.98992e-07
1.98886e-07
1.99773e-07
1.99494e-07
2.0624e-07
2.18187e-07
6.78546e-07
1.76946e-07
1.84918e-07
1.96786e-07
1.96417e-07
1.94577e-07
1.94153e-07
1.94052e-07
1.93716e-07
1.94036e-07
1.93879e-07
1.93737e-07
1.93804e-07
1.93333e-07
1.93936e-07
1.93834e-07
1.94715e-07
1.94351e-07
2.01259e-07
2.09899e-07
6.01429e-07
1.57966e-07
1.80993e-07
1.91958e-07
1.9185e-07
1.89523e-07
1.89116e-07
1.89012e-07
1.88496e-07
1.88969e-07
1.88781e-07
1.88663e-07
1.88727e-07
1.88782e-07
1.88882e-07
1.88777e-07
1.89642e-07
1.89741e-07
1.96007e-07
2.01939e-07
5.22291e-07
1.46697e-07
1.77305e-07
1.87134e-07
1.86965e-07
1.84366e-07
1.84e-07
1.83902e-07
1.8384e-07
1.83822e-07
1.83604e-07
1.8351e-07
1.83577e-07
1.83693e-07
1.83747e-07
1.83646e-07
1.84466e-07
1.84791e-07
1.90743e-07
1.94302e-07
4.54291e-07
1.39994e-07
1.73792e-07
1.82239e-07
1.82346e-07
1.79695e-07
1.79409e-07
1.79313e-07
1.79172e-07
1.79202e-07
1.78956e-07
1.78884e-07
1.78971e-07
1.79095e-07
1.7915e-07
1.79032e-07
1.79887e-07
1.80121e-07
1.85404e-07
1.86968e-07
3.89793e-07
1.36316e-07
1.70721e-07
1.77163e-07
1.77447e-07
1.74916e-07
1.74277e-07
1.74178e-07
1.73945e-07
1.74038e-07
1.73742e-07
1.73691e-07
1.73822e-07
1.739e-07
1.73988e-07
1.73876e-07
1.74747e-07
1.75025e-07
1.79867e-07
1.79879e-07
3.36565e-07
1.34629e-07
1.67571e-07
1.72468e-07
1.72572e-07
1.69984e-07
1.69382e-07
1.69282e-07
1.6898e-07
1.69116e-07
1.68786e-07
1.68755e-07
1.68919e-07
1.68942e-07
1.69078e-07
1.6896e-07
1.69859e-07
1.70066e-07
1.73983e-07
1.72972e-07
2.91599e-07
1.341e-07
1.64242e-07
1.67366e-07
1.67503e-07
1.64836e-07
1.64273e-07
1.64172e-07
1.63805e-07
1.63983e-07
1.63616e-07
1.63601e-07
1.63784e-07
1.6376e-07
1.63952e-07
1.63827e-07
1.64768e-07
1.64874e-07
1.688e-07
1.66184e-07
2.54613e-07
1.33949e-07
1.60596e-07
1.62106e-07
1.62153e-07
1.5941e-07
1.58879e-07
1.58772e-07
1.58345e-07
1.58566e-07
1.58159e-07
1.58159e-07
1.5835e-07
1.58293e-07
1.58539e-07
1.5841e-07
1.59395e-07
1.59413e-07
1.63345e-07
1.59382e-07
2.23458e-07
1.33591e-07
1.5614e-07
1.56459e-07
1.56444e-07
1.53626e-07
1.53121e-07
1.53006e-07
1.52522e-07
1.52788e-07
1.52337e-07
1.52354e-07
1.52546e-07
1.52467e-07
1.52765e-07
1.5263e-07
1.53663e-07
1.53606e-07
1.57549e-07
1.52446e-07
1.97383e-07
1.32625e-07
1.50681e-07
1.50357e-07
1.50299e-07
1.47411e-07
1.46924e-07
1.46796e-07
1.46263e-07
1.46575e-07
1.46076e-07
1.46109e-07
1.46299e-07
1.46204e-07
1.46552e-07
1.46409e-07
1.47494e-07
1.47366e-07
1.51345e-07
1.45256e-07
1.77368e-07
1.30761e-07
1.45218e-07
1.43736e-07
1.4364e-07
1.40696e-07
1.40219e-07
1.4007e-07
1.39498e-07
1.39857e-07
1.39308e-07
1.39354e-07
1.39539e-07
1.39436e-07
1.39832e-07
1.39678e-07
1.40817e-07
1.40614e-07
1.44673e-07
1.38199e-07
1.59984e-07
1.2778e-07
1.39035e-07
1.36551e-07
1.36401e-07
1.33428e-07
1.32952e-07
1.32768e-07
1.32177e-07
1.32583e-07
1.31984e-07
1.32041e-07
1.32211e-07
1.32116e-07
1.32554e-07
1.32386e-07
1.33578e-07
1.33291e-07
1.37479e-07
1.30769e-07
1.43723e-07
1.23564e-07
1.32073e-07
1.28794e-07
1.28536e-07
1.25586e-07
1.25099e-07
1.24859e-07
1.24281e-07
1.24729e-07
1.24083e-07
1.24149e-07
1.24288e-07
1.24225e-07
1.24697e-07
1.24508e-07
1.25748e-07
1.25365e-07
1.29748e-07
1.22929e-07
1.31612e-07
1.18085e-07
1.24303e-07
1.19912e-07
1.20048e-07
1.16818e-07
1.16366e-07
1.16353e-07
1.15453e-07
1.15986e-07
1.1526e-07
1.15365e-07
1.15781e-07
1.15421e-07
1.15965e-07
1.15769e-07
1.17036e-07
1.16841e-07
1.21512e-07
1.14661e-07
1.20136e-07
1.11397e-07
1.1577e-07
1.1031e-07
1.11001e-07
1.07798e-07
1.07351e-07
1.07322e-07
1.06411e-07
1.06983e-07
1.06218e-07
1.06333e-07
1.06759e-07
1.06394e-07
1.06961e-07
1.06744e-07
1.08024e-07
1.07791e-07
1.11898e-07
1.05519e-07
1.09829e-07
1.03637e-07
1.06595e-07
1.00783e-07
1.01502e-07
9.83627e-08
9.79303e-08
9.78868e-08
9.69814e-08
9.7581e-08
9.67902e-08
9.69132e-08
9.73425e-08
9.69754e-08
9.75555e-08
9.73236e-08
9.8599e-08
9.83349e-08
1.0252e-07
9.64552e-08
1.00003e-07
9.5018e-08
9.69333e-08
9.09568e-08
9.17134e-08
8.8683e-08
8.82719e-08
8.82213e-08
8.73349e-08
8.795e-08
8.7149e-08
8.72759e-08
8.77024e-08
8.73339e-08
8.79169e-08
8.76768e-08
8.89247e-08
8.86437e-08
9.28137e-08
8.71958e-08
9.04629e-08
8.58266e-08
8.70011e-08
8.10499e-08
8.1842e-08
7.89695e-08
7.85855e-08
7.85344e-08
7.76805e-08
7.82973e-08
7.75031e-08
7.76307e-08
7.80464e-08
7.76806e-08
7.82533e-08
7.80137e-08
7.92072e-08
7.89266e-08
8.29731e-08
7.79077e-08
8.11269e-08
7.63688e-08
7.70363e-08
7.13006e-08
7.21132e-08
6.94463e-08
6.90936e-08
6.90461e-08
6.82394e-08
6.88421e-08
6.80731e-08
6.81997e-08
6.85963e-08
6.82404e-08
6.87884e-08
6.85579e-08
6.96693e-08
6.9411e-08
7.32169e-08
6.87887e-08
7.20024e-08
6.69511e-08
6.72873e-08
6.19406e-08
6.27504e-08
6.03302e-08
6.00101e-08
5.99675e-08
5.92226e-08
5.97954e-08
5.90693e-08
5.91915e-08
5.95621e-08
5.92236e-08
5.97355e-08
5.95189e-08
6.05341e-08
6.03046e-08
6.37902e-08
6.00175e-08
6.32053e-08
5.78955e-08
5.80166e-08
5.3178e-08
5.39594e-08
5.18192e-08
5.15253e-08
5.14889e-08
5.08167e-08
5.13472e-08
5.0678e-08
5.07912e-08
5.11305e-08
5.08162e-08
5.12837e-08
5.10828e-08
5.20013e-08
5.1794e-08
5.4921e-08
5.17677e-08
5.48973e-08
4.94646e-08
4.94418e-08
4.51961e-08
4.59211e-08
4.40886e-08
4.38111e-08
4.37814e-08
4.31913e-08
4.36684e-08
4.30684e-08
4.31708e-08
4.34726e-08
4.31904e-08
4.36034e-08
4.34241e-08
4.42397e-08
4.40647e-08
4.67636e-08
4.42372e-08
4.71657e-08
4.19031e-08
4.17743e-08
3.81821e-08
3.8748e-08
3.71871e-08
3.7049e-08
3.70262e-08
3.6527e-08
3.69397e-08
3.64213e-08
3.65113e-08
3.67691e-08
3.65269e-08
3.68761e-08
3.67246e-08
3.73115e-08
3.7181e-08
3.95099e-08
3.75308e-08
4.01866e-08
3.54624e-08
3.52488e-08
3.23551e-08
3.27914e-08
3.15653e-08
3.14496e-08
3.14331e-08
3.10311e-08
3.13695e-08
3.09432e-08
3.10194e-08
3.1228e-08
3.10329e-08
3.13109e-08
3.11934e-08
3.16454e-08
3.15676e-08
3.33931e-08
3.19954e-08
3.41886e-08
3.03891e-08
3.01112e-08
2.7923e-08
2.82111e-08
2.73117e-08
2.72131e-08
2.72025e-08
2.68969e-08
2.71565e-08
2.6826e-08
2.68878e-08
2.70461e-08
2.69017e-08
2.71066e-08
2.7027e-08
2.73452e-08
2.73264e-08
2.86472e-08
2.77718e-08
2.94215e-08
2.68394e-08
2.6524e-08
2.49805e-08
2.5124e-08
2.45122e-08
2.4424e-08
2.44188e-08
2.41971e-08
2.43842e-08
2.41402e-08
2.41889e-08
2.43027e-08
2.42058e-08
2.43448e-08
2.43025e-08
2.45057e-08
2.45413e-08
2.54108e-08
2.49636e-08
2.60716e-08
2.47447e-08
2.44196e-08
2.33828e-08
2.34096e-08
2.3015e-08
2.29307e-08
2.29299e-08
2.27694e-08
2.29015e-08
2.27213e-08
2.27602e-08
2.28426e-08
2.27824e-08
2.28722e-08
2.28602e-08
2.29799e-08
2.3058e-08
2.35871e-08
2.34454e-08
2.41179e-08
2.37426e-08
2.34274e-08
2.27255e-08
2.26766e-08
2.24201e-08
2.23357e-08
2.23379e-08
2.22142e-08
2.23129e-08
2.21699e-08
2.22025e-08
2.2269e-08
2.22313e-08
2.22916e-08
2.22995e-08
2.23709e-08
2.24742e-08
2.27958e-08
2.28352e-08
2.3243e-08
2.33292e-08
2.30345e-08
2.25333e-08
2.24429e-08
2.22663e-08
2.21814e-08
2.21854e-08
2.20824e-08
2.21625e-08
2.20391e-08
2.20669e-08
2.21288e-08
2.21025e-08
2.21479e-08
2.21665e-08
2.22157e-08
2.2328e-08
2.25441e-08
2.26714e-08
2.2961e-08
2.31324e-08
2.28611e-08
2.24829e-08
2.23717e-08
2.22426e-08
2.21585e-08
2.21633e-08
2.20734e-08
2.21419e-08
2.20306e-08
2.20538e-08
2.21162e-08
2.20952e-08
2.21334e-08
2.21571e-08
2.21976e-08
2.23088e-08
2.24742e-08
2.26371e-08
2.28869e-08
2.30139e-08
2.27617e-08
2.2456e-08
2.23352e-08
2.22334e-08
2.21511e-08
2.21561e-08
2.20747e-08
2.21356e-08
2.20324e-08
2.20518e-08
2.21157e-08
2.20971e-08
2.21317e-08
2.21575e-08
2.21948e-08
2.2302e-08
2.24428e-08
2.26173e-08
2.28545e-08
)
;

boundaryField
{
    fuel
    {
        type            fixedValue;
        value           uniform 0;
    }
    wall
    {
        type            zeroGradient;
    }
    outlet
    {
        type            zeroGradient;
    }
    frontAndBack
    {
        type            empty;
    }
}


// ************************************************************************* //
