/*--------------------------------*- C++ -*----------------------------------*\
| =========                 |                                                 |
| \\      /  F ield         | OpenFOAM: The Open Source CFD Toolbox           |
|  \\    /   O peration     | Version:  dev                                   |
|   \\  /    A nd           | Web:      www.OpenFOAM.org                      |
|    \\/     M anipulation  |                                                 |
\*---------------------------------------------------------------------------*/
FoamFile
{
    version     2.0;
    format      ascii;
    class       volScalarField;
    location    "0.2";
    object      CO;
}
// * * * * * * * * * * * * * * * * * * * * * * * * * * * * * * * * * * * * * //

dimensions      [0 0 0 0 0 0 0];

internalField   nonuniform List<scalar> 
1000
(
0.00906828
0.133875
0.135504
0.135762
0.135802
0.135808
0.135809
0.135808
0.135808
0.135808
0.135808
0.135808
0.135808
0.13581
0.135808
0.135803
0.135753
0.135326
0.131825
0.0145143
0.0249621
0.156033
0.157548
0.157957
0.157984
0.158008
0.158007
0.158006
0.158007
0.158008
0.158007
0.158006
0.158007
0.158008
0.158006
0.157998
0.157931
0.15743
0.153654
0.039798
0.052611
0.161507
0.163367
0.163956
0.163991
0.164029
0.164029
0.164028
0.164027
0.164029
0.164028
0.164026
0.164029
0.164031
0.164026
0.164013
0.163915
0.163251
0.158576
0.0653365
0.128522
0.163652
0.165857
0.166643
0.166688
0.166743
0.166746
0.166741
0.16674
0.166744
0.166741
0.166739
0.166743
0.166748
0.166739
0.166719
0.166585
0.165741
0.160148
0.0889065
0.151481
0.164848
0.167378
0.168371
0.168427
0.1685
0.168508
0.168499
0.168496
0.168502
0.168497
0.168496
0.168502
0.168511
0.168495
0.168467
0.168294
0.167278
0.160936
0.109043
0.157036
0.165655
0.168585
0.169714
0.169784
0.169875
0.169891
0.169875
0.169871
0.169879
0.169872
0.16987
0.169879
0.169893
0.16987
0.169833
0.169618
0.168446
0.161556
0.12524
0.157973
0.166316
0.169552
0.170859
0.170946
0.171056
0.171079
0.171056
0.171051
0.171062
0.171052
0.17105
0.171062
0.171081
0.171049
0.171003
0.170741
0.169433
0.162182
0.137714
0.157615
0.166876
0.170404
0.171895
0.171993
0.172118
0.17214
0.172119
0.172112
0.172125
0.172113
0.172111
0.172126
0.172141
0.172109
0.172057
0.171753
0.170312
0.162865
0.147061
0.15692
0.167364
0.17121
0.17289
0.172952
0.173085
0.173095
0.173087
0.173077
0.173091
0.173079
0.173077
0.173094
0.173097
0.173073
0.17302
0.172736
0.171191
0.163617
0.153976
0.156214
0.167876
0.172023
0.173788
0.17389
0.174049
0.174047
0.174053
0.174041
0.174057
0.174043
0.174041
0.174063
0.174048
0.174032
0.173969
0.173604
0.172096
0.164436
0.159088
0.155645
0.168385
0.172805
0.174695
0.174818
0.174987
0.174988
0.174994
0.17498
0.174997
0.174982
0.17498
0.175009
0.174988
0.174968
0.174897
0.174493
0.172861
0.165311
0.162879
0.155292
0.168952
0.173577
0.175559
0.175705
0.175884
0.175893
0.175894
0.175877
0.175894
0.175879
0.175877
0.175917
0.175899
0.175862
0.175783
0.175339
0.173645
0.166233
0.16568
0.155195
0.169557
0.174359
0.176387
0.176556
0.176742
0.176768
0.176758
0.176738
0.176752
0.17674
0.176736
0.176793
0.176668
0.176717
0.176631
0.176152
0.174458
0.167186
0.167744
0.155362
0.170199
0.174977
0.177182
0.177373
0.177565
0.1775
0.177587
0.177564
0.177575
0.177565
0.177561
0.17764
0.177505
0.177538
0.177445
0.176935
0.175157
0.168234
0.169274
0.155784
0.17084
0.175631
0.177945
0.178158
0.178354
0.178294
0.178384
0.178355
0.178364
0.178357
0.178351
0.17835
0.178308
0.178325
0.178226
0.177689
0.175936
0.169386
0.170424
0.15644
0.171511
0.176337
0.178678
0.17891
0.179108
0.17906
0.179149
0.179111
0.179119
0.179113
0.179105
0.179112
0.179072
0.179078
0.178972
0.178414
0.176705
0.170383
0.171307
0.157303
0.172235
0.177041
0.179381
0.179628
0.179826
0.179788
0.179882
0.179831
0.179838
0.179833
0.179823
0.17984
0.179797
0.179794
0.179683
0.179111
0.177453
0.171384
0.172013
0.158339
0.172993
0.177753
0.180051
0.18031
0.180507
0.180477
0.180583
0.180513
0.18052
0.180515
0.180504
0.180538
0.180481
0.180473
0.180358
0.179778
0.178175
0.172366
0.172606
0.159503
0.173763
0.178319
0.18069
0.180955
0.181148
0.181124
0.181165
0.181156
0.181163
0.181158
0.181145
0.181207
0.181124
0.181112
0.180995
0.180414
0.178869
0.173313
0.173136
0.161009
0.17454
0.178907
0.181296
0.181563
0.181749
0.18173
0.181776
0.181758
0.181765
0.18176
0.181746
0.181765
0.181724
0.181712
0.181593
0.181018
0.17953
0.174314
0.173638
0.162439
0.175317
0.179531
0.181809
0.182131
0.182308
0.182292
0.182349
0.182317
0.182324
0.18232
0.182306
0.182295
0.182283
0.182271
0.182152
0.181593
0.180155
0.175277
0.174134
0.163884
0.176086
0.180127
0.182308
0.182661
0.182823
0.182812
0.182817
0.182834
0.182841
0.182838
0.182822
0.182816
0.182799
0.182788
0.182669
0.182125
0.18074
0.176161
0.174636
0.165473
0.17684
0.180695
0.182737
0.183082
0.183239
0.183228
0.183235
0.18325
0.183256
0.183256
0.183237
0.183233
0.183215
0.183205
0.183088
0.182567
0.181282
0.177001
0.175149
0.166957
0.177569
0.181236
0.183143
0.183488
0.183635
0.183627
0.183635
0.183647
0.183653
0.183647
0.183634
0.183631
0.183612
0.183602
0.183487
0.182976
0.181781
0.177773
0.175672
0.16833
0.178266
0.181754
0.18348
0.183817
0.183954
0.183948
0.183956
0.183966
0.183971
0.183968
0.183952
0.183951
0.183932
0.183923
0.183812
0.183325
0.182182
0.178476
0.176202
0.169876
0.178923
0.182156
0.183767
0.184094
0.18422
0.184216
0.184223
0.184232
0.184236
0.184234
0.184219
0.184218
0.184201
0.184192
0.184088
0.183625
0.182563
0.17911
0.176731
0.171474
0.179538
0.182515
0.184003
0.18432
0.184434
0.184432
0.184438
0.184446
0.184449
0.184447
0.184434
0.184433
0.184418
0.184409
0.184311
0.183877
0.182871
0.179676
0.177255
0.172854
0.180107
0.182827
0.18419
0.184494
0.184596
0.184596
0.1846
0.184608
0.184609
0.184608
0.184598
0.184596
0.184583
0.184574
0.184483
0.184081
0.183131
0.180237
0.177765
0.17396
0.180622
0.183091
0.184327
0.184618
0.184707
0.18471
0.184712
0.18472
0.184719
0.184718
0.184712
0.184709
0.184698
0.18469
0.184604
0.184236
0.183343
0.180748
0.178253
0.175117
0.181058
0.183308
0.184418
0.184694
0.184772
0.184776
0.184776
0.184784
0.184782
0.184782
0.184778
0.184774
0.184766
0.184757
0.184677
0.184344
0.183508
0.181138
0.178711
0.176341
0.181439
0.183478
0.184466
0.184726
0.184793
0.184799
0.184798
0.184805
0.184803
0.184802
0.184802
0.184796
0.184791
0.184782
0.184707
0.18441
0.183629
0.181471
0.179135
0.177278
0.181767
0.183605
0.184477
0.18472
0.184777
0.184784
0.184781
0.184789
0.184785
0.184785
0.184787
0.18478
0.184778
0.184769
0.184699
0.184436
0.18371
0.181753
0.179525
0.178148
0.182046
0.183691
0.184457
0.184681
0.184729
0.184737
0.184734
0.184741
0.184738
0.184738
0.184742
0.184734
0.184733
0.184724
0.184659
0.184428
0.183761
0.18199
0.179883
0.178914
0.182291
0.183748
0.184412
0.184618
0.184659
0.184668
0.184665
0.184672
0.184668
0.184668
0.184674
0.184665
0.184666
0.184657
0.184598
0.184394
0.183783
0.182187
0.180212
0.17959
0.18249
0.183775
0.184352
0.18454
0.184575
0.184585
0.18458
0.184588
0.184583
0.184583
0.184591
0.184581
0.184584
0.184575
0.184521
0.184341
0.183785
0.182353
0.180517
0.180185
0.182658
0.183784
0.184284
0.184454
0.184484
0.184494
0.18449
0.184497
0.184493
0.184493
0.1845
0.184491
0.184494
0.184485
0.184437
0.184277
0.183776
0.182496
0.180804
0.180707
0.182803
0.183782
0.184215
0.184367
0.184394
0.184404
0.1844
0.184407
0.184403
0.184403
0.184411
0.184401
0.184405
0.184397
0.184354
0.184212
0.183763
0.182622
0.181076
0.181163
0.182931
0.183777
0.184152
0.184287
0.184312
0.184321
0.184318
0.184324
0.184321
0.184321
0.184328
0.184319
0.184323
0.184315
0.184276
0.18415
0.183752
0.18274
0.181339
0.181557
0.183049
0.183773
0.184099
0.184217
0.184241
0.184249
0.184247
0.184252
0.18425
0.18425
0.184256
0.184248
0.184252
0.184244
0.184209
0.184098
0.183748
0.182854
0.181599
0.181904
0.18316
0.183776
0.184058
0.184161
0.184183
0.184191
0.18419
0.184195
0.184192
0.184193
0.184198
0.184191
0.184194
0.184186
0.184156
0.184057
0.183753
0.18297
0.181857
0.182213
0.183266
0.183787
0.184031
0.18412
0.18414
0.184147
0.184147
0.184151
0.184149
0.18415
0.184153
0.184148
0.18415
0.184143
0.184116
0.184029
0.183767
0.183087
0.182111
0.182489
0.183369
0.183805
0.184015
0.184091
0.18411
0.184117
0.184117
0.184121
0.184119
0.18412
0.184123
0.184118
0.184119
0.184113
0.184089
0.184014
0.18379
0.183205
0.18236
0.182737
0.183466
0.18383
0.184009
0.184074
0.184092
0.184098
0.184099
0.184101
0.1841
0.184101
0.184103
0.1841
0.1841
0.184094
0.184074
0.184008
0.18382
0.183323
0.1826
0.182957
0.183558
0.18386
0.184011
0.184066
0.184082
0.184087
0.184088
0.184091
0.18409
0.18409
0.184092
0.184089
0.184089
0.184084
0.184066
0.184011
0.183854
0.183438
0.182827
0.183152
0.183642
0.183891
0.184017
0.184063
0.184078
0.184082
0.184084
0.184086
0.184085
0.184085
0.184087
0.184084
0.184084
0.18408
0.184065
0.184017
0.183888
0.183547
0.183038
0.183321
0.183718
0.183922
0.184026
0.184064
0.184077
0.184081
0.184082
0.184084
0.184083
0.184083
0.184084
0.184083
0.184082
0.184078
0.184066
0.184026
0.183921
0.183645
0.183229
0.183465
0.183783
0.18395
0.184035
0.184066
0.184077
0.18408
0.184082
0.184083
0.184083
0.184083
0.184084
0.184082
0.184082
0.184078
0.184068
0.184036
0.183951
0.183732
0.183396
0.183582
0.183838
0.183974
0.184042
0.184068
0.184078
0.184081
0.184082
0.184083
0.184083
0.184083
0.184084
0.184082
0.184082
0.184079
0.18407
0.184044
0.183975
0.183804
0.183535
0.183673
0.18388
0.183993
0.184049
0.18407
0.184078
0.184081
0.184082
0.184083
0.184083
0.184083
0.184084
0.184082
0.184082
0.184079
0.184072
0.18405
0.183995
0.18386
0.183644
0.18373
0.183906
0.184005
0.184053
0.184071
0.184079
0.184081
0.184082
0.184083
0.184083
0.184083
0.184084
0.184082
0.184082
0.184079
0.184073
0.184054
0.184007
0.183896
0.183713
)
;

boundaryField
{
    fuel
    {
        type            fixedValue;
        value           uniform 0;
    }
    wall
    {
        type            zeroGradient;
    }
    outlet
    {
        type            zeroGradient;
    }
    frontAndBack
    {
        type            empty;
    }
}


// ************************************************************************* //
