/*--------------------------------*- C++ -*----------------------------------*\
| =========                 |                                                 |
| \\      /  F ield         | OpenFOAM: The Open Source CFD Toolbox           |
|  \\    /   O peration     | Version:  dev                                   |
|   \\  /    A nd           | Web:      www.OpenFOAM.org                      |
|    \\/     M anipulation  |                                                 |
\*---------------------------------------------------------------------------*/
FoamFile
{
    version     2.0;
    format      ascii;
    class       volScalarField;
    location    "0.2";
    object      CO2;
}
// * * * * * * * * * * * * * * * * * * * * * * * * * * * * * * * * * * * * * //

dimensions      [0 0 0 0 0 0 0];

internalField   nonuniform List<scalar> 
1000
(
0.00339258
0.0392376
0.0394345
0.0394259
0.0394226
0.039422
0.0394217
0.0394215
0.0394217
0.0394215
0.0394219
0.0394221
0.0394221
0.0394217
0.0394224
0.0394226
0.0394251
0.0394336
0.039339
0.00250661
0.00927489
0.0470475
0.0467355
0.0466398
0.0466242
0.0466219
0.0466208
0.0466207
0.0466209
0.0466207
0.0466213
0.0466217
0.0466218
0.0466204
0.0466229
0.0466219
0.0466381
0.0466899
0.0469132
0.00676988
0.0152346
0.0495208
0.0488041
0.0486239
0.0485942
0.0485901
0.0485879
0.0485877
0.0485883
0.0485878
0.0485891
0.0485896
0.0485895
0.0485877
0.048591
0.0485924
0.048619
0.048731
0.0491702
0.0118565
0.0208648
0.0505563
0.0495133
0.0492519
0.0492071
0.0492007
0.0491971
0.0491968
0.049198
0.049197
0.0491993
0.0492
0.0491996
0.0491971
0.0492014
0.0492069
0.0492422
0.0494219
0.0500207
0.0225099
0.0258823
0.0510751
0.0497628
0.0494239
0.0493633
0.0493545
0.0493487
0.0493489
0.0493506
0.0493491
0.0493526
0.0493536
0.0493527
0.049349
0.0493548
0.0493656
0.0494086
0.0496578
0.0503999
0.0371861
0.0301403
0.0513593
0.0498209
0.0494093
0.0493323
0.0493207
0.0493118
0.0493135
0.0493155
0.0493134
0.0493182
0.0493195
0.0493181
0.0493123
0.0493207
0.0493374
0.0493877
0.0497068
0.05059
0.0427171
0.0336368
0.051514
0.0497853
0.0493063
0.0492123
0.0491977
0.0491849
0.0491888
0.0491908
0.0491879
0.0491944
0.049196
0.0491938
0.0491855
0.0491973
0.0492207
0.0492779
0.0496637
0.0506811
0.0450569
0.0364702
0.0515846
0.0496863
0.0491571
0.0490432
0.0490255
0.0490109
0.0490149
0.0490165
0.0490129
0.0490209
0.0490228
0.0490197
0.0490116
0.0490245
0.0490555
0.0491215
0.0495663
0.0507052
0.0462861
0.038772
0.0515932
0.0495635
0.0489526
0.0488354
0.0488184
0.0488127
0.0488088
0.0488097
0.0488053
0.0488147
0.0488168
0.0488124
0.0488136
0.0488167
0.0488468
0.0489111
0.049449
0.0506873
0.0470424
0.0406573
0.0515522
0.049399
0.048761
0.0486251
0.0486036
0.0485996
0.0485932
0.048593
0.048588
0.0485985
0.0486008
0.0485945
0.0486005
0.048601
0.0486415
0.0487122
0.0492969
0.0506355
0.0475435
0.0422121
0.0514696
0.0492078
0.0485433
0.0483865
0.0483622
0.0483552
0.0483518
0.0483509
0.0483467
0.0483558
0.0483581
0.0483495
0.0483521
0.048359
0.0484045
0.0484872
0.0491268
0.0505625
0.0478873
0.043506
0.0513515
0.0490278
0.0483155
0.0481432
0.0481161
0.048111
0.0481059
0.048105
0.0481033
0.0481085
0.0481107
0.0480988
0.0481295
0.0481122
0.0481623
0.0482546
0.0489408
0.0504626
0.0481337
0.0445927
0.0512025
0.0488203
0.0480853
0.0478989
0.0478692
0.0478847
0.047859
0.0478591
0.0478604
0.0478604
0.0478625
0.0478458
0.0478792
0.0478642
0.0479183
0.0480203
0.0487397
0.0503412
0.0483235
0.0455135
0.0510276
0.0486246
0.047856
0.0476573
0.047625
0.0476315
0.0476144
0.0476167
0.0476199
0.0476152
0.0476173
0.0475938
0.0476282
0.0476191
0.0476766
0.0477883
0.04857
0.0502015
0.048486
0.0462971
0.0508101
0.0484148
0.0476304
0.0474216
0.047387
0.0473877
0.0473751
0.0473807
0.0473842
0.0473764
0.0473786
0.0473796
0.0473859
0.0473803
0.0474404
0.0475611
0.0483919
0.0500568
0.0486385
0.0469615
0.0505474
0.0481877
0.0474105
0.0471949
0.0471584
0.0471557
0.0471438
0.0471537
0.0471562
0.0471469
0.0471492
0.0471488
0.0471543
0.0471508
0.0472126
0.0473412
0.0481905
0.0498996
0.0487915
0.0475205
0.0503039
0.0479622
0.0471987
0.0469795
0.0469416
0.046937
0.0469231
0.046938
0.0469391
0.0469294
0.0469318
0.0469294
0.0469355
0.0469334
0.0469958
0.0471308
0.047988
0.049722
0.0489468
0.0479723
0.0500461
0.0477416
0.0469967
0.0467779
0.0467392
0.0467334
0.0467148
0.046736
0.0467357
0.0467264
0.0467287
0.0467238
0.0467316
0.0467304
0.0467924
0.0469321
0.0477846
0.0495333
0.0490993
0.0483242
0.0497771
0.047529
0.0468057
0.0465922
0.0465532
0.046547
0.046546
0.04655
0.0465489
0.0465402
0.0465423
0.0465341
0.0465446
0.0465442
0.0466047
0.0467474
0.0476224
0.049339
0.0492647
0.048583
0.0495013
0.0473278
0.0466269
0.0464246
0.0463859
0.0463796
0.046376
0.0463824
0.0463809
0.046373
0.0463748
0.0463626
0.0463768
0.0463769
0.0464349
0.0465784
0.0474505
0.0491408
0.0493967
0.0487559
0.0492226
0.0471417
0.0464847
0.0462773
0.0462394
0.0462333
0.0462265
0.0462355
0.0462341
0.0462272
0.0462285
0.0462309
0.0462304
0.0462308
0.0462853
0.0464435
0.0472791
0.0489421
0.0495129
0.0488521
0.0489256
0.0469737
0.0463544
0.0461523
0.046116
0.0461104
0.046115
0.0461118
0.0461109
0.0461049
0.0461057
0.0461099
0.0461073
0.0461081
0.0461578
0.0463216
0.0471214
0.0487465
0.0495912
0.0488832
0.0486326
0.0468274
0.0462541
0.0460637
0.0460299
0.0460247
0.046029
0.0460254
0.0460254
0.0460201
0.0460206
0.0460256
0.0460218
0.0460227
0.0460689
0.04623
0.0469804
0.0485581
0.0496379
0.0488616
0.0483878
0.0467055
0.0461756
0.0460012
0.0459649
0.0459603
0.0459646
0.0459605
0.0459616
0.045957
0.0459572
0.045962
0.0459575
0.0459589
0.0460002
0.0461592
0.0468586
0.048381
0.0496443
0.0487992
0.0481625
0.046622
0.0461263
0.0459666
0.0459329
0.0459289
0.0459336
0.0459286
0.0459312
0.0459272
0.045927
0.0459313
0.0459264
0.0459283
0.0459645
0.0461195
0.0467587
0.0482172
0.0496169
0.0487086
0.0479641
0.0465651
0.0461059
0.0459613
0.0459308
0.0459272
0.0459329
0.0459268
0.0459311
0.0459275
0.0459268
0.0459307
0.0459253
0.0459277
0.0459585
0.0461084
0.0466973
0.0480704
0.0495594
0.048604
0.0477996
0.0465404
0.0461152
0.0459871
0.0459595
0.0459565
0.0459635
0.0459561
0.0459623
0.045959
0.0459575
0.0459614
0.0459551
0.0459583
0.0459831
0.0461273
0.0466622
0.0479461
0.0494734
0.048498
0.0476627
0.0465478
0.0461552
0.0460442
0.0460195
0.046017
0.0460255
0.0460167
0.046025
0.0460219
0.0460196
0.0460236
0.0460163
0.0460201
0.046039
0.0461767
0.0466552
0.0478476
0.0493663
0.0483994
0.0475585
0.0465868
0.0462259
0.0461323
0.0461102
0.0461084
0.0461184
0.0461081
0.0461185
0.0461156
0.0461125
0.0461167
0.0461083
0.0461128
0.0461258
0.0462563
0.0466775
0.0477772
0.0492558
0.0483173
0.0475044
0.0466567
0.0463263
0.0462497
0.04623
0.046229
0.0462403
0.0462287
0.0462411
0.0462382
0.0462345
0.0462389
0.0462293
0.0462345
0.0462419
0.0463648
0.0467292
0.0477388
0.0491345
0.0482577
0.047488
0.0467549
0.0464542
0.0463933
0.046376
0.0463759
0.0463882
0.0463752
0.0463895
0.0463866
0.0463826
0.0463869
0.0463763
0.0463821
0.0463845
0.0464993
0.0468091
0.0477279
0.0490022
0.0482236
0.0475072
0.0468773
0.0466058
0.0465589
0.0465436
0.0465446
0.0465572
0.0465433
0.046559
0.0465562
0.0465522
0.046556
0.0465447
0.0465512
0.0465494
0.0466559
0.046914
0.0477429
0.0488992
0.0482153
0.0475577
0.0470271
0.0467759
0.046747
0.0467329
0.0467294
0.0467486
0.0467332
0.0467507
0.0467473
0.0467374
0.0467472
0.0467346
0.0467412
0.0467364
0.0468288
0.0470392
0.0477805
0.048806
0.0482301
0.0476334
0.0471917
0.0469576
0.0469382
0.0469258
0.0469229
0.046942
0.0469264
0.0469443
0.0469409
0.0469309
0.0469405
0.0469279
0.0469347
0.046928
0.047011
0.0471918
0.0478385
0.0487329
0.0482628
0.0477261
0.0473524
0.047143
0.0471302
0.0471195
0.0471169
0.0471354
0.04712
0.0471379
0.0471346
0.0471247
0.0471339
0.0471217
0.0471285
0.0471209
0.0471947
0.0473419
0.0479056
0.0486768
0.0483065
0.0478272
0.0475098
0.0473239
0.0473151
0.0473058
0.0473035
0.0473208
0.0473062
0.0473233
0.0473202
0.0473109
0.0473195
0.047308
0.0473144
0.047307
0.0473717
0.0474922
0.0479775
0.0486355
0.0483537
0.0479281
0.0476562
0.0474925
0.0474854
0.0474773
0.0474753
0.0474909
0.0474775
0.0474934
0.0474905
0.0474819
0.0474898
0.0474794
0.0474852
0.0474788
0.0475348
0.047635
0.0480474
0.0486049
0.0483964
0.0480205
0.047785
0.0476423
0.0476352
0.0476282
0.0476262
0.0476399
0.0476281
0.0476423
0.0476398
0.0476321
0.047639
0.04763
0.047635
0.0476302
0.047678
0.0477633
0.0481094
0.0485801
0.0484284
0.0480983
0.0478916
0.0477686
0.0477604
0.0477543
0.0477525
0.0477641
0.0477541
0.0477664
0.0477642
0.0477575
0.0477633
0.0477559
0.04776
0.047757
0.0477973
0.0478717
0.048159
0.0485567
0.0484458
0.0481571
0.0479741
0.0478692
0.0478595
0.0478543
0.0478526
0.0478622
0.047854
0.0478642
0.0478624
0.0478568
0.0478614
0.0478555
0.0478587
0.0478575
0.0478912
0.0479572
0.0481936
0.0485307
0.0484467
0.0481954
0.0480327
0.0479442
0.0479331
0.0479287
0.0479272
0.0479349
0.0479284
0.0479368
0.0479353
0.0479306
0.0479342
0.0479296
0.0479321
0.0479322
0.0479601
0.0480194
0.0482123
0.0484986
0.0484317
0.0482141
0.0480699
0.0479964
0.0479846
0.0479803
0.047979
0.047985
0.0479801
0.0479868
0.0479856
0.0479817
0.0479844
0.0479809
0.0479827
0.0479846
0.0480074
0.0480602
0.0482163
0.0484594
0.0484029
0.0482159
0.0480893
0.0480286
0.0480166
0.0480131
0.0480119
0.0480166
0.0480129
0.0480184
0.0480173
0.0480142
0.048016
0.0480135
0.0480146
0.0480172
0.0480357
0.0480827
0.0482084
0.0484138
0.0483644
0.0482051
0.0480956
0.048046
0.0480345
0.0480317
0.0480307
0.0480344
0.0480317
0.0480361
0.0480352
0.0480326
0.0480338
0.0480319
0.0480326
0.0480354
0.0480503
0.0480913
0.0481922
0.0483641
0.0483206
0.0481863
0.0480936
0.0480535
0.0480429
0.0480408
0.04804
0.0480429
0.0480409
0.0480446
0.0480439
0.0480416
0.0480424
0.048041
0.0480413
0.048044
0.0480558
0.0480908
0.0481715
0.0483136
0.0482759
0.0481641
0.0480873
0.0480553
0.0480461
0.0480445
0.0480439
0.0480463
0.0480448
0.0480479
0.0480474
0.0480452
0.0480457
0.0480446
0.0480447
0.0480471
0.0480564
0.0480855
0.0481499
0.0482655
0.048234
0.0481422
0.04808
0.0480546
0.0480469
0.0480457
0.0480453
0.0480472
0.0480461
0.0480489
0.0480484
0.0480464
0.0480467
0.0480457
0.0480456
0.0480476
0.048055
0.0480787
0.0481299
0.0482227
0.0481977
0.0481228
0.0480733
0.0480533
0.0480469
0.0480461
0.0480458
0.0480474
0.0480466
0.048049
0.0480487
0.0480467
0.0480469
0.048046
0.0480459
0.0480474
0.0480533
0.0480722
0.0481131
0.0481871
0.0481689
0.0481075
0.048068
0.0480521
0.0480468
0.0480462
0.0480461
0.0480474
0.0480469
0.048049
0.0480488
0.0480469
0.048047
0.0480462
0.0480459
0.0480471
0.0480518
0.0480671
0.0481003
0.0481598
0.0481504
0.0480977
0.0480647
0.0480513
0.0480468
0.0480463
0.0480462
0.0480474
0.048047
0.048049
0.0480488
0.0480469
0.048047
0.0480462
0.0480459
0.0480469
0.0480509
0.0480638
0.0480923
0.0481427
)
;

boundaryField
{
    fuel
    {
        type            fixedValue;
        value           uniform 0;
    }
    wall
    {
        type            zeroGradient;
    }
    outlet
    {
        type            zeroGradient;
    }
    frontAndBack
    {
        type            empty;
    }
}


// ************************************************************************* //
