/*--------------------------------*- C++ -*----------------------------------*\
| =========                 |                                                 |
| \\      /  F ield         | OpenFOAM: The Open Source CFD Toolbox           |
|  \\    /   O peration     | Version:  dev                                   |
|   \\  /    A nd           | Web:      www.OpenFOAM.org                      |
|    \\/     M anipulation  |                                                 |
\*---------------------------------------------------------------------------*/
FoamFile
{
    version     2.0;
    format      ascii;
    class       volScalarField;
    location    "0.2";
    object      H2C4O;
}
// * * * * * * * * * * * * * * * * * * * * * * * * * * * * * * * * * * * * * //

dimensions      [0 0 0 0 0 0 0];

internalField   nonuniform List<scalar> 
1000
(
5.84912e-06
1.61325e-05
1.61454e-05
1.60828e-05
1.6084e-05
1.60775e-05
1.60777e-05
1.60781e-05
1.60783e-05
1.60776e-05
1.60777e-05
1.60784e-05
1.60779e-05
1.6078e-05
1.60779e-05
1.60801e-05
1.60894e-05
1.61318e-05
1.61009e-05
2.06773e-06
1.29809e-05
1.05365e-05
1.0181e-05
1.00074e-05
1.00049e-05
9.99121e-06
9.99189e-06
9.99196e-06
9.99229e-06
9.99158e-06
9.99157e-06
9.99229e-06
9.99144e-06
9.9913e-06
9.99197e-06
9.996e-06
1.00215e-05
1.01861e-05
1.12356e-05
3.51576e-06
3.03711e-05
7.78437e-06
7.3877e-06
7.16566e-06
7.16355e-06
7.14487e-06
7.14552e-06
7.14574e-06
7.1464e-06
7.14536e-06
7.14564e-06
7.14634e-06
7.14507e-06
7.14449e-06
7.14602e-06
7.15146e-06
7.18472e-06
7.38299e-06
8.61193e-06
3.84076e-06
1.87134e-05
6.51666e-06
6.11395e-06
5.85399e-06
5.8511e-06
5.82831e-06
5.82802e-06
5.82918e-06
5.83018e-06
5.82869e-06
5.82939e-06
5.83007e-06
5.82831e-06
5.82681e-06
5.82975e-06
5.83677e-06
5.8773e-06
6.0981e-06
7.3713e-06
3.88737e-06
1.34799e-05
5.78575e-06
5.38599e-06
5.08817e-06
5.08409e-06
5.05743e-06
5.05529e-06
5.0582e-06
5.05957e-06
5.0575e-06
5.05876e-06
5.05942e-06
5.05706e-06
5.05414e-06
5.05913e-06
5.06787e-06
5.11577e-06
5.35406e-06
6.62467e-06
3.83282e-06
1.02927e-05
5.28101e-06
4.85767e-06
4.55316e-06
4.54749e-06
4.51712e-06
4.51255e-06
4.51773e-06
4.51947e-06
4.51675e-06
4.51866e-06
4.51929e-06
4.51626e-06
4.51175e-06
4.51909e-06
4.52964e-06
4.58521e-06
4.83606e-06
6.07526e-06
3.72234e-06
8.87741e-06
4.86688e-06
4.46752e-06
4.13768e-06
4.12966e-06
4.09599e-06
4.08956e-06
4.09636e-06
4.0985e-06
4.095e-06
4.09771e-06
4.0983e-06
4.09444e-06
4.08869e-06
4.0983e-06
4.11047e-06
4.17446e-06
4.43379e-06
5.62277e-06
3.59112e-06
8.18798e-06
4.52725e-06
4.14717e-06
3.79172e-06
3.78315e-06
3.74771e-06
3.74195e-06
3.74788e-06
3.75038e-06
3.74644e-06
3.74962e-06
3.75017e-06
3.74578e-06
3.74138e-06
3.7505e-06
3.76329e-06
3.83352e-06
4.10254e-06
5.22852e-06
3.43903e-06
7.76961e-06
4.25327e-06
3.86273e-06
3.48341e-06
3.48847e-06
3.45346e-06
3.45145e-06
3.45349e-06
3.45638e-06
3.4524e-06
3.45563e-06
3.45614e-06
3.45151e-06
3.45081e-06
3.45694e-06
3.46873e-06
3.5263e-06
3.79695e-06
4.87469e-06
3.15285e-06
7.42695e-06
3.99701e-06
3.59243e-06
3.2236e-06
3.21993e-06
3.18057e-06
3.1819e-06
3.17999e-06
3.18332e-06
3.17915e-06
3.18266e-06
3.18318e-06
3.17742e-06
3.18146e-06
3.18484e-06
3.19864e-06
3.2726e-06
3.50636e-06
4.55206e-06
2.57355e-06
7.06996e-06
3.77153e-06
3.34819e-06
2.97848e-06
2.9716e-06
2.93271e-06
2.93363e-06
2.93147e-06
2.93513e-06
2.93093e-06
2.93455e-06
2.93509e-06
2.92782e-06
2.93327e-06
2.93743e-06
2.95195e-06
3.02991e-06
3.27849e-06
4.25613e-06
1.82734e-06
6.66332e-06
3.54963e-06
3.122e-06
2.75975e-06
2.74964e-06
2.71111e-06
2.70985e-06
2.7091e-06
2.71316e-06
2.70931e-06
2.71265e-06
2.71325e-06
2.70382e-06
2.70809e-06
2.71629e-06
2.73155e-06
2.81331e-06
3.0612e-06
3.98343e-06
1.23918e-06
6.20493e-06
3.33999e-06
2.90678e-06
2.56245e-06
2.54944e-06
2.51157e-06
2.50659e-06
2.50859e-06
2.51314e-06
2.50993e-06
2.51266e-06
2.5134e-06
2.50102e-06
2.52896e-06
2.51724e-06
2.53295e-06
2.61748e-06
2.85115e-06
3.73217e-06
9.47804e-07
5.71078e-06
3.14246e-06
2.74585e-06
2.38347e-06
2.36774e-06
2.33102e-06
2.3454e-06
2.32676e-06
2.3319e-06
2.32939e-06
2.33144e-06
2.3324e-06
2.31568e-06
2.34454e-06
2.33674e-06
2.35295e-06
2.43931e-06
2.68168e-06
3.48254e-06
8.92526e-07
5.20468e-06
2.96548e-06
2.58466e-06
2.22034e-06
2.20227e-06
2.16679e-06
2.17956e-06
2.16107e-06
2.16716e-06
2.16522e-06
2.16671e-06
2.16802e-06
2.16807e-06
2.17689e-06
2.17261e-06
2.18924e-06
2.2764e-06
2.50416e-06
3.23161e-06
9.76196e-07
4.71066e-06
2.79824e-06
2.42013e-06
2.07113e-06
2.05131e-06
2.0172e-06
2.02719e-06
2.00968e-06
2.01717e-06
2.01561e-06
2.01673e-06
2.01837e-06
2.01692e-06
2.02488e-06
2.02315e-06
2.04007e-06
2.12702e-06
2.3386e-06
3.03038e-06
1.12335e-06
4.24889e-06
2.63432e-06
2.26485e-06
1.93435e-06
1.91344e-06
1.88085e-06
1.88846e-06
1.87097e-06
1.88053e-06
1.87915e-06
1.88007e-06
1.88201e-06
1.87858e-06
1.88708e-06
1.88696e-06
1.90399e-06
1.98976e-06
2.18588e-06
2.84073e-06
1.28413e-06
3.8342e-06
2.47695e-06
2.1158e-06
1.80875e-06
1.78744e-06
1.75653e-06
1.76236e-06
1.74342e-06
1.75599e-06
1.75467e-06
1.75548e-06
1.75768e-06
1.75131e-06
1.76196e-06
1.76277e-06
1.77972e-06
1.86343e-06
2.04524e-06
2.66403e-06
1.43027e-06
3.47613e-06
2.3293e-06
2.00239e-06
1.69323e-06
1.67221e-06
1.64318e-06
1.64784e-06
1.64058e-06
1.64249e-06
1.64114e-06
1.64185e-06
1.64428e-06
1.63329e-06
1.64816e-06
1.64945e-06
1.66617e-06
1.74702e-06
1.91582e-06
2.50136e-06
1.54852e-06
3.12117e-06
2.19038e-06
1.88912e-06
1.58662e-06
1.56675e-06
1.53977e-06
1.54356e-06
1.53547e-06
1.53894e-06
1.53759e-06
1.53819e-06
1.54084e-06
1.53723e-06
1.54462e-06
1.546e-06
1.56233e-06
1.63954e-06
1.79677e-06
2.33588e-06
1.6347e-06
2.85179e-06
2.05974e-06
1.77342e-06
1.49816e-06
1.47006e-06
1.44536e-06
1.44845e-06
1.43887e-06
1.44439e-06
1.44307e-06
1.44354e-06
1.44637e-06
1.44767e-06
1.45016e-06
1.45142e-06
1.46726e-06
1.53955e-06
1.68745e-06
2.18203e-06
1.6902e-06
2.63032e-06
1.93712e-06
1.66631e-06
1.41307e-06
1.3809e-06
1.35902e-06
1.36147e-06
1.36039e-06
1.35788e-06
1.35662e-06
1.35686e-06
1.3599e-06
1.36032e-06
1.36364e-06
1.36475e-06
1.38003e-06
1.44835e-06
1.58719e-06
2.04468e-06
1.7183e-06
2.42786e-06
1.82224e-06
1.56684e-06
1.3398e-06
1.30979e-06
1.28897e-06
1.29134e-06
1.28989e-06
1.28792e-06
1.28667e-06
1.28637e-06
1.28999e-06
1.28997e-06
1.29361e-06
1.29459e-06
1.30924e-06
1.3728e-06
1.49546e-06
1.9169e-06
1.7234e-06
2.26379e-06
1.71493e-06
1.47373e-06
1.26956e-06
1.24021e-06
1.22081e-06
1.22281e-06
1.22108e-06
1.21959e-06
1.21835e-06
1.21896e-06
1.22189e-06
1.22137e-06
1.22539e-06
1.2262e-06
1.24045e-06
1.30202e-06
1.41108e-06
1.80141e-06
1.70973e-06
2.12797e-06
1.61499e-06
1.38512e-06
1.20925e-06
1.1816e-06
1.16359e-06
1.16535e-06
1.16348e-06
1.16236e-06
1.16119e-06
1.1613e-06
1.16473e-06
1.16389e-06
1.168e-06
1.1687e-06
1.1822e-06
1.23979e-06
1.3421e-06
1.69687e-06
1.68069e-06
1.98751e-06
1.52247e-06
1.31551e-06
1.15481e-06
1.12879e-06
1.1122e-06
1.1137e-06
1.11178e-06
1.11094e-06
1.10986e-06
1.10983e-06
1.11332e-06
1.11218e-06
1.11636e-06
1.117e-06
1.12955e-06
1.18343e-06
1.27438e-06
1.60195e-06
1.63957e-06
1.85038e-06
1.43635e-06
1.25153e-06
1.10561e-06
1.08128e-06
1.06603e-06
1.06728e-06
1.06534e-06
1.06473e-06
1.06374e-06
1.06361e-06
1.06704e-06
1.06566e-06
1.06989e-06
1.0705e-06
1.08215e-06
1.13222e-06
1.21639e-06
1.51619e-06
1.58998e-06
1.73625e-06
1.35604e-06
1.19308e-06
1.06103e-06
1.0385e-06
1.02444e-06
1.02549e-06
1.02354e-06
1.02312e-06
1.0222e-06
1.02197e-06
1.02528e-06
1.02372e-06
1.02799e-06
1.02856e-06
1.03941e-06
1.0856e-06
1.16327e-06
1.42893e-06
1.53441e-06
1.64497e-06
1.28163e-06
1.13932e-06
1.02048e-06
9.9971e-07
9.86769e-07
9.87639e-07
9.85678e-07
9.85432e-07
9.84563e-07
9.84228e-07
9.87411e-07
9.85741e-07
9.89994e-07
9.90549e-07
1.00068e-06
1.04299e-06
1.11442e-06
1.34617e-06
1.47528e-06
1.54813e-06
1.21605e-06
1.08977e-06
9.83246e-07
9.6422e-07
9.52318e-07
9.53029e-07
9.51052e-07
9.50968e-07
9.50117e-07
9.49678e-07
9.52748e-07
9.51004e-07
9.55235e-07
9.55767e-07
9.65277e-07
1.00376e-06
1.06924e-06
1.27901e-06
1.41458e-06
1.44265e-06
1.15509e-06
1.04383e-06
9.48577e-07
9.31316e-07
9.20345e-07
9.20922e-07
9.189e-07
9.19003e-07
9.18111e-07
9.17578e-07
9.20562e-07
9.18762e-07
9.22984e-07
9.23483e-07
9.32479e-07
9.67185e-07
1.0271e-06
1.21659e-06
1.35318e-06
1.35853e-06
1.09802e-06
1.0009e-06
9.15681e-07
9.00247e-07
8.90071e-07
8.90549e-07
8.88424e-07
8.88782e-07
8.87753e-07
8.87139e-07
8.90076e-07
8.88217e-07
8.9248e-07
8.92928e-07
9.01481e-07
9.32575e-07
9.87365e-07
1.15785e-06
1.29156e-06
1.27615e-06
1.04398e-06
9.60372e-07
8.83734e-07
8.69146e-07
8.60073e-07
8.60468e-07
8.58794e-07
8.5879e-07
8.58221e-07
8.57541e-07
8.60474e-07
8.58537e-07
8.6223e-07
8.6262e-07
8.70329e-07
8.99211e-07
9.46444e-07
1.10182e-06
1.2299e-06
1.1984e-06
9.89995e-07
9.17802e-07
8.51934e-07
8.39055e-07
8.30591e-07
8.30948e-07
8.29177e-07
8.29392e-07
8.28681e-07
8.27944e-07
8.30919e-07
8.28882e-07
8.32612e-07
8.32921e-07
8.40072e-07
8.66274e-07
9.07102e-07
1.04773e-06
1.16814e-06
1.1239e-06
9.39361e-07
8.78452e-07
8.19468e-07
8.08245e-07
8.00266e-07
8.00618e-07
7.98738e-07
7.99133e-07
7.98303e-07
7.97519e-07
8.00581e-07
7.98415e-07
8.02203e-07
8.02425e-07
8.08991e-07
8.32914e-07
8.68682e-07
9.94779e-07
1.10604e-06
1.05194e-06
8.89259e-07
8.38464e-07
7.85538e-07
7.75898e-07
7.68299e-07
7.68679e-07
7.66679e-07
7.67224e-07
7.66294e-07
7.65469e-07
7.6866e-07
7.66335e-07
7.70202e-07
7.70334e-07
7.76335e-07
7.98268e-07
8.29127e-07
9.42082e-07
1.04314e-06
9.81672e-07
8.38787e-07
7.97008e-07
7.4938e-07
7.41229e-07
7.33927e-07
7.34364e-07
7.32236e-07
7.32918e-07
7.31896e-07
7.3103e-07
7.3439e-07
7.31876e-07
7.35842e-07
7.35879e-07
7.41358e-07
7.61535e-07
7.8771e-07
8.8881e-07
9.79422e-07
9.12539e-07
7.86922e-07
7.53339e-07
7.10182e-07
7.03485e-07
6.96365e-07
6.96898e-07
6.9463e-07
6.95453e-07
6.94331e-07
6.93428e-07
6.96996e-07
6.9426e-07
6.98345e-07
6.98282e-07
7.03296e-07
7.21915e-07
7.43677e-07
8.3414e-07
9.14351e-07
8.43797e-07
7.32649e-07
7.06583e-07
6.67084e-07
6.61828e-07
6.54762e-07
6.5543e-07
6.53007e-07
6.53981e-07
6.52748e-07
6.5181e-07
6.55618e-07
6.52634e-07
6.56841e-07
6.56688e-07
6.61286e-07
6.78547e-07
6.96178e-07
7.77126e-07
8.47173e-07
7.73639e-07
6.75061e-07
6.55582e-07
6.19221e-07
6.15333e-07
6.08234e-07
6.09053e-07
6.06479e-07
6.07608e-07
6.06262e-07
6.05285e-07
6.0935e-07
6.06104e-07
6.10409e-07
6.1019e-07
6.14391e-07
6.30488e-07
6.44285e-07
7.1673e-07
7.77041e-07
7.00839e-07
6.13311e-07
5.99426e-07
5.65938e-07
5.63351e-07
5.56146e-07
5.57116e-07
5.54425e-07
5.55696e-07
5.54251e-07
5.53242e-07
5.57535e-07
5.54046e-07
5.5838e-07
5.58122e-07
5.61888e-07
5.76954e-07
5.87283e-07
6.52057e-07
7.03307e-07
6.24732e-07
5.46784e-07
5.37957e-07
5.06601e-07
5.05005e-07
4.98839e-07
4.99926e-07
4.9721e-07
4.98574e-07
4.9708e-07
4.96068e-07
5.00453e-07
4.96834e-07
5.01038e-07
5.0078e-07
5.03847e-07
5.17508e-07
5.25345e-07
5.82778e-07
6.25786e-07
5.46339e-07
4.78704e-07
4.72916e-07
4.45173e-07
4.44411e-07
4.38638e-07
4.39749e-07
4.37181e-07
4.38531e-07
4.37089e-07
4.36135e-07
4.40325e-07
4.36824e-07
4.40653e-07
4.40426e-07
4.42912e-07
4.55094e-07
4.60631e-07
5.10295e-07
5.45976e-07
4.69444e-07
4.13164e-07
4.08805e-07
3.85767e-07
3.85417e-07
3.80495e-07
3.8149e-07
3.79299e-07
3.80485e-07
3.79231e-07
3.7842e-07
3.82019e-07
3.78985e-07
3.8215e-07
3.81976e-07
3.8391e-07
3.93967e-07
3.98009e-07
4.38885e-07
4.68202e-07
4.00827e-07
3.57011e-07
3.52641e-07
3.35249e-07
3.34893e-07
3.312e-07
3.31937e-07
3.30312e-07
3.31197e-07
3.30248e-07
3.29652e-07
3.32321e-07
3.30064e-07
3.32345e-07
3.32241e-07
3.33646e-07
3.41108e-07
3.44446e-07
3.7568e-07
3.99586e-07
3.47898e-07
3.16314e-07
3.11191e-07
2.99427e-07
2.98803e-07
2.96405e-07
2.96817e-07
2.95798e-07
2.96336e-07
2.95718e-07
2.95348e-07
2.97021e-07
2.95619e-07
2.97017e-07
2.96985e-07
2.97951e-07
3.02875e-07
3.06024e-07
3.28028e-07
3.4742e-07
3.1409e-07
2.92452e-07
2.86741e-07
2.79377e-07
2.78469e-07
2.77078e-07
2.77215e-07
2.7666e-07
2.76922e-07
2.76555e-07
2.7635e-07
2.77283e-07
2.7653e-07
2.77297e-07
2.77309e-07
2.77994e-07
2.81006e-07
2.8407e-07
2.98865e-07
3.14565e-07
2.96408e-07
2.81463e-07
2.75774e-07
2.71134e-07
2.7008e-07
2.69285e-07
2.69255e-07
2.6896e-07
2.69068e-07
2.68833e-07
2.68713e-07
2.69266e-07
2.68853e-07
2.69304e-07
2.69324e-07
2.69874e-07
2.71759e-07
2.74611e-07
2.84749e-07
2.97483e-07
2.88511e-07
2.7745e-07
2.72233e-07
2.6898e-07
2.67922e-07
2.67399e-07
2.67299e-07
2.67109e-07
2.6716e-07
2.66966e-07
2.66872e-07
2.67308e-07
2.67006e-07
2.67362e-07
2.67365e-07
2.67866e-07
2.69205e-07
2.7175e-07
2.79248e-07
2.89732e-07
2.85023e-07
2.75954e-07
2.7121e-07
2.68596e-07
2.67586e-07
2.67172e-07
2.6705e-07
2.66896e-07
2.66932e-07
2.66744e-07
2.66657e-07
2.67067e-07
2.66793e-07
2.67129e-07
2.67115e-07
2.676e-07
2.68684e-07
2.70986e-07
2.77092e-07
2.86156e-07
)
;

boundaryField
{
    fuel
    {
        type            fixedValue;
        value           uniform 0;
    }
    wall
    {
        type            zeroGradient;
    }
    outlet
    {
        type            zeroGradient;
    }
    frontAndBack
    {
        type            empty;
    }
}


// ************************************************************************* //
