/*--------------------------------*- C++ -*----------------------------------*\
| =========                 |                                                 |
| \\      /  F ield         | OpenFOAM: The Open Source CFD Toolbox           |
|  \\    /   O peration     | Version:  dev                                   |
|   \\  /    A nd           | Web:      www.OpenFOAM.org                      |
|    \\/     M anipulation  |                                                 |
\*---------------------------------------------------------------------------*/
FoamFile
{
    version     2.0;
    format      ascii;
    class       volScalarField;
    location    "0.2";
    object      H2O;
}
// * * * * * * * * * * * * * * * * * * * * * * * * * * * * * * * * * * * * * //

dimensions      [0 0 0 0 0 0 0];

internalField   nonuniform List<scalar> 
1000
(
0.00492943
0.0605288
0.061549
0.0616478
0.061657
0.0616577
0.0616582
0.0616576
0.0616582
0.0616578
0.0616582
0.0616583
0.0616585
0.0616582
0.0616584
0.0616592
0.0616475
0.0616064
0.061045
0.0036551
0.0133414
0.0684311
0.0683672
0.0683177
0.068307
0.0683055
0.0683051
0.0683046
0.0683052
0.0683048
0.0683054
0.0683056
0.0683058
0.0683053
0.0683058
0.0683102
0.068312
0.0683699
0.0683719
0.00972297
0.0217749
0.0687156
0.0682006
0.0680726
0.0680477
0.0680445
0.068043
0.0680423
0.0680436
0.0680426
0.0680441
0.0680445
0.0680444
0.0680441
0.0680441
0.0680557
0.0680593
0.0682002
0.0683448
0.0175517
0.029669
0.0680555
0.0673559
0.067179
0.0671423
0.0671372
0.0671341
0.0671335
0.0671355
0.067134
0.0671364
0.0671373
0.0671367
0.0671359
0.0671365
0.0671548
0.0671581
0.0673676
0.0675343
0.0381583
0.0366183
0.0673662
0.066582
0.0663687
0.0663211
0.0663141
0.0663082
0.0663088
0.0663114
0.0663093
0.066313
0.0663143
0.0663131
0.0663104
0.0663132
0.0663377
0.0663408
0.0666139
0.0667938
0.0605688
0.0424114
0.066763
0.0659357
0.0656924
0.0656343
0.0656251
0.0656144
0.0656181
0.065621
0.0656184
0.0656235
0.0656252
0.0656233
0.0656169
0.0656241
0.0656542
0.0656577
0.0659557
0.0661817
0.0666039
0.0470465
0.0662428
0.0653949
0.0651247
0.0650552
0.0650434
0.0650262
0.0650343
0.0650373
0.0650339
0.0650408
0.0650428
0.0650401
0.0650282
0.0650422
0.0650785
0.065083
0.0654245
0.0656166
0.067644
0.0506676
0.0657873
0.0648833
0.0646405
0.0645523
0.0645378
0.0645175
0.0645266
0.0645291
0.0645248
0.0645334
0.0645357
0.064532
0.0645196
0.0645361
0.0645801
0.0645909
0.0649414
0.0651251
0.0676525
0.0534713
0.0653799
0.0644724
0.0641519
0.064084
0.0640747
0.0640727
0.0640663
0.064068
0.0640629
0.064073
0.0640755
0.0640705
0.0640747
0.0640723
0.0641051
0.0640986
0.0645391
0.0647226
0.0674134
0.0556353
0.0650071
0.0640588
0.0637717
0.063686
0.0636716
0.0636731
0.0636619
0.0636622
0.063656
0.0636678
0.0636706
0.0636631
0.0636749
0.0636682
0.063713
0.0637102
0.0641364
0.0643374
0.0670711
0.0572917
0.0646593
0.0636653
0.0633965
0.0632931
0.0632768
0.063273
0.0632668
0.0632665
0.0632612
0.0632714
0.0632741
0.0632639
0.0632686
0.0632728
0.0633195
0.0633265
0.0637619
0.0640013
0.0666621
0.0585443
0.0643304
0.0633434
0.0630436
0.0629302
0.062912
0.0629102
0.062902
0.0629019
0.0628998
0.0629051
0.0629077
0.0628935
0.062937
0.0629072
0.0629557
0.0629678
0.0634052
0.0636679
0.066205
0.0594741
0.0640156
0.0630125
0.0627135
0.0625905
0.0625704
0.0625963
0.0625602
0.0625617
0.0625632
0.0625621
0.0625646
0.0625444
0.0625895
0.0625644
0.0626146
0.0626319
0.0630574
0.0633479
0.0657164
0.0601482
0.0637133
0.0627262
0.0624024
0.0622702
0.0622481
0.0622612
0.0622368
0.0622414
0.0622451
0.0622385
0.062241
0.0622119
0.0622572
0.0622408
0.0622926
0.0623153
0.0627843
0.0630416
0.0652108
0.0606207
0.0633917
0.0624396
0.0621069
0.0619666
0.0619426
0.0619476
0.0619289
0.061938
0.0619418
0.0619317
0.0619345
0.0619361
0.0619454
0.0619341
0.0619872
0.0620149
0.0625142
0.0627679
0.0647093
0.0609337
0.0630481
0.062145
0.0618245
0.061678
0.0616522
0.0616525
0.0616345
0.0616492
0.0616514
0.0616399
0.0616429
0.0616419
0.0616507
0.0616425
0.0616965
0.0617281
0.0622232
0.0625052
0.0642243
0.0611223
0.0627577
0.0618625
0.0615532
0.0614025
0.0613755
0.061373
0.0613515
0.0613732
0.0613733
0.0613617
0.0613649
0.0613606
0.0613709
0.0613646
0.0614189
0.0614533
0.06194
0.0622377
0.063768
0.0612111
0.0624722
0.0615908
0.0612909
0.0611391
0.0611112
0.061107
0.061078
0.0611089
0.0611067
0.0610958
0.0610991
0.0610906
0.0611043
0.0610991
0.0611532
0.0611891
0.0616605
0.0619766
0.0633526
0.0612235
0.0621914
0.0613292
0.061035
0.0608864
0.0608581
0.0608532
0.0608466
0.0608552
0.0608511
0.0608413
0.0608444
0.0608306
0.0608494
0.0608449
0.0608983
0.0609343
0.061438
0.0617247
0.0629236
0.0611784
0.061916
0.0610769
0.0607828
0.0606432
0.0606152
0.0606099
0.0605978
0.0606112
0.0606056
0.060597
0.0605999
0.0605794
0.0606052
0.0606011
0.0606532
0.0606874
0.0611995
0.0614801
0.0625743
0.0610908
0.0616462
0.0608341
0.0605667
0.0604086
0.0603813
0.060376
0.0603566
0.0603761
0.0603694
0.060362
0.0603647
0.0603675
0.0603706
0.0603666
0.0604167
0.060473
0.0609546
0.061242
0.0622298
0.0609724
0.061363
0.0605996
0.060346
0.0601807
0.0601552
0.0601503
0.0601503
0.0601488
0.0601411
0.060135
0.0601376
0.0601433
0.0601439
0.0601403
0.0601868
0.0602541
0.0607166
0.0610101
0.0619313
0.0608335
0.0610825
0.060373
0.0601473
0.0599847
0.0599623
0.0599577
0.059955
0.0599547
0.0599464
0.0599413
0.0599445
0.059951
0.0599509
0.0599468
0.0599931
0.0600578
0.0604848
0.0607843
0.0616319
0.0606821
0.0608422
0.0601525
0.05995
0.0597973
0.0597624
0.059758
0.0597523
0.0597537
0.0597441
0.0597401
0.0597446
0.0597496
0.0597502
0.0597466
0.0597914
0.0598583
0.0602567
0.0605646
0.0613592
0.0605229
0.0606099
0.059962
0.0597673
0.0596185
0.0595855
0.0595813
0.0595735
0.0595758
0.0595658
0.0595628
0.0595682
0.0595711
0.0595731
0.0595696
0.0596131
0.0596778
0.0600297
0.0603495
0.0611014
0.0603595
0.0603885
0.059773
0.059593
0.0594478
0.059417
0.059413
0.0594034
0.0594066
0.0593961
0.059394
0.0593997
0.059401
0.0594045
0.0594011
0.0594436
0.0595049
0.0598423
0.0601394
0.0608643
0.0601944
0.060179
0.0595964
0.0594258
0.0592851
0.0592563
0.0592524
0.0592415
0.0592455
0.0592346
0.0592332
0.0592388
0.059239
0.0592438
0.0592407
0.0592819
0.0593401
0.0596609
0.0599351
0.0606305
0.0600286
0.0599641
0.0594269
0.0592654
0.05913
0.059103
0.0590991
0.0590872
0.0590918
0.0590807
0.05908
0.0590851
0.0590846
0.0590905
0.0590877
0.0591274
0.0591829
0.0594856
0.0597365
0.0603999
0.059863
0.0597431
0.059264
0.0591113
0.058982
0.0589565
0.0589525
0.0589401
0.0589451
0.0589338
0.0589336
0.0589382
0.0589375
0.0589441
0.0589416
0.0589797
0.0590325
0.0593164
0.0595433
0.0601919
0.0596995
0.059555
0.0591077
0.0589632
0.0588407
0.0588164
0.0588123
0.0587996
0.058805
0.0587937
0.0587939
0.0587978
0.0587971
0.0588042
0.0588021
0.0588384
0.0588884
0.0591535
0.0593675
0.0599789
0.0595383
0.0593746
0.0589578
0.0588208
0.058706
0.0586826
0.0586782
0.0586657
0.0586714
0.0586601
0.0586607
0.0586639
0.0586634
0.0586707
0.058669
0.0587033
0.0587505
0.0589971
0.0591983
0.0597472
0.0593798
0.0592018
0.0588149
0.0586841
0.0585782
0.0585553
0.0585503
0.0585386
0.0585444
0.0585332
0.0585341
0.0585365
0.0585366
0.0585439
0.0585424
0.0585747
0.0586187
0.0588478
0.0590363
0.0595553
0.0592244
0.0590363
0.0586713
0.0585539
0.0584528
0.0584312
0.0584292
0.0584142
0.0584206
0.0584092
0.0584107
0.0584162
0.0584127
0.0584204
0.0584194
0.0584492
0.0584938
0.0587066
0.0588821
0.0593601
0.0590732
0.0588787
0.0585344
0.0584313
0.0583389
0.0583181
0.058316
0.0583018
0.0583081
0.0582972
0.0582988
0.0583039
0.0583008
0.0583081
0.0583073
0.0583348
0.0583767
0.0585622
0.0587294
0.0591791
0.0589271
0.0587304
0.0584136
0.0583175
0.0582338
0.0582141
0.0582119
0.0581987
0.0582047
0.0581944
0.0581961
0.0582009
0.058198
0.0582049
0.0582045
0.0582294
0.0582687
0.0584368
0.058593
0.059007
0.0587877
0.0585923
0.0583029
0.058214
0.058139
0.0581206
0.0581183
0.0581063
0.0581118
0.0581023
0.058104
0.0581084
0.0581058
0.0581122
0.0581121
0.0581345
0.0581711
0.0583218
0.0584677
0.0588451
0.0586568
0.0584659
0.0582038
0.058122
0.0580557
0.0580386
0.0580364
0.0580257
0.0580307
0.0580221
0.0580237
0.0580276
0.0580254
0.0580311
0.0580315
0.0580513
0.0580853
0.0582186
0.0583546
0.0586946
0.0585358
0.0583523
0.0581176
0.0580428
0.0579849
0.0579693
0.0579672
0.0579578
0.0579621
0.0579545
0.057956
0.0579594
0.0579576
0.0579627
0.0579634
0.0579807
0.0580122
0.0581284
0.0582549
0.0585568
0.0584259
0.0582523
0.0580447
0.0579769
0.0579271
0.057913
0.057911
0.0579029
0.0579065
0.0579
0.0579013
0.0579042
0.0579028
0.0579071
0.0579083
0.0579231
0.0579521
0.0580522
0.0581686
0.0584336
0.0583281
0.0581665
0.0579852
0.0579241
0.0578819
0.0578693
0.0578674
0.0578606
0.0578634
0.057858
0.0578591
0.0578616
0.0578606
0.0578642
0.0578656
0.0578783
0.0579046
0.05799
0.0580957
0.0583264
0.0582428
0.0580946
0.0579383
0.0578837
0.0578485
0.0578372
0.0578354
0.0578297
0.0578319
0.0578274
0.0578284
0.0578305
0.0578298
0.0578328
0.0578345
0.0578453
0.057869
0.0579409
0.058036
0.058234
0.0581694
0.0580357
0.0579024
0.057854
0.0578248
0.0578151
0.0578135
0.0578088
0.0578104
0.0578068
0.0578075
0.0578093
0.0578089
0.0578114
0.0578132
0.057822
0.0578432
0.0579035
0.0579875
0.058156
0.0581068
0.0579881
0.0578759
0.0578336
0.0578096
0.0578012
0.0577996
0.0577958
0.0577969
0.057794
0.0577946
0.0577961
0.0577959
0.057798
0.0577999
0.0578073
0.057826
0.0578759
0.0579497
0.058091
0.0580538
0.05795
0.0578566
0.0578201
0.0578005
0.0577932
0.0577918
0.0577886
0.0577894
0.057787
0.0577874
0.0577887
0.0577888
0.0577905
0.0577924
0.0577987
0.057815
0.0578561
0.0579199
0.0580375
0.0580086
0.0579194
0.0578424
0.0578114
0.0577954
0.0577891
0.0577878
0.0577853
0.0577857
0.0577837
0.0577841
0.0577852
0.0577854
0.0577869
0.0577887
0.057794
0.0578081
0.0578419
0.0578963
0.0579935
0.0579699
0.0578944
0.0578318
0.0578057
0.0577927
0.0577874
0.0577861
0.057784
0.0577842
0.0577826
0.0577828
0.0577839
0.0577841
0.0577854
0.0577871
0.0577917
0.0578037
0.0578313
0.0578772
0.057957
0.0579369
0.0578737
0.0578233
0.0578017
0.0577912
0.0577866
0.0577854
0.0577837
0.0577838
0.0577824
0.0577825
0.0577835
0.0577837
0.0577849
0.0577865
0.0577904
0.0578006
0.0578231
0.0578615
0.0579267
0.0579091
0.0578567
0.0578165
0.0577986
0.0577901
0.0577862
0.0577851
0.0577836
0.0577836
0.0577824
0.0577825
0.0577834
0.0577837
0.0577847
0.0577862
0.0577896
0.0577981
0.0578165
0.0578485
0.0579018
0.0578873
0.0578436
0.0578113
0.0577963
0.0577893
0.0577859
0.0577849
0.0577836
0.0577835
0.0577825
0.0577825
0.0577834
0.0577837
0.0577846
0.0577859
0.0577889
0.0577961
0.0578114
0.0578384
0.0578824
0.0578732
0.0578352
0.057808
0.0577949
0.0577887
0.0577858
0.0577848
0.0577836
0.0577835
0.0577825
0.0577825
0.0577834
0.0577836
0.0577845
0.0577858
0.0577885
0.0577949
0.0578081
0.0578319
0.0578701
)
;

boundaryField
{
    fuel
    {
        type            fixedValue;
        value           uniform 0;
    }
    wall
    {
        type            zeroGradient;
    }
    outlet
    {
        type            zeroGradient;
    }
    frontAndBack
    {
        type            empty;
    }
}


// ************************************************************************* //
