/*--------------------------------*- C++ -*----------------------------------*\
| =========                 |                                                 |
| \\      /  F ield         | OpenFOAM: The Open Source CFD Toolbox           |
|  \\    /   O peration     | Version:  dev                                   |
|   \\  /    A nd           | Web:      www.OpenFOAM.org                      |
|    \\/     M anipulation  |                                                 |
\*---------------------------------------------------------------------------*/
FoamFile
{
    version     2.0;
    format      ascii;
    class       volScalarField;
    location    "0.2";
    object      H2O;
}
// * * * * * * * * * * * * * * * * * * * * * * * * * * * * * * * * * * * * * //

dimensions      [0 0 0 0 0 0 0];

internalField   nonuniform List<scalar> 
1000
(
0.0038019
0.0609697
0.0615702
0.0616132
0.0616277
0.061625
0.0616254
0.0616255
0.0616256
0.061625
0.0616251
0.0616257
0.0616253
0.0616259
0.0616251
0.0616254
0.0616151
0.0614996
0.0602527
0.00559281
0.0104042
0.0684116
0.0684251
0.0683636
0.0683628
0.0683569
0.068357
0.0683572
0.0683574
0.0683569
0.068357
0.0683574
0.0683569
0.0683568
0.0683571
0.068359
0.0683691
0.0684167
0.0684483
0.0151022
0.0229049
0.0683716
0.0682621
0.068107
0.0681066
0.0680921
0.0680928
0.0680929
0.0680934
0.0680925
0.0680928
0.0680934
0.0680924
0.0680919
0.068093
0.068097
0.068121
0.0682502
0.0688013
0.0245149
0.0566482
0.0675615
0.0674274
0.0671956
0.0671978
0.0671747
0.0671751
0.0671759
0.0671768
0.0671754
0.0671761
0.0671768
0.0671751
0.0671736
0.0671763
0.0671825
0.0672182
0.0673951
0.0681569
0.0330629
0.0664254
0.0668183
0.0666738
0.0663727
0.0663767
0.0663458
0.0663446
0.0663471
0.0663486
0.0663463
0.0663477
0.0663485
0.0663459
0.0663428
0.0663479
0.0663566
0.0664035
0.0666128
0.0674728
0.0402452
0.0679861
0.066191
0.0660124
0.0656863
0.0656907
0.0656527
0.0656485
0.0656539
0.065656
0.0656527
0.065655
0.0656558
0.0656522
0.0656469
0.0656552
0.0656666
0.0657252
0.0659579
0.0668718
0.0459228
0.0679271
0.0656194
0.0654804
0.0651074
0.0651103
0.0650658
0.0650589
0.0650668
0.0650695
0.0650651
0.0650685
0.0650693
0.0650644
0.065057
0.0650689
0.0650829
0.0651549
0.0654054
0.0663511
0.0502286
0.0676204
0.0651256
0.065024
0.0646031
0.0646062
0.0645575
0.0645511
0.0645583
0.0645617
0.0645564
0.0645606
0.0645613
0.0645555
0.0645496
0.0645614
0.0645767
0.06466
0.0649314
0.0658913
0.0534236
0.0673235
0.0647183
0.0646065
0.0641386
0.0641634
0.0641136
0.0641125
0.0641143
0.0641184
0.0641128
0.0641172
0.0641179
0.0641116
0.0641108
0.0641187
0.064133
0.0641995
0.0644827
0.065475
0.0557764
0.0670453
0.0643344
0.0641995
0.0637353
0.0637476
0.0636893
0.0636931
0.063689
0.0636939
0.0636877
0.0636929
0.0636936
0.0636853
0.0636917
0.0636957
0.0637138
0.0638084
0.0640459
0.0650897
0.0575046
0.0667474
0.0639951
0.0638224
0.0633429
0.0633508
0.0632912
0.0632943
0.0632898
0.0632955
0.0632889
0.0632946
0.0632954
0.0632842
0.063293
0.0632986
0.0633186
0.0634233
0.0636953
0.0647278
0.058767
0.0664017
0.0636592
0.0634635
0.0629807
0.0629839
0.0629226
0.0629218
0.0629198
0.0629265
0.0629201
0.0629256
0.0629266
0.0629112
0.0629182
0.0629311
0.0629532
0.0630687
0.0633528
0.0643829
0.0596794
0.0660019
0.063339
0.0631116
0.062642
0.0626405
0.0625779
0.0625702
0.0625732
0.0625811
0.0625755
0.0625802
0.0625815
0.0625601
0.0626092
0.0625876
0.0626115
0.0627369
0.0630123
0.0640521
0.0603273
0.0655573
0.0630336
0.0628409
0.0623225
0.0623163
0.0622531
0.0622805
0.0622458
0.0622552
0.0622505
0.0622543
0.062256
0.0622256
0.0622785
0.0622634
0.0622893
0.0624238
0.0627294
0.063708
0.0607739
0.0650851
0.0627561
0.0625619
0.0620193
0.0620085
0.0619448
0.0619701
0.0619343
0.061946
0.0619423
0.0619451
0.0619477
0.0619481
0.0619647
0.0619558
0.0619838
0.0621262
0.0624235
0.0633445
0.0610663
0.0646042
0.0624891
0.0622676
0.06173
0.0617152
0.0616513
0.061672
0.0616366
0.0616518
0.0616486
0.0616509
0.0616542
0.0616513
0.0616673
0.0616631
0.0616931
0.0618421
0.0621276
0.0630383
0.0612391
0.0641314
0.0622219
0.0619797
0.0614529
0.061435
0.0613712
0.0613879
0.0613507
0.0613711
0.0613682
0.0613701
0.0613743
0.0613669
0.061385
0.061384
0.0614157
0.0615697
0.0618438
0.0627367
0.0613186
0.063681
0.0619588
0.0616927
0.0611865
0.0611667
0.0611035
0.061117
0.0610749
0.061103
0.0611
0.0611017
0.0611067
0.0610922
0.0611162
0.0611172
0.0611503
0.0613078
0.0615715
0.0624438
0.0613264
0.0632652
0.0617052
0.0614665
0.0609298
0.0609093
0.0608473
0.0608587
0.0608418
0.0608464
0.0608431
0.0608447
0.0608506
0.0608244
0.0608596
0.0608618
0.060896
0.0610553
0.0613101
0.0621635
0.0612806
0.0628178
0.0614591
0.0612321
0.0606812
0.0606617
0.0606015
0.0606114
0.0605914
0.0606003
0.0605968
0.0605981
0.0606049
0.0605956
0.0606142
0.0606167
0.0606517
0.0608108
0.0610588
0.0618675
0.0611949
0.0624493
0.0612199
0.0609829
0.0604649
0.0604228
0.0603653
0.0603739
0.060349
0.0603636
0.06036
0.060361
0.0603686
0.0603716
0.0603784
0.0603807
0.0604164
0.0605718
0.0608171
0.0615815
0.0610816
0.0621195
0.0609872
0.060742
0.0602465
0.0601905
0.0601374
0.0601447
0.0601418
0.0601351
0.0601315
0.0601318
0.0601406
0.0601412
0.0601508
0.0601527
0.0601888
0.0603426
0.0605847
0.0613166
0.0609494
0.0617916
0.0607607
0.0605078
0.0600489
0.0599956
0.0599427
0.0599501
0.0599459
0.0599405
0.0599367
0.0599355
0.0599464
0.0599457
0.0599567
0.0599584
0.0599945
0.0601432
0.0603613
0.0610607
0.0608057
0.0615052
0.0605404
0.0602775
0.0598492
0.0597941
0.0597424
0.0597491
0.0597437
0.0597396
0.0597356
0.059737
0.0597465
0.0597441
0.059757
0.0597582
0.0597952
0.0599465
0.060145
0.0608203
0.0606556
0.0612524
0.0603264
0.0600468
0.0596687
0.059615
0.0595648
0.0595711
0.0595649
0.0595618
0.0595578
0.0595577
0.0595693
0.0595656
0.0595796
0.0595806
0.059617
0.0597643
0.0599591
0.0605938
0.0605021
0.060976
0.0601195
0.0598566
0.0594966
0.0594445
0.0593961
0.0594019
0.059395
0.0593929
0.0593889
0.0593884
0.0594008
0.0593958
0.0594107
0.0594116
0.0594469
0.0595903
0.0597667
0.0603794
0.0603472
0.0606933
0.059918
0.0596731
0.0593325
0.0592821
0.0592357
0.0592409
0.0592336
0.0592321
0.0592282
0.0592273
0.0592402
0.059234
0.0592499
0.0592508
0.0592849
0.0594234
0.0595932
0.0601772
0.0601913
0.0604478
0.0597213
0.0594972
0.0591757
0.0591277
0.0590828
0.0590876
0.0590798
0.0590791
0.0590752
0.0590739
0.059087
0.0590799
0.0590966
0.0590974
0.0591304
0.0592632
0.0594261
0.0599617
0.0600343
0.0602463
0.0595307
0.0593276
0.0590258
0.0589801
0.0589371
0.0589414
0.0589332
0.0589331
0.0589292
0.0589275
0.0589407
0.0589329
0.0589502
0.0589511
0.0589829
0.0591091
0.0592649
0.059747
0.0598769
0.0600285
0.0593559
0.0591643
0.0588824
0.0588391
0.058798
0.0588018
0.0587933
0.0587937
0.0587898
0.0587877
0.0588009
0.0587926
0.0588104
0.0588112
0.0588422
0.0589609
0.0591096
0.0595651
0.0597205
0.0597865
0.0591881
0.0590076
0.0587452
0.0587045
0.0586654
0.0586687
0.0586598
0.058661
0.0586569
0.0586544
0.0586675
0.0586588
0.058677
0.0586778
0.058708
0.0588184
0.0589604
0.0593896
0.0595648
0.0595901
0.0590275
0.058858
0.0586144
0.0585764
0.0585394
0.0585423
0.058533
0.0585351
0.0585304
0.0585276
0.0585405
0.0585317
0.0585502
0.0585509
0.0585804
0.0586818
0.0588178
0.0592197
0.05941
0.0593954
0.0588745
0.0587166
0.0584903
0.0584508
0.058418
0.0584203
0.0584132
0.0584135
0.058411
0.058408
0.0584206
0.0584118
0.0584276
0.0584281
0.0584551
0.0585518
0.058672
0.0590554
0.0592566
0.0592109
0.0587237
0.0585713
0.058374
0.0583367
0.0583067
0.0583084
0.0583015
0.0583024
0.0582995
0.0582964
0.0583085
0.0583
0.0583152
0.0583156
0.058341
0.0584295
0.0585376
0.0588979
0.0591057
0.0590353
0.0585884
0.0584453
0.0582668
0.0582317
0.0582045
0.0582056
0.058199
0.0582002
0.0581971
0.0581941
0.0582055
0.0581974
0.0582119
0.0582121
0.0582357
0.0583161
0.0584163
0.0587486
0.0589587
0.0588699
0.0584643
0.0583296
0.05817
0.0581369
0.0581126
0.0581132
0.0581069
0.0581082
0.0581052
0.0581023
0.0581128
0.0581054
0.0581188
0.058119
0.0581406
0.0582128
0.0583052
0.0586089
0.0588169
0.0587158
0.0583524
0.0582255
0.0580848
0.0580536
0.0580323
0.0580324
0.0580266
0.0580278
0.058025
0.0580222
0.0580318
0.0580251
0.0580372
0.0580375
0.0580571
0.058121
0.0582057
0.0584805
0.0586833
0.0585751
0.0582533
0.0581345
0.0580121
0.057983
0.0579645
0.057964
0.0579589
0.0579598
0.0579573
0.0579548
0.0579632
0.0579574
0.0579681
0.0579685
0.0579861
0.0580419
0.0581192
0.0583647
0.0585594
0.05845
0.0581675
0.0580577
0.0579523
0.0579253
0.0579094
0.0579085
0.057904
0.0579047
0.0579024
0.0579002
0.0579075
0.0579027
0.0579118
0.0579123
0.0579281
0.057976
0.058046
0.0582626
0.0584464
0.0583399
0.0580953
0.0579946
0.0579052
0.0578803
0.0578668
0.0578655
0.0578616
0.057862
0.05786
0.0578581
0.0578643
0.0578604
0.0578681
0.0578688
0.0578827
0.0579232
0.0579862
0.0581746
0.0583452
0.058245
0.058036
0.0579447
0.0578697
0.057847
0.0578356
0.057834
0.0578307
0.0578308
0.0578291
0.0578275
0.0578326
0.0578296
0.057836
0.0578368
0.0578491
0.0578828
0.057939
0.0581007
0.0582563
0.0581647
0.0579879
0.0579066
0.057844
0.0578235
0.0578142
0.0578124
0.0578096
0.0578095
0.057808
0.0578067
0.0578108
0.0578087
0.0578138
0.0578148
0.0578254
0.0578532
0.057903
0.0580399
0.0581795
0.0580978
0.0579502
0.0578784
0.0578269
0.0578086
0.0578008
0.0577988
0.0577964
0.0577961
0.0577948
0.0577938
0.0577971
0.0577956
0.0577998
0.0578009
0.05781
0.0578328
0.0578762
0.0579908
0.058114
0.0580427
0.0579206
0.0578581
0.0578158
0.0577997
0.0577931
0.0577911
0.0577891
0.0577886
0.0577874
0.0577866
0.0577894
0.0577884
0.0577917
0.0577929
0.0578007
0.0578194
0.0578567
0.0579515
0.0580584
0.0579974
0.057897
0.0578435
0.0578089
0.0577949
0.0577893
0.0577873
0.0577855
0.057785
0.0577838
0.0577832
0.0577855
0.0577849
0.0577877
0.0577888
0.0577955
0.0578107
0.0578424
0.0579198
0.0580112
0.0579599
0.057878
0.0578326
0.0578044
0.0577924
0.0577876
0.0577856
0.057784
0.0577835
0.0577824
0.057782
0.0577839
0.0577836
0.0577858
0.057787
0.0577926
0.0578051
0.0578317
0.0578942
0.057971
0.0579288
0.0578622
0.0578242
0.0578012
0.057791
0.0577868
0.057785
0.0577835
0.057783
0.0577819
0.0577817
0.0577833
0.0577832
0.0577851
0.0577862
0.057791
0.0578011
0.0578232
0.0578731
0.0579368
0.0579034
0.0578492
0.0578174
0.0577987
0.05779
0.0577864
0.0577847
0.0577834
0.0577829
0.0577818
0.0577816
0.0577831
0.0577832
0.0577847
0.0577858
0.0577898
0.0577982
0.0578164
0.0578559
0.0579084
0.0578836
0.057839
0.0578122
0.0577967
0.0577893
0.0577861
0.0577846
0.0577833
0.0577828
0.0577817
0.0577817
0.057783
0.0577831
0.0577845
0.0577856
0.057789
0.0577959
0.0578111
0.0578427
0.0578863
0.0578711
0.0578326
0.0578088
0.0577954
0.0577888
0.0577859
0.0577844
0.0577833
0.0577828
0.0577817
0.0577817
0.0577829
0.0577832
0.0577843
0.0577854
0.0577885
0.0577945
0.0578078
0.0578343
0.0578721
)
;

boundaryField
{
    fuel
    {
        type            fixedValue;
        value           uniform 0;
    }
    wall
    {
        type            zeroGradient;
    }
    outlet
    {
        type            zeroGradient;
    }
    frontAndBack
    {
        type            empty;
    }
}


// ************************************************************************* //
