/*--------------------------------*- C++ -*----------------------------------*\
| =========                 |                                                 |
| \\      /  F ield         | OpenFOAM: The Open Source CFD Toolbox           |
|  \\    /   O peration     | Version:  dev                                   |
|   \\  /    A nd           | Web:      www.OpenFOAM.org                      |
|    \\/     M anipulation  |                                                 |
\*---------------------------------------------------------------------------*/
FoamFile
{
    version     2.0;
    format      ascii;
    class       volScalarField;
    location    "0.2";
    object      H2O2;
}
// * * * * * * * * * * * * * * * * * * * * * * * * * * * * * * * * * * * * * //

dimensions      [0 0 0 0 0 0 0];

internalField   nonuniform List<scalar> 
1000
(
6.0426e-05
2.4788e-07
1.99326e-07
1.95824e-07
1.95099e-07
1.95107e-07
1.95097e-07
1.95099e-07
1.95098e-07
1.95114e-07
1.95107e-07
1.95088e-07
1.95104e-07
1.9507e-07
1.95107e-07
1.95133e-07
1.9585e-07
2.02804e-07
2.86117e-07
2.43747e-05
0.000156556
8.25639e-08
2.98667e-08
2.90948e-08
2.90824e-08
2.90388e-08
2.90483e-08
2.90433e-08
2.90434e-08
2.90444e-08
2.90428e-08
2.9043e-08
2.90422e-08
2.90417e-08
2.90434e-08
2.90494e-08
2.91412e-08
2.99865e-08
5.40448e-08
5.16645e-05
0.000288413
1.04836e-07
6.55008e-09
6.15093e-09
6.17746e-09
6.15032e-09
6.15665e-09
6.15283e-09
6.15353e-09
6.15299e-09
6.15252e-09
6.15323e-09
6.15237e-09
6.15333e-09
6.1528e-09
6.15491e-09
6.1765e-09
6.36331e-09
2.8232e-08
6.37134e-05
2.34648e-05
2.30066e-08
2.0362e-09
1.86713e-09
1.88585e-09
1.86996e-09
1.87411e-09
1.87149e-09
1.87217e-09
1.87161e-09
1.87147e-09
1.87186e-09
1.87141e-09
1.872e-09
1.87157e-09
1.87249e-09
1.88074e-09
1.95218e-09
2.40992e-08
6.654e-05
2.50145e-06
3.76873e-09
8.3203e-10
7.4699e-10
7.59286e-10
7.49499e-10
7.52299e-10
7.50543e-10
7.51069e-10
7.50663e-10
7.50638e-10
7.50835e-10
7.50569e-10
7.50894e-10
7.50638e-10
7.51078e-10
7.54932e-10
7.90536e-10
2.19164e-08
6.35996e-05
2.89215e-07
8.47219e-10
4.06967e-10
3.69185e-10
3.77501e-10
3.713e-10
3.73103e-10
3.72014e-10
3.72372e-10
3.72097e-10
3.72111e-10
3.72214e-10
3.72042e-10
3.72243e-10
3.72077e-10
3.72307e-10
3.74207e-10
3.93632e-10
1.94819e-08
5.72524e-05
3.7042e-08
3.64323e-10
2.41925e-10
2.19043e-10
2.24739e-10
2.20769e-10
2.21851e-10
2.21224e-10
2.21473e-10
2.21251e-10
2.21313e-10
2.2137e-10
2.21208e-10
2.21218e-10
2.21274e-10
2.21406e-10
2.22398e-10
2.3278e-10
1.67593e-08
4.91997e-05
6.74354e-09
2.21749e-10
1.66328e-10
1.52486e-10
1.56543e-10
1.54024e-10
1.54674e-10
1.54313e-10
1.5448e-10
1.54324e-10
1.5438e-10
1.54414e-10
1.54292e-10
1.54313e-10
1.54346e-10
1.54398e-10
1.54877e-10
1.59898e-10
1.38292e-08
4.02061e-05
2.42964e-09
1.61057e-10
1.26909e-10
1.19603e-10
1.23601e-10
1.2209e-10
1.22582e-10
1.22276e-10
1.22401e-10
1.22297e-10
1.22334e-10
1.22357e-10
1.22267e-10
1.22352e-10
1.22309e-10
1.2223e-10
1.21111e-10
1.21636e-10
1.06281e-08
3.03283e-05
1.49434e-09
1.27492e-10
1.04698e-10
1.02722e-10
1.05577e-10
1.04517e-10
1.04934e-10
1.04615e-10
1.04717e-10
1.04651e-10
1.04676e-10
1.04694e-10
1.04596e-10
1.04803e-10
1.04677e-10
1.04643e-10
1.04011e-10
9.96678e-11
7.30408e-09
2.02421e-05
1.214e-09
1.08969e-10
9.19842e-11
9.2659e-11
9.50817e-11
9.44447e-11
9.47316e-11
9.44899e-11
9.45802e-11
9.4539e-11
9.45528e-11
9.45709e-11
9.44527e-11
9.46497e-11
9.45676e-11
9.45153e-11
9.37338e-11
8.78133e-11
4.2555e-09
1.12506e-05
1.17946e-09
9.72333e-11
8.3875e-11
8.63501e-11
8.85639e-11
8.81432e-11
8.82983e-11
8.8154e-11
8.82457e-11
8.81942e-11
8.82247e-11
8.82455e-11
8.80888e-11
8.81992e-11
8.82544e-11
8.8203e-11
8.73732e-11
7.97766e-11
1.94589e-09
4.67769e-06
1.27419e-09
8.96858e-11
7.80182e-11
8.1868e-11
8.39997e-11
8.36947e-11
8.37095e-11
8.36769e-11
8.37784e-11
8.37269e-11
8.37597e-11
8.3786e-11
8.35715e-11
8.41364e-11
8.38097e-11
8.37604e-11
8.29219e-11
7.41338e-11
6.85115e-10
1.30113e-06
1.43331e-09
8.43316e-11
7.43203e-11
7.83147e-11
8.042e-11
8.01809e-11
8.05206e-11
8.01317e-11
8.02493e-11
8.02019e-11
8.02301e-11
8.02648e-11
7.99568e-11
8.05175e-11
8.02992e-11
8.02576e-11
7.9446e-11
7.05928e-11
2.29757e-10
2.41964e-07
1.60738e-09
8.01898e-11
7.10218e-11
7.52424e-11
7.73449e-11
7.71379e-11
7.74233e-11
7.70534e-11
7.71968e-11
7.71534e-11
7.71752e-11
7.7222e-11
7.72021e-11
7.74045e-11
7.72645e-11
7.72343e-11
7.6479e-11
6.75493e-11
1.10024e-10
3.97531e-08
1.75469e-09
7.63026e-11
6.78847e-11
7.2416e-11
7.45239e-11
7.43277e-11
7.45588e-11
7.41983e-11
7.43802e-11
7.43381e-11
7.43543e-11
7.44144e-11
7.43415e-11
7.45542e-11
7.44665e-11
7.44502e-11
7.37752e-11
6.50114e-11
7.77493e-11
9.94706e-09
1.84228e-09
7.21576e-11
6.50075e-11
6.97026e-11
7.1816e-11
7.16168e-11
7.18098e-11
7.14251e-11
7.16639e-11
7.16202e-11
7.16318e-11
7.17066e-11
7.15709e-11
7.18254e-11
7.17699e-11
7.17697e-11
7.1194e-11
6.27777e-11
6.19868e-11
4.03781e-09
1.8506e-09
6.76972e-11
6.22263e-11
6.70176e-11
6.91332e-11
6.89216e-11
6.90901e-11
6.86385e-11
6.89638e-11
6.89156e-11
6.89229e-11
6.90139e-11
6.87884e-11
6.91261e-11
6.90899e-11
6.91076e-11
6.8646e-11
6.0714e-11
5.19405e-11
1.97026e-09
1.77708e-09
6.30266e-11
6.00486e-11
6.42994e-11
6.64136e-11
6.61828e-11
6.63397e-11
6.61423e-11
6.62207e-11
6.61652e-11
6.6168e-11
6.62768e-11
6.59109e-11
6.63918e-11
6.63665e-11
6.64037e-11
6.60669e-11
5.87228e-11
4.53447e-11
1.02606e-09
1.60108e-09
5.82157e-11
5.77565e-11
6.14911e-11
6.36066e-11
6.33526e-11
6.35022e-11
6.32438e-11
6.33848e-11
6.33218e-11
6.33192e-11
6.3449e-11
6.32749e-11
6.35743e-11
6.35511e-11
6.36099e-11
6.34025e-11
5.67256e-11
4.08069e-11
5.55664e-10
1.39677e-09
5.3511e-11
5.52431e-11
5.88585e-11
6.0663e-11
6.03877e-11
6.05315e-11
6.01875e-11
6.0412e-11
6.03416e-11
6.03323e-11
6.04862e-11
6.04618e-11
6.06242e-11
6.05989e-11
6.0682e-11
6.05844e-11
5.4659e-11
3.80257e-11
3.1019e-10
1.17636e-09
4.90183e-11
5.26976e-11
5.5955e-11
5.7523e-11
5.7244e-11
5.73797e-11
5.73259e-11
5.72569e-11
5.71791e-11
5.71586e-11
5.73427e-11
5.72742e-11
5.74908e-11
5.74632e-11
5.75747e-11
5.7631e-11
5.24674e-11
3.64571e-11
1.77758e-10
9.41398e-10
4.47809e-11
5.00612e-11
5.3078e-11
5.4625e-11
5.42818e-11
5.44285e-11
5.43317e-11
5.4294e-11
5.42069e-11
5.41581e-11
5.43921e-11
5.42916e-11
5.45458e-11
5.45174e-11
5.46525e-11
5.48131e-11
5.01031e-11
3.54639e-11
1.04846e-10
7.40945e-10
4.08941e-11
4.72578e-11
4.98666e-11
5.12938e-11
5.08904e-11
5.10341e-11
5.08979e-11
5.08879e-11
5.07894e-11
5.07868e-11
5.10103e-11
5.08679e-11
5.11714e-11
5.1141e-11
5.13196e-11
5.17289e-11
4.75037e-11
3.4754e-11
6.44983e-11
5.78324e-10
3.73343e-11
4.41856e-11
4.66641e-11
4.8018e-11
4.75615e-11
4.77075e-11
4.75411e-11
4.7553e-11
4.7447e-11
4.74175e-11
4.76916e-11
4.75169e-11
4.78536e-11
4.78244e-11
4.80267e-11
4.85653e-11
4.49653e-11
3.40657e-11
4.2549e-11
4.26083e-10
3.4011e-11
4.14199e-11
4.32979e-11
4.45643e-11
4.406e-11
4.42061e-11
4.40138e-11
4.40446e-11
4.3932e-11
4.3894e-11
4.41971e-11
4.39912e-11
4.43596e-11
4.43332e-11
4.45526e-11
4.52165e-11
4.19659e-11
3.321e-11
3.12079e-11
3.00032e-10
3.08876e-11
3.84836e-11
3.97716e-11
4.09466e-11
4.03964e-11
4.05427e-11
4.03273e-11
4.03749e-11
4.02564e-11
4.0212e-11
4.0537e-11
4.03033e-11
4.07007e-11
4.06774e-11
4.09101e-11
4.16857e-11
3.89322e-11
3.21014e-11
2.53754e-11
2.1245e-10
2.7934e-11
3.53888e-11
3.61042e-11
3.71876e-11
3.65945e-11
3.67419e-11
3.65059e-11
3.65687e-11
3.64449e-11
3.63942e-11
3.67358e-11
3.64794e-11
3.69009e-11
3.68804e-11
3.71224e-11
3.79889e-11
3.56821e-11
3.0487e-11
2.23454e-11
1.57177e-10
2.50736e-11
3.21343e-11
3.23323e-11
3.33168e-11
3.26944e-11
3.28408e-11
3.25883e-11
3.26646e-11
3.25365e-11
3.248e-11
3.28326e-11
3.25599e-11
3.29989e-11
3.29802e-11
3.32276e-11
3.41571e-11
3.22485e-11
2.83794e-11
2.0568e-11
1.12453e-10
2.23717e-11
2.87537e-11
2.85029e-11
2.93864e-11
2.87504e-11
2.88935e-11
2.86289e-11
2.87184e-11
2.85855e-11
2.85246e-11
2.88819e-11
2.85997e-11
2.90492e-11
2.90305e-11
2.92799e-11
3.02378e-11
2.86861e-11
2.617e-11
1.91965e-11
7.64254e-11
1.96849e-11
2.53001e-11
2.46792e-11
2.54655e-11
2.48325e-11
2.49698e-11
2.46972e-11
2.48028e-11
2.46617e-11
2.45982e-11
2.49524e-11
2.46685e-11
2.51213e-11
2.51005e-11
2.53495e-11
2.62954e-11
2.50687e-11
2.36428e-11
1.77945e-11
5.49091e-11
1.70453e-11
2.18477e-11
2.0938e-11
2.16361e-11
2.10228e-11
2.1152e-11
2.08744e-11
2.10026e-11
2.08462e-11
2.07825e-11
2.1125e-11
2.08474e-11
2.12974e-11
2.12725e-11
2.15188e-11
2.24102e-11
2.14912e-11
2.08734e-11
1.61835e-11
3.94067e-11
1.44744e-11
1.84931e-11
1.73643e-11
1.78473e-11
1.73279e-11
1.74446e-11
1.72477e-11
1.73105e-11
1.72267e-11
1.71653e-11
1.74873e-11
1.72239e-11
1.75737e-11
1.75457e-11
1.77368e-11
1.86737e-11
1.77719e-11
1.79629e-11
1.4341e-11
2.86163e-11
1.19095e-11
1.50073e-11
1.405e-11
1.44466e-11
1.3984e-11
1.40877e-11
1.39045e-11
1.39778e-11
1.38893e-11
1.38323e-11
1.41256e-11
1.38839e-11
1.4205e-11
1.41736e-11
1.43456e-11
1.51842e-11
1.43761e-11
1.50421e-11
1.23334e-11
2.09469e-11
9.62623e-12
1.20318e-11
1.10734e-11
1.13913e-11
1.09932e-11
1.10825e-11
1.09188e-11
1.09927e-11
1.09083e-11
1.08574e-11
1.11154e-11
1.09015e-11
1.11855e-11
1.11531e-11
1.13003e-11
1.20266e-11
1.13972e-11
1.22386e-11
1.02686e-11
1.54018e-11
7.57642e-12
9.37496e-12
8.49193e-12
8.73876e-12
8.40918e-12
8.48368e-12
8.34366e-12
8.41093e-12
8.33689e-12
8.29319e-12
8.51196e-12
8.32965e-12
8.57053e-12
8.53987e-12
8.66034e-12
9.26606e-12
8.78219e-12
9.66115e-12
8.26072e-12
1.13129e-11
5.80178e-12
7.09263e-12
6.33579e-12
6.5199e-12
6.25854e-12
6.31849e-12
6.20406e-12
6.26102e-12
6.20005e-12
6.16396e-12
6.34252e-12
6.19299e-12
6.38887e-12
6.36174e-12
6.45658e-12
6.94164e-12
6.57586e-12
7.3949e-12
6.42941e-12
8.27289e-12
4.32415e-12
5.2148e-12
4.60284e-12
4.7361e-12
4.5365e-12
4.58327e-12
4.49364e-12
4.53949e-12
4.49155e-12
4.46296e-12
4.60332e-12
4.48522e-12
4.63822e-12
4.61542e-12
4.68771e-12
5.06021e-12
4.78932e-12
5.4913e-12
4.84646e-12
6.0438e-12
3.14309e-12
3.73649e-12
3.26272e-12
3.35836e-12
3.20981e-12
3.24554e-12
3.17783e-12
3.21333e-12
3.17698e-12
3.15531e-12
3.26165e-12
3.1718e-12
3.28671e-12
3.26857e-12
3.32205e-12
3.59691e-12
3.40071e-12
3.96332e-12
3.54863e-12
4.39864e-12
2.23832e-12
2.61464e-12
2.26561e-12
2.33227e-12
2.22475e-12
2.25103e-12
2.20176e-12
2.22825e-12
2.2016e-12
2.18568e-12
2.26351e-12
2.19755e-12
2.28061e-12
2.2671e-12
2.30557e-12
2.50149e-12
2.36243e-12
2.78955e-12
2.53825e-12
3.20695e-12
1.57024e-12
1.79364e-12
1.54771e-12
1.59355e-12
1.51609e-12
1.53482e-12
1.50004e-12
1.51923e-12
1.50023e-12
1.48882e-12
1.54431e-12
1.49716e-12
1.55528e-12
1.54577e-12
1.57268e-12
1.70889e-12
1.6121e-12
1.92463e-12
1.79011e-12
2.36753e-12
1.08633e-12
1.2102e-12
1.03475e-12
1.06435e-12
1.0185e-12
1.03152e-12
1.00754e-12
1.02113e-12
1.00787e-12
9.99829e-13
1.03865e-12
1.00558e-12
1.04509e-12
1.03881e-12
1.0549e-12
1.14521e-12
1.08414e-12
1.30948e-12
1.26366e-12
1.80137e-12
7.51934e-13
8.04648e-13
6.85823e-13
7.05495e-13
6.74608e-13
6.83485e-13
6.67252e-13
6.76705e-13
6.67602e-13
6.61991e-13
6.88787e-13
6.65897e-13
6.92151e-13
6.88239e-13
6.98042e-13
7.58847e-13
7.19748e-13
8.85149e-13
9.18236e-13
1.45104e-12
5.25073e-13
5.26945e-13
4.47518e-13
4.60171e-13
4.39845e-13
4.45754e-13
4.35001e-13
4.41431e-13
4.3531e-13
4.31456e-13
4.49634e-13
4.34063e-13
4.51168e-13
4.48793e-13
4.54928e-13
4.94953e-13
4.7228e-13
6.0382e-13
7.32466e-13
1.27991e-12
3.83343e-13
3.43663e-13
2.92322e-13
2.99608e-13
2.8721e-13
2.90833e-13
2.84146e-13
2.88236e-13
2.84359e-13
2.81832e-13
2.93535e-13
2.83505e-13
2.94171e-13
2.92727e-13
2.96608e-13
3.21733e-13
3.13802e-13
4.42634e-13
7.49505e-13
1.22341e-12
3.1717e-13
2.43932e-13
2.13532e-13
2.16187e-13
2.09939e-13
2.11619e-13
2.07994e-13
2.10229e-13
2.08006e-13
2.06438e-13
2.13389e-13
2.07513e-13
2.13762e-13
2.12813e-13
2.15506e-13
2.29988e-13
2.38791e-13
4.16696e-13
1.12409e-12
1.1001e-12
2.97009e-13
2.1448e-13
1.95862e-13
1.95162e-13
1.92295e-13
1.92714e-13
1.90649e-13
1.91908e-13
1.90361e-13
1.89169e-13
1.94109e-13
1.90099e-13
1.94491e-13
1.93601e-13
1.96248e-13
2.0535e-13
2.28698e-13
4.961e-13
1.76925e-12
8.37846e-13
2.78792e-13
2.10567e-13
1.97173e-13
1.9483e-13
1.93181e-13
1.93019e-13
1.91489e-13
1.92414e-13
1.90899e-13
1.89817e-13
1.9429e-13
1.90801e-13
1.9469e-13
1.93702e-13
1.96644e-13
2.03331e-13
2.31452e-13
5.34816e-13
2.06993e-12
5.98161e-13
2.59622e-13
2.08182e-13
1.97839e-13
1.9486e-13
1.93708e-13
1.93257e-13
1.91995e-13
1.92764e-13
1.91153e-13
1.90226e-13
1.94324e-13
1.91243e-13
1.94737e-13
1.93718e-13
1.9677e-13
2.01572e-13
2.27325e-13
4.97882e-13
1.92243e-12
4.709e-13
2.48857e-13
2.06579e-13
1.97767e-13
1.94585e-13
1.93636e-13
1.93044e-13
1.91926e-13
1.92623e-13
1.90912e-13
1.90138e-13
1.93917e-13
1.91161e-13
1.94338e-13
1.93339e-13
1.96384e-13
1.99924e-13
2.22327e-13
4.51883e-13
1.70616e-12
)
;

boundaryField
{
    fuel
    {
        type            fixedValue;
        value           uniform 0;
    }
    wall
    {
        type            zeroGradient;
    }
    outlet
    {
        type            zeroGradient;
    }
    frontAndBack
    {
        type            empty;
    }
}


// ************************************************************************* //
