/*--------------------------------*- C++ -*----------------------------------*\
| =========                 |                                                 |
| \\      /  F ield         | OpenFOAM: The Open Source CFD Toolbox           |
|  \\    /   O peration     | Version:  dev                                   |
|   \\  /    A nd           | Web:      www.OpenFOAM.org                      |
|    \\/     M anipulation  |                                                 |
\*---------------------------------------------------------------------------*/
FoamFile
{
    version     2.0;
    format      ascii;
    class       volScalarField;
    location    "0.2";
    object      HCCO;
}
// * * * * * * * * * * * * * * * * * * * * * * * * * * * * * * * * * * * * * //

dimensions      [0 0 0 0 0 0 0];

internalField   nonuniform List<scalar> 
1000
(
1.80174e-08
0.000162011
0.000161179
0.000160992
0.00016096
0.000160956
0.000160956
0.000160955
0.000160957
0.000160956
0.000160958
0.000160958
0.000160958
0.000160957
0.000160956
0.000160971
0.000160975
0.000161178
0.000161877
3.0254e-08
9.18017e-09
6.298e-05
5.88786e-05
5.84192e-05
5.83475e-05
5.83411e-05
5.83406e-05
5.83374e-05
5.8342e-05
5.83384e-05
5.83425e-05
5.83422e-05
5.83394e-05
5.83523e-05
5.83278e-05
5.83993e-05
5.83649e-05
5.89664e-05
6.0813e-05
2.45773e-08
4.01013e-09
2.45716e-05
2.1822e-05
2.15946e-05
2.15504e-05
2.15465e-05
2.15466e-05
2.15432e-05
2.15475e-05
2.15442e-05
2.15478e-05
2.15484e-05
2.15451e-05
2.15583e-05
2.15328e-05
2.16062e-05
2.15374e-05
2.20321e-05
2.34977e-05
7.49038e-07
2.4404e-09
1.18783e-05
9.82351e-06
9.72185e-06
9.6949e-06
9.69226e-06
9.69198e-06
9.68953e-06
9.6928e-06
9.69026e-06
9.6929e-06
9.69412e-06
9.69133e-06
9.7008e-06
9.6823e-06
9.74119e-06
9.67268e-06
1.00499e-05
1.15485e-05
6.70205e-05
2.39847e-09
7.02296e-06
5.36473e-06
5.3244e-06
5.30715e-06
5.30514e-06
5.30379e-06
5.30264e-06
5.30517e-06
5.30324e-06
5.30531e-06
5.30667e-06
5.30448e-06
5.30997e-06
5.29876e-06
5.3429e-06
5.2853e-06
5.58691e-06
6.75151e-06
0.000163771
3.72439e-09
4.76437e-06
3.44931e-06
3.44378e-06
3.43258e-06
3.43085e-06
3.42779e-06
3.42846e-06
3.4304e-06
3.42891e-06
3.43068e-06
3.43196e-06
3.43023e-06
3.43223e-06
3.42696e-06
3.45951e-06
3.41334e-06
3.58363e-06
4.31876e-06
8.15183e-05
8.91936e-09
3.51171e-06
2.52946e-06
2.54371e-06
2.53586e-06
2.534e-06
2.52849e-06
2.53116e-06
2.53278e-06
2.53126e-06
2.53335e-06
2.53448e-06
2.53298e-06
2.53093e-06
2.53159e-06
2.55638e-06
2.51966e-06
2.64711e-06
2.991e-06
3.84978e-05
3.35953e-08
2.72161e-06
2.00252e-06
2.07404e-06
2.06321e-06
2.06083e-06
2.05429e-06
2.05755e-06
2.05876e-06
2.05734e-06
2.05949e-06
2.06049e-06
2.05903e-06
2.05601e-06
2.05921e-06
2.08014e-06
2.05354e-06
2.12178e-06
2.26275e-06
2.06268e-05
1.49139e-07
2.1806e-06
1.72208e-06
1.7715e-06
1.77895e-06
1.78007e-06
1.78179e-06
1.77859e-06
1.77947e-06
1.77806e-06
1.78031e-06
1.78121e-06
1.77966e-06
1.78292e-06
1.77876e-06
1.78781e-06
1.75575e-06
1.82426e-06
1.85032e-06
1.28944e-05
4.89834e-07
1.79034e-06
1.52531e-06
1.60377e-06
1.60615e-06
1.60559e-06
1.60844e-06
1.60361e-06
1.60402e-06
1.60245e-06
1.60509e-06
1.60598e-06
1.60388e-06
1.60912e-06
1.60432e-06
1.61487e-06
1.58831e-06
1.61653e-06
1.56485e-06
9.1627e-06
1.0678e-06
1.49959e-06
1.38481e-06
1.47738e-06
1.47717e-06
1.47645e-06
1.477e-06
1.47425e-06
1.47459e-06
1.47339e-06
1.47543e-06
1.47621e-06
1.47365e-06
1.4756e-06
1.47523e-06
1.48388e-06
1.4615e-06
1.47175e-06
1.3761e-06
7.10544e-06
1.6837e-06
1.27843e-06
1.29093e-06
1.37983e-06
1.37906e-06
1.37814e-06
1.37857e-06
1.37586e-06
1.37633e-06
1.37572e-06
1.37677e-06
1.37747e-06
1.37414e-06
1.38509e-06
1.37682e-06
1.38443e-06
1.3635e-06
1.36036e-06
1.22977e-06
5.82874e-06
1.99709e-06
1.10818e-06
1.20843e-06
1.29968e-06
1.29797e-06
1.29686e-06
1.30333e-06
1.29443e-06
1.29531e-06
1.29537e-06
1.29517e-06
1.29582e-06
1.29131e-06
1.30169e-06
1.29528e-06
1.30235e-06
1.28234e-06
1.26698e-06
1.11561e-06
4.95935e-06
1.96095e-06
9.77484e-07
1.14466e-06
1.23004e-06
1.22702e-06
1.22564e-06
1.22895e-06
1.22289e-06
1.22449e-06
1.2249e-06
1.22368e-06
1.22432e-06
1.21803e-06
1.22793e-06
1.22381e-06
1.23063e-06
1.21143e-06
1.20022e-06
1.02284e-06
4.30998e-06
1.75426e-06
8.68773e-07
1.08619e-06
1.16701e-06
1.16255e-06
1.1609e-06
1.16234e-06
1.15756e-06
1.16011e-06
1.16045e-06
1.15864e-06
1.15933e-06
1.15942e-06
1.1617e-06
1.15881e-06
1.16554e-06
1.14703e-06
1.13862e-06
9.49583e-07
3.78433e-06
1.49743e-06
7.7876e-07
1.03007e-06
1.10834e-06
1.10247e-06
1.10058e-06
1.10098e-06
1.0963e-06
1.10002e-06
1.09999e-06
1.09798e-06
1.09871e-06
1.0981e-06
1.10041e-06
1.09822e-06
1.10492e-06
1.08699e-06
1.07584e-06
8.8585e-07
3.32568e-06
1.23588e-06
7.18637e-07
9.78857e-07
1.05258e-06
1.04546e-06
1.04337e-06
1.0432e-06
1.03774e-06
1.04288e-06
1.04237e-06
1.04041e-06
1.04117e-06
1.0398e-06
1.04255e-06
1.04076e-06
1.04745e-06
1.03e-06
1.01719e-06
8.26184e-07
2.91048e-06
9.98271e-07
6.72572e-07
9.31133e-07
9.98661e-07
9.90617e-07
9.88398e-07
9.8789e-07
9.80854e-07
9.87823e-07
9.86835e-07
9.85051e-07
9.85829e-07
9.83549e-07
9.87103e-07
9.85537e-07
9.92212e-07
9.75172e-07
9.60932e-07
7.72074e-07
2.53488e-06
7.99057e-07
6.37502e-07
8.8583e-07
9.45587e-07
9.37252e-07
9.34973e-07
9.34329e-07
9.31881e-07
9.3422e-07
9.32794e-07
9.31243e-07
9.32008e-07
9.28622e-07
9.33316e-07
9.31886e-07
9.38537e-07
9.21814e-07
9.16702e-07
7.23157e-07
2.14574e-06
6.43703e-07
6.10851e-07
8.42106e-07
8.92428e-07
8.84783e-07
8.82533e-07
8.8181e-07
8.78076e-07
8.81519e-07
8.79732e-07
8.78436e-07
8.79168e-07
8.74468e-07
8.80612e-07
8.79255e-07
8.8585e-07
8.69226e-07
8.69607e-07
6.78699e-07
1.83286e-06
5.30322e-07
5.90245e-07
7.99324e-07
8.4571e-07
8.32676e-07
8.3056e-07
8.29812e-07
8.24464e-07
8.29254e-07
8.2716e-07
8.26122e-07
8.26843e-07
8.27275e-07
8.28489e-07
8.27138e-07
8.33596e-07
8.22332e-07
8.21225e-07
6.37888e-07
1.5337e-06
4.52215e-07
5.72237e-07
7.56738e-07
7.96452e-07
7.80311e-07
7.78509e-07
7.77819e-07
7.76814e-07
7.76934e-07
7.74554e-07
7.73776e-07
7.74529e-07
7.75481e-07
7.7628e-07
7.75019e-07
7.8108e-07
7.72899e-07
7.73755e-07
6.00095e-07
1.28904e-06
4.00613e-07
5.55757e-07
7.13734e-07
7.50257e-07
7.33215e-07
7.32042e-07
7.31372e-07
7.29643e-07
7.30225e-07
7.27611e-07
7.2704e-07
7.27992e-07
7.28975e-07
7.29784e-07
7.28402e-07
7.3483e-07
7.26757e-07
7.26566e-07
5.64756e-07
1.06547e-06
3.67147e-07
5.41158e-07
6.69543e-07
7.02239e-07
6.85961e-07
6.81565e-07
6.8087e-07
6.78373e-07
6.79503e-07
6.76494e-07
6.76123e-07
6.77433e-07
6.77986e-07
6.79069e-07
6.77803e-07
6.84354e-07
6.77734e-07
6.7876e-07
5.31161e-07
8.8675e-07
3.45594e-07
5.2526e-07
6.2884e-07
6.55422e-07
6.3847e-07
6.34414e-07
6.33712e-07
6.307e-07
6.32179e-07
6.28956e-07
6.28764e-07
6.30316e-07
6.30388e-07
6.31848e-07
6.30587e-07
6.37341e-07
6.31113e-07
6.29474e-07
4.98627e-07
7.40068e-07
3.31979e-07
5.07152e-07
5.85596e-07
6.08181e-07
5.90614e-07
5.86908e-07
5.86198e-07
5.82768e-07
5.84553e-07
5.81136e-07
5.81103e-07
5.82752e-07
5.8244e-07
5.843e-07
5.83049e-07
5.90039e-07
5.84018e-07
5.86792e-07
4.66572e-07
6.22578e-07
3.23097e-07
4.85946e-07
5.42238e-07
5.60343e-07
5.42405e-07
5.39003e-07
5.38272e-07
5.34538e-07
5.36581e-07
5.33004e-07
5.33101e-07
5.34731e-07
5.34179e-07
5.36373e-07
5.35153e-07
5.423e-07
5.36644e-07
5.43284e-07
4.34283e-07
5.26162e-07
3.16269e-07
4.59017e-07
4.97612e-07
5.11903e-07
4.93871e-07
4.90743e-07
4.89972e-07
4.86059e-07
4.88306e-07
4.84613e-07
4.84813e-07
4.86361e-07
4.85675e-07
4.88121e-07
4.86941e-07
4.9416e-07
4.88991e-07
4.98918e-07
4.01225e-07
4.46919e-07
3.08597e-07
4.25854e-07
4.51943e-07
4.63007e-07
4.45185e-07
4.42289e-07
4.41464e-07
4.37487e-07
4.39892e-07
4.36127e-07
4.36409e-07
4.37843e-07
4.37097e-07
4.39711e-07
4.38573e-07
4.45768e-07
4.41117e-07
4.53793e-07
3.67041e-07
3.86983e-07
2.97887e-07
3.92854e-07
4.05589e-07
4.13912e-07
3.9664e-07
3.93937e-07
3.93035e-07
3.89128e-07
3.91635e-07
3.87853e-07
3.88194e-07
3.89491e-07
3.88751e-07
3.91449e-07
3.90348e-07
3.97416e-07
3.93252e-07
4.08152e-07
3.33718e-07
3.35631e-07
2.82712e-07
3.56744e-07
3.59081e-07
3.65026e-07
3.48681e-07
3.46138e-07
3.45124e-07
3.41438e-07
3.43984e-07
3.40251e-07
3.40628e-07
3.41749e-07
3.411e-07
3.43794e-07
3.42719e-07
3.49546e-07
3.45802e-07
3.62393e-07
2.99437e-07
2.87981e-07
2.62641e-07
3.18232e-07
3.13161e-07
3.16912e-07
3.01914e-07
2.995e-07
2.98313e-07
2.95026e-07
2.97538e-07
2.93931e-07
2.94319e-07
2.95197e-07
2.9475e-07
2.9735e-07
2.96289e-07
3.02752e-07
2.99335e-07
3.17114e-07
2.64611e-07
2.52486e-07
2.38106e-07
2.78243e-07
2.66077e-07
2.70331e-07
2.55421e-07
2.53367e-07
2.53307e-07
2.48961e-07
2.51569e-07
2.48004e-07
2.48522e-07
2.50524e-07
2.48818e-07
2.51451e-07
2.50483e-07
2.56414e-07
2.54545e-07
2.73142e-07
2.2979e-07
2.18966e-07
2.10182e-07
2.38009e-07
2.20893e-07
2.26155e-07
2.12896e-07
2.11059e-07
2.10927e-07
2.07056e-07
2.09507e-07
2.06206e-07
2.06705e-07
2.08508e-07
2.06983e-07
2.09395e-07
2.08471e-07
2.13806e-07
2.12253e-07
2.27509e-07
1.94091e-07
1.89018e-07
1.80342e-07
1.98881e-07
1.81031e-07
1.85207e-07
1.73692e-07
1.72097e-07
1.7193e-07
1.68565e-07
1.70806e-07
1.67828e-07
1.68291e-07
1.69882e-07
1.68535e-07
1.70693e-07
1.69837e-07
1.74522e-07
1.73245e-07
1.8768e-07
1.61452e-07
1.60873e-07
1.50214e-07
1.62048e-07
1.44851e-07
1.4821e-07
1.38472e-07
1.37132e-07
1.36963e-07
1.34108e-07
1.36098e-07
1.33485e-07
1.33901e-07
1.35271e-07
1.34098e-07
1.35976e-07
1.35212e-07
1.39215e-07
1.38182e-07
1.51206e-07
1.31145e-07
1.34314e-07
1.21352e-07
1.28547e-07
1.1299e-07
1.1571e-07
1.07714e-07
1.06621e-07
1.06473e-07
1.04111e-07
1.05825e-07
1.03601e-07
1.0396e-07
1.05109e-07
1.04107e-07
1.05693e-07
1.05038e-07
1.08351e-07
1.07542e-07
1.18761e-07
1.03846e-07
1.09509e-07
9.49874e-08
9.91038e-08
8.58006e-08
8.79905e-08
8.16322e-08
8.07683e-08
8.06486e-08
7.87536e-08
8.01789e-08
7.83461e-08
7.86476e-08
7.95824e-08
7.87518e-08
8.00446e-08
7.95055e-08
8.21542e-08
8.15515e-08
9.07735e-08
8.00426e-08
8.68458e-08
7.19516e-08
7.41199e-08
6.33339e-08
6.50675e-08
6.01836e-08
5.95209e-08
5.94284e-08
5.7959e-08
5.91007e-08
5.76436e-08
5.78874e-08
5.86251e-08
5.7958e-08
5.89775e-08
5.85459e-08
6.06027e-08
6.0158e-08
6.74374e-08
5.99324e-08
6.68368e-08
5.27093e-08
5.37122e-08
4.53771e-08
4.67186e-08
4.31072e-08
4.2605e-08
4.25373e-08
4.14371e-08
4.23189e-08
4.12008e-08
4.13881e-08
4.19524e-08
4.14343e-08
4.22124e-08
4.18734e-08
4.34369e-08
4.30944e-08
4.86442e-08
4.3505e-08
4.98462e-08
3.72934e-08
3.76477e-08
3.15057e-08
3.25182e-08
2.99605e-08
2.95741e-08
2.95269e-08
2.87339e-08
2.93894e-08
2.8563e-08
2.87019e-08
2.9118e-08
2.87312e-08
2.93016e-08
2.9046e-08
3.02069e-08
2.99499e-08
3.39746e-08
3.05944e-08
3.58809e-08
2.54405e-08
2.54705e-08
2.11558e-08
2.18098e-08
2.00132e-08
1.98697e-08
1.98383e-08
1.92897e-08
1.97578e-08
1.91706e-08
1.92699e-08
1.95647e-08
1.92877e-08
1.96887e-08
1.95036e-08
2.02009e-08
2.00184e-08
2.29244e-08
2.07095e-08
2.48604e-08
1.66845e-08
1.65808e-08
1.36957e-08
1.41428e-08
1.29681e-08
1.28772e-08
1.28566e-08
1.24927e-08
1.28136e-08
1.2413e-08
1.24812e-08
1.26819e-08
1.24916e-08
1.27617e-08
1.26334e-08
1.30961e-08
1.29695e-08
1.48995e-08
1.35435e-08
1.65256e-08
1.04498e-08
1.03141e-08
8.47952e-09
8.77314e-09
8.03779e-09
7.98346e-09
7.97004e-09
7.73917e-09
7.95008e-09
7.68785e-09
7.73282e-09
7.86407e-09
7.73862e-09
7.91291e-09
7.82762e-09
8.12002e-09
8.03692e-09
9.25917e-09
8.45891e-09
1.04684e-08
6.15014e-09
6.02842e-09
4.92629e-09
5.11054e-09
4.6733e-09
4.6434e-09
4.63473e-09
4.49591e-09
4.62766e-09
4.46454e-09
4.49271e-09
4.57436e-09
4.49567e-09
4.60251e-09
4.54843e-09
4.72503e-09
4.67106e-09
5.40482e-09
4.9506e-09
6.22054e-09
3.28887e-09
3.19652e-09
2.58819e-09
2.69514e-09
2.4559e-09
2.44147e-09
2.43611e-09
2.35968e-09
2.43523e-09
2.34212e-09
2.35829e-09
2.40497e-09
2.35957e-09
2.41975e-09
2.38805e-09
2.48669e-09
2.45317e-09
2.85856e-09
2.61683e-09
3.35441e-09
1.53048e-09
1.46464e-09
1.1743e-09
1.22718e-09
1.11452e-09
1.10882e-09
1.10591e-09
1.06983e-09
1.10697e-09
1.06139e-09
1.06937e-09
1.09224e-09
1.06979e-09
1.09886e-09
1.08293e-09
1.13036e-09
1.1124e-09
1.30495e-09
1.19354e-09
1.56725e-09
6.00456e-10
5.44273e-10
4.27207e-10
4.47172e-10
4.04158e-10
4.02384e-10
4.01094e-10
3.87307e-10
4.02131e-10
3.83998e-10
3.87239e-10
3.96275e-10
3.87341e-10
3.98649e-10
3.92246e-10
4.10652e-10
4.03253e-10
4.77217e-10
4.38172e-10
6.02187e-10
2.11527e-10
1.43959e-10
1.0427e-10
1.07782e-10
9.73272e-11
9.69507e-11
9.66048e-11
9.32618e-11
9.69921e-11
9.24315e-11
9.32741e-11
9.55148e-11
9.32983e-11
9.60526e-11
9.44642e-11
9.89471e-11
9.71484e-11
1.15283e-10
1.09209e-10
1.73184e-10
2.10081e-10
5.80042e-11
2.31486e-11
2.06265e-11
1.88576e-11
1.87475e-11
1.87068e-11
1.81599e-11
1.87741e-11
1.80149e-11
1.81724e-11
1.85202e-11
1.81909e-11
1.85974e-11
1.83887e-11
1.90253e-11
1.89084e-11
2.19482e-11
2.6358e-11
7.48942e-11
)
;

boundaryField
{
    fuel
    {
        type            fixedValue;
        value           uniform 0;
    }
    wall
    {
        type            zeroGradient;
    }
    outlet
    {
        type            zeroGradient;
    }
    frontAndBack
    {
        type            empty;
    }
}


// ************************************************************************* //
