/*--------------------------------*- C++ -*----------------------------------*\
| =========                 |                                                 |
| \\      /  F ield         | OpenFOAM: The Open Source CFD Toolbox           |
|  \\    /   O peration     | Version:  dev                                   |
|   \\  /    A nd           | Web:      www.OpenFOAM.org                      |
|    \\/     M anipulation  |                                                 |
\*---------------------------------------------------------------------------*/
FoamFile
{
    version     2.0;
    format      ascii;
    class       volScalarField;
    location    "0.2";
    object      HCCO;
}
// * * * * * * * * * * * * * * * * * * * * * * * * * * * * * * * * * * * * * //

dimensions      [0 0 0 0 0 0 0];

internalField   nonuniform List<scalar> 
1000
(
4.9393e-08
0.00015759
0.000156231
0.000155905
0.000155884
0.000155863
0.000155863
0.000155862
0.000155862
0.000155861
0.00015586
0.000155862
0.000155861
0.000155861
0.000155864
0.000155872
0.000155925
0.000156305
0.000158498
1.89591e-08
7.84458e-08
5.82857e-05
5.6893e-05
5.61134e-05
5.6177e-05
5.61008e-05
5.6112e-05
5.6106e-05
5.61063e-05
5.61049e-05
5.61034e-05
5.61068e-05
5.61026e-05
5.61059e-05
5.61053e-05
5.61161e-05
5.61901e-05
5.67093e-05
6.14501e-05
9.23161e-09
5.48086e-06
2.23225e-05
2.14085e-05
2.07642e-05
2.08567e-05
2.07786e-05
2.07932e-05
2.07845e-05
2.07868e-05
2.0784e-05
2.07835e-05
2.07864e-05
2.07824e-05
2.07855e-05
2.07843e-05
2.07924e-05
2.08369e-05
2.10846e-05
2.39995e-05
3.80687e-09
0.000205255
1.07878e-05
9.87561e-06
9.40315e-06
9.48489e-06
9.42046e-06
9.43415e-06
9.42605e-06
9.42906e-06
9.42601e-06
9.42616e-06
9.4281e-06
9.42508e-06
9.42686e-06
9.42635e-06
9.43199e-06
9.45916e-06
9.5667e-06
1.15668e-05
2.34902e-09
0.000107025
6.13733e-06
5.557e-06
5.19562e-06
5.26196e-06
5.21132e-06
5.22225e-06
5.21616e-06
5.21905e-06
5.21626e-06
5.21685e-06
5.21807e-06
5.21561e-06
5.21618e-06
5.21667e-06
5.22084e-06
5.2386e-06
5.27617e-06
6.77056e-06
2.52389e-09
5.18991e-05
3.95447e-06
3.58426e-06
3.37973e-06
3.43263e-06
3.39358e-06
3.40088e-06
3.39739e-06
3.39981e-06
3.39738e-06
3.39823e-06
3.39902e-06
3.39688e-06
3.39665e-06
3.39793e-06
3.40135e-06
3.41376e-06
3.40911e-06
4.50463e-06
4.43372e-09
2.80144e-05
2.75985e-06
2.6516e-06
2.50195e-06
2.54341e-06
2.51353e-06
2.51755e-06
2.5162e-06
2.51826e-06
2.51589e-06
2.51713e-06
2.51767e-06
2.51545e-06
2.51408e-06
2.51686e-06
2.51988e-06
2.52991e-06
2.49593e-06
3.23937e-06
1.22765e-08
1.69053e-05
2.09187e-06
2.14671e-06
2.03685e-06
2.07057e-06
2.04799e-06
2.05035e-06
2.04981e-06
2.05156e-06
2.04945e-06
2.05074e-06
2.05113e-06
2.04906e-06
2.04826e-06
2.05059e-06
2.05301e-06
2.06122e-06
2.01015e-06
2.45323e-06
5.10833e-08
1.10288e-05
1.71335e-06
1.83748e-06
1.75996e-06
1.79811e-06
1.78165e-06
1.78437e-06
1.78289e-06
1.78451e-06
1.78273e-06
1.78388e-06
1.78419e-06
1.78229e-06
1.78295e-06
1.7839e-06
1.78506e-06
1.77956e-06
1.71218e-06
1.93242e-06
2.01853e-07
7.68875e-06
1.45939e-06
1.62819e-06
1.58811e-06
1.61752e-06
1.60275e-06
1.60599e-06
1.6033e-06
1.60492e-06
1.60333e-06
1.60446e-06
1.60477e-06
1.60252e-06
1.60518e-06
1.60489e-06
1.60674e-06
1.60827e-06
1.51217e-06
1.57193e-06
5.19687e-07
5.77439e-06
1.29133e-06
1.48299e-06
1.46089e-06
1.48721e-06
1.47523e-06
1.47757e-06
1.47529e-06
1.47695e-06
1.4755e-06
1.47659e-06
1.47691e-06
1.47413e-06
1.47708e-06
1.47731e-06
1.47918e-06
1.48077e-06
1.38963e-06
1.31419e-06
9.08404e-07
4.66585e-06
1.16215e-06
1.37151e-06
1.36347e-06
1.38796e-06
1.3774e-06
1.37834e-06
1.37703e-06
1.37884e-06
1.37741e-06
1.37853e-06
1.3789e-06
1.37527e-06
1.37738e-06
1.37957e-06
1.38164e-06
1.38415e-06
1.29263e-06
1.12531e-06
1.15835e-06
3.98418e-06
1.06223e-06
1.27751e-06
1.28257e-06
1.30597e-06
1.29622e-06
1.29527e-06
1.29537e-06
1.29742e-06
1.29616e-06
1.29713e-06
1.2976e-06
1.29276e-06
1.30403e-06
1.2986e-06
1.30083e-06
1.30451e-06
1.21066e-06
9.85466e-07
1.19012e-06
3.51792e-06
9.81406e-07
1.2115e-06
1.2116e-06
1.2342e-06
1.225e-06
1.23129e-06
1.22356e-06
1.22593e-06
1.22486e-06
1.22562e-06
1.22623e-06
1.21955e-06
1.23118e-06
1.22747e-06
1.22995e-06
1.235e-06
1.14986e-06
8.74179e-07
1.11068e-06
3.15764e-06
9.1657e-07
1.14799e-06
1.14699e-06
1.16891e-06
1.16001e-06
1.16556e-06
1.15789e-06
1.16075e-06
1.15985e-06
1.16041e-06
1.16123e-06
1.16089e-06
1.16491e-06
1.16263e-06
1.1654e-06
1.17193e-06
1.08974e-06
7.84766e-07
9.9918e-07
2.84759e-06
8.59937e-07
1.0846e-06
1.0867e-06
1.10801e-06
1.09929e-06
1.10379e-06
1.09629e-06
1.09988e-06
1.09907e-06
1.09949e-06
1.10052e-06
1.09931e-06
1.10335e-06
1.10208e-06
1.10515e-06
1.11318e-06
1.03522e-06
7.27043e-07
8.73381e-07
2.56073e-06
8.07341e-07
1.02507e-06
1.02947e-06
1.05023e-06
1.04161e-06
1.04527e-06
1.03744e-06
1.04207e-06
1.04129e-06
1.04161e-06
1.04287e-06
1.04058e-06
1.04522e-06
1.0446e-06
1.04795e-06
1.05744e-06
9.85125e-07
6.83885e-07
7.43177e-07
2.28706e-06
7.58606e-07
9.67404e-07
9.74401e-07
9.9468e-07
9.86141e-07
9.89189e-07
9.80329e-07
9.86494e-07
9.85673e-07
9.8592e-07
9.87414e-07
9.83553e-07
9.89555e-07
9.89332e-07
9.9293e-07
1.00379e-06
9.382e-07
6.5248e-07
6.22801e-07
2.02691e-06
7.13922e-07
9.22536e-07
9.20823e-07
9.40709e-07
9.32247e-07
9.34936e-07
9.31213e-07
9.32516e-07
9.31611e-07
9.31788e-07
9.33521e-07
9.27237e-07
9.35619e-07
9.35614e-07
9.39438e-07
9.51532e-07
8.93424e-07
6.30318e-07
5.23564e-07
1.73698e-06
6.72405e-07
8.76332e-07
8.68049e-07
8.87739e-07
8.79388e-07
8.81813e-07
8.77284e-07
8.79556e-07
8.78573e-07
8.78669e-07
8.80671e-07
8.78012e-07
8.82857e-07
8.82897e-07
8.86922e-07
9.00035e-07
8.49952e-07
6.1317e-07
4.50006e-07
1.49588e-06
6.3374e-07
8.27204e-07
8.20877e-07
8.35198e-07
8.27064e-07
8.29268e-07
8.23575e-07
8.27109e-07
8.26058e-07
8.26051e-07
8.28346e-07
8.28305e-07
8.30659e-07
8.3066e-07
8.34873e-07
8.4841e-07
8.07098e-07
6.002e-07
4.00485e-07
1.28222e-06
5.9743e-07
7.79238e-07
7.71659e-07
7.82355e-07
7.74762e-07
7.76734e-07
7.75869e-07
7.74644e-07
7.73534e-07
7.7336e-07
7.7601e-07
7.7533e-07
7.78406e-07
7.78353e-07
7.82763e-07
7.97297e-07
7.64286e-07
5.89426e-07
3.69721e-07
1.07768e-06
5.62892e-07
7.3168e-07
7.25303e-07
7.36009e-07
7.27981e-07
7.30036e-07
7.28655e-07
7.27871e-07
7.26672e-07
7.26091e-07
7.2937e-07
7.28266e-07
7.31785e-07
7.317e-07
7.36219e-07
7.5094e-07
7.21035e-07
5.78394e-07
3.51904e-07
9.11246e-07
5.2971e-07
6.83549e-07
6.76329e-07
6.85785e-07
6.77476e-07
6.79407e-07
6.77574e-07
6.77179e-07
6.75871e-07
6.75968e-07
6.78971e-07
6.77334e-07
6.81418e-07
6.81279e-07
6.86133e-07
7.02998e-07
6.76607e-07
5.65931e-07
3.42922e-07
7.77749e-07
4.97322e-07
6.33542e-07
6.29706e-07
6.38682e-07
6.30176e-07
6.32067e-07
6.29905e-07
6.29814e-07
6.28451e-07
6.28166e-07
6.31777e-07
6.29745e-07
6.34167e-07
6.34019e-07
6.38917e-07
6.562e-07
6.35685e-07
5.50648e-07
3.39963e-07
6.49974e-07
4.65235e-07
5.90374e-07
5.82821e-07
5.91224e-07
5.82593e-07
5.84418e-07
5.81991e-07
5.82158e-07
5.80753e-07
5.80341e-07
5.84242e-07
5.81836e-07
5.86573e-07
5.86442e-07
5.91261e-07
6.08909e-07
5.90217e-07
5.31563e-07
3.40852e-07
5.38828e-07
4.32838e-07
5.46545e-07
5.35546e-07
5.43413e-07
5.34661e-07
5.36432e-07
5.33772e-07
5.34165e-07
5.32721e-07
5.32222e-07
5.36316e-07
5.33582e-07
5.38603e-07
5.38493e-07
5.43203e-07
5.61002e-07
5.46279e-07
5.08806e-07
3.42379e-07
4.56594e-07
3.99733e-07
5.02156e-07
4.87894e-07
4.95297e-07
4.8642e-07
4.88158e-07
4.85288e-07
4.85883e-07
4.84401e-07
4.83821e-07
4.88047e-07
4.85051e-07
4.90302e-07
4.90209e-07
4.94783e-07
5.12487e-07
5.01057e-07
4.7887e-07
3.41355e-07
3.9945e-07
3.65639e-07
4.57005e-07
4.40044e-07
4.46932e-07
4.38045e-07
4.39739e-07
4.36701e-07
4.37477e-07
4.35958e-07
4.35299e-07
4.39607e-07
4.3642e-07
4.41835e-07
4.41748e-07
4.46163e-07
4.63493e-07
4.54755e-07
4.43167e-07
3.35443e-07
3.46719e-07
3.32172e-07
4.11313e-07
3.92233e-07
3.98603e-07
3.89833e-07
3.91469e-07
3.88302e-07
3.89257e-07
3.87686e-07
3.86962e-07
3.91297e-07
3.87991e-07
3.93503e-07
3.93401e-07
3.97646e-07
4.14287e-07
4.07778e-07
4.07974e-07
3.23472e-07
2.95937e-07
2.97857e-07
3.65466e-07
3.44862e-07
3.50754e-07
3.42232e-07
3.43794e-07
3.40532e-07
3.41699e-07
3.40029e-07
3.3926e-07
3.43559e-07
3.4021e-07
3.45755e-07
3.45612e-07
3.49685e-07
3.65291e-07
3.60704e-07
3.69578e-07
3.05121e-07
2.58667e-07
2.63057e-07
3.20061e-07
2.98487e-07
3.03978e-07
2.95834e-07
2.9731e-07
2.93975e-07
2.95426e-07
2.93573e-07
2.92787e-07
2.96974e-07
2.93659e-07
2.99184e-07
2.98976e-07
3.02872e-07
3.17104e-07
3.1433e-07
3.28776e-07
2.80949e-07
2.24403e-07
2.28276e-07
2.7594e-07
2.53788e-07
2.57378e-07
2.50411e-07
2.51761e-07
2.49325e-07
2.50051e-07
2.49018e-07
2.48244e-07
2.52238e-07
2.49034e-07
2.53439e-07
2.53176e-07
2.56296e-07
2.70473e-07
2.66122e-07
2.86614e-07
2.52157e-07
1.93305e-07
1.92802e-07
2.29962e-07
2.11595e-07
2.1471e-07
2.08449e-07
2.09674e-07
2.07356e-07
2.08237e-07
2.07127e-07
2.06389e-07
2.10108e-07
2.07094e-07
2.11217e-07
2.10891e-07
2.13671e-07
2.26266e-07
2.21458e-07
2.44481e-07
2.20343e-07
1.64288e-07
1.60287e-07
1.89848e-07
1.72686e-07
1.75338e-07
1.69848e-07
1.70935e-07
1.68802e-07
1.69726e-07
1.68637e-07
1.67956e-07
1.71328e-07
1.68572e-07
1.72318e-07
1.71957e-07
1.74344e-07
1.85298e-07
1.8131e-07
2.03742e-07
1.87243e-07
1.37048e-07
1.30155e-07
1.5305e-07
1.37721e-07
1.39912e-07
1.35239e-07
1.36181e-07
1.34288e-07
1.35166e-07
1.34173e-07
1.33565e-07
1.36536e-07
1.34091e-07
1.37382e-07
1.37017e-07
1.39001e-07
1.48277e-07
1.44942e-07
1.656e-07
1.54502e-07
1.11669e-07
1.03042e-07
1.20256e-07
1.07174e-07
1.08911e-07
1.05065e-07
1.05859e-07
1.04241e-07
1.05023e-07
1.04167e-07
1.03641e-07
1.06179e-07
1.04077e-07
1.06869e-07
1.06525e-07
1.08128e-07
1.15749e-07
1.1297e-07
1.31071e-07
1.23819e-07
8.86003e-08
7.93757e-08
9.19834e-08
8.12467e-08
8.25955e-08
7.95194e-08
8.0173e-08
7.884e-08
7.95058e-08
7.87955e-08
7.8357e-08
8.04579e-08
7.87077e-08
8.0995e-08
8.06876e-08
8.1952e-08
8.80061e-08
8.57281e-08
1.00875e-07
9.6274e-08
6.83228e-08
5.9385e-08
6.84221e-08
5.99018e-08
6.09492e-08
5.85432e-08
5.90714e-08
5.80101e-08
5.85558e-08
5.79864e-08
5.76359e-08
5.93155e-08
5.7909e-08
5.97118e-08
5.94545e-08
6.04242e-08
6.50692e-08
6.32474e-08
7.53685e-08
7.25485e-08
5.09805e-08
4.31096e-08
4.93666e-08
4.29038e-08
4.36904e-08
4.18645e-08
4.22745e-08
4.14635e-08
4.18928e-08
4.14531e-08
4.11825e-08
4.24751e-08
4.13883e-08
4.27486e-08
4.25499e-08
4.32674e-08
4.6708e-08
4.52952e-08
5.45688e-08
5.29234e-08
3.6711e-08
3.03182e-08
3.44815e-08
2.98129e-08
3.03919e-08
2.90337e-08
2.93387e-08
2.87446e-08
2.90683e-08
2.8742e-08
2.85409e-08
2.94983e-08
2.86902e-08
2.96711e-08
2.95287e-08
3.0035e-08
3.24971e-08
3.14375e-08
3.82241e-08
3.73277e-08
2.54411e-08
2.05264e-08
2.32639e-08
1.99249e-08
2.03134e-08
1.94905e-08
1.97083e-08
1.92914e-08
1.95251e-08
1.92927e-08
1.91489e-08
1.98303e-08
1.92529e-08
1.99267e-08
1.98329e-08
2.0139e-08
2.17891e-08
2.11039e-08
2.58501e-08
2.5412e-08
1.69121e-08
1.34254e-08
1.51161e-08
1.29078e-08
1.31741e-08
1.26215e-08
1.27703e-08
1.24902e-08
1.26517e-08
1.24929e-08
1.23942e-08
1.28597e-08
1.24637e-08
1.29055e-08
1.28481e-08
1.30326e-08
1.41237e-08
1.36588e-08
1.68247e-08
1.66496e-08
1.07125e-08
8.38598e-09
9.39039e-09
7.99715e-09
8.17174e-09
7.81761e-09
7.91531e-09
7.73507e-09
7.84186e-09
7.73791e-09
7.67288e-09
7.97786e-09
7.71734e-09
7.99529e-09
7.96155e-09
8.07118e-09
8.75767e-09
8.45462e-09
1.04665e-08
1.04292e-08
6.36645e-09
4.90746e-09
5.47967e-09
4.64598e-09
4.75504e-09
4.54059e-09
4.60191e-09
4.49172e-09
4.55882e-09
4.49416e-09
4.45347e-09
4.64332e-09
4.48043e-09
4.64742e-09
4.62789e-09
4.69042e-09
5.09913e-09
4.91022e-09
6.12059e-09
6.14652e-09
3.4356e-09
2.59299e-09
2.89734e-09
2.43802e-09
2.50132e-09
2.38231e-09
2.41795e-09
2.35606e-09
2.39476e-09
2.35788e-09
2.33453e-09
2.44297e-09
2.34947e-09
2.44208e-09
2.43131e-09
2.46365e-09
2.68733e-09
2.57831e-09
3.24913e-09
3.29849e-09
1.60782e-09
1.18215e-09
1.32182e-09
1.10431e-09
1.13591e-09
1.07928e-09
1.09709e-09
1.06729e-09
1.08638e-09
1.06839e-09
1.05688e-09
1.10998e-09
1.06397e-09
1.10821e-09
1.10302e-09
1.11719e-09
1.22247e-09
1.16893e-09
1.49165e-09
1.5492e-09
6.20636e-10
4.33702e-10
4.82613e-10
3.99456e-10
4.11823e-10
3.90145e-10
3.97261e-10
3.85713e-10
3.93274e-10
3.86214e-10
3.81566e-10
4.02668e-10
3.84303e-10
4.01462e-10
3.99406e-10
4.04429e-10
4.44574e-10
4.24647e-10
5.56896e-10
6.25869e-10
1.82199e-10
1.08212e-10
1.16001e-10
9.58087e-11
9.87208e-11
9.35293e-11
9.52802e-11
9.24876e-11
9.4343e-11
9.26089e-11
9.14203e-11
9.66961e-11
9.20963e-11
9.62964e-11
9.5774e-11
9.69434e-11
1.06648e-10
1.03447e-10
1.50618e-10
2.46343e-10
8.47475e-11
2.69195e-11
2.19309e-11
1.8595e-11
1.88501e-11
1.81294e-11
1.83574e-11
1.79496e-11
1.82194e-11
1.79531e-11
1.77445e-11
1.86082e-11
1.7861e-11
1.85449e-11
1.84365e-11
1.86795e-11
2.03073e-11
2.33201e-11
6.73293e-11
2.80871e-10
)
;

boundaryField
{
    fuel
    {
        type            fixedValue;
        value           uniform 0;
    }
    wall
    {
        type            zeroGradient;
    }
    outlet
    {
        type            zeroGradient;
    }
    frontAndBack
    {
        type            empty;
    }
}


// ************************************************************************* //
