/*--------------------------------*- C++ -*----------------------------------*\
| =========                 |                                                 |
| \\      /  F ield         | OpenFOAM: The Open Source CFD Toolbox           |
|  \\    /   O peration     | Version:  dev                                   |
|   \\  /    A nd           | Web:      www.OpenFOAM.org                      |
|    \\/     M anipulation  |                                                 |
\*---------------------------------------------------------------------------*/
FoamFile
{
    version     2.0;
    format      ascii;
    class       volScalarField;
    location    "0.2";
    object      HCO;
}
// * * * * * * * * * * * * * * * * * * * * * * * * * * * * * * * * * * * * * //

dimensions      [0 0 0 0 0 0 0];

internalField   nonuniform List<scalar> 
1000
(
1.10574e-08
2.30505e-05
2.22401e-05
2.21536e-05
2.21381e-05
2.21376e-05
2.21375e-05
2.21373e-05
2.21372e-05
2.21376e-05
2.21375e-05
2.2137e-05
2.21373e-05
2.21366e-05
2.21376e-05
2.21381e-05
2.21546e-05
2.23144e-05
2.40271e-05
4.25003e-09
5.01612e-08
5.89195e-06
5.86163e-06
5.79563e-06
5.80833e-06
5.8e-06
5.80167e-06
5.80064e-06
5.80068e-06
5.80058e-06
5.80038e-06
5.80077e-06
5.80027e-06
5.8009e-06
5.8005e-06
5.80102e-06
5.80359e-06
5.81933e-06
6.07843e-06
2.78317e-09
3.4867e-06
1.72949e-06
1.74139e-06
1.69606e-06
1.70832e-06
1.70107e-06
1.70283e-06
1.70173e-06
1.70198e-06
1.70172e-06
1.70163e-06
1.70192e-06
1.70155e-06
1.70202e-06
1.70165e-06
1.70195e-06
1.70233e-06
1.69735e-06
1.75768e-06
1.77952e-09
3.329e-05
7.12142e-07
6.94402e-07
6.67182e-07
6.75688e-07
6.70729e-07
6.72086e-07
6.71255e-07
6.71511e-07
6.7128e-07
6.71267e-07
6.71427e-07
6.71201e-07
6.71453e-07
6.71235e-07
6.71383e-07
6.71182e-07
6.62701e-07
6.7676e-07
1.46647e-09
1.38579e-05
3.74904e-07
3.71682e-07
3.54013e-07
3.59968e-07
3.5663e-07
3.57561e-07
3.57016e-07
3.57221e-07
3.5704e-07
3.57064e-07
3.57149e-07
3.56991e-07
3.57115e-07
3.57018e-07
3.57094e-07
3.5668e-07
3.47499e-07
3.41792e-07
1.71301e-09
5.7667e-06
2.37349e-07
2.42481e-07
2.35298e-07
2.39709e-07
2.37401e-07
2.37982e-07
2.37673e-07
2.37827e-07
2.37684e-07
2.37723e-07
2.37774e-07
2.37648e-07
2.37701e-07
2.3768e-07
2.37729e-07
2.37223e-07
2.27643e-07
2.0889e-07
2.92244e-09
2.67949e-06
1.69343e-07
1.85879e-07
1.81771e-07
1.85188e-07
1.83544e-07
1.83875e-07
1.83727e-07
1.83851e-07
1.83717e-07
1.8378e-07
1.83813e-07
1.83687e-07
1.83658e-07
1.83744e-07
1.83781e-07
1.83268e-07
1.73231e-07
1.44666e-07
7.39287e-09
1.37989e-06
1.33141e-07
1.56218e-07
1.54235e-07
1.57069e-07
1.55899e-07
1.56107e-07
1.56024e-07
1.56127e-07
1.56011e-07
1.56076e-07
1.561e-07
1.55986e-07
1.55978e-07
1.56049e-07
1.56056e-07
1.55501e-07
1.45206e-07
1.09236e-07
2.64753e-08
7.67058e-07
1.12857e-07
1.38239e-07
1.38058e-07
1.41106e-07
1.40319e-07
1.40533e-07
1.40408e-07
1.40501e-07
1.40407e-07
1.40462e-07
1.40482e-07
1.40381e-07
1.40446e-07
1.40446e-07
1.40379e-07
1.39037e-07
1.28229e-07
8.79385e-08
8.87538e-08
4.60414e-07
9.91455e-08
1.2613e-07
1.28187e-07
1.30716e-07
1.30058e-07
1.30292e-07
1.30106e-07
1.30199e-07
1.30118e-07
1.3017e-07
1.3019e-07
1.30072e-07
1.30242e-07
1.30178e-07
1.30144e-07
1.29192e-07
1.16983e-07
7.43674e-08
1.86011e-07
3.01927e-07
8.99689e-08
1.17835e-07
1.21087e-07
1.23449e-07
1.22981e-07
1.23156e-07
1.22999e-07
1.23093e-07
1.23022e-07
1.23071e-07
1.23092e-07
1.22947e-07
1.23127e-07
1.23094e-07
1.23055e-07
1.22076e-07
1.10252e-07
6.53875e-08
2.43649e-07
2.16326e-07
8.28761e-08
1.11595e-07
1.15826e-07
1.18113e-07
1.17748e-07
1.1784e-07
1.17741e-07
1.17844e-07
1.17772e-07
1.17824e-07
1.17849e-07
1.1766e-07
1.17787e-07
1.17866e-07
1.17832e-07
1.16873e-07
1.051e-07
5.93522e-08
2.13429e-07
1.66941e-07
7.74326e-08
1.06444e-07
1.1157e-07
1.13836e-07
1.13529e-07
1.13513e-07
1.13496e-07
1.13614e-07
1.13547e-07
1.13594e-07
1.13626e-07
1.13373e-07
1.13966e-07
1.1366e-07
1.1363e-07
1.12713e-07
1.00916e-07
5.53877e-08
1.46534e-07
1.3607e-07
7.31317e-08
1.02886e-07
1.07885e-07
1.10148e-07
1.09879e-07
1.10225e-07
1.09812e-07
1.0995e-07
1.09892e-07
1.09929e-07
1.09971e-07
1.09618e-07
1.1023e-07
1.10017e-07
1.09998e-07
1.09147e-07
9.79293e-08
5.2779e-08
9.4538e-08
1.15116e-07
6.98174e-08
9.94991e-08
1.04525e-07
1.06792e-07
1.06539e-07
1.06843e-07
1.06434e-07
1.06601e-07
1.0655e-07
1.06577e-07
1.06632e-07
1.06598e-07
1.06828e-07
1.06689e-07
1.06683e-07
1.05921e-07
9.50677e-08
5.12864e-08
6.36738e-08
9.97763e-08
6.70767e-08
9.61367e-08
1.01346e-07
1.03617e-07
1.03366e-07
1.03617e-07
1.0321e-07
1.03421e-07
1.03372e-07
1.03392e-07
1.03463e-07
1.03372e-07
1.03617e-07
1.0353e-07
1.03541e-07
1.02885e-07
9.25223e-08
5.08189e-08
4.65129e-08
8.78241e-08
6.46885e-08
9.29744e-08
9.82562e-08
1.00527e-07
1.00269e-07
1.0048e-07
1.00043e-07
1.00318e-07
1.00267e-07
1.00281e-07
1.00368e-07
1.00209e-07
1.00502e-07
1.00448e-07
1.00477e-07
9.99419e-08
9.01933e-08
5.09569e-08
3.71145e-08
7.81027e-08
6.26153e-08
8.98797e-08
9.51895e-08
9.74548e-08
9.71822e-08
9.7368e-08
9.68565e-08
9.72255e-08
9.71707e-08
9.71798e-08
9.72839e-08
9.70264e-08
9.74119e-08
9.73776e-08
9.74268e-08
9.70227e-08
8.7984e-08
5.1526e-08
3.20164e-08
7.00436e-08
6.08257e-08
8.74367e-08
9.20922e-08
9.43489e-08
9.40569e-08
9.42298e-08
9.40055e-08
9.40954e-08
9.40329e-08
9.40366e-08
9.41601e-08
9.3749e-08
9.42912e-08
9.42684e-08
9.4338e-08
9.40718e-08
8.58133e-08
5.23695e-08
2.93492e-08
6.20839e-08
5.92378e-08
8.4861e-08
8.89093e-08
9.11623e-08
9.08484e-08
9.10127e-08
9.0723e-08
9.08802e-08
9.08099e-08
9.08076e-08
9.09536e-08
9.07593e-08
9.10955e-08
9.10747e-08
9.11662e-08
9.10383e-08
8.36119e-08
5.34647e-08
2.81812e-08
5.60036e-08
5.77878e-08
8.20374e-08
8.59383e-08
8.78459e-08
8.75132e-08
8.76703e-08
8.72892e-08
8.75363e-08
8.74583e-08
8.74485e-08
8.76203e-08
8.75924e-08
8.77753e-08
8.7752e-08
8.78676e-08
8.78517e-08
8.13184e-08
5.45793e-08
2.80629e-08
5.09691e-08
5.64134e-08
7.91785e-08
8.26844e-08
8.43361e-08
8.40043e-08
8.41521e-08
8.40903e-08
8.40151e-08
8.39295e-08
8.39072e-08
8.41113e-08
8.40355e-08
8.42765e-08
8.42503e-08
8.43937e-08
8.45366e-08
7.8879e-08
5.5547e-08
2.87611e-08
4.64083e-08
5.50519e-08
7.622e-08
7.94734e-08
8.11093e-08
8.07117e-08
8.08711e-08
8.07629e-08
8.07219e-08
8.06264e-08
8.05733e-08
8.08312e-08
8.07204e-08
8.10017e-08
8.09744e-08
8.11402e-08
8.13855e-08
7.62449e-08
5.63125e-08
3.00985e-08
4.28215e-08
5.3645e-08
7.30775e-08
7.59064e-08
7.74231e-08
7.69645e-08
7.71206e-08
7.69697e-08
7.69593e-08
7.68513e-08
7.68489e-08
7.70946e-08
7.69381e-08
7.72724e-08
7.72427e-08
7.74518e-08
7.79554e-08
7.33488e-08
5.67558e-08
3.18831e-08
4.00094e-08
5.21376e-08
6.9636e-08
7.23519e-08
7.38025e-08
7.32896e-08
7.34483e-08
7.32644e-08
7.32781e-08
7.31618e-08
7.31299e-08
7.34309e-08
7.32389e-08
7.36094e-08
7.35806e-08
7.3812e-08
7.44443e-08
7.05129e-08
5.67769e-08
3.38471e-08
3.73781e-08
5.04883e-08
6.65269e-08
6.86131e-08
6.99848e-08
6.94218e-08
6.95812e-08
6.93684e-08
6.94032e-08
6.92793e-08
6.92374e-08
6.9571e-08
6.93441e-08
6.97501e-08
6.9724e-08
6.99708e-08
7.07291e-08
6.71586e-08
5.62981e-08
3.57238e-08
3.51266e-08
4.86464e-08
6.32157e-08
6.46822e-08
6.59734e-08
6.53601e-08
6.5521e-08
6.52814e-08
6.53353e-08
6.5204e-08
6.51547e-08
6.55143e-08
6.52553e-08
6.56951e-08
6.56719e-08
6.59309e-08
6.6803e-08
6.37488e-08
5.53331e-08
3.72962e-08
3.34639e-08
4.65746e-08
5.97069e-08
6.05662e-08
6.17788e-08
6.11154e-08
6.12794e-08
6.10145e-08
6.10861e-08
6.09477e-08
6.08909e-08
6.12722e-08
6.09855e-08
6.14557e-08
6.14348e-08
6.17029e-08
6.26704e-08
6.00725e-08
5.36742e-08
3.83605e-08
3.2268e-08
4.4243e-08
5.59858e-08
5.6289e-08
5.74159e-08
5.67137e-08
5.68793e-08
5.65924e-08
5.66803e-08
5.6535e-08
5.64711e-08
5.68698e-08
5.65607e-08
5.70564e-08
5.70366e-08
5.73111e-08
5.83492e-08
5.61526e-08
5.13448e-08
3.87778e-08
3.10846e-08
4.1784e-08
5.20753e-08
5.18834e-08
5.29228e-08
5.21952e-08
5.23603e-08
5.20546e-08
5.21594e-08
5.2006e-08
5.19358e-08
5.23469e-08
5.20214e-08
5.25375e-08
5.25167e-08
5.27953e-08
5.3873e-08
5.2033e-08
4.88053e-08
3.84869e-08
2.97619e-08
3.91004e-08
4.80173e-08
4.73987e-08
4.83548e-08
4.7616e-08
4.77785e-08
4.74564e-08
4.75827e-08
4.74158e-08
4.73411e-08
4.77583e-08
4.74229e-08
4.79549e-08
4.79305e-08
4.82126e-08
4.9292e-08
4.7778e-08
4.58212e-08
3.74827e-08
2.85702e-08
3.62291e-08
4.38767e-08
4.28994e-08
4.37823e-08
4.30463e-08
4.32046e-08
4.28666e-08
4.30243e-08
4.28336e-08
4.27564e-08
4.31723e-08
4.28341e-08
4.33789e-08
4.33481e-08
4.36339e-08
4.46733e-08
4.34756e-08
4.24706e-08
3.58241e-08
2.7194e-08
3.32244e-08
3.97457e-08
3.84605e-08
3.91089e-08
3.84628e-08
3.8612e-08
3.83632e-08
3.84439e-08
3.83379e-08
3.82607e-08
3.86672e-08
3.83334e-08
3.87728e-08
3.87365e-08
3.89631e-08
4.00977e-08
3.88664e-08
3.88543e-08
3.36221e-08
2.56481e-08
3.00123e-08
3.52937e-08
3.41706e-08
3.47374e-08
3.41339e-08
3.42737e-08
3.40304e-08
3.41292e-08
3.40114e-08
3.39361e-08
3.43252e-08
3.40033e-08
3.44274e-08
3.43844e-08
3.45974e-08
3.56584e-08
3.44875e-08
3.51069e-08
3.10217e-08
2.39203e-08
2.69543e-08
3.13148e-08
3.01111e-08
3.06014e-08
3.0049e-08
3.01777e-08
2.99461e-08
3.00523e-08
2.99324e-08
2.98606e-08
3.02255e-08
2.99217e-08
3.03216e-08
3.02743e-08
3.04674e-08
3.14412e-08
3.04522e-08
3.13618e-08
2.81807e-08
2.20425e-08
2.40002e-08
2.75524e-08
2.63518e-08
2.67695e-08
2.6275e-08
2.63917e-08
2.61771e-08
2.62816e-08
2.61677e-08
2.61009e-08
2.64361e-08
2.61556e-08
2.65234e-08
2.64746e-08
2.66451e-08
2.75206e-08
2.66835e-08
2.77365e-08
2.52469e-08
2.00742e-08
2.12205e-08
2.40787e-08
2.29472e-08
2.32959e-08
2.28636e-08
2.29676e-08
2.27738e-08
2.28715e-08
2.27679e-08
2.2707e-08
2.30091e-08
2.2755e-08
2.30858e-08
2.3038e-08
2.31856e-08
2.39568e-08
2.32478e-08
2.43331e-08
2.23805e-08
1.80992e-08
1.86721e-08
2.09553e-08
1.99304e-08
2.02184e-08
1.9847e-08
1.99385e-08
1.97671e-08
1.98559e-08
1.9764e-08
1.97094e-08
1.99774e-08
1.97509e-08
2.00433e-08
1.99978e-08
2.01244e-08
2.07908e-08
2.01904e-08
2.1231e-08
1.96879e-08
1.62074e-08
1.63969e-08
1.82238e-08
1.73156e-08
1.75558e-08
1.72379e-08
1.73185e-08
1.7169e-08
1.72482e-08
1.71679e-08
1.712e-08
1.73544e-08
1.71555e-08
1.74103e-08
1.73679e-08
1.74763e-08
1.80426e-08
1.75341e-08
1.8482e-08
1.7248e-08
1.44594e-08
1.44284e-08
1.5887e-08
1.51059e-08
1.53043e-08
1.50335e-08
1.51034e-08
1.49747e-08
1.50445e-08
1.4975e-08
1.49335e-08
1.51361e-08
1.49637e-08
1.51829e-08
1.51448e-08
1.52381e-08
1.57139e-08
1.52818e-08
1.61125e-08
1.51111e-08
1.2911e-08
1.2776e-08
1.39396e-08
1.32864e-08
1.3451e-08
1.32151e-08
1.32749e-08
1.31651e-08
1.32261e-08
1.31664e-08
1.31303e-08
1.33049e-08
1.31561e-08
1.33435e-08
1.331e-08
1.33911e-08
1.37902e-08
1.34194e-08
1.41295e-08
1.33015e-08
1.15973e-08
1.14097e-08
1.23606e-08
1.17907e-08
1.19231e-08
1.1752e-08
1.1803e-08
1.17091e-08
1.17625e-08
1.1711e-08
1.16793e-08
1.18309e-08
1.17016e-08
1.18613e-08
1.1833e-08
1.18939e-08
1.22218e-08
1.19188e-08
1.25198e-08
1.18215e-08
1.05335e-08
1.03419e-08
1.11187e-08
1.06375e-08
1.07494e-08
1.06032e-08
1.0647e-08
1.05656e-08
1.06131e-08
1.05678e-08
1.05393e-08
1.06737e-08
1.05591e-08
1.06963e-08
1.06732e-08
1.0721e-08
1.1004e-08
1.0742e-08
1.12555e-08
1.06553e-08
9.71127e-09
9.51685e-09
1.01674e-08
9.74767e-09
9.84506e-09
9.71522e-09
9.75431e-09
9.68115e-09
9.72502e-09
9.6837e-09
9.65694e-09
9.78107e-09
9.67514e-09
9.79676e-09
9.77767e-09
9.81883e-09
1.00699e-08
9.83693e-09
1.02939e-08
9.76997e-09
9.0934e-09
8.87243e-09
9.4407e-09
9.04962e-09
9.1388e-09
9.01702e-09
9.05438e-09
8.98468e-09
9.02767e-09
8.98769e-09
8.96104e-09
9.08269e-09
8.97864e-09
9.09291e-09
9.07588e-09
9.11439e-09
9.34876e-09
9.13261e-09
9.57102e-09
9.10829e-09
8.61925e-09
8.34696e-09
8.86833e-09
8.48127e-09
8.56776e-09
8.44835e-09
8.4864e-09
8.41692e-09
8.46102e-09
8.42059e-09
8.39291e-09
8.51741e-09
8.41048e-09
8.52327e-09
8.5065e-09
8.54392e-09
8.77249e-09
8.56311e-09
9.01173e-09
8.59745e-09
8.36762e-09
8.07865e-09
8.56311e-09
8.1915e-09
8.27377e-09
8.16057e-09
8.19818e-09
8.13046e-09
8.17455e-09
8.13469e-09
8.1061e-09
8.23168e-09
8.12339e-09
8.23445e-09
8.21679e-09
8.25332e-09
8.4712e-09
8.26791e-09
8.709e-09
8.32478e-09
8.80282e-09
8.46809e-09
8.93097e-09
8.53494e-09
8.6125e-09
8.49424e-09
8.53442e-09
8.46077e-09
8.50986e-09
8.46534e-09
8.43005e-09
8.5774e-09
8.44983e-09
8.57641e-09
8.55361e-09
8.59643e-09
8.82932e-09
8.62503e-09
9.12081e-09
8.76901e-09
1.06376e-08
1.02311e-08
1.06608e-08
1.02283e-08
1.02846e-08
1.01624e-08
1.02022e-08
1.01198e-08
1.01754e-08
1.01229e-08
1.00734e-08
1.02647e-08
1.00992e-08
1.02599e-08
1.02241e-08
1.02861e-08
1.05492e-08
1.03479e-08
1.09695e-08
1.06849e-08
2.54238e-08
2.46467e-08
2.51453e-08
2.43101e-08
2.42685e-08
2.40533e-08
2.41086e-08
2.39296e-08
2.40498e-08
2.39282e-08
2.37697e-08
2.43162e-08
2.38442e-08
2.42939e-08
2.41708e-08
2.43716e-08
2.498e-08
2.46477e-08
2.62678e-08
2.61654e-08
)
;

boundaryField
{
    fuel
    {
        type            fixedValue;
        value           uniform 0;
    }
    wall
    {
        type            zeroGradient;
    }
    outlet
    {
        type            zeroGradient;
    }
    frontAndBack
    {
        type            empty;
    }
}


// ************************************************************************* //
