/*--------------------------------*- C++ -*----------------------------------*\
| =========                 |                                                 |
| \\      /  F ield         | OpenFOAM: The Open Source CFD Toolbox           |
|  \\    /   O peration     | Version:  dev                                   |
|   \\  /    A nd           | Web:      www.OpenFOAM.org                      |
|    \\/     M anipulation  |                                                 |
\*---------------------------------------------------------------------------*/
FoamFile
{
    version     2.0;
    format      ascii;
    class       volScalarField;
    location    "0.1";
    object      HO2;
}
// * * * * * * * * * * * * * * * * * * * * * * * * * * * * * * * * * * * * * //

dimensions      [0 0 0 0 0 0 0];

internalField   nonuniform List<scalar> 
100
(
1.21129e-06
6.27636e-07
2.89686e-07
1.32572e-07
6.29059e-08
3.40577e-08
2.18097e-08
1.65419e-08
1.40395e-08
1.25504e-08
1.14957e-08
1.0603e-08
9.80372e-09
9.06341e-09
8.36797e-09
7.7112e-09
7.09022e-09
6.50361e-09
5.95068e-09
5.43106e-09
4.94445e-09
4.49052e-09
4.06867e-09
3.67789e-09
3.31646e-09
2.98388e-09
2.67867e-09
2.39816e-09
2.14148e-09
1.90768e-09
1.69529e-09
1.50847e-09
1.3395e-09
1.18725e-09
1.05041e-09
9.27671e-10
8.17808e-10
7.19637e-10
6.32058e-10
5.54232e-10
4.84069e-10
4.21558e-10
3.66457e-10
3.19482e-10
2.77976e-10
2.41086e-10
2.0823e-10
1.80723e-10
1.56764e-10
1.35602e-10
1.17576e-10
1.01995e-10
8.84714e-11
7.63857e-11
6.59836e-11
5.74201e-11
5.00174e-11
4.36391e-11
3.81484e-11
3.3421e-11
2.93484e-11
2.58371e-11
2.28062e-11
2.01856e-11
1.79153e-11
1.59438e-11
1.42269e-11
1.27247e-11
1.13975e-11
1.02131e-11
9.16333e-12
8.25007e-12
7.43847e-12
6.71121e-12
6.053e-12
5.44544e-12
4.91615e-12
4.42942e-12
3.97098e-12
3.56454e-12
3.19166e-12
2.85923e-12
2.56762e-12
2.3167e-12
2.11174e-12
1.96355e-12
1.86181e-12
1.80398e-12
1.78712e-12
1.81018e-12
1.87595e-12
1.99329e-12
2.17885e-12
2.45587e-12
2.84079e-12
3.30266e-12
3.70187e-12
3.77702e-12
3.23322e-12
1.86054e-12
)
;

boundaryField
{
    wall
    {
        type            zeroGradient;
    }
    fuel
    {
        type            fixedValue;
        value           uniform 0;
    }
    outlet
    {
        type            inletOutlet;
        inletValue      uniform 0;
        value           uniform 1.86054e-12;
    }
}


// ************************************************************************* //
