/*--------------------------------*- C++ -*----------------------------------*\
| =========                 |                                                 |
| \\      /  F ield         | OpenFOAM: The Open Source CFD Toolbox           |
|  \\    /   O peration     | Version:  dev                                   |
|   \\  /    A nd           | Web:      www.OpenFOAM.org                      |
|    \\/     M anipulation  |                                                 |
\*---------------------------------------------------------------------------*/
FoamFile
{
    version     2.0;
    format      ascii;
    class       volScalarField;
    location    "0.2";
    object      HO2;
}
// * * * * * * * * * * * * * * * * * * * * * * * * * * * * * * * * * * * * * //

dimensions      [0 0 0 0 0 0 0];

internalField   nonuniform List<scalar> 
1000
(
3.82066e-05
2.08188e-05
1.67519e-05
1.63278e-05
1.62801e-05
1.62757e-05
1.62734e-05
1.6275e-05
1.62739e-05
1.62746e-05
1.62739e-05
1.62738e-05
1.62734e-05
1.6274e-05
1.62737e-05
1.62777e-05
1.63209e-05
1.65534e-05
1.86741e-05
5.96445e-05
6.59461e-05
2.85979e-06
2.27061e-06
2.21225e-06
2.2052e-06
2.20462e-06
2.20443e-06
2.20448e-06
2.20452e-06
2.20447e-06
2.20453e-06
2.20451e-06
2.20427e-06
2.2051e-06
2.20375e-06
2.20729e-06
2.20956e-06
2.25612e-06
2.55775e-06
0.000137781
7.03213e-05
6.37755e-07
4.44799e-07
4.30296e-07
4.2842e-07
4.28283e-07
4.28275e-07
4.28248e-07
4.28296e-07
4.28252e-07
4.28297e-07
4.28301e-07
4.28191e-07
4.28614e-07
4.27855e-07
4.29745e-07
4.28919e-07
4.45462e-07
6.13589e-07
0.00030024
6.70621e-05
2.39399e-07
1.2376e-07
1.18119e-07
1.17367e-07
1.17317e-07
1.17325e-07
1.17305e-07
1.1733e-07
1.17308e-07
1.17326e-07
1.17337e-07
1.17282e-07
1.17496e-07
1.171e-07
1.18116e-07
1.17331e-07
1.25523e-07
3.12959e-07
0.000440836
6.37485e-05
1.31111e-07
4.30627e-08
4.02889e-08
3.99222e-08
3.9899e-08
3.99059e-08
3.98936e-08
3.99079e-08
3.98971e-08
3.99028e-08
3.99126e-08
3.98845e-08
3.99955e-08
3.97907e-08
4.03562e-08
3.98221e-08
4.46467e-08
1.08645e-07
4.64708e-05
6.24508e-05
9.03195e-08
1.72673e-08
1.56768e-08
1.54789e-08
1.54665e-08
1.54685e-08
1.54643e-08
1.54721e-08
1.54677e-08
1.54676e-08
1.54746e-08
1.54606e-08
1.55191e-08
1.54134e-08
1.57334e-08
1.54006e-08
1.77136e-08
4.41777e-08
6.00957e-06
6.31951e-05
7.0535e-08
7.73495e-09
6.66907e-09
6.55142e-09
6.54276e-09
6.53575e-09
6.5389e-09
6.54436e-09
6.54088e-09
6.54156e-09
6.54612e-09
6.53919e-09
6.55902e-09
6.51649e-09
6.7032e-09
6.50587e-09
7.98702e-09
2.23119e-08
1.20419e-06
6.3357e-05
5.83981e-08
3.56552e-09
3.06569e-09
2.96147e-09
2.95199e-09
2.93796e-09
2.94718e-09
2.95033e-09
2.94925e-09
2.94815e-09
2.95092e-09
2.94753e-09
2.95216e-09
2.93871e-09
3.05904e-09
2.96493e-09
3.77776e-09
1.33371e-08
4.27707e-07
5.48153e-05
4.75743e-08
1.873e-09
1.36808e-09
1.37336e-09
1.38008e-09
1.39437e-09
1.38363e-09
1.38569e-09
1.38594e-09
1.38407e-09
1.38568e-09
1.38427e-09
1.40234e-09
1.37322e-09
1.41257e-09
1.31953e-09
1.92361e-09
9.22644e-09
2.42251e-07
3.45303e-05
3.5468e-08
1.012e-09
6.9429e-10
6.80413e-10
6.80736e-10
6.9734e-10
6.82219e-10
6.82775e-10
6.83534e-10
6.82403e-10
6.8353e-10
6.82194e-10
7.01518e-10
6.77047e-10
7.0795e-10
6.64817e-10
9.90093e-10
6.91132e-09
1.8556e-07
1.696e-05
2.50758e-08
5.83506e-10
3.59674e-10
3.47797e-10
3.48048e-10
3.55691e-10
3.48283e-10
3.48661e-10
3.50743e-10
3.4836e-10
3.48924e-10
3.48348e-10
3.54239e-10
3.46398e-10
3.6232e-10
3.42752e-10
5.48707e-10
5.67678e-09
1.6905e-07
7.80229e-06
1.78975e-08
3.82206e-10
2.02836e-10
1.96526e-10
1.9671e-10
2.00234e-10
1.9659e-10
1.96831e-10
1.98009e-10
1.96616e-10
1.96917e-10
1.96573e-10
2.08314e-10
1.95968e-10
2.04219e-10
1.93686e-10
3.30615e-10
4.91651e-09
1.6802e-07
3.65396e-06
1.30414e-08
2.60383e-10
1.28533e-10
1.25575e-10
1.25794e-10
1.31932e-10
1.25618e-10
1.25792e-10
1.26512e-10
1.25622e-10
1.25792e-10
1.25362e-10
1.31829e-10
1.25397e-10
1.29613e-10
1.23377e-10
2.17024e-10
4.42935e-09
1.7295e-07
1.7864e-06
9.64673e-09
1.92682e-10
9.23224e-11
9.11315e-11
9.13487e-11
9.41027e-11
9.11828e-11
9.13585e-11
9.18336e-11
9.11999e-11
9.13023e-11
9.04404e-11
9.40478e-11
9.11079e-11
9.32371e-11
8.92108e-11
1.64143e-10
4.06449e-09
1.78593e-07
9.27991e-07
7.02301e-09
1.47059e-10
7.38506e-11
7.35768e-11
7.37746e-11
7.49477e-11
7.36e-11
7.38057e-11
7.41065e-11
7.36445e-11
7.37172e-11
7.41992e-11
7.499e-11
7.35983e-11
7.46703e-11
7.17724e-11
1.32381e-10
3.7575e-09
1.81259e-07
5.10127e-07
4.94586e-09
1.14273e-10
6.37103e-11
6.39191e-11
6.40927e-11
6.45876e-11
6.38771e-11
6.4129e-11
6.42892e-11
6.39623e-11
6.40199e-11
6.42001e-11
6.46205e-11
6.39368e-11
6.44841e-11
6.2133e-11
1.10883e-10
3.44501e-09
1.78701e-07
2.89847e-07
3.57578e-09
9.18278e-11
5.75098e-11
5.7964e-11
5.81145e-11
5.83214e-11
5.78243e-11
5.81407e-11
5.8193e-11
5.79697e-11
5.80203e-11
5.80371e-11
5.83221e-11
5.79587e-11
5.82532e-11
5.61518e-11
9.6183e-11
3.09554e-09
1.70217e-07
1.68188e-07
2.54751e-09
7.57105e-11
5.316e-11
5.37253e-11
5.3856e-11
5.3938e-11
5.34474e-11
5.38623e-11
5.3838e-11
5.36881e-11
5.37357e-11
5.36471e-11
5.39107e-11
5.3691e-11
5.38716e-11
5.18794e-11
8.47096e-11
2.72549e-09
1.56602e-07
9.87044e-08
1.78633e-09
6.37477e-11
4.96411e-11
5.02475e-11
5.03619e-11
5.03903e-11
5.02049e-11
5.03447e-11
5.02666e-11
5.01663e-11
5.02123e-11
5.00396e-11
5.03391e-11
5.01839e-11
5.03221e-11
4.83831e-11
7.65415e-11
2.34627e-09
1.36443e-07
5.83961e-08
1.23374e-09
5.46551e-11
4.64353e-11
4.70615e-11
4.71632e-11
4.71658e-11
4.69093e-11
4.71206e-11
4.70047e-11
4.69377e-11
4.69833e-11
4.67295e-11
4.7098e-11
4.69715e-11
4.71038e-11
4.51919e-11
6.86466e-11
1.98029e-09
1.16654e-07
3.47918e-08
8.42086e-10
4.75773e-11
4.3662e-11
4.39304e-11
4.40233e-11
4.40131e-11
4.36651e-11
4.39562e-11
4.38112e-11
4.37675e-11
4.38154e-11
4.38413e-11
4.39341e-11
4.38189e-11
4.39616e-11
4.23679e-11
6.12056e-11
1.63696e-09
9.51169e-08
2.08172e-08
5.53421e-10
4.18532e-11
4.0717e-11
4.07237e-11
4.08152e-11
4.08007e-11
4.06955e-11
4.07269e-11
4.05564e-11
4.05307e-11
4.05846e-11
4.06275e-11
4.07064e-11
4.06019e-11
4.07512e-11
3.9365e-11
5.44531e-11
1.32613e-09
7.62676e-08
1.24414e-08
3.51703e-10
3.71181e-11
3.78667e-11
3.77204e-11
3.78286e-11
3.78098e-11
3.76561e-11
3.77222e-11
3.75313e-11
3.75178e-11
3.75868e-11
3.76248e-11
3.77106e-11
3.76015e-11
3.78038e-11
3.64716e-11
4.8268e-11
1.05571e-09
5.85781e-08
7.37745e-09
2.31033e-10
3.30287e-11
3.4817e-11
3.46043e-11
3.44964e-11
3.4471e-11
3.4269e-11
3.43727e-11
3.41528e-11
3.41492e-11
3.42412e-11
3.42522e-11
3.43572e-11
3.42574e-11
3.45012e-11
3.33231e-11
4.25332e-11
8.27241e-10
4.44786e-08
4.31239e-09
1.50274e-10
2.96594e-11
3.17479e-11
3.13844e-11
3.12785e-11
3.12487e-11
3.10156e-11
3.11433e-11
3.09074e-11
3.09129e-11
3.10197e-11
3.10028e-11
3.11314e-11
3.1033e-11
3.13209e-11
3.02393e-11
3.70905e-11
6.39305e-10
3.31075e-08
2.4684e-09
9.77444e-11
2.63903e-11
2.85795e-11
2.80787e-11
2.79741e-11
2.79405e-11
2.76845e-11
2.78317e-11
2.75835e-11
2.75975e-11
2.771e-11
2.76714e-11
2.78231e-11
2.77266e-11
2.80564e-11
2.70712e-11
3.26038e-11
4.85966e-10
2.42061e-08
1.38125e-09
6.4664e-11
2.33095e-11
2.53346e-11
2.47223e-11
2.46192e-11
2.45817e-11
2.43134e-11
2.44745e-11
2.42193e-11
2.42389e-11
2.43493e-11
2.42981e-11
2.44667e-11
2.43739e-11
2.47344e-11
2.3862e-11
2.83587e-11
3.63646e-10
1.72859e-08
7.69943e-10
4.33497e-11
2.02946e-11
2.20537e-11
2.13637e-11
2.12631e-11
2.12216e-11
2.0952e-11
2.11209e-11
2.08651e-11
2.08879e-11
2.09912e-11
2.09345e-11
2.11123e-11
2.10246e-11
2.14025e-11
2.0653e-11
2.43622e-11
2.68468e-10
1.2012e-08
4.24827e-10
2.9336e-11
1.73397e-11
1.87942e-11
1.8065e-11
1.79674e-11
1.79223e-11
1.76619e-11
1.78326e-11
1.75826e-11
1.76074e-11
1.77008e-11
1.76437e-11
1.7823e-11
1.77413e-11
1.81219e-11
1.74959e-11
2.06187e-11
1.9628e-10
8.40491e-09
2.33099e-10
2.11811e-11
1.44801e-11
1.56255e-11
1.48982e-11
1.48044e-11
1.4756e-11
1.45154e-11
1.46815e-11
1.44444e-11
1.44697e-11
1.45513e-11
1.44982e-11
1.46711e-11
1.45959e-11
1.49642e-11
1.44554e-11
1.7141e-11
1.44122e-10
5.72008e-09
1.27958e-10
1.56093e-11
1.17683e-11
1.26251e-11
1.19398e-11
1.18512e-11
1.17997e-11
1.15885e-11
1.17438e-11
1.15264e-11
1.15508e-11
1.16184e-11
1.15739e-11
1.17332e-11
1.16648e-11
1.20066e-11
1.16037e-11
1.39435e-11
1.04523e-10
3.67501e-09
7.07253e-11
1.15952e-11
9.27277e-12
9.87162e-12
9.26476e-12
9.18271e-12
9.12727e-12
8.95417e-12
9.09286e-12
8.90141e-12
8.92355e-12
8.97437e-12
8.94336e-12
9.08285e-12
9.02161e-12
9.32463e-12
9.01278e-12
1.1061e-11
7.57053e-11
2.47067e-09
3.9582e-11
8.55828e-12
6.95069e-12
7.43793e-12
6.8647e-12
6.80101e-12
6.80083e-12
6.60104e-12
6.72721e-12
6.55965e-12
6.58437e-12
6.6785e-12
6.59645e-12
6.72095e-12
6.6711e-12
6.92419e-12
6.74489e-12
8.5355e-12
5.47196e-11
1.61685e-09
2.25121e-11
6.19654e-12
4.97323e-12
5.37943e-12
4.91893e-12
4.86671e-12
4.86339e-12
4.70842e-12
4.81104e-12
4.67614e-12
4.69655e-12
4.77031e-12
4.70651e-12
4.80556e-12
4.76448e-12
4.96629e-12
4.84535e-12
6.23108e-12
3.89482e-11
1.06441e-09
1.30293e-11
4.35995e-12
3.45311e-12
3.7216e-12
3.37187e-12
3.33179e-12
3.32762e-12
3.21332e-12
3.29241e-12
3.18945e-12
3.20534e-12
3.26045e-12
3.2128e-12
3.28765e-12
3.25564e-12
3.40799e-12
3.33138e-12
4.47351e-12
2.79981e-11
6.98215e-10
7.68361e-12
2.96603e-12
2.28887e-12
2.45809e-12
2.20829e-12
2.17952e-12
2.17588e-12
2.09607e-12
2.15351e-12
2.07942e-12
2.09104e-12
2.13003e-12
2.09603e-12
2.14941e-12
2.12608e-12
2.23425e-12
2.18967e-12
3.0995e-12
2.00787e-11
4.57113e-10
4.64981e-12
1.95684e-12
1.45345e-12
1.55268e-12
1.38546e-12
1.36614e-12
1.36355e-12
1.31097e-12
1.35013e-12
1.30004e-12
1.30795e-12
1.33393e-12
1.31095e-12
1.34668e-12
1.33084e-12
1.40267e-12
1.37993e-12
2.08141e-12
1.43646e-11
2.98913e-10
2.96562e-12
1.2737e-12
8.95101e-13
9.4597e-13
8.41029e-13
8.28881e-13
8.27271e-13
7.94672e-13
8.19648e-13
7.87931e-13
7.92973e-13
8.09232e-13
7.94627e-13
8.16992e-13
8.07022e-13
8.51449e-13
8.42609e-13
1.36858e-12
1.02521e-11
1.9503e-10
2.11919e-12
8.52869e-13
5.4936e-13
5.67214e-13
5.04905e-13
4.97645e-13
4.96741e-13
4.77616e-13
4.92582e-13
4.73672e-13
4.76865e-13
4.86492e-13
4.77724e-13
4.90917e-13
4.85021e-13
5.1087e-13
5.09739e-13
8.98439e-13
7.32771e-12
1.27262e-10
1.76324e-12
6.25173e-13
3.5212e-13
3.47392e-13
3.11402e-13
3.07047e-13
3.06605e-13
2.9572e-13
3.04333e-13
2.93481e-13
2.95306e-13
3.00798e-13
2.95749e-13
3.03225e-13
2.99891e-13
3.14377e-13
3.16904e-13
6.04634e-13
5.28321e-12
8.41828e-11
1.71331e-12
5.28797e-13
2.48812e-13
2.27927e-13
2.06555e-13
2.03665e-13
2.03489e-13
1.97209e-13
2.02164e-13
1.95912e-13
1.96999e-13
2.00127e-13
1.9725e-13
2.01449e-13
1.99643e-13
2.07735e-13
2.11844e-13
4.26587e-13
3.84888e-12
5.62403e-11
1.86526e-12
5.16876e-13
2.0001e-13
1.65722e-13
1.51216e-13
1.49847e-13
1.49811e-13
1.45902e-13
1.48936e-13
1.4508e-13
1.45791e-13
1.47674e-13
1.45963e-13
1.48439e-13
1.47468e-13
1.51446e-13
1.56007e-13
3.19992e-13
2.83664e-12
3.81427e-11
2.17579e-12
5.61249e-13
1.81424e-13
1.35085e-13
1.23696e-13
1.22478e-13
1.22515e-13
1.19753e-13
1.21854e-13
1.19151e-13
1.1969e-13
1.20958e-13
1.19837e-13
1.21458e-13
1.20925e-13
1.23323e-13
1.27822e-13
2.55619e-13
2.14065e-12
2.64389e-11
2.65892e-12
6.52891e-13
1.80851e-13
1.21101e-13
1.10645e-13
1.09412e-13
1.09493e-13
1.07265e-13
1.08942e-13
1.06753e-13
1.07231e-13
1.08203e-13
1.07381e-13
1.08577e-13
1.08285e-13
1.09869e-13
1.14181e-13
2.1646e-13
1.65832e-12
1.8853e-11
3.41972e-12
8.06511e-13
1.95747e-13
1.18211e-13
1.07477e-13
1.06105e-13
1.06233e-13
1.0424e-13
1.05737e-13
1.03751e-13
1.04229e-13
1.05052e-13
1.04407e-13
1.0536e-13
1.05248e-13
1.06341e-13
1.10563e-13
1.94679e-13
1.32743e-12
1.3901e-11
4.86467e-12
1.09851e-12
2.37708e-13
1.2955e-13
1.17558e-13
1.15825e-13
1.16055e-13
1.14153e-13
1.15556e-13
1.13643e-13
1.14173e-13
1.1488e-13
1.14438e-13
1.15137e-13
1.15298e-13
1.15856e-13
1.20483e-13
1.9193e-13
1.11912e-12
1.06763e-11
8.43369e-12
1.79943e-12
3.51399e-13
1.74685e-13
1.59366e-13
1.56611e-13
1.57141e-13
1.55055e-13
1.56513e-13
1.54418e-13
1.55125e-13
1.55768e-13
1.55675e-13
1.55968e-13
1.5676e-13
1.56407e-13
1.62929e-13
2.28122e-13
1.05463e-12
8.76661e-12
1.70724e-11
3.42836e-12
6.07657e-13
2.88114e-13
2.63525e-13
2.5829e-13
2.59505e-13
2.55904e-13
2.58614e-13
2.54735e-13
2.56055e-13
2.57322e-13
2.57359e-13
2.57557e-13
2.59377e-13
2.58368e-13
2.69438e-13
3.40781e-13
1.17284e-12
7.94556e-12
3.11913e-11
5.9662e-12
9.75151e-13
4.61241e-13
4.2023e-13
4.11203e-13
4.13412e-13
4.06026e-13
4.12375e-13
4.03725e-13
4.06289e-13
4.09652e-13
4.08837e-13
4.10127e-13
4.12792e-13
4.12921e-13
4.3019e-13
5.22681e-13
1.3991e-12
7.51738e-12
4.47496e-11
8.29784e-12
1.29246e-12
6.18877e-13
5.62198e-13
5.49776e-13
5.52899e-13
5.41241e-13
5.51934e-13
5.37738e-13
5.41643e-13
5.47543e-13
5.45366e-13
5.48305e-13
5.51332e-13
5.53606e-13
5.7603e-13
6.93579e-13
1.62074e-12
7.34295e-12
)
;

boundaryField
{
    fuel
    {
        type            fixedValue;
        value           uniform 0;
    }
    wall
    {
        type            zeroGradient;
    }
    outlet
    {
        type            zeroGradient;
    }
    frontAndBack
    {
        type            empty;
    }
}


// ************************************************************************* //
