/*--------------------------------*- C++ -*----------------------------------*\
| =========                 |                                                 |
| \\      /  F ield         | OpenFOAM: The Open Source CFD Toolbox           |
|  \\    /   O peration     | Version:  dev                                   |
|   \\  /    A nd           | Web:      www.OpenFOAM.org                      |
|    \\/     M anipulation  |                                                 |
\*---------------------------------------------------------------------------*/
FoamFile
{
    version     2.0;
    format      ascii;
    class       volScalarField;
    location    "0.2";
    object      i-C4H5;
}
// * * * * * * * * * * * * * * * * * * * * * * * * * * * * * * * * * * * * * //

dimensions      [0 0 0 0 0 0 0];

internalField   nonuniform List<scalar> 
1000
(
3.99921e-10
1.25664e-06
1.07737e-06
1.05725e-06
1.05306e-06
1.05309e-06
1.05303e-06
1.05305e-06
1.05305e-06
1.05313e-06
1.05309e-06
1.05298e-06
1.05307e-06
1.05287e-06
1.05308e-06
1.05324e-06
1.05741e-06
1.09713e-06
1.48805e-06
1.78857e-10
1.86098e-09
1.0793e-07
9.40836e-08
9.1139e-08
9.10426e-08
9.08675e-08
9.09131e-08
9.08915e-08
9.08943e-08
9.08982e-08
9.08919e-08
9.0891e-08
9.08884e-08
9.08831e-08
9.08914e-08
9.09168e-08
9.13216e-08
9.50166e-08
1.33695e-07
2.79979e-11
2.12571e-07
1.28133e-08
1.10579e-08
1.0424e-08
1.0474e-08
1.04116e-08
1.04279e-08
1.0419e-08
1.0421e-08
1.04199e-08
1.04188e-08
1.04202e-08
1.04183e-08
1.04197e-08
1.0419e-08
1.04243e-08
1.04824e-08
1.09663e-08
1.68337e-08
1.99042e-11
1.75e-06
4.05423e-09
2.35999e-09
2.15137e-09
2.17401e-09
2.15094e-09
2.1569e-09
2.1534e-09
2.15444e-09
2.15367e-09
2.15347e-09
2.15399e-09
2.15329e-09
2.15384e-09
2.15352e-09
2.1553e-09
2.17135e-09
2.29132e-09
4.16123e-09
5.31235e-11
2.3587e-07
1.40938e-09
9.23206e-10
8.2e-10
8.31363e-10
8.19876e-10
8.22711e-10
8.21074e-10
8.21686e-10
8.21198e-10
8.21207e-10
8.21426e-10
8.21036e-10
8.21165e-10
8.21179e-10
8.22132e-10
8.29617e-10
8.79003e-10
1.84226e-09
1.79793e-10
3.81998e-08
7.10773e-10
5.09125e-10
4.57195e-10
4.63969e-10
4.56915e-10
4.58367e-10
4.5762e-10
4.58016e-10
4.57666e-10
4.57741e-10
4.57854e-10
4.57568e-10
4.57516e-10
4.57702e-10
4.58404e-10
4.63224e-10
4.90126e-10
1.10024e-09
6.70918e-10
1.00914e-08
4.63735e-10
3.52471e-10
3.15712e-10
3.19928e-10
3.15059e-10
3.15752e-10
3.15483e-10
3.15775e-10
3.15462e-10
3.15601e-10
3.15668e-10
3.15384e-10
3.15142e-10
3.15572e-10
3.16188e-10
3.20113e-10
3.375e-10
7.65026e-10
3.14441e-09
4.6407e-09
3.51373e-10
2.76316e-10
2.47662e-10
2.50403e-10
2.46845e-10
2.47217e-10
2.47111e-10
2.47337e-10
2.47078e-10
2.47219e-10
2.47263e-10
2.47013e-10
2.46851e-10
2.47209e-10
2.47738e-10
2.51256e-10
2.64538e-10
5.88441e-10
1.9368e-08
2.92064e-09
2.93933e-10
2.32303e-10
2.08841e-10
2.12013e-10
2.09404e-10
2.09807e-10
2.09576e-10
2.09775e-10
2.09571e-10
2.09688e-10
2.0972e-10
2.09503e-10
2.09548e-10
2.09701e-10
2.10058e-10
2.11592e-10
2.22086e-10
5.04469e-10
9.80387e-08
2.15347e-09
2.57176e-10
2.03672e-10
1.85407e-10
1.8717e-10
1.84821e-10
1.85284e-10
1.84895e-10
1.85085e-10
1.84909e-10
1.85024e-10
1.85052e-10
1.84799e-10
1.85115e-10
1.85091e-10
1.85558e-10
1.88104e-10
1.94376e-10
4.81942e-10
2.52214e-07
1.78813e-09
2.33442e-10
1.84512e-10
1.68485e-10
1.69642e-10
1.67693e-10
1.68016e-10
1.67699e-10
1.67884e-10
1.67728e-10
1.67841e-10
1.67867e-10
1.67553e-10
1.67893e-10
1.67941e-10
1.68426e-10
1.71005e-10
1.7775e-10
4.48866e-10
3.11078e-07
1.63711e-09
2.15035e-10
1.70279e-10
1.55897e-10
1.56648e-10
1.54904e-10
1.55018e-10
1.54854e-10
1.55049e-10
1.54898e-10
1.55015e-10
1.55045e-10
1.54629e-10
1.54835e-10
1.55152e-10
1.55677e-10
1.58382e-10
1.64683e-10
3.75076e-10
2.24763e-07
1.60378e-09
2.00346e-10
1.58562e-10
1.45739e-10
1.46215e-10
1.44587e-10
1.44436e-10
1.44481e-10
1.44697e-10
1.44565e-10
1.44668e-10
1.44705e-10
1.44143e-10
1.45522e-10
1.44853e-10
1.45409e-10
1.48249e-10
1.53634e-10
2.9712e-10
1.20115e-07
1.62735e-09
1.87846e-10
1.50557e-10
1.37057e-10
1.37324e-10
1.35779e-10
1.36538e-10
1.35604e-10
1.35851e-10
1.35742e-10
1.35823e-10
1.35873e-10
1.35082e-10
1.36485e-10
1.36047e-10
1.36642e-10
1.39617e-10
1.45456e-10
2.36653e-10
5.71375e-08
1.66326e-09
1.77242e-10
1.42922e-10
1.29334e-10
1.29439e-10
1.27948e-10
1.28598e-10
1.27695e-10
1.27992e-10
1.27904e-10
1.27964e-10
1.28034e-10
1.28047e-10
1.28473e-10
1.28224e-10
1.28858e-10
1.31954e-10
1.37291e-10
1.93729e-10
2.63394e-08
1.67608e-09
1.67363e-10
1.35293e-10
1.22284e-10
1.22265e-10
1.20814e-10
1.21321e-10
1.20465e-10
1.20839e-10
1.20763e-10
1.2081e-10
1.20899e-10
1.20821e-10
1.21219e-10
1.21104e-10
1.21773e-10
1.24966e-10
1.2986e-10
1.67435e-10
1.19014e-08
1.64068e-09
1.57591e-10
1.28128e-10
1.15741e-10
1.15633e-10
1.1422e-10
1.14612e-10
1.13738e-10
1.14229e-10
1.14158e-10
1.14197e-10
1.14305e-10
1.14114e-10
1.14558e-10
1.14526e-10
1.15222e-10
1.18483e-10
1.23048e-10
1.49137e-10
5.3251e-09
1.54678e-09
1.48056e-10
1.21169e-10
1.09599e-10
1.0944e-10
1.08067e-10
1.08376e-10
1.07397e-10
1.08064e-10
1.07993e-10
1.08026e-10
1.08153e-10
1.07792e-10
1.08371e-10
1.08389e-10
1.09105e-10
1.124e-10
1.16732e-10
1.3604e-10
2.41335e-09
1.40105e-09
1.38961e-10
1.15854e-10
1.03787e-10
1.03615e-10
1.0229e-10
1.02548e-10
1.02176e-10
1.02279e-10
1.02202e-10
1.02231e-10
1.02374e-10
1.01739e-10
1.02579e-10
1.02624e-10
1.03351e-10
1.06645e-10
1.10823e-10
1.26265e-10
1.13792e-09
1.18396e-09
1.3027e-10
1.10415e-10
9.82357e-11
9.8105e-11
9.68375e-11
9.70565e-11
9.66103e-11
9.68173e-11
9.67363e-11
9.67594e-11
9.69205e-11
9.66886e-11
9.71269e-11
9.71781e-11
9.79095e-11
1.01162e-10
1.05259e-10
1.18022e-10
5.75052e-10
9.79975e-10
1.22047e-10
1.04682e-10
9.35023e-11
9.28543e-11
9.16608e-11
9.18486e-11
9.1281e-11
9.16306e-11
9.15477e-11
9.15631e-11
9.17416e-11
9.17997e-11
9.19556e-11
9.20021e-11
9.27315e-11
9.58675e-11
9.99931e-11
1.11136e-10
3.20935e-10
7.9012e-10
1.14307e-10
9.92157e-11
8.87396e-11
8.77908e-11
8.67112e-11
8.68684e-11
8.682e-11
8.66678e-11
8.65846e-11
8.65863e-11
8.67854e-11
8.67849e-11
8.7003e-11
8.70425e-11
8.77665e-11
9.08267e-11
9.49898e-11
1.05473e-10
2.02227e-10
6.11669e-10
1.07046e-10
9.39643e-11
8.44915e-11
8.36331e-11
8.25651e-11
8.27253e-11
8.26382e-11
8.25265e-11
8.24401e-11
8.24051e-11
8.26504e-11
8.26172e-11
8.28653e-11
8.28993e-11
8.36087e-11
8.65251e-11
9.02176e-11
1.00368e-10
1.44455e-10
4.74589e-10
1.0028e-10
8.884e-11
8.01867e-11
7.931e-11
7.82732e-11
7.84165e-11
7.82956e-11
7.82208e-11
7.81295e-11
7.81552e-11
7.83649e-11
7.82903e-11
7.85778e-11
7.86035e-11
7.93182e-11
8.22814e-11
8.56057e-11
9.57705e-11
1.15061e-10
3.7258e-10
9.39903e-11
8.37044e-11
7.6335e-11
7.55146e-11
7.45161e-11
7.46506e-11
7.45094e-11
7.44614e-11
7.43706e-11
7.43621e-11
7.46162e-11
7.45136e-11
7.4818e-11
7.48396e-11
7.55309e-11
7.83795e-11
8.16994e-11
9.15369e-11
9.94133e-11
2.84511e-10
8.8162e-11
7.95808e-11
7.2674e-11
7.19068e-11
7.09523e-11
7.10759e-11
7.09211e-11
7.08943e-11
7.08051e-11
7.07909e-11
7.10586e-11
7.09296e-11
7.12489e-11
7.12686e-11
7.1922e-11
7.46592e-11
7.7594e-11
8.7546e-11
9.06823e-11
2.16672e-10
8.27494e-11
7.56267e-11
6.91922e-11
6.84815e-11
6.75709e-11
6.76845e-11
6.75203e-11
6.75107e-11
6.74237e-11
6.74039e-11
6.76756e-11
6.75247e-11
6.78563e-11
6.78754e-11
6.84907e-11
7.10999e-11
7.39312e-11
8.37821e-11
8.52759e-11
1.71695e-10
7.77357e-11
7.18677e-11
6.58904e-11
6.52422e-11
6.43719e-11
6.44783e-11
6.43071e-11
6.43115e-11
6.42272e-11
6.41992e-11
6.44691e-11
6.43027e-11
6.46415e-11
6.46606e-11
6.5238e-11
6.7702e-11
7.04139e-11
7.96975e-11
8.14739e-11
1.43675e-10
7.31296e-11
6.82986e-11
6.27879e-11
6.2194e-11
6.13705e-11
6.14688e-11
6.12943e-11
6.13092e-11
6.12286e-11
6.11942e-11
6.1457e-11
6.12827e-11
6.16218e-11
6.16411e-11
6.21812e-11
6.448e-11
6.70612e-11
7.55452e-11
7.84111e-11
1.21015e-10
6.92276e-11
6.49647e-11
5.99258e-11
5.93795e-11
5.86115e-11
5.87002e-11
5.8526e-11
5.85489e-11
5.84727e-11
5.84339e-11
5.86828e-11
5.85091e-11
5.88405e-11
5.886e-11
5.93638e-11
6.1472e-11
6.39265e-11
7.21127e-11
7.56877e-11
1.0239e-10
6.58368e-11
6.19455e-11
5.73859e-11
5.68823e-11
5.61816e-11
5.62579e-11
5.60877e-11
5.61197e-11
5.6045e-11
5.60047e-11
5.62294e-11
5.60672e-11
5.63826e-11
5.64016e-11
5.68707e-11
5.87531e-11
6.1107e-11
6.88849e-11
7.31336e-11
9.09563e-11
6.30931e-11
5.93797e-11
5.5312e-11
5.48442e-11
5.42289e-11
5.42885e-11
5.41279e-11
5.41749e-11
5.40947e-11
5.4057e-11
5.42413e-11
5.41059e-11
5.43927e-11
5.44109e-11
5.48441e-11
5.64578e-11
5.87649e-11
6.59709e-11
7.07726e-11
8.25722e-11
6.12163e-11
5.74954e-11
5.39442e-11
5.33681e-11
5.29258e-11
5.29594e-11
5.2895e-11
5.28769e-11
5.28709e-11
5.28426e-11
5.29604e-11
5.28743e-11
5.30271e-11
5.30473e-11
5.33884e-11
5.48117e-11
5.68475e-11
6.35753e-11
6.87968e-11
7.711e-11
6.04415e-11
5.63355e-11
5.36954e-11
5.3073e-11
5.28133e-11
5.28087e-11
5.28105e-11
5.27751e-11
5.2794e-11
5.27847e-11
5.27932e-11
5.27935e-11
5.28316e-11
5.28587e-11
5.3124e-11
5.41918e-11
5.6127e-11
6.20625e-11
6.75847e-11
7.44462e-11
6.17228e-11
5.69822e-11
5.52765e-11
5.45593e-11
5.4564e-11
5.44985e-11
5.46088e-11
5.45267e-11
5.45985e-11
5.46248e-11
5.44493e-11
5.45998e-11
5.44505e-11
5.44982e-11
5.46568e-11
5.52425e-11
5.72816e-11
6.20226e-11
6.77763e-11
7.513e-11
6.61918e-11
6.03257e-11
5.99901e-11
5.90904e-11
5.95123e-11
5.93448e-11
5.96438e-11
5.9463e-11
5.9638e-11
5.97303e-11
5.92339e-11
5.96516e-11
5.91776e-11
5.92724e-11
5.92708e-11
5.91377e-11
6.14654e-11
6.44758e-11
7.04496e-11
8.06458e-11
7.62032e-11
6.84448e-11
7.03389e-11
6.91042e-11
7.02338e-11
6.98848e-11
7.05216e-11
7.01507e-11
7.05167e-11
7.07335e-11
6.96568e-11
7.05639e-11
6.95134e-11
6.97029e-11
6.94411e-11
6.81358e-11
7.10652e-11
7.13282e-11
7.75982e-11
9.41354e-11
9.64072e-11
8.54184e-11
9.12719e-11
8.93781e-11
9.18063e-11
9.11109e-11
9.23714e-11
9.16371e-11
9.23599e-11
9.28146e-11
9.06645e-11
9.24854e-11
9.03995e-11
9.07662e-11
9.00518e-11
8.67205e-11
9.07965e-11
8.63137e-11
9.29611e-11
1.22218e-10
1.35866e-10
1.19555e-10
1.32564e-10
1.29443e-10
1.34271e-10
1.32925e-10
1.35329e-10
1.33908e-10
1.35293e-10
1.36186e-10
1.32053e-10
1.35573e-10
1.31657e-10
1.32316e-10
1.30826e-10
1.23864e-10
1.30023e-10
1.16926e-10
1.23845e-10
1.78213e-10
2.12375e-10
1.87492e-10
2.13466e-10
2.08061e-10
2.17319e-10
2.14762e-10
2.19231e-10
2.16537e-10
2.19134e-10
2.20833e-10
2.13067e-10
2.19722e-10
2.12622e-10
2.13745e-10
2.11009e-10
1.97459e-10
2.07277e-10
1.78253e-10
1.84767e-10
2.8881e-10
3.60726e-10
3.22208e-10
3.71573e-10
3.61872e-10
3.79187e-10
3.74393e-10
3.82535e-10
3.77518e-10
3.82298e-10
3.85451e-10
3.71155e-10
3.83493e-10
3.70966e-10
3.72793e-10
3.68303e-10
3.42816e-10
3.58849e-10
3.00512e-10
3.04477e-10
5.07724e-10
6.52054e-10
5.89353e-10
6.85064e-10
6.68307e-10
6.94909e-10
6.85969e-10
7.00613e-10
6.9139e-10
7.00078e-10
7.05811e-10
6.79907e-10
7.02428e-10
6.8066e-10
6.83585e-10
6.77294e-10
6.32144e-10
6.56322e-10
5.44338e-10
5.40247e-10
9.47446e-10
1.2253e-09
1.12523e-09
1.30081e-09
1.26986e-09
1.32011e-09
1.30329e-09
1.32976e-09
1.31273e-09
1.3286e-09
1.33898e-09
1.29203e-09
1.33314e-09
1.295e-09
1.29985e-09
1.28953e-09
1.20725e-09
1.24826e-09
1.0365e-09
1.01166e-09
1.86802e-09
2.41075e-09
2.24242e-09
2.57401e-09
2.51508e-09
2.61048e-09
2.57779e-09
2.62704e-09
2.59471e-09
2.62454e-09
2.64373e-09
2.55653e-09
2.63342e-09
2.56426e-09
2.57283e-09
2.55543e-09
2.40288e-09
2.47474e-09
2.06803e-09
1.9938e-09
3.95092e-09
5.05866e-09
4.75232e-09
5.41498e-09
5.29542e-09
5.48626e-09
5.41879e-09
5.5161e-09
5.45098e-09
5.51051e-09
5.54804e-09
5.37642e-09
5.52868e-09
5.39515e-09
5.41123e-09
5.38136e-09
5.08156e-09
5.21597e-09
4.39559e-09
4.20275e-09
9.34238e-09
1.18103e-08
1.11878e-08
1.26426e-08
1.2375e-08
1.27937e-08
1.26408e-08
1.28517e-08
1.27079e-08
1.28382e-08
1.29185e-08
1.25482e-08
1.28787e-08
1.25962e-08
1.26279e-08
1.25759e-08
1.19252e-08
1.22039e-08
1.03862e-08
9.87911e-09
2.59611e-08
3.15979e-08
3.03346e-08
3.34735e-08
3.28654e-08
3.37512e-08
3.34127e-08
3.38424e-08
3.35418e-08
3.38098e-08
3.39621e-08
3.32294e-08
3.38915e-08
3.33525e-08
3.34e-08
3.33473e-08
3.19899e-08
3.25562e-08
2.85464e-08
2.71866e-08
7.13673e-08
7.84075e-08
7.7359e-08
8.03168e-08
7.946e-08
8.02481e-08
7.98789e-08
8.01564e-08
7.99345e-08
8.01092e-08
8.01025e-08
7.98681e-08
8.01224e-08
8.00453e-08
7.99638e-08
8.02206e-08
7.92896e-08
7.96822e-08
7.60168e-08
7.36071e-08
1.25124e-07
1.26672e-07
1.26804e-07
1.2604e-07
1.25178e-07
1.25002e-07
1.24878e-07
1.24512e-07
1.247e-07
1.24452e-07
1.23953e-07
1.25457e-07
1.24201e-07
1.25546e-07
1.25103e-07
1.26024e-07
1.27192e-07
1.26983e-07
1.29575e-07
1.28209e-07
1.51178e-07
1.4989e-07
1.4972e-07
1.47494e-07
1.46372e-07
1.45845e-07
1.45763e-07
1.45135e-07
1.45482e-07
1.4503e-07
1.44202e-07
1.46724e-07
1.44572e-07
1.46753e-07
1.45983e-07
1.47428e-07
1.49292e-07
1.49387e-07
1.54844e-07
1.55257e-07
)
;

boundaryField
{
    fuel
    {
        type            fixedValue;
        value           uniform 0;
    }
    wall
    {
        type            zeroGradient;
    }
    outlet
    {
        type            zeroGradient;
    }
    frontAndBack
    {
        type            empty;
    }
}


// ************************************************************************* //
