/*--------------------------------*- C++ -*----------------------------------*\
| =========                 |                                                 |
| \\      /  F ield         | OpenFOAM: The Open Source CFD Toolbox           |
|  \\    /   O peration     | Version:  dev                                   |
|   \\  /    A nd           | Web:      www.OpenFOAM.org                      |
|    \\/     M anipulation  |                                                 |
\*---------------------------------------------------------------------------*/
FoamFile
{
    version     2.0;
    format      ascii;
    class       volScalarField;
    location    "0.2";
    object      i-C6H5;
}
// * * * * * * * * * * * * * * * * * * * * * * * * * * * * * * * * * * * * * //

dimensions      [0 0 0 0 0 0 0];

internalField   nonuniform List<scalar> 
1000
(
3.62439e-12
1.15247e-08
1.00495e-08
9.86064e-09
9.82668e-09
9.82429e-09
9.82389e-09
9.82399e-09
9.82401e-09
9.82443e-09
9.8241e-09
9.82348e-09
9.82408e-09
9.82258e-09
9.82441e-09
9.82665e-09
9.86432e-09
1.02081e-08
1.34861e-08
1.61202e-12
8.52161e-12
2.82452e-09
2.80604e-09
2.75925e-09
2.76291e-09
2.75771e-09
2.75864e-09
2.7581e-09
2.75824e-09
2.75802e-09
2.75791e-09
2.75822e-09
2.75798e-09
2.75823e-09
2.7582e-09
2.7591e-09
2.76384e-09
2.79393e-09
2.98549e-09
4.70514e-13
8.35865e-10
1.8068e-09
1.8443e-09
1.78609e-09
1.79422e-09
1.78666e-09
1.78822e-09
1.78726e-09
1.78755e-09
1.78723e-09
1.78714e-09
1.78748e-09
1.78712e-09
1.78748e-09
1.78736e-09
1.78827e-09
1.7926e-09
1.81549e-09
1.8672e-09
3.07679e-13
1.90238e-08
1.20126e-09
1.19219e-09
1.12366e-09
1.13364e-09
1.12476e-09
1.12675e-09
1.12557e-09
1.12596e-09
1.12558e-09
1.12555e-09
1.12584e-09
1.12546e-09
1.12573e-09
1.12567e-09
1.12653e-09
1.13132e-09
1.15759e-09
1.24665e-09
2.5399e-13
5.57105e-09
7.89919e-10
7.67107e-10
6.98224e-10
7.07825e-10
6.99301e-10
7.01118e-10
7.00101e-10
7.00523e-10
7.00124e-10
7.00164e-10
7.00372e-10
7.00009e-10
7.00088e-10
7.00201e-10
7.00982e-10
7.05675e-10
7.31137e-10
8.26219e-10
2.88925e-13
4.28175e-09
5.45646e-10
5.03352e-10
4.51886e-10
4.59912e-10
4.52517e-10
4.53816e-10
4.5319e-10
4.53568e-10
4.53187e-10
4.53281e-10
4.53425e-10
4.53096e-10
4.52981e-10
4.53282e-10
4.54009e-10
4.58545e-10
4.82012e-10
5.65444e-10
4.82469e-13
3.50044e-09
3.91456e-10
3.54982e-10
3.1001e-10
3.16103e-10
3.09934e-10
3.10715e-10
3.10441e-10
3.1077e-10
3.10385e-10
3.10549e-10
3.10648e-10
3.10308e-10
3.09945e-10
3.1054e-10
3.11233e-10
3.15833e-10
3.37394e-10
4.04618e-10
1.29495e-12
2.70312e-09
2.97538e-10
2.64302e-10
2.25031e-10
2.29588e-10
2.2462e-10
2.25186e-10
2.24996e-10
2.25269e-10
2.24936e-10
2.25101e-10
2.25169e-10
2.24878e-10
2.24606e-10
2.25098e-10
2.25676e-10
2.30183e-10
2.50932e-10
3.02557e-10
5.78553e-12
2.02832e-09
2.40575e-10
2.03982e-10
1.70133e-10
1.75475e-10
1.71722e-10
1.72467e-10
1.72004e-10
1.72241e-10
1.71991e-10
1.7211e-10
1.72158e-10
1.71943e-10
1.71977e-10
1.72124e-10
1.72417e-10
1.74107e-10
1.93261e-10
2.35458e-10
2.61228e-11
1.48896e-09
1.99927e-10
1.61519e-10
1.35273e-10
1.38482e-10
1.35179e-10
1.36082e-10
1.35335e-10
1.35548e-10
1.3535e-10
1.35455e-10
1.35491e-10
1.35265e-10
1.35698e-10
1.35529e-10
1.35936e-10
1.39017e-10
1.52879e-10
1.89854e-10
7.99345e-11
1.06813e-09
1.7148e-10
1.3254e-10
1.10452e-10
1.12629e-10
1.1009e-10
1.108e-10
1.10157e-10
1.10342e-10
1.10176e-10
1.10278e-10
1.10307e-10
1.10046e-10
1.10482e-10
1.10377e-10
1.10761e-10
1.13658e-10
1.28192e-10
1.5794e-10
1.78233e-10
7.51244e-10
1.4863e-10
1.11724e-10
9.31765e-11
9.46305e-11
9.25828e-11
9.29771e-11
9.25835e-11
9.27602e-11
9.2608e-11
9.27132e-11
9.27399e-11
9.24044e-11
9.25947e-11
9.2837e-11
9.32291e-11
9.60241e-11
1.09373e-10
1.3487e-10
2.8337e-10
5.22421e-10
1.30383e-10
9.58364e-11
8.05812e-11
8.15452e-11
7.98402e-11
7.98505e-11
7.9785e-11
7.99637e-11
7.98389e-11
7.99276e-11
7.99567e-11
7.95053e-11
8.0957e-11
8.00857e-11
8.04796e-11
8.31652e-11
9.44538e-11
1.17656e-10
3.19633e-10
3.63263e-10
1.15405e-10
8.57225e-11
7.10021e-11
7.16172e-11
7.01696e-11
7.10287e-11
7.00563e-11
7.02445e-11
7.01498e-11
7.02148e-11
7.02507e-11
6.96026e-11
7.09583e-11
7.03955e-11
7.08004e-11
7.33861e-11
8.41562e-11
1.03421e-10
2.77273e-10
2.5564e-10
1.03416e-10
7.70023e-11
6.34152e-11
6.37819e-11
6.25196e-11
6.31921e-11
6.23499e-11
6.25629e-11
6.24926e-11
6.25365e-11
6.25852e-11
6.26635e-11
6.30603e-11
6.27349e-11
6.31532e-11
6.56461e-11
7.47901e-11
9.12383e-11
1.9937e-10
1.84072e-10
9.31777e-11
6.92146e-11
5.71817e-11
5.73772e-11
5.62516e-11
5.67393e-11
5.60187e-11
5.62739e-11
5.62191e-11
5.62488e-11
5.63099e-11
5.62994e-11
5.66283e-11
5.64636e-11
5.68934e-11
5.9297e-11
6.69807e-11
8.27094e-11
1.24039e-10
1.36747e-10
8.40103e-11
6.25867e-11
5.18968e-11
5.19797e-11
5.09602e-11
5.13107e-11
5.06481e-11
5.0968e-11
5.09203e-11
5.09422e-11
5.1015e-11
5.09165e-11
5.1241e-11
5.11731e-11
5.16098e-11
5.39228e-11
6.03816e-11
7.54516e-11
6.91882e-11
1.0537e-10
7.58476e-11
5.66979e-11
4.72972e-11
4.73133e-11
4.63813e-11
4.66361e-11
4.59602e-11
4.63788e-11
4.63325e-11
4.63503e-11
4.64339e-11
4.62263e-11
4.66096e-11
4.65961e-11
4.70346e-11
4.9252e-11
5.47023e-11
6.91416e-11
3.63277e-11
8.44954e-11
6.86335e-11
5.23921e-11
4.32084e-11
4.31931e-11
4.23383e-11
4.2533e-11
4.22703e-11
4.23293e-11
4.22804e-11
4.22953e-11
4.23887e-11
4.20261e-11
4.25392e-11
4.2554e-11
4.29892e-11
4.51031e-11
4.97344e-11
6.35856e-11
1.95287e-11
6.82533e-11
6.21613e-11
4.82405e-11
3.95026e-11
3.94923e-11
3.87099e-11
3.88633e-11
3.85798e-11
3.86946e-11
3.86438e-11
3.86555e-11
3.8759e-11
3.8641e-11
3.88998e-11
3.89241e-11
3.93515e-11
4.13507e-11
4.53229e-11
5.79915e-11
1.23204e-11
5.8064e-11
5.63015e-11
4.41077e-11
3.6419e-11
3.6119e-11
3.54096e-11
3.55332e-11
3.52065e-11
3.53881e-11
3.53367e-11
3.53438e-11
3.54571e-11
3.54914e-11
3.55943e-11
3.5619e-11
3.60351e-11
3.78867e-11
4.13652e-11
5.28247e-11
1.02325e-11
5.10267e-11
5.0932e-11
4.03162e-11
3.34393e-11
3.29946e-11
3.23709e-11
3.24698e-11
3.24211e-11
3.23422e-11
3.2291e-11
3.22902e-11
3.24147e-11
3.24106e-11
3.25481e-11
3.25704e-11
3.29731e-11
3.47194e-11
3.77772e-11
4.81622e-11
1.07239e-11
4.55086e-11
4.59556e-11
3.67865e-11
3.08167e-11
3.04351e-11
2.98362e-11
2.99313e-11
2.9864e-11
2.98097e-11
2.9757e-11
2.97371e-11
2.98854e-11
2.986e-11
3.00138e-11
3.00338e-11
3.04195e-11
3.20333e-11
3.44984e-11
4.37663e-11
1.2445e-11
4.15527e-11
4.13134e-11
3.34456e-11
2.8244e-11
2.78749e-11
2.73116e-11
2.7394e-11
2.73132e-11
2.72782e-11
2.72238e-11
2.72377e-11
2.73641e-11
2.73161e-11
2.74883e-11
2.75043e-11
2.78804e-11
2.94564e-11
3.14556e-11
3.97684e-11
1.46333e-11
3.85638e-11
3.69578e-11
3.02115e-11
2.59402e-11
2.56219e-11
2.5092e-11
2.51674e-11
2.50778e-11
2.50575e-11
2.50035e-11
2.49995e-11
2.51471e-11
2.50838e-11
2.5264e-11
2.5278e-11
2.56322e-11
2.71018e-11
2.8888e-11
3.61185e-11
1.67539e-11
3.55342e-11
3.28591e-11
2.75611e-11
2.37545e-11
2.34865e-11
2.29896e-11
2.30581e-11
2.29619e-11
2.29538e-11
2.29003e-11
2.2889e-11
2.30435e-11
2.29659e-11
2.31537e-11
2.31669e-11
2.34937e-11
2.4865e-11
2.62915e-11
3.27704e-11
1.84495e-11
3.24268e-11
2.8991e-11
2.50187e-11
2.16535e-11
2.14409e-11
2.09721e-11
2.10355e-11
2.09328e-11
2.09353e-11
2.08819e-11
2.08662e-11
2.10245e-11
2.0934e-11
2.11294e-11
2.11418e-11
2.1443e-11
2.27135e-11
2.39485e-11
2.97005e-11
1.95555e-11
2.96807e-11
2.53416e-11
2.25724e-11
1.96057e-11
1.94539e-11
1.90067e-11
1.9067e-11
1.89574e-11
1.89696e-11
1.89152e-11
1.88964e-11
1.90576e-11
1.89559e-11
1.91587e-11
1.91701e-11
1.94475e-11
2.0617e-11
2.16712e-11
2.65269e-11
1.99875e-11
2.71949e-11
2.18927e-11
2.0186e-11
1.75838e-11
1.74907e-11
1.7063e-11
1.71213e-11
1.70047e-11
1.70263e-11
1.69699e-11
1.69471e-11
1.71118e-11
1.70002e-11
1.72101e-11
1.72199e-11
1.74757e-11
1.85453e-11
1.94294e-11
2.34336e-11
1.97516e-11
2.41717e-11
1.87773e-11
1.78398e-11
1.55607e-11
1.55236e-11
1.51137e-11
1.51708e-11
1.50472e-11
1.50785e-11
1.50186e-11
1.4992e-11
1.51604e-11
1.504e-11
1.52567e-11
1.52641e-11
1.55002e-11
1.64715e-11
1.71982e-11
2.07806e-11
1.89089e-11
2.04871e-11
1.58364e-11
1.55199e-11
1.35209e-11
1.35356e-11
1.31431e-11
1.31996e-11
1.30693e-11
1.31117e-11
1.30459e-11
1.30162e-11
1.31879e-11
1.30603e-11
1.32828e-11
1.32867e-11
1.35049e-11
1.43778e-11
1.49627e-11
1.81663e-11
1.75331e-11
1.73379e-11
1.30807e-11
1.32272e-11
1.14683e-11
1.15294e-11
1.11564e-11
1.12123e-11
1.10756e-11
1.11315e-11
1.1057e-11
1.10252e-11
1.11978e-11
1.10658e-11
1.12923e-11
1.12917e-11
1.1493e-11
1.22643e-11
1.27321e-11
1.55657e-11
1.57164e-11
1.4151e-11
1.05287e-11
1.09896e-11
9.43357e-12
9.473e-12
9.14986e-12
9.20335e-12
9.09808e-12
9.12842e-12
9.084e-12
9.05176e-12
9.22069e-12
9.08844e-12
9.27585e-12
9.27107e-12
9.4321e-12
1.0158e-11
1.03968e-11
1.29853e-11
1.3572e-11
1.11817e-11
8.13584e-12
8.68091e-12
7.47885e-12
7.53781e-12
7.25056e-12
7.3005e-12
7.19926e-12
7.23686e-12
7.18902e-12
7.15808e-12
7.31642e-12
7.1903e-12
7.36655e-12
7.35767e-12
7.49477e-12
8.11628e-12
8.20829e-12
1.04764e-11
1.12391e-11
8.51483e-12
6.12245e-12
6.68479e-12
5.68895e-12
5.75267e-12
5.51039e-12
5.55436e-12
5.46403e-12
5.5023e-12
5.45704e-12
5.42935e-12
5.56896e-12
5.45625e-12
5.6113e-12
5.60015e-12
5.71041e-12
6.22207e-12
6.25603e-12
8.12298e-12
8.88202e-12
6.2464e-12
4.45717e-12
4.9352e-12
4.15791e-12
4.21405e-12
4.0244e-12
4.06007e-12
3.98648e-12
4.01991e-12
3.98209e-12
3.95946e-12
4.07247e-12
3.98029e-12
4.1053e-12
4.09418e-12
4.17704e-12
4.57261e-12
4.573e-12
6.03033e-12
6.67916e-12
4.44678e-12
3.19277e-12
3.52879e-12
2.97485e-12
3.01443e-12
2.88191e-12
2.90728e-12
2.8548e-12
2.87942e-12
2.85229e-12
2.83617e-12
2.91613e-12
2.85046e-12
2.93883e-12
2.93007e-12
2.9866e-12
3.26435e-12
3.25643e-12
4.30996e-12
4.81579e-12
3.17104e-12
2.37987e-12
2.55387e-12
2.2182e-12
2.23644e-12
2.16215e-12
2.17567e-12
2.14712e-12
2.16014e-12
2.14573e-12
2.1377e-12
2.17939e-12
2.14525e-12
2.19269e-12
2.18835e-12
2.22044e-12
2.38335e-12
2.38954e-12
3.06238e-12
3.43339e-12
2.46807e-12
2.08361e-12
2.09693e-12
1.97335e-12
1.96667e-12
1.95185e-12
1.95175e-12
1.94947e-12
1.94831e-12
1.94841e-12
1.94991e-12
1.94768e-12
1.95057e-12
1.95382e-12
1.95552e-12
1.96492e-12
2.01703e-12
2.05613e-12
2.37725e-12
2.64265e-12
2.40313e-12
2.41224e-12
2.27386e-12
2.36543e-12
2.3283e-12
2.37755e-12
2.3612e-12
2.388e-12
2.36961e-12
2.38648e-12
2.39927e-12
2.34572e-12
2.3928e-12
2.34884e-12
2.35757e-12
2.34654e-12
2.28808e-12
2.37528e-12
2.3633e-12
2.5523e-12
3.11593e-12
3.52687e-12
3.26375e-12
3.57108e-12
3.49914e-12
3.61447e-12
3.57976e-12
3.6367e-12
3.5988e-12
3.63394e-12
3.65977e-12
3.54921e-12
3.64645e-12
3.55589e-12
3.5714e-12
3.54638e-12
3.37718e-12
3.51943e-12
3.1842e-12
3.30603e-12
4.77998e-12
5.58466e-12
5.25049e-12
5.75903e-12
5.66434e-12
5.79518e-12
5.74439e-12
5.82375e-12
5.76938e-12
5.8193e-12
5.85655e-12
5.69816e-12
5.83898e-12
5.71578e-12
5.73632e-12
5.71198e-12
5.46961e-12
5.6368e-12
5.02603e-12
5.05445e-12
7.41625e-12
8.42391e-12
8.18254e-12
8.70482e-12
8.60908e-12
8.74359e-12
8.68991e-12
8.76533e-12
8.70978e-12
8.75972e-12
8.79867e-12
8.63664e-12
8.78396e-12
8.66835e-12
8.69022e-12
8.67216e-12
8.43553e-12
8.5931e-12
7.88946e-12
7.76836e-12
1.05167e-11
1.132e-11
1.13708e-11
1.16192e-11
1.1573e-11
1.16204e-11
1.15902e-11
1.16159e-11
1.15887e-11
1.16114e-11
1.16328e-11
1.15515e-11
1.1632e-11
1.15914e-11
1.16077e-11
1.16163e-11
1.15398e-11
1.1595e-11
1.11744e-11
1.08625e-11
1.2723e-11
1.28026e-11
1.32816e-11
1.29733e-11
1.30226e-11
1.2908e-11
1.29286e-11
1.28653e-11
1.28946e-11
1.28652e-11
1.28506e-11
1.29292e-11
1.28715e-11
1.29635e-11
1.29656e-11
1.30159e-11
1.32307e-11
1.3103e-11
1.33801e-11
1.29238e-11
1.23055e-11
1.15156e-11
1.23063e-11
1.14844e-11
1.16208e-11
1.13711e-11
1.14408e-11
1.13037e-11
1.13839e-11
1.13092e-11
1.12617e-11
1.14831e-11
1.12981e-11
1.14998e-11
1.14861e-11
1.15627e-11
1.20227e-11
1.17385e-11
1.27314e-11
1.22813e-11
8.99398e-12
7.91637e-12
8.64705e-12
7.77918e-12
7.92461e-12
7.67594e-12
7.7532e-12
7.6166e-12
7.70137e-12
7.62429e-12
7.57258e-12
7.80696e-12
7.60615e-12
7.8075e-12
7.78904e-12
7.85452e-12
8.31284e-12
8.02532e-12
9.14631e-12
8.84487e-12
4.9098e-12
4.17423e-12
4.58973e-12
4.05174e-12
4.13963e-12
3.98968e-12
4.03866e-12
3.95554e-12
4.00855e-12
3.96088e-12
3.92708e-12
4.07603e-12
3.94709e-12
4.07109e-12
4.05814e-12
4.0951e-12
4.37375e-12
4.20192e-12
4.92639e-12
4.80044e-12
2.34773e-12
2.06726e-12
2.21299e-12
2.00461e-12
2.03141e-12
1.974e-12
1.99215e-12
1.95838e-12
1.97979e-12
1.96032e-12
1.94364e-12
2.01102e-12
1.95276e-12
2.0084e-12
2.00076e-12
2.0195e-12
2.13231e-12
2.06843e-12
2.3666e-12
2.32775e-12
1.7741e-12
1.66487e-12
1.70325e-12
1.60839e-12
1.60424e-12
1.57919e-12
1.58481e-12
1.5665e-12
1.5774e-12
1.56673e-12
1.55163e-12
1.60245e-12
1.55858e-12
1.60095e-12
1.59093e-12
1.61088e-12
1.67272e-12
1.65021e-12
1.81877e-12
1.81296e-12
)
;

boundaryField
{
    fuel
    {
        type            fixedValue;
        value           uniform 0;
    }
    wall
    {
        type            zeroGradient;
    }
    outlet
    {
        type            zeroGradient;
    }
    frontAndBack
    {
        type            empty;
    }
}


// ************************************************************************* //
