/*--------------------------------*- C++ -*----------------------------------*\
| =========                 |                                                 |
| \\      /  F ield         | OpenFOAM: The Open Source CFD Toolbox           |
|  \\    /   O peration     | Version:  dev                                   |
|   \\  /    A nd           | Web:      www.OpenFOAM.org                      |
|    \\/     M anipulation  |                                                 |
\*---------------------------------------------------------------------------*/
FoamFile
{
    version     2.0;
    format      ascii;
    class       volScalarField;
    location    "0.2";
    object      i-C6H7;
}
// * * * * * * * * * * * * * * * * * * * * * * * * * * * * * * * * * * * * * //

dimensions      [0 0 0 0 0 0 0];

internalField   nonuniform List<scalar> 
1000
(
1.08895e-12
3.44864e-09
2.7325e-09
2.653e-09
2.63692e-09
2.63682e-09
2.63661e-09
2.63668e-09
2.63667e-09
2.63696e-09
2.63682e-09
2.63643e-09
2.63674e-09
2.63597e-09
2.63679e-09
2.63749e-09
2.65377e-09
2.80943e-09
4.4958e-09
5.37014e-13
3.55037e-12
2.1558e-10
1.76675e-10
1.69632e-10
1.69144e-10
1.68799e-10
1.68898e-10
1.68853e-10
1.6886e-10
1.68871e-10
1.68858e-10
1.68848e-10
1.68848e-10
1.68822e-10
1.68853e-10
1.68915e-10
1.6999e-10
1.79996e-10
2.90214e-10
5.27975e-14
4.09079e-10
1.64195e-11
1.37675e-11
1.29119e-11
1.29704e-11
1.28866e-11
1.29116e-11
1.28992e-11
1.29019e-11
1.29007e-11
1.28995e-11
1.29006e-11
1.28983e-11
1.28994e-11
1.2899e-11
1.29057e-11
1.29904e-11
1.37213e-11
2.17925e-11
1.5443e-14
7.41794e-09
7.50078e-12
1.84202e-12
1.67138e-12
1.69288e-12
1.67314e-12
1.67871e-12
1.67566e-12
1.67646e-12
1.67588e-12
1.67573e-12
1.67613e-12
1.67555e-12
1.67608e-12
1.67573e-12
1.67699e-12
1.68891e-12
1.77912e-12
2.85867e-12
1.79034e-14
8.12608e-10
1.65341e-12
6.15025e-13
5.42581e-13
5.51123e-13
5.42977e-13
5.45033e-13
5.4385e-13
5.44237e-13
5.43924e-13
5.43908e-13
5.4407e-13
5.43819e-13
5.43949e-13
5.43924e-13
5.44538e-13
5.49608e-13
5.85376e-13
1.13406e-12
2.84245e-14
9.47952e-11
5.30758e-13
3.38192e-13
2.96504e-13
3.0164e-13
2.96273e-13
2.97389e-13
2.96796e-13
2.97057e-13
2.96824e-13
2.96851e-13
2.9694e-13
2.9676e-13
2.96724e-13
2.9685e-13
2.97339e-13
3.01219e-13
3.27347e-13
8.15306e-13
5.72471e-14
1.35423e-11
3.0086e-13
2.26266e-13
1.93055e-13
1.96475e-13
1.92403e-13
1.93031e-13
1.92756e-13
1.92959e-13
1.92738e-13
1.92815e-13
1.92871e-13
1.92688e-13
1.92479e-13
1.92808e-13
1.93253e-13
1.96793e-13
2.18595e-13
6.83876e-13
1.73228e-13
3.42689e-12
2.18306e-13
1.65082e-13
1.37359e-13
1.3969e-13
1.36552e-13
1.36974e-13
1.368e-13
1.36958e-13
1.36776e-13
1.36853e-13
1.36889e-13
1.3674e-13
1.36579e-13
1.36849e-13
1.37217e-13
1.4051e-13
1.60096e-13
6.10081e-13
8.38578e-13
1.77257e-12
1.76426e-13
1.2657e-13
1.03237e-13
1.06006e-13
1.0369e-13
1.04177e-13
1.0387e-13
1.04001e-13
1.03871e-13
1.03922e-13
1.03945e-13
1.03842e-13
1.03854e-13
1.03927e-13
1.04121e-13
1.05585e-13
1.23074e-13
5.68641e-13
4.0308e-12
1.24909e-12
1.48414e-13
1.00432e-13
8.22284e-14
8.37068e-14
8.17043e-14
8.22628e-14
8.18042e-14
8.19178e-14
8.1819e-14
8.1863e-14
8.18802e-14
8.17708e-14
8.2013e-14
8.19021e-14
8.21639e-14
8.43946e-14
9.79394e-14
5.47146e-13
1.33997e-11
9.45345e-13
1.29383e-13
8.30183e-14
6.7578e-14
6.8452e-14
6.6921e-14
6.73551e-14
6.69657e-14
6.70625e-14
6.6981e-14
6.70251e-14
6.70376e-14
6.69085e-14
6.71489e-14
6.70779e-14
6.73256e-14
6.94e-14
8.28263e-14
5.21951e-13
3.11935e-11
7.2889e-13
1.14236e-13
7.07019e-14
5.75172e-14
5.79771e-14
5.6742e-14
5.69838e-14
5.67479e-14
5.68386e-14
5.67616e-14
5.68121e-14
5.68229e-14
5.66501e-14
5.67429e-14
5.68781e-14
5.71314e-14
5.9114e-14
7.13455e-14
4.57144e-13
4.71637e-11
5.69232e-13
1.02089e-13
6.1381e-14
5.02472e-14
5.04314e-14
4.93987e-14
4.94098e-14
4.93724e-14
4.94639e-14
4.93994e-14
4.94441e-14
4.94558e-14
4.92146e-14
5.00362e-14
4.95292e-14
4.97846e-14
5.16795e-14
6.21926e-14
3.5172e-13
4.62925e-11
4.52107e-13
9.19653e-14
5.54884e-14
4.47516e-14
4.47424e-14
4.38599e-14
4.43565e-14
4.38006e-14
4.38971e-14
4.38479e-14
4.38815e-14
4.38966e-14
4.35384e-14
4.43069e-14
4.39791e-14
4.42418e-14
4.60595e-14
5.58305e-14
2.41051e-13
3.27977e-11
3.66832e-13
8.36912e-14
5.04218e-14
4.04178e-14
4.02732e-14
3.94981e-14
3.9886e-14
3.94067e-14
3.95172e-14
3.94811e-14
3.9504e-14
3.95259e-14
3.95846e-14
3.98005e-14
3.96114e-14
3.98829e-14
4.16301e-14
5.00287e-14
1.55421e-13
1.83158e-11
3.04003e-13
7.64386e-14
4.58939e-14
3.68684e-14
3.6633e-14
3.59372e-14
3.62175e-14
3.58095e-14
3.59444e-14
3.59166e-14
3.59324e-14
3.5961e-14
3.59695e-14
3.61434e-14
3.60489e-14
3.63279e-14
3.80082e-14
4.51928e-14
1.07739e-13
8.43524e-12
2.55711e-13
6.97566e-14
4.20312e-14
3.38665e-14
3.35752e-14
3.29409e-14
3.31409e-14
3.27666e-14
3.294e-14
3.29162e-14
3.29283e-14
3.29631e-14
3.29217e-14
3.30907e-14
3.30536e-14
3.33375e-14
3.49507e-14
4.11053e-14
8.13621e-14
3.31174e-12
2.16359e-13
6.36423e-14
3.85835e-14
3.12594e-14
3.09401e-14
3.0357e-14
3.05006e-14
3.01177e-14
3.03503e-14
3.03273e-14
3.03378e-14
3.03783e-14
3.0274e-14
3.04759e-14
3.04715e-14
3.0757e-14
3.23004e-14
3.75864e-14
6.70001e-14
1.14782e-12
1.83024e-13
5.81053e-14
3.60638e-14
2.8947e-14
2.8622e-14
2.80846e-14
2.81926e-14
2.80476e-14
2.80744e-14
2.805e-14
2.80595e-14
2.81052e-14
2.79092e-14
2.81875e-14
2.82003e-14
2.84844e-14
2.99536e-14
3.45096e-14
5.8322e-14
3.65962e-13
1.49383e-13
5.30361e-14
3.36267e-14
2.68567e-14
2.6549e-14
2.60551e-14
2.61387e-14
2.59821e-14
2.60416e-14
2.60163e-14
2.60245e-14
2.60754e-14
2.60174e-14
2.61519e-14
2.61708e-14
2.64505e-14
2.78392e-14
3.17827e-14
5.1541e-14
1.15093e-13
1.23928e-13
4.8385e-14
3.1191e-14
2.5131e-14
2.46695e-14
2.42201e-14
2.42861e-14
2.41036e-14
2.42034e-14
2.41778e-14
2.4184e-14
2.42397e-14
2.4269e-14
2.43143e-14
2.43338e-14
2.46069e-14
2.58962e-14
2.9348e-14
4.59887e-14
4.20585e-14
1.03663e-13
4.40894e-14
2.89539e-14
2.34723e-14
2.29399e-14
2.2543e-14
2.25946e-14
2.25715e-14
2.25225e-14
2.24973e-14
2.24994e-14
2.25607e-14
2.25688e-14
2.26334e-14
2.26516e-14
2.29166e-14
2.41294e-14
2.71577e-14
4.13432e-14
2.30148e-14
8.64259e-14
4.00967e-14
2.68727e-14
2.20283e-14
2.15438e-14
2.11649e-14
2.1214e-14
2.1182e-14
2.11459e-14
2.11201e-14
2.1112e-14
2.11857e-14
2.11826e-14
2.12561e-14
2.12727e-14
2.15274e-14
2.26506e-14
2.51779e-14
3.71779e-14
1.91774e-14
7.3809e-14
3.63812e-14
2.49058e-14
2.06242e-14
2.01607e-14
1.98061e-14
1.98479e-14
1.98092e-14
1.97836e-14
1.97571e-14
1.97675e-14
1.98288e-14
1.98138e-14
1.98972e-14
1.99114e-14
2.01598e-14
2.12472e-14
2.33656e-14
3.35595e-14
1.92663e-14
6.44783e-14
3.29151e-14
2.30046e-14
1.93849e-14
1.89639e-14
1.86323e-14
1.86699e-14
1.86271e-14
1.86093e-14
1.85834e-14
1.85839e-14
1.86567e-14
1.86336e-14
1.87213e-14
1.87341e-14
1.89691e-14
1.99837e-14
2.18684e-14
3.04169e-14
2.00871e-14
5.58598e-14
2.96759e-14
2.14618e-14
1.82242e-14
1.78467e-14
1.75376e-14
1.75711e-14
1.75251e-14
1.75139e-14
1.74885e-14
1.74853e-14
1.75618e-14
1.75308e-14
1.76229e-14
1.76349e-14
1.78531e-14
1.8801e-14
2.03783e-14
2.76844e-14
2.07484e-14
4.81767e-14
2.66438e-14
1.99907e-14
1.71198e-14
1.67899e-14
1.65e-14
1.65304e-14
1.6481e-14
1.64756e-14
1.64504e-14
1.64447e-14
1.65234e-14
1.64849e-14
1.6582e-14
1.65934e-14
1.67961e-14
1.76766e-14
1.9058e-14
2.53023e-14
2.10311e-14
4.21664e-14
2.38055e-14
1.85804e-14
1.60469e-14
1.57696e-14
1.54937e-14
1.55225e-14
1.54689e-14
1.5469e-14
1.54431e-14
1.54352e-14
1.55164e-14
1.54707e-14
1.55736e-14
1.55844e-14
1.57731e-14
1.65876e-14
1.7789e-14
2.29552e-14
2.08982e-14
3.74821e-14
2.11378e-14
1.72019e-14
1.49784e-14
1.47552e-14
1.44898e-14
1.4518e-14
1.44591e-14
1.44648e-14
1.44372e-14
1.44266e-14
1.45116e-14
1.44585e-14
1.45684e-14
1.45784e-14
1.4755e-14
1.55065e-14
1.6541e-14
2.07625e-14
2.03824e-14
3.25531e-14
1.87316e-14
1.5831e-14
1.38822e-14
1.37143e-14
1.34554e-14
1.34842e-14
1.34184e-14
1.34307e-14
1.33998e-14
1.33861e-14
1.34768e-14
1.34156e-14
1.35343e-14
1.3543e-14
1.37097e-14
1.44022e-14
1.5282e-14
1.895e-14
1.95334e-14
2.72259e-14
1.64434e-14
1.44412e-14
1.27269e-14
1.26152e-14
1.23588e-14
1.23892e-14
1.23147e-14
1.23353e-14
1.22988e-14
1.2282e-14
1.23803e-14
1.23101e-14
1.24398e-14
1.24465e-14
1.26053e-14
1.32424e-14
1.39801e-14
1.71948e-14
1.83831e-14
2.3041e-14
1.42606e-14
1.30101e-14
1.14881e-14
1.14326e-14
1.11759e-14
1.12088e-14
1.11235e-14
1.11557e-14
1.11101e-14
1.10902e-14
1.11973e-14
1.11175e-14
1.12605e-14
1.12641e-14
1.14168e-14
1.20004e-14
1.26137e-14
1.54387e-14
1.69566e-14
1.90601e-14
1.21731e-14
1.15305e-14
1.01573e-14
1.01135e-14
9.87422e-15
9.90915e-15
9.83727e-15
9.85553e-15
9.82634e-15
9.80407e-15
9.91901e-15
9.83057e-15
9.95971e-15
9.95987e-15
1.00909e-14
1.06638e-14
1.1073e-14
1.3642e-14
1.52805e-14
1.54877e-14
1.01161e-14
9.87686e-15
8.75517e-15
8.7484e-15
8.51756e-15
8.55401e-15
8.47741e-15
8.50408e-15
8.46874e-15
8.44504e-15
8.56428e-15
8.47037e-15
8.6044e-15
8.60049e-15
8.71971e-15
9.24493e-15
9.49709e-15
1.17986e-14
1.33991e-14
1.23301e-14
8.287e-15
8.31998e-15
7.34412e-15
7.36102e-15
7.14898e-15
7.18445e-15
7.10921e-15
7.13968e-15
7.10266e-15
7.07948e-15
7.19475e-15
7.10248e-15
7.23196e-15
7.22503e-15
7.32826e-15
7.79541e-15
7.95793e-15
9.9425e-15
1.1392e-14
9.66726e-15
6.73642e-15
6.86114e-15
6.0743e-15
6.09546e-15
5.92464e-15
5.95342e-15
5.89161e-15
5.91772e-15
5.88694e-15
5.86864e-15
5.9605e-15
5.88654e-15
5.99161e-15
5.98488e-15
6.06517e-15
6.44338e-15
6.55086e-15
8.1753e-15
9.41047e-15
7.7275e-15
5.84779e-15
5.81634e-15
5.36554e-15
5.3533e-15
5.28437e-15
5.29009e-15
5.27352e-15
5.27558e-15
5.26991e-15
5.26919e-15
5.28185e-15
5.27414e-15
5.30171e-15
5.30425e-15
5.34184e-15
5.5421e-15
5.66981e-15
6.77514e-15
7.80831e-15
7.29297e-15
6.86425e-15
6.18251e-15
6.54407e-15
6.4004e-15
6.61632e-15
6.54847e-15
6.66974e-15
6.59054e-15
6.66416e-15
6.72667e-15
6.49069e-15
6.69574e-15
6.49184e-15
6.5295e-15
6.46407e-15
6.21459e-15
6.55374e-15
6.60328e-15
7.53145e-15
1.08768e-14
1.35028e-14
1.11098e-14
1.36061e-14
1.30857e-14
1.40743e-14
1.37975e-14
1.42968e-14
1.39842e-14
1.42789e-14
1.45058e-14
1.35702e-14
1.43808e-14
1.35526e-14
1.36882e-14
1.33744e-14
1.19325e-14
1.29552e-14
1.03738e-14
1.13753e-14
2.53132e-14
3.50609e-14
2.90888e-14
3.6597e-14
3.51839e-14
3.79662e-14
3.71921e-14
3.85554e-14
3.76899e-14
3.8497e-14
3.9116e-14
3.65333e-14
3.87858e-14
3.65485e-14
3.69085e-14
3.60991e-14
3.18702e-14
3.45241e-14
2.56514e-14
2.68138e-14
6.55562e-14
8.95673e-14
7.80468e-14
9.48706e-14
9.18101e-14
9.77932e-14
9.60954e-14
9.89723e-14
9.70966e-14
9.88162e-14
1.00164e-13
9.4581e-14
9.95003e-14
9.48271e-14
9.55846e-14
9.40894e-14
8.47498e-14
9.02974e-14
6.91441e-14
6.97923e-14
1.55299e-13
2.01656e-13
1.8429e-13
2.1465e-13
2.09886e-13
2.17804e-13
2.14902e-13
2.1954e-13
2.16399e-13
2.1921e-13
2.215e-13
2.1216e-13
2.20511e-13
2.13024e-13
2.14298e-13
2.12454e-13
1.97483e-13
2.05542e-13
1.67169e-13
1.64656e-13
3.14621e-13
3.80215e-13
3.64957e-13
4.01736e-13
3.96048e-13
4.0572e-13
4.0209e-13
4.07322e-13
4.03539e-13
4.06787e-13
4.09639e-13
3.98361e-13
4.08705e-13
4.00184e-13
4.01872e-13
4.00007e-13
3.82528e-13
3.91661e-13
3.4092e-13
3.30144e-13
5.28238e-13
5.91022e-13
5.91486e-13
6.16577e-13
6.13055e-13
6.18606e-13
6.15906e-13
6.18695e-13
6.16183e-13
6.18064e-13
6.20206e-13
6.12548e-13
6.20107e-13
6.15158e-13
6.16771e-13
6.16415e-13
6.065e-13
6.10696e-13
5.70112e-13
5.46304e-13
7.12087e-13
7.34619e-13
7.62623e-13
7.53454e-13
7.5562e-13
7.50943e-13
7.51306e-13
7.48426e-13
7.49436e-13
7.47969e-13
7.47862e-13
7.50288e-13
7.49256e-13
7.52819e-13
7.5358e-13
7.56138e-13
7.64689e-13
7.5759e-13
7.59104e-13
7.24014e-13
7.36894e-13
7.00503e-13
7.51026e-13
7.04856e-13
7.1297e-13
6.98398e-13
7.0223e-13
6.93968e-13
6.98638e-13
6.93905e-13
6.91366e-13
7.04211e-13
6.93921e-13
7.05679e-13
7.05238e-13
7.09991e-13
7.36616e-13
7.18684e-13
7.7136e-13
7.35904e-13
5.57868e-13
4.94968e-13
5.43508e-13
4.89412e-13
4.98665e-13
4.82899e-13
4.87662e-13
4.78835e-13
4.84218e-13
4.79053e-13
4.75884e-13
4.90828e-13
4.78303e-13
4.91116e-13
4.90121e-13
4.94463e-13
5.234e-13
5.04468e-13
5.72799e-13
5.48645e-13
3.03145e-13
2.57605e-13
2.85478e-13
2.50834e-13
2.56561e-13
2.46812e-13
2.49937e-13
2.44468e-13
2.47913e-13
2.44674e-13
2.42528e-13
2.52261e-13
2.43966e-13
2.52039e-13
2.51266e-13
2.53744e-13
2.71777e-13
2.60365e-13
3.06427e-13
2.9608e-13
1.40237e-13
1.23606e-13
1.32898e-13
1.20067e-13
1.21634e-13
1.18082e-13
1.19163e-13
1.17026e-13
1.18364e-13
1.17071e-13
1.16009e-13
1.20356e-13
1.16657e-13
1.20236e-13
1.19727e-13
1.21017e-13
1.28029e-13
1.24027e-13
1.42409e-13
1.39461e-13
1.3378e-13
1.25989e-13
1.28237e-13
1.20997e-13
1.20108e-13
1.1826e-13
1.18574e-13
1.17073e-13
1.17964e-13
1.16988e-13
1.15599e-13
1.20245e-13
1.16282e-13
1.20148e-13
1.191e-13
1.21104e-13
1.26131e-13
1.24632e-13
1.3892e-13
1.39476e-13
)
;

boundaryField
{
    fuel
    {
        type            fixedValue;
        value           uniform 0;
    }
    wall
    {
        type            zeroGradient;
    }
    outlet
    {
        type            zeroGradient;
    }
    frontAndBack
    {
        type            empty;
    }
}


// ************************************************************************* //
