/*--------------------------------*- C++ -*----------------------------------*\
| =========                 |                                                 |
| \\      /  F ield         | OpenFOAM: The Open Source CFD Toolbox           |
|  \\    /   O peration     | Version:  dev                                   |
|   \\  /    A nd           | Web:      www.OpenFOAM.org                      |
|    \\/     M anipulation  |                                                 |
\*---------------------------------------------------------------------------*/
FoamFile
{
    version     2.0;
    format      ascii;
    class       volScalarField;
    location    "0.1";
    object      l-C6H4;
}
// * * * * * * * * * * * * * * * * * * * * * * * * * * * * * * * * * * * * * //

dimensions      [0 0 0 0 0 0 0];

internalField   nonuniform List<scalar> 
100
(
9.5858e-08
3.84059e-08
1.28787e-08
4.09246e-09
1.24692e-09
3.80645e-10
1.13263e-10
3.33124e-11
9.89285e-12
2.88615e-12
8.54512e-13
2.49676e-13
7.31706e-14
2.1561e-14
6.41304e-15
1.94074e-15
6.08388e-16
2.05387e-16
7.9858e-17
3.82908e-17
2.27568e-17
1.57105e-17
1.17326e-17
9.08054e-18
7.14125e-18
5.67866e-18
4.57516e-18
3.72479e-18
3.07871e-18
2.60849e-18
2.31136e-18
2.22855e-18
2.45845e-18
3.23757e-18
5.03569e-18
8.73397e-18
1.59104e-17
2.92636e-17
5.31733e-17
9.43315e-17
1.64217e-16
2.78727e-16
4.59036e-16
7.22399e-16
1.10496e-15
1.64537e-15
2.38896e-15
3.31502e-15
4.47572e-15
5.9116e-15
7.54732e-15
9.3878e-15
1.13934e-14
1.35571e-14
1.57075e-14
1.76442e-14
1.93736e-14
2.07934e-14
2.18192e-14
2.239e-14
2.24736e-14
2.20697e-14
2.12096e-14
1.99523e-14
1.83784e-14
1.65817e-14
1.46602e-14
1.27055e-14
1.07951e-14
8.99496e-15
7.36344e-15
5.9638e-15
4.78012e-15
3.80414e-15
3.01515e-15
2.37161e-15
1.88506e-15
1.5007e-15
1.18964e-15
9.48843e-16
7.50532e-16
5.88496e-16
4.56452e-16
3.4866e-16
2.62381e-16
1.98342e-16
1.49415e-16
1.12552e-16
8.49243e-17
6.42618e-17
4.8873e-17
3.75091e-17
2.92159e-17
2.32204e-17
1.88549e-17
1.5519e-17
1.2679e-17
9.90012e-18
6.88491e-18
3.44705e-18
)
;

boundaryField
{
    wall
    {
        type            zeroGradient;
    }
    fuel
    {
        type            fixedValue;
        value           uniform 0;
    }
    outlet
    {
        type            inletOutlet;
        inletValue      uniform 0;
        value           uniform 3.44705e-18;
    }
}


// ************************************************************************* //
