/*--------------------------------*- C++ -*----------------------------------*\
| =========                 |                                                 |
| \\      /  F ield         | OpenFOAM: The Open Source CFD Toolbox           |
|  \\    /   O peration     | Version:  dev                                   |
|   \\  /    A nd           | Web:      www.OpenFOAM.org                      |
|    \\/     M anipulation  |                                                 |
\*---------------------------------------------------------------------------*/
FoamFile
{
    version     2.0;
    format      ascii;
    class       volScalarField;
    location    "0.2";
    object      l-C6H4;
}
// * * * * * * * * * * * * * * * * * * * * * * * * * * * * * * * * * * * * * //

dimensions      [0 0 0 0 0 0 0];

internalField   nonuniform List<scalar> 
100
(
1.09861e-10
3.38488e-10
4.63145e-10
4.72716e-10
4.06192e-10
3.09425e-10
2.17229e-10
1.45595e-10
9.54135e-11
6.22454e-11
4.10472e-11
2.76452e-11
1.92067e-11
1.39268e-11
1.0616e-11
8.55758e-12
7.30836e-12
6.58947e-12
6.21965e-12
6.07581e-12
6.07052e-12
6.13993e-12
6.23722e-12
6.32968e-12
6.39637e-12
6.42688e-12
6.41867e-12
6.37657e-12
6.31023e-12
6.23246e-12
6.15762e-12
6.10029e-12
6.07427e-12
6.09195e-12
6.16407e-12
6.29986e-12
6.50657e-12
6.79008e-12
7.15614e-12
7.60983e-12
8.16005e-12
8.80214e-12
9.54169e-12
1.03818e-11
1.13069e-11
1.23096e-11
1.3375e-11
1.44671e-11
1.55676e-11
1.66185e-11
1.759e-11
1.84427e-11
1.91443e-11
1.96771e-11
2.00262e-11
2.01892e-11
2.01787e-11
2.00166e-11
1.97222e-11
1.9333e-11
1.8867e-11
1.83468e-11
1.77916e-11
1.72166e-11
1.6634e-11
1.60528e-11
1.54749e-11
1.49136e-11
1.43674e-11
1.38283e-11
1.33131e-11
1.28121e-11
1.23243e-11
1.18481e-11
1.13814e-11
1.09219e-11
1.04673e-11
1.00156e-11
9.56511e-12
9.10338e-12
8.66296e-12
8.22162e-12
7.78104e-12
7.33267e-12
6.89521e-12
6.45809e-12
6.02239e-12
5.58941e-12
5.15878e-12
4.72728e-12
4.28769e-12
3.845e-12
3.4023e-12
2.95069e-12
2.53191e-12
2.08521e-12
1.64275e-12
1.16101e-12
7.00609e-13
3.27168e-13
)
;

boundaryField
{
    wall
    {
        type            zeroGradient;
    }
    fuel
    {
        type            fixedValue;
        value           uniform 0;
    }
    outlet
    {
        type            inletOutlet;
        inletValue      uniform 0;
        value           uniform 3.27168e-13;
    }
}


// ************************************************************************* //
