/*--------------------------------*- C++ -*----------------------------------*\
| =========                 |                                                 |
| \\      /  F ield         | OpenFOAM: The Open Source CFD Toolbox           |
|  \\    /   O peration     | Version:  dev                                   |
|   \\  /    A nd           | Web:      www.OpenFOAM.org                      |
|    \\/     M anipulation  |                                                 |
\*---------------------------------------------------------------------------*/
FoamFile
{
    version     2.0;
    format      ascii;
    class       volScalarField;
    location    "0.2";
    object      n-A1C2H2;
}
// * * * * * * * * * * * * * * * * * * * * * * * * * * * * * * * * * * * * * //

dimensions      [0 0 0 0 0 0 0];

internalField   nonuniform List<scalar> 
1000
(
4.3883e-11
1.9011e-08
1.70775e-08
1.67358e-08
1.66924e-08
1.66809e-08
1.66818e-08
1.66818e-08
1.66822e-08
1.66821e-08
1.66813e-08
1.66814e-08
1.6682e-08
1.66803e-08
1.66822e-08
1.66873e-08
1.67491e-08
1.72894e-08
2.18017e-08
1.65637e-11
9.8897e-10
5.22807e-09
4.491e-09
4.3152e-09
4.30691e-09
4.29674e-09
4.29835e-09
4.29761e-09
4.29784e-09
4.29773e-09
4.29736e-09
4.29764e-09
4.29751e-09
4.29725e-09
4.29776e-09
4.30016e-09
4.32572e-09
4.54556e-09
6.68008e-09
2.42711e-10
1.33344e-08
2.03982e-09
1.64161e-09
1.52737e-09
1.52704e-09
1.51867e-09
1.52025e-09
1.51937e-09
1.51965e-09
1.51945e-09
1.51928e-09
1.5195e-09
1.5193e-09
1.51928e-09
1.51949e-09
1.52097e-09
1.53534e-09
1.65548e-09
2.96587e-09
6.84796e-10
1.19087e-08
1.06683e-09
8.01652e-10
7.15997e-10
7.1753e-10
7.10543e-10
7.11928e-10
7.11139e-10
7.11423e-10
7.11206e-10
7.1114e-10
7.1129e-10
7.11104e-10
7.1107e-10
7.11247e-10
7.12339e-10
7.2235e-10
8.03951e-10
1.7958e-09
1.06838e-09
4.68209e-09
6.58997e-10
4.63418e-10
3.94481e-10
3.96285e-10
3.90542e-10
3.91592e-10
3.9103e-10
3.91283e-10
3.9107e-10
3.9107e-10
3.91168e-10
3.90993e-10
3.90883e-10
3.91122e-10
3.92001e-10
3.99658e-10
4.60516e-10
1.26783e-09
1.22746e-09
2.51605e-09
4.58053e-10
2.91385e-10
2.41827e-10
2.43278e-10
2.38629e-10
2.39287e-10
2.39e-10
2.39207e-10
2.3901e-10
2.39049e-10
2.39114e-10
2.38951e-10
2.38764e-10
2.39075e-10
2.3983e-10
2.4608e-10
2.94106e-10
9.70798e-10
1.20586e-09
1.87206e-09
3.41517e-10
2.02079e-10
1.61087e-10
1.61929e-10
1.5817e-10
1.58514e-10
1.58432e-10
1.58602e-10
1.58404e-10
1.58487e-10
1.58529e-10
1.58356e-10
1.58061e-10
1.58502e-10
1.59176e-10
1.64635e-10
2.04237e-10
7.80072e-10
1.19348e-09
1.67086e-09
2.73399e-10
1.49363e-10
1.14628e-10
1.14991e-10
1.11998e-10
1.1223e-10
1.12184e-10
1.1232e-10
1.12152e-10
1.12235e-10
1.12262e-10
1.12115e-10
1.11898e-10
1.1225e-10
1.12815e-10
1.17665e-10
1.51917e-10
6.45752e-10
1.39073e-09
1.61625e-09
2.33033e-10
1.14906e-10
8.52262e-11
8.62842e-11
8.40123e-11
8.43503e-11
8.41464e-11
8.42617e-11
8.41387e-11
8.41962e-11
8.42133e-11
8.41079e-11
8.40759e-11
8.42179e-11
8.45957e-11
8.75234e-11
1.17199e-10
5.44248e-10
1.76598e-09
1.61044e-09
2.04067e-10
9.0885e-11
6.68175e-11
6.69387e-11
6.49513e-11
6.5377e-11
6.502e-11
6.51205e-11
6.50237e-11
6.50757e-11
6.50872e-11
6.49757e-11
6.51645e-11
6.51257e-11
6.55377e-11
6.89132e-11
9.27286e-11
4.63179e-10
1.98952e-09
1.61147e-09
1.8342e-10
7.45699e-11
5.38206e-11
5.35501e-11
5.19975e-11
5.23224e-11
5.20212e-11
5.21062e-11
5.20253e-11
5.20763e-11
5.20834e-11
5.19547e-11
5.21484e-11
5.21363e-11
5.25148e-11
5.55612e-11
7.76616e-11
3.95896e-10
2.04501e-09
1.5986e-09
1.6592e-10
6.28672e-11
4.48477e-11
4.43122e-11
4.3043e-11
4.32067e-11
4.30353e-11
4.31134e-11
4.30416e-11
4.3093e-11
4.30982e-11
4.29323e-11
4.3002e-11
4.31624e-11
4.35272e-11
4.63372e-11
6.60204e-11
3.38575e-10
1.82471e-09
1.56146e-09
1.50862e-10
5.39219e-11
3.83638e-11
3.76611e-11
3.65929e-11
3.65646e-11
3.65594e-11
3.6636e-11
3.65788e-11
3.66217e-11
3.66269e-11
3.64042e-11
3.7125e-11
3.6705e-11
3.70553e-11
3.96577e-11
5.6645e-11
2.89244e-10
1.39386e-09
1.49643e-09
1.37364e-10
4.82687e-11
3.34882e-11
3.26762e-11
3.17618e-11
3.21729e-11
3.17022e-11
3.17805e-11
3.17392e-11
3.17704e-11
3.17776e-11
3.14592e-11
3.21243e-11
3.18609e-11
3.22031e-11
3.46244e-11
5.01073e-11
2.43535e-10
9.81429e-10
1.40506e-09
1.25581e-10
4.33941e-11
2.9685e-11
2.88062e-11
2.80066e-11
2.8324e-11
2.79226e-11
2.801e-11
2.79817e-11
2.80028e-11
2.80146e-11
2.80698e-11
2.82405e-11
2.80974e-11
2.84337e-11
3.06914e-11
4.4082e-11
2.01072e-10
6.71004e-10
1.29242e-09
1.14595e-10
3.903e-11
2.66234e-11
2.57113e-11
2.50009e-11
2.52238e-11
2.48897e-11
2.49947e-11
2.49748e-11
2.49896e-11
2.50055e-11
2.50238e-11
2.51505e-11
2.50872e-11
2.54171e-11
2.75231e-11
3.90433e-11
1.69595e-10
4.53424e-10
1.16562e-09
1.03931e-10
3.53256e-11
2.40956e-11
2.31767e-11
2.25391e-11
2.26918e-11
2.23932e-11
2.25268e-11
2.25114e-11
2.25232e-11
2.25424e-11
2.2524e-11
2.26396e-11
2.2623e-11
2.29449e-11
2.49063e-11
3.48084e-11
1.42398e-10
3.07896e-10
1.03277e-09
9.38046e-11
3.20532e-11
2.19679e-11
2.10628e-11
2.04883e-11
2.0592e-11
2.0294e-11
2.04721e-11
2.04585e-11
2.04695e-11
2.0491e-11
2.04261e-11
2.05615e-11
2.05703e-11
2.08822e-11
2.27037e-11
3.12182e-11
1.19338e-10
2.14594e-10
9.02123e-10
8.44306e-11
2.97202e-11
2.01527e-11
1.92778e-11
1.87604e-11
1.88331e-11
1.87296e-11
1.87422e-11
1.87288e-11
1.87394e-11
1.87623e-11
1.86286e-11
1.88183e-11
1.88401e-11
1.914e-11
2.08247e-11
2.81577e-11
1.00205e-10
1.55927e-10
7.56153e-10
7.57776e-11
2.7515e-11
1.85876e-11
1.7759e-11
1.72953e-11
1.73468e-11
1.72409e-11
1.72756e-11
1.72629e-11
1.7273e-11
1.72967e-11
1.72685e-11
1.73459e-11
1.73717e-11
1.76579e-11
1.92078e-11
2.5539e-11
8.2958e-11
1.18762e-10
6.36555e-10
6.78908e-11
2.5375e-11
1.73753e-11
1.64624e-11
1.60513e-11
1.60875e-11
1.5968e-11
1.60303e-11
1.60191e-11
1.60283e-11
1.60517e-11
1.60875e-11
1.60973e-11
1.61229e-11
1.63944e-11
1.7803e-11
2.33059e-11
6.88619e-11
9.46266e-11
5.32544e-10
6.07508e-11
2.34932e-11
1.62879e-11
1.53535e-11
1.49987e-11
1.50227e-11
1.50147e-11
1.49763e-11
1.49671e-11
1.49743e-11
1.49969e-11
1.50207e-11
1.50394e-11
1.50634e-11
1.53195e-11
1.66084e-11
2.14101e-11
5.7893e-11
7.83458e-11
4.3535e-10
5.4328e-11
2.18379e-11
1.54283e-11
1.45473e-11
1.42232e-11
1.42432e-11
1.42346e-11
1.42027e-11
1.41951e-11
1.41971e-11
1.42223e-11
1.42419e-11
1.42615e-11
1.42838e-11
1.45248e-11
1.56985e-11
1.98169e-11
4.89364e-11
6.68669e-11
3.57741e-10
4.86191e-11
2.03804e-11
1.46835e-11
1.38382e-11
1.35494e-11
1.35625e-11
1.35546e-11
1.3528e-11
1.35222e-11
1.35338e-11
1.35479e-11
1.35645e-11
1.35838e-11
1.36038e-11
1.38319e-11
1.49257e-11
1.84879e-11
4.1909e-11
5.83738e-11
2.96287e-10
4.35912e-11
1.90887e-11
1.41293e-11
1.33258e-11
1.30702e-11
1.30781e-11
1.30728e-11
1.30494e-11
1.30464e-11
1.30534e-11
1.3068e-11
1.30842e-11
1.30994e-11
1.31179e-11
1.333e-11
1.43308e-11
1.75263e-11
3.64505e-11
5.18243e-11
2.38194e-10
3.91972e-11
1.81685e-11
1.37198e-11
1.29549e-11
1.27321e-11
1.27346e-11
1.27332e-11
1.27116e-11
1.27117e-11
1.27182e-11
1.27281e-11
1.27448e-11
1.2755e-11
1.27725e-11
1.29662e-11
1.38831e-11
1.67105e-11
3.22487e-11
4.66459e-11
1.88162e-10
3.5392e-11
1.74167e-11
1.34495e-11
1.27208e-11
1.25299e-11
1.2527e-11
1.25304e-11
1.25096e-11
1.2513e-11
1.25193e-11
1.25225e-11
1.25409e-11
1.25454e-11
1.25622e-11
1.27396e-11
1.35742e-11
1.61388e-11
2.90414e-11
4.24373e-11
1.51359e-10
3.21395e-11
1.68326e-11
1.33124e-11
1.26191e-11
1.24579e-11
1.24501e-11
1.24586e-11
1.24379e-11
1.24446e-11
1.24506e-11
1.2446e-11
1.24676e-11
1.24652e-11
1.24818e-11
1.26447e-11
1.33994e-11
1.5742e-11
2.63341e-11
3.90079e-11
1.25947e-10
2.93935e-11
1.64061e-11
1.33007e-11
1.26417e-11
1.25084e-11
1.24958e-11
1.25098e-11
1.24884e-11
1.24985e-11
1.25043e-11
1.24916e-11
1.25172e-11
1.25073e-11
1.25241e-11
1.26744e-11
1.33525e-11
1.55054e-11
2.42442e-11
3.6245e-11
1.03108e-10
2.72109e-11
1.61273e-11
1.34026e-11
1.27783e-11
1.26697e-11
1.26531e-11
1.26722e-11
1.26494e-11
1.26628e-11
1.26685e-11
1.26481e-11
1.2678e-11
1.26605e-11
1.26781e-11
1.28178e-11
1.34235e-11
1.54123e-11
2.29053e-11
3.40611e-11
8.23405e-11
2.54002e-11
1.59802e-11
1.36006e-11
1.30131e-11
1.2925e-11
1.29051e-11
1.29281e-11
1.29038e-11
1.29203e-11
1.29256e-11
1.28989e-11
1.29325e-11
1.29085e-11
1.29274e-11
1.30586e-11
1.35973e-11
1.54407e-11
2.19525e-11
3.23545e-11
6.84231e-11
2.39152e-11
1.59439e-11
1.38713e-11
1.33247e-11
1.32515e-11
1.32294e-11
1.32541e-11
1.32287e-11
1.32472e-11
1.32521e-11
1.32209e-11
1.32571e-11
1.32292e-11
1.32495e-11
1.33739e-11
1.38527e-11
1.55647e-11
2.12916e-11
3.1022e-11
5.70579e-11
2.26949e-11
1.59941e-11
1.41863e-11
1.36905e-11
1.3624e-11
1.3601e-11
1.36215e-11
1.36002e-11
1.36152e-11
1.36195e-11
1.35863e-11
1.36231e-11
1.35982e-11
1.36197e-11
1.37389e-11
1.41638e-11
1.57492e-11
2.08405e-11
2.996e-11
4.81673e-11
2.16262e-11
1.60864e-11
1.45162e-11
1.40666e-11
1.40051e-11
1.39822e-11
1.40015e-11
1.39803e-11
1.39956e-11
1.3999e-11
1.39663e-11
1.40018e-11
1.39773e-11
1.39995e-11
1.41111e-11
1.45001e-11
1.59542e-11
2.05279e-11
2.90703e-11
4.11666e-11
2.07784e-11
1.62084e-11
1.48395e-11
1.44383e-11
1.43782e-11
1.43564e-11
1.43729e-11
1.43532e-11
1.43673e-11
1.43698e-11
1.43394e-11
1.4372e-11
1.43503e-11
1.43724e-11
1.44759e-11
1.48371e-11
1.61573e-11
2.02957e-11
2.82694e-11
3.56857e-11
2.00837e-11
1.63461e-11
1.51529e-11
1.48e-11
1.47404e-11
1.47199e-11
1.47332e-11
1.47153e-11
1.47279e-11
1.47297e-11
1.47017e-11
1.47313e-11
1.4713e-11
1.47346e-11
1.48294e-11
1.51659e-11
1.63534e-11
2.01078e-11
2.74995e-11
3.14407e-11
1.95566e-11
1.65162e-11
1.54861e-11
1.51779e-11
1.51217e-11
1.51021e-11
1.51133e-11
1.50965e-11
1.51084e-11
1.51103e-11
1.50821e-11
1.5111e-11
1.50941e-11
1.51149e-11
1.51998e-11
1.55087e-11
1.6569e-11
1.99643e-11
2.67668e-11
2.82612e-11
1.92641e-11
1.67836e-11
1.5922e-11
1.56494e-11
1.56059e-11
1.55848e-11
1.5598e-11
1.55797e-11
1.55933e-11
1.55971e-11
1.55621e-11
1.5596e-11
1.55749e-11
1.55955e-11
1.56681e-11
1.59389e-11
1.68848e-11
1.99214e-11
2.61355e-11
2.61024e-11
1.93444e-11
1.72958e-11
1.66212e-11
1.63732e-11
1.63559e-11
1.633e-11
1.63514e-11
1.63278e-11
1.6347e-11
1.63553e-11
1.63019e-11
1.63509e-11
1.63168e-11
1.63376e-11
1.63956e-11
1.66088e-11
1.74608e-11
2.01131e-11
2.57484e-11
2.49802e-11
2.00316e-11
1.82966e-11
1.78428e-11
1.76039e-11
1.76293e-11
1.75934e-11
1.76307e-11
1.75966e-11
1.7626e-11
1.76424e-11
1.7556e-11
1.76334e-11
1.75764e-11
1.75981e-11
1.76419e-11
1.77729e-11
1.85555e-11
2.0781e-11
2.58616e-11
2.50731e-11
2.16176e-11
2.01137e-11
1.9902e-11
1.96586e-11
1.97314e-11
1.96817e-11
1.97385e-11
1.96907e-11
1.97329e-11
1.97591e-11
1.96317e-11
1.97456e-11
1.96634e-11
1.9686e-11
1.9724e-11
1.97596e-11
2.04896e-11
2.22686e-11
2.68291e-11
2.65891e-11
2.43345e-11
2.30397e-11
2.30441e-11
2.28018e-11
2.28793e-11
2.2817e-11
2.28859e-11
2.28279e-11
2.28789e-11
2.29126e-11
2.27558e-11
2.28978e-11
2.2804e-11
2.28265e-11
2.28688e-11
2.28504e-11
2.35117e-11
2.49075e-11
2.89686e-11
2.96147e-11
2.81778e-11
2.71546e-11
2.72063e-11
2.69724e-11
2.70539e-11
2.69882e-11
2.70484e-11
2.69923e-11
2.70402e-11
2.70727e-11
2.69243e-11
2.70628e-11
2.69888e-11
2.70101e-11
2.70587e-11
2.70562e-11
2.76381e-11
2.88407e-11
3.2417e-11
3.40232e-11
3.2959e-11
3.22715e-11
3.21814e-11
3.19795e-11
3.20056e-11
3.19509e-11
3.19745e-11
3.19382e-11
3.19664e-11
3.1985e-11
3.1899e-11
3.19875e-11
3.1974e-11
3.19913e-11
3.20637e-11
3.21792e-11
3.26357e-11
3.39291e-11
3.7059e-11
3.95959e-11
3.84459e-11
3.81385e-11
3.77242e-11
3.75747e-11
3.74986e-11
3.74698e-11
3.74322e-11
3.74328e-11
3.74262e-11
3.74187e-11
3.74455e-11
3.74389e-11
3.75234e-11
3.75307e-11
3.76441e-11
3.7961e-11
3.82528e-11
3.9923e-11
4.26819e-11
4.65573e-11
4.50772e-11
4.51077e-11
4.43404e-11
4.42332e-11
4.40615e-11
4.40577e-11
4.39608e-11
4.39985e-11
4.39579e-11
4.39218e-11
4.40665e-11
4.39589e-11
4.41446e-11
4.41358e-11
4.42957e-11
4.48143e-11
4.4945e-11
4.70853e-11
4.95294e-11
5.88586e-11
5.80669e-11
5.78591e-11
5.74799e-11
5.72116e-11
5.7184e-11
5.71115e-11
5.70747e-11
5.70676e-11
5.70628e-11
5.70357e-11
5.71103e-11
5.707e-11
5.72138e-11
5.71936e-11
5.73942e-11
5.77624e-11
5.79827e-11
5.97443e-11
6.18035e-11
9.95314e-11
1.00683e-10
9.91864e-11
9.9612e-11
9.87574e-11
9.89946e-11
9.87448e-11
9.8776e-11
9.87029e-11
9.87192e-11
9.86434e-11
9.87875e-11
9.87196e-11
9.89709e-11
9.88747e-11
9.93133e-11
9.95341e-11
1.00248e-10
1.01411e-10
1.03282e-10
1.98005e-10
1.86759e-10
1.87615e-10
1.79914e-10
1.79381e-10
1.77456e-10
1.77815e-10
1.76513e-10
1.77312e-10
1.76446e-10
1.7558e-10
1.78809e-10
1.7609e-10
1.7883e-10
1.78275e-10
1.79706e-10
1.84481e-10
1.8381e-10
1.97964e-10
2.02338e-10
2.45763e-10
2.14692e-10
2.19335e-10
2.00584e-10
2.0095e-10
1.9619e-10
1.97517e-10
1.94537e-10
1.96474e-10
1.94535e-10
1.92608e-10
1.99901e-10
1.93611e-10
1.99432e-10
1.98347e-10
2.00612e-10
2.11395e-10
2.08261e-10
2.41688e-10
2.51724e-10
)
;

boundaryField
{
    fuel
    {
        type            fixedValue;
        value           uniform 0;
    }
    wall
    {
        type            zeroGradient;
    }
    outlet
    {
        type            zeroGradient;
    }
    frontAndBack
    {
        type            empty;
    }
}


// ************************************************************************* //
