/*--------------------------------*- C++ -*----------------------------------*\
| =========                 |                                                 |
| \\      /  F ield         | OpenFOAM: The Open Source CFD Toolbox           |
|  \\    /   O peration     | Version:  dev                                   |
|   \\  /    A nd           | Web:      www.OpenFOAM.org                      |
|    \\/     M anipulation  |                                                 |
\*---------------------------------------------------------------------------*/
FoamFile
{
    version     2.0;
    format      ascii;
    class       volScalarField;
    location    "0.2";
    object      n-A1C2H2;
}
// * * * * * * * * * * * * * * * * * * * * * * * * * * * * * * * * * * * * * //

dimensions      [0 0 0 0 0 0 0];

internalField   nonuniform List<scalar> 
1000
(
1.52991e-11
2.28987e-08
1.87146e-08
1.81746e-08
1.81083e-08
1.81021e-08
1.80997e-08
1.81007e-08
1.81014e-08
1.81014e-08
1.81008e-08
1.81008e-08
1.81009e-08
1.81012e-08
1.81007e-08
1.81125e-08
1.81579e-08
1.85093e-08
2.06068e-08
3.1541e-11
2.02048e-10
6.63945e-09
4.68651e-09
4.46877e-09
4.44155e-09
4.43907e-09
4.43832e-09
4.43843e-09
4.43892e-09
4.43869e-09
4.43877e-09
4.43876e-09
4.43851e-09
4.43975e-09
4.43757e-09
4.44724e-09
4.45887e-09
4.62586e-09
5.48048e-09
5.22503e-10
5.40678e-10
2.82162e-09
1.65606e-09
1.54033e-09
1.52545e-09
1.52408e-09
1.52375e-09
1.52369e-09
1.52402e-09
1.52381e-09
1.52398e-09
1.52403e-09
1.52382e-09
1.52481e-09
1.52296e-09
1.53051e-09
1.53294e-09
1.63603e-09
2.10652e-09
3.57973e-09
8.07256e-10
1.66214e-09
7.94111e-10
7.16515e-10
7.06314e-10
7.05345e-10
7.05081e-10
7.05037e-10
7.05291e-10
7.05113e-10
7.05271e-10
7.05363e-10
7.05195e-10
7.05879e-10
7.04572e-10
7.10593e-10
7.10539e-10
7.87051e-10
1.11514e-09
2.26413e-08
9.32997e-10
1.15577e-09
4.52958e-10
3.95054e-10
3.87344e-10
3.86577e-10
3.86242e-10
3.86308e-10
3.86514e-10
3.86371e-10
3.86513e-10
3.86617e-10
3.8648e-10
3.86839e-10
3.86066e-10
3.90847e-10
3.90218e-10
4.51956e-10
6.91086e-10
1.36722e-08
9.47868e-10
8.81095e-10
2.89594e-10
2.43298e-10
2.37115e-10
2.36461e-10
2.35945e-10
2.36216e-10
2.36376e-10
2.36266e-10
2.36392e-10
2.36491e-10
2.36379e-10
2.36407e-10
2.36129e-10
2.39925e-10
2.39385e-10
2.84222e-10
4.78241e-10
5.65712e-09
9.50701e-10
7.10804e-10
2.02325e-10
1.63065e-10
1.578e-10
1.57186e-10
1.56403e-10
1.56913e-10
1.57045e-10
1.56933e-10
1.57082e-10
1.5717e-10
1.57075e-10
1.56693e-10
1.56968e-10
1.60084e-10
1.59858e-10
1.97424e-10
3.56194e-10
3.26694e-09
1.09215e-09
5.9385e-10
1.47078e-10
1.17351e-10
1.12176e-10
1.11551e-10
1.10699e-10
1.11247e-10
1.1134e-10
1.11242e-10
1.11386e-10
1.11462e-10
1.11376e-10
1.10923e-10
1.11399e-10
1.14156e-10
1.1461e-10
1.4387e-10
2.85072e-10
2.55774e-09
1.47561e-09
5.06677e-10
1.15655e-10
8.58236e-11
8.29419e-11
8.27348e-11
8.28753e-11
8.26486e-11
8.27105e-11
8.26197e-11
8.27587e-11
8.28225e-11
8.27433e-11
8.30407e-11
8.26184e-11
8.40725e-11
8.37735e-11
1.11784e-10
2.42711e-10
2.31182e-09
1.95737e-09
4.3728e-10
9.26879e-11
6.80849e-11
6.49734e-11
6.46234e-11
6.49259e-11
6.45024e-11
6.45137e-11
6.44087e-11
6.45828e-11
6.46435e-11
6.4531e-11
6.50447e-11
6.45228e-11
6.6062e-11
6.62744e-11
8.8727e-11
2.11415e-10
2.18956e-09
2.33404e-09
3.79331e-10
7.62781e-11
5.51684e-11
5.21029e-11
5.17683e-11
5.18491e-11
5.16445e-11
5.16426e-11
5.15716e-11
5.16936e-11
5.174e-11
5.16161e-11
5.1766e-11
5.16932e-11
5.29283e-11
5.35785e-11
7.29778e-11
1.89165e-10
2.08508e-09
2.45662e-09
3.29413e-10
6.56828e-11
4.60389e-11
4.32227e-11
4.28972e-11
4.29638e-11
4.27873e-11
4.27824e-11
4.27616e-11
4.28085e-11
4.28441e-11
4.26891e-11
4.35707e-11
4.28344e-11
4.38574e-11
4.46824e-11
6.16202e-11
1.70235e-10
1.96781e-09
2.13436e-09
2.85683e-10
5.68419e-11
3.94219e-11
3.68123e-11
3.64961e-11
3.70155e-11
3.63997e-11
3.64057e-11
3.64355e-11
3.6401e-11
3.64285e-11
3.62158e-11
3.69492e-11
3.64326e-11
3.73037e-11
3.82408e-11
5.29553e-11
1.53939e-10
1.83346e-09
1.59067e-09
2.47409e-10
5.04211e-11
3.44437e-11
3.20022e-11
3.16894e-11
3.19439e-11
3.16e-11
3.163e-11
3.16873e-11
3.15942e-11
3.16164e-11
3.13081e-11
3.19155e-11
3.16249e-11
3.23866e-11
3.34012e-11
4.73699e-11
1.39438e-10
1.68354e-09
1.09928e-09
2.10906e-10
4.48999e-11
3.05582e-11
2.82686e-11
2.7959e-11
2.80629e-11
2.78639e-11
2.79253e-11
2.79825e-11
2.78635e-11
2.78842e-11
2.79453e-11
2.80587e-11
2.78927e-11
2.85721e-11
2.96296e-11
4.27354e-11
1.27133e-10
1.52341e-09
7.3981e-10
1.76439e-10
3.99503e-11
2.74257e-11
2.52844e-11
2.49801e-11
2.50074e-11
2.48653e-11
2.49631e-11
2.50037e-11
2.48833e-11
2.49032e-11
2.49299e-11
2.50068e-11
2.49118e-11
2.55254e-11
2.65937e-11
3.84832e-11
1.15801e-10
1.35725e-09
4.96459e-10
1.50589e-10
3.57658e-11
2.48328e-11
2.2841e-11
2.25449e-11
2.25336e-11
2.23953e-11
2.25353e-11
2.25554e-11
2.24465e-11
2.24655e-11
2.24626e-11
2.25301e-11
2.24747e-11
2.30323e-11
2.40867e-11
3.48813e-11
1.0472e-10
1.19162e-09
3.39191e-10
1.28173e-10
3.21794e-11
2.26395e-11
2.0803e-11
2.05179e-11
2.0488e-11
2.0316e-11
2.05089e-11
2.05119e-11
2.04185e-11
2.04363e-11
2.04041e-11
2.04794e-11
2.04466e-11
2.09539e-11
2.19761e-11
3.17246e-11
9.4366e-11
1.0345e-09
2.38605e-10
1.08804e-10
2.90819e-11
2.07485e-11
1.90812e-11
1.88097e-11
1.87731e-11
1.87643e-11
1.87975e-11
1.87884e-11
1.87105e-11
1.87263e-11
1.86617e-11
1.87578e-11
1.87382e-11
1.91989e-11
2.01748e-11
2.94509e-11
8.48242e-11
8.68029e-10
1.73888e-10
9.22094e-11
2.63998e-11
1.90896e-11
1.76153e-11
1.73597e-11
1.73212e-11
1.72859e-11
1.73419e-11
1.73263e-11
1.72624e-11
1.72755e-11
1.71744e-11
1.73013e-11
1.72895e-11
1.77058e-11
1.86202e-11
2.72279e-11
7.60889e-11
7.33524e-10
1.31631e-10
7.81105e-11
2.40829e-11
1.78219e-11
1.63639e-11
1.61262e-11
1.60886e-11
1.60202e-11
1.61024e-11
1.60844e-11
1.60326e-11
1.60429e-11
1.60648e-11
1.60668e-11
1.60588e-11
1.64313e-11
1.74187e-11
2.51443e-11
6.81193e-11
6.04941e-10
1.03438e-10
6.53904e-11
2.20862e-11
1.66693e-11
1.52954e-11
1.50791e-11
1.50451e-11
1.50711e-11
1.50504e-11
1.50326e-11
1.49912e-11
1.49986e-11
1.50327e-11
1.50203e-11
1.50165e-11
1.53422e-11
1.63284e-11
2.3303e-11
6.09056e-11
5.00375e-10
8.4119e-11
5.46277e-11
2.03832e-11
1.57586e-11
1.44994e-11
1.43077e-11
1.42769e-11
1.42932e-11
1.42756e-11
1.42598e-11
1.42258e-11
1.42332e-11
1.42703e-11
1.42527e-11
1.42484e-11
1.45476e-11
1.54737e-11
2.16801e-11
5.44346e-11
4.05335e-10
7.04196e-11
4.68187e-11
1.89427e-11
1.49783e-11
1.38543e-11
1.36305e-11
1.36027e-11
1.36102e-11
1.35957e-11
1.35812e-11
1.35539e-11
1.35636e-11
1.35948e-11
1.35771e-11
1.3576e-11
1.38433e-11
1.47275e-11
2.0251e-11
4.8678e-11
3.29744e-10
6.03082e-11
4.0448e-11
1.78822e-11
1.43768e-11
1.33527e-11
1.31479e-11
1.31229e-11
1.31269e-11
1.3112e-11
1.31018e-11
1.30795e-11
1.30901e-11
1.31137e-11
1.3098e-11
1.30991e-11
1.33381e-11
1.41722e-11
1.89916e-11
4.35991e-11
2.67592e-10
5.25586e-11
3.53725e-11
1.70062e-11
1.39236e-11
1.29886e-11
1.28038e-11
1.27815e-11
1.27842e-11
1.27678e-11
1.27627e-11
1.27441e-11
1.27534e-11
1.27712e-11
1.27574e-11
1.2761e-11
1.29731e-11
1.3758e-11
1.80907e-11
3.91623e-11
2.17287e-10
4.64535e-11
3.14153e-11
1.63563e-11
1.36097e-11
1.27611e-11
1.25933e-11
1.25734e-11
1.25769e-11
1.25578e-11
1.25586e-11
1.25431e-11
1.25493e-11
1.2564e-11
1.25507e-11
1.25573e-11
1.2743e-11
1.34828e-11
1.73554e-11
3.53244e-11
1.75766e-10
4.15741e-11
2.8135e-11
1.5893e-11
1.34306e-11
1.26648e-11
1.25114e-11
1.24936e-11
1.24995e-11
1.24769e-11
1.24841e-11
1.2471e-11
1.24733e-11
1.24871e-11
1.24728e-11
1.24826e-11
1.2643e-11
1.33409e-11
1.67823e-11
3.20429e-11
1.41836e-10
3.76453e-11
2.54556e-11
1.56006e-11
1.33802e-11
1.26927e-11
1.25515e-11
1.25356e-11
1.25444e-11
1.25181e-11
1.25317e-11
1.25204e-11
1.2519e-11
1.25327e-11
1.25166e-11
1.25295e-11
1.26663e-11
1.33241e-11
1.63651e-11
2.92686e-11
1.16482e-10
3.45157e-11
2.36763e-11
1.5462e-11
1.34485e-11
1.2834e-11
1.27027e-11
1.26886e-11
1.27002e-11
1.26703e-11
1.269e-11
1.26799e-11
1.26751e-11
1.26894e-11
1.26711e-11
1.26871e-11
1.28026e-11
1.34207e-11
1.6094e-11
2.70904e-11
9.52717e-11
3.20475e-11
2.23704e-11
1.54544e-11
1.36201e-11
1.30728e-11
1.29491e-11
1.29363e-11
1.29503e-11
1.29174e-11
1.2942e-11
1.2933e-11
1.29252e-11
1.29402e-11
1.29202e-11
1.29389e-11
1.30363e-11
1.36136e-11
1.59531e-11
2.52852e-11
7.66394e-11
3.0118e-11
2.14354e-11
1.55513e-11
1.38727e-11
1.33873e-11
1.32687e-11
1.3256e-11
1.32722e-11
1.32374e-11
1.32655e-11
1.32572e-11
1.32461e-11
1.32626e-11
1.32417e-11
1.32626e-11
1.3346e-11
1.38798e-11
1.59212e-11
2.38074e-11
6.39963e-11
2.86112e-11
2.07787e-11
1.57169e-11
1.41809e-11
1.37519e-11
1.3638e-11
1.36197e-11
1.36425e-11
1.36067e-11
1.36368e-11
1.36287e-11
1.36099e-11
1.36332e-11
1.36123e-11
1.36339e-11
1.37078e-11
1.41912e-11
1.59743e-11
2.25974e-11
5.34532e-11
2.74184e-11
2.0319e-11
1.59103e-11
1.45146e-11
1.41242e-11
1.4016e-11
1.39986e-11
1.40181e-11
1.39839e-11
1.40131e-11
1.4006e-11
1.3988e-11
1.40096e-11
1.3991e-11
1.40128e-11
1.40811e-11
1.4519e-11
1.60672e-11
2.15374e-11
4.54028e-11
2.64456e-11
1.99904e-11
1.6109e-11
1.48497e-11
1.44897e-11
1.43878e-11
1.4371e-11
1.43862e-11
1.43549e-11
1.43817e-11
1.43756e-11
1.43593e-11
1.43788e-11
1.43635e-11
1.43844e-11
1.44499e-11
1.48414e-11
1.61897e-11
2.07036e-11
3.90628e-11
2.56259e-11
1.97498e-11
1.63068e-11
1.51781e-11
1.48443e-11
1.47499e-11
1.47336e-11
1.47447e-11
1.47165e-11
1.47409e-11
1.47355e-11
1.47211e-11
1.47384e-11
1.47264e-11
1.47459e-11
1.48094e-11
1.51553e-11
1.63284e-11
2.00226e-11
3.40999e-11
2.4938e-11
1.95914e-11
1.65296e-11
1.55227e-11
1.52173e-11
1.51317e-11
1.51161e-11
1.51253e-11
1.50984e-11
1.51227e-11
1.51172e-11
1.51036e-11
1.51197e-11
1.51096e-11
1.51281e-11
1.51872e-11
1.54902e-11
1.65024e-11
1.95085e-11
3.02673e-11
2.4419e-11
1.9563e-11
1.68562e-11
1.59568e-11
1.56897e-11
1.56149e-11
1.56006e-11
1.56126e-11
1.55824e-11
1.56124e-11
1.56064e-11
1.55907e-11
1.56081e-11
1.55961e-11
1.56154e-11
1.56631e-11
1.5929e-11
1.67795e-11
1.92278e-11
2.74066e-11
2.41931e-11
1.97919e-11
1.74458e-11
1.66323e-11
1.64224e-11
1.63609e-11
1.63483e-11
1.63713e-11
1.63291e-11
1.63753e-11
1.6367e-11
1.63441e-11
1.63677e-11
1.63471e-11
1.63711e-11
1.6395e-11
1.6634e-11
1.73017e-11
1.93228e-11
2.54683e-11
2.45021e-11
2.0519e-11
1.85571e-11
1.78043e-11
1.76741e-11
1.76267e-11
1.76162e-11
1.76591e-11
1.75943e-11
1.76692e-11
1.7655e-11
1.76191e-11
1.76547e-11
1.76184e-11
1.76513e-11
1.76408e-11
1.78611e-11
1.83213e-11
2.00199e-11
2.45387e-11
2.56719e-11
2.20781e-11
2.05094e-11
1.98013e-11
1.97608e-11
1.97203e-11
1.97121e-11
1.97775e-11
1.96836e-11
1.97941e-11
1.97726e-11
1.97205e-11
1.97717e-11
1.97163e-11
1.97616e-11
1.9713e-11
1.99268e-11
2.01626e-11
2.16148e-11
2.47891e-11
2.80155e-11
2.47921e-11
2.3551e-11
2.2904e-11
2.29341e-11
2.28679e-11
2.28616e-11
2.29369e-11
2.28209e-11
2.29569e-11
2.29297e-11
2.28664e-11
2.29292e-11
2.28621e-11
2.29185e-11
2.28699e-11
2.30768e-11
2.31107e-11
2.43441e-11
2.64306e-11
3.16685e-11
2.87925e-11
2.76994e-11
2.71237e-11
2.71256e-11
2.70624e-11
2.70578e-11
2.71127e-11
2.7e-11
2.7129e-11
2.71022e-11
2.70429e-11
2.71032e-11
2.70448e-11
2.71041e-11
2.70483e-11
2.72507e-11
2.72378e-11
2.82071e-11
2.95472e-11
3.65129e-11
3.39321e-11
3.27242e-11
3.22669e-11
3.21377e-11
3.20631e-11
3.20596e-11
3.2056e-11
3.19839e-11
3.20597e-11
3.20424e-11
3.20081e-11
3.20455e-11
3.20231e-11
3.20723e-11
3.20516e-11
3.22454e-11
3.23544e-11
3.30208e-11
3.40116e-11
4.23374e-11
3.99636e-11
3.8379e-11
3.80816e-11
3.77313e-11
3.76366e-11
3.7634e-11
3.75399e-11
3.75444e-11
3.75238e-11
3.7525e-11
3.75347e-11
3.75298e-11
3.75676e-11
3.75931e-11
3.7646e-11
3.78227e-11
3.82162e-11
3.85578e-11
3.96139e-11
4.9397e-11
4.71671e-11
4.51193e-11
4.49826e-11
4.44068e-11
4.42883e-11
4.4289e-11
4.41034e-11
4.41897e-11
4.40675e-11
4.40897e-11
4.4143e-11
4.40958e-11
4.41924e-11
4.41947e-11
4.43203e-11
4.44849e-11
4.51918e-11
4.52511e-11
4.66013e-11
6.1877e-11
5.9913e-11
5.81563e-11
5.79476e-11
5.75069e-11
5.73473e-11
5.73732e-11
5.72063e-11
5.72413e-11
5.71754e-11
5.71958e-11
5.72034e-11
5.72092e-11
5.7249e-11
5.73115e-11
5.73103e-11
5.7608e-11
5.79781e-11
5.82298e-11
5.8974e-11
1.03487e-10
1.01662e-10
1.00275e-10
9.9644e-11
9.92879e-11
9.89324e-11
9.90256e-11
9.87422e-11
9.88063e-11
9.86702e-11
9.87417e-11
9.87154e-11
9.8799e-11
9.87701e-11
9.89934e-11
9.87541e-11
9.95867e-11
9.92635e-11
1.00679e-10
9.97279e-11
2.02524e-10
1.9729e-10
1.83794e-10
1.84683e-10
1.79327e-10
1.78492e-10
1.78511e-10
1.76274e-10
1.78473e-10
1.75681e-10
1.76341e-10
1.77446e-10
1.76485e-10
1.77748e-10
1.77434e-10
1.79045e-10
1.80022e-10
1.86987e-10
1.86936e-10
1.97356e-10
2.51816e-10
2.39814e-10
2.08677e-10
2.12205e-10
2.00267e-10
1.99231e-10
1.98998e-10
1.94466e-10
1.99524e-10
1.93242e-10
1.94682e-10
1.97246e-10
1.94863e-10
1.97783e-10
1.96598e-10
2.00726e-10
2.01328e-10
2.18331e-10
2.15558e-10
2.44323e-10
)
;

boundaryField
{
    fuel
    {
        type            fixedValue;
        value           uniform 0;
    }
    wall
    {
        type            zeroGradient;
    }
    outlet
    {
        type            zeroGradient;
    }
    frontAndBack
    {
        type            empty;
    }
}


// ************************************************************************* //
