/*--------------------------------*- C++ -*----------------------------------*\
| =========                 |                                                 |
| \\      /  F ield         | OpenFOAM: The Open Source CFD Toolbox           |
|  \\    /   O peration     | Version:  dev                                   |
|   \\  /    A nd           | Web:      www.OpenFOAM.org                      |
|    \\/     M anipulation  |                                                 |
\*---------------------------------------------------------------------------*/
FoamFile
{
    version     2.0;
    format      ascii;
    class       volScalarField;
    location    "0.2";
    object      n-C4H3;
}
// * * * * * * * * * * * * * * * * * * * * * * * * * * * * * * * * * * * * * //

dimensions      [0 0 0 0 0 0 0];

internalField   nonuniform List<scalar> 
1000
(
2.59056e-08
1.63179e-06
1.58401e-06
1.5761e-06
1.575e-06
1.57489e-06
1.57485e-06
1.57485e-06
1.57486e-06
1.57486e-06
1.57488e-06
1.57488e-06
1.57488e-06
1.57488e-06
1.57487e-06
1.57512e-06
1.57578e-06
1.58146e-06
1.61137e-06
4.50925e-08
3.85471e-08
5.98784e-07
5.33161e-07
5.25112e-07
5.23978e-07
5.23869e-07
5.23842e-07
5.23822e-07
5.23859e-07
5.2383e-07
5.23865e-07
5.23863e-07
5.23843e-07
5.23947e-07
5.23747e-07
5.24429e-07
5.24535e-07
5.32259e-07
5.6406e-07
1.01018e-07
2.66325e-08
2.66912e-07
2.2038e-07
2.15165e-07
2.14343e-07
2.1426e-07
2.14242e-07
2.14215e-07
2.14257e-07
2.14225e-07
2.14259e-07
2.14267e-07
2.14242e-07
2.14345e-07
2.14142e-07
2.14858e-07
2.14538e-07
2.21114e-07
2.43017e-07
3.15686e-07
1.50508e-08
1.54659e-07
1.18713e-07
1.14958e-07
1.14299e-07
1.14226e-07
1.14201e-07
1.1418e-07
1.14218e-07
1.1419e-07
1.14221e-07
1.14236e-07
1.14212e-07
1.14286e-07
1.14139e-07
1.14773e-07
1.14369e-07
1.20011e-07
1.37302e-07
9.12209e-07
1.02891e-08
1.06576e-07
7.71346e-08
7.41624e-08
7.35924e-08
7.35218e-08
7.34775e-08
7.34733e-08
7.35077e-08
7.3482e-08
7.3514e-08
7.3532e-08
7.35093e-08
7.35442e-08
7.34621e-08
7.40009e-08
7.36385e-08
7.87072e-08
9.22918e-08
1.29051e-06
1.00675e-08
8.1641e-08
5.70123e-08
5.44767e-08
5.39523e-08
5.38798e-08
5.38021e-08
5.38279e-08
5.38574e-08
5.3834e-08
5.38681e-08
5.38866e-08
5.38648e-08
5.38556e-08
5.38397e-08
5.42964e-08
5.40131e-08
5.78129e-08
6.87538e-08
6.35425e-07
1.45082e-08
6.66852e-08
4.61036e-08
4.37764e-08
4.32598e-08
4.31789e-08
4.30544e-08
4.3117e-08
4.31429e-08
4.31167e-08
4.31594e-08
4.31775e-08
4.31549e-08
4.30877e-08
4.31508e-08
4.35552e-08
4.33564e-08
4.68191e-08
5.45608e-08
3.42475e-07
3.06953e-08
5.66487e-08
3.90052e-08
3.74158e-08
3.68135e-08
3.67189e-08
3.65767e-08
3.6647e-08
3.66667e-08
3.66396e-08
3.66873e-08
3.67046e-08
3.66796e-08
3.66029e-08
3.66968e-08
3.70872e-08
3.70133e-08
3.98482e-08
4.58477e-08
2.21264e-07
7.45277e-08
4.93446e-08
3.47734e-08
3.27143e-08
3.23742e-08
3.23345e-08
3.23433e-08
3.22927e-08
3.2306e-08
3.22774e-08
3.23291e-08
3.23456e-08
3.23168e-08
3.23631e-08
3.23138e-08
3.2539e-08
3.23623e-08
3.54704e-08
4.04109e-08
1.62425e-07
1.37502e-07
4.37129e-08
3.14433e-08
2.9808e-08
2.93645e-08
2.9292e-08
2.93245e-08
2.92426e-08
2.92459e-08
2.92137e-08
2.92733e-08
2.92901e-08
2.92496e-08
2.9339e-08
2.92695e-08
2.9543e-08
2.94473e-08
3.20651e-08
3.62527e-08
1.28595e-07
1.65625e-07
3.91948e-08
2.8819e-08
2.74085e-08
2.68928e-08
2.68137e-08
2.68062e-08
2.67629e-08
2.67632e-08
2.6738e-08
2.67858e-08
2.68009e-08
2.67499e-08
2.67809e-08
2.67913e-08
2.70445e-08
2.70347e-08
2.94707e-08
3.32445e-08
1.06621e-07
1.53225e-07
3.54819e-08
2.69409e-08
2.54359e-08
2.48957e-08
2.48098e-08
2.48068e-08
2.47603e-08
2.47615e-08
2.47508e-08
2.47753e-08
2.47889e-08
2.47214e-08
2.49481e-08
2.47854e-08
2.50272e-08
2.50587e-08
2.73382e-08
3.06827e-08
9.12846e-08
1.27598e-07
3.23881e-08
2.51858e-08
2.37597e-08
2.31957e-08
2.31042e-08
2.32341e-08
2.30548e-08
2.30629e-08
2.30685e-08
2.30641e-08
2.30765e-08
2.29837e-08
2.3202e-08
2.30752e-08
2.33104e-08
2.33749e-08
2.54667e-08
2.85096e-08
8.00551e-08
1.04092e-07
2.98001e-08
2.37735e-08
2.22865e-08
2.16998e-08
2.16018e-08
2.16651e-08
2.15496e-08
2.15708e-08
2.15859e-08
2.15577e-08
2.15694e-08
2.14387e-08
2.16466e-08
2.15687e-08
2.18e-08
2.18934e-08
2.41053e-08
2.66191e-08
7.13314e-08
8.49501e-08
2.74188e-08
2.2434e-08
2.09593e-08
2.03553e-08
2.02517e-08
2.02749e-08
2.01911e-08
2.02303e-08
2.02452e-08
2.02034e-08
2.02157e-08
2.02238e-08
2.02652e-08
2.02145e-08
2.04424e-08
2.05591e-08
2.28305e-08
2.50537e-08
6.41726e-08
6.89406e-08
2.52183e-08
2.11172e-08
1.97434e-08
1.91301e-08
1.90225e-08
1.90238e-08
1.89468e-08
1.90079e-08
1.90161e-08
1.89697e-08
1.89825e-08
1.89786e-08
1.90161e-08
1.89814e-08
1.92052e-08
1.9338e-08
2.15149e-08
2.36373e-08
5.79111e-08
5.52029e-08
2.35599e-08
1.99037e-08
1.86166e-08
1.80035e-08
1.78937e-08
1.7883e-08
1.77947e-08
1.78825e-08
1.78817e-08
1.78364e-08
1.78495e-08
1.78323e-08
1.78744e-08
1.78491e-08
1.80672e-08
1.82097e-08
2.02834e-08
2.2265e-08
5.22407e-08
4.37771e-08
2.21003e-08
1.87769e-08
1.75623e-08
1.69612e-08
1.6851e-08
1.6834e-08
1.67182e-08
1.68401e-08
1.68308e-08
1.67894e-08
1.68024e-08
1.67693e-08
1.68231e-08
1.68033e-08
1.70142e-08
1.716e-08
1.91071e-08
2.09853e-08
4.71016e-08
3.47498e-08
2.07971e-08
1.77254e-08
1.65645e-08
1.59923e-08
1.58838e-08
1.58646e-08
1.5839e-08
1.58711e-08
1.58549e-08
1.58185e-08
1.58307e-08
1.57776e-08
1.58499e-08
1.58337e-08
1.60357e-08
1.61782e-08
1.82029e-08
1.98017e-08
4.17331e-08
2.79732e-08
1.96188e-08
1.67416e-08
1.56079e-08
1.50879e-08
1.49832e-08
1.49632e-08
1.49174e-08
1.49671e-08
1.4946e-08
1.49151e-08
1.4926e-08
1.48483e-08
1.49456e-08
1.49315e-08
1.51231e-08
1.52534e-08
1.72562e-08
1.86981e-08
3.73493e-08
2.30915e-08
1.85387e-08
1.58211e-08
1.48147e-08
1.42398e-08
1.41412e-08
1.41215e-08
1.40495e-08
1.4121e-08
1.40967e-08
1.40711e-08
1.40808e-08
1.40907e-08
1.41023e-08
1.40888e-08
1.42679e-08
1.44761e-08
1.63079e-08
1.76635e-08
3.30587e-08
1.96713e-08
1.74714e-08
1.49565e-08
1.40237e-08
1.34381e-08
1.33491e-08
1.33314e-08
1.33318e-08
1.33254e-08
1.32988e-08
1.32783e-08
1.32871e-08
1.33072e-08
1.33094e-08
1.32977e-08
1.34593e-08
1.37002e-08
1.54118e-08
1.66916e-08
2.9451e-08
1.73109e-08
1.64516e-08
1.41421e-08
1.33319e-08
1.27705e-08
1.26961e-08
1.26798e-08
1.26707e-08
1.26693e-08
1.26413e-08
1.26249e-08
1.26354e-08
1.26575e-08
1.26576e-08
1.26443e-08
1.28012e-08
1.30252e-08
1.45618e-08
1.57772e-08
2.60192e-08
1.56832e-08
1.5599e-08
1.33676e-08
1.266e-08
1.21482e-08
1.20321e-08
1.20167e-08
1.19976e-08
1.20023e-08
1.1971e-08
1.19586e-08
1.19735e-08
1.19895e-08
1.19921e-08
1.19807e-08
1.21285e-08
1.23525e-08
1.37462e-08
1.49152e-08
2.31529e-08
1.454e-08
1.47946e-08
1.27185e-08
1.20542e-08
1.15685e-08
1.14622e-08
1.14478e-08
1.14226e-08
1.14305e-08
1.13984e-08
1.13893e-08
1.1407e-08
1.14158e-08
1.14227e-08
1.14118e-08
1.15519e-08
1.17613e-08
1.2951e-08
1.40969e-08
2.06753e-08
1.37025e-08
1.40415e-08
1.20854e-08
1.1489e-08
1.10274e-08
1.09316e-08
1.09182e-08
1.08881e-08
1.08987e-08
1.0866e-08
1.08594e-08
1.08778e-08
1.0881e-08
1.08926e-08
1.08824e-08
1.10157e-08
1.12068e-08
1.23158e-08
1.33202e-08
1.85837e-08
1.30457e-08
1.33389e-08
1.15068e-08
1.09583e-08
1.05225e-08
1.04359e-08
1.04232e-08
1.03897e-08
1.04024e-08
1.03694e-08
1.03651e-08
1.03825e-08
1.03823e-08
1.03977e-08
1.03884e-08
1.05146e-08
1.06891e-08
1.17134e-08
1.25839e-08
1.67781e-08
1.24875e-08
1.26238e-08
1.09605e-08
1.04582e-08
1.00493e-08
9.9708e-09
9.95861e-09
9.92297e-09
9.93724e-09
9.90423e-09
9.90194e-09
9.91763e-09
9.91554e-09
9.93381e-09
9.92548e-09
1.00444e-08
1.02038e-08
1.11416e-08
1.1883e-08
1.52219e-08
1.19728e-08
1.18894e-08
1.04429e-08
9.98523e-09
9.60416e-09
9.53257e-09
9.52052e-09
9.48378e-09
9.49941e-09
9.46643e-09
9.46577e-09
9.47944e-09
9.47653e-09
9.49678e-09
9.48941e-09
9.60122e-09
9.74592e-09
1.05988e-08
1.12127e-08
1.39798e-08
1.14763e-08
1.12747e-08
9.95143e-09
9.53565e-09
9.18318e-09
9.11732e-09
9.10492e-09
9.06829e-09
9.08503e-09
9.05219e-09
9.05277e-09
9.06424e-09
9.06135e-09
9.08289e-09
9.07632e-09
9.18119e-09
9.31103e-09
1.00833e-08
1.0616e-08
1.28666e-08
1.09826e-08
1.06883e-08
9.4845e-09
9.10607e-09
8.78355e-09
8.72218e-09
8.7085e-09
8.67364e-09
8.69117e-09
8.65867e-09
8.66014e-09
8.66885e-09
8.66721e-09
8.68939e-09
8.68335e-09
8.78156e-09
8.89587e-09
9.59376e-09
1.00488e-08
1.17974e-08
1.04858e-08
1.01277e-08
9.04283e-09
8.69413e-09
8.40407e-09
8.34583e-09
8.32923e-09
8.29859e-09
8.31645e-09
8.28462e-09
8.28661e-09
8.2913e-09
8.29294e-09
8.31501e-09
8.30908e-09
8.40082e-09
8.49857e-09
9.13058e-09
9.51172e-09
1.09893e-08
9.98716e-09
9.59148e-09
8.59118e-09
8.30062e-09
8.02317e-09
7.97073e-09
7.96712e-09
7.92195e-09
7.94243e-09
7.90945e-09
7.91348e-09
7.93166e-09
7.91812e-09
7.9422e-09
7.937e-09
8.02166e-09
8.11916e-09
8.6977e-09
9.00639e-09
1.0228e-08
9.49282e-09
9.08311e-09
8.15642e-09
7.92931e-09
7.67872e-09
7.63034e-09
7.62621e-09
7.58354e-09
7.60399e-09
7.57209e-09
7.57648e-09
7.59363e-09
7.58097e-09
7.60432e-09
7.59908e-09
7.67678e-09
7.76174e-09
8.24134e-09
8.50277e-09
9.56795e-09
9.01421e-09
8.61115e-09
7.78524e-09
7.5877e-09
7.36314e-09
7.31916e-09
7.31465e-09
7.27522e-09
7.29499e-09
7.26491e-09
7.26937e-09
7.28524e-09
7.27363e-09
7.29582e-09
7.2907e-09
7.3613e-09
7.43458e-09
7.85999e-09
8.06945e-09
8.97822e-09
8.56885e-09
8.18807e-09
7.45992e-09
7.28917e-09
7.09042e-09
7.05119e-09
7.04663e-09
7.01112e-09
7.02935e-09
7.00208e-09
7.00627e-09
7.02055e-09
7.0101e-09
7.03055e-09
7.02591e-09
7.0888e-09
7.15177e-09
7.52424e-09
7.69182e-09
8.46125e-09
8.18174e-09
7.83407e-09
7.20192e-09
7.05445e-09
6.88192e-09
6.84767e-09
6.84341e-09
6.81252e-09
6.82817e-09
6.80491e-09
6.80844e-09
6.82064e-09
6.81169e-09
6.82964e-09
6.82598e-09
6.88012e-09
6.93447e-09
7.25378e-09
7.38906e-09
8.02835e-09
7.8836e-09
7.57659e-09
7.03944e-09
6.91118e-09
6.76529e-09
6.73597e-09
6.73232e-09
6.70657e-09
6.71857e-09
6.70052e-09
6.7035e-09
6.71305e-09
6.70614e-09
6.72075e-09
6.71866e-09
6.76281e-09
6.81074e-09
7.07559e-09
7.18767e-09
7.69925e-09
7.70993e-09
7.44878e-09
7.00545e-09
6.89237e-09
6.77258e-09
6.74782e-09
6.74486e-09
6.72452e-09
6.73194e-09
6.72003e-09
6.7224e-09
6.72884e-09
6.72454e-09
6.73512e-09
6.73531e-09
6.76845e-09
6.81295e-09
7.02159e-09
7.11907e-09
7.50256e-09
7.70324e-09
7.49072e-09
7.13557e-09
7.0346e-09
6.939e-09
6.91725e-09
6.91508e-09
6.8997e-09
6.9022e-09
6.89663e-09
6.8978e-09
6.90106e-09
6.89961e-09
6.90617e-09
6.9088e-09
6.9324e-09
6.97459e-09
7.13102e-09
7.21538e-09
7.4788e-09
7.90878e-09
7.74562e-09
7.46905e-09
7.37869e-09
7.3048e-09
7.28234e-09
7.28105e-09
7.26961e-09
7.26734e-09
7.2677e-09
7.26781e-09
7.26802e-09
7.26949e-09
7.27224e-09
7.2776e-09
7.29383e-09
7.33666e-09
7.44333e-09
7.51916e-09
7.66699e-09
8.38784e-09
8.27222e-09
8.06282e-09
7.97854e-09
7.92192e-09
7.89997e-09
7.89976e-09
7.89118e-09
7.88434e-09
7.89018e-09
7.88942e-09
7.88659e-09
7.89115e-09
7.8902e-09
7.89877e-09
7.90692e-09
7.95124e-09
8.01475e-09
8.08563e-09
8.12613e-09
9.24794e-09
9.17541e-09
9.02393e-09
8.9401e-09
8.89825e-09
8.87718e-09
8.87848e-09
8.87207e-09
8.86035e-09
8.87181e-09
8.87028e-09
8.86403e-09
8.8723e-09
8.86725e-09
8.87994e-09
8.8758e-09
8.92698e-09
8.94947e-09
9.02486e-09
8.96092e-09
1.06982e-08
1.06625e-08
1.05595e-08
1.04712e-08
1.04427e-08
1.04197e-08
1.04231e-08
1.04177e-08
1.04009e-08
1.04179e-08
1.04158e-08
1.04058e-08
1.04185e-08
1.04089e-08
1.0427e-08
1.04094e-08
1.04727e-08
1.04531e-08
1.05448e-08
1.0376e-08
1.31169e-08
1.311e-08
1.30167e-08
1.29263e-08
1.28945e-08
1.28657e-08
1.28719e-08
1.28602e-08
1.28438e-08
1.28591e-08
1.28579e-08
1.28472e-08
1.28618e-08
1.28518e-08
1.28745e-08
1.28492e-08
1.29275e-08
1.28879e-08
1.29923e-08
1.27486e-08
1.69899e-08
1.69975e-08
1.67416e-08
1.66876e-08
1.65728e-08
1.65314e-08
1.65396e-08
1.64912e-08
1.65055e-08
1.64816e-08
1.64882e-08
1.64951e-08
1.64941e-08
1.65067e-08
1.65222e-08
1.65248e-08
1.66066e-08
1.66754e-08
1.67187e-08
1.65856e-08
2.22338e-08
2.22054e-08
2.12758e-08
2.13835e-08
2.09562e-08
2.08944e-08
2.08979e-08
2.07324e-08
2.08674e-08
2.06949e-08
2.07295e-08
2.0808e-08
2.0737e-08
2.08394e-08
2.08078e-08
2.09465e-08
2.09807e-08
2.15482e-08
2.12974e-08
2.18762e-08
2.48525e-08
2.45476e-08
2.2124e-08
2.25563e-08
2.15138e-08
2.14392e-08
2.14205e-08
2.10497e-08
2.14274e-08
2.09614e-08
2.10513e-08
2.12719e-08
2.10573e-08
2.1333e-08
2.11962e-08
2.16155e-08
2.15215e-08
2.31513e-08
2.2339e-08
2.47129e-08
1.64906e-08
1.6023e-08
1.37015e-08
1.41129e-08
1.31763e-08
1.31292e-08
1.31046e-08
1.27831e-08
1.31368e-08
1.27038e-08
1.27888e-08
1.29919e-08
1.27921e-08
1.30397e-08
1.29062e-08
1.32929e-08
1.31784e-08
1.47028e-08
1.39686e-08
1.64705e-08
7.04709e-09
6.75655e-09
5.76201e-09
5.91959e-09
5.52832e-09
5.50636e-09
5.49633e-09
5.35613e-09
5.51552e-09
5.31946e-09
5.36136e-09
5.44738e-09
5.36427e-09
5.46531e-09
5.4142e-09
5.56639e-09
5.5399e-09
6.14575e-09
5.91484e-09
6.93004e-09
)
;

boundaryField
{
    fuel
    {
        type            fixedValue;
        value           uniform 0;
    }
    wall
    {
        type            zeroGradient;
    }
    outlet
    {
        type            zeroGradient;
    }
    frontAndBack
    {
        type            empty;
    }
}


// ************************************************************************* //
