/*--------------------------------*- C++ -*----------------------------------*\
| =========                 |                                                 |
| \\      /  F ield         | OpenFOAM: The Open Source CFD Toolbox           |
|  \\    /   O peration     | Version:  dev                                   |
|   \\  /    A nd           | Web:      www.OpenFOAM.org                      |
|    \\/     M anipulation  |                                                 |
\*---------------------------------------------------------------------------*/
FoamFile
{
    version     2.0;
    format      ascii;
    class       volScalarField;
    location    "0.2";
    object      n-C4H3;
}
// * * * * * * * * * * * * * * * * * * * * * * * * * * * * * * * * * * * * * //

dimensions      [0 0 0 0 0 0 0];

internalField   nonuniform List<scalar> 
1000
(
5.21445e-08
1.54981e-06
1.51908e-06
1.5128e-06
1.51208e-06
1.51181e-06
1.51181e-06
1.51182e-06
1.51182e-06
1.51181e-06
1.5118e-06
1.51181e-06
1.51181e-06
1.51178e-06
1.51182e-06
1.51195e-06
1.51309e-06
1.52202e-06
1.57601e-06
2.34141e-08
1.8188e-07
5.45501e-07
5.20021e-07
5.10998e-07
5.11165e-07
5.10457e-07
5.10554e-07
5.1051e-07
5.10523e-07
5.10508e-07
5.10489e-07
5.10517e-07
5.10485e-07
5.10494e-07
5.10502e-07
5.10633e-07
5.11725e-07
5.20029e-07
5.90727e-07
3.08361e-08
1.60731e-06
2.35676e-07
2.19361e-07
2.11563e-07
2.12099e-07
2.11321e-07
2.11458e-07
2.11383e-07
2.11412e-07
2.11383e-07
2.11374e-07
2.11401e-07
2.11366e-07
2.11379e-07
2.11381e-07
2.11493e-07
2.12284e-07
2.17607e-07
2.66728e-07
1.97728e-08
1.7128e-06
1.32753e-07
1.2021e-07
1.13658e-07
1.1422e-07
1.13495e-07
1.1363e-07
1.13558e-07
1.13593e-07
1.13559e-07
1.1356e-07
1.1358e-07
1.13547e-07
1.13549e-07
1.13562e-07
1.1366e-07
1.14298e-07
1.18094e-07
1.55298e-07
1.17389e-08
7.45803e-07
8.8499e-08
7.92371e-08
7.34788e-08
7.39722e-08
7.33304e-08
7.34334e-08
7.33856e-08
7.34207e-08
7.33862e-08
7.33947e-08
7.34084e-08
7.33757e-08
7.33627e-08
7.33932e-08
7.34855e-08
7.40459e-08
7.699e-08
1.06782e-07
9.18393e-09
3.90655e-07
6.60298e-08
5.82072e-08
5.39569e-08
5.43491e-08
5.3791e-08
5.38477e-08
5.38349e-08
5.38668e-08
5.38321e-08
5.38466e-08
5.38564e-08
5.38231e-08
5.37957e-08
5.38446e-08
5.39377e-08
5.44677e-08
5.68855e-08
8.10923e-08
1.01097e-08
2.55011e-07
5.25277e-08
4.71173e-08
4.33144e-08
4.35923e-08
4.31053e-08
4.31208e-08
4.31365e-08
4.31664e-08
4.31286e-08
4.31507e-08
4.3158e-08
4.31201e-08
4.30755e-08
4.31498e-08
4.32466e-08
4.37876e-08
4.58687e-08
6.54578e-08
1.60029e-08
1.86799e-07
4.42504e-08
4.04133e-08
3.69045e-08
3.70989e-08
3.66769e-08
3.66792e-08
3.66984e-08
3.67264e-08
3.66895e-08
3.6714e-08
3.67196e-08
3.66814e-08
3.66488e-08
3.67156e-08
3.68092e-08
3.73611e-08
3.92918e-08
5.49913e-08
3.6753e-08
1.44001e-07
3.90992e-08
3.5837e-08
3.25474e-08
3.28488e-08
3.24938e-08
3.25184e-08
3.25086e-08
3.25366e-08
3.25035e-08
3.25263e-08
3.25309e-08
3.24943e-08
3.24942e-08
3.25316e-08
3.26072e-08
3.29515e-08
3.47266e-08
4.75057e-08
8.71081e-08
1.14749e-07
3.5252e-08
3.23826e-08
2.95327e-08
2.96874e-08
2.9331e-08
2.93766e-08
2.93357e-08
2.9365e-08
2.93332e-08
2.93571e-08
2.93615e-08
2.93172e-08
2.93598e-08
2.93705e-08
2.94635e-08
2.99629e-08
3.12657e-08
4.18795e-08
1.43718e-07
9.4613e-08
3.24387e-08
2.97618e-08
2.70859e-08
2.71787e-08
2.68558e-08
2.68885e-08
2.68521e-08
2.68826e-08
2.68521e-08
2.68765e-08
2.68808e-08
2.6825e-08
2.68757e-08
2.68955e-08
2.69933e-08
2.75145e-08
2.89408e-08
3.74878e-08
1.59759e-07
8.07799e-08
3.00405e-08
2.76119e-08
2.51035e-08
2.5149e-08
2.48438e-08
2.48498e-08
2.48323e-08
2.48655e-08
2.48365e-08
2.48603e-08
2.48652e-08
2.47917e-08
2.48257e-08
2.48857e-08
2.49902e-08
2.55404e-08
2.69483e-08
3.39599e-08
1.36054e-07
7.10675e-08
2.80091e-08
2.57151e-08
2.34126e-08
2.34225e-08
2.31292e-08
2.30963e-08
2.31089e-08
2.31459e-08
2.3121e-08
2.31413e-08
2.31473e-08
2.30486e-08
2.32826e-08
2.31748e-08
2.32842e-08
2.38599e-08
2.51525e-08
3.10827e-08
1.05335e-07
6.38883e-08
2.62376e-08
2.43618e-08
2.19216e-08
2.19019e-08
2.16197e-08
2.17461e-08
2.15881e-08
2.16303e-08
2.16104e-08
2.1626e-08
2.1634e-08
2.14968e-08
2.17377e-08
2.16659e-08
2.1781e-08
2.23786e-08
2.37653e-08
2.85317e-08
8.18564e-08
5.81882e-08
2.47373e-08
2.30401e-08
2.05769e-08
2.05329e-08
2.02597e-08
2.03703e-08
2.02153e-08
2.02658e-08
2.02501e-08
2.02616e-08
2.02727e-08
2.02747e-08
2.03479e-08
2.03071e-08
2.04278e-08
2.10418e-08
2.23438e-08
2.62199e-08
6.49478e-08
5.33085e-08
2.33704e-08
2.17062e-08
1.93462e-08
1.92834e-08
1.90186e-08
1.91054e-08
1.89581e-08
1.90214e-08
1.90083e-08
1.90171e-08
1.90313e-08
1.90192e-08
1.90863e-08
1.9068e-08
1.91933e-08
1.98174e-08
2.10306e-08
2.45004e-08
5.18474e-08
4.88729e-08
2.206e-08
2.04515e-08
1.82091e-08
1.81332e-08
1.78774e-08
1.79443e-08
1.77952e-08
1.78776e-08
1.78657e-08
1.78729e-08
1.78901e-08
1.78598e-08
1.79332e-08
1.79289e-08
1.80575e-08
1.86851e-08
1.98195e-08
2.29889e-08
4.13045e-08
4.47115e-08
2.08196e-08
1.92404e-08
1.71516e-08
1.70686e-08
1.68228e-08
1.68749e-08
1.67101e-08
1.6821e-08
1.68093e-08
1.68155e-08
1.68355e-08
1.6778e-08
1.68722e-08
1.68763e-08
1.70067e-08
1.76309e-08
1.86971e-08
2.1656e-08
3.30217e-08
4.08003e-08
1.96654e-08
1.83185e-08
1.61632e-08
1.60794e-08
1.5845e-08
1.58878e-08
1.58249e-08
1.58419e-08
1.58295e-08
1.5835e-08
1.58574e-08
1.5756e-08
1.58913e-08
1.58999e-08
1.60307e-08
1.66447e-08
1.76527e-08
2.04771e-08
2.68132e-08
3.6452e-08
1.85827e-08
1.73867e-08
1.5233e-08
1.51569e-08
1.49356e-08
1.49713e-08
1.48983e-08
1.49311e-08
1.49183e-08
1.49229e-08
1.49479e-08
1.49125e-08
1.49815e-08
1.49911e-08
1.51209e-08
1.57177e-08
1.66777e-08
1.93247e-08
2.2363e-08
3.2806e-08
1.75639e-08
1.64193e-08
1.44494e-08
1.42924e-08
1.40868e-08
1.41168e-08
1.40267e-08
1.40808e-08
1.4068e-08
1.40713e-08
1.40986e-08
1.41093e-08
1.41331e-08
1.41418e-08
1.42696e-08
1.48369e-08
1.57658e-08
1.82603e-08
1.92812e-08
2.9516e-08
1.66036e-08
1.55094e-08
1.36763e-08
1.34746e-08
1.32906e-08
1.33153e-08
1.33066e-08
1.32827e-08
1.32701e-08
1.32712e-08
1.33013e-08
1.33031e-08
1.3336e-08
1.33434e-08
1.34687e-08
1.40136e-08
1.49119e-08
1.73123e-08
1.71923e-08
2.63063e-08
1.56963e-08
1.46485e-08
1.29975e-08
1.28118e-08
1.26332e-08
1.26577e-08
1.26441e-08
1.2626e-08
1.26131e-08
1.26087e-08
1.26454e-08
1.26425e-08
1.26794e-08
1.26858e-08
1.28074e-08
1.33202e-08
1.41114e-08
1.64165e-08
1.57862e-08
2.36029e-08
1.48388e-08
1.38232e-08
1.23254e-08
1.21401e-08
1.197e-08
1.19915e-08
1.19737e-08
1.19609e-08
1.19475e-08
1.19524e-08
1.19831e-08
1.19744e-08
1.20165e-08
1.20214e-08
1.21421e-08
1.2651e-08
1.33537e-08
1.55876e-08
1.48251e-08
2.1339e-08
1.4028e-08
1.30133e-08
1.17343e-08
1.15606e-08
1.13995e-08
1.14193e-08
1.13991e-08
1.13901e-08
1.13771e-08
1.13768e-08
1.14137e-08
1.14011e-08
1.14452e-08
1.14493e-08
1.1565e-08
1.20473e-08
1.27214e-08
1.48155e-08
1.41349e-08
1.90865e-08
1.32635e-08
1.2368e-08
1.11834e-08
1.10211e-08
1.08696e-08
1.08873e-08
1.08657e-08
1.08597e-08
1.08471e-08
1.08457e-08
1.08843e-08
1.08679e-08
1.0914e-08
1.09176e-08
1.10261e-08
1.14834e-08
1.20749e-08
1.40902e-08
1.35978e-08
1.70349e-08
1.25364e-08
1.17577e-08
1.06681e-08
1.05182e-08
1.03757e-08
1.03916e-08
1.03688e-08
1.03654e-08
1.03533e-08
1.03509e-08
1.03899e-08
1.03704e-08
1.04181e-08
1.04215e-08
1.05233e-08
1.09535e-08
1.15063e-08
1.34122e-08
1.31282e-08
1.54243e-08
1.18418e-08
1.11832e-08
1.01842e-08
1.00481e-08
9.91339e-09
9.92795e-09
9.90416e-09
9.9029e-09
9.89115e-09
9.88755e-09
9.92639e-09
9.90434e-09
9.9535e-09
9.95674e-09
1.00521e-08
1.04541e-08
1.09671e-08
1.26909e-08
1.26754e-08
1.42376e-08
1.11797e-08
1.06382e-08
9.72779e-09
9.60521e-09
9.47814e-09
9.49147e-09
9.46675e-09
9.46737e-09
9.45586e-09
9.45107e-09
9.48957e-09
9.46567e-09
9.51586e-09
9.51904e-09
9.60854e-09
9.98124e-09
1.04538e-08
1.19717e-08
1.22149e-08
1.3104e-08
1.05851e-08
1.01208e-08
9.29467e-09
9.18589e-09
9.06598e-09
9.07823e-09
9.05244e-09
9.0549e-09
9.04331e-09
9.03743e-09
9.07556e-09
9.05032e-09
9.1014e-09
9.10445e-09
9.18883e-09
9.53127e-09
9.96434e-09
1.13712e-08
1.17391e-08
1.1979e-08
1.00208e-08
9.6294e-09
8.88138e-09
8.78729e-09
8.67387e-09
8.68518e-09
8.65785e-09
8.66277e-09
8.65017e-09
8.64334e-09
8.6811e-09
8.6549e-09
8.70717e-09
8.70991e-09
8.79017e-09
9.10106e-09
9.49771e-09
1.07925e-08
1.12438e-08
1.11401e-08
9.48659e-09
9.16453e-09
8.48582e-09
8.4079e-09
8.30014e-09
8.31067e-09
8.28092e-09
8.28997e-09
8.27446e-09
8.26688e-09
8.3042e-09
8.27737e-09
8.33158e-09
8.33371e-09
8.41074e-09
8.68897e-09
9.05548e-09
1.02324e-08
1.07309e-08
1.03692e-08
8.98313e-09
8.73006e-09
8.10784e-09
8.02709e-09
7.93307e-09
7.94267e-09
7.92172e-09
7.92321e-09
7.91639e-09
7.90833e-09
7.94496e-09
7.91785e-09
7.96143e-09
7.96289e-09
8.02951e-09
8.29554e-09
8.5919e-09
9.69058e-09
1.0207e-08
9.68522e-09
8.48338e-09
8.27076e-09
7.7516e-09
7.68271e-09
7.59623e-09
7.60502e-09
7.58397e-09
7.58807e-09
7.57952e-09
7.57125e-09
7.60673e-09
7.57989e-09
7.62252e-09
7.62302e-09
7.68417e-09
7.92434e-09
8.16584e-09
9.17317e-09
9.68285e-09
9.07462e-09
8.05147e-09
7.88661e-09
7.42538e-09
7.36739e-09
7.28861e-09
7.29646e-09
7.27576e-09
7.28146e-09
7.27203e-09
7.26388e-09
7.2974e-09
7.27162e-09
7.3125e-09
7.31222e-09
7.36714e-09
7.5828e-09
7.79104e-09
8.68953e-09
9.17279e-09
8.53878e-09
7.67567e-09
7.54735e-09
7.1433e-09
7.0944e-09
7.02414e-09
7.03086e-09
7.01129e-09
7.01737e-09
7.00817e-09
7.00051e-09
7.03091e-09
7.00728e-09
7.04509e-09
7.04436e-09
7.09267e-09
7.2839e-09
7.46208e-09
8.25324e-09
8.69368e-09
8.0875e-09
7.37497e-09
7.2719e-09
6.92664e-09
6.88427e-09
6.82399e-09
6.82918e-09
6.81177e-09
6.81718e-09
6.80911e-09
6.80239e-09
6.82824e-09
6.80809e-09
6.84133e-09
6.84057e-09
6.88216e-09
7.04819e-09
7.20057e-09
7.88507e-09
8.27677e-09
7.74165e-09
7.17524e-09
7.08736e-09
6.80329e-09
6.76431e-09
6.71589e-09
6.71898e-09
6.70478e-09
6.70872e-09
6.70247e-09
6.69702e-09
6.7169e-09
6.70155e-09
6.72914e-09
6.72852e-09
6.7636e-09
6.90375e-09
7.03511e-09
7.61358e-09
7.95275e-09
7.53503e-09
7.10601e-09
7.02961e-09
6.80471e-09
6.76745e-09
6.73134e-09
6.73209e-09
6.72169e-09
6.72363e-09
6.7196e-09
6.71569e-09
6.72869e-09
6.71904e-09
6.74083e-09
6.74014e-09
6.76971e-09
6.88395e-09
6.99867e-09
7.47346e-09
7.75716e-09
7.49837e-09
7.20307e-09
7.13396e-09
6.96608e-09
6.92795e-09
6.90386e-09
6.90189e-09
6.8955e-09
6.89514e-09
6.89347e-09
6.89121e-09
6.89703e-09
6.89355e-09
6.91015e-09
6.90913e-09
6.93532e-09
7.02489e-09
7.12628e-09
7.50293e-09
7.72987e-09
7.67418e-09
7.50733e-09
7.44104e-09
7.32755e-09
7.28639e-09
7.27149e-09
7.26641e-09
7.26391e-09
7.26116e-09
7.26181e-09
7.26099e-09
7.26006e-09
7.26258e-09
7.27515e-09
7.27356e-09
7.29946e-09
7.367e-09
7.45731e-09
7.74598e-09
7.91684e-09
8.12156e-09
8.0739e-09
8.00716e-09
7.94169e-09
7.89592e-09
7.89128e-09
7.88253e-09
7.88388e-09
7.87859e-09
7.88155e-09
7.88195e-09
7.87478e-09
7.88307e-09
7.89199e-09
7.89014e-09
7.91458e-09
7.9647e-09
8.04864e-09
8.26123e-09
8.37902e-09
8.94439e-09
9.01278e-09
8.93592e-09
8.91673e-09
8.86271e-09
8.87052e-09
8.85703e-09
8.86271e-09
8.85435e-09
8.85993e-09
8.86147e-09
8.84786e-09
8.86229e-09
8.86683e-09
8.86545e-09
8.88814e-09
8.92335e-09
9.00696e-09
9.1528e-09
9.22331e-09
1.03459e-08
1.05304e-08
1.04317e-08
1.04602e-08
1.03937e-08
1.04138e-08
1.03942e-08
1.04046e-08
1.03926e-08
1.0401e-08
1.04035e-08
1.03835e-08
1.04043e-08
1.04044e-08
1.04038e-08
1.04278e-08
1.04495e-08
1.0538e-08
1.06263e-08
1.06571e-08
1.27023e-08
1.29687e-08
1.28555e-08
1.29066e-08
1.28268e-08
1.28518e-08
1.28271e-08
1.28379e-08
1.28247e-08
1.28332e-08
1.28348e-08
1.28168e-08
1.28372e-08
1.28406e-08
1.28395e-08
1.28708e-08
1.28938e-08
1.29852e-08
1.30566e-08
1.30541e-08
1.65236e-08
1.66635e-08
1.66288e-08
1.65579e-08
1.64864e-08
1.64744e-08
1.64577e-08
1.64453e-08
1.64461e-08
1.64401e-08
1.64311e-08
1.64584e-08
1.64412e-08
1.64849e-08
1.64774e-08
1.65299e-08
1.66278e-08
1.66834e-08
1.69243e-08
1.68884e-08
2.18225e-08
2.11789e-08
2.15053e-08
2.08809e-08
2.08954e-08
2.07226e-08
2.07579e-08
2.06544e-08
2.0715e-08
2.06528e-08
2.06049e-08
2.08027e-08
2.06382e-08
2.0823e-08
2.0795e-08
2.08953e-08
2.12782e-08
2.11738e-08
2.21366e-08
2.20709e-08
2.48071e-08
2.21864e-08
2.32152e-08
2.14019e-08
2.16134e-08
2.11166e-08
2.12684e-08
2.0988e-08
2.11696e-08
2.09974e-08
2.08712e-08
2.14105e-08
2.0945e-08
2.13959e-08
2.13317e-08
2.14948e-08
2.24517e-08
2.20228e-08
2.46303e-08
2.47054e-08
1.66108e-08
1.38525e-08
1.47844e-08
1.30857e-08
1.32997e-08
1.28486e-08
1.29966e-08
1.27445e-08
1.29123e-08
1.27551e-08
1.26364e-08
1.31388e-08
1.27012e-08
1.31053e-08
1.30468e-08
1.31728e-08
1.4037e-08
1.36298e-08
1.61628e-08
1.64193e-08
6.97066e-09
5.86399e-09
6.16613e-09
5.49638e-09
5.55915e-09
5.38407e-09
5.4407e-09
5.33824e-09
5.40677e-09
5.34138e-09
5.28445e-09
5.51137e-09
5.31399e-09
5.4933e-09
5.46339e-09
5.52165e-09
5.87834e-09
5.72805e-09
6.80889e-09
7.02718e-09
)
;

boundaryField
{
    fuel
    {
        type            fixedValue;
        value           uniform 0;
    }
    wall
    {
        type            zeroGradient;
    }
    outlet
    {
        type            zeroGradient;
    }
    frontAndBack
    {
        type            empty;
    }
}


// ************************************************************************* //
