/*--------------------------------*- C++ -*----------------------------------*\
| =========                 |                                                 |
| \\      /  F ield         | OpenFOAM: The Open Source CFD Toolbox           |
|  \\    /   O peration     | Version:  dev                                   |
|   \\  /    A nd           | Web:      www.OpenFOAM.org                      |
|    \\/     M anipulation  |                                                 |
\*---------------------------------------------------------------------------*/
FoamFile
{
    version     2.0;
    format      ascii;
    class       volScalarField;
    location    "0.1";
    object      n-C6H5;
}
// * * * * * * * * * * * * * * * * * * * * * * * * * * * * * * * * * * * * * //

dimensions      [0 0 0 0 0 0 0];

internalField   nonuniform List<scalar> 
100
(
6.96274e-09
2.36016e-09
7.12939e-10
2.07356e-10
5.80694e-11
1.62927e-11
4.4754e-12
1.22114e-12
3.38127e-13
9.23316e-14
2.56816e-14
7.06611e-15
1.9543e-15
5.44688e-16
1.53816e-16
4.45924e-17
1.36898e-17
4.73402e-18
1.99996e-18
1.06821e-18
6.8345e-19
4.82339e-19
3.5539e-19
2.66453e-19
2.01192e-19
1.52969e-19
1.17621e-19
9.12047e-20
7.16404e-20
5.74889e-20
4.79413e-20
4.31237e-20
4.38253e-20
5.28967e-20
7.61065e-20
1.24026e-19
2.14844e-19
3.78171e-19
6.59381e-19
1.12339e-18
1.87697e-18
3.05578e-18
4.82509e-18
7.28476e-18
1.06795e-17
1.52237e-17
2.11341e-17
2.80779e-17
3.62872e-17
4.58508e-17
5.59918e-17
6.6578e-17
7.72282e-17
8.7676e-17
9.68922e-17
1.0398e-16
1.09035e-16
1.11724e-16
1.11879e-16
1.09501e-16
1.04758e-16
9.79655e-17
8.95491e-17
8.00029e-17
6.98423e-17
5.95596e-17
4.95857e-17
4.0261e-17
3.18275e-17
2.44637e-17
1.82473e-17
1.3275e-17
9.36911e-18
6.39845e-18
4.21908e-18
2.65116e-18
1.62695e-18
9.56268e-19
5.2902e-19
2.84185e-19
1.45515e-19
7.15335e-20
3.39898e-20
1.58915e-20
7.56365e-21
4.05174e-21
2.48802e-21
1.74462e-21
1.34302e-21
1.09537e-21
9.32443e-22
8.30356e-22
7.838e-22
7.99904e-22
9.03426e-22
1.15546e-21
1.68329e-21
2.45726e-21
2.17431e-21
9.84691e-22
)
;

boundaryField
{
    wall
    {
        type            zeroGradient;
    }
    fuel
    {
        type            fixedValue;
        value           uniform 0;
    }
    outlet
    {
        type            inletOutlet;
        inletValue      uniform 0;
        value           uniform 9.84691e-22;
    }
}


// ************************************************************************* //
