/*--------------------------------*- C++ -*----------------------------------*\
| =========                 |                                                 |
| \\      /  F ield         | OpenFOAM: The Open Source CFD Toolbox           |
|  \\    /   O peration     | Version:  dev                                   |
|   \\  /    A nd           | Web:      www.OpenFOAM.org                      |
|    \\/     M anipulation  |                                                 |
\*---------------------------------------------------------------------------*/
FoamFile
{
    version     2.0;
    format      ascii;
    class       volScalarField;
    location    "0.2";
    object      n-C6H5;
}
// * * * * * * * * * * * * * * * * * * * * * * * * * * * * * * * * * * * * * //

dimensions      [0 0 0 0 0 0 0];

internalField   nonuniform List<scalar> 
1000
(
2.15571e-11
1.10235e-09
1.25633e-09
1.27261e-09
1.27405e-09
1.27419e-09
1.27433e-09
1.27419e-09
1.2744e-09
1.27429e-09
1.27437e-09
1.27439e-09
1.27443e-09
1.27436e-09
1.27434e-09
1.27479e-09
1.27221e-09
1.26789e-09
1.17161e-09
3.23852e-11
1.35217e-10
3.2479e-09
3.43793e-09
3.43675e-09
3.43445e-09
3.43422e-09
3.43444e-09
3.434e-09
3.43472e-09
3.43433e-09
3.43463e-09
3.43466e-09
3.43483e-09
3.43471e-09
3.43439e-09
3.43825e-09
3.43245e-09
3.46165e-09
3.31248e-09
9.43273e-11
8.08578e-11
3.10791e-09
3.04048e-09
3.00207e-09
2.99443e-09
2.99375e-09
2.99386e-09
2.99332e-09
2.9942e-09
2.99364e-09
2.99409e-09
2.9942e-09
2.99411e-09
2.99497e-09
2.99299e-09
3.00235e-09
2.99281e-09
3.0719e-09
3.02633e-09
3.02257e-11
2.32806e-11
2.22649e-09
2.04935e-09
2.00012e-09
1.99101e-09
1.99021e-09
1.99013e-09
1.98972e-09
1.99055e-09
1.98999e-09
1.99043e-09
1.99068e-09
1.99036e-09
1.99171e-09
1.98895e-09
2.00111e-09
1.98846e-09
2.08987e-09
2.11912e-09
1.32921e-10
8.40872e-12
1.52621e-09
1.3315e-09
1.28223e-09
1.2733e-09
1.27248e-09
1.272e-09
1.27197e-09
1.27269e-09
1.2722e-09
1.2726e-09
1.27292e-09
1.27254e-09
1.27354e-09
1.27129e-09
1.28329e-09
1.27061e-09
1.37705e-09
1.45288e-09
1.42789e-09
4.56823e-12
1.07435e-09
8.97753e-10
8.50322e-10
8.41937e-10
8.41084e-10
8.3987e-10
8.40551e-10
8.41132e-10
8.40745e-10
8.41097e-10
8.41424e-10
8.41055e-10
8.41232e-10
8.40154e-10
8.50739e-10
8.39832e-10
9.2256e-10
1.03841e-09
3.82024e-09
3.71018e-12
7.88279e-10
6.41326e-10
5.94755e-10
5.86621e-10
5.85631e-10
5.83379e-10
5.84927e-10
5.85422e-10
5.85027e-10
5.85462e-10
5.85766e-10
5.85425e-10
5.84288e-10
5.84949e-10
5.94162e-10
5.8557e-10
6.60625e-10
7.63856e-10
4.49733e-09
4.5393e-12
6.01866e-10
4.7104e-10
4.40254e-10
4.30483e-10
4.29258e-10
4.26607e-10
4.28379e-10
4.28757e-10
4.28401e-10
4.28832e-10
4.29104e-10
4.28783e-10
4.2734e-10
4.28747e-10
4.37235e-10
4.32018e-10
4.89976e-10
5.90863e-10
3.95509e-09
7.00352e-12
4.75942e-10
3.71837e-10
3.29956e-10
3.26744e-10
3.26848e-10
3.27579e-10
3.26682e-10
3.26962e-10
3.2662e-10
3.27055e-10
3.2729e-10
3.26987e-10
3.28134e-10
3.26432e-10
3.30636e-10
3.23649e-10
3.84349e-10
4.83545e-10
3.07592e-09
9.96687e-12
3.87943e-10
2.98885e-10
2.66393e-10
2.61361e-10
2.60846e-10
2.62143e-10
2.60508e-10
2.60616e-10
2.60199e-10
2.60797e-10
2.61025e-10
2.60597e-10
2.6254e-10
2.60469e-10
2.65173e-10
2.60623e-10
3.06976e-10
4.03921e-10
2.24091e-09
1.21497e-11
3.24705e-10
2.46872e-10
2.19453e-10
2.13779e-10
2.13236e-10
2.13704e-10
2.1284e-10
2.12911e-10
2.12607e-10
2.13038e-10
2.13218e-10
2.12745e-10
2.13363e-10
2.12939e-10
2.16673e-10
2.14204e-10
2.53503e-10
3.4789e-10
1.57179e-09
1.36521e-11
2.78205e-10
2.13377e-10
1.85921e-10
1.80509e-10
1.79931e-10
1.80298e-10
1.79545e-10
1.79614e-10
1.79495e-10
1.7966e-10
1.79803e-10
1.79211e-10
1.82534e-10
1.79669e-10
1.82724e-10
1.81284e-10
2.14708e-10
3.0227e-10
1.0816e-09
1.30535e-11
2.43295e-10
1.85772e-10
1.61381e-10
1.5619e-10
1.55588e-10
1.57642e-10
1.55218e-10
1.55334e-10
1.55399e-10
1.55274e-10
1.55389e-10
1.54575e-10
1.57376e-10
1.55315e-10
1.57889e-10
1.57173e-10
1.8506e-10
2.65433e-10
7.41831e-10
1.05693e-11
2.16662e-10
1.65884e-10
1.42721e-10
1.37685e-10
1.37045e-10
1.38102e-10
1.36669e-10
1.36883e-10
1.37048e-10
1.3671e-10
1.36808e-10
1.35619e-10
1.37974e-10
1.36758e-10
1.38994e-10
1.38829e-10
1.65769e-10
2.35067e-10
5.13089e-10
7.83252e-12
1.93776e-10
1.48972e-10
1.27958e-10
1.23066e-10
1.2239e-10
1.22867e-10
1.21963e-10
1.22306e-10
1.22471e-10
1.22035e-10
1.22129e-10
1.22328e-10
1.22828e-10
1.22087e-10
1.24081e-10
1.24306e-10
1.49726e-10
2.11151e-10
3.63053e-10
5.8526e-12
1.73404e-10
1.33925e-10
1.15836e-10
1.11112e-10
1.10412e-10
1.10583e-10
1.0988e-10
1.10373e-10
1.10473e-10
1.1003e-10
1.10123e-10
1.1017e-10
1.10556e-10
1.1009e-10
1.11901e-10
1.12374e-10
1.35045e-10
1.90764e-10
2.65052e-10
4.95608e-12
1.58714e-10
1.2117e-10
1.05553e-10
1.01032e-10
1.00322e-10
1.00334e-10
9.96257e-11
1.00297e-10
1.00313e-10
9.99114e-11
1.00003e-10
9.99201e-11
1.00291e-10
9.99824e-11
1.01645e-10
1.02258e-10
1.22557e-10
1.7223e-10
2.01245e-10
5.2237e-12
1.45896e-10
1.10117e-10
9.65755e-11
9.23076e-11
9.16035e-11
9.15328e-11
9.06715e-11
9.15659e-11
9.15074e-11
9.11644e-11
9.12532e-11
9.10417e-11
9.14658e-11
9.12477e-11
9.27818e-11
9.34561e-11
1.11527e-10
1.5587e-10
1.60068e-10
6.6448e-12
1.34303e-10
1.00368e-10
8.85302e-11
8.45941e-11
8.39099e-11
8.38054e-11
8.36146e-11
8.38466e-11
8.3729e-11
8.3446e-11
8.35297e-11
8.31809e-11
8.37069e-11
8.35421e-11
8.49588e-11
8.56327e-11
1.03357e-10
1.41397e-10
1.30148e-10
9.1467e-12
1.2356e-10
9.1654e-11
8.1146e-11
7.76552e-11
7.70049e-11
7.68854e-11
7.65609e-11
7.69069e-11
7.67496e-11
7.65217e-11
7.65987e-11
7.61003e-11
7.6764e-11
7.66306e-11
7.79346e-11
7.85426e-11
9.52231e-11
1.28422e-10
1.12357e-10
1.2582e-11
1.13424e-10
8.37879e-11
7.51083e-11
7.13252e-11
7.07212e-11
7.05995e-11
7.01155e-11
7.0588e-11
7.04046e-11
7.02258e-11
7.0298e-11
7.03769e-11
7.04653e-11
7.03472e-11
7.15361e-11
7.26553e-11
8.73821e-11
1.16615e-10
9.96744e-11
1.67315e-11
1.02904e-10
7.66081e-11
6.92268e-11
6.54704e-11
6.49305e-11
6.48184e-11
6.47897e-11
6.47677e-11
6.45659e-11
6.44303e-11
6.45012e-11
6.46236e-11
6.46649e-11
6.45653e-11
6.56196e-11
6.69191e-11
8.01435e-11
1.05741e-10
9.14459e-11
2.13142e-11
9.26769e-11
7.00124e-11
6.40874e-11
6.05573e-11
6.01058e-11
6.00008e-11
5.99028e-11
5.99194e-11
5.97057e-11
5.96019e-11
5.96858e-11
5.98105e-11
5.98453e-11
5.97402e-11
6.075e-11
6.19115e-11
7.33832e-11
9.56407e-11
8.49863e-11
2.59756e-11
8.41781e-11
6.38813e-11
5.91365e-11
5.59745e-11
5.52821e-11
5.51818e-11
5.50175e-11
5.50752e-11
5.48393e-11
5.47629e-11
5.48708e-11
5.49574e-11
5.50106e-11
5.49207e-11
5.58588e-11
5.69798e-11
6.69773e-11
8.61789e-11
7.99891e-11
3.03024e-11
7.61936e-11
5.87062e-11
5.46205e-11
5.16699e-11
5.10481e-11
5.09533e-11
5.0747e-11
5.08287e-11
5.05853e-11
5.05328e-11
5.06556e-11
5.06978e-11
5.07809e-11
5.06955e-11
5.15792e-11
5.2567e-11
6.08206e-11
7.73036e-11
7.56492e-11
3.38925e-11
6.88227e-11
5.36943e-11
5.03408e-11
4.75822e-11
4.70319e-11
4.69416e-11
4.67025e-11
4.68049e-11
4.65547e-11
4.65245e-11
4.66515e-11
4.66571e-11
4.67725e-11
4.66913e-11
4.75279e-11
4.83657e-11
5.57403e-11
6.89723e-11
7.16857e-11
3.63226e-11
6.20305e-11
4.90364e-11
4.62251e-11
4.36609e-11
4.31729e-11
4.30853e-11
4.28224e-11
4.2943e-11
4.26864e-11
4.26727e-11
4.27957e-11
4.27771e-11
4.29204e-11
4.2844e-11
4.36353e-11
4.43307e-11
5.08475e-11
6.10766e-11
6.72308e-11
3.73575e-11
5.52457e-11
4.45327e-11
4.2209e-11
3.9837e-11
3.94041e-11
3.93168e-11
3.90374e-11
3.91749e-11
3.89114e-11
3.89094e-11
3.9025e-11
3.89914e-11
3.91577e-11
3.9085e-11
3.9835e-11
4.03958e-11
4.61014e-11
5.35873e-11
6.21094e-11
3.70988e-11
4.85167e-11
4.01167e-11
3.82263e-11
3.60403e-11
3.56542e-11
3.55654e-11
3.52746e-11
3.54289e-11
3.51567e-11
3.51651e-11
3.52732e-11
3.52302e-11
3.54154e-11
3.53444e-11
3.6058e-11
3.64891e-11
4.14542e-11
4.64782e-11
5.68337e-11
3.5676e-11
4.2823e-11
3.57235e-11
3.42118e-11
3.22058e-11
3.1859e-11
3.17666e-11
3.14698e-11
3.16409e-11
3.13588e-11
3.13759e-11
3.14775e-11
3.1429e-11
3.16295e-11
3.15579e-11
3.22396e-11
3.25456e-11
3.68584e-11
4.00827e-11
5.06396e-11
3.32439e-11
3.73379e-11
3.13013e-11
3.01139e-11
2.82862e-11
2.79723e-11
2.78741e-11
2.75784e-11
2.77652e-11
2.74735e-11
2.74977e-11
2.75926e-11
2.75428e-11
2.77546e-11
2.76799e-11
2.8332e-11
2.85203e-11
3.22744e-11
3.40011e-11
4.31365e-11
2.99804e-11
3.19847e-11
2.68382e-11
2.59122e-11
2.42715e-11
2.39856e-11
2.38773e-11
2.3595e-11
2.37937e-11
2.34962e-11
2.35254e-11
2.36095e-11
2.35659e-11
2.37829e-11
2.37035e-11
2.43235e-11
2.44042e-11
2.76893e-11
2.82509e-11
3.65378e-11
2.60803e-11
2.67288e-11
2.21623e-11
2.16428e-11
2.00839e-11
1.98432e-11
1.98199e-11
1.9448e-11
1.9667e-11
1.93591e-11
1.94014e-11
1.95733e-11
1.94302e-11
1.96598e-11
1.95816e-11
2.0158e-11
2.02414e-11
2.31402e-11
2.28604e-11
2.9667e-11
2.17667e-11
2.16139e-11
1.75503e-11
1.74056e-11
1.60449e-11
1.58389e-11
1.58127e-11
1.54722e-11
1.56875e-11
1.53925e-11
1.54353e-11
1.55943e-11
1.5461e-11
1.5679e-11
1.55999e-11
1.61216e-11
1.61419e-11
1.83831e-11
1.77035e-11
2.33719e-11
1.73042e-11
1.67605e-11
1.33831e-11
1.33582e-11
1.22121e-11
1.20436e-11
1.20187e-11
1.17209e-11
1.1921e-11
1.16526e-11
1.16931e-11
1.18346e-11
1.17146e-11
1.1911e-11
1.18357e-11
1.22881e-11
1.22689e-11
1.41467e-11
1.3262e-11
1.76619e-11
1.29926e-11
1.23377e-11
9.6402e-12
9.69212e-12
8.77574e-12
8.64528e-12
8.62436e-12
8.3794e-12
8.55294e-12
8.32428e-12
8.3598e-12
8.47828e-12
8.37599e-12
8.5418e-12
8.47534e-12
8.8452e-12
8.80736e-12
1.03093e-11
9.44146e-12
1.2718e-11
9.13012e-12
8.53261e-12
6.50079e-12
6.58707e-12
5.90232e-12
5.80779e-12
5.79216e-12
5.60516e-12
5.74382e-12
5.56384e-12
5.59239e-12
5.6844e-12
5.60332e-12
5.73253e-12
5.67889e-12
5.9597e-12
5.91942e-12
7.04696e-12
6.33078e-12
8.65782e-12
5.94967e-12
5.48828e-12
4.07228e-12
4.15958e-12
3.68859e-12
3.62544e-12
3.61487e-12
3.48448e-12
3.58507e-12
3.45607e-12
3.47676e-12
3.54208e-12
3.48334e-12
3.57508e-12
3.53594e-12
3.73094e-12
3.69832e-12
4.47854e-12
3.96712e-12
5.52426e-12
3.57025e-12
3.25947e-12
2.36241e-12
2.43112e-12
2.13751e-12
2.09907e-12
2.09256e-12
2.01079e-12
2.07611e-12
1.99313e-12
2.00649e-12
2.04837e-12
2.01e-12
2.06871e-12
2.04284e-12
2.16593e-12
2.14279e-12
2.63558e-12
2.31327e-12
3.28618e-12
1.97902e-12
1.79402e-12
1.28508e-12
1.32895e-12
1.16615e-12
1.14485e-12
1.14129e-12
1.09597e-12
1.13325e-12
1.08625e-12
1.09379e-12
1.11754e-12
1.09544e-12
1.12869e-12
1.11346e-12
1.18313e-12
1.16855e-12
1.44822e-12
1.26976e-12
1.82777e-12
1.04697e-12
9.48781e-13
6.95931e-13
7.17799e-13
6.39883e-13
6.29018e-13
6.27322e-13
6.05884e-13
6.23806e-13
6.01316e-13
6.04892e-13
6.16314e-13
6.05575e-13
6.21551e-13
6.14076e-13
6.48318e-13
6.41234e-13
7.78005e-13
6.9629e-13
9.78246e-13
5.9158e-13
5.44435e-13
4.38186e-13
4.43507e-13
4.12211e-13
4.09233e-13
4.08561e-13
4.00508e-13
4.06987e-13
3.98806e-13
4.0007e-13
4.04277e-13
4.00339e-13
4.06305e-13
4.03634e-13
4.15297e-13
4.13613e-13
4.69856e-13
4.40721e-13
5.60817e-13
4.33294e-13
4.1246e-13
3.75814e-13
3.74078e-13
3.64428e-13
3.6289e-13
3.62688e-13
3.60481e-13
3.61635e-13
3.60013e-13
3.60226e-13
3.61113e-13
3.60385e-13
3.61784e-13
3.61509e-13
3.64585e-13
3.65747e-13
3.82351e-13
3.77447e-13
4.14437e-13
4.28303e-13
4.19808e-13
4.05866e-13
4.026e-13
3.98566e-13
3.97267e-13
3.97232e-13
3.96203e-13
3.96136e-13
3.95958e-13
3.95971e-13
3.96086e-13
3.96151e-13
3.96472e-13
3.96906e-13
3.97579e-13
3.99834e-13
4.0451e-13
4.05569e-13
4.11326e-13
4.81123e-13
4.77859e-13
4.64551e-13
4.62564e-13
4.57222e-13
4.55734e-13
4.55744e-13
4.53949e-13
4.54543e-13
4.53511e-13
4.53712e-13
4.54185e-13
4.53939e-13
4.54698e-13
4.55028e-13
4.56015e-13
4.58412e-13
4.63853e-13
4.63497e-13
4.64803e-13
5.6139e-13
5.60302e-13
5.4554e-13
5.44317e-13
5.38188e-13
5.36486e-13
5.36599e-13
5.3436e-13
5.35288e-13
5.33823e-13
5.34137e-13
5.34742e-13
5.34408e-13
5.35325e-13
5.357e-13
5.36656e-13
5.39393e-13
5.45457e-13
5.44576e-13
5.46062e-13
7.39919e-13
7.40682e-13
7.29293e-13
7.27023e-13
7.22179e-13
7.19951e-13
7.20377e-13
7.18109e-13
7.18683e-13
7.17563e-13
7.17904e-13
7.18163e-13
7.18287e-13
7.18744e-13
7.19718e-13
7.19463e-13
7.23698e-13
7.26139e-13
7.28243e-13
7.23009e-13
1.18758e-12
1.18364e-12
1.14627e-12
1.14734e-12
1.13095e-12
1.12689e-12
1.12751e-12
1.12012e-12
1.12567e-12
1.11826e-12
1.12005e-12
1.12288e-12
1.12074e-12
1.12418e-12
1.12428e-12
1.12779e-12
1.13341e-12
1.15126e-12
1.15017e-12
1.16542e-12
2.09194e-12
2.06283e-12
1.95061e-12
1.95929e-12
1.91432e-12
1.90593e-12
1.907e-12
1.8871e-12
1.90583e-12
1.88186e-12
1.88773e-12
1.89686e-12
1.88931e-12
1.89952e-12
1.89775e-12
1.90987e-12
1.91971e-12
1.97647e-12
1.97048e-12
2.05176e-12
8.30034e-12
8.07493e-12
7.57478e-12
7.59372e-12
7.40333e-12
7.36113e-12
7.36865e-12
7.27286e-12
7.36974e-12
7.246e-12
7.28003e-12
7.3202e-12
7.28949e-12
7.32892e-12
7.33016e-12
7.36652e-12
7.44302e-12
7.63829e-12
7.71876e-12
8.01131e-12
)
;

boundaryField
{
    fuel
    {
        type            fixedValue;
        value           uniform 0;
    }
    wall
    {
        type            zeroGradient;
    }
    outlet
    {
        type            zeroGradient;
    }
    frontAndBack
    {
        type            empty;
    }
}


// ************************************************************************* //
