/*--------------------------------*- C++ -*----------------------------------*\
| =========                 |                                                 |
| \\      /  F ield         | OpenFOAM: The Open Source CFD Toolbox           |
|  \\    /   O peration     | Version:  dev                                   |
|   \\  /    A nd           | Web:      www.OpenFOAM.org                      |
|    \\/     M anipulation  |                                                 |
\*---------------------------------------------------------------------------*/
FoamFile
{
    version     2.0;
    format      ascii;
    class       volScalarField;
    location    "0.2";
    object      OH;
}
// * * * * * * * * * * * * * * * * * * * * * * * * * * * * * * * * * * * * * //

dimensions      [0 0 0 0 0 0 0];

internalField   nonuniform List<scalar> 
100
(
0.000513023
0.000697644
0.000732898
0.000713081
0.000663232
0.000596212
0.000522318
0.000449609
0.000382624
0.000323594
0.000273025
0.000230138
0.000193917
0.000163621
0.000138213
0.00011689
9.89667e-05
8.38665e-05
7.11133e-05
6.03155e-05
5.11524e-05
4.33613e-05
3.67325e-05
3.10887e-05
2.62839e-05
2.21932e-05
1.87113e-05
1.57548e-05
1.32475e-05
1.1124e-05
9.328e-06
7.81114e-06
6.5317e-06
5.45395e-06
4.54725e-06
3.78431e-06
3.14541e-06
2.60965e-06
2.16054e-06
1.78566e-06
1.47054e-06
1.21023e-06
9.93747e-07
8.12993e-07
6.64138e-07
5.41096e-07
4.39197e-07
3.55759e-07
2.86663e-07
2.3061e-07
1.84751e-07
1.47265e-07
1.16859e-07
9.20802e-08
7.20224e-08
5.59735e-08
4.34225e-08
3.34407e-08
2.5469e-08
1.936e-08
1.46047e-08
1.09298e-08
8.10721e-09
5.9492e-09
4.32241e-09
3.1072e-09
2.2026e-09
1.54666e-09
1.07366e-09
7.31995e-10
4.95596e-10
3.31557e-10
2.19348e-10
1.43683e-10
9.3389e-11
6.03944e-11
3.89177e-11
2.5218e-11
1.65488e-11
1.10044e-11
7.70754e-12
5.6406e-12
4.33298e-12
3.47083e-12
2.90266e-12
2.49772e-12
2.19111e-12
1.94447e-12
1.73546e-12
1.55135e-12
1.38293e-12
1.22822e-12
1.08526e-12
9.49757e-13
8.30911e-13
7.07036e-13
5.80824e-13
4.3175e-13
2.7196e-13
1.29361e-13
)
;

boundaryField
{
    wall
    {
        type            zeroGradient;
    }
    fuel
    {
        type            fixedValue;
        value           uniform 0;
    }
    outlet
    {
        type            inletOutlet;
        inletValue      uniform 0;
        value           uniform 1.29361e-13;
    }
}


// ************************************************************************* //
