/*--------------------------------*- C++ -*----------------------------------*\
| =========                 |                                                 |
| \\      /  F ield         | OpenFOAM: The Open Source CFD Toolbox           |
|  \\    /   O peration     | Version:  dev                                   |
|   \\  /    A nd           | Web:      www.OpenFOAM.org                      |
|    \\/     M anipulation  |                                                 |
\*---------------------------------------------------------------------------*/
FoamFile
{
    version     2.0;
    format      ascii;
    class       volScalarField;
    location    "0.2";
    object      OH;
}
// * * * * * * * * * * * * * * * * * * * * * * * * * * * * * * * * * * * * * //

dimensions      [0 0 0 0 0 0 0];

internalField   nonuniform List<scalar> 
1000
(
1.69669e-07
0.000206773
0.00023536
0.000239132
0.000239558
0.000239599
0.000239621
0.000239605
0.00023962
0.000239611
0.000239618
0.000239619
0.000239622
0.000239618
0.000239615
0.000239602
0.000239175
0.000237233
0.000221099
2.66643e-07
1.20461e-07
0.000212483
0.000240071
0.000243964
0.000244393
0.000244437
0.000244464
0.000244441
0.000244459
0.000244444
0.000244459
0.000244457
0.000244459
0.000244476
0.000244425
0.000244533
0.000243921
0.000242504
0.000227394
2.95867e-07
6.33941e-08
0.000138851
0.000159033
0.000162392
0.000162739
0.000162777
0.000162803
0.000162777
0.000162799
0.000162781
0.000162798
0.000162799
0.000162791
0.000162845
0.000162729
0.000163005
0.000162208
0.000161899
0.000151354
2.55065e-06
3.59889e-08
8.90457e-05
0.000105043
0.000108182
0.000108494
0.000108529
0.000108549
0.000108525
0.000108548
0.000108529
0.000108544
0.000108551
0.000108537
0.000108599
0.000108475
0.000108806
0.000107933
0.000108152
0.000100905
0.000100851
2.51483e-08
6.13968e-05
7.56003e-05
7.87254e-05
7.90369e-05
7.90703e-05
7.90795e-05
7.90631e-05
7.90849e-05
7.90684e-05
7.90811e-05
7.90922e-05
7.90766e-05
7.9125e-05
7.90261e-05
7.93359e-05
7.84758e-05
7.88773e-05
7.27137e-05
0.0002445
2.24086e-08
4.55968e-05
5.95548e-05
6.27923e-05
6.31256e-05
6.31586e-05
6.31479e-05
6.31482e-05
6.31679e-05
6.31535e-05
6.31656e-05
6.31778e-05
6.31624e-05
6.31867e-05
6.31266e-05
6.33843e-05
6.25713e-05
6.22027e-05
5.62006e-05
0.000269584
2.72677e-08
3.58688e-05
5.04682e-05
5.38576e-05
5.42165e-05
5.42476e-05
5.42059e-05
5.4229e-05
5.42477e-05
5.42316e-05
5.42485e-05
5.42608e-05
5.4245e-05
5.42289e-05
5.42249e-05
5.44327e-05
5.36694e-05
5.3052e-05
4.52948e-05
0.000199301
5.09368e-08
2.94558e-05
4.45572e-05
4.86457e-05
4.89761e-05
4.90027e-05
4.8944e-05
4.89758e-05
4.8992e-05
4.89759e-05
4.89948e-05
4.90067e-05
4.89895e-05
4.89611e-05
4.89854e-05
4.91647e-05
4.8476e-05
4.7254e-05
3.82038e-05
0.000133578
1.2207e-07
2.50246e-05
4.11074e-05
4.50128e-05
4.55839e-05
4.56561e-05
4.56941e-05
4.56484e-05
4.56626e-05
4.56456e-05
4.56669e-05
4.56782e-05
4.56588e-05
4.57049e-05
4.56405e-05
4.56803e-05
4.48847e-05
4.36566e-05
3.36374e-05
8.97047e-05
2.26951e-07
2.18758e-05
3.85308e-05
4.28999e-05
4.34326e-05
4.34882e-05
4.35399e-05
4.34719e-05
4.3482e-05
4.34615e-05
4.34894e-05
4.35011e-05
4.34739e-05
4.35451e-05
4.34717e-05
4.35277e-05
4.27641e-05
4.09484e-05
3.01515e-05
6.20293e-05
3.13493e-07
1.96166e-05
3.66254e-05
4.12708e-05
4.17978e-05
4.1856e-05
4.18782e-05
4.18337e-05
4.1845e-05
4.18279e-05
4.18501e-05
4.18609e-05
4.1827e-05
4.18568e-05
4.18388e-05
4.18657e-05
4.11164e-05
3.89561e-05
2.76629e-05
4.43867e-05
4.24163e-07
1.80091e-05
3.5333e-05
4e-05
4.05432e-05
4.0603e-05
4.06202e-05
4.0576e-05
4.05912e-05
4.05799e-05
4.05915e-05
4.06018e-05
4.05572e-05
4.06986e-05
4.05831e-05
4.05918e-05
3.98229e-05
3.73683e-05
2.56342e-05
3.29013e-05
5.82078e-07
1.68973e-05
3.42047e-05
3.89441e-05
3.94921e-05
3.95531e-05
3.9646e-05
3.95199e-05
3.95428e-05
3.95381e-05
3.95361e-05
3.95462e-05
3.9485e-05
3.96216e-05
3.95282e-05
3.95261e-05
3.87325e-05
3.60064e-05
2.40163e-05
2.52672e-05
8.01352e-07
1.61773e-05
3.33407e-05
3.8008e-05
3.85478e-05
3.86081e-05
3.86614e-05
3.85658e-05
3.86009e-05
3.85991e-05
3.85855e-05
3.8596e-05
3.8509e-05
3.86442e-05
3.85779e-05
3.85707e-05
3.77536e-05
3.50079e-05
2.27127e-05
2.00503e-05
1.10868e-06
1.57286e-05
3.256e-05
3.71328e-05
3.76533e-05
3.77116e-05
3.77408e-05
3.76556e-05
3.77069e-05
3.77029e-05
3.76822e-05
3.7694e-05
3.76892e-05
3.7728e-05
3.76755e-05
3.76676e-05
3.68295e-05
3.40711e-05
2.17187e-05
1.64265e-05
1.5167e-06
1.55279e-05
3.18167e-05
3.62799e-05
3.67717e-05
3.68273e-05
3.68426e-05
3.67515e-05
3.68233e-05
3.68129e-05
3.67895e-05
3.68026e-05
3.67842e-05
3.68298e-05
3.67847e-05
3.67793e-05
3.59234e-05
3.31025e-05
2.09054e-05
1.38468e-05
2.01579e-06
1.55498e-05
3.1131e-05
3.54211e-05
3.58769e-05
3.59291e-05
3.59357e-05
3.58256e-05
3.59235e-05
3.59045e-05
3.58813e-05
3.58958e-05
3.58624e-05
3.59209e-05
3.58795e-05
3.58795e-05
3.501e-05
3.21753e-05
2.0202e-05
1.19892e-05
2.57792e-06
1.57204e-05
3.0472e-05
3.45319e-05
3.49477e-05
3.49963e-05
3.49974e-05
3.48537e-05
3.49868e-05
3.49583e-05
3.4937e-05
3.49526e-05
3.49012e-05
3.49791e-05
3.49392e-05
3.49474e-05
3.4069e-05
3.12568e-05
1.96146e-05
1.06615e-05
3.18473e-06
1.59996e-05
2.98122e-05
3.35883e-05
3.39658e-05
3.40107e-05
3.40088e-05
3.39398e-05
3.39958e-05
3.3957e-05
3.39385e-05
3.39549e-05
3.38811e-05
3.39853e-05
3.39459e-05
3.39646e-05
3.30821e-05
3.04982e-05
1.91241e-05
9.59634e-06
3.8316e-06
1.63488e-05
2.91265e-05
3.25647e-05
3.29133e-05
3.29551e-05
3.29507e-05
3.28504e-05
3.29331e-05
3.28841e-05
3.28689e-05
3.2886e-05
3.27847e-05
3.29225e-05
3.28824e-05
3.29135e-05
3.20292e-05
2.96525e-05
1.87019e-05
8.91247e-06
4.52655e-06
1.67292e-05
2.83917e-05
3.1583e-05
3.17723e-05
3.18121e-05
3.18058e-05
3.16656e-05
3.1782e-05
3.17224e-05
3.17109e-05
3.17296e-05
3.17358e-05
3.17734e-05
3.17317e-05
3.17758e-05
3.10057e-05
2.87328e-05
1.83215e-05
8.403e-06
5.2816e-06
1.71235e-05
2.75819e-05
3.04587e-05
3.05212e-05
3.05621e-05
3.05553e-05
3.05105e-05
3.05238e-05
3.04527e-05
3.04453e-05
3.04673e-05
3.04833e-05
3.05161e-05
3.04749e-05
3.05278e-05
2.98374e-05
2.77655e-05
1.79573e-05
8.07758e-06
6.10002e-06
1.74726e-05
2.66718e-05
2.93087e-05
2.92906e-05
2.93405e-05
2.93323e-05
2.92656e-05
2.9294e-05
2.92121e-05
2.92083e-05
2.92376e-05
2.9253e-05
2.92898e-05
2.92442e-05
2.93242e-05
2.86506e-05
2.67271e-05
1.75837e-05
7.84838e-06
6.96878e-06
1.76946e-05
2.56324e-05
2.80132e-05
2.79522e-05
2.79057e-05
2.78945e-05
2.78034e-05
2.78501e-05
2.77516e-05
2.77513e-05
2.77925e-05
2.77966e-05
2.78438e-05
2.77998e-05
2.79037e-05
2.72891e-05
2.55865e-05
1.71748e-05
7.71277e-06
7.85605e-06
1.77928e-05
2.457e-05
2.66453e-05
2.65018e-05
2.64542e-05
2.64405e-05
2.63309e-05
2.6391e-05
2.62805e-05
2.62839e-05
2.6334e-05
2.63254e-05
2.63858e-05
2.63401e-05
2.64707e-05
2.58889e-05
2.43129e-05
1.67094e-05
7.64335e-06
8.71174e-06
1.77307e-05
2.3336e-05
2.51599e-05
2.49346e-05
2.48851e-05
2.48688e-05
2.47423e-05
2.48152e-05
2.46927e-05
2.47e-05
2.47557e-05
2.4736e-05
2.48111e-05
2.47637e-05
2.49227e-05
2.43721e-05
2.31119e-05
1.61685e-05
7.63357e-06
9.45501e-06
1.74701e-05
2.19915e-05
2.35526e-05
2.32506e-05
2.31987e-05
2.31795e-05
2.30388e-05
2.31235e-05
2.29897e-05
2.30003e-05
2.30581e-05
2.30309e-05
2.31194e-05
2.3071e-05
2.32563e-05
2.27446e-05
2.17931e-05
1.55223e-05
7.64505e-06
1.00104e-05
1.69472e-05
2.05036e-05
2.18244e-05
2.14547e-05
2.14002e-05
2.13774e-05
2.12262e-05
2.13212e-05
2.11777e-05
2.11907e-05
2.12486e-05
2.12165e-05
2.13163e-05
2.12674e-05
2.14759e-05
2.10092e-05
2.03531e-05
1.47508e-05
7.65345e-06
1.03372e-05
1.61306e-05
1.88822e-05
1.99839e-05
1.95585e-05
1.95012e-05
1.94743e-05
1.93166e-05
1.94203e-05
1.92687e-05
1.92839e-05
1.93404e-05
1.93057e-05
1.94144e-05
1.93651e-05
1.95925e-05
1.91735e-05
1.8794e-05
1.38402e-05
7.6358e-06
1.03978e-05
1.51772e-05
1.71444e-05
1.80468e-05
1.75817e-05
1.75213e-05
1.74896e-05
1.73304e-05
1.74407e-05
1.72834e-05
1.73004e-05
1.73541e-05
1.73191e-05
1.74336e-05
1.7384e-05
1.76248e-05
1.72535e-05
1.71258e-05
1.28475e-05
7.5541e-06
1.01724e-05
1.40142e-05
1.53167e-05
1.60376e-05
1.55523e-05
1.54889e-05
1.5451e-05
1.52967e-05
1.54108e-05
1.52512e-05
1.52693e-05
1.53182e-05
1.52861e-05
1.54029e-05
1.5353e-05
1.56004e-05
1.52746e-05
1.53681e-05
1.17311e-05
7.3514e-06
9.66539e-06
1.267e-05
1.34381e-05
1.39901e-05
1.35078e-05
1.34414e-05
1.33952e-05
1.32536e-05
1.33682e-05
1.32101e-05
1.32285e-05
1.32694e-05
1.32448e-05
1.33597e-05
1.33094e-05
1.3556e-05
1.32713e-05
1.35513e-05
1.05102e-05
7.06258e-06
8.90544e-06
1.11854e-05
1.14514e-05
1.19481e-05
1.14243e-05
1.13652e-05
1.1366e-05
1.11762e-05
1.12961e-05
1.11369e-05
1.11607e-05
1.1251e-05
1.11721e-05
1.12901e-05
1.12431e-05
1.14793e-05
1.12861e-05
1.17191e-05
9.21414e-06
6.61973e-06
7.94262e-06
9.61791e-06
9.49246e-06
9.96348e-06
9.47409e-06
9.41747e-06
9.41425e-06
9.24291e-06
9.35672e-06
9.20712e-06
9.23006e-06
9.3123e-06
9.2411e-06
9.35062e-06
9.30538e-06
9.52497e-06
9.3687e-06
9.76537e-06
7.82331e-06
6.05742e-06
6.84324e-06
8.03438e-06
7.72083e-06
8.08832e-06
7.64671e-06
7.5948e-06
7.58949e-06
7.43911e-06
7.54369e-06
7.40751e-06
7.4288e-06
7.50192e-06
7.43866e-06
7.53734e-06
7.49531e-06
7.69291e-06
7.56931e-06
8.01046e-06
6.4983e-06
5.37819e-06
5.68278e-06
6.49977e-06
6.08784e-06
6.37166e-06
5.98822e-06
5.94273e-06
5.93689e-06
5.80897e-06
5.90169e-06
5.78201e-06
5.80101e-06
5.86407e-06
5.80902e-06
5.89497e-06
5.85755e-06
6.02885e-06
5.93362e-06
6.37301e-06
5.23135e-06
4.61309e-06
4.53724e-06
5.07562e-06
4.63848e-06
4.85452e-06
4.53536e-06
4.49724e-06
4.49194e-06
4.38686e-06
4.46591e-06
4.36473e-06
4.38101e-06
4.43348e-06
4.38697e-06
4.45893e-06
4.42712e-06
4.5695e-06
4.49851e-06
4.90046e-06
4.06784e-06
3.80594e-06
3.47256e-06
3.81131e-06
3.40337e-06
3.56439e-06
3.31068e-06
3.28025e-06
3.27591e-06
3.1931e-06
3.25753e-06
3.17567e-06
3.18901e-06
3.23092e-06
3.19314e-06
3.25075e-06
3.22502e-06
3.33789e-06
3.2873e-06
3.62806e-06
3.04461e-06
3.00677e-06
2.53827e-06
2.74045e-06
2.39546e-06
2.51216e-06
2.32029e-06
2.29714e-06
2.29379e-06
2.23156e-06
2.28152e-06
2.21843e-06
2.22881e-06
2.26089e-06
2.23149e-06
2.27557e-06
2.25553e-06
2.34132e-06
2.30605e-06
2.57722e-06
2.18342e-06
2.26632e-06
1.7651e-06
1.87871e-06
1.60976e-06
1.69159e-06
1.55417e-06
1.53709e-06
1.53469e-06
1.49018e-06
1.52702e-06
1.48076e-06
1.48838e-06
1.51185e-06
1.49001e-06
1.5222e-06
1.50712e-06
1.56994e-06
1.54525e-06
1.74925e-06
1.49246e-06
1.62306e-06
1.16082e-06
1.22018e-06
1.02593e-06
1.0812e-06
9.88607e-07
9.76077e-07
9.7445e-07
9.44325e-07
9.7005e-07
9.37923e-07
9.43222e-07
9.59501e-07
9.4416e-07
9.66365e-07
9.55643e-07
9.99744e-07
9.83067e-07
1.12572e-06
9.66907e-07
1.09595e-06
7.15383e-07
7.43582e-07
6.1369e-07
6.46212e-07
5.85664e-07
5.82045e-07
5.81016e-07
5.61882e-07
5.78763e-07
5.57792e-07
5.61266e-07
5.71872e-07
5.61756e-07
5.7612e-07
5.68958e-07
5.93378e-07
5.82906e-07
6.79865e-07
5.84688e-07
6.91087e-07
4.06968e-07
4.18595e-07
3.38921e-07
3.58031e-07
3.22498e-07
3.20458e-07
3.19834e-07
3.08587e-07
3.1886e-07
3.06165e-07
3.08281e-07
3.1469e-07
3.08507e-07
3.17108e-07
3.12679e-07
3.27215e-07
3.2096e-07
3.79257e-07
3.27363e-07
4.00996e-07
2.08351e-07
2.12093e-07
1.68128e-07
1.78334e-07
1.59447e-07
1.58438e-07
1.58081e-07
1.52111e-07
1.5777e-07
1.50814e-07
1.5198e-07
1.55489e-07
1.52067e-07
1.56724e-07
1.54245e-07
1.62026e-07
1.58662e-07
1.90277e-07
1.64478e-07
2.08796e-07
9.19105e-08
9.25654e-08
7.15866e-08
7.63352e-08
6.76165e-08
6.72024e-08
6.70185e-08
6.42785e-08
6.69795e-08
6.36767e-08
6.42341e-08
6.58992e-08
6.42566e-08
6.6442e-08
6.5237e-08
6.88688e-08
6.726e-08
8.21223e-08
7.08647e-08
9.34673e-08
3.25057e-08
3.23832e-08
2.43573e-08
2.6143e-08
2.29045e-08
2.2777e-08
2.26983e-08
2.16919e-08
2.27249e-08
2.14684e-08
2.16815e-08
2.23155e-08
2.16828e-08
2.25059e-08
2.20347e-08
2.34028e-08
2.27689e-08
2.83866e-08
2.43664e-08
3.34854e-08
8.34853e-09
8.23512e-09
6.05234e-09
6.53418e-09
5.67253e-09
5.64691e-09
5.62245e-09
5.3582e-09
5.64042e-09
5.29879e-09
5.35708e-09
5.52962e-09
5.35546e-09
5.57731e-09
5.44549e-09
5.81526e-09
5.63428e-09
7.15155e-09
6.10612e-09
8.68607e-09
1.37917e-09
1.34524e-09
9.75882e-10
1.05591e-09
9.12427e-10
9.09476e-10
9.0471e-10
8.61157e-10
9.09523e-10
8.51153e-10
8.61264e-10
8.90643e-10
8.60728e-10
8.98103e-10
8.75228e-10
9.37668e-10
9.06066e-10
1.16108e-09
9.92613e-10
1.43975e-09
1.26964e-10
1.22818e-10
9.21614e-11
9.86182e-11
8.66994e-11
8.6501e-11
8.60602e-11
8.23904e-11
8.65866e-11
8.15152e-11
8.24281e-11
8.49424e-11
8.23797e-11
8.55354e-11
8.3588e-11
8.88248e-11
8.62175e-11
1.07265e-10
9.4095e-11
1.31114e-10
8.34947e-12
8.04139e-12
6.49671e-12
6.80501e-12
6.18751e-12
6.17139e-12
6.14883e-12
5.94374e-12
6.18224e-12
5.89139e-12
5.94949e-12
6.08475e-12
5.94926e-12
6.11411e-12
6.01833e-12
6.27975e-12
6.17718e-12
7.19784e-12
6.64299e-12
8.34901e-12
)
;

boundaryField
{
    fuel
    {
        type            fixedValue;
        value           uniform 0;
    }
    wall
    {
        type            zeroGradient;
    }
    outlet
    {
        type            zeroGradient;
    }
    frontAndBack
    {
        type            empty;
    }
}


// ************************************************************************* //
