/*--------------------------------*- C++ -*----------------------------------*\
| =========                 |                                                 |
| \\      /  F ield         | OpenFOAM: The Open Source CFD Toolbox           |
|  \\    /   O peration     | Version:  dev                                   |
|   \\  /    A nd           | Web:      www.OpenFOAM.org                      |
|    \\/     M anipulation  |                                                 |
\*---------------------------------------------------------------------------*/
FoamFile
{
    version     2.0;
    format      ascii;
    class       volScalarField;
    location    "0.2";
    object      P2;
}
// * * * * * * * * * * * * * * * * * * * * * * * * * * * * * * * * * * * * * //

dimensions      [0 0 0 0 0 0 0];

internalField   nonuniform List<scalar> 
1000
(
3.40998e-09
1.13551e-07
9.01461e-08
8.68606e-08
8.64361e-08
8.63956e-08
8.63836e-08
8.63851e-08
8.63953e-08
8.63917e-08
8.63924e-08
8.63933e-08
8.6396e-08
8.63951e-08
8.63923e-08
8.64945e-08
8.67223e-08
8.91109e-08
9.95408e-08
4.53197e-09
7.5515e-09
1.56178e-07
9.75269e-08
9.08183e-08
8.99812e-08
8.99023e-08
8.9879e-08
8.98825e-08
8.98968e-08
8.98906e-08
8.9894e-08
8.98948e-08
8.98961e-08
8.9904e-08
8.98848e-08
9.01134e-08
9.05283e-08
9.54865e-08
1.18633e-07
1.04764e-08
1.00927e-08
1.45458e-07
7.01745e-08
6.2755e-08
6.18421e-08
6.17567e-08
6.1734e-08
6.17353e-08
6.1751e-08
6.1742e-08
6.17485e-08
6.17508e-08
6.17474e-08
6.17733e-08
6.17242e-08
6.20543e-08
6.23772e-08
6.8294e-08
9.35186e-08
1.44164e-08
1.16366e-08
1.21743e-07
4.42769e-08
3.76987e-08
3.69006e-08
3.6826e-08
3.68054e-08
3.68072e-08
3.68217e-08
3.68123e-08
3.68196e-08
3.68241e-08
3.68178e-08
3.68493e-08
3.67896e-08
3.71459e-08
3.73131e-08
4.29635e-08
6.53479e-08
2.14259e-08
1.26212e-08
1.00058e-07
2.69894e-08
2.16634e-08
2.10303e-08
2.09704e-08
2.09475e-08
2.09549e-08
2.0967e-08
2.09591e-08
2.09657e-08
2.09713e-08
2.09645e-08
2.09863e-08
2.09399e-08
2.12589e-08
2.13252e-08
2.62207e-08
4.54963e-08
6.10712e-08
1.32749e-08
8.32937e-08
1.66236e-08
1.24456e-08
1.19635e-08
1.19164e-08
1.18852e-08
1.19038e-08
1.19129e-08
1.19072e-08
1.19124e-08
1.19177e-08
1.1912e-08
1.19164e-08
1.18948e-08
1.21507e-08
1.21748e-08
1.57492e-08
3.31925e-08
1.06906e-07
1.37388e-08
7.07103e-08
1.06348e-08
7.34222e-09
6.97468e-09
6.93606e-09
6.89233e-09
6.92309e-09
6.93023e-09
6.92485e-09
6.93077e-09
6.93528e-09
6.93085e-09
6.91148e-09
6.92203e-09
7.11917e-09
7.13573e-09
9.92265e-09
2.51296e-08
1.50232e-07
1.4076e-08
6.09905e-08
6.86743e-09
4.55076e-09
4.23769e-09
4.20316e-09
4.1575e-09
4.18953e-09
4.19426e-09
4.19021e-09
4.19511e-09
4.19866e-09
4.19526e-09
4.17114e-09
4.19429e-09
4.35167e-09
4.39246e-09
6.3738e-09
2.0196e-08
1.98834e-07
1.42302e-08
5.30704e-08
4.83223e-09
2.80618e-09
2.65222e-09
2.64226e-09
2.64735e-09
2.64023e-09
2.64318e-09
2.63989e-09
2.6441e-09
2.64677e-09
2.64425e-09
2.65642e-09
2.63643e-09
2.71102e-09
2.70339e-09
4.36238e-09
1.72471e-08
2.48764e-07
1.40204e-08
4.6242e-08
3.4651e-09
1.93074e-09
1.78581e-09
1.77147e-09
1.78564e-09
1.76823e-09
1.76878e-09
1.76499e-09
1.77071e-09
1.77299e-09
1.76953e-09
1.79152e-09
1.76726e-09
1.83507e-09
1.85157e-09
3.04982e-09
1.50718e-08
2.90558e-07
1.32794e-08
4.00998e-08
2.57617e-09
1.37108e-09
1.24637e-09
1.23442e-09
1.23912e-09
1.2311e-09
1.2311e-09
1.22878e-09
1.23238e-09
1.23389e-09
1.23063e-09
1.23648e-09
1.23187e-09
1.27934e-09
1.31057e-09
2.24498e-09
1.34927e-08
3.1604e-07
1.21094e-08
3.44513e-08
2.04921e-09
1.02376e-09
9.21344e-10
9.10938e-10
9.13987e-10
9.0822e-10
9.08021e-10
9.07388e-10
9.08576e-10
9.09597e-10
9.05836e-10
9.34897e-10
9.09211e-10
9.43999e-10
9.78322e-10
1.72481e-09
1.20856e-08
3.21688e-07
1.08735e-08
2.92426e-08
1.64591e-09
8.00641e-10
7.14448e-10
7.05237e-10
7.2166e-10
7.0312e-10
7.03102e-10
7.0395e-10
7.02885e-10
7.03569e-10
6.98552e-10
7.20343e-10
7.03736e-10
7.30332e-10
7.65425e-10
1.36737e-09
1.07991e-08
3.09173e-07
9.84665e-09
2.45082e-08
1.37319e-09
6.50247e-10
5.75867e-10
5.67424e-10
5.75254e-10
5.65707e-10
5.66169e-10
5.67749e-10
5.65261e-10
5.65738e-10
5.58407e-10
5.74771e-10
5.66063e-10
5.87275e-10
6.22282e-10
1.1554e-09
9.59086e-09
2.83486e-07
9.0657e-09
1.9875e-08
1.15377e-09
5.43838e-10
4.78658e-10
4.70796e-10
4.74002e-10
4.69145e-10
4.70206e-10
4.71767e-10
4.6879e-10
4.69187e-10
4.71116e-10
4.74118e-10
4.69513e-10
4.87045e-10
5.2125e-10
9.93387e-10
8.52579e-09
2.50966e-07
8.4582e-09
1.54776e-08
9.69161e-10
4.65192e-10
4.07631e-10
4.00281e-10
4.01267e-10
3.98367e-10
4.00079e-10
4.01224e-10
3.98376e-10
3.98724e-10
3.9974e-10
4.01453e-10
3.99039e-10
4.13913e-10
4.46743e-10
8.56166e-10
7.53146e-09
2.1662e-07
7.93194e-09
1.226e-08
8.22851e-10
4.0493e-10
3.53926e-10
3.47061e-10
3.47006e-10
3.44577e-10
3.47017e-10
3.47684e-10
3.45228e-10
3.45541e-10
3.4587e-10
3.47105e-10
3.45849e-10
3.58686e-10
3.898e-10
7.47519e-10
6.56578e-09
1.8397e-07
7.40565e-09
9.5843e-09
7.04683e-10
3.57378e-10
3.12218e-10
3.05825e-10
3.05298e-10
3.02427e-10
3.05785e-10
3.06076e-10
3.0406e-10
3.04338e-10
3.04075e-10
3.0528e-10
3.04645e-10
3.1584e-10
3.45061e-10
6.57738e-10
5.67856e-09
1.55143e-07
6.82936e-09
7.40463e-09
6.0828e-10
3.18929e-10
2.79215e-10
2.73287e-10
2.72593e-10
2.72825e-10
2.73176e-10
2.73221e-10
2.716e-10
2.71837e-10
2.70988e-10
2.72439e-10
2.72149e-10
2.81964e-10
3.09223e-10
5.95708e-10
4.8766e-09
1.26994e-07
6.19368e-09
5.67127e-09
5.29375e-10
2.8719e-10
2.52833e-10
2.47358e-10
2.46617e-10
2.46438e-10
2.47137e-10
2.47066e-10
2.45772e-10
2.45957e-10
2.44477e-10
2.46375e-10
2.4628e-10
2.54896e-10
2.80092e-10
5.37992e-10
4.16892e-09
1.05533e-07
5.5155e-09
4.32317e-09
4.64925e-10
2.64205e-10
2.31724e-10
2.26689e-10
2.25965e-10
2.25282e-10
2.26359e-10
2.26263e-10
2.25232e-10
2.25363e-10
2.25824e-10
2.25689e-10
2.25694e-10
2.33232e-10
2.58797e-10
4.86347e-10
3.547e-09
8.59881e-08
4.82319e-09
3.22055e-09
4.1244e-10
2.44628e-10
2.14988e-10
2.10398e-10
2.0974e-10
2.10456e-10
2.09986e-10
2.09923e-10
2.09101e-10
2.09174e-10
2.09786e-10
2.09424e-10
2.09515e-10
2.16018e-10
2.40774e-10
4.42699e-10
3.00698e-09
7.04677e-08
4.15188e-09
2.38335e-09
3.70498e-10
2.30278e-10
2.03566e-10
1.99414e-10
1.98816e-10
1.99407e-10
1.9895e-10
1.98956e-10
1.98277e-10
1.98323e-10
1.98985e-10
1.98514e-10
1.98618e-10
2.04469e-10
2.27745e-10
4.06038e-10
2.54435e-09
5.6421e-08
3.52945e-09
1.84077e-09
3.37701e-10
2.19308e-10
1.95547e-10
1.91173e-10
1.90636e-10
1.91151e-10
1.90679e-10
1.90773e-10
1.90212e-10
1.90248e-10
1.90848e-10
1.90333e-10
1.90499e-10
1.95638e-10
2.17783e-10
3.75608e-10
2.15256e-09
4.51553e-08
2.97403e-09
1.44293e-09
3.15577e-10
2.1232e-10
1.9083e-10
1.86791e-10
1.8631e-10
1.86834e-10
1.86293e-10
1.86525e-10
1.86047e-10
1.86055e-10
1.86571e-10
1.86032e-10
1.86255e-10
1.90766e-10
2.11906e-10
3.50784e-10
1.82548e-09
3.57644e-08
2.49662e-09
1.15741e-09
2.99764e-10
2.08982e-10
1.8944e-10
1.85742e-10
1.85314e-10
1.85908e-10
1.85259e-10
1.85667e-10
1.85249e-10
1.85197e-10
1.85655e-10
1.85072e-10
1.85368e-10
1.89264e-10
2.09609e-10
3.34548e-10
1.55551e-09
2.80222e-08
2.10101e-09
9.56569e-10
2.90739e-10
2.09334e-10
1.91623e-10
1.88194e-10
1.87817e-10
1.88538e-10
1.87742e-10
1.88367e-10
1.87986e-10
1.87848e-10
1.88292e-10
1.87624e-10
1.88006e-10
1.91291e-10
2.11044e-10
3.23478e-10
1.33503e-09
2.15787e-08
1.78385e-09
8.07112e-10
2.87819e-10
2.13614e-10
1.97637e-10
1.9442e-10
1.94093e-10
1.94993e-10
1.94009e-10
1.94893e-10
1.94532e-10
1.94289e-10
1.94758e-10
1.93957e-10
1.94441e-10
1.9711e-10
2.16459e-10
3.17688e-10
1.15825e-09
1.63188e-08
1.53861e-09
6.98942e-10
2.90905e-10
2.22131e-10
2.0781e-10
2.04754e-10
2.04484e-10
2.05602e-10
2.04388e-10
2.05577e-10
2.05219e-10
2.04866e-10
2.05384e-10
2.04406e-10
2.05009e-10
2.07052e-10
2.26159e-10
3.17321e-10
1.01963e-09
1.24668e-08
1.35621e-09
6.35856e-10
2.99972e-10
2.3521e-10
2.22472e-10
2.1953e-10
2.19334e-10
2.20685e-10
2.19208e-10
2.2074e-10
2.20372e-10
2.19917e-10
2.20488e-10
2.193e-10
2.20039e-10
2.21453e-10
2.40445e-10
3.22501e-10
9.18333e-10
9.36956e-09
1.22601e-09
5.97948e-10
3.1485e-10
2.53084e-10
2.41838e-10
2.38967e-10
2.38878e-10
2.40441e-10
2.3868e-10
2.40576e-10
2.4019e-10
2.39655e-10
2.40257e-10
2.38846e-10
2.39742e-10
2.40546e-10
2.59499e-10
3.33213e-10
8.41545e-10
6.80558e-09
1.13768e-09
5.79442e-10
3.35142e-10
2.75754e-10
2.6587e-10
2.63026e-10
2.63082e-10
2.64799e-10
2.62757e-10
2.65011e-10
2.64604e-10
2.64022e-10
2.64607e-10
2.62993e-10
2.64061e-10
2.64318e-10
2.83232e-10
3.49198e-10
7.85965e-10
5.1793e-09
1.08159e-09
5.75778e-10
3.61684e-10
3.02865e-10
2.95127e-10
2.92178e-10
2.91478e-10
2.9439e-10
2.91948e-10
2.94647e-10
2.94119e-10
2.92524e-10
2.94134e-10
2.92207e-10
2.93397e-10
2.93234e-10
3.11124e-10
3.69798e-10
7.46753e-10
3.93033e-09
1.04889e-09
5.82843e-10
3.92197e-10
3.33406e-10
3.26607e-10
3.2367e-10
3.2299e-10
3.26042e-10
3.23405e-10
3.26348e-10
3.25792e-10
3.24079e-10
3.25753e-10
3.2372e-10
3.25041e-10
3.24621e-10
3.42049e-10
3.96325e-10
7.18811e-10
3.05248e-09
1.03129e-09
5.96603e-10
4.22576e-10
3.65798e-10
3.59568e-10
3.56657e-10
3.5599e-10
3.59041e-10
3.56319e-10
3.59373e-10
3.58809e-10
3.57056e-10
3.58737e-10
3.56692e-10
3.58087e-10
3.57591e-10
3.7433e-10
4.23016e-10
7.00119e-10
2.41591e-09
1.02111e-09
6.13137e-10
4.52204e-10
3.98003e-10
3.91974e-10
3.89107e-10
3.88441e-10
3.91349e-10
3.88672e-10
3.91683e-10
3.91133e-10
3.89425e-10
3.91051e-10
3.891e-10
3.90497e-10
3.90121e-10
4.05909e-10
4.49713e-10
6.86123e-10
1.95313e-09
1.01159e-09
6.28728e-10
4.78759e-10
4.27816e-10
4.21693e-10
4.18902e-10
4.18228e-10
4.20867e-10
4.18362e-10
4.21185e-10
4.2067e-10
4.19083e-10
4.2059e-10
4.18835e-10
4.2016e-10
4.20073e-10
4.34656e-10
4.74232e-10
6.73924e-10
1.61395e-09
9.97452e-10
6.40253e-10
5.00302e-10
4.53292e-10
4.46914e-10
4.44243e-10
4.43558e-10
4.45844e-10
4.4361e-10
4.46133e-10
4.45666e-10
4.4426e-10
4.45587e-10
4.44107e-10
4.45302e-10
4.45609e-10
4.58782e-10
4.9465e-10
6.61354e-10
1.362e-09
9.75431e-10
6.45627e-10
5.15672e-10
4.73132e-10
4.66502e-10
4.64003e-10
4.63314e-10
4.65213e-10
4.63305e-10
4.65471e-10
4.65058e-10
4.63862e-10
4.64972e-10
4.63803e-10
4.6483e-10
4.65555e-10
4.77188e-10
5.09692e-10
6.47146e-10
1.17172e-09
9.44522e-10
6.44088e-10
5.24694e-10
4.8694e-10
4.80207e-10
4.77934e-10
4.77256e-10
4.78787e-10
4.77207e-10
4.7902e-10
4.78659e-10
4.77668e-10
4.78556e-10
4.7769e-10
4.78535e-10
4.79618e-10
4.89674e-10
5.18965e-10
6.30994e-10
1.02507e-09
9.05807e-10
6.36217e-10
5.28212e-10
4.95298e-10
4.88718e-10
4.86719e-10
4.86067e-10
4.87296e-10
4.85998e-10
4.87518e-10
4.87198e-10
4.8638e-10
4.87071e-10
4.86456e-10
4.87131e-10
4.8844e-10
4.96986e-10
5.23031e-10
6.1351e-10
9.10268e-10
8.62003e-10
6.23798e-10
5.2798e-10
4.99753e-10
4.93693e-10
4.91903e-10
4.91294e-10
4.92318e-10
4.91218e-10
4.92547e-10
4.9225e-10
4.91548e-10
4.92095e-10
4.91647e-10
4.9219e-10
4.93636e-10
5.00795e-10
5.23385e-10
5.95887e-10
8.19734e-10
8.16874e-10
6.09548e-10
5.26459e-10
5.02491e-10
4.97223e-10
4.95728e-10
4.95173e-10
4.96101e-10
4.95097e-10
4.96355e-10
4.96065e-10
4.95408e-10
4.95879e-10
4.95502e-10
4.95962e-10
4.9729e-10
5.03277e-10
5.22299e-10
5.80471e-10
7.49026e-10
7.74574e-10
5.96719e-10
5.26461e-10
5.06248e-10
5.02002e-10
5.00782e-10
5.0029e-10
5.0121e-10
5.0021e-10
5.01501e-10
5.01204e-10
5.00531e-10
5.00989e-10
5.00599e-10
5.01028e-10
5.02092e-10
5.07123e-10
5.22511e-10
5.69401e-10
6.95899e-10
7.38807e-10
5.88409e-10
5.30475e-10
5.13512e-10
5.1034e-10
5.0935e-10
5.08925e-10
5.09867e-10
5.08831e-10
5.10194e-10
5.0989e-10
5.09169e-10
5.09651e-10
5.09203e-10
5.09637e-10
5.10366e-10
5.14647e-10
5.26595e-10
5.64699e-10
6.59293e-10
7.1174e-10
5.86498e-10
5.39689e-10
5.25569e-10
5.23278e-10
5.22457e-10
5.221e-10
5.23012e-10
5.21984e-10
5.23359e-10
5.23066e-10
5.22314e-10
5.22808e-10
5.22323e-10
5.22764e-10
5.23202e-10
5.26888e-10
5.35966e-10
5.67154e-10
6.38033e-10
6.92948e-10
5.9046e-10
5.52981e-10
5.41428e-10
5.39615e-10
5.38902e-10
5.38604e-10
5.39371e-10
5.38475e-10
5.39705e-10
5.3946e-10
5.38742e-10
5.39186e-10
5.38747e-10
5.39156e-10
5.39454e-10
5.42627e-10
5.49754e-10
5.75311e-10
6.29362e-10
6.78948e-10
5.96589e-10
5.66383e-10
5.57181e-10
5.55392e-10
5.54746e-10
5.54494e-10
5.54995e-10
5.54374e-10
5.55284e-10
5.55122e-10
5.54522e-10
5.54835e-10
5.54541e-10
5.54861e-10
5.5521e-10
5.5789e-10
5.64085e-10
5.84908e-10
6.27859e-10
6.64429e-10
5.98895e-10
5.74327e-10
5.67099e-10
5.6519e-10
5.64604e-10
5.64383e-10
5.64628e-10
5.64294e-10
5.64872e-10
5.64792e-10
5.64325e-10
5.64491e-10
5.64359e-10
5.64567e-10
5.65043e-10
5.67254e-10
5.73052e-10
5.90082e-10
6.25993e-10
6.5071e-10
5.96705e-10
5.76319e-10
5.70326e-10
5.68493e-10
5.67961e-10
5.67763e-10
5.67899e-10
5.67695e-10
5.68127e-10
5.68087e-10
5.67676e-10
5.67776e-10
5.67712e-10
5.67859e-10
5.68367e-10
5.70258e-10
5.75603e-10
5.90281e-10
6.21768e-10
)
;

boundaryField
{
    fuel
    {
        type            fixedValue;
        value           uniform 0;
    }
    wall
    {
        type            zeroGradient;
    }
    outlet
    {
        type            zeroGradient;
    }
    frontAndBack
    {
        type            empty;
    }
}


// ************************************************************************* //
