/*--------------------------------*- C++ -*----------------------------------*\
| =========                 |                                                 |
| \\      /  F ield         | OpenFOAM: The Open Source CFD Toolbox           |
|  \\    /   O peration     | Version:  dev                                   |
|   \\  /    A nd           | Web:      www.OpenFOAM.org                      |
|    \\/     M anipulation  |                                                 |
\*---------------------------------------------------------------------------*/
FoamFile
{
    version     2.0;
    format      ascii;
    class       volScalarField;
    location    "0.2";
    object      P2-;
}
// * * * * * * * * * * * * * * * * * * * * * * * * * * * * * * * * * * * * * //

dimensions      [0 0 0 0 0 0 0];

internalField   nonuniform List<scalar> 
1000
(
8.38441e-11
3.7352e-09
3.28783e-09
3.20773e-09
3.19651e-09
3.19544e-09
3.19524e-09
3.19512e-09
3.19568e-09
3.19546e-09
3.19554e-09
3.19558e-09
3.19571e-09
3.19563e-09
3.19551e-09
3.19914e-09
3.20307e-09
3.27041e-09
3.44997e-09
1.20735e-10
1.4289e-10
7.15343e-09
4.95195e-09
4.67156e-09
4.63531e-09
4.63191e-09
4.63107e-09
4.63098e-09
4.63193e-09
4.63146e-09
4.63177e-09
4.6318e-09
4.63195e-09
4.63231e-09
4.63116e-09
4.64306e-09
4.65699e-09
4.88114e-09
5.74374e-09
2.0651e-10
1.04051e-10
5.99356e-09
3.31464e-09
3.02218e-09
2.98476e-09
2.98132e-09
2.98058e-09
2.98036e-09
2.98134e-09
2.98073e-09
2.98119e-09
2.98131e-09
2.98112e-09
2.98268e-09
2.97956e-09
2.99687e-09
3.0034e-09
3.26367e-09
4.17163e-09
1.3239e-10
5.03378e-11
4.07757e-09
1.78562e-09
1.56607e-09
1.53807e-09
1.53552e-09
1.53492e-09
1.53478e-09
1.53555e-09
1.53503e-09
1.53542e-09
1.53566e-09
1.53532e-09
1.53701e-09
1.53373e-09
1.55022e-09
1.54907e-09
1.76721e-09
2.46639e-09
3.3034e-10
2.00437e-11
2.70629e-09
9.32228e-10
7.80785e-10
7.6167e-10
7.59896e-10
7.5921e-10
7.5935e-10
7.59902e-10
7.59533e-10
7.59822e-10
7.60077e-10
7.59761e-10
7.60795e-10
7.58623e-10
7.71271e-10
7.67863e-10
9.32976e-10
1.45253e-09
2.49318e-09
8.05198e-12
1.86183e-09
5.08065e-10
4.02667e-10
3.89656e-10
3.88397e-10
3.87424e-10
3.87985e-10
3.88352e-10
3.88118e-10
3.88313e-10
3.88528e-10
3.88294e-10
3.88536e-10
3.87614e-10
3.96474e-10
3.93527e-10
4.97951e-10
9.15657e-10
5.69335e-09
3.89606e-12
1.34281e-09
2.98115e-10
2.21091e-10
2.11835e-10
2.10847e-10
2.09503e-10
2.10439e-10
2.10699e-10
2.10501e-10
2.10708e-10
2.1087e-10
2.10704e-10
2.1011e-10
2.10391e-10
2.16563e-10
2.14724e-10
2.89531e-10
6.08125e-10
7.52859e-09
2.4771e-12
1.00899e-09
1.80803e-10
1.31249e-10
1.23468e-10
1.22591e-10
1.2124e-10
1.22178e-10
1.2234e-10
1.222e-10
1.22362e-10
1.22481e-10
1.2236e-10
1.21644e-10
1.22321e-10
1.26939e-10
1.26634e-10
1.75872e-10
4.3823e-10
8.30435e-09
2.16076e-12
7.8206e-10
1.22446e-10
7.88061e-11
7.55012e-11
7.53341e-11
7.55132e-11
7.52735e-11
7.53734e-11
7.52641e-11
7.53982e-11
7.54841e-11
7.53955e-11
7.57688e-11
7.51622e-11
7.71962e-11
7.59261e-11
1.16136e-10
3.43632e-10
8.27888e-09
2.59642e-12
6.19419e-10
8.53991e-11
5.35629e-11
5.02898e-11
4.997e-11
5.03897e-11
4.98728e-11
4.98996e-11
4.97805e-11
4.99528e-11
5.00239e-11
4.99116e-11
5.05499e-11
4.9847e-11
5.16721e-11
5.1371e-11
7.90793e-11
2.78392e-10
7.63529e-09
4.01921e-12
4.97662e-10
6.22686e-11
3.77776e-11
3.49135e-11
3.46456e-11
3.47848e-11
3.4546e-11
3.45564e-11
3.44826e-11
3.45898e-11
3.4637e-11
3.45327e-11
3.47033e-11
3.45696e-11
3.58201e-11
3.61024e-11
5.71082e-11
2.34402e-10
6.61206e-09
6.6098e-12
4.03429e-10
4.89148e-11
2.8084e-11
2.57303e-11
2.54948e-11
2.55845e-11
2.54118e-11
2.54166e-11
2.53932e-11
2.54288e-11
2.54609e-11
2.53439e-11
2.61684e-11
2.54414e-11
2.63447e-11
2.68159e-11
4.32041e-11
1.98803e-10
5.45346e-09
9.54782e-12
3.28771e-10
3.88867e-11
2.18734e-11
1.98895e-11
1.96797e-11
2.01445e-11
1.96126e-11
1.96231e-11
1.96421e-11
1.96131e-11
1.96351e-11
1.94839e-11
2.0102e-11
1.96322e-11
2.03158e-11
2.08764e-11
3.37797e-11
1.69588e-10
4.34367e-09
1.22471e-11
2.68912e-10
3.2199e-11
1.76769e-11
1.59615e-11
1.57675e-11
1.59893e-11
1.57104e-11
1.5735e-11
1.57744e-11
1.57053e-11
1.57212e-11
1.55064e-11
1.59722e-11
1.57237e-11
1.62646e-11
1.68704e-11
2.8228e-11
1.44878e-10
3.37768e-09
1.48176e-11
2.15806e-10
2.68776e-11
1.46911e-11
1.31864e-11
1.30045e-11
1.30968e-11
1.29479e-11
1.29897e-11
1.30283e-11
1.29458e-11
1.29593e-11
1.30087e-11
1.3097e-11
1.29627e-11
1.34069e-11
1.40251e-11
2.39964e-11
1.24971e-10
2.5961e-09
1.73645e-11
1.68685e-10
2.24388e-11
1.24668e-11
1.11393e-11
1.09687e-11
1.09988e-11
1.09031e-11
1.09637e-11
1.09903e-11
1.09118e-11
1.09238e-11
1.09463e-11
1.10013e-11
1.09278e-11
1.13025e-11
1.19087e-11
2.04223e-11
1.07747e-10
1.98717e-09
1.97305e-11
1.35521e-10
1.89331e-11
1.07448e-11
9.57239e-12
9.41308e-12
9.4141e-12
9.33001e-12
9.41154e-12
9.42431e-12
9.35728e-12
9.3682e-12
9.37029e-12
9.4141e-12
9.37287e-12
9.69445e-12
1.02735e-11
1.75993e-11
9.20557e-11
1.52642e-09
2.15856e-11
1.08365e-10
1.61029e-11
9.36784e-12
8.33606e-12
8.18839e-12
8.17613e-12
8.0782e-12
8.18602e-12
8.1878e-12
8.13346e-12
8.14333e-12
8.12781e-12
8.17276e-12
8.14888e-12
8.42778e-12
8.97037e-12
1.52702e-11
7.83681e-11
1.18699e-09
2.27514e-11
8.61639e-11
1.37852e-11
8.23474e-12
7.33675e-12
7.20101e-12
7.18407e-12
7.17778e-12
7.19586e-12
7.19014e-12
7.1472e-12
7.15586e-12
7.12319e-12
7.17672e-12
7.16246e-12
7.40563e-12
7.9063e-12
1.36539e-11
6.65012e-11
9.04283e-10
2.32324e-11
6.8182e-11
1.1871e-11
7.27765e-12
6.51386e-12
6.39028e-12
6.37192e-12
6.35161e-12
6.38137e-12
6.37158e-12
6.33812e-12
6.3454e-12
6.29472e-12
6.36201e-12
6.35315e-12
6.56535e-12
7.01825e-12
1.21402e-11
5.63281e-11
7.14559e-10
2.31499e-11
5.37808e-11
1.02834e-11
6.5591e-12
5.82687e-12
5.71552e-12
5.69758e-12
5.66065e-12
5.70303e-12
5.69143e-12
5.66564e-12
5.67173e-12
5.68383e-12
5.68656e-12
5.68038e-12
5.86475e-12
6.34115e-12
1.07708e-11
4.75671e-11
5.59765e-10
2.26375e-11
4.15161e-11
8.95959e-12
5.91541e-12
5.24652e-12
5.14812e-12
5.132e-12
5.14155e-12
5.1329e-12
5.12079e-12
5.10119e-12
5.10628e-12
5.12247e-12
5.11946e-12
5.1157e-12
5.27294e-12
5.73379e-12
9.58991e-12
4.00431e-11
4.47061e-10
2.18053e-11
3.17664e-11
7.86066e-12
5.4031e-12
4.80601e-12
4.72122e-12
4.70662e-12
4.70993e-12
4.70412e-12
4.6923e-12
4.67697e-12
4.68239e-12
4.69889e-12
4.69431e-12
4.69041e-12
4.83258e-12
5.25065e-12
8.56452e-12
3.36193e-11
3.51669e-10
2.07134e-11
2.51473e-11
6.94741e-12
4.9562e-12
4.43648e-12
4.33706e-12
4.32383e-12
4.3218e-12
4.3186e-12
4.30657e-12
4.29479e-12
4.30146e-12
4.31447e-12
4.3107e-12
4.30841e-12
4.43368e-12
4.81918e-12
7.66682e-12
2.81559e-11
2.7885e-10
1.93976e-11
2.00599e-11
6.26645e-12
4.59292e-12
4.12872e-12
4.04e-12
4.02806e-12
4.02323e-12
4.02093e-12
4.01002e-12
4.00096e-12
4.00818e-12
4.01719e-12
4.01521e-12
4.01372e-12
4.12515e-12
4.47548e-12
6.87304e-12
2.35499e-11
2.20251e-10
1.79144e-11
1.62193e-11
5.68886e-12
4.29128e-12
3.87457e-12
3.79632e-12
3.7855e-12
3.77901e-12
3.77711e-12
3.76752e-12
3.76068e-12
3.76754e-12
3.77341e-12
3.77321e-12
3.77257e-12
3.87155e-12
4.18856e-12
6.27855e-12
1.96891e-11
1.73375e-10
1.63197e-11
1.33504e-11
5.22696e-12
4.04164e-12
3.66867e-12
3.59909e-12
3.58919e-12
3.58194e-12
3.58006e-12
3.57191e-12
3.56673e-12
3.57256e-12
3.57653e-12
3.57755e-12
3.57782e-12
3.66538e-12
3.95198e-12
5.76286e-12
1.64537e-11
1.34499e-10
1.46961e-11
1.10468e-11
4.84744e-12
3.83637e-12
3.5034e-12
3.4411e-12
3.4319e-12
3.42446e-12
3.42243e-12
3.41566e-12
3.41167e-12
3.41626e-12
3.41921e-12
3.42098e-12
3.42209e-12
3.49936e-12
3.75787e-12
5.31739e-12
1.37616e-11
1.02533e-10
1.3153e-11
9.205e-12
4.53351e-12
3.66691e-12
3.37011e-12
3.31383e-12
3.30515e-12
3.29765e-12
3.29555e-12
3.28984e-12
3.28683e-12
3.29034e-12
3.29273e-12
3.295e-12
3.29677e-12
3.36512e-12
3.59694e-12
4.93203e-12
1.15332e-11
7.87547e-11
1.17473e-11
7.95257e-12
4.2678e-12
3.52253e-12
3.25802e-12
3.20663e-12
3.19833e-12
3.19053e-12
3.18872e-12
3.18349e-12
3.18131e-12
3.18408e-12
3.18603e-12
3.1889e-12
3.19105e-12
3.25211e-12
3.45784e-12
4.59461e-12
9.77916e-12
5.91453e-11
1.04881e-11
6.97232e-12
4.03032e-12
3.38961e-12
3.15353e-12
3.10604e-12
3.09788e-12
3.08934e-12
3.08842e-12
3.08279e-12
3.08138e-12
3.08378e-12
3.08525e-12
3.08911e-12
3.09129e-12
3.14696e-12
3.32652e-12
4.28995e-12
8.30495e-12
4.23937e-11
9.35569e-12
6.17575e-12
3.80044e-12
3.25154e-12
3.04056e-12
2.99604e-12
2.98745e-12
2.97792e-12
2.97866e-12
2.9716e-12
2.97091e-12
2.97301e-12
2.9742e-12
2.97961e-12
2.98132e-12
3.03369e-12
3.18637e-12
4.00077e-12
7.06146e-12
3.14503e-11
8.31317e-12
5.49123e-12
3.54582e-12
3.09091e-12
2.89696e-12
2.85601e-12
2.84948e-12
2.83496e-12
2.83875e-12
2.82871e-12
2.8291e-12
2.83429e-12
2.83176e-12
2.83987e-12
2.84071e-12
2.89161e-12
3.01978e-12
3.70968e-12
5.9901e-12
2.27883e-11
7.31962e-12
4.86347e-12
3.25255e-12
2.89099e-12
2.71243e-12
2.67501e-12
2.66866e-12
2.65095e-12
2.65814e-12
2.64457e-12
2.64587e-12
2.65261e-12
2.64827e-12
2.65914e-12
2.65853e-12
2.70927e-12
2.81161e-12
3.37589e-12
5.00847e-12
1.65459e-11
6.34267e-12
4.25429e-12
2.92526e-12
2.64106e-12
2.47584e-12
2.44233e-12
2.43639e-12
2.41541e-12
2.42627e-12
2.40893e-12
2.41111e-12
2.41972e-12
2.41333e-12
2.42697e-12
2.42464e-12
2.47552e-12
2.55363e-12
3.0272e-12
4.16223e-12
1.19284e-11
5.36879e-12
3.64389e-12
2.55349e-12
2.34059e-12
2.18912e-12
2.15991e-12
2.15453e-12
2.13113e-12
2.14521e-12
2.12469e-12
2.1276e-12
2.13781e-12
2.1296e-12
2.14543e-12
2.14147e-12
2.19163e-12
2.24809e-12
2.64265e-12
3.39557e-12
8.53032e-12
4.40819e-12
3.03271e-12
2.15174e-12
2.00122e-12
1.86568e-12
1.84102e-12
1.83636e-12
1.81204e-12
1.82824e-12
1.8059e-12
1.80927e-12
1.82038e-12
1.81093e-12
1.82788e-12
1.8227e-12
1.87039e-12
1.90874e-12
2.23271e-12
2.70488e-12
6.03817e-12
3.48981e-12
2.43713e-12
1.74377e-12
1.64439e-12
1.52753e-12
1.50751e-12
1.50366e-12
1.48021e-12
1.49702e-12
1.47464e-12
1.47814e-12
1.48926e-12
1.4794e-12
1.49612e-12
1.49038e-12
1.53345e-12
1.55788e-12
1.81733e-12
2.09472e-12
4.21724e-12
2.65173e-12
1.88267e-12
1.35611e-12
1.2957e-12
1.19949e-12
1.1839e-12
1.18085e-12
1.15984e-12
1.17576e-12
1.15507e-12
1.15836e-12
1.16868e-12
1.15924e-12
1.17456e-12
1.16879e-12
1.20582e-12
1.21992e-12
1.42165e-12
1.57113e-12
2.8982e-12
1.92961e-12
1.39496e-12
1.01109e-12
9.78169e-13
9.0287e-13
8.91075e-13
8.88792e-13
8.71187e-13
8.85151e-13
8.67316e-13
8.7016e-13
8.7911e-13
8.7071e-13
8.83853e-13
8.78478e-13
9.08966e-13
9.15721e-13
1.06765e-12
1.13819e-12
1.95403e-12
1.34204e-12
9.89532e-13
7.22005e-13
7.06966e-13
6.5115e-13
6.42228e-13
6.40606e-13
6.26739e-13
6.38192e-13
6.23758e-13
6.26066e-13
6.33336e-13
6.26375e-13
6.36925e-13
6.32321e-13
6.56385e-13
6.58702e-13
7.67995e-13
7.95277e-13
1.28569e-12
8.89686e-13
6.70143e-13
4.92492e-13
4.86207e-13
4.45714e-13
4.42066e-13
4.40975e-13
4.30673e-13
4.39512e-13
4.28491e-13
4.30264e-13
4.3582e-13
4.3041e-13
4.38373e-13
4.34698e-13
4.50053e-13
4.50095e-13
5.27626e-13
5.31622e-13
8.21123e-13
5.58909e-13
4.30689e-13
3.18863e-13
3.18054e-13
2.90904e-13
2.88671e-13
2.87964e-13
2.80744e-13
2.87178e-13
2.79225e-13
2.80516e-13
2.84523e-13
2.80566e-13
2.86227e-13
2.83485e-13
2.94054e-13
2.93127e-13
3.44109e-13
3.39859e-13
5.04862e-13
3.28522e-13
2.59298e-13
1.93181e-13
1.94654e-13
1.775e-13
1.76233e-13
1.7579e-13
1.71047e-13
1.75443e-13
1.70048e-13
1.70935e-13
1.73648e-13
1.70936e-13
1.74708e-13
1.72797e-13
1.79592e-13
1.78496e-13
2.10169e-13
2.03993e-13
2.94425e-13
1.76036e-13
1.42434e-13
1.06436e-13
1.08371e-13
9.83551e-14
9.77103e-14
9.74464e-14
9.45842e-14
9.73483e-14
9.39775e-14
9.45395e-14
9.62305e-14
9.45219e-14
9.68338e-14
9.56098e-14
9.96572e-14
9.87147e-14
1.16959e-13
1.11656e-13
1.58401e-13
8.19239e-14
6.79773e-14
5.07156e-14
5.22059e-14
4.70602e-14
4.67846e-14
4.6641e-14
4.51354e-14
4.66521e-14
4.48127e-14
4.51238e-14
4.60449e-14
4.51049e-14
4.63432e-14
4.56579e-14
4.77839e-14
4.71381e-14
5.64323e-14
5.29625e-14
7.47621e-14
3.09085e-14
2.6293e-14
1.95671e-14
2.03487e-14
1.82169e-14
1.8127e-14
1.80619e-14
1.74293e-14
1.80934e-14
1.72918e-14
1.74295e-14
1.783e-14
1.74173e-14
1.79479e-14
1.76417e-14
1.85421e-14
1.82112e-14
2.20477e-14
2.03693e-14
2.87883e-14
8.61011e-15
7.4669e-15
5.51922e-15
5.78847e-15
5.14113e-15
5.12077e-15
5.09861e-15
4.90515e-15
5.11682e-15
4.86212e-15
4.90679e-15
5.03342e-15
4.90202e-15
5.06735e-15
4.96844e-15
5.24752e-15
5.13187e-15
6.29675e-15
5.74596e-15
8.1892e-15
1.49992e-15
1.3146e-15
9.75855e-16
1.02579e-15
9.10624e-16
9.07941e-16
9.03563e-16
8.69174e-16
9.07964e-16
8.6134e-16
8.69633e-16
8.92821e-16
8.68599e-16
8.98662e-16
8.80041e-16
9.31053e-16
9.07836e-16
1.11743e-15
1.01498e-15
1.4478e-15
2.95636e-16
2.60806e-16
2.00705e-16
2.09096e-16
1.88477e-16
1.87902e-16
1.87098e-16
1.80751e-16
1.87968e-16
1.7925e-16
1.80888e-16
1.85077e-16
1.80724e-16
1.86079e-16
1.82896e-16
1.91693e-16
1.88348e-16
2.24304e-16
2.09062e-16
2.82045e-16
)
;

boundaryField
{
    fuel
    {
        type            fixedValue;
        value           uniform 0;
    }
    wall
    {
        type            zeroGradient;
    }
    outlet
    {
        type            zeroGradient;
    }
    frontAndBack
    {
        type            empty;
    }
}


// ************************************************************************* //
