/*--------------------------------*- C++ -*----------------------------------*\
| =========                 |                                                 |
| \\      /  F ield         | OpenFOAM: The Open Source CFD Toolbox           |
|  \\    /   O peration     | Version:  dev                                   |
|   \\  /    A nd           | Web:      www.OpenFOAM.org                      |
|    \\/     M anipulation  |                                                 |
\*---------------------------------------------------------------------------*/
FoamFile
{
    version     2.0;
    format      ascii;
    class       volScalarField;
    location    "0.2";
    object      P2-H;
}
// * * * * * * * * * * * * * * * * * * * * * * * * * * * * * * * * * * * * * //

dimensions      [0 0 0 0 0 0 0];

internalField   nonuniform List<scalar> 
1000
(
4.70587e-11
3.62227e-13
3.2679e-13
3.19257e-13
3.18761e-13
3.18314e-13
3.18363e-13
3.18354e-13
3.18371e-13
3.18344e-13
3.18325e-13
3.18359e-13
3.18358e-13
3.18348e-13
3.18365e-13
3.18515e-13
3.19719e-13
3.29426e-13
4.06562e-13
4.90627e-11
1.28172e-12
2.90399e-13
2.39449e-13
2.26669e-13
2.26004e-13
2.25274e-13
2.25383e-13
2.25324e-13
2.25345e-13
2.25331e-13
2.25302e-13
2.2533e-13
2.25325e-13
2.25311e-13
2.25346e-13
2.25533e-13
2.27396e-13
2.43505e-13
4.06433e-13
2.52983e-11
6.45795e-14
1.44673e-13
1.09278e-13
9.86923e-14
9.8611e-14
9.78655e-14
9.80152e-14
9.79262e-14
9.79513e-14
9.79356e-14
9.79171e-14
9.79376e-14
9.79243e-14
9.79253e-14
9.79409e-14
9.80717e-14
9.93874e-14
1.10911e-13
2.4897e-13
2.96341e-12
1.04226e-13
6.83935e-14
4.67298e-14
3.96186e-14
3.97643e-14
3.92011e-14
3.93252e-14
3.92514e-14
3.92734e-14
3.92582e-14
3.92504e-14
3.92626e-14
3.92506e-14
3.92526e-14
3.92605e-14
3.93401e-14
4.01259e-14
4.70291e-14
1.46651e-13
5.04709e-13
1.89775e-13
3.53639e-14
2.12807e-14
1.6672e-14
1.68184e-14
1.64486e-14
1.65268e-14
1.6482e-14
1.64976e-14
1.64856e-14
1.64837e-14
1.649e-14
1.6481e-14
1.64785e-14
1.64874e-14
1.65362e-14
1.7003e-14
2.11108e-14
9.21267e-14
1.33415e-13
1.83655e-13
2.05925e-14
1.0281e-14
7.68188e-15
7.77778e-15
7.54516e-15
7.58633e-15
7.56523e-15
7.57505e-15
7.56649e-15
7.56698e-15
7.57019e-15
7.56379e-15
7.55787e-15
7.56829e-15
7.60015e-15
7.89292e-15
1.04554e-14
6.24559e-14
4.54876e-14
1.67619e-13
1.30953e-14
5.62781e-15
3.91632e-15
3.96544e-15
3.81819e-15
3.83727e-15
3.82953e-15
3.83584e-15
3.829e-15
3.83115e-15
3.83278e-15
3.82728e-15
3.81772e-15
3.83163e-15
3.85388e-15
4.05394e-15
5.75312e-15
4.49953e-14
1.92856e-14
1.61114e-13
9.26255e-15
3.3763e-15
2.19741e-15
2.21852e-15
2.12474e-15
2.13512e-15
2.1313e-15
2.13525e-15
2.13063e-15
2.13246e-15
2.13329e-15
2.12963e-15
2.12355e-15
2.13275e-15
2.14773e-15
2.29155e-15
3.5034e-15
3.38127e-14
1.09815e-14
1.63144e-13
7.23821e-15
2.1547e-15
1.32286e-15
1.35576e-15
1.29749e-15
1.30777e-15
1.30146e-15
1.30414e-15
1.30144e-15
1.30239e-15
1.3028e-15
1.30082e-15
1.29987e-15
1.30271e-15
1.31058e-15
1.38045e-15
2.26271e-15
2.6097e-14
7.86168e-15
1.68053e-13
5.92429e-15
1.44316e-15
8.71312e-16
8.77836e-16
8.35758e-16
8.4595e-16
8.376e-16
8.39497e-16
8.37804e-16
8.38493e-16
8.38708e-16
8.36989e-16
8.4077e-16
8.39328e-16
8.46717e-16
9.15117e-16
1.52769e-15
2.04482e-14
5.92659e-15
1.70153e-13
5.05962e-15
1.0326e-15
6.04636e-16
6.01979e-16
5.74237e-16
5.81108e-16
5.7494e-16
5.76264e-16
5.75081e-16
5.75693e-16
5.7579e-16
5.74065e-16
5.77442e-16
5.76574e-16
5.82388e-16
6.3544e-16
1.13644e-15
1.6137e-14
4.87341e-15
1.66033e-13
4.37044e-15
7.77805e-16
4.47095e-16
4.39719e-16
4.20066e-16
4.23416e-16
4.20159e-16
4.21199e-16
4.20247e-16
4.20861e-16
4.20908e-16
4.18845e-16
4.19711e-16
4.2177e-16
4.26761e-16
4.70013e-16
8.70417e-16
1.27551e-14
4.06255e-15
1.55117e-13
3.80235e-15
6.06403e-16
3.4751e-16
3.3794e-16
3.23249e-16
3.23313e-16
3.22962e-16
3.23864e-16
3.23166e-16
3.23657e-16
3.23693e-16
3.21061e-16
3.30798e-16
3.24662e-16
3.29025e-16
3.65187e-16
6.79593e-16
1.0069e-14
3.28153e-15
1.38941e-13
3.30952e-15
5.08244e-16
2.80728e-16
2.70169e-16
2.58771e-16
2.64149e-16
2.58179e-16
2.59016e-16
2.58551e-16
2.58885e-16
2.58936e-16
2.55275e-16
2.63489e-16
2.59896e-16
2.63847e-16
2.9474e-16
5.58509e-16
7.76578e-15
2.68582e-15
1.19965e-13
2.89175e-15
4.30816e-16
2.33494e-16
2.22624e-16
2.13445e-16
2.17269e-16
2.12616e-16
2.13485e-16
2.13193e-16
2.13402e-16
2.13497e-16
2.14289e-16
2.16248e-16
2.1439e-16
2.18036e-16
2.4484e-16
4.56504e-16
5.79525e-15
2.27873e-15
1.00539e-13
2.51601e-15
3.67031e-16
1.98525e-16
1.87767e-16
1.80153e-16
1.82659e-16
1.79092e-16
1.80081e-16
1.79895e-16
1.80029e-16
1.80159e-16
1.80492e-16
1.81798e-16
1.8099e-16
1.84384e-16
2.07894e-16
3.78079e-16
4.45695e-15
1.97683e-15
8.23668e-14
2.16721e-15
3.16683e-16
1.71656e-16
1.61274e-16
1.54825e-16
1.56435e-16
1.5348e-16
1.54691e-16
1.54559e-16
1.5466e-16
1.54815e-16
1.54757e-16
1.55832e-16
1.55593e-16
1.58759e-16
1.79518e-16
3.16936e-16
3.39403e-15
1.72229e-15
6.64362e-14
1.852e-15
2.74947e-16
1.504e-16
1.4056e-16
1.35028e-16
1.36054e-16
1.33288e-16
1.3486e-16
1.34751e-16
1.34842e-16
1.35012e-16
1.34522e-16
1.35695e-16
1.35745e-16
1.38693e-16
1.57091e-16
2.68559e-16
2.56916e-15
1.49698e-15
5.31679e-14
1.57492e-15
2.46544e-16
1.33223e-16
1.24026e-16
1.19249e-16
1.19923e-16
1.19001e-16
1.19069e-16
1.18966e-16
1.19054e-16
1.19228e-16
1.18152e-16
1.19734e-16
1.1992e-16
1.22655e-16
1.38985e-16
2.29881e-16
1.9461e-15
1.29944e-15
4.05824e-14
1.33183e-15
2.20883e-16
1.19106e-16
1.10643e-16
1.06515e-16
1.06962e-16
1.06078e-16
1.06327e-16
1.06233e-16
1.06318e-16
1.06492e-16
1.06322e-16
1.06909e-16
1.07136e-16
1.09667e-16
1.24151e-16
1.98674e-16
1.43765e-15
1.12992e-15
3.15582e-14
1.12328e-15
1.97049e-16
1.08595e-16
9.97261e-17
9.61795e-17
9.64716e-17
9.55239e-17
9.59865e-17
9.59068e-17
9.59845e-17
9.61494e-17
9.64829e-17
9.65173e-17
9.67437e-17
9.90771e-17
1.11831e-16
1.73524e-16
1.06499e-15
9.87004e-16
2.45686e-14
9.45188e-16
1.76895e-16
9.95373e-17
9.07842e-17
8.78004e-17
8.79786e-17
8.79142e-17
8.7602e-17
8.75413e-17
8.76044e-17
8.77546e-17
8.79804e-17
8.80834e-17
8.82954e-17
9.04429e-17
1.01788e-16
1.53274e-16
8.04701e-16
8.65867e-16
1.8642e-14
7.93647e-16
1.59798e-16
9.26288e-17
8.4512e-17
8.1851e-17
8.1987e-17
8.19273e-17
8.16707e-17
8.16245e-17
8.16509e-17
8.18106e-17
8.19999e-17
8.21055e-17
8.23027e-17
8.4286e-17
9.44011e-17
1.37087e-16
6.12792e-16
7.6177e-16
1.42759e-14
6.66608e-16
1.45268e-16
8.68986e-17
7.92508e-17
7.69315e-17
7.70078e-17
7.69648e-17
7.67489e-17
7.67207e-17
7.68166e-17
7.68863e-17
7.70546e-17
7.71482e-17
7.73267e-17
7.9168e-17
8.83876e-17
1.24232e-16
4.76619e-16
6.70885e-16
1.10489e-14
5.60921e-16
1.32853e-16
8.2829e-17
7.56368e-17
7.36204e-17
7.36518e-17
7.36365e-17
7.34444e-17
7.344e-17
7.35043e-17
7.35665e-17
7.37361e-17
7.37904e-17
7.39563e-17
7.56467e-17
8.39653e-17
1.15307e-16
3.80415e-16
5.91147e-16
8.17854e-15
4.73156e-16
1.24215e-16
8.00351e-17
7.32323e-17
7.15028e-17
7.1489e-17
7.15105e-17
7.13309e-17
7.13529e-17
7.14124e-17
7.14298e-17
7.16098e-17
7.16172e-17
7.17746e-17
7.33056e-17
8.08513e-17
1.08138e-16
3.12577e-16
5.22326e-16
5.85839e-15
4.01055e-16
1.17369e-16
7.84406e-17
7.19769e-17
7.05163e-17
7.04583e-17
7.05231e-17
7.0347e-17
7.03971e-17
7.04565e-17
7.04138e-17
7.06153e-17
7.0568e-17
7.07209e-17
7.21171e-17
7.89442e-17
1.03374e-16
2.64646e-16
4.63666e-16
4.27437e-15
3.42719e-16
1.12225e-16
7.79744e-17
7.18176e-17
7.06032e-17
7.05034e-17
7.06152e-17
7.04357e-17
7.05142e-17
7.05745e-17
7.04636e-17
7.06971e-17
7.05876e-17
7.07398e-17
7.20226e-17
7.81836e-17
1.00331e-16
2.27074e-16
4.15033e-16
3.25108e-15
2.95769e-16
1.08612e-16
7.85496e-17
7.26764e-17
7.16857e-17
7.15469e-17
7.17068e-17
7.15183e-17
7.1625e-17
7.16862e-17
7.15059e-17
7.17781e-17
7.16018e-17
7.17577e-17
7.2947e-17
7.84952e-17
9.87953e-17
1.99975e-16
3.75936e-16
2.39107e-15
2.59551e-16
1.06352e-16
8.00235e-17
7.44338e-17
7.36345e-17
7.34623e-17
7.36656e-17
7.34639e-17
7.35978e-17
7.36591e-17
7.34164e-17
7.37267e-17
7.34863e-17
7.36505e-17
7.47662e-17
7.97599e-17
9.85276e-17
1.83376e-16
3.45348e-16
1.67218e-15
2.30129e-16
1.05181e-16
8.21669e-17
7.68883e-17
7.62333e-17
7.60374e-17
7.62705e-17
7.60531e-17
7.62119e-17
7.62711e-17
7.59839e-17
7.6321e-17
7.60326e-17
7.62092e-17
7.72713e-17
8.17777e-17
9.92045e-17
1.71917e-16
3.21598e-16
1.23222e-15
2.06198e-16
1.04744e-16
8.46339e-17
7.97267e-17
7.91503e-17
7.89445e-17
7.91807e-17
7.89525e-17
7.91274e-17
7.918e-17
7.88789e-17
7.92198e-17
7.89186e-17
7.91091e-17
8.01332e-17
8.42399e-17
1.00411e-16
1.63903e-16
3.02762e-16
9.0427e-16
1.86166e-16
1.04587e-16
8.69544e-17
8.2587e-17
8.19749e-17
8.17789e-17
8.193e-17
8.17659e-17
8.18788e-17
8.19182e-17
8.16458e-17
8.19558e-17
8.17501e-17
8.19492e-17
8.29675e-17
8.67123e-17
1.01679e-16
1.57894e-16
2.86783e-16
6.70094e-16
1.68003e-16
1.04065e-16
8.8566e-17
8.47132e-17
8.40365e-17
8.38691e-17
8.39632e-17
8.38184e-17
8.39134e-17
8.39322e-17
8.37373e-17
8.39749e-17
8.38491e-17
8.4047e-17
8.50288e-17
8.86292e-17
1.0218e-16
1.52586e-16
2.7162e-16
5.01019e-16
1.52087e-16
1.02636e-16
8.89176e-17
8.56404e-17
8.48456e-17
8.47246e-17
8.47321e-17
8.46319e-17
8.46843e-17
8.46755e-17
8.46035e-17
8.47292e-17
8.4732e-17
8.49135e-17
8.58577e-17
8.94073e-17
1.01353e-16
1.46832e-16
2.55449e-16
3.78352e-16
1.3703e-16
9.98016e-17
8.75937e-17
8.49238e-17
8.39851e-17
8.39229e-17
8.38243e-17
8.37855e-17
8.37803e-17
8.37395e-17
8.38204e-17
8.38076e-17
8.39716e-17
8.41223e-17
8.50254e-17
8.8562e-17
9.87758e-17
1.39738e-16
2.36922e-16
2.88465e-16
1.22461e-16
9.53072e-17
8.44386e-17
8.23619e-17
8.1292e-17
8.12923e-17
8.10861e-17
8.1113e-17
8.10481e-17
8.09755e-17
8.12149e-17
8.10574e-17
8.13875e-17
8.14978e-17
8.23508e-17
8.58524e-17
9.42825e-17
1.30823e-16
2.15661e-16
2.22106e-16
1.0834e-16
8.92333e-17
7.96096e-17
7.80766e-17
7.69167e-17
7.69758e-17
7.66776e-17
7.67645e-17
7.66478e-17
7.65492e-17
7.69272e-17
7.66412e-17
7.71138e-17
7.71805e-17
7.79718e-17
8.13655e-17
8.8062e-17
1.20115e-16
1.92078e-16
1.73006e-16
9.4888e-17
8.19855e-17
7.35432e-17
7.24858e-17
7.12861e-17
7.13954e-17
7.1032e-17
7.11662e-17
7.10115e-17
7.08967e-17
7.13739e-17
7.09934e-17
7.15643e-17
7.15914e-17
7.231e-17
7.55e-17
8.06108e-17
1.08093e-16
1.67203e-16
1.35988e-16
8.24839e-17
7.41151e-17
6.68499e-17
6.61666e-17
6.49843e-17
6.51264e-17
6.47311e-17
6.48958e-17
6.47199e-17
6.45978e-17
6.51273e-17
6.4694e-17
6.53111e-17
6.53086e-17
6.59485e-17
6.88501e-17
7.25931e-17
9.55501e-17
1.42542e-16
1.08071e-16
7.14524e-17
6.62366e-17
6.01307e-17
5.97267e-17
5.85886e-17
5.87461e-17
5.83479e-17
5.85272e-17
5.8345e-17
5.82228e-17
5.87657e-17
5.83146e-17
5.89337e-17
5.89122e-17
5.94747e-17
6.20409e-17
6.46637e-17
8.33827e-17
1.19695e-16
8.70715e-17
6.18485e-17
5.88574e-17
5.36981e-17
5.34756e-17
5.25536e-17
5.27133e-17
5.23321e-17
5.25142e-17
5.23361e-17
5.22181e-17
5.27485e-17
5.23033e-17
5.28916e-17
5.28624e-17
5.33098e-17
5.54995e-17
5.73199e-17
7.22712e-17
9.96259e-17
7.13678e-17
5.39311e-17
5.23205e-17
4.80791e-17
4.79916e-17
4.71737e-17
4.73273e-17
4.69733e-17
4.71508e-17
4.69825e-17
4.68704e-17
4.73757e-17
4.69484e-17
4.74879e-17
4.746e-17
4.78146e-17
4.9699e-17
5.08715e-17
6.26286e-17
8.27841e-17
5.97375e-17
4.75567e-17
4.68211e-17
4.3353e-17
4.33517e-17
4.26349e-17
4.2778e-17
4.2455e-17
4.26239e-17
4.2468e-17
4.2362e-17
4.28373e-17
4.24332e-17
4.29196e-17
4.28957e-17
4.31837e-17
4.47899e-17
4.54861e-17
5.46364e-17
6.91949e-17
5.14133e-17
4.28435e-17
4.26192e-17
3.98309e-17
3.9868e-17
3.92634e-17
3.93882e-17
3.91048e-17
3.92576e-17
3.91199e-17
3.90227e-17
3.9453e-17
3.9086e-17
3.95127e-17
3.94918e-17
3.97311e-17
4.10709e-17
4.14401e-17
4.84699e-17
5.87825e-17
4.69245e-17
4.13184e-17
4.11331e-17
3.92555e-17
3.92204e-17
3.88344e-17
3.88973e-17
3.87123e-17
3.88067e-17
3.87242e-17
3.8658e-17
3.89388e-17
3.87018e-17
3.89946e-17
3.89819e-17
3.91723e-17
4.01122e-17
4.03761e-17
4.53603e-17
5.25678e-17
5.45343e-17
5.3793e-17
5.20686e-17
5.2851e-17
5.22421e-17
5.26499e-17
5.24149e-17
5.26306e-17
5.24531e-17
5.26119e-17
5.26867e-17
5.22981e-17
5.26555e-17
5.24272e-17
5.24566e-17
5.25762e-17
5.22847e-17
5.3176e-17
5.45131e-17
5.99373e-17
1.3755e-16
1.51865e-16
1.41907e-16
1.52479e-16
1.48906e-16
1.52399e-16
1.50837e-16
1.5257e-16
1.51309e-16
1.5238e-16
1.52912e-16
1.50161e-16
1.5266e-16
1.50728e-16
1.50813e-16
1.51085e-16
1.46485e-16
1.50937e-16
1.41915e-16
1.49143e-16
8.61311e-16
9.24989e-16
8.70476e-16
9.15208e-16
8.93922e-16
9.09466e-16
9.01605e-16
9.08262e-16
9.03224e-16
9.06999e-16
9.07421e-16
9.01067e-16
9.07254e-16
9.03823e-16
9.02252e-16
9.07241e-16
8.90981e-16
9.12973e-16
8.8443e-16
9.2068e-16
1.29998e-14
1.33584e-14
1.26612e-14
1.29346e-14
1.26397e-14
1.27614e-14
1.26804e-14
1.27093e-14
1.26823e-14
1.26924e-14
1.26482e-14
1.27383e-14
1.26674e-14
1.27599e-14
1.2705e-14
1.28244e-14
1.28134e-14
1.30421e-14
1.32537e-14
1.39183e-14
)
;

boundaryField
{
    fuel
    {
        type            fixedValue;
        value           uniform 0;
    }
    wall
    {
        type            zeroGradient;
    }
    outlet
    {
        type            zeroGradient;
    }
    frontAndBack
    {
        type            empty;
    }
}


// ************************************************************************* //
