/*--------------------------------*- C++ -*----------------------------------*\
| =========                 |                                                 |
| \\      /  F ield         | OpenFOAM: The Open Source CFD Toolbox           |
|  \\    /   O peration     | Version:  dev                                   |
|   \\  /    A nd           | Web:      www.OpenFOAM.org                      |
|    \\/     M anipulation  |                                                 |
\*---------------------------------------------------------------------------*/
FoamFile
{
    version     2.0;
    format      ascii;
    class       volScalarField;
    location    "0.2";
    object      T;
}
// * * * * * * * * * * * * * * * * * * * * * * * * * * * * * * * * * * * * * //

dimensions      [0 0 0 1 0 0 0];

internalField   nonuniform List<scalar> 
1000
(
454.467
1742.86
1761.16
1763.22
1763.69
1763.66
1763.67
1763.66
1763.66
1763.65
1763.65
1763.66
1763.65
1763.68
1763.66
1763.65
1763.21
1758.97
1721.38
418.6
635.158
1959.13
1977.71
1980.19
1980.61
1980.63
1980.62
1980.62
1980.62
1980.61
1980.61
1980.62
1980.61
1980.64
1980.62
1980.6
1980.13
1975.54
1934.57
504.497
1016.96
2006.95
2029.4
2032.58
2033.13
2033.16
2033.15
2033.15
2033.15
2033.14
2033.15
2033.16
2033.14
2033.16
2033.15
2033.12
2032.52
2026.67
1975.04
570.865
1789.33
2018.27
2044.38
2048.45
2049.17
2049.22
2049.21
2049.21
2049.22
2049.2
2049.21
2049.22
2049.2
2049.22
2049.21
2049.17
2048.38
2040.84
1975.62
625.519
2032.52
2018.82
2048.8
2053.78
2054.7
2054.77
2054.75
2054.76
2054.77
2054.75
2054.76
2054.77
2054.75
2054.77
2054.76
2054.7
2053.71
2044.34
1965.49
674.822
2086.91
2015.05
2049.51
2055.36
2056.49
2056.58
2056.56
2056.58
2056.59
2056.56
2056.58
2056.59
2056.56
2056.58
2056.58
2056.5
2055.3
2044.11
1952.95
725.256
2082.54
2009.07
2048.69
2055.35
2056.72
2056.83
2056.8
2056.82
2056.84
2056.81
2056.83
2056.84
2056.81
2056.83
2056.83
2056.73
2055.33
2042.42
1940.88
782.913
2059.13
2002.31
2047.21
2054.59
2056.2
2056.33
2056.32
2056.33
2056.35
2056.32
2056.34
2056.36
2056.32
2056.35
2056.34
2056.22
2054.61
2040.18
1930.4
851.874
2029.41
1995.75
2045.3
2053.42
2055.32
2055.47
2055.48
2055.47
2055.5
2055.46
2055.49
2055.5
2055.46
2055.51
2055.49
2055.34
2053.51
2037.66
1921.99
931.476
1997.41
1989.29
2043.01
2052.07
2054.19
2054.35
2054.37
2054.35
2054.38
2054.34
2054.37
2054.39
2054.33
2054.4
2054.38
2054.21
2052.26
2035.08
1915.83
1017.61
1964.66
1983.42
2040.59
2050.52
2052.89
2053.06
2053.09
2053.05
2053.1
2053.05
2053.09
2053.11
2053.03
2053.12
2053.11
2052.91
2050.83
2032.91
1911.93
1105.68
1932.25
1977.86
2038.09
2048.88
2051.48
2051.66
2051.69
2051.65
2051.71
2051.66
2051.7
2051.72
2051.62
2051.72
2051.72
2051.51
2049.34
2030.86
1910.19
1192.01
1901.29
1972.9
2035.54
2047.15
2049.97
2050.15
2050.18
2050.13
2050.21
2050.16
2050.19
2050.23
2050.09
2050.35
2050.24
2050.01
2047.78
2028.97
1910.41
1274.86
1872.81
1968.6
2033.38
2045.32
2048.34
2048.53
2048.69
2048.48
2048.58
2048.54
2048.56
2048.61
2048.42
2048.73
2048.62
2048.4
2046.15
2027.42
1912.42
1353.44
1847.62
1965.1
2031.08
2043.36
2046.57
2046.75
2046.91
2046.67
2046.8
2046.76
2046.78
2046.83
2046.76
2046.95
2046.86
2046.64
2044.42
2025.89
1916.17
1427.21
1826.33
1962.22
2028.62
2041.24
2044.61
2044.77
2044.94
2044.66
2044.83
2044.78
2044.8
2044.87
2044.75
2044.98
2044.91
2044.69
2042.54
2024.43
1920.64
1495.79
1809.29
1959.85
2026.1
2038.91
2042.43
2042.56
2042.73
2042.39
2042.62
2042.56
2042.57
2042.67
2042.49
2042.79
2042.72
2042.52
2040.48
2022.99
1925.92
1558.91
1796.66
1957.96
2023.46
2036.32
2039.97
2040.06
2040.22
2039.81
2040.11
2040.05
2040.05
2040.17
2039.9
2040.3
2040.25
2040.06
2038.17
2021.46
1931.66
1616.45
1788.41
1956.49
2021.09
2033.4
2037.17
2037.19
2037.37
2037.12
2037.24
2037.17
2037.16
2037.31
2036.93
2037.46
2037.41
2037.26
2035.55
2019.77
1937.54
1668.36
1783.86
1955.31
2018.42
2030.08
2033.94
2033.89
2034.08
2033.76
2033.94
2033.84
2033.83
2034.02
2033.8
2034.2
2034.15
2034.03
2032.55
2017.8
1943.66
1714.68
1783.33
1954.27
2015.28
2026.56
2030.2
2030.07
2030.27
2029.86
2030.11
2030
2029.97
2030.21
2030.12
2030.41
2030.36
2030.3
2029.04
2015.45
1949.44
1755.54
1785.95
1953.2
2011.77
2022.37
2025.84
2025.63
2025.84
2025.7
2025.65
2025.52
2025.48
2025.79
2025.63
2026.01
2025.96
2025.95
2025.02
2012.59
1954.29
1791.09
1791.36
1951.94
2007.75
2017.74
2021.24
2020.88
2021.12
2020.91
2020.9
2020.74
2020.66
2021.07
2020.85
2021.32
2021.27
2021.32
2020.67
2009.08
1958.35
1821.54
1798.2
1950.29
2003.05
2012.18
2015.61
2015.07
2015.32
2015.04
2015.06
2014.87
2014.85
2015.28
2014.99
2015.57
2015.52
2015.67
2015.52
2004.78
1961.33
1847.14
1805.76
1948.05
1997.45
2005.99
2009.4
2008.68
2008.96
2008.6
2008.65
2008.44
2008.37
2008.93
2008.55
2009.24
2009.19
2009.43
2009.67
1999.95
1962.96
1867.83
1814.76
1945.03
1991.64
1998.85
2002.22
2001.3
2001.6
2001.16
2001.25
2001
2000.9
2001.57
2001.1
2001.92
2001.87
2002.19
2002.86
1993.77
1963.06
1883.75
1824.1
1940.99
1984.85
1990.58
1993.92
1992.76
1993.09
1992.55
1992.69
1992.4
1992.28
1993.06
1992.49
1993.45
1993.4
1993.82
1994.95
1986.7
1961.59
1895.43
1832.3
1935.71
1976.9
1981
1984.32
1982.88
1983.26
1982.6
1982.79
1982.45
1982.31
1983.23
1982.53
1983.66
1983.62
1984.14
1985.76
1978.3
1958.1
1903.11
1838.27
1928.89
1967.55
1969.93
1973.22
1971.49
1971.91
1971.13
1971.39
1970.99
1970.81
1971.88
1971.05
1972.37
1972.33
1972.95
1975.08
1968.35
1952.37
1906.96
1842.86
1920.57
1956.58
1957.15
1960.41
1958.37
1958.84
1957.92
1958.25
1957.78
1957.56
1958.79
1957.83
1959.36
1959.3
1960.04
1962.7
1956.64
1945.02
1907.12
1845.25
1910.24
1943.73
1942.4
1945.64
1943.28
1943.8
1942.72
1943.16
1942.58
1942.33
1943.75
1942.62
1944.39
1944.31
1945.19
1948.37
1942.96
1935.33
1903.65
1844.6
1897.58
1928.74
1925.42
1928.65
1925.96
1926.53
1925.27
1925.85
1925.14
1924.84
1926.47
1925.16
1927.2
1927.09
1928.12
1931.81
1927.03
1923.05
1896.54
1840.63
1882.24
1911.33
1905.89
1908.64
1905.8
1906.44
1905.28
1905.7
1905.16
1904.81
1906.66
1905.17
1907.17
1907.02
1908.03
1912.73
1907.57
1907.89
1885.72
1832.99
1863.35
1889.77
1883.51
1886.22
1883.07
1883.77
1882.44
1883
1882.33
1881.93
1884.03
1882.32
1884.59
1884.38
1885.53
1890.81
1885.47
1889.59
1871.08
1821.21
1841.57
1866.11
1857.93
1860.6
1857.13
1857.9
1856.39
1857.09
1856.3
1855.84
1858.2
1856.27
1858.83
1858.55
1859.82
1865.71
1860.62
1867.83
1852.4
1804.81
1816.03
1838.78
1828.78
1831.4
1827.61
1828.47
1826.78
1827.6
1826.7
1826.17
1828.82
1826.64
1829.49
1829.15
1830.53
1837.03
1832.1
1842.24
1829.41
1783.29
1786.28
1807.31
1795.63
1798.21
1794.11
1795.05
1793.18
1794.13
1793.12
1792.52
1795.47
1793.03
1796.16
1795.76
1797.25
1804.33
1799.49
1812.41
1801.86
1756.25
1751.76
1771.33
1758.02
1760.6
1756.16
1757.2
1755.16
1756.23
1755.11
1754.45
1757.7
1755
1758.4
1757.93
1759.54
1767.15
1762.34
1777.85
1769.32
1723.16
1711.95
1730.31
1715.43
1718.1
1713.28
1714.45
1712.22
1713.42
1712.2
1711.47
1715.03
1712.05
1715.69
1715.18
1716.87
1724.98
1720.15
1738.03
1731.33
1683.31
1666.36
1683.58
1667.36
1670.14
1664.95
1666.23
1663.84
1665.16
1663.84
1663.05
1666.89
1663.65
1667.48
1666.95
1668.69
1677.26
1672.36
1692.35
1687.32
1636.02
1614.33
1630.49
1613.18
1616.12
1610.54
1611.93
1609.4
1610.84
1609.42
1608.57
1612.68
1609.2
1613.15
1612.63
1614.35
1623.34
1618.36
1640.15
1636.64
1580.51
1554.71
1570.26
1551.5
1554.46
1549.35
1550.85
1548.21
1549.76
1548.25
1547.34
1551.69
1547.98
1552.01
1551.51
1553.02
1562.11
1557.42
1580.67
1578.5
1515.94
1487.46
1502.06
1482.78
1485.88
1480.56
1482.16
1479.42
1481.07
1479.49
1478.54
1483.08
1479.18
1483.23
1482.76
1484.15
1493.46
1488.72
1512.98
1512
1441.21
1411.15
1424.82
1405.39
1408.58
1403.17
1404.84
1402.06
1403.77
1402.15
1401.16
1405.84
1401.8
1405.83
1405.38
1406.67
1416
1411.26
1435.99
1436.03
1354.99
1324.52
1337.21
1318.08
1321.29
1315.92
1317.64
1314.88
1316.62
1314.99
1313.99
1318.7
1314.61
1318.55
1318.12
1319.29
1328.44
1323.75
1348.33
1349.2
1255.55
1225.92
1237.53
1219.21
1222.37
1217.21
1218.93
1216.25
1217.98
1216.39
1215.4
1220.01
1215.98
1219.76
1219.35
1220.37
1229.09
1224.57
1248.23
1249.7
1140.45
1113.06
1123.4
1106.56
1109.56
1104.79
1106.44
1103.95
1105.59
1104.1
1103.16
1107.49
1103.69
1107.16
1106.81
1107.63
1115.64
1111.42
1133.23
1135.05
1006.08
982.521
991.257
976.741
979.445
975.291
976.783
974.616
976.07
974.768
973.937
977.73
974.385
977.364
977.086
977.679
984.588
980.886
999.677
1001.55
846.344
828.624
835.213
824.205
826.374
823.182
824.372
822.711
823.841
822.844
822.208
825.102
822.544
824.766
824.596
824.936
830.181
827.313
841.477
843.045
647.99
639.176
642.579
637.058
638.253
636.62
637.254
636.417
636.991
636.494
636.191
637.594
636.354
637.402
637.36
637.451
640.054
638.582
645.52
646.298
)
;

boundaryField
{
    fuel
    {
        type            fixedValue;
        value           uniform 353;
    }
    wall
    {
        type            fixedValue;
        value           uniform 511;
    }
    outlet
    {
        type            inletOutlet;
        inletValue      uniform 353;
        value           nonuniform List<scalar> 
100
(
453.906
631.796
1002.08
1774.95
2024.2
2081.08
2077.69
2055.05
2025.97
1994.38
1961.83
1929.54
1898.71
1870.39
1845.41
1824.34
1807.55
1795.17
1787.18
1782.85
1782.56
1785.35
1790.98
1797.94
1805.61
1814.7
1824.1
1832.29
1838.23
1842.86
1845.26
1844.6
1840.61
1832.95
1821.15
1804.72
1783.18
1756.11
1723.01
1683.14
1635.83
1580.33
1515.75
1441.02
1354.82
1255.38
1140.31
1005.96
846.262
647.951
418.628
504.532
570.886
353
353
353
353
353
931.33
1017.58
1105.76
1192.17
1275.09
1353.72
1427.54
1496.15
1559.3
1616.85
1668.76
1715.08
1755.92
1791.45
1821.88
1847.45
1868.11
1883.99
1895.64
1903.28
1907.11
1907.24
1903.74
1896.61
1885.77
1871.11
1852.43
1829.42
1801.86
1769.32
1731.32
1687.31
1636.63
1578.49
1511.99
1436.02
1349.19
1249.69
1135.05
1001.55
843.044
646.298
)
;
    }
    frontAndBack
    {
        type            empty;
    }
}


// ************************************************************************* //
