/*--------------------------------*- C++ -*----------------------------------*\
| =========                 |                                                 |
| \\      /  F ield         | OpenFOAM: The Open Source CFD Toolbox           |
|  \\    /   O peration     | Version:  dev                                   |
|   \\  /    A nd           | Web:      www.OpenFOAM.org                      |
|    \\/     M anipulation  |                                                 |
\*---------------------------------------------------------------------------*/
FoamFile
{
    version     2.0;
    format      ascii;
    class       volScalarField;
    location    "0";
    object      A1C2H3;
}
// * * * * * * * * * * * * * * * * * * * * * * * * * * * * * * * * * * * * * //

dimensions      [0 0 0 0 0 0 0];

internalField   nonuniform List<scalar> 
250
(
6.89974e-10
6.88189e-10
6.90753e-10
6.88405e-10
6.89678e-10
6.99539e-10
7.49718e-10
9.74889e-10
2.57274e-09
6.70656e-09
7.06399e-10
7.03791e-10
7.06932e-10
7.03659e-10
7.04916e-10
7.13895e-10
7.59913e-10
9.69845e-10
2.28204e-09
5.52823e-09
2.86929e-08
2.93951e-09
1.07354e-09
7.99746e-10
7.39953e-10
7.34778e-10
7.32877e-10
7.35692e-10
7.33814e-10
7.35455e-10
7.36393e-10
7.32684e-10
7.36627e-10
7.32135e-10
7.33408e-10
7.4154e-10
7.83131e-10
9.82435e-10
2.08074e-09
4.71715e-09
2.29391e-08
2.7762e-09
1.09493e-09
8.44004e-10
7.82495e-10
7.80254e-10
7.77693e-10
7.81626e-10
7.79342e-10
7.81554e-10
7.82679e-10
7.77528e-10
7.82571e-10
7.76459e-10
7.77794e-10
7.85075e-10
8.21871e-10
1.01427e-09
1.93698e-09
4.16284e-09
1.90491e-08
2.66906e-09
1.13698e-09
9.08366e-10
8.44278e-10
8.45495e-10
8.42128e-10
8.47522e-10
8.44638e-10
8.47601e-10
8.49004e-10
8.41977e-10
8.48507e-10
8.40226e-10
8.41698e-10
8.48078e-10
8.79561e-10
1.06856e-09
1.85952e-09
3.8006e-09
1.56672e-08
2.62228e-09
1.20412e-09
9.97848e-10
9.30118e-10
9.35498e-10
9.31139e-10
9.38463e-10
9.34668e-10
9.38682e-10
9.40476e-10
9.31005e-10
9.39521e-10
9.28321e-10
9.3005e-10
9.35405e-10
9.60885e-10
1.14982e-09
1.8493e-09
3.59127e-09
1.27336e-08
2.6342e-09
1.30222e-09
1.11932e-09
1.0466e-09
1.0571e-09
1.0515e-09
1.06141e-09
1.05616e-09
1.06176e-09
1.06409e-09
1.05142e-09
1.06258e-09
1.04742e-09
1.0496e-09
1.05367e-09
1.07226e-09
1.26422e-09
1.8956e-09
3.51171e-09
1.08842e-08
2.713e-09
1.43927e-09
1.28239e-09
1.2029e-09
1.21981e-09
1.21261e-09
1.22609e-09
1.21842e-09
1.22654e-09
1.22962e-09
1.2127e-09
1.2274e-09
1.20681e-09
1.20973e-09
1.21201e-09
1.22266e-09
1.4202e-09
2.00183e-09
3.55111e-09
9.51376e-09
2.86989e-09
1.62618e-09
1.50093e-09
1.41969e-09
1.44195e-09
1.43273e-09
1.44657e-09
1.44033e-09
1.44706e-09
1.4512e-09
1.42852e-09
1.44805e-09
1.42492e-09
1.4289e-09
1.43105e-09
1.42501e-09
1.64593e-09
2.17698e-09
3.7094e-09
8.5992e-09
3.1337e-09
1.90369e-09
1.7956e-09
1.70487e-09
1.73704e-09
1.72504e-09
1.74406e-09
1.73443e-09
1.7446e-09
1.75026e-09
1.71955e-09
1.74583e-09
1.714e-09
1.71964e-09
1.71895e-09
1.69815e-09
1.94693e-09
2.43643e-09
3.9983e-09
8.07448e-09
3.52039e-09
2.26394e-09
2.19971e-09
2.09642e-09
2.14253e-09
2.12658e-09
2.15293e-09
2.1388e-09
2.15349e-09
2.16145e-09
2.11902e-09
2.15516e-09
2.11093e-09
2.11895e-09
2.11421e-09
2.07237e-09
2.34937e-09
2.80682e-09
4.44575e-09
7.9269e-09
4.09597e-09
2.77384e-09
2.77083e-09
2.6502e-09
2.71718e-09
2.69526e-09
2.73267e-09
2.71203e-09
2.73319e-09
2.74482e-09
2.68424e-09
2.73569e-09
2.67264e-09
2.68427e-09
2.67321e-09
2.5995e-09
2.91785e-09
3.33517e-09
5.10622e-09
8.19688e-09
4.97006e-09
3.52438e-09
3.61733e-09
3.47134e-09
3.5723e-09
3.5406e-09
3.59608e-09
3.56488e-09
3.59644e-09
3.61447e-09
3.52338e-09
3.60065e-09
3.50672e-09
3.52421e-09
3.50226e-09
3.37598e-09
3.7569e-09
4.10791e-09
6.07772e-09
5.01051e-09
4.86284e-09
4.98821e-09
4.83865e-09
4.86647e-09
4.82362e-09
4.60157e-09
5.08366e-09
5.29858e-09
7.56199e-09
)
;

boundaryField
{
    fuel
    {
        type            fixedValue;
        value           nonuniform 0();
    }
    wall
    {
        type            zeroGradient;
    }
    outlet
    {
        type            zeroGradient;
    }
    frontAndBack
    {
        type            empty;
    }
    procBoundary0to1
    {
        type            processor;
        value           nonuniform List<scalar> 
21
(
9.0223e-09
6.3719e-09
4.6985e-09
4.96678e-09
4.77703e-09
4.94167e-09
4.89167e-09
4.98018e-09
4.92947e-09
4.98007e-09
4.98007e-09
7.47166e-09
7.21118e-09
7.43288e-09
7.1765e-09
7.22276e-09
7.13865e-09
6.72547e-09
7.38379e-09
7.28746e-09
9.97962e-09
)
;
    }
    procBoundary0to2
    {
        type            processor;
        value           nonuniform List<scalar> 
12
(
6.89307e-10
3.6566e-08
3.15715e-09
1.06949e-09
7.71957e-10
7.13114e-10
7.05427e-10
7.04065e-10
7.06025e-10
7.04418e-10
7.05612e-10
7.05612e-10
)
;
    }
    procBoundary0to3
    {
        type            processor;
        value           nonuniform List<scalar> 10(6.85245e-10 6.84028e-10 6.86174e-10 6.84535e-10 6.85843e-10 6.96436e-10 7.50989e-10 9.95212e-10 2.97916e-09 8.47275e-09);
    }
}


// ************************************************************************* //
