/*--------------------------------*- C++ -*----------------------------------*\
| =========                 |                                                 |
| \\      /  F ield         | OpenFOAM: The Open Source CFD Toolbox           |
|  \\    /   O peration     | Version:  dev                                   |
|   \\  /    A nd           | Web:      www.OpenFOAM.org                      |
|    \\/     M anipulation  |                                                 |
\*---------------------------------------------------------------------------*/
FoamFile
{
    version     2.0;
    format      ascii;
    class       volScalarField;
    location    "0";
    object      A2C2HA;
}
// * * * * * * * * * * * * * * * * * * * * * * * * * * * * * * * * * * * * * //

dimensions      [0 0 0 0 0 0 0];

internalField   nonuniform List<scalar> 
25
(
1.9899e-14
1.7887e-14
1.56036e-14
1.374e-14
1.21034e-14
1.0696e-14
9.53641e-15
8.61615e-15
7.90543e-15
7.37299e-15
6.99051e-15
6.73361e-15
6.5865e-15
6.54269e-15
6.59817e-15
6.75067e-15
6.99712e-15
7.33246e-15
7.7496e-15
8.24023e-15
8.79587e-15
9.4087e-15
1.00711e-14
1.07763e-14
1.15164e-14
)
;

boundaryField
{
    wall
    {
        type            zeroGradient;
    }
    fuel
    {
        type            fixedValue;
        value           uniform 0;
    }
    outlet
    {
        type            inletOutlet;
        inletValue      nonuniform 0();
        value           nonuniform 0();
    }
    procBoundary0to1
    {
        type            processor;
        value           uniform 1.22817e-14;
    }
}


// ************************************************************************* //
