/*--------------------------------*- C++ -*----------------------------------*\
| =========                 |                                                 |
| \\      /  F ield         | OpenFOAM: The Open Source CFD Toolbox           |
|  \\    /   O peration     | Version:  dev                                   |
|   \\  /    A nd           | Web:      www.OpenFOAM.org                      |
|    \\/     M anipulation  |                                                 |
\*---------------------------------------------------------------------------*/
FoamFile
{
    version     2.0;
    format      ascii;
    class       volScalarField;
    location    "0";
    object      A2C2HB;
}
// * * * * * * * * * * * * * * * * * * * * * * * * * * * * * * * * * * * * * //

dimensions      [0 0 0 0 0 0 0];

internalField   nonuniform List<scalar> 
250
(
4.50398e-10
4.51106e-10
4.51857e-10
4.52468e-10
4.53584e-10
4.63308e-10
5.15292e-10
7.316e-10
2.48602e-09
3.82199e-09
4.3242e-10
4.32928e-10
4.33678e-10
4.34102e-10
4.35177e-10
4.44052e-10
4.91636e-10
6.77559e-10
2.04704e-09
3.39389e-09
1.76331e-08
2.4296e-09
7.54229e-10
4.75055e-10
4.31856e-10
4.21825e-10
4.21566e-10
4.21536e-10
4.20663e-10
4.20668e-10
4.20955e-10
4.21101e-10
4.21969e-10
4.22077e-10
4.2313e-10
4.31246e-10
4.74572e-10
6.39483e-10
1.72892e-09
3.02339e-09
1.4991e-08
2.16375e-09
7.15854e-10
4.66681e-10
4.255e-10
4.17127e-10
4.16575e-10
4.16895e-10
4.15994e-10
4.16212e-10
4.16534e-10
4.16168e-10
4.17301e-10
4.16925e-10
4.17979e-10
4.25397e-10
4.64531e-10
6.1321e-10
1.47525e-09
2.7166e-09
1.29445e-08
1.93769e-09
6.87607e-10
4.66413e-10
4.26853e-10
4.20234e-10
4.19361e-10
4.20147e-10
4.19135e-10
4.19617e-10
4.20003e-10
4.18971e-10
4.20533e-10
4.19465e-10
4.20553e-10
4.27318e-10
4.62262e-10
5.9859e-10
1.29113e-09
2.47513e-09
1.08949e-08
1.7576e-09
6.70331e-10
4.75207e-10
4.369e-10
4.32126e-10
4.30906e-10
4.32277e-10
4.31055e-10
4.31874e-10
4.32357e-10
4.30507e-10
4.32657e-10
4.30679e-10
4.31847e-10
4.37988e-10
4.68729e-10
5.95818e-10
1.18069e-09
2.2959e-09
8.8445e-09
1.61052e-09
6.6472e-10
4.93888e-10
4.56553e-10
4.53657e-10
4.52074e-10
4.54131e-10
4.5257e-10
4.53827e-10
4.54437e-10
4.5165e-10
4.54517e-10
4.51438e-10
4.52748e-10
4.58287e-10
4.84867e-10
6.05005e-10
1.11114e-09
2.17168e-09
7.36953e-09
1.49468e-09
6.71043e-10
5.22738e-10
4.86248e-10
4.85133e-10
4.83195e-10
4.85982e-10
4.83936e-10
4.85747e-10
4.86503e-10
4.82734e-10
4.86376e-10
4.82099e-10
4.83614e-10
4.88547e-10
5.11234e-10
6.25889e-10
1.07403e-09
2.09358e-09
6.09876e-09
1.40555e-09
6.88686e-10
5.61002e-10
5.26922e-10
5.26721e-10
5.2449e-10
5.27041e-10
5.25459e-10
5.26844e-10
5.27737e-10
5.23062e-10
5.27432e-10
5.23012e-10
5.24757e-10
5.29542e-10
5.47504e-10
6.59917e-10
1.06259e-09
2.05171e-09
5.06342e-09
1.33546e-09
7.18637e-10
6.0646e-10
5.73814e-10
5.74587e-10
5.72147e-10
5.75094e-10
5.73154e-10
5.74921e-10
5.75917e-10
5.70554e-10
5.75469e-10
5.70288e-10
5.72265e-10
5.76527e-10
5.91803e-10
7.01576e-10
1.07026e-09
2.03534e-09
4.2218e-09
1.28367e-09
7.52766e-10
6.55569e-10
6.24757e-10
6.25989e-10
6.2347e-10
6.26592e-10
6.24458e-10
6.26434e-10
6.27472e-10
6.21763e-10
6.26932e-10
6.21362e-10
6.23499e-10
6.27343e-10
6.4087e-10
7.46017e-10
1.09016e-09
2.03312e-09
3.54375e-09
1.24193e-09
7.88997e-10
7.0398e-10
6.75476e-10
6.76618e-10
6.74163e-10
6.77196e-10
6.75058e-10
6.77052e-10
6.78057e-10
6.72401e-10
6.77479e-10
6.71968e-10
6.74163e-10
6.77716e-10
6.90398e-10
7.89993e-10
1.11514e-09
2.03376e-09
2.99971e-09
1.20517e-09
8.22819e-10
7.47467e-10
7.21685e-10
7.22284e-10
7.20027e-10
7.22734e-10
7.20749e-10
7.22612e-10
7.23517e-10
7.18276e-10
7.22945e-10
7.17898e-10
7.20041e-10
7.23399e-10
7.35945e-10
8.2894e-10
1.13829e-09
2.02705e-09
7.6085e-10
7.5627e-10
7.60311e-10
7.55992e-10
7.57998e-10
7.61203e-10
7.73979e-10
8.59455e-10
1.15406e-09
2.00531e-09
)
;

boundaryField
{
    fuel
    {
        type            fixedValue;
        value           nonuniform 0();
    }
    wall
    {
        type            zeroGradient;
    }
    outlet
    {
        type            zeroGradient;
    }
    frontAndBack
    {
        type            empty;
    }
    procBoundary0to1
    {
        type            processor;
        value           nonuniform List<scalar> 
21
(
2.56346e-09
1.1697e-09
8.505e-10
7.82916e-10
7.60111e-10
7.5991e-10
7.57951e-10
7.60176e-10
7.58448e-10
7.6009e-10
7.6009e-10
7.88773e-10
7.84952e-10
7.88273e-10
7.84777e-10
7.86592e-10
7.89636e-10
8.0263e-10
8.79971e-10
1.15898e-09
1.96404e-09
)
;
    }
    procBoundary0to2
    {
        type            processor;
        value           nonuniform List<scalar> 
12
(
4.50079e-10
2.07057e-08
2.73712e-09
8.02027e-10
4.90723e-10
4.45121e-10
4.33494e-10
4.33507e-10
4.33229e-10
4.3231e-10
4.32142e-10
4.32142e-10
)
;
    }
    procBoundary0to3
    {
        type            processor;
        value           nonuniform List<scalar> 10(4.74783e-10 4.75437e-10 4.76278e-10 4.7698e-10 4.7815e-10 4.88619e-10 5.45652e-10 7.95969e-10 3.0825e-09 4.29545e-09);
    }
}


// ************************************************************************* //
