/*--------------------------------*- C++ -*----------------------------------*\
| =========                 |                                                 |
| \\      /  F ield         | OpenFOAM: The Open Source CFD Toolbox           |
|  \\    /   O peration     | Version:  dev                                   |
|   \\  /    A nd           | Web:      www.OpenFOAM.org                      |
|    \\/     M anipulation  |                                                 |
\*---------------------------------------------------------------------------*/
FoamFile
{
    version     2.0;
    format      ascii;
    class       volScalarField;
    location    "0";
    object      A2C2H22;
}
// * * * * * * * * * * * * * * * * * * * * * * * * * * * * * * * * * * * * * //

dimensions      [0 0 0 0 0 0 0];

internalField   nonuniform List<scalar> 
250
(
1.00646e-14
1.01312e-14
1.01153e-14
1.01927e-14
1.0215e-14
1.04804e-14
1.17875e-14
1.55463e-14
3.98567e-14
3.61529e-14
9.03121e-15
9.09664e-15
9.07527e-15
9.15188e-15
9.17221e-15
9.40794e-15
1.05755e-14
1.36434e-14
3.27149e-14
3.45201e-14
1.39085e-13
3.18709e-14
1.4094e-14
9.14314e-15
8.48772e-15
8.1853e-15
8.20396e-15
8.16424e-15
8.156e-15
8.13504e-15
8.13231e-15
8.19359e-15
8.16891e-15
8.24326e-15
8.26191e-15
8.47134e-15
9.50696e-15
1.21093e-14
2.72623e-14
3.23508e-14
1.18077e-13
2.70155e-14
1.24658e-14
8.24109e-15
7.66917e-15
7.40416e-15
7.41843e-15
7.38101e-15
7.37636e-15
7.35797e-15
7.35444e-15
7.40995e-15
7.38434e-15
7.45459e-15
7.47176e-15
7.65774e-15
8.56836e-15
1.07905e-14
2.26039e-14
2.99398e-14
1.0144e-13
2.28227e-14
1.10322e-14
7.4616e-15
6.96388e-15
6.73445e-15
6.74471e-15
6.7106e-15
6.70838e-15
6.69253e-15
6.68825e-15
6.73697e-15
6.71255e-15
6.77684e-15
6.79269e-15
6.95777e-15
7.75012e-15
9.65862e-15
1.88834e-14
2.74992e-14
8.41833e-14
1.93757e-14
9.78384e-15
6.79538e-15
6.36378e-15
6.1676e-15
6.17429e-15
6.14415e-15
6.14352e-15
6.13001e-15
6.12528e-15
6.16673e-15
6.14503e-15
6.20195e-15
6.21664e-15
6.36313e-15
7.04437e-15
8.69137e-15
1.6276e-14
2.51488e-14
6.64292e-14
1.64239e-14
8.70771e-15
6.23092e-15
5.85881e-15
5.69267e-15
5.69642e-15
5.67034e-15
5.67074e-15
5.65927e-15
5.65439e-15
5.68879e-15
5.67052e-15
5.71952e-15
5.73321e-15
5.86335e-15
6.44176e-15
7.8661e-15
1.41721e-14
2.29165e-14
5.34234e-14
1.39146e-14
7.78543e-15
5.75057e-15
5.43342e-15
5.29276e-15
5.29444e-15
5.27151e-15
5.27289e-15
5.26279e-15
5.25793e-15
5.28641e-15
5.27121e-15
5.31334e-15
5.3261e-15
5.44158e-15
5.92819e-15
7.1587e-15
1.24366e-14
2.07887e-14
4.20075e-14
1.17726e-14
6.99106e-15
5.32752e-15
5.05632e-15
4.93818e-15
4.93873e-15
4.92082e-15
4.91969e-15
4.91389e-15
4.90896e-15
4.93373e-15
4.92015e-15
4.95397e-15
4.96574e-15
5.06478e-15
5.48113e-15
6.50881e-15
1.09648e-14
1.87298e-14
3.25843e-14
9.86867e-15
6.24351e-15
4.92614e-15
4.70463e-15
4.60017e-15
4.60102e-15
4.58289e-15
4.5837e-15
4.57733e-15
4.57198e-15
4.5961e-15
4.58181e-15
4.61425e-15
4.62452e-15
4.71072e-15
5.06623e-15
5.91715e-15
9.67088e-15
1.66958e-14
2.48702e-14
8.25413e-15
5.5773e-15
4.50739e-15
4.33298e-15
4.23683e-15
4.23917e-15
4.21928e-15
4.22261e-15
4.2148e-15
4.20862e-15
4.23524e-15
4.21773e-15
4.2518e-15
4.25995e-15
4.3347e-15
4.64356e-15
5.33687e-15
8.47913e-15
1.46458e-14
1.86546e-14
6.80948e-15
4.90907e-15
4.03855e-15
3.90818e-15
3.81672e-15
3.82141e-15
3.7986e-15
3.80493e-15
3.79508e-15
3.78776e-15
3.81912e-15
3.79655e-15
3.83452e-15
3.83999e-15
3.90479e-15
4.17674e-15
4.71976e-15
7.32833e-15
1.25565e-14
1.37112e-14
5.49626e-15
4.21275e-15
3.50454e-15
3.4135e-15
3.32576e-15
3.33305e-15
3.30734e-15
3.31659e-15
3.30471e-15
3.29625e-15
3.33279e-15
3.30482e-15
3.34698e-15
3.34956e-15
3.40534e-15
3.64527e-15
4.0496e-15
6.18191e-15
1.04451e-14
2.745e-15
2.7851e-15
2.75315e-15
2.79758e-15
2.79757e-15
2.84471e-15
3.05281e-15
3.33549e-15
5.03571e-15
8.35729e-15
)
;

boundaryField
{
    fuel
    {
        type            fixedValue;
        value           nonuniform 0();
    }
    wall
    {
        type            zeroGradient;
    }
    outlet
    {
        type            zeroGradient;
    }
    frontAndBack
    {
        type            empty;
    }
    procBoundary0to1
    {
        type            processor;
        value           nonuniform List<scalar> 
21
(
9.83822e-15
4.29859e-15
3.48701e-15
2.91384e-15
2.85681e-15
2.77369e-15
2.78334e-15
2.75585e-15
2.76735e-15
2.75407e-15
2.75407e-15
2.16671e-15
2.20709e-15
2.17408e-15
2.21715e-15
2.21548e-15
2.25377e-15
2.42786e-15
2.6107e-15
3.91734e-15
6.37073e-15
)
;
    }
    procBoundary0to2
    {
        type            processor;
        value           nonuniform List<scalar> 
12
(
1.00623e-14
1.63696e-13
3.74511e-14
1.59336e-14
1.01762e-14
9.42983e-15
9.08649e-15
9.11037e-15
9.06926e-15
9.05597e-15
9.03238e-15
9.03238e-15
)
;
    }
    procBoundary0to3
    {
        type            processor;
        value           nonuniform List<scalar> 10(1.12539e-14 1.1313e-14 1.13046e-14 1.13812e-14 1.14061e-14 1.16994e-14 1.31658e-14 1.76372e-14 4.91864e-14 3.68351e-14);
    }
}


// ************************************************************************* //
