/*--------------------------------*- C++ -*----------------------------------*\
| =========                 |                                                 |
| \\      /  F ield         | OpenFOAM: The Open Source CFD Toolbox           |
|  \\    /   O peration     | Version:  dev                                   |
|   \\  /    A nd           | Web:      www.OpenFOAM.org                      |
|    \\/     M anipulation  |                                                 |
\*---------------------------------------------------------------------------*/
FoamFile
{
    version     2.0;
    format      ascii;
    class       volScalarField;
    location    "0";
    object      A2R5;
}
// * * * * * * * * * * * * * * * * * * * * * * * * * * * * * * * * * * * * * //

dimensions      [0 0 0 0 0 0 0];

internalField   nonuniform List<scalar> 
250
(
6.97952e-08
6.99652e-08
6.99823e-08
7.01704e-08
7.02781e-08
7.14272e-08
7.70621e-08
9.28045e-08
1.57764e-07
1.84215e-07
6.67231e-08
6.68927e-08
6.68962e-08
6.70845e-08
6.71859e-08
6.82611e-08
7.35983e-08
8.78699e-08
1.45419e-07
1.77099e-07
3.07238e-07
1.55229e-07
9.36726e-08
6.98565e-08
6.56215e-08
6.42689e-08
6.43045e-08
6.42185e-08
6.41411e-08
6.4091e-08
6.41073e-08
6.42648e-08
6.42585e-08
6.44439e-08
6.45409e-08
6.55487e-08
7.05678e-08
8.38255e-08
1.35122e-07
1.7014e-07
2.83444e-07
1.44332e-07
8.90736e-08
6.73159e-08
6.33243e-08
6.20957e-08
6.21123e-08
6.20354e-08
6.1967e-08
6.19277e-08
6.19387e-08
6.20774e-08
6.20675e-08
6.22448e-08
6.23389e-08
6.32857e-08
6.79709e-08
8.03321e-08
1.25495e-07
1.63453e-07
2.63406e-07
1.34247e-07
8.49521e-08
6.52166e-08
6.14634e-08
6.03587e-08
6.03565e-08
6.02913e-08
6.02291e-08
6.02009e-08
6.02066e-08
6.03225e-08
6.03151e-08
6.04784e-08
6.05712e-08
6.14639e-08
6.58032e-08
7.73632e-08
1.17132e-07
1.57153e-07
2.41622e-07
1.25501e-07
8.13261e-08
6.35438e-08
6.00256e-08
5.90419e-08
5.90215e-08
5.89698e-08
5.89114e-08
5.8894e-08
5.88948e-08
5.89858e-08
5.8986e-08
5.91301e-08
5.92228e-08
6.00692e-08
6.40539e-08
7.4893e-08
1.10956e-07
1.51314e-07
2.17799e-07
1.17616e-07
7.81991e-08
6.22758e-08
5.89907e-08
5.81221e-08
5.80849e-08
5.80468e-08
5.79907e-08
5.79831e-08
5.798e-08
5.80454e-08
5.80566e-08
5.8178e-08
5.82717e-08
5.90798e-08
6.27046e-08
7.28869e-08
1.05775e-07
1.45909e-07
1.99085e-07
1.10582e-07
7.55627e-08
6.13822e-08
5.83296e-08
5.75676e-08
5.75151e-08
5.74896e-08
5.74355e-08
5.74358e-08
5.74298e-08
5.74703e-08
5.7494e-08
5.75918e-08
5.76868e-08
5.84598e-08
6.17328e-08
7.13061e-08
1.01404e-07
1.40877e-07
1.81359e-07
1.04351e-07
7.33986e-08
6.08229e-08
5.79901e-08
5.73311e-08
5.72653e-08
5.7256e-08
5.71979e-08
5.72101e-08
5.72023e-08
5.72196e-08
5.7256e-08
5.73243e-08
5.74209e-08
5.81454e-08
6.11119e-08
7.0004e-08
9.76919e-08
1.3614e-07
1.65439e-07
9.86305e-08
7.14948e-08
6.05488e-08
5.79441e-08
5.73708e-08
5.72942e-08
5.72944e-08
5.72371e-08
5.72546e-08
5.72459e-08
5.72432e-08
5.72908e-08
5.73372e-08
5.74347e-08
5.81097e-08
6.07917e-08
6.90527e-08
9.4507e-08
1.31602e-07
1.51149e-07
9.38066e-08
7.0085e-08
6.05031e-08
5.81233e-08
5.76232e-08
5.75387e-08
5.75458e-08
5.74891e-08
5.75105e-08
5.75015e-08
5.74828e-08
5.7539e-08
5.75669e-08
5.76646e-08
5.82861e-08
6.07143e-08
6.83726e-08
9.17269e-08
1.27163e-07
1.38443e-07
8.95889e-08
6.89701e-08
6.06232e-08
5.84643e-08
5.80252e-08
5.79355e-08
5.79465e-08
5.7891e-08
5.79146e-08
5.79055e-08
5.78756e-08
5.7937e-08
5.79509e-08
5.80478e-08
5.86164e-08
6.08127e-08
6.78636e-08
8.92364e-08
1.22718e-07
1.27229e-07
8.58915e-08
6.80847e-08
6.08465e-08
5.89032e-08
5.85137e-08
5.84217e-08
5.84335e-08
5.838e-08
5.84041e-08
5.83952e-08
5.83588e-08
5.8422e-08
5.84265e-08
5.85215e-08
5.90395e-08
6.10214e-08
6.74607e-08
8.6934e-08
1.18221e-07
5.89138e-08
5.88753e-08
5.89371e-08
5.89367e-08
5.90284e-08
5.94989e-08
6.12802e-08
6.71068e-08
8.47371e-08
1.1362e-07
)
;

boundaryField
{
    fuel
    {
        type            fixedValue;
        value           nonuniform 0();
    }
    wall
    {
        type            zeroGradient;
    }
    outlet
    {
        type            zeroGradient;
    }
    frontAndBack
    {
        type            empty;
    }
    procBoundary0to1
    {
        type            processor;
        value           nonuniform List<scalar> 
21
(
1.17394e-07
8.26376e-08
6.73657e-08
6.11162e-08
5.93811e-08
5.90318e-08
5.894e-08
5.89501e-08
5.88996e-08
5.89226e-08
5.89226e-08
5.94156e-08
5.93785e-08
5.94362e-08
5.94345e-08
5.95218e-08
5.99477e-08
6.15397e-08
6.67577e-08
8.2587e-08
1.08897e-07
)
;
    }
    procBoundary0to2
    {
        type            processor;
        value           nonuniform List<scalar> 
12
(
6.97642e-08
3.32457e-07
1.66863e-07
9.87213e-08
7.28457e-08
6.83628e-08
6.68883e-08
6.69424e-08
6.68513e-08
6.67616e-08
6.67014e-08
6.67014e-08
)
;
    }
    procBoundary0to3
    {
        type            processor;
        value           nonuniform List<scalar> 10(7.33414e-08 7.34846e-08 7.35163e-08 7.37021e-08 7.38178e-08 7.50242e-08 8.09771e-08 9.79879e-08 1.72439e-07 1.91305e-07);
    }
}


// ************************************************************************* //
