/*--------------------------------*- C++ -*----------------------------------*\
| =========                 |                                                 |
| \\      /  F ield         | OpenFOAM: The Open Source CFD Toolbox           |
|  \\    /   O peration     | Version:  dev                                   |
|   \\  /    A nd           | Web:      www.OpenFOAM.org                      |
|    \\/     M anipulation  |                                                 |
\*---------------------------------------------------------------------------*/
FoamFile
{
    version     2.0;
    format      ascii;
    class       volScalarField;
    location    "0";
    object      A3;
}
// * * * * * * * * * * * * * * * * * * * * * * * * * * * * * * * * * * * * * //

dimensions      [0 0 0 0 0 0 0];

internalField   nonuniform List<scalar> 
25
(
6.14705e-11
1.65173e-11
4.53952e-12
1.29809e-12
3.83953e-13
1.23896e-13
4.37602e-14
1.76956e-14
8.39783e-15
4.50607e-15
2.70979e-15
1.75728e-15
1.21959e-15
8.9368e-16
6.82005e-16
5.34998e-16
4.26714e-16
3.43261e-16
2.76966e-16
2.23374e-16
1.79713e-16
1.44107e-16
1.15173e-16
9.18111e-17
7.30858e-17
)
;

boundaryField
{
    wall
    {
        type            zeroGradient;
    }
    fuel
    {
        type            fixedValue;
        value           uniform 0;
    }
    outlet
    {
        type            inletOutlet;
        inletValue      nonuniform 0();
        value           nonuniform 0();
    }
    procBoundary0to1
    {
        type            processor;
        value           uniform 5.84675e-17;
    }
}


// ************************************************************************* //
