/*--------------------------------*- C++ -*----------------------------------*\
| =========                 |                                                 |
| \\      /  F ield         | OpenFOAM: The Open Source CFD Toolbox           |
|  \\    /   O peration     | Version:  dev                                   |
|   \\  /    A nd           | Web:      www.OpenFOAM.org                      |
|    \\/     M anipulation  |                                                 |
\*---------------------------------------------------------------------------*/
FoamFile
{
    version     2.0;
    format      ascii;
    class       volScalarField;
    location    "0";
    object      A3C2H2;
}
// * * * * * * * * * * * * * * * * * * * * * * * * * * * * * * * * * * * * * //

dimensions      [0 0 0 0 0 0 0];

internalField   nonuniform List<scalar> 
250
(
1.73596e-16
1.74307e-16
1.74283e-16
1.75061e-16
1.75504e-16
1.79783e-16
2.01542e-16
2.74776e-16
7.11734e-16
6.66807e-16
1.61385e-16
1.62111e-16
1.61992e-16
1.62807e-16
1.63221e-16
1.67115e-16
1.87047e-16
2.48953e-16
6.01057e-16
6.33785e-16
1.48839e-15
5.66513e-16
2.67382e-16
1.70913e-16
1.56286e-16
1.5135e-16
1.51466e-16
1.51011e-16
1.50826e-16
1.50586e-16
1.50588e-16
1.51304e-16
1.51104e-16
1.51953e-16
1.52341e-16
1.559e-16
1.74099e-16
2.28024e-16
5.15455e-16
6.01276e-16
1.25201e-15
4.94547e-16
2.43993e-16
1.59242e-16
1.46166e-16
1.4168e-16
1.41759e-16
1.41294e-16
1.4117e-16
1.40946e-16
1.40921e-16
1.41619e-16
1.41356e-16
1.42233e-16
1.42597e-16
1.45866e-16
1.62418e-16
2.0965e-16
4.4091e-16
5.68448e-16
1.07857e-15
4.30206e-16
2.22528e-16
1.48558e-16
1.36959e-16
1.32881e-16
1.32932e-16
1.32457e-16
1.32385e-16
1.32171e-16
1.32118e-16
1.32801e-16
1.32488e-16
1.33388e-16
1.3373e-16
1.36749e-16
1.51731e-16
1.93267e-16
3.79824e-16
5.3518e-16
9.11257e-16
3.75602e-16
2.02753e-16
1.38591e-16
1.28411e-16
1.24696e-16
1.2473e-16
1.24237e-16
1.24216e-16
1.24002e-16
1.2392e-16
1.24598e-16
1.2424e-16
1.25166e-16
1.25483e-16
1.28289e-16
1.41769e-16
1.78396e-16
3.362e-16
5.01551e-16
7.46568e-16
3.2682e-16
1.84418e-16
1.29086e-16
1.20279e-16
1.16878e-16
1.16907e-16
1.16383e-16
1.16422e-16
1.16189e-16
1.16082e-16
1.16764e-16
1.16365e-16
1.17324e-16
1.17613e-16
1.20241e-16
1.32273e-16
1.646e-16
2.99676e-16
4.67192e-16
6.27283e-16
2.83243e-16
1.67303e-16
1.19817e-16
1.12343e-16
1.0921e-16
1.09243e-16
1.0867e-16
1.08793e-16
1.0851e-16
1.08381e-16
1.09078e-16
1.08635e-16
1.09645e-16
1.09899e-16
1.12367e-16
1.2302e-16
1.51545e-16
2.67985e-16
4.31773e-16
5.21278e-16
2.44241e-16
1.51261e-16
1.106e-16
1.04094e-16
1.01328e-16
1.0137e-16
1.00918e-16
1.0094e-16
1.00788e-16
1.0064e-16
1.01358e-16
1.00872e-16
1.01743e-16
1.01959e-16
1.04135e-16
1.13842e-16
1.37907e-16
2.39506e-16
3.95071e-16
4.30949e-16
2.07803e-16
1.34575e-16
1.01335e-16
9.59692e-17
9.34382e-17
9.34977e-17
9.30163e-17
9.31043e-17
9.29095e-17
9.27471e-17
9.34896e-17
9.29609e-17
9.38579e-17
9.40291e-17
9.59889e-17
1.04608e-16
1.24792e-16
2.13204e-16
3.57067e-16
3.53451e-16
1.76614e-16
1.19788e-16
9.20001e-17
8.76716e-17
8.53587e-17
8.54377e-17
8.49334e-17
8.50718e-17
8.48466e-17
8.46745e-17
8.54363e-17
8.48724e-17
8.57857e-17
8.59119e-17
8.7641e-17
9.52667e-17
1.12229e-16
1.88436e-16
3.17996e-16
2.87332e-16
1.48959e-16
1.05642e-16
8.26569e-17
7.92444e-17
7.7144e-17
7.72426e-17
7.67258e-17
7.68981e-17
7.66563e-17
7.64797e-17
7.72505e-17
7.66625e-17
7.75761e-17
7.76601e-17
7.91613e-17
8.58492e-17
9.98188e-17
1.64887e-16
2.78344e-16
2.31353e-16
1.24619e-16
9.22242e-17
7.34423e-17
7.08103e-17
6.89256e-17
6.90402e-17
6.8525e-17
6.87173e-17
6.84706e-17
6.82943e-17
6.90597e-17
6.84619e-17
6.93566e-17
6.94034e-17
7.0689e-17
7.6483e-17
8.77326e-17
1.42548e-16
2.39297e-16
6.0294e-17
6.10387e-17
6.0446e-17
6.1304e-17
6.13186e-17
6.24078e-17
6.73545e-17
7.61984e-17
1.2162e-16
2.01878e-16
)
;

boundaryField
{
    fuel
    {
        type            fixedValue;
        value           nonuniform 0();
    }
    wall
    {
        type            zeroGradient;
    }
    outlet
    {
        type            zeroGradient;
    }
    frontAndBack
    {
        type            empty;
    }
    procBoundary0to1
    {
        type            processor;
        value           nonuniform List<scalar> 
21
(
1.84594e-16
1.03414e-16
7.96981e-17
6.45301e-17
6.25511e-17
6.08796e-17
6.10065e-17
6.05063e-17
6.07085e-17
6.04651e-17
6.04651e-17
5.26571e-17
5.33669e-17
5.27937e-17
5.35994e-17
5.35883e-17
5.45038e-17
5.86637e-17
6.54381e-17
1.02376e-16
1.67077e-16
)
;
    }
    procBoundary0to2
    {
        type            processor;
        value           nonuniform List<scalar> 
12
(
1.73532e-16
1.79143e-15
6.46671e-16
2.93017e-16
1.83829e-16
1.67601e-16
1.62153e-16
1.62323e-16
1.61877e-16
1.61618e-16
1.61357e-16
1.61357e-16
)
;
    }
    procBoundary0to3
    {
        type            processor;
        value           nonuniform List<scalar> 10(1.87584e-16 1.88176e-16 1.88259e-16 1.88994e-16 1.89474e-16 1.94099e-16 2.17968e-16 3.02807e-16 8.54675e-16 7.01575e-16);
    }
}


// ************************************************************************* //
