/*--------------------------------*- C++ -*----------------------------------*\
| =========                 |                                                 |
| \\      /  F ield         | OpenFOAM: The Open Source CFD Toolbox           |
|  \\    /   O peration     | Version:  dev                                   |
|   \\  /    A nd           | Web:      www.OpenFOAM.org                      |
|    \\/     M anipulation  |                                                 |
\*---------------------------------------------------------------------------*/
FoamFile
{
    version     2.0;
    format      ascii;
    class       volScalarField;
    location    "0";
    object      c-C6H7;
}
// * * * * * * * * * * * * * * * * * * * * * * * * * * * * * * * * * * * * * //

dimensions      [0 0 0 0 0 0 0];

internalField   nonuniform List<scalar> 
25
(
1.46671e-10
5.02539e-11
1.50671e-11
4.30826e-12
1.18392e-12
3.26177e-13
8.82681e-14
2.38354e-14
6.569e-15
1.79769e-15
5.04917e-16
1.4145e-16
4.01692e-17
1.15939e-17
3.42108e-18
1.04745e-18
3.44682e-19
1.30349e-19
6.12294e-20
3.63204e-20
2.54544e-20
1.94537e-20
1.54413e-20
1.2456e-20
1.01266e-20
)
;

boundaryField
{
    wall
    {
        type            zeroGradient;
    }
    fuel
    {
        type            fixedValue;
        value           uniform 0;
    }
    outlet
    {
        type            inletOutlet;
        inletValue      nonuniform 0();
        value           nonuniform 0();
    }
    procBoundary0to1
    {
        type            processor;
        value           uniform 8.30413e-21;
    }
}


// ************************************************************************* //
