/*--------------------------------*- C++ -*----------------------------------*\
| =========                 |                                                 |
| \\      /  F ield         | OpenFOAM: The Open Source CFD Toolbox           |
|  \\    /   O peration     | Version:  dev                                   |
|   \\  /    A nd           | Web:      www.OpenFOAM.org                      |
|    \\/     M anipulation  |                                                 |
\*---------------------------------------------------------------------------*/
FoamFile
{
    version     2.0;
    format      ascii;
    class       volScalarField;
    location    "0";
    object      C2H3O;
}
// * * * * * * * * * * * * * * * * * * * * * * * * * * * * * * * * * * * * * //

dimensions      [0 0 0 0 0 0 0];

internalField   nonuniform List<scalar> 
250
(
3.51745e-10
3.52842e-10
3.52306e-10
3.53625e-10
3.53606e-10
3.55702e-10
3.63792e-10
3.65465e-10
3.63791e-10
3.29615e-10
3.36835e-10
3.38039e-10
3.37365e-10
3.38805e-10
3.38783e-10
3.4083e-10
3.48883e-10
3.4993e-10
3.53054e-10
3.13557e-10
5.35998e-10
3.16767e-10
3.37367e-10
3.25431e-10
3.259e-10
3.2261e-10
3.23178e-10
3.22388e-10
3.22433e-10
3.21999e-10
3.21873e-10
3.23154e-10
3.22353e-10
3.23913e-10
3.23893e-10
3.25888e-10
3.33859e-10
3.35263e-10
3.41927e-10
3.02994e-10
4.50726e-10
3.01964e-10
3.22292e-10
3.10326e-10
3.10912e-10
3.07587e-10
3.08153e-10
3.07279e-10
3.07397e-10
3.06946e-10
3.06778e-10
3.08125e-10
3.07211e-10
3.08887e-10
3.0887e-10
3.10812e-10
3.18651e-10
3.20285e-10
3.28616e-10
2.94707e-10
3.94437e-10
2.87e-10
3.06974e-10
2.95042e-10
2.95735e-10
2.92384e-10
2.92948e-10
2.91993e-10
2.92176e-10
2.91706e-10
2.915e-10
2.92907e-10
2.91895e-10
2.93679e-10
2.93665e-10
2.95557e-10
3.03206e-10
3.04959e-10
3.13687e-10
2.8675e-10
3.46132e-10
2.72698e-10
2.91403e-10
2.79544e-10
2.80354e-10
2.76985e-10
2.77548e-10
2.76506e-10
2.7676e-10
2.7626e-10
2.76017e-10
2.7748e-10
2.76385e-10
2.78275e-10
2.78259e-10
2.80111e-10
2.87496e-10
2.89307e-10
2.9992e-10
2.78089e-10
3.03286e-10
2.58207e-10
2.75621e-10
2.63843e-10
2.64803e-10
2.61424e-10
2.61984e-10
2.60841e-10
2.61195e-10
2.60631e-10
2.60356e-10
2.61867e-10
2.60703e-10
2.62709e-10
2.62682e-10
2.64512e-10
2.71529e-10
2.73424e-10
2.85318e-10
2.68141e-10
2.74254e-10
2.43584e-10
2.59759e-10
2.48009e-10
2.49174e-10
2.45793e-10
2.46348e-10
2.45079e-10
2.456e-10
2.44902e-10
2.44601e-10
2.46147e-10
2.4493e-10
2.47073e-10
2.47021e-10
2.4885e-10
2.55384e-10
2.57499e-10
2.6994e-10
2.56742e-10
2.49676e-10
2.28926e-10
2.44075e-10
2.3218e-10
2.32775e-10
2.2976e-10
2.30296e-10
2.29375e-10
2.29578e-10
2.29231e-10
2.28912e-10
2.30475e-10
2.29223e-10
2.30974e-10
2.30895e-10
2.32437e-10
2.39211e-10
2.3998e-10
2.53943e-10
2.4402e-10
2.2911e-10
2.1349e-10
2.26661e-10
2.16626e-10
2.17275e-10
2.14404e-10
2.14921e-10
2.13979e-10
2.14289e-10
2.13862e-10
2.13534e-10
2.1509e-10
2.13827e-10
2.15586e-10
2.15467e-10
2.16922e-10
2.23273e-10
2.23161e-10
2.37692e-10
2.30314e-10
2.1132e-10
1.99326e-10
2.11267e-10
2.01683e-10
2.02373e-10
1.99674e-10
2.00163e-10
1.99217e-10
1.99596e-10
1.99124e-10
1.98796e-10
2.00315e-10
1.99069e-10
2.00808e-10
2.00654e-10
2.01993e-10
2.07898e-10
2.07628e-10
2.2162e-10
2.16099e-10
1.95721e-10
1.86062e-10
1.96717e-10
1.87762e-10
1.88454e-10
1.85964e-10
1.8642e-10
1.85496e-10
1.85898e-10
1.85423e-10
1.85103e-10
1.86556e-10
1.85355e-10
1.87032e-10
1.86856e-10
1.88063e-10
1.93484e-10
1.93061e-10
2.06203e-10
2.01887e-10
1.82087e-10
1.74152e-10
1.83467e-10
1.75345e-10
1.75981e-10
1.73747e-10
1.7416e-10
1.73286e-10
1.7368e-10
1.7323e-10
1.72928e-10
1.74284e-10
1.73155e-10
1.74734e-10
1.74546e-10
1.75618e-10
1.80512e-10
1.79967e-10
1.92001e-10
1.88517e-10
1.62814e-10
1.64045e-10
1.63016e-10
1.64468e-10
1.64274e-10
1.65218e-10
1.69545e-10
1.68931e-10
1.7965e-10
1.76692e-10
)
;

boundaryField
{
    fuel
    {
        type            fixedValue;
        value           nonuniform 0();
    }
    wall
    {
        type            zeroGradient;
    }
    outlet
    {
        type            zeroGradient;
    }
    frontAndBack
    {
        type            empty;
    }
    procBoundary0to1
    {
        type            processor;
        value           nonuniform List<scalar> 
21
(
1.70578e-10
1.64139e-10
1.72099e-10
1.64984e-10
1.65508e-10
1.63575e-10
1.63932e-10
1.63136e-10
1.63501e-10
1.63094e-10
1.63094e-10
1.55441e-10
1.56515e-10
1.55615e-10
1.56919e-10
1.56719e-10
1.57553e-10
1.6127e-10
1.60652e-10
1.6988e-10
1.67215e-10
)
;
    }
    procBoundary0to2
    {
        type            processor;
        value           nonuniform List<scalar> 
12
(
3.51815e-10
6.56004e-10
3.31546e-10
3.52335e-10
3.40402e-10
3.40789e-10
3.3751e-10
3.38091e-10
3.37384e-10
3.37352e-10
3.36933e-10
3.36933e-10
)
;
    }
    procBoundary0to3
    {
        type            processor;
        value           nonuniform List<scalar> 10(3.66786e-10 3.67668e-10 3.67267e-10 3.68467e-10 3.68461e-10 3.70558e-10 3.78699e-10 3.7952e-10 3.74145e-10 3.56574e-10);
    }
}


// ************************************************************************* //
