/*--------------------------------*- C++ -*----------------------------------*\
| =========                 |                                                 |
| \\      /  F ield         | OpenFOAM: The Open Source CFD Toolbox           |
|  \\    /   O peration     | Version:  dev                                   |
|   \\  /    A nd           | Web:      www.OpenFOAM.org                      |
|    \\/     M anipulation  |                                                 |
\*---------------------------------------------------------------------------*/
FoamFile
{
    version     2.0;
    format      ascii;
    class       volScalarField;
    location    "0";
    object      C2H4;
}
// * * * * * * * * * * * * * * * * * * * * * * * * * * * * * * * * * * * * * //

dimensions      [0 0 0 0 0 0 0];

internalField   nonuniform List<scalar> 
250
(
1.28362e-05
1.28336e-05
1.28418e-05
1.28379e-05
1.28433e-05
1.28952e-05
1.3135e-05
1.38922e-05
1.68908e-05
2.75279e-05
1.28493e-05
1.2843e-05
1.28534e-05
1.28453e-05
1.28505e-05
1.28974e-05
1.31176e-05
1.38388e-05
1.65117e-05
2.38782e-05
4.4986e-05
1.75663e-05
1.41158e-05
1.31958e-05
1.29574e-05
1.29246e-05
1.29184e-05
1.29279e-05
1.29201e-05
1.29258e-05
1.29293e-05
1.29179e-05
1.29316e-05
1.29178e-05
1.29229e-05
1.29642e-05
1.31606e-05
1.38547e-05
1.62436e-05
2.17399e-05
3.89497e-05
1.74082e-05
1.41713e-05
1.33421e-05
1.31e-05
1.30829e-05
1.30736e-05
1.30884e-05
1.30791e-05
1.30875e-05
1.30918e-05
1.30732e-05
1.30919e-05
1.30701e-05
1.30754e-05
1.31104e-05
1.32779e-05
1.39492e-05
1.60645e-05
2.04667e-05
3.49948e-05
1.73913e-05
1.43179e-05
1.35899e-05
1.33418e-05
1.33441e-05
1.3331e-05
1.33531e-05
1.3341e-05
1.33532e-05
1.33589e-05
1.33307e-05
1.33566e-05
1.33236e-05
1.33293e-05
1.33569e-05
1.34894e-05
1.41421e-05
1.60147e-05
1.97329e-05
3.17108e-05
1.75444e-05
1.45839e-05
1.39716e-05
1.37136e-05
1.37406e-05
1.37227e-05
1.37549e-05
1.37383e-05
1.37561e-05
1.37639e-05
1.37225e-05
1.37588e-05
1.37099e-05
1.37166e-05
1.3735e-05
1.38246e-05
1.44635e-05
1.61165e-05
1.93846e-05
2.90905e-05
1.79145e-05
1.50112e-05
1.4537e-05
1.42632e-05
1.43228e-05
1.42983e-05
1.43452e-05
1.43206e-05
1.43475e-05
1.43586e-05
1.42984e-05
1.43498e-05
1.42778e-05
1.42864e-05
1.42926e-05
1.43286e-05
1.49585e-05
1.63955e-05
1.93645e-05
2.769e-05
1.85817e-05
1.56645e-05
1.53664e-05
1.50666e-05
1.51715e-05
1.51376e-05
1.5207e-05
1.51681e-05
1.52104e-05
1.52267e-05
1.51385e-05
1.52128e-05
1.51056e-05
1.51178e-05
1.51063e-05
1.50738e-05
1.56979e-05
1.69091e-05
1.96821e-05
2.70594e-05
1.96772e-05
1.66473e-05
1.65947e-05
1.62941e-05
1.64489e-05
1.64014e-05
1.64801e-05
1.64465e-05
1.64843e-05
1.65091e-05
1.63777e-05
1.64878e-05
1.63538e-05
1.63721e-05
1.63474e-05
1.61811e-05
1.68837e-05
1.77578e-05
2.04115e-05
2.72952e-05
2.1493e-05
1.82845e-05
1.84511e-05
1.81014e-05
1.83489e-05
1.82797e-05
1.84034e-05
1.83432e-05
1.84085e-05
1.84477e-05
1.8247e-05
1.84148e-05
1.82051e-05
1.82349e-05
1.8175e-05
1.78552e-05
1.86659e-05
1.91114e-05
2.17126e-05
2.85898e-05
2.4273e-05
2.0685e-05
2.13266e-05
2.09045e-05
2.12945e-05
2.11908e-05
2.13838e-05
2.12844e-05
2.13897e-05
2.14528e-05
2.11396e-05
2.14019e-05
2.10733e-05
2.11229e-05
2.10104e-05
2.04506e-05
2.13731e-05
2.12642e-05
2.38788e-05
3.13396e-05
2.86689e-05
2.45087e-05
2.58564e-05
2.53288e-05
2.59361e-05
2.57781e-05
2.60781e-05
2.59186e-05
2.60842e-05
2.61863e-05
2.56938e-05
2.61078e-05
2.55936e-05
2.56765e-05
2.54837e-05
2.45553e-05
2.56697e-05
2.47148e-05
2.74084e-05
3.62028e-05
3.55483e-05
3.06055e-05
3.29841e-05
3.2311e-05
3.3235e-05
3.29953e-05
3.34529e-05
3.32035e-05
3.3458e-05
3.362e-05
3.2857e-05
3.35015e-05
3.27124e-05
3.28479e-05
3.25367e-05
3.10678e-05
3.24742e-05
3.02491e-05
3.30451e-05
4.49944e-05
4.38563e-05
4.4823e-05
4.36616e-05
4.38722e-05
4.33982e-05
4.12011e-05
4.30047e-05
3.89813e-05
4.18528e-05
)
;

boundaryField
{
    fuel
    {
        type            fixedValue;
        value           nonuniform 0();
    }
    wall
    {
        type            zeroGradient;
    }
    outlet
    {
        type            inletOutlet;
        inletValue      uniform 0;
        value           nonuniform List<scalar> 
25
(
4.4986e-05
3.89497e-05
3.49948e-05
3.17108e-05
2.90905e-05
2.769e-05
2.70594e-05
2.72952e-05
2.85898e-05
3.13396e-05
3.62028e-05
2.75279e-05
2.38782e-05
2.17399e-05
2.04667e-05
1.97329e-05
1.93846e-05
1.93645e-05
1.96821e-05
2.04115e-05
2.17126e-05
2.38788e-05
2.74084e-05
3.30451e-05
4.18528e-05
)
;
    }
    frontAndBack
    {
        type            empty;
    }
    procBoundary0to1
    {
        type            processor;
        value           nonuniform List<scalar> 
21
(
4.40971e-05
4.60626e-05
4.01224e-05
4.39439e-05
4.30639e-05
4.44293e-05
4.40719e-05
4.47458e-05
4.43698e-05
4.4748e-05
4.4748e-05
6.15956e-05
5.99962e-05
6.13613e-05
5.97624e-05
6.00591e-05
5.93905e-05
5.6315e-05
5.85927e-05
5.22623e-05
5.50864e-05
)
;
    }
    procBoundary0to2
    {
        type            processor;
        value           nonuniform List<scalar> 
12
(
1.28338e-05
5.32847e-05
1.7838e-05
1.41323e-05
1.31295e-05
1.28935e-05
1.28477e-05
1.2844e-05
1.28497e-05
1.28428e-05
1.28463e-05
1.28463e-05
)
;
    }
    procBoundary0to3
    {
        type            processor;
        value           nonuniform List<scalar> 10(1.28803e-05 1.28796e-05 1.28863e-05 1.28855e-05 1.28911e-05 1.29465e-05 1.32036e-05 1.39933e-05 1.73924e-05 3.40086e-05);
    }
}


// ************************************************************************* //
