/*--------------------------------*- C++ -*----------------------------------*\
| =========                 |                                                 |
| \\      /  F ield         | OpenFOAM: The Open Source CFD Toolbox           |
|  \\    /   O peration     | Version:  dev                                   |
|   \\  /    A nd           | Web:      www.OpenFOAM.org                      |
|    \\/     M anipulation  |                                                 |
\*---------------------------------------------------------------------------*/
FoamFile
{
    version     2.0;
    format      ascii;
    class       volScalarField;
    location    "0";
    object      C4H;
}
// * * * * * * * * * * * * * * * * * * * * * * * * * * * * * * * * * * * * * //

dimensions      [0 0 0 0 0 0 0];

internalField   nonuniform List<scalar> 
250
(
9.31304e-09
9.3853e-09
9.34711e-09
9.43581e-09
9.43541e-09
9.55481e-09
1.0001e-08
9.83654e-09
8.63575e-09
3.63279e-09
8.35304e-09
8.42822e-09
8.38412e-09
8.47563e-09
8.47536e-09
8.58696e-09
9.01543e-09
8.86395e-09
8.19079e-09
4.02874e-09
2.95994e-09
6.01203e-09
8.02882e-09
7.57094e-09
7.65529e-09
7.47615e-09
7.50819e-09
7.45906e-09
7.46463e-09
7.43824e-09
7.42948e-09
7.50537e-09
7.45665e-09
7.55007e-09
7.54999e-09
7.65359e-09
8.06001e-09
7.96378e-09
7.67789e-09
4.30397e-09
2.87526e-09
5.41247e-09
7.14405e-09
6.67929e-09
6.7597e-09
6.58761e-09
6.61768e-09
6.56669e-09
6.57585e-09
6.54978e-09
6.53988e-09
6.61523e-09
6.56344e-09
6.65752e-09
6.65755e-09
6.75307e-09
7.13341e-09
7.07707e-09
7.03383e-09
4.43155e-09
2.7892e-09
4.80569e-09
6.28251e-09
5.82064e-09
5.89638e-09
5.73301e-09
5.76105e-09
5.70914e-09
5.72129e-09
5.69554e-09
5.68456e-09
5.75841e-09
5.70508e-09
5.79845e-09
5.79835e-09
5.88585e-09
6.2363e-09
6.20746e-09
6.30396e-09
4.40156e-09
2.66175e-09
4.2237e-09
5.44757e-09
4.99701e-09
5.06793e-09
4.91492e-09
4.94086e-09
4.88888e-09
4.90374e-09
4.87807e-09
4.86632e-09
4.93774e-09
4.88433e-09
4.97561e-09
4.97507e-09
5.05474e-09
5.37172e-09
5.36157e-09
5.61472e-09
4.22128e-09
2.46952e-09
3.64455e-09
4.64503e-09
4.21317e-09
4.27953e-09
4.13846e-09
4.16219e-09
4.11092e-09
4.12866e-09
4.10248e-09
4.09041e-09
4.1584e-09
4.10626e-09
4.19419e-09
4.19284e-09
4.26502e-09
4.54522e-09
4.54831e-09
4.89622e-09
3.90823e-09
2.26862e-09
3.07684e-09
3.88356e-09
3.47647e-09
3.53888e-09
3.41112e-09
3.43263e-09
3.38263e-09
3.40381e-09
3.37621e-09
3.36433e-09
3.42777e-09
3.37818e-09
3.46172e-09
3.45929e-09
3.52417e-09
3.7651e-09
3.77973e-09
4.16705e-09
3.49071e-09
2.02185e-09
2.53158e-09
3.17516e-09
2.79616e-09
2.83361e-09
2.7296e-09
2.74838e-09
2.71302e-09
2.72346e-09
2.70836e-09
2.69718e-09
2.75492e-09
2.70909e-09
2.77316e-09
2.76992e-09
2.81949e-09
3.04189e-09
3.02005e-09
3.44872e-09
3.0039e-09
1.74603e-09
2.00296e-09
2.47662e-09
2.18323e-09
2.21587e-09
2.12776e-09
2.144e-09
2.11207e-09
2.12406e-09
2.10879e-09
2.09868e-09
2.14966e-09
2.1087e-09
2.16545e-09
2.16145e-09
2.2026e-09
2.38724e-09
2.35023e-09
2.76623e-09
2.48569e-09
1.4518e-09
1.54294e-09
1.8975e-09
1.64729e-09
1.67467e-09
1.60248e-09
1.6161e-09
1.58854e-09
1.60033e-09
1.58632e-09
1.57758e-09
1.62098e-09
1.58577e-09
1.63403e-09
1.62975e-09
1.66242e-09
1.81138e-09
1.77935e-09
2.14195e-09
1.97225e-09
1.15556e-09
1.14281e-09
1.39805e-09
1.1951e-09
1.21694e-09
1.16021e-09
1.17122e-09
1.14859e-09
1.15898e-09
1.14718e-09
1.13996e-09
1.17538e-09
1.1464e-09
1.18557e-09
1.18149e-09
1.20632e-09
1.32203e-09
1.2944e-09
1.59349e-09
1.49443e-09
8.74942e-10
8.09367e-10
9.84946e-10
8.29308e-10
8.45676e-10
8.03239e-10
8.11742e-10
7.94176e-10
8.02623e-10
7.93344e-10
7.8767e-10
8.15207e-10
7.925e-10
8.22658e-10
8.19115e-10
8.37162e-10
9.23024e-10
9.00024e-10
1.13302e-09
1.07849e-09
5.17415e-10
5.3769e-10
5.20846e-10
5.42757e-10
5.39926e-10
5.52444e-10
6.1282e-10
5.94715e-10
7.6552e-10
7.37507e-10
)
;

boundaryField
{
    fuel
    {
        type            fixedValue;
        value           nonuniform 0();
    }
    wall
    {
        type            zeroGradient;
    }
    outlet
    {
        type            zeroGradient;
    }
    frontAndBack
    {
        type            empty;
    }
    procBoundary0to1
    {
        type            processor;
        value           nonuniform List<scalar> 
21
(
6.26868e-10
5.44499e-10
6.5997e-10
5.47074e-10
5.58871e-10
5.28627e-10
5.34921e-10
5.22046e-10
5.28465e-10
5.21606e-10
5.21606e-10
3.20943e-10
3.34966e-10
3.23239e-10
3.38124e-10
3.36082e-10
3.44284e-10
3.84267e-10
3.70947e-10
4.88108e-10
4.74952e-10
)
;
    }
    procBoundary0to2
    {
        type            processor;
        value           nonuniform List<scalar> 
12
(
9.31768e-09
3.05895e-09
6.60319e-09
8.94145e-09
8.49431e-09
8.58453e-09
8.3979e-09
8.43244e-09
8.38577e-09
8.38703e-09
8.3603e-09
8.3603e-09
)
;
    }
    procBoundary0to3
    {
        type            processor;
        value           nonuniform List<scalar> 10(1.03172e-08 1.03795e-08 1.03481e-08 1.04332e-08 1.04332e-08 1.05578e-08 1.10209e-08 1.07559e-08 8.99807e-09 3.14608e-09);
    }
}


// ************************************************************************* //
