/*--------------------------------*- C++ -*----------------------------------*\
| =========                 |                                                 |
| \\      /  F ield         | OpenFOAM: The Open Source CFD Toolbox           |
|  \\    /   O peration     | Version:  dev                                   |
|   \\  /    A nd           | Web:      www.OpenFOAM.org                      |
|    \\/     M anipulation  |                                                 |
\*---------------------------------------------------------------------------*/
FoamFile
{
    version     2.0;
    format      ascii;
    class       volScalarField;
    location    "0";
    object      C4H;
}
// * * * * * * * * * * * * * * * * * * * * * * * * * * * * * * * * * * * * * //

dimensions      [0 0 0 0 0 0 0];

internalField   nonuniform List<scalar> 
25
(
3.85958e-06
2.02301e-06
8.21868e-07
3.0231e-07
1.046e-07
3.6011e-08
1.22827e-08
4.26527e-09
1.56054e-09
5.94454e-10
2.44411e-10
1.05672e-10
4.81396e-11
2.27532e-11
1.09837e-11
5.34788e-12
2.60486e-12
1.26411e-12
6.10747e-13
2.9434e-13
1.42085e-13
6.91277e-14
3.41782e-14
1.7345e-14
9.12886e-15
)
;

boundaryField
{
    wall
    {
        type            zeroGradient;
    }
    fuel
    {
        type            fixedValue;
        value           uniform 0;
    }
    outlet
    {
        type            inletOutlet;
        inletValue      nonuniform 0();
        value           nonuniform 0();
    }
    procBoundary0to1
    {
        type            processor;
        value           uniform 5.01297e-15;
    }
}


// ************************************************************************* //
