/*--------------------------------*- C++ -*----------------------------------*\
| =========                 |                                                 |
| \\      /  F ield         | OpenFOAM: The Open Source CFD Toolbox           |
|  \\    /   O peration     | Version:  dev                                   |
|   \\  /    A nd           | Web:      www.OpenFOAM.org                      |
|    \\/     M anipulation  |                                                 |
\*---------------------------------------------------------------------------*/
FoamFile
{
    version     2.0;
    format      ascii;
    class       volScalarField;
    location    "0";
    object      C4H612;
}
// * * * * * * * * * * * * * * * * * * * * * * * * * * * * * * * * * * * * * //

dimensions      [0 0 0 0 0 0 0];

internalField   nonuniform List<scalar> 
250
(
3.41519e-09
3.4182e-09
3.41917e-09
3.42244e-09
3.42447e-09
3.45209e-09
3.57615e-09
3.88843e-09
5.02073e-09
6.7018e-09
3.36135e-09
3.36415e-09
3.36487e-09
3.36791e-09
3.36979e-09
3.3956e-09
3.51274e-09
3.79658e-09
4.81431e-09
6.08348e-09
2.22904e-08
5.06275e-09
3.84683e-09
3.43381e-09
3.35039e-09
3.3224e-09
3.32305e-09
3.32242e-09
3.32017e-09
3.32e-09
3.32064e-09
3.32296e-09
3.32353e-09
3.3263e-09
3.3281e-09
3.35219e-09
3.46199e-09
3.72723e-09
4.64307e-09
5.66704e-09
1.69175e-08
4.81595e-09
3.77286e-09
3.39856e-09
3.3197e-09
3.29449e-09
3.29476e-09
3.29447e-09
3.29235e-09
3.29251e-09
3.29291e-09
3.29463e-09
3.29519e-09
3.29759e-09
3.29937e-09
3.32183e-09
3.42401e-09
3.67186e-09
4.48154e-09
5.37326e-09
1.36173e-08
4.60306e-09
3.7128e-09
3.37635e-09
3.30211e-09
3.27956e-09
3.27947e-09
3.27954e-09
3.27743e-09
3.27796e-09
3.27821e-09
3.27924e-09
3.27995e-09
3.28186e-09
3.28368e-09
3.30464e-09
3.39895e-09
3.63043e-09
4.3397e-09
5.15793e-09
1.09932e-08
4.43657e-09
3.66767e-09
3.36762e-09
3.29815e-09
3.27814e-09
3.27771e-09
3.27809e-09
3.2759e-09
3.27682e-09
3.27697e-09
3.27724e-09
3.27822e-09
3.2796e-09
3.28152e-09
3.30117e-09
3.38727e-09
3.60369e-09
4.24499e-09
4.9969e-09
8.88134e-09
4.30306e-09
3.63922e-09
3.37364e-09
3.30931e-09
3.29165e-09
3.29088e-09
3.29138e-09
3.28923e-09
3.29036e-09
3.29044e-09
3.28984e-09
3.29126e-09
3.29222e-09
3.29426e-09
3.31287e-09
3.39009e-09
3.59349e-09
4.17387e-09
4.87543e-09
7.60933e-09
4.20496e-09
3.63089e-09
3.39712e-09
3.33849e-09
3.32301e-09
3.32185e-09
3.32221e-09
3.32064e-09
3.32139e-09
3.32147e-09
3.31976e-09
3.32185e-09
3.3226e-09
3.32475e-09
3.34259e-09
3.40999e-09
3.60365e-09
4.12639e-09
4.78671e-09
6.67647e-09
4.14639e-09
3.64899e-09
3.44327e-09
3.38596e-09
3.37489e-09
3.3732e-09
3.37597e-09
3.37261e-09
3.37536e-09
3.37556e-09
3.3723e-09
3.37544e-09
3.37297e-09
3.37523e-09
3.39059e-09
3.45192e-09
3.62847e-09
4.1054e-09
4.73018e-09
6.03226e-09
4.12418e-09
3.68833e-09
3.52192e-09
3.46773e-09
3.46093e-09
3.45841e-09
3.46257e-09
3.45901e-09
3.46214e-09
3.46265e-09
3.45704e-09
3.46191e-09
3.45718e-09
3.45954e-09
3.47298e-09
3.52488e-09
3.68762e-09
4.11863e-09
4.71164e-09
5.61026e-09
4.17275e-09
3.78202e-09
3.64984e-09
3.59781e-09
3.59667e-09
3.5929e-09
3.59908e-09
3.5948e-09
3.59881e-09
3.59992e-09
3.59063e-09
3.59836e-09
3.59025e-09
3.59287e-09
3.60372e-09
3.64439e-09
3.79965e-09
4.18005e-09
4.74457e-09
5.38418e-09
4.31151e-09
3.94827e-09
3.85557e-09
3.8037e-09
3.81085e-09
3.8051e-09
3.81463e-09
3.80862e-09
3.8145e-09
3.8167e-09
3.80147e-09
3.81399e-09
3.80032e-09
3.80357e-09
3.81094e-09
3.83689e-09
3.98891e-09
4.31355e-09
4.85212e-09
5.35762e-09
4.58711e-09
4.2295e-09
4.1884e-09
4.13316e-09
4.15336e-09
4.14432e-09
4.1595e-09
4.15026e-09
4.15946e-09
4.16365e-09
4.13863e-09
4.15922e-09
4.13639e-09
4.14087e-09
4.14346e-09
4.1482e-09
4.30342e-09
4.56075e-09
5.08022e-09
4.73139e-09
4.6898e-09
4.72428e-09
4.68626e-09
4.69279e-09
4.68834e-09
4.66035e-09
4.82925e-09
4.99559e-09
5.5051e-09
)
;

boundaryField
{
    fuel
    {
        type            fixedValue;
        value           nonuniform 0();
    }
    wall
    {
        type            zeroGradient;
    }
    outlet
    {
        type            zeroGradient;
    }
    frontAndBack
    {
        type            empty;
    }
    procBoundary0to1
    {
        type            processor;
        value           nonuniform List<scalar> 
21
(
5.5725e-09
5.08528e-09
4.70095e-09
4.737e-09
4.67107e-09
4.71394e-09
4.69886e-09
4.72404e-09
4.70896e-09
4.72402e-09
4.72402e-09
5.69213e-09
5.62136e-09
5.68052e-09
5.61675e-09
5.62623e-09
5.61136e-09
5.52793e-09
5.72852e-09
5.75583e-09
6.26709e-09
)
;
    }
    procBoundary0to2
    {
        type            processor;
        value           nonuniform List<scalar> 
12
(
3.41462e-09
3.049e-08
5.34469e-09
3.93471e-09
3.482e-09
3.39439e-09
3.36342e-09
3.36454e-09
3.36363e-09
3.36116e-09
3.36068e-09
3.36068e-09
)
;
    }
    procBoundary0to3
    {
        type            processor;
        value           nonuniform List<scalar> 10(3.48321e-09 3.48561e-09 3.48686e-09 3.4903e-09 3.49252e-09 3.52143e-09 3.65277e-09 3.98444e-09 5.26597e-09 7.67572e-09);
    }
}


// ************************************************************************* //
