/*--------------------------------*- C++ -*----------------------------------*\
| =========                 |                                                 |
| \\      /  F ield         | OpenFOAM: The Open Source CFD Toolbox           |
|  \\    /   O peration     | Version:  dev                                   |
|   \\  /    A nd           | Web:      www.OpenFOAM.org                      |
|    \\/     M anipulation  |                                                 |
\*---------------------------------------------------------------------------*/
FoamFile
{
    version     2.0;
    format      ascii;
    class       volScalarField;
    location    "0";
    object      C5H5O;
}
// * * * * * * * * * * * * * * * * * * * * * * * * * * * * * * * * * * * * * //

dimensions      [0 0 0 0 0 0 0];

internalField   nonuniform List<scalar> 
250
(
2.55389e-15
2.56901e-15
2.56658e-15
2.5823e-15
2.5837e-15
2.62343e-15
2.83218e-15
3.33514e-15
2.20477e-14
1.0441e-12
2.30176e-15
2.31738e-15
2.31262e-15
2.32941e-15
2.33073e-15
2.36668e-15
2.55386e-15
2.93285e-15
1.32955e-14
4.89579e-13
2.19535e-11
1.08122e-13
3.5313e-15
2.19969e-15
2.14044e-15
2.08415e-15
2.09274e-15
2.0824e-15
2.08086e-15
2.07515e-15
2.07425e-15
2.08988e-15
2.08322e-15
2.10093e-15
2.10218e-15
2.13476e-15
2.30197e-15
2.60751e-15
8.61665e-15
2.32758e-13
1.32509e-11
7.62964e-14
3.06251e-15
1.97568e-15
1.92678e-15
1.87547e-15
1.88301e-15
1.87237e-15
1.87216e-15
1.86668e-15
1.86536e-15
1.88085e-15
1.87273e-15
1.89115e-15
1.89232e-15
1.92187e-15
2.07061e-15
2.31905e-15
5.79975e-15
1.12774e-13
8.5321e-12
5.43098e-14
2.65655e-15
1.76698e-15
1.72762e-15
1.6807e-15
1.68742e-15
1.67652e-15
1.67742e-15
1.67206e-15
1.67031e-15
1.68563e-15
1.67644e-15
1.69537e-15
1.69641e-15
1.72326e-15
1.85486e-15
2.05771e-15
4.14077e-15
5.61285e-14
5.23862e-12
3.91338e-14
2.30181e-15
1.56983e-15
1.53924e-15
1.49623e-15
1.50231e-15
1.49114e-15
1.49305e-15
1.48767e-15
1.48553e-15
1.50069e-15
1.49071e-15
1.50997e-15
1.51083e-15
1.53528e-15
1.65085e-15
1.8168e-15
3.2211e-15
2.90071e-14
2.98369e-12
2.82314e-14
1.98824e-15
1.3819e-15
1.35934e-15
1.31987e-15
1.32544e-15
1.314e-15
1.31697e-15
1.31131e-15
1.30887e-15
1.3238e-15
1.31333e-15
1.33277e-15
1.33334e-15
1.3557e-15
1.45604e-15
1.59182e-15
2.59207e-15
1.57567e-14
1.83981e-12
2.08071e-14
1.70986e-15
1.20255e-15
1.18725e-15
1.15114e-15
1.15629e-15
1.14453e-15
1.14881e-15
1.14248e-15
1.13986e-15
1.15439e-15
1.14372e-15
1.16322e-15
1.16343e-15
1.18386e-15
1.26958e-15
1.38123e-15
2.12408e-15
9.099e-15
1.13344e-12
1.56625e-14
1.46363e-15
1.03301e-15
1.01816e-15
9.87977e-16
9.92617e-16
9.84083e-16
9.85942e-16
9.82572e-16
9.79921e-16
9.93746e-16
9.83245e-16
9.98736e-16
9.98617e-16
1.01494e-15
1.0926e-15
1.17069e-15
1.75127e-15
5.62659e-15
7.13545e-13
1.19457e-14
1.22742e-15
8.76721e-16
8.66023e-16
8.3991e-16
8.44038e-16
8.36031e-16
8.38551e-16
8.34942e-16
8.32408e-16
8.45084e-16
8.35214e-16
8.49521e-16
8.49063e-16
8.62921e-16
9.28164e-16
9.82775e-16
1.44294e-15
3.73413e-15
4.60109e-13
9.43663e-15
1.0386e-15
7.38907e-16
7.30843e-16
7.09184e-16
7.12666e-16
7.05624e-16
7.08276e-16
7.04869e-16
7.0261e-16
7.1357e-16
7.04883e-16
7.17332e-16
7.16681e-16
7.2791e-16
7.8118e-16
8.22598e-16
1.18722e-15
2.66508e-15
3.05705e-13
7.67672e-15
8.84103e-16
6.26959e-16
6.19929e-16
6.03345e-16
6.05986e-16
6.00443e-16
6.02688e-16
5.99946e-16
5.9815e-16
6.06641e-16
5.9983e-16
6.09587e-16
6.0895e-16
6.1749e-16
6.58692e-16
6.91327e-16
9.83673e-16
2.06967e-15
2.10157e-13
6.45783e-15
7.72458e-16
5.52305e-16
5.44572e-16
5.34155e-16
5.35608e-16
5.32319e-16
5.33584e-16
5.32011e-16
5.30945e-16
5.35801e-16
5.31903e-16
5.37776e-16
5.37438e-16
5.43148e-16
5.71439e-16
6.00697e-16
8.41166e-16
1.80706e-15
5.23863e-16
5.2277e-16
5.23797e-16
5.23575e-16
5.23981e-16
5.2628e-16
5.38868e-16
5.72014e-16
7.80125e-16
1.84702e-15
)
;

boundaryField
{
    fuel
    {
        type            fixedValue;
        value           nonuniform 0();
    }
    wall
    {
        type            zeroGradient;
    }
    outlet
    {
        type            zeroGradient;
    }
    frontAndBack
    {
        type            empty;
    }
    procBoundary0to1
    {
        type            processor;
        value           nonuniform List<scalar> 
21
(
1.50439e-13
5.6738e-15
7.2083e-16
5.36519e-16
5.25787e-16
5.2398e-16
5.235e-16
5.23863e-16
5.23248e-16
5.23672e-16
5.23672e-16
6.30686e-16
6.18094e-16
6.28816e-16
6.17439e-16
6.19406e-16
6.16509e-16
6.04971e-16
6.53347e-16
8.43505e-16
2.2374e-15
)
;
    }
    procBoundary0to2
    {
        type            processor;
        value           nonuniform List<scalar> 
12
(
2.55354e-15
3.68876e-11
1.53585e-13
4.07664e-15
2.44347e-15
2.37386e-15
2.3114e-15
2.32146e-15
2.31141e-15
2.30821e-15
2.30217e-15
2.30217e-15
)
;
    }
    procBoundary0to3
    {
        type            processor;
        value           nonuniform List<scalar> 10(2.83886e-15 2.85142e-15 2.85175e-15 2.8662e-15 2.86773e-15 2.9107e-15 3.14444e-15 3.78439e-15 3.88859e-14 2.27764e-12);
    }
}


// ************************************************************************* //
