/*--------------------------------*- C++ -*----------------------------------*\
| =========                 |                                                 |
| \\      /  F ield         | OpenFOAM: The Open Source CFD Toolbox           |
|  \\    /   O peration     | Version:  dev                                   |
|   \\  /    A nd           | Web:      www.OpenFOAM.org                      |
|    \\/     M anipulation  |                                                 |
\*---------------------------------------------------------------------------*/
FoamFile
{
    version     2.0;
    format      ascii;
    class       volScalarField;
    location    "0";
    object      C5H6;
}
// * * * * * * * * * * * * * * * * * * * * * * * * * * * * * * * * * * * * * //

dimensions      [0 0 0 0 0 0 0];

internalField   nonuniform List<scalar> 
250
(
1.09157e-07
1.08999e-07
1.09414e-07
1.09088e-07
1.09222e-07
1.10332e-07
1.17614e-07
1.48435e-07
3.39945e-07
5.99918e-07
1.0857e-07
1.08353e-07
1.0878e-07
1.08402e-07
1.08535e-07
1.09542e-07
1.16181e-07
1.44046e-07
3.05175e-07
5.26956e-07
1.18149e-06
3.26969e-07
1.55442e-07
1.17421e-07
1.10377e-07
1.09307e-07
1.09268e-07
1.09477e-07
1.09223e-07
1.09333e-07
1.09445e-07
1.09145e-07
1.09603e-07
1.09154e-07
1.09286e-07
1.10198e-07
1.16202e-07
1.41948e-07
2.79076e-07
4.73694e-07
1.02953e-06
3.09699e-07
1.54043e-07
1.19401e-07
1.12421e-07
1.11656e-07
1.11549e-07
1.11842e-07
1.11577e-07
1.11734e-07
1.11855e-07
1.1145e-07
1.11961e-07
1.11415e-07
1.11551e-07
1.12372e-07
1.17745e-07
1.41829e-07
2.57927e-07
4.35187e-07
9.19208e-07
2.96174e-07
1.54465e-07
1.2305e-07
1.16096e-07
1.1565e-07
1.15473e-07
1.15868e-07
1.15576e-07
1.1579e-07
1.15924e-07
1.15391e-07
1.15982e-07
1.15307e-07
1.15449e-07
1.16183e-07
1.20924e-07
1.43749e-07
2.4305e-07
4.08358e-07
8.16769e-07
2.87154e-07
1.56883e-07
1.28548e-07
1.21577e-07
1.21469e-07
1.21218e-07
1.21735e-07
1.21398e-07
1.21683e-07
1.21835e-07
1.21148e-07
1.21846e-07
1.21003e-07
1.2116e-07
1.21807e-07
1.2591e-07
1.47838e-07
2.3557e-07
3.91212e-07
7.21353e-07
2.82072e-07
1.61529e-07
1.36154e-07
1.29114e-07
1.2937e-07
1.29038e-07
1.29706e-07
1.29293e-07
1.29674e-07
1.29852e-07
1.28979e-07
1.29815e-07
1.28756e-07
1.28938e-07
1.29495e-07
1.32946e-07
1.54294e-07
2.33151e-07
3.82366e-07
6.57069e-07
2.81242e-07
1.6873e-07
1.46243e-07
1.39067e-07
1.39724e-07
1.39301e-07
1.40157e-07
1.39625e-07
1.40142e-07
1.40354e-07
1.39253e-07
1.40267e-07
1.38929e-07
1.39149e-07
1.39597e-07
1.42388e-07
1.6342e-07
2.35549e-07
3.81006e-07
6.06294e-07
2.8511e-07
1.78931e-07
1.59368e-07
1.52348e-07
1.53312e-07
1.52787e-07
1.53648e-07
1.53208e-07
1.53644e-07
1.53902e-07
1.52514e-07
1.53757e-07
1.52317e-07
1.52588e-07
1.53017e-07
1.54766e-07
1.7643e-07
2.42837e-07
3.8681e-07
5.70339e-07
2.94524e-07
1.93855e-07
1.76338e-07
1.69091e-07
1.70554e-07
1.699e-07
1.71002e-07
1.70406e-07
1.71008e-07
1.71329e-07
1.69573e-07
1.71116e-07
1.69281e-07
1.69627e-07
1.69901e-07
1.70827e-07
1.93353e-07
2.55404e-07
3.99963e-07
5.48275e-07
3.10387e-07
2.12935e-07
1.9838e-07
1.90802e-07
1.92882e-07
1.92064e-07
1.93474e-07
1.92689e-07
1.93486e-07
1.93897e-07
1.91654e-07
1.93597e-07
1.91251e-07
1.91695e-07
1.91776e-07
1.9172e-07
2.15105e-07
2.74101e-07
4.21272e-07
5.40504e-07
3.34625e-07
2.38684e-07
2.27353e-07
2.19305e-07
2.22176e-07
2.21139e-07
2.22955e-07
2.2193e-07
2.22971e-07
2.23507e-07
2.20605e-07
2.23095e-07
2.20072e-07
2.20645e-07
2.20478e-07
2.19194e-07
2.43939e-07
3.00451e-07
4.52342e-07
5.48387e-07
3.69943e-07
2.73656e-07
2.66043e-07
2.5734e-07
2.61246e-07
2.59912e-07
2.62269e-07
2.60925e-07
2.62282e-07
2.62999e-07
2.59198e-07
2.62441e-07
2.58514e-07
2.5926e-07
2.5877e-07
2.55897e-07
2.82614e-07
3.36915e-07
4.95802e-07
3.1646e-07
3.11442e-07
3.15715e-07
3.106e-07
3.11574e-07
3.10657e-07
3.05732e-07
3.35177e-07
3.87267e-07
5.55785e-07
)
;

boundaryField
{
    fuel
    {
        type            fixedValue;
        value           nonuniform 0();
    }
    wall
    {
        type            zeroGradient;
    }
    outlet
    {
        type            zeroGradient;
    }
    frontAndBack
    {
        type            empty;
    }
    procBoundary0to1
    {
        type            processor;
        value           nonuniform List<scalar> 
21
(
5.74623e-07
4.20351e-07
3.21549e-07
3.18528e-07
3.08848e-07
3.1417e-07
3.12416e-07
3.15501e-07
3.13721e-07
3.15503e-07
3.15503e-07
3.89271e-07
3.82692e-07
3.88297e-07
3.81725e-07
3.8296e-07
3.81542e-07
3.74049e-07
4.07056e-07
4.56786e-07
6.37598e-07
)
;
    }
    procBoundary0to2
    {
        type            processor;
        value           nonuniform List<scalar> 
12
(
1.09057e-07
1.37457e-06
3.47701e-07
1.58544e-07
1.1699e-07
1.0985e-07
1.08484e-07
1.08512e-07
1.08653e-07
1.08396e-07
1.08466e-07
1.08466e-07
)
;
    }
    procBoundary0to3
    {
        type            processor;
        value           nonuniform List<scalar> 10(1.1119e-07 1.11053e-07 1.11471e-07 1.11179e-07 1.11315e-07 1.1251e-07 1.20498e-07 1.54527e-07 3.85321e-07 7.0116e-07);
    }
}


// ************************************************************************* //
