/*--------------------------------*- C++ -*----------------------------------*\
| =========                 |                                                 |
| \\      /  F ield         | OpenFOAM: The Open Source CFD Toolbox           |
|  \\    /   O peration     | Version:  dev                                   |
|   \\  /    A nd           | Web:      www.OpenFOAM.org                      |
|    \\/     M anipulation  |                                                 |
\*---------------------------------------------------------------------------*/
FoamFile
{
    version     2.0;
    format      ascii;
    class       volScalarField;
    location    "0";
    object      C6H5OH;
}
// * * * * * * * * * * * * * * * * * * * * * * * * * * * * * * * * * * * * * //

dimensions      [0 0 0 0 0 0 0];

internalField   nonuniform List<scalar> 
250
(
1.79273e-08
1.79349e-08
1.79577e-08
1.79637e-08
1.79841e-08
1.82046e-08
1.92552e-08
2.27798e-08
4.32051e-08
6.47499e-08
1.76757e-08
1.76764e-08
1.77015e-08
1.77001e-08
1.77196e-08
1.79214e-08
1.88873e-08
2.20443e-08
3.8948e-08
5.77127e-08
2.53554e-07
4.43618e-08
2.30279e-08
1.86245e-08
1.77838e-08
1.75949e-08
1.75868e-08
1.75987e-08
1.7574e-08
1.75821e-08
1.75909e-08
1.7582e-08
1.7611e-08
1.76006e-08
1.76196e-08
1.7804e-08
1.86831e-08
2.15735e-08
3.57107e-08
5.24014e-08
2.02365e-07
4.10278e-08
2.25701e-08
1.8637e-08
1.78264e-08
1.76737e-08
1.76592e-08
1.76792e-08
1.76533e-08
1.76663e-08
1.76752e-08
1.76548e-08
1.76899e-08
1.76683e-08
1.76874e-08
1.78555e-08
1.86469e-08
2.1312e-08
3.30158e-08
4.83616e-08
1.67879e-07
3.8241e-08
2.23043e-08
1.88209e-08
1.80397e-08
1.79228e-08
1.79019e-08
1.79309e-08
1.79028e-08
1.79209e-08
1.79305e-08
1.78973e-08
1.79401e-08
1.79055e-08
1.79253e-08
1.80783e-08
1.87821e-08
2.12558e-08
3.1002e-08
4.5324e-08
1.37606e-07
3.60772e-08
2.22338e-08
1.91757e-08
1.84243e-08
1.83416e-08
1.83147e-08
1.83531e-08
1.83214e-08
1.83454e-08
1.83558e-08
1.83092e-08
1.8361e-08
1.8312e-08
1.83332e-08
1.84726e-08
1.90901e-08
2.14e-08
2.98059e-08
4.3112e-08
1.1068e-07
3.43648e-08
2.2358e-08
1.96979e-08
1.89778e-08
1.89266e-08
1.88941e-08
1.89418e-08
1.89053e-08
1.89358e-08
1.89473e-08
1.88872e-08
1.89485e-08
1.88845e-08
1.8908e-08
1.90351e-08
1.95693e-08
2.17368e-08
2.90853e-08
4.15796e-08
9.29664e-08
3.30849e-08
2.2674e-08
2.03819e-08
1.96949e-08
1.96718e-08
1.96342e-08
1.96908e-08
1.96481e-08
1.9686e-08
1.96987e-08
1.96255e-08
1.96965e-08
1.96174e-08
1.96439e-08
1.97591e-08
2.02159e-08
2.22558e-08
2.87619e-08
4.06079e-08
7.88348e-08
3.22016e-08
2.31766e-08
2.12236e-08
2.05924e-08
2.05857e-08
2.05439e-08
2.05959e-08
2.05613e-08
2.05917e-08
2.0606e-08
2.05198e-08
2.06005e-08
2.05207e-08
2.05504e-08
2.06595e-08
2.10274e-08
2.29781e-08
2.87765e-08
4.00979e-08
6.80796e-08
3.16566e-08
2.39038e-08
2.22279e-08
2.16318e-08
2.16482e-08
2.16019e-08
2.16625e-08
2.16215e-08
2.16587e-08
2.16748e-08
2.15751e-08
2.16661e-08
2.15713e-08
2.16044e-08
2.16994e-08
2.20054e-08
2.38639e-08
2.90876e-08
3.99728e-08
5.99317e-08
3.15324e-08
2.48054e-08
2.34214e-08
2.28597e-08
2.29e-08
2.28487e-08
2.29179e-08
2.28713e-08
2.29145e-08
2.29332e-08
2.28178e-08
2.29209e-08
2.28102e-08
2.28467e-08
2.29267e-08
2.31717e-08
2.49282e-08
2.96798e-08
4.01879e-08
5.3931e-08
3.18379e-08
2.59703e-08
2.48643e-08
2.4333e-08
2.44012e-08
2.43434e-08
2.44232e-08
2.437e-08
2.442e-08
2.44424e-08
2.4307e-08
2.4426e-08
2.42961e-08
2.43365e-08
2.43999e-08
2.45798e-08
2.62483e-08
3.05753e-08
4.07421e-08
4.97375e-08
3.26412e-08
2.74805e-08
2.66497e-08
2.61419e-08
2.62438e-08
2.61775e-08
2.62705e-08
2.6209e-08
2.62673e-08
2.62948e-08
2.61344e-08
2.62739e-08
2.61209e-08
2.61658e-08
2.62116e-08
2.63196e-08
2.79148e-08
3.18419e-08
4.16963e-08
2.85682e-08
2.83831e-08
2.85435e-08
2.83689e-08
2.84184e-08
2.84483e-08
2.84861e-08
3.00185e-08
3.35723e-08
4.31347e-08
)
;

boundaryField
{
    fuel
    {
        type            fixedValue;
        value           nonuniform 0();
    }
    wall
    {
        type            zeroGradient;
    }
    outlet
    {
        type            zeroGradient;
    }
    frontAndBack
    {
        type            empty;
    }
    procBoundary0to1
    {
        type            processor;
        value           nonuniform List<scalar> 
21
(
4.71372e-08
3.40064e-08
2.94275e-08
2.88645e-08
2.83706e-08
2.85094e-08
2.84329e-08
2.85394e-08
2.84689e-08
2.85359e-08
2.85359e-08
3.12159e-08
3.10207e-08
3.11903e-08
3.10105e-08
3.10615e-08
3.10843e-08
3.10788e-08
3.25415e-08
3.5789e-08
4.50337e-08
)
;
    }
    procBoundary0to2
    {
        type            processor;
        value           nonuniform List<scalar> 
12
(
1.7919e-08
3.24915e-07
4.82695e-08
2.36764e-08
1.87814e-08
1.79104e-08
1.76849e-08
1.76834e-08
1.76884e-08
1.76636e-08
1.76674e-08
1.76674e-08
)
;
    }
    procBoundary0to3
    {
        type            processor;
        value           nonuniform List<scalar> 10(1.83469e-08 1.83557e-08 1.83776e-08 1.83894e-08 1.84111e-08 1.8647e-08 1.97879e-08 2.36809e-08 4.87409e-08 7.44382e-08);
    }
}


// ************************************************************************* //
