/*--------------------------------*- C++ -*----------------------------------*\
| =========                 |                                                 |
| \\      /  F ield         | OpenFOAM: The Open Source CFD Toolbox           |
|  \\    /   O peration     | Version:  dev                                   |
|   \\  /    A nd           | Web:      www.OpenFOAM.org                      |
|    \\/     M anipulation  |                                                 |
\*---------------------------------------------------------------------------*/
FoamFile
{
    version     2.0;
    format      ascii;
    class       volScalarField;
    location    "0";
    object      C6H8;
}
// * * * * * * * * * * * * * * * * * * * * * * * * * * * * * * * * * * * * * //

dimensions      [0 0 0 0 0 0 0];

internalField   nonuniform List<scalar> 
25
(
1.35917e-12
4.83375e-13
1.519e-13
4.55259e-14
1.30595e-14
3.71094e-15
1.04232e-15
2.91361e-16
8.28832e-17
2.33498e-17
6.73094e-18
1.92955e-18
5.58934e-19
1.64037e-19
4.90652e-20
1.51781e-20
5.02437e-21
1.89856e-21
8.83983e-22
5.17535e-22
3.58334e-22
2.7125e-22
2.13632e-22
1.71137e-22
1.38215e-22
)
;

boundaryField
{
    wall
    {
        type            zeroGradient;
    }
    fuel
    {
        type            fixedValue;
        value           uniform 0;
    }
    outlet
    {
        type            inletOutlet;
        inletValue      nonuniform 0();
        value           nonuniform 0();
    }
    procBoundary0to1
    {
        type            processor;
        value           uniform 1.12557e-22;
    }
}


// ************************************************************************* //
