/*--------------------------------*- C++ -*----------------------------------*\
| =========                 |                                                 |
| \\      /  F ield         | OpenFOAM: The Open Source CFD Toolbox           |
|  \\    /   O peration     | Version:  dev                                   |
|   \\  /    A nd           | Web:      www.OpenFOAM.org                      |
|    \\/     M anipulation  |                                                 |
\*---------------------------------------------------------------------------*/
FoamFile
{
    version     2.0;
    format      ascii;
    class       volScalarField;
    location    "0";
    object      CH2;
}
// * * * * * * * * * * * * * * * * * * * * * * * * * * * * * * * * * * * * * //

dimensions      [0 0 0 0 0 0 0];

internalField   nonuniform List<scalar> 
25
(
1.1317e-05
1.924e-05
2.10181e-05
2.01188e-05
1.78474e-05
1.49537e-05
1.19798e-05
9.30313e-06
7.07891e-06
5.3296e-06
4.00226e-06
3.01067e-06
2.27521e-06
1.73467e-06
1.33503e-06
1.03764e-06
8.14215e-07
6.44436e-07
5.13817e-07
4.1209e-07
3.31963e-07
2.68228e-07
2.17163e-07
1.7601e-07
1.42713e-07
)
;

boundaryField
{
    wall
    {
        type            zeroGradient;
    }
    fuel
    {
        type            fixedValue;
        value           uniform 0;
    }
    outlet
    {
        type            inletOutlet;
        inletValue      nonuniform 0();
        value           nonuniform 0();
    }
    procBoundary0to1
    {
        type            processor;
        value           uniform 1.15694e-07;
    }
}


// ************************************************************************* //
