/*--------------------------------*- C++ -*----------------------------------*\
| =========                 |                                                 |
| \\      /  F ield         | OpenFOAM: The Open Source CFD Toolbox           |
|  \\    /   O peration     | Version:  dev                                   |
|   \\  /    A nd           | Web:      www.OpenFOAM.org                      |
|    \\/     M anipulation  |                                                 |
\*---------------------------------------------------------------------------*/
FoamFile
{
    version     2.0;
    format      ascii;
    class       volScalarField;
    location    "0";
    object      CH3;
}
// * * * * * * * * * * * * * * * * * * * * * * * * * * * * * * * * * * * * * //

dimensions      [0 0 0 0 0 0 0];

internalField   nonuniform List<scalar> 
25
(
0.000580269
0.000529013
0.000395243
0.000281105
0.000194806
0.000134389
9.18066e-05
6.28367e-05
4.36605e-05
3.05218e-05
2.17382e-05
1.55454e-05
1.11827e-05
8.05721e-06
5.79349e-06
4.14732e-06
2.95262e-06
2.091e-06
1.47497e-06
1.03869e-06
7.32542e-07
5.19474e-07
3.72187e-07
2.70819e-07
2.01027e-07
)
;

boundaryField
{
    wall
    {
        type            zeroGradient;
    }
    fuel
    {
        type            fixedValue;
        value           uniform 0;
    }
    outlet
    {
        type            inletOutlet;
        inletValue      nonuniform 0();
        value           nonuniform 0();
    }
    procBoundary0to1
    {
        type            processor;
        value           uniform 1.5253e-07;
    }
}


// ************************************************************************* //
