/*--------------------------------*- C++ -*----------------------------------*\
| =========                 |                                                 |
| \\      /  F ield         | OpenFOAM: The Open Source CFD Toolbox           |
|  \\    /   O peration     | Version:  dev                                   |
|   \\  /    A nd           | Web:      www.OpenFOAM.org                      |
|    \\/     M anipulation  |                                                 |
\*---------------------------------------------------------------------------*/
FoamFile
{
    version     2.0;
    format      ascii;
    class       volScalarField;
    location    "0";
    object      CO2;
}
// * * * * * * * * * * * * * * * * * * * * * * * * * * * * * * * * * * * * * //

dimensions      [0 0 0 0 0 0 0];

internalField   nonuniform List<scalar> 
250
(
0.045922
0.0459197
0.0459258
0.0459227
0.0459268
0.0459611
0.046118
0.0465831
0.0480018
0.0486708
0.0459226
0.0459186
0.0459257
0.0459206
0.0459245
0.0459554
0.0460981
0.0465324
0.0478223
0.0485801
0.0494889
0.0479329
0.046663
0.0461218
0.0459762
0.0459527
0.0459493
0.0459542
0.0459495
0.0459526
0.0459549
0.0459487
0.0459571
0.0459496
0.0459535
0.0459809
0.0461081
0.0465151
0.0476774
0.0484816
0.0493853
0.0478382
0.0466542
0.0461724
0.0460316
0.0460153
0.0460108
0.0460175
0.0460124
0.0460164
0.0460189
0.0460103
0.0460203
0.0460102
0.046014
0.0460381
0.0461487
0.0465288
0.0475555
0.0483863
0.0492854
0.0477716
0.0466749
0.0462533
0.0461182
0.046109
0.0461033
0.046112
0.0461063
0.0461113
0.046114
0.0461029
0.0461146
0.0461016
0.0461055
0.0461263
0.04622
0.0465737
0.0474722
0.048304
0.0491678
0.047736
0.0467252
0.046363
0.0462342
0.0462317
0.0462251
0.0462357
0.0462293
0.0462353
0.0462383
0.0462247
0.0462382
0.0462223
0.0462262
0.0462439
0.0463211
0.0466486
0.0474365
0.0482421
0.0490347
0.0477279
0.0468039
0.0464989
0.0463769
0.0463804
0.046373
0.0463854
0.046378
0.0463853
0.0463886
0.0463727
0.0463878
0.046369
0.0463731
0.0463879
0.0464496
0.046751
0.0474374
0.0482046
0.0489315
0.0477451
0.046908
0.0466566
0.0465419
0.0465504
0.0465424
0.0465566
0.0465478
0.0465566
0.0465601
0.0465423
0.0465588
0.0465372
0.0465418
0.0465537
0.046602
0.0468767
0.0474717
0.0481927
0.0488389
0.0477845
0.0470326
0.0468305
0.0467303
0.0467398
0.0467316
0.0467431
0.0467372
0.0467432
0.0467468
0.0467277
0.0467451
0.0467257
0.0467306
0.0467419
0.046773
0.0470316
0.0475352
0.0482047
0.0487633
0.0478438
0.0471855
0.0470135
0.0469226
0.0469338
0.0469256
0.0469376
0.0469308
0.0469376
0.0469413
0.0469215
0.0469394
0.0469189
0.0469242
0.0469333
0.0469555
0.047195
0.0476212
0.0482365
0.0487041
0.0479117
0.0473359
0.0471976
0.0471162
0.047128
0.0471201
0.047132
0.0471249
0.0471321
0.0471357
0.0471159
0.0471336
0.047113
0.0471185
0.0471258
0.0471416
0.047357
0.0477218
0.0482822
0.0486594
0.0479838
0.0474871
0.0473749
0.0473032
0.0473144
0.047307
0.0473184
0.0473114
0.0473184
0.0473219
0.0473028
0.0473197
0.0472997
0.0473053
0.0473111
0.0473232
0.0475151
0.0478287
0.0483349
0.0486255
0.0480536
0.0476311
0.047538
0.047476
0.0474856
0.0474789
0.0474893
0.0474828
0.0474894
0.0474926
0.0474749
0.0474904
0.0474719
0.0474772
0.0474821
0.0474924
0.0476616
0.0479334
0.0483868
0.0476419
0.0476261
0.0476398
0.0476234
0.0476284
0.0476324
0.0476426
0.0477901
0.0480282
0.0484311
)
;

boundaryField
{
    fuel
    {
        type            fixedValue;
        value           nonuniform 0();
    }
    wall
    {
        type            zeroGradient;
    }
    outlet
    {
        type            zeroGradient;
    }
    frontAndBack
    {
        type            empty;
    }
    procBoundary0to1
    {
        type            processor;
        value           nonuniform List<scalar> 
21
(
0.0485982
0.0481153
0.0477605
0.0476811
0.0476282
0.0476357
0.04763
0.047639
0.0476333
0.0476391
0.0476391
0.0477663
0.0477526
0.0477643
0.0477502
0.0477547
0.0477582
0.0477692
0.0478962
0.0481069
0.048462
)
;
    }
    procBoundary0to2
    {
        type            processor;
        value           nonuniform List<scalar> 
12
(
0.04592
0.0495775
0.0480516
0.0467005
0.0461019
0.0459523
0.0459217
0.0459195
0.0459228
0.0459183
0.0459205
0.0459205
)
;
    }
    procBoundary0to3
    {
        type            processor;
        value           nonuniform List<scalar> 10(0.0459523 0.0459512 0.0459563 0.045955 0.0459593 0.0459963 0.0461667 0.0466593 0.0482144 0.0487424);
    }
}


// ************************************************************************* //
