/*--------------------------------*- C++ -*----------------------------------*\
| =========                 |                                                 |
| \\      /  F ield         | OpenFOAM: The Open Source CFD Toolbox           |
|  \\    /   O peration     | Version:  dev                                   |
|   \\  /    A nd           | Web:      www.OpenFOAM.org                      |
|    \\/     M anipulation  |                                                 |
\*---------------------------------------------------------------------------*/
FoamFile
{
    version     2.0;
    format      ascii;
    class       volScalarField;
    location    "0";
    object      dQ;
}
// * * * * * * * * * * * * * * * * * * * * * * * * * * * * * * * * * * * * * //

dimensions      [1 2 -3 0 0 0 0];

internalField   nonuniform List<scalar> 
250
(
-0.00212351
-0.00215583
-0.00213588
-0.00218088
-0.00218987
-0.00222523
-0.00230726
-0.00192855
-2.80959e-05
0.00590619
-0.00161747
-0.00165311
-0.00163144
-0.00167961
-0.0016892
-0.00172644
-0.00182689
-0.00155441
-0.000147554
0.00458196
0.0165637
0.000829267
-0.00110927
-0.00110782
-0.00118687
-0.00111279
-0.00112107
-0.00108854
-0.00109604
-0.00108094
-0.00107361
-0.00111266
-0.00108875
-0.00113992
-0.00114944
-0.00118849
-0.00130335
-0.00109977
-0.000128351
0.00346242
0.012804
0.00094268
-0.000612984
-0.000540463
-0.000608133
-0.000528996
-0.000537386
-0.000502086
-0.000511517
-0.000494833
-0.0004888
-0.000530909
-0.000504519
-0.000558489
-0.000567215
-0.000607784
-0.000733096
-0.000592062
1.27213e-06
0.00260613
0.010196
0.00112675
-7.05125e-05
6.77207e-05
1.23173e-05
9.3608e-05
8.53725e-05
0.000122326
0.000110334
0.000128858
0.000135041
9.0702e-05
0.000119254
6.34079e-05
5.62079e-05
1.49276e-05
-0.000116526
-2.99545e-05
0.000225774
0.00203294
0.00793926
0.0014044
0.000516306
0.000709804
0.000668999
0.000748508
0.000740777
0.000777254
0.000762661
0.000782864
0.000789399
0.000744263
0.000774046
0.000718844
0.000713707
0.000673291
0.000540334
0.000582563
0.000602626
0.00173802
0.0060446
0.00174263
0.00113991
0.00137056
0.00134926
0.00142118
0.00141431
0.00144632
0.00143163
0.00145082
0.00145729
0.00141356
0.00144294
0.00139362
0.00139054
0.00135401
0.00122341
0.00123642
0.00107362
0.00169098
0.00489772
0.00212672
0.00178648
0.00202384
0.00203207
0.00208748
0.0020821
0.00210217
0.00209619
0.00210543
0.00211117
0.00207193
0.00209847
0.00206466
0.00206287
0.00203609
0.00190797
0.00192074
0.00161595
0.00184776
0.004112
0.00252998
0.00244108
0.00263042
0.00263426
0.00268279
0.00267961
0.0027052
0.00268968
0.00270745
0.00271166
0.00268093
0.0027013
0.00266508
0.00266374
0.00263785
0.0025559
0.00252065
0.00219066
0.00215139
0.00364779
0.00286367
0.00296166
0.00314288
0.00316396
0.00319093
0.00319092
0.00320602
0.00319807
0.00320727
0.00320901
0.00319139
0.00320174
0.00318281
0.00318034
0.00316557
0.00311933
0.00304474
0.00274931
0.002533
0.00340603
0.00314542
0.00340791
0.00350703
0.00354355
0.00354406
0.00354835
0.00355078
0.00354997
0.00355121
0.00354958
0.00354932
0.00354603
0.00354813
0.00354359
0.00354031
0.0035416
0.00345143
0.00323028
0.00291344
0.00329052
0.00330018
0.0036766
0.00367647
0.00372481
0.00369726
0.00370661
0.00369535
0.0037014
0.00369527
0.00368974
0.00370926
0.00369016
0.00371487
0.00370767
0.00371589
0.00376939
0.00366535
0.00356606
0.00320544
0.00320901
0.00329917
0.00373051
0.00363254
0.00368625
0.00363476
0.00364872
0.00362533
0.00363744
0.00362502
0.00361594
0.00365401
0.00361988
0.00366494
0.00365487
0.00367329
0.00377354
0.00366143
0.00370358
0.00335277
0.00336232
0.00341326
0.00336866
0.00342728
0.00341483
0.00344023
0.00357126
0.00345996
0.00362809
0.00332484
)
;

boundaryField
{
    fuel
    {
        type            calculated;
        value           nonuniform 0();
    }
    wall
    {
        type            calculated;
        value           nonuniform 0();
    }
    outlet
    {
        type            calculated;
        value           uniform 0;
    }
    frontAndBack
    {
        type            empty;
    }
    procBoundary0to1
    {
        type            processor;
        value           nonuniform List<scalar> 
21
(
0.00309148
0.00314924
0.00357359
0.00340319
0.00345433
0.00338894
0.00340562
0.00337455
0.0033908
0.00337429
0.00337429
0.0030124
0.00306716
0.00301954
0.00308169
0.00306817
0.0030965
0.00323476
0.00313454
0.0033813
0.00314655
)
;
    }
    procBoundary0to2
    {
        type            processor;
        value           nonuniform List<scalar> 
12
(
-0.0021238
0.0215962
0.000793802
-0.00156297
-0.00163041
-0.00172103
-0.00165307
-0.00166085
-0.00163105
-0.00163702
-0.00162324
-0.00162324
)
;
    }
    procBoundary0to3
    {
        type            processor;
        value           nonuniform List<scalar> 10(-0.00259057 -0.00262199 -0.00260391 -0.00264552 -0.00265391 -0.00268744 -0.00274747 -0.00229402 0.000225922 0.00734313);
    }
}


// ************************************************************************* //
