/*--------------------------------*- C++ -*----------------------------------*\
| =========                 |                                                 |
| \\      /  F ield         | OpenFOAM: The Open Source CFD Toolbox           |
|  \\    /   O peration     | Version:  dev                                   |
|   \\  /    A nd           | Web:      www.OpenFOAM.org                      |
|    \\/     M anipulation  |                                                 |
\*---------------------------------------------------------------------------*/
FoamFile
{
    version     2.0;
    format      ascii;
    class       volScalarField;
    location    "0";
    object      H;
}
// * * * * * * * * * * * * * * * * * * * * * * * * * * * * * * * * * * * * * //

dimensions      [0 0 0 0 0 0 0];

internalField   nonuniform List<scalar> 
250
(
2.11648e-05
2.12334e-05
2.11858e-05
2.12705e-05
2.12608e-05
2.12809e-05
2.12751e-05
1.99912e-05
1.57817e-05
9.23863e-06
2.02779e-05
2.03577e-05
2.03001e-05
2.03974e-05
2.03884e-05
2.04185e-05
2.04661e-05
1.92859e-05
1.57977e-05
9.91056e-06
8.07803e-06
1.37952e-05
1.8269e-05
1.9044e-05
1.94653e-05
1.93384e-05
1.93794e-05
1.93183e-05
1.93348e-05
1.93011e-05
1.92877e-05
1.9378e-05
1.93103e-05
1.94206e-05
1.94125e-05
1.94522e-05
1.95535e-05
1.85122e-05
1.56707e-05
1.04605e-05
8.06674e-06
1.33467e-05
1.74409e-05
1.80027e-05
1.8403e-05
1.8251e-05
1.82948e-05
1.82242e-05
1.82456e-05
1.82083e-05
1.81927e-05
1.82933e-05
1.82156e-05
1.83391e-05
1.83316e-05
1.83804e-05
1.85336e-05
1.76219e-05
1.5354e-05
1.0844e-05
8.0468e-06
1.27891e-05
1.65061e-05
1.68602e-05
1.72367e-05
1.70618e-05
1.71081e-05
1.70281e-05
1.70546e-05
1.70136e-05
1.69955e-05
1.71058e-05
1.70188e-05
1.71551e-05
1.71479e-05
1.72052e-05
1.74059e-05
1.66148e-05
1.48323e-05
1.10283e-05
7.98947e-06
1.21484e-05
1.54646e-05
1.56215e-05
1.59727e-05
1.57779e-05
1.58261e-05
1.57372e-05
1.57694e-05
1.57242e-05
1.57037e-05
1.58227e-05
1.57275e-05
1.58758e-05
1.58684e-05
1.59335e-05
1.61744e-05
1.54964e-05
1.42014e-05
1.0996e-05
7.85008e-06
1.13978e-05
1.43221e-05
1.42969e-05
1.46229e-05
1.44123e-05
1.44617e-05
1.43642e-05
1.44039e-05
1.43528e-05
1.43301e-05
1.44564e-05
1.43543e-05
1.45139e-05
1.45053e-05
1.45779e-05
1.48484e-05
1.42786e-05
1.34045e-05
1.07412e-05
7.64896e-06
1.05428e-05
1.30924e-05
1.2903e-05
1.32058e-05
1.2984e-05
1.30341e-05
1.2928e-05
1.29784e-05
1.29182e-05
1.28939e-05
1.30254e-05
1.29182e-05
1.30883e-05
1.30776e-05
1.31575e-05
1.3444e-05
1.29822e-05
1.24535e-05
1.02722e-05
7.33679e-06
9.59595e-06
1.17999e-05
1.14629e-05
1.16924e-05
1.14868e-05
1.15358e-05
1.14535e-05
1.14815e-05
1.14455e-05
1.14203e-05
1.15542e-05
1.14442e-05
1.15884e-05
1.15757e-05
1.16436e-05
1.19842e-05
1.15282e-05
1.13683e-05
9.61041e-06
6.91437e-06
8.53464e-06
1.03438e-05
1.00079e-05
1.02093e-05
1.00079e-05
1.00555e-05
9.97189e-06
1.00066e-05
9.96564e-06
9.94005e-06
1.00732e-05
9.96321e-06
1.01078e-05
1.00927e-05
1.01612e-05
1.05005e-05
1.00762e-05
1.01825e-05
8.78858e-06
6.38047e-06
7.47234e-06
8.97313e-06
8.57267e-06
8.74643e-06
8.55478e-06
8.59977e-06
8.51785e-06
8.55577e-06
8.51314e-06
8.48798e-06
8.61689e-06
8.50988e-06
8.6504e-06
8.63376e-06
8.6995e-06
9.02768e-06
8.6729e-06
8.93551e-06
7.84744e-06
5.748e-06
6.40314e-06
7.62047e-06
7.19347e-06
7.33998e-06
7.16338e-06
7.20499e-06
7.12747e-06
7.16542e-06
7.12414e-06
7.10016e-06
7.2214e-06
7.1203e-06
7.25239e-06
7.23513e-06
7.29581e-06
7.60277e-06
7.30802e-06
7.66956e-06
6.83181e-06
5.04164e-06
5.36185e-06
6.32496e-06
5.90533e-06
6.02517e-06
5.86821e-06
5.90559e-06
5.83497e-06
5.87074e-06
5.83283e-06
5.81063e-06
5.92123e-06
5.8286e-06
5.94849e-06
5.93157e-06
5.9857e-06
6.26268e-06
6.0203e-06
6.42906e-06
5.79741e-06
4.6477e-06
4.74544e-06
4.66321e-06
4.76826e-06
4.75245e-06
4.79935e-06
5.03999e-06
4.84345e-06
5.2565e-06
4.79025e-06
)
;

boundaryField
{
    fuel
    {
        type            fixedValue;
        value           nonuniform 0();
    }
    wall
    {
        type            zeroGradient;
    }
    outlet
    {
        type            zeroGradient;
    }
    frontAndBack
    {
        type            empty;
    }
    procBoundary0to1
    {
        type            processor;
        value           nonuniform List<scalar> 
21
(
4.29846e-06
4.38081e-06
5.12568e-06
4.73713e-06
4.83332e-06
4.69795e-06
4.73077e-06
4.66867e-06
4.70098e-06
4.66749e-06
4.66749e-06
3.63053e-06
3.71404e-06
3.64348e-06
3.73216e-06
3.7182e-06
3.75759e-06
3.95899e-06
3.80233e-06
4.18734e-06
3.85083e-06
)
;
    }
    procBoundary0to2
    {
        type            processor;
        value           nonuniform List<scalar> 
12
(
2.11734e-05
8.10546e-06
1.41496e-05
1.89992e-05
1.99822e-05
2.04237e-05
2.03209e-05
2.03594e-05
2.03077e-05
2.03194e-05
2.02891e-05
2.02891e-05
)
;
    }
    procBoundary0to3
    {
        type            processor;
        value           nonuniform List<scalar> 10(2.19553e-05 2.20091e-05 2.19709e-05 2.20438e-05 2.20336e-05 2.20432e-05 2.19861e-05 2.05398e-05 1.5626e-05 8.48477e-06);
    }
}


// ************************************************************************* //
