/*--------------------------------*- C++ -*----------------------------------*\
| =========                 |                                                 |
| \\      /  F ield         | OpenFOAM: The Open Source CFD Toolbox           |
|  \\    /   O peration     | Version:  dev                                   |
|   \\  /    A nd           | Web:      www.OpenFOAM.org                      |
|    \\/     M anipulation  |                                                 |
\*---------------------------------------------------------------------------*/
FoamFile
{
    version     2.0;
    format      ascii;
    class       volScalarField;
    location    "0";
    object      H2;
}
// * * * * * * * * * * * * * * * * * * * * * * * * * * * * * * * * * * * * * //

dimensions      [0 0 0 0 0 0 0];

internalField   nonuniform List<scalar> 
250
(
0.00914375
0.00914184
0.0091423
0.00914003
0.00913957
0.00913186
0.00909916
0.00903823
0.00883606
0.00873697
0.00917251
0.00917051
0.00917115
0.00916877
0.00916833
0.00916092
0.00912925
0.00907292
0.00888113
0.00877507
0.00836597
0.00893642
0.0090824
0.00917249
0.00918832
0.00919759
0.00919692
0.00919808
0.00919844
0.00919903
0.0091991
0.00919708
0.00919789
0.00919539
0.00919497
0.00918786
0.00915744
0.00910357
0.00892288
0.0088124
0.00848164
0.00898256
0.00911408
0.00919814
0.00921328
0.00922207
0.00922151
0.0092227
0.00922296
0.00922351
0.00922365
0.00922165
0.00922258
0.00922001
0.00921959
0.00921277
0.00918382
0.00913245
0.00896653
0.00884923
0.00857346
0.00902629
0.00914404
0.00922191
0.00923633
0.00924463
0.00924416
0.00924537
0.00924554
0.00924607
0.00924628
0.00924432
0.00924534
0.00924271
0.0092423
0.00923574
0.00920844
0.00915963
0.0090091
0.00888548
0.0086686
0.00906545
0.00917224
0.00924393
0.0092576
0.00926537
0.00926501
0.00926624
0.00926632
0.00926684
0.00926711
0.00926521
0.00926627
0.00926363
0.00926323
0.00925691
0.00923142
0.00918515
0.00904441
0.00892101
0.00876871
0.00910211
0.00919864
0.00926431
0.00927718
0.00928443
0.00928417
0.00928541
0.0092854
0.00928593
0.00928626
0.00928442
0.0092855
0.00928287
0.00928247
0.00927635
0.00925283
0.00920907
0.00907777
0.0089559
0.00884545
0.00913625
0.00922321
0.00928313
0.00929516
0.00930189
0.00930172
0.00930299
0.00930285
0.00930343
0.00930381
0.00930205
0.00930313
0.0093005
0.00930013
0.0092942
0.00927273
0.00923137
0.00910945
0.00899021
0.00891698
0.00916792
0.00924585
0.00930046
0.00931219
0.00931815
0.00931808
0.00931903
0.00931912
0.00931941
0.00931982
0.00931815
0.0093192
0.00931699
0.00931663
0.00931117
0.0092911
0.00925367
0.00913957
0.00902391
0.00898075
0.00919837
0.00926856
0.00931627
0.00932718
0.00933259
0.00933261
0.00933352
0.00933354
0.00933387
0.00933429
0.00933272
0.00933372
0.00933162
0.00933129
0.00932617
0.00930791
0.00927386
0.00916809
0.00905693
0.00903794
0.00922512
0.00928785
0.00933048
0.00934059
0.00934546
0.00934557
0.00934643
0.00934641
0.00934675
0.00934717
0.00934572
0.00934664
0.00934469
0.00934437
0.00933966
0.00932313
0.00929181
0.00919492
0.00908912
0.00908896
0.00924923
0.00930524
0.009343
0.00935233
0.00935667
0.00935685
0.00935766
0.00935763
0.00935795
0.00935835
0.00935705
0.00935787
0.00935609
0.00935579
0.00935149
0.00933666
0.00930805
0.00921995
0.00912034
0.00913426
0.00927065
0.00932059
0.00935369
0.00936227
0.00936608
0.00936634
0.00936706
0.00936705
0.00936734
0.00936772
0.00936657
0.00936728
0.00936571
0.0093654
0.00936152
0.00934837
0.00932241
0.00924299
0.00915009
0.00937513
0.00937416
0.00937473
0.00937339
0.00937307
0.0093696
0.00935811
0.0093347
0.00926383
0.00917807
)
;

boundaryField
{
    fuel
    {
        type            fixedValue;
        value           nonuniform 0();
    }
    wall
    {
        type            zeroGradient;
    }
    outlet
    {
        type            zeroGradient;
    }
    frontAndBack
    {
        type            empty;
    }
    procBoundary0to1
    {
        type            processor;
        value           nonuniform List<scalar> 
21
(
0.00917388
0.00928931
0.00933372
0.0093624
0.00937026
0.00937357
0.00937389
0.00937453
0.00937454
0.00937479
0.00937479
0.0093805
0.00937972
0.00938014
0.00937903
0.00937871
0.00937563
0.00936573
0.00934478
0.0092823
0.00920408
)
;
    }
    procBoundary0to2
    {
        type            processor;
        value           nonuniform List<scalar> 
12
(
0.00914382
0.00823007
0.00888822
0.00904884
0.00914489
0.00916131
0.00917107
0.00917028
0.00917139
0.00917188
0.0091725
0.0091725
)
;
    }
    procBoundary0to3
    {
        type            processor;
        value           nonuniform List<scalar> 10(0.00911257 0.009111 0.00911126 0.00910912 0.00910862 0.00910075 0.00906702 0.00900414 0.0087876 0.00869781);
    }
}


// ************************************************************************* //
