/*--------------------------------*- C++ -*----------------------------------*\
| =========                 |                                                 |
| \\      /  F ield         | OpenFOAM: The Open Source CFD Toolbox           |
|  \\    /   O peration     | Version:  dev                                   |
|   \\  /    A nd           | Web:      www.OpenFOAM.org                      |
|    \\/     M anipulation  |                                                 |
\*---------------------------------------------------------------------------*/
FoamFile
{
    version     2.0;
    format      ascii;
    class       volScalarField;
    location    "0";
    object      HCCO;
}
// * * * * * * * * * * * * * * * * * * * * * * * * * * * * * * * * * * * * * //

dimensions      [0 0 0 0 0 0 0];

internalField   nonuniform List<scalar> 
25
(
4.02845e-06
7.7798e-06
8.92797e-06
8.69971e-06
7.70421e-06
6.36987e-06
5.00119e-06
3.79652e-06
2.81969e-06
2.07049e-06
1.51664e-06
1.11428e-06
8.24117e-07
6.17023e-07
4.68393e-07
3.60948e-07
2.82367e-07
2.24022e-07
1.79944e-07
1.46035e-07
1.19485e-07
9.83654e-08
8.13504e-08
6.74978e-08
5.61317e-08
)
;

boundaryField
{
    wall
    {
        type            zeroGradient;
    }
    fuel
    {
        type            fixedValue;
        value           uniform 0;
    }
    outlet
    {
        type            inletOutlet;
        inletValue      nonuniform 0();
        value           nonuniform 0();
    }
    procBoundary0to1
    {
        type            processor;
        value           uniform 4.67485e-08;
    }
}


// ************************************************************************* //
