/*--------------------------------*- C++ -*----------------------------------*\
| =========                 |                                                 |
| \\      /  F ield         | OpenFOAM: The Open Source CFD Toolbox           |
|  \\    /   O peration     | Version:  dev                                   |
|   \\  /    A nd           | Web:      www.OpenFOAM.org                      |
|    \\/     M anipulation  |                                                 |
\*---------------------------------------------------------------------------*/
FoamFile
{
    version     2.0;
    format      ascii;
    class       volScalarField;
    location    "0";
    object      i-C6H5;
}
// * * * * * * * * * * * * * * * * * * * * * * * * * * * * * * * * * * * * * //

dimensions      [0 0 0 0 0 0 0];

internalField   nonuniform List<scalar> 
250
(
2.49995e-11
2.51471e-11
2.50838e-11
2.5264e-11
2.5278e-11
2.56322e-11
2.71018e-11
2.8888e-11
3.61185e-11
1.67539e-11
2.2889e-11
2.30435e-11
2.29659e-11
2.31537e-11
2.31669e-11
2.34937e-11
2.4865e-11
2.62915e-11
3.27704e-11
1.84495e-11
3.24268e-11
2.8991e-11
2.50187e-11
2.16535e-11
2.14409e-11
2.09721e-11
2.10355e-11
2.09328e-11
2.09353e-11
2.08819e-11
2.08662e-11
2.10245e-11
2.0934e-11
2.11294e-11
2.11418e-11
2.1443e-11
2.27135e-11
2.39485e-11
2.97005e-11
1.95555e-11
2.96807e-11
2.53416e-11
2.25724e-11
1.96057e-11
1.94539e-11
1.90067e-11
1.9067e-11
1.89574e-11
1.89696e-11
1.89152e-11
1.88964e-11
1.90576e-11
1.89559e-11
1.91587e-11
1.91701e-11
1.94475e-11
2.0617e-11
2.16712e-11
2.65269e-11
1.99875e-11
2.71949e-11
2.18927e-11
2.0186e-11
1.75838e-11
1.74907e-11
1.7063e-11
1.71213e-11
1.70047e-11
1.70263e-11
1.69699e-11
1.69471e-11
1.71118e-11
1.70002e-11
1.72101e-11
1.72199e-11
1.74757e-11
1.85453e-11
1.94294e-11
2.34336e-11
1.97516e-11
2.41717e-11
1.87773e-11
1.78398e-11
1.55607e-11
1.55236e-11
1.51137e-11
1.51708e-11
1.50472e-11
1.50785e-11
1.50186e-11
1.4992e-11
1.51604e-11
1.504e-11
1.52567e-11
1.52641e-11
1.55002e-11
1.64715e-11
1.71982e-11
2.07806e-11
1.89089e-11
2.04871e-11
1.58364e-11
1.55199e-11
1.35209e-11
1.35356e-11
1.31431e-11
1.31996e-11
1.30693e-11
1.31117e-11
1.30459e-11
1.30162e-11
1.31879e-11
1.30603e-11
1.32828e-11
1.32867e-11
1.35049e-11
1.43778e-11
1.49627e-11
1.81663e-11
1.75331e-11
1.73379e-11
1.30807e-11
1.32272e-11
1.14683e-11
1.15294e-11
1.11564e-11
1.12123e-11
1.10756e-11
1.11315e-11
1.1057e-11
1.10252e-11
1.11978e-11
1.10658e-11
1.12923e-11
1.12917e-11
1.1493e-11
1.22643e-11
1.27321e-11
1.55657e-11
1.57164e-11
1.4151e-11
1.05287e-11
1.09896e-11
9.43357e-12
9.473e-12
9.14986e-12
9.20335e-12
9.09808e-12
9.12842e-12
9.084e-12
9.05176e-12
9.22069e-12
9.08844e-12
9.27585e-12
9.27107e-12
9.4321e-12
1.0158e-11
1.03968e-11
1.29853e-11
1.3572e-11
1.11817e-11
8.13584e-12
8.68091e-12
7.47885e-12
7.53781e-12
7.25056e-12
7.3005e-12
7.19926e-12
7.23686e-12
7.18902e-12
7.15808e-12
7.31642e-12
7.1903e-12
7.36655e-12
7.35767e-12
7.49477e-12
8.11628e-12
8.20829e-12
1.04764e-11
1.12391e-11
8.51483e-12
6.12245e-12
6.68479e-12
5.68895e-12
5.75267e-12
5.51039e-12
5.55436e-12
5.46403e-12
5.5023e-12
5.45704e-12
5.42935e-12
5.56896e-12
5.45625e-12
5.6113e-12
5.60015e-12
5.71041e-12
6.22207e-12
6.25603e-12
8.12298e-12
8.88202e-12
6.2464e-12
4.45717e-12
4.9352e-12
4.15791e-12
4.21405e-12
4.0244e-12
4.06007e-12
3.98648e-12
4.01991e-12
3.98209e-12
3.95946e-12
4.07247e-12
3.98029e-12
4.1053e-12
4.09418e-12
4.17704e-12
4.57261e-12
4.573e-12
6.03033e-12
6.67916e-12
4.44678e-12
3.19277e-12
3.52879e-12
2.97485e-12
3.01443e-12
2.88191e-12
2.90728e-12
2.8548e-12
2.87942e-12
2.85229e-12
2.83617e-12
2.91613e-12
2.85046e-12
2.93883e-12
2.93007e-12
2.9866e-12
3.26435e-12
3.25643e-12
4.30996e-12
4.81579e-12
2.1377e-12
2.17939e-12
2.14525e-12
2.19269e-12
2.18835e-12
2.22044e-12
2.38335e-12
2.38954e-12
3.06238e-12
3.43339e-12
)
;

boundaryField
{
    fuel
    {
        type            fixedValue;
        value           nonuniform 0();
    }
    wall
    {
        type            zeroGradient;
    }
    outlet
    {
        type            zeroGradient;
    }
    frontAndBack
    {
        type            empty;
    }
    procBoundary0to1
    {
        type            processor;
        value           nonuniform List<scalar> 
21
(
3.17104e-12
2.37987e-12
2.55387e-12
2.2182e-12
2.23644e-12
2.16215e-12
2.17567e-12
2.14712e-12
2.16014e-12
2.14573e-12
2.14573e-12
1.94991e-12
1.94768e-12
1.95057e-12
1.95382e-12
1.95552e-12
1.96492e-12
2.01703e-12
2.05613e-12
2.37725e-12
2.64265e-12
)
;
    }
    procBoundary0to2
    {
        type            processor;
        value           nonuniform List<scalar> 
12
(
2.50035e-11
3.55342e-11
3.28591e-11
2.75611e-11
2.37545e-11
2.34865e-11
2.29896e-11
2.30581e-11
2.29619e-11
2.29538e-11
2.29003e-11
2.29003e-11
)
;
    }
    procBoundary0to3
    {
        type            processor;
        value           nonuniform List<scalar> 10(2.72377e-11 2.73641e-11 2.73161e-11 2.74883e-11 2.75043e-11 2.78804e-11 2.94564e-11 3.14556e-11 3.97684e-11 1.46333e-11);
    }
}


// ************************************************************************* //
