/*--------------------------------*- C++ -*----------------------------------*\
| =========                 |                                                 |
| \\      /  F ield         | OpenFOAM: The Open Source CFD Toolbox           |
|  \\    /   O peration     | Version:  dev                                   |
|   \\  /    A nd           | Web:      www.OpenFOAM.org                      |
|    \\/     M anipulation  |                                                 |
\*---------------------------------------------------------------------------*/
FoamFile
{
    version     2.0;
    format      ascii;
    class       volScalarField;
    location    "0";
    object      l-C6H6;
}
// * * * * * * * * * * * * * * * * * * * * * * * * * * * * * * * * * * * * * //

dimensions      [0 0 0 0 0 0 0];

internalField   nonuniform List<scalar> 
250
(
1.39951e-09
1.40355e-09
1.40282e-09
1.40767e-09
1.40896e-09
1.42645e-09
1.50374e-09
1.68238e-09
2.53789e-09
1.87267e-09
1.33396e-09
1.33809e-09
1.33698e-09
1.34198e-09
1.34321e-09
1.35941e-09
1.43137e-09
1.58555e-09
2.31122e-09
1.94686e-09
3.90242e-09
2.31884e-09
1.58373e-09
1.33334e-09
1.29712e-09
1.27723e-09
1.27861e-09
1.27605e-09
1.27529e-09
1.27406e-09
1.27388e-09
1.27804e-09
1.27656e-09
1.28174e-09
1.28292e-09
1.29796e-09
1.36453e-09
1.50162e-09
2.11865e-09
1.97585e-09
3.63107e-09
2.09732e-09
1.49302e-09
1.27155e-09
1.23933e-09
1.22076e-09
1.22197e-09
1.21923e-09
1.21879e-09
1.21755e-09
1.21727e-09
1.22148e-09
1.21963e-09
1.22507e-09
1.2262e-09
1.24021e-09
1.30151e-09
1.42304e-09
1.93523e-09
1.96431e-09
3.37431e-09
1.89049e-09
1.40571e-09
1.211e-09
1.18297e-09
1.16543e-09
1.16655e-09
1.16354e-09
1.16344e-09
1.16211e-09
1.16167e-09
1.16606e-09
1.16379e-09
1.16961e-09
1.17067e-09
1.18381e-09
1.24014e-09
1.3473e-09
1.77027e-09
1.92006e-09
3.055e-09
1.70422e-09
1.31958e-09
1.14881e-09
1.1252e-09
1.1083e-09
1.10943e-09
1.10602e-09
1.10634e-09
1.10479e-09
1.10414e-09
1.1089e-09
1.10611e-09
1.11248e-09
1.11344e-09
1.12589e-09
1.1777e-09
1.27145e-09
1.63728e-09
1.8501e-09
2.66318e-09
1.52713e-09
1.23185e-09
1.08181e-09
1.06279e-09
1.04611e-09
1.04738e-09
1.04341e-09
1.04424e-09
1.04234e-09
1.04146e-09
1.04682e-09
1.04335e-09
1.05048e-09
1.05131e-09
1.06322e-09
1.11104e-09
1.19208e-09
1.51157e-09
1.75826e-09
2.3285e-09
1.35713e-09
1.13966e-09
1.00692e-09
9.9265e-10
9.75808e-10
9.77314e-10
9.72577e-10
9.74099e-10
9.71651e-10
9.70519e-10
9.7668e-10
9.72398e-10
9.80548e-10
9.81171e-10
9.92674e-10
1.03698e-09
1.10617e-09
1.38709e-09
1.64611e-09
1.98969e-09
1.19225e-09
1.0409e-09
9.21918e-10
9.10447e-10
8.94011e-10
8.95795e-10
8.91328e-10
8.92367e-10
8.90538e-10
8.89168e-10
8.9622e-10
8.91052e-10
8.99101e-10
8.99482e-10
9.0985e-10
9.53028e-10
1.00627e-09
1.2588e-09
1.51406e-09
1.67066e-09
1.02689e-09
9.26938e-10
8.26525e-10
8.19031e-10
8.02515e-10
8.04592e-10
7.99481e-10
8.01161e-10
7.98823e-10
7.97258e-10
8.05079e-10
7.99131e-10
8.08021e-10
8.08101e-10
8.17767e-10
8.58241e-10
8.97885e-10
1.12379e-09
1.36306e-09
1.37687e-09
8.73828e-10
8.12487e-10
7.23671e-10
7.19217e-10
7.03264e-10
7.05505e-10
7.00139e-10
7.02214e-10
6.99616e-10
6.97964e-10
7.06102e-10
6.99754e-10
7.08903e-10
7.08707e-10
7.17383e-10
7.54633e-10
7.84497e-10
9.82272e-10
1.19669e-09
1.11691e-09
7.34196e-10
6.96559e-10
6.21069e-10
6.18421e-10
6.04226e-10
6.06346e-10
6.0135e-10
6.03441e-10
6.00962e-10
5.99426e-10
6.06946e-10
6.00987e-10
6.09382e-10
6.09044e-10
6.16369e-10
6.4876e-10
6.70883e-10
8.39141e-10
1.02342e-09
9.01568e-10
6.21568e-10
5.91944e-10
5.34077e-10
5.31522e-10
5.21141e-10
5.22599e-10
5.19051e-10
5.20519e-10
5.18787e-10
5.17734e-10
5.22898e-10
5.1881e-10
5.2466e-10
5.24486e-10
5.29855e-10
5.54353e-10
5.72222e-10
7.06354e-10
8.60247e-10
4.84448e-10
4.83879e-10
4.84559e-10
4.84556e-10
4.85157e-10
4.87401e-10
4.98294e-10
5.17624e-10
6.07596e-10
7.3566e-10
)
;

boundaryField
{
    fuel
    {
        type            fixedValue;
        value           nonuniform 0();
    }
    wall
    {
        type            zeroGradient;
    }
    outlet
    {
        type            zeroGradient;
    }
    frontAndBack
    {
        type            empty;
    }
    procBoundary0to1
    {
        type            processor;
        value           nonuniform List<scalar> 
21
(
7.506e-10
5.6364e-10
5.2358e-10
4.92642e-10
4.87575e-10
4.84786e-10
4.84524e-10
4.84407e-10
4.84063e-10
4.84219e-10
4.84219e-10
5.6606e-10
5.52747e-10
5.64243e-10
5.51869e-10
5.5438e-10
5.51086e-10
5.36642e-10
5.67438e-10
5.90561e-10
7.02533e-10
)
;
    }
    procBoundary0to2
    {
        type            processor;
        value           nonuniform List<scalar> 
12
(
1.39926e-09
4.18871e-09
2.55689e-09
1.68008e-09
1.39856e-09
1.35873e-09
1.33716e-09
1.33881e-09
1.33634e-09
1.33526e-09
1.33397e-09
1.33397e-09
)
;
    }
    procBoundary0to3
    {
        type            processor;
        value           nonuniform List<scalar> 10(1.4723e-09 1.47576e-09 1.47544e-09 1.48016e-09 1.48155e-09 1.50008e-09 1.58319e-09 1.78302e-09 2.80486e-09 1.75573e-09);
    }
}


// ************************************************************************* //
