/*--------------------------------*- C++ -*----------------------------------*\
| =========                 |                                                 |
| \\      /  F ield         | OpenFOAM: The Open Source CFD Toolbox           |
|  \\    /   O peration     | Version:  dev                                   |
|   \\  /    A nd           | Web:      www.OpenFOAM.org                      |
|    \\/     M anipulation  |                                                 |
\*---------------------------------------------------------------------------*/
FoamFile
{
    version     2.0;
    format      ascii;
    class       volScalarField;
    location    "0";
    object      l-C6H4;
}
// * * * * * * * * * * * * * * * * * * * * * * * * * * * * * * * * * * * * * //

dimensions      [0 0 0 0 0 0 0];

internalField   nonuniform List<scalar> 
250
(
3.26266e-08
3.26825e-08
3.26946e-08
3.27592e-08
3.27931e-08
3.32179e-08
3.51547e-08
4.04269e-08
6.59369e-08
7.4587e-08
3.15948e-08
3.16463e-08
3.16555e-08
3.17155e-08
3.17475e-08
3.2139e-08
3.39309e-08
3.86069e-08
6.03564e-08
7.06986e-08
1.28965e-07
6.10833e-08
3.92601e-08
3.24706e-08
3.12465e-08
3.08231e-08
3.08334e-08
3.08135e-08
3.0781e-08
3.07735e-08
3.078e-08
3.08236e-08
3.08315e-08
3.08862e-08
3.09169e-08
3.12783e-08
3.29245e-08
3.71793e-08
5.58085e-08
6.72717e-08
1.17856e-07
5.65707e-08
3.77776e-08
3.17245e-08
3.05742e-08
3.01999e-08
3.02022e-08
3.01873e-08
3.01577e-08
3.01544e-08
3.01593e-08
3.01938e-08
3.02021e-08
3.02507e-08
3.02806e-08
3.06149e-08
3.21175e-08
3.6e-08
5.1686e-08
6.41293e-08
1.08652e-07
5.25782e-08
3.65139e-08
3.11513e-08
3.00744e-08
2.97452e-08
2.97405e-08
2.97305e-08
2.97029e-08
2.97032e-08
2.97061e-08
2.97318e-08
2.97417e-08
2.97838e-08
2.98132e-08
3.01239e-08
3.14871e-08
3.50385e-08
4.82257e-08
6.12395e-08
9.87406e-08
4.92535e-08
3.54487e-08
3.07215e-08
2.97176e-08
2.94287e-08
2.94179e-08
2.9412e-08
2.93862e-08
2.93893e-08
2.93902e-08
2.94082e-08
2.94199e-08
2.94558e-08
2.94849e-08
2.97757e-08
3.10058e-08
3.42615e-08
4.57528e-08
5.86112e-08
8.79632e-08
4.63744e-08
3.45569e-08
3.04052e-08
2.9474e-08
2.92196e-08
2.9204e-08
2.92012e-08
2.91769e-08
2.9182e-08
2.9181e-08
2.91926e-08
2.92061e-08
2.92363e-08
2.92656e-08
2.95399e-08
3.06435e-08
3.36347e-08
4.37356e-08
5.62273e-08
7.96016e-08
4.39287e-08
3.38195e-08
3.01817e-08
2.93222e-08
2.90975e-08
2.90779e-08
2.90766e-08
2.90545e-08
2.90602e-08
2.90577e-08
2.90633e-08
2.90789e-08
2.91044e-08
2.91339e-08
2.93937e-08
3.0377e-08
3.31362e-08
4.20742e-08
5.40646e-08
7.19066e-08
4.19228e-08
3.32392e-08
3.00565e-08
2.92552e-08
2.90635e-08
2.90396e-08
2.90445e-08
2.90195e-08
2.90304e-08
2.90274e-08
2.90244e-08
2.90448e-08
2.90586e-08
2.90888e-08
2.93282e-08
3.02059e-08
3.27239e-08
4.07044e-08
5.21106e-08
6.53799e-08
4.03362e-08
3.27956e-08
3.00893e-08
2.9338e-08
2.91843e-08
2.9154e-08
2.9167e-08
2.914e-08
2.91548e-08
2.91534e-08
2.91337e-08
2.91658e-08
2.91628e-08
2.91946e-08
2.94116e-08
3.01731e-08
3.25025e-08
3.96192e-08
5.03975e-08
6.01334e-08
3.94702e-08
3.27063e-08
3.04328e-08
2.97065e-08
2.96111e-08
2.95688e-08
2.96016e-08
2.95657e-08
2.95911e-08
2.95952e-08
2.95414e-08
2.96e-08
2.95612e-08
2.9597e-08
2.97836e-08
3.04072e-08
3.26131e-08
3.89007e-08
4.90506e-08
5.6424e-08
3.95446e-08
3.31725e-08
3.139e-08
3.06516e-08
3.06516e-08
3.05871e-08
3.06597e-08
3.06031e-08
3.06506e-08
3.06669e-08
3.05473e-08
3.06594e-08
3.05518e-08
3.05966e-08
3.07418e-08
3.11763e-08
3.33353e-08
3.87728e-08
4.83498e-08
5.46577e-08
4.10964e-08
3.46653e-08
3.35114e-08
3.27062e-08
3.2865e-08
3.27598e-08
3.29059e-08
3.28088e-08
3.28973e-08
3.29379e-08
3.2697e-08
3.29101e-08
3.26782e-08
3.27416e-08
3.28273e-08
3.2979e-08
3.52119e-08
3.96848e-08
4.88464e-08
3.74583e-08
3.69943e-08
3.73957e-08
3.69413e-08
3.70406e-08
3.70331e-08
3.6732e-08
3.92346e-08
4.2471e-08
5.15006e-08
)
;

boundaryField
{
    fuel
    {
        type            fixedValue;
        value           nonuniform 0();
    }
    wall
    {
        type            zeroGradient;
    }
    outlet
    {
        type            zeroGradient;
    }
    frontAndBack
    {
        type            empty;
    }
    procBoundary0to1
    {
        type            processor;
        value           nonuniform List<scalar> 
21
(
5.55841e-08
4.51367e-08
3.804e-08
3.78128e-08
3.68436e-08
3.72828e-08
3.71006e-08
3.73821e-08
3.72074e-08
3.73719e-08
3.73719e-08
4.63403e-08
4.54492e-08
4.62143e-08
4.53491e-08
4.55133e-08
4.53483e-08
4.4248e-08
4.73643e-08
4.87407e-08
5.80949e-08
)
;
    }
    procBoundary0to2
    {
        type            processor;
        value           nonuniform List<scalar> 
12
(
3.26158e-08
1.4183e-07
6.61275e-08
4.09871e-08
3.34132e-08
3.21181e-08
3.16407e-08
3.16601e-08
3.16353e-08
3.15989e-08
3.15868e-08
3.15868e-08
)
;
    }
    procBoundary0to3
    {
        type            processor;
        value           nonuniform List<scalar> 10(3.39001e-08 3.39494e-08 3.39654e-08 3.40336e-08 3.40704e-08 3.45229e-08 3.66174e-08 4.24281e-08 7.27366e-08 7.94222e-08);
    }
}


// ************************************************************************* //
