/*--------------------------------*- C++ -*----------------------------------*\
| =========                 |                                                 |
| \\      /  F ield         | OpenFOAM: The Open Source CFD Toolbox           |
|  \\    /   O peration     | Version:  dev                                   |
|   \\  /    A nd           | Web:      www.OpenFOAM.org                      |
|    \\/     M anipulation  |                                                 |
\*---------------------------------------------------------------------------*/
FoamFile
{
    version     2.0;
    format      ascii;
    class       volScalarField;
    location    "0";
    object      O;
}
// * * * * * * * * * * * * * * * * * * * * * * * * * * * * * * * * * * * * * //

dimensions      [0 0 0 0 0 0 0];

internalField   nonuniform List<scalar> 
25
(
0.000127689
0.000106592
7.62503e-05
5.53444e-05
4.30355e-05
3.64131e-05
3.27362e-05
3.06041e-05
2.92055e-05
2.80566e-05
2.69873e-05
2.58703e-05
2.47017e-05
2.34852e-05
2.22355e-05
2.09696e-05
1.97031e-05
1.84493e-05
1.72192e-05
1.60218e-05
1.48647e-05
1.37541e-05
1.26947e-05
1.16896e-05
1.07398e-05
)
;

boundaryField
{
    wall
    {
        type            zeroGradient;
    }
    fuel
    {
        type            fixedValue;
        value           uniform 0;
    }
    outlet
    {
        type            inletOutlet;
        inletValue      nonuniform 0();
        value           nonuniform 0();
    }
    procBoundary0to1
    {
        type            processor;
        value           uniform 9.84566e-06;
    }
}


// ************************************************************************* //
