/*--------------------------------*- C++ -*----------------------------------*\
| =========                 |                                                 |
| \\      /  F ield         | OpenFOAM: The Open Source CFD Toolbox           |
|  \\    /   O peration     | Version:  dev                                   |
|   \\  /    A nd           | Web:      www.OpenFOAM.org                      |
|    \\/     M anipulation  |                                                 |
\*---------------------------------------------------------------------------*/
FoamFile
{
    version     2.0;
    format      ascii;
    class       surfaceScalarField;
    location    "0.04";
    object      phi;
}
// * * * * * * * * * * * * * * * * * * * * * * * * * * * * * * * * * * * * * //

dimensions      [1 0 -1 0 0 0 0];

internalField   nonuniform List<scalar> 
11
(
3.82724e-05
3.96794e-05
4.11381e-05
4.2649e-05
4.42077e-05
4.58572e-05
4.75523e-05
4.93287e-05
5.11688e-05
5.30951e-05
5.51665e-05
)
;

boundaryField
{
    wall
    {
        type            calculated;
        value           nonuniform List<scalar> 
48
(
1.59703e-19
1.56616e-19
1.53452e-19
1.50212e-19
1.46898e-19
1.4351e-19
1.40045e-19
1.36508e-19
1.32901e-19
1.29231e-19
1.25492e-19
1.21722e-19
-1.59703e-19
-1.56616e-19
-1.53452e-19
-1.50212e-19
-1.46898e-19
-1.4351e-19
-1.40045e-19
-1.36508e-19
-1.32901e-19
-1.29231e-19
-1.25492e-19
-1.21722e-19
1.59703e-19
1.56616e-19
1.53452e-19
1.50212e-19
1.46898e-19
1.4351e-19
1.40045e-19
1.36508e-19
1.32901e-19
1.29231e-19
1.25492e-19
1.21722e-19
-1.59703e-19
-1.56616e-19
-1.53452e-19
-1.50212e-19
-1.46898e-19
-1.4351e-19
-1.40045e-19
-1.36508e-19
-1.32901e-19
-1.29231e-19
-1.25492e-19
-1.21722e-19
)
;
    }
    fuel
    {
        type            calculated;
        value           nonuniform 0();
    }
    outlet
    {
        type            calculated;
        value           nonuniform 0();
    }
    procBoundary4to3
    {
        type            processor;
        value           uniform -3.69155e-05;
    }
    procBoundary4to5
    {
        type            processor;
        value           uniform 5.70724e-05;
    }
}


// ************************************************************************* //
