/*--------------------------------*- C++ -*----------------------------------*\
| =========                 |                                                 |
| \\      /  F ield         | OpenFOAM: The Open Source CFD Toolbox           |
|  \\    /   O peration     | Version:  dev                                   |
|   \\  /    A nd           | Web:      www.OpenFOAM.org                      |
|    \\/     M anipulation  |                                                 |
\*---------------------------------------------------------------------------*/
FoamFile
{
    version     2.0;
    format      ascii;
    class       volScalarField;
    location    "0.15";
    object      A2C2HA*;
}
// * * * * * * * * * * * * * * * * * * * * * * * * * * * * * * * * * * * * * //

dimensions      [0 0 0 0 0 0 0];

internalField   nonuniform List<scalar> 
250
(
3.77633e-12
1.43078e-09
1.01157e-09
9.71126e-10
9.67938e-10
9.66868e-10
9.67333e-10
9.65608e-10
9.66792e-10
2.01213e-12
1.2453e-09
6.13296e-10
5.69975e-10
5.66062e-10
5.65462e-10
5.65578e-10
5.65185e-10
5.65476e-10
7.70592e-13
8.09011e-10
3.08763e-10
2.78366e-10
2.75563e-10
2.75073e-10
2.75161e-10
2.74993e-10
2.75097e-10
3.57682e-13
5.12414e-10
1.61376e-10
1.41013e-10
1.39079e-10
1.38705e-10
1.38775e-10
1.38673e-10
1.38721e-10
2.05679e-13
3.33491e-10
9.27174e-11
7.85547e-11
7.7217e-11
7.69611e-11
7.7004e-11
7.69443e-11
7.69664e-11
1.36574e-13
2.25695e-10
5.79781e-11
4.80206e-11
4.66326e-11
4.62774e-11
4.62793e-11
4.62355e-11
4.62646e-11
9.96763e-14
1.55847e-10
4.00524e-11
3.24998e-11
3.13469e-11
3.10418e-11
3.10063e-11
3.09981e-11
3.10137e-11
8.04422e-14
1.09649e-10
2.97064e-11
2.37557e-11
2.27182e-11
2.24338e-11
2.23333e-11
2.23727e-11
2.2372e-11
9.44472e-14
8.3149e-11
2.27468e-11
1.81359e-11
1.74114e-11
1.71642e-11
1.69936e-11
1.70013e-11
1.70088e-11
1.42299e-13
6.21766e-11
1.78275e-11
1.41857e-11
1.35523e-11
1.34168e-11
1.3492e-11
1.34858e-11
1.35357e-11
2.12852e-13
4.64788e-11
1.47423e-11
1.17848e-11
1.12056e-11
1.11056e-11
1.10893e-11
1.11022e-11
1.11557e-11
1.1112e-11
3.27694e-13
3.47805e-11
1.22815e-11
9.86221e-12
9.30015e-12
9.20366e-12
9.19909e-12
9.18053e-12
9.22424e-12
9.19135e-12
5.27989e-13
2.74344e-11
1.03482e-11
8.37852e-12
7.86906e-12
7.76737e-12
7.77963e-12
7.73732e-12
7.77509e-12
7.74491e-12
8.41742e-13
2.19092e-11
8.85049e-12
7.22043e-12
6.75695e-12
6.64947e-12
6.67603e-12
6.61399e-12
6.65092e-12
6.62221e-12
1.28171e-12
1.77255e-11
7.66403e-12
6.28999e-12
5.8674e-12
5.75548e-12
5.79457e-12
5.71445e-12
5.75402e-12
5.72636e-12
1.84438e-12
1.45654e-11
6.70434e-12
5.52402e-12
5.13844e-12
5.02396e-12
5.0734e-12
4.97668e-12
5.02148e-12
4.99452e-12
2.50778e-12
1.19683e-11
5.91121e-12
4.88054e-12
4.52902e-12
4.41383e-12
4.46255e-12
4.35873e-12
4.41148e-12
4.38499e-12
3.23624e-12
9.92934e-12
5.24219e-12
4.3309e-12
4.01111e-12
3.8971e-12
3.9388e-12
3.83086e-12
3.89541e-12
3.86927e-12
3.98433e-12
8.55589e-12
4.66278e-12
3.855e-12
3.56495e-12
3.45391e-12
3.48945e-12
3.42847e-12
3.4531e-12
3.42722e-12
4.7038e-12
7.4844e-12
4.2112e-12
3.43844e-12
3.17608e-12
3.06957e-12
3.10066e-12
3.03864e-12
3.06936e-12
3.04406e-12
5.3577e-12
6.64587e-12
3.81403e-12
3.06987e-12
2.83345e-12
2.73273e-12
2.76065e-12
2.69518e-12
2.73291e-12
2.70851e-12
5.92308e-12
5.97699e-12
3.435e-12
2.73927e-12
2.52798e-12
2.43406e-12
2.45959e-12
2.42368e-12
2.43452e-12
2.41128e-12
6.38661e-12
5.42727e-12
3.09417e-12
2.47699e-12
2.2843e-12
2.19698e-12
2.22046e-12
2.18495e-12
2.19749e-12
2.17531e-12
6.73843e-12
4.96282e-12
2.81583e-12
2.23229e-12
2.05578e-12
1.97157e-12
1.99478e-12
1.95805e-12
1.97291e-12
1.95056e-12
6.96935e-12
4.52987e-12
2.5358e-12
2.01923e-12
1.8603e-12
1.78275e-12
1.80397e-12
1.7689e-12
1.78406e-12
1.76302e-12
7.07309e-12
4.1511e-12
2.29837e-12
1.82723e-12
1.68509e-12
1.61431e-12
1.6335e-12
1.60059e-12
1.61554e-12
1.59595e-12
)
;

boundaryField
{
    fuel
    {
        type            fixedValue;
        value           uniform 0;
    }
    wall
    {
        type            zeroGradient;
    }
    outlet
    {
        type            zeroGradient;
    }
    frontAndBack
    {
        type            empty;
    }
    procBoundary2to0
    {
        type            processor;
        value           nonuniform List<scalar> 
12
(
1.77038e-12
7.04369e-12
3.76068e-12
2.08019e-12
1.65453e-12
1.52824e-12
1.46436e-12
1.48144e-12
1.45112e-12
1.46544e-12
1.60301e-12
1.44744e-12
)
;
    }
    procBoundary2to3
    {
        type            processor;
        value           nonuniform List<scalar> 
25
(
9.66712e-10
5.65445e-10
2.75106e-10
1.38743e-10
7.69907e-11
4.62737e-11
3.10205e-11
2.23842e-11
1.70582e-11
1.34471e-11
1.34471e-11
1.1113e-11
9.18767e-12
7.74569e-12
6.62578e-12
5.73113e-12
4.99984e-12
4.39074e-12
3.87546e-12
3.43384e-12
3.05105e-12
2.71573e-12
2.41859e-12
2.18259e-12
1.95809e-12
)
;
    }
}


// ************************************************************************* //
