/*--------------------------------*- C++ -*----------------------------------*\
| =========                 |                                                 |
| \\      /  F ield         | OpenFOAM: The Open Source CFD Toolbox           |
|  \\    /   O peration     | Version:  dev                                   |
|   \\  /    A nd           | Web:      www.OpenFOAM.org                      |
|    \\/     M anipulation  |                                                 |
\*---------------------------------------------------------------------------*/
FoamFile
{
    version     2.0;
    format      ascii;
    class       volScalarField;
    location    "0.15";
    object      A2C2HB*;
}
// * * * * * * * * * * * * * * * * * * * * * * * * * * * * * * * * * * * * * //

dimensions      [0 0 0 0 0 0 0];

internalField   nonuniform List<scalar> 
250
(
1.73451e-11
1.88269e-09
1.6377e-09
1.59529e-09
1.58805e-09
1.58826e-09
1.58807e-09
1.58903e-09
1.58783e-09
1.08062e-11
1.53649e-09
1.15766e-09
1.10296e-09
1.09513e-09
1.0943e-09
1.09359e-09
1.09429e-09
1.09398e-09
3.7926e-12
9.12334e-10
6.15373e-10
5.74939e-10
5.69125e-10
5.68541e-10
5.67974e-10
5.68282e-10
5.68291e-10
1.4743e-12
5.39645e-10
3.25592e-10
2.9796e-10
2.94089e-10
2.9373e-10
2.93188e-10
2.93359e-10
2.93372e-10
7.82476e-13
3.45043e-10
1.85135e-10
1.65748e-10
1.63336e-10
1.63111e-10
1.62122e-10
1.62725e-10
1.62157e-10
5.61162e-13
2.41182e-10
1.1544e-10
9.98769e-11
9.70972e-11
9.68155e-11
9.73137e-11
9.6832e-11
9.74864e-11
5.81861e-13
1.81142e-10
7.86617e-11
6.60393e-11
6.3767e-11
6.35191e-11
6.36023e-11
6.3565e-11
6.37031e-11
1.50842e-12
1.42757e-10
5.63506e-11
4.69571e-11
4.48271e-11
4.45784e-11
4.45134e-11
4.45653e-11
4.4604e-11
5.58579e-12
1.15783e-10
4.33698e-11
3.44169e-11
3.28925e-11
3.27855e-11
3.27999e-11
3.27604e-11
3.27957e-11
1.20819e-11
9.54655e-11
3.43765e-11
2.58712e-11
2.52768e-11
2.51795e-11
2.51537e-11
2.51445e-11
2.51772e-11
1.67182e-11
7.96172e-11
2.76141e-11
2.06675e-11
1.99392e-11
1.97961e-11
1.97209e-11
1.97511e-11
1.97897e-11
1.97524e-11
1.85929e-11
6.7157e-11
2.26127e-11
1.65127e-11
1.57628e-11
1.56281e-11
1.55115e-11
1.5586e-11
1.56225e-11
1.55944e-11
1.93381e-11
5.65271e-11
1.92595e-11
1.34221e-11
1.26952e-11
1.25702e-11
1.23892e-11
1.25302e-11
1.25649e-11
1.25445e-11
1.99231e-11
4.85363e-11
1.64603e-11
1.10819e-11
1.03885e-11
1.02763e-11
1.03117e-11
1.02348e-11
1.02679e-11
1.02537e-11
2.06666e-11
4.20366e-11
1.40869e-11
9.27209e-12
8.6205e-12
8.52021e-12
8.56443e-12
8.47535e-12
8.50908e-12
8.49985e-12
2.16177e-11
3.65317e-11
1.2125e-11
7.84728e-12
7.24315e-12
7.15344e-12
7.18429e-12
7.10288e-12
7.14029e-12
7.13483e-12
2.25412e-11
3.15518e-11
1.06826e-11
6.70686e-12
6.15508e-12
6.07417e-12
6.09598e-12
6.01402e-12
6.05963e-12
6.05691e-12
2.32695e-11
2.78155e-11
9.43534e-12
5.7782e-12
5.28373e-12
5.21039e-12
5.22492e-12
5.13396e-12
5.19513e-12
5.19425e-12
2.35928e-11
2.42451e-11
8.27403e-12
5.00662e-12
4.57654e-12
4.51008e-12
4.5195e-12
4.49795e-12
4.49493e-12
4.49495e-12
2.33903e-11
2.10799e-11
7.27553e-12
4.43077e-12
3.9949e-12
3.9348e-12
3.94016e-12
3.9139e-12
3.92005e-12
3.92063e-12
2.26493e-11
1.82926e-11
6.40703e-12
3.9278e-12
3.50903e-12
3.45551e-12
3.45796e-12
3.42409e-12
3.44147e-12
3.44229e-12
2.14518e-11
1.58131e-11
5.64454e-12
3.46597e-12
3.09551e-12
3.04944e-12
3.05019e-12
3.05318e-12
3.03643e-12
3.03716e-12
1.99355e-11
1.35819e-11
4.9713e-12
3.10936e-12
2.77749e-12
2.73887e-12
2.73855e-12
2.73917e-12
2.72692e-12
2.72754e-12
1.82497e-11
1.1796e-11
4.37276e-12
2.78689e-12
2.50304e-12
2.45152e-12
2.45015e-12
2.44858e-12
2.4399e-12
2.44011e-12
1.65252e-11
1.01921e-11
3.83478e-12
2.51623e-12
2.26484e-12
2.21872e-12
2.21666e-12
2.21418e-12
2.20801e-12
2.20809e-12
1.46764e-11
8.78792e-12
3.40414e-12
2.27371e-12
2.057e-12
2.01585e-12
2.01334e-12
2.01034e-12
2.00605e-12
2.00601e-12
)
;

boundaryField
{
    fuel
    {
        type            fixedValue;
        value           uniform 0;
    }
    wall
    {
        type            zeroGradient;
    }
    outlet
    {
        type            zeroGradient;
    }
    frontAndBack
    {
        type            empty;
    }
    procBoundary2to0
    {
        type            processor;
        value           nonuniform List<scalar> 
12
(
2.19718e-12
1.29922e-11
7.45699e-12
3.01999e-12
2.06464e-12
1.87536e-12
1.83883e-12
1.83603e-12
1.83282e-12
1.8299e-12
1.99578e-12
1.82976e-12
)
;
    }
    procBoundary2to3
    {
        type            processor;
        value           nonuniform List<scalar> 
25
(
1.58836e-09
1.09403e-09
5.68153e-10
2.93296e-10
1.62357e-10
9.71239e-11
6.35302e-11
4.45255e-11
3.27418e-11
2.51385e-11
2.51385e-11
1.97847e-11
1.56142e-11
1.25537e-11
1.02548e-11
8.49497e-12
7.126e-12
6.04565e-12
5.18168e-12
4.48183e-12
3.90748e-12
3.42945e-12
3.02487e-12
2.71575e-12
2.42853e-12
)
;
    }
}


// ************************************************************************* //
