/*--------------------------------*- C++ -*----------------------------------*\
| =========                 |                                                 |
| \\      /  F ield         | OpenFOAM: The Open Source CFD Toolbox           |
|  \\    /   O peration     | Version:  dev                                   |
|   \\  /    A nd           | Web:      www.OpenFOAM.org                      |
|    \\/     M anipulation  |                                                 |
\*---------------------------------------------------------------------------*/
FoamFile
{
    version     2.0;
    format      ascii;
    class       volScalarField;
    location    "0.15";
    object      A2C2HB;
}
// * * * * * * * * * * * * * * * * * * * * * * * * * * * * * * * * * * * * * //

dimensions      [0 0 0 0 0 0 0];

internalField   nonuniform List<scalar> 
250
(
2.37829e-09
7.41415e-08
5.99322e-08
5.77663e-08
5.75162e-08
5.74524e-08
5.74094e-08
5.74633e-08
5.7444e-08
5.41316e-09
6.47757e-08
4.54473e-08
4.27655e-08
4.24175e-08
4.23584e-08
4.23247e-08
4.23565e-08
4.23465e-08
7.43792e-09
4.87356e-08
3.01581e-08
2.76779e-08
2.73416e-08
2.72937e-08
2.72668e-08
2.72837e-08
2.72813e-08
8.72144e-09
3.79374e-08
2.09296e-08
1.86809e-08
1.83766e-08
1.83364e-08
1.83063e-08
1.83186e-08
1.83165e-08
9.55376e-09
3.10037e-08
1.53632e-08
1.33052e-08
1.30382e-08
1.30037e-08
1.2946e-08
1.29811e-08
1.29501e-08
1.01364e-08
2.63624e-08
1.17828e-08
9.80954e-09
9.49481e-09
9.45607e-09
9.48072e-09
9.45702e-09
9.49386e-09
1.05997e-08
2.30958e-08
9.34421e-09
7.48842e-09
7.18643e-09
7.14883e-09
7.14981e-09
7.15106e-09
7.15876e-09
1.10281e-08
2.068e-08
7.48609e-09
5.86221e-09
5.55639e-09
5.51784e-09
5.50807e-09
5.51501e-09
5.51741e-09
1.14085e-08
1.88015e-08
6.19814e-09
4.59172e-09
4.34229e-09
4.31887e-09
4.31864e-09
4.31517e-09
4.31835e-09
1.15621e-08
1.72611e-08
5.1801e-09
3.61004e-09
3.47193e-09
3.45041e-09
3.44621e-09
3.44573e-09
3.44906e-09
1.16766e-08
1.59352e-08
4.33632e-09
2.9631e-09
2.81247e-09
2.78574e-09
2.77551e-09
2.77983e-09
2.78417e-09
2.77966e-09
1.19947e-08
1.47531e-08
3.66787e-09
2.41854e-09
2.2689e-09
2.24375e-09
2.22786e-09
2.23822e-09
2.24242e-09
2.23889e-09
1.25168e-08
1.35764e-08
3.19928e-09
1.99974e-09
1.85656e-09
1.83315e-09
1.80814e-09
1.82793e-09
1.83198e-09
1.82936e-09
1.31818e-08
1.25351e-08
2.7948e-09
1.67618e-09
1.54055e-09
1.51933e-09
1.52393e-09
1.51398e-09
1.51783e-09
1.516e-09
1.39172e-08
1.15392e-08
2.4425e-09
1.4231e-09
1.2959e-09
1.27672e-09
1.28265e-09
1.27098e-09
1.27491e-09
1.27373e-09
1.47008e-08
1.05537e-08
2.14484e-09
1.22281e-09
1.10456e-09
1.08722e-09
1.09138e-09
1.08075e-09
1.08517e-09
1.08452e-09
1.53692e-08
9.52161e-09
1.92259e-09
1.0624e-09
9.53605e-10
9.37789e-10
9.40745e-10
9.29994e-10
9.35571e-10
9.35314e-10
1.58788e-08
8.64605e-09
1.72822e-09
9.32239e-10
8.33422e-10
8.18908e-10
8.20872e-10
8.088e-10
8.16607e-10
8.16631e-10
1.6143e-08
7.71716e-09
1.5455e-09
8.24932e-10
7.36943e-10
7.23595e-10
7.24846e-10
7.22276e-10
7.2132e-10
7.21501e-10
1.61038e-08
6.8239e-09
1.38749e-09
7.46042e-10
6.58944e-10
6.46652e-10
6.47328e-10
6.4419e-10
6.44445e-10
6.44738e-10
1.574e-08
5.98993e-09
1.24999e-09
6.78626e-10
5.954e-10
5.84155e-10
5.84413e-10
5.80287e-10
5.82066e-10
5.82428e-10
1.50674e-08
5.22001e-09
1.12994e-09
6.18499e-10
5.43195e-10
5.33088e-10
5.33094e-10
5.33688e-10
5.31169e-10
5.31556e-10
1.41334e-08
4.51439e-09
1.02525e-09
5.74068e-10
5.05119e-10
4.96109e-10
4.95957e-10
4.96341e-10
4.9437e-10
4.94775e-10
1.30081e-08
3.94827e-09
9.34211e-10
5.36314e-10
4.74689e-10
4.64457e-10
4.64154e-10
4.64366e-10
4.62828e-10
4.63221e-10
1.1778e-08
3.44478e-09
8.54978e-10
5.07435e-10
4.51151e-10
4.41697e-10
4.41292e-10
4.41487e-10
4.40246e-10
4.40659e-10
1.03988e-08
3.01252e-09
7.94723e-10
4.85033e-10
4.34087e-10
4.25361e-10
4.24881e-10
4.25131e-10
4.24098e-10
4.2454e-10
)
;

boundaryField
{
    fuel
    {
        type            fixedValue;
        value           uniform 0;
    }
    wall
    {
        type            zeroGradient;
    }
    outlet
    {
        type            zeroGradient;
    }
    frontAndBack
    {
        type            empty;
    }
    procBoundary2to0
    {
        type            processor;
        value           nonuniform List<scalar> 
12
(
4.39604e-10
9.11669e-09
2.61442e-09
7.44942e-10
4.69961e-10
4.23494e-10
4.15467e-10
4.14934e-10
4.15305e-10
4.14399e-10
4.23686e-10
4.14888e-10
)
;
    }
    procBoundary2to3
    {
        type            processor;
        value           nonuniform List<scalar> 
25
(
5.74513e-08
4.23501e-08
2.72797e-08
1.83157e-08
1.29614e-08
9.46932e-09
7.14579e-09
5.51061e-09
4.31292e-09
3.44478e-09
3.44478e-09
2.78375e-09
2.24154e-09
1.83069e-09
1.51626e-09
1.27321e-09
1.08346e-09
9.3392e-10
8.15062e-10
7.19869e-10
6.4312e-10
5.80879e-10
5.30117e-10
4.93446e-10
4.61992e-10
)
;
    }
}


// ************************************************************************* //
