/*--------------------------------*- C++ -*----------------------------------*\
| =========                 |                                                 |
| \\      /  F ield         | OpenFOAM: The Open Source CFD Toolbox           |
|  \\    /   O peration     | Version:  dev                                   |
|   \\  /    A nd           | Web:      www.OpenFOAM.org                      |
|    \\/     M anipulation  |                                                 |
\*---------------------------------------------------------------------------*/
FoamFile
{
    version     2.0;
    format      ascii;
    class       volScalarField;
    location    "0.15";
    object      c-C6H7;
}
// * * * * * * * * * * * * * * * * * * * * * * * * * * * * * * * * * * * * * //

dimensions      [0 0 0 0 0 0 0];

internalField   nonuniform List<scalar> 
250
(
4.2529e-09
1.12111e-08
1.01366e-08
9.97388e-09
9.95036e-09
9.94749e-09
9.94708e-09
9.94955e-09
9.94618e-09
1.21359e-08
7.21115e-09
6.04157e-09
5.88632e-09
5.86406e-09
5.86132e-09
5.85993e-09
5.86127e-09
5.86037e-09
5.1196e-09
3.87025e-09
2.94056e-09
2.83316e-09
2.81725e-09
2.8159e-09
2.81456e-09
2.815e-09
2.8151e-09
7.08215e-10
2.15075e-09
1.42422e-09
1.35217e-09
1.34219e-09
1.34147e-09
1.33983e-09
1.34012e-09
1.34008e-09
1.38758e-10
1.34201e-09
7.46581e-10
6.96423e-10
6.91163e-10
6.90772e-10
6.8684e-10
6.89347e-10
6.86629e-10
8.22879e-11
9.44816e-10
4.36689e-10
3.94537e-10
3.86605e-10
3.85813e-10
3.88414e-10
3.86045e-10
3.88924e-10
1.38108e-10
7.28931e-10
2.85719e-10
2.51113e-10
2.44857e-10
2.44147e-10
2.44785e-10
2.44484e-10
2.45039e-10
5.65807e-10
5.95613e-10
2.01129e-10
1.7622e-10
1.70246e-10
1.69498e-10
1.6946e-10
1.69569e-10
1.69676e-10
1.56224e-09
5.02215e-10
1.55428e-10
1.30698e-10
1.26598e-10
1.2632e-10
1.26508e-10
1.26311e-10
1.26396e-10
2.02824e-09
4.29369e-10
1.25971e-10
1.01856e-10
1.00563e-10
1.0029e-10
1.00308e-10
1.00225e-10
1.003e-10
1.94346e-09
3.69711e-10
1.05236e-10
8.53038e-11
8.33811e-11
8.29432e-11
8.27851e-11
8.2834e-11
8.2928e-11
8.28322e-11
1.75101e-09
3.20859e-10
9.06829e-11
7.27356e-11
7.05842e-11
7.01527e-11
6.98515e-11
7.00433e-11
7.01319e-11
7.0058e-11
1.59821e-09
2.77757e-10
8.12775e-11
6.36886e-11
6.14714e-11
6.10482e-11
6.05333e-11
6.09375e-11
6.10231e-11
6.09701e-11
1.47653e-09
2.44496e-10
7.35971e-11
5.69326e-11
5.46963e-11
5.42914e-11
5.43998e-11
5.41683e-11
5.42533e-11
5.4218e-11
1.36e-09
2.16792e-10
6.71149e-11
5.16829e-11
4.94651e-11
4.90778e-11
4.92066e-11
4.89355e-11
4.90285e-11
4.90077e-11
1.22539e-09
1.92795e-10
6.16984e-11
4.74631e-11
4.52939e-11
4.49229e-11
4.50104e-11
4.4752e-11
4.48648e-11
4.48558e-11
1.08225e-09
1.70643e-10
5.76463e-11
4.39723e-11
4.18822e-11
4.15247e-11
4.15854e-11
4.13102e-11
4.14603e-11
4.14608e-11
9.29844e-10
1.53721e-10
5.40545e-11
4.10139e-11
3.90354e-11
3.86905e-11
3.87297e-11
3.84093e-11
3.86226e-11
3.86303e-11
7.78363e-10
1.37386e-10
5.06048e-11
3.84542e-11
3.66267e-11
3.62947e-11
3.63194e-11
3.62395e-11
3.62273e-11
3.62393e-11
6.37573e-10
1.22814e-10
4.75534e-11
3.64914e-11
3.45719e-11
3.42542e-11
3.4267e-11
3.41679e-11
3.4189e-11
3.42046e-11
5.14117e-10
1.09959e-10
4.48367e-11
3.4738e-11
3.28113e-11
3.25117e-11
3.25161e-11
3.23863e-11
3.24509e-11
3.2469e-11
4.10918e-10
9.85534e-11
4.24148e-11
3.31077e-11
3.13027e-11
3.10277e-11
3.10278e-11
3.10462e-11
3.09734e-11
3.09928e-11
3.27826e-10
8.83546e-11
4.02679e-11
3.18806e-11
3.01815e-11
2.99327e-11
2.99302e-11
2.99465e-11
2.98852e-11
2.99056e-11
2.62819e-10
8.02532e-11
3.83769e-11
3.08234e-11
2.92771e-11
2.89781e-11
2.89725e-11
2.8986e-11
2.89351e-11
2.89554e-11
2.13238e-10
7.30712e-11
3.672e-11
3.00202e-11
2.85819e-11
2.83006e-11
2.82928e-11
2.83073e-11
2.82639e-11
2.82851e-11
1.72665e-10
6.68809e-11
3.54708e-11
2.9405e-11
2.80885e-11
2.78263e-11
2.78166e-11
2.78334e-11
2.77958e-11
2.78176e-11
)
;

boundaryField
{
    fuel
    {
        type            fixedValue;
        value           uniform 0;
    }
    wall
    {
        type            zeroGradient;
    }
    outlet
    {
        type            zeroGradient;
    }
    frontAndBack
    {
        type            empty;
    }
    procBoundary2to0
    {
        type            processor;
        value           nonuniform List<scalar> 
12
(
2.82463e-11
1.43526e-10
6.11209e-11
3.44426e-11
2.89986e-11
2.77885e-11
2.75461e-11
2.75347e-11
2.75545e-11
2.75211e-11
2.77845e-11
2.75435e-11
)
;
    }
    procBoundary2to3
    {
        type            processor;
        value           nonuniform List<scalar> 
25
(
9.94813e-09
5.86074e-09
2.81468e-09
1.33996e-09
6.8771e-10
3.87511e-10
2.44409e-10
1.69432e-10
1.26243e-10
1.00197e-10
1.00197e-10
8.29148e-11
7.01128e-11
6.09971e-11
5.42219e-11
4.89937e-11
4.48285e-11
4.14239e-11
3.8587e-11
3.61919e-11
3.41552e-11
3.24194e-11
3.09447e-11
2.98599e-11
2.8912e-11
)
;
    }
}


// ************************************************************************* //
