/*--------------------------------*- C++ -*----------------------------------*\
| =========                 |                                                 |
| \\      /  F ield         | OpenFOAM: The Open Source CFD Toolbox           |
|  \\    /   O peration     | Version:  dev                                   |
|   \\  /    A nd           | Web:      www.OpenFOAM.org                      |
|    \\/     M anipulation  |                                                 |
\*---------------------------------------------------------------------------*/
FoamFile
{
    version     2.0;
    format      ascii;
    class       volScalarField;
    location    "0.15";
    object      C5H2;
}
// * * * * * * * * * * * * * * * * * * * * * * * * * * * * * * * * * * * * * //

dimensions      [0 0 0 0 0 0 0];

internalField   nonuniform List<scalar> 
50
(
7.37143e-21
6.72763e-21
6.14592e-21
5.62031e-21
5.14522e-21
4.72054e-21
4.33464e-21
3.98336e-21
3.66535e-21
3.38057e-21
3.12018e-21
2.88334e-21
2.66824e-21
2.47495e-21
2.29783e-21
2.13765e-21
1.99165e-21
1.85784e-21
1.73618e-21
1.62471e-21
1.52158e-21
1.42803e-21
1.34195e-21
1.26258e-21
1.18919e-21
1.12113e-21
1.0578e-21
9.98666e-22
9.43228e-22
8.91046e-22
8.4154e-22
7.94728e-22
7.50128e-22
7.07497e-22
6.66634e-22
6.26974e-22
5.89175e-22
5.5232e-22
5.17193e-22
4.83041e-22
4.50028e-22
4.18689e-22
3.8864e-22
3.59615e-22
3.32246e-22
3.0627e-22
2.81724e-22
2.58634e-22
2.36754e-22
2.16532e-22
)
;

boundaryField
{
    wall
    {
        type            zeroGradient;
    }
    fuel
    {
        type            fixedValue;
        value           nonuniform 0();
    }
    outlet
    {
        type            inletOutlet;
        inletValue      nonuniform 0();
        value           nonuniform 0();
    }
    procBoundary2to1
    {
        type            processor;
        value           uniform 8.08874e-21;
    }
    procBoundary2to3
    {
        type            processor;
        value           uniform 1.97561e-22;
    }
}


// ************************************************************************* //
