/*--------------------------------*- C++ -*----------------------------------*\
| =========                 |                                                 |
| \\      /  F ield         | OpenFOAM: The Open Source CFD Toolbox           |
|  \\    /   O peration     | Version:  dev                                   |
|   \\  /    A nd           | Web:      www.OpenFOAM.org                      |
|    \\/     M anipulation  |                                                 |
\*---------------------------------------------------------------------------*/
FoamFile
{
    version     2.0;
    format      ascii;
    class       volScalarField;
    location    "0.15";
    object      H;
}
// * * * * * * * * * * * * * * * * * * * * * * * * * * * * * * * * * * * * * //

dimensions      [0 0 0 0 0 0 0];

internalField   nonuniform List<scalar> 
250
(
2.94058e-08
0.000108771
0.000132524
0.000134422
0.000134717
0.000134596
0.000134697
0.000134543
0.000134602
3.21564e-08
0.00010434
0.000124662
0.000126505
0.000126713
0.000126681
0.000126722
0.000126691
0.000126698
2.84099e-08
7.41307e-05
9.05262e-05
9.22675e-05
9.24621e-05
9.24416e-05
9.24751e-05
9.24581e-05
9.24603e-05
2.26387e-08
5.06953e-05
6.39757e-05
6.56103e-05
6.5793e-05
6.57825e-05
6.58139e-05
6.57998e-05
6.58005e-05
1.88396e-08
3.59942e-05
4.7602e-05
4.91768e-05
4.93793e-05
4.9392e-05
4.9419e-05
4.94093e-05
4.94073e-05
1.98453e-08
2.71199e-05
3.7732e-05
3.94126e-05
3.94999e-05
3.94739e-05
3.94913e-05
3.94807e-05
3.94833e-05
3.32313e-08
2.1485e-05
3.21732e-05
3.39065e-05
3.40193e-05
3.40084e-05
3.40172e-05
3.40131e-05
3.40132e-05
7.85928e-08
1.78887e-05
2.89413e-05
3.07399e-05
3.08633e-05
3.08591e-05
3.08502e-05
3.08572e-05
3.08539e-05
1.93051e-07
1.6006e-05
2.69089e-05
2.8812e-05
2.90245e-05
2.90284e-05
2.90008e-05
2.89931e-05
2.89936e-05
3.92981e-07
1.47787e-05
2.56449e-05
2.75971e-05
2.78327e-05
2.78598e-05
2.79067e-05
2.78938e-05
2.79062e-05
6.63955e-07
1.41521e-05
2.49627e-05
2.69401e-05
2.71933e-05
2.72269e-05
2.72455e-05
2.72355e-05
2.72511e-05
2.7242e-05
1.06295e-06
1.39875e-05
2.45039e-05
2.64731e-05
2.67373e-05
2.67696e-05
2.67862e-05
2.67696e-05
2.67855e-05
2.67782e-05
1.634e-06
1.41172e-05
2.4193e-05
2.61366e-05
2.64178e-05
2.64469e-05
2.64648e-05
2.64423e-05
2.64602e-05
2.64514e-05
2.363e-06
1.4437e-05
2.3971e-05
2.58688e-05
2.61628e-05
2.61879e-05
2.62088e-05
2.61786e-05
2.62007e-05
2.61895e-05
3.2183e-06
1.48824e-05
2.37903e-05
2.56273e-05
2.593e-05
2.59501e-05
2.59758e-05
2.59348e-05
2.59632e-05
2.59491e-05
4.18443e-06
1.53974e-05
2.362e-05
2.53859e-05
2.56931e-05
2.57069e-05
2.57393e-05
2.56836e-05
2.57209e-05
2.5703e-05
5.25998e-06
1.59826e-05
2.34381e-05
2.51266e-05
2.54346e-05
2.54401e-05
2.5478e-05
2.54061e-05
2.54554e-05
2.54329e-05
6.43817e-06
1.65723e-05
2.32265e-05
2.48362e-05
2.5141e-05
2.5136e-05
2.51782e-05
2.50865e-05
2.51532e-05
2.5125e-05
7.69355e-06
1.70476e-05
2.29685e-05
2.4503e-05
2.48008e-05
2.47829e-05
2.48304e-05
2.47582e-05
2.48024e-05
2.47673e-05
8.97537e-06
1.74524e-05
2.26906e-05
2.41162e-05
2.44028e-05
2.43695e-05
2.44236e-05
2.43299e-05
2.43916e-05
2.43484e-05
1.021e-05
1.77572e-05
2.23581e-05
2.36635e-05
2.39351e-05
2.38839e-05
2.3946e-05
2.38248e-05
2.3909e-05
2.38567e-05
1.13164e-05
1.79426e-05
2.19305e-05
2.31294e-05
2.33839e-05
2.33124e-05
2.3384e-05
2.32984e-05
2.3341e-05
2.32784e-05
1.22251e-05
1.79975e-05
2.14199e-05
2.25804e-05
2.28119e-05
2.27201e-05
2.28009e-05
2.2695e-05
2.27521e-05
2.26789e-05
1.28898e-05
1.79183e-05
2.08795e-05
2.19223e-05
2.21197e-05
2.19909e-05
2.20885e-05
2.19523e-05
2.20299e-05
2.1939e-05
1.32915e-05
1.76872e-05
2.01854e-05
2.11951e-05
2.13658e-05
2.12111e-05
2.13199e-05
2.11616e-05
2.12549e-05
2.11506e-05
1.34352e-05
1.73289e-05
1.94484e-05
2.03704e-05
2.05131e-05
2.03317e-05
2.04521e-05
2.02713e-05
2.03807e-05
2.02624e-05
)
;

boundaryField
{
    fuel
    {
        type            fixedValue;
        value           uniform 0;
    }
    wall
    {
        type            zeroGradient;
    }
    outlet
    {
        type            zeroGradient;
    }
    frontAndBack
    {
        type            empty;
    }
    procBoundary2to0
    {
        type            processor;
        value           nonuniform List<scalar> 
12
(
2.11841e-05
1.33358e-05
1.67806e-05
1.86094e-05
1.94432e-05
1.9557e-05
1.9349e-05
1.94811e-05
1.9278e-05
1.94037e-05
2.03012e-05
1.9271e-05
)
;
    }
    procBoundary2to3
    {
        type            processor;
        value           nonuniform List<scalar> 
25
(
0.000134601
0.000126703
9.24673e-05
6.5809e-05
4.94171e-05
3.94896e-05
3.40198e-05
3.0863e-05
2.90144e-05
2.78836e-05
2.78836e-05
2.72435e-05
2.67772e-05
2.64519e-05
2.61915e-05
2.59523e-05
2.57074e-05
2.54388e-05
2.51326e-05
2.4777e-05
2.43608e-05
2.38721e-05
2.32974e-05
2.27016e-05
2.19676e-05
)
;
    }
}


// ************************************************************************* //
