/*--------------------------------*- C++ -*----------------------------------*\
| =========                 |                                                 |
| \\      /  F ield         | OpenFOAM: The Open Source CFD Toolbox           |
|  \\    /   O peration     | Version:  dev                                   |
|   \\  /    A nd           | Web:      www.OpenFOAM.org                      |
|    \\/     M anipulation  |                                                 |
\*---------------------------------------------------------------------------*/
FoamFile
{
    version     2.0;
    format      ascii;
    class       volScalarField;
    location    "0.15";
    object      H2C4O;
}
// * * * * * * * * * * * * * * * * * * * * * * * * * * * * * * * * * * * * * //

dimensions      [0 0 0 0 0 0 0];

internalField   nonuniform List<scalar> 
250
(
1.3394e-06
1.35084e-05
1.25097e-05
1.23841e-05
1.23771e-05
1.23684e-05
1.23753e-05
1.23677e-05
1.23682e-05
2.6664e-06
1.10035e-05
9.49384e-06
9.32646e-06
9.30877e-06
9.30162e-06
9.30511e-06
9.30128e-06
9.30196e-06
3.25337e-06
8.80204e-06
7.31093e-06
7.12814e-06
7.10393e-06
7.09518e-06
7.0977e-06
7.09454e-06
7.0954e-06
3.33036e-06
7.40589e-06
6.07034e-06
5.87864e-06
5.84785e-06
5.83704e-06
5.83883e-06
5.83595e-06
5.83706e-06
3.1353e-06
6.46418e-06
5.31325e-06
5.11642e-06
5.0792e-06
5.06606e-06
5.06683e-06
5.06441e-06
5.06583e-06
2.82214e-06
5.78181e-06
4.7732e-06
4.58025e-06
4.52639e-06
4.50599e-06
4.5048e-06
4.50294e-06
4.50516e-06
2.45276e-06
5.23453e-06
4.37462e-06
4.18152e-06
4.11912e-06
4.09459e-06
4.09049e-06
4.09048e-06
4.09275e-06
2.04788e-06
4.78301e-06
4.05092e-06
3.85808e-06
3.78656e-06
3.75775e-06
3.74817e-06
3.75157e-06
3.75338e-06
1.6458e-06
4.45854e-06
3.75101e-06
3.56605e-06
3.50053e-06
3.47033e-06
3.45349e-06
3.45608e-06
3.45899e-06
1.30728e-06
4.13401e-06
3.47085e-06
3.28779e-06
3.21805e-06
3.19449e-06
3.1956e-06
3.19723e-06
3.20463e-06
1.07648e-06
3.82965e-06
3.25174e-06
3.072e-06
2.99826e-06
2.97573e-06
2.96922e-06
2.9725e-06
2.98099e-06
2.97353e-06
9.73083e-07
3.54989e-06
3.03751e-06
2.85643e-06
2.7749e-06
2.75043e-06
2.74752e-06
2.7449e-06
2.75337e-06
2.74626e-06
1.00411e-06
3.33946e-06
2.83439e-06
2.65535e-06
2.57231e-06
2.54519e-06
2.54645e-06
2.53806e-06
2.54692e-06
2.5397e-06
1.13922e-06
3.15039e-06
2.64843e-06
2.47133e-06
2.38802e-06
2.35836e-06
2.36344e-06
2.34955e-06
2.3594e-06
2.35206e-06
1.32274e-06
2.9788e-06
2.47756e-06
2.30255e-06
2.2201e-06
2.18833e-06
2.197e-06
2.17763e-06
2.18897e-06
2.18152e-06
1.50817e-06
2.82191e-06
2.31998e-06
2.14752e-06
2.06696e-06
2.03363e-06
2.04551e-06
2.02077e-06
2.03408e-06
2.02651e-06
1.67022e-06
2.66385e-06
2.17405e-06
2.00504e-06
1.92725e-06
1.89295e-06
1.90542e-06
1.87747e-06
1.89336e-06
1.88568e-06
1.79996e-06
2.51126e-06
2.03805e-06
1.87405e-06
1.79978e-06
1.76513e-06
1.77654e-06
1.74624e-06
1.76559e-06
1.75782e-06
1.89648e-06
2.38385e-06
1.90987e-06
1.75367e-06
1.68345e-06
1.64906e-06
1.65943e-06
1.64089e-06
1.64962e-06
1.6418e-06
1.96177e-06
2.26179e-06
1.80346e-06
1.6431e-06
1.57724e-06
1.54368e-06
1.55324e-06
1.5339e-06
1.54427e-06
1.53652e-06
1.99895e-06
2.14584e-06
1.70508e-06
1.54146e-06
1.48013e-06
1.44788e-06
1.4568e-06
1.43611e-06
1.44845e-06
1.4409e-06
2.01141e-06
2.03571e-06
1.60718e-06
1.44758e-06
1.39106e-06
1.36053e-06
1.3689e-06
1.35698e-06
1.36105e-06
1.35381e-06
2.00256e-06
1.93103e-06
1.51655e-06
1.37184e-06
1.31883e-06
1.29006e-06
1.29791e-06
1.28618e-06
1.29051e-06
1.28355e-06
1.97562e-06
1.83238e-06
1.44135e-06
1.30019e-06
1.25018e-06
1.22209e-06
1.22993e-06
1.21784e-06
1.2227e-06
1.21565e-06
1.93355e-06
1.73325e-06
1.36454e-06
1.23731e-06
1.19104e-06
1.16477e-06
1.17204e-06
1.16043e-06
1.1653e-06
1.1586e-06
1.87916e-06
1.64267e-06
1.29908e-06
1.18029e-06
1.13775e-06
1.11332e-06
1.12001e-06
1.109e-06
1.11377e-06
1.10746e-06
)
;

boundaryField
{
    fuel
    {
        type            fixedValue;
        value           uniform 0;
    }
    wall
    {
        type            zeroGradient;
    }
    outlet
    {
        type            zeroGradient;
    }
    frontAndBack
    {
        type            empty;
    }
    procBoundary2to0
    {
        type            processor;
        value           nonuniform List<scalar> 
12
(
1.16109e-06
1.81476e-06
1.548e-06
1.23862e-06
1.12861e-06
1.08971e-06
1.06712e-06
1.07321e-06
1.06287e-06
1.06748e-06
1.10986e-06
1.06156e-06
)
;
    }
    procBoundary2to3
    {
        type            processor;
        value           nonuniform List<scalar> 
25
(
1.23681e-05
9.30185e-06
7.09543e-06
5.83702e-06
5.06555e-06
4.50415e-06
4.0912e-06
3.75174e-06
3.45966e-06
3.19447e-06
3.19447e-06
2.97438e-06
2.74709e-06
2.54104e-06
2.35368e-06
2.18326e-06
2.02835e-06
1.88765e-06
1.75993e-06
1.64404e-06
1.53888e-06
1.44333e-06
1.35627e-06
1.286e-06
1.21819e-06
)
;
    }
}


// ************************************************************************* //
