/*--------------------------------*- C++ -*----------------------------------*\
| =========                 |                                                 |
| \\      /  F ield         | OpenFOAM: The Open Source CFD Toolbox           |
|  \\    /   O peration     | Version:  dev                                   |
|   \\  /    A nd           | Web:      www.OpenFOAM.org                      |
|    \\/     M anipulation  |                                                 |
\*---------------------------------------------------------------------------*/
FoamFile
{
    version     2.0;
    format      ascii;
    class       volScalarField;
    location    "0.15";
    object      HO2;
}
// * * * * * * * * * * * * * * * * * * * * * * * * * * * * * * * * * * * * * //

dimensions      [0 0 0 0 0 0 0];

internalField   nonuniform List<scalar> 
50
(
9.68066e-10
9.13474e-10
8.61367e-10
8.11664e-10
7.64279e-10
7.19649e-10
6.76981e-10
6.36172e-10
5.9741e-10
5.61038e-10
5.26255e-10
4.93216e-10
4.61931e-10
4.32664e-10
4.04799e-10
3.78659e-10
3.53993e-10
3.30637e-10
3.08741e-10
2.88103e-10
2.68512e-10
2.50319e-10
2.33237e-10
2.17215e-10
2.02202e-10
1.88146e-10
1.75e-10
1.62716e-10
1.51247e-10
1.40551e-10
1.30547e-10
1.21265e-10
1.1263e-10
1.04604e-10
9.71546e-11
9.01765e-11
8.37734e-11
7.7775e-11
7.22871e-11
6.71676e-11
6.24175e-11
5.80827e-11
5.408e-11
5.03476e-11
4.69393e-11
4.37953e-11
4.08965e-11
3.82247e-11
3.57334e-11
3.3458e-11
)
;

boundaryField
{
    wall
    {
        type            zeroGradient;
    }
    fuel
    {
        type            fixedValue;
        value           nonuniform 0();
    }
    outlet
    {
        type            inletOutlet;
        inletValue      nonuniform 0();
        value           nonuniform 0();
    }
    procBoundary2to1
    {
        type            processor;
        value           uniform 1.0252e-09;
    }
    procBoundary2to3
    {
        type            processor;
        value           uniform 3.13514e-11;
    }
}


// ************************************************************************* //
