/*--------------------------------*- C++ -*----------------------------------*\
| =========                 |                                                 |
| \\      /  F ield         | OpenFOAM: The Open Source CFD Toolbox           |
|  \\    /   O peration     | Version:  dev                                   |
|   \\  /    A nd           | Web:      www.OpenFOAM.org                      |
|    \\/     M anipulation  |                                                 |
\*---------------------------------------------------------------------------*/
FoamFile
{
    version     2.0;
    format      ascii;
    class       surfaceScalarField;
    location    "0.15";
    object      phi;
}
// * * * * * * * * * * * * * * * * * * * * * * * * * * * * * * * * * * * * * //

dimensions      [1 0 -1 0 0 0 0];

internalField   nonuniform List<scalar> 
11
(
1.30853e-05
1.35402e-05
1.39919e-05
1.44536e-05
1.49245e-05
1.54044e-05
1.58937e-05
1.63919e-05
1.68984e-05
1.74119e-05
1.79323e-05
)
;

boundaryField
{
    wall
    {
        type            calculated;
        value           nonuniform List<scalar> 
48
(
2.41585e-19
2.42072e-19
2.42531e-19
2.42949e-19
2.43327e-19
2.43662e-19
2.43952e-19
2.44196e-19
2.44406e-19
2.44554e-19
2.44654e-19
2.44706e-19
-2.41585e-19
-2.42072e-19
-2.42531e-19
-2.42949e-19
-2.43327e-19
-2.43662e-19
-2.43952e-19
-2.44196e-19
-2.44406e-19
-2.44554e-19
-2.44654e-19
-2.44706e-19
2.41585e-19
2.42072e-19
2.42531e-19
2.42949e-19
2.43327e-19
2.43662e-19
2.43952e-19
2.44196e-19
2.44406e-19
2.44554e-19
2.44654e-19
2.44706e-19
-2.41585e-19
-2.42072e-19
-2.42531e-19
-2.42949e-19
-2.43327e-19
-2.43662e-19
-2.43952e-19
-2.44196e-19
-2.44406e-19
-2.44554e-19
-2.44654e-19
-2.44706e-19
)
;
    }
    fuel
    {
        type            calculated;
        value           nonuniform 0();
    }
    outlet
    {
        type            calculated;
        value           nonuniform 0();
    }
    procBoundary2to1
    {
        type            processor;
        value           uniform -1.26404e-05;
    }
    procBoundary2to3
    {
        type            processor;
        value           uniform 1.84597e-05;
    }
}


// ************************************************************************* //
