/*--------------------------------*- C++ -*----------------------------------*\
| =========                 |                                                 |
| \\      /  F ield         | OpenFOAM: The Open Source CFD Toolbox           |
|  \\    /   O peration     | Version:  dev                                   |
|   \\  /    A nd           | Web:      www.OpenFOAM.org                      |
|    \\/     M anipulation  |                                                 |
\*---------------------------------------------------------------------------*/
FoamFile
{
    version     2.0;
    format      ascii;
    class       volScalarField;
    location    "0.01";
    object      A2C2HA;
}
// * * * * * * * * * * * * * * * * * * * * * * * * * * * * * * * * * * * * * //

dimensions      [0 0 0 0 0 0 0];

internalField   nonuniform List<scalar> 
100
(
1.87839e-14
1.67909e-14
1.43892e-14
1.25092e-14
1.09195e-14
9.55315e-15
8.40073e-15
7.45228e-15
6.68336e-15
6.06744e-15
5.57591e-15
5.18474e-15
4.87227e-15
4.62273e-15
4.42853e-15
4.28318e-15
4.18328e-15
4.12639e-15
4.11023e-15
4.13217e-15
4.18918e-15
4.27789e-15
4.39467e-15
4.53561e-15
4.69637e-15
4.872e-15
5.05692e-15
5.24465e-15
5.42827e-15
5.60078e-15
5.75543e-15
5.88613e-15
5.98776e-15
6.05633e-15
6.08913e-15
6.08465e-15
6.04258e-15
5.96366e-15
5.8496e-15
5.70278e-15
5.52533e-15
5.32088e-15
5.09684e-15
4.85519e-15
4.60044e-15
4.33689e-15
4.06868e-15
3.79938e-15
3.53314e-15
3.27288e-15
3.0214e-15
2.77888e-15
2.55169e-15
2.33538e-15
2.13492e-15
1.95086e-15
1.78651e-15
1.63668e-15
1.50144e-15
1.38413e-15
1.28101e-15
1.19104e-15
1.1131e-15
1.04606e-15
9.87744e-16
9.38928e-16
8.97493e-16
8.62346e-16
8.32489e-16
8.06462e-16
7.84378e-16
7.64912e-16
7.47307e-16
7.3088e-16
7.15052e-16
6.99373e-16
6.83202e-16
6.66305e-16
6.48764e-16
6.31229e-16
6.12709e-16
5.93058e-16
5.72158e-16
5.50011e-16
5.26413e-16
5.00423e-16
4.74793e-16
4.47826e-16
4.19607e-16
3.90213e-16
3.59808e-16
3.28525e-16
2.96347e-16
2.62704e-16
2.28874e-16
1.921e-16
1.54905e-16
1.13e-16
7.19592e-17
4.03721e-17
)
;

boundaryField
{
    front
    {
        type            wedge;
    }
    back
    {
        type            wedge;
    }
    wall
    {
        type            zeroGradient;
    }
    fuel
    {
        type            fixedValue;
        value           uniform 0;
    }
    outlet
    {
        type            inletOutlet;
        inletValue      uniform 0;
        value           uniform 4.03721e-17;
    }
    axis
    {
        type            empty;
    }
}


// ************************************************************************* //
