/*--------------------------------*- C++ -*----------------------------------*\
| =========                 |                                                 |
| \\      /  F ield         | OpenFOAM: The Open Source CFD Toolbox           |
|  \\    /   O peration     | Version:  dev                                   |
|   \\  /    A nd           | Web:      www.OpenFOAM.org                      |
|    \\/     M anipulation  |                                                 |
\*---------------------------------------------------------------------------*/
FoamFile
{
    version     2.0;
    format      ascii;
    class       volScalarField;
    location    "0.01";
    object      A2R5-;
}
// * * * * * * * * * * * * * * * * * * * * * * * * * * * * * * * * * * * * * //

dimensions      [0 0 0 0 0 0 0];

internalField   nonuniform List<scalar> 
100
(
1.38885e-11
1.03066e-11
7.17181e-12
5.0073e-12
3.53857e-12
2.54388e-12
1.86592e-12
1.39801e-12
1.06878e-12
8.32876e-13
6.60341e-13
5.3192e-13
4.34214e-13
3.58514e-13
2.99547e-13
2.53104e-13
2.16371e-13
1.87258e-13
1.64151e-13
1.4577e-13
1.31084e-13
1.19256e-13
1.09614e-13
1.01625e-13
9.48709e-14
8.90305e-14
8.38583e-14
7.91707e-14
7.4846e-14
7.07897e-14
6.69376e-14
6.32464e-14
5.96877e-14
5.62443e-14
5.29062e-14
4.96688e-14
4.65311e-14
4.34946e-14
4.05626e-14
3.77343e-14
3.49949e-14
3.23588e-14
2.98664e-14
2.74911e-14
2.52362e-14
2.3102e-14
2.10883e-14
1.91923e-14
1.7416e-14
1.57556e-14
1.42088e-14
1.27607e-14
1.14299e-14
1.01788e-14
9.02912e-15
7.97505e-15
7.02935e-15
6.15952e-15
5.36344e-15
4.65948e-15
4.02676e-15
3.46095e-15
2.95794e-15
2.51389e-15
2.11632e-15
1.77345e-15
1.47659e-15
1.22143e-15
1.00406e-15
8.16934e-16
6.63287e-16
5.35802e-16
4.30922e-16
3.45346e-16
2.761e-16
2.20663e-16
1.75698e-16
1.39516e-16
1.11511e-16
9.09187e-17
7.50901e-17
6.29431e-17
5.3591e-17
4.63402e-17
4.05918e-17
3.58005e-17
3.21201e-17
2.90103e-17
2.62968e-17
2.38458e-17
2.15883e-17
1.94515e-17
1.73772e-17
1.52934e-17
1.32551e-17
1.10821e-17
8.91233e-18
6.48827e-18
4.12642e-18
2.31353e-18
)
;

boundaryField
{
    front
    {
        type            wedge;
    }
    back
    {
        type            wedge;
    }
    wall
    {
        type            zeroGradient;
    }
    fuel
    {
        type            fixedValue;
        value           uniform 0;
    }
    outlet
    {
        type            inletOutlet;
        inletValue      uniform 0;
        value           uniform 2.31353e-18;
    }
    axis
    {
        type            empty;
    }
}


// ************************************************************************* //
