/*--------------------------------*- C++ -*----------------------------------*\
| =========                 |                                                 |
| \\      /  F ield         | OpenFOAM: The Open Source CFD Toolbox           |
|  \\    /   O peration     | Version:  dev                                   |
|   \\  /    A nd           | Web:      www.OpenFOAM.org                      |
|    \\/     M anipulation  |                                                 |
\*---------------------------------------------------------------------------*/
FoamFile
{
    version     2.0;
    format      ascii;
    class       volScalarField;
    location    "0.01";
    object      n-C4H3;
}
// * * * * * * * * * * * * * * * * * * * * * * * * * * * * * * * * * * * * * //

dimensions      [0 0 0 0 0 0 0];

internalField   nonuniform List<scalar> 
100
(
1.99874e-09
5.1938e-09
6.44507e-09
6.39899e-09
5.54903e-09
4.35786e-09
3.17724e-09
2.21861e-09
1.51268e-09
1.02344e-09
6.96589e-10
4.81914e-10
3.42069e-10
2.51572e-10
1.92518e-10
1.5363e-10
1.27687e-10
1.10088e-10
9.78988e-11
8.92436e-11
8.2915e-11
7.81346e-11
7.44043e-11
7.14004e-11
6.89145e-11
6.68133e-11
6.50121e-11
6.34473e-11
6.20762e-11
6.08646e-11
5.97828e-11
5.88041e-11
5.79037e-11
5.7059e-11
5.62502e-11
5.54574e-11
5.46708e-11
5.38721e-11
5.30528e-11
5.22104e-11
5.13296e-11
5.0429e-11
4.94959e-11
4.85188e-11
4.75155e-11
4.64793e-11
4.54053e-11
4.43115e-11
4.31799e-11
4.20424e-11
4.08787e-11
3.96841e-11
3.84611e-11
3.71918e-11
3.58773e-11
3.45287e-11
3.31788e-11
3.17845e-11
3.03221e-11
2.88582e-11
2.73523e-11
2.58022e-11
2.42022e-11
2.2558e-11
2.08867e-11
1.92044e-11
1.75157e-11
1.58745e-11
1.4292e-11
1.27623e-11
1.13523e-11
1.00473e-11
8.85315e-12
7.77107e-12
6.79834e-12
5.92619e-12
5.14489e-12
4.44943e-12
3.83067e-12
3.26973e-12
2.8007e-12
2.39147e-12
2.0381e-12
1.72945e-12
1.47267e-12
1.2548e-12
1.07139e-12
9.17569e-13
7.88383e-13
6.79964e-13
5.86647e-13
5.05648e-13
4.34024e-13
3.68065e-13
3.11344e-13
2.53934e-13
1.98913e-13
1.40079e-13
8.43693e-14
3.93641e-14
)
;

boundaryField
{
    wall
    {
        type            zeroGradient;
    }
    fuel
    {
        type            fixedValue;
        value           uniform 0;
    }
    outlet
    {
        type            inletOutlet;
        inletValue      uniform 0;
        value           uniform 3.93641e-14;
    }
}


// ************************************************************************* //
