/*--------------------------------*- C++ -*----------------------------------*\
| =========                 |                                                 |
| \\      /  F ield         | OpenFOAM: The Open Source CFD Toolbox           |
|  \\    /   O peration     | Version:  dev                                   |
|   \\  /    A nd           | Web:      www.OpenFOAM.org                      |
|    \\/     M anipulation  |                                                 |
\*---------------------------------------------------------------------------*/
FoamFile
{
    version     2.0;
    format      ascii;
    class       volScalarField;
    location    "0.01";
    object      n-C6H5;
}
// * * * * * * * * * * * * * * * * * * * * * * * * * * * * * * * * * * * * * //

dimensions      [0 0 0 0 0 0 0];

internalField   nonuniform List<scalar> 
100
(
2.57914e-12
7.99464e-12
1.05579e-11
1.06089e-11
9.07352e-12
6.88901e-12
4.79976e-12
3.1406e-12
1.98024e-12
1.22417e-12
7.50741e-13
4.61538e-13
2.86366e-13
1.8041e-13
1.166e-13
7.78399e-14
5.41006e-14
3.93814e-14
3.0079e-14
2.40177e-14
1.98785e-14
1.68653e-14
1.45061e-14
1.25309e-14
1.07952e-14
9.22992e-15
7.80647e-15
6.51838e-15
5.3691e-15
4.36022e-15
3.49072e-15
2.7554e-15
2.14521e-15
1.64814e-15
1.25049e-15
9.37952e-16
6.96531e-16
5.13215e-16
3.76397e-16
2.75945e-16
2.02768e-16
1.50696e-16
1.14799e-16
9.02125e-17
7.36989e-17
6.2824e-17
5.58027e-17
5.13367e-17
4.8511e-17
4.66699e-17
4.53621e-17
4.42704e-17
4.32177e-17
4.20514e-17
4.07407e-17
3.92743e-17
3.77007e-17
3.59897e-17
3.41742e-17
3.23598e-17
3.05357e-17
2.87274e-17
2.69574e-17
2.52444e-17
2.35597e-17
2.19856e-17
2.05059e-17
1.91277e-17
1.78582e-17
1.6675e-17
1.56412e-17
1.47331e-17
1.3949e-17
1.32841e-17
1.27297e-17
1.22751e-17
1.18961e-17
1.15994e-17
1.14095e-17
1.13572e-17
1.14349e-17
1.16567e-17
1.20398e-17
1.26057e-17
1.33969e-17
1.45098e-17
1.59668e-17
1.79351e-17
2.0605e-17
2.41644e-17
2.86112e-17
3.3308e-17
3.6943e-17
3.82553e-17
3.67294e-17
3.25504e-17
2.68263e-17
1.96689e-17
1.24951e-17
6.98759e-18
)
;

boundaryField
{
    front
    {
        type            wedge;
    }
    back
    {
        type            wedge;
    }
    wall
    {
        type            zeroGradient;
    }
    fuel
    {
        type            fixedValue;
        value           uniform 0;
    }
    outlet
    {
        type            inletOutlet;
        inletValue      uniform 0;
        value           uniform 6.98759e-18;
    }
    axis
    {
        type            empty;
    }
}


// ************************************************************************* //
