/*--------------------------------*- C++ -*----------------------------------*\
| =========                 |                                                 |
| \\      /  F ield         | OpenFOAM: The Open Source CFD Toolbox           |
|  \\    /   O peration     | Version:  dev                                   |
|   \\  /    A nd           | Web:      www.OpenFOAM.org                      |
|    \\/     M anipulation  |                                                 |
\*---------------------------------------------------------------------------*/
FoamFile
{
    version     2.0;
    format      ascii;
    class       volScalarField;
    location    "0.02";
    object      A1C2H;
}
// * * * * * * * * * * * * * * * * * * * * * * * * * * * * * * * * * * * * * //

dimensions      [0 0 0 0 0 0 0];

internalField   nonuniform List<scalar> 
250
(
4.21791e-07
4.5267e-07
5.13561e-07
6.28702e-07
8.31473e-07
1.15662e-06
1.54527e-06
1.95354e-06
2.36684e-06
3.59833e-06
4.03096e-07
4.35597e-07
5.01379e-07
6.28715e-07
8.58221e-07
1.25113e-06
1.76533e-06
2.28603e-06
2.67543e-06
3.90473e-06
4.324e-06
3.09827e-06
2.82904e-06
2.16252e-06
1.47305e-06
9.60332e-07
6.69336e-07
5.11854e-07
4.30317e-07
3.90635e-07
3.88142e-07
4.22426e-07
4.94448e-07
6.35509e-07
8.9727e-07
1.37305e-06
2.02144e-06
2.73193e-06
3.0959e-06
4.34639e-06
4.94213e-06
3.6582e-06
3.38339e-06
2.50352e-06
1.6576e-06
1.02467e-06
6.87841e-07
5.11415e-07
4.21582e-07
3.78488e-07
3.7592e-07
4.12933e-07
4.92007e-07
6.49204e-07
9.49214e-07
1.52366e-06
2.33004e-06
3.24146e-06
3.63548e-06
4.93116e-06
5.70787e-06
4.34694e-06
4.03206e-06
2.92095e-06
1.86193e-06
1.10424e-06
7.14164e-07
5.15474e-07
4.16185e-07
3.69853e-07
3.67156e-07
4.06685e-07
4.93742e-07
6.69733e-07
1.0142e-06
1.70176e-06
2.71134e-06
3.84166e-06
4.2969e-06
5.6607e-06
6.61495e-06
5.15934e-06
4.76258e-06
3.37768e-06
2.09583e-06
1.19881e-06
7.47984e-07
5.23568e-07
4.13649e-07
3.6365e-07
3.60796e-07
4.03203e-07
4.99178e-07
6.96725e-07
1.09731e-06
1.90461e-06
3.12068e-06
4.5186e-06
5.0742e-06
6.52771e-06
7.64539e-06
6.07956e-06
5.55413e-06
3.87599e-06
2.3546e-06
1.31508e-06
7.88484e-07
5.3499e-07
4.1335e-07
3.59284e-07
3.56247e-07
4.01863e-07
5.07622e-07
7.29326e-07
1.19493e-06
2.13373e-06
3.56495e-06
5.25177e-06
5.95122e-06
7.51373e-06
8.76825e-06
7.08065e-06
6.37834e-06
4.39908e-06
2.63056e-06
1.44494e-06
8.34192e-07
5.48749e-07
4.14495e-07
3.55965e-07
3.52734e-07
4.01888e-07
5.18127e-07
7.66168e-07
1.30366e-06
2.37295e-06
4.04865e-06
6.01453e-06
6.90134e-06
8.58807e-06
9.94013e-06
8.12586e-06
7.2022e-06
4.92736e-06
2.91389e-06
1.57212e-06
8.83038e-07
5.63596e-07
4.16153e-07
3.52987e-07
3.49541e-07
4.02373e-07
5.29525e-07
8.07762e-07
1.41013e-06
2.61876e-06
4.51989e-06
6.77523e-06
7.88899e-06
9.70836e-06
1.11071e-05
9.17126e-06
7.99125e-06
5.44073e-06
3.19459e-06
1.70083e-06
9.32636e-07
5.78134e-07
4.17326e-07
3.49449e-07
3.45785e-07
4.02355e-07
5.40508e-07
8.47731e-07
1.51757e-06
2.86206e-06
4.97795e-06
7.5021e-06
8.87224e-06
1.08225e-05
1.22074e-05
1.01688e-05
8.71226e-06
5.92058e-06
3.46345e-06
1.82644e-06
9.80576e-07
5.91004e-07
4.1708e-07
3.4461e-07
3.40738e-07
4.00944e-07
5.49831e-07
8.8591e-07
1.62193e-06
3.09446e-06
5.40609e-06
8.16469e-06
9.80571e-06
1.18714e-05
1.31745e-05
1.10687e-05
9.33487e-06
6.35088e-06
3.71307e-06
1.94514e-06
1.02482e-06
6.01104e-07
4.14696e-07
3.37941e-07
3.33877e-07
3.97462e-07
5.56499e-07
9.2055e-07
1.71983e-06
3.3093e-06
5.78972e-06
8.73542e-06
1.0643e-05
1.27916e-05
1.39407e-05
1.18215e-05
9.83182e-06
6.71804e-06
3.93791e-06
2.05439e-06
1.06403e-06
6.07764e-07
4.09784e-07
3.2921e-07
3.24983e-07
3.91557e-07
5.59927e-07
9.50502e-07
1.80904e-06
3.50185e-06
6.11672e-06
9.18989e-06
1.13385e-05
1.35189e-05
3.1414e-07
3.83225e-07
5.59982e-07
9.75317e-07
1.88847e-06
3.66861e-06
6.37651e-06
9.50627e-06
1.18484e-05
1.39929e-05
)
;

boundaryField
{
    fuel
    {
        type            fixedValue;
        value           nonuniform 0();
    }
    wall
    {
        type            zeroGradient;
    }
    outlet
    {
        type            zeroGradient;
    }
    frontAndBack
    {
        type            empty;
    }
    procBoundary0to1
    {
        type            processor;
        value           nonuniform List<scalar> 
21
(
1.44417e-05
1.23791e-05
1.01783e-05
7.00959e-06
4.13335e-06
2.15275e-06
1.09763e-06
6.10791e-07
4.02321e-07
3.18503e-07
3.18503e-07
3.01666e-07
3.72739e-07
5.56872e-07
9.95049e-07
1.95759e-06
3.80604e-06
6.55835e-06
9.66433e-06
1.21324e-05
1.41622e-05
)
;
    }
    procBoundary0to2
    {
        type            processor;
        value           nonuniform List<scalar> 
12
(
4.24162e-07
3.8504e-06
2.6635e-06
2.37137e-06
1.85947e-06
1.33395e-06
9.10926e-07
6.5861e-07
5.17081e-07
4.43079e-07
4.05516e-07
4.05516e-07
)
;
    }
    procBoundary0to3
    {
        type            processor;
        value           nonuniform List<scalar> 10(4.46884e-07 4.76226e-07 5.30105e-07 6.35237e-07 8.16224e-07 1.08655e-06 1.38766e-06 1.69467e-06 2.15894e-06 3.41562e-06);
    }
}


// ************************************************************************* //
