/*--------------------------------*- C++ -*----------------------------------*\
| =========                 |                                                 |
| \\      /  F ield         | OpenFOAM: The Open Source CFD Toolbox           |
|  \\    /   O peration     | Version:  dev                                   |
|   \\  /    A nd           | Web:      www.OpenFOAM.org                      |
|    \\/     M anipulation  |                                                 |
\*---------------------------------------------------------------------------*/
FoamFile
{
    version     2.0;
    format      ascii;
    class       volScalarField;
    location    "0.02";
    object      A1C2H-;
}
// * * * * * * * * * * * * * * * * * * * * * * * * * * * * * * * * * * * * * //

dimensions      [0 0 0 0 0 0 0];

internalField   nonuniform List<scalar> 
2014
(
1.92675e-08
1.93342e-08
1.9383e-08
1.93909e-08
1.93463e-08
1.93104e-08
1.92628e-08
1.92402e-08
1.92166e-08
1.92099e-08
1.92011e-08
1.92012e-08
1.91976e-08
1.91983e-08
1.91951e-08
1.91942e-08
1.91902e-08
1.91879e-08
1.91836e-08
1.91808e-08
1.9177e-08
1.91746e-08
1.9172e-08
1.91707e-08
1.91698e-08
1.91697e-08
1.91706e-08
1.91719e-08
1.91744e-08
1.91767e-08
1.91804e-08
1.91831e-08
1.91874e-08
1.91896e-08
1.91935e-08
1.91943e-08
1.91975e-08
1.91968e-08
1.92004e-08
1.92003e-08
1.92092e-08
1.9216e-08
1.92397e-08
1.92626e-08
1.93103e-08
1.93465e-08
1.93912e-08
1.93835e-08
1.93348e-08
1.9268e-08
1.8353e-08
1.84146e-08
1.84553e-08
1.8459e-08
1.84132e-08
1.8376e-08
1.83288e-08
1.83054e-08
1.8282e-08
1.82746e-08
1.82658e-08
1.82654e-08
1.82618e-08
1.82621e-08
1.82589e-08
1.82579e-08
1.82539e-08
1.82515e-08
1.82472e-08
1.82443e-08
1.82405e-08
1.82381e-08
1.82355e-08
1.82342e-08
1.82332e-08
1.82332e-08
1.82341e-08
1.82354e-08
1.82379e-08
1.82402e-08
1.82439e-08
1.82467e-08
1.82509e-08
1.82532e-08
1.82572e-08
1.82582e-08
1.82614e-08
1.8261e-08
1.82646e-08
1.8265e-08
1.82739e-08
1.82814e-08
1.83049e-08
1.83285e-08
1.83759e-08
1.84133e-08
1.84593e-08
1.84558e-08
1.84152e-08
1.83536e-08
1.7515e-08
1.75716e-08
1.76048e-08
1.76044e-08
1.75574e-08
1.75189e-08
1.74719e-08
1.74479e-08
1.74245e-08
1.74166e-08
1.74077e-08
1.74069e-08
1.74031e-08
1.74032e-08
1.73999e-08
1.73987e-08
1.73946e-08
1.73921e-08
1.73878e-08
1.73849e-08
1.73811e-08
1.73787e-08
1.73761e-08
1.73747e-08
1.73738e-08
1.73738e-08
1.73746e-08
1.7376e-08
1.73784e-08
1.73808e-08
1.73845e-08
1.73874e-08
1.73916e-08
1.7394e-08
1.7398e-08
1.73992e-08
1.74024e-08
1.74024e-08
1.74061e-08
1.74069e-08
1.74159e-08
1.74239e-08
1.74474e-08
1.74717e-08
1.75188e-08
1.75575e-08
1.76047e-08
1.76053e-08
1.75721e-08
1.75155e-08
1.67449e-08
1.67967e-08
1.6823e-08
1.68187e-08
1.67704e-08
1.67306e-08
1.66839e-08
1.66592e-08
1.66359e-08
1.66274e-08
1.66184e-08
1.66171e-08
1.66133e-08
1.6613e-08
1.66097e-08
1.66083e-08
1.66042e-08
1.66015e-08
1.65972e-08
1.65942e-08
1.65905e-08
1.6588e-08
1.65854e-08
1.6584e-08
1.65831e-08
1.6583e-08
1.65839e-08
1.65853e-08
1.65877e-08
1.65902e-08
1.65939e-08
1.65968e-08
1.6601e-08
1.66035e-08
1.66076e-08
1.6609e-08
1.66122e-08
1.66125e-08
1.66163e-08
1.66176e-08
1.66267e-08
1.66352e-08
1.66587e-08
1.66836e-08
1.67306e-08
1.67706e-08
1.6819e-08
1.68234e-08
1.67972e-08
1.67455e-08
1.60356e-08
1.60826e-08
1.61024e-08
1.60944e-08
1.6045e-08
1.60039e-08
1.59573e-08
1.5932e-08
1.59086e-08
1.58996e-08
1.58905e-08
1.58888e-08
1.58848e-08
1.58843e-08
1.58809e-08
1.58792e-08
1.58751e-08
1.58723e-08
1.5868e-08
1.5865e-08
1.58612e-08
1.58586e-08
1.58561e-08
1.58546e-08
1.58537e-08
1.58537e-08
1.58546e-08
1.58559e-08
1.58584e-08
1.58609e-08
1.58646e-08
1.58675e-08
1.58718e-08
1.58744e-08
1.58785e-08
1.58801e-08
1.58835e-08
1.5884e-08
1.5888e-08
1.58897e-08
1.58989e-08
1.5908e-08
1.59315e-08
1.5957e-08
1.60039e-08
1.60452e-08
1.60948e-08
1.61029e-08
1.60832e-08
1.60361e-08
1.53805e-08
1.5423e-08
1.54368e-08
1.54253e-08
1.53746e-08
1.53322e-08
1.52857e-08
1.52598e-08
1.52364e-08
1.52268e-08
1.52175e-08
1.52154e-08
1.52114e-08
1.52105e-08
1.5207e-08
1.52051e-08
1.52009e-08
1.51981e-08
1.51937e-08
1.51906e-08
1.51868e-08
1.51842e-08
1.51816e-08
1.51802e-08
1.51793e-08
1.51792e-08
1.51801e-08
1.51815e-08
1.5184e-08
1.51865e-08
1.51902e-08
1.51932e-08
1.51975e-08
1.52003e-08
1.52044e-08
1.52062e-08
1.52097e-08
1.52106e-08
1.52146e-08
1.52168e-08
1.52261e-08
1.52357e-08
1.52593e-08
1.52855e-08
1.53322e-08
1.53747e-08
1.54256e-08
1.54373e-08
1.54236e-08
1.5381e-08
1.4774e-08
1.48123e-08
1.48203e-08
1.48055e-08
1.47536e-08
1.47099e-08
1.46635e-08
1.46369e-08
1.46135e-08
1.46033e-08
1.45939e-08
1.45914e-08
1.45872e-08
1.4586e-08
1.45824e-08
1.45803e-08
1.45761e-08
1.45731e-08
1.45687e-08
1.45655e-08
1.45617e-08
1.45591e-08
1.45565e-08
1.4555e-08
1.45541e-08
1.4554e-08
1.45549e-08
1.45563e-08
1.45588e-08
1.45614e-08
1.45651e-08
1.45682e-08
1.45725e-08
1.45754e-08
1.45796e-08
1.45816e-08
1.45852e-08
1.45864e-08
1.45906e-08
1.45931e-08
1.46026e-08
1.46128e-08
1.46364e-08
1.46632e-08
1.47098e-08
1.47537e-08
1.48058e-08
1.48208e-08
1.48128e-08
1.47746e-08
1.42113e-08
1.42454e-08
1.42481e-08
1.423e-08
1.41769e-08
1.41319e-08
1.40856e-08
1.40584e-08
1.40349e-08
1.40243e-08
1.40147e-08
1.40118e-08
1.40074e-08
1.40058e-08
1.40021e-08
1.39998e-08
1.39955e-08
1.39924e-08
1.3988e-08
1.39847e-08
1.39809e-08
1.39782e-08
1.39756e-08
1.39741e-08
1.39732e-08
1.39731e-08
1.3974e-08
1.39754e-08
1.3978e-08
1.39806e-08
1.39843e-08
1.39875e-08
1.39918e-08
1.39949e-08
1.39991e-08
1.40014e-08
1.4005e-08
1.40066e-08
1.4011e-08
1.40139e-08
1.40235e-08
1.40342e-08
1.40579e-08
1.40853e-08
1.41318e-08
1.41771e-08
1.42304e-08
1.42486e-08
1.42459e-08
1.42119e-08
1.3688e-08
1.3718e-08
1.37157e-08
1.36945e-08
1.36403e-08
1.35939e-08
1.35476e-08
1.35199e-08
1.34963e-08
1.34852e-08
1.34754e-08
1.34721e-08
1.34675e-08
1.34657e-08
1.34618e-08
1.34593e-08
1.34549e-08
1.34517e-08
1.34472e-08
1.34438e-08
1.344e-08
1.34373e-08
1.34346e-08
1.34331e-08
1.34322e-08
1.34322e-08
1.3433e-08
1.34345e-08
1.3437e-08
1.34397e-08
1.34434e-08
1.34467e-08
1.34511e-08
1.34542e-08
1.34586e-08
1.3461e-08
1.34649e-08
1.34667e-08
1.34713e-08
1.34746e-08
1.34844e-08
1.34956e-08
1.35194e-08
1.35473e-08
1.35938e-08
1.36404e-08
1.36949e-08
1.37162e-08
1.37185e-08
1.36885e-08
1.32002e-08
1.32263e-08
1.32193e-08
1.31952e-08
1.31399e-08
1.3092e-08
1.30458e-08
1.30176e-08
1.29938e-08
1.29822e-08
1.29722e-08
1.29686e-08
1.29638e-08
1.29616e-08
1.29576e-08
1.29549e-08
1.29504e-08
1.2947e-08
1.29425e-08
1.2939e-08
1.29352e-08
1.29324e-08
1.29297e-08
1.29282e-08
1.29273e-08
1.29272e-08
1.29281e-08
1.29296e-08
1.29321e-08
1.29348e-08
1.29386e-08
1.2942e-08
1.29464e-08
1.29497e-08
1.29542e-08
1.29568e-08
1.29608e-08
1.2963e-08
1.29677e-08
1.29714e-08
1.29815e-08
1.29932e-08
1.30171e-08
1.30455e-08
1.3092e-08
1.314e-08
1.31956e-08
1.32198e-08
1.32268e-08
1.32007e-08
1.27446e-08
1.27669e-08
1.27555e-08
1.27285e-08
1.26722e-08
1.26229e-08
1.25768e-08
1.2548e-08
1.25241e-08
1.2512e-08
1.25018e-08
1.24977e-08
1.24928e-08
1.24902e-08
1.24861e-08
1.24831e-08
1.24785e-08
1.2475e-08
1.24705e-08
1.24669e-08
1.2463e-08
1.24602e-08
1.24575e-08
1.2456e-08
1.2455e-08
1.2455e-08
1.24559e-08
1.24574e-08
1.24599e-08
1.24627e-08
1.24665e-08
1.247e-08
1.24745e-08
1.24779e-08
1.24824e-08
1.24853e-08
1.24894e-08
1.24919e-08
1.24969e-08
1.2501e-08
1.25112e-08
1.25234e-08
1.25475e-08
1.25764e-08
1.26228e-08
1.26722e-08
1.27289e-08
1.2756e-08
1.27675e-08
1.27451e-08
1.23182e-08
1.23369e-08
1.23213e-08
1.22916e-08
1.22342e-08
1.21835e-08
1.21374e-08
1.21082e-08
1.20841e-08
1.20715e-08
1.20611e-08
1.20567e-08
1.20515e-08
1.20486e-08
1.20443e-08
1.20411e-08
1.20364e-08
1.20328e-08
1.20281e-08
1.20245e-08
1.20205e-08
1.20177e-08
1.2015e-08
1.20134e-08
1.20124e-08
1.20124e-08
1.20133e-08
1.20148e-08
1.20174e-08
1.20202e-08
1.20241e-08
1.20276e-08
1.20322e-08
1.20357e-08
1.20404e-08
1.20435e-08
1.20478e-08
1.20506e-08
1.20558e-08
1.20603e-08
1.20707e-08
1.20834e-08
1.21076e-08
1.21371e-08
1.21834e-08
1.22343e-08
1.2292e-08
1.23218e-08
1.23375e-08
1.23187e-08
1.19184e-08
1.19336e-08
1.1914e-08
1.18817e-08
1.18231e-08
1.17713e-08
1.17251e-08
1.16954e-08
1.16712e-08
1.16581e-08
1.16474e-08
1.16426e-08
1.16372e-08
1.1634e-08
1.16295e-08
1.16261e-08
1.16213e-08
1.16175e-08
1.16128e-08
1.16091e-08
1.16051e-08
1.16021e-08
1.15994e-08
1.15978e-08
1.15968e-08
1.15968e-08
1.15977e-08
1.15992e-08
1.16019e-08
1.16047e-08
1.16087e-08
1.16123e-08
1.16169e-08
1.16206e-08
1.16254e-08
1.16287e-08
1.16332e-08
1.16364e-08
1.16418e-08
1.16466e-08
1.16573e-08
1.16705e-08
1.16948e-08
1.17248e-08
1.17711e-08
1.18233e-08
1.18821e-08
1.19145e-08
1.19342e-08
1.19189e-08
1.15428e-08
1.15547e-08
1.15312e-08
1.14965e-08
1.14367e-08
1.13839e-08
1.13375e-08
1.13073e-08
1.1283e-08
1.12694e-08
1.12585e-08
1.12533e-08
1.12477e-08
1.12441e-08
1.12394e-08
1.12358e-08
1.12308e-08
1.12269e-08
1.12221e-08
1.12183e-08
1.12142e-08
1.12112e-08
1.12085e-08
1.12068e-08
1.12059e-08
1.12058e-08
1.12067e-08
1.12083e-08
1.1211e-08
1.12139e-08
1.12179e-08
1.12216e-08
1.12263e-08
1.12301e-08
1.1235e-08
1.12386e-08
1.12432e-08
1.12468e-08
1.12524e-08
1.12577e-08
1.12686e-08
1.12822e-08
1.13067e-08
1.13371e-08
1.13837e-08
1.14369e-08
1.14969e-08
1.15317e-08
1.15552e-08
1.15433e-08
1.11894e-08
1.11981e-08
1.1171e-08
1.11338e-08
1.10728e-08
1.1019e-08
1.09725e-08
1.09419e-08
1.09173e-08
1.09033e-08
1.08921e-08
1.08866e-08
1.08807e-08
1.08767e-08
1.08718e-08
1.0868e-08
1.08629e-08
1.08589e-08
1.0854e-08
1.08501e-08
1.0846e-08
1.08429e-08
1.08401e-08
1.08384e-08
1.08375e-08
1.08374e-08
1.08383e-08
1.084e-08
1.08426e-08
1.08456e-08
1.08497e-08
1.08534e-08
1.08583e-08
1.08623e-08
1.08673e-08
1.0871e-08
1.08759e-08
1.08798e-08
1.08857e-08
1.08913e-08
1.09024e-08
1.09166e-08
1.09413e-08
1.09721e-08
1.10189e-08
1.1073e-08
1.11342e-08
1.11715e-08
1.11986e-08
1.11899e-08
1.08563e-08
1.08619e-08
1.08314e-08
1.07919e-08
1.07297e-08
1.0675e-08
1.06282e-08
1.05972e-08
1.05724e-08
1.05579e-08
1.05465e-08
1.05406e-08
1.05344e-08
1.053e-08
1.0525e-08
1.05209e-08
1.05157e-08
1.05116e-08
1.05065e-08
1.05025e-08
1.04984e-08
1.04952e-08
1.04924e-08
1.04907e-08
1.04897e-08
1.04897e-08
1.04906e-08
1.04923e-08
1.0495e-08
1.0498e-08
1.05021e-08
1.0506e-08
1.0511e-08
1.05151e-08
1.05202e-08
1.05242e-08
1.05292e-08
1.05335e-08
1.05397e-08
1.05457e-08
1.0557e-08
1.05717e-08
1.05965e-08
1.06278e-08
1.06748e-08
1.07298e-08
1.07923e-08
1.08319e-08
1.08624e-08
1.08568e-08
1.0542e-08
1.05445e-08
1.05108e-08
1.0469e-08
1.04055e-08
1.03501e-08
1.0303e-08
1.02715e-08
1.02466e-08
1.02316e-08
1.02199e-08
1.02136e-08
1.02072e-08
1.02024e-08
1.01972e-08
1.01929e-08
1.01876e-08
1.01833e-08
1.01781e-08
1.0174e-08
1.01698e-08
1.01666e-08
1.01637e-08
1.0162e-08
1.0161e-08
1.01609e-08
1.01619e-08
1.01636e-08
1.01663e-08
1.01694e-08
1.01736e-08
1.01776e-08
1.01827e-08
1.01869e-08
1.01922e-08
1.01964e-08
1.02016e-08
1.02063e-08
1.02127e-08
1.02191e-08
1.02307e-08
1.02458e-08
1.02709e-08
1.03026e-08
1.03498e-08
1.04057e-08
1.04694e-08
1.05113e-08
1.0545e-08
1.05424e-08
1.02448e-08
1.02444e-08
1.02076e-08
1.01637e-08
1.00989e-08
1.00427e-08
9.99528e-09
9.96348e-09
9.93835e-09
9.9228e-09
9.91086e-09
9.90423e-09
9.89751e-09
9.89234e-09
9.88687e-09
9.88243e-09
9.87692e-09
9.87252e-09
9.86721e-09
9.86302e-09
9.85869e-09
9.85543e-09
9.85251e-09
9.85076e-09
9.84974e-09
9.8497e-09
9.85065e-09
9.85237e-09
9.85517e-09
9.85835e-09
9.86259e-09
9.86669e-09
9.87192e-09
9.87627e-09
9.8817e-09
9.88605e-09
9.89149e-09
9.8966e-09
9.90334e-09
9.91006e-09
9.92194e-09
9.93751e-09
9.9628e-09
9.99485e-09
1.00424e-08
1.00991e-08
1.01641e-08
1.02081e-08
1.02449e-08
1.02453e-08
9.96361e-09
9.96027e-09
9.92066e-09
9.87463e-09
9.80856e-09
9.75156e-09
9.70379e-09
9.67163e-09
9.6463e-09
9.63025e-09
9.61803e-09
9.61105e-09
9.604e-09
9.59845e-09
9.59275e-09
9.58815e-09
9.58249e-09
9.57794e-09
9.57248e-09
9.56819e-09
9.56378e-09
9.56045e-09
9.55748e-09
9.5557e-09
9.55466e-09
9.55462e-09
9.55559e-09
9.55734e-09
9.56018e-09
9.56344e-09
9.56775e-09
9.57197e-09
9.57734e-09
9.58184e-09
9.58742e-09
9.59192e-09
9.59759e-09
9.60308e-09
9.61015e-09
9.61725e-09
9.62938e-09
9.64543e-09
9.67094e-09
9.70334e-09
9.7513e-09
9.80875e-09
9.87503e-09
9.92112e-09
9.96072e-09
9.96403e-09
9.69713e-09
9.69098e-09
9.64863e-09
9.60059e-09
9.53318e-09
9.47545e-09
9.42728e-09
9.39479e-09
9.36925e-09
9.35269e-09
9.34021e-09
9.33285e-09
9.32546e-09
9.31952e-09
9.31358e-09
9.30887e-09
9.30303e-09
9.29833e-09
9.29273e-09
9.28831e-09
9.28381e-09
9.2804e-09
9.27739e-09
9.27558e-09
9.27453e-09
9.27449e-09
9.27547e-09
9.27725e-09
9.28013e-09
9.28347e-09
9.28787e-09
9.29221e-09
9.29773e-09
9.30238e-09
9.30814e-09
9.31275e-09
9.31867e-09
9.32453e-09
9.33194e-09
9.33946e-09
9.35181e-09
9.36834e-09
9.39409e-09
9.42681e-09
9.47516e-09
9.53336e-09
9.60099e-09
9.64909e-09
9.6914e-09
9.69752e-09
9.44433e-09
9.43543e-09
9.39048e-09
9.34051e-09
9.27172e-09
9.21326e-09
9.16464e-09
9.13185e-09
9.1061e-09
9.08903e-09
9.07628e-09
9.06855e-09
9.06079e-09
9.05448e-09
9.04826e-09
9.04349e-09
9.03745e-09
9.0326e-09
9.02684e-09
9.02229e-09
9.01769e-09
9.01421e-09
9.01115e-09
9.00931e-09
9.00824e-09
9.0082e-09
9.00919e-09
9.01101e-09
9.01394e-09
9.01736e-09
9.02185e-09
9.02632e-09
9.032e-09
9.03681e-09
9.04276e-09
9.04742e-09
9.05361e-09
9.05984e-09
9.06763e-09
9.07557e-09
9.08813e-09
9.10516e-09
9.13117e-09
9.16415e-09
9.21295e-09
9.27189e-09
9.34091e-09
9.39092e-09
9.43581e-09
9.44469e-09
9.20428e-09
9.19267e-09
9.14521e-09
9.09342e-09
9.02318e-09
8.96399e-09
8.91486e-09
8.88182e-09
8.85586e-09
8.83825e-09
8.82527e-09
8.81713e-09
8.80897e-09
8.80229e-09
8.79578e-09
8.79103e-09
8.78476e-09
8.77974e-09
8.77382e-09
8.76913e-09
8.76443e-09
8.76086e-09
8.75775e-09
8.75587e-09
8.75479e-09
8.75475e-09
8.75576e-09
8.75761e-09
8.76059e-09
8.76409e-09
8.76868e-09
8.7733e-09
8.77914e-09
8.78412e-09
8.7903e-09
8.79494e-09
8.80143e-09
8.80801e-09
8.8162e-09
8.82459e-09
8.83735e-09
8.85486e-09
8.88117e-09
8.91434e-09
8.96365e-09
9.02332e-09
9.09381e-09
9.14564e-09
9.19301e-09
9.20459e-09
8.9761e-09
8.96182e-09
8.91193e-09
8.85843e-09
8.78665e-09
8.72672e-09
8.67701e-09
8.64377e-09
8.61757e-09
8.59945e-09
8.58626e-09
8.57768e-09
8.56909e-09
8.56206e-09
8.55522e-09
8.55057e-09
8.54405e-09
8.53884e-09
8.53276e-09
8.52791e-09
8.52311e-09
8.51944e-09
8.51628e-09
8.51437e-09
8.51327e-09
8.51323e-09
8.51425e-09
8.51614e-09
8.51917e-09
8.52277e-09
8.52747e-09
8.53224e-09
8.53824e-09
8.54341e-09
8.54984e-09
8.55437e-09
8.56118e-09
8.56813e-09
8.57675e-09
8.58561e-09
8.59852e-09
8.61654e-09
8.64321e-09
8.67647e-09
8.72635e-09
8.78676e-09
8.8588e-09
8.91234e-09
8.96215e-09
8.97637e-09
8.75904e-09
8.74211e-09
8.68979e-09
8.63473e-09
8.56127e-09
8.50047e-09
8.45043e-09
8.41686e-09
8.39039e-09
8.37179e-09
8.35841e-09
8.34936e-09
8.34032e-09
8.33291e-09
8.32573e-09
8.32128e-09
8.31447e-09
8.30908e-09
8.30281e-09
8.29781e-09
8.29288e-09
8.28911e-09
8.2859e-09
8.28395e-09
8.28284e-09
8.2828e-09
8.28383e-09
8.28576e-09
8.28885e-09
8.29254e-09
8.29736e-09
8.3023e-09
8.30847e-09
8.31383e-09
8.32054e-09
8.32487e-09
8.33202e-09
8.33934e-09
8.34841e-09
8.35778e-09
8.37083e-09
8.38932e-09
8.41645e-09
8.44985e-09
8.50006e-09
8.56134e-09
8.63507e-09
8.69019e-09
8.74248e-09
8.75924e-09
8.55237e-09
8.53283e-09
8.47794e-09
8.42133e-09
8.34649e-09
8.28448e-09
8.23431e-09
8.20028e-09
8.17353e-09
8.15447e-09
8.14096e-09
8.13136e-09
8.12184e-09
8.11405e-09
8.10648e-09
8.10238e-09
8.09524e-09
8.08965e-09
8.0832e-09
8.07802e-09
8.07296e-09
8.06909e-09
8.06582e-09
8.06383e-09
8.0627e-09
8.06266e-09
8.06371e-09
8.06568e-09
8.06883e-09
8.07263e-09
8.07757e-09
8.08269e-09
8.08904e-09
8.0946e-09
8.10163e-09
8.10561e-09
8.11316e-09
8.12086e-09
8.13039e-09
8.14032e-09
8.15347e-09
8.17242e-09
8.20013e-09
8.23369e-09
8.28404e-09
8.3465e-09
8.42162e-09
8.47835e-09
8.53335e-09
8.55248e-09
8.35543e-09
8.33311e-09
8.27574e-09
8.21757e-09
8.14154e-09
8.07805e-09
8.02792e-09
7.99328e-09
7.96621e-09
7.94671e-09
7.93315e-09
7.92293e-09
7.91291e-09
7.90472e-09
7.8967e-09
7.89312e-09
7.88563e-09
7.87984e-09
7.87319e-09
7.86783e-09
7.86262e-09
7.85864e-09
7.85531e-09
7.85327e-09
7.85212e-09
7.85208e-09
7.85315e-09
7.85517e-09
7.85839e-09
7.86229e-09
7.86738e-09
7.87268e-09
7.87923e-09
7.88498e-09
7.89237e-09
7.89583e-09
7.90382e-09
7.91192e-09
7.92194e-09
7.93246e-09
7.94566e-09
7.96506e-09
7.99354e-09
8.02726e-09
8.07757e-09
8.14148e-09
8.21779e-09
8.27602e-09
8.33425e-09
8.35543e-09
8.16758e-09
8.14224e-09
8.08247e-09
8.02282e-09
7.9457e-09
7.88744e-09
7.83739e-09
7.80195e-09
7.77451e-09
7.7546e-09
7.74109e-09
7.7302e-09
7.71968e-09
7.71112e-09
7.70258e-09
7.69281e-09
7.68491e-09
7.67892e-09
7.67207e-09
7.66651e-09
7.66115e-09
7.65705e-09
7.65365e-09
7.65155e-09
7.65038e-09
7.65033e-09
7.65143e-09
7.6535e-09
7.6568e-09
7.66083e-09
7.66606e-09
7.67156e-09
7.67832e-09
7.68426e-09
7.69204e-09
7.70169e-09
7.7102e-09
7.71867e-09
7.72919e-09
7.74031e-09
7.75347e-09
7.77334e-09
7.80279e-09
7.83668e-09
7.88692e-09
7.94554e-09
8.02293e-09
8.08264e-09
8.1445e-09
8.16744e-09
7.98819e-09
7.9662e-09
7.90417e-09
7.84313e-09
7.76481e-09
7.7034e-09
7.65228e-09
7.61514e-09
7.58709e-09
7.56675e-09
7.55378e-09
7.54265e-09
7.53232e-09
7.52437e-09
7.51663e-09
7.50734e-09
7.49904e-09
7.49289e-09
7.48583e-09
7.48007e-09
7.47455e-09
7.47033e-09
7.46684e-09
7.46469e-09
7.46348e-09
7.46344e-09
7.46457e-09
7.4667e-09
7.47009e-09
7.47423e-09
7.47962e-09
7.48533e-09
7.49229e-09
7.49839e-09
7.50656e-09
7.51584e-09
7.52355e-09
7.5314e-09
7.54172e-09
7.55295e-09
7.56559e-09
7.58595e-09
7.61697e-09
7.65163e-09
7.70303e-09
7.76454e-09
7.84311e-09
7.90421e-09
7.96354e-09
7.98785e-09
7.82271e-09
7.79793e-09
7.73141e-09
7.66715e-09
7.58617e-09
7.52276e-09
7.47213e-09
7.43978e-09
7.41134e-09
7.39048e-09
7.37174e-09
7.3598e-09
7.34896e-09
7.34069e-09
7.33269e-09
7.32405e-09
7.3157e-09
7.30979e-09
7.3028e-09
7.29714e-09
7.29173e-09
7.28759e-09
7.28418e-09
7.28207e-09
7.2809e-09
7.28085e-09
7.28195e-09
7.28402e-09
7.28735e-09
7.29141e-09
7.29669e-09
7.30232e-09
7.30921e-09
7.31507e-09
7.32328e-09
7.33192e-09
7.33987e-09
7.34803e-09
7.35885e-09
7.37076e-09
7.38923e-09
7.41015e-09
7.43648e-09
7.47139e-09
7.52235e-09
7.58587e-09
7.66708e-09
7.73143e-09
7.79622e-09
7.82218e-09
7.65936e-09
7.6314e-09
7.56289e-09
7.50241e-09
7.42031e-09
7.35548e-09
7.30505e-09
7.27166e-09
7.24239e-09
7.22113e-09
7.20272e-09
7.19003e-09
7.17868e-09
7.17019e-09
7.16166e-09
7.15328e-09
7.14453e-09
7.13855e-09
7.13135e-09
7.12548e-09
7.11991e-09
7.11564e-09
7.11215e-09
7.10996e-09
7.10875e-09
7.10871e-09
7.10984e-09
7.11199e-09
7.11541e-09
7.1196e-09
7.12504e-09
7.13088e-09
7.13798e-09
7.14391e-09
7.15251e-09
7.16088e-09
7.16936e-09
7.17775e-09
7.18906e-09
7.20161e-09
7.21989e-09
7.2413e-09
7.26906e-09
7.30424e-09
7.35501e-09
7.41993e-09
7.50217e-09
7.5627e-09
7.6302e-09
7.65867e-09
7.50794e-09
7.47731e-09
7.40709e-09
7.34455e-09
7.26128e-09
7.19533e-09
7.14479e-09
7.11053e-09
7.08078e-09
7.05895e-09
7.04044e-09
7.02702e-09
7.01516e-09
7.00651e-09
6.99743e-09
6.98927e-09
6.98011e-09
6.97163e-09
6.96469e-09
6.95907e-09
6.95376e-09
6.94971e-09
6.94638e-09
6.94432e-09
6.94317e-09
6.94312e-09
6.94418e-09
6.94621e-09
6.94948e-09
6.95345e-09
6.95864e-09
6.96421e-09
6.97108e-09
6.9795e-09
6.9885e-09
6.99665e-09
7.00567e-09
7.01423e-09
7.02604e-09
7.03921e-09
7.05761e-09
7.07965e-09
7.10842e-09
7.14392e-09
7.19481e-09
7.26081e-09
7.34414e-09
7.40667e-09
7.47623e-09
7.50703e-09
7.36311e-09
7.32993e-09
7.25799e-09
7.1932e-09
7.10712e-09
7.0397e-09
6.98892e-09
6.95417e-09
6.92459e-09
6.90313e-09
6.88443e-09
6.87033e-09
6.85793e-09
6.84924e-09
6.83955e-09
6.83006e-09
6.8214e-09
6.81334e-09
6.80621e-09
6.80042e-09
6.79497e-09
6.7908e-09
6.78739e-09
6.78525e-09
6.78406e-09
6.78402e-09
6.78511e-09
6.78722e-09
6.79058e-09
6.79467e-09
6.8e-09
6.80575e-09
6.81282e-09
6.82082e-09
6.82933e-09
6.83876e-09
6.84838e-09
6.85699e-09
6.86934e-09
6.88313e-09
6.90169e-09
6.92355e-09
6.95249e-09
6.9881e-09
7.03927e-09
7.10666e-09
7.19275e-09
7.25726e-09
7.32876e-09
7.36195e-09
7.22168e-09
7.18568e-09
7.11055e-09
7.04298e-09
6.95571e-09
6.88664e-09
6.83578e-09
6.80019e-09
6.77011e-09
6.74822e-09
6.72965e-09
6.71551e-09
6.70333e-09
6.69571e-09
6.68668e-09
6.67813e-09
6.66913e-09
6.66093e-09
6.65362e-09
6.64766e-09
6.64206e-09
6.63778e-09
6.63428e-09
6.63206e-09
6.63084e-09
6.63079e-09
6.63192e-09
6.6341e-09
6.63757e-09
6.64178e-09
6.64724e-09
6.65317e-09
6.66043e-09
6.66857e-09
6.67741e-09
6.68595e-09
6.69488e-09
6.70244e-09
6.71456e-09
6.72835e-09
6.7467e-09
6.76905e-09
6.79878e-09
6.83491e-09
6.88619e-09
6.9551e-09
7.04224e-09
7.10979e-09
7.18439e-09
7.22037e-09
7.08396e-09
7.04556e-09
6.96761e-09
6.89808e-09
6.81013e-09
6.74382e-09
6.69284e-09
6.6564e-09
6.62577e-09
6.60335e-09
6.58445e-09
6.56977e-09
6.55705e-09
6.54471e-09
6.53509e-09
6.52677e-09
6.51794e-09
6.51007e-09
6.50302e-09
6.49735e-09
6.49204e-09
6.48802e-09
6.48474e-09
6.48268e-09
6.48154e-09
6.48149e-09
6.48254e-09
6.48457e-09
6.48783e-09
6.49178e-09
6.49695e-09
6.50258e-09
6.5096e-09
6.51741e-09
6.52608e-09
6.53437e-09
6.54387e-09
6.55617e-09
6.56883e-09
6.58316e-09
6.60172e-09
6.62469e-09
6.65516e-09
6.69197e-09
6.74331e-09
6.80934e-09
6.89699e-09
6.96666e-09
7.04392e-09
7.0823e-09
6.95157e-09
6.91091e-09
6.83425e-09
6.76307e-09
6.67444e-09
6.60606e-09
6.55483e-09
6.51754e-09
6.48631e-09
6.46337e-09
6.44408e-09
6.4289e-09
6.41567e-09
6.40327e-09
6.39311e-09
6.38484e-09
6.37574e-09
6.36778e-09
6.36059e-09
6.35479e-09
6.34937e-09
6.34526e-09
6.34192e-09
6.33979e-09
6.33862e-09
6.33857e-09
6.33965e-09
6.34174e-09
6.34509e-09
6.34913e-09
6.35441e-09
6.36017e-09
6.36735e-09
6.37524e-09
6.3842e-09
6.3924e-09
6.40242e-09
6.41481e-09
6.42797e-09
6.44282e-09
6.46163e-09
6.48522e-09
6.5164e-09
6.55395e-09
6.60548e-09
6.67349e-09
6.76165e-09
6.83307e-09
6.90884e-09
6.94948e-09
6.82851e-09
6.78582e-09
6.70512e-09
6.63172e-09
6.54104e-09
6.47301e-09
6.42134e-09
6.38318e-09
6.35131e-09
6.32785e-09
6.30811e-09
6.29247e-09
6.27875e-09
6.26596e-09
6.25557e-09
6.24735e-09
6.23801e-09
6.22996e-09
6.22266e-09
6.21674e-09
6.21121e-09
6.20702e-09
6.2036e-09
6.20142e-09
6.20022e-09
6.20017e-09
6.20127e-09
6.20342e-09
6.20687e-09
6.21099e-09
6.21637e-09
6.22226e-09
6.2296e-09
6.23755e-09
6.24675e-09
6.25488e-09
6.26518e-09
6.27791e-09
6.29157e-09
6.30691e-09
6.32599e-09
6.35022e-09
6.38209e-09
6.42044e-09
6.47237e-09
6.54006e-09
6.63021e-09
6.70397e-09
6.78318e-09
6.82593e-09
6.71013e-09
6.66549e-09
6.58062e-09
6.50598e-09
6.41403e-09
6.34418e-09
6.29195e-09
6.2529e-09
6.22034e-09
6.19638e-09
6.17613e-09
6.16007e-09
6.14586e-09
6.1329e-09
6.12205e-09
6.11388e-09
6.10433e-09
6.09621e-09
6.08882e-09
6.08277e-09
6.07715e-09
6.07288e-09
6.0694e-09
6.06716e-09
6.06594e-09
6.06589e-09
6.06702e-09
6.06921e-09
6.07277e-09
6.07695e-09
6.08244e-09
6.08844e-09
6.09592e-09
6.10393e-09
6.11335e-09
6.12141e-09
6.13215e-09
6.14506e-09
6.15921e-09
6.17502e-09
6.19437e-09
6.21926e-09
6.25185e-09
6.29102e-09
6.34341e-09
6.41287e-09
6.5041e-09
6.5792e-09
6.66214e-09
6.70692e-09
6.59612e-09
6.54925e-09
6.46049e-09
6.38424e-09
6.2907e-09
6.21936e-09
6.16627e-09
6.1263e-09
6.09299e-09
6.06853e-09
6.04775e-09
6.03127e-09
6.01658e-09
6.00342e-09
5.99214e-09
5.98402e-09
5.97428e-09
5.9661e-09
5.95866e-09
5.95249e-09
5.94677e-09
5.94244e-09
5.9389e-09
5.93662e-09
5.93538e-09
5.93533e-09
5.93647e-09
5.9387e-09
5.94237e-09
5.94662e-09
5.95219e-09
5.95832e-09
5.9659e-09
5.97399e-09
5.98357e-09
5.99157e-09
6.00271e-09
6.01585e-09
6.03047e-09
6.04674e-09
6.06635e-09
6.09194e-09
6.12527e-09
6.16529e-09
6.21843e-09
6.2892e-09
6.38199e-09
6.4587e-09
6.54505e-09
6.59213e-09
6.48622e-09
6.43684e-09
6.34439e-09
6.26603e-09
6.17107e-09
6.09793e-09
6.04386e-09
6.00299e-09
5.96884e-09
5.94391e-09
5.92255e-09
5.90567e-09
5.89049e-09
5.87709e-09
5.8654e-09
5.85736e-09
5.84748e-09
5.83924e-09
5.83178e-09
5.8255e-09
5.81969e-09
5.8153e-09
5.81171e-09
5.80939e-09
5.80813e-09
5.80808e-09
5.80924e-09
5.8115e-09
5.8153e-09
5.8196e-09
5.82525e-09
5.83147e-09
5.83917e-09
5.84732e-09
5.85704e-09
5.86493e-09
5.87646e-09
5.88986e-09
5.90495e-09
5.92166e-09
5.94152e-09
5.96784e-09
6.00194e-09
6.04283e-09
6.09681e-09
6.16916e-09
6.26324e-09
6.34204e-09
6.43161e-09
6.48121e-09
5.70778e-09
5.7014e-09
5.69551e-09
5.69106e-09
5.68743e-09
5.68508e-09
5.6838e-09
5.68375e-09
5.68492e-09
5.68721e-09
5.69115e-09
5.6955e-09
5.70122e-09
5.70753e-09
5.71532e-09
5.72354e-09
5.73335e-09
5.7411e-09
5.75251e-09
5.76554e-09
5.78057e-09
5.79727e-09
5.81707e-09
5.84403e-09
5.87894e-09
5.92081e-09
5.97605e-09
6.05059e-09
6.14758e-09
6.22867e-09
6.32164e-09
6.37382e-09
5.56707e-09
5.57132e-09
5.57693e-09
5.58312e-09
5.59083e-09
5.59893e-09
5.60853e-09
5.61585e-09
5.62742e-09
5.64074e-09
5.65622e-09
5.67333e-09
5.69711e-09
5.72489e-09
5.76067e-09
5.80347e-09
5.85969e-09
5.93633e-09
6.03458e-09
6.11818e-09
6.21488e-09
6.26965e-09
5.57902e-09
5.60763e-09
5.64434e-09
5.68812e-09
5.74539e-09
5.82426e-09
5.92407e-09
6.01026e-09
6.11103e-09
6.16842e-09
)
;

boundaryField
{
    fuel
    {
        type            fixedValue;
        value           nonuniform 0();
    }
    wall
    {
        type            zeroGradient;
    }
    outlet
    {
        type            zeroGradient;
    }
    frontAndBack
    {
        type            empty;
    }
    procBoundary0to1
    {
        type            processor;
        value           nonuniform List<scalar> 
50
(
2.02663e-08
2.03385e-08
2.03962e-08
2.04088e-08
2.03656e-08
2.03312e-08
2.02835e-08
2.02617e-08
2.02381e-08
2.02321e-08
2.02233e-08
2.02239e-08
2.02204e-08
2.02214e-08
2.02182e-08
2.02176e-08
2.02136e-08
2.02114e-08
2.02071e-08
2.02043e-08
2.02005e-08
2.01982e-08
2.01956e-08
2.01942e-08
2.01933e-08
2.01933e-08
2.01942e-08
2.01954e-08
2.01979e-08
2.02002e-08
2.0204e-08
2.02066e-08
2.02109e-08
2.0213e-08
2.02169e-08
2.02175e-08
2.02206e-08
2.02196e-08
2.02231e-08
2.02226e-08
2.02314e-08
2.02375e-08
2.02612e-08
2.02832e-08
2.03312e-08
2.03658e-08
2.04092e-08
2.03967e-08
2.0339e-08
2.02668e-08
)
;
    }
    procBoundary0to2
    {
        type            processor;
        value           nonuniform List<scalar> 
53
(
6.37795e-09
6.32599e-09
6.23034e-09
6.14942e-09
6.05183e-09
5.97678e-09
5.92147e-09
5.87977e-09
5.84485e-09
5.81976e-09
5.79814e-09
5.78134e-09
5.76629e-09
5.75327e-09
5.74181e-09
5.73392e-09
5.72397e-09
5.71569e-09
5.71569e-09
5.58382e-09
5.57757e-09
5.57182e-09
5.56747e-09
5.56391e-09
5.56161e-09
5.56035e-09
5.5603e-09
5.56145e-09
5.56368e-09
5.56368e-09
5.44406e-09
5.44832e-09
5.45395e-09
5.46014e-09
5.4679e-09
5.47605e-09
5.48559e-09
5.49643e-09
5.50827e-09
5.52183e-09
5.53767e-09
5.55505e-09
5.55505e-09
5.46255e-09
5.49187e-09
5.52942e-09
5.57407e-09
5.63227e-09
5.71319e-09
5.81447e-09
5.90271e-09
6.00767e-09
6.06755e-09
)
;
    }
}


// ************************************************************************* //
