/*--------------------------------*- C++ -*----------------------------------*\
| =========                 |                                                 |
| \\      /  F ield         | OpenFOAM: The Open Source CFD Toolbox           |
|  \\    /   O peration     | Version:  dev                                   |
|   \\  /    A nd           | Web:      www.OpenFOAM.org                      |
|    \\/     M anipulation  |                                                 |
\*---------------------------------------------------------------------------*/
FoamFile
{
    version     2.0;
    format      ascii;
    class       volScalarField;
    location    "0.02";
    object      A1C2H3*;
}
// * * * * * * * * * * * * * * * * * * * * * * * * * * * * * * * * * * * * * //

dimensions      [0 0 0 0 0 0 0];

internalField   nonuniform List<scalar> 
250
(
4.73358e-12
4.90988e-12
5.16806e-12
5.69388e-12
6.4441e-12
7.54738e-12
9.31601e-12
1.23466e-11
2.10101e-11
3.6535e-11
4.39901e-12
4.58166e-12
4.88953e-12
5.44148e-12
6.2492e-12
7.43416e-12
9.30943e-12
1.24768e-11
2.05902e-11
3.63004e-11
3.65212e-11
2.0635e-11
1.28371e-11
9.45823e-12
7.44511e-12
6.14405e-12
5.26031e-12
4.67063e-12
4.33657e-12
4.14351e-12
4.14276e-12
4.33159e-12
4.65993e-12
5.24e-12
6.11331e-12
7.40099e-12
9.40459e-12
1.27649e-11
2.05332e-11
3.64598e-11
3.70373e-11
2.09055e-11
1.32927e-11
9.66612e-12
7.48978e-12
6.06508e-12
5.10719e-12
4.47603e-12
4.12782e-12
3.92851e-12
3.92751e-12
4.12244e-12
4.46497e-12
5.08564e-12
6.03275e-12
7.44261e-12
9.60739e-12
1.32144e-11
2.08015e-11
3.69517e-11
3.78271e-11
2.14738e-11
1.39109e-11
9.98616e-12
7.604e-12
6.03754e-12
4.99551e-12
4.32576e-12
3.95437e-12
3.74119e-12
3.74011e-12
3.94863e-12
4.31405e-12
4.97299e-12
6.0033e-12
7.55437e-12
9.92062e-12
1.38254e-11
2.13642e-11
3.77171e-11
3.88274e-11
2.23094e-11
1.46855e-11
1.04147e-11
7.78371e-12
6.05578e-12
4.91936e-12
4.20646e-12
3.81081e-12
3.58918e-12
3.58796e-12
3.80472e-12
4.19412e-12
4.89588e-12
6.01955e-12
7.73118e-12
1.03424e-11
1.4592e-11
2.21925e-11
3.86961e-11
3.99827e-11
2.34881e-11
1.56424e-11
1.09542e-11
8.02105e-12
6.11308e-12
4.87206e-12
4.11161e-12
3.69143e-12
3.46034e-12
3.459e-12
3.68504e-12
4.09875e-12
4.84757e-12
6.07442e-12
7.96527e-12
1.0873e-11
1.55385e-11
2.33614e-11
3.9833e-11
4.12576e-11
2.49178e-11
1.67643e-11
1.15768e-11
8.30483e-12
6.20028e-12
4.84647e-12
4.0344e-12
3.59033e-12
3.34894e-12
3.34747e-12
3.58369e-12
4.02112e-12
4.82096e-12
6.15953e-12
8.24585e-12
1.14886e-11
1.66516e-11
2.47816e-11
4.1093e-11
4.26666e-11
2.64022e-11
1.79351e-11
1.23239e-11
8.62337e-12
6.31033e-12
4.83604e-12
3.96864e-12
3.49516e-12
3.24721e-12
3.24571e-12
3.48834e-12
3.95434e-12
4.80957e-12
6.26761e-12
8.56175e-12
1.22267e-11
1.78144e-11
2.62578e-11
4.24896e-11
4.4315e-11
2.80973e-11
1.92378e-11
1.31104e-11
8.97016e-12
6.43989e-12
4.83708e-12
3.91138e-12
3.41368e-12
3.15618e-12
3.1546e-12
3.40671e-12
3.89664e-12
4.80977e-12
6.39537e-12
8.90766e-12
1.30047e-11
1.91083e-11
2.79431e-11
4.41257e-11
4.64624e-11
3.01148e-11
2.07474e-11
1.3976e-11
9.39274e-12
6.59575e-12
4.85214e-12
3.86431e-12
3.34101e-12
3.07402e-12
3.07238e-12
3.33392e-12
3.84937e-12
4.82409e-12
6.54948e-12
9.33215e-12
1.38582e-11
2.06061e-11
2.99459e-11
4.62557e-11
4.96329e-11
3.27394e-11
2.26622e-11
1.50229e-11
9.93033e-12
6.80402e-12
4.89508e-12
3.83714e-12
3.28354e-12
3.00684e-12
3.00516e-12
3.27636e-12
3.82199e-12
4.86633e-12
6.75567e-12
9.85918e-12
1.4901e-11
2.25023e-11
3.25451e-11
4.93963e-11
5.47269e-11
3.65485e-11
2.53872e-11
1.64853e-11
1.06725e-11
7.12662e-12
4.99956e-12
3.85292e-12
3.25769e-12
2.9697e-12
2.96799e-12
3.25044e-12
3.83742e-12
4.96991e-12
7.07523e-12
1.05921e-11
1.6349e-11
2.51963e-11
3.63099e-11
5.44405e-11
2.99054e-12
3.28901e-12
3.94164e-12
5.20348e-12
7.63316e-12
1.17463e-11
1.85907e-11
2.93194e-11
4.21472e-11
6.25607e-11
)
;

boundaryField
{
    fuel
    {
        type            fixedValue;
        value           nonuniform 0();
    }
    wall
    {
        type            zeroGradient;
    }
    outlet
    {
        type            zeroGradient;
    }
    frontAndBack
    {
        type            empty;
    }
    procBoundary0to1
    {
        type            processor;
        value           nonuniform List<scalar> 
21
(
6.28964e-11
4.24432e-11
2.95516e-11
1.87493e-11
1.18379e-11
7.68904e-12
5.23474e-12
3.95816e-12
3.29683e-12
2.99275e-12
2.99275e-12
3.12839e-12
3.45405e-12
4.22029e-12
5.6942e-12
8.64588e-12
1.36582e-11
2.21533e-11
3.54865e-11
5.09501e-11
7.44809e-11
)
;
    }
    procBoundary0to2
    {
        type            processor;
        value           nonuniform List<scalar> 
12
(
4.73446e-12
3.63328e-11
2.06892e-11
1.25418e-11
9.35983e-12
7.47277e-12
6.27848e-12
5.45996e-12
4.89963e-12
4.58642e-12
4.39969e-12
4.39969e-12
)
;
    }
    procBoundary0to3
    {
        type            processor;
        value           nonuniform List<scalar> 10(5.12146e-12 5.29192e-12 5.53625e-12 6.03666e-12 6.70216e-12 7.73958e-12 9.42265e-12 1.23681e-11 2.18372e-11 3.72323e-11);
    }
}


// ************************************************************************* //
