/*--------------------------------*- C++ -*----------------------------------*\
| =========                 |                                                 |
| \\      /  F ield         | OpenFOAM: The Open Source CFD Toolbox           |
|  \\    /   O peration     | Version:  dev                                   |
|   \\  /    A nd           | Web:      www.OpenFOAM.org                      |
|    \\/     M anipulation  |                                                 |
\*---------------------------------------------------------------------------*/
FoamFile
{
    version     2.0;
    format      ascii;
    class       volScalarField;
    location    "0.02";
    object      A2C2HB*;
}
// * * * * * * * * * * * * * * * * * * * * * * * * * * * * * * * * * * * * * //

dimensions      [0 0 0 0 0 0 0];

internalField   nonuniform List<scalar> 
250
(
1.79046e-12
1.83478e-12
1.86776e-12
2.01347e-12
2.24263e-12
2.66948e-12
3.50073e-12
5.04536e-12
9.59138e-12
1.59288e-11
1.56428e-12
1.6086e-12
1.66491e-12
1.81591e-12
2.06425e-12
2.52526e-12
3.41086e-12
5.03329e-12
9.32325e-12
1.67121e-11
1.7443e-11
9.31459e-12
5.1508e-12
3.39871e-12
2.43568e-12
1.92236e-12
1.64736e-12
1.48788e-12
1.42679e-12
1.38148e-12
1.38131e-12
1.42553e-12
1.48525e-12
1.64168e-12
1.91352e-12
2.42102e-12
3.3788e-12
5.12157e-12
9.2732e-12
1.74445e-11
1.81364e-11
9.45712e-12
5.3423e-12
3.43016e-12
2.369e-12
1.79701e-12
1.49434e-12
1.32122e-12
1.26213e-12
1.21738e-12
1.21716e-12
1.2608e-12
1.31874e-12
1.48838e-12
1.78785e-12
2.35324e-12
3.40726e-12
5.30935e-12
9.41276e-12
1.81163e-11
1.87233e-11
9.75675e-12
5.62349e-12
3.5216e-12
2.33539e-12
1.69458e-12
1.35928e-12
1.17692e-12
1.11323e-12
1.06393e-12
1.06374e-12
1.11184e-12
1.17437e-12
1.35324e-12
1.68489e-12
2.31876e-12
3.49506e-12
5.5866e-12
9.70851e-12
1.86879e-11
1.91308e-11
1.01643e-11
5.96798e-12
3.66335e-12
2.33048e-12
1.61203e-12
1.23974e-12
1.04668e-12
9.78221e-13
9.29156e-13
9.28935e-13
9.76785e-13
1.04411e-12
1.23364e-12
1.6016e-12
2.31272e-12
3.63354e-12
5.92772e-12
1.01129e-11
1.90872e-11
1.92617e-11
1.06567e-11
6.34548e-12
3.83894e-12
2.34447e-12
1.5439e-12
1.13314e-12
9.28566e-13
8.55677e-13
8.06676e-13
8.06431e-13
8.54232e-13
9.26054e-13
1.12698e-12
1.53313e-12
2.3256e-12
3.80561e-12
6.30245e-12
1.06037e-11
1.92165e-11
1.90182e-11
1.1061e-11
6.67366e-12
4.00761e-12
2.36142e-12
1.48473e-12
1.03642e-12
8.20678e-13
7.44527e-13
6.95572e-13
6.95307e-13
7.43105e-13
8.18185e-13
1.03023e-12
1.47339e-12
2.34189e-12
3.97278e-12
6.63162e-12
1.10111e-11
1.89782e-11
1.8333e-11
1.1201e-11
6.83598e-12
4.13819e-12
2.36062e-12
1.42509e-12
9.45978e-13
7.21158e-13
6.38099e-13
5.92976e-13
5.92759e-13
6.36764e-13
7.18321e-13
9.39845e-13
1.41365e-12
2.34134e-12
4.10331e-12
6.79819e-12
1.11583e-11
1.83037e-11
1.7188e-11
1.1041e-11
6.79874e-12
4.1628e-12
2.32063e-12
1.35591e-12
8.58118e-13
6.28643e-13
5.45497e-13
5.0182e-13
5.01603e-13
5.44241e-13
6.25903e-13
8.52194e-13
1.34482e-12
2.3032e-12
4.13013e-12
6.76787e-12
1.10087e-11
1.71729e-11
1.56265e-11
1.05354e-11
6.53069e-12
4.05129e-12
2.24145e-12
1.27008e-12
7.69915e-13
5.4198e-13
4.60957e-13
4.19704e-13
4.19497e-13
4.59805e-13
5.39516e-13
7.6437e-13
1.25979e-12
2.2279e-12
4.0218e-12
6.50835e-12
1.05154e-11
1.5626e-11
1.37474e-11
9.69352e-12
6.03951e-12
3.80374e-12
2.10992e-12
1.16449e-12
6.80087e-13
4.60718e-13
3.84232e-13
3.4641e-13
3.46221e-13
3.83204e-13
4.58561e-13
6.75078e-13
1.15534e-12
2.09595e-12
3.78235e-12
6.02598e-12
9.68569e-12
1.37592e-11
1.16832e-11
8.5785e-12
5.36871e-12
3.4437e-12
1.92008e-12
1.04083e-12
5.89339e-13
3.85269e-13
3.15487e-13
2.81943e-13
2.81779e-13
3.14601e-13
3.83424e-13
5.84979e-13
1.03306e-12
1.9078e-12
3.42898e-12
5.36295e-12
8.58082e-12
1.17035e-11
2.26204e-13
2.54339e-13
3.15041e-13
4.96235e-13
8.98415e-13
1.6765e-12
2.9929e-12
4.58342e-12
7.29811e-12
9.59806e-12
)
;

boundaryField
{
    fuel
    {
        type            fixedValue;
        value           nonuniform 0();
    }
    wall
    {
        type            zeroGradient;
    }
    outlet
    {
        type            zeroGradient;
    }
    frontAndBack
    {
        type            empty;
    }
    procBoundary0to1
    {
        type            processor;
        value           nonuniform List<scalar> 
21
(
9.57003e-12
7.28647e-12
4.58244e-12
3.00164e-12
1.68622e-12
9.04653e-13
4.99882e-13
3.16586e-13
2.55093e-13
2.26355e-13
2.26355e-13
1.79292e-13
2.02586e-13
2.54286e-13
4.11498e-13
7.58609e-13
1.41973e-12
2.51256e-12
3.75621e-12
5.94442e-12
7.56532e-12
)
;
    }
    procBoundary0to2
    {
        type            processor;
        value           nonuniform List<scalar> 
12
(
1.79059e-12
1.66863e-11
9.36158e-12
5.05841e-12
3.4289e-12
2.53761e-12
2.07286e-12
1.82083e-12
1.66737e-12
1.6098e-12
1.5644e-12
1.5644e-12
)
;
    }
    procBoundary0to3
    {
        type            processor;
        value           nonuniform List<scalar> 10(2.04448e-12 2.08881e-12 2.12163e-12 2.26253e-12 2.45217e-12 2.85456e-12 3.6479e-12 5.15488e-12 1.01065e-11 1.50822e-11);
    }
}


// ************************************************************************* //
