/*--------------------------------*- C++ -*----------------------------------*\
| =========                 |                                                 |
| \\      /  F ield         | OpenFOAM: The Open Source CFD Toolbox           |
|  \\    /   O peration     | Version:  dev                                   |
|   \\  /    A nd           | Web:      www.OpenFOAM.org                      |
|    \\/     M anipulation  |                                                 |
\*---------------------------------------------------------------------------*/
FoamFile
{
    version     2.0;
    format      ascii;
    class       volScalarField;
    location    "0.02";
    object      A2C2HA;
}
// * * * * * * * * * * * * * * * * * * * * * * * * * * * * * * * * * * * * * //

dimensions      [0 0 0 0 0 0 0];

internalField   nonuniform List<scalar> 
250
(
2.56097e-10
2.63278e-10
2.73897e-10
2.99483e-10
3.42686e-10
4.15115e-10
5.51522e-10
8.22512e-10
1.64116e-09
4.02482e-09
2.3703e-10
2.44577e-10
2.58102e-10
2.85882e-10
3.34625e-10
4.16752e-10
5.69692e-10
8.71516e-10
1.67705e-09
4.12897e-09
4.36674e-09
1.78155e-09
9.55069e-10
6.05997e-10
4.29758e-10
3.33329e-10
2.76796e-10
2.45789e-10
2.30508e-10
2.22373e-10
2.22334e-10
2.30285e-10
2.4528e-10
2.75731e-10
3.31454e-10
4.26655e-10
6.01509e-10
9.47979e-10
1.76974e-09
4.35541e-09
4.73408e-09
1.94184e-09
1.06933e-09
6.56855e-10
4.49807e-10
3.35847e-10
2.70314e-10
2.3543e-10
2.18706e-10
2.10093e-10
2.10045e-10
2.18462e-10
2.34885e-10
2.69133e-10
3.33727e-10
4.46205e-10
6.51319e-10
1.06048e-09
1.92804e-09
4.7167e-09
5.25007e-09
2.18188e-09
1.23122e-09
7.31862e-10
4.81777e-10
3.44743e-10
2.67574e-10
2.28213e-10
2.09247e-10
1.99674e-10
1.99621e-10
2.08978e-10
2.27607e-10
2.66266e-10
3.42298e-10
4.776e-10
7.24845e-10
1.21996e-09
2.1651e-09
5.22638e-09
5.92573e-09
2.51769e-09
1.45326e-09
8.37928e-10
5.28777e-10
3.61146e-10
2.68894e-10
2.2379e-10
2.0206e-10
1.91688e-10
1.91625e-10
2.01764e-10
2.23109e-10
2.67431e-10
3.58331e-10
5.23807e-10
8.29117e-10
1.43888e-09
2.497e-09
5.89568e-09
6.76465e-09
3.01706e-09
1.76151e-09
9.85603e-10
5.94068e-10
3.86716e-10
2.74664e-10
2.22225e-10
1.97106e-10
1.85717e-10
1.85643e-10
1.96779e-10
2.21451e-10
2.73007e-10
3.83302e-10
5.88056e-10
9.73826e-10
1.74239e-09
2.99053e-09
6.72778e-09
7.75309e-09
3.67686e-09
2.1694e-09
1.17599e-09
6.80182e-10
4.21942e-10
2.85207e-10
2.23543e-10
1.94333e-10
1.81679e-10
1.81593e-10
1.93972e-10
2.22665e-10
2.83315e-10
4.17952e-10
6.72917e-10
1.16135e-09
2.14529e-09
3.64375e-09
7.70935e-09
8.8553e-09
4.40013e-09
2.63223e-09
1.43172e-09
7.87705e-10
4.67509e-10
3.00545e-10
2.27592e-10
1.9357e-10
1.79369e-10
1.79271e-10
1.93168e-10
2.26625e-10
2.98381e-10
4.62802e-10
7.79094e-10
1.41292e-09
2.60334e-09
4.36119e-09
8.8057e-09
1.00196e-08
5.2268e-09
3.15995e-09
1.71579e-09
9.13742e-10
5.22368e-10
3.20105e-10
2.3386e-10
1.94485e-10
1.78537e-10
1.78425e-10
1.94041e-10
2.32772e-10
3.17642e-10
5.16893e-10
9.04052e-10
1.69321e-09
3.12665e-09
5.18265e-09
9.96613e-09
1.11789e-08
6.11675e-09
3.72424e-09
2.02328e-09
1.05888e-09
5.83615e-10
3.4248e-10
2.41418e-10
1.96423e-10
1.78593e-10
1.78468e-10
1.95936e-10
2.40204e-10
3.39716e-10
5.77396e-10
1.04882e-09
1.99671e-09
3.68743e-09
6.06872e-09
1.11241e-08
1.22609e-08
7.01463e-09
4.28775e-09
2.33514e-09
1.21241e-09
6.46486e-10
3.65398e-10
2.48913e-10
1.98466e-10
1.78755e-10
1.78619e-10
1.97937e-10
2.47589e-10
3.62358e-10
6.39615e-10
1.1998e-09
2.30772e-09
4.24879e-09
6.96456e-09
1.22075e-08
1.32021e-08
7.86069e-09
4.81232e-09
2.63318e-09
1.35774e-09
7.05063e-10
3.86005e-10
2.54724e-10
1.99502e-10
1.7809e-10
1.77945e-10
1.98939e-10
2.53318e-10
3.82744e-10
6.9771e-10
1.34357e-09
2.60516e-09
4.7727e-09
7.81064e-09
1.31525e-08
1.75541e-10
1.97851e-10
2.55839e-10
3.98045e-10
7.46017e-10
1.46822e-09
2.86957e-09
5.22926e-09
8.5567e-09
1.39169e-08
)
;

boundaryField
{
    fuel
    {
        type            fixedValue;
        value           nonuniform 0();
    }
    wall
    {
        type            zeroGradient;
    }
    outlet
    {
        type            zeroGradient;
    }
    frontAndBack
    {
        type            empty;
    }
    procBoundary0to1
    {
        type            processor;
        value           nonuniform List<scalar> 
21
(
1.39592e-08
8.60402e-09
5.2683e-09
2.89748e-09
1.48335e-09
7.53635e-10
4.01452e-10
2.57296e-10
1.98443e-10
1.75696e-10
1.75696e-10
1.70741e-10
1.93859e-10
2.54032e-10
4.06126e-10
7.80506e-10
1.56495e-09
3.0898e-09
5.60432e-09
9.1732e-09
1.44879e-08
)
;
    }
    procBoundary0to2
    {
        type            processor;
        value           nonuniform List<scalar> 
12
(
2.56125e-10
4.13252e-09
1.68716e-09
8.77146e-10
5.73517e-10
4.19234e-10
3.363e-10
2.86815e-10
2.5856e-10
2.44779e-10
2.37057e-10
2.37057e-10
)
;
    }
    procBoundary0to3
    {
        type            processor;
        value           nonuniform List<scalar> 10(2.78108e-10 2.84996e-10 2.94774e-10 3.18414e-10 3.55344e-10 4.20433e-10 5.4434e-10 7.94672e-10 1.65742e-09 4.02977e-09);
    }
}


// ************************************************************************* //
