/*--------------------------------*- C++ -*----------------------------------*\
| =========                 |                                                 |
| \\      /  F ield         | OpenFOAM: The Open Source CFD Toolbox           |
|  \\    /   O peration     | Version:  dev                                   |
|   \\  /    A nd           | Web:      www.OpenFOAM.org                      |
|    \\/     M anipulation  |                                                 |
\*---------------------------------------------------------------------------*/
FoamFile
{
    version     2.0;
    format      ascii;
    class       volScalarField;
    location    "0.02";
    object      A2R5;
}
// * * * * * * * * * * * * * * * * * * * * * * * * * * * * * * * * * * * * * //

dimensions      [0 0 0 0 0 0 0];

internalField   nonuniform List<scalar> 
2014
(
1.65926e-07
1.65933e-07
1.65792e-07
1.65539e-07
1.65154e-07
1.64852e-07
1.64562e-07
1.64394e-07
1.64253e-07
1.64187e-07
1.64126e-07
1.641e-07
1.64065e-07
1.64043e-07
1.64009e-07
1.63983e-07
1.63946e-07
1.63916e-07
1.6388e-07
1.63852e-07
1.63824e-07
1.63802e-07
1.63783e-07
1.63772e-07
1.63765e-07
1.63765e-07
1.63772e-07
1.63783e-07
1.63801e-07
1.63822e-07
1.6385e-07
1.63878e-07
1.63913e-07
1.63942e-07
1.63979e-07
1.64005e-07
1.64038e-07
1.64059e-07
1.64095e-07
1.64121e-07
1.64182e-07
1.64249e-07
1.6439e-07
1.6456e-07
1.64851e-07
1.65155e-07
1.65541e-07
1.65796e-07
1.65938e-07
1.65932e-07
1.62989e-07
1.62992e-07
1.62835e-07
1.62571e-07
1.62174e-07
1.61861e-07
1.61564e-07
1.61389e-07
1.61244e-07
1.61175e-07
1.61112e-07
1.61084e-07
1.61047e-07
1.61025e-07
1.6099e-07
1.60962e-07
1.60925e-07
1.60894e-07
1.60858e-07
1.60829e-07
1.60799e-07
1.60778e-07
1.60758e-07
1.60747e-07
1.6074e-07
1.6074e-07
1.60746e-07
1.60758e-07
1.60776e-07
1.60798e-07
1.60827e-07
1.60855e-07
1.6089e-07
1.60921e-07
1.60958e-07
1.60985e-07
1.61019e-07
1.61041e-07
1.61078e-07
1.61106e-07
1.6117e-07
1.6124e-07
1.61385e-07
1.61561e-07
1.6186e-07
1.62175e-07
1.62573e-07
1.62839e-07
1.62998e-07
1.62996e-07
1.60114e-07
1.60111e-07
1.59937e-07
1.59661e-07
1.59252e-07
1.58928e-07
1.58623e-07
1.58442e-07
1.58293e-07
1.58221e-07
1.58155e-07
1.58126e-07
1.58087e-07
1.58064e-07
1.58028e-07
1.58e-07
1.57961e-07
1.57929e-07
1.57892e-07
1.57863e-07
1.57832e-07
1.5781e-07
1.5779e-07
1.57778e-07
1.57772e-07
1.57771e-07
1.57778e-07
1.5779e-07
1.57809e-07
1.57831e-07
1.5786e-07
1.57889e-07
1.57926e-07
1.57957e-07
1.57995e-07
1.58023e-07
1.58058e-07
1.58082e-07
1.5812e-07
1.58149e-07
1.58215e-07
1.58289e-07
1.58438e-07
1.58621e-07
1.58927e-07
1.59253e-07
1.59664e-07
1.59942e-07
1.60117e-07
1.60121e-07
1.57301e-07
1.57291e-07
1.57099e-07
1.5681e-07
1.56389e-07
1.56053e-07
1.55741e-07
1.55554e-07
1.55401e-07
1.55325e-07
1.55257e-07
1.55226e-07
1.55186e-07
1.55161e-07
1.55124e-07
1.55095e-07
1.55055e-07
1.55022e-07
1.54985e-07
1.54954e-07
1.54924e-07
1.54901e-07
1.5488e-07
1.54868e-07
1.54861e-07
1.54861e-07
1.54868e-07
1.5488e-07
1.54899e-07
1.54922e-07
1.54952e-07
1.54982e-07
1.55019e-07
1.55051e-07
1.5509e-07
1.55119e-07
1.55156e-07
1.5518e-07
1.5522e-07
1.55251e-07
1.55319e-07
1.55396e-07
1.5555e-07
1.55739e-07
1.56053e-07
1.5639e-07
1.56813e-07
1.57104e-07
1.57297e-07
1.57307e-07
1.54548e-07
1.54531e-07
1.54321e-07
1.54019e-07
1.53585e-07
1.53238e-07
1.52919e-07
1.52725e-07
1.52568e-07
1.52488e-07
1.52418e-07
1.52385e-07
1.52344e-07
1.52317e-07
1.52279e-07
1.52249e-07
1.52208e-07
1.52174e-07
1.52135e-07
1.52104e-07
1.52073e-07
1.5205e-07
1.52029e-07
1.52016e-07
1.52009e-07
1.52009e-07
1.52016e-07
1.52028e-07
1.52048e-07
1.52071e-07
1.52102e-07
1.52132e-07
1.52171e-07
1.52203e-07
1.52244e-07
1.52274e-07
1.52311e-07
1.52338e-07
1.52378e-07
1.52412e-07
1.52482e-07
1.52563e-07
1.52721e-07
1.52916e-07
1.53237e-07
1.53585e-07
1.54021e-07
1.54325e-07
1.54537e-07
1.54555e-07
1.51858e-07
1.51832e-07
1.51602e-07
1.51286e-07
1.5084e-07
1.50481e-07
1.50155e-07
1.49955e-07
1.49794e-07
1.4971e-07
1.49638e-07
1.49603e-07
1.4956e-07
1.49532e-07
1.49493e-07
1.49461e-07
1.49419e-07
1.49385e-07
1.49345e-07
1.49313e-07
1.49281e-07
1.49257e-07
1.49236e-07
1.49223e-07
1.49215e-07
1.49215e-07
1.49222e-07
1.49235e-07
1.49256e-07
1.49279e-07
1.49311e-07
1.49342e-07
1.49381e-07
1.49415e-07
1.49456e-07
1.49488e-07
1.49526e-07
1.49554e-07
1.49596e-07
1.49632e-07
1.49705e-07
1.49789e-07
1.49951e-07
1.50152e-07
1.5048e-07
1.50841e-07
1.5129e-07
1.51607e-07
1.51838e-07
1.51865e-07
1.49229e-07
1.49193e-07
1.48944e-07
1.48614e-07
1.48155e-07
1.47783e-07
1.47451e-07
1.47245e-07
1.4708e-07
1.46993e-07
1.46918e-07
1.4688e-07
1.46836e-07
1.46807e-07
1.46766e-07
1.46733e-07
1.4669e-07
1.46654e-07
1.46613e-07
1.46581e-07
1.46548e-07
1.46523e-07
1.46501e-07
1.46488e-07
1.46481e-07
1.4648e-07
1.46488e-07
1.46501e-07
1.46522e-07
1.46546e-07
1.46578e-07
1.4661e-07
1.4665e-07
1.46685e-07
1.46728e-07
1.4676e-07
1.468e-07
1.4683e-07
1.46874e-07
1.46912e-07
1.46987e-07
1.47075e-07
1.4724e-07
1.47448e-07
1.47782e-07
1.48156e-07
1.48617e-07
1.48949e-07
1.49199e-07
1.49236e-07
1.46662e-07
1.46616e-07
1.46346e-07
1.46002e-07
1.4553e-07
1.45145e-07
1.44807e-07
1.44594e-07
1.44426e-07
1.44335e-07
1.44258e-07
1.44218e-07
1.44172e-07
1.4414e-07
1.44098e-07
1.44064e-07
1.44019e-07
1.43982e-07
1.43941e-07
1.43907e-07
1.43873e-07
1.43848e-07
1.43826e-07
1.43812e-07
1.43805e-07
1.43804e-07
1.43812e-07
1.43825e-07
1.43847e-07
1.43872e-07
1.43905e-07
1.43937e-07
1.43978e-07
1.44015e-07
1.44058e-07
1.44093e-07
1.44134e-07
1.44165e-07
1.44211e-07
1.44251e-07
1.44328e-07
1.4442e-07
1.4459e-07
1.44804e-07
1.45144e-07
1.4553e-07
1.46005e-07
1.4635e-07
1.46622e-07
1.46669e-07
1.44156e-07
1.44098e-07
1.43807e-07
1.43449e-07
1.42965e-07
1.42567e-07
1.42222e-07
1.42004e-07
1.41831e-07
1.41736e-07
1.41657e-07
1.41614e-07
1.41567e-07
1.41533e-07
1.4149e-07
1.41453e-07
1.41408e-07
1.4137e-07
1.41327e-07
1.41293e-07
1.41258e-07
1.41232e-07
1.41209e-07
1.41196e-07
1.41188e-07
1.41187e-07
1.41195e-07
1.41209e-07
1.41231e-07
1.41256e-07
1.4129e-07
1.41324e-07
1.41366e-07
1.41403e-07
1.41448e-07
1.41484e-07
1.41527e-07
1.4156e-07
1.41607e-07
1.4165e-07
1.4173e-07
1.41825e-07
1.41999e-07
1.42219e-07
1.42566e-07
1.42965e-07
1.43452e-07
1.43812e-07
1.44105e-07
1.44163e-07
1.41712e-07
1.41641e-07
1.41329e-07
1.40956e-07
1.40459e-07
1.40047e-07
1.39698e-07
1.39473e-07
1.39297e-07
1.39198e-07
1.39116e-07
1.39071e-07
1.39022e-07
1.38986e-07
1.38941e-07
1.38903e-07
1.38855e-07
1.38816e-07
1.38773e-07
1.38737e-07
1.38702e-07
1.38675e-07
1.38652e-07
1.38637e-07
1.38629e-07
1.38629e-07
1.38637e-07
1.38651e-07
1.38674e-07
1.387e-07
1.38734e-07
1.38769e-07
1.38812e-07
1.38851e-07
1.38897e-07
1.38935e-07
1.38979e-07
1.39015e-07
1.39064e-07
1.39109e-07
1.39191e-07
1.39291e-07
1.39468e-07
1.39694e-07
1.40046e-07
1.4046e-07
1.40959e-07
1.41334e-07
1.41648e-07
1.41719e-07
1.39328e-07
1.39245e-07
1.38911e-07
1.38522e-07
1.38014e-07
1.37587e-07
1.37233e-07
1.37002e-07
1.36822e-07
1.36719e-07
1.36634e-07
1.36587e-07
1.36536e-07
1.36497e-07
1.36451e-07
1.36411e-07
1.36362e-07
1.36322e-07
1.36277e-07
1.3624e-07
1.36204e-07
1.36177e-07
1.36153e-07
1.36138e-07
1.3613e-07
1.3613e-07
1.36138e-07
1.36152e-07
1.36175e-07
1.36202e-07
1.36238e-07
1.36273e-07
1.36318e-07
1.36357e-07
1.36405e-07
1.36445e-07
1.36491e-07
1.36529e-07
1.3658e-07
1.36627e-07
1.36712e-07
1.36816e-07
1.36997e-07
1.37229e-07
1.37586e-07
1.38014e-07
1.38525e-07
1.38916e-07
1.39251e-07
1.39335e-07
1.37004e-07
1.36908e-07
1.36552e-07
1.36148e-07
1.35628e-07
1.35186e-07
1.34827e-07
1.34591e-07
1.34407e-07
1.343e-07
1.34213e-07
1.34163e-07
1.34109e-07
1.34068e-07
1.3402e-07
1.33978e-07
1.33928e-07
1.33886e-07
1.3384e-07
1.33803e-07
1.33765e-07
1.33737e-07
1.33713e-07
1.33698e-07
1.33689e-07
1.33689e-07
1.33697e-07
1.33712e-07
1.33736e-07
1.33763e-07
1.338e-07
1.33836e-07
1.33882e-07
1.33923e-07
1.33972e-07
1.34014e-07
1.34062e-07
1.34102e-07
1.34155e-07
1.34205e-07
1.34293e-07
1.34401e-07
1.34585e-07
1.34824e-07
1.35185e-07
1.35629e-07
1.36151e-07
1.36557e-07
1.36914e-07
1.37012e-07
1.34741e-07
1.34631e-07
1.34252e-07
1.33833e-07
1.33301e-07
1.32846e-07
1.32481e-07
1.3224e-07
1.32052e-07
1.31941e-07
1.31851e-07
1.31798e-07
1.31742e-07
1.31699e-07
1.31648e-07
1.31604e-07
1.31553e-07
1.3151e-07
1.31462e-07
1.31423e-07
1.31385e-07
1.31356e-07
1.31331e-07
1.31316e-07
1.31307e-07
1.31307e-07
1.31315e-07
1.3133e-07
1.31355e-07
1.31383e-07
1.3142e-07
1.31458e-07
1.31505e-07
1.31547e-07
1.31598e-07
1.31642e-07
1.31691e-07
1.31735e-07
1.3179e-07
1.31843e-07
1.31933e-07
1.32045e-07
1.32234e-07
1.32477e-07
1.32844e-07
1.33302e-07
1.33837e-07
1.34257e-07
1.34637e-07
1.34749e-07
1.32538e-07
1.32413e-07
1.32012e-07
1.31577e-07
1.31032e-07
1.30565e-07
1.30195e-07
1.29947e-07
1.29756e-07
1.2964e-07
1.29548e-07
1.29492e-07
1.29434e-07
1.29387e-07
1.29335e-07
1.29289e-07
1.29236e-07
1.29191e-07
1.29142e-07
1.29102e-07
1.29063e-07
1.29033e-07
1.29008e-07
1.28992e-07
1.28983e-07
1.28983e-07
1.28991e-07
1.29007e-07
1.29032e-07
1.29061e-07
1.29099e-07
1.29138e-07
1.29187e-07
1.29231e-07
1.29283e-07
1.29328e-07
1.2938e-07
1.29426e-07
1.29484e-07
1.2954e-07
1.29633e-07
1.29749e-07
1.29941e-07
1.30191e-07
1.30563e-07
1.31033e-07
1.31581e-07
1.32017e-07
1.32419e-07
1.32545e-07
1.30394e-07
1.30254e-07
1.29831e-07
1.29381e-07
1.28822e-07
1.28344e-07
1.27967e-07
1.27714e-07
1.27519e-07
1.27399e-07
1.27304e-07
1.27245e-07
1.27185e-07
1.27135e-07
1.27081e-07
1.27032e-07
1.26977e-07
1.26931e-07
1.2688e-07
1.2684e-07
1.26799e-07
1.26769e-07
1.26742e-07
1.26726e-07
1.26717e-07
1.26717e-07
1.26725e-07
1.26741e-07
1.26767e-07
1.26797e-07
1.26837e-07
1.26877e-07
1.26927e-07
1.26972e-07
1.27026e-07
1.27074e-07
1.27127e-07
1.27177e-07
1.27237e-07
1.27296e-07
1.27391e-07
1.27512e-07
1.27708e-07
1.27963e-07
1.28341e-07
1.28823e-07
1.29384e-07
1.29836e-07
1.3026e-07
1.30401e-07
1.28309e-07
1.28153e-07
1.27708e-07
1.27242e-07
1.2667e-07
1.26181e-07
1.25798e-07
1.2554e-07
1.25342e-07
1.25217e-07
1.25118e-07
1.25057e-07
1.24994e-07
1.24941e-07
1.24884e-07
1.24834e-07
1.24777e-07
1.24729e-07
1.24677e-07
1.24635e-07
1.24593e-07
1.24562e-07
1.24535e-07
1.24518e-07
1.24508e-07
1.24508e-07
1.24517e-07
1.24534e-07
1.2456e-07
1.24591e-07
1.24632e-07
1.24673e-07
1.24724e-07
1.24771e-07
1.24827e-07
1.24877e-07
1.24933e-07
1.24986e-07
1.25048e-07
1.2511e-07
1.25209e-07
1.25334e-07
1.25534e-07
1.25794e-07
1.26179e-07
1.26671e-07
1.27245e-07
1.27713e-07
1.2816e-07
1.28317e-07
1.26283e-07
1.26111e-07
1.25644e-07
1.25162e-07
1.24576e-07
1.24078e-07
1.23688e-07
1.23425e-07
1.23223e-07
1.23094e-07
1.22992e-07
1.22927e-07
1.22861e-07
1.22805e-07
1.22746e-07
1.22693e-07
1.22634e-07
1.22585e-07
1.22531e-07
1.22487e-07
1.22445e-07
1.22412e-07
1.22384e-07
1.22367e-07
1.22357e-07
1.22357e-07
1.22366e-07
1.22383e-07
1.2241e-07
1.22442e-07
1.22484e-07
1.22527e-07
1.2258e-07
1.22629e-07
1.22687e-07
1.22738e-07
1.22797e-07
1.22853e-07
1.22918e-07
1.22983e-07
1.23085e-07
1.23214e-07
1.23418e-07
1.23683e-07
1.24075e-07
1.24577e-07
1.25165e-07
1.25649e-07
1.26117e-07
1.2629e-07
1.24315e-07
1.24126e-07
1.23638e-07
1.2314e-07
1.2254e-07
1.22032e-07
1.21636e-07
1.21368e-07
1.21162e-07
1.21028e-07
1.20923e-07
1.20856e-07
1.20787e-07
1.20726e-07
1.20665e-07
1.2061e-07
1.20549e-07
1.20498e-07
1.20442e-07
1.20397e-07
1.20353e-07
1.2032e-07
1.20291e-07
1.20273e-07
1.20263e-07
1.20263e-07
1.20273e-07
1.2029e-07
1.20318e-07
1.20351e-07
1.20394e-07
1.20438e-07
1.20493e-07
1.20543e-07
1.20603e-07
1.20657e-07
1.20718e-07
1.20778e-07
1.20846e-07
1.20915e-07
1.2102e-07
1.21153e-07
1.2136e-07
1.21631e-07
1.22029e-07
1.22541e-07
1.23143e-07
1.23643e-07
1.24133e-07
1.24322e-07
1.22404e-07
1.22198e-07
1.21689e-07
1.21176e-07
1.20561e-07
1.20044e-07
1.19642e-07
1.19369e-07
1.19159e-07
1.19021e-07
1.18913e-07
1.18842e-07
1.18769e-07
1.18705e-07
1.18641e-07
1.18584e-07
1.18521e-07
1.18468e-07
1.1841e-07
1.18364e-07
1.18319e-07
1.18284e-07
1.18254e-07
1.18236e-07
1.18226e-07
1.18226e-07
1.18236e-07
1.18254e-07
1.18282e-07
1.18316e-07
1.1836e-07
1.18406e-07
1.18463e-07
1.18515e-07
1.18577e-07
1.18633e-07
1.18697e-07
1.1876e-07
1.18832e-07
1.18904e-07
1.19012e-07
1.1915e-07
1.19361e-07
1.19636e-07
1.20041e-07
1.20562e-07
1.21179e-07
1.21695e-07
1.22205e-07
1.22412e-07
1.20551e-07
1.20328e-07
1.19799e-07
1.19269e-07
1.1864e-07
1.18114e-07
1.17704e-07
1.17427e-07
1.17215e-07
1.17071e-07
1.16959e-07
1.16885e-07
1.16809e-07
1.16741e-07
1.16674e-07
1.16615e-07
1.16549e-07
1.16494e-07
1.16434e-07
1.16386e-07
1.1634e-07
1.16304e-07
1.16274e-07
1.16255e-07
1.16245e-07
1.16245e-07
1.16255e-07
1.16273e-07
1.16302e-07
1.16338e-07
1.16383e-07
1.1643e-07
1.16489e-07
1.16543e-07
1.16608e-07
1.16666e-07
1.16732e-07
1.168e-07
1.16875e-07
1.16951e-07
1.17061e-07
1.17205e-07
1.17419e-07
1.17699e-07
1.1811e-07
1.18641e-07
1.19273e-07
1.19804e-07
1.20335e-07
1.20558e-07
1.18755e-07
1.18514e-07
1.17965e-07
1.1742e-07
1.16776e-07
1.16241e-07
1.15824e-07
1.15543e-07
1.15327e-07
1.15178e-07
1.15063e-07
1.14985e-07
1.14905e-07
1.14833e-07
1.14763e-07
1.14702e-07
1.14634e-07
1.14577e-07
1.14515e-07
1.14465e-07
1.14417e-07
1.14381e-07
1.14349e-07
1.1433e-07
1.14319e-07
1.14319e-07
1.14329e-07
1.14348e-07
1.14379e-07
1.14415e-07
1.14462e-07
1.14511e-07
1.14572e-07
1.14628e-07
1.14695e-07
1.14754e-07
1.14824e-07
1.14895e-07
1.14975e-07
1.15055e-07
1.15168e-07
1.15317e-07
1.15535e-07
1.15818e-07
1.16237e-07
1.16776e-07
1.17424e-07
1.1797e-07
1.1852e-07
1.18762e-07
1.17015e-07
1.16756e-07
1.16188e-07
1.15628e-07
1.14967e-07
1.14424e-07
1.14e-07
1.13715e-07
1.13496e-07
1.13341e-07
1.13224e-07
1.13142e-07
1.13057e-07
1.12982e-07
1.12907e-07
1.12846e-07
1.12775e-07
1.12716e-07
1.12651e-07
1.12599e-07
1.1255e-07
1.12512e-07
1.1248e-07
1.1246e-07
1.12449e-07
1.12449e-07
1.12459e-07
1.12479e-07
1.1251e-07
1.12547e-07
1.12596e-07
1.12647e-07
1.1271e-07
1.12769e-07
1.12839e-07
1.12899e-07
1.12973e-07
1.13047e-07
1.13131e-07
1.13215e-07
1.13332e-07
1.13485e-07
1.13707e-07
1.13993e-07
1.1442e-07
1.14968e-07
1.15631e-07
1.16193e-07
1.16763e-07
1.17023e-07
1.15332e-07
1.15055e-07
1.14467e-07
1.13892e-07
1.13215e-07
1.12664e-07
1.12231e-07
1.11944e-07
1.11721e-07
1.11561e-07
1.11441e-07
1.11354e-07
1.11265e-07
1.11185e-07
1.11107e-07
1.11046e-07
1.10971e-07
1.10909e-07
1.10842e-07
1.10789e-07
1.10737e-07
1.10698e-07
1.10665e-07
1.10645e-07
1.10633e-07
1.10633e-07
1.10644e-07
1.10664e-07
1.10696e-07
1.10735e-07
1.10785e-07
1.10838e-07
1.10904e-07
1.10965e-07
1.11038e-07
1.11098e-07
1.11176e-07
1.11255e-07
1.11344e-07
1.11432e-07
1.11551e-07
1.1171e-07
1.11936e-07
1.12224e-07
1.12659e-07
1.13215e-07
1.13896e-07
1.14472e-07
1.15061e-07
1.1534e-07
1.13705e-07
1.13409e-07
1.12801e-07
1.12213e-07
1.11518e-07
1.10958e-07
1.1052e-07
1.10228e-07
1.10002e-07
1.09837e-07
1.09714e-07
1.09622e-07
1.09528e-07
1.09444e-07
1.09361e-07
1.093e-07
1.09222e-07
1.09158e-07
1.09088e-07
1.09032e-07
1.08979e-07
1.08938e-07
1.08904e-07
1.08883e-07
1.08872e-07
1.08871e-07
1.08882e-07
1.08903e-07
1.08936e-07
1.08976e-07
1.09028e-07
1.09083e-07
1.09152e-07
1.09215e-07
1.09293e-07
1.09352e-07
1.09434e-07
1.09517e-07
1.09611e-07
1.09705e-07
1.09826e-07
1.0999e-07
1.10221e-07
1.10512e-07
1.10953e-07
1.11518e-07
1.12217e-07
1.12807e-07
1.13416e-07
1.13713e-07
1.12134e-07
1.11819e-07
1.11189e-07
1.10588e-07
1.09878e-07
1.09306e-07
1.08864e-07
1.08568e-07
1.08338e-07
1.08168e-07
1.08042e-07
1.07945e-07
1.07846e-07
1.07757e-07
1.0767e-07
1.0761e-07
1.07527e-07
1.0746e-07
1.07387e-07
1.07329e-07
1.07274e-07
1.07232e-07
1.07197e-07
1.07175e-07
1.07163e-07
1.07163e-07
1.07174e-07
1.07196e-07
1.0723e-07
1.07272e-07
1.07325e-07
1.07383e-07
1.07454e-07
1.07521e-07
1.07602e-07
1.0766e-07
1.07747e-07
1.07835e-07
1.07934e-07
1.08033e-07
1.08156e-07
1.08325e-07
1.08563e-07
1.08856e-07
1.093e-07
1.09877e-07
1.10592e-07
1.11195e-07
1.11827e-07
1.12141e-07
1.10618e-07
1.10283e-07
1.09631e-07
1.09017e-07
1.08293e-07
1.07708e-07
1.07264e-07
1.06962e-07
1.06728e-07
1.06553e-07
1.06426e-07
1.06322e-07
1.06217e-07
1.06123e-07
1.06031e-07
1.05973e-07
1.05886e-07
1.05816e-07
1.0574e-07
1.0568e-07
1.05623e-07
1.05579e-07
1.05542e-07
1.0552e-07
1.05508e-07
1.05507e-07
1.05519e-07
1.05542e-07
1.05577e-07
1.0562e-07
1.05676e-07
1.05736e-07
1.0581e-07
1.05879e-07
1.05965e-07
1.06021e-07
1.06113e-07
1.06206e-07
1.0631e-07
1.06416e-07
1.06541e-07
1.06714e-07
1.0696e-07
1.07256e-07
1.07702e-07
1.08292e-07
1.0902e-07
1.09636e-07
1.10296e-07
1.10625e-07
1.09158e-07
1.08799e-07
1.08126e-07
1.07501e-07
1.06764e-07
1.06219e-07
1.05774e-07
1.05464e-07
1.05226e-07
1.05046e-07
1.04918e-07
1.04807e-07
1.04696e-07
1.04598e-07
1.04499e-07
1.0439e-07
1.04298e-07
1.04225e-07
1.04146e-07
1.04083e-07
1.04023e-07
1.03977e-07
1.0394e-07
1.03917e-07
1.03904e-07
1.03904e-07
1.03916e-07
1.03939e-07
1.03975e-07
1.0402e-07
1.04079e-07
1.04141e-07
1.04219e-07
1.04291e-07
1.04382e-07
1.0449e-07
1.04588e-07
1.04685e-07
1.04795e-07
1.04907e-07
1.05033e-07
1.05212e-07
1.05467e-07
1.05765e-07
1.06212e-07
1.06762e-07
1.07503e-07
1.08131e-07
1.08822e-07
1.09164e-07
1.07752e-07
1.0742e-07
1.06726e-07
1.06091e-07
1.05341e-07
1.04769e-07
1.04315e-07
1.03991e-07
1.03746e-07
1.03562e-07
1.03436e-07
1.03321e-07
1.0321e-07
1.03115e-07
1.03021e-07
1.02913e-07
1.02815e-07
1.02739e-07
1.02658e-07
1.02591e-07
1.02529e-07
1.02482e-07
1.02443e-07
1.02419e-07
1.02406e-07
1.02406e-07
1.02418e-07
1.02442e-07
1.0248e-07
1.02527e-07
1.02587e-07
1.02653e-07
1.02733e-07
1.02808e-07
1.02904e-07
1.03011e-07
1.03105e-07
1.03199e-07
1.03309e-07
1.03425e-07
1.03548e-07
1.03732e-07
1.04001e-07
1.04306e-07
1.04764e-07
1.05338e-07
1.06092e-07
1.06731e-07
1.07405e-07
1.07757e-07
1.06447e-07
1.06093e-07
1.05362e-07
1.04702e-07
1.03927e-07
1.03338e-07
1.02887e-07
1.02601e-07
1.02352e-07
1.02162e-07
1.01987e-07
1.01864e-07
1.01747e-07
1.01647e-07
1.01548e-07
1.01444e-07
1.01343e-07
1.01267e-07
1.01185e-07
1.01118e-07
1.01056e-07
1.01008e-07
1.00969e-07
1.00945e-07
1.00932e-07
1.00932e-07
1.00945e-07
1.00969e-07
1.01006e-07
1.01053e-07
1.01114e-07
1.0118e-07
1.01261e-07
1.01336e-07
1.01435e-07
1.01539e-07
1.01636e-07
1.01735e-07
1.01852e-07
1.01975e-07
1.02147e-07
1.02337e-07
1.02569e-07
1.02877e-07
1.03332e-07
1.03924e-07
1.04703e-07
1.05367e-07
1.06086e-07
1.06452e-07
1.05154e-07
1.04773e-07
1.04027e-07
1.03397e-07
1.0261e-07
1.02009e-07
1.0156e-07
1.01265e-07
1.01007e-07
1.00813e-07
1.00639e-07
1.00507e-07
1.00383e-07
1.0028e-07
1.00175e-07
1.0007e-07
9.99639e-08
9.98856e-08
9.97995e-08
9.97296e-08
9.96651e-08
9.96154e-08
9.95755e-08
9.95503e-08
9.95367e-08
9.95364e-08
9.95495e-08
9.95745e-08
9.96134e-08
9.96623e-08
9.97254e-08
9.97948e-08
9.98792e-08
9.99566e-08
1.00061e-07
1.00165e-07
1.00269e-07
1.00371e-07
1.00495e-07
1.00625e-07
1.00798e-07
1.00993e-07
1.01238e-07
1.01549e-07
1.02003e-07
1.02606e-07
1.03397e-07
1.04031e-07
1.04771e-07
1.05158e-07
1.03954e-07
1.0355e-07
1.02791e-07
1.02145e-07
1.01346e-07
1.00736e-07
1.00286e-07
9.99834e-08
9.97213e-08
9.95211e-08
9.93441e-08
9.92039e-08
9.90734e-08
9.89658e-08
9.88541e-08
9.87487e-08
9.86368e-08
9.85358e-08
9.845e-08
9.83808e-08
9.83172e-08
9.82684e-08
9.82292e-08
9.82045e-08
9.81912e-08
9.81909e-08
9.82037e-08
9.82282e-08
9.82663e-08
9.83144e-08
9.83765e-08
9.84452e-08
9.85294e-08
9.86293e-08
9.87391e-08
9.8844e-08
9.89547e-08
9.90609e-08
9.91906e-08
9.93283e-08
9.95052e-08
9.97066e-08
9.99606e-08
1.00274e-07
1.00729e-07
1.01342e-07
1.02144e-07
1.02794e-07
1.0355e-07
1.03957e-07
1.02807e-07
1.02381e-07
1.0161e-07
1.00945e-07
1.00122e-07
9.95011e-08
9.90496e-08
9.87424e-08
9.84808e-08
9.8282e-08
9.81016e-08
9.7953e-08
9.78155e-08
9.77051e-08
9.75857e-08
9.7467e-08
9.73565e-08
9.72567e-08
9.71674e-08
9.70953e-08
9.70294e-08
9.69786e-08
9.6938e-08
9.69122e-08
9.68983e-08
9.6898e-08
9.69113e-08
9.69369e-08
9.69765e-08
9.70265e-08
9.7091e-08
9.71627e-08
9.72502e-08
9.73491e-08
9.74574e-08
9.75753e-08
9.76936e-08
9.78027e-08
9.79393e-08
9.80846e-08
9.8265e-08
9.84664e-08
9.87229e-08
9.9038e-08
9.94949e-08
1.00118e-07
1.00945e-07
1.01611e-07
1.02381e-07
1.0281e-07
1.0169e-07
1.0124e-07
1.00446e-07
9.97576e-08
9.89242e-08
9.82913e-08
9.78402e-08
9.75258e-08
9.72593e-08
9.70555e-08
9.6874e-08
9.67221e-08
9.65834e-08
9.64787e-08
9.63616e-08
9.6248e-08
9.61319e-08
9.60287e-08
9.59359e-08
9.58608e-08
9.57924e-08
9.57397e-08
9.56975e-08
9.56706e-08
9.56562e-08
9.56558e-08
9.56697e-08
9.56965e-08
9.57376e-08
9.57895e-08
9.58565e-08
9.59311e-08
9.60221e-08
9.61243e-08
9.62382e-08
9.63513e-08
9.6467e-08
9.65705e-08
9.67082e-08
9.68566e-08
9.70374e-08
9.72443e-08
9.75082e-08
9.78278e-08
9.82851e-08
9.89196e-08
9.97553e-08
1.00447e-07
1.0124e-07
1.01693e-07
1.00608e-07
1.00138e-07
9.93224e-08
9.86194e-08
9.77812e-08
9.71717e-08
9.6721e-08
9.63994e-08
9.61275e-08
9.5918e-08
9.57316e-08
9.55723e-08
9.54262e-08
9.52801e-08
9.51549e-08
9.50404e-08
9.49226e-08
9.48196e-08
9.47266e-08
9.46523e-08
9.45848e-08
9.45332e-08
9.4492e-08
9.44658e-08
9.44517e-08
9.44514e-08
9.44649e-08
9.4491e-08
9.45311e-08
9.45819e-08
9.46479e-08
9.47218e-08
9.48129e-08
9.49149e-08
9.50304e-08
9.51442e-08
9.52678e-08
9.5413e-08
9.5558e-08
9.57137e-08
9.58986e-08
9.6112e-08
9.63828e-08
9.67084e-08
9.71649e-08
9.77756e-08
9.86148e-08
9.93232e-08
1.00137e-07
1.00611e-07
9.95783e-08
9.90891e-08
9.82842e-08
9.75698e-08
9.67279e-08
9.61038e-08
9.56529e-08
9.53242e-08
9.50467e-08
9.48314e-08
9.46393e-08
9.44728e-08
9.43193e-08
9.41688e-08
9.40358e-08
9.3919e-08
9.37956e-08
9.36894e-08
9.3593e-08
9.35159e-08
9.3446e-08
9.33925e-08
9.33499e-08
9.33226e-08
9.3308e-08
9.33077e-08
9.33217e-08
9.33489e-08
9.33904e-08
9.34431e-08
9.35115e-08
9.35881e-08
9.36827e-08
9.37877e-08
9.39089e-08
9.40248e-08
9.4156e-08
9.43056e-08
9.44581e-08
9.46213e-08
9.48105e-08
9.50306e-08
9.53081e-08
9.564e-08
9.60967e-08
9.67216e-08
9.75633e-08
9.82844e-08
9.90861e-08
9.95795e-08
9.86336e-08
9.81279e-08
9.72909e-08
9.65625e-08
9.57069e-08
9.50877e-08
9.46352e-08
9.42993e-08
9.4016e-08
9.37948e-08
9.35965e-08
9.34229e-08
9.32618e-08
9.31044e-08
9.29658e-08
9.28462e-08
9.27173e-08
9.26079e-08
9.2508e-08
9.2428e-08
9.23556e-08
9.23002e-08
9.22561e-08
9.22277e-08
9.22126e-08
9.22123e-08
9.22268e-08
9.2255e-08
9.22981e-08
9.23527e-08
9.24235e-08
9.25031e-08
9.26013e-08
9.27092e-08
9.2836e-08
9.29544e-08
9.30916e-08
9.32478e-08
9.34078e-08
9.35784e-08
9.37723e-08
9.39993e-08
9.42833e-08
9.4622e-08
9.50802e-08
9.57012e-08
9.65564e-08
9.72931e-08
9.81223e-08
9.86334e-08
9.77399e-08
9.72191e-08
9.63483e-08
9.56148e-08
9.47524e-08
9.41219e-08
9.36673e-08
9.33242e-08
9.30347e-08
9.28075e-08
9.26024e-08
9.24217e-08
9.22529e-08
9.20901e-08
9.1944e-08
9.18214e-08
9.1687e-08
9.15743e-08
9.14708e-08
9.13878e-08
9.13129e-08
9.12555e-08
9.12099e-08
9.11804e-08
9.11648e-08
9.11645e-08
9.11795e-08
9.12088e-08
9.12534e-08
9.13099e-08
9.13833e-08
9.14659e-08
9.15676e-08
9.16787e-08
9.1811e-08
9.19323e-08
9.20769e-08
9.22385e-08
9.24062e-08
9.25843e-08
9.27832e-08
9.30175e-08
9.3308e-08
9.36536e-08
9.41135e-08
9.47464e-08
9.56073e-08
9.6351e-08
9.72103e-08
9.77381e-08
9.68965e-08
9.63581e-08
9.54577e-08
9.47158e-08
9.38454e-08
9.32073e-08
9.27482e-08
9.23978e-08
9.21018e-08
9.18687e-08
9.16564e-08
9.14685e-08
9.12918e-08
9.11231e-08
9.09695e-08
9.08436e-08
9.07037e-08
9.05878e-08
9.04807e-08
9.03946e-08
9.0317e-08
9.02578e-08
9.02106e-08
9.01801e-08
9.01639e-08
9.01636e-08
9.01791e-08
9.02095e-08
9.02556e-08
9.03141e-08
9.039e-08
9.04758e-08
9.0581e-08
9.06953e-08
9.08331e-08
9.09575e-08
9.11094e-08
9.12771e-08
9.14526e-08
9.16383e-08
9.18422e-08
9.20842e-08
9.23815e-08
9.27341e-08
9.3198e-08
9.3838e-08
9.47079e-08
9.54608e-08
9.63461e-08
9.68929e-08
9.61029e-08
9.55442e-08
9.46181e-08
9.38638e-08
9.29881e-08
9.2341e-08
9.18768e-08
9.15196e-08
9.12164e-08
9.09774e-08
9.07574e-08
9.05623e-08
9.03775e-08
9.02024e-08
9.00414e-08
8.9912e-08
8.97667e-08
8.96474e-08
8.95368e-08
8.94474e-08
8.93672e-08
8.9306e-08
8.92573e-08
8.92258e-08
8.92091e-08
8.92088e-08
8.92249e-08
8.92563e-08
8.93038e-08
8.93643e-08
8.94427e-08
8.95317e-08
8.96405e-08
8.97584e-08
8.99013e-08
9.0029e-08
9.01883e-08
9.03624e-08
9.05461e-08
9.07393e-08
9.09485e-08
9.11985e-08
9.15028e-08
9.18624e-08
9.23308e-08
9.298e-08
9.38553e-08
9.46211e-08
9.55296e-08
9.60973e-08
8.86381e-08
8.85455e-08
8.84626e-08
8.83995e-08
8.83493e-08
8.83168e-08
8.82996e-08
8.82993e-08
8.83158e-08
8.83482e-08
8.83973e-08
8.84596e-08
8.85407e-08
8.86327e-08
8.87452e-08
8.88669e-08
8.90148e-08
8.91459e-08
8.93091e-08
8.94854e-08
8.96735e-08
8.98714e-08
9.00844e-08
9.03419e-08
9.06535e-08
9.10209e-08
9.14964e-08
9.21583e-08
9.30499e-08
9.38296e-08
9.47618e-08
9.53508e-08
8.75171e-08
8.75804e-08
8.76629e-08
8.77567e-08
8.78716e-08
8.79961e-08
8.81472e-08
8.82805e-08
8.84498e-08
8.86337e-08
8.88302e-08
8.90361e-08
8.92809e-08
8.95473e-08
8.98666e-08
9.02412e-08
9.07218e-08
9.13958e-08
9.22895e-08
9.30848e-08
9.40426e-08
9.46524e-08
8.85215e-08
8.8797e-08
8.91244e-08
8.95065e-08
8.99922e-08
9.06783e-08
9.15752e-08
9.23861e-08
9.3371e-08
9.40014e-08
)
;

boundaryField
{
    fuel
    {
        type            fixedValue;
        value           nonuniform 0();
    }
    wall
    {
        type            zeroGradient;
    }
    outlet
    {
        type            zeroGradient;
    }
    frontAndBack
    {
        type            empty;
    }
    procBoundary0to1
    {
        type            processor;
        value           nonuniform List<scalar> 
50
(
1.68923e-07
1.68933e-07
1.68807e-07
1.68564e-07
1.68192e-07
1.679e-07
1.67618e-07
1.67456e-07
1.6732e-07
1.67257e-07
1.67198e-07
1.67174e-07
1.67139e-07
1.67119e-07
1.67086e-07
1.6706e-07
1.67024e-07
1.66995e-07
1.6696e-07
1.66933e-07
1.66905e-07
1.66884e-07
1.66865e-07
1.66854e-07
1.66848e-07
1.66848e-07
1.66854e-07
1.66865e-07
1.66883e-07
1.66903e-07
1.66931e-07
1.66958e-07
1.66992e-07
1.6702e-07
1.67056e-07
1.67081e-07
1.67114e-07
1.67134e-07
1.67168e-07
1.67193e-07
1.67252e-07
1.67315e-07
1.67453e-07
1.67616e-07
1.679e-07
1.68193e-07
1.68567e-07
1.68811e-07
1.68938e-07
1.68929e-07
)
;
    }
    procBoundary0to2
    {
        type            processor;
        value           nonuniform List<scalar> 
53
(
9.53569e-08
9.47761e-08
9.38262e-08
9.30555e-08
9.21648e-08
9.15063e-08
9.10341e-08
9.06698e-08
9.03591e-08
9.01152e-08
8.98889e-08
8.96895e-08
8.95003e-08
8.93227e-08
8.91588e-08
8.90258e-08
8.88751e-08
8.87524e-08
8.87524e-08
8.77625e-08
8.7668e-08
8.75836e-08
8.75196e-08
8.74687e-08
8.74357e-08
8.74183e-08
8.7418e-08
8.74347e-08
8.74676e-08
8.74676e-08
8.66693e-08
8.67345e-08
8.68196e-08
8.69164e-08
8.70353e-08
8.7164e-08
8.73197e-08
8.74828e-08
8.76594e-08
8.78509e-08
8.80557e-08
8.82693e-08
8.82693e-08
8.78049e-08
8.80898e-08
8.84254e-08
8.88151e-08
8.93059e-08
9.00047e-08
9.09053e-08
9.17293e-08
9.27446e-08
9.33948e-08
)
;
    }
}


// ************************************************************************* //
