/*--------------------------------*- C++ -*----------------------------------*\
| =========                 |                                                 |
| \\      /  F ield         | OpenFOAM: The Open Source CFD Toolbox           |
|  \\    /   O peration     | Version:  dev                                   |
|   \\  /    A nd           | Web:      www.OpenFOAM.org                      |
|    \\/     M anipulation  |                                                 |
\*---------------------------------------------------------------------------*/
FoamFile
{
    version     2.0;
    format      ascii;
    class       volScalarField;
    location    "0.02";
    object      C4H;
}
// * * * * * * * * * * * * * * * * * * * * * * * * * * * * * * * * * * * * * //

dimensions      [0 0 0 0 0 0 0];

internalField   nonuniform List<scalar> 
2014
(
2.46684e-08
2.47483e-08
2.48076e-08
2.48191e-08
2.47723e-08
2.47193e-08
2.46579e-08
2.46177e-08
2.45844e-08
2.45696e-08
2.45597e-08
2.45608e-08
2.45632e-08
2.45709e-08
2.45773e-08
2.45858e-08
2.45919e-08
2.45985e-08
2.46028e-08
2.46071e-08
2.46095e-08
2.46118e-08
2.46129e-08
2.46139e-08
2.46141e-08
2.46141e-08
2.46137e-08
2.46127e-08
2.46115e-08
2.46092e-08
2.46068e-08
2.46026e-08
2.45983e-08
2.45918e-08
2.45858e-08
2.45775e-08
2.45712e-08
2.45636e-08
2.45614e-08
2.45604e-08
2.45705e-08
2.45855e-08
2.46189e-08
2.46593e-08
2.47207e-08
2.47738e-08
2.48205e-08
2.48089e-08
2.47495e-08
2.46694e-08
2.40894e-08
2.41643e-08
2.42155e-08
2.42211e-08
2.417e-08
2.41135e-08
2.40501e-08
2.40082e-08
2.3974e-08
2.39583e-08
2.39482e-08
2.39491e-08
2.39515e-08
2.39594e-08
2.3966e-08
2.39746e-08
2.39809e-08
2.39877e-08
2.39922e-08
2.39965e-08
2.3999e-08
2.40013e-08
2.40025e-08
2.40035e-08
2.40038e-08
2.40037e-08
2.40034e-08
2.40023e-08
2.40011e-08
2.39987e-08
2.39962e-08
2.39919e-08
2.39875e-08
2.39808e-08
2.39746e-08
2.39662e-08
2.39597e-08
2.3952e-08
2.39498e-08
2.3949e-08
2.39593e-08
2.3975e-08
2.40094e-08
2.40515e-08
2.4115e-08
2.41715e-08
2.42226e-08
2.42169e-08
2.41655e-08
2.40904e-08
2.35289e-08
2.35988e-08
2.3642e-08
2.36416e-08
2.3586e-08
2.35259e-08
2.34604e-08
2.34167e-08
2.33816e-08
2.33652e-08
2.33547e-08
2.33555e-08
2.33579e-08
2.33659e-08
2.33727e-08
2.33814e-08
2.33879e-08
2.33948e-08
2.33995e-08
2.34039e-08
2.34065e-08
2.34089e-08
2.34101e-08
2.34111e-08
2.34114e-08
2.34114e-08
2.3411e-08
2.34099e-08
2.34086e-08
2.34062e-08
2.34036e-08
2.33992e-08
2.33946e-08
2.33878e-08
2.33814e-08
2.33728e-08
2.33662e-08
2.33584e-08
2.33561e-08
2.33555e-08
2.33661e-08
2.33827e-08
2.3418e-08
2.34618e-08
2.35275e-08
2.35876e-08
2.36432e-08
2.36435e-08
2.36e-08
2.353e-08
2.29854e-08
2.30501e-08
2.30854e-08
2.30791e-08
2.3019e-08
2.29551e-08
2.28874e-08
2.2842e-08
2.28058e-08
2.27887e-08
2.27779e-08
2.27784e-08
2.2781e-08
2.2789e-08
2.2796e-08
2.28049e-08
2.28116e-08
2.28186e-08
2.28234e-08
2.28279e-08
2.28306e-08
2.28331e-08
2.28344e-08
2.28354e-08
2.28357e-08
2.28356e-08
2.28352e-08
2.28341e-08
2.28328e-08
2.28303e-08
2.28276e-08
2.28231e-08
2.28184e-08
2.28114e-08
2.28049e-08
2.27961e-08
2.27893e-08
2.27815e-08
2.27791e-08
2.27787e-08
2.27896e-08
2.2807e-08
2.28433e-08
2.28889e-08
2.29567e-08
2.30206e-08
2.30808e-08
2.3087e-08
2.30515e-08
2.29866e-08
2.24575e-08
2.25172e-08
2.25445e-08
2.25322e-08
2.24675e-08
2.23997e-08
2.23299e-08
2.22827e-08
2.22455e-08
2.22276e-08
2.22165e-08
2.22168e-08
2.22194e-08
2.22275e-08
2.22346e-08
2.22437e-08
2.22506e-08
2.22578e-08
2.22627e-08
2.22674e-08
2.22701e-08
2.22727e-08
2.2274e-08
2.2275e-08
2.22754e-08
2.22753e-08
2.22749e-08
2.22737e-08
2.22724e-08
2.22698e-08
2.22671e-08
2.22624e-08
2.22576e-08
2.22505e-08
2.22437e-08
2.22348e-08
2.22278e-08
2.22199e-08
2.22176e-08
2.22173e-08
2.22286e-08
2.22467e-08
2.2284e-08
2.23314e-08
2.24014e-08
2.24692e-08
2.2534e-08
2.25462e-08
2.25186e-08
2.24587e-08
2.19442e-08
2.19987e-08
2.20182e-08
2.19999e-08
2.19305e-08
2.18588e-08
2.17868e-08
2.17378e-08
2.16996e-08
2.16808e-08
2.16694e-08
2.16696e-08
2.16722e-08
2.16804e-08
2.16877e-08
2.16969e-08
2.1704e-08
2.17113e-08
2.17164e-08
2.17212e-08
2.1724e-08
2.17266e-08
2.1728e-08
2.17291e-08
2.17294e-08
2.17293e-08
2.17289e-08
2.17277e-08
2.17263e-08
2.17237e-08
2.17208e-08
2.17161e-08
2.17111e-08
2.17038e-08
2.16969e-08
2.16878e-08
2.16807e-08
2.16727e-08
2.16703e-08
2.16703e-08
2.16819e-08
2.17008e-08
2.17392e-08
2.17884e-08
2.18605e-08
2.19322e-08
2.20018e-08
2.20199e-08
2.20002e-08
2.19455e-08
2.14445e-08
2.14938e-08
2.15055e-08
2.14812e-08
2.1407e-08
2.13313e-08
2.12571e-08
2.12064e-08
2.11672e-08
2.11476e-08
2.11358e-08
2.11357e-08
2.11384e-08
2.11466e-08
2.11541e-08
2.11635e-08
2.11707e-08
2.11783e-08
2.11835e-08
2.11884e-08
2.11913e-08
2.1194e-08
2.11954e-08
2.11965e-08
2.11969e-08
2.11968e-08
2.11963e-08
2.11951e-08
2.11937e-08
2.1191e-08
2.1188e-08
2.11832e-08
2.1178e-08
2.11706e-08
2.11635e-08
2.11543e-08
2.1147e-08
2.1139e-08
2.11365e-08
2.11367e-08
2.11486e-08
2.11684e-08
2.12078e-08
2.12588e-08
2.13331e-08
2.14088e-08
2.14831e-08
2.15073e-08
2.14953e-08
2.14458e-08
2.09574e-08
2.10016e-08
2.10056e-08
2.09752e-08
2.08963e-08
2.08163e-08
2.07401e-08
2.06876e-08
2.06473e-08
2.06269e-08
2.06147e-08
2.06145e-08
2.06172e-08
2.06255e-08
2.06331e-08
2.06427e-08
2.06501e-08
2.06578e-08
2.06632e-08
2.06682e-08
2.06712e-08
2.06739e-08
2.06754e-08
2.06765e-08
2.06769e-08
2.06768e-08
2.06763e-08
2.06751e-08
2.06736e-08
2.06708e-08
2.06678e-08
2.06629e-08
2.06575e-08
2.065e-08
2.06427e-08
2.06333e-08
2.06259e-08
2.06178e-08
2.06153e-08
2.06157e-08
2.0628e-08
2.06486e-08
2.0689e-08
2.07418e-08
2.08182e-08
2.08982e-08
2.09772e-08
2.10075e-08
2.10032e-08
2.09588e-08
2.04823e-08
2.05213e-08
2.05176e-08
2.04812e-08
2.03975e-08
2.03132e-08
2.02349e-08
2.01806e-08
2.01393e-08
2.0118e-08
2.01056e-08
2.01051e-08
2.01078e-08
2.01162e-08
2.0124e-08
2.01337e-08
2.01413e-08
2.01492e-08
2.01548e-08
2.01598e-08
2.01629e-08
2.01657e-08
2.01672e-08
2.01684e-08
2.01688e-08
2.01687e-08
2.01682e-08
2.01669e-08
2.01654e-08
2.01626e-08
2.01594e-08
2.01544e-08
2.01489e-08
2.01412e-08
2.01337e-08
2.01242e-08
2.01166e-08
2.01084e-08
2.0106e-08
2.01066e-08
2.01192e-08
2.01406e-08
2.01821e-08
2.02366e-08
2.03152e-08
2.03994e-08
2.04833e-08
2.05196e-08
2.0523e-08
2.04838e-08
2.00185e-08
2.00523e-08
2.00409e-08
1.99985e-08
1.991e-08
1.98213e-08
1.97409e-08
1.96849e-08
1.96425e-08
1.96204e-08
1.96075e-08
1.96069e-08
1.96096e-08
1.9618e-08
1.9626e-08
1.96358e-08
1.96437e-08
1.96517e-08
1.96575e-08
1.96626e-08
1.96658e-08
1.96687e-08
1.96702e-08
1.96714e-08
1.96718e-08
1.96717e-08
1.96712e-08
1.96699e-08
1.96683e-08
1.96654e-08
1.96622e-08
1.96571e-08
1.96514e-08
1.96435e-08
1.96358e-08
1.96262e-08
1.96184e-08
1.96102e-08
1.96078e-08
1.96086e-08
1.96216e-08
1.96438e-08
1.96864e-08
1.97427e-08
1.98233e-08
1.9912e-08
2.00006e-08
2.0043e-08
2.0054e-08
2.002e-08
1.95653e-08
1.95938e-08
1.95749e-08
1.95263e-08
1.94332e-08
1.93398e-08
1.92574e-08
1.91997e-08
1.91562e-08
1.91333e-08
1.91201e-08
1.91193e-08
1.91219e-08
1.91305e-08
1.91386e-08
1.91485e-08
1.91566e-08
1.91648e-08
1.91707e-08
1.9176e-08
1.91793e-08
1.91822e-08
1.91838e-08
1.9185e-08
1.91854e-08
1.91853e-08
1.91848e-08
1.91835e-08
1.91818e-08
1.91789e-08
1.91756e-08
1.91704e-08
1.91645e-08
1.91564e-08
1.91486e-08
1.91388e-08
1.91309e-08
1.91226e-08
1.91202e-08
1.91212e-08
1.91345e-08
1.91576e-08
1.92013e-08
1.92593e-08
1.93419e-08
1.94352e-08
1.95286e-08
1.95771e-08
1.95957e-08
1.95669e-08
1.91221e-08
1.91454e-08
1.91189e-08
1.90643e-08
1.89663e-08
1.88684e-08
1.8784e-08
1.87245e-08
1.868e-08
1.86562e-08
1.86426e-08
1.86417e-08
1.86443e-08
1.86529e-08
1.86611e-08
1.86712e-08
1.86795e-08
1.86879e-08
1.8694e-08
1.86993e-08
1.87027e-08
1.87057e-08
1.87073e-08
1.87086e-08
1.8709e-08
1.87089e-08
1.87084e-08
1.8707e-08
1.87053e-08
1.87023e-08
1.86989e-08
1.86936e-08
1.86876e-08
1.86794e-08
1.86713e-08
1.86613e-08
1.86533e-08
1.8645e-08
1.86426e-08
1.86438e-08
1.86575e-08
1.86814e-08
1.87261e-08
1.87859e-08
1.88705e-08
1.89685e-08
1.90666e-08
1.91212e-08
1.91474e-08
1.91237e-08
1.86884e-08
1.87065e-08
1.86725e-08
1.86117e-08
1.85087e-08
1.84066e-08
1.83199e-08
1.82588e-08
1.82132e-08
1.81886e-08
1.81747e-08
1.81735e-08
1.81761e-08
1.81847e-08
1.81931e-08
1.82034e-08
1.82119e-08
1.82204e-08
1.82267e-08
1.82321e-08
1.82356e-08
1.82386e-08
1.82404e-08
1.82416e-08
1.82421e-08
1.8242e-08
1.82414e-08
1.824e-08
1.82382e-08
1.82352e-08
1.82317e-08
1.82263e-08
1.82201e-08
1.82117e-08
1.82034e-08
1.81933e-08
1.81852e-08
1.81768e-08
1.81745e-08
1.81758e-08
1.81899e-08
1.82147e-08
1.82604e-08
1.83219e-08
1.84086e-08
1.85111e-08
1.86142e-08
1.86748e-08
1.87085e-08
1.86901e-08
1.82637e-08
1.82765e-08
1.8235e-08
1.81682e-08
1.80599e-08
1.79539e-08
1.78649e-08
1.7802e-08
1.77554e-08
1.773e-08
1.77157e-08
1.77143e-08
1.77168e-08
1.77256e-08
1.77341e-08
1.77446e-08
1.77532e-08
1.77619e-08
1.77684e-08
1.77739e-08
1.77775e-08
1.77806e-08
1.77824e-08
1.77836e-08
1.77841e-08
1.7784e-08
1.77834e-08
1.7782e-08
1.77802e-08
1.77771e-08
1.77735e-08
1.7768e-08
1.77616e-08
1.77531e-08
1.77446e-08
1.77343e-08
1.7726e-08
1.77176e-08
1.77153e-08
1.77169e-08
1.77313e-08
1.77569e-08
1.78037e-08
1.78669e-08
1.7956e-08
1.80625e-08
1.81708e-08
1.82375e-08
1.82786e-08
1.82654e-08
1.78474e-08
1.7855e-08
1.78061e-08
1.77332e-08
1.76196e-08
1.75097e-08
1.74183e-08
1.73538e-08
1.73062e-08
1.72799e-08
1.72652e-08
1.72637e-08
1.72661e-08
1.72749e-08
1.72835e-08
1.72942e-08
1.73031e-08
1.7312e-08
1.73186e-08
1.73242e-08
1.73279e-08
1.7331e-08
1.73329e-08
1.73342e-08
1.73346e-08
1.73346e-08
1.7334e-08
1.73325e-08
1.73306e-08
1.73275e-08
1.73238e-08
1.73182e-08
1.73117e-08
1.7303e-08
1.72943e-08
1.72838e-08
1.72754e-08
1.72669e-08
1.72647e-08
1.72665e-08
1.72812e-08
1.73077e-08
1.73556e-08
1.74204e-08
1.75119e-08
1.76222e-08
1.77359e-08
1.78087e-08
1.78572e-08
1.78492e-08
1.74392e-08
1.74415e-08
1.73853e-08
1.73063e-08
1.71873e-08
1.70736e-08
1.69798e-08
1.69137e-08
1.6865e-08
1.68379e-08
1.68228e-08
1.68211e-08
1.68235e-08
1.68323e-08
1.68411e-08
1.6852e-08
1.68611e-08
1.68702e-08
1.68769e-08
1.68827e-08
1.68864e-08
1.68896e-08
1.68915e-08
1.68928e-08
1.68933e-08
1.68932e-08
1.68926e-08
1.68911e-08
1.68892e-08
1.68859e-08
1.68822e-08
1.68765e-08
1.68698e-08
1.6861e-08
1.68521e-08
1.68413e-08
1.68328e-08
1.68243e-08
1.68222e-08
1.68242e-08
1.68392e-08
1.68666e-08
1.69155e-08
1.69819e-08
1.70759e-08
1.719e-08
1.73091e-08
1.73879e-08
1.74438e-08
1.74411e-08
1.70385e-08
1.70356e-08
1.69721e-08
1.6887e-08
1.67625e-08
1.66452e-08
1.65489e-08
1.64812e-08
1.64316e-08
1.64035e-08
1.63881e-08
1.63863e-08
1.63886e-08
1.63974e-08
1.64063e-08
1.64175e-08
1.64268e-08
1.6436e-08
1.6443e-08
1.64487e-08
1.64526e-08
1.64558e-08
1.64577e-08
1.64591e-08
1.64596e-08
1.64595e-08
1.64589e-08
1.64574e-08
1.64554e-08
1.64521e-08
1.64483e-08
1.64425e-08
1.64357e-08
1.64267e-08
1.64175e-08
1.64065e-08
1.63979e-08
1.63894e-08
1.63874e-08
1.63895e-08
1.64049e-08
1.64331e-08
1.6483e-08
1.65511e-08
1.66475e-08
1.67654e-08
1.68899e-08
1.69749e-08
1.7038e-08
1.70405e-08
1.66451e-08
1.66369e-08
1.65662e-08
1.6475e-08
1.63449e-08
1.6224e-08
1.61252e-08
1.6056e-08
1.60054e-08
1.59765e-08
1.59607e-08
1.59587e-08
1.59609e-08
1.59698e-08
1.59788e-08
1.59902e-08
1.59998e-08
1.60092e-08
1.60163e-08
1.60221e-08
1.6026e-08
1.60293e-08
1.60313e-08
1.60327e-08
1.60332e-08
1.60331e-08
1.60324e-08
1.60309e-08
1.60289e-08
1.60255e-08
1.60216e-08
1.60158e-08
1.60089e-08
1.59997e-08
1.59903e-08
1.5979e-08
1.59703e-08
1.59617e-08
1.59599e-08
1.59622e-08
1.59779e-08
1.60069e-08
1.60579e-08
1.61274e-08
1.62264e-08
1.63479e-08
1.64781e-08
1.65691e-08
1.66393e-08
1.66471e-08
1.62584e-08
1.62449e-08
1.61671e-08
1.60699e-08
1.59341e-08
1.58097e-08
1.57083e-08
1.56377e-08
1.55861e-08
1.55563e-08
1.55403e-08
1.55381e-08
1.55402e-08
1.5549e-08
1.55582e-08
1.557e-08
1.55798e-08
1.55893e-08
1.55965e-08
1.56024e-08
1.56064e-08
1.56097e-08
1.56117e-08
1.56132e-08
1.56137e-08
1.56136e-08
1.56129e-08
1.56113e-08
1.56093e-08
1.56059e-08
1.56019e-08
1.55961e-08
1.5589e-08
1.55796e-08
1.55701e-08
1.55584e-08
1.55496e-08
1.5541e-08
1.55393e-08
1.55419e-08
1.55578e-08
1.55877e-08
1.56396e-08
1.57106e-08
1.58121e-08
1.59372e-08
1.60731e-08
1.61701e-08
1.62474e-08
1.62605e-08
1.58781e-08
1.58593e-08
1.57745e-08
1.56714e-08
1.55297e-08
1.54018e-08
1.52979e-08
1.52259e-08
1.51734e-08
1.51428e-08
1.51264e-08
1.51241e-08
1.5126e-08
1.51348e-08
1.51441e-08
1.51563e-08
1.51663e-08
1.5176e-08
1.51833e-08
1.51893e-08
1.51933e-08
1.51967e-08
1.51987e-08
1.52002e-08
1.52007e-08
1.52006e-08
1.52e-08
1.51983e-08
1.51962e-08
1.51928e-08
1.51888e-08
1.51829e-08
1.51757e-08
1.51662e-08
1.51565e-08
1.51444e-08
1.51354e-08
1.51269e-08
1.51253e-08
1.51281e-08
1.51442e-08
1.51749e-08
1.52279e-08
1.53002e-08
1.54044e-08
1.5533e-08
1.56747e-08
1.57776e-08
1.58618e-08
1.58803e-08
1.55038e-08
1.54797e-08
1.5388e-08
1.5279e-08
1.51314e-08
1.50001e-08
1.48935e-08
1.48203e-08
1.47669e-08
1.47354e-08
1.47187e-08
1.47163e-08
1.4718e-08
1.47268e-08
1.47362e-08
1.4749e-08
1.47592e-08
1.4769e-08
1.47763e-08
1.47823e-08
1.47864e-08
1.47898e-08
1.47919e-08
1.47934e-08
1.4794e-08
1.47939e-08
1.47932e-08
1.47915e-08
1.47893e-08
1.47859e-08
1.47818e-08
1.47759e-08
1.47686e-08
1.4759e-08
1.47492e-08
1.47365e-08
1.47273e-08
1.47189e-08
1.47175e-08
1.47206e-08
1.47368e-08
1.47684e-08
1.48224e-08
1.48959e-08
1.50027e-08
1.51348e-08
1.52825e-08
1.53912e-08
1.54823e-08
1.55061e-08
1.51353e-08
1.51057e-08
1.50072e-08
1.48925e-08
1.47388e-08
1.46041e-08
1.44948e-08
1.44205e-08
1.43662e-08
1.43338e-08
1.4317e-08
1.43144e-08
1.43159e-08
1.43246e-08
1.43342e-08
1.43476e-08
1.43579e-08
1.43678e-08
1.43753e-08
1.43813e-08
1.43854e-08
1.43888e-08
1.4391e-08
1.43925e-08
1.43931e-08
1.4393e-08
1.43923e-08
1.43906e-08
1.43884e-08
1.43849e-08
1.43808e-08
1.43748e-08
1.43675e-08
1.43577e-08
1.43478e-08
1.43345e-08
1.43252e-08
1.43169e-08
1.43156e-08
1.4319e-08
1.43353e-08
1.43677e-08
1.44228e-08
1.44973e-08
1.46067e-08
1.47423e-08
1.48961e-08
1.50105e-08
1.51085e-08
1.51377e-08
1.47722e-08
1.47372e-08
1.46317e-08
1.45116e-08
1.43516e-08
1.42135e-08
1.41014e-08
1.40262e-08
1.3971e-08
1.39379e-08
1.39209e-08
1.3918e-08
1.39194e-08
1.39279e-08
1.39376e-08
1.3952e-08
1.39623e-08
1.39723e-08
1.39798e-08
1.39858e-08
1.39899e-08
1.39934e-08
1.39956e-08
1.39972e-08
1.39977e-08
1.39976e-08
1.39969e-08
1.39952e-08
1.39929e-08
1.39894e-08
1.39853e-08
1.39793e-08
1.3972e-08
1.39621e-08
1.39521e-08
1.3938e-08
1.39285e-08
1.39204e-08
1.39193e-08
1.3923e-08
1.39393e-08
1.39726e-08
1.40287e-08
1.4104e-08
1.42162e-08
1.43551e-08
1.45153e-08
1.46352e-08
1.474e-08
1.47747e-08
1.44142e-08
1.43736e-08
1.42611e-08
1.41358e-08
1.39693e-08
1.38276e-08
1.37134e-08
1.3637e-08
1.3581e-08
1.35471e-08
1.35302e-08
1.35269e-08
1.35281e-08
1.35365e-08
1.35463e-08
1.35616e-08
1.35719e-08
1.35821e-08
1.35896e-08
1.35956e-08
1.35997e-08
1.36032e-08
1.36054e-08
1.3607e-08
1.36076e-08
1.36075e-08
1.36067e-08
1.3605e-08
1.36027e-08
1.35992e-08
1.3595e-08
1.35891e-08
1.35818e-08
1.35718e-08
1.35618e-08
1.35466e-08
1.35371e-08
1.35291e-08
1.35283e-08
1.35324e-08
1.35486e-08
1.35826e-08
1.364e-08
1.3716e-08
1.38304e-08
1.39729e-08
1.41398e-08
1.42648e-08
1.43768e-08
1.44167e-08
1.40609e-08
1.40149e-08
1.38949e-08
1.37645e-08
1.35921e-08
1.34462e-08
1.33304e-08
1.32527e-08
1.31958e-08
1.31613e-08
1.31445e-08
1.31408e-08
1.31417e-08
1.31499e-08
1.31597e-08
1.31764e-08
1.31866e-08
1.31969e-08
1.32043e-08
1.32103e-08
1.32144e-08
1.32179e-08
1.32201e-08
1.32217e-08
1.32223e-08
1.32222e-08
1.32214e-08
1.32197e-08
1.32174e-08
1.32138e-08
1.32097e-08
1.32038e-08
1.31965e-08
1.31864e-08
1.31765e-08
1.31601e-08
1.31506e-08
1.31427e-08
1.31422e-08
1.31467e-08
1.31627e-08
1.31974e-08
1.32563e-08
1.33331e-08
1.34491e-08
1.35957e-08
1.37685e-08
1.38989e-08
1.40186e-08
1.40635e-08
1.37121e-08
1.36603e-08
1.35328e-08
1.33974e-08
1.32195e-08
1.3069e-08
1.29521e-08
1.28727e-08
1.28151e-08
1.27799e-08
1.27635e-08
1.27592e-08
1.27597e-08
1.27679e-08
1.27775e-08
1.27959e-08
1.28059e-08
1.28163e-08
1.28237e-08
1.28296e-08
1.28337e-08
1.28372e-08
1.28394e-08
1.2841e-08
1.28416e-08
1.28415e-08
1.28407e-08
1.28389e-08
1.28366e-08
1.28331e-08
1.2829e-08
1.28232e-08
1.2816e-08
1.28057e-08
1.2796e-08
1.27779e-08
1.27686e-08
1.27608e-08
1.27606e-08
1.27657e-08
1.27813e-08
1.28166e-08
1.28773e-08
1.29548e-08
1.30719e-08
1.32232e-08
1.34014e-08
1.35368e-08
1.36653e-08
1.37148e-08
1.33674e-08
1.33092e-08
1.31744e-08
1.30341e-08
1.28512e-08
1.27087e-08
1.2591e-08
1.25097e-08
1.24512e-08
1.24156e-08
1.23997e-08
1.23947e-08
1.23949e-08
1.2403e-08
1.24123e-08
1.24197e-08
1.24295e-08
1.244e-08
1.24473e-08
1.24531e-08
1.24572e-08
1.24606e-08
1.24628e-08
1.24644e-08
1.2465e-08
1.24649e-08
1.24641e-08
1.24623e-08
1.24601e-08
1.24566e-08
1.24526e-08
1.24468e-08
1.24397e-08
1.24293e-08
1.24198e-08
1.24127e-08
1.24037e-08
1.23959e-08
1.23961e-08
1.24017e-08
1.24168e-08
1.24528e-08
1.25155e-08
1.25938e-08
1.27117e-08
1.28549e-08
1.30381e-08
1.31784e-08
1.33166e-08
1.337e-08
1.30263e-08
1.29738e-08
1.2832e-08
1.26872e-08
1.24993e-08
1.23491e-08
1.22285e-08
1.21436e-08
1.20838e-08
1.20477e-08
1.20334e-08
1.20286e-08
1.20298e-08
1.20397e-08
1.20513e-08
1.20603e-08
1.20698e-08
1.20805e-08
1.20877e-08
1.20934e-08
1.20974e-08
1.21007e-08
1.21029e-08
1.21044e-08
1.2105e-08
1.21049e-08
1.21041e-08
1.21024e-08
1.21002e-08
1.20968e-08
1.20929e-08
1.20872e-08
1.20802e-08
1.20696e-08
1.20604e-08
1.20519e-08
1.20407e-08
1.2031e-08
1.20301e-08
1.20354e-08
1.20489e-08
1.20856e-08
1.21515e-08
1.22315e-08
1.23526e-08
1.25029e-08
1.26912e-08
1.2836e-08
1.29722e-08
1.30289e-08
1.27004e-08
1.26418e-08
1.24887e-08
1.23357e-08
1.214e-08
1.19844e-08
1.18642e-08
1.17887e-08
1.17283e-08
1.16915e-08
1.16661e-08
1.16604e-08
1.16613e-08
1.16714e-08
1.1683e-08
1.1694e-08
1.17039e-08
1.17157e-08
1.17233e-08
1.17295e-08
1.17339e-08
1.17376e-08
1.174e-08
1.17418e-08
1.17424e-08
1.17423e-08
1.17414e-08
1.17395e-08
1.17371e-08
1.17333e-08
1.1729e-08
1.17228e-08
1.17154e-08
1.17038e-08
1.16942e-08
1.16836e-08
1.16723e-08
1.16625e-08
1.1662e-08
1.16678e-08
1.16926e-08
1.17299e-08
1.17864e-08
1.18672e-08
1.1988e-08
1.21438e-08
1.23398e-08
1.24928e-08
1.26423e-08
1.27029e-08
1.23671e-08
1.23016e-08
1.21422e-08
1.19955e-08
1.17953e-08
1.16356e-08
1.15154e-08
1.14377e-08
1.13757e-08
1.13387e-08
1.13145e-08
1.1308e-08
1.13086e-08
1.1319e-08
1.13303e-08
1.13423e-08
1.13521e-08
1.13641e-08
1.13716e-08
1.13777e-08
1.1382e-08
1.13856e-08
1.13879e-08
1.13896e-08
1.13903e-08
1.13901e-08
1.13893e-08
1.13874e-08
1.13851e-08
1.13814e-08
1.13772e-08
1.13711e-08
1.13638e-08
1.1352e-08
1.13425e-08
1.13309e-08
1.132e-08
1.13098e-08
1.13096e-08
1.13161e-08
1.13398e-08
1.13777e-08
1.14369e-08
1.15184e-08
1.16393e-08
1.17991e-08
1.19994e-08
1.21462e-08
1.23034e-08
1.23697e-08
1.20471e-08
1.19758e-08
1.18108e-08
1.16583e-08
1.14539e-08
1.12912e-08
1.11704e-08
1.10909e-08
1.10282e-08
1.09905e-08
1.09668e-08
1.09596e-08
1.09598e-08
1.09707e-08
1.09815e-08
1.09946e-08
1.10041e-08
1.10113e-08
1.10196e-08
1.10266e-08
1.10317e-08
1.10359e-08
1.10387e-08
1.10407e-08
1.10415e-08
1.10414e-08
1.10404e-08
1.10382e-08
1.10354e-08
1.10311e-08
1.10261e-08
1.10191e-08
1.10111e-08
1.1004e-08
1.09948e-08
1.09821e-08
1.09717e-08
1.09611e-08
1.09613e-08
1.09682e-08
1.09915e-08
1.10302e-08
1.10913e-08
1.11734e-08
1.1295e-08
1.14578e-08
1.16623e-08
1.18147e-08
1.19781e-08
1.20497e-08
1.17302e-08
1.16533e-08
1.1483e-08
1.13245e-08
1.11125e-08
1.09462e-08
1.08246e-08
1.07443e-08
1.06825e-08
1.06464e-08
1.06229e-08
1.06152e-08
1.06149e-08
1.06265e-08
1.06366e-08
1.06474e-08
1.06587e-08
1.06673e-08
1.06755e-08
1.06824e-08
1.06874e-08
1.06915e-08
1.06942e-08
1.06962e-08
1.0697e-08
1.06968e-08
1.06958e-08
1.06937e-08
1.0691e-08
1.06868e-08
1.06819e-08
1.0675e-08
1.06671e-08
1.06587e-08
1.06477e-08
1.06372e-08
1.06275e-08
1.06163e-08
1.06168e-08
1.06242e-08
1.06471e-08
1.06847e-08
1.07457e-08
1.08278e-08
1.09503e-08
1.11166e-08
1.13286e-08
1.14865e-08
1.16558e-08
1.17327e-08
1.14097e-08
1.13268e-08
1.11478e-08
1.09824e-08
1.07668e-08
1.05966e-08
1.04748e-08
1.03933e-08
1.03308e-08
1.02946e-08
1.02723e-08
1.02654e-08
1.02666e-08
1.02813e-08
1.02936e-08
1.03071e-08
1.03183e-08
1.0327e-08
1.03351e-08
1.03419e-08
1.03468e-08
1.03508e-08
1.03535e-08
1.03553e-08
1.03561e-08
1.0356e-08
1.0355e-08
1.0353e-08
1.03503e-08
1.03462e-08
1.03414e-08
1.03346e-08
1.03269e-08
1.03183e-08
1.03074e-08
1.02944e-08
1.02824e-08
1.02681e-08
1.02672e-08
1.02737e-08
1.02953e-08
1.03332e-08
1.03953e-08
1.04782e-08
1.06009e-08
1.07708e-08
1.09862e-08
1.11518e-08
1.13295e-08
1.14125e-08
1.10868e-08
1.09989e-08
1.08123e-08
1.06421e-08
1.04245e-08
1.02611e-08
1.01393e-08
1.00565e-08
9.99352e-09
9.95706e-09
9.93481e-09
9.92771e-09
9.92848e-09
9.9331e-09
9.94477e-09
9.95921e-09
9.97158e-09
9.98151e-09
9.99052e-09
9.99825e-09
1.0004e-08
1.00088e-08
1.00121e-08
1.00144e-08
1.00153e-08
1.00152e-08
1.0014e-08
1.00116e-08
1.00083e-08
1.00035e-08
9.99775e-09
9.99005e-09
9.98139e-09
9.97167e-09
9.95964e-09
9.94558e-09
9.93418e-09
9.93002e-09
9.92958e-09
9.93632e-09
9.95751e-09
9.99596e-09
1.0059e-08
1.01429e-08
1.02655e-08
1.04285e-08
1.06455e-08
1.08165e-08
1.10014e-08
1.10895e-08
1.07659e-08
1.06734e-08
1.04894e-08
1.03155e-08
1.00964e-08
9.92867e-09
9.80679e-09
9.72292e-09
9.65944e-09
9.62281e-09
9.60057e-09
9.59334e-09
9.59379e-09
9.59902e-09
9.6101e-09
9.62518e-09
9.63766e-09
9.64771e-09
9.65672e-09
9.66438e-09
9.67008e-09
9.67484e-09
9.67804e-09
9.68025e-09
9.6812e-09
9.68108e-09
9.67993e-09
9.67752e-09
9.67437e-09
9.66956e-09
9.6639e-09
9.65626e-09
9.64766e-09
9.63784e-09
9.6257e-09
9.61098e-09
9.60012e-09
9.5954e-09
9.59529e-09
9.60223e-09
9.62305e-09
9.66199e-09
9.72577e-09
9.81057e-09
9.93319e-09
1.01003e-08
1.03186e-08
1.04936e-08
1.06755e-08
1.07684e-08
1.04575e-08
1.03612e-08
1.01674e-08
9.98861e-09
9.76515e-09
9.59942e-09
9.47726e-09
9.39248e-09
9.32854e-09
9.29184e-09
9.26954e-09
9.26227e-09
9.26243e-09
9.2675e-09
9.2787e-09
9.29438e-09
9.307e-09
9.31716e-09
9.32616e-09
9.33377e-09
9.33942e-09
9.34411e-09
9.34725e-09
9.3494e-09
9.35031e-09
9.3502e-09
9.34907e-09
9.34672e-09
9.34368e-09
9.33893e-09
9.33332e-09
9.32573e-09
9.31719e-09
9.30729e-09
9.29501e-09
9.27967e-09
9.2688e-09
9.26414e-09
9.26433e-09
9.2714e-09
9.29185e-09
9.33122e-09
9.39561e-09
9.48122e-09
9.60406e-09
9.76938e-09
9.99208e-09
1.01723e-08
1.03627e-08
1.04597e-08
1.01513e-08
1.00515e-08
9.84792e-09
9.66725e-09
9.44184e-09
9.27311e-09
9.15066e-09
9.06515e-09
9.00077e-09
8.96412e-09
8.94171e-09
8.93448e-09
8.93436e-09
8.93979e-09
8.95053e-09
8.96679e-09
8.97956e-09
8.9898e-09
8.99882e-09
9.00637e-09
9.01197e-09
9.0166e-09
9.01968e-09
9.02178e-09
9.02266e-09
9.02254e-09
9.02144e-09
9.01915e-09
9.01622e-09
9.01153e-09
9.00598e-09
8.99844e-09
8.98995e-09
8.97999e-09
8.96756e-09
8.95162e-09
8.94117e-09
8.9362e-09
8.93668e-09
8.94381e-09
8.96385e-09
9.00363e-09
9.06851e-09
9.1548e-09
9.27773e-09
9.44606e-09
9.67041e-09
9.853e-09
1.00521e-08
1.0153e-08
9.84707e-09
9.74338e-09
9.5313e-09
9.34825e-09
9.12068e-09
8.95018e-09
8.82701e-09
8.74091e-09
8.67614e-09
8.63964e-09
8.61709e-09
8.60994e-09
8.60956e-09
8.61522e-09
8.62552e-09
8.64238e-09
8.65531e-09
8.66561e-09
8.67468e-09
8.68218e-09
8.68773e-09
8.69229e-09
8.69532e-09
8.69736e-09
8.69822e-09
8.6981e-09
8.69702e-09
8.69478e-09
8.692e-09
8.68736e-09
8.68185e-09
8.67436e-09
8.66596e-09
8.65594e-09
8.64335e-09
8.6268e-09
8.61674e-09
8.61158e-09
8.61232e-09
8.61947e-09
8.63904e-09
8.67921e-09
8.74449e-09
8.8313e-09
8.95472e-09
9.12454e-09
9.3512e-09
9.53635e-09
9.74298e-09
9.84802e-09
9.54514e-09
9.43716e-09
9.21761e-09
9.03152e-09
8.80271e-09
8.63014e-09
8.5063e-09
8.4199e-09
8.35466e-09
8.31845e-09
8.29572e-09
8.28868e-09
8.28801e-09
8.29379e-09
8.30365e-09
8.32114e-09
8.33423e-09
8.34456e-09
8.35374e-09
8.36119e-09
8.36669e-09
8.37119e-09
8.37416e-09
8.37616e-09
8.377e-09
8.37688e-09
8.37582e-09
8.37361e-09
8.37102e-09
8.36644e-09
8.36098e-09
8.35354e-09
8.34522e-09
8.33515e-09
8.3224e-09
8.30522e-09
8.29554e-09
8.2903e-09
8.29132e-09
8.29846e-09
8.31746e-09
8.35801e-09
8.42361e-09
8.51074e-09
8.63451e-09
8.80604e-09
9.03381e-09
9.22216e-09
9.43527e-09
9.54477e-09
8.03605e-09
8.04343e-09
8.04889e-09
8.05333e-09
8.05623e-09
8.05819e-09
8.059e-09
8.05888e-09
8.05784e-09
8.05567e-09
8.05337e-09
8.04884e-09
8.04342e-09
8.03605e-09
8.02782e-09
8.01772e-09
8.00482e-09
7.98693e-09
7.97641e-09
7.96951e-09
7.96941e-09
7.97537e-09
7.99298e-09
8.03348e-09
8.09929e-09
8.18672e-09
8.3116e-09
8.48594e-09
8.71848e-09
8.91e-09
9.1294e-09
9.24318e-09
7.73273e-09
7.72792e-09
7.72211e-09
7.71432e-09
7.70569e-09
7.6951e-09
7.68141e-09
7.66215e-09
7.65153e-09
7.64468e-09
7.64485e-09
7.65069e-09
7.67747e-09
7.71834e-09
7.78434e-09
7.87174e-09
7.99665e-09
8.17293e-09
8.40524e-09
8.59985e-09
8.82557e-09
8.94331e-09
7.36527e-09
7.40642e-09
7.47257e-09
7.55979e-09
7.68455e-09
7.86251e-09
8.09474e-09
8.29196e-09
8.52407e-09
8.6454e-09
)
;

boundaryField
{
    fuel
    {
        type            fixedValue;
        value           nonuniform 0();
    }
    wall
    {
        type            zeroGradient;
    }
    outlet
    {
        type            zeroGradient;
    }
    frontAndBack
    {
        type            empty;
    }
    procBoundary0to1
    {
        type            processor;
        value           nonuniform List<scalar> 
50
(
2.52668e-08
2.53517e-08
2.54191e-08
2.54365e-08
2.5394e-08
2.53445e-08
2.52853e-08
2.52468e-08
2.52146e-08
2.52005e-08
2.51909e-08
2.51922e-08
2.51945e-08
2.52022e-08
2.52084e-08
2.52167e-08
2.52226e-08
2.52291e-08
2.52333e-08
2.52374e-08
2.52397e-08
2.5242e-08
2.5243e-08
2.5244e-08
2.52442e-08
2.52442e-08
2.52438e-08
2.52428e-08
2.52417e-08
2.52394e-08
2.52371e-08
2.5233e-08
2.52289e-08
2.52225e-08
2.52167e-08
2.52086e-08
2.52025e-08
2.5195e-08
2.51928e-08
2.51916e-08
2.52014e-08
2.52156e-08
2.5248e-08
2.52866e-08
2.53459e-08
2.53954e-08
2.54379e-08
2.54204e-08
2.53528e-08
2.52678e-08
)
;
    }
    procBoundary0to2
    {
        type            processor;
        value           nonuniform List<scalar> 
53
(
9.24376e-09
9.13112e-09
8.90523e-09
8.7149e-09
8.48174e-09
8.30682e-09
8.18175e-09
8.09533e-09
8.0299e-09
7.9948e-09
7.97265e-09
7.96693e-09
7.96742e-09
7.97483e-09
7.98578e-09
8.00392e-09
8.01722e-09
8.02755e-09
8.02755e-09
7.71493e-09
7.72279e-09
7.72867e-09
7.73339e-09
7.73648e-09
7.73859e-09
7.73946e-09
7.73934e-09
7.73824e-09
7.73593e-09
7.73593e-09
7.41217e-09
7.40741e-09
7.40162e-09
7.39384e-09
7.3853e-09
7.37474e-09
7.36079e-09
7.3506e-09
7.34034e-09
7.33358e-09
7.33394e-09
7.33945e-09
7.33945e-09
7.05709e-09
7.09826e-09
7.16433e-09
7.25104e-09
7.37519e-09
7.55425e-09
7.78596e-09
7.98438e-09
8.22299e-09
8.34771e-09
)
;
    }
}


// ************************************************************************* //
