/*--------------------------------*- C++ -*----------------------------------*\
| =========                 |                                                 |
| \\      /  F ield         | OpenFOAM: The Open Source CFD Toolbox           |
|  \\    /   O peration     | Version:  dev                                   |
|   \\  /    A nd           | Web:      www.OpenFOAM.org                      |
|    \\/     M anipulation  |                                                 |
\*---------------------------------------------------------------------------*/
FoamFile
{
    version     2.0;
    format      ascii;
    class       volScalarField;
    location    "0.02";
    object      C6H5OH;
}
// * * * * * * * * * * * * * * * * * * * * * * * * * * * * * * * * * * * * * //

dimensions      [0 0 0 0 0 0 0];

internalField   nonuniform List<scalar> 
250
(
1.37186e-08
1.41192e-08
1.47213e-08
1.59013e-08
1.75736e-08
1.99508e-08
2.3643e-08
2.985e-08
4.67916e-08
7.87172e-08
1.30173e-08
1.34412e-08
1.41671e-08
1.54288e-08
1.72616e-08
1.9856e-08
2.38241e-08
3.03836e-08
4.63168e-08
7.83549e-08
7.91774e-08
4.68279e-08
3.1446e-08
2.43721e-08
2.00554e-08
1.71635e-08
1.51231e-08
1.37508e-08
1.29472e-08
1.24907e-08
1.24886e-08
1.29353e-08
1.37255e-08
1.50765e-08
1.70938e-08
1.99583e-08
2.42562e-08
3.12966e-08
4.66258e-08
7.90541e-08
8.08591e-08
4.78867e-08
3.27867e-08
2.50987e-08
2.03648e-08
1.71462e-08
1.48932e-08
1.33993e-08
1.25406e-08
1.20602e-08
1.20576e-08
1.25277e-08
1.33727e-08
1.48431e-08
1.70713e-08
2.02589e-08
2.49688e-08
3.26205e-08
4.76753e-08
8.06829e-08
8.33723e-08
4.96703e-08
3.45721e-08
2.61363e-08
2.08763e-08
1.72765e-08
1.47778e-08
1.31614e-08
1.22255e-08
1.17041e-08
1.17013e-08
1.22116e-08
1.31327e-08
1.47246e-08
1.71958e-08
2.07629e-08
2.59889e-08
3.43864e-08
4.94429e-08
8.31441e-08
8.66455e-08
5.21653e-08
3.68294e-08
2.75056e-08
2.16001e-08
1.7555e-08
1.4773e-08
1.30169e-08
1.19961e-08
1.14433e-08
1.14402e-08
1.1981e-08
1.29859e-08
1.47163e-08
1.74684e-08
2.14777e-08
2.73404e-08
3.66218e-08
5.19172e-08
8.63685e-08
9.06477e-08
5.56826e-08
3.96964e-08
2.9258e-08
2.2543e-08
1.7986e-08
1.48745e-08
1.29593e-08
1.18464e-08
1.12584e-08
1.12549e-08
1.18303e-08
1.29262e-08
1.48142e-08
1.78903e-08
2.24101e-08
2.90663e-08
3.94579e-08
5.54047e-08
9.03238e-08
9.54037e-08
6.01139e-08
4.32254e-08
3.13614e-08
2.37106e-08
1.85634e-08
1.50796e-08
1.29831e-08
1.17706e-08
1.11435e-08
1.11395e-08
1.17535e-08
1.29481e-08
1.50153e-08
1.84606e-08
2.35662e-08
3.11479e-08
4.29574e-08
5.98036e-08
9.50349e-08
1.01039e-07
6.49998e-08
4.71619e-08
3.40335e-08
2.51147e-08
1.92993e-08
1.53897e-08
1.30859e-08
1.17579e-08
1.10925e-08
1.10881e-08
1.17399e-08
1.30477e-08
1.53211e-08
1.91883e-08
2.49588e-08
3.37885e-08
4.68634e-08
6.46573e-08
1.00627e-07
1.07848e-07
7.08767e-08
5.18205e-08
3.70532e-08
2.67837e-08
2.0216e-08
1.58164e-08
1.32756e-08
1.1824e-08
1.1114e-08
1.11092e-08
1.1805e-08
1.32351e-08
1.57434e-08
2.0096e-08
2.66192e-08
3.67767e-08
5.14869e-08
7.04959e-08
1.07391e-07
1.16324e-07
7.80249e-08
5.73982e-08
4.06018e-08
2.88752e-08
2.13605e-08
1.63885e-08
1.35736e-08
1.19801e-08
1.12201e-08
1.12148e-08
1.196e-08
1.35308e-08
1.63107e-08
2.12307e-08
2.87081e-08
4.02822e-08
5.70223e-08
7.75961e-08
1.15816e-07
1.27182e-07
8.68844e-08
6.41883e-08
4.48757e-08
3.14901e-08
2.28107e-08
1.71577e-08
1.40191e-08
1.22563e-08
1.14396e-08
1.14338e-08
1.2235e-08
1.39736e-08
1.70746e-08
2.26696e-08
3.12891e-08
4.45362e-08
6.3762e-08
8.63943e-08
1.26613e-07
1.41289e-07
9.80031e-08
7.25047e-08
5.01315e-08
3.47088e-08
2.46609e-08
1.81932e-08
1.46656e-08
1.26978e-08
1.18151e-08
1.18086e-08
1.26751e-08
1.46167e-08
1.81041e-08
2.45073e-08
3.44794e-08
4.97599e-08
7.20206e-08
9.74373e-08
1.40646e-07
1.2378e-08
1.33225e-08
1.55025e-08
1.94509e-08
2.6796e-08
3.83325e-08
5.60548e-08
8.19445e-08
1.11199e-07
1.58741e-07
)
;

boundaryField
{
    fuel
    {
        type            fixedValue;
        value           nonuniform 0();
    }
    wall
    {
        type            zeroGradient;
    }
    outlet
    {
        type            zeroGradient;
    }
    frontAndBack
    {
        type            empty;
    }
    procBoundary0to1
    {
        type            processor;
        value           nonuniform List<scalar> 
21
(
1.59496e-07
1.1187e-07
8.25027e-08
5.64681e-08
3.85914e-08
2.69635e-08
1.95467e-08
1.55552e-08
1.33469e-08
1.23853e-08
1.23853e-08
1.31343e-08
1.417e-08
1.66034e-08
2.10736e-08
2.94397e-08
4.26755e-08
6.32352e-08
9.33185e-08
1.27844e-07
1.81462e-07
)
;
    }
    procBoundary0to2
    {
        type            processor;
        value           nonuniform List<scalar> 
12
(
1.37204e-08
7.84214e-08
4.65106e-08
3.05161e-08
2.39311e-08
1.99397e-08
1.73268e-08
1.54705e-08
1.41905e-08
1.34523e-08
1.30191e-08
1.30191e-08
)
;
    }
    procBoundary0to3
    {
        type            processor;
        value           nonuniform List<scalar> 10(1.45309e-08 1.49101e-08 1.54668e-08 1.65673e-08 1.80308e-08 2.02303e-08 2.3697e-08 2.9666e-08 4.81103e-08 8.03142e-08);
    }
}


// ************************************************************************* //
