/*--------------------------------*- C++ -*----------------------------------*\
| =========                 |                                                 |
| \\      /  F ield         | OpenFOAM: The Open Source CFD Toolbox           |
|  \\    /   O peration     | Version:  dev                                   |
|   \\  /    A nd           | Web:      www.OpenFOAM.org                      |
|    \\/     M anipulation  |                                                 |
\*---------------------------------------------------------------------------*/
FoamFile
{
    version     2.0;
    format      ascii;
    class       volScalarField;
    location    "0.02";
    object      CH2OH;
}
// * * * * * * * * * * * * * * * * * * * * * * * * * * * * * * * * * * * * * //

dimensions      [0 0 0 0 0 0 0];

internalField   nonuniform List<scalar> 
250
(
1.30685e-08
1.30346e-08
1.26341e-08
1.2429e-08
1.19712e-08
1.16931e-08
1.13693e-08
1.04589e-08
9.06525e-09
5.46618e-09
1.19478e-08
1.19169e-08
1.16047e-08
1.13955e-08
1.09236e-08
1.0626e-08
1.03064e-08
9.45708e-09
8.45197e-09
5.47923e-09
5.30173e-09
7.72066e-09
8.40116e-09
9.19007e-09
9.50862e-09
9.82225e-09
1.03111e-08
1.05302e-08
1.08558e-08
1.08848e-08
1.08854e-08
1.08564e-08
1.05341e-08
1.03152e-08
9.83737e-09
9.52783e-09
9.21799e-09
8.42646e-09
7.74238e-09
5.31012e-09
4.95988e-09
6.93368e-09
7.35841e-09
8.0902e-09
8.39211e-09
8.70916e-09
9.20102e-09
9.37903e-09
9.75339e-09
9.78384e-09
9.78463e-09
9.75389e-09
9.38453e-09
9.20458e-09
8.72548e-09
8.41153e-09
8.11689e-09
7.38324e-09
6.95612e-09
4.97245e-09
4.48798e-09
6.09893e-09
6.32331e-09
6.9938e-09
7.27484e-09
7.58846e-09
8.07332e-09
8.24953e-09
8.62293e-09
8.61374e-09
8.61497e-09
8.623e-09
8.25495e-09
8.07759e-09
7.60533e-09
7.29418e-09
7.01989e-09
6.34801e-09
6.12103e-09
4.50026e-09
3.92552e-09
5.24934e-09
5.32186e-09
5.92368e-09
6.17814e-09
6.48278e-09
6.94761e-09
7.11785e-09
7.48406e-09
7.47238e-09
7.47352e-09
7.48375e-09
7.12367e-09
6.95252e-09
6.49724e-09
6.19683e-09
5.94769e-09
5.34565e-09
5.27056e-09
3.93682e-09
3.31676e-09
4.32938e-09
4.33822e-09
4.8846e-09
5.12619e-09
5.40175e-09
5.84794e-09
6.00743e-09
6.36151e-09
6.34513e-09
6.34615e-09
6.36101e-09
6.01426e-09
5.85309e-09
5.41858e-09
5.14372e-09
4.91016e-09
4.36248e-09
4.35009e-09
3.32731e-09
2.70802e-09
3.43606e-09
3.40855e-09
3.93878e-09
4.14498e-09
4.39703e-09
4.80155e-09
4.94473e-09
5.28416e-09
5.26105e-09
5.2619e-09
5.28363e-09
4.95166e-09
4.80654e-09
4.41044e-09
4.16088e-09
3.96116e-09
3.43057e-09
3.45517e-09
2.71797e-09
2.13958e-09
2.69864e-09
2.6351e-09
3.03311e-09
3.25842e-09
3.48038e-09
3.836e-09
3.95807e-09
4.22282e-09
4.22843e-09
4.22972e-09
4.22267e-09
3.96003e-09
3.8405e-09
3.49209e-09
3.27235e-09
3.05405e-09
2.6543e-09
2.71552e-09
2.14875e-09
1.63627e-09
2.05377e-09
1.97521e-09
2.29648e-09
2.48608e-09
2.67369e-09
2.97583e-09
3.07746e-09
3.3123e-09
3.3137e-09
3.31481e-09
3.31222e-09
3.07896e-09
2.97975e-09
2.68376e-09
2.49773e-09
2.3142e-09
1.99122e-09
2.06806e-09
1.64434e-09
1.21214e-09
1.51324e-09
1.4346e-09
1.6856e-09
1.83774e-09
1.99124e-09
2.23867e-09
2.32175e-09
2.52054e-09
2.51865e-09
2.51958e-09
2.52052e-09
2.32371e-09
2.24194e-09
1.9995e-09
1.84697e-09
1.70003e-09
1.44734e-09
1.5248e-09
1.21886e-09
8.7107e-10
1.07966e-09
1.01002e-09
1.19918e-09
1.31596e-09
1.43747e-09
1.63258e-09
1.69896e-09
1.85964e-09
1.85595e-09
1.8567e-09
1.85964e-09
1.70091e-09
1.63518e-09
1.44395e-09
1.32325e-09
1.21012e-09
1.01969e-09
1.0886e-09
8.76385e-10
6.0869e-10
7.46769e-10
6.9029e-10
8.27301e-10
9.14032e-10
1.00687e-09
1.15524e-09
1.20688e-09
1.33135e-09
1.32724e-09
1.32777e-09
1.33131e-09
1.20851e-09
1.15722e-09
1.01184e-09
9.1958e-10
8.35447e-10
6.9743e-10
7.53571e-10
6.12885e-10
9.23883e-10
9.27046e-10
8.35552e-10
7.966e-10
6.89693e-10
6.21406e-10
5.60604e-10
4.64429e-10
5.07252e-10
4.19153e-10
)
;

boundaryField
{
    fuel
    {
        type            fixedValue;
        value           nonuniform 0();
    }
    wall
    {
        type            zeroGradient;
    }
    outlet
    {
        type            zeroGradient;
    }
    frontAndBack
    {
        type            empty;
    }
    procBoundary0to1
    {
        type            processor;
        value           nonuniform List<scalar> 
21
(
4.16037e-10
5.02378e-10
4.59454e-10
5.54901e-10
6.1744e-10
6.86129e-10
7.95155e-10
8.34326e-10
9.2705e-10
9.23469e-10
9.23469e-10
6.28136e-10
6.30439e-10
5.64519e-10
5.35529e-10
4.59189e-10
4.10089e-10
3.67154e-10
3.02783e-10
3.34274e-10
2.8417e-10
)
;
    }
    procBoundary0to2
    {
        type            processor;
        value           nonuniform List<scalar> 
12
(
1.30674e-08
5.46663e-09
8.42796e-09
9.43299e-09
1.02798e-08
1.06087e-08
1.09109e-08
1.13878e-08
1.16004e-08
1.19161e-08
1.19471e-08
1.19471e-08
)
;
    }
    procBoundary0to3
    {
        type            processor;
        value           nonuniform List<scalar> 10(1.41201e-08 1.40828e-08 1.37186e-08 1.35184e-08 1.29749e-08 1.27214e-08 1.24023e-08 1.14226e-08 9.55885e-09 5.25635e-09);
    }
}


// ************************************************************************* //
