/*--------------------------------*- C++ -*----------------------------------*\
| =========                 |                                                 |
| \\      /  F ield         | OpenFOAM: The Open Source CFD Toolbox           |
|  \\    /   O peration     | Version:  dev                                   |
|   \\  /    A nd           | Web:      www.OpenFOAM.org                      |
|    \\/     M anipulation  |                                                 |
\*---------------------------------------------------------------------------*/
FoamFile
{
    version     2.0;
    format      ascii;
    class       volScalarField;
    location    "0.02";
    object      CH3OH;
}
// * * * * * * * * * * * * * * * * * * * * * * * * * * * * * * * * * * * * * //

dimensions      [0 0 0 0 0 0 0];

internalField   nonuniform List<scalar> 
250
(
1.62267e-07
1.62989e-07
1.62477e-07
1.63855e-07
1.64694e-07
1.67154e-07
1.7067e-07
1.7278e-07
1.77685e-07
1.63107e-07
1.55913e-07
1.56688e-07
1.56728e-07
1.58141e-07
1.58939e-07
1.61351e-07
1.6484e-07
1.66869e-07
1.72862e-07
1.62508e-07
1.60306e-07
1.67347e-07
1.60438e-07
1.58546e-07
1.55169e-07
1.52812e-07
1.52106e-07
1.50691e-07
1.50697e-07
1.49866e-07
1.49871e-07
1.5068e-07
1.50666e-07
1.52045e-07
1.52786e-07
1.55148e-07
1.58581e-07
1.60466e-07
1.6737e-07
1.60289e-07
1.56314e-07
1.6108e-07
1.53447e-07
1.51772e-07
1.48469e-07
1.46182e-07
1.45607e-07
1.43943e-07
1.44307e-07
1.4347e-07
1.4347e-07
1.44285e-07
1.43924e-07
1.45542e-07
1.46173e-07
1.48464e-07
1.51823e-07
1.53501e-07
1.6114e-07
1.56374e-07
1.50767e-07
1.54079e-07
1.45855e-07
1.44441e-07
1.4122e-07
1.39044e-07
1.38625e-07
1.36991e-07
1.3747e-07
1.36363e-07
1.36365e-07
1.37444e-07
1.36973e-07
1.38567e-07
1.39049e-07
1.41231e-07
1.44508e-07
1.45932e-07
1.54158e-07
1.50828e-07
1.43729e-07
1.4636e-07
1.3766e-07
1.36519e-07
1.33382e-07
1.31371e-07
1.31118e-07
1.29535e-07
1.30154e-07
1.29014e-07
1.29016e-07
1.30125e-07
1.29523e-07
1.31068e-07
1.31374e-07
1.33408e-07
1.36593e-07
1.37758e-07
1.46454e-07
1.4378e-07
1.35351e-07
1.36953e-07
1.28451e-07
1.27819e-07
1.24944e-07
1.23032e-07
1.23067e-07
1.21554e-07
1.22354e-07
1.21168e-07
1.2117e-07
1.22323e-07
1.21555e-07
1.23026e-07
1.2307e-07
1.24985e-07
1.27938e-07
1.28592e-07
1.37073e-07
1.35401e-07
1.25904e-07
1.26399e-07
1.1825e-07
1.1871e-07
1.15948e-07
1.14265e-07
1.14496e-07
1.13053e-07
1.14096e-07
1.12851e-07
1.12852e-07
1.14065e-07
1.13065e-07
1.14462e-07
1.14296e-07
1.16003e-07
1.18838e-07
1.18416e-07
1.26543e-07
1.25963e-07
1.15742e-07
1.16259e-07
1.08207e-07
1.08381e-07
1.06481e-07
1.05043e-07
1.05475e-07
1.04092e-07
1.0488e-07
1.03924e-07
1.0393e-07
1.04854e-07
1.0406e-07
1.05448e-07
1.05083e-07
1.0655e-07
1.08546e-07
1.08391e-07
1.16418e-07
1.15814e-07
1.05169e-07
1.05729e-07
9.78803e-08
9.83345e-08
9.66941e-08
9.55055e-08
9.61315e-08
9.48397e-08
9.58099e-08
9.48553e-08
9.48617e-08
9.57854e-08
9.48116e-08
9.61111e-08
9.55574e-08
9.67742e-08
9.85135e-08
9.80759e-08
1.05899e-07
1.05254e-07
9.45029e-08
9.50366e-08
8.7491e-08
8.81563e-08
8.67891e-08
8.58395e-08
8.66371e-08
8.54747e-08
8.6577e-08
8.56332e-08
8.56399e-08
8.65548e-08
8.54624e-08
8.66235e-08
8.58998e-08
8.68785e-08
8.83415e-08
8.76913e-08
9.52104e-08
9.4595e-08
8.40649e-08
8.44418e-08
7.72839e-08
7.80797e-08
7.69741e-08
7.62558e-08
7.7195e-08
7.61871e-08
7.73706e-08
7.64541e-08
7.64612e-08
7.7351e-08
7.61863e-08
7.71877e-08
7.63221e-08
7.70666e-08
7.82672e-08
7.7482e-08
8.46146e-08
8.41596e-08
7.42144e-08
7.42197e-08
6.75011e-08
6.83316e-08
6.74631e-08
6.69646e-08
6.80152e-08
6.71725e-08
6.8395e-08
6.75245e-08
6.75341e-08
6.83797e-08
6.71802e-08
6.80144e-08
6.70381e-08
6.75581e-08
6.85206e-08
6.76929e-08
7.43897e-08
7.43079e-08
5.90478e-08
5.98317e-08
5.86278e-08
5.92951e-08
5.82372e-08
5.85561e-08
5.93099e-08
5.85646e-08
6.48531e-08
6.55561e-08
)
;

boundaryField
{
    fuel
    {
        type            fixedValue;
        value           nonuniform 0();
    }
    wall
    {
        type            zeroGradient;
    }
    outlet
    {
        type            zeroGradient;
    }
    frontAndBack
    {
        type            empty;
    }
    procBoundary0to1
    {
        type            processor;
        value           nonuniform List<scalar> 
21
(
6.54675e-08
6.46991e-08
5.83915e-08
5.91404e-08
5.84655e-08
5.81684e-08
5.92927e-08
5.86195e-08
5.98449e-08
5.9039e-08
5.9039e-08
5.1154e-08
5.18616e-08
5.06806e-08
5.11848e-08
5.00844e-08
5.02384e-08
5.08503e-08
5.03733e-08
5.6456e-08
5.87831e-08
)
;
    }
    procBoundary0to2
    {
        type            processor;
        value           nonuniform List<scalar> 
12
(
1.62271e-07
1.62457e-07
1.72831e-07
1.66855e-07
1.64821e-07
1.61381e-07
1.58982e-07
1.58178e-07
1.56752e-07
1.56703e-07
1.5591e-07
1.5591e-07
)
;
    }
    procBoundary0to3
    {
        type            processor;
        value           nonuniform List<scalar> 10(1.68259e-07 1.68923e-07 1.68566e-07 1.6988e-07 1.70131e-07 1.72623e-07 1.7615e-07 1.78264e-07 1.81833e-07 1.61966e-07);
    }
}


// ************************************************************************* //
