/*--------------------------------*- C++ -*----------------------------------*\
| =========                 |                                                 |
| \\      /  F ield         | OpenFOAM: The Open Source CFD Toolbox           |
|  \\    /   O peration     | Version:  dev                                   |
|   \\  /    A nd           | Web:      www.OpenFOAM.org                      |
|    \\/     M anipulation  |                                                 |
\*---------------------------------------------------------------------------*/
FoamFile
{
    version     2.0;
    format      ascii;
    class       volScalarField;
    location    "0.02";
    object      H2O;
}
// * * * * * * * * * * * * * * * * * * * * * * * * * * * * * * * * * * * * * //

dimensions      [0 0 0 0 0 0 0];

internalField   nonuniform List<scalar> 
2014
(
0.0628974
0.0629132
0.0629262
0.0629318
0.062928
0.0629233
0.0629164
0.0629126
0.0629092
0.0629085
0.062908
0.0629091
0.06291
0.0629117
0.0629129
0.0629143
0.0629152
0.0629162
0.0629168
0.0629173
0.0629175
0.0629178
0.0629178
0.0629179
0.0629179
0.0629179
0.0629179
0.0629178
0.0629177
0.0629175
0.0629173
0.0629167
0.0629162
0.0629152
0.0629143
0.0629129
0.0629117
0.0629101
0.0629091
0.0629081
0.0629086
0.0629093
0.0629127
0.0629166
0.0629235
0.0629282
0.0629321
0.0629264
0.0629134
0.0628975
0.0627904
0.062806
0.0628182
0.0628233
0.0628188
0.0628135
0.0628062
0.0628021
0.0627985
0.0627977
0.0627972
0.0627983
0.0627993
0.062801
0.0628023
0.0628038
0.0628048
0.0628058
0.0628064
0.062807
0.0628072
0.0628075
0.0628075
0.0628076
0.0628076
0.0628076
0.0628076
0.0628075
0.0628074
0.0628072
0.0628069
0.0628063
0.0628058
0.0628047
0.0628038
0.0628023
0.062801
0.0627993
0.0627984
0.0627973
0.0627978
0.0627987
0.0628023
0.0628064
0.0628138
0.0628191
0.0628235
0.0628184
0.0628062
0.0627906
0.0626851
0.0627004
0.0627118
0.0627163
0.0627112
0.0627053
0.0626975
0.0626931
0.0626893
0.0626884
0.0626878
0.0626889
0.06269
0.0626917
0.0626931
0.0626947
0.0626957
0.0626968
0.0626975
0.0626981
0.0626984
0.0626986
0.0626987
0.0626988
0.0626988
0.0626988
0.0626988
0.0626987
0.0626986
0.0626983
0.062698
0.0626974
0.0626968
0.0626957
0.0626947
0.0626931
0.0626918
0.06269
0.062689
0.0626879
0.0626885
0.0626895
0.0626933
0.0626978
0.0627055
0.0627114
0.0627165
0.0627121
0.0627006
0.0626853
0.0625814
0.0625964
0.062607
0.0626107
0.0626049
0.0625984
0.0625902
0.0625854
0.0625815
0.0625804
0.0625798
0.0625809
0.062582
0.0625838
0.0625853
0.0625869
0.0625881
0.0625892
0.0625899
0.0625905
0.0625908
0.0625911
0.0625912
0.0625913
0.0625913
0.0625913
0.0625913
0.0625912
0.0625911
0.0625908
0.0625905
0.0625898
0.0625892
0.062588
0.0625869
0.0625853
0.0625839
0.0625821
0.062581
0.0625799
0.0625805
0.0625816
0.0625856
0.0625905
0.0625987
0.0626052
0.062611
0.0626072
0.0625966
0.0625816
0.0624792
0.0624938
0.0625035
0.0625066
0.0625
0.0624928
0.0624842
0.062479
0.0624748
0.0624736
0.062473
0.0624741
0.0624752
0.0624772
0.0624787
0.0624804
0.0624816
0.0624828
0.0624836
0.0624842
0.0624846
0.0624849
0.062485
0.0624851
0.0624851
0.0624851
0.0624851
0.0624849
0.0624848
0.0624845
0.0624842
0.0624835
0.0624828
0.0624816
0.0624804
0.0624787
0.0624772
0.0624753
0.0624742
0.0624731
0.0624737
0.062475
0.0624792
0.0624844
0.0624931
0.0625003
0.0625068
0.0625038
0.062494
0.0624793
0.0623783
0.0623925
0.0624014
0.0624036
0.0623963
0.0623884
0.0623793
0.0623737
0.0623693
0.0623679
0.0623673
0.0623684
0.0623696
0.0623716
0.0623732
0.062375
0.0623763
0.0623776
0.0623783
0.0623791
0.0623794
0.0623798
0.0623799
0.06238
0.06238
0.06238
0.06238
0.0623798
0.0623797
0.0623794
0.062379
0.0623783
0.0623775
0.0623763
0.062375
0.0623732
0.0623716
0.0623697
0.0623685
0.0623674
0.0623681
0.0623695
0.062374
0.0623795
0.0623887
0.0623966
0.062404
0.0624016
0.0623928
0.0623785
0.0622787
0.0622925
0.0623004
0.0623019
0.0622938
0.0622851
0.0622754
0.0622695
0.0622648
0.0622633
0.0622626
0.0622637
0.062265
0.062267
0.0622687
0.0622706
0.062272
0.0622733
0.0622742
0.0622749
0.0622753
0.0622757
0.0622758
0.062276
0.062276
0.062276
0.0622759
0.0622758
0.0622756
0.0622753
0.0622749
0.0622741
0.0622733
0.062272
0.0622706
0.0622687
0.0622671
0.0622651
0.0622638
0.0622627
0.0622635
0.062265
0.0622697
0.0622757
0.0622854
0.0622941
0.0623022
0.0623007
0.0622928
0.0622789
0.0621804
0.0621937
0.0622006
0.0622012
0.0621922
0.0621827
0.0621725
0.0621662
0.0621612
0.0621596
0.0621588
0.0621599
0.0621612
0.0621634
0.0621652
0.0621671
0.0621686
0.06217
0.0621709
0.0621717
0.0621722
0.0621725
0.0621727
0.0621728
0.0621729
0.0621728
0.0621728
0.0621726
0.0621725
0.0621721
0.0621717
0.0621709
0.06217
0.0621686
0.0621672
0.0621652
0.0621635
0.0621613
0.0621601
0.062159
0.0621598
0.0621615
0.0621664
0.0621728
0.0621831
0.0621926
0.0622016
0.0622009
0.062194
0.0621806
0.0620831
0.0620959
0.0621018
0.0621015
0.0620916
0.0620812
0.0620705
0.0620637
0.0620585
0.0620566
0.0620558
0.062057
0.0620583
0.0620606
0.0620624
0.0620645
0.062066
0.0620675
0.0620685
0.0620694
0.0620698
0.0620702
0.0620704
0.0620706
0.0620706
0.0620706
0.0620705
0.0620704
0.0620702
0.0620698
0.0620693
0.0620685
0.0620675
0.062066
0.0620645
0.0620625
0.0620607
0.0620585
0.0620571
0.062056
0.0620569
0.0620587
0.062064
0.0620708
0.0620816
0.062092
0.0621019
0.0621022
0.0620962
0.0620834
0.0619869
0.0619992
0.0620039
0.0620027
0.0619918
0.0619805
0.0619692
0.061962
0.0619565
0.0619544
0.0619536
0.0619547
0.0619561
0.0619585
0.0619604
0.0619626
0.0619642
0.0619658
0.0619668
0.0619677
0.0619682
0.0619687
0.0619689
0.061969
0.0619691
0.061969
0.061969
0.0619688
0.0619686
0.0619682
0.0619677
0.0619668
0.0619657
0.0619642
0.0619626
0.0619605
0.0619586
0.0619563
0.0619549
0.0619538
0.0619547
0.0619567
0.0619623
0.0619695
0.0619809
0.0619922
0.0620031
0.0620043
0.0619995
0.0619871
0.0618916
0.0619033
0.0619069
0.0619046
0.0618928
0.0618804
0.0618685
0.0618608
0.0618551
0.0618529
0.0618519
0.0618531
0.0618546
0.061857
0.061859
0.0618613
0.061863
0.0618647
0.0618658
0.0618668
0.0618673
0.0618678
0.061868
0.0618681
0.0618682
0.0618682
0.0618681
0.0618679
0.0618677
0.0618672
0.0618667
0.0618657
0.0618646
0.061863
0.0618613
0.0618591
0.0618571
0.0618547
0.0618533
0.0618522
0.0618531
0.0618554
0.0618612
0.0618689
0.0618809
0.0618932
0.0619051
0.0619073
0.0619036
0.0618918
0.0617971
0.0618082
0.0618106
0.0618073
0.0617943
0.061781
0.0617685
0.0617603
0.0617542
0.0617518
0.0617508
0.061752
0.0617535
0.061756
0.0617582
0.0617605
0.0617623
0.0617641
0.0617653
0.0617663
0.0617669
0.0617674
0.0617676
0.0617678
0.0617678
0.0617678
0.0617678
0.0617676
0.0617673
0.0617668
0.0617662
0.0617652
0.061764
0.0617623
0.0617606
0.0617582
0.0617561
0.0617537
0.0617522
0.061751
0.0617521
0.0617545
0.0617606
0.0617689
0.0617814
0.0617948
0.0618077
0.0618111
0.0618085
0.0617974
0.0617034
0.0617138
0.061715
0.0617105
0.0616964
0.061682
0.0616689
0.0616602
0.0616538
0.0616512
0.0616501
0.0616513
0.0616528
0.0616555
0.0616577
0.0616602
0.0616621
0.0616639
0.0616652
0.0616663
0.0616669
0.0616675
0.0616677
0.0616679
0.061668
0.0616679
0.0616679
0.0616676
0.0616674
0.0616668
0.0616662
0.0616652
0.0616639
0.0616621
0.0616602
0.0616578
0.0616556
0.061653
0.0616515
0.0616503
0.0616515
0.0616541
0.0616605
0.0616693
0.0616825
0.061697
0.061711
0.0617155
0.0617142
0.0617037
0.0616103
0.06162
0.06162
0.0616143
0.061599
0.0615835
0.0615696
0.0615604
0.0615537
0.0615509
0.0615497
0.0615509
0.0615525
0.0615553
0.0615576
0.0615602
0.0615622
0.0615642
0.0615655
0.0615667
0.0615673
0.0615679
0.0615682
0.0615684
0.0615684
0.0615684
0.0615683
0.0615681
0.0615678
0.0615672
0.0615666
0.0615655
0.0615641
0.0615622
0.0615602
0.0615577
0.0615554
0.0615527
0.0615511
0.06155
0.0615511
0.061554
0.0615608
0.0615701
0.061584
0.0615995
0.0616148
0.0616205
0.0616205
0.0616107
0.0615179
0.0615268
0.0615254
0.0615185
0.0615019
0.0614853
0.0614706
0.0614609
0.0614538
0.0614507
0.0614495
0.0614507
0.0614524
0.0614552
0.0614577
0.0614604
0.0614625
0.0614646
0.0614661
0.0614673
0.061468
0.0614686
0.0614689
0.0614691
0.0614691
0.0614691
0.061469
0.0614688
0.0614685
0.0614679
0.0614672
0.061466
0.0614646
0.0614626
0.0614604
0.0614578
0.0614554
0.0614526
0.061451
0.0614498
0.0614511
0.0614541
0.0614613
0.0614711
0.0614858
0.0615025
0.0615191
0.061526
0.0615273
0.0615183
0.0614259
0.0614341
0.0614312
0.061423
0.061405
0.0613873
0.0613718
0.0613615
0.061354
0.0613508
0.0613494
0.0613507
0.0613524
0.0613553
0.0613579
0.0613607
0.061363
0.0613652
0.0613667
0.061368
0.0613687
0.0613694
0.0613697
0.0613699
0.06137
0.06137
0.0613699
0.0613696
0.0613693
0.0613686
0.0613679
0.0613667
0.0613651
0.061363
0.0613608
0.061358
0.0613555
0.0613526
0.0613509
0.0613498
0.0613511
0.0613544
0.0613619
0.0613723
0.0613878
0.0614056
0.0614236
0.0614318
0.0614345
0.0614263
0.0613344
0.0613416
0.0613374
0.0613277
0.0613082
0.0612893
0.061273
0.0612621
0.0612543
0.0612508
0.0612493
0.0612506
0.0612524
0.0612554
0.0612581
0.0612611
0.0612635
0.0612658
0.0612674
0.0612687
0.0612696
0.0612702
0.0612706
0.0612708
0.0612709
0.0612709
0.0612708
0.0612705
0.0612701
0.0612695
0.0612687
0.0612674
0.0612657
0.0612635
0.0612612
0.0612582
0.0612556
0.0612526
0.0612509
0.0612497
0.0612511
0.0612547
0.0612626
0.0612736
0.0612899
0.0613089
0.0613284
0.061338
0.0613422
0.0613348
0.0612431
0.0612495
0.0612437
0.0612326
0.0612115
0.0611914
0.0611742
0.0611627
0.0611544
0.0611507
0.0611492
0.0611504
0.0611522
0.0611554
0.0611582
0.0611614
0.0611639
0.0611663
0.0611681
0.0611694
0.0611703
0.061171
0.0611714
0.0611717
0.0611717
0.0611717
0.0611716
0.0611713
0.0611709
0.0611702
0.0611694
0.061168
0.0611663
0.061164
0.0611615
0.0611583
0.0611556
0.0611525
0.0611508
0.0611496
0.061151
0.0611549
0.0611632
0.0611748
0.0611921
0.0612122
0.0612333
0.0612444
0.0612501
0.0612436
0.0611521
0.0611575
0.0611501
0.0611375
0.0611147
0.0610934
0.0610752
0.061063
0.0610544
0.0610504
0.0610488
0.0610501
0.0610519
0.0610552
0.0610581
0.0610615
0.0610642
0.0610667
0.0610685
0.06107
0.0610709
0.0610716
0.061072
0.0610723
0.0610724
0.0610724
0.0610723
0.0610719
0.0610715
0.0610708
0.0610699
0.0610685
0.0610666
0.0610642
0.0610616
0.0610582
0.0610554
0.0610522
0.0610504
0.0610492
0.0610508
0.0610548
0.0610636
0.0610758
0.061094
0.0611155
0.0611383
0.0611509
0.0611581
0.0611526
0.0610612
0.0610656
0.0610566
0.0610423
0.0610177
0.0609951
0.0609759
0.0609631
0.060954
0.0609497
0.060948
0.0609493
0.0609512
0.0609546
0.0609577
0.0609613
0.0609641
0.0609667
0.0609687
0.0609702
0.0609711
0.0609719
0.0609724
0.0609727
0.0609728
0.0609728
0.0609726
0.0609723
0.0609718
0.060971
0.0609701
0.0609686
0.0609667
0.0609641
0.0609614
0.0609578
0.0609548
0.0609515
0.0609497
0.0609485
0.0609501
0.0609545
0.0609637
0.0609765
0.0609958
0.0610186
0.0610432
0.0610574
0.0610662
0.0610618
0.0609704
0.0609737
0.0609629
0.060947
0.0609205
0.0608964
0.0608762
0.0608627
0.0608532
0.0608486
0.0608468
0.0608482
0.0608501
0.0608536
0.0608568
0.0608606
0.0608636
0.0608664
0.0608684
0.06087
0.060871
0.0608718
0.0608723
0.0608726
0.0608727
0.0608727
0.0608726
0.0608722
0.0608717
0.0608709
0.0608699
0.0608683
0.0608663
0.0608637
0.0608608
0.0608569
0.0608538
0.0608504
0.0608486
0.0608474
0.060849
0.0608537
0.0608634
0.0608769
0.0608972
0.0609214
0.060948
0.0609637
0.0609743
0.060971
0.0608795
0.0608816
0.060869
0.0608514
0.0608228
0.0607973
0.0607759
0.0607618
0.0607519
0.0607469
0.0607451
0.0607464
0.0607484
0.060752
0.0607553
0.0607595
0.0607626
0.0607655
0.0607676
0.0607692
0.0607703
0.0607712
0.0607717
0.060772
0.0607722
0.0607721
0.060772
0.0607716
0.0607711
0.0607702
0.0607691
0.0607675
0.0607655
0.0607626
0.0607596
0.0607555
0.0607522
0.0607487
0.0607468
0.0607457
0.0607474
0.0607524
0.0607625
0.0607767
0.0607981
0.0608238
0.0608524
0.0608699
0.0608823
0.0608801
0.0607885
0.0607893
0.0607748
0.0607555
0.0607247
0.0606976
0.060675
0.0606603
0.0606498
0.0606446
0.0606426
0.060644
0.060646
0.0606496
0.0606531
0.0606577
0.0606609
0.0606639
0.0606662
0.0606678
0.060669
0.0606699
0.0606704
0.0606708
0.0606709
0.0606709
0.0606707
0.0606703
0.0606698
0.0606688
0.0606677
0.0606661
0.0606639
0.060661
0.0606578
0.0606533
0.0606499
0.0606463
0.0606444
0.0606433
0.060645
0.0606504
0.0606611
0.0606758
0.0606985
0.0607257
0.0607565
0.0607758
0.06079
0.0607891
0.0606972
0.0606966
0.0606801
0.060659
0.0606258
0.0605971
0.0605733
0.0605579
0.0605469
0.0605413
0.0605394
0.0605407
0.0605427
0.0605464
0.0605501
0.0605551
0.0605584
0.0605616
0.0605639
0.0605657
0.0605668
0.0605678
0.0605684
0.0605687
0.0605689
0.0605689
0.0605687
0.0605682
0.0605676
0.0605667
0.0605655
0.0605638
0.0605616
0.0605585
0.0605553
0.0605503
0.0605467
0.0605431
0.0605412
0.0605401
0.0605418
0.0605475
0.0605588
0.0605742
0.060598
0.0606269
0.0606601
0.0606811
0.0606975
0.0606979
0.0606056
0.0606035
0.0605848
0.0605618
0.0605263
0.0604956
0.0604708
0.0604545
0.0604431
0.0604372
0.0604352
0.0604364
0.0604384
0.0604423
0.0604461
0.0604516
0.060455
0.0604583
0.0604607
0.0604625
0.0604637
0.0604647
0.0604653
0.0604658
0.0604659
0.0604659
0.0604657
0.0604652
0.0604646
0.0604636
0.0604624
0.0604606
0.0604583
0.0604551
0.0604518
0.0604463
0.0604426
0.0604389
0.0604369
0.060436
0.0604376
0.0604436
0.0604557
0.0604717
0.0604966
0.0605275
0.060563
0.0605859
0.0606046
0.0606063
0.0605135
0.0605098
0.0604888
0.0604638
0.0604259
0.0603931
0.0603673
0.0603501
0.0603381
0.0603319
0.06033
0.0603311
0.0603331
0.060337
0.0603409
0.060347
0.0603505
0.060354
0.0603565
0.0603583
0.0603596
0.0603606
0.0603612
0.0603617
0.0603618
0.0603618
0.0603616
0.0603611
0.0603605
0.0603594
0.0603582
0.0603564
0.060354
0.0603506
0.0603472
0.0603412
0.0603373
0.0603335
0.0603316
0.0603307
0.0603323
0.0603387
0.0603516
0.0603683
0.0603941
0.0604271
0.0604651
0.0604899
0.0605113
0.0605143
0.0604209
0.0604153
0.0603918
0.0603648
0.0603245
0.0602931
0.0602664
0.0602481
0.0602355
0.0602289
0.0602272
0.0602281
0.0602301
0.0602341
0.0602381
0.0602413
0.0602448
0.0602485
0.060251
0.0602529
0.0602542
0.0602553
0.0602559
0.0602564
0.0602565
0.0602565
0.0602563
0.0602558
0.0602551
0.0602541
0.0602528
0.0602509
0.0602485
0.0602449
0.0602415
0.0602384
0.0602345
0.0602306
0.0602287
0.0602279
0.0602294
0.0602362
0.06025
0.0602673
0.0602942
0.0603258
0.0603661
0.060393
0.0604175
0.0604217
0.0603276
0.0603234
0.0602974
0.0602684
0.0602255
0.060191
0.0601626
0.0601428
0.0601295
0.0601226
0.0601212
0.0601222
0.0601246
0.0601293
0.0601341
0.0601379
0.0601415
0.0601453
0.0601479
0.0601498
0.0601512
0.0601522
0.0601529
0.0601534
0.0601536
0.0601535
0.0601533
0.0601528
0.0601521
0.060151
0.0601497
0.0601478
0.0601453
0.0601416
0.0601381
0.0601345
0.0601297
0.0601251
0.0601228
0.060122
0.060123
0.0601302
0.0601454
0.0601637
0.0601923
0.0602268
0.0602697
0.0602987
0.0603231
0.0603283
0.0602367
0.0602307
0.0602008
0.0601685
0.0601222
0.060085
0.0600558
0.0600383
0.0600244
0.0600171
0.0600123
0.0600131
0.0600154
0.0600203
0.0600254
0.0600299
0.0600338
0.060038
0.0600408
0.060043
0.0600445
0.0600458
0.0600465
0.0600471
0.0600473
0.0600473
0.060047
0.0600464
0.0600456
0.0600444
0.0600429
0.0600407
0.060038
0.0600339
0.0600301
0.0600257
0.0600208
0.0600159
0.0600137
0.060013
0.0600175
0.0600251
0.0600378
0.0600569
0.0600863
0.0601236
0.0601699
0.0602021
0.060231
0.0602375
0.060142
0.0601337
0.060101
0.0600698
0.0600208
0.0599812
0.0599511
0.0599325
0.0599176
0.05991
0.0599054
0.059906
0.0599083
0.0599135
0.0599186
0.0599236
0.0599276
0.0599321
0.0599349
0.0599372
0.0599387
0.05994
0.0599408
0.0599413
0.0599415
0.0599415
0.0599412
0.0599406
0.0599398
0.0599386
0.0599371
0.0599348
0.0599321
0.0599277
0.0599239
0.059919
0.059914
0.0599089
0.0599067
0.0599061
0.0599104
0.0599184
0.0599324
0.0599523
0.0599826
0.0600222
0.0600712
0.0601024
0.0601344
0.0601428
0.0600493
0.060039
0.0600036
0.0599697
0.0599179
0.0598762
0.0598449
0.0598252
0.0598096
0.0598015
0.059797
0.0597974
0.0597996
0.0598052
0.0598103
0.0598158
0.0598199
0.059823
0.0598262
0.0598288
0.0598307
0.0598322
0.0598332
0.0598339
0.0598341
0.0598341
0.0598337
0.059833
0.059832
0.0598305
0.0598287
0.0598261
0.059823
0.05982
0.0598161
0.0598107
0.0598057
0.0598002
0.0597981
0.0597976
0.0598019
0.0598105
0.0598255
0.0598461
0.0598776
0.0599194
0.0599712
0.0600049
0.0600399
0.0600501
0.0599556
0.0599432
0.0599049
0.0598682
0.0598125
0.0597682
0.0597357
0.059715
0.0596993
0.0596914
0.0596869
0.059687
0.0596893
0.0596952
0.0597003
0.0597053
0.0597101
0.0597138
0.0597171
0.0597198
0.0597217
0.0597233
0.0597243
0.0597249
0.0597252
0.0597252
0.0597248
0.0597241
0.0597231
0.0597215
0.0597197
0.059717
0.0597139
0.0597103
0.0597056
0.0597007
0.0596958
0.0596899
0.0596878
0.0596875
0.0596918
0.0597002
0.0597157
0.059737
0.0597698
0.0598141
0.0598698
0.0599063
0.0599442
0.0599564
0.0598587
0.059844
0.0598017
0.0597616
0.0597028
0.0596558
0.0596222
0.0596003
0.0595839
0.0595757
0.0595714
0.0595719
0.0595747
0.0595819
0.0595878
0.059594
0.059599
0.0596028
0.0596062
0.059609
0.0596109
0.0596125
0.0596135
0.0596142
0.0596145
0.0596144
0.0596141
0.0596133
0.0596123
0.0596108
0.0596089
0.0596061
0.0596029
0.0595992
0.0595943
0.0595883
0.0595824
0.0595754
0.0595727
0.0595721
0.059576
0.0595849
0.0596013
0.0596236
0.0596575
0.0597045
0.0597631
0.0598032
0.0598451
0.0598597
0.0597589
0.059742
0.0596958
0.0596528
0.0595913
0.0595451
0.0595103
0.0594873
0.0594701
0.0594615
0.0594571
0.0594575
0.0594603
0.0594641
0.0594701
0.0594768
0.0594825
0.0594868
0.0594907
0.0594939
0.0594963
0.0594982
0.0594994
0.0595003
0.0595007
0.0595006
0.0595002
0.0594992
0.059498
0.0594961
0.0594938
0.0594906
0.0594869
0.0594827
0.0594772
0.0594706
0.0594647
0.059461
0.0594584
0.0594578
0.0594618
0.0594711
0.0594884
0.0595118
0.0595469
0.0595931
0.0596543
0.0596974
0.059743
0.0597599
0.0596574
0.0596384
0.0595914
0.0595456
0.0594816
0.0594323
0.0593962
0.0593721
0.059354
0.0593451
0.0593406
0.059341
0.0593437
0.0593479
0.0593539
0.0593611
0.059367
0.0593716
0.0593756
0.0593789
0.0593813
0.0593833
0.0593846
0.0593854
0.0593858
0.0593858
0.0593853
0.0593844
0.0593831
0.0593811
0.0593788
0.0593755
0.0593717
0.0593672
0.0593615
0.0593544
0.0593485
0.0593445
0.0593419
0.0593414
0.0593453
0.0593552
0.0593734
0.0593979
0.0594342
0.0594833
0.0595471
0.0595931
0.0596393
0.0596584
0.0595577
0.0595365
0.0594846
0.0594355
0.0593676
0.0593173
0.0592799
0.0592545
0.0592357
0.0592264
0.0592217
0.0592221
0.0592248
0.0592291
0.0592353
0.059243
0.0592492
0.059254
0.0592581
0.0592616
0.0592641
0.0592661
0.0592674
0.0592683
0.0592686
0.0592686
0.0592681
0.0592672
0.0592659
0.0592639
0.0592614
0.0592581
0.0592541
0.0592495
0.0592434
0.0592358
0.0592297
0.0592256
0.059223
0.0592226
0.0592264
0.0592369
0.059256
0.0592816
0.0593193
0.0593695
0.0594371
0.0594867
0.0595373
0.0595586
0.0594563
0.059433
0.0593759
0.0593241
0.0592531
0.0592
0.059161
0.0591345
0.0591148
0.0591052
0.0591002
0.0591007
0.0591034
0.0591079
0.0591142
0.0591224
0.0591289
0.0591339
0.0591382
0.0591417
0.0591443
0.0591464
0.0591477
0.0591486
0.059149
0.059149
0.0591485
0.0591475
0.0591462
0.0591442
0.0591416
0.0591381
0.0591341
0.0591292
0.0591229
0.0591148
0.0591086
0.0591042
0.0591017
0.0591012
0.0591051
0.059116
0.0591361
0.0591629
0.0592021
0.0592552
0.0593258
0.0593781
0.0594335
0.059457
0.0593529
0.0593272
0.059265
0.0592103
0.059136
0.0590802
0.0590395
0.0590118
0.0589912
0.0589812
0.058976
0.0589766
0.0589792
0.058984
0.0589904
0.0589991
0.059006
0.0590112
0.0590157
0.0590193
0.059022
0.0590241
0.0590255
0.0590264
0.0590268
0.0590267
0.0590262
0.0590252
0.0590239
0.0590218
0.0590192
0.0590156
0.0590114
0.0590063
0.0589996
0.058991
0.0589848
0.0589801
0.0589776
0.0589771
0.0589809
0.0589925
0.0590135
0.0590416
0.0590823
0.059138
0.0592121
0.0592674
0.0593276
0.0593536
0.0592476
0.0592192
0.0591519
0.0590939
0.0590163
0.0589577
0.0589152
0.0588863
0.0588647
0.0588544
0.058849
0.0588496
0.0588522
0.0588573
0.0588637
0.058873
0.0588802
0.0588857
0.0588903
0.058894
0.0588968
0.058899
0.0589004
0.0589013
0.0589017
0.0589016
0.0589012
0.0589001
0.0588988
0.0588966
0.0588939
0.0588902
0.0588859
0.0588806
0.0588735
0.0588643
0.058858
0.0588532
0.0588507
0.0588501
0.0588539
0.0588661
0.0588881
0.0589174
0.0589599
0.0590184
0.0590957
0.0591544
0.0592193
0.0592481
0.0587619
0.0587658
0.0587687
0.0587709
0.0587724
0.0587733
0.0587737
0.0587736
0.0587731
0.0587721
0.0587707
0.0587685
0.0587657
0.0587618
0.0587574
0.0587518
0.0587444
0.0587346
0.0587277
0.058722
0.0587189
0.0587178
0.0587212
0.058734
0.0587569
0.0587875
0.0588322
0.0588942
0.0589764
0.0590388
0.0591086
0.0591403
0.0586368
0.0586343
0.0586312
0.058627
0.0586222
0.0586162
0.0586081
0.0585974
0.0585902
0.0585843
0.0585812
0.05858
0.0585877
0.0586011
0.0586251
0.0586569
0.0587034
0.0587687
0.0588541
0.0589203
0.0589954
0.0590301
0.0584506
0.0584648
0.0584899
0.0585229
0.0585713
0.0586399
0.0587287
0.0587988
0.0588795
0.0589172
)
;

boundaryField
{
    fuel
    {
        type            fixedValue;
        value           nonuniform 0();
    }
    wall
    {
        type            zeroGradient;
    }
    outlet
    {
        type            zeroGradient;
    }
    frontAndBack
    {
        type            empty;
    }
    procBoundary0to1
    {
        type            processor;
        value           nonuniform List<scalar> 
50
(
0.0630062
0.0630222
0.0630359
0.0630421
0.0630388
0.0630346
0.0630281
0.0630246
0.0630214
0.0630208
0.0630204
0.0630214
0.0630223
0.0630239
0.063025
0.0630264
0.0630273
0.0630282
0.0630287
0.0630292
0.0630294
0.0630297
0.0630297
0.0630298
0.0630298
0.0630298
0.0630297
0.0630297
0.0630296
0.0630294
0.0630292
0.0630287
0.0630282
0.0630273
0.0630264
0.0630251
0.0630239
0.0630224
0.0630215
0.0630205
0.0630209
0.0630216
0.0630248
0.0630283
0.0630348
0.063039
0.0630423
0.0630361
0.0630224
0.0630063
)
;
    }
    procBoundary0to2
    {
        type            processor;
        value           nonuniform List<scalar> 
53
(
0.05914
0.0591086
0.0590361
0.0589742
0.0588918
0.0588298
0.058785
0.0587549
0.0587323
0.0587219
0.0587164
0.0587176
0.0587209
0.0587268
0.0587339
0.0587438
0.0587515
0.0587572
0.0587572
0.0586271
0.0586314
0.0586345
0.058637
0.0586386
0.0586397
0.0586401
0.05864
0.0586395
0.0586383
0.0586383
0.0584975
0.058495
0.0584918
0.0584874
0.0584824
0.0584762
0.0584676
0.0584607
0.0584533
0.0584473
0.0584442
0.0584428
0.0584428
0.05831
0.0583249
0.058351
0.0583853
0.0584355
0.0585076
0.0586
0.0586739
0.0587607
0.0588016
)
;
    }
}


// ************************************************************************* //
