/*--------------------------------*- C++ -*----------------------------------*\
| =========                 |                                                 |
| \\      /  F ield         | OpenFOAM: The Open Source CFD Toolbox           |
|  \\    /   O peration     | Version:  dev                                   |
|   \\  /    A nd           | Web:      www.OpenFOAM.org                      |
|    \\/     M anipulation  |                                                 |
\*---------------------------------------------------------------------------*/
FoamFile
{
    version     2.0;
    format      ascii;
    class       volScalarField;
    location    "0.02";
    object      H2O2;
}
// * * * * * * * * * * * * * * * * * * * * * * * * * * * * * * * * * * * * * //

dimensions      [0 0 0 0 0 0 0];

internalField   nonuniform List<scalar> 
2014
(
6.90531e-11
6.92107e-11
6.93459e-11
6.93948e-11
6.93384e-11
6.926e-11
6.91625e-11
6.90961e-11
6.90419e-11
6.90194e-11
6.9008e-11
6.90173e-11
6.90315e-11
6.90566e-11
6.90807e-11
6.91085e-11
6.91324e-11
6.91562e-11
6.91752e-11
6.91924e-11
6.9205e-11
6.92157e-11
6.92228e-11
6.92278e-11
6.923e-11
6.923e-11
6.92276e-11
6.92224e-11
6.92153e-11
6.92047e-11
6.91922e-11
6.91752e-11
6.91565e-11
6.91331e-11
6.91096e-11
6.90823e-11
6.90586e-11
6.90341e-11
6.90203e-11
6.90113e-11
6.9023e-11
6.90458e-11
6.91001e-11
6.91666e-11
6.92641e-11
6.93422e-11
6.93982e-11
6.93488e-11
6.9213e-11
6.90548e-11
6.81078e-11
6.82567e-11
6.83769e-11
6.84141e-11
6.83486e-11
6.8262e-11
6.81594e-11
6.80887e-11
6.80322e-11
6.8008e-11
6.79962e-11
6.80056e-11
6.80206e-11
6.80465e-11
6.80719e-11
6.81008e-11
6.81259e-11
6.81507e-11
6.81707e-11
6.81886e-11
6.82019e-11
6.8213e-11
6.82205e-11
6.82258e-11
6.82281e-11
6.8228e-11
6.82255e-11
6.82201e-11
6.82126e-11
6.82015e-11
6.81884e-11
6.81707e-11
6.8151e-11
6.81267e-11
6.8102e-11
6.80735e-11
6.80487e-11
6.80233e-11
6.80088e-11
6.79998e-11
6.80118e-11
6.80363e-11
6.80929e-11
6.81638e-11
6.82664e-11
6.83526e-11
6.84178e-11
6.838e-11
6.82592e-11
6.81097e-11
6.72163e-11
6.73565e-11
6.74619e-11
6.74874e-11
6.74121e-11
6.7317e-11
6.7209e-11
6.71338e-11
6.70748e-11
6.70488e-11
6.70367e-11
6.70461e-11
6.70618e-11
6.70888e-11
6.71154e-11
6.71455e-11
6.71718e-11
6.71976e-11
6.72186e-11
6.72373e-11
6.72512e-11
6.72629e-11
6.72708e-11
6.72762e-11
6.72787e-11
6.72786e-11
6.7276e-11
6.72703e-11
6.72625e-11
6.72509e-11
6.72371e-11
6.72186e-11
6.7198e-11
6.71726e-11
6.71467e-11
6.71171e-11
6.70911e-11
6.70647e-11
6.70494e-11
6.70404e-11
6.70529e-11
6.7079e-11
6.71382e-11
6.72136e-11
6.73216e-11
6.74164e-11
6.74913e-11
6.74652e-11
6.73591e-11
6.72184e-11
6.63675e-11
6.64989e-11
6.65896e-11
6.66031e-11
6.65177e-11
6.64136e-11
6.62998e-11
6.62201e-11
6.61583e-11
6.61306e-11
6.6118e-11
6.61276e-11
6.61441e-11
6.61721e-11
6.61999e-11
6.62312e-11
6.62589e-11
6.62858e-11
6.63078e-11
6.63273e-11
6.63419e-11
6.6354e-11
6.63623e-11
6.6368e-11
6.63706e-11
6.63705e-11
6.63677e-11
6.63619e-11
6.63536e-11
6.63415e-11
6.6327e-11
6.63078e-11
6.62861e-11
6.62597e-11
6.62325e-11
6.62018e-11
6.61745e-11
6.61471e-11
6.61311e-11
6.61219e-11
6.61349e-11
6.61628e-11
6.62247e-11
6.63046e-11
6.64184e-11
6.65222e-11
6.66073e-11
6.65932e-11
6.65017e-11
6.63697e-11
6.55523e-11
6.56749e-11
6.5751e-11
6.57522e-11
6.56562e-11
6.55426e-11
6.54228e-11
6.53384e-11
6.52738e-11
6.52444e-11
6.52312e-11
6.52409e-11
6.52582e-11
6.52874e-11
6.53164e-11
6.5349e-11
6.5378e-11
6.5406e-11
6.54291e-11
6.54494e-11
6.54647e-11
6.54774e-11
6.54861e-11
6.5492e-11
6.54947e-11
6.54946e-11
6.54917e-11
6.54856e-11
6.54769e-11
6.54643e-11
6.54492e-11
6.54291e-11
6.54064e-11
6.53788e-11
6.53504e-11
6.53184e-11
6.52899e-11
6.52614e-11
6.52446e-11
6.52353e-11
6.52488e-11
6.52785e-11
6.53432e-11
6.54279e-11
6.55477e-11
6.5661e-11
6.57567e-11
6.57548e-11
6.5678e-11
6.55547e-11
6.47637e-11
6.48773e-11
6.49387e-11
6.49274e-11
6.48203e-11
6.46967e-11
6.45707e-11
6.44814e-11
6.44139e-11
6.43826e-11
6.43689e-11
6.43788e-11
6.43969e-11
6.44272e-11
6.44576e-11
6.44915e-11
6.45218e-11
6.4551e-11
6.45752e-11
6.45963e-11
6.46124e-11
6.46256e-11
6.46347e-11
6.46409e-11
6.46437e-11
6.46436e-11
6.46406e-11
6.46342e-11
6.46251e-11
6.46119e-11
6.45961e-11
6.45752e-11
6.45514e-11
6.45226e-11
6.44929e-11
6.44596e-11
6.44298e-11
6.44002e-11
6.43826e-11
6.43732e-11
6.43872e-11
6.44188e-11
6.44865e-11
6.4576e-11
6.47021e-11
6.48253e-11
6.49321e-11
6.49428e-11
6.48806e-11
6.47663e-11
6.39957e-11
6.41003e-11
6.41468e-11
6.41226e-11
6.4004e-11
6.38699e-11
6.37373e-11
6.3643e-11
6.35725e-11
6.35393e-11
6.35251e-11
6.35351e-11
6.35541e-11
6.35856e-11
6.36173e-11
6.36526e-11
6.36843e-11
6.37147e-11
6.374e-11
6.37621e-11
6.37788e-11
6.37926e-11
6.38021e-11
6.38086e-11
6.38115e-11
6.38114e-11
6.38083e-11
6.38016e-11
6.37921e-11
6.37784e-11
6.37618e-11
6.374e-11
6.37151e-11
6.36852e-11
6.36541e-11
6.36195e-11
6.35883e-11
6.35576e-11
6.35392e-11
6.35296e-11
6.35442e-11
6.35777e-11
6.36484e-11
6.3743e-11
6.38756e-11
6.40093e-11
6.41277e-11
6.41512e-11
6.41038e-11
6.39985e-11
6.32435e-11
6.3339e-11
6.33704e-11
6.3333e-11
6.32023e-11
6.30572e-11
6.29179e-11
6.28185e-11
6.27448e-11
6.27096e-11
6.26948e-11
6.27051e-11
6.27249e-11
6.27576e-11
6.27908e-11
6.28275e-11
6.28606e-11
6.28923e-11
6.29187e-11
6.29417e-11
6.29592e-11
6.29735e-11
6.29835e-11
6.29902e-11
6.29933e-11
6.29932e-11
6.29899e-11
6.29829e-11
6.2973e-11
6.29587e-11
6.29414e-11
6.29187e-11
6.28927e-11
6.28615e-11
6.2829e-11
6.2793e-11
6.27605e-11
6.27285e-11
6.27094e-11
6.26996e-11
6.27147e-11
6.27502e-11
6.28241e-11
6.29238e-11
6.30632e-11
6.32079e-11
6.33383e-11
6.33751e-11
6.33427e-11
6.32465e-11
6.25033e-11
6.25894e-11
6.26054e-11
6.25544e-11
6.24113e-11
6.22544e-11
6.21083e-11
6.20036e-11
6.19266e-11
6.18895e-11
6.1874e-11
6.18845e-11
6.19052e-11
6.19393e-11
6.19738e-11
6.2012e-11
6.20465e-11
6.20795e-11
6.21072e-11
6.21311e-11
6.21493e-11
6.21642e-11
6.21746e-11
6.21817e-11
6.21849e-11
6.21847e-11
6.21813e-11
6.2174e-11
6.21637e-11
6.21488e-11
6.21308e-11
6.21072e-11
6.20799e-11
6.20475e-11
6.20136e-11
6.19761e-11
6.19423e-11
6.1909e-11
6.1889e-11
6.1879e-11
6.18948e-11
6.19322e-11
6.20095e-11
6.21145e-11
6.22607e-11
6.24171e-11
6.25601e-11
6.26104e-11
6.25934e-11
6.25065e-11
6.17716e-11
6.18481e-11
6.18485e-11
6.17834e-11
6.16274e-11
6.14582e-11
6.13051e-11
6.11949e-11
6.11145e-11
6.10754e-11
6.10593e-11
6.107e-11
6.10915e-11
6.1127e-11
6.11629e-11
6.12026e-11
6.12387e-11
6.12731e-11
6.1302e-11
6.13268e-11
6.13458e-11
6.13613e-11
6.13722e-11
6.13795e-11
6.13829e-11
6.13827e-11
6.13791e-11
6.13716e-11
6.13608e-11
6.13453e-11
6.13265e-11
6.1302e-11
6.12735e-11
6.12397e-11
6.12043e-11
6.11653e-11
6.11301e-11
6.10956e-11
6.10747e-11
6.10645e-11
6.10809e-11
6.11204e-11
6.12011e-11
6.13116e-11
6.14649e-11
6.16336e-11
6.17894e-11
6.18538e-11
6.18524e-11
6.1775e-11
6.10457e-11
6.11125e-11
6.10967e-11
6.10172e-11
6.08479e-11
6.06657e-11
6.05054e-11
6.03897e-11
6.03057e-11
6.02645e-11
6.02477e-11
6.02588e-11
6.02811e-11
6.0318e-11
6.03554e-11
6.03967e-11
6.04343e-11
6.04701e-11
6.05003e-11
6.0526e-11
6.05459e-11
6.0562e-11
6.05733e-11
6.05809e-11
6.05844e-11
6.05842e-11
6.05805e-11
6.05727e-11
6.05614e-11
6.05453e-11
6.05257e-11
6.05003e-11
6.04705e-11
6.04354e-11
6.03985e-11
6.03579e-11
6.03213e-11
6.02853e-11
6.02637e-11
6.02532e-11
6.02702e-11
6.03119e-11
6.03961e-11
6.05122e-11
6.06727e-11
6.08544e-11
6.10236e-11
6.11024e-11
6.1117e-11
6.10493e-11
6.03232e-11
6.038e-11
6.03478e-11
6.02533e-11
6.007e-11
5.98745e-11
5.97067e-11
5.95854e-11
5.94978e-11
5.94544e-11
5.94369e-11
5.94483e-11
5.94715e-11
5.95099e-11
5.95487e-11
5.95916e-11
5.96309e-11
5.96681e-11
5.96996e-11
5.97263e-11
5.97469e-11
5.97637e-11
5.97755e-11
5.97834e-11
5.9787e-11
5.97869e-11
5.9783e-11
5.97748e-11
5.9763e-11
5.97463e-11
5.9726e-11
5.96996e-11
5.96685e-11
5.9632e-11
5.95935e-11
5.95513e-11
5.95133e-11
5.94759e-11
5.94534e-11
5.94426e-11
5.94603e-11
5.95042e-11
5.95921e-11
5.97139e-11
5.98817e-11
6.0077e-11
6.02601e-11
6.03538e-11
6.03848e-11
6.03271e-11
5.96021e-11
5.96486e-11
5.95995e-11
5.94896e-11
5.92914e-11
5.9083e-11
5.8907e-11
5.87799e-11
5.86886e-11
5.86429e-11
5.86248e-11
5.86365e-11
5.86605e-11
5.87005e-11
5.87408e-11
5.87854e-11
5.88263e-11
5.88649e-11
5.88979e-11
5.89256e-11
5.8947e-11
5.89644e-11
5.89767e-11
5.89849e-11
5.89886e-11
5.89885e-11
5.89844e-11
5.89759e-11
5.89637e-11
5.89463e-11
5.89252e-11
5.88979e-11
5.88654e-11
5.88275e-11
5.87873e-11
5.87435e-11
5.8704e-11
5.86651e-11
5.86419e-11
5.86307e-11
5.86491e-11
5.86952e-11
5.87869e-11
5.89145e-11
5.90903e-11
5.92991e-11
5.94968e-11
5.9606e-11
5.96538e-11
5.96062e-11
5.88806e-11
5.89165e-11
5.88502e-11
5.87244e-11
5.85103e-11
5.82891e-11
5.81045e-11
5.79714e-11
5.78763e-11
5.78283e-11
5.78095e-11
5.78216e-11
5.78464e-11
5.78879e-11
5.79298e-11
5.79762e-11
5.80188e-11
5.80589e-11
5.80932e-11
5.81219e-11
5.81441e-11
5.81622e-11
5.8175e-11
5.81835e-11
5.81874e-11
5.81872e-11
5.8183e-11
5.81742e-11
5.81615e-11
5.81435e-11
5.81215e-11
5.80932e-11
5.80594e-11
5.802e-11
5.79782e-11
5.79326e-11
5.78916e-11
5.78512e-11
5.78272e-11
5.78157e-11
5.78348e-11
5.78831e-11
5.79787e-11
5.81123e-11
5.82968e-11
5.85184e-11
5.8732e-11
5.8857e-11
5.8922e-11
5.8885e-11
5.81572e-11
5.81822e-11
5.80981e-11
5.79558e-11
5.77252e-11
5.74911e-11
5.72974e-11
5.71583e-11
5.70593e-11
5.7009e-11
5.69894e-11
5.70019e-11
5.70275e-11
5.70707e-11
5.71141e-11
5.71623e-11
5.72067e-11
5.72484e-11
5.72841e-11
5.73137e-11
5.73368e-11
5.73555e-11
5.73689e-11
5.73776e-11
5.73817e-11
5.73815e-11
5.73772e-11
5.7368e-11
5.73548e-11
5.73361e-11
5.73133e-11
5.72841e-11
5.72488e-11
5.7208e-11
5.71645e-11
5.7117e-11
5.70746e-11
5.70325e-11
5.70078e-11
5.69959e-11
5.70157e-11
5.70664e-11
5.71659e-11
5.73056e-11
5.74991e-11
5.77338e-11
5.79639e-11
5.81053e-11
5.8188e-11
5.81618e-11
5.74304e-11
5.74442e-11
5.73419e-11
5.71827e-11
5.69347e-11
5.66876e-11
5.64844e-11
5.63392e-11
5.62362e-11
5.61835e-11
5.61631e-11
5.61761e-11
5.62025e-11
5.62474e-11
5.62923e-11
5.63425e-11
5.63887e-11
5.64319e-11
5.6469e-11
5.64997e-11
5.65236e-11
5.65429e-11
5.65568e-11
5.65659e-11
5.65701e-11
5.65699e-11
5.65654e-11
5.65559e-11
5.65422e-11
5.65229e-11
5.64992e-11
5.6469e-11
5.64324e-11
5.639e-11
5.63447e-11
5.62954e-11
5.62514e-11
5.62077e-11
5.61822e-11
5.617e-11
5.61904e-11
5.62436e-11
5.63472e-11
5.64929e-11
5.6696e-11
5.69437e-11
5.71913e-11
5.73495e-11
5.74503e-11
5.74353e-11
5.66989e-11
5.67012e-11
5.65802e-11
5.64036e-11
5.61375e-11
5.58772e-11
5.56642e-11
5.55129e-11
5.54058e-11
5.53506e-11
5.53295e-11
5.53429e-11
5.537e-11
5.54167e-11
5.54631e-11
5.55154e-11
5.55635e-11
5.56082e-11
5.56468e-11
5.56784e-11
5.57032e-11
5.57232e-11
5.57376e-11
5.5747e-11
5.57514e-11
5.57512e-11
5.57465e-11
5.57367e-11
5.57224e-11
5.57024e-11
5.5678e-11
5.56468e-11
5.56088e-11
5.55648e-11
5.55178e-11
5.54663e-11
5.54208e-11
5.53754e-11
5.53493e-11
5.53367e-11
5.53578e-11
5.54134e-11
5.55211e-11
5.56731e-11
5.5886e-11
5.61471e-11
5.64127e-11
5.65883e-11
5.67077e-11
5.67042e-11
5.59617e-11
5.5952e-11
5.5812e-11
5.56175e-11
5.53324e-11
5.50587e-11
5.48356e-11
5.4678e-11
5.45668e-11
5.45091e-11
5.44872e-11
5.45012e-11
5.4529e-11
5.45774e-11
5.46254e-11
5.46799e-11
5.47299e-11
5.47762e-11
5.48162e-11
5.48488e-11
5.48744e-11
5.48951e-11
5.491e-11
5.49198e-11
5.49243e-11
5.49241e-11
5.49192e-11
5.4909e-11
5.48943e-11
5.48736e-11
5.48483e-11
5.48162e-11
5.47768e-11
5.47313e-11
5.46824e-11
5.46288e-11
5.45816e-11
5.45346e-11
5.45078e-11
5.44948e-11
5.45165e-11
5.45747e-11
5.46866e-11
5.48448e-11
5.50679e-11
5.53425e-11
5.56271e-11
5.58206e-11
5.59588e-11
5.59673e-11
5.52177e-11
5.51955e-11
5.50361e-11
5.48232e-11
5.45184e-11
5.4231e-11
5.39974e-11
5.38337e-11
5.37183e-11
5.3658e-11
5.36354e-11
5.36499e-11
5.36785e-11
5.37284e-11
5.37782e-11
5.38351e-11
5.3887e-11
5.39348e-11
5.39763e-11
5.40098e-11
5.40363e-11
5.40576e-11
5.4073e-11
5.40831e-11
5.40878e-11
5.40876e-11
5.40825e-11
5.4072e-11
5.40567e-11
5.40354e-11
5.40093e-11
5.39762e-11
5.39354e-11
5.38884e-11
5.38377e-11
5.37816e-11
5.37328e-11
5.36843e-11
5.36568e-11
5.36435e-11
5.36657e-11
5.37264e-11
5.38426e-11
5.4007e-11
5.42406e-11
5.45291e-11
5.48335e-11
5.50452e-11
5.52027e-11
5.52236e-11
5.44658e-11
5.44308e-11
5.42515e-11
5.40199e-11
5.36945e-11
5.33932e-11
5.31487e-11
5.29789e-11
5.28594e-11
5.27963e-11
5.27731e-11
5.27881e-11
5.28174e-11
5.28687e-11
5.29204e-11
5.29799e-11
5.30337e-11
5.30831e-11
5.31259e-11
5.31604e-11
5.31877e-11
5.32097e-11
5.32257e-11
5.32361e-11
5.32409e-11
5.32407e-11
5.32355e-11
5.32246e-11
5.32088e-11
5.31868e-11
5.31599e-11
5.31259e-11
5.30837e-11
5.30352e-11
5.29827e-11
5.2924e-11
5.28733e-11
5.28235e-11
5.27952e-11
5.27816e-11
5.28042e-11
5.28677e-11
5.29882e-11
5.31587e-11
5.34032e-11
5.37057e-11
5.40308e-11
5.42611e-11
5.44384e-11
5.44721e-11
5.37053e-11
5.36569e-11
5.34572e-11
5.32067e-11
5.28598e-11
5.25442e-11
5.22884e-11
5.21127e-11
5.1989e-11
5.19232e-11
5.18994e-11
5.19149e-11
5.1945e-11
5.19975e-11
5.20511e-11
5.21136e-11
5.21693e-11
5.22202e-11
5.22643e-11
5.22997e-11
5.23278e-11
5.23505e-11
5.2367e-11
5.23777e-11
5.23827e-11
5.23825e-11
5.23771e-11
5.23658e-11
5.23496e-11
5.23269e-11
5.22992e-11
5.22643e-11
5.22209e-11
5.21707e-11
5.21166e-11
5.20549e-11
5.20022e-11
5.19513e-11
5.19223e-11
5.19085e-11
5.19313e-11
5.19975e-11
5.21225e-11
5.22988e-11
5.25546e-11
5.28715e-11
5.32182e-11
5.34673e-11
5.36649e-11
5.37119e-11
5.29353e-11
5.28731e-11
5.26523e-11
5.23827e-11
5.20132e-11
5.16832e-11
5.14157e-11
5.12342e-11
5.11064e-11
5.10378e-11
5.10135e-11
5.10295e-11
5.10604e-11
5.1114e-11
5.11696e-11
5.12355e-11
5.12928e-11
5.13453e-11
5.13906e-11
5.14269e-11
5.14558e-11
5.14792e-11
5.14961e-11
5.15072e-11
5.15124e-11
5.15121e-11
5.15066e-11
5.14949e-11
5.14782e-11
5.14549e-11
5.14264e-11
5.13906e-11
5.1346e-11
5.12943e-11
5.12385e-11
5.11735e-11
5.11188e-11
5.10669e-11
5.10372e-11
5.10232e-11
5.10461e-11
5.1115e-11
5.12448e-11
5.14265e-11
5.1694e-11
5.20255e-11
5.23948e-11
5.2663e-11
5.28814e-11
5.29423e-11
5.2155e-11
5.20784e-11
5.18359e-11
5.15473e-11
5.11541e-11
5.08093e-11
5.05297e-11
5.03428e-11
5.02107e-11
5.01394e-11
5.01149e-11
5.01312e-11
5.01628e-11
5.02173e-11
5.02749e-11
5.03447e-11
5.04035e-11
5.04577e-11
5.05041e-11
5.05412e-11
5.05709e-11
5.05948e-11
5.06122e-11
5.06237e-11
5.0629e-11
5.06288e-11
5.0623e-11
5.0611e-11
5.05938e-11
5.05699e-11
5.05407e-11
5.0504e-11
5.04584e-11
5.04051e-11
5.03478e-11
5.0279e-11
5.02224e-11
5.01695e-11
5.01392e-11
5.01252e-11
5.01479e-11
5.02196e-11
5.03543e-11
5.05409e-11
5.08205e-11
5.11669e-11
5.156e-11
5.18472e-11
5.20873e-11
5.21624e-11
5.13638e-11
5.12722e-11
5.1007e-11
5.06996e-11
5.02814e-11
4.99209e-11
4.96306e-11
4.94376e-11
4.93012e-11
4.92273e-11
4.9203e-11
4.92193e-11
4.92514e-11
4.93069e-11
4.93665e-11
4.94406e-11
4.95008e-11
4.95566e-11
4.9604e-11
4.96419e-11
4.96723e-11
4.96968e-11
4.97147e-11
4.97264e-11
4.97319e-11
4.97317e-11
4.97257e-11
4.97134e-11
4.96958e-11
4.96713e-11
4.96414e-11
4.96038e-11
4.95574e-11
4.95024e-11
4.94439e-11
4.93706e-11
4.93123e-11
4.92584e-11
4.92275e-11
4.92137e-11
4.92359e-11
4.93103e-11
4.94504e-11
4.96422e-11
4.99326e-11
5.02947e-11
5.0713e-11
5.1019e-11
5.1282e-11
5.13716e-11
5.05608e-11
5.04539e-11
5.01642e-11
4.98377e-11
4.93957e-11
4.90175e-11
4.87178e-11
4.8518e-11
4.83772e-11
4.83009e-11
4.82771e-11
4.82932e-11
4.83257e-11
4.83822e-11
4.84434e-11
4.85226e-11
4.85839e-11
4.86413e-11
4.86896e-11
4.87283e-11
4.87593e-11
4.87844e-11
4.88026e-11
4.88147e-11
4.88204e-11
4.88201e-11
4.8814e-11
4.88013e-11
4.87833e-11
4.87583e-11
4.87277e-11
4.86895e-11
4.86422e-11
4.85856e-11
4.85259e-11
4.84477e-11
4.83877e-11
4.83328e-11
4.83016e-11
4.82882e-11
4.83096e-11
4.83866e-11
4.85328e-11
4.87298e-11
4.90297e-11
4.94094e-11
4.98515e-11
5.01771e-11
5.04652e-11
5.0569e-11
4.97456e-11
4.96221e-11
4.93071e-11
4.8961e-11
4.8496e-11
4.80988e-11
4.77909e-11
4.75834e-11
4.74383e-11
4.73596e-11
4.73369e-11
4.73522e-11
4.7385e-11
4.74426e-11
4.75052e-11
4.75902e-11
4.76522e-11
4.77114e-11
4.77604e-11
4.77998e-11
4.78314e-11
4.78569e-11
4.78755e-11
4.78879e-11
4.78936e-11
4.78933e-11
4.78871e-11
4.78741e-11
4.78558e-11
4.78304e-11
4.77992e-11
4.77603e-11
4.77123e-11
4.7654e-11
4.75935e-11
4.75096e-11
4.74484e-11
4.73924e-11
4.73609e-11
4.73481e-11
4.73683e-11
4.74478e-11
4.76011e-11
4.78033e-11
4.81115e-11
4.851e-11
4.89753e-11
4.93202e-11
4.96371e-11
4.9754e-11
4.89172e-11
4.87755e-11
4.84348e-11
4.80694e-11
4.75816e-11
4.71977e-11
4.68824e-11
4.66664e-11
4.65169e-11
4.6436e-11
4.6415e-11
4.64293e-11
4.64622e-11
4.65211e-11
4.65845e-11
4.66427e-11
4.67053e-11
4.67662e-11
4.68159e-11
4.68559e-11
4.6888e-11
4.69139e-11
4.69327e-11
4.69453e-11
4.69512e-11
4.69509e-11
4.69445e-11
4.69313e-11
4.69127e-11
4.68869e-11
4.68553e-11
4.68158e-11
4.67672e-11
4.67072e-11
4.66461e-11
4.6589e-11
4.6527e-11
4.64697e-11
4.64381e-11
4.6426e-11
4.64446e-11
4.65267e-11
4.6688e-11
4.68952e-11
4.72109e-11
4.75958e-11
4.80839e-11
4.84482e-11
4.87968e-11
4.89259e-11
4.80751e-11
4.79453e-11
4.75791e-11
4.71953e-11
4.66847e-11
4.62734e-11
4.59451e-11
4.57162e-11
4.5561e-11
4.54779e-11
4.5461e-11
4.54765e-11
4.55132e-11
4.55785e-11
4.56494e-11
4.57131e-11
4.57763e-11
4.58389e-11
4.58892e-11
4.59297e-11
4.59622e-11
4.59883e-11
4.60074e-11
4.60201e-11
4.60261e-11
4.60258e-11
4.60193e-11
4.60059e-11
4.59872e-11
4.59611e-11
4.59291e-11
4.5889e-11
4.584e-11
4.57783e-11
4.57166e-11
4.56546e-11
4.55854e-11
4.55214e-11
4.54861e-11
4.54721e-11
4.54866e-11
4.55715e-11
4.57436e-11
4.59588e-11
4.6288e-11
4.66991e-11
4.72099e-11
4.75928e-11
4.79439e-11
4.80838e-11
4.72489e-11
4.71011e-11
4.66974e-11
4.62854e-11
4.57436e-11
4.531e-11
4.49774e-11
4.4771e-11
4.46116e-11
4.45259e-11
4.44785e-11
4.44922e-11
4.4529e-11
4.45963e-11
4.46691e-11
4.47398e-11
4.48054e-11
4.48719e-11
4.49244e-11
4.4967e-11
4.50012e-11
4.50288e-11
4.50488e-11
4.50624e-11
4.50687e-11
4.50684e-11
4.50615e-11
4.50474e-11
4.50276e-11
4.50002e-11
4.49665e-11
4.49243e-11
4.48732e-11
4.48077e-11
4.47435e-11
4.46746e-11
4.46034e-11
4.45375e-11
4.4502e-11
4.44891e-11
4.45344e-11
4.46223e-11
4.47707e-11
4.49913e-11
4.53252e-11
4.57587e-11
4.63004e-11
4.67119e-11
4.71052e-11
4.72577e-11
4.6381e-11
4.62121e-11
4.57833e-11
4.53812e-11
4.48176e-11
4.43653e-11
4.40271e-11
4.38117e-11
4.36457e-11
4.35584e-11
4.35141e-11
4.35263e-11
4.35631e-11
4.36329e-11
4.37059e-11
4.37812e-11
4.38475e-11
4.3916e-11
4.39689e-11
4.4012e-11
4.40465e-11
4.40742e-11
4.40944e-11
4.41079e-11
4.41143e-11
4.41139e-11
4.4107e-11
4.40928e-11
4.40731e-11
4.40454e-11
4.40115e-11
4.39688e-11
4.39175e-11
4.38499e-11
4.37851e-11
4.37116e-11
4.36403e-11
4.35718e-11
4.35364e-11
4.35243e-11
4.35672e-11
4.36574e-11
4.38157e-11
4.40414e-11
4.4381e-11
4.4833e-11
4.53963e-11
4.57978e-11
4.62197e-11
4.63903e-11
4.55265e-11
4.53389e-11
4.48869e-11
4.44622e-11
4.38768e-11
4.34083e-11
4.3063e-11
4.28395e-11
4.26692e-11
4.25794e-11
4.25362e-11
4.2547e-11
4.25836e-11
4.26566e-11
4.27293e-11
4.28089e-11
4.28758e-11
4.29315e-11
4.29877e-11
4.3034e-11
4.30712e-11
4.31012e-11
4.3123e-11
4.31377e-11
4.31446e-11
4.31443e-11
4.31367e-11
4.31214e-11
4.31e-11
4.30701e-11
4.30336e-11
4.29876e-11
4.29333e-11
4.28784e-11
4.28131e-11
4.27352e-11
4.26642e-11
4.25927e-11
4.25575e-11
4.25461e-11
4.25879e-11
4.26813e-11
4.2847e-11
4.30777e-11
4.34246e-11
4.38925e-11
4.44772e-11
4.49012e-11
4.53481e-11
4.55358e-11
4.46581e-11
4.44524e-11
4.39771e-11
4.35284e-11
4.29111e-11
4.24247e-11
4.20717e-11
4.1843e-11
4.1673e-11
4.1587e-11
4.15445e-11
4.15543e-11
4.15908e-11
4.16671e-11
4.17393e-11
4.18133e-11
4.18868e-11
4.19474e-11
4.20041e-11
4.20509e-11
4.20884e-11
4.21185e-11
4.21404e-11
4.21551e-11
4.2162e-11
4.21617e-11
4.21541e-11
4.21388e-11
4.21175e-11
4.20874e-11
4.20505e-11
4.20041e-11
4.19494e-11
4.18898e-11
4.18181e-11
4.17455e-11
4.1675e-11
4.16003e-11
4.15652e-11
4.15545e-11
4.15951e-11
4.16862e-11
4.18537e-11
4.20877e-11
4.24424e-11
4.29279e-11
4.35443e-11
4.39908e-11
4.44622e-11
4.46676e-11
4.37573e-11
4.35315e-11
4.30229e-11
4.25464e-11
4.19084e-11
4.1403e-11
4.10441e-11
4.08081e-11
4.06343e-11
4.05472e-11
4.05081e-11
4.05213e-11
4.05629e-11
4.06499e-11
4.073e-11
4.08132e-11
4.08879e-11
4.09499e-11
4.10071e-11
4.10543e-11
4.10919e-11
4.11223e-11
4.11441e-11
4.11588e-11
4.11656e-11
4.11653e-11
4.11578e-11
4.11425e-11
4.11213e-11
4.10911e-11
4.1054e-11
4.10072e-11
4.09522e-11
4.08912e-11
4.08183e-11
4.0737e-11
4.06584e-11
4.0573e-11
4.05329e-11
4.05186e-11
4.05552e-11
4.06481e-11
4.08211e-11
4.10607e-11
4.14218e-11
4.19251e-11
4.25615e-11
4.3038e-11
4.3542e-11
4.37678e-11
4.28264e-11
4.25831e-11
4.20437e-11
4.15455e-11
4.08916e-11
4.03999e-11
4.00357e-11
3.97927e-11
3.9615e-11
3.95265e-11
3.94875e-11
3.95007e-11
3.9542e-11
3.95986e-11
3.9678e-11
3.97655e-11
3.98453e-11
3.99117e-11
3.99728e-11
4.00234e-11
4.00643e-11
4.00973e-11
4.01214e-11
4.01376e-11
4.01452e-11
4.01449e-11
4.01366e-11
4.01197e-11
4.00965e-11
4.00636e-11
4.00233e-11
3.9973e-11
3.99144e-11
3.98491e-11
3.97712e-11
3.96853e-11
3.96073e-11
3.95527e-11
3.95128e-11
3.94987e-11
3.95341e-11
3.96295e-11
3.98075e-11
4.00533e-11
4.04192e-11
4.09082e-11
4.15596e-11
4.20594e-11
4.2593e-11
4.28368e-11
4.18787e-11
4.16191e-11
4.10799e-11
4.05634e-11
3.98953e-11
3.93835e-11
3.90138e-11
3.87644e-11
3.85829e-11
3.84932e-11
3.8454e-11
3.84674e-11
3.85084e-11
3.85676e-11
3.86462e-11
3.87369e-11
3.88184e-11
3.88861e-11
3.8948e-11
3.8999e-11
3.90402e-11
3.90734e-11
3.90975e-11
3.91136e-11
3.91213e-11
3.91209e-11
3.91126e-11
3.90958e-11
3.90728e-11
3.90397e-11
3.89991e-11
3.89484e-11
3.88893e-11
3.88229e-11
3.87433e-11
3.86541e-11
3.85767e-11
3.85197e-11
3.84801e-11
3.84661e-11
3.85004e-11
3.85982e-11
3.87806e-11
3.90325e-11
3.94035e-11
3.9912e-11
4.05766e-11
4.1096e-11
4.1628e-11
4.18888e-11
4.09485e-11
4.06745e-11
4.00968e-11
3.95584e-11
3.88668e-11
3.83546e-11
3.79789e-11
3.77235e-11
3.75383e-11
3.74477e-11
3.7408e-11
3.74218e-11
3.74626e-11
3.75221e-11
3.7602e-11
3.76959e-11
3.7779e-11
3.78477e-11
3.79105e-11
3.79618e-11
3.80032e-11
3.80365e-11
3.80606e-11
3.80767e-11
3.80843e-11
3.80839e-11
3.80756e-11
3.80589e-11
3.80361e-11
3.80029e-11
3.79621e-11
3.7911e-11
3.78515e-11
3.77843e-11
3.7703e-11
3.76107e-11
3.75322e-11
3.74746e-11
3.74353e-11
3.74212e-11
3.74543e-11
3.75545e-11
3.7741e-11
3.79986e-11
3.83754e-11
3.88848e-11
3.95729e-11
4.01157e-11
4.06818e-11
4.0958e-11
4.00042e-11
3.9717e-11
3.91005e-11
3.85492e-11
3.78419e-11
3.73131e-11
3.69314e-11
3.66705e-11
3.64818e-11
3.63906e-11
3.63503e-11
3.63647e-11
3.64052e-11
3.64666e-11
3.65459e-11
3.66429e-11
3.67277e-11
3.67972e-11
3.68607e-11
3.69124e-11
3.69539e-11
3.69872e-11
3.70114e-11
3.70274e-11
3.7035e-11
3.70346e-11
3.70263e-11
3.70096e-11
3.69872e-11
3.6954e-11
3.6913e-11
3.68616e-11
3.68017e-11
3.67338e-11
3.66509e-11
3.65554e-11
3.64774e-11
3.6418e-11
3.63791e-11
3.63647e-11
3.63966e-11
3.64991e-11
3.66894e-11
3.69523e-11
3.73344e-11
3.78602e-11
3.85631e-11
3.91203e-11
3.9722e-11
4.00128e-11
3.9046e-11
3.8744e-11
3.8092e-11
3.75265e-11
3.68029e-11
3.62612e-11
3.58721e-11
3.56064e-11
3.54141e-11
3.53227e-11
3.52817e-11
3.52967e-11
3.53368e-11
3.53998e-11
3.54785e-11
3.55787e-11
3.5665e-11
3.57352e-11
3.57995e-11
3.58514e-11
3.58931e-11
3.59264e-11
3.59505e-11
3.59664e-11
3.5974e-11
3.59736e-11
3.59653e-11
3.59486e-11
3.59268e-11
3.58935e-11
3.58525e-11
3.58007e-11
3.57408e-11
3.56722e-11
3.55878e-11
3.5489e-11
3.54115e-11
3.53507e-11
3.53122e-11
3.52975e-11
3.5328e-11
3.54328e-11
3.56265e-11
3.58942e-11
3.62829e-11
3.68205e-11
3.75403e-11
3.81124e-11
3.87464e-11
3.90533e-11
3.80744e-11
3.77562e-11
3.70718e-11
3.64902e-11
3.57534e-11
3.51979e-11
3.48016e-11
3.4532e-11
3.43361e-11
3.4245e-11
3.4203e-11
3.42189e-11
3.42585e-11
3.43226e-11
3.44006e-11
3.45041e-11
3.45919e-11
3.46626e-11
3.47277e-11
3.47798e-11
3.48215e-11
3.48548e-11
3.48788e-11
3.48947e-11
3.49023e-11
3.49019e-11
3.48936e-11
3.48769e-11
3.48558e-11
3.48224e-11
3.47813e-11
3.47294e-11
3.46694e-11
3.46002e-11
3.45144e-11
3.44122e-11
3.43352e-11
3.42735e-11
3.42355e-11
3.42203e-11
3.42492e-11
3.43564e-11
3.45534e-11
3.48251e-11
3.52199e-11
3.57703e-11
3.65031e-11
3.70922e-11
3.77556e-11
3.80796e-11
3.36461e-11
3.36984e-11
3.37402e-11
3.37734e-11
3.37973e-11
3.38132e-11
3.38206e-11
3.38202e-11
3.3812e-11
3.37953e-11
3.3775e-11
3.37417e-11
3.37005e-11
3.36485e-11
3.35885e-11
3.35187e-11
3.34317e-11
3.3326e-11
3.32453e-11
3.31771e-11
3.31348e-11
3.31151e-11
3.31398e-11
3.32479e-11
3.34479e-11
3.37237e-11
3.41273e-11
3.46945e-11
3.54531e-11
3.60591e-11
3.67515e-11
3.70921e-11
3.26631e-11
3.26286e-11
3.25858e-11
3.25321e-11
3.24703e-11
3.23983e-11
3.23079e-11
3.21967e-11
3.2115e-11
3.20464e-11
3.20046e-11
3.19841e-11
3.20427e-11
3.21533e-11
3.23561e-11
3.26346e-11
3.30432e-11
3.3624e-11
3.4391e-11
3.50134e-11
3.57353e-11
3.60916e-11
3.09395e-11
3.10521e-11
3.12575e-11
3.15381e-11
3.19508e-11
3.25442e-11
3.33196e-11
3.39566e-11
3.47081e-11
3.50788e-11
)
;

boundaryField
{
    fuel
    {
        type            fixedValue;
        value           nonuniform 0();
    }
    wall
    {
        type            zeroGradient;
    }
    outlet
    {
        type            zeroGradient;
    }
    frontAndBack
    {
        type            empty;
    }
    procBoundary0to1
    {
        type            processor;
        value           nonuniform List<scalar> 
50
(
7.00664e-11
7.02325e-11
7.03827e-11
7.04429e-11
7.03951e-11
7.03245e-11
7.0232e-11
7.01699e-11
7.0118e-11
7.00973e-11
7.00863e-11
7.00956e-11
7.01091e-11
7.01333e-11
7.01562e-11
7.01829e-11
7.02057e-11
7.02284e-11
7.02464e-11
7.02629e-11
7.02749e-11
7.02851e-11
7.02918e-11
7.02966e-11
7.02987e-11
7.02986e-11
7.02964e-11
7.02915e-11
7.02847e-11
7.02745e-11
7.02627e-11
7.02464e-11
7.02287e-11
7.02063e-11
7.0184e-11
7.01577e-11
7.01352e-11
7.01115e-11
7.00985e-11
7.00895e-11
7.01007e-11
7.01217e-11
7.01737e-11
7.02359e-11
7.03284e-11
7.03987e-11
7.04461e-11
7.03855e-11
7.02346e-11
7.0068e-11
)
;
    }
    procBoundary0to2
    {
        type            processor;
        value           nonuniform List<scalar> 
53
(
3.70876e-11
3.67511e-11
3.60377e-11
3.54355e-11
3.46747e-11
3.41043e-11
3.36989e-11
3.34265e-11
3.32278e-11
3.31394e-11
3.30992e-11
3.31201e-11
3.31642e-11
3.32348e-11
3.33172e-11
3.3424e-11
3.35134e-11
3.35844e-11
3.35844e-11
3.25331e-11
3.25873e-11
3.26308e-11
3.26651e-11
3.26897e-11
3.27062e-11
3.27139e-11
3.27135e-11
3.2705e-11
3.26877e-11
3.26877e-11
3.15326e-11
3.14982e-11
3.14554e-11
3.14015e-11
3.13398e-11
3.12676e-11
3.11758e-11
3.10974e-11
3.10165e-11
3.09479e-11
3.09067e-11
3.08847e-11
3.08847e-11
2.98352e-11
2.9949e-11
3.0156e-11
3.04371e-11
3.08523e-11
3.1456e-11
3.22379e-11
3.28851e-11
3.3667e-11
3.40523e-11
)
;
    }
}


// ************************************************************************* //
