/*--------------------------------*- C++ -*----------------------------------*\
| =========                 |                                                 |
| \\      /  F ield         | OpenFOAM: The Open Source CFD Toolbox           |
|  \\    /   O peration     | Version:  dev                                   |
|   \\  /    A nd           | Web:      www.OpenFOAM.org                      |
|    \\/     M anipulation  |                                                 |
\*---------------------------------------------------------------------------*/
FoamFile
{
    version     2.0;
    format      ascii;
    class       volScalarField;
    location    "0.02";
    object      HCCO;
}
// * * * * * * * * * * * * * * * * * * * * * * * * * * * * * * * * * * * * * //

dimensions      [0 0 0 0 0 0 0];

internalField   nonuniform List<scalar> 
250
(
6.2622e-07
6.28466e-07
6.16949e-07
6.17973e-07
6.10402e-07
6.13844e-07
6.20119e-07
6.03731e-07
5.8102e-07
4.22498e-07
5.73167e-07
5.75571e-07
5.68572e-07
5.69511e-07
5.61583e-07
5.64071e-07
5.69765e-07
5.54632e-07
5.44727e-07
4.14592e-07
3.98859e-07
5.04335e-07
5.04114e-07
5.18236e-07
5.13562e-07
5.11953e-07
5.20487e-07
5.19882e-07
5.27167e-07
5.24615e-07
5.24642e-07
5.27104e-07
5.19859e-07
5.20326e-07
5.12167e-07
5.1388e-07
5.19e-07
5.04808e-07
5.05022e-07
3.99139e-07
3.75848e-07
4.61719e-07
4.53831e-07
4.67263e-07
4.6305e-07
4.62086e-07
4.71013e-07
4.68795e-07
4.78202e-07
4.7579e-07
4.75806e-07
4.78123e-07
4.68835e-07
4.70833e-07
4.62384e-07
4.63426e-07
4.68036e-07
4.54582e-07
4.62494e-07
3.76343e-07
3.46955e-07
4.17247e-07
4.0366e-07
4.16419e-07
4.12591e-07
4.12239e-07
4.21399e-07
4.19461e-07
4.28972e-07
4.24966e-07
4.24997e-07
4.28873e-07
4.19501e-07
4.21265e-07
4.1259e-07
4.13013e-07
4.17208e-07
4.04462e-07
4.18049e-07
3.47444e-07
3.13683e-07
3.7203e-07
3.54343e-07
3.66241e-07
3.62664e-07
3.62945e-07
3.72056e-07
3.70383e-07
3.79917e-07
3.75964e-07
3.7599e-07
3.79805e-07
3.7045e-07
3.71972e-07
3.63226e-07
3.63114e-07
3.66985e-07
3.55166e-07
3.72837e-07
3.14134e-07
2.77822e-07
3.22416e-07
3.04578e-07
3.16446e-07
3.13892e-07
3.14145e-07
3.23557e-07
3.221e-07
3.31639e-07
3.27678e-07
3.27699e-07
3.31523e-07
3.22224e-07
3.23511e-07
3.1458e-07
3.14352e-07
3.17334e-07
3.05506e-07
3.23259e-07
2.78253e-07
2.4143e-07
2.72859e-07
2.55656e-07
2.69587e-07
2.67048e-07
2.67711e-07
2.76628e-07
2.75278e-07
2.84899e-07
2.80868e-07
2.80884e-07
2.84788e-07
2.75425e-07
2.76607e-07
2.68043e-07
2.67502e-07
2.70403e-07
2.56561e-07
2.73686e-07
2.4185e-07
2.06492e-07
2.30294e-07
2.12842e-07
2.22632e-07
2.22949e-07
2.23841e-07
2.32094e-07
2.30729e-07
2.3793e-07
2.35423e-07
2.35461e-07
2.37844e-07
2.30676e-07
2.32086e-07
2.24153e-07
2.23383e-07
2.23474e-07
2.13686e-07
2.3106e-07
2.06887e-07
1.74373e-07
1.91249e-07
1.74055e-07
1.82159e-07
1.82423e-07
1.83369e-07
1.90801e-07
1.89492e-07
1.96308e-07
1.93898e-07
1.93932e-07
1.96234e-07
1.8944e-07
1.90803e-07
1.83665e-07
1.82821e-07
1.82923e-07
1.74805e-07
1.91921e-07
1.74715e-07
1.45987e-07
1.56624e-07
1.39985e-07
1.46139e-07
1.46159e-07
1.47016e-07
1.53498e-07
1.52329e-07
1.58488e-07
1.56219e-07
1.56248e-07
1.58426e-07
1.52321e-07
1.53506e-07
1.47283e-07
1.46511e-07
1.46799e-07
1.40613e-07
1.57172e-07
1.46247e-07
1.21674e-07
1.26971e-07
1.11026e-07
1.1504e-07
1.14629e-07
1.15278e-07
1.20736e-07
1.19739e-07
1.25071e-07
1.23001e-07
1.23027e-07
1.25019e-07
1.19755e-07
1.20746e-07
1.15508e-07
1.14925e-07
1.15578e-07
1.11516e-07
1.27379e-07
1.21843e-07
1.01201e-07
1.02349e-07
8.71885e-08
8.9022e-08
8.80297e-08
8.83733e-08
9.2795e-08
9.19614e-08
9.64045e-08
9.45843e-08
9.46064e-08
9.63627e-08
9.19845e-08
9.28042e-08
8.8567e-08
8.82685e-08
8.94433e-08
8.75453e-08
1.02628e-07
1.01298e-07
7.10147e-08
7.25054e-08
6.89875e-08
6.96686e-08
6.63981e-08
6.64637e-08
6.82488e-08
6.83279e-08
8.24802e-08
8.40082e-08
)
;

boundaryField
{
    fuel
    {
        type            fixedValue;
        value           nonuniform 0();
    }
    wall
    {
        type            zeroGradient;
    }
    outlet
    {
        type            zeroGradient;
    }
    frontAndBack
    {
        type            empty;
    }
    procBoundary0to1
    {
        type            processor;
        value           nonuniform List<scalar> 
21
(
8.38483e-08
8.22233e-08
6.80472e-08
6.79282e-08
6.6278e-08
6.62464e-08
6.96613e-08
6.89682e-08
7.2538e-08
7.09963e-08
7.09963e-08
5.19994e-08
5.32194e-08
5.0495e-08
5.10699e-08
4.87011e-08
4.91662e-08
5.15469e-08
5.31213e-08
6.6038e-08
6.9179e-08
)
;
    }
    procBoundary0to2
    {
        type            processor;
        value           nonuniform List<scalar> 
12
(
6.26206e-07
4.14248e-07
5.43957e-07
5.54007e-07
5.69082e-07
5.63822e-07
5.61483e-07
5.69509e-07
5.68581e-07
5.75626e-07
5.7314e-07
5.7314e-07
)
;
    }
    procBoundary0to3
    {
        type            processor;
        value           nonuniform List<scalar> 10(6.78208e-07 6.80244e-07 6.69938e-07 6.70942e-07 6.58663e-07 6.63117e-07 6.70111e-07 6.51943e-07 6.13022e-07 4.23199e-07);
    }
}


// ************************************************************************* //
