/*--------------------------------*- C++ -*----------------------------------*\
| =========                 |                                                 |
| \\      /  F ield         | OpenFOAM: The Open Source CFD Toolbox           |
|  \\    /   O peration     | Version:  dev                                   |
|   \\  /    A nd           | Web:      www.OpenFOAM.org                      |
|    \\/     M anipulation  |                                                 |
\*---------------------------------------------------------------------------*/
FoamFile
{
    version     2.0;
    format      ascii;
    class       volScalarField;
    location    "0.02";
    object      i-A1C2H2;
}
// * * * * * * * * * * * * * * * * * * * * * * * * * * * * * * * * * * * * * //

dimensions      [0 0 0 0 0 0 0];

internalField   nonuniform List<scalar> 
250
(
9.51727e-12
1.01885e-11
1.14903e-11
1.39496e-11
1.82234e-11
2.49735e-11
3.2958e-11
4.11308e-11
4.92281e-11
8.27316e-11
9.0597e-12
9.76265e-12
1.1157e-11
1.38666e-11
1.86745e-11
2.6768e-11
3.71927e-11
4.757e-11
5.50252e-11
8.47634e-11
9.04537e-11
6.31155e-11
5.80972e-11
4.49121e-11
3.11247e-11
2.06721e-11
1.46326e-11
1.13084e-11
9.58862e-12
8.73839e-12
8.68404e-12
9.42073e-12
1.09395e-11
1.39217e-11
1.93696e-11
2.90801e-11
4.21021e-11
5.61263e-11
6.30084e-11
9.07698e-11
1.01001e-10
7.3873e-11
6.87321e-11
5.14079e-11
3.45969e-11
2.18597e-11
1.4922e-11
1.12241e-11
9.34104e-12
8.41728e-12
8.3619e-12
9.15761e-12
1.08157e-11
1.41157e-11
2.03181e-11
3.19212e-11
4.79797e-11
6.59003e-11
7.33524e-11
1.00636e-10
1.15649e-10
8.73397e-11
8.1283e-11
5.93161e-11
3.84401e-11
2.33413e-11
1.53664e-11
1.12327e-11
9.1646e-12
8.17714e-12
8.11923e-12
8.96382e-12
1.07786e-11
1.44463e-11
2.15222e-11
3.52661e-11
5.51832e-11
7.74969e-11
8.62605e-11
1.14515e-10
1.34877e-10
1.03792e-10
9.58227e-11
6.80625e-11
4.28404e-11
2.51145e-11
1.59602e-11
1.13256e-11
9.05014e-12
7.99149e-12
7.93027e-12
8.83028e-12
1.08195e-11
1.49072e-11
2.30612e-11
3.90749e-11
6.29974e-11
9.09266e-11
1.01982e-10
1.32832e-10
1.59562e-10
1.23666e-10
1.1255e-10
7.78902e-11
4.77556e-11
2.72861e-11
1.66921e-11
1.14922e-11
8.98729e-12
7.85001e-12
7.78486e-12
8.74661e-12
1.09277e-11
1.54871e-11
2.48725e-11
4.34035e-11
7.17145e-11
1.0633e-10
1.20913e-10
1.56395e-10
1.91233e-10
1.47734e-10
1.31923e-10
8.88674e-11
5.31535e-11
2.97337e-11
1.7546e-11
1.17202e-11
8.96507e-12
7.73732e-12
7.6692e-12
8.70194e-12
1.10912e-11
1.61706e-11
2.69127e-11
4.80546e-11
8.17189e-11
1.24086e-10
1.4377e-10
1.86633e-10
2.32473e-10
1.77403e-10
1.54871e-10
1.01246e-10
5.90592e-11
3.22583e-11
1.8508e-11
1.19995e-11
8.97395e-12
7.6525e-12
7.58007e-12
8.68683e-12
1.13002e-11
1.69743e-11
2.90185e-11
5.31254e-11
9.25892e-11
1.44978e-10
1.71862e-10
2.2599e-10
2.87489e-10
2.15128e-10
1.83066e-10
1.15579e-10
6.56154e-11
3.50323e-11
1.95789e-11
1.23274e-11
9.00918e-12
7.58718e-12
7.51003e-12
8.69653e-12
1.15514e-11
1.78398e-11
3.13272e-11
5.87167e-11
1.05093e-10
1.70459e-10
2.07484e-10
2.78456e-10
3.62812e-10
2.64962e-10
2.19269e-10
1.32868e-10
7.31432e-11
3.81479e-11
2.07894e-11
1.27163e-11
9.07563e-12
7.54464e-12
7.46237e-12
8.73557e-12
1.18557e-11
1.88238e-11
3.39122e-11
6.50826e-11
1.20049e-10
2.02936e-10
2.54417e-10
3.50242e-10
4.68227e-10
3.3324e-10
2.67758e-10
1.54769e-10
8.22245e-11
4.18155e-11
2.22217e-11
1.32048e-11
9.19377e-12
7.54071e-12
7.45277e-12
8.82331e-12
1.22473e-11
1.99957e-11
3.69467e-11
7.27004e-11
1.38822e-10
2.46149e-10
3.18566e-10
4.50668e-10
6.1812e-10
4.29548e-10
3.3492e-10
1.83843e-10
9.38088e-11
4.6418e-11
2.40384e-11
1.38703e-11
9.4067e-12
7.60861e-12
7.514e-12
9.00055e-12
1.27955e-11
2.14951e-11
4.07522e-11
8.2363e-11
1.63554e-10
3.0569e-10
4.08863e-10
5.93469e-10
7.70225e-12
9.3385e-12
1.36215e-11
2.35663e-11
4.58626e-11
9.5298e-11
1.97434e-10
3.89814e-10
5.38709e-10
7.98969e-10
)
;

boundaryField
{
    fuel
    {
        type            fixedValue;
        value           nonuniform 0();
    }
    wall
    {
        type            zeroGradient;
    }
    outlet
    {
        type            zeroGradient;
    }
    frontAndBack
    {
        type            empty;
    }
    procBoundary0to1
    {
        type            processor;
        value           nonuniform List<scalar> 
21
(
8.34298e-10
5.6856e-10
4.30423e-10
2.23959e-10
1.09368e-10
5.25868e-11
2.65233e-11
1.48492e-11
9.79035e-12
7.80581e-12
7.80581e-12
8.10868e-12
9.95458e-12
1.49269e-11
2.66141e-11
5.31185e-11
1.13344e-10
2.45185e-10
5.11067e-10
7.28893e-10
1.0989e-09
)
;
    }
    procBoundary0to2
    {
        type            processor;
        value           nonuniform List<scalar> 
12
(
9.56965e-12
8.37548e-11
5.48227e-11
4.92804e-11
3.91136e-11
2.84694e-11
1.97723e-11
1.44989e-11
1.14919e-11
9.92448e-12
9.11279e-12
9.11279e-12
)
;
    }
    procBoundary0to3
    {
        type            processor;
        value           nonuniform List<scalar> 10(1.01237e-11 1.07646e-11 1.19099e-11 1.41681e-11 1.80027e-11 2.36502e-11 2.98849e-11 3.60727e-11 4.54095e-11 8.50762e-11);
    }
}


// ************************************************************************* //
