/*--------------------------------*- C++ -*----------------------------------*\
| =========                 |                                                 |
| \\      /  F ield         | OpenFOAM: The Open Source CFD Toolbox           |
|  \\    /   O peration     | Version:  dev                                   |
|   \\  /    A nd           | Web:      www.OpenFOAM.org                      |
|    \\/     M anipulation  |                                                 |
\*---------------------------------------------------------------------------*/
FoamFile
{
    version     2.0;
    format      ascii;
    class       volScalarField;
    location    "0.02";
    object      l-C6H6;
}
// * * * * * * * * * * * * * * * * * * * * * * * * * * * * * * * * * * * * * //

dimensions      [0 0 0 0 0 0 0];

internalField   nonuniform List<scalar> 
2014
(
4.28358e-09
4.29419e-09
4.30228e-09
4.30405e-09
4.29758e-09
4.29261e-09
4.28564e-09
4.28261e-09
4.27923e-09
4.27849e-09
4.27731e-09
4.27753e-09
4.27712e-09
4.27739e-09
4.27702e-09
4.27702e-09
4.27649e-09
4.27625e-09
4.27566e-09
4.27531e-09
4.27477e-09
4.27445e-09
4.27409e-09
4.27391e-09
4.27377e-09
4.27377e-09
4.27389e-09
4.27407e-09
4.27442e-09
4.27473e-09
4.27525e-09
4.27559e-09
4.27617e-09
4.27641e-09
4.27692e-09
4.27691e-09
4.27728e-09
4.27701e-09
4.27743e-09
4.27721e-09
4.2784e-09
4.27915e-09
4.28255e-09
4.28562e-09
4.29261e-09
4.29761e-09
4.30411e-09
4.30235e-09
4.29427e-09
4.28366e-09
4.12921e-09
4.13914e-09
4.14603e-09
4.14714e-09
4.14039e-09
4.13513e-09
4.12812e-09
4.1249e-09
4.12149e-09
4.12063e-09
4.11943e-09
4.11957e-09
4.11915e-09
4.11937e-09
4.11899e-09
4.11896e-09
4.11843e-09
4.11817e-09
4.11758e-09
4.11721e-09
4.11667e-09
4.11635e-09
4.11598e-09
4.11579e-09
4.11566e-09
4.11565e-09
4.11578e-09
4.11596e-09
4.11631e-09
4.11663e-09
4.11715e-09
4.11751e-09
4.11809e-09
4.11835e-09
4.11886e-09
4.11889e-09
4.11926e-09
4.11903e-09
4.11947e-09
4.11932e-09
4.12054e-09
4.12141e-09
4.12484e-09
4.12809e-09
4.13514e-09
4.14043e-09
4.1472e-09
4.14611e-09
4.13923e-09
4.1293e-09
3.98665e-09
3.99591e-09
4.00166e-09
4.00212e-09
3.99509e-09
3.98953e-09
3.98246e-09
3.97907e-09
3.97562e-09
3.97464e-09
3.9734e-09
3.97348e-09
3.97303e-09
3.97321e-09
3.97282e-09
3.97276e-09
3.97223e-09
3.97194e-09
3.97135e-09
3.97096e-09
3.97043e-09
3.97009e-09
3.96972e-09
3.96953e-09
3.96939e-09
3.96939e-09
3.96951e-09
3.9697e-09
3.97006e-09
3.97038e-09
3.97091e-09
3.97128e-09
3.97186e-09
3.97214e-09
3.97266e-09
3.97271e-09
3.9731e-09
3.97292e-09
3.97337e-09
3.9733e-09
3.97454e-09
3.97553e-09
3.97901e-09
3.98243e-09
3.98954e-09
3.99512e-09
4.00218e-09
4.00174e-09
3.99599e-09
3.98673e-09
3.8547e-09
3.86329e-09
3.86797e-09
3.86779e-09
3.86048e-09
3.85462e-09
3.84748e-09
3.84391e-09
3.84041e-09
3.83932e-09
3.83805e-09
3.83805e-09
3.83758e-09
3.83771e-09
3.83731e-09
3.83722e-09
3.83668e-09
3.83637e-09
3.83577e-09
3.83538e-09
3.83484e-09
3.83449e-09
3.83412e-09
3.83392e-09
3.83378e-09
3.83378e-09
3.83391e-09
3.83409e-09
3.83445e-09
3.83479e-09
3.83532e-09
3.8357e-09
3.83629e-09
3.83659e-09
3.83712e-09
3.8372e-09
3.8376e-09
3.83747e-09
3.83794e-09
3.83794e-09
3.83922e-09
3.84033e-09
3.84385e-09
3.84745e-09
3.85462e-09
3.86051e-09
3.86785e-09
3.86805e-09
3.86338e-09
3.85478e-09
3.7323e-09
3.74023e-09
3.74388e-09
3.74309e-09
3.73548e-09
3.72932e-09
3.72211e-09
3.71837e-09
3.71482e-09
3.7136e-09
3.7123e-09
3.71222e-09
3.71174e-09
3.71181e-09
3.7114e-09
3.71128e-09
3.71073e-09
3.7104e-09
3.70979e-09
3.70938e-09
3.70884e-09
3.70848e-09
3.70811e-09
3.7079e-09
3.70777e-09
3.70776e-09
3.70789e-09
3.70808e-09
3.70845e-09
3.70879e-09
3.70932e-09
3.70972e-09
3.71032e-09
3.71064e-09
3.71118e-09
3.71129e-09
3.7117e-09
3.71162e-09
3.71211e-09
3.71219e-09
3.71351e-09
3.71473e-09
3.71831e-09
3.72208e-09
3.72932e-09
3.73551e-09
3.74315e-09
3.74397e-09
3.74032e-09
3.73239e-09
3.61851e-09
3.62578e-09
3.62847e-09
3.62706e-09
3.61916e-09
3.61268e-09
3.60539e-09
3.60149e-09
3.59788e-09
3.59655e-09
3.59521e-09
3.59506e-09
3.59454e-09
3.59457e-09
3.59414e-09
3.59398e-09
3.59342e-09
3.59307e-09
3.59246e-09
3.59203e-09
3.59148e-09
3.59112e-09
3.59074e-09
3.59053e-09
3.59039e-09
3.59038e-09
3.59051e-09
3.59071e-09
3.59108e-09
3.59143e-09
3.59197e-09
3.59239e-09
3.59299e-09
3.59333e-09
3.59388e-09
3.59403e-09
3.59445e-09
3.59443e-09
3.59494e-09
3.5951e-09
3.59645e-09
3.59779e-09
3.60142e-09
3.60536e-09
3.61269e-09
3.61919e-09
3.62713e-09
3.62855e-09
3.62587e-09
3.6186e-09
3.51248e-09
3.51911e-09
3.52086e-09
3.51886e-09
3.51066e-09
3.50387e-09
3.49649e-09
3.49242e-09
3.48875e-09
3.48731e-09
3.48592e-09
3.4857e-09
3.48516e-09
3.48513e-09
3.48468e-09
3.48449e-09
3.48392e-09
3.48355e-09
3.48292e-09
3.48248e-09
3.48192e-09
3.48155e-09
3.48116e-09
3.48095e-09
3.48081e-09
3.4808e-09
3.48093e-09
3.48114e-09
3.48151e-09
3.48187e-09
3.48242e-09
3.48285e-09
3.48346e-09
3.48382e-09
3.48438e-09
3.48457e-09
3.48501e-09
3.48504e-09
3.48558e-09
3.48581e-09
3.48721e-09
3.48867e-09
3.49236e-09
3.49646e-09
3.50387e-09
3.51069e-09
3.51893e-09
3.52095e-09
3.51921e-09
3.51257e-09
3.41347e-09
3.41947e-09
3.42033e-09
3.41774e-09
3.40923e-09
3.40212e-09
3.39466e-09
3.39042e-09
3.38669e-09
3.38513e-09
3.38369e-09
3.3834e-09
3.38282e-09
3.38274e-09
3.38227e-09
3.38205e-09
3.38146e-09
3.38107e-09
3.38043e-09
3.37998e-09
3.37941e-09
3.37902e-09
3.37863e-09
3.37841e-09
3.37827e-09
3.37827e-09
3.3784e-09
3.37861e-09
3.37898e-09
3.37936e-09
3.37991e-09
3.38036e-09
3.38098e-09
3.38136e-09
3.38194e-09
3.38216e-09
3.38262e-09
3.3827e-09
3.38328e-09
3.38358e-09
3.38502e-09
3.3866e-09
3.39036e-09
3.39463e-09
3.40213e-09
3.40927e-09
3.41781e-09
3.42042e-09
3.41956e-09
3.41357e-09
3.32081e-09
3.32618e-09
3.32618e-09
3.32302e-09
3.31421e-09
3.30677e-09
3.29921e-09
3.29482e-09
3.29101e-09
3.28934e-09
3.28785e-09
3.28748e-09
3.28687e-09
3.28674e-09
3.28625e-09
3.28599e-09
3.28538e-09
3.28496e-09
3.28432e-09
3.28385e-09
3.28327e-09
3.28287e-09
3.28248e-09
3.28225e-09
3.28211e-09
3.2821e-09
3.28224e-09
3.28245e-09
3.28283e-09
3.28322e-09
3.28378e-09
3.28424e-09
3.28488e-09
3.28528e-09
3.28588e-09
3.28613e-09
3.28662e-09
3.28675e-09
3.28736e-09
3.28774e-09
3.28923e-09
3.29092e-09
3.29475e-09
3.29918e-09
3.30677e-09
3.31424e-09
3.32309e-09
3.32627e-09
3.32627e-09
3.32091e-09
3.23391e-09
3.23865e-09
3.23783e-09
3.23411e-09
3.22499e-09
3.21721e-09
3.20957e-09
3.20501e-09
3.20113e-09
3.19934e-09
3.1978e-09
3.19736e-09
3.19671e-09
3.19652e-09
3.19601e-09
3.19571e-09
3.19508e-09
3.19464e-09
3.19399e-09
3.1935e-09
3.19291e-09
3.1925e-09
3.1921e-09
3.19187e-09
3.19172e-09
3.19172e-09
3.19185e-09
3.19207e-09
3.19246e-09
3.19286e-09
3.19343e-09
3.19391e-09
3.19455e-09
3.19498e-09
3.1956e-09
3.19589e-09
3.1964e-09
3.19659e-09
3.19724e-09
3.19769e-09
3.19923e-09
3.20104e-09
3.20494e-09
3.20953e-09
3.21722e-09
3.22503e-09
3.23418e-09
3.23792e-09
3.23875e-09
3.234e-09
3.15223e-09
3.15636e-09
3.15474e-09
3.15047e-09
3.14105e-09
3.13292e-09
3.12518e-09
3.12047e-09
3.11651e-09
3.11461e-09
3.11301e-09
3.1125e-09
3.11181e-09
3.11156e-09
3.11102e-09
3.11068e-09
3.11004e-09
3.10958e-09
3.1089e-09
3.1084e-09
3.1078e-09
3.10738e-09
3.10697e-09
3.10673e-09
3.10658e-09
3.10658e-09
3.10671e-09
3.10694e-09
3.10734e-09
3.10775e-09
3.10833e-09
3.10882e-09
3.10948e-09
3.10994e-09
3.11057e-09
3.1109e-09
3.11144e-09
3.11169e-09
3.11238e-09
3.1129e-09
3.1145e-09
3.11642e-09
3.1204e-09
3.12515e-09
3.13293e-09
3.14109e-09
3.15055e-09
3.15484e-09
3.15646e-09
3.15232e-09
3.07531e-09
3.07884e-09
3.07645e-09
3.07163e-09
3.0619e-09
3.05343e-09
3.04559e-09
3.04072e-09
3.03669e-09
3.03467e-09
3.03301e-09
3.03242e-09
3.03169e-09
3.03138e-09
3.03081e-09
3.03043e-09
3.02977e-09
3.02928e-09
3.0286e-09
3.02807e-09
3.02746e-09
3.02703e-09
3.02661e-09
3.02637e-09
3.02622e-09
3.02621e-09
3.02635e-09
3.02658e-09
3.02699e-09
3.02741e-09
3.028e-09
3.02851e-09
3.02919e-09
3.02967e-09
3.03032e-09
3.03069e-09
3.03126e-09
3.03157e-09
3.0323e-09
3.03289e-09
3.03455e-09
3.03659e-09
3.04065e-09
3.04555e-09
3.05343e-09
3.06194e-09
3.07171e-09
3.07655e-09
3.07894e-09
3.0754e-09
3.00272e-09
3.00566e-09
3.00253e-09
2.99717e-09
2.98711e-09
2.97833e-09
2.97037e-09
2.96534e-09
2.96123e-09
2.95909e-09
2.95738e-09
2.95671e-09
2.95594e-09
2.95557e-09
2.95496e-09
2.95455e-09
2.95386e-09
2.95335e-09
2.95264e-09
2.9521e-09
2.95148e-09
2.95103e-09
2.95061e-09
2.95036e-09
2.9502e-09
2.9502e-09
2.95034e-09
2.95058e-09
2.95099e-09
2.95142e-09
2.95203e-09
2.95256e-09
2.95326e-09
2.95376e-09
2.95443e-09
2.95484e-09
2.95544e-09
2.95581e-09
2.95659e-09
2.95726e-09
2.95898e-09
2.96113e-09
2.96527e-09
2.97033e-09
2.97831e-09
2.98717e-09
2.99726e-09
3.00263e-09
3.00576e-09
3.00281e-09
2.93409e-09
2.93645e-09
2.9326e-09
2.92671e-09
2.91631e-09
2.90723e-09
2.89914e-09
2.89396e-09
2.88976e-09
2.88751e-09
2.88573e-09
2.88499e-09
2.88417e-09
2.88373e-09
2.88309e-09
2.88264e-09
2.88193e-09
2.88139e-09
2.88067e-09
2.8801e-09
2.87947e-09
2.87901e-09
2.87857e-09
2.87832e-09
2.87816e-09
2.87816e-09
2.8783e-09
2.87855e-09
2.87897e-09
2.87941e-09
2.88003e-09
2.88058e-09
2.8813e-09
2.88182e-09
2.88252e-09
2.88297e-09
2.8836e-09
2.88404e-09
2.88486e-09
2.88561e-09
2.88739e-09
2.88966e-09
2.89388e-09
2.8991e-09
2.90722e-09
2.91637e-09
2.9268e-09
2.9327e-09
2.93655e-09
2.93418e-09
2.86909e-09
2.87088e-09
2.86632e-09
2.85992e-09
2.84917e-09
2.83979e-09
2.83156e-09
2.82624e-09
2.82195e-09
2.81958e-09
2.81773e-09
2.81692e-09
2.81605e-09
2.81554e-09
2.81486e-09
2.81437e-09
2.81364e-09
2.81308e-09
2.81233e-09
2.81175e-09
2.8111e-09
2.81063e-09
2.81018e-09
2.80992e-09
2.80976e-09
2.80975e-09
2.8099e-09
2.81015e-09
2.81058e-09
2.81104e-09
2.81168e-09
2.81224e-09
2.81298e-09
2.81353e-09
2.81426e-09
2.81474e-09
2.81541e-09
2.81591e-09
2.81679e-09
2.81761e-09
2.81946e-09
2.82184e-09
2.82615e-09
2.83152e-09
2.83978e-09
2.84922e-09
2.86001e-09
2.86643e-09
2.87098e-09
2.86919e-09
2.80743e-09
2.80864e-09
2.80341e-09
2.79649e-09
2.78538e-09
2.77572e-09
2.76734e-09
2.76187e-09
2.75749e-09
2.755e-09
2.75308e-09
2.7522e-09
2.75127e-09
2.75069e-09
2.74998e-09
2.74945e-09
2.74869e-09
2.74811e-09
2.74733e-09
2.74673e-09
2.74607e-09
2.74558e-09
2.74512e-09
2.74486e-09
2.74469e-09
2.74469e-09
2.74484e-09
2.7451e-09
2.74553e-09
2.74601e-09
2.74666e-09
2.74725e-09
2.74801e-09
2.74858e-09
2.74933e-09
2.74985e-09
2.75056e-09
2.75113e-09
2.75207e-09
2.75296e-09
2.75487e-09
2.75738e-09
2.76178e-09
2.7673e-09
2.77571e-09
2.78544e-09
2.79658e-09
2.80351e-09
2.80874e-09
2.80752e-09
2.74882e-09
2.74948e-09
2.74359e-09
2.73616e-09
2.72468e-09
2.71474e-09
2.70621e-09
2.70058e-09
2.69612e-09
2.6935e-09
2.69151e-09
2.69055e-09
2.68957e-09
2.68891e-09
2.68816e-09
2.6876e-09
2.68681e-09
2.6862e-09
2.6854e-09
2.68478e-09
2.6841e-09
2.6836e-09
2.68313e-09
2.68286e-09
2.68269e-09
2.68268e-09
2.68284e-09
2.6831e-09
2.68355e-09
2.68404e-09
2.6847e-09
2.68532e-09
2.6861e-09
2.68671e-09
2.68748e-09
2.68804e-09
2.68878e-09
2.68943e-09
2.69042e-09
2.6914e-09
2.69337e-09
2.696e-09
2.70049e-09
2.70616e-09
2.71473e-09
2.72474e-09
2.73625e-09
2.74369e-09
2.74957e-09
2.74891e-09
2.69305e-09
2.69314e-09
2.68661e-09
2.67868e-09
2.66682e-09
2.6566e-09
2.64791e-09
2.64213e-09
2.63758e-09
2.63484e-09
2.63278e-09
2.63174e-09
2.63069e-09
2.62996e-09
2.62917e-09
2.62858e-09
2.62776e-09
2.62713e-09
2.6263e-09
2.62565e-09
2.62496e-09
2.62444e-09
2.62396e-09
2.62368e-09
2.62351e-09
2.6235e-09
2.62366e-09
2.62393e-09
2.62439e-09
2.6249e-09
2.62558e-09
2.62621e-09
2.62703e-09
2.62766e-09
2.62846e-09
2.62904e-09
2.62983e-09
2.63055e-09
2.6316e-09
2.63266e-09
2.63471e-09
2.63745e-09
2.64204e-09
2.64786e-09
2.65659e-09
2.66688e-09
2.67877e-09
2.68671e-09
2.69324e-09
2.69313e-09
2.63988e-09
2.63942e-09
2.63226e-09
2.62383e-09
2.61158e-09
2.60109e-09
2.59222e-09
2.58631e-09
2.58166e-09
2.57879e-09
2.57666e-09
2.57554e-09
2.57443e-09
2.57362e-09
2.57279e-09
2.57217e-09
2.57132e-09
2.57065e-09
2.5698e-09
2.56913e-09
2.56841e-09
2.56788e-09
2.56739e-09
2.5671e-09
2.56693e-09
2.56692e-09
2.56708e-09
2.56736e-09
2.56783e-09
2.56835e-09
2.56905e-09
2.56971e-09
2.57055e-09
2.57121e-09
2.57205e-09
2.57266e-09
2.57349e-09
2.57428e-09
2.5754e-09
2.57655e-09
2.57866e-09
2.58153e-09
2.58622e-09
2.59217e-09
2.60107e-09
2.61164e-09
2.62393e-09
2.63236e-09
2.63951e-09
2.63995e-09
2.58912e-09
2.58812e-09
2.58035e-09
2.57143e-09
2.55878e-09
2.54801e-09
2.53896e-09
2.53291e-09
2.52816e-09
2.52516e-09
2.52295e-09
2.52175e-09
2.52057e-09
2.51969e-09
2.51881e-09
2.51817e-09
2.51729e-09
2.51659e-09
2.5157e-09
2.51501e-09
2.51427e-09
2.51372e-09
2.51322e-09
2.51292e-09
2.51275e-09
2.51274e-09
2.5129e-09
2.51319e-09
2.51367e-09
2.51421e-09
2.51493e-09
2.51561e-09
2.51649e-09
2.51718e-09
2.51805e-09
2.51868e-09
2.51956e-09
2.52042e-09
2.52162e-09
2.52285e-09
2.52502e-09
2.52802e-09
2.53281e-09
2.53891e-09
2.54799e-09
2.55884e-09
2.57152e-09
2.58045e-09
2.5882e-09
2.5892e-09
2.54062e-09
2.53906e-09
2.53069e-09
2.52129e-09
2.50822e-09
2.49717e-09
2.48793e-09
2.48174e-09
2.47689e-09
2.47376e-09
2.47149e-09
2.4702e-09
2.46894e-09
2.46799e-09
2.46706e-09
2.4664e-09
2.46548e-09
2.46475e-09
2.46383e-09
2.46311e-09
2.46236e-09
2.46178e-09
2.46127e-09
2.46097e-09
2.46079e-09
2.46078e-09
2.46095e-09
2.46125e-09
2.46173e-09
2.46229e-09
2.46303e-09
2.46374e-09
2.46465e-09
2.46537e-09
2.46629e-09
2.46692e-09
2.46785e-09
2.46879e-09
2.47006e-09
2.47139e-09
2.47362e-09
2.47675e-09
2.48165e-09
2.48788e-09
2.49715e-09
2.50828e-09
2.52139e-09
2.53079e-09
2.53914e-09
2.54068e-09
2.4942e-09
2.49209e-09
2.48313e-09
2.47325e-09
2.45975e-09
2.44841e-09
2.43897e-09
2.43265e-09
2.4277e-09
2.42443e-09
2.42209e-09
2.42071e-09
2.41937e-09
2.41835e-09
2.41736e-09
2.41671e-09
2.41574e-09
2.41498e-09
2.41403e-09
2.41327e-09
2.41249e-09
2.4119e-09
2.41138e-09
2.41107e-09
2.41089e-09
2.41088e-09
2.41105e-09
2.41135e-09
2.41185e-09
2.41243e-09
2.41319e-09
2.41393e-09
2.41488e-09
2.41563e-09
2.41659e-09
2.41722e-09
2.41821e-09
2.41922e-09
2.42057e-09
2.422e-09
2.42429e-09
2.42755e-09
2.43257e-09
2.43891e-09
2.44839e-09
2.4598e-09
2.47335e-09
2.48322e-09
2.49216e-09
2.49425e-09
2.44973e-09
2.44707e-09
2.43751e-09
2.42718e-09
2.41321e-09
2.40159e-09
2.39193e-09
2.38548e-09
2.38043e-09
2.37702e-09
2.37461e-09
2.37314e-09
2.3717e-09
2.37061e-09
2.36956e-09
2.36893e-09
2.36791e-09
2.36711e-09
2.36612e-09
2.36534e-09
2.36454e-09
2.36393e-09
2.36339e-09
2.36307e-09
2.36288e-09
2.36288e-09
2.36305e-09
2.36336e-09
2.36388e-09
2.36447e-09
2.36526e-09
2.36603e-09
2.36701e-09
2.3678e-09
2.36881e-09
2.36942e-09
2.37047e-09
2.37155e-09
2.373e-09
2.37452e-09
2.37688e-09
2.38027e-09
2.38542e-09
2.39186e-09
2.40155e-09
2.41326e-09
2.42727e-09
2.4376e-09
2.44713e-09
2.44977e-09
2.40707e-09
2.40385e-09
2.39369e-09
2.38292e-09
2.36846e-09
2.35652e-09
2.34668e-09
2.34009e-09
2.33492e-09
2.33139e-09
2.32891e-09
2.32733e-09
2.3258e-09
2.32464e-09
2.32351e-09
2.32292e-09
2.32185e-09
2.32102e-09
2.31999e-09
2.31917e-09
2.31834e-09
2.31771e-09
2.31717e-09
2.31684e-09
2.31664e-09
2.31663e-09
2.31681e-09
2.31714e-09
2.31766e-09
2.31828e-09
2.31909e-09
2.3199e-09
2.32091e-09
2.32174e-09
2.3228e-09
2.32337e-09
2.32449e-09
2.32565e-09
2.32719e-09
2.32883e-09
2.33123e-09
2.33476e-09
2.34006e-09
2.34661e-09
2.35648e-09
2.36851e-09
2.383e-09
2.39378e-09
2.40393e-09
2.4071e-09
2.36611e-09
2.36233e-09
2.35153e-09
2.34031e-09
2.32541e-09
2.31308e-09
2.3031e-09
2.29634e-09
2.29105e-09
2.28738e-09
2.28486e-09
2.28316e-09
2.28153e-09
2.28028e-09
2.27908e-09
2.27856e-09
2.27743e-09
2.27655e-09
2.27549e-09
2.27464e-09
2.27378e-09
2.27313e-09
2.27257e-09
2.27223e-09
2.27203e-09
2.27202e-09
2.2722e-09
2.27253e-09
2.27308e-09
2.27372e-09
2.27456e-09
2.2754e-09
2.27645e-09
2.27732e-09
2.27844e-09
2.27894e-09
2.28014e-09
2.28137e-09
2.28301e-09
2.28477e-09
2.28722e-09
2.29088e-09
2.29636e-09
2.30302e-09
2.31303e-09
2.32545e-09
2.34039e-09
2.35162e-09
2.36244e-09
2.36612e-09
2.32674e-09
2.32235e-09
2.31091e-09
2.29924e-09
2.28393e-09
2.27113e-09
2.26104e-09
2.25407e-09
2.24866e-09
2.24486e-09
2.2423e-09
2.24047e-09
2.23873e-09
2.2374e-09
2.23611e-09
2.23571e-09
2.23451e-09
2.2336e-09
2.23249e-09
2.2316e-09
2.23072e-09
2.23004e-09
2.22946e-09
2.22911e-09
2.22891e-09
2.2289e-09
2.22909e-09
2.22943e-09
2.22999e-09
2.23065e-09
2.23152e-09
2.2324e-09
2.23349e-09
2.2344e-09
2.23559e-09
2.23597e-09
2.23726e-09
2.23857e-09
2.24031e-09
2.2422e-09
2.24469e-09
2.24848e-09
2.25417e-09
2.26096e-09
2.27108e-09
2.28394e-09
2.2993e-09
2.31098e-09
2.32258e-09
2.32673e-09
2.28884e-09
2.28378e-09
2.27171e-09
2.25958e-09
2.24386e-09
2.23195e-09
2.22176e-09
2.21455e-09
2.209e-09
2.20508e-09
2.2025e-09
2.20053e-09
2.19868e-09
2.19728e-09
2.19588e-09
2.19424e-09
2.19296e-09
2.19201e-09
2.19086e-09
2.18993e-09
2.18901e-09
2.18831e-09
2.18771e-09
2.18735e-09
2.18714e-09
2.18714e-09
2.18733e-09
2.18768e-09
2.18826e-09
2.18895e-09
2.18985e-09
2.19077e-09
2.1919e-09
2.19285e-09
2.19411e-09
2.19573e-09
2.19713e-09
2.19852e-09
2.20037e-09
2.20239e-09
2.20489e-09
2.20882e-09
2.21477e-09
2.22167e-09
2.23189e-09
2.24386e-09
2.25961e-09
2.27175e-09
2.28422e-09
2.28879e-09
2.2523e-09
2.24781e-09
2.23514e-09
2.22256e-09
2.20643e-09
2.19372e-09
2.18318e-09
2.17553e-09
2.1698e-09
2.16574e-09
2.16327e-09
2.16123e-09
2.15942e-09
2.15814e-09
2.1569e-09
2.15537e-09
2.15401e-09
2.15303e-09
2.15184e-09
2.15087e-09
2.14991e-09
2.14919e-09
2.14857e-09
2.1482e-09
2.14798e-09
2.14797e-09
2.14817e-09
2.14854e-09
2.14914e-09
2.14985e-09
2.15078e-09
2.15175e-09
2.15292e-09
2.1539e-09
2.15524e-09
2.15677e-09
2.15801e-09
2.15927e-09
2.16109e-09
2.16314e-09
2.16555e-09
2.16962e-09
2.17596e-09
2.1831e-09
2.19369e-09
2.20641e-09
2.22257e-09
2.23515e-09
2.24726e-09
2.2522e-09
2.21822e-09
2.21309e-09
2.19934e-09
2.18592e-09
2.16906e-09
2.15578e-09
2.14521e-09
2.13845e-09
2.13258e-09
2.12837e-09
2.12469e-09
2.12248e-09
2.12056e-09
2.11921e-09
2.11791e-09
2.11652e-09
2.11516e-09
2.11423e-09
2.11306e-09
2.1121e-09
2.11117e-09
2.11046e-09
2.10986e-09
2.10949e-09
2.10928e-09
2.10927e-09
2.10946e-09
2.10982e-09
2.11041e-09
2.11111e-09
2.11202e-09
2.11296e-09
2.11413e-09
2.11505e-09
2.11639e-09
2.11779e-09
2.11908e-09
2.12041e-09
2.12233e-09
2.12453e-09
2.12816e-09
2.13238e-09
2.13783e-09
2.14511e-09
2.15574e-09
2.16903e-09
2.18592e-09
2.19935e-09
2.21272e-09
2.21808e-09
2.18424e-09
2.17838e-09
2.16405e-09
2.15121e-09
2.13392e-09
2.1202e-09
2.10954e-09
2.10246e-09
2.09635e-09
2.09202e-09
2.08839e-09
2.08603e-09
2.08399e-09
2.08259e-09
2.08119e-09
2.07985e-09
2.07841e-09
2.07748e-09
2.07626e-09
2.07526e-09
2.07429e-09
2.07355e-09
2.07293e-09
2.07255e-09
2.07233e-09
2.07232e-09
2.07252e-09
2.0729e-09
2.0735e-09
2.07423e-09
2.07518e-09
2.07617e-09
2.07737e-09
2.0783e-09
2.07972e-09
2.08106e-09
2.08246e-09
2.08384e-09
2.08587e-09
2.08821e-09
2.09181e-09
2.09618e-09
2.10199e-09
2.10943e-09
2.12015e-09
2.13388e-09
2.15117e-09
2.16401e-09
2.17811e-09
2.18406e-09
2.15238e-09
2.14589e-09
2.13101e-09
2.11754e-09
2.09982e-09
2.08571e-09
2.07488e-09
2.06754e-09
2.06125e-09
2.05676e-09
2.05308e-09
2.05056e-09
2.04842e-09
2.04698e-09
2.04547e-09
2.04418e-09
2.04266e-09
2.0412e-09
2.04004e-09
2.0391e-09
2.03818e-09
2.03749e-09
2.0369e-09
2.03654e-09
2.03634e-09
2.03633e-09
2.03651e-09
2.03686e-09
2.03744e-09
2.03812e-09
2.03901e-09
2.03995e-09
2.0411e-09
2.04255e-09
2.04405e-09
2.04534e-09
2.04684e-09
2.04826e-09
2.05041e-09
2.05288e-09
2.05652e-09
2.06107e-09
2.06716e-09
2.07476e-09
2.08564e-09
2.09975e-09
2.11748e-09
2.13092e-09
2.14564e-09
2.15214e-09
2.12156e-09
2.11445e-09
2.09901e-09
2.08488e-09
2.06637e-09
2.05177e-09
2.04076e-09
2.03322e-09
2.0269e-09
2.02244e-09
2.01869e-09
2.01602e-09
2.01376e-09
2.01231e-09
2.01067e-09
2.0091e-09
2.00769e-09
2.00634e-09
2.00513e-09
2.00416e-09
2.00321e-09
2.00249e-09
2.00189e-09
2.00151e-09
2.0013e-09
2.00129e-09
2.00148e-09
2.00184e-09
2.00244e-09
2.00315e-09
2.00407e-09
2.00504e-09
2.00624e-09
2.00759e-09
2.00897e-09
2.01054e-09
2.01216e-09
2.0136e-09
2.01586e-09
2.01847e-09
2.02218e-09
2.02674e-09
2.03293e-09
2.04064e-09
2.05172e-09
2.0663e-09
2.08481e-09
2.09885e-09
2.11417e-09
2.12126e-09
2.09114e-09
2.08334e-09
2.067e-09
2.0521e-09
2.03311e-09
2.01796e-09
2.00679e-09
1.99898e-09
1.99249e-09
1.98788e-09
1.98413e-09
1.98144e-09
1.97922e-09
1.97802e-09
1.97653e-09
1.97517e-09
1.97369e-09
1.97231e-09
1.97107e-09
1.97005e-09
1.96908e-09
1.96833e-09
1.96771e-09
1.96731e-09
1.96709e-09
1.96708e-09
1.96728e-09
1.96766e-09
1.96828e-09
1.96901e-09
1.96997e-09
1.97098e-09
1.97221e-09
1.97359e-09
1.97504e-09
1.9764e-09
1.97788e-09
1.97907e-09
1.98129e-09
1.98391e-09
1.9876e-09
1.99231e-09
1.99874e-09
2.00666e-09
2.01791e-09
2.03301e-09
2.05196e-09
2.06684e-09
2.08303e-09
2.0908e-09
2.06118e-09
2.05276e-09
2.03557e-09
2.02005e-09
2.00068e-09
1.98593e-09
1.97459e-09
1.96651e-09
1.95983e-09
1.95506e-09
1.95121e-09
1.9484e-09
1.94605e-09
1.94383e-09
1.94223e-09
1.94091e-09
1.93948e-09
1.93817e-09
1.93699e-09
1.93604e-09
1.93513e-09
1.93444e-09
1.93386e-09
1.9335e-09
1.9333e-09
1.93329e-09
1.93347e-09
1.93382e-09
1.93439e-09
1.93507e-09
1.93595e-09
1.9369e-09
1.93808e-09
1.93938e-09
1.94079e-09
1.9421e-09
1.94368e-09
1.9459e-09
1.94824e-09
1.95098e-09
1.95475e-09
1.95964e-09
1.9663e-09
1.97446e-09
1.98587e-09
2.00055e-09
2.01984e-09
2.03537e-09
2.05236e-09
2.06075e-09
2.03199e-09
2.02296e-09
2.0058e-09
1.98972e-09
1.96997e-09
1.95455e-09
1.94301e-09
1.93466e-09
1.92777e-09
1.92285e-09
1.91888e-09
1.91595e-09
1.9135e-09
1.91129e-09
1.90958e-09
1.90828e-09
1.9068e-09
1.90547e-09
1.90425e-09
1.90328e-09
1.90235e-09
1.90164e-09
1.90105e-09
1.90067e-09
1.90046e-09
1.90045e-09
1.90064e-09
1.901e-09
1.90159e-09
1.90229e-09
1.9032e-09
1.90416e-09
1.90538e-09
1.90669e-09
1.90815e-09
1.90944e-09
1.91113e-09
1.91335e-09
1.91579e-09
1.91866e-09
1.92251e-09
1.92758e-09
1.93447e-09
1.94288e-09
1.95447e-09
1.9698e-09
1.98944e-09
2.00555e-09
2.02247e-09
2.03147e-09
2.00443e-09
1.99481e-09
1.97653e-09
1.95974e-09
1.93929e-09
1.92376e-09
1.91197e-09
1.90334e-09
1.89624e-09
1.89116e-09
1.88707e-09
1.88403e-09
1.88148e-09
1.87919e-09
1.87744e-09
1.87615e-09
1.87463e-09
1.87329e-09
1.87205e-09
1.87106e-09
1.8701e-09
1.86938e-09
1.86877e-09
1.86839e-09
1.86817e-09
1.86816e-09
1.86836e-09
1.86873e-09
1.86934e-09
1.87004e-09
1.87097e-09
1.87196e-09
1.87321e-09
1.87453e-09
1.87603e-09
1.8773e-09
1.87904e-09
1.88132e-09
1.88387e-09
1.88685e-09
1.89079e-09
1.89605e-09
1.90316e-09
1.91184e-09
1.92367e-09
1.93912e-09
1.95946e-09
1.97629e-09
1.99421e-09
2.00379e-09
1.97748e-09
1.96729e-09
1.94785e-09
1.93055e-09
1.90957e-09
1.89344e-09
1.88139e-09
1.87247e-09
1.86514e-09
1.8599e-09
1.85567e-09
1.85254e-09
1.84988e-09
1.84757e-09
1.84572e-09
1.84445e-09
1.8429e-09
1.84156e-09
1.8403e-09
1.83928e-09
1.83831e-09
1.83757e-09
1.83696e-09
1.83656e-09
1.83634e-09
1.83633e-09
1.83653e-09
1.83691e-09
1.83753e-09
1.83825e-09
1.8392e-09
1.84021e-09
1.84148e-09
1.84281e-09
1.84434e-09
1.84559e-09
1.84742e-09
1.84973e-09
1.85239e-09
1.85547e-09
1.8595e-09
1.86495e-09
1.87229e-09
1.88125e-09
1.89333e-09
1.90938e-09
1.93021e-09
1.94757e-09
1.96655e-09
1.97672e-09
1.95109e-09
1.94025e-09
1.9197e-09
1.9018e-09
1.88021e-09
1.86356e-09
1.85116e-09
1.84195e-09
1.83438e-09
1.82898e-09
1.82461e-09
1.82138e-09
1.81862e-09
1.81626e-09
1.81434e-09
1.81309e-09
1.81152e-09
1.81016e-09
1.8089e-09
1.80787e-09
1.80688e-09
1.80613e-09
1.80551e-09
1.8051e-09
1.80488e-09
1.80487e-09
1.80507e-09
1.80546e-09
1.8061e-09
1.80683e-09
1.80779e-09
1.80882e-09
1.8101e-09
1.81144e-09
1.81299e-09
1.81422e-09
1.81613e-09
1.81848e-09
1.82124e-09
1.82443e-09
1.82854e-09
1.8342e-09
1.84178e-09
1.85102e-09
1.86342e-09
1.87996e-09
1.9014e-09
1.91937e-09
1.93935e-09
1.95018e-09
1.92518e-09
1.91362e-09
1.89199e-09
1.87336e-09
1.85119e-09
1.83394e-09
1.82118e-09
1.81167e-09
1.80385e-09
1.7983e-09
1.79377e-09
1.79045e-09
1.78759e-09
1.78518e-09
1.78317e-09
1.78195e-09
1.78036e-09
1.77901e-09
1.77777e-09
1.77672e-09
1.77572e-09
1.77496e-09
1.77433e-09
1.77392e-09
1.77369e-09
1.77367e-09
1.77388e-09
1.77427e-09
1.77494e-09
1.77568e-09
1.77665e-09
1.77769e-09
1.77899e-09
1.78033e-09
1.7819e-09
1.7831e-09
1.78508e-09
1.78749e-09
1.79035e-09
1.79365e-09
1.79783e-09
1.8037e-09
1.81153e-09
1.82106e-09
1.8338e-09
1.85089e-09
1.87288e-09
1.89159e-09
1.91255e-09
1.9241e-09
1.74681e-09
1.74574e-09
1.74473e-09
1.74396e-09
1.74332e-09
1.74291e-09
1.74267e-09
1.74266e-09
1.74286e-09
1.74326e-09
1.74398e-09
1.74472e-09
1.7457e-09
1.74675e-09
1.74807e-09
1.74941e-09
1.75098e-09
1.75213e-09
1.75407e-09
1.75638e-09
1.75921e-09
1.76251e-09
1.76668e-09
1.77274e-09
1.78083e-09
1.79068e-09
1.80386e-09
1.82165e-09
1.84459e-09
1.86408e-09
1.88608e-09
1.89839e-09
1.7125e-09
1.71321e-09
1.71415e-09
1.71517e-09
1.71645e-09
1.71775e-09
1.71924e-09
1.72026e-09
1.72222e-09
1.72459e-09
1.72752e-09
1.73091e-09
1.73607e-09
1.74235e-09
1.75072e-09
1.76088e-09
1.77444e-09
1.79291e-09
1.81641e-09
1.83676e-09
1.85989e-09
1.87296e-09
1.70532e-09
1.71184e-09
1.7205e-09
1.73099e-09
1.74495e-09
1.76413e-09
1.78828e-09
1.80952e-09
1.83387e-09
1.84773e-09
)
;

boundaryField
{
    fuel
    {
        type            fixedValue;
        value           nonuniform 0();
    }
    wall
    {
        type            zeroGradient;
    }
    outlet
    {
        type            zeroGradient;
    }
    frontAndBack
    {
        type            empty;
    }
    procBoundary0to1
    {
        type            processor;
        value           nonuniform List<scalar> 
50
(
4.45086e-09
4.46216e-09
4.47156e-09
4.47406e-09
4.46789e-09
4.46325e-09
4.45635e-09
4.45351e-09
4.45018e-09
4.44958e-09
4.44842e-09
4.44873e-09
4.44832e-09
4.44865e-09
4.44827e-09
4.44831e-09
4.44779e-09
4.44757e-09
4.44697e-09
4.44664e-09
4.4461e-09
4.4458e-09
4.44544e-09
4.44526e-09
4.44513e-09
4.44512e-09
4.44524e-09
4.44541e-09
4.44577e-09
4.44606e-09
4.44658e-09
4.44691e-09
4.44749e-09
4.4477e-09
4.44821e-09
4.44817e-09
4.44854e-09
4.44821e-09
4.44862e-09
4.44832e-09
4.44948e-09
4.4501e-09
4.45346e-09
4.45632e-09
4.46325e-09
4.46792e-09
4.47411e-09
4.47163e-09
4.46224e-09
4.45094e-09
)
;
    }
    procBoundary0to2
    {
        type            processor;
        value           nonuniform List<scalar> 
53
(
1.89924e-09
1.88695e-09
1.86431e-09
1.84484e-09
1.82178e-09
1.80389e-09
1.7907e-09
1.7809e-09
1.77282e-09
1.76721e-09
1.76261e-09
1.75931e-09
1.75648e-09
1.75418e-09
1.75224e-09
1.75108e-09
1.74949e-09
1.74814e-09
1.74814e-09
1.71532e-09
1.7143e-09
1.71333e-09
1.7126e-09
1.71198e-09
1.71157e-09
1.71134e-09
1.71133e-09
1.71153e-09
1.71191e-09
1.71191e-09
1.68072e-09
1.68142e-09
1.68236e-09
1.68336e-09
1.68464e-09
1.68594e-09
1.6874e-09
1.68925e-09
1.69126e-09
1.69367e-09
1.69667e-09
1.70012e-09
1.70012e-09
1.6744e-09
1.68113e-09
1.69007e-09
1.70088e-09
1.7152e-09
1.73507e-09
1.75988e-09
1.7819e-09
1.80752e-09
1.82215e-09
)
;
    }
}


// ************************************************************************* //
