/*--------------------------------*- C++ -*----------------------------------*\
| =========                 |                                                 |
| \\      /  F ield         | OpenFOAM: The Open Source CFD Toolbox           |
|  \\    /   O peration     | Version:  dev                                   |
|   \\  /    A nd           | Web:      www.OpenFOAM.org                      |
|    \\/     M anipulation  |                                                 |
\*---------------------------------------------------------------------------*/
FoamFile
{
    version     2.0;
    format      ascii;
    class       volVectorField;
    location    "0.02";
    object      U;
}
// * * * * * * * * * * * * * * * * * * * * * * * * * * * * * * * * * * * * * //

dimensions      [0 1 -1 0 0 0 0];

internalField   nonuniform List<vector> 
250
(
(0 -0.0507357 0.548199)
(0 -0.266871 0.559962)
(0 -0.347711 0.52989)
(0 -0.575792 0.530285)
(0 -0.672015 0.509809)
(0 -0.921428 0.489638)
(0 -1.0192 0.490303)
(0 -1.34094 0.49022)
(0 -1.36759 0.59406)
(0 -1.59357 0.607032)
(0 -0.0522177 0.532832)
(0 -0.274834 0.544412)
(0 -0.358796 0.513658)
(0 -0.591349 0.513204)
(0 -0.691251 0.492092)
(0 -0.944007 0.470863)
(0 -1.04478 0.469911)
(0 -1.37123 0.468887)
(0 -1.40868 0.578552)
(0 -1.65519 0.590642)
(0 1.67454 0.565724)
(0 1.42571 0.574763)
(0 1.37455 0.44473)
(0 1.04949 0.451058)
(0 0.943255 0.44914)
(0 0.685837 0.47123)
(0 0.582683 0.494389)
(0 0.342561 0.494669)
(0 0.257139 0.528363)
(0 0.0271458 0.519675)
(0 -0.0537215 0.5168)
(0 -0.282282 0.528156)
(0 -0.369337 0.496797)
(0 -0.605881 0.49549)
(0 -0.709162 0.473794)
(0 -0.96471 0.451618)
(0 -1.06808 0.44904)
(0 -1.39801 0.446768)
(0 -1.44548 0.561793)
(0 -1.71227 0.572813)
(0 1.727 0.547599)
(0 1.45794 0.55688)
(0 1.39802 0.422399)
(0 1.06997 0.429577)
(0 0.961595 0.4293)
(0 0.701899 0.452208)
(0 0.595567 0.475877)
(0 0.351904 0.477082)
(0 0.26355 0.511357)
(0 0.0279161 0.502873)
(0 -0.0552178 0.500051)
(0 -0.289213 0.511165)
(0 -0.379271 0.479321)
(0 -0.619341 0.477158)
(0 -0.725662 0.454937)
(0 -0.983438 0.431998)
(0 -1.08899 0.427711)
(0 -1.42115 0.424031)
(0 -1.4778 0.543775)
(0 -1.7645 0.553682)
(0 1.7746 0.528292)
(0 1.48573 0.537797)
(0 1.41783 0.399681)
(0 1.088 0.407645)
(0 0.97791 0.409082)
(0 0.71653 0.432637)
(0 0.607393 0.456752)
(0 0.360677 0.458869)
(0 0.269511 0.493625)
(0 0.0287664 0.485375)
(0 -0.0566764 0.48261)
(0 -0.295628 0.493449)
(0 -0.388537 0.461216)
(0 -0.631683 0.458231)
(0 -0.74067 0.435494)
(0 -1.00009 0.412049)
(0 -1.10737 0.405955)
(0 -1.44057 0.400952)
(0 -1.50546 0.524536)
(0 -1.81157 0.533378)
(0 1.8171 0.507913)
(0 1.50888 0.517546)
(0 1.43385 0.37668)
(0 1.10348 0.385376)
(0 0.992089 0.388513)
(0 0.729639 0.412475)
(0 0.618113 0.437035)
(0 0.368814 0.440038)
(0 0.27502 0.475164)
(0 0.0296569 0.467205)
(0 -0.0580617 0.464506)
(0 -0.301525 0.475012)
(0 -0.397081 0.442485)
(0 -0.64286 0.438725)
(0 -0.75411 0.41542)
(0 -1.01458 0.391729)
(0 -1.12313 0.383882)
(0 -1.45615 0.377677)
(0 -1.52831 0.504134)
(0 -1.85322 0.512023)
(0 1.85425 0.486576)
(0 1.5272 0.496175)
(0 1.44598 0.353488)
(0 1.11627 0.362864)
(0 1.00404 0.367601)
(0 0.74114 0.3917)
(0 0.627676 0.416743)
(0 0.376252 0.420597)
(0 0.280078 0.455978)
(0 0.0305456 0.448325)
(0 -0.0593391 0.445711)
(0 -0.306906 0.455854)
(0 -0.404848 0.423137)
(0 -0.652823 0.418644)
(0 -0.765906 0.394753)
(0 -1.02681 0.370978)
(0 -1.13618 0.361532)
(0 -1.46782 0.354263)
(0 -1.54619 0.482632)
(0 -1.88918 0.489733)
(0 1.88579 0.464383)
(0 1.54054 0.473742)
(0 1.4541 0.330205)
(0 1.12628 0.340154)
(0 1.01366 0.346394)
(0 0.750953 0.370459)
(0 0.636031 0.395896)
(0 0.38293 0.400563)
(0 0.284688 0.436076)
(0 0.0313909 0.428694)
(0 -0.0604765 0.42617)
(0 -0.311771 0.435981)
(0 -0.411789 0.403186)
(0 -0.661525 0.397962)
(0 -0.775989 0.373639)
(0 -1.03671 0.349852)
(0 -1.14641 0.338936)
(0 -1.47551 0.33079)
(0 -1.55898 0.460102)
(0 -1.91923 0.466618)
(0 1.91149 0.44143)
(0 1.54874 0.450316)
(0 1.45812 0.306937)
(0 1.13339 0.317316)
(0 1.02085 0.32495)
(0 0.759004 0.348921)
(0 0.643139 0.374536)
(0 0.388794 0.379956)
(0 0.288854 0.415469)
(0 0.0321542 0.408342)
(0 -0.0614436 0.405897)
(0 -0.316128 0.415403)
(0 -0.417856 0.382644)
(0 -0.668934 0.376698)
(0 -0.784298 0.352222)
(0 -1.04419 0.328472)
(0 -1.15375 0.316205)
(0 -1.47916 0.307365)
(0 -1.56658 0.436628)
(0 -1.94314 0.442785)
(0 1.93111 0.417812)
(0 1.55166 0.425974)
(0 1.45798 0.283796)
(0 1.1375 0.294434)
(0 1.02553 0.30332)
(0 0.765226 0.327111)
(0 0.648965 0.352713)
(0 0.393795 0.358802)
(0 0.292576 0.394173)
(0 0.0327928 0.387316)
(0 -0.0622075 0.384948)
(0 -0.319977 0.394134)
(0 -0.423007 0.361537)
(0 -0.675017 0.354963)
(0 -0.790778 0.330515)
(0 -1.04917 0.306909)
(0 -1.15811 0.293435)
(0 -1.47873 0.284093)
(0 -1.56892 0.412307)
(0 -1.96074 0.418341)
(0 1.94444 0.39362)
(0 1.54924 0.400809)
(0 1.45364 0.260893)
(0 1.13853 0.271597)
(0 1.02763 0.281569)
(0 0.769559 0.305022)
(0 0.653468 0.330475)
(0 0.397891 0.337137)
(0 0.295857 0.372209)
(0 0.0332649 0.365626)
(0 -0.0627363 0.363336)
(0 -0.323318 0.372192)
(0 -0.427212 0.339901)
(0 -0.679736 0.332826)
(0 -0.795377 0.308507)
(0 -1.05159 0.285216)
(0 -1.15943 0.27072)
(0 -1.4742 0.261084)
(0 -1.56596 0.387245)
(0 -1.97187 0.393388)
(0 1.95133 0.36894)
(0 1.5414 0.374927)
(0 1.44505 0.23834)
(0 1.1364 0.2489)
(0 1.02709 0.259774)
(0 0.771952 0.282717)
(0 0.656613 0.307879)
(0 0.401045 0.314999)
(0 0.298695 0.349605)
(0 0.0335297 0.343294)
(0 -0.0629992 0.34108)
(0 -0.326151 0.349604)
(0 -0.430439 0.317777)
(0 -0.683059 0.310305)
(0 -0.798052 0.286255)
(0 -1.05142 0.263457)
(0 -1.15765 0.248162)
(0 -1.46556 0.238454)
(0 -1.5577 0.361561)
(0 -1.97643 0.368027)
(0 1.95166 0.343862)
(0 1.52816 0.348448)
(0 1.43221 0.216251)
(0 1.13105 0.226442)
(0 1.02387 0.238022)
(0 0.772365 0.260282)
(0 0.658369 0.284988)
(0 0.403225 0.292441)
(0 0.301093 0.326392)
(0 0.0335474 0.32035)
(0 -0.0629655 0.318211)
(0 -0.328476 0.326401)
(0 -0.43266 0.295211)
(0 -0.684953 0.287455)
(0 -0.798766 0.263839)
(0 -1.04861 0.241704)
(0 -1.15272 0.225851)
(0 -1.4528 0.216308)
(0 -1.54416 0.335381)
(0 -1.9744 0.342354)
(0 -0.0626043 0.294772)
(0 -0.330292 0.302623)
(0 -0.433852 0.272262)
(0 -0.685395 0.264348)
(0 -0.797494 0.241349)
(0 -1.04316 0.220044)
(0 -1.14461 0.203878)
(0 -1.43597 0.194755)
(0 -1.52542 0.308841)
(0 -1.9658 0.316464)
)
;

boundaryField
{
    fuel
    {
        type            fixedValue;
        value           nonuniform 0();
    }
    wall
    {
        type            slip;
    }
    outlet
    {
        type            pressureInletOutletVelocity;
        value           nonuniform List<vector> 
25
(
(0 1.67454 0.565724)
(0 1.727 0.547599)
(0 1.7746 0.528292)
(0 1.8171 0.507913)
(0 1.85425 0.486576)
(0 1.88579 0.464383)
(0 1.91149 0.44143)
(0 1.93111 0.417812)
(0 1.94444 0.39362)
(0 1.95133 0.36894)
(0 1.95166 0.343862)
(0 -1.59357 0.607032)
(0 -1.65519 0.590642)
(0 -1.71227 0.572813)
(0 -1.7645 0.553682)
(0 -1.81157 0.533378)
(0 -1.85322 0.512023)
(0 -1.88918 0.489733)
(0 -1.91923 0.466618)
(0 -1.94314 0.442785)
(0 -1.96074 0.418341)
(0 -1.97187 0.393388)
(0 -1.97643 0.368027)
(0 -1.9744 0.342354)
(0 -1.9658 0.316464)
)
;
    }
    frontAndBack
    {
        type            empty;
    }
    procBoundary0to1
    {
        type            processor;
        value           nonuniform List<vector> 
21
(
(0 1.9454 0.318468)
(0 1.50954 0.321493)
(0 1.41515 0.194737)
(0 1.12244 0.20433)
(0 1.01796 0.216407)
(0 0.770768 0.237805)
(0 0.65871 0.261882)
(0 0.404405 0.269522)
(0 0.303053 0.302611)
(0 0.0332783 0.296836)
(0 0.0332783 0.296836)
(0 -0.0618837 0.270817)
(0 -0.331599 0.278323)
(0 -0.433995 0.248996)
(0 -0.684362 0.241061)
(0 -0.794217 0.218875)
(0 -1.03507 0.198567)
(0 -1.13333 0.182347)
(0 -1.41511 0.173894)
(0 -1.50161 0.282072)
(0 -1.95076 0.290439)
)
;
    }
    procBoundary0to2
    {
        type            processor;
        value           nonuniform List<vector> 
12
(
(0 0.0259696 0.551147)
(0 1.61748 0.582538)
(0 1.38924 0.591416)
(0 1.34756 0.466589)
(0 1.02671 0.472013)
(0 0.923 0.468504)
(0 0.668438 0.489685)
(0 0.568784 0.51227)
(0 0.332719 0.511626)
(0 0.250278 0.544627)
(0 0.0264874 0.535749)
(0 0.0264874 0.535749)
)
;
    }
    procBoundary0to3
    {
        type            processor;
        value           nonuniform List<vector> 10((0 -0.0493017 0.562948) (0 -0.258404 0.57484) (0 -0.336146 0.545473) (0 -0.559258 0.546719) (0 -0.651547 0.526931) (0 -0.897072 0.507857) (0 -0.991481 0.510101) (0 -1.30723 0.510837) (0 -1.32243 0.608308) (0 -1.52781 0.621832));
    }
}


// ************************************************************************* //
