/*--------------------------------*- C++ -*----------------------------------*\
| =========                 |                                                 |
| \\      /  F ield         | OpenFOAM: The Open Source CFD Toolbox           |
|  \\    /   O peration     | Version:  dev                                   |
|   \\  /    A nd           | Web:      www.OpenFOAM.org                      |
|    \\/     M anipulation  |                                                 |
\*---------------------------------------------------------------------------*/
FoamFile
{
    version     2.0;
    format      ascii;
    class       volScalarField;
    location    "0.055";
    object      i-C4H3;
}
// * * * * * * * * * * * * * * * * * * * * * * * * * * * * * * * * * * * * * //

dimensions      [0 0 0 0 0 0 0];

internalField   nonuniform List<scalar> 
25
(
2.06977e-09
1.94703e-09
1.81564e-09
1.67637e-09
1.53203e-09
1.38662e-09
1.24601e-09
1.10963e-09
9.78479e-10
8.59186e-10
7.50066e-10
6.51728e-10
5.64125e-10
4.86976e-10
4.19755e-10
3.61669e-10
3.11417e-10
2.68826e-10
2.32611e-10
2.01386e-10
1.75303e-10
1.53144e-10
1.34302e-10
1.18252e-10
1.04544e-10
)
;

boundaryField
{
    wall
    {
        type            zeroGradient;
    }
    fuel
    {
        type            fixedValue;
        value           nonuniform 0();
    }
    outlet
    {
        type            inletOutlet;
        inletValue      nonuniform 0();
        value           nonuniform 0();
    }
    procBoundary2to1
    {
        type            processor;
        value           uniform 2.18198e-09;
    }
    procBoundary2to3
    {
        type            processor;
        value           uniform 9.27796e-11;
    }
}


// ************************************************************************* //
