/*--------------------------------*- C++ -*----------------------------------*\
| =========                 |                                                 |
| \\      /  F ield         | OpenFOAM: The Open Source CFD Toolbox           |
|  \\    /   O peration     | Version:  dev                                   |
|   \\  /    A nd           | Web:      www.OpenFOAM.org                      |
|    \\/     M anipulation  |                                                 |
\*---------------------------------------------------------------------------*/
FoamFile
{
    version     2.0;
    format      ascii;
    class       volScalarField;
    location    "0.055";
    object      p_rgh;
}
// * * * * * * * * * * * * * * * * * * * * * * * * * * * * * * * * * * * * * //

dimensions      [1 -1 -2 0 0 0 0];

internalField   nonuniform List<scalar> 
25
(
99987.1
99987.4
99987.6
99987.9
99988.2
99988.5
99988.8
99989.1
99989.4
99989.7
99990
99990.4
99990.7
99991
99991.3
99991.7
99992
99992.4
99992.7
99993.1
99993.5
99993.8
99994.2
99994.6
99994.9
)
;

boundaryField
{
    wall
    {
        type            fixedFluxPressure;
        gradient        uniform 0;
        value           nonuniform List<scalar> 
100
(
99987.1
99987.4
99987.6
99987.9
99988.2
99988.5
99988.8
99989.1
99989.4
99989.7
99990
99990.4
99990.7
99991
99991.3
99991.7
99992
99992.4
99992.7
99993.1
99993.5
99993.8
99994.2
99994.6
99994.9
99987.1
99987.4
99987.6
99987.9
99988.2
99988.5
99988.8
99989.1
99989.4
99989.7
99990
99990.4
99990.7
99991
99991.3
99991.7
99992
99992.4
99992.7
99993.1
99993.5
99993.8
99994.2
99994.6
99994.9
99987.1
99987.4
99987.6
99987.9
99988.2
99988.5
99988.8
99989.1
99989.4
99989.7
99990
99990.4
99990.7
99991
99991.3
99991.7
99992
99992.4
99992.7
99993.1
99993.5
99993.8
99994.2
99994.6
99994.9
99987.1
99987.4
99987.6
99987.9
99988.2
99988.5
99988.8
99989.1
99989.4
99989.7
99990
99990.4
99990.7
99991
99991.3
99991.7
99992
99992.4
99992.7
99993.1
99993.5
99993.8
99994.2
99994.6
99994.9
)
;
    }
    fuel
    {
        type            fixedFluxPressure;
        gradient        nonuniform 0();
        value           nonuniform 0();
    }
    outlet
    {
        type            fixedFluxPressure;
        gradient        nonuniform 0();
        value           nonuniform 0();
    }
    procBoundary2to1
    {
        type            processor;
        value           uniform 99986.8;
    }
    procBoundary2to3
    {
        type            processor;
        value           uniform 99995.3;
    }
}


// ************************************************************************* //
