/*--------------------------------*- C++ -*----------------------------------*\
| =========                 |                                                 |
| \\      /  F ield         | OpenFOAM: The Open Source CFD Toolbox           |
|  \\    /   O peration     | Version:  dev                                   |
|   \\  /    A nd           | Web:      www.OpenFOAM.org                      |
|    \\/     M anipulation  |                                                 |
\*---------------------------------------------------------------------------*/
FoamFile
{
    version     2.0;
    format      ascii;
    class       volVectorField;
    location    "0.055";
    object      U;
}
// * * * * * * * * * * * * * * * * * * * * * * * * * * * * * * * * * * * * * //

dimensions      [0 1 -1 0 0 0 0];

internalField   nonuniform List<vector> 
25
(
(3.29805e-13 -3.29805e-13 0.0824592)
(3.23622e-13 -3.23622e-13 0.0833177)
(3.17398e-13 -3.17398e-13 0.0841138)
(3.11144e-13 -3.11144e-13 0.0850493)
(3.04842e-13 -3.04842e-13 0.0859686)
(2.98498e-13 -2.98498e-13 0.0868902)
(2.92106e-13 -2.92106e-13 0.0878322)
(2.85673e-13 -2.85673e-13 0.088822)
(2.79192e-13 -2.79192e-13 0.0898146)
(2.72668e-13 -2.72668e-13 0.0907572)
(2.66098e-13 -2.66098e-13 0.0917068)
(2.59489e-13 -2.59489e-13 0.0925989)
(2.52855e-13 -2.52855e-13 0.0934789)
(2.46178e-13 -2.46178e-13 0.0943505)
(2.3945e-13 -2.3945e-13 0.0951691)
(2.32685e-13 -2.32685e-13 0.0960045)
(2.25886e-13 -2.25886e-13 0.0968351)
(2.19058e-13 -2.19058e-13 0.0976819)
(2.12201e-13 -2.12201e-13 0.0985178)
(2.05314e-13 -2.05314e-13 0.0993263)
(1.98399e-13 -1.98399e-13 0.10011)
(1.91455e-13 -1.91455e-13 0.100881)
(1.84487e-13 -1.84487e-13 0.101647)
(1.77498e-13 -1.77498e-13 0.102392)
(1.70496e-13 -1.70496e-13 0.103106)
)
;

boundaryField
{
    wall
    {
        type            zeroGradient;
    }
    fuel
    {
        type            fixedValue;
        value           nonuniform 0();
    }
    outlet
    {
        type            pressureInletOutletVelocity;
        value           nonuniform 0();
    }
    procBoundary2to1
    {
        type            processor;
        value           uniform (3.35947e-13 -3.35947e-13 0.0816473);
    }
    procBoundary2to3
    {
        type            processor;
        value           uniform (1.6349e-13 -1.6349e-13 0.103779);
    }
}


// ************************************************************************* //
