/*--------------------------------*- C++ -*----------------------------------*\
| =========                 |                                                 |
| \\      /  F ield         | OpenFOAM: The Open Source CFD Toolbox           |
|  \\    /   O peration     | Version:  dev                                   |
|   \\  /    A nd           | Web:      www.OpenFOAM.org                      |
|    \\/     M anipulation  |                                                 |
\*---------------------------------------------------------------------------*/
FoamFile
{
    version     2.0;
    format      ascii;
    class       volScalarField;
    location    "0.05";
    object      A1C2H;
}
// * * * * * * * * * * * * * * * * * * * * * * * * * * * * * * * * * * * * * //

dimensions      [0 0 0 0 0 0 0];

internalField   nonuniform List<scalar> 
100
(
6.27049e-11
2.00213e-10
3.14104e-10
3.56606e-10
3.29432e-10
2.61704e-10
1.87545e-10
1.25178e-10
8.05425e-11
5.10397e-11
3.23406e-11
2.0774e-11
1.36817e-11
9.35711e-12
6.74577e-12
5.18083e-12
4.27318e-12
3.79114e-12
3.59553e-12
3.60042e-12
3.75007e-12
4.0056e-12
4.33774e-12
4.72313e-12
5.14248e-12
5.57986e-12
6.02268e-12
6.4606e-12
6.88555e-12
7.29198e-12
7.67592e-12
8.03474e-12
8.3667e-12
8.67077e-12
8.94634e-12
9.1931e-12
9.41097e-12
9.60002e-12
9.76037e-12
9.8923e-12
9.9965e-12
1.00721e-11
1.01175e-11
1.01326e-11
1.01162e-11
1.00662e-11
9.98066e-12
9.85685e-12
9.69278e-12
9.48649e-12
9.23708e-12
8.94223e-12
8.60928e-12
8.23215e-12
7.82201e-12
7.3854e-12
6.93884e-12
6.47767e-12
6.01106e-12
5.56206e-12
5.12835e-12
4.71639e-12
4.33138e-12
3.97716e-12
3.64986e-12
3.36184e-12
3.10662e-12
2.8825e-12
2.68724e-12
2.51464e-12
2.36816e-12
2.24112e-12
2.13019e-12
2.03218e-12
1.94426e-12
1.86419e-12
1.78884e-12
1.71701e-12
1.64874e-12
1.58574e-12
1.52374e-12
1.46182e-12
1.39924e-12
1.33564e-12
1.27016e-12
1.20011e-12
1.1327e-12
1.06324e-12
9.92014e-13
9.19126e-13
8.44717e-13
7.68984e-13
6.91797e-13
6.11754e-13
5.31853e-13
4.45563e-13
3.58751e-13
2.61362e-13
1.66276e-13
9.32332e-14
)
;

boundaryField
{
    front
    {
        type            wedge;
    }
    back
    {
        type            wedge;
    }
    wall
    {
        type            zeroGradient;
    }
    fuel
    {
        type            fixedValue;
        value           uniform 0;
    }
    outlet
    {
        type            inletOutlet;
        inletValue      uniform 0;
        value           uniform 9.32332e-14;
    }
    axis
    {
        type            empty;
    }
}


// ************************************************************************* //
