/*--------------------------------*- C++ -*----------------------------------*\
| =========                 |                                                 |
| \\      /  F ield         | OpenFOAM: The Open Source CFD Toolbox           |
|  \\    /   O peration     | Version:  dev                                   |
|   \\  /    A nd           | Web:      www.OpenFOAM.org                      |
|    \\/     M anipulation  |                                                 |
\*---------------------------------------------------------------------------*/
FoamFile
{
    version     2.0;
    format      ascii;
    class       volScalarField;
    location    "0.05";
    object      A2C2HB;
}
// * * * * * * * * * * * * * * * * * * * * * * * * * * * * * * * * * * * * * //

dimensions      [0 0 0 0 0 0 0];

internalField   nonuniform List<scalar> 
100
(
9.85453e-15
7.74079e-15
6.10928e-15
4.96505e-15
4.01226e-15
3.21455e-15
2.57916e-15
2.0955e-15
1.7386e-15
1.4812e-15
1.29882e-15
1.17334e-15
1.09171e-15
1.04559e-15
1.03075e-15
1.04459e-15
1.08556e-15
1.15236e-15
1.2439e-15
1.35964e-15
1.50009e-15
1.66713e-15
1.86394e-15
2.09459e-15
2.36336e-15
2.6742e-15
3.0303e-15
3.43422e-15
3.88744e-15
4.39144e-15
4.94746e-15
5.55677e-15
6.22062e-15
6.94015e-15
7.71615e-15
8.54887e-15
9.43775e-15
1.03814e-14
1.13772e-14
1.24218e-14
1.35185e-14
1.46599e-14
1.58221e-14
1.70117e-14
1.82217e-14
1.94456e-14
2.0677e-14
2.19108e-14
2.31383e-14
2.43544e-14
2.55532e-14
2.67394e-14
2.78853e-14
2.90154e-14
3.01044e-14
3.11475e-14
3.21217e-14
3.30524e-14
3.39338e-14
3.47356e-14
3.54739e-14
3.61462e-14
3.67503e-14
3.72835e-14
3.77521e-14
3.81376e-14
3.84465e-14
3.86768e-14
3.88269e-14
3.88962e-14
3.888e-14
3.87773e-14
3.85853e-14
3.83008e-14
3.79213e-14
3.74464e-14
3.68671e-14
3.6183e-14
3.54069e-14
3.45801e-14
3.36659e-14
3.26633e-14
3.15718e-14
3.03958e-14
2.91279e-14
2.77195e-14
2.63218e-14
2.4845e-14
2.32944e-14
2.16751e-14
1.99967e-14
1.82669e-14
1.64848e-14
1.4619e-14
1.27406e-14
1.06967e-14
8.62753e-15
6.29489e-15
4.0092e-15
2.24953e-15
)
;

boundaryField
{
    front
    {
        type            wedge;
    }
    back
    {
        type            wedge;
    }
    wall
    {
        type            zeroGradient;
    }
    fuel
    {
        type            fixedValue;
        value           uniform 0;
    }
    outlet
    {
        type            inletOutlet;
        inletValue      uniform 0;
        value           uniform 2.24953e-15;
    }
    axis
    {
        type            empty;
    }
}


// ************************************************************************* //
