/*--------------------------------*- C++ -*----------------------------------*\
| =========                 |                                                 |
| \\      /  F ield         | OpenFOAM: The Open Source CFD Toolbox           |
|  \\    /   O peration     | Version:  dev                                   |
|   \\  /    A nd           | Web:      www.OpenFOAM.org                      |
|    \\/     M anipulation  |                                                 |
\*---------------------------------------------------------------------------*/
FoamFile
{
    version     2.0;
    format      ascii;
    class       volScalarField;
    location    "0.05";
    object      A2R5;
}
// * * * * * * * * * * * * * * * * * * * * * * * * * * * * * * * * * * * * * //

dimensions      [0 0 0 0 0 0 0];

internalField   nonuniform List<scalar> 
100
(
3.8777e-12
3.6286e-12
3.21723e-12
2.87592e-12
2.57893e-12
2.31684e-12
2.08959e-12
1.89813e-12
1.74035e-12
1.61341e-12
1.51304e-12
1.43523e-12
1.37601e-12
1.3325e-12
1.30343e-12
1.28795e-12
1.28599e-12
1.2978e-12
1.32368e-12
1.36381e-12
1.41809e-12
1.48607e-12
1.56696e-12
1.65973e-12
1.76311e-12
1.87573e-12
1.99615e-12
2.12304e-12
2.25499e-12
2.3908e-12
2.5294e-12
2.6698e-12
2.81117e-12
2.95277e-12
3.09395e-12
3.23413e-12
3.3728e-12
3.5095e-12
3.6438e-12
3.7753e-12
3.90454e-12
4.03085e-12
4.15196e-12
4.26906e-12
4.38181e-12
4.49003e-12
4.59352e-12
4.69222e-12
4.78576e-12
4.87406e-12
4.95695e-12
5.03496e-12
5.10649e-12
5.17316e-12
5.23356e-12
5.2875e-12
5.33392e-12
5.37409e-12
5.40767e-12
5.43352e-12
5.45224e-12
5.4637e-12
5.46778e-12
5.46439e-12
5.45318e-12
5.43443e-12
5.40784e-12
5.37333e-12
5.33087e-12
5.27932e-12
5.22058e-12
5.15339e-12
5.07738e-12
4.99213e-12
4.89731e-12
4.79304e-12
4.67762e-12
4.55152e-12
4.41743e-12
4.28216e-12
4.13944e-12
3.98918e-12
3.83126e-12
3.66622e-12
3.49299e-12
3.30516e-12
3.12276e-12
2.93368e-12
2.73846e-12
2.53747e-12
2.33175e-12
2.12211e-12
1.90841e-12
1.68691e-12
1.46601e-12
1.22769e-12
9.88158e-13
7.19683e-13
4.57746e-13
2.56626e-13
)
;

boundaryField
{
    front
    {
        type            wedge;
    }
    back
    {
        type            wedge;
    }
    wall
    {
        type            zeroGradient;
    }
    fuel
    {
        type            fixedValue;
        value           uniform 0;
    }
    outlet
    {
        type            inletOutlet;
        inletValue      uniform 0;
        value           uniform 2.56626e-13;
    }
    axis
    {
        type            empty;
    }
}


// ************************************************************************* //
