/*--------------------------------*- C++ -*----------------------------------*\
| =========                 |                                                 |
| \\      /  F ield         | OpenFOAM: The Open Source CFD Toolbox           |
|  \\    /   O peration     | Version:  dev                                   |
|   \\  /    A nd           | Web:      www.OpenFOAM.org                      |
|    \\/     M anipulation  |                                                 |
\*---------------------------------------------------------------------------*/
FoamFile
{
    version     2.0;
    format      ascii;
    class       volScalarField;
    location    "0.05";
    object      C6H2;
}
// * * * * * * * * * * * * * * * * * * * * * * * * * * * * * * * * * * * * * //

dimensions      [0 0 0 0 0 0 0];

internalField   nonuniform List<scalar> 
100
(
3.99819e-08
1.25878e-07
1.81258e-07
1.93708e-07
1.74623e-07
1.40806e-07
1.05326e-07
7.43046e-08
5.07367e-08
3.40071e-08
2.26208e-08
1.50889e-08
1.01691e-08
6.98552e-09
4.93964e-09
3.61333e-09
2.74412e-09
2.16489e-09
1.77001e-09
1.49281e-09
1.29119e-09
1.13849e-09
1.0178e-09
9.18413e-10
8.33539e-10
7.58919e-10
6.91845e-10
6.30656e-10
5.74362e-10
5.22283e-10
4.7398e-10
4.29152e-10
3.87579e-10
3.49098e-10
3.13573e-10
2.80887e-10
2.50929e-10
2.23585e-10
1.98733e-10
1.76176e-10
1.55593e-10
1.36975e-10
1.20427e-10
1.05564e-10
9.22327e-11
8.02811e-11
6.95763e-11
5.99946e-11
5.14623e-11
4.38927e-11
3.7222e-11
3.13413e-11
2.62821e-11
2.18501e-11
1.80966e-11
1.49506e-11
1.23885e-11
1.02585e-11
8.50368e-12
7.11106e-12
5.9874e-12
5.08345e-12
4.35748e-12
3.77494e-12
3.29679e-12
2.914e-12
2.60312e-12
2.34881e-12
2.13904e-12
1.96077e-12
1.81324e-12
1.68696e-12
1.57706e-12
1.47964e-12
1.39173e-12
1.31132e-12
1.23493e-12
1.16186e-12
1.09336e-12
1.0315e-12
9.7234e-13
9.15305e-13
8.59896e-13
8.05914e-13
7.52722e-13
6.98361e-13
6.48423e-13
5.99393e-13
5.50984e-13
5.03042e-13
4.56152e-13
4.10209e-13
3.64947e-13
3.1944e-13
2.75277e-13
2.28796e-13
1.83041e-13
1.32606e-13
8.40119e-14
4.6987e-14
)
;

boundaryField
{
    front
    {
        type            wedge;
    }
    back
    {
        type            wedge;
    }
    wall
    {
        type            zeroGradient;
    }
    fuel
    {
        type            fixedValue;
        value           uniform 0;
    }
    outlet
    {
        type            inletOutlet;
        inletValue      uniform 0;
        value           uniform 4.6987e-14;
    }
    axis
    {
        type            empty;
    }
}


// ************************************************************************* //
