/*--------------------------------*- C++ -*----------------------------------*\
| =========                 |                                                 |
| \\      /  F ield         | OpenFOAM: The Open Source CFD Toolbox           |
|  \\    /   O peration     | Version:  dev                                   |
|   \\  /    A nd           | Web:      www.OpenFOAM.org                      |
|    \\/     M anipulation  |                                                 |
\*---------------------------------------------------------------------------*/
FoamFile
{
    version     2.0;
    format      ascii;
    class       volScalarField;
    location    "0.05";
    object      naphthyne;
}
// * * * * * * * * * * * * * * * * * * * * * * * * * * * * * * * * * * * * * //

dimensions      [0 0 0 0 0 0 0];

internalField   nonuniform List<scalar> 
100
(
2.73938e-14
8.50886e-14
1.35576e-13
1.52496e-13
1.35416e-13
1.01567e-13
6.86135e-14
4.31613e-14
2.62522e-14
1.57812e-14
9.53126e-15
5.88223e-15
3.77307e-15
2.56948e-15
1.89755e-15
1.53811e-15
1.37444e-15
1.34864e-15
1.43896e-15
1.64589e-15
1.98203e-15
2.46224e-15
3.09306e-15
3.86275e-15
4.73462e-15
5.64694e-15
6.52059e-15
7.27292e-15
7.83189e-15
8.15082e-15
8.21389e-15
8.03552e-15
7.65414e-15
7.12268e-15
6.49892e-15
5.83746e-15
5.18448e-15
4.5753e-15
4.03406e-15
3.57509e-15
3.20183e-15
2.91717e-15
2.72176e-15
2.60695e-15
2.56618e-15
2.59229e-15
2.67798e-15
2.81615e-15
2.99935e-15
3.22071e-15
3.47342e-15
3.75344e-15
4.04961e-15
4.36394e-15
4.68584e-15
5.01062e-15
5.32799e-15
5.64398e-15
5.95511e-15
6.24929e-15
6.53119e-15
6.79926e-15
7.05209e-15
7.28846e-15
7.51133e-15
7.71218e-15
7.89385e-15
8.05558e-15
8.19652e-15
8.31824e-15
8.41525e-15
8.4892e-15
8.53933e-15
8.56485e-15
8.56504e-15
8.53934e-15
8.48642e-15
8.4053e-15
8.29663e-15
8.16667e-15
8.01012e-15
7.82665e-15
7.6161e-15
7.37943e-15
7.11508e-15
6.81224e-15
6.5036e-15
6.16977e-15
5.81191e-15
5.43139e-15
5.03081e-15
4.6123e-15
4.17603e-15
3.7145e-15
3.2456e-15
2.73121e-15
2.20699e-15
1.61289e-15
1.02848e-15
5.77493e-16
)
;

boundaryField
{
    front
    {
        type            wedge;
    }
    back
    {
        type            wedge;
    }
    wall
    {
        type            zeroGradient;
    }
    fuel
    {
        type            fixedValue;
        value           uniform 0;
    }
    outlet
    {
        type            inletOutlet;
        inletValue      uniform 0;
        value           uniform 5.77493e-16;
    }
    axis
    {
        type            empty;
    }
}


// ************************************************************************* //
