/*--------------------------------*- C++ -*----------------------------------*\
| =========                 |                                                 |
| \\      /  F ield         | OpenFOAM: The Open Source CFD Toolbox           |
|  \\    /   O peration     | Version:  dev                                   |
|   \\  /    A nd           | Web:      www.OpenFOAM.org                      |
|    \\/     M anipulation  |                                                 |
\*---------------------------------------------------------------------------*/
FoamFile
{
    version     2.0;
    format      ascii;
    class       volScalarField;
    location    "0.095";
    object      A1C2H-;
}
// * * * * * * * * * * * * * * * * * * * * * * * * * * * * * * * * * * * * * //

dimensions      [0 0 0 0 0 0 0];

internalField   nonuniform List<scalar> 
25
(
5.34827e-11
1.15675e-10
1.03089e-10
6.58244e-11
3.58617e-11
1.82501e-11
9.0398e-12
4.44115e-12
2.14734e-12
1.04919e-12
5.07346e-13
2.47294e-13
1.19154e-13
5.7309e-14
2.76352e-14
1.33914e-14
6.54204e-15
3.23615e-15
1.63028e-15
8.42342e-16
4.49984e-16
2.50538e-16
1.46289e-16
8.97188e-17
5.73126e-17
)
;

boundaryField
{
    wall
    {
        type            zeroGradient;
    }
    fuel
    {
        type            fixedValue;
        value           uniform 0;
    }
    outlet
    {
        type            inletOutlet;
        inletValue      nonuniform 0();
        value           nonuniform 0();
    }
    procBoundary0to1
    {
        type            processor;
        value           uniform 3.72226e-17;
    }
}


// ************************************************************************* //
