/*--------------------------------*- C++ -*----------------------------------*\
| =========                 |                                                 |
| \\      /  F ield         | OpenFOAM: The Open Source CFD Toolbox           |
|  \\    /   O peration     | Version:  dev                                   |
|   \\  /    A nd           | Web:      www.OpenFOAM.org                      |
|    \\/     M anipulation  |                                                 |
\*---------------------------------------------------------------------------*/
FoamFile
{
    version     2.0;
    format      ascii;
    class       volScalarField;
    location    "0.095";
    object      A1C2H*;
}
// * * * * * * * * * * * * * * * * * * * * * * * * * * * * * * * * * * * * * //

dimensions      [0 0 0 0 0 0 0];

internalField   nonuniform List<scalar> 
25
(
4.50568e-11
9.80084e-11
8.7695e-11
5.61012e-11
3.05881e-11
1.55713e-11
7.71445e-12
3.79093e-12
1.83367e-12
8.965e-13
4.33964e-13
2.11872e-13
1.02338e-13
4.9441e-14
2.40048e-14
1.17522e-14
5.82797e-15
2.94459e-15
1.52653e-15
8.18353e-16
4.57082e-16
2.67547e-16
1.64533e-16
1.06025e-16
7.07702e-17
)
;

boundaryField
{
    wall
    {
        type            zeroGradient;
    }
    fuel
    {
        type            fixedValue;
        value           uniform 0;
    }
    outlet
    {
        type            inletOutlet;
        inletValue      nonuniform 0();
        value           nonuniform 0();
    }
    procBoundary0to1
    {
        type            processor;
        value           uniform 4.8199e-17;
    }
}


// ************************************************************************* //
