/*--------------------------------*- C++ -*----------------------------------*\
| =========                 |                                                 |
| \\      /  F ield         | OpenFOAM: The Open Source CFD Toolbox           |
|  \\    /   O peration     | Version:  dev                                   |
|   \\  /    A nd           | Web:      www.OpenFOAM.org                      |
|    \\/     M anipulation  |                                                 |
\*---------------------------------------------------------------------------*/
FoamFile
{
    version     2.0;
    format      ascii;
    class       volScalarField;
    location    "0.095";
    object      A2C2HA;
}
// * * * * * * * * * * * * * * * * * * * * * * * * * * * * * * * * * * * * * //

dimensions      [0 0 0 0 0 0 0];

internalField   nonuniform List<scalar> 
250
(
3.43994e-10
3.43764e-10
3.43216e-10
3.43641e-10
3.4465e-10
3.49753e-10
3.82388e-10
5.21692e-10
1.65189e-09
3.61254e-09
3.28681e-10
3.28374e-10
3.27938e-10
3.28252e-10
3.29187e-10
3.34016e-10
3.63706e-10
4.85661e-10
1.3876e-09
3.06183e-09
2.04973e-09
8.95165e-10
4.59707e-10
3.54577e-10
3.27163e-10
3.18267e-10
3.18924e-10
3.16989e-10
3.18296e-10
3.17291e-10
3.17747e-10
3.1734e-10
3.17023e-10
3.17188e-10
3.18037e-10
3.2262e-10
3.49528e-10
4.57128e-10
1.18422e-09
2.5788e-09
2.05586e-09
8.569e-10
4.45577e-10
3.45152e-10
3.19634e-10
3.11949e-10
3.12104e-10
3.11038e-10
3.11756e-10
3.11335e-10
3.11591e-10
3.11054e-10
3.10875e-10
3.1084e-10
3.11588e-10
3.15957e-10
3.40195e-10
4.36028e-10
1.01613e-09
2.17377e-09
2.07466e-09
8.2955e-10
4.37454e-10
3.41123e-10
3.174e-10
3.11026e-10
3.10565e-10
3.10576e-10
3.10553e-10
3.10865e-10
3.10854e-10
3.1015e-10
3.10136e-10
3.09841e-10
3.10471e-10
3.14659e-10
3.36284e-10
4.22642e-10
8.8471e-10
1.84808e-09
2.10186e-09
8.12234e-10
4.36141e-10
3.43333e-10
3.21321e-10
3.16364e-10
3.15163e-10
3.16478e-10
3.15542e-10
3.16758e-10
3.164e-10
3.15491e-10
3.15671e-10
3.15054e-10
3.1555e-10
3.19593e-10
3.38612e-10
4.17538e-10
7.99957e-10
1.59677e-09
2.13306e-09
8.0471e-10
4.4254e-10
3.52791e-10
3.32413e-10
3.28952e-10
3.26889e-10
3.29701e-10
3.2771e-10
3.29971e-10
3.29212e-10
3.28061e-10
3.2846e-10
3.27473e-10
3.2782e-10
3.31763e-10
3.4816e-10
4.2135e-10
7.42524e-10
1.41061e-09
2.16326e-09
8.06872e-10
4.57737e-10
3.70444e-10
3.51615e-10
3.49663e-10
3.46646e-10
3.50983e-10
3.47942e-10
3.51246e-10
3.50143e-10
3.48731e-10
3.4936e-10
3.47977e-10
3.48172e-10
3.52067e-10
3.65866e-10
4.34639e-10
7.08544e-10
1.2792e-09
2.18646e-09
8.18167e-10
4.81478e-10
3.96783e-10
3.79481e-10
3.80074e-10
3.7606e-10
3.81864e-10
3.77796e-10
3.8211e-10
3.80807e-10
3.79026e-10
3.79917e-10
3.78015e-10
3.7806e-10
3.82206e-10
3.92268e-10
4.58364e-10
6.94766e-10
1.19229e-09
2.19557e-09
8.37039e-10
5.13211e-10
4.31309e-10
4.15263e-10
4.17201e-10
4.12337e-10
4.19374e-10
4.14467e-10
4.19633e-10
4.18087e-10
4.16058e-10
4.1714e-10
4.14906e-10
4.14843e-10
4.1903e-10
4.26867e-10
4.92465e-10
6.97803e-10
1.14006e-09
2.18295e-09
8.60476e-10
5.50602e-10
4.72057e-10
4.57015e-10
4.59846e-10
4.54411e-10
4.62322e-10
4.56801e-10
4.6262e-10
4.6081e-10
4.58602e-10
4.59809e-10
4.57373e-10
4.57261e-10
4.61474e-10
4.67751e-10
5.30727e-10
7.13402e-10
1.11292e-09
2.14182e-09
8.83948e-10
5.89724e-10
5.15412e-10
5.01093e-10
5.04191e-10
4.98613e-10
5.06717e-10
5.01074e-10
5.07085e-10
5.05147e-10
5.02873e-10
5.04105e-10
5.01649e-10
5.01565e-10
5.05761e-10
5.11367e-10
5.71277e-10
7.36268e-10
1.10116e-09
2.06755e-09
9.01907e-10
6.25515e-10
5.56473e-10
5.42633e-10
5.45301e-10
5.40096e-10
5.47557e-10
5.42424e-10
5.48021e-10
5.46171e-10
5.43975e-10
5.45106e-10
5.42839e-10
5.42869e-10
5.46974e-10
5.52855e-10
6.08927e-10
7.60092e-10
1.09509e-09
5.78881e-10
5.76906e-10
5.77814e-10
5.75925e-10
5.76141e-10
5.80058e-10
5.86977e-10
6.38325e-10
7.78344e-10
1.08572e-09
)
;

boundaryField
{
    fuel
    {
        type            fixedValue;
        value           nonuniform 0();
    }
    wall
    {
        type            zeroGradient;
    }
    outlet
    {
        type            zeroGradient;
    }
    frontAndBack
    {
        type            empty;
    }
    procBoundary0to1
    {
        type            processor;
        value           nonuniform List<scalar> 
21
(
1.95867e-09
9.08771e-10
6.52782e-10
5.9001e-10
5.76519e-10
5.7815e-10
5.7381e-10
5.79857e-10
5.75827e-10
5.80435e-10
5.80435e-10
5.99417e-10
5.97769e-10
5.98375e-10
5.96974e-10
5.97416e-10
6.01046e-10
6.09381e-10
6.55241e-10
7.85567e-10
1.06607e-09
)
;
    }
    procBoundary0to2
    {
        type            processor;
        value           nonuniform List<scalar> 
12
(
3.43259e-10
2.06086e-09
9.49468e-10
4.79282e-10
3.6879e-10
3.39361e-10
3.29327e-10
3.30398e-10
3.27758e-10
3.29538e-10
3.28065e-10
3.28065e-10
)
;
    }
    procBoundary0to3
    {
        type            processor;
        value           nonuniform List<scalar> 10(3.63496e-10 3.63325e-10 3.62662e-10 3.63168e-10 3.64243e-10 3.6965e-10 4.07357e-10 5.70156e-10 1.9875e-09 4.2051e-09);
    }
}


// ************************************************************************* //
