/*--------------------------------*- C++ -*----------------------------------*\
| =========                 |                                                 |
| \\      /  F ield         | OpenFOAM: The Open Source CFD Toolbox           |
|  \\    /   O peration     | Version:  dev                                   |
|   \\  /    A nd           | Web:      www.OpenFOAM.org                      |
|    \\/     M anipulation  |                                                 |
\*---------------------------------------------------------------------------*/
FoamFile
{
    version     2.0;
    format      ascii;
    class       volScalarField;
    location    "0.095";
    object      A2R5-;
}
// * * * * * * * * * * * * * * * * * * * * * * * * * * * * * * * * * * * * * //

dimensions      [0 0 0 0 0 0 0];

internalField   nonuniform List<scalar> 
25
(
1.38108e-11
1.03116e-11
7.73131e-12
5.99883e-12
4.81199e-12
3.95825e-12
3.30026e-12
2.75881e-12
2.28313e-12
1.87367e-12
1.50966e-12
1.19993e-12
9.34555e-13
7.15239e-13
5.39092e-13
4.00829e-13
2.94592e-13
2.14523e-13
1.55195e-13
1.1187e-13
8.06064e-14
5.82496e-14
4.23576e-14
3.1092e-14
2.31016e-14
)
;

boundaryField
{
    wall
    {
        type            zeroGradient;
    }
    fuel
    {
        type            fixedValue;
        value           uniform 0;
    }
    outlet
    {
        type            inletOutlet;
        inletValue      nonuniform 0();
        value           nonuniform 0();
    }
    procBoundary0to1
    {
        type            processor;
        value           uniform 1.74129e-14;
    }
}


// ************************************************************************* //
