/*--------------------------------*- C++ -*----------------------------------*\
| =========                 |                                                 |
| \\      /  F ield         | OpenFOAM: The Open Source CFD Toolbox           |
|  \\    /   O peration     | Version:  dev                                   |
|   \\  /    A nd           | Web:      www.OpenFOAM.org                      |
|    \\/     M anipulation  |                                                 |
\*---------------------------------------------------------------------------*/
FoamFile
{
    version     2.0;
    format      ascii;
    class       volScalarField;
    location    "0.095";
    object      C;
}
// * * * * * * * * * * * * * * * * * * * * * * * * * * * * * * * * * * * * * //

dimensions      [0 0 0 0 0 0 0];

internalField   nonuniform List<scalar> 
250
(
2.92762e-09
2.93971e-09
2.92697e-09
2.952e-09
2.96166e-09
2.95953e-09
2.99129e-09
2.46589e-09
1.14154e-09
2.07094e-10
2.51746e-09
2.52961e-09
2.51703e-09
2.54192e-09
2.55196e-09
2.55167e-09
2.60218e-09
2.18079e-09
1.1101e-09
2.27621e-10
8.76746e-10
1.63484e-09
2.01232e-09
2.21865e-09
2.21634e-09
2.1338e-09
2.17722e-09
2.10059e-09
2.15144e-09
2.10312e-09
2.11797e-09
2.12994e-09
2.1177e-09
2.1419e-09
2.15198e-09
2.15315e-09
2.21715e-09
1.88811e-09
1.05691e-09
2.49648e-10
8.16238e-10
1.42533e-09
1.67862e-09
1.8405e-09
1.82917e-09
1.7522e-09
1.79274e-09
1.72039e-09
1.76906e-09
1.72274e-09
1.7372e-09
1.74868e-09
1.73705e-09
1.75993e-09
1.76966e-09
1.77187e-09
1.8435e-09
1.59401e-09
9.7275e-10
2.68632e-10
7.23322e-10
1.20547e-09
1.36086e-09
1.48369e-09
1.46671e-09
1.39729e-09
1.43418e-09
1.3678e-09
1.41311e-09
1.36993e-09
1.38374e-09
1.39439e-09
1.38368e-09
1.40454e-09
1.41357e-09
1.41638e-09
1.48981e-09
1.30678e-09
8.58314e-10
2.79624e-10
6.10486e-10
9.85035e-10
1.06763e-09
1.15711e-09
1.13738e-09
1.07748e-09
1.10992e-09
1.0511e-09
1.09186e-09
1.05297e-09
1.06583e-09
1.07529e-09
1.06581e-09
1.08404e-09
1.09204e-09
1.09508e-09
1.16493e-09
1.0358e-09
7.3881e-10
2.78614e-10
4.90921e-10
7.74546e-10
8.0711e-10
8.68744e-10
8.48795e-10
7.99825e-10
8.27204e-10
7.77374e-10
8.12345e-10
7.78959e-10
7.90334e-10
7.98299e-10
7.90327e-10
8.0545e-10
8.12202e-10
8.15199e-10
8.76978e-10
7.90206e-10
6.09076e-10
2.63169e-10
3.75772e-10
5.83436e-10
5.81286e-10
6.24623e-10
6.06439e-10
5.69045e-10
5.91111e-10
5.51501e-10
5.79434e-10
5.52784e-10
5.61766e-10
5.68054e-10
5.61737e-10
5.73544e-10
5.78949e-10
5.81751e-10
6.32193e-10
5.7782e-10
4.78263e-10
2.3387e-10
2.73084e-10
4.19032e-10
4.00677e-10
4.27758e-10
4.12032e-10
3.797e-10
3.96328e-10
3.67245e-10
3.8798e-10
3.68309e-10
3.74293e-10
3.79363e-10
3.74555e-10
3.8373e-10
3.87796e-10
3.88818e-10
4.33921e-10
3.97975e-10
3.55594e-10
1.94333e-10
1.87538e-10
2.8545e-10
2.61498e-10
2.77524e-10
2.65463e-10
2.42941e-10
2.5489e-10
2.34557e-10
2.49083e-10
2.35337e-10
2.39285e-10
2.42862e-10
2.39485e-10
2.4586e-10
2.48749e-10
2.49496e-10
2.82169e-10
2.54456e-10
2.48955e-10
1.50213e-10
1.21248e-10
1.83454e-10
1.60781e-10
1.69709e-10
1.61232e-10
1.46532e-10
1.54586e-10
1.41022e-10
1.50809e-10
1.41555e-10
1.4423e-10
1.46601e-10
1.44368e-10
1.48517e-10
1.50446e-10
1.50948e-10
1.7297e-10
1.56939e-10
1.63443e-10
1.07537e-10
7.37026e-11
1.1067e-10
9.27202e-11
9.73752e-11
9.19178e-11
8.29442e-11
8.8017e-11
7.95149e-11
8.57322e-11
7.98528e-11
8.15971e-11
8.30738e-11
8.16851e-11
8.42123e-11
8.54188e-11
8.57207e-11
9.94971e-11
9.07052e-11
1.00131e-10
7.10389e-11
4.2012e-11
6.23758e-11
4.9979e-11
5.22312e-11
4.90256e-11
4.39146e-11
4.68943e-11
4.19343e-11
4.56115e-11
4.21333e-11
4.31866e-11
4.40462e-11
4.32384e-11
4.46728e-11
4.53793e-11
4.55415e-11
5.35122e-11
4.89366e-11
5.70139e-11
4.31828e-11
2.13425e-11
2.18074e-11
2.13708e-11
2.21261e-11
2.25129e-11
2.25915e-11
2.68453e-11
2.45899e-11
3.00918e-11
2.41191e-11
)
;

boundaryField
{
    fuel
    {
        type            fixedValue;
        value           nonuniform 0();
    }
    wall
    {
        type            zeroGradient;
    }
    outlet
    {
        type            zeroGradient;
    }
    frontAndBack
    {
        type            empty;
    }
    procBoundary0to1
    {
        type            processor;
        value           nonuniform List<scalar> 
21
(
2.23834e-11
3.27259e-11
2.51238e-11
2.61272e-11
2.44131e-11
2.17035e-11
2.33323e-11
2.06513e-11
2.2664e-11
2.07603e-11
2.07603e-11
9.84429e-12
1.00769e-11
9.85868e-12
1.02262e-11
1.04242e-11
1.04596e-11
1.25508e-11
1.15002e-11
1.47052e-11
1.23769e-11
)
;
    }
    procBoundary0to2
    {
        type            processor;
        value           nonuniform List<scalar> 
12
(
2.91272e-09
8.89292e-10
1.83522e-09
2.35361e-09
2.61048e-09
2.61945e-09
2.53372e-09
2.57888e-09
2.49989e-09
2.55168e-09
2.50248e-09
2.50248e-09
)
;
    }
    procBoundary0to3
    {
        type            processor;
        value           nonuniform List<scalar> 10(3.34144e-09 3.35327e-09 3.34054e-09 3.36518e-09 3.37418e-09 3.36981e-09 3.41147e-09 2.76909e-09 1.15346e-09 1.91643e-10);
    }
}


// ************************************************************************* //
