/*--------------------------------*- C++ -*----------------------------------*\
| =========                 |                                                 |
| \\      /  F ield         | OpenFOAM: The Open Source CFD Toolbox           |
|  \\    /   O peration     | Version:  dev                                   |
|   \\  /    A nd           | Web:      www.OpenFOAM.org                      |
|    \\/     M anipulation  |                                                 |
\*---------------------------------------------------------------------------*/
FoamFile
{
    version     2.0;
    format      ascii;
    class       volScalarField;
    location    "0.095";
    object      C2O;
}
// * * * * * * * * * * * * * * * * * * * * * * * * * * * * * * * * * * * * * //

dimensions      [0 0 0 0 0 0 0];

internalField   nonuniform List<scalar> 
250
(
2.07056e-07
2.08563e-07
2.05834e-07
2.10688e-07
2.0569e-07
2.17218e-07
2.03405e-07
2.19261e-07
1.64882e-07
2.03951e-07
1.88839e-07
1.90394e-07
1.87614e-07
1.92518e-07
1.87406e-07
1.99007e-07
1.85549e-07
2.01256e-07
1.52465e-07
1.78209e-07
6.78774e-08
1.32048e-07
1.66183e-07
1.74858e-07
1.72242e-07
1.71688e-07
1.71456e-07
1.70653e-07
1.71345e-07
1.71314e-07
1.70439e-07
1.7203e-07
1.69218e-07
1.74136e-07
1.68957e-07
1.80549e-07
1.67506e-07
1.84152e-07
1.39694e-07
1.56425e-07
6.83741e-08
1.22381e-07
1.50179e-07
1.56829e-07
1.53905e-07
1.53292e-07
1.53046e-07
1.5218e-07
1.5288e-07
1.52758e-07
1.51961e-07
1.53575e-07
1.50761e-07
1.55644e-07
1.50458e-07
1.61925e-07
1.49402e-07
1.66854e-07
1.25921e-07
1.37998e-07
6.76568e-08
1.11709e-07
1.33996e-07
1.38765e-07
1.35618e-07
1.34963e-07
1.34715e-07
1.33819e-07
1.34517e-07
1.34314e-07
1.33584e-07
1.35201e-07
1.32423e-07
1.37205e-07
1.32092e-07
1.43279e-07
1.31422e-07
1.49437e-07
1.13116e-07
1.21152e-07
6.57236e-08
1.01362e-07
1.17709e-07
1.2087e-07
1.17617e-07
1.1694e-07
1.16702e-07
1.15807e-07
1.16491e-07
1.16227e-07
1.15547e-07
1.17143e-07
1.1445e-07
1.1905e-07
1.14104e-07
1.24827e-07
1.13815e-07
1.32024e-07
9.95391e-08
1.05944e-07
6.25682e-08
8.99947e-08
1.01578e-07
1.03426e-07
1.00205e-07
9.95195e-08
9.93032e-08
9.84423e-08
9.90964e-08
9.87986e-08
9.81463e-08
9.96957e-08
9.7141e-08
1.01471e-07
9.67949e-08
1.06852e-07
9.69037e-08
1.14815e-07
8.69416e-08
9.2697e-08
5.8259e-08
7.85989e-08
8.59334e-08
8.67652e-08
8.37266e-08
8.30378e-08
8.28514e-08
8.20578e-08
8.26667e-08
8.23676e-08
8.17031e-08
8.31893e-08
8.08288e-08
8.48007e-08
8.04964e-08
8.96875e-08
8.02567e-08
9.80795e-08
7.45638e-08
8.05747e-08
5.29297e-08
6.71364e-08
7.11445e-08
7.12355e-08
6.81402e-08
6.76949e-08
6.75109e-08
6.67165e-08
6.72569e-08
6.68379e-08
6.65504e-08
6.79612e-08
6.58446e-08
6.93815e-08
6.55385e-08
7.36933e-08
6.55511e-08
8.22013e-08
6.2839e-08
6.90064e-08
4.68178e-08
5.59945e-08
5.75758e-08
5.71968e-08
5.44803e-08
5.40688e-08
5.39205e-08
5.32313e-08
5.37031e-08
5.33216e-08
5.30411e-08
5.43133e-08
5.24767e-08
5.55238e-08
5.22068e-08
5.92058e-08
5.23648e-08
6.64038e-08
5.10245e-08
5.91652e-08
4.02564e-08
4.55649e-08
4.55352e-08
4.49061e-08
4.26111e-08
4.22504e-08
4.21368e-08
4.15593e-08
4.19581e-08
4.1626e-08
4.13792e-08
4.24673e-08
4.0929e-08
4.34616e-08
4.07016e-08
4.64951e-08
4.09278e-08
5.305e-08
4.11215e-08
4.98673e-08
3.36338e-08
3.61862e-08
3.52263e-08
3.45103e-08
3.26437e-08
3.23439e-08
3.22604e-08
3.17941e-08
3.21195e-08
3.1843e-08
3.16415e-08
3.25302e-08
3.12888e-08
3.33159e-08
3.11058e-08
3.57221e-08
3.13517e-08
4.1388e-08
3.2441e-08
4.12223e-08
2.73318e-08
2.80953e-08
2.67181e-08
2.60255e-08
2.45624e-08
2.43247e-08
2.42656e-08
2.39029e-08
2.41592e-08
2.39383e-08
2.37836e-08
2.448e-08
2.3515e-08
2.50771e-08
2.33748e-08
2.69136e-08
2.36084e-08
3.15728e-08
2.5093e-08
3.3359e-08
1.76483e-08
1.81731e-08
1.74507e-08
1.86099e-08
1.73482e-08
1.99609e-08
1.75509e-08
2.36226e-08
1.90817e-08
2.64188e-08
)
;

boundaryField
{
    fuel
    {
        type            fixedValue;
        value           nonuniform 0();
    }
    wall
    {
        type            zeroGradient;
    }
    outlet
    {
        type            zeroGradient;
    }
    frontAndBack
    {
        type            empty;
    }
    procBoundary0to1
    {
        type            processor;
        value           nonuniform List<scalar> 
21
(
2.16499e-08
2.13888e-08
1.99438e-08
1.93353e-08
1.82286e-08
1.80478e-08
1.80076e-08
1.77353e-08
1.79303e-08
1.7761e-08
1.7761e-08
1.29932e-08
1.33765e-08
1.28524e-08
1.36858e-08
1.27806e-08
1.46471e-08
1.29464e-08
1.7407e-08
1.43287e-08
2.04796e-08
)
;
    }
    procBoundary0to2
    {
        type            processor;
        value           nonuniform List<scalar> 
12
(
2.08108e-07
6.62387e-08
1.40385e-07
1.81696e-07
1.92736e-07
1.90456e-07
1.89977e-07
1.89774e-07
1.89067e-07
1.89747e-07
1.89803e-07
1.89803e-07
)
;
    }
    procBoundary0to3
    {
        type            processor;
        value           nonuniform List<scalar> 10(2.25038e-07 2.26479e-07 2.23815e-07 2.28617e-07 2.23747e-07 2.35159e-07 2.21048e-07 2.35993e-07 1.79415e-07 2.34606e-07);
    }
}


// ************************************************************************* //
