/*--------------------------------*- C++ -*----------------------------------*\
| =========                 |                                                 |
| \\      /  F ield         | OpenFOAM: The Open Source CFD Toolbox           |
|  \\    /   O peration     | Version:  dev                                   |
|   \\  /    A nd           | Web:      www.OpenFOAM.org                      |
|    \\/     M anipulation  |                                                 |
\*---------------------------------------------------------------------------*/
FoamFile
{
    version     2.0;
    format      ascii;
    class       volScalarField;
    location    "0.095";
    object      C4H612;
}
// * * * * * * * * * * * * * * * * * * * * * * * * * * * * * * * * * * * * * //

dimensions      [0 0 0 0 0 0 0];

internalField   nonuniform List<scalar> 
25
(
3.24158e-11
6.67168e-11
7.06251e-11
5.72304e-11
3.91363e-11
2.38495e-11
1.34251e-11
7.16608e-12
3.64126e-12
1.81704e-12
8.95088e-13
4.40806e-13
2.14205e-13
1.03186e-13
4.94775e-14
2.36368e-14
1.1256e-14
5.34474e-15
2.53097e-15
1.19541e-15
5.63186e-16
2.64649e-16
1.23957e-16
5.76385e-17
2.60555e-17
)
;

boundaryField
{
    wall
    {
        type            zeroGradient;
    }
    fuel
    {
        type            fixedValue;
        value           uniform 0;
    }
    outlet
    {
        type            inletOutlet;
        inletValue      nonuniform 0();
        value           nonuniform 0();
    }
    procBoundary0to1
    {
        type            processor;
        value           uniform 9.75965e-18;
    }
}


// ************************************************************************* //
