/*--------------------------------*- C++ -*----------------------------------*\
| =========                 |                                                 |
| \\      /  F ield         | OpenFOAM: The Open Source CFD Toolbox           |
|  \\    /   O peration     | Version:  dev                                   |
|   \\  /    A nd           | Web:      www.OpenFOAM.org                      |
|    \\/     M anipulation  |                                                 |
\*---------------------------------------------------------------------------*/
FoamFile
{
    version     2.0;
    format      ascii;
    class       volScalarField;
    location    "0.095";
    object      C6H5OH;
}
// * * * * * * * * * * * * * * * * * * * * * * * * * * * * * * * * * * * * * //

dimensions      [0 0 0 0 0 0 0];

internalField   nonuniform List<scalar> 
250
(
1.79225e-08
1.79231e-08
1.78566e-08
1.79799e-08
1.79382e-08
1.8438e-08
1.90515e-08
2.50265e-08
5.33032e-08
3.03472e-07
1.7711e-08
1.76919e-08
1.76473e-08
1.77281e-08
1.773e-08
1.81274e-08
1.87947e-08
2.41504e-08
5.03252e-08
2.94786e-07
1.14083e-07
4.43826e-08
2.26356e-08
1.86541e-08
1.77707e-08
1.75968e-08
1.75743e-08
1.75862e-08
1.76111e-08
1.76989e-08
1.76602e-08
1.76217e-08
1.76003e-08
1.7638e-08
1.76853e-08
1.79775e-08
1.87013e-08
2.34949e-08
4.73339e-08
2.78678e-07
9.28107e-08
4.04245e-08
2.22238e-08
1.86577e-08
1.78575e-08
1.7694e-08
1.76704e-08
1.76844e-08
1.77048e-08
1.77927e-08
1.77737e-08
1.77165e-08
1.77193e-08
1.77139e-08
1.78078e-08
1.79935e-08
1.87753e-08
2.30134e-08
4.42473e-08
2.57177e-07
7.74356e-08
3.71412e-08
2.20183e-08
1.8831e-08
1.81102e-08
1.79572e-08
1.79328e-08
1.79504e-08
1.79657e-08
1.80539e-08
1.80542e-08
1.79794e-08
1.80071e-08
1.79592e-08
1.81e-08
1.81804e-08
1.9019e-08
2.2716e-08
4.1637e-08
2.30409e-07
6.61035e-08
3.48078e-08
2.20173e-08
1.91745e-08
1.85293e-08
1.83873e-08
1.83621e-08
1.8384e-08
1.83938e-08
1.84831e-08
1.85019e-08
1.84111e-08
1.84638e-08
1.83754e-08
1.85619e-08
1.85413e-08
1.9432e-08
2.26084e-08
3.91765e-08
2.01266e-07
5.76342e-08
3.29553e-08
2.22168e-08
1.96861e-08
1.91132e-08
1.89817e-08
1.89554e-08
1.89821e-08
1.89863e-08
1.90776e-08
1.91145e-08
1.9009e-08
1.90861e-08
1.89604e-08
1.91899e-08
1.9076e-08
2.00093e-08
2.26946e-08
3.72322e-08
1.73399e-07
5.12783e-08
3.16633e-08
2.26109e-08
2.0361e-08
1.98568e-08
1.97353e-08
1.97076e-08
1.9739e-08
1.97377e-08
1.98317e-08
1.98871e-08
1.97682e-08
1.98687e-08
1.97102e-08
1.99785e-08
1.97818e-08
2.07731e-08
2.29752e-08
3.56465e-08
1.47577e-07
4.65411e-08
3.08212e-08
2.31941e-08
2.11949e-08
2.07751e-08
2.06509e-08
2.06231e-08
2.06637e-08
2.06573e-08
2.07618e-08
2.08156e-08
2.06852e-08
2.08081e-08
2.06213e-08
2.09243e-08
2.06557e-08
2.167e-08
2.3448e-08
3.44648e-08
1.24202e-07
4.30919e-08
3.03959e-08
2.3969e-08
2.2194e-08
2.18366e-08
2.17206e-08
2.16912e-08
2.1737e-08
2.17252e-08
2.18343e-08
2.19046e-08
2.17653e-08
2.1911e-08
2.16987e-08
2.20344e-08
2.17017e-08
2.27353e-08
2.41491e-08
3.35955e-08
1.06321e-07
4.0714e-08
3.03773e-08
2.49575e-08
2.33821e-08
2.3086e-08
2.29776e-08
2.29469e-08
2.29993e-08
2.29813e-08
2.30971e-08
2.31825e-08
2.30348e-08
2.32063e-08
2.29673e-08
2.33384e-08
2.29415e-08
2.39985e-08
2.50367e-08
3.32396e-08
9.14487e-08
3.92796e-08
3.07898e-08
2.62134e-08
2.48152e-08
2.45816e-08
2.44813e-08
2.44489e-08
2.45102e-08
2.44848e-08
2.46099e-08
2.47112e-08
2.45523e-08
2.47561e-08
2.44841e-08
2.48999e-08
2.44278e-08
2.55241e-08
2.6192e-08
3.33644e-08
7.95095e-08
3.87334e-08
3.16952e-08
2.78252e-08
2.65838e-08
2.64154e-08
2.63231e-08
2.62886e-08
2.63612e-08
2.63268e-08
2.64642e-08
2.65836e-08
2.6409e-08
2.6654e-08
2.63396e-08
2.68136e-08
2.62493e-08
2.74085e-08
2.76954e-08
3.40386e-08
7.02814e-08
2.88805e-08
2.86904e-08
2.89801e-08
2.86225e-08
2.91597e-08
2.85015e-08
2.97332e-08
2.96501e-08
3.53201e-08
6.35082e-08
)
;

boundaryField
{
    fuel
    {
        type            fixedValue;
        value           nonuniform 0();
    }
    wall
    {
        type            zeroGradient;
    }
    outlet
    {
        type            zeroGradient;
    }
    frontAndBack
    {
        type            empty;
    }
    procBoundary0to1
    {
        type            processor;
        value           nonuniform List<scalar> 
21
(
3.90596e-08
3.31661e-08
2.98846e-08
2.878e-08
2.86727e-08
2.8587e-08
2.85498e-08
2.86338e-08
2.85908e-08
2.87413e-08
2.87413e-08
3.15639e-08
3.13727e-08
3.16928e-08
3.13182e-08
3.18934e-08
3.11923e-08
3.24531e-08
3.21036e-08
3.7155e-08
5.88862e-08
)
;
    }
    procBoundary0to2
    {
        type            processor;
        value           nonuniform List<scalar> 
12
(
1.80002e-08
1.442e-07
4.88276e-08
2.32438e-08
1.88171e-08
1.78469e-08
1.76631e-08
1.76422e-08
1.76534e-08
1.76823e-08
1.77695e-08
1.77695e-08
)
;
    }
    procBoundary0to3
    {
        type            processor;
        value           nonuniform List<scalar> 10(1.82916e-08 1.83117e-08 1.82252e-08 1.83906e-08 1.83074e-08 1.89053e-08 1.94679e-08 2.60011e-08 5.67113e-08 3.03289e-07);
    }
}


// ************************************************************************* //
