/*--------------------------------*- C++ -*----------------------------------*\
| =========                 |                                                 |
| \\      /  F ield         | OpenFOAM: The Open Source CFD Toolbox           |
|  \\    /   O peration     | Version:  dev                                   |
|   \\  /    A nd           | Web:      www.OpenFOAM.org                      |
|    \\/     M anipulation  |                                                 |
\*---------------------------------------------------------------------------*/
FoamFile
{
    version     2.0;
    format      ascii;
    class       volScalarField;
    location    "0.095";
    object      H2O2;
}
// * * * * * * * * * * * * * * * * * * * * * * * * * * * * * * * * * * * * * //

dimensions      [0 0 0 0 0 0 0];

internalField   nonuniform List<scalar> 
25
(
2.16658e-09
3.06922e-09
3.44339e-09
3.53693e-09
3.42555e-09
3.20417e-09
2.95437e-09
2.72501e-09
2.52914e-09
2.37577e-09
2.25269e-09
2.15389e-09
2.06846e-09
1.99128e-09
1.91836e-09
1.84696e-09
1.77561e-09
1.7037e-09
1.63118e-09
1.55831e-09
1.48552e-09
1.41327e-09
1.34204e-09
1.27225e-09
1.20425e-09
)
;

boundaryField
{
    wall
    {
        type            zeroGradient;
    }
    fuel
    {
        type            fixedValue;
        value           uniform 0;
    }
    outlet
    {
        type            inletOutlet;
        inletValue      nonuniform 0();
        value           nonuniform 0();
    }
    procBoundary0to1
    {
        type            processor;
        value           uniform 1.13834e-09;
    }
}


// ************************************************************************* //
