/*--------------------------------*- C++ -*----------------------------------*\
| =========                 |                                                 |
| \\      /  F ield         | OpenFOAM: The Open Source CFD Toolbox           |
|  \\    /   O peration     | Version:  dev                                   |
|   \\  /    A nd           | Web:      www.OpenFOAM.org                      |
|    \\/     M anipulation  |                                                 |
\*---------------------------------------------------------------------------*/
FoamFile
{
    version     2.0;
    format      ascii;
    class       volScalarField;
    location    "0.095";
    object      H2O2;
}
// * * * * * * * * * * * * * * * * * * * * * * * * * * * * * * * * * * * * * //

dimensions      [0 0 0 0 0 0 0];

internalField   nonuniform List<scalar> 
250
(
4.7412e-11
4.7709e-11
4.71926e-11
4.81034e-11
4.71175e-11
4.91663e-11
4.60739e-11
4.66032e-11
3.25338e-11
6.75298e-11
4.38846e-11
4.42049e-11
4.36597e-11
4.46153e-11
4.35719e-11
4.57233e-11
4.26537e-11
4.35373e-11
3.09513e-11
6.89662e-11
1.65495e-10
2.99667e-11
3.73899e-11
4.06216e-11
4.05051e-11
4.04809e-11
4.04458e-11
4.02765e-11
4.04068e-11
4.03622e-11
4.02e-11
4.05404e-11
3.99698e-11
4.0963e-11
3.9871e-11
4.21092e-11
3.90771e-11
4.05047e-11
2.91636e-11
6.91562e-11
1.06393e-10
2.73728e-11
3.4316e-11
3.69804e-11
3.67372e-11
3.66898e-11
3.66505e-11
3.64649e-11
3.66014e-11
3.65399e-11
3.6382e-11
3.6739e-11
3.61486e-11
3.71687e-11
3.60408e-11
3.83409e-11
3.53715e-11
3.73116e-11
2.70398e-11
6.75792e-11
6.98721e-11
2.48716e-11
3.10919e-11
3.32163e-11
3.28647e-11
3.27972e-11
3.27561e-11
3.25599e-11
3.27011e-11
3.26242e-11
3.24696e-11
3.28381e-11
3.22362e-11
3.32683e-11
3.21219e-11
3.44495e-11
3.15777e-11
3.39714e-11
2.48953e-11
6.38459e-11
4.72164e-11
2.26106e-11
2.77325e-11
2.93743e-11
2.89407e-11
2.88565e-11
2.8816e-11
2.86157e-11
2.87588e-11
2.86705e-11
2.85171e-11
2.88906e-11
2.82878e-11
2.93132e-11
2.817e-11
3.0482e-11
2.77526e-11
3.05092e-11
2.24217e-11
5.81545e-11
3.30487e-11
2.01899e-11
2.42929e-11
2.55174e-11
2.50343e-11
2.4936e-11
2.48985e-11
2.4701e-11
2.48429e-11
2.47487e-11
2.4592e-11
2.4964e-11
2.43731e-11
2.53702e-11
2.42549e-11
2.65018e-11
2.39715e-11
2.69685e-11
1.99723e-11
5.13617e-11
2.40243e-11
1.77669e-11
2.08474e-11
2.17233e-11
2.12275e-11
2.11159e-11
2.10836e-11
2.08966e-11
2.10335e-11
2.09405e-11
2.07713e-11
2.11382e-11
2.05731e-11
2.15193e-11
2.0458e-11
2.25869e-11
2.01248e-11
2.34103e-11
1.74237e-11
4.40094e-11
1.80648e-11
1.52952e-11
1.74841e-11
1.80786e-11
1.75066e-11
1.74466e-11
1.74122e-11
1.72177e-11
1.73434e-11
1.72192e-11
1.71398e-11
1.75002e-11
1.69749e-11
1.78478e-11
1.68662e-11
1.88269e-11
1.66309e-11
1.99243e-11
1.4893e-11
3.65551e-11
1.39079e-11
1.28395e-11
1.42979e-11
1.46799e-11
1.41474e-11
1.40863e-11
1.40585e-11
1.38838e-11
1.39977e-11
1.3882e-11
1.38e-11
1.41364e-11
1.36631e-11
1.44436e-11
1.35637e-11
1.53131e-11
1.34006e-11
1.63171e-11
1.22151e-11
3.03236e-11
1.08173e-11
1.04815e-11
1.13791e-11
1.1609e-11
1.11355e-11
1.1078e-11
1.1057e-11
1.09052e-11
1.10052e-11
1.09015e-11
1.08248e-11
1.11228e-11
1.07103e-11
1.13847e-11
1.06227e-11
1.21301e-11
1.05111e-11
1.31768e-11
9.89597e-12
2.47119e-11
8.38792e-12
8.30489e-12
8.80203e-12
8.92934e-12
8.52645e-12
8.47624e-12
8.46135e-12
8.33419e-12
8.41886e-12
8.32949e-12
8.26257e-12
8.51469e-12
8.16811e-12
8.72966e-12
8.09372e-12
9.34485e-12
8.01857e-12
1.03449e-11
7.797e-12
1.98162e-11
6.41346e-12
6.38078e-12
6.61434e-12
6.67772e-12
6.34947e-12
6.30839e-12
6.29856e-12
6.19596e-12
6.26509e-12
6.19093e-12
6.13566e-12
6.34011e-12
6.05981e-12
6.50956e-12
5.99899e-12
6.99735e-12
5.94878e-12
7.88576e-12
5.97065e-12
1.56445e-11
4.43697e-12
4.59593e-12
4.37805e-12
4.72402e-12
4.3302e-12
5.09536e-12
4.29629e-12
5.83692e-12
4.44594e-12
1.21794e-11
)
;

boundaryField
{
    fuel
    {
        type            fixedValue;
        value           nonuniform 0();
    }
    wall
    {
        type            zeroGradient;
    }
    outlet
    {
        type            zeroGradient;
    }
    frontAndBack
    {
        type            empty;
    }
    procBoundary0to1
    {
        type            processor;
        value           nonuniform List<scalar> 
21
(
4.80613e-12
4.75483e-12
4.83207e-12
4.85873e-12
4.6027e-12
4.57108e-12
4.56518e-12
4.48553e-12
4.53979e-12
4.48069e-12
4.48069e-12
3.13191e-12
3.2508e-12
3.08757e-12
3.34379e-12
3.05126e-12
3.61519e-12
3.02819e-12
4.19961e-12
3.23125e-12
9.37077e-12
)
;
    }
    procBoundary0to2
    {
        type            processor;
        value           nonuniform List<scalar> 
12
(
4.75841e-11
2.64268e-10
3.27944e-11
4.0254e-11
4.41152e-11
4.41314e-11
4.41325e-11
4.41042e-11
4.39571e-11
4.40804e-11
4.4052e-11
4.4052e-11
)
;
    }
    procBoundary0to3
    {
        type            processor;
        value           nonuniform List<scalar> 10(5.07708e-11 5.10422e-11 5.05562e-11 5.14211e-11 5.04955e-11 5.24344e-11 4.93321e-11 4.93228e-11 3.41351e-11 6.2487e-11);
    }
}


// ************************************************************************* //
