/*--------------------------------*- C++ -*----------------------------------*\
| =========                 |                                                 |
| \\      /  F ield         | OpenFOAM: The Open Source CFD Toolbox           |
|  \\    /   O peration     | Version:  dev                                   |
|   \\  /    A nd           | Web:      www.OpenFOAM.org                      |
|    \\/     M anipulation  |                                                 |
\*---------------------------------------------------------------------------*/
FoamFile
{
    version     2.0;
    format      ascii;
    class       volScalarField;
    location    "0.095";
    object      l-C6H4;
}
// * * * * * * * * * * * * * * * * * * * * * * * * * * * * * * * * * * * * * //

dimensions      [0 0 0 0 0 0 0];

internalField   nonuniform List<scalar> 
250
(
3.24638e-08
3.24505e-08
3.24105e-08
3.24465e-08
3.25106e-08
3.28241e-08
3.46489e-08
4.04506e-08
7.0132e-08
8.09102e-08
3.14047e-08
3.13878e-08
3.13535e-08
3.13844e-08
3.14444e-08
3.17409e-08
3.34109e-08
3.85808e-08
6.37673e-08
7.51231e-08
8.09941e-08
5.42021e-08
3.7456e-08
3.26162e-08
3.11681e-08
3.05954e-08
3.06664e-08
3.0504e-08
3.06149e-08
3.05282e-08
3.05669e-08
3.05466e-08
3.05174e-08
3.05431e-08
3.0599e-08
3.08788e-08
3.24005e-08
3.70071e-08
5.84032e-08
7.01678e-08
7.99496e-08
5.19004e-08
3.63153e-08
3.17914e-08
3.04609e-08
2.99503e-08
3.0002e-08
2.98719e-08
2.99631e-08
2.98967e-08
2.99277e-08
2.99044e-08
2.98797e-08
2.99002e-08
2.99521e-08
3.02159e-08
3.15983e-08
3.57019e-08
5.35144e-08
6.57116e-08
7.85108e-08
4.9883e-08
3.53603e-08
3.11494e-08
2.99307e-08
2.94775e-08
2.95115e-08
2.94114e-08
2.94843e-08
2.94367e-08
2.94601e-08
2.94342e-08
2.94137e-08
2.94294e-08
2.94776e-08
2.97262e-08
3.09798e-08
3.46361e-08
4.92493e-08
6.16381e-08
7.66014e-08
4.80651e-08
3.45621e-08
3.0661e-08
2.95479e-08
2.91466e-08
2.91651e-08
2.90914e-08
2.91482e-08
2.91171e-08
2.91334e-08
2.91057e-08
2.90885e-08
2.91004e-08
2.91454e-08
2.93797e-08
3.05158e-08
3.37782e-08
4.61177e-08
5.79453e-08
7.41766e-08
4.63822e-08
3.38927e-08
3.02962e-08
2.92821e-08
2.89272e-08
2.8933e-08
2.88814e-08
2.89249e-08
2.89076e-08
2.89174e-08
2.88888e-08
2.88742e-08
2.8883e-08
2.89253e-08
2.91467e-08
3.01751e-08
3.30939e-08
4.35565e-08
5.46439e-08
7.12488e-08
4.47934e-08
3.33207e-08
3.00314e-08
2.91101e-08
2.8799e-08
2.87939e-08
2.87617e-08
2.87935e-08
2.87883e-08
2.87923e-08
2.87631e-08
2.87507e-08
2.87567e-08
2.87963e-08
2.90069e-08
2.99327e-08
3.25578e-08
4.14788e-08
5.17512e-08
6.79129e-08
4.32931e-08
3.28704e-08
2.98657e-08
2.90322e-08
2.87634e-08
2.87457e-08
2.8736e-08
2.87536e-08
2.87628e-08
2.87606e-08
2.87303e-08
2.87205e-08
2.87225e-08
2.87588e-08
2.89579e-08
2.97866e-08
3.21518e-08
3.98222e-08
4.92878e-08
6.43684e-08
4.19325e-08
3.2589e-08
2.98468e-08
2.91007e-08
2.88877e-08
2.88503e-08
2.88764e-08
2.8869e-08
2.8903e-08
2.88913e-08
2.88568e-08
2.8852e-08
2.88453e-08
2.8876e-08
2.90655e-08
2.97827e-08
3.19282e-08
3.85746e-08
4.72977e-08
6.09787e-08
4.08533e-08
3.26256e-08
3.01099e-08
2.94565e-08
2.93231e-08
2.92482e-08
2.93404e-08
2.92841e-08
2.93657e-08
2.93376e-08
2.92928e-08
2.92979e-08
2.92737e-08
2.92943e-08
2.94747e-08
3.00527e-08
3.20601e-08
3.78108e-08
4.58913e-08
5.83046e-08
4.03362e-08
3.32767e-08
3.09344e-08
3.03884e-08
3.03796e-08
3.02336e-08
3.04482e-08
3.02983e-08
3.04704e-08
3.0412e-08
3.0346e-08
3.037e-08
3.03134e-08
3.03152e-08
3.0488e-08
3.08713e-08
3.28147e-08
3.77463e-08
4.53097e-08
5.71082e-08
4.08774e-08
3.50827e-08
3.28396e-08
3.24297e-08
3.26255e-08
3.23475e-08
3.27841e-08
3.24611e-08
3.27995e-08
3.2686e-08
3.258e-08
3.26385e-08
3.25246e-08
3.24925e-08
3.26607e-08
3.27492e-08
3.47331e-08
3.88286e-08
4.6027e-08
3.72191e-08
3.70392e-08
3.71607e-08
3.69466e-08
3.68518e-08
3.70202e-08
3.66315e-08
3.88178e-08
4.19151e-08
4.89397e-08
)
;

boundaryField
{
    fuel
    {
        type            fixedValue;
        value           nonuniform 0();
    }
    wall
    {
        type            zeroGradient;
    }
    outlet
    {
        type            zeroGradient;
    }
    frontAndBack
    {
        type            empty;
    }
    procBoundary0to1
    {
        type            processor;
        value           nonuniform List<scalar> 
21
(
5.85039e-08
4.3344e-08
3.90309e-08
3.67865e-08
3.65666e-08
3.71156e-08
3.65902e-08
3.74325e-08
3.67899e-08
3.74335e-08
3.74335e-08
4.61252e-08
4.58052e-08
4.6046e-08
4.56505e-08
4.54373e-08
4.56085e-08
4.43818e-08
4.70505e-08
4.86952e-08
5.58005e-08
)
;
    }
    procBoundary0to2
    {
        type            processor;
        value           nonuniform List<scalar> 
12
(
3.24103e-08
8.17345e-08
5.70648e-08
3.88087e-08
3.36482e-08
3.20775e-08
3.14393e-08
3.153e-08
3.13347e-08
3.14657e-08
3.13583e-08
3.13583e-08
)
;
    }
    procBoundary0to3
    {
        type            processor;
        value           nonuniform List<scalar> 10(3.3764e-08 3.37542e-08 3.37077e-08 3.37484e-08 3.38163e-08 3.41473e-08 3.62556e-08 4.28775e-08 7.75226e-08 8.81562e-08);
    }
}


// ************************************************************************* //
