/*--------------------------------*- C++ -*----------------------------------*\
| =========                 |                                                 |
| \\      /  F ield         | OpenFOAM: The Open Source CFD Toolbox           |
|  \\    /   O peration     | Version:  dev                                   |
|   \\  /    A nd           | Web:      www.OpenFOAM.org                      |
|    \\/     M anipulation  |                                                 |
\*---------------------------------------------------------------------------*/
FoamFile
{
    version     2.0;
    format      ascii;
    class       volScalarField;
    location    "0.095";
    object      n-C4H5;
}
// * * * * * * * * * * * * * * * * * * * * * * * * * * * * * * * * * * * * * //

dimensions      [0 0 0 0 0 0 0];

internalField   nonuniform List<scalar> 
250
(
2.34303e-11
2.34563e-11
2.33966e-11
2.34837e-11
2.35435e-11
2.37009e-11
2.48554e-11
2.65507e-11
3.25417e-11
3.36935e-11
2.15769e-11
2.16033e-11
2.15472e-11
2.16342e-11
2.1693e-11
2.18394e-11
2.29128e-11
2.4388e-11
2.97344e-11
2.75546e-11
3.30841e-11
2.93508e-11
2.30066e-11
2.12381e-11
2.04697e-11
1.99218e-11
2.00998e-11
1.97732e-11
1.9993e-11
1.9793e-11
1.98605e-11
1.98874e-11
1.9834e-11
1.99205e-11
1.99779e-11
2.0113e-11
2.1106e-11
2.23783e-11
2.7162e-11
2.39774e-11
3.19745e-11
2.70434e-11
2.10961e-11
1.95135e-11
1.88217e-11
1.83207e-11
1.84871e-11
1.81772e-11
1.83886e-11
1.81966e-11
1.82612e-11
1.82888e-11
1.82377e-11
1.8323e-11
1.83783e-11
1.85019e-11
1.94151e-11
2.05027e-11
2.45717e-11
2.17236e-11
3.03103e-11
2.47797e-11
1.9289e-11
1.78933e-11
1.72772e-11
1.68222e-11
1.69779e-11
1.66848e-11
1.68879e-11
1.67036e-11
1.67662e-11
1.67942e-11
1.67453e-11
1.68283e-11
1.6881e-11
1.69929e-11
1.78264e-11
1.875e-11
2.20522e-11
2.01161e-11
2.81795e-11
2.25554e-11
1.75867e-11
1.63736e-11
1.58306e-11
1.54235e-11
1.5568e-11
1.52932e-11
1.54868e-11
1.53113e-11
1.5372e-11
1.53997e-11
1.53534e-11
1.54325e-11
1.54819e-11
1.55825e-11
1.63345e-11
1.71182e-11
1.99858e-11
1.88017e-11
2.57378e-11
2.03983e-11
1.60057e-11
1.49625e-11
1.449e-11
1.41348e-11
1.42664e-11
1.40143e-11
1.41946e-11
1.40314e-11
1.40892e-11
1.41153e-11
1.40727e-11
1.41454e-11
1.41906e-11
1.42804e-11
1.49462e-11
1.5616e-11
1.80961e-11
1.76038e-11
2.31684e-11
1.83595e-11
1.45506e-11
1.36862e-11
1.32821e-11
1.29854e-11
1.31007e-11
1.28817e-11
1.30396e-11
1.28975e-11
1.29473e-11
1.29698e-11
1.29324e-11
1.29956e-11
1.30353e-11
1.31156e-11
1.3686e-11
1.42702e-11
1.63976e-11
1.64634e-11
2.06684e-11
1.65142e-11
1.33242e-11
1.25957e-11
1.22555e-11
1.19883e-11
1.20802e-11
1.19101e-11
1.20338e-11
1.19248e-11
1.19582e-11
1.19775e-11
1.19465e-11
1.2e-11
1.20326e-11
1.20943e-11
1.26037e-11
1.30883e-11
1.49252e-11
1.53997e-11
1.84428e-11
1.49639e-11
1.23904e-11
1.17769e-11
1.15055e-11
1.13127e-11
1.13726e-11
1.12639e-11
1.13419e-11
1.12763e-11
1.12937e-11
1.13036e-11
1.12826e-11
1.13184e-11
1.13415e-11
1.1394e-11
1.17864e-11
1.21667e-11
1.37473e-11
1.4492e-11
1.67264e-11
1.38489e-11
1.18917e-11
1.1369e-11
1.11711e-11
1.10714e-11
1.10833e-11
1.10573e-11
1.1073e-11
1.10662e-11
1.10656e-11
1.10611e-11
1.10541e-11
1.10657e-11
1.10756e-11
1.112e-11
1.13719e-11
1.17395e-11
1.29833e-11
1.38795e-11
1.57986e-11
1.33749e-11
1.20574e-11
1.16021e-11
1.14874e-11
1.15128e-11
1.145e-11
1.15472e-11
1.14674e-11
1.15504e-11
1.15225e-11
1.14956e-11
1.15092e-11
1.14869e-11
1.14772e-11
1.15146e-11
1.15869e-11
1.19748e-11
1.28285e-11
1.3783e-11
1.60158e-11
1.38735e-11
1.3283e-11
1.28772e-11
1.28639e-11
1.30736e-11
1.28878e-11
1.31809e-11
1.29458e-11
1.31742e-11
1.31011e-11
1.30383e-11
1.30841e-11
1.30118e-11
1.29707e-11
1.30022e-11
1.28256e-11
1.32781e-11
1.3626e-11
1.45613e-11
1.65965e-11
1.64738e-11
1.65727e-11
1.64235e-11
1.63293e-11
1.63554e-11
1.58066e-11
1.63904e-11
1.60025e-11
1.68347e-11
)
;

boundaryField
{
    fuel
    {
        type            fixedValue;
        value           nonuniform 0();
    }
    wall
    {
        type            zeroGradient;
    }
    outlet
    {
        type            zeroGradient;
    }
    frontAndBack
    {
        type            empty;
    }
    procBoundary0to1
    {
        type            processor;
        value           nonuniform List<scalar> 
21
(
1.79378e-11
1.59301e-11
1.62955e-11
1.59197e-11
1.60528e-11
1.65442e-11
1.61562e-11
1.67681e-11
1.62774e-11
1.67449e-11
1.67449e-11
2.34604e-11
2.32399e-11
2.34249e-11
2.31594e-11
2.29793e-11
2.2994e-11
2.18643e-11
2.26751e-11
2.1138e-11
2.17282e-11
)
;
    }
    procBoundary0to2
    {
        type            processor;
        value           nonuniform List<scalar> 
12
(
2.33581e-11
3.34321e-11
3.18383e-11
2.50216e-11
2.30846e-11
2.22347e-11
2.16405e-11
2.18292e-11
2.14871e-11
2.17152e-11
2.15069e-11
2.15069e-11
)
;
    }
    procBoundary0to3
    {
        type            processor;
        value           nonuniform List<scalar> 10(2.54466e-11 2.54724e-11 2.54077e-11 2.54944e-11 2.55547e-11 2.57223e-11 2.7136e-11 2.9154e-11 3.56088e-11 4.52003e-11);
    }
}


// ************************************************************************* //
