/*--------------------------------*- C++ -*----------------------------------*\
| =========                 |                                                 |
| \\      /  F ield         | OpenFOAM: The Open Source CFD Toolbox           |
|  \\    /   O peration     | Version:  dev                                   |
|   \\  /    A nd           | Web:      www.OpenFOAM.org                      |
|    \\/     M anipulation  |                                                 |
\*---------------------------------------------------------------------------*/
FoamFile
{
    version     2.0;
    format      ascii;
    class       volScalarField;
    location    "0.095";
    object      n-C6H7;
}
// * * * * * * * * * * * * * * * * * * * * * * * * * * * * * * * * * * * * * //

dimensions      [0 0 0 0 0 0 0];

internalField   nonuniform List<scalar> 
250
(
6.06047e-14
6.08377e-14
6.02843e-14
6.12952e-14
6.04628e-14
6.33359e-14
6.27201e-14
7.90093e-14
1.20441e-13
3.9337e-13
5.73126e-14
5.7521e-14
5.69951e-14
5.79409e-14
5.71562e-14
5.98436e-14
5.92307e-14
7.3756e-14
1.10751e-13
3.54453e-13
7.79602e-14
8.83391e-14
6.36345e-14
5.70271e-14
5.47198e-14
5.42572e-14
5.41693e-14
5.40594e-14
5.42254e-14
5.4404e-14
5.41847e-14
5.43778e-14
5.38724e-14
5.47705e-14
5.40172e-14
5.65468e-14
5.58994e-14
6.90266e-14
1.00782e-13
3.16058e-13
7.33305e-14
7.92849e-14
5.93427e-14
5.37598e-14
5.16554e-14
5.12206e-14
5.11279e-14
5.09979e-14
5.11625e-14
5.13112e-14
5.1139e-14
5.13296e-14
5.0835e-14
5.17058e-14
5.0963e-14
5.33737e-14
5.26488e-14
6.4465e-14
9.01554e-14
2.79081e-13
6.81605e-14
7.06732e-14
5.51674e-14
5.05062e-14
4.85842e-14
4.81772e-14
4.80825e-14
4.79341e-14
4.80988e-14
4.82144e-14
4.80788e-14
4.82813e-14
4.77855e-14
4.86527e-14
4.78951e-14
5.02355e-14
4.93857e-14
6.00208e-14
8.05199e-14
2.41349e-13
6.25314e-14
6.33712e-14
5.09884e-14
4.7159e-14
4.53994e-14
4.50194e-14
4.49247e-14
4.47584e-14
4.49251e-14
4.50064e-14
4.48943e-14
4.51241e-14
4.46138e-14
4.55025e-14
4.47025e-14
4.70265e-14
4.6007e-14
5.56146e-14
7.06448e-14
2.04408e-13
5.65302e-14
5.61761e-14
4.66998e-14
4.36056e-14
4.19923e-14
4.16352e-14
4.15429e-14
4.13591e-14
4.15299e-14
4.15775e-14
4.14727e-14
4.17449e-14
4.12072e-14
4.21409e-14
4.12721e-14
4.36311e-14
4.2414e-14
5.1156e-14
6.17695e-14
1.70657e-13
5.02827e-14
4.9464e-14
4.22064e-14
3.97451e-14
3.82699e-14
3.79285e-14
3.78414e-14
3.76423e-14
3.78188e-14
3.78355e-14
3.77165e-14
3.8045e-14
3.74713e-14
3.84655e-14
3.75098e-14
3.99396e-14
3.83374e-14
4.65497e-14
5.32399e-14
1.3954e-13
4.39061e-14
4.2925e-14
3.74452e-14
3.55125e-14
3.40746e-14
3.38072e-14
3.37196e-14
3.34832e-14
3.36632e-14
3.36125e-14
3.35731e-14
3.3968e-14
3.33571e-14
3.44132e-14
3.33685e-14
3.58758e-14
3.40446e-14
4.17349e-14
4.52064e-14
1.108e-13
3.75158e-14
3.65208e-14
3.24164e-14
3.09226e-14
2.96018e-14
2.93563e-14
2.92791e-14
2.90332e-14
2.92165e-14
2.91365e-14
2.90796e-14
2.95284e-14
2.88899e-14
2.99895e-14
2.88756e-14
3.14258e-14
2.94071e-14
3.62941e-14
3.70222e-14
8.78673e-14
3.12324e-14
3.02752e-14
2.72053e-14
2.6069e-14
2.48719e-14
2.46535e-14
2.45895e-14
2.43429e-14
2.45246e-14
2.44221e-14
2.43539e-14
2.48309e-14
2.41862e-14
2.52908e-14
2.41507e-14
2.6666e-14
2.4552e-14
3.09304e-14
2.99183e-14
6.78635e-14
2.51949e-14
2.4287e-14
2.19859e-14
2.11369e-14
2.0081e-14
1.98947e-14
1.98453e-14
1.961e-14
1.97829e-14
1.96681e-14
1.95948e-14
2.00686e-14
1.9448e-14
2.05042e-14
1.93982e-14
2.17696e-14
1.96889e-14
2.54507e-14
2.3398e-14
5.09039e-14
1.95681e-14
1.87193e-14
1.69971e-14
1.63773e-14
1.54832e-14
1.53322e-14
1.52972e-14
1.50859e-14
1.52418e-14
1.51264e-14
1.50544e-14
1.5493e-14
1.49298e-14
1.58811e-14
1.48739e-14
1.69858e-14
1.50744e-14
2.00764e-14
1.75953e-14
3.69253e-14
1.0987e-14
1.13636e-14
1.08863e-14
1.16858e-14
1.08322e-14
1.25906e-14
1.0963e-14
1.50768e-14
1.26464e-14
2.57729e-14
)
;

boundaryField
{
    fuel
    {
        type            fixedValue;
        value           nonuniform 0();
    }
    wall
    {
        type            zeroGradient;
    }
    outlet
    {
        type            zeroGradient;
    }
    frontAndBack
    {
        type            empty;
    }
    procBoundary0to1
    {
        type            processor;
        value           nonuniform List<scalar> 
21
(
1.4532e-14
1.37664e-14
1.2495e-14
1.20567e-14
1.13395e-14
1.12244e-14
1.12023e-14
1.10251e-14
1.11569e-14
1.10518e-14
1.10518e-14
7.59711e-15
7.89453e-15
7.52087e-15
8.14149e-15
7.47479e-15
8.82885e-15
7.55494e-15
1.07144e-14
8.65272e-15
1.72182e-14
)
;
    }
    procBoundary0to2
    {
        type            processor;
        value           nonuniform List<scalar> 
12
(
6.09372e-14
8.20197e-14
9.73954e-14
6.80679e-14
6.04041e-14
5.78722e-14
5.73825e-14
5.73023e-14
5.72155e-14
5.73844e-14
5.75868e-14
5.75868e-14
)
;
    }
    procBoundary0to3
    {
        type            processor;
        value           nonuniform List<scalar> 10(6.41301e-14 6.43908e-14 6.38067e-14 6.48975e-14 6.40052e-14 6.70824e-14 6.64281e-14 8.41945e-14 1.31256e-13 4.31017e-13);
    }
}


// ************************************************************************* //
