/*--------------------------------*- C++ -*----------------------------------*\
| =========                 |                                                 |
| \\      /  F ield         | OpenFOAM: The Open Source CFD Toolbox           |
|  \\    /   O peration     | Version:  dev                                   |
|   \\  /    A nd           | Web:      www.OpenFOAM.org                      |
|    \\/     M anipulation  |                                                 |
\*---------------------------------------------------------------------------*/
FoamFile
{
    version     2.0;
    format      ascii;
    class       volScalarField;
    location    "0.095";
    object      OH;
}
// * * * * * * * * * * * * * * * * * * * * * * * * * * * * * * * * * * * * * //

dimensions      [0 0 0 0 0 0 0];

internalField   nonuniform List<scalar> 
250
(
2.63442e-05
2.63897e-05
2.6343e-05
2.64354e-05
2.647e-05
2.64556e-05
2.65372e-05
2.44083e-05
1.74581e-05
7.53738e-06
2.47582e-05
2.48081e-05
2.47576e-05
2.48582e-05
2.48976e-05
2.48906e-05
2.50617e-05
2.3219e-05
1.73303e-05
8.21031e-06
1.53883e-05
2.03391e-05
2.24423e-05
2.34634e-05
2.34803e-05
2.31283e-05
2.33189e-05
2.29798e-05
2.32057e-05
2.29902e-05
2.30566e-05
2.3111e-05
2.30566e-05
2.31647e-05
2.32087e-05
2.32087e-05
2.34624e-05
2.18905e-05
1.70369e-05
8.8248e-06
1.49661e-05
1.92345e-05
2.08295e-05
2.17213e-05
2.1692e-05
2.13217e-05
2.15221e-05
2.1162e-05
2.14053e-05
2.1173e-05
2.12459e-05
2.13044e-05
2.12464e-05
2.1361e-05
2.14087e-05
2.14153e-05
2.17422e-05
2.04213e-05
1.65089e-05
9.31979e-06
1.42479e-05
1.79584e-05
1.91042e-05
1.98702e-05
1.97992e-05
1.94174e-05
1.96256e-05
1.9248e-05
1.9507e-05
1.92595e-05
1.93393e-05
1.94012e-05
1.93401e-05
1.94594e-05
1.951e-05
1.95222e-05
1.99099e-05
1.88181e-05
1.57162e-05
9.63747e-06
1.32922e-05
1.65284e-05
1.72833e-05
1.79267e-05
1.78199e-05
1.7436e-05
1.7649e-05
1.72596e-05
1.75308e-05
1.72713e-05
1.73578e-05
1.74217e-05
1.73589e-05
1.74801e-05
1.75324e-05
1.75493e-05
1.79815e-05
1.70968e-05
1.47952e-05
9.73346e-06
1.21559e-05
1.49703e-05
1.53935e-05
1.59162e-05
1.5781e-05
1.54068e-05
1.56208e-05
1.52285e-05
1.55052e-05
1.52405e-05
1.5331e-05
1.5395e-05
1.53322e-05
1.54517e-05
1.55044e-05
1.55253e-05
1.59821e-05
1.52837e-05
1.36727e-05
9.57736e-06
1.08918e-05
1.33163e-05
1.34324e-05
1.38734e-05
1.37188e-05
1.33683e-05
1.35788e-05
1.31989e-05
1.34682e-05
1.32108e-05
1.32973e-05
1.33591e-05
1.32983e-05
1.34123e-05
1.34639e-05
1.34882e-05
1.39454e-05
1.34165e-05
1.23742e-05
9.16143e-06
9.54858e-06
1.16068e-05
1.15006e-05
1.18416e-05
1.16705e-05
1.12878e-05
1.14888e-05
1.11345e-05
1.13889e-05
1.11471e-05
1.12209e-05
1.12841e-05
1.12253e-05
1.13375e-05
1.13868e-05
1.13976e-05
1.19139e-05
1.14795e-05
1.0938e-05
8.50218e-06
8.17079e-06
9.8867e-06
9.61276e-06
9.8699e-06
9.69838e-06
9.35321e-06
9.54107e-06
9.21832e-06
9.45102e-06
9.23036e-06
9.29454e-06
9.3525e-06
9.29875e-06
9.39995e-06
9.44563e-06
9.4565e-06
9.93945e-06
9.51391e-06
9.41725e-06
7.63917e-06
6.80901e-06
8.20546e-06
7.82122e-06
8.00931e-06
7.84684e-06
7.54393e-06
7.71437e-06
7.42416e-06
7.63592e-06
7.43529e-06
7.4943e-06
7.54613e-06
7.4982e-06
7.58681e-06
7.62802e-06
7.63808e-06
8.07401e-06
7.75087e-06
7.87765e-06
6.63062e-06
5.5155e-06
6.6138e-06
6.17526e-06
6.30818e-06
6.16241e-06
5.90456e-06
6.05437e-06
5.80043e-06
5.98851e-06
5.81034e-06
5.86413e-06
5.90925e-06
5.8676e-06
5.94282e-06
5.97899e-06
5.98751e-06
6.36607e-06
6.12326e-06
6.38233e-06
5.54637e-06
4.33059e-06
5.15899e-06
4.71602e-06
4.80647e-06
4.68254e-06
4.47042e-06
4.5976e-06
4.38339e-06
4.54442e-06
4.39186e-06
4.43881e-06
4.47685e-06
4.44178e-06
4.50343e-06
4.53426e-06
4.54092e-06
4.85613e-06
4.67603e-06
4.9915e-06
4.45928e-06
3.23946e-06
3.27028e-06
3.24191e-06
3.29038e-06
3.31585e-06
3.32069e-06
3.57151e-06
3.44011e-06
3.75522e-06
3.43607e-06
)
;

boundaryField
{
    fuel
    {
        type            fixedValue;
        value           nonuniform 0();
    }
    wall
    {
        type            zeroGradient;
    }
    outlet
    {
        type            zeroGradient;
    }
    frontAndBack
    {
        type            empty;
    }
    procBoundary0to1
    {
        type            processor;
        value           nonuniform List<scalar> 
21
(
3.28406e-06
3.88e-06
3.47166e-06
3.53087e-06
3.43099e-06
3.26308e-06
3.36695e-06
3.19367e-06
3.32571e-06
3.20061e-06
3.20061e-06
2.27092e-06
2.29477e-06
2.27286e-06
2.30918e-06
2.32951e-06
2.33288e-06
2.52291e-06
2.42906e-06
2.70708e-06
2.52875e-06
)
;
    }
    procBoundary0to2
    {
        type            processor;
        value           nonuniform List<scalar> 
12
(
2.62896e-05
1.54689e-05
2.13237e-05
2.3934e-05
2.50882e-05
2.51544e-05
2.48246e-05
2.5004e-05
2.46882e-05
2.4896e-05
2.46979e-05
2.46979e-05
)
;
    }
    procBoundary0to3
    {
        type            processor;
        value           nonuniform List<scalar> 10(2.78135e-05 2.78547e-05 2.78115e-05 2.78958e-05 2.79255e-05 2.79036e-05 2.80036e-05 2.55794e-05 1.74486e-05 6.86006e-06);
    }
}


// ************************************************************************* //
