/*--------------------------------*- C++ -*----------------------------------*\
| =========                 |                                                 |
| \\      /  F ield         | OpenFOAM: The Open Source CFD Toolbox           |
|  \\    /   O peration     | Version:  dev                                   |
|   \\  /    A nd           | Web:      www.OpenFOAM.org                      |
|    \\/     M anipulation  |                                                 |
\*---------------------------------------------------------------------------*/
FoamFile
{
    version     2.0;
    format      ascii;
    class       volScalarField;
    location    "0.1";
    object      A1C2H*;
}
// * * * * * * * * * * * * * * * * * * * * * * * * * * * * * * * * * * * * * //

dimensions      [0 0 0 0 0 0 0];

internalField   nonuniform List<scalar> 
8000
(
2.89965e-08
2.90425e-08
2.90914e-08
2.91085e-08
2.91109e-08
2.9114e-08
2.91123e-08
2.91138e-08
2.91124e-08
2.91134e-08
2.91125e-08
2.91132e-08
2.91126e-08
2.91131e-08
2.91127e-08
2.9113e-08
2.91127e-08
2.9113e-08
2.91128e-08
2.91129e-08
2.91128e-08
2.91129e-08
2.91128e-08
2.91129e-08
2.91129e-08
2.91129e-08
2.91129e-08
2.91128e-08
2.91129e-08
2.91128e-08
2.91129e-08
2.91128e-08
2.9113e-08
2.91127e-08
2.9113e-08
2.91127e-08
2.91131e-08
2.91126e-08
2.91132e-08
2.91125e-08
2.91134e-08
2.91124e-08
2.91138e-08
2.91123e-08
2.9114e-08
2.91109e-08
2.91085e-08
2.90914e-08
2.90425e-08
2.89965e-08
1.08143e-07
1.08285e-07
1.08484e-07
1.08555e-07
1.08565e-07
1.08578e-07
1.08571e-07
1.08578e-07
1.08572e-07
1.08576e-07
1.08572e-07
1.08575e-07
1.08573e-07
1.08575e-07
1.08573e-07
1.08574e-07
1.08573e-07
1.08574e-07
1.08573e-07
1.08574e-07
1.08574e-07
1.08574e-07
1.08574e-07
1.08574e-07
1.08574e-07
1.08574e-07
1.08574e-07
1.08574e-07
1.08574e-07
1.08574e-07
1.08574e-07
1.08573e-07
1.08574e-07
1.08573e-07
1.08574e-07
1.08573e-07
1.08575e-07
1.08573e-07
1.08575e-07
1.08572e-07
1.08576e-07
1.08572e-07
1.08578e-07
1.08571e-07
1.08578e-07
1.08565e-07
1.08555e-07
1.08484e-07
1.08285e-07
1.08144e-07
2.39776e-07
2.40101e-07
2.40538e-07
2.40697e-07
2.40708e-07
2.40742e-07
2.40721e-07
2.4074e-07
2.40723e-07
2.40735e-07
2.40724e-07
2.40733e-07
2.40726e-07
2.40731e-07
2.40727e-07
2.40731e-07
2.40727e-07
2.4073e-07
2.40728e-07
2.4073e-07
2.40728e-07
2.40729e-07
2.40728e-07
2.40729e-07
2.40729e-07
2.40729e-07
2.40729e-07
2.40728e-07
2.40729e-07
2.40728e-07
2.4073e-07
2.40728e-07
2.4073e-07
2.40727e-07
2.40731e-07
2.40727e-07
2.40731e-07
2.40726e-07
2.40733e-07
2.40724e-07
2.40735e-07
2.40723e-07
2.4074e-07
2.40721e-07
2.40742e-07
2.40708e-07
2.40697e-07
2.40538e-07
2.40101e-07
2.39776e-07
3.8539e-07
3.85901e-07
3.86571e-07
3.86804e-07
3.86796e-07
3.86856e-07
3.86813e-07
3.86849e-07
3.86816e-07
3.86841e-07
3.86819e-07
3.86837e-07
3.86822e-07
3.86833e-07
3.86824e-07
3.86832e-07
3.86825e-07
3.86831e-07
3.86827e-07
3.8683e-07
3.86827e-07
3.86829e-07
3.86828e-07
3.86829e-07
3.86828e-07
3.86828e-07
3.86829e-07
3.86828e-07
3.86829e-07
3.86827e-07
3.8683e-07
3.86827e-07
3.86831e-07
3.86825e-07
3.86832e-07
3.86824e-07
3.86833e-07
3.86822e-07
3.86837e-07
3.86819e-07
3.86841e-07
3.86816e-07
3.86849e-07
3.86813e-07
3.86856e-07
3.86796e-07
3.86804e-07
3.86571e-07
3.85901e-07
3.8539e-07
4.80184e-07
4.80759e-07
4.81545e-07
4.81788e-07
4.81749e-07
4.81823e-07
4.81759e-07
4.81809e-07
4.81763e-07
4.81798e-07
4.81768e-07
4.81793e-07
4.81772e-07
4.81788e-07
4.81775e-07
4.81786e-07
4.81776e-07
4.81785e-07
4.81779e-07
4.81783e-07
4.8178e-07
4.81782e-07
4.8178e-07
4.81782e-07
4.81781e-07
4.81781e-07
4.81782e-07
4.8178e-07
4.81782e-07
4.8178e-07
4.81783e-07
4.81779e-07
4.81785e-07
4.81777e-07
4.81786e-07
4.81775e-07
4.81788e-07
4.81772e-07
4.81792e-07
4.81768e-07
4.81798e-07
4.81763e-07
4.81809e-07
4.81759e-07
4.81823e-07
4.81749e-07
4.81788e-07
4.81545e-07
4.80759e-07
4.80184e-07
5.10143e-07
5.10719e-07
5.11574e-07
5.11805e-07
5.1174e-07
5.1182e-07
5.11742e-07
5.118e-07
5.11745e-07
5.11787e-07
5.11751e-07
5.11781e-07
5.11757e-07
5.11776e-07
5.1176e-07
5.11773e-07
5.11762e-07
5.11772e-07
5.11765e-07
5.1177e-07
5.11766e-07
5.11769e-07
5.11766e-07
5.11768e-07
5.11767e-07
5.11767e-07
5.11768e-07
5.11766e-07
5.11769e-07
5.11766e-07
5.1177e-07
5.11765e-07
5.11772e-07
5.11762e-07
5.11773e-07
5.1176e-07
5.11776e-07
5.11757e-07
5.11781e-07
5.11752e-07
5.11787e-07
5.11745e-07
5.118e-07
5.11742e-07
5.1182e-07
5.1174e-07
5.11805e-07
5.11574e-07
5.10719e-07
5.10143e-07
4.9391e-07
4.94478e-07
4.95398e-07
4.95623e-07
4.95544e-07
4.95629e-07
4.95541e-07
4.95605e-07
4.95544e-07
4.9559e-07
4.95551e-07
4.95583e-07
4.95557e-07
4.95578e-07
4.9556e-07
4.95575e-07
4.95562e-07
4.95573e-07
4.95565e-07
4.95571e-07
4.95566e-07
4.9557e-07
4.95567e-07
4.95569e-07
4.95568e-07
4.95568e-07
4.95569e-07
4.95567e-07
4.9557e-07
4.95566e-07
4.95571e-07
4.95565e-07
4.95573e-07
4.95562e-07
4.95575e-07
4.9556e-07
4.95578e-07
4.95557e-07
4.95583e-07
4.95551e-07
4.9559e-07
4.95544e-07
4.95605e-07
4.95541e-07
4.95629e-07
4.95544e-07
4.95623e-07
4.95399e-07
4.94478e-07
4.9391e-07
4.52735e-07
4.53304e-07
4.54287e-07
4.54517e-07
4.54435e-07
4.54522e-07
4.5443e-07
4.54496e-07
4.54432e-07
4.54481e-07
4.54439e-07
4.54473e-07
4.54445e-07
4.54467e-07
4.54449e-07
4.54464e-07
4.54451e-07
4.54462e-07
4.54454e-07
4.54461e-07
4.54455e-07
4.54459e-07
4.54456e-07
4.54458e-07
4.54457e-07
4.54457e-07
4.54458e-07
4.54456e-07
4.54459e-07
4.54455e-07
4.54461e-07
4.54454e-07
4.54462e-07
4.54451e-07
4.54464e-07
4.54449e-07
4.54467e-07
4.54445e-07
4.54473e-07
4.54439e-07
4.54481e-07
4.54432e-07
4.54496e-07
4.5443e-07
4.54522e-07
4.54435e-07
4.54517e-07
4.54287e-07
4.53304e-07
4.52735e-07
4.01644e-07
4.02219e-07
4.03251e-07
4.03494e-07
4.03418e-07
4.03506e-07
4.03412e-07
4.0348e-07
4.03414e-07
4.03463e-07
4.03421e-07
4.03455e-07
4.03427e-07
4.03449e-07
4.03431e-07
4.03446e-07
4.03433e-07
4.03444e-07
4.03436e-07
4.03443e-07
4.03437e-07
4.03441e-07
4.03438e-07
4.0344e-07
4.03439e-07
4.03439e-07
4.0344e-07
4.03438e-07
4.03441e-07
4.03437e-07
4.03443e-07
4.03436e-07
4.03444e-07
4.03433e-07
4.03446e-07
4.03431e-07
4.03449e-07
4.03427e-07
4.03455e-07
4.03421e-07
4.03463e-07
4.03414e-07
4.0348e-07
4.03412e-07
4.03506e-07
4.03418e-07
4.03494e-07
4.03251e-07
4.02219e-07
4.01644e-07
3.49713e-07
3.50298e-07
3.51361e-07
3.51619e-07
3.51552e-07
3.51641e-07
3.51549e-07
3.51615e-07
3.51549e-07
3.51599e-07
3.51556e-07
3.5159e-07
3.51562e-07
3.51584e-07
3.51566e-07
3.51581e-07
3.51568e-07
3.51579e-07
3.51571e-07
3.51578e-07
3.51572e-07
3.51576e-07
3.51573e-07
3.51575e-07
3.51574e-07
3.51574e-07
3.51575e-07
3.51573e-07
3.51576e-07
3.51572e-07
3.51578e-07
3.51571e-07
3.51579e-07
3.51568e-07
3.51581e-07
3.51566e-07
3.51585e-07
3.51562e-07
3.5159e-07
3.51556e-07
3.51599e-07
3.51549e-07
3.51615e-07
3.51549e-07
3.51641e-07
3.51552e-07
3.51619e-07
3.51361e-07
3.50298e-07
3.49713e-07
3.01456e-07
3.0205e-07
3.03123e-07
3.03396e-07
3.0334e-07
3.03429e-07
3.03339e-07
3.03404e-07
3.03339e-07
3.03387e-07
3.03345e-07
3.03379e-07
3.03351e-07
3.03373e-07
3.03355e-07
3.0337e-07
3.03357e-07
3.03368e-07
3.0336e-07
3.03366e-07
3.03361e-07
3.03365e-07
3.03362e-07
3.03364e-07
3.03363e-07
3.03363e-07
3.03364e-07
3.03362e-07
3.03365e-07
3.03361e-07
3.03366e-07
3.0336e-07
3.03368e-07
3.03357e-07
3.0337e-07
3.03355e-07
3.03373e-07
3.03351e-07
3.03379e-07
3.03345e-07
3.03387e-07
3.03339e-07
3.03404e-07
3.03339e-07
3.03429e-07
3.0334e-07
3.03395e-07
3.03123e-07
3.0205e-07
3.01456e-07
2.57057e-07
2.57634e-07
2.58655e-07
2.58926e-07
2.58882e-07
2.58966e-07
2.58882e-07
2.58942e-07
2.58882e-07
2.58926e-07
2.58888e-07
2.58919e-07
2.58893e-07
2.58913e-07
2.58896e-07
2.5891e-07
2.58898e-07
2.58908e-07
2.58901e-07
2.58907e-07
2.58902e-07
2.58905e-07
2.58902e-07
2.58904e-07
2.58903e-07
2.58903e-07
2.58904e-07
2.58902e-07
2.58905e-07
2.58902e-07
2.58907e-07
2.58901e-07
2.58908e-07
2.58898e-07
2.5891e-07
2.58896e-07
2.58913e-07
2.58893e-07
2.58918e-07
2.58888e-07
2.58927e-07
2.58882e-07
2.58942e-07
2.58882e-07
2.58965e-07
2.58882e-07
2.58926e-07
2.58655e-07
2.57634e-07
2.57057e-07
2.20348e-07
2.20929e-07
2.21925e-07
2.22201e-07
2.22168e-07
2.22249e-07
2.2217e-07
2.22228e-07
2.22169e-07
2.22212e-07
2.22175e-07
2.22204e-07
2.2218e-07
2.22199e-07
2.22183e-07
2.22196e-07
2.22184e-07
2.22194e-07
2.22187e-07
2.22193e-07
2.22188e-07
2.22191e-07
2.22189e-07
2.2219e-07
2.2219e-07
2.2219e-07
2.2219e-07
2.22189e-07
2.22191e-07
2.22188e-07
2.22193e-07
2.22187e-07
2.22194e-07
2.22184e-07
2.22196e-07
2.22182e-07
2.22199e-07
2.2218e-07
2.22204e-07
2.22175e-07
2.22212e-07
2.22169e-07
2.22227e-07
2.2217e-07
2.22249e-07
2.22168e-07
2.22201e-07
2.21925e-07
2.20929e-07
2.20348e-07
1.89176e-07
1.8962e-07
1.90462e-07
1.90704e-07
1.90699e-07
1.90765e-07
1.90705e-07
1.90749e-07
1.90703e-07
1.90736e-07
1.90707e-07
1.9073e-07
1.9071e-07
1.90725e-07
1.90712e-07
1.90723e-07
1.90713e-07
1.90721e-07
1.90715e-07
1.9072e-07
1.90716e-07
1.90719e-07
1.90717e-07
1.90718e-07
1.90717e-07
1.90717e-07
1.90718e-07
1.90717e-07
1.90719e-07
1.90716e-07
1.9072e-07
1.90715e-07
1.90721e-07
1.90713e-07
1.90723e-07
1.90712e-07
1.90725e-07
1.9071e-07
1.90729e-07
1.90707e-07
1.90736e-07
1.90703e-07
1.90749e-07
1.90705e-07
1.90765e-07
1.90699e-07
1.90704e-07
1.90462e-07
1.8962e-07
1.89176e-07
1.62245e-07
1.62667e-07
1.63432e-07
1.63662e-07
1.63664e-07
1.63725e-07
1.63671e-07
1.63711e-07
1.63669e-07
1.63698e-07
1.63672e-07
1.63692e-07
1.63675e-07
1.63688e-07
1.63677e-07
1.63686e-07
1.63678e-07
1.63685e-07
1.6368e-07
1.63684e-07
1.6368e-07
1.63683e-07
1.63681e-07
1.63682e-07
1.63681e-07
1.63681e-07
1.63682e-07
1.63681e-07
1.63683e-07
1.6368e-07
1.63684e-07
1.6368e-07
1.63685e-07
1.63678e-07
1.63686e-07
1.63677e-07
1.63688e-07
1.63675e-07
1.63692e-07
1.63672e-07
1.63698e-07
1.63669e-07
1.63711e-07
1.63671e-07
1.63725e-07
1.63664e-07
1.63662e-07
1.63432e-07
1.62667e-07
1.62245e-07
1.40625e-07
1.41038e-07
1.41749e-07
1.41972e-07
1.4198e-07
1.42036e-07
1.41988e-07
1.42023e-07
1.41985e-07
1.42012e-07
1.41988e-07
1.42006e-07
1.4199e-07
1.42002e-07
1.41992e-07
1.42e-07
1.41993e-07
1.41999e-07
1.41994e-07
1.41998e-07
1.41995e-07
1.41997e-07
1.41995e-07
1.41996e-07
1.41996e-07
1.41996e-07
1.41996e-07
1.41995e-07
1.41997e-07
1.41995e-07
1.41998e-07
1.41994e-07
1.41999e-07
1.41993e-07
1.42e-07
1.41992e-07
1.42002e-07
1.4199e-07
1.42006e-07
1.41988e-07
1.42012e-07
1.41985e-07
1.42023e-07
1.41988e-07
1.42036e-07
1.4198e-07
1.41972e-07
1.41749e-07
1.41038e-07
1.40625e-07
1.21983e-07
1.22412e-07
1.23101e-07
1.23337e-07
1.23358e-07
1.23414e-07
1.2337e-07
1.23403e-07
1.23367e-07
1.23391e-07
1.23369e-07
1.23385e-07
1.2337e-07
1.23381e-07
1.23372e-07
1.23379e-07
1.23372e-07
1.23378e-07
1.23374e-07
1.23377e-07
1.23374e-07
1.23376e-07
1.23375e-07
1.23376e-07
1.23375e-07
1.23375e-07
1.23376e-07
1.23375e-07
1.23376e-07
1.23374e-07
1.23377e-07
1.23374e-07
1.23378e-07
1.23372e-07
1.2338e-07
1.23372e-07
1.23381e-07
1.2337e-07
1.23385e-07
1.23369e-07
1.23391e-07
1.23367e-07
1.23403e-07
1.2337e-07
1.23414e-07
1.23357e-07
1.23337e-07
1.23101e-07
1.22412e-07
1.21983e-07
1.06925e-07
1.07345e-07
1.0798e-07
1.08205e-07
1.0823e-07
1.08283e-07
1.08243e-07
1.08273e-07
1.0824e-07
1.08262e-07
1.08241e-07
1.08256e-07
1.08243e-07
1.08253e-07
1.08244e-07
1.08251e-07
1.08245e-07
1.0825e-07
1.08246e-07
1.08249e-07
1.08246e-07
1.08248e-07
1.08247e-07
1.08248e-07
1.08247e-07
1.08247e-07
1.08248e-07
1.08247e-07
1.08248e-07
1.08246e-07
1.08249e-07
1.08246e-07
1.0825e-07
1.08245e-07
1.08251e-07
1.08244e-07
1.08253e-07
1.08243e-07
1.08256e-07
1.08241e-07
1.08262e-07
1.0824e-07
1.08273e-07
1.08243e-07
1.08283e-07
1.0823e-07
1.08205e-07
1.0798e-07
1.07345e-07
1.06925e-07
9.38246e-08
9.42636e-08
9.48836e-08
9.51157e-08
9.51416e-08
9.51949e-08
9.51549e-08
9.51845e-08
9.51518e-08
9.51735e-08
9.5153e-08
9.51681e-08
9.51546e-08
9.51644e-08
9.51556e-08
9.51626e-08
9.51563e-08
9.51615e-08
9.51576e-08
9.51607e-08
9.51581e-08
9.51599e-08
9.51584e-08
9.51593e-08
9.51589e-08
9.51589e-08
9.51593e-08
9.51584e-08
9.51599e-08
9.51581e-08
9.51607e-08
9.51576e-08
9.51615e-08
9.51563e-08
9.51627e-08
9.51556e-08
9.51645e-08
9.51546e-08
9.5168e-08
9.5153e-08
9.51736e-08
9.51518e-08
9.51845e-08
9.51549e-08
9.51948e-08
9.51416e-08
9.51156e-08
9.48836e-08
9.42636e-08
9.38246e-08
8.27567e-08
8.31839e-08
8.37442e-08
8.3961e-08
8.39886e-08
8.40372e-08
8.40016e-08
8.40277e-08
8.39984e-08
8.40176e-08
8.39992e-08
8.40125e-08
8.40005e-08
8.40092e-08
8.40014e-08
8.40076e-08
8.40019e-08
8.40066e-08
8.40031e-08
8.40058e-08
8.40035e-08
8.40051e-08
8.40038e-08
8.40046e-08
8.40043e-08
8.40043e-08
8.40046e-08
8.40038e-08
8.40052e-08
8.40035e-08
8.40058e-08
8.40031e-08
8.40066e-08
8.40019e-08
8.40076e-08
8.40013e-08
8.40093e-08
8.40005e-08
8.40125e-08
8.39992e-08
8.40176e-08
8.39984e-08
8.40277e-08
8.40016e-08
8.40371e-08
8.39886e-08
8.39609e-08
8.37442e-08
8.31839e-08
8.27567e-08
7.37095e-08
7.4136e-08
7.46526e-08
7.48588e-08
7.48879e-08
7.49333e-08
7.49007e-08
7.49246e-08
7.48975e-08
7.49149e-08
7.4898e-08
7.49102e-08
7.48991e-08
7.49071e-08
7.48999e-08
7.49056e-08
7.49003e-08
7.49046e-08
7.49014e-08
7.49039e-08
7.49018e-08
7.49033e-08
7.4902e-08
7.49028e-08
7.49025e-08
7.49025e-08
7.49028e-08
7.49021e-08
7.49033e-08
7.49018e-08
7.49039e-08
7.49014e-08
7.49046e-08
7.49004e-08
7.49056e-08
7.48998e-08
7.49071e-08
7.48991e-08
7.49101e-08
7.48981e-08
7.4915e-08
7.48974e-08
7.49246e-08
7.49007e-08
7.49332e-08
7.48878e-08
7.48588e-08
7.46525e-08
7.4136e-08
7.37096e-08
6.59984e-08
6.64285e-08
6.69061e-08
6.71023e-08
6.7132e-08
6.71746e-08
6.71446e-08
6.71665e-08
6.71414e-08
6.71573e-08
6.71417e-08
6.71529e-08
6.71427e-08
6.715e-08
6.71433e-08
6.71485e-08
6.71437e-08
6.71477e-08
6.71447e-08
6.7147e-08
6.71451e-08
6.71464e-08
6.71453e-08
6.7146e-08
6.71457e-08
6.71457e-08
6.7146e-08
6.71453e-08
6.71465e-08
6.71451e-08
6.7147e-08
6.71447e-08
6.71477e-08
6.71437e-08
6.71486e-08
6.71433e-08
6.715e-08
6.71427e-08
6.71528e-08
6.71418e-08
6.71574e-08
6.71414e-08
6.71665e-08
6.71446e-08
6.71746e-08
6.7132e-08
6.71023e-08
6.69061e-08
6.64285e-08
6.59984e-08
5.93926e-08
5.96369e-08
6.00547e-08
6.02344e-08
6.02688e-08
6.0308e-08
6.0283e-08
6.03014e-08
6.02794e-08
6.02925e-08
6.02788e-08
6.0288e-08
6.02791e-08
6.02851e-08
6.02793e-08
6.02837e-08
6.02795e-08
6.02828e-08
6.02802e-08
6.02822e-08
6.02805e-08
6.02817e-08
6.02807e-08
6.02813e-08
6.0281e-08
6.0281e-08
6.02813e-08
6.02807e-08
6.02817e-08
6.02805e-08
6.02822e-08
6.02802e-08
6.02828e-08
6.02795e-08
6.02837e-08
6.02793e-08
6.02851e-08
6.02791e-08
6.02879e-08
6.02789e-08
6.02925e-08
6.02794e-08
6.03014e-08
6.0283e-08
6.0308e-08
6.02688e-08
6.02344e-08
6.00547e-08
5.96369e-08
5.93926e-08
5.37086e-08
5.39503e-08
5.43353e-08
5.45053e-08
5.45397e-08
5.45765e-08
5.45536e-08
5.45703e-08
5.455e-08
5.45619e-08
5.45493e-08
5.45576e-08
5.45493e-08
5.45548e-08
5.45495e-08
5.45535e-08
5.45496e-08
5.45527e-08
5.45503e-08
5.45521e-08
5.45506e-08
5.45516e-08
5.45507e-08
5.45513e-08
5.4551e-08
5.4551e-08
5.45513e-08
5.45507e-08
5.45516e-08
5.45506e-08
5.45521e-08
5.45503e-08
5.45527e-08
5.45496e-08
5.45535e-08
5.45495e-08
5.45549e-08
5.45493e-08
5.45575e-08
5.45493e-08
5.45619e-08
5.455e-08
5.45703e-08
5.45536e-08
5.45765e-08
5.45396e-08
5.45053e-08
5.43353e-08
5.39503e-08
5.37086e-08
4.8607e-08
4.88486e-08
4.92124e-08
4.93792e-08
4.94151e-08
4.9451e-08
4.94295e-08
4.9445e-08
4.94258e-08
4.94367e-08
4.94247e-08
4.94324e-08
4.94246e-08
4.94297e-08
4.94246e-08
4.94284e-08
4.94247e-08
4.94276e-08
4.94254e-08
4.94271e-08
4.94256e-08
4.94266e-08
4.94257e-08
4.94262e-08
4.9426e-08
4.9426e-08
4.94262e-08
4.94257e-08
4.94266e-08
4.94256e-08
4.94271e-08
4.94253e-08
4.94276e-08
4.94248e-08
4.94284e-08
4.94246e-08
4.94297e-08
4.94246e-08
4.94323e-08
4.94248e-08
4.94367e-08
4.94258e-08
4.9445e-08
4.94295e-08
4.94509e-08
4.94151e-08
4.93792e-08
4.92124e-08
4.88486e-08
4.8607e-08
4.41703e-08
4.44045e-08
4.4737e-08
4.48932e-08
4.49284e-08
4.49617e-08
4.49423e-08
4.49562e-08
4.49386e-08
4.49483e-08
4.49374e-08
4.49442e-08
4.49371e-08
4.49417e-08
4.49371e-08
4.49404e-08
4.49371e-08
4.49397e-08
4.49377e-08
4.49392e-08
4.49379e-08
4.49388e-08
4.4938e-08
4.49385e-08
4.49383e-08
4.49383e-08
4.49385e-08
4.4938e-08
4.49388e-08
4.49379e-08
4.49392e-08
4.49377e-08
4.49397e-08
4.49372e-08
4.49405e-08
4.49371e-08
4.49417e-08
4.49371e-08
4.49442e-08
4.49374e-08
4.49483e-08
4.49386e-08
4.49562e-08
4.49423e-08
4.49617e-08
4.49284e-08
4.48932e-08
4.4737e-08
4.44045e-08
4.41703e-08
4.02944e-08
4.05214e-08
4.08258e-08
4.0972e-08
4.10063e-08
4.10373e-08
4.10197e-08
4.10322e-08
4.10161e-08
4.10247e-08
4.10147e-08
4.10208e-08
4.10143e-08
4.10184e-08
4.10142e-08
4.10172e-08
4.10142e-08
4.10166e-08
4.10147e-08
4.10161e-08
4.10149e-08
4.10157e-08
4.1015e-08
4.10154e-08
4.10152e-08
4.10152e-08
4.10154e-08
4.1015e-08
4.10157e-08
4.10149e-08
4.10161e-08
4.10147e-08
4.10166e-08
4.10143e-08
4.10173e-08
4.10142e-08
4.10185e-08
4.10143e-08
4.10208e-08
4.10147e-08
4.10247e-08
4.1016e-08
4.10322e-08
4.10197e-08
4.10373e-08
4.10063e-08
4.0972e-08
4.08258e-08
4.05214e-08
4.02944e-08
3.68951e-08
3.71144e-08
3.73939e-08
3.75306e-08
3.75639e-08
3.75928e-08
3.75767e-08
3.75879e-08
3.75731e-08
3.75808e-08
3.75717e-08
3.75771e-08
3.75712e-08
3.75749e-08
3.7571e-08
3.75737e-08
3.7571e-08
3.75731e-08
3.75714e-08
3.75727e-08
3.75716e-08
3.75723e-08
3.75716e-08
3.7572e-08
3.75719e-08
3.75719e-08
3.7572e-08
3.75717e-08
3.75723e-08
3.75716e-08
3.75727e-08
3.75714e-08
3.75731e-08
3.7571e-08
3.75737e-08
3.7571e-08
3.75749e-08
3.75712e-08
3.75771e-08
3.75717e-08
3.75808e-08
3.75731e-08
3.75879e-08
3.75767e-08
3.75927e-08
3.75638e-08
3.75306e-08
3.73939e-08
3.71144e-08
3.68951e-08
3.39025e-08
3.41136e-08
3.43711e-08
3.44987e-08
3.45309e-08
3.45579e-08
3.45433e-08
3.45533e-08
3.45397e-08
3.45465e-08
3.45381e-08
3.4543e-08
3.45376e-08
3.45409e-08
3.45373e-08
3.45398e-08
3.45373e-08
3.45392e-08
3.45377e-08
3.45388e-08
3.45378e-08
3.45385e-08
3.45379e-08
3.45382e-08
3.45381e-08
3.45381e-08
3.45382e-08
3.45379e-08
3.45385e-08
3.45378e-08
3.45388e-08
3.45376e-08
3.45392e-08
3.45373e-08
3.45398e-08
3.45373e-08
3.45409e-08
3.45376e-08
3.4543e-08
3.45382e-08
3.45465e-08
3.45397e-08
3.45533e-08
3.45433e-08
3.45578e-08
3.45309e-08
3.44987e-08
3.43711e-08
3.41136e-08
3.39025e-08
3.12585e-08
3.14613e-08
3.16991e-08
3.18182e-08
3.18492e-08
3.18745e-08
3.18611e-08
3.18701e-08
3.18576e-08
3.18636e-08
3.18559e-08
3.18603e-08
3.18553e-08
3.18583e-08
3.1855e-08
3.18572e-08
3.18549e-08
3.18567e-08
3.18553e-08
3.18563e-08
3.18554e-08
3.1856e-08
3.18554e-08
3.18558e-08
3.18556e-08
3.18556e-08
3.18558e-08
3.18554e-08
3.1856e-08
3.18554e-08
3.18563e-08
3.18553e-08
3.18567e-08
3.18549e-08
3.18572e-08
3.1855e-08
3.18583e-08
3.18553e-08
3.18603e-08
3.1856e-08
3.18637e-08
3.18576e-08
3.18701e-08
3.18611e-08
3.18744e-08
3.18492e-08
3.18182e-08
3.16991e-08
3.14613e-08
3.12585e-08
2.89147e-08
2.91092e-08
2.93293e-08
2.94404e-08
2.94703e-08
2.94939e-08
2.94817e-08
2.94898e-08
2.94782e-08
2.94836e-08
2.94765e-08
2.94803e-08
2.94758e-08
2.94784e-08
2.94754e-08
2.94774e-08
2.94753e-08
2.94769e-08
2.94756e-08
2.94766e-08
2.94757e-08
2.94763e-08
2.94758e-08
2.94761e-08
2.94759e-08
2.94759e-08
2.94761e-08
2.94758e-08
2.94763e-08
2.94757e-08
2.94766e-08
2.94756e-08
2.94769e-08
2.94754e-08
2.94775e-08
2.94754e-08
2.94784e-08
2.94758e-08
2.94803e-08
2.94765e-08
2.94836e-08
2.94782e-08
2.94898e-08
2.94817e-08
2.94939e-08
2.94703e-08
2.94404e-08
2.93293e-08
2.91092e-08
2.89147e-08
2.68305e-08
2.70168e-08
2.72208e-08
2.73246e-08
2.73533e-08
2.73754e-08
2.73641e-08
2.73714e-08
2.73607e-08
2.73655e-08
2.73589e-08
2.73624e-08
2.73581e-08
2.73605e-08
2.73578e-08
2.73596e-08
2.73577e-08
2.73591e-08
2.73579e-08
2.73588e-08
2.7358e-08
2.73585e-08
2.7358e-08
2.73583e-08
2.73582e-08
2.73582e-08
2.73583e-08
2.7358e-08
2.73585e-08
2.7358e-08
2.73588e-08
2.73579e-08
2.73591e-08
2.73577e-08
2.73596e-08
2.73578e-08
2.73605e-08
2.73581e-08
2.73624e-08
2.73589e-08
2.73655e-08
2.73607e-08
2.73714e-08
2.73641e-08
2.73753e-08
2.73533e-08
2.73245e-08
2.72208e-08
2.70168e-08
2.68306e-08
2.49716e-08
2.51496e-08
2.53391e-08
2.54361e-08
2.54636e-08
2.54842e-08
2.54739e-08
2.54805e-08
2.54706e-08
2.54748e-08
2.54687e-08
2.54718e-08
2.54679e-08
2.547e-08
2.54675e-08
2.54691e-08
2.54673e-08
2.54687e-08
2.54676e-08
2.54684e-08
2.54676e-08
2.54681e-08
2.54677e-08
2.54679e-08
2.54678e-08
2.54678e-08
2.54679e-08
2.54677e-08
2.54681e-08
2.54676e-08
2.54684e-08
2.54676e-08
2.54687e-08
2.54674e-08
2.54691e-08
2.54675e-08
2.547e-08
2.54679e-08
2.54718e-08
2.54687e-08
2.54748e-08
2.54706e-08
2.54805e-08
2.54739e-08
2.54842e-08
2.54636e-08
2.5436e-08
2.53391e-08
2.51496e-08
2.49716e-08
2.33086e-08
2.34786e-08
2.36549e-08
2.37455e-08
2.37718e-08
2.37912e-08
2.37817e-08
2.37876e-08
2.37784e-08
2.37821e-08
2.37765e-08
2.37792e-08
2.37756e-08
2.37775e-08
2.37752e-08
2.37767e-08
2.3775e-08
2.37762e-08
2.37752e-08
2.3776e-08
2.37753e-08
2.37757e-08
2.37753e-08
2.37755e-08
2.37754e-08
2.37754e-08
2.37755e-08
2.37753e-08
2.37757e-08
2.37753e-08
2.3776e-08
2.37752e-08
2.37762e-08
2.3775e-08
2.37767e-08
2.37752e-08
2.37775e-08
2.37756e-08
2.37792e-08
2.37765e-08
2.37821e-08
2.37784e-08
2.37876e-08
2.37817e-08
2.37912e-08
2.37718e-08
2.37455e-08
2.36549e-08
2.34786e-08
2.33086e-08
2.18168e-08
2.19789e-08
2.21431e-08
2.22279e-08
2.2253e-08
2.22712e-08
2.22624e-08
2.22677e-08
2.22592e-08
2.22624e-08
2.22572e-08
2.22596e-08
2.22562e-08
2.2258e-08
2.22558e-08
2.22572e-08
2.22556e-08
2.22567e-08
2.22558e-08
2.22565e-08
2.22558e-08
2.22562e-08
2.22559e-08
2.22561e-08
2.2256e-08
2.2256e-08
2.22561e-08
2.22559e-08
2.22562e-08
2.22558e-08
2.22565e-08
2.22558e-08
2.22567e-08
2.22556e-08
2.22572e-08
2.22558e-08
2.2258e-08
2.22562e-08
2.22596e-08
2.22572e-08
2.22624e-08
2.22592e-08
2.22677e-08
2.22624e-08
2.22711e-08
2.2253e-08
2.22279e-08
2.21431e-08
2.19788e-08
2.18168e-08
2.04746e-08
2.06289e-08
2.07822e-08
2.08616e-08
2.08856e-08
2.09026e-08
2.08945e-08
2.08992e-08
2.08913e-08
2.08941e-08
2.08893e-08
2.08914e-08
2.08883e-08
2.08898e-08
2.08878e-08
2.08891e-08
2.08877e-08
2.08887e-08
2.08878e-08
2.08884e-08
2.08878e-08
2.08882e-08
2.08878e-08
2.0888e-08
2.08879e-08
2.08879e-08
2.0888e-08
2.08878e-08
2.08882e-08
2.08878e-08
2.08884e-08
2.08878e-08
2.08887e-08
2.08877e-08
2.08891e-08
2.08878e-08
2.08899e-08
2.08883e-08
2.08914e-08
2.08893e-08
2.08941e-08
2.08913e-08
2.08992e-08
2.08945e-08
2.09026e-08
2.08855e-08
2.08616e-08
2.07822e-08
2.06289e-08
2.04746e-08
1.92638e-08
1.94104e-08
1.95538e-08
1.96282e-08
1.9651e-08
1.96669e-08
1.96595e-08
1.96637e-08
1.96563e-08
1.96588e-08
1.96542e-08
1.96561e-08
1.96532e-08
1.96546e-08
1.96527e-08
1.96538e-08
1.96525e-08
1.96535e-08
1.96527e-08
1.96532e-08
1.96527e-08
1.9653e-08
1.96527e-08
1.96529e-08
1.96528e-08
1.96528e-08
1.96529e-08
1.96527e-08
1.9653e-08
1.96527e-08
1.96532e-08
1.96527e-08
1.96535e-08
1.96526e-08
1.96539e-08
1.96527e-08
1.96546e-08
1.96532e-08
1.96561e-08
1.96542e-08
1.96588e-08
1.96563e-08
1.96636e-08
1.96595e-08
1.96669e-08
1.9651e-08
1.96282e-08
1.95538e-08
1.94104e-08
1.92638e-08
1.81685e-08
1.83074e-08
1.84418e-08
1.85116e-08
1.85333e-08
1.85482e-08
1.85413e-08
1.8545e-08
1.85382e-08
1.85403e-08
1.85361e-08
1.85377e-08
1.8535e-08
1.85363e-08
1.85345e-08
1.85355e-08
1.85343e-08
1.85352e-08
1.85344e-08
1.85349e-08
1.85344e-08
1.85348e-08
1.85345e-08
1.85346e-08
1.85345e-08
1.85345e-08
1.85346e-08
1.85345e-08
1.85348e-08
1.85344e-08
1.85349e-08
1.85344e-08
1.85352e-08
1.85343e-08
1.85355e-08
1.85345e-08
1.85363e-08
1.8535e-08
1.85377e-08
1.85361e-08
1.85403e-08
1.85381e-08
1.8545e-08
1.85413e-08
1.85482e-08
1.85332e-08
1.85116e-08
1.84418e-08
1.83074e-08
1.81685e-08
1.7175e-08
1.73062e-08
1.74325e-08
1.7498e-08
1.75186e-08
1.75326e-08
1.75262e-08
1.75295e-08
1.75231e-08
1.75249e-08
1.75209e-08
1.75224e-08
1.75199e-08
1.7521e-08
1.75194e-08
1.75203e-08
1.75192e-08
1.75199e-08
1.75192e-08
1.75197e-08
1.75192e-08
1.75195e-08
1.75192e-08
1.75194e-08
1.75193e-08
1.75193e-08
1.75194e-08
1.75193e-08
1.75195e-08
1.75192e-08
1.75197e-08
1.75192e-08
1.75199e-08
1.75192e-08
1.75203e-08
1.75194e-08
1.7521e-08
1.75199e-08
1.75224e-08
1.7521e-08
1.75249e-08
1.7523e-08
1.75295e-08
1.75262e-08
1.75326e-08
1.75186e-08
1.7498e-08
1.74325e-08
1.73062e-08
1.7175e-08
1.6271e-08
1.63952e-08
1.65139e-08
1.65754e-08
1.65949e-08
1.66081e-08
1.66021e-08
1.6605e-08
1.6599e-08
1.66006e-08
1.65968e-08
1.65981e-08
1.65958e-08
1.65967e-08
1.65952e-08
1.65961e-08
1.6595e-08
1.65957e-08
1.65951e-08
1.65955e-08
1.65951e-08
1.65953e-08
1.65951e-08
1.65952e-08
1.65952e-08
1.65952e-08
1.65952e-08
1.65951e-08
1.65953e-08
1.65951e-08
1.65955e-08
1.65951e-08
1.65957e-08
1.6595e-08
1.65961e-08
1.65952e-08
1.65968e-08
1.65958e-08
1.65981e-08
1.65969e-08
1.66006e-08
1.6599e-08
1.6605e-08
1.66021e-08
1.66081e-08
1.65949e-08
1.65754e-08
1.65139e-08
1.63952e-08
1.6271e-08
1.54462e-08
1.5564e-08
1.56755e-08
1.57333e-08
1.57518e-08
1.57641e-08
1.57585e-08
1.57611e-08
1.57555e-08
1.57568e-08
1.57533e-08
1.57544e-08
1.57522e-08
1.57531e-08
1.57517e-08
1.57524e-08
1.57514e-08
1.57521e-08
1.57515e-08
1.57519e-08
1.57515e-08
1.57517e-08
1.57515e-08
1.57516e-08
1.57516e-08
1.57516e-08
1.57516e-08
1.57515e-08
1.57517e-08
1.57515e-08
1.57519e-08
1.57515e-08
1.57521e-08
1.57515e-08
1.57524e-08
1.57517e-08
1.57531e-08
1.57522e-08
1.57544e-08
1.57533e-08
1.57568e-08
1.57554e-08
1.57611e-08
1.57585e-08
1.57641e-08
1.57518e-08
1.57333e-08
1.56755e-08
1.5564e-08
1.54462e-08
1.46917e-08
1.48037e-08
1.49083e-08
1.49626e-08
1.49801e-08
1.49917e-08
1.49864e-08
1.49887e-08
1.49834e-08
1.49846e-08
1.49813e-08
1.49822e-08
1.49801e-08
1.49809e-08
1.49796e-08
1.49803e-08
1.49794e-08
1.498e-08
1.49794e-08
1.49798e-08
1.49794e-08
1.49796e-08
1.49794e-08
1.49795e-08
1.49794e-08
1.49794e-08
1.49795e-08
1.49794e-08
1.49796e-08
1.49794e-08
1.49798e-08
1.49794e-08
1.498e-08
1.49794e-08
1.49803e-08
1.49796e-08
1.49809e-08
1.49801e-08
1.49822e-08
1.49813e-08
1.49846e-08
1.49834e-08
1.49887e-08
1.49864e-08
1.49917e-08
1.49801e-08
1.49626e-08
1.49083e-08
1.48037e-08
1.46917e-08
1.39995e-08
1.41062e-08
1.42044e-08
1.42554e-08
1.4272e-08
1.42829e-08
1.42779e-08
1.42799e-08
1.42749e-08
1.42758e-08
1.42727e-08
1.42736e-08
1.42716e-08
1.42723e-08
1.4271e-08
1.42717e-08
1.42708e-08
1.42714e-08
1.42708e-08
1.42712e-08
1.42708e-08
1.4271e-08
1.42708e-08
1.42709e-08
1.42709e-08
1.42709e-08
1.42709e-08
1.42708e-08
1.4271e-08
1.42708e-08
1.42712e-08
1.42708e-08
1.42714e-08
1.42708e-08
1.42717e-08
1.4271e-08
1.42723e-08
1.42716e-08
1.42736e-08
1.42727e-08
1.42758e-08
1.42749e-08
1.42799e-08
1.42779e-08
1.42829e-08
1.4272e-08
1.42554e-08
1.42044e-08
1.41062e-08
1.39995e-08
1.33629e-08
1.34649e-08
1.35567e-08
1.36047e-08
1.36205e-08
1.36307e-08
1.3626e-08
1.36277e-08
1.3623e-08
1.36238e-08
1.36208e-08
1.36215e-08
1.36197e-08
1.36203e-08
1.36191e-08
1.36197e-08
1.36189e-08
1.36194e-08
1.36189e-08
1.36192e-08
1.36189e-08
1.36191e-08
1.36189e-08
1.3619e-08
1.36189e-08
1.36189e-08
1.3619e-08
1.36189e-08
1.36191e-08
1.36189e-08
1.36192e-08
1.36189e-08
1.36194e-08
1.36189e-08
1.36197e-08
1.36191e-08
1.36203e-08
1.36197e-08
1.36215e-08
1.36208e-08
1.36238e-08
1.3623e-08
1.36277e-08
1.3626e-08
1.36306e-08
1.36205e-08
1.36047e-08
1.35567e-08
1.34649e-08
1.33629e-08
1.27758e-08
1.28733e-08
1.29596e-08
1.30046e-08
1.30195e-08
1.3029e-08
1.30246e-08
1.30261e-08
1.30216e-08
1.30222e-08
1.30194e-08
1.30201e-08
1.30183e-08
1.30188e-08
1.30177e-08
1.30182e-08
1.30175e-08
1.3018e-08
1.30175e-08
1.30178e-08
1.30175e-08
1.30177e-08
1.30175e-08
1.30176e-08
1.30175e-08
1.30175e-08
1.30176e-08
1.30175e-08
1.30177e-08
1.30175e-08
1.30178e-08
1.30175e-08
1.3018e-08
1.30175e-08
1.30182e-08
1.30177e-08
1.30189e-08
1.30183e-08
1.30201e-08
1.30194e-08
1.30222e-08
1.30216e-08
1.30261e-08
1.30246e-08
1.3029e-08
1.30194e-08
1.30046e-08
1.29596e-08
1.28733e-08
1.27758e-08
1.22331e-08
1.23264e-08
1.24075e-08
1.24497e-08
1.24637e-08
1.24726e-08
1.24684e-08
1.24697e-08
1.24655e-08
1.24659e-08
1.24633e-08
1.24638e-08
1.24621e-08
1.24626e-08
1.24616e-08
1.2462e-08
1.24613e-08
1.24618e-08
1.24613e-08
1.24616e-08
1.24613e-08
1.24615e-08
1.24613e-08
1.24614e-08
1.24613e-08
1.24613e-08
1.24614e-08
1.24613e-08
1.24615e-08
1.24613e-08
1.24616e-08
1.24613e-08
1.24618e-08
1.24613e-08
1.24621e-08
1.24616e-08
1.24626e-08
1.24621e-08
1.24638e-08
1.24633e-08
1.24659e-08
1.24655e-08
1.24697e-08
1.24684e-08
1.24726e-08
1.24637e-08
1.24497e-08
1.24075e-08
1.23264e-08
1.22331e-08
1.17301e-08
1.18196e-08
1.18958e-08
1.19353e-08
1.19484e-08
1.19568e-08
1.19528e-08
1.19539e-08
1.19499e-08
1.19502e-08
1.19477e-08
1.19482e-08
1.19466e-08
1.1947e-08
1.1946e-08
1.19464e-08
1.19458e-08
1.19462e-08
1.19457e-08
1.1946e-08
1.19457e-08
1.19459e-08
1.19457e-08
1.19458e-08
1.19458e-08
1.19458e-08
1.19458e-08
1.19457e-08
1.19459e-08
1.19457e-08
1.1946e-08
1.19457e-08
1.19462e-08
1.19458e-08
1.19464e-08
1.1946e-08
1.1947e-08
1.19466e-08
1.19482e-08
1.19477e-08
1.19502e-08
1.19499e-08
1.19539e-08
1.19528e-08
1.19568e-08
1.19484e-08
1.19353e-08
1.18957e-08
1.18196e-08
1.17301e-08
1.1263e-08
1.13487e-08
1.14203e-08
1.14574e-08
1.14697e-08
1.14775e-08
1.14737e-08
1.14746e-08
1.14708e-08
1.1471e-08
1.14686e-08
1.1469e-08
1.14675e-08
1.14679e-08
1.14669e-08
1.14673e-08
1.14667e-08
1.1467e-08
1.14666e-08
1.14669e-08
1.14666e-08
1.14668e-08
1.14666e-08
1.14667e-08
1.14667e-08
1.14667e-08
1.14667e-08
1.14666e-08
1.14668e-08
1.14666e-08
1.14669e-08
1.14666e-08
1.1467e-08
1.14667e-08
1.14673e-08
1.14669e-08
1.14679e-08
1.14675e-08
1.1469e-08
1.14686e-08
1.1471e-08
1.14708e-08
1.14746e-08
1.14737e-08
1.14775e-08
1.14697e-08
1.14574e-08
1.14203e-08
1.13487e-08
1.1263e-08
1.08281e-08
1.09103e-08
1.09775e-08
1.10123e-08
1.10238e-08
1.10311e-08
1.10275e-08
1.10282e-08
1.10246e-08
1.10247e-08
1.10224e-08
1.10227e-08
1.10213e-08
1.10216e-08
1.10207e-08
1.10211e-08
1.10205e-08
1.10208e-08
1.10204e-08
1.10207e-08
1.10204e-08
1.10206e-08
1.10204e-08
1.10205e-08
1.10205e-08
1.10205e-08
1.10205e-08
1.10204e-08
1.10206e-08
1.10204e-08
1.10207e-08
1.10204e-08
1.10208e-08
1.10205e-08
1.10211e-08
1.10207e-08
1.10216e-08
1.10213e-08
1.10227e-08
1.10224e-08
1.10247e-08
1.10246e-08
1.10282e-08
1.10275e-08
1.10311e-08
1.10238e-08
1.10123e-08
1.09774e-08