/*--------------------------------*- C++ -*----------------------------------*\
| =========                 |                                                 |
| \\      /  F ield         | OpenFOAM: The Open Source CFD Toolbox           |
|  \\    /   O peration     | Version:  dev                                   |
|   \\  /    A nd           | Web:      www.OpenFOAM.org                      |
|    \\/     M anipulation  |                                                 |
\*---------------------------------------------------------------------------*/
FoamFile
{
    version     2.0;
    format      ascii;
    class       volScalarField;
    location    "0.1";
    object      A2-1;
}
// * * * * * * * * * * * * * * * * * * * * * * * * * * * * * * * * * * * * * //

dimensions      [0 0 0 0 0 0 0];

internalField   nonuniform List<scalar> 
8000
(
6.86211e-09
6.86149e-09
6.86702e-09
6.86787e-09
6.8681e-09
6.86806e-09
6.86798e-09
6.86798e-09
6.86792e-09
6.86795e-09
6.86792e-09
6.86794e-09
6.86793e-09
6.86794e-09
6.86793e-09
6.86794e-09
6.86793e-09
6.86794e-09
6.86794e-09
6.86795e-09
6.86794e-09
6.86795e-09
6.86794e-09
6.86795e-09
6.86795e-09
6.86795e-09
6.86795e-09
6.86794e-09
6.86795e-09
6.86794e-09
6.86795e-09
6.86794e-09
6.86794e-09
6.86793e-09
6.86794e-09
6.86793e-09
6.86794e-09
6.86793e-09
6.86794e-09
6.86792e-09
6.86795e-09
6.86792e-09
6.86798e-09
6.86798e-09
6.86806e-09
6.8681e-09
6.86787e-09
6.86702e-09
6.86149e-09
6.86211e-09
1.71053e-08
1.71027e-08
1.71115e-08
1.7111e-08
1.71112e-08
1.71105e-08
1.71105e-08
1.71103e-08
1.71104e-08
1.71103e-08
1.71103e-08
1.71103e-08
1.71103e-08
1.71103e-08
1.71104e-08
1.71103e-08
1.71104e-08
1.71103e-08
1.71104e-08
1.71104e-08
1.71104e-08
1.71104e-08
1.71104e-08
1.71104e-08
1.71104e-08
1.71104e-08
1.71104e-08
1.71104e-08
1.71104e-08
1.71104e-08
1.71104e-08
1.71104e-08
1.71103e-08
1.71104e-08
1.71103e-08
1.71104e-08
1.71103e-08
1.71103e-08
1.71103e-08
1.71103e-08
1.71103e-08
1.71104e-08
1.71103e-08
1.71105e-08
1.71105e-08
1.71112e-08
1.7111e-08
1.71115e-08
1.71027e-08
1.71053e-08
3.10377e-08
3.10254e-08
3.10298e-08
3.10236e-08
3.1022e-08
3.10202e-08
3.10199e-08
3.10195e-08
3.10196e-08
3.10194e-08
3.10196e-08
3.10195e-08
3.10196e-08
3.10196e-08
3.10196e-08
3.10196e-08
3.10197e-08
3.10197e-08
3.10197e-08
3.10197e-08
3.10197e-08
3.10197e-08
3.10197e-08
3.10197e-08
3.10197e-08
3.10197e-08
3.10197e-08
3.10197e-08
3.10197e-08
3.10197e-08
3.10197e-08
3.10197e-08
3.10197e-08
3.10197e-08
3.10196e-08
3.10196e-08
3.10196e-08
3.10196e-08
3.10195e-08
3.10196e-08
3.10194e-08
3.10196e-08
3.10195e-08
3.10199e-08
3.10202e-08
3.1022e-08
3.10236e-08
3.10298e-08
3.10254e-08
3.10377e-08
3.98401e-08
3.98087e-08
3.9796e-08
3.97786e-08
3.97732e-08
3.97697e-08
3.97691e-08
3.97684e-08
3.97686e-08
3.97684e-08
3.97686e-08
3.97685e-08
3.97687e-08
3.97686e-08
3.97687e-08
3.97687e-08
3.97688e-08
3.97687e-08
3.97688e-08
3.97688e-08
3.97688e-08
3.97688e-08
3.97688e-08
3.97688e-08
3.97688e-08
3.97688e-08
3.97688e-08
3.97688e-08
3.97688e-08
3.97688e-08
3.97688e-08
3.97688e-08
3.97687e-08
3.97688e-08
3.97687e-08
3.97687e-08
3.97686e-08
3.97687e-08
3.97685e-08
3.97686e-08
3.97684e-08
3.97686e-08
3.97684e-08
3.97691e-08
3.97697e-08
3.97732e-08
3.97786e-08
3.9796e-08
3.98087e-08
3.98401e-08
4.04578e-08
4.04091e-08
4.03803e-08
4.03527e-08
4.03439e-08
4.03389e-08
4.0338e-08
4.03371e-08
4.03373e-08
4.03371e-08
4.03374e-08
4.03373e-08
4.03375e-08
4.03374e-08
4.03376e-08
4.03375e-08
4.03377e-08
4.03376e-08
4.03377e-08
4.03376e-08
4.03377e-08
4.03377e-08
4.03377e-08
4.03377e-08
4.03377e-08
4.03377e-08
4.03377e-08
4.03377e-08
4.03377e-08
4.03377e-08
4.03376e-08
4.03377e-08
4.03376e-08
4.03377e-08
4.03375e-08
4.03376e-08
4.03374e-08
4.03375e-08
4.03373e-08
4.03374e-08
4.03371e-08
4.03373e-08
4.03371e-08
4.0338e-08
4.0339e-08
4.03439e-08
4.03527e-08
4.03803e-08
4.04091e-08
4.04578e-08
3.59769e-08
3.59225e-08
3.58895e-08
3.58582e-08
3.58477e-08
3.58425e-08
3.58411e-08
3.58404e-08
3.58404e-08
3.58403e-08
3.58405e-08
3.58405e-08
3.58407e-08
3.58406e-08
3.58408e-08
3.58407e-08
3.58408e-08
3.58408e-08
3.58408e-08
3.58408e-08
3.58409e-08
3.58409e-08
3.58409e-08
3.58409e-08
3.58409e-08
3.58409e-08
3.58409e-08
3.58409e-08
3.58409e-08
3.58409e-08
3.58408e-08
3.58408e-08
3.58408e-08
3.58408e-08
3.58407e-08
3.58408e-08
3.58407e-08
3.58407e-08
3.58405e-08
3.58405e-08
3.58403e-08
3.58404e-08
3.58404e-08
3.58411e-08
3.58425e-08
3.58477e-08
3.58582e-08
3.58895e-08
3.59225e-08
3.59769e-08
2.98129e-08
2.97627e-08
2.97347e-08
2.97053e-08
2.96945e-08
2.969e-08
2.96881e-08
2.96878e-08
2.96875e-08
2.96877e-08
2.96876e-08
2.96878e-08
2.96878e-08
2.96879e-08
2.96879e-08
2.9688e-08
2.9688e-08
2.9688e-08
2.9688e-08
2.96881e-08
2.96881e-08
2.96881e-08
2.96881e-08
2.96881e-08
2.96881e-08
2.96881e-08
2.96881e-08
2.96881e-08
2.96881e-08
2.96881e-08
2.96881e-08
2.9688e-08
2.96881e-08
2.9688e-08
2.9688e-08
2.96879e-08
2.96879e-08
2.96878e-08
2.96878e-08
2.96876e-08
2.96877e-08
2.96875e-08
2.96878e-08
2.96881e-08
2.969e-08
2.96945e-08
2.97053e-08
2.97347e-08
2.97627e-08
2.98129e-08
2.38369e-08
2.37954e-08
2.37764e-08
2.37517e-08
2.37415e-08
2.3738e-08
2.37358e-08
2.3736e-08
2.37353e-08
2.37358e-08
2.37355e-08
2.37358e-08
2.37357e-08
2.37359e-08
2.37358e-08
2.3736e-08
2.37359e-08
2.3736e-08
2.37359e-08
2.3736e-08
2.3736e-08
2.3736e-08
2.3736e-08
2.3736e-08
2.3736e-08
2.3736e-08
2.3736e-08
2.3736e-08
2.3736e-08
2.3736e-08
2.3736e-08
2.37359e-08
2.3736e-08
2.37359e-08
2.3736e-08
2.37358e-08
2.37359e-08
2.37357e-08
2.37359e-08
2.37355e-08
2.37358e-08
2.37353e-08
2.3736e-08
2.37358e-08
2.37381e-08
2.37415e-08
2.37517e-08
2.37764e-08
2.37954e-08
2.38369e-08
1.87658e-08
1.87342e-08
1.87244e-08
1.8705e-08
1.8696e-08
1.86935e-08
1.86911e-08
1.86916e-08
1.86906e-08
1.86914e-08
1.86908e-08
1.86914e-08
1.8691e-08
1.86914e-08
1.86912e-08
1.86914e-08
1.86913e-08
1.86914e-08
1.86913e-08
1.86914e-08
1.86914e-08
1.86914e-08
1.86914e-08
1.86914e-08
1.86914e-08
1.86914e-08
1.86914e-08
1.86914e-08
1.86914e-08
1.86914e-08
1.86914e-08
1.86913e-08
1.86914e-08
1.86913e-08
1.86914e-08
1.86912e-08
1.86914e-08
1.8691e-08
1.86914e-08
1.86908e-08
1.86914e-08
1.86906e-08
1.86916e-08
1.86911e-08
1.86935e-08
1.8696e-08
1.8705e-08
1.87244e-08
1.87342e-08
1.87658e-08
1.47342e-08
1.47118e-08
1.47097e-08
1.46954e-08
1.46876e-08
1.46861e-08
1.46835e-08
1.46844e-08
1.46831e-08
1.4684e-08
1.46834e-08
1.4684e-08
1.46836e-08
1.4684e-08
1.46837e-08
1.4684e-08
1.46838e-08
1.4684e-08
1.46839e-08
1.4684e-08
1.46839e-08
1.4684e-08
1.46839e-08
1.4684e-08
1.46839e-08
1.46839e-08
1.4684e-08
1.46839e-08
1.4684e-08
1.46839e-08
1.4684e-08
1.46839e-08
1.4684e-08
1.46838e-08
1.4684e-08
1.46837e-08
1.4684e-08
1.46836e-08
1.4684e-08
1.46834e-08
1.4684e-08
1.46831e-08
1.46844e-08
1.46835e-08
1.46861e-08
1.46876e-08
1.46954e-08
1.47097e-08
1.47118e-08
1.47342e-08
1.16288e-08
1.16141e-08
1.16181e-08
1.16081e-08
1.16015e-08
1.16007e-08
1.15981e-08
1.15991e-08
1.15978e-08
1.15988e-08
1.1598e-08
1.15987e-08
1.15982e-08
1.15987e-08
1.15984e-08
1.15987e-08
1.15984e-08
1.15986e-08
1.15985e-08
1.15986e-08
1.15985e-08
1.15986e-08
1.15986e-08
1.15986e-08
1.15986e-08
1.15986e-08
1.15986e-08
1.15986e-08
1.15986e-08
1.15985e-08
1.15986e-08
1.15985e-08
1.15986e-08
1.15984e-08
1.15987e-08
1.15984e-08
1.15987e-08
1.15982e-08
1.15987e-08
1.1598e-08
1.15988e-08
1.15978e-08
1.15991e-08
1.15981e-08
1.16007e-08
1.16015e-08
1.16081e-08
1.16181e-08
1.16141e-08
1.16288e-08
9.17723e-09
9.16798e-09
9.1743e-09
9.16722e-09
9.16173e-09
9.16132e-09
9.15893e-09
9.15994e-09
9.15864e-09
9.1596e-09
9.15885e-09
9.15952e-09
9.15903e-09
9.15947e-09
9.15915e-09
9.15946e-09
9.15923e-09
9.15944e-09
9.15929e-09
9.15942e-09
9.15933e-09
9.1594e-09
9.15935e-09
9.15939e-09
9.15937e-09
9.15937e-09
9.15939e-09
9.15935e-09
9.1594e-09
9.15933e-09
9.15942e-09
9.15929e-09
9.15944e-09
9.15923e-09
9.15946e-09
9.15915e-09
9.15947e-09
9.15903e-09
9.15952e-09
9.15885e-09
9.15961e-09
9.15864e-09
9.15994e-09
9.15893e-09
9.16132e-09
9.16173e-09
9.16722e-09
9.1743e-09
9.16798e-09
9.17723e-09
7.38726e-09
7.38315e-09
7.39257e-09
7.38824e-09
7.38359e-09
7.38361e-09
7.38127e-09
7.38236e-09
7.38103e-09
7.38201e-09
7.38122e-09
7.38191e-09
7.3814e-09
7.38185e-09
7.38151e-09
7.38183e-09
7.38159e-09
7.3818e-09
7.38165e-09
7.38178e-09
7.38168e-09
7.38176e-09
7.38171e-09
7.38175e-09
7.38173e-09
7.38173e-09
7.38175e-09
7.38171e-09
7.38176e-09
7.38169e-09
7.38178e-09
7.38165e-09
7.3818e-09
7.38159e-09
7.38183e-09
7.38151e-09
7.38185e-09
7.3814e-09
7.38191e-09
7.38122e-09
7.38201e-09
7.38103e-09
7.38236e-09
7.38127e-09
7.38361e-09
7.38359e-09
7.38824e-09
7.39257e-09
7.38315e-09
7.38726e-09
6.01857e-09
6.01267e-09
6.0192e-09
6.01549e-09
6.01234e-09
6.01217e-09
6.01052e-09
6.01123e-09
6.01029e-09
6.01096e-09
6.01041e-09
6.01088e-09
6.01053e-09
6.01084e-09
6.01061e-09
6.01083e-09
6.01066e-09
6.01081e-09
6.01071e-09
6.0108e-09
6.01073e-09
6.01079e-09
6.01075e-09
6.01078e-09
6.01076e-09
6.01076e-09
6.01078e-09
6.01075e-09
6.01079e-09
6.01073e-09
6.0108e-09
6.01071e-09
6.01081e-09
6.01066e-09
6.01083e-09
6.01061e-09
6.01084e-09
6.01053e-09
6.01088e-09
6.01041e-09
6.01096e-09
6.01029e-09
6.01123e-09
6.01052e-09
6.01217e-09
6.01234e-09
6.01549e-09
6.0192e-09
6.01267e-09
6.01857e-09
4.93703e-09
4.93362e-09
4.94031e-09
4.93784e-09
4.93527e-09
4.93522e-09
4.93374e-09
4.93439e-09
4.93353e-09
4.93414e-09
4.93364e-09
4.93406e-09
4.93375e-09
4.93402e-09
4.93382e-09
4.93401e-09
4.93386e-09
4.93399e-09
4.9339e-09
4.93398e-09
4.93392e-09
4.93397e-09
4.93394e-09
4.93396e-09
4.93395e-09
4.93395e-09
4.93396e-09
4.93394e-09
4.93397e-09
4.93392e-09
4.93398e-09
4.9339e-09
4.93399e-09
4.93386e-09
4.93401e-09
4.93381e-09
4.93403e-09
4.93374e-09
4.93406e-09
4.93364e-09
4.93414e-09
4.93353e-09
4.93439e-09
4.93374e-09
4.93522e-09
4.93527e-09
4.93784e-09
4.94031e-09
4.93362e-09
4.93703e-09
4.13078e-09
4.12953e-09
4.13671e-09
4.13533e-09
4.13321e-09
4.1333e-09
4.13193e-09
4.13255e-09
4.13174e-09
4.13231e-09
4.13184e-09
4.13224e-09
4.13194e-09
4.1322e-09
4.132e-09
4.13218e-09
4.13204e-09
4.13217e-09
4.13208e-09
4.13216e-09
4.1321e-09
4.13215e-09
4.13211e-09
4.13214e-09
4.13213e-09
4.13213e-09
4.13214e-09
4.13211e-09
4.13215e-09
4.1321e-09
4.13216e-09
4.13208e-09
4.13217e-09
4.13204e-09
4.13218e-09
4.132e-09
4.1322e-09
4.13194e-09
4.13224e-09
4.13184e-09
4.13231e-09
4.13174e-09
4.13256e-09
4.13193e-09
4.1333e-09
4.13321e-09
4.13533e-09
4.13672e-09
4.12953e-09
4.13078e-09
3.47827e-09
3.47965e-09
3.48808e-09
3.48824e-09
3.48678e-09
3.48709e-09
3.48582e-09
3.48643e-09
3.48564e-09
3.48618e-09
3.48571e-09
3.48609e-09
3.48579e-09
3.48604e-09
3.48585e-09
3.48602e-09
3.48588e-09
3.486e-09
3.48592e-09
3.48599e-09
3.48593e-09
3.48598e-09
3.48595e-09
3.48597e-09
3.48596e-09
3.48596e-09
3.48597e-09
3.48595e-09
3.48598e-09
3.48593e-09
3.48599e-09
3.48592e-09
3.486e-09
3.48588e-09
3.48602e-09
3.48585e-09
3.48604e-09
3.48579e-09
3.48609e-09
3.48571e-09
3.48618e-09
3.48564e-09
3.48643e-09
3.48582e-09
3.48709e-09
3.48678e-09
3.48824e-09
3.48808e-09
3.47964e-09
3.47827e-09
2.97838e-09
2.98097e-09
2.98924e-09
2.98993e-09
2.9888e-09
2.98915e-09
2.988e-09
2.98857e-09
2.98783e-09
2.98833e-09
2.98789e-09
2.98824e-09
2.98797e-09
2.98819e-09
2.98801e-09
2.98817e-09
2.98804e-09
2.98816e-09
2.98808e-09
2.98815e-09
2.98809e-09
2.98814e-09
2.98811e-09
2.98813e-09
2.98812e-09
2.98812e-09
2.98813e-09
2.98811e-09
2.98814e-09
2.98809e-09
2.98815e-09
2.98808e-09
2.98816e-09
2.98804e-09
2.98817e-09
2.98801e-09
2.9882e-09
2.98797e-09
2.98824e-09
2.9879e-09
2.98833e-09
2.98783e-09
2.98857e-09
2.988e-09
2.98915e-09
2.9888e-09
2.98993e-09
2.98924e-09
2.98097e-09
2.97838e-09
2.5627e-09
2.56719e-09
2.57632e-09
2.57795e-09
2.57702e-09
2.57753e-09
2.57636e-09
2.57696e-09
2.5762e-09
2.57672e-09
2.57627e-09
2.57663e-09
2.57634e-09
2.57658e-09
2.57639e-09
2.57656e-09
2.57642e-09
2.57654e-09
2.57645e-09
2.57653e-09
2.57647e-09
2.57651e-09
2.57648e-09
2.5765e-09
2.57649e-09
2.57649e-09
2.5765e-09
2.57648e-09
2.57651e-09
2.57647e-09
2.57653e-09
2.57645e-09
2.57654e-09
2.57642e-09
2.57656e-09
2.57639e-09
2.57658e-09
2.57634e-09
2.57663e-09
2.57627e-09
2.57672e-09
2.5762e-09
2.57696e-09
2.57636e-09
2.57753e-09
2.57702e-09
2.57795e-09
2.57632e-09
2.56719e-09
2.5627e-09
2.22455e-09
2.22972e-09
2.23816e-09
2.23995e-09
2.23922e-09
2.23971e-09
2.23866e-09
2.2392e-09
2.23852e-09
2.23897e-09
2.23857e-09
2.23889e-09
2.23863e-09
2.23885e-09
2.23868e-09
2.23883e-09
2.2387e-09
2.23881e-09
2.23873e-09
2.2388e-09
2.23875e-09
2.23879e-09
2.23876e-09
2.23878e-09
2.23877e-09
2.23877e-09
2.23878e-09
2.23876e-09
2.23879e-09
2.23875e-09
2.2388e-09
2.23873e-09
2.23881e-09
2.2387e-09
2.23883e-09
2.23868e-09
2.23885e-09
2.23863e-09
2.23889e-09
2.23857e-09
2.23897e-09
2.23851e-09
2.2392e-09
2.23867e-09
2.23971e-09
2.23922e-09
2.23995e-09
2.23816e-09
2.22972e-09
2.22455e-09
1.95666e-09
1.96263e-09
1.97068e-09
1.97266e-09
1.97211e-09
1.9726e-09
1.97164e-09
1.97214e-09
1.9715e-09
1.97192e-09
1.97155e-09
1.97185e-09
1.9716e-09
1.9718e-09
1.97164e-09
1.97178e-09
1.97167e-09
1.97177e-09
1.9717e-09
1.97176e-09
1.97171e-09
1.97175e-09
1.97172e-09
1.97174e-09
1.97173e-09
1.97173e-09
1.97174e-09
1.97172e-09
1.97175e-09
1.97171e-09
1.97176e-09
1.9717e-09
1.97177e-09
1.97167e-09
1.97178e-09
1.97164e-09
1.9718e-09
1.9716e-09
1.97184e-09
1.97155e-09
1.97192e-09
1.9715e-09
1.97214e-09
1.97164e-09
1.9726e-09
1.97211e-09
1.97266e-09
1.97068e-09
1.96263e-09
1.95666e-09
1.73425e-09
1.74103e-09
1.74871e-09
1.75083e-09
1.75041e-09
1.7509e-09
1.75002e-09
1.75048e-09
1.74988e-09
1.75027e-09
1.74993e-09
1.7502e-09
1.74998e-09
1.75016e-09
1.75001e-09
1.75014e-09
1.75004e-09
1.75013e-09
1.75006e-09
1.75012e-09
1.75008e-09
1.75011e-09
1.75009e-09
1.7501e-09
1.7501e-09
1.7501e-09
1.7501e-09
1.75009e-09
1.75011e-09
1.75008e-09
1.75012e-09
1.75006e-09
1.75013e-09
1.75004e-09
1.75014e-09
1.75001e-09
1.75016e-09
1.74998e-09
1.7502e-09
1.74993e-09
1.75027e-09
1.74988e-09
1.75048e-09
1.75002e-09
1.7509e-09
1.75041e-09
1.75083e-09
1.74871e-09
1.74103e-09
1.73425e-09
1.54786e-09
1.55006e-09
1.5567e-09
1.55873e-09
1.55855e-09
1.55902e-09
1.55827e-09
1.55865e-09
1.55814e-09
1.55846e-09
1.55815e-09
1.55838e-09
1.55818e-09
1.55834e-09
1.55821e-09
1.55832e-09
1.55822e-09
1.5583e-09
1.55825e-09
1.55829e-09
1.55826e-09
1.55829e-09
1.55826e-09
1.55828e-09
1.55827e-09
1.55827e-09
1.55828e-09
1.55826e-09
1.55829e-09
1.55826e-09
1.55829e-09
1.55825e-09
1.5583e-09
1.55822e-09
1.55832e-09
1.55821e-09
1.55834e-09
1.55818e-09
1.55838e-09
1.55815e-09
1.55846e-09
1.55813e-09
1.55865e-09
1.55827e-09
1.55902e-09
1.55855e-09
1.55873e-09
1.5567e-09
1.55006e-09
1.54786e-09
1.3904e-09
1.39305e-09
1.39932e-09
1.40139e-09
1.40131e-09
1.40176e-09
1.40107e-09
1.40143e-09
1.40094e-09
1.40124e-09
1.40096e-09
1.40117e-09
1.40098e-09
1.40112e-09
1.40101e-09
1.40111e-09
1.40102e-09
1.40109e-09
1.40104e-09
1.40109e-09
1.40105e-09
1.40108e-09
1.40106e-09
1.40107e-09
1.40106e-09
1.40106e-09
1.40107e-09
1.40106e-09
1.40108e-09
1.40105e-09
1.40109e-09
1.40104e-09
1.40109e-09
1.40102e-09
1.40111e-09
1.40101e-09
1.40112e-09
1.40098e-09
1.40116e-09
1.40096e-09
1.40124e-09
1.40094e-09
1.40143e-09
1.40107e-09
1.40176e-09
1.4013e-09
1.40139e-09
1.39932e-09
1.39305e-09
1.3904e-09
1.25123e-09
1.25432e-09
1.26048e-09
1.26274e-09
1.26278e-09
1.26326e-09
1.26262e-09
1.26295e-09
1.26249e-09
1.26276e-09
1.26249e-09
1.26269e-09
1.26251e-09
1.26265e-09
1.26253e-09
1.26263e-09
1.26255e-09
1.26262e-09
1.26256e-09
1.26261e-09
1.26257e-09
1.2626e-09
1.26258e-09
1.26259e-09
1.26259e-09
1.26259e-09
1.26259e-09
1.26258e-09
1.2626e-09
1.26257e-09
1.26261e-09
1.26256e-09
1.26262e-09
1.26255e-09
1.26263e-09
1.26253e-09
1.26265e-09
1.26251e-09
1.26269e-09
1.26249e-09
1.26276e-09
1.26249e-09
1.26295e-09
1.26262e-09
1.26326e-09
1.26278e-09
1.26274e-09
1.26048e-09
1.25432e-09
1.25123e-09
1.1317e-09
1.13497e-09
1.14069e-09
1.14289e-09
1.143e-09
1.14346e-09
1.14287e-09
1.14317e-09
1.14275e-09
1.14299e-09
1.14275e-09
1.14292e-09
1.14277e-09
1.14288e-09
1.14278e-09
1.14287e-09
1.14279e-09
1.14286e-09
1.14281e-09
1.14285e-09
1.14282e-09
1.14284e-09
1.14282e-09
1.14283e-09
1.14283e-09
1.14283e-09
1.14283e-09
1.14282e-09
1.14284e-09
1.14282e-09
1.14285e-09
1.14281e-09
1.14286e-09
1.14279e-09
1.14287e-09
1.14278e-09
1.14288e-09
1.14277e-09
1.14292e-09
1.14275e-09
1.14299e-09
1.14275e-09
1.14317e-09
1.14287e-09
1.14346e-09
1.143e-09
1.14289e-09
1.14069e-09
1.13497e-09
1.1317e-09
1.02833e-09
1.03173e-09
1.03704e-09
1.03919e-09
1.03934e-09
1.03978e-09
1.03924e-09
1.03951e-09
1.03912e-09
1.03934e-09
1.03912e-09
1.03928e-09
1.03913e-09
1.03924e-09
1.03915e-09
1.03922e-09
1.03916e-09
1.03922e-09
1.03917e-09
1.03921e-09
1.03918e-09
1.0392e-09
1.03918e-09
1.03919e-09
1.03919e-09
1.03919e-09
1.03919e-09
1.03918e-09
1.0392e-09
1.03918e-09
1.03921e-09
1.03917e-09
1.03922e-09
1.03916e-09
1.03922e-09
1.03915e-09
1.03924e-09
1.03913e-09
1.03928e-09
1.03912e-09
1.03934e-09
1.03912e-09
1.03951e-09
1.03924e-09
1.03978e-09
1.03934e-09
1.03919e-09
1.03704e-09
1.03173e-09
1.02833e-09
9.38406e-10
9.41872e-10
9.46816e-10
9.48891e-10
9.49081e-10
9.49499e-10
9.49006e-10
9.49251e-10
9.48895e-10
9.49095e-10
9.48888e-10
9.49033e-10
9.48901e-10
9.48999e-10
9.48912e-10
9.48984e-10
9.48921e-10
9.48975e-10
9.48936e-10
9.48969e-10
9.48943e-10
9.48962e-10
9.48947e-10
9.48957e-10
9.48952e-10
9.48952e-10
9.48957e-10
9.48947e-10
9.48962e-10
9.48943e-10
9.48969e-10
9.48936e-10
9.48975e-10
9.48922e-10
9.48984e-10
9.48912e-10
9.48999e-10
9.48901e-10
9.49033e-10
9.48889e-10
9.49095e-10
9.48895e-10
9.49251e-10
9.49006e-10
9.49498e-10
9.49081e-10
9.48891e-10
9.46816e-10
9.41872e-10
9.38406e-10
8.59748e-10
8.63238e-10
8.67852e-10
8.69847e-10
8.70067e-10
8.70466e-10
8.70014e-10
8.70236e-10
8.69908e-10
8.70088e-10
8.69898e-10
8.70029e-10
8.69908e-10
8.69997e-10
8.69918e-10
8.69983e-10
8.69926e-10
8.69975e-10
8.69939e-10
8.69969e-10
8.69945e-10
8.69963e-10
8.69949e-10
8.69958e-10
8.69954e-10
8.69954e-10
8.69958e-10
8.69949e-10
8.69963e-10
8.69945e-10
8.69969e-10
8.69939e-10
8.69975e-10
8.69926e-10
8.69983e-10
8.69918e-10
8.69998e-10
8.69908e-10
8.70029e-10
8.69899e-10
8.70088e-10
8.69908e-10
8.70236e-10
8.70014e-10
8.70465e-10
8.70067e-10
8.69847e-10
8.67852e-10
8.63238e-10
8.59748e-10
7.90609e-10
7.9409e-10
7.98402e-10
8.00313e-10
8.00556e-10
8.00936e-10
8.00521e-10
8.00722e-10
8.00421e-10
8.00582e-10
8.00408e-10
8.00527e-10
8.00416e-10
8.00497e-10
8.00424e-10
8.00483e-10
8.00431e-10
8.00476e-10
8.00443e-10
8.00471e-10
8.00449e-10
8.00465e-10
8.00452e-10
8.00461e-10
8.00457e-10
8.00457e-10
8.00461e-10
8.00452e-10
8.00465e-10
8.00449e-10
8.00471e-10
8.00443e-10
8.00476e-10
8.00431e-10
8.00484e-10
8.00424e-10
8.00497e-10
8.00416e-10
8.00526e-10
8.00409e-10
8.00583e-10
8.0042e-10
8.00722e-10
8.00521e-10
8.00935e-10
8.00556e-10
8.00313e-10
7.98402e-10
7.9409e-10
7.90609e-10
7.2957e-10
7.33016e-10
7.3705e-10
7.38876e-10
7.39136e-10
7.39497e-10
7.39117e-10
7.39299e-10
7.39021e-10
7.39167e-10
7.39006e-10
7.39114e-10
7.39011e-10
7.39085e-10
7.39018e-10
7.39073e-10
7.39025e-10
7.39066e-10
7.39036e-10
7.39061e-10
7.39041e-10
7.39056e-10
7.39044e-10
7.39052e-10
7.39048e-10
7.39048e-10
7.39052e-10
7.39044e-10
7.39056e-10
7.39041e-10
7.39061e-10
7.39036e-10
7.39066e-10
7.39025e-10
7.39073e-10
7.39018e-10
7.39086e-10
7.39011e-10
7.39113e-10
7.39007e-10
7.39167e-10
7.3902e-10
7.39299e-10
7.39117e-10
7.39496e-10
7.39135e-10
7.38876e-10
7.3705e-10
7.33015e-10
7.2957e-10
6.75468e-10
6.78857e-10
6.82635e-10
6.84376e-10
6.84648e-10
6.84992e-10
6.84642e-10
6.84807e-10
6.84551e-10
6.84682e-10
6.84534e-10
6.84632e-10
6.84538e-10
6.84605e-10
6.84543e-10
6.84593e-10
6.84549e-10
6.84587e-10
6.84559e-10
6.84583e-10
6.84564e-10
6.84578e-10
6.84567e-10
6.84574e-10
6.84571e-10
6.84571e-10
6.84574e-10
6.84567e-10
6.84578e-10
6.84564e-10
6.84583e-10
6.84559e-10
6.84587e-10
6.84549e-10
6.84593e-10
6.84543e-10
6.84605e-10
6.84538e-10
6.84631e-10
6.84535e-10
6.84682e-10
6.8455e-10
6.84807e-10
6.84642e-10
6.84991e-10
6.84647e-10
6.84376e-10
6.82635e-10
6.78857e-10
6.75468e-10
6.2734e-10
6.30657e-10
6.34197e-10
6.35854e-10
6.36134e-10
6.36462e-10
6.3614e-10
6.3629e-10
6.36053e-10
6.36171e-10
6.36035e-10
6.36123e-10
6.36036e-10
6.36098e-10
6.36041e-10
6.36087e-10
6.36046e-10
6.36081e-10
6.36055e-10
6.36077e-10
6.3606e-10
6.36073e-10
6.36062e-10
6.36069e-10
6.36066e-10
6.36066e-10
6.36069e-10
6.36062e-10
6.36073e-10
6.3606e-10
6.36077e-10
6.36055e-10
6.36081e-10
6.36046e-10
6.36087e-10
6.36041e-10
6.36098e-10
6.36036e-10
6.36123e-10
6.36035e-10
6.36171e-10
6.36052e-10
6.3629e-10
6.3614e-10
6.36461e-10
6.36134e-10
6.35854e-10
6.34197e-10
6.30657e-10
6.27341e-10
5.84384e-10
5.87615e-10
5.90936e-10
5.92511e-10
5.92795e-10
5.93107e-10
5.92811e-10
5.92946e-10
5.92727e-10
5.92834e-10
5.92708e-10
5.92788e-10
5.92708e-10
5.92764e-10
5.92712e-10
5.92754e-10
5.92717e-10
5.92749e-10
5.92725e-10
5.92745e-10
5.92729e-10
5.92741e-10
5.92731e-10
5.92738e-10
5.92735e-10
5.92735e-10
5.92738e-10
5.92732e-10
5.92741e-10
5.92729e-10
5.92745e-10
5.92725e-10
5.92749e-10
5.92717e-10
5.92754e-10
5.92712e-10
5.92764e-10
5.92708e-10
5.92788e-10
5.92709e-10
5.92834e-10
5.92727e-10
5.92946e-10
5.92811e-10
5.93106e-10
5.92795e-10
5.92511e-10
5.90935e-10
5.87615e-10
5.84384e-10
5.45925e-10
5.49059e-10
5.52176e-10
5.53673e-10
5.53958e-10
5.54255e-10
5.53982e-10
5.54105e-10
5.53902e-10
5.53998e-10
5.53882e-10
5.53955e-10
5.53881e-10
5.53932e-10
5.53884e-10
5.53922e-10
5.53888e-10
5.53918e-10
5.53896e-10
5.53914e-10
5.539e-10
5.53911e-10
5.53902e-10
5.53908e-10
5.53905e-10
5.53905e-10
5.53908e-10
5.53902e-10
5.53911e-10
5.539e-10
5.53914e-10
5.53896e-10
5.53918e-10
5.53888e-10
5.53923e-10
5.53884e-10
5.53932e-10
5.53881e-10
5.53955e-10
5.53883e-10
5.53998e-10
5.53902e-10
5.54105e-10
5.53982e-10
5.54254e-10
5.53958e-10
5.53673e-10
5.52176e-10
5.49059e-10
5.45925e-10
5.11392e-10
5.1442e-10
5.1735e-10
5.1877e-10
5.19054e-10
5.19336e-10
5.19085e-10
5.19197e-10
5.19009e-10
5.19095e-10
5.18988e-10
5.19054e-10
5.18986e-10
5.19033e-10
5.18988e-10
5.19023e-10
5.18992e-10
5.19019e-10
5.18999e-10
5.19016e-10
5.19003e-10
5.19013e-10
5.19005e-10
5.1901e-10
5.19008e-10
5.19008e-10
5.1901e-10
5.19005e-10
5.19013e-10
5.19003e-10
5.19016e-10
5.18999e-10
5.19019e-10
5.18992e-10
5.19024e-10
5.18988e-10
5.19033e-10
5.18986e-10
5.19054e-10
5.18989e-10
5.19096e-10
5.19009e-10
5.19197e-10
5.19085e-10
5.19336e-10
5.19054e-10
5.1877e-10
5.17349e-10
5.1442e-10
5.11392e-10
4.80299e-10
4.83213e-10
4.8597e-10
4.87318e-10
4.87599e-10
4.87867e-10
4.87635e-10
4.87736e-10
4.87563e-10
4.8764e-10
4.87541e-10
4.87601e-10
4.87538e-10
4.87581e-10
4.8754e-10
4.87572e-10
4.87543e-10
4.87568e-10
4.8755e-10
4.87565e-10
4.87553e-10
4.87562e-10
4.87555e-10
4.8756e-10
4.87557e-10
4.87557e-10
4.8756e-10
4.87555e-10
4.87562e-10
4.87553e-10
4.87565e-10
4.87549e-10
4.87568e-10
4.87543e-10
4.87572e-10
4.8754e-10
4.87581e-10
4.87538e-10
4.87601e-10
4.87541e-10
4.8764e-10
4.87563e-10
4.87736e-10
4.87635e-10
4.87866e-10
4.87598e-10
4.87318e-10
4.8597e-10
4.83213e-10
4.80299e-10
4.5223e-10
4.55023e-10
4.57621e-10
4.589e-10
4.59176e-10
4.59431e-10
4.59217e-10
4.59309e-10
4.59148e-10
4.59218e-10
4.59126e-10
4.5918e-10
4.59122e-10
4.59161e-10
4.59123e-10
4.59153e-10
4.59126e-10
4.5915e-10
4.59133e-10
4.59147e-10
4.59136e-10
4.59144e-10
4.59137e-10
4.59142e-10
4.5914e-10
4.5914e-10
4.59142e-10
4.59137e-10
4.59144e-10
4.59136e-10
4.59147e-10
4.59132e-10
4.5915e-10
4.59126e-10
4.59153e-10
4.59124e-10
4.59161e-10
4.59122e-10
4.5918e-10
4.59127e-10
4.59218e-10
4.59148e-10
4.59309e-10
4.59217e-10
4.5943e-10
4.59176e-10
4.589e-10
4.57621e-10
4.55022e-10
4.5223e-10
4.26828e-10
4.29491e-10
4.31947e-10
4.33159e-10
4.33429e-10
4.33671e-10
4.33474e-10
4.33558e-10
4.33409e-10
4.33471e-10
4.33386e-10
4.33435e-10
4.33382e-10
4.33417e-10
4.33382e-10
4.3341e-10
4.33385e-10
4.33407e-10
4.33391e-10
4.33404e-10
4.33394e-10
4.33402e-10
4.33395e-10
4.33399e-10
4.33398e-10
4.33398e-10
4.33399e-10
4.33395e-10
4.33402e-10
4.33394e-10
4.33404e-10
4.33391e-10
4.33407e-10
4.33385e-10
4.3341e-10
4.33382e-10
4.33418e-10
4.33382e-10
4.33435e-10
4.33386e-10
4.33471e-10
4.33408e-10
4.33558e-10
4.33474e-10
4.33671e-10
4.33429e-10
4.33159e-10
4.31946e-10
4.29491e-10
4.26828e-10
4.03776e-10
4.06319e-10
4.08637e-10
4.09785e-10
4.10049e-10
4.1028e-10
4.10098e-10
4.10173e-10
4.10035e-10
4.10092e-10
4.10013e-10
4.10057e-10
4.10008e-10
4.1004e-10
4.10008e-10
4.10033e-10
4.1001e-10
4.1003e-10
4.10016e-10
4.10028e-10
4.10018e-10
4.10026e-10
4.1002e-10
4.10024e-10
4.10022e-10
4.10022e-10
4.10024e-10
4.1002e-10
4.10026e-10
4.10018e-10
4.10028e-10
4.10016e-10
4.1003e-10
4.1001e-10
4.10033e-10
4.10008e-10
4.1004e-10
4.10008e-10
4.10057e-10
4.10013e-10
4.10092e-10
4.10035e-10
4.10173e-10
4.10098e-10
4.10279e-10
4.10049e-10
4.09785e-10
4.08637e-10
4.06319e-10
4.03776e-10
3.82807e-10
3.85237e-10
3.87424e-10
3.88512e-10
3.88769e-10
3.88988e-10
3.8882e-10
3.88889e-10
3.8876e-10
3.88811e-10
3.88738e-10
3.88778e-10
3.88732e-10
3.88762e-10
3.88732e-10
3.88756e-10
3.88735e-10
3.88753e-10
3.8874e-10
3.88751e-10
3.88742e-10
3.88749e-10
3.88744e-10
3.88747e-10
3.88746e-10
3.88746e-10
3.88747e-10
3.88744e-10
3.88749e-10
3.88742e-10
3.88751e-10
3.8874e-10
3.88753e-10
3.88735e-10
3.88756e-10
3.88733e-10
3.88763e-10
3.88732e-10
3.88778e-10
3.88738e-10
3.88811e-10
3.8876e-10
3.88889e-10
3.8882e-10
3.88987e-10
3.88769e-10
3.88511e-10
3.87424e-10
3.85237e-10
3.82807e-10
3.63689e-10
3.66015e-10
3.68075e-10
3.69105e-10
3.69355e-10
3.69563e-10
3.69408e-10
3.69471e-10
3.69351e-10
3.69397e-10
3.69329e-10
3.69366e-10
3.69324e-10
3.69351e-10
3.69323e-10
3.69345e-10
3.69326e-10
3.69343e-10
3.6933e-10
3.69341e-10
3.69333e-10
3.69339e-10
3.69334e-10
3.69337e-10
3.69336e-10
3.69336e-10
3.69337e-10
3.69334e-10
3.69339e-10
3.69333e-10
3.69341e-10
3.6933e-10
3.69343e-10
3.69326e-10
3.69345e-10
3.69324e-10
3.69351e-10
3.69324e-10
3.69366e-10
3.69329e-10
3.69397e-10
3.69351e-10
3.69471e-10
3.69408e-10
3.69563e-10
3.69355e-10
3.69105e-10
3.68075e-10
3.66014e-10
3.63689e-10
3.46219e-10
3.48448e-10
3.50387e-10
3.51363e-10
3.51606e-10
3.51803e-10
3.5166e-10
3.51717e-10
3.51606e-10
3.51648e-10
3.51584e-10
3.51618e-10
3.51579e-10
3.51604e-10
3.51578e-10
3.51598e-10
3.5158e-10
3.51596e-10
3.51585e-10
3.51595e-10
3.51587e-10
3.51593e-10
3.51588e-10
3.51591e-10
3.5159e-10
3.5159e-10
3.51591e-10
3.51588e-10
3.51593e-10
3.51587e-10
3.51595e-10
3.51585e-10
3.51596e-10
3.5158e-10
3.51598e-10
3.51578e-10
3.51604e-10
3.51579e-10
3.51618e-10
3.51585e-10
3.51648e-10
3.51606e-10
3.51717e-10
3.5166e-10
3.51803e-10
3.51606e-10
3.51363e-10
3.50387e-10
3.48448e-10
3.46219e-10
3.3022e-10
3.32362e-10
3.34183e-10
3.35108e-10
3.35343e-10
3.35531e-10
3.35398e-10
3.3545e-10
3.35348e-10
3.35385e-10
3.35326e-10
3.35357e-10
3.3532e-10
3.35344e-10
3.3532e-10
3.35338e-10
3.35322e-10
3.35337e-10
3.35326e-10
3.35335e-10
3.35328e-10
3.35334e-10
3.35329e-10
3.35332e-10
3.35331e-10
3.35331e-10
3.35332e-10
3.35329e-10
3.35334e-10
3.35328e-10
3.35335e-10
3.35326e-10
3.35337e-10
3.35322e-10
3.35339e-10
3.3532e-10
3.35344e-10
3.3532e-10
3.35357e-10
3.35326e-10
3.35385e-10
3.35347e-10
3.3545e-10
3.35398e-10
3.3553e-10
3.35343e-10
3.35108e-10
3.34183e-10
3.32362e-10
3.3022e-10
3.15538e-10
3.17594e-10
3.19312e-10
3.20185e-10
3.20411e-10
3.2059e-10
3.20468e-10
3.20516e-10
3.2042e-10
3.20454e-10
3.20399e-10
3.20427e-10
3.20393e-10
3.20415e-10
3.20393e-10
3.2041e-10
3.20395e-10
3.20409e-10
3.20399e-10
3.20408e-10
3.20401e-10
3.20406e-10
3.20402e-10
3.20405e-10
3.20404e-10
3.20404e-10
3.20405e-10
3.20402e-10
3.20406e-10
3.20401e-10
3.20408e-10
3.20399e-10
3.20409e-10
3.20395e-10
3.2041e-10
3.20393e-10
3.20415e-10
3.20393e-10
3.20427e-10
3.20399e-10
3.20454e-10
3.2042e-10
3.20516e-10
3.20468e-10
3.2059e-10
3.20411e-10
3.20185e-10
3.19312e-10
3.17594e-10
3.15538e-10
3.02038e-10
3.04015e-10
3.05634e-10
3.06457e-10
3.06675e-10
3.06846e-10
3.06733e-10
3.06777e-10
3.06688e-10
3.06718e-10
3.06668e-10
3.06694e-10
3.06662e-10
3.06682e-10
3.06662e-10
3.06678e-10
3.06664e-10
3.06677e-10
3.06667e-10
3.06676e-10
3.06669e-10
3.06674e-10
3.0667e-10
3.06673e-10
3.06672e-10
3.06672e-10
3.06673e-10
3.06671e-10
3.06674e-10
3.06669e-10
3.06676e-10
3.06667e-10
3.06677e-10
3.06664e-10
3.06678e-10
3.06662e-10
3.06682e-10
3.06662e-10
3.06694e-10
3.06668e-10
3.06718e-10
3.06688e-10
3.06777e-10
3.06733e-10
3.06846e-10
3.06675e-10
3.06457e-10
3.05634e-10
3.04015e-10
3.02038e-10
2.89601e-10
2.91503e-10
2.93029e-10
2.93806e-10
2.94015e-10
2.94178e-10
2.94074e-10
2.94114e-10
2.94032e-10
2.94059e-10
2.94012e-10
2.94036e-10
2.94007e-10
2.94026e-10
2.94007e-10
2.94022e-10
2.94009e-10
2.94021e-10
2.94012e-10
2.9402e-10
2.94014e-10
2.94019e-10
2.94015e-10
2.94018e-10
2.94017e-10
2.94017e-10
2.94018e-10
2.94015e-10
2.94019e-10
2.94014e-10
2.9402e-10
2.94012e-10
2.94021e-10
2.94009e-10
2.94022e-10
2.94007e-10
2.94026e-10
2.94007e-10
2.94036e-10
2.94013e-10
2.94059e-10
2.94032e-10
2.94114e-10
2.94074e-10
2.94178e-10
2.94015e-10
2.93806e-10
2.93029e-10
2.91503e-10
2.89602e-10
2.78125e-10
2.79954e-10
2.81392e-10
2.82125e-10
2.82326e-10
2.82481e-10
2.82386e-10
2.82423e-10
2.82346e-10
2.82372e-10
2.82328e-10
2.8235e-10
2.82323e-10
2.8234e-10
2.82323e-10
2.82337e-10
2.82325e-10
2.82336e-10
2.82328e-10
2.82335e-10
2.8233e-10
2.82334e-10
2.82331e-10
2.82333e-10
2.82332e-10
2.82332e-10
2.82333e-10
2.82331e-10
2.82334e-10
2.8233e-10
2.82335e-10
2.82328e-10
2.82336e-10
2.82325e-10
2.82337e-10
2.82323e-10
2.8234e-10
2.82323e-10
2.8235e-10
2.82328e-10
2.82372e-10
2.82346e-10
2.82423e-10
2.82386e-10
2.82481e-10
2.82326e-10
2.82125e-10
2.81392e-10
2.79954e-10
2.78125e-10
2.67516e-10
2.69275e-10
2.7063e-10
2.71323e-10
2.71516e-10
2.71664e-10
2.71576e-10
2.7161e-10
2.7154e-10
2.71562e-10
2.71522e-10
2.71542e-10
2.71517e-10
2.71533e-10
2.71517e-10
2.7153e-10
2.71519e-10
2.7153e-10
2.71523e-10
2.7153e-10
2.71524e-10
2.71529e-10
2.71526e-10
2.71528e-10
2.71527e-10
2.71527e-10
2.71528e-10
2.71526e-10
2.71529e-10
2.71524e-10
2.7153e-10
2.71523e-10
2.7153e-10
2.71519e-10
2.71531e-10
2.71517e-10
2.71534e-10
2.71517e-10
2.71542e-10
2.71522e-10
2.71562e-10
2.71539e-10
2.7161e-10
2.71576e-10
2.71664e-10
2.71516e-10
2.71323e-10
2.7063e-10
2.69275e-10
2.67516e-10