/*--------------------------------*- C++ -*----------------------------------*\
| =========                 |                                                 |
| \\      /  F ield         | OpenFOAM: The Open Source CFD Toolbox           |
|  \\    /   O peration     | Version:  dev                                   |
|   \\  /    A nd           | Web:      www.OpenFOAM.org                      |
|    \\/     M anipulation  |                                                 |
\*---------------------------------------------------------------------------*/
FoamFile
{
    version     2.0;
    format      ascii;
    class       volScalarField;
    location    "0.1";
    object      A2-2;
}
// * * * * * * * * * * * * * * * * * * * * * * * * * * * * * * * * * * * * * //

dimensions      [0 0 0 0 0 0 0];

internalField   nonuniform List<scalar> 
8000
(
4.57031e-09
4.57033e-09
4.57284e-09
4.57269e-09
4.57271e-09
4.57253e-09
4.57251e-09
4.57245e-09
4.57246e-09
4.57244e-09
4.57245e-09
4.57244e-09
4.57246e-09
4.57245e-09
4.57246e-09
4.57246e-09
4.57246e-09
4.57246e-09
4.57247e-09
4.57246e-09
4.57247e-09
4.57247e-09
4.57247e-09
4.57247e-09
4.57247e-09
4.57247e-09
4.57247e-09
4.57247e-09
4.57247e-09
4.57247e-09
4.57246e-09
4.57247e-09
4.57246e-09
4.57246e-09
4.57246e-09
4.57246e-09
4.57245e-09
4.57246e-09
4.57244e-09
4.57245e-09
4.57244e-09
4.57246e-09
4.57245e-09
4.57251e-09
4.57253e-09
4.57271e-09
4.57269e-09
4.57284e-09
4.57033e-09
4.57031e-09
1.51614e-08
1.51619e-08
1.51723e-08
1.51727e-08
1.51729e-08
1.51725e-08
1.51724e-08
1.51723e-08
1.51722e-08
1.51722e-08
1.51722e-08
1.51722e-08
1.51722e-08
1.51723e-08
1.51723e-08
1.51723e-08
1.51723e-08
1.51723e-08
1.51723e-08
1.51723e-08
1.51723e-08
1.51723e-08
1.51723e-08
1.51723e-08
1.51723e-08
1.51723e-08
1.51723e-08
1.51723e-08
1.51723e-08
1.51723e-08
1.51723e-08
1.51723e-08
1.51723e-08
1.51723e-08
1.51723e-08
1.51723e-08
1.51723e-08
1.51722e-08
1.51722e-08
1.51722e-08
1.51722e-08
1.51722e-08
1.51723e-08
1.51724e-08
1.51725e-08
1.51729e-08
1.51728e-08
1.51723e-08
1.51619e-08
1.51614e-08
3.02494e-08
3.02452e-08
3.02576e-08
3.0255e-08
3.02533e-08
3.02524e-08
3.02517e-08
3.02517e-08
3.02514e-08
3.02516e-08
3.02514e-08
3.02516e-08
3.02515e-08
3.02516e-08
3.02515e-08
3.02516e-08
3.02516e-08
3.02516e-08
3.02516e-08
3.02516e-08
3.02516e-08
3.02517e-08
3.02516e-08
3.02517e-08
3.02517e-08
3.02517e-08
3.02517e-08
3.02516e-08
3.02517e-08
3.02516e-08
3.02516e-08
3.02516e-08
3.02516e-08
3.02516e-08
3.02516e-08
3.02515e-08
3.02516e-08
3.02515e-08
3.02516e-08
3.02514e-08
3.02516e-08
3.02514e-08
3.02517e-08
3.02517e-08
3.02524e-08
3.02533e-08
3.0255e-08
3.02576e-08
3.02452e-08
3.02494e-08
4.18139e-08
4.1796e-08
4.17987e-08
4.17873e-08
4.17817e-08
4.17798e-08
4.17782e-08
4.17784e-08
4.17777e-08
4.17782e-08
4.17779e-08
4.17782e-08
4.1778e-08
4.17782e-08
4.17781e-08
4.17783e-08
4.17782e-08
4.17783e-08
4.17782e-08
4.17783e-08
4.17783e-08
4.17783e-08
4.17783e-08
4.17783e-08
4.17783e-08
4.17783e-08
4.17783e-08
4.17783e-08
4.17783e-08
4.17783e-08
4.17783e-08
4.17782e-08
4.17783e-08
4.17782e-08
4.17783e-08
4.17781e-08
4.17782e-08
4.1778e-08
4.17782e-08
4.17779e-08
4.17782e-08
4.17777e-08
4.17784e-08
4.17782e-08
4.17798e-08
4.17817e-08
4.17873e-08
4.17987e-08
4.1796e-08
4.18139e-08
4.51826e-08
4.51463e-08
4.51332e-08
4.51108e-08
4.51013e-08
4.50979e-08
4.50957e-08
4.50958e-08
4.50951e-08
4.50956e-08
4.50952e-08
4.50956e-08
4.50954e-08
4.50957e-08
4.50956e-08
4.50957e-08
4.50957e-08
4.50958e-08
4.50957e-08
4.50958e-08
4.50958e-08
4.50958e-08
4.50958e-08
4.50958e-08
4.50958e-08
4.50958e-08
4.50958e-08
4.50958e-08
4.50958e-08
4.50958e-08
4.50958e-08
4.50957e-08
4.50958e-08
4.50957e-08
4.50957e-08
4.50956e-08
4.50957e-08
4.50954e-08
4.50956e-08
4.50952e-08
4.50956e-08
4.50951e-08
4.50958e-08
4.50957e-08
4.50979e-08
4.51013e-08
4.51108e-08
4.51333e-08
4.51463e-08
4.51826e-08
4.22014e-08
4.21545e-08
4.21337e-08
4.21051e-08
4.20931e-08
4.2089e-08
4.20864e-08
4.20866e-08
4.20857e-08
4.20863e-08
4.2086e-08
4.20864e-08
4.20862e-08
4.20865e-08
4.20863e-08
4.20865e-08
4.20865e-08
4.20866e-08
4.20865e-08
4.20866e-08
4.20866e-08
4.20866e-08
4.20866e-08
4.20866e-08
4.20866e-08
4.20866e-08
4.20866e-08
4.20866e-08
4.20866e-08
4.20866e-08
4.20866e-08
4.20865e-08
4.20866e-08
4.20865e-08
4.20865e-08
4.20863e-08
4.20865e-08
4.20862e-08
4.20864e-08
4.2086e-08
4.20863e-08
4.20857e-08
4.20866e-08
4.20864e-08
4.2089e-08
4.20931e-08
4.21051e-08
4.21337e-08
4.21545e-08
4.22013e-08
3.63828e-08
3.63356e-08
3.63164e-08
3.62874e-08
3.62748e-08
3.62709e-08
3.62679e-08
3.62683e-08
3.62673e-08
3.62681e-08
3.62675e-08
3.62681e-08
3.62678e-08
3.62682e-08
3.6268e-08
3.62682e-08
3.62681e-08
3.62682e-08
3.62681e-08
3.62682e-08
3.62682e-08
3.62683e-08
3.62682e-08
3.62683e-08
3.62682e-08
3.62682e-08
3.62683e-08
3.62682e-08
3.62683e-08
3.62682e-08
3.62682e-08
3.62681e-08
3.62682e-08
3.62681e-08
3.62682e-08
3.6268e-08
3.62682e-08
3.62678e-08
3.62681e-08
3.62675e-08
3.6268e-08
3.62673e-08
3.62683e-08
3.62679e-08
3.62709e-08
3.62748e-08
3.62874e-08
3.63164e-08
3.63356e-08
3.63828e-08
3.00669e-08
3.00258e-08
3.00134e-08
2.99878e-08
2.99757e-08
2.99725e-08
2.99692e-08
2.997e-08
2.99686e-08
2.99696e-08
2.99689e-08
2.99696e-08
2.99692e-08
2.99697e-08
2.99694e-08
2.99697e-08
2.99695e-08
2.99697e-08
2.99696e-08
2.99697e-08
2.99696e-08
2.99697e-08
2.99697e-08
2.99697e-08
2.99697e-08
2.99697e-08
2.99697e-08
2.99697e-08
2.99697e-08
2.99696e-08
2.99697e-08
2.99696e-08
2.99697e-08
2.99695e-08
2.99697e-08
2.99694e-08
2.99697e-08
2.99692e-08
2.99696e-08
2.99689e-08
2.99696e-08
2.99686e-08
2.997e-08
2.99692e-08
2.99725e-08
2.99757e-08
2.99878e-08
3.00134e-08
3.00258e-08
3.00669e-08
2.43445e-08
2.4312e-08
2.43079e-08
2.42872e-08
2.42762e-08
2.4274e-08
2.42705e-08
2.42716e-08
2.427e-08
2.42712e-08
2.42703e-08
2.42711e-08
2.42705e-08
2.42711e-08
2.42707e-08
2.42711e-08
2.42709e-08
2.42711e-08
2.42709e-08
2.42711e-08
2.4271e-08
2.42711e-08
2.4271e-08
2.42711e-08
2.4271e-08
2.4271e-08
2.42711e-08
2.4271e-08
2.42711e-08
2.4271e-08
2.42711e-08
2.42709e-08
2.42711e-08
2.42709e-08
2.42711e-08
2.42707e-08
2.42711e-08
2.42705e-08
2.42711e-08
2.42703e-08
2.42712e-08
2.427e-08
2.42716e-08
2.42705e-08
2.4274e-08
2.42762e-08
2.42872e-08
2.43079e-08
2.4312e-08
2.43445e-08
1.95724e-08
1.95488e-08
1.95523e-08
1.95366e-08
1.9527e-08
1.95256e-08
1.95221e-08
1.95234e-08
1.95216e-08
1.95229e-08
1.95219e-08
1.95228e-08
1.95222e-08
1.95228e-08
1.95224e-08
1.95228e-08
1.95225e-08
1.95228e-08
1.95226e-08
1.95227e-08
1.95226e-08
1.95227e-08
1.95227e-08
1.95227e-08
1.95227e-08
1.95227e-08
1.95227e-08
1.95227e-08
1.95227e-08
1.95226e-08
1.95227e-08
1.95226e-08
1.95228e-08
1.95225e-08
1.95228e-08
1.95224e-08
1.95228e-08
1.95222e-08
1.95228e-08
1.95219e-08
1.95229e-08
1.95216e-08
1.95234e-08
1.95221e-08
1.95256e-08
1.9527e-08
1.95366e-08
1.95523e-08
1.95488e-08
1.95724e-08
1.57569e-08
1.57415e-08
1.57513e-08
1.57402e-08
1.5732e-08
1.57314e-08
1.57278e-08
1.57293e-08
1.57274e-08
1.57288e-08
1.57277e-08
1.57287e-08
1.5728e-08
1.57286e-08
1.57282e-08
1.57286e-08
1.57283e-08
1.57286e-08
1.57284e-08
1.57286e-08
1.57284e-08
1.57285e-08
1.57285e-08
1.57285e-08
1.57285e-08
1.57285e-08
1.57285e-08
1.57285e-08
1.57285e-08
1.57284e-08
1.57286e-08
1.57284e-08
1.57286e-08
1.57283e-08
1.57286e-08
1.57282e-08
1.57286e-08
1.5728e-08
1.57287e-08
1.57277e-08
1.57288e-08
1.57274e-08
1.57293e-08
1.57278e-08
1.57314e-08
1.5732e-08
1.57402e-08
1.57513e-08
1.57415e-08
1.57569e-08
1.26498e-08
1.26402e-08
1.26521e-08
1.26443e-08
1.26373e-08
1.26371e-08
1.26338e-08
1.26353e-08
1.26334e-08
1.26348e-08
1.26337e-08
1.26346e-08
1.26339e-08
1.26346e-08
1.26341e-08
1.26345e-08
1.26342e-08
1.26345e-08
1.26343e-08
1.26345e-08
1.26343e-08
1.26344e-08
1.26344e-08
1.26344e-08
1.26344e-08
1.26344e-08
1.26344e-08
1.26344e-08
1.26344e-08
1.26343e-08
1.26345e-08
1.26343e-08
1.26345e-08
1.26342e-08
1.26345e-08
1.26341e-08
1.26346e-08
1.26339e-08
1.26346e-08
1.26337e-08
1.26348e-08
1.26334e-08
1.26353e-08
1.26338e-08
1.26371e-08
1.26373e-08
1.26443e-08
1.26521e-08
1.26402e-08
1.26498e-08
1.03229e-08
1.03192e-08
1.03346e-08
1.03299e-08
1.0324e-08
1.03242e-08
1.0321e-08
1.03226e-08
1.03207e-08
1.03221e-08
1.0321e-08
1.03219e-08
1.03212e-08
1.03218e-08
1.03214e-08
1.03218e-08
1.03215e-08
1.03218e-08
1.03215e-08
1.03217e-08
1.03216e-08
1.03217e-08
1.03216e-08
1.03217e-08
1.03217e-08
1.03217e-08
1.03217e-08
1.03216e-08
1.03217e-08
1.03216e-08
1.03217e-08
1.03215e-08
1.03218e-08
1.03215e-08
1.03218e-08
1.03214e-08
1.03218e-08
1.03212e-08
1.03219e-08
1.0321e-08
1.03221e-08
1.03207e-08
1.03226e-08
1.0321e-08
1.03242e-08
1.0324e-08
1.03299e-08
1.03346e-08
1.03192e-08
1.03229e-08
8.50488e-09
8.49833e-09
8.50931e-09
8.50522e-09
8.50117e-09
8.50114e-09
8.49885e-09
8.49988e-09
8.49854e-09
8.49949e-09
8.49871e-09
8.49937e-09
8.49887e-09
8.49931e-09
8.49898e-09
8.49928e-09
8.49905e-09
8.49926e-09
8.49911e-09
8.49923e-09
8.49914e-09
8.49922e-09
8.49916e-09
8.4992e-09
8.49918e-09
8.49918e-09
8.4992e-09
8.49916e-09
8.49922e-09
8.49914e-09
8.49923e-09
8.49911e-09
8.49926e-09
8.49905e-09
8.49928e-09
8.49898e-09
8.49931e-09
8.49887e-09
8.49937e-09
8.49871e-09
8.49949e-09
8.49854e-09
8.49988e-09
8.49885e-09
8.50114e-09
8.50117e-09
8.50522e-09
8.50931e-09
8.49833e-09
8.50488e-09
7.04173e-09
7.03814e-09
7.04899e-09
7.04636e-09
7.04303e-09
7.04312e-09
7.04106e-09
7.04201e-09
7.04078e-09
7.04164e-09
7.04093e-09
7.04153e-09
7.04107e-09
7.04147e-09
7.04117e-09
7.04144e-09
7.04123e-09
7.04142e-09
7.04128e-09
7.0414e-09
7.04131e-09
7.04138e-09
7.04133e-09
7.04137e-09
7.04135e-09
7.04135e-09
7.04137e-09
7.04133e-09
7.04138e-09
7.04131e-09
7.0414e-09
7.04128e-09
7.04142e-09
7.04123e-09
7.04144e-09
7.04116e-09
7.04147e-09
7.04107e-09
7.04153e-09
7.04093e-09
7.04164e-09
7.04078e-09
7.04201e-09
7.04107e-09
7.04312e-09
7.04303e-09
7.04636e-09
7.04899e-09
7.03814e-09
7.04173e-09
5.93441e-09
5.93354e-09
5.94482e-09
5.94352e-09
5.94078e-09
5.94103e-09
5.93912e-09
5.94002e-09
5.93886e-09
5.93967e-09
5.93899e-09
5.93956e-09
5.93912e-09
5.9395e-09
5.93921e-09
5.93947e-09
5.93926e-09
5.93945e-09
5.93932e-09
5.93943e-09
5.93935e-09
5.93941e-09
5.93937e-09
5.9394e-09
5.93938e-09
5.93938e-09
5.9394e-09
5.93937e-09
5.93941e-09
5.93935e-09
5.93943e-09
5.93932e-09
5.93945e-09
5.93927e-09
5.93947e-09
5.93921e-09
5.9395e-09
5.93912e-09
5.93956e-09
5.93899e-09
5.93968e-09
5.93886e-09
5.94002e-09
5.93912e-09
5.94103e-09
5.94078e-09
5.94352e-09
5.94482e-09
5.93354e-09
5.93441e-09
5.02668e-09
5.02928e-09
5.04215e-09
5.04289e-09
5.04103e-09
5.04157e-09
5.0398e-09
5.04068e-09
5.03954e-09
5.04031e-09
5.03964e-09
5.04018e-09
5.03975e-09
5.0401e-09
5.03982e-09
5.04007e-09
5.03987e-09
5.04004e-09
5.03992e-09
5.04002e-09
5.03994e-09
5.04001e-09
5.03996e-09
5.03999e-09
5.03998e-09
5.03998e-09
5.03999e-09
5.03996e-09
5.04001e-09
5.03994e-09
5.04002e-09
5.03992e-09
5.04004e-09
5.03987e-09
5.04007e-09
5.03982e-09
5.0401e-09
5.03975e-09
5.04018e-09
5.03964e-09
5.04031e-09
5.03954e-09
5.04068e-09
5.0398e-09
5.04157e-09
5.04103e-09
5.04289e-09
5.04215e-09
5.02928e-09
5.02668e-09
4.32385e-09
4.32806e-09
4.3406e-09
4.34202e-09
4.34058e-09
4.34117e-09
4.33956e-09
4.34037e-09
4.33931e-09
4.34002e-09
4.3394e-09
4.33989e-09
4.33949e-09
4.33982e-09
4.33956e-09
4.33979e-09
4.3396e-09
4.33976e-09
4.33965e-09
4.33974e-09
4.33967e-09
4.33973e-09
4.33968e-09
4.33971e-09
4.3397e-09
4.3397e-09
4.33971e-09
4.33968e-09
4.33973e-09
4.33967e-09
4.33974e-09
4.33964e-09
4.33976e-09
4.3396e-09
4.33979e-09
4.33956e-09
4.33982e-09
4.33949e-09
4.33989e-09
4.3394e-09
4.34002e-09
4.33931e-09
4.34037e-09
4.33956e-09
4.34117e-09
4.34058e-09
4.34202e-09
4.3406e-09
4.32806e-09
4.32385e-09
3.73412e-09
3.74096e-09
3.75465e-09
3.75735e-09
3.75618e-09
3.75698e-09
3.75533e-09
3.7562e-09
3.75511e-09
3.75584e-09
3.75519e-09
3.75571e-09
3.75529e-09
3.75563e-09
3.75535e-09
3.75559e-09
3.7554e-09
3.75557e-09
3.75544e-09
3.75555e-09
3.75547e-09
3.75553e-09
3.75548e-09
3.75552e-09
3.7555e-09
3.7555e-09
3.75552e-09
3.75548e-09
3.75553e-09
3.75547e-09
3.75555e-09
3.75544e-09
3.75557e-09
3.7554e-09
3.7556e-09
3.75535e-09
3.75563e-09
3.75529e-09
3.75571e-09
3.75519e-09
3.75584e-09
3.7551e-09
3.7562e-09
3.75533e-09
3.75698e-09
3.75617e-09
3.75735e-09
3.75465e-09
3.74096e-09
3.73413e-09
3.25072e-09
3.25848e-09
3.27114e-09
3.27403e-09
3.27313e-09
3.27389e-09
3.27241e-09
3.27318e-09
3.27219e-09
3.27285e-09
3.27226e-09
3.27273e-09
3.27235e-09
3.27266e-09
3.27241e-09
3.27263e-09
3.27245e-09
3.2726e-09
3.27249e-09
3.27259e-09
3.27251e-09
3.27257e-09
3.27253e-09
3.27255e-09
3.27254e-09
3.27254e-09
3.27255e-09
3.27253e-09
3.27257e-09
3.27251e-09
3.27259e-09
3.27249e-09
3.2726e-09
3.27245e-09
3.27263e-09
3.27241e-09
3.27266e-09
3.27235e-09
3.27273e-09
3.27227e-09
3.27285e-09
3.27219e-09
3.27318e-09
3.27241e-09
3.27389e-09
3.27312e-09
3.27403e-09
3.27114e-09
3.25848e-09
3.25072e-09
2.86528e-09
2.87418e-09
2.88626e-09
2.8894e-09
2.88872e-09
2.88949e-09
2.88812e-09
2.88884e-09
2.88792e-09
2.88852e-09
2.88798e-09
2.88841e-09
2.88806e-09
2.88834e-09
2.88811e-09
2.88831e-09
2.88814e-09
2.88829e-09
2.88818e-09
2.88827e-09
2.8882e-09
2.88826e-09
2.88822e-09
2.88824e-09
2.88823e-09
2.88823e-09
2.88824e-09
2.88822e-09
2.88826e-09
2.8882e-09
2.88827e-09
2.88818e-09
2.88829e-09
2.88814e-09
2.88831e-09
2.88811e-09
2.88834e-09
2.88806e-09
2.88841e-09
2.88798e-09
2.88852e-09
2.88791e-09
2.88884e-09
2.88812e-09
2.88949e-09
2.88872e-09
2.8894e-09
2.88626e-09
2.87418e-09
2.86528e-09
2.54353e-09
2.55361e-09
2.56513e-09
2.56844e-09
2.56795e-09
2.56871e-09
2.56743e-09
2.56811e-09
2.56724e-09
2.56781e-09
2.5673e-09
2.5677e-09
2.56737e-09
2.56763e-09
2.56742e-09
2.56761e-09
2.56745e-09
2.56759e-09
2.56749e-09
2.56757e-09
2.56751e-09
2.56756e-09
2.56752e-09
2.56754e-09
2.56753e-09
2.56753e-09
2.56754e-09
2.56752e-09
2.56756e-09
2.56751e-09
2.56757e-09
2.56749e-09
2.56759e-09
2.56745e-09
2.56761e-09
2.56742e-09
2.56764e-09
2.56737e-09
2.5677e-09
2.5673e-09
2.56781e-09
2.56724e-09
2.56811e-09
2.56744e-09
2.56871e-09
2.56795e-09
2.56844e-09
2.56513e-09
2.55361e-09
2.54353e-09
2.27262e-09
2.27602e-09
2.28603e-09
2.28919e-09
2.28903e-09
2.28975e-09
2.28868e-09
2.28924e-09
2.28848e-09
2.28894e-09
2.2885e-09
2.28883e-09
2.28854e-09
2.28876e-09
2.28857e-09
2.28873e-09
2.28859e-09
2.28871e-09
2.28862e-09
2.28869e-09
2.28864e-09
2.28868e-09
2.28865e-09
2.28867e-09
2.28866e-09
2.28866e-09
2.28867e-09
2.28865e-09
2.28868e-09
2.28864e-09
2.28869e-09
2.28862e-09
2.28871e-09
2.28859e-09
2.28873e-09
2.28857e-09
2.28876e-09
2.28854e-09
2.28882e-09
2.2885e-09
2.28894e-09
2.28848e-09
2.28924e-09
2.28868e-09
2.28975e-09
2.28903e-09
2.28919e-09
2.28603e-09
2.27602e-09
2.27262e-09
2.04283e-09
2.04687e-09
2.05632e-09
2.05952e-09
2.05949e-09
2.0602e-09
2.0592e-09
2.05972e-09
2.05901e-09
2.05944e-09
2.05902e-09
2.05933e-09
2.05906e-09
2.05926e-09
2.05909e-09
2.05923e-09
2.05911e-09
2.05922e-09
2.05914e-09
2.0592e-09
2.05915e-09
2.05919e-09
2.05916e-09
2.05918e-09
2.05917e-09
2.05917e-09
2.05918e-09
2.05916e-09
2.05919e-09
2.05915e-09
2.0592e-09
2.05914e-09
2.05922e-09
2.05911e-09
2.05924e-09
2.05909e-09
2.05926e-09
2.05906e-09
2.05933e-09
2.05903e-09
2.05944e-09
2.05901e-09
2.05972e-09
2.0592e-09
2.06019e-09
2.05949e-09
2.05952e-09
2.05632e-09
2.04687e-09
2.04283e-09
1.83899e-09
1.84366e-09
1.85294e-09
1.8564e-09
1.85654e-09
1.85729e-09
1.85635e-09
1.85684e-09
1.85616e-09
1.85656e-09
1.85616e-09
1.85645e-09
1.85619e-09
1.85638e-09
1.85621e-09
1.85635e-09
1.85623e-09
1.85633e-09
1.85626e-09
1.85632e-09
1.85627e-09
1.85631e-09
1.85628e-09
1.8563e-09
1.85629e-09
1.85629e-09
1.8563e-09
1.85628e-09
1.85631e-09
1.85627e-09
1.85632e-09
1.85626e-09
1.85633e-09
1.85623e-09
1.85635e-09
1.85621e-09
1.85638e-09
1.85619e-09
1.85645e-09
1.85616e-09
1.85656e-09
1.85616e-09
1.85684e-09
1.85635e-09
1.85728e-09
1.85654e-09
1.8564e-09
1.85294e-09
1.84366e-09
1.83899e-09
1.66334e-09
1.66827e-09
1.67689e-09
1.68026e-09
1.68049e-09
1.68119e-09
1.68034e-09
1.68078e-09
1.68016e-09
1.68052e-09
1.68015e-09
1.68041e-09
1.68018e-09
1.68035e-09
1.6802e-09
1.68032e-09
1.68021e-09
1.68031e-09
1.68024e-09
1.68029e-09
1.68025e-09
1.68028e-09
1.68025e-09
1.68027e-09
1.68026e-09
1.68026e-09
1.68027e-09
1.68025e-09
1.68028e-09
1.68025e-09
1.68029e-09
1.68024e-09
1.68031e-09
1.68021e-09
1.68032e-09
1.6802e-09
1.68035e-09
1.68018e-09
1.68041e-09
1.68015e-09
1.68052e-09
1.68016e-09
1.68078e-09
1.68034e-09
1.68119e-09
1.68049e-09
1.68026e-09
1.67689e-09
1.66827e-09
1.66334e-09
1.511e-09
1.5161e-09
1.52412e-09
1.52739e-09
1.52768e-09
1.52835e-09
1.52757e-09
1.52797e-09
1.5274e-09
1.52772e-09
1.52739e-09
1.52762e-09
1.5274e-09
1.52756e-09
1.52742e-09
1.52754e-09
1.52743e-09
1.52752e-09
1.52746e-09
1.52751e-09
1.52747e-09
1.5275e-09
1.52747e-09
1.52749e-09
1.52748e-09
1.52748e-09
1.52749e-09
1.52747e-09
1.5275e-09
1.52747e-09
1.52751e-09
1.52746e-09
1.52752e-09
1.52744e-09
1.52754e-09
1.52742e-09
1.52756e-09
1.5274e-09
1.52762e-09
1.52739e-09
1.52772e-09
1.5274e-09
1.52797e-09
1.52757e-09
1.52835e-09
1.52768e-09
1.52739e-09
1.52412e-09
1.5161e-09
1.511e-09
1.37812e-09
1.38332e-09
1.39078e-09
1.39395e-09
1.39428e-09
1.39492e-09
1.3942e-09
1.39457e-09
1.39404e-09
1.39433e-09
1.39402e-09
1.39423e-09
1.39404e-09
1.39418e-09
1.39405e-09
1.39415e-09
1.39406e-09
1.39414e-09
1.39408e-09
1.39413e-09
1.39409e-09
1.39412e-09
1.3941e-09
1.39411e-09
1.39411e-09
1.39411e-09
1.39411e-09
1.3941e-09
1.39412e-09
1.39409e-09
1.39413e-09
1.39408e-09
1.39414e-09
1.39406e-09
1.39416e-09
1.39405e-09
1.39418e-09
1.39404e-09
1.39423e-09
1.39402e-09
1.39433e-09
1.39404e-09
1.39457e-09
1.3942e-09
1.39492e-09
1.39428e-09
1.39395e-09
1.39078e-09
1.38332e-09
1.37812e-09
1.26162e-09
1.26684e-09
1.27381e-09
1.27685e-09
1.27722e-09
1.27783e-09
1.27717e-09
1.2775e-09
1.27701e-09
1.27728e-09
1.27699e-09
1.27718e-09
1.277e-09
1.27713e-09
1.27701e-09
1.27711e-09
1.27703e-09
1.2771e-09
1.27704e-09
1.27709e-09
1.27705e-09
1.27708e-09
1.27706e-09
1.27707e-09
1.27707e-09
1.27707e-09
1.27707e-09
1.27706e-09
1.27708e-09
1.27705e-09
1.27709e-09
1.27704e-09
1.2771e-09
1.27703e-09
1.27711e-09
1.27701e-09
1.27713e-09
1.277e-09
1.27718e-09
1.27699e-09
1.27728e-09
1.27701e-09
1.2775e-09
1.27717e-09
1.27783e-09
1.27722e-09
1.27685e-09
1.27381e-09
1.26684e-09
1.26162e-09
1.159e-09
1.1642e-09
1.17071e-09
1.17362e-09
1.17402e-09
1.1746e-09
1.17399e-09
1.17429e-09
1.17384e-09
1.17408e-09
1.17382e-09
1.17399e-09
1.17383e-09
1.17395e-09
1.17384e-09
1.17392e-09
1.17385e-09
1.17391e-09
1.17386e-09
1.1739e-09
1.17387e-09
1.1739e-09
1.17388e-09
1.17389e-09
1.17388e-09
1.17388e-09
1.17389e-09
1.17388e-09
1.1739e-09
1.17387e-09
1.1739e-09
1.17386e-09
1.17391e-09
1.17385e-09
1.17393e-09
1.17384e-09
1.17395e-09
1.17383e-09
1.17399e-09
1.17382e-09
1.17408e-09
1.17384e-09
1.17429e-09
1.17399e-09
1.1746e-09
1.17402e-09
1.17362e-09
1.17071e-09
1.1642e-09
1.159e-09
1.06824e-09
1.07338e-09
1.07947e-09
1.08224e-09
1.08267e-09
1.08322e-09
1.08266e-09
1.08293e-09
1.08251e-09
1.08273e-09
1.08249e-09
1.08264e-09
1.08249e-09
1.0826e-09
1.0825e-09
1.08258e-09
1.08251e-09
1.08257e-09
1.08252e-09
1.08256e-09
1.08253e-09
1.08255e-09
1.08253e-09
1.08255e-09
1.08254e-09
1.08254e-09
1.08255e-09
1.08253e-09
1.08255e-09
1.08253e-09
1.08256e-09
1.08252e-09
1.08257e-09
1.08251e-09
1.08258e-09
1.0825e-09
1.0826e-09
1.08249e-09
1.08264e-09
1.08249e-09
1.08273e-09
1.08251e-09
1.08293e-09
1.08266e-09
1.08322e-09
1.08266e-09
1.08224e-09
1.07947e-09
1.07338e-09
1.06824e-09
9.87659e-10
9.92713e-10
9.98411e-10
1.00106e-09
1.00149e-09
1.00201e-09
1.0015e-09
1.00174e-09
1.00136e-09
1.00155e-09
1.00133e-09
1.00147e-09
1.00133e-09
1.00143e-09
1.00134e-09
1.00141e-09
1.00135e-09
1.0014e-09
1.00136e-09
1.00139e-09
1.00137e-09
1.00139e-09
1.00137e-09
1.00138e-09
1.00138e-09
1.00138e-09
1.00138e-09
1.00137e-09
1.00139e-09
1.00137e-09
1.00139e-09
1.00136e-09
1.0014e-09
1.00135e-09
1.00141e-09
1.00134e-09
1.00143e-09
1.00133e-09
1.00147e-09
1.00133e-09
1.00155e-09
1.00136e-09
1.00174e-09
1.0015e-09
1.00201e-09
1.00149e-09
1.00105e-09
9.98411e-10
9.92713e-10
9.8766e-10
9.15884e-10
9.20824e-10
9.26159e-10
9.28673e-10
9.29114e-10
9.29613e-10
9.29138e-10
9.2936e-10
9.29005e-10
9.29179e-10
9.28974e-10
9.29103e-10
9.28973e-10
9.29063e-10
9.28977e-10
9.29044e-10
9.28983e-10
9.29035e-10
9.28996e-10
9.29028e-10
9.29002e-10
9.29021e-10
9.29006e-10
9.29016e-10
9.29011e-10
9.29011e-10
9.29016e-10
9.29006e-10
9.29021e-10
9.29003e-10
9.29028e-10
9.28996e-10
9.29035e-10
9.28983e-10
9.29044e-10
9.28977e-10
9.29063e-10
9.28973e-10
9.29103e-10
9.28975e-10
9.29179e-10
9.29005e-10
9.2936e-10
9.29138e-10
9.29611e-10
9.29113e-10
9.28672e-10
9.26159e-10
9.20824e-10
9.15884e-10
8.51751e-10
8.56557e-10
8.61555e-10
8.63942e-10
8.64386e-10
8.64859e-10
8.64421e-10
8.64623e-10
8.64294e-10
8.6445e-10
8.64261e-10
8.64378e-10
8.64258e-10
8.6434e-10
8.64261e-10
8.64322e-10
8.64266e-10
8.64314e-10
8.64278e-10
8.64307e-10
8.64284e-10
8.64301e-10
8.64287e-10
8.64296e-10
8.64292e-10
8.64292e-10
8.64296e-10
8.64287e-10
8.64301e-10
8.64284e-10
8.64307e-10
8.64278e-10
8.64314e-10
8.64266e-10
8.64323e-10
8.64261e-10
8.6434e-10
8.64258e-10
8.64378e-10
8.64262e-10
8.64451e-10
8.64294e-10
8.64623e-10
8.64421e-10
8.64858e-10
8.64385e-10
8.63942e-10
8.61555e-10
8.56557e-10
8.51751e-10
7.94282e-10
7.98939e-10
8.03625e-10
8.05888e-10
8.0633e-10
8.06779e-10
8.06376e-10
8.06558e-10
8.06254e-10
8.06394e-10
8.06219e-10
8.06325e-10
8.06214e-10
8.06289e-10
8.06216e-10
8.06272e-10
8.06221e-10
8.06264e-10
8.06231e-10
8.06259e-10
8.06237e-10
8.06253e-10
8.0624e-10
8.06248e-10
8.06244e-10
8.06244e-10
8.06248e-10
8.0624e-10
8.06253e-10
8.06237e-10
8.06258e-10
8.06231e-10
8.06264e-10
8.06221e-10
8.06272e-10
8.06216e-10
8.06289e-10
8.06214e-10
8.06325e-10
8.0622e-10
8.06394e-10
8.06253e-10
8.06558e-10
8.06376e-10
8.06778e-10
8.0633e-10
8.05888e-10
8.03624e-10
7.98939e-10
7.94283e-10
7.42648e-10
7.47143e-10
7.51538e-10
7.53684e-10
7.54121e-10
7.54546e-10
7.54174e-10
7.54339e-10
7.54057e-10
7.54183e-10
7.54021e-10
7.54117e-10
7.54014e-10
7.54083e-10
7.54015e-10
7.54067e-10
7.54019e-10
7.5406e-10
7.54029e-10
7.54054e-10
7.54034e-10
7.54049e-10
7.54037e-10
7.54045e-10
7.54041e-10
7.54041e-10
7.54045e-10
7.54037e-10
7.54049e-10
7.54034e-10
7.54054e-10
7.54029e-10
7.5406e-10
7.5402e-10
7.54067e-10
7.54016e-10
7.54083e-10
7.54014e-10
7.54117e-10
7.54022e-10
7.54183e-10
7.54057e-10
7.54339e-10
7.54174e-10
7.54546e-10
7.5412e-10
7.53683e-10
7.51538e-10
7.47142e-10
7.42648e-10
6.9614e-10
7.0046e-10
7.04589e-10
7.06621e-10
7.0705e-10
7.07453e-10
7.07109e-10
7.07258e-10
7.06997e-10
7.07111e-10
7.0696e-10
7.07047e-10
7.06952e-10
7.07015e-10
7.06953e-10
7.07e-10
7.06956e-10
7.06993e-10
7.06965e-10
7.06988e-10
7.0697e-10
7.06983e-10
7.06972e-10
7.06979e-10
7.06976e-10
7.06976e-10
7.06979e-10
7.06972e-10
7.06983e-10
7.0697e-10
7.06988e-10
7.06965e-10
7.06993e-10
7.06956e-10
7.07e-10
7.06953e-10
7.07015e-10
7.06952e-10
7.07047e-10
7.06961e-10
7.07111e-10
7.06997e-10
7.07258e-10
7.07109e-10
7.07452e-10
7.07049e-10
7.0662e-10
7.04588e-10
7.0046e-10
6.9614e-10
6.54149e-10
6.58283e-10
6.62167e-10
6.6409e-10
6.6451e-10
6.64892e-10
6.64574e-10
6.64709e-10
6.64467e-10
6.64569e-10
6.6443e-10
6.64508e-10
6.6442e-10
6.64477e-10
6.6442e-10
6.64463e-10
6.64423e-10
6.64457e-10
6.64431e-10
6.64453e-10
6.64435e-10
6.64448e-10
6.64438e-10
6.64444e-10
6.64441e-10
6.64441e-10
6.64444e-10
6.64438e-10
6.64448e-10
6.64435e-10
6.64453e-10
6.64431e-10
6.64457e-10
6.64423e-10
6.64464e-10
6.6442e-10
6.64477e-10
6.6442e-10
6.64508e-10
6.6443e-10
6.64569e-10
6.64467e-10
6.64709e-10
6.64574e-10
6.64891e-10
6.6451e-10
6.6409e-10
6.62167e-10
6.58283e-10
6.54149e-10
6.16149e-10
6.20088e-10
6.23748e-10
6.25568e-10
6.25976e-10
6.26339e-10
6.26045e-10
6.26167e-10
6.25942e-10
6.26033e-10
6.25904e-10
6.25976e-10
6.25894e-10
6.25946e-10
6.25893e-10
6.25933e-10
6.25896e-10
6.25927e-10
6.25903e-10
6.25923e-10
6.25907e-10
6.25919e-10
6.25909e-10
6.25915e-10
6.25913e-10
6.25913e-10
6.25915e-10
6.25909e-10
6.25919e-10
6.25907e-10
6.25923e-10
6.25903e-10
6.25927e-10
6.25896e-10
6.25933e-10
6.25893e-10
6.25946e-10
6.25894e-10
6.25975e-10
6.25905e-10
6.26033e-10
6.25942e-10
6.26167e-10
6.26045e-10
6.26338e-10
6.25976e-10
6.25568e-10
6.23748e-10
6.20087e-10
6.16149e-10
5.81676e-10
5.8543e-10
5.88878e-10
5.90598e-10
5.90995e-10
5.91338e-10
5.91066e-10
5.91176e-10
5.90968e-10
5.91049e-10
5.9093e-10
5.90994e-10
5.90919e-10
5.90966e-10
5.90917e-10
5.90954e-10
5.90919e-10
5.90949e-10
5.90926e-10
5.90945e-10
5.9093e-10
5.90941e-10
5.90932e-10
5.90938e-10
5.90935e-10
5.90935e-10
5.90938e-10
5.90932e-10
5.90941e-10
5.9093e-10
5.90945e-10
5.90926e-10
5.90949e-10
5.90919e-10
5.90954e-10
5.90917e-10
5.90966e-10
5.90919e-10
5.90994e-10
5.9093e-10
5.91049e-10
5.90967e-10
5.91176e-10
5.91066e-10
5.91337e-10
5.90994e-10
5.90598e-10
5.88878e-10
5.8543e-10
5.81676e-10
5.50333e-10
5.53914e-10
5.57159e-10
5.58784e-10
5.59168e-10
5.59493e-10
5.59242e-10
5.59342e-10
5.59148e-10
5.59221e-10
5.5911e-10
5.59168e-10
5.59098e-10
5.59142e-10
5.59096e-10
5.5913e-10
5.59098e-10
5.59125e-10
5.59105e-10
5.59122e-10
5.59108e-10
5.59118e-10
5.5911e-10
5.59115e-10
5.59113e-10
5.59113e-10
5.59115e-10
5.5911e-10
5.59118e-10
5.59108e-10
5.59122e-10
5.59105e-10
5.59125e-10
5.59098e-10
5.5913e-10
5.59096e-10
5.59142e-10
5.59098e-10
5.59168e-10
5.5911e-10
5.59221e-10
5.59148e-10
5.59342e-10
5.59242e-10
5.59493e-10
5.59168e-10
5.58784e-10
5.57158e-10
5.53914e-10
5.50333e-10
5.21774e-10
5.25196e-10
5.28245e-10
5.2978e-10
5.30152e-10
5.30459e-10
5.30227e-10
5.30317e-10
5.30137e-10
5.30203e-10
5.30099e-10
5.30152e-10
5.30088e-10
5.30127e-10
5.30085e-10
5.30116e-10
5.30087e-10
5.30112e-10
5.30093e-10
5.30109e-10
5.30096e-10
5.30106e-10
5.30098e-10
5.30103e-10
5.30101e-10
5.30101e-10
5.30103e-10
5.30098e-10
5.30106e-10
5.30096e-10
5.30109e-10
5.30093e-10
5.30112e-10
5.30087e-10
5.30117e-10
5.30085e-10
5.30127e-10
5.30088e-10
5.30152e-10
5.301e-10
5.30203e-10
5.30137e-10
5.30317e-10
5.30227e-10
5.30459e-10
5.30152e-10
5.2978e-10
5.28245e-10
5.25195e-10
5.21774e-10
4.95699e-10
4.98972e-10
5.01835e-10
5.03285e-10
5.03644e-10
5.03935e-10
5.0372e-10
5.03801e-10
5.03634e-10
5.03693e-10
5.03597e-10
5.03645e-10
5.03585e-10
5.03621e-10
5.03582e-10
5.03611e-10
5.03584e-10
5.03607e-10
5.03589e-10
5.03604e-10
5.03592e-10
5.03601e-10
5.03594e-10
5.03599e-10
5.03596e-10
5.03596e-10
5.03599e-10
5.03594e-10
5.03601e-10
5.03592e-10
5.03604e-10
5.03589e-10
5.03607e-10
5.03584e-10
5.03611e-10
5.03582e-10
5.03621e-10
5.03585e-10
5.03645e-10
5.03597e-10
5.03693e-10
5.03634e-10
5.03801e-10
5.0372e-10
5.03934e-10
5.03644e-10
5.03285e-10
5.01835e-10
4.98972e-10
4.95699e-10
4.71842e-10
4.74981e-10
4.77662e-10
4.79034e-10
4.79379e-10
4.79654e-10
4.79455e-10
4.79529e-10
4.79374e-10
4.79426e-10
4.79337e-10
4.7938e-10
4.79324e-10
4.79358e-10
4.79322e-10
4.79348e-10
4.79323e-10
4.79345e-10
4.79329e-10
4.79342e-10
4.79331e-10
4.7934e-10
4.79333e-10
4.79337e-10
4.79335e-10
4.79335e-10
4.79337e-10
4.79333e-10
4.7934e-10
4.79331e-10
4.79342e-10
4.79328e-10
4.79345e-10
4.79323e-10
4.79349e-10
4.79322e-10
4.79358e-10
4.79324e-10
4.7938e-10
4.79337e-10
4.79426e-10
4.79373e-10
4.79529e-10
4.79455e-10
4.79654e-10
4.79379e-10
4.79033e-10
4.77662e-10
4.7498e-10
4.71842e-10
4.49972e-10
4.5298e-10
4.55502e-10
4.56792e-10
4.57124e-10
4.57385e-10
4.572e-10
4.57267e-10
4.57123e-10
4.5717e-10
4.57087e-10
4.57126e-10
4.57074e-10
4.57105e-10
4.57072e-10
4.57096e-10
4.57073e-10
4.57093e-10
4.57078e-10
4.57091e-10
4.57081e-10
4.57088e-10
4.57082e-10
4.57086e-10
4.57084e-10
4.57085e-10
4.57086e-10
4.57082e-10
4.57088e-10
4.57081e-10
4.57091e-10
4.57078e-10
4.57093e-10
4.57073e-10
4.57097e-10
4.57072e-10
4.57105e-10
4.57074e-10
4.57126e-10
4.57087e-10
4.5717e-10
4.57123e-10
4.57267e-10
4.572e-10
4.57384e-10
4.57123e-10
4.56792e-10
4.55502e-10
4.5298e-10
4.49972e-10
4.29886e-10
4.32771e-10
4.35142e-10
4.36357e-10
4.36674e-10
4.36921e-10
4.36751e-10
4.36811e-10
4.36677e-10
4.36719e-10
4.36642e-10
4.36678e-10
4.3663e-10
4.36658e-10
4.36627e-10
4.3665e-10
4.36628e-10
4.36647e-10
4.36633e-10
4.36645e-10
4.36636e-10
4.36643e-10
4.36637e-10
4.36641e-10
4.36639e-10
4.36639e-10
4.36641e-10
4.36637e-10
4.36643e-10
4.36636e-10
4.36645e-10
4.36633e-10
4.36647e-10
4.36628e-10
4.3665e-10
4.36627e-10
4.36658e-10
4.3663e-10
4.36678e-10
4.36642e-10
4.36719e-10
4.36677e-10
4.36811e-10
4.36751e-10
4.36921e-10
4.36674e-10
4.36356e-10
4.35142e-10
4.32771e-10
4.29887e-10
4.11406e-10
4.14175e-10
4.16403e-10
4.17546e-10
4.17849e-10
4.18083e-10
4.17926e-10
4.17981e-10
4.17856e-10
4.17894e-10
4.17822e-10
4.17855e-10
4.1781e-10
4.17836e-10
4.17807e-10
4.17829e-10
4.17809e-10
4.17826e-10
4.17813e-10
4.17825e-10
4.17816e-10
4.17822e-10
4.17817e-10
4.17821e-10
4.17819e-10
4.17819e-10
4.17821e-10
4.17817e-10
4.17823e-10
4.17816e-10
4.17825e-10
4.17813e-10
4.17826e-10
4.17809e-10
4.17829e-10
4.17808e-10
4.17836e-10
4.1781e-10
4.17855e-10
4.17822e-10
4.17894e-10
4.17856e-10
4.17981e-10
4.17926e-10
4.18083e-10
4.17849e-10
4.17545e-10
4.16402e-10
4.14175e-10
4.11406e-10
3.94373e-10
3.97031e-10
3.99124e-10
4.002e-10
4.00489e-10
4.00712e-10
4.00567e-10
4.00617e-10
4.00501e-10
4.00534e-10
4.00468e-10
4.00498e-10
4.00456e-10
4.0048e-10
4.00454e-10
4.00474e-10
4.00455e-10
4.00472e-10
4.00459e-10
4.0047e-10
4.00462e-10
4.00468e-10
4.00463e-10
4.00467e-10
4.00465e-10
4.00465e-10
4.00467e-10
4.00463e-10
4.00468e-10
4.00462e-10
4.0047e-10
4.00459e-10
4.00472e-10
4.00455e-10
4.00474e-10
4.00454e-10
4.00481e-10
4.00456e-10
4.00498e-10
4.00468e-10
4.00534e-10
4.005e-10
4.00617e-10
4.00566e-10
4.00712e-10
4.00489e-10
4.002e-10
3.99124e-10
3.97031e-10
3.94373e-10
3.78649e-10
3.81199e-10
3.83166e-10
3.84179e-10
3.84455e-10
3.84667e-10
3.84532e-10
3.84578e-10
3.8447e-10
3.84501e-10
3.84439e-10
3.84466e-10
3.84428e-10
3.8445e-10
3.84425e-10
3.84444e-10
3.84427e-10
3.84442e-10
3.84431e-10
3.84441e-10
3.84433e-10
3.84439e-10
3.84435e-10
3.84438e-10
3.84437e-10
3.84437e-10
3.84438e-10
3.84435e-10
3.84439e-10
3.84434e-10
3.84441e-10
3.84431e-10
3.84442e-10
3.84427e-10
3.84444e-10
3.84426e-10
3.8445e-10
3.84428e-10
3.84466e-10
3.84439e-10
3.84501e-10
3.8447e-10
3.84578e-10
3.84532e-10
3.84666e-10
3.84455e-10
3.84179e-10