/*--------------------------------*- C++ -*----------------------------------*\
| =========                 |                                                 |
| \\      /  F ield         | OpenFOAM: The Open Source CFD Toolbox           |
|  \\    /   O peration     | Version:  dev                                   |
|   \\  /    A nd           | Web:      www.OpenFOAM.org                      |
|    \\/     M anipulation  |                                                 |
\*---------------------------------------------------------------------------*/
FoamFile
{
    version     2.0;
    format      ascii;
    class       volScalarField;
    location    "0.1";
    object      A2C2HA;
}
// * * * * * * * * * * * * * * * * * * * * * * * * * * * * * * * * * * * * * //

dimensions      [0 0 0 0 0 0 0];

internalField   nonuniform List<scalar> 
8000
(
6.57035e-09
6.5617e-09
6.55795e-09
6.5542e-09
6.5539e-09
6.55275e-09
6.55308e-09
6.55259e-09
6.55291e-09
6.55263e-09
6.55287e-09
6.55268e-09
6.55285e-09
6.55273e-09
6.55285e-09
6.55276e-09
6.55285e-09
6.55278e-09
6.55283e-09
6.5528e-09
6.55283e-09
6.55281e-09
6.55283e-09
6.55282e-09
6.55282e-09
6.55282e-09
6.55282e-09
6.55283e-09
6.55281e-09
6.55283e-09
6.5528e-09
6.55283e-09
6.55278e-09
6.55284e-09
6.55276e-09
6.55285e-09
6.55273e-09
6.55285e-09
6.55268e-09
6.55287e-09
6.55263e-09
6.55291e-09
6.55259e-09
6.55308e-09
6.55275e-09
6.5539e-09
6.55421e-09
6.55795e-09
6.56169e-09
6.57035e-09
1.3273e-08
1.32545e-08
1.32452e-08
1.32369e-08
1.32361e-08
1.32337e-08
1.32344e-08
1.32333e-08
1.3234e-08
1.32334e-08
1.3234e-08
1.32335e-08
1.32339e-08
1.32337e-08
1.32339e-08
1.32337e-08
1.32339e-08
1.32338e-08
1.32339e-08
1.32338e-08
1.32339e-08
1.32338e-08
1.32339e-08
1.32338e-08
1.32338e-08
1.32338e-08
1.32338e-08
1.32339e-08
1.32338e-08
1.32339e-08
1.32338e-08
1.32339e-08
1.32338e-08
1.32339e-08
1.32337e-08
1.32339e-08
1.32337e-08
1.32339e-08
1.32335e-08
1.3234e-08
1.32334e-08
1.3234e-08
1.32333e-08
1.32344e-08
1.32337e-08
1.32361e-08
1.32369e-08
1.32452e-08
1.32545e-08
1.3273e-08
2.09622e-08
2.09359e-08
2.09227e-08
2.09102e-08
2.09084e-08
2.0905e-08
2.09057e-08
2.09044e-08
2.09052e-08
2.09045e-08
2.09051e-08
2.09047e-08
2.09051e-08
2.09048e-08
2.09051e-08
2.09049e-08
2.09051e-08
2.09049e-08
2.09051e-08
2.0905e-08
2.09051e-08
2.0905e-08
2.09051e-08
2.09051e-08
2.09051e-08
2.09051e-08
2.09051e-08
2.09051e-08
2.0905e-08
2.09051e-08
2.0905e-08
2.09051e-08
2.09049e-08
2.09051e-08
2.09049e-08
2.09051e-08
2.09048e-08
2.09051e-08
2.09047e-08
2.09051e-08
2.09045e-08
2.09052e-08
2.09044e-08
2.09057e-08
2.0905e-08
2.09084e-08
2.09102e-08
2.09227e-08
2.09359e-08
2.09622e-08
2.63669e-08
2.63266e-08
2.63011e-08
2.62806e-08
2.62765e-08
2.62718e-08
2.62724e-08
2.62707e-08
2.62717e-08
2.62709e-08
2.62716e-08
2.62711e-08
2.62716e-08
2.62713e-08
2.62716e-08
2.62714e-08
2.62717e-08
2.62715e-08
2.62716e-08
2.62715e-08
2.62716e-08
2.62716e-08
2.62716e-08
2.62716e-08
2.62716e-08
2.62716e-08
2.62716e-08
2.62716e-08
2.62716e-08
2.62716e-08
2.62715e-08
2.62716e-08
2.62715e-08
2.62716e-08
2.62714e-08
2.62716e-08
2.62713e-08
2.62716e-08
2.62711e-08
2.62716e-08
2.62709e-08
2.62717e-08
2.62707e-08
2.62724e-08
2.62718e-08
2.62765e-08
2.62806e-08
2.63011e-08
2.63266e-08
2.63669e-08
2.73477e-08
2.72958e-08
2.72596e-08
2.72324e-08
2.72261e-08
2.72203e-08
2.72207e-08
2.72189e-08
2.722e-08
2.7219e-08
2.72199e-08
2.72193e-08
2.72199e-08
2.72195e-08
2.72199e-08
2.72197e-08
2.722e-08
2.72197e-08
2.72199e-08
2.72198e-08
2.72199e-08
2.72199e-08
2.72199e-08
2.72199e-08
2.72199e-08
2.72199e-08
2.72199e-08
2.72199e-08
2.72199e-08
2.72199e-08
2.72198e-08
2.72199e-08
2.72197e-08
2.722e-08
2.72197e-08
2.72199e-08
2.72195e-08
2.72199e-08
2.72193e-08
2.72199e-08
2.7219e-08
2.722e-08
2.72189e-08
2.72207e-08
2.72203e-08
2.72261e-08
2.72324e-08
2.72596e-08
2.72958e-08
2.73477e-08
2.5589e-08
2.5533e-08
2.54935e-08
2.54636e-08
2.54561e-08
2.545e-08
2.54502e-08
2.54484e-08
2.54494e-08
2.54485e-08
2.54493e-08
2.54488e-08
2.54494e-08
2.5449e-08
2.54494e-08
2.54491e-08
2.54494e-08
2.54492e-08
2.54494e-08
2.54493e-08
2.54494e-08
2.54493e-08
2.54494e-08
2.54494e-08
2.54494e-08
2.54494e-08
2.54494e-08
2.54494e-08
2.54493e-08
2.54494e-08
2.54493e-08
2.54494e-08
2.54492e-08
2.54494e-08
2.54491e-08
2.54494e-08
2.5449e-08
2.54493e-08
2.54488e-08
2.54493e-08
2.54485e-08
2.54494e-08
2.54484e-08
2.54502e-08
2.545e-08
2.54561e-08
2.54636e-08
2.54935e-08
2.5533e-08
2.5589e-08
2.28576e-08
2.28034e-08
2.27664e-08
2.27371e-08
2.27291e-08
2.27234e-08
2.27231e-08
2.27216e-08
2.27224e-08
2.27217e-08
2.27223e-08
2.27219e-08
2.27224e-08
2.27221e-08
2.27224e-08
2.27223e-08
2.27225e-08
2.27223e-08
2.27225e-08
2.27224e-08
2.27225e-08
2.27224e-08
2.27225e-08
2.27225e-08
2.27225e-08
2.27225e-08
2.27225e-08
2.27225e-08
2.27224e-08
2.27225e-08
2.27224e-08
2.27225e-08
2.27223e-08
2.27225e-08
2.27223e-08
2.27224e-08
2.27221e-08
2.27224e-08
2.27219e-08
2.27223e-08
2.27217e-08
2.27224e-08
2.27216e-08
2.27231e-08
2.27234e-08
2.27291e-08
2.27371e-08
2.27664e-08
2.28034e-08
2.28576e-08
2.00669e-08
2.00179e-08
1.99863e-08
1.99594e-08
1.99515e-08
1.99463e-08
1.99457e-08
1.99446e-08
1.99449e-08
1.99445e-08
1.9945e-08
1.99447e-08
1.9945e-08
1.99449e-08
1.99451e-08
1.9945e-08
1.99452e-08
1.99451e-08
1.99452e-08
1.99451e-08
1.99452e-08
1.99451e-08
1.99452e-08
1.99452e-08
1.99452e-08
1.99452e-08
1.99452e-08
1.99452e-08
1.99451e-08
1.99452e-08
1.99451e-08
1.99452e-08
1.99451e-08
1.99452e-08
1.9945e-08
1.99451e-08
1.99449e-08
1.9945e-08
1.99447e-08
1.9945e-08
1.99445e-08
1.99449e-08
1.99446e-08
1.99457e-08
1.99463e-08
1.99515e-08
1.99594e-08
1.99863e-08
2.00179e-08
2.00669e-08
1.75641e-08
1.75218e-08
1.74968e-08
1.74731e-08
1.74655e-08
1.7461e-08
1.746e-08
1.74593e-08
1.74593e-08
1.74592e-08
1.74594e-08
1.74593e-08
1.74595e-08
1.74594e-08
1.74596e-08
1.74595e-08
1.74596e-08
1.74596e-08
1.74596e-08
1.74596e-08
1.74596e-08
1.74596e-08
1.74597e-08
1.74597e-08
1.74597e-08
1.74597e-08
1.74597e-08
1.74597e-08
1.74596e-08
1.74596e-08
1.74596e-08
1.74596e-08
1.74596e-08
1.74596e-08
1.74595e-08
1.74596e-08
1.74594e-08
1.74595e-08
1.74593e-08
1.74594e-08
1.74592e-08
1.74593e-08
1.74593e-08
1.746e-08
1.74611e-08
1.74655e-08
1.74731e-08
1.74968e-08
1.75218e-08
1.75641e-08
1.54327e-08
1.53975e-08
1.53792e-08
1.5359e-08
1.53518e-08
1.53481e-08
1.53468e-08
1.53463e-08
1.53461e-08
1.53462e-08
1.53462e-08
1.53462e-08
1.53463e-08
1.53463e-08
1.53464e-08
1.53464e-08
1.53464e-08
1.53464e-08
1.53465e-08
1.53465e-08
1.53465e-08
1.53465e-08
1.53465e-08
1.53465e-08
1.53465e-08
1.53465e-08
1.53465e-08
1.53465e-08
1.53465e-08
1.53465e-08
1.53465e-08
1.53465e-08
1.53464e-08
1.53464e-08
1.53464e-08
1.53464e-08
1.53463e-08
1.53463e-08
1.53462e-08
1.53462e-08
1.53462e-08
1.53461e-08
1.53463e-08
1.53468e-08
1.53481e-08
1.53518e-08
1.5359e-08
1.53792e-08
1.53975e-08
1.54327e-08
1.36484e-08
1.36202e-08
1.36083e-08
1.35917e-08
1.35849e-08
1.35819e-08
1.35803e-08
1.35802e-08
1.35796e-08
1.35799e-08
1.35797e-08
1.358e-08
1.35799e-08
1.358e-08
1.358e-08
1.35801e-08
1.358e-08
1.35801e-08
1.35801e-08
1.35801e-08
1.35801e-08
1.35801e-08
1.35801e-08
1.35801e-08
1.35801e-08
1.35801e-08
1.35801e-08
1.35801e-08
1.35801e-08
1.35801e-08
1.35801e-08
1.35801e-08
1.35801e-08
1.358e-08
1.35801e-08
1.358e-08
1.358e-08
1.35799e-08
1.358e-08
1.35797e-08
1.35799e-08
1.35796e-08
1.35802e-08
1.35803e-08
1.35819e-08
1.35849e-08
1.35917e-08
1.36083e-08
1.36202e-08
1.36484e-08
1.20974e-08
1.20753e-08
1.20681e-08
1.20545e-08
1.20482e-08
1.20458e-08
1.2044e-08
1.20441e-08
1.20434e-08
1.20438e-08
1.20435e-08
1.20438e-08
1.20436e-08
1.20438e-08
1.20437e-08
1.20439e-08
1.20438e-08
1.20439e-08
1.20438e-08
1.20439e-08
1.20439e-08
1.20439e-08
1.20439e-08
1.20439e-08
1.20439e-08
1.20439e-08
1.20439e-08
1.20439e-08
1.20439e-08
1.20439e-08
1.20439e-08
1.20438e-08
1.20439e-08
1.20438e-08
1.20439e-08
1.20437e-08
1.20438e-08
1.20436e-08
1.20438e-08
1.20435e-08
1.20438e-08
1.20434e-08
1.20441e-08
1.2044e-08
1.20458e-08
1.20482e-08
1.20545e-08
1.20682e-08
1.20753e-08
1.20974e-08
1.08405e-08
1.08244e-08
1.08226e-08
1.08119e-08
1.08061e-08
1.08044e-08
1.08023e-08
1.08027e-08
1.08017e-08
1.08023e-08
1.08018e-08
1.08023e-08
1.0802e-08
1.08023e-08
1.08021e-08
1.08023e-08
1.08022e-08
1.08023e-08
1.08022e-08
1.08023e-08
1.08023e-08
1.08023e-08
1.08023e-08
1.08023e-08
1.08023e-08
1.08023e-08
1.08023e-08
1.08023e-08
1.08023e-08
1.08023e-08
1.08023e-08
1.08022e-08
1.08023e-08
1.08022e-08
1.08023e-08
1.08021e-08
1.08023e-08
1.0802e-08
1.08023e-08
1.08018e-08
1.08023e-08
1.08017e-08
1.08027e-08
1.08023e-08
1.08044e-08
1.08061e-08
1.08119e-08
1.08226e-08
1.08244e-08
1.08405e-08
9.76709e-09
9.75196e-09
9.7507e-09
9.74158e-09
9.7369e-09
9.73529e-09
9.73352e-09
9.73376e-09
9.73296e-09
9.73344e-09
9.73304e-09
9.7334e-09
9.73317e-09
9.73341e-09
9.73326e-09
9.73342e-09
9.73332e-09
9.73343e-09
9.73336e-09
9.73343e-09
9.73339e-09
9.73343e-09
9.73341e-09
9.73343e-09
9.73342e-09
9.73342e-09
9.73343e-09
9.73341e-09
9.73343e-09
9.73339e-09
9.73343e-09
9.73336e-09
9.73343e-09
9.73332e-09
9.73342e-09
9.73326e-09
9.73341e-09
9.73317e-09
9.7334e-09
9.73304e-09
9.73343e-09
9.73296e-09
9.73377e-09
9.73352e-09
9.73529e-09
9.7369e-09
9.74158e-09
9.7507e-09
9.75196e-09
9.76709e-09
8.81636e-09
8.80566e-09
8.80729e-09
8.80029e-09
8.79611e-09
8.79488e-09
8.79304e-09
8.7934e-09
8.79251e-09
8.79305e-09
8.79259e-09
8.79299e-09
8.79272e-09
8.79298e-09
8.79281e-09
8.79299e-09
8.79287e-09
8.79299e-09
8.79291e-09
8.79299e-09
8.79294e-09
8.79299e-09
8.79296e-09
8.79299e-09
8.79298e-09
8.79298e-09
8.79299e-09
8.79296e-09
8.79299e-09
8.79294e-09
8.79299e-09
8.79291e-09
8.793e-09
8.79287e-09
8.79299e-09
8.79281e-09
8.79298e-09
8.79272e-09
8.79299e-09
8.79259e-09
8.79305e-09
8.79251e-09
8.7934e-09
8.79305e-09
8.79488e-09
8.79611e-09
8.80029e-09
8.80729e-09
8.80565e-09
8.81636e-09
8.02291e-09
8.01637e-09
8.02096e-09
8.01598e-09
8.01228e-09
8.01142e-09
8.00952e-09
8.00999e-09
8.00901e-09
8.00961e-09
8.00909e-09
8.00953e-09
8.00921e-09
8.00951e-09
8.0093e-09
8.00951e-09
8.00936e-09
8.00951e-09
8.00941e-09
8.0095e-09
8.00944e-09
8.00949e-09
8.00946e-09
8.00949e-09
8.00948e-09
8.00948e-09
8.00949e-09
8.00946e-09
8.00949e-09
8.00944e-09
8.0095e-09
8.00941e-09
8.00951e-09
8.00936e-09
8.00951e-09
8.0093e-09
8.00951e-09
8.00921e-09
8.00953e-09
8.00909e-09
8.00961e-09
8.009e-09
8.00999e-09
8.00952e-09
8.01142e-09
8.01228e-09
8.01598e-09
8.02096e-09
8.01637e-09
8.02291e-09
7.30507e-09
7.30342e-09
7.31177e-09
7.30945e-09
7.30653e-09
7.30615e-09
7.3042e-09
7.30479e-09
7.30369e-09
7.30435e-09
7.30375e-09
7.30424e-09
7.30387e-09
7.30419e-09
7.30395e-09
7.30418e-09
7.30401e-09
7.30417e-09
7.30406e-09
7.30416e-09
7.30409e-09
7.30415e-09
7.30411e-09
7.30414e-09
7.30413e-09
7.30413e-09
7.30414e-09
7.30411e-09
7.30415e-09
7.30409e-09
7.30416e-09
7.30406e-09
7.30417e-09
7.30401e-09
7.30418e-09
7.30395e-09
7.30419e-09
7.30387e-09
7.30423e-09
7.30376e-09
7.30435e-09
7.30369e-09
7.30479e-09
7.3042e-09
7.30615e-09
7.30653e-09
7.30945e-09
7.31178e-09
7.30342e-09
7.30507e-09
6.69345e-09
6.69511e-09
6.70537e-09
6.70457e-09
6.70212e-09
6.70201e-09
6.70005e-09
6.7007e-09
6.69955e-09
6.70024e-09
6.69961e-09
6.70011e-09
6.69972e-09
6.70006e-09
6.6998e-09
6.70004e-09
6.69986e-09
6.70003e-09
6.69991e-09
6.70001e-09
6.69994e-09
6.7e-09
6.69996e-09
6.69999e-09
6.69998e-09
6.69998e-09
6.69999e-09
6.69996e-09
6.7e-09
6.69994e-09
6.70002e-09
6.69991e-09
6.70003e-09
6.69986e-09
6.70004e-09
6.6998e-09
6.70006e-09
6.69972e-09
6.70011e-09
6.69962e-09
6.70024e-09
6.69955e-09
6.7007e-09
6.70005e-09
6.70201e-09
6.70212e-09
6.70457e-09
6.70537e-09
6.69511e-09
6.69346e-09
6.13043e-09
6.13638e-09
6.1498e-09
6.1511e-09
6.149e-09
6.1493e-09
6.14719e-09
6.14799e-09
6.14671e-09
6.1475e-09
6.14677e-09
6.14735e-09
6.14689e-09
6.14727e-09
6.14698e-09
6.14725e-09
6.14703e-09
6.14723e-09
6.14709e-09
6.14721e-09
6.14713e-09
6.1472e-09
6.14715e-09
6.14718e-09
6.14717e-09
6.14717e-09
6.14718e-09
6.14715e-09
6.1472e-09
6.14713e-09
6.14721e-09
6.14709e-09
6.14723e-09
6.14704e-09
6.14725e-09
6.14698e-09
6.14728e-09
6.14689e-09
6.14734e-09
6.14678e-09
6.1475e-09
6.14671e-09
6.14799e-09
6.14719e-09
6.1493e-09
6.149e-09
6.1511e-09
6.1498e-09
6.13638e-09
6.13043e-09
5.62686e-09
5.63537e-09
5.64952e-09
5.65181e-09
5.6501e-09
5.65054e-09
5.64849e-09
5.64929e-09
5.64802e-09
5.64879e-09
5.64808e-09
5.64864e-09
5.64819e-09
5.64856e-09
5.64827e-09
5.64853e-09
5.64832e-09
5.64852e-09
5.64838e-09
5.6485e-09
5.64841e-09
5.64848e-09
5.64843e-09
5.64847e-09
5.64845e-09
5.64845e-09
5.64847e-09
5.64843e-09
5.64848e-09
5.64841e-09
5.6485e-09
5.64838e-09
5.64852e-09
5.64832e-09
5.64853e-09
5.64827e-09
5.64856e-09
5.64819e-09
5.64864e-09
5.64808e-09
5.64879e-09
5.64802e-09
5.64929e-09
5.64849e-09
5.65053e-09
5.65009e-09
5.65181e-09
5.64952e-09
5.63537e-09
5.62686e-09
5.19183e-09
5.20294e-09
5.21793e-09
5.22116e-09
5.21981e-09
5.22041e-09
5.21839e-09
5.21921e-09
5.21794e-09
5.21871e-09
5.21799e-09
5.21855e-09
5.2181e-09
5.21847e-09
5.21817e-09
5.21844e-09
5.21822e-09
5.21842e-09
5.21828e-09
5.2184e-09
5.21831e-09
5.21838e-09
5.21833e-09
5.21837e-09
5.21835e-09
5.21835e-09
5.21837e-09
5.21833e-09
5.21838e-09
5.21831e-09
5.2184e-09
5.21828e-09
5.21842e-09
5.21822e-09
5.21844e-09
5.21817e-09
5.21847e-09
5.2181e-09
5.21855e-09
5.21799e-09
5.21871e-09
5.21794e-09
5.21921e-09
5.2184e-09
5.2204e-09
5.21981e-09
5.22116e-09
5.21793e-09
5.20294e-09
5.19184e-09
4.80086e-09
4.81446e-09
4.83004e-09
4.83406e-09
4.83302e-09
4.83375e-09
4.83178e-09
4.83261e-09
4.83134e-09
4.8321e-09
4.83139e-09
4.83194e-09
4.83149e-09
4.83186e-09
4.83156e-09
4.83182e-09
4.83161e-09
4.8318e-09
4.83167e-09
4.83178e-09
4.8317e-09
4.83176e-09
4.83171e-09
4.83175e-09
4.83173e-09
4.83173e-09
4.83175e-09
4.83171e-09
4.83177e-09
4.8317e-09
4.83178e-09
4.83167e-09
4.8318e-09
4.83161e-09
4.83182e-09
4.83156e-09
4.83186e-09
4.83149e-09
4.83194e-09
4.83139e-09
4.8321e-09
4.83134e-09
4.83261e-09
4.83179e-09
4.83375e-09
4.83302e-09
4.83406e-09
4.83004e-09
4.81446e-09
4.80086e-09
4.44868e-09
4.45431e-09
4.46901e-09
4.47335e-09
4.47284e-09
4.47364e-09
4.47187e-09
4.4726e-09
4.47142e-09
4.47209e-09
4.47142e-09
4.4719e-09
4.47148e-09
4.47181e-09
4.47153e-09
4.47177e-09
4.47157e-09
4.47175e-09
4.47162e-09
4.47173e-09
4.47164e-09
4.47171e-09
4.47166e-09
4.47169e-09
4.47168e-09
4.47168e-09
4.47169e-09
4.47166e-09
4.47171e-09
4.47164e-09
4.47173e-09
4.47162e-09
4.47175e-09
4.47157e-09
4.47177e-09
4.47153e-09
4.47181e-09
4.47148e-09
4.4719e-09
4.47142e-09
4.47209e-09
4.47142e-09
4.4726e-09
4.47187e-09
4.47364e-09
4.47284e-09
4.47335e-09
4.46901e-09
4.45431e-09
4.44869e-09
4.13101e-09
4.1381e-09
4.15291e-09
4.15774e-09
4.15749e-09
4.15838e-09
4.15667e-09
4.15739e-09
4.15623e-09
4.15687e-09
4.15622e-09
4.15669e-09
4.15627e-09
4.15659e-09
4.15632e-09
4.15655e-09
4.15635e-09
4.15653e-09
4.1564e-09
4.15651e-09
4.15643e-09
4.15649e-09
4.15644e-09
4.15647e-09
4.15646e-09
4.15646e-09
4.15647e-09
4.15644e-09
4.15649e-09
4.15643e-09
4.15651e-09
4.1564e-09
4.15653e-09
4.15635e-09
4.15655e-09
4.15632e-09
4.15659e-09
4.15627e-09
4.15669e-09
4.15622e-09
4.15688e-09
4.15623e-09
4.15739e-09
4.15667e-09
4.15838e-09
4.15749e-09
4.15774e-09
4.15291e-09
4.1381e-09
4.13101e-09
3.83292e-09
3.84145e-09
3.85678e-09
3.86237e-09
3.86246e-09
3.86349e-09
3.86182e-09
3.86254e-09
3.86138e-09
3.86201e-09
3.86135e-09
3.86181e-09
3.8614e-09
3.86171e-09
3.86144e-09
3.86166e-09
3.86147e-09
3.86164e-09
3.86151e-09
3.86162e-09
3.86154e-09
3.8616e-09
3.86155e-09
3.86158e-09
3.86157e-09
3.86157e-09
3.86158e-09
3.86155e-09
3.8616e-09
3.86154e-09
3.86162e-09
3.86151e-09
3.86164e-09
3.86147e-09
3.86166e-09
3.86144e-09
3.86171e-09
3.8614e-09
3.86181e-09
3.86135e-09
3.86201e-09
3.86138e-09
3.86254e-09
3.86182e-09
3.86349e-09
3.86246e-09
3.86237e-09
3.85678e-09
3.84145e-09
3.83292e-09
3.56273e-09
3.57208e-09
3.58706e-09
3.59284e-09
3.59312e-09
3.59418e-09
3.59259e-09
3.59327e-09
3.59217e-09
3.59276e-09
3.59213e-09
3.59256e-09
3.59217e-09
3.59246e-09
3.5922e-09
3.59242e-09
3.59223e-09
3.59239e-09
3.59227e-09
3.59237e-09
3.59229e-09
3.59235e-09
3.59231e-09
3.59234e-09
3.59232e-09
3.59232e-09
3.59234e-09
3.59231e-09
3.59235e-09
3.59229e-09
3.59237e-09
3.59227e-09
3.59239e-09
3.59223e-09
3.59242e-09
3.5922e-09
3.59246e-09
3.59217e-09
3.59256e-09
3.59213e-09
3.59276e-09
3.59217e-09
3.59327e-09
3.59259e-09
3.59417e-09
3.59312e-09
3.59284e-09
3.58706e-09
3.57208e-09
3.56273e-09
3.31753e-09
3.32754e-09
3.34206e-09
3.34795e-09
3.3484e-09
3.34947e-09
3.34797e-09
3.34861e-09
3.34756e-09
3.34811e-09
3.34751e-09
3.34792e-09
3.34754e-09
3.34782e-09
3.34757e-09
3.34777e-09
3.34759e-09
3.34775e-09
3.34763e-09
3.34773e-09
3.34765e-09
3.34771e-09
3.34767e-09
3.3477e-09
3.34768e-09
3.34768e-09
3.3477e-09
3.34767e-09
3.34771e-09
3.34766e-09
3.34773e-09
3.34763e-09
3.34775e-09
3.34759e-09
3.34777e-09
3.34757e-09
3.34782e-09
3.34754e-09
3.34792e-09
3.34751e-09
3.34811e-09
3.34756e-09
3.34861e-09
3.34797e-09
3.34946e-09
3.3484e-09
3.34795e-09
3.34206e-09
3.32754e-09
3.31753e-09
3.09479e-09
3.10527e-09
3.11931e-09
3.12523e-09
3.12581e-09
3.12688e-09
3.12547e-09
3.12607e-09
3.12507e-09
3.12559e-09
3.12501e-09
3.1254e-09
3.12503e-09
3.1253e-09
3.12506e-09
3.12525e-09
3.12508e-09
3.12523e-09
3.12512e-09
3.12521e-09
3.12514e-09
3.12519e-09
3.12515e-09
3.12518e-09
3.12517e-09
3.12517e-09
3.12518e-09
3.12515e-09
3.12519e-09
3.12514e-09
3.12521e-09
3.12512e-09
3.12523e-09
3.12508e-09
3.12525e-09
3.12506e-09
3.1253e-09
3.12503e-09
3.12539e-09
3.12502e-09
3.12559e-09
3.12507e-09
3.12607e-09
3.12547e-09
3.12688e-09
3.12581e-09
3.12523e-09
3.11931e-09
3.10527e-09
3.09479e-09
2.89227e-09
2.90305e-09
2.91659e-09
2.92247e-09
2.92317e-09
2.92423e-09
2.92291e-09
2.92347e-09
2.92252e-09
2.92299e-09
2.92245e-09
2.92281e-09
2.92246e-09
2.92271e-09
2.92248e-09
2.92266e-09
2.9225e-09
2.92264e-09
2.92254e-09
2.92262e-09
2.92256e-09
2.92261e-09
2.92257e-09
2.92259e-09
2.92258e-09
2.92258e-09
2.92259e-09
2.92257e-09
2.92261e-09
2.92256e-09
2.92262e-09
2.92254e-09
2.92264e-09
2.9225e-09
2.92266e-09
2.92248e-09
2.92271e-09
2.92246e-09
2.9228e-09
2.92245e-09
2.92299e-09
2.92251e-09
2.92347e-09
2.92291e-09
2.92423e-09
2.92317e-09
2.92247e-09
2.91659e-09
2.90305e-09
2.89227e-09
2.70795e-09
2.71892e-09
2.73193e-09
2.73773e-09
2.73852e-09
2.73957e-09
2.73832e-09
2.73884e-09
2.73794e-09
2.73838e-09
2.73787e-09
2.7382e-09
2.73787e-09
2.7381e-09
2.73789e-09
2.73806e-09
2.73791e-09
2.73804e-09
2.73794e-09
2.73802e-09
2.73796e-09
2.738e-09
2.73797e-09
2.73799e-09
2.73798e-09
2.73798e-09
2.73799e-09
2.73797e-09
2.738e-09
2.73796e-09
2.73802e-09
2.73794e-09
2.73804e-09
2.73791e-09
2.73806e-09
2.73789e-09
2.7381e-09
2.73787e-09
2.7382e-09
2.73787e-09
2.73838e-09
2.73794e-09
2.73884e-09
2.73832e-09
2.73957e-09
2.73851e-09
2.73773e-09
2.73193e-09
2.71892e-09
2.70795e-09
2.54006e-09
2.5511e-09
2.56358e-09
2.56925e-09
2.57011e-09
2.57114e-09
2.56997e-09
2.57045e-09
2.5696e-09
2.57e-09
2.56952e-09
2.56982e-09
2.56952e-09
2.56973e-09
2.56953e-09
2.56969e-09
2.56955e-09
2.56967e-09
2.56958e-09
2.56965e-09
2.56959e-09
2.56964e-09
2.5696e-09
2.56962e-09
2.56961e-09
2.56961e-09
2.56962e-09
2.5696e-09
2.56964e-09
2.56959e-09
2.56965e-09
2.56958e-09
2.56967e-09
2.56955e-09
2.56969e-09
2.56953e-09
2.56973e-09
2.56952e-09
2.56982e-09
2.56952e-09
2.57e-09
2.5696e-09
2.57045e-09
2.56997e-09
2.57114e-09
2.5701e-09
2.56925e-09
2.56358e-09
2.5511e-09
2.54006e-09
2.38697e-09
2.398e-09
2.40994e-09
2.41546e-09
2.41637e-09
2.41738e-09
2.41628e-09
2.41673e-09
2.41592e-09
2.41629e-09
2.41584e-09
2.41612e-09
2.41583e-09
2.41603e-09
2.41584e-09
2.41599e-09
2.41585e-09
2.41597e-09
2.41588e-09
2.41595e-09
2.41589e-09
2.41594e-09
2.4159e-09
2.41592e-09
2.41591e-09
2.41591e-09
2.41592e-09
2.4159e-09
2.41594e-09
2.41589e-09
2.41595e-09
2.41588e-09
2.41597e-09
2.41585e-09
2.41599e-09
2.41584e-09
2.41603e-09
2.41583e-09
2.41612e-09
2.41584e-09
2.41629e-09
2.41592e-09
2.41673e-09
2.41628e-09
2.41738e-09
2.41637e-09
2.41546e-09
2.40994e-09
2.398e-09
2.38697e-09
2.24726e-09
2.25819e-09
2.26959e-09
2.27495e-09
2.27589e-09
2.27687e-09
2.27584e-09
2.27626e-09
2.2755e-09
2.27584e-09
2.2754e-09
2.27566e-09
2.27539e-09
2.27558e-09
2.2754e-09
2.27554e-09
2.27541e-09
2.27552e-09
2.27544e-09
2.2755e-09
2.27545e-09
2.27549e-09
2.27546e-09
2.27548e-09
2.27547e-09
2.27547e-09
2.27548e-09
2.27546e-09
2.27549e-09
2.27545e-09
2.2755e-09
2.27544e-09
2.27552e-09
2.27541e-09
2.27554e-09
2.2754e-09
2.27558e-09
2.27539e-09
2.27566e-09
2.27541e-09
2.27584e-09
2.2755e-09
2.27626e-09
2.27584e-09
2.27687e-09
2.27589e-09
2.27495e-09
2.26959e-09
2.25819e-09
2.24726e-09
2.11961e-09
2.13038e-09
2.14126e-09
2.14643e-09
2.1474e-09
2.14835e-09
2.14738e-09
2.14776e-09
2.14705e-09
2.14736e-09
2.14695e-09
2.14719e-09
2.14693e-09
2.1471e-09
2.14694e-09
2.14706e-09
2.14695e-09
2.14705e-09
2.14697e-09
2.14703e-09
2.14698e-09
2.14702e-09
2.14699e-09
2.14701e-09
2.147e-09
2.147e-09
2.14701e-09
2.14699e-09
2.14702e-09
2.14698e-09
2.14703e-09
2.14697e-09
2.14705e-09
2.14695e-09
2.14706e-09
2.14694e-09
2.1471e-09
2.14693e-09
2.14719e-09
2.14695e-09
2.14736e-09
2.14705e-09
2.14776e-09
2.14738e-09
2.14835e-09
2.1474e-09
2.14643e-09
2.14126e-09
2.13038e-09
2.11961e-09
2.00285e-09
2.01341e-09
2.02377e-09
2.02876e-09
2.02973e-09
2.03065e-09
2.02975e-09
2.03009e-09
2.02942e-09
2.0297e-09
2.02932e-09
2.02954e-09
2.0293e-09
2.02946e-09
2.0293e-09
2.02942e-09
2.02931e-09
2.0294e-09
2.02933e-09
2.02939e-09
2.02934e-09
2.02938e-09
2.02935e-09
2.02937e-09
2.02936e-09
2.02936e-09
2.02937e-09
2.02935e-09
2.02938e-09
2.02934e-09
2.02939e-09
2.02933e-09
2.0294e-09
2.02931e-09
2.02942e-09
2.0293e-09
2.02946e-09
2.0293e-09
2.02954e-09
2.02932e-09
2.0297e-09
2.02942e-09
2.03009e-09
2.02975e-09
2.03065e-09
2.02973e-09
2.02875e-09
2.02377e-09
2.01341e-09
2.00285e-09
1.89592e-09
1.90623e-09
1.91609e-09
1.92088e-09
1.92186e-09
1.92275e-09
1.9219e-09
1.92222e-09
1.92158e-09
1.92184e-09
1.92148e-09
1.92168e-09
1.92145e-09
1.9216e-09
1.92145e-09
1.92156e-09
1.92146e-09
1.92154e-09
1.92148e-09
1.92153e-09
1.92149e-09
1.92152e-09
1.92149e-09
1.92151e-09
1.9215e-09
1.9215e-09
1.92151e-09
1.92149e-09
1.92152e-09
1.92149e-09
1.92153e-09
1.92148e-09
1.92154e-09
1.92146e-09
1.92156e-09
1.92145e-09
1.9216e-09
1.92145e-09
1.92168e-09
1.92148e-09
1.92184e-09
1.92158e-09
1.92222e-09
1.9219e-09
1.92275e-09
1.92186e-09
1.92088e-09
1.91609e-09
1.90623e-09
1.89593e-09
1.79788e-09
1.80788e-09
1.81727e-09
1.82187e-09
1.82284e-09
1.82369e-09
1.8229e-09
1.82319e-09
1.82259e-09
1.82282e-09
1.82248e-09
1.82267e-09
1.82245e-09
1.82259e-09
1.82245e-09
1.82255e-09
1.82245e-09
1.82254e-09
1.82247e-09
1.82252e-09
1.82248e-09
1.82251e-09
1.82249e-09
1.8225e-09
1.8225e-09
1.8225e-09
1.8225e-09
1.82249e-09
1.82251e-09
1.82248e-09
1.82252e-09
1.82247e-09
1.82254e-09
1.82245e-09
1.82255e-09
1.82245e-09
1.82259e-09
1.82245e-09
1.82266e-09
1.82248e-09
1.82282e-09
1.82259e-09
1.82319e-09
1.8229e-09
1.82369e-09
1.82284e-09
1.82187e-09
1.81727e-09
1.80788e-09
1.79788e-09
1.70787e-09
1.71753e-09
1.72646e-09
1.73086e-09
1.73182e-09
1.73264e-09
1.7319e-09
1.73216e-09
1.7316e-09
1.73181e-09
1.73149e-09
1.73166e-09
1.73146e-09
1.73158e-09
1.73145e-09
1.73155e-09
1.73146e-09
1.73153e-09
1.73147e-09
1.73152e-09
1.73148e-09
1.73151e-09
1.73149e-09
1.7315e-09
1.7315e-09
1.7315e-09
1.7315e-09
1.73149e-09
1.73151e-09
1.73148e-09
1.73152e-09
1.73147e-09
1.73153e-09
1.73146e-09
1.73155e-09
1.73145e-09
1.73158e-09
1.73146e-09
1.73166e-09
1.73149e-09
1.73181e-09
1.7316e-09
1.73216e-09
1.7319e-09
1.73264e-09
1.73182e-09
1.73086e-09
1.72646e-09
1.71753e-09
1.70787e-09
1.6251e-09
1.63439e-09
1.6429e-09
1.64711e-09
1.64805e-09
1.64884e-09
1.64814e-09
1.64838e-09
1.64785e-09
1.64804e-09
1.64774e-09
1.64789e-09
1.6477e-09
1.64782e-09
1.64769e-09
1.64778e-09
1.6477e-09
1.64777e-09
1.64771e-09
1.64776e-09
1.64772e-09
1.64775e-09
1.64773e-09
1.64774e-09
1.64773e-09
1.64773e-09
1.64774e-09
1.64773e-09
1.64775e-09
1.64772e-09
1.64776e-09
1.64771e-09
1.64777e-09
1.6477e-09
1.64778e-09
1.64769e-09
1.64782e-09
1.6477e-09
1.64789e-09
1.64774e-09
1.64804e-09
1.64785e-09
1.64838e-09
1.64814e-09
1.64884e-09
1.64805e-09
1.64711e-09
1.6429e-09
1.63439e-09
1.6251e-09
1.54888e-09
1.5578e-09
1.5659e-09
1.56992e-09
1.57084e-09
1.57159e-09
1.57093e-09
1.57115e-09
1.57065e-09
1.57082e-09
1.57054e-09
1.57068e-09
1.5705e-09
1.57061e-09
1.57049e-09
1.57058e-09
1.5705e-09
1.57056e-09
1.57051e-09
1.57055e-09
1.57052e-09
1.57054e-09
1.57052e-09
1.57054e-09
1.57053e-09
1.57053e-09
1.57054e-09
1.57052e-09
1.57054e-09
1.57052e-09
1.57055e-09
1.57051e-09
1.57056e-09
1.5705e-09
1.57058e-09
1.57049e-09
1.57061e-09
1.5705e-09
1.57068e-09
1.57054e-09
1.57082e-09
1.57065e-09
1.57115e-09
1.57093e-09
1.57159e-09
1.57084e-09
1.56992e-09
1.5659e-09
1.5578e-09
1.54888e-09
1.47856e-09
1.48714e-09
1.49483e-09
1.49867e-09
1.49956e-09
1.50028e-09
1.49967e-09
1.49986e-09
1.4994e-09
1.49955e-09
1.49928e-09
1.49941e-09
1.49924e-09
1.49934e-09
1.49923e-09
1.49931e-09
1.49923e-09
1.49929e-09
1.49924e-09
1.49928e-09
1.49925e-09
1.49927e-09
1.49926e-09
1.49927e-09
1.49926e-09
1.49926e-09
1.49927e-09
1.49926e-09
1.49927e-09
1.49925e-09
1.49928e-09
1.49924e-09
1.49929e-09
1.49923e-09
1.49931e-09
1.49923e-09
1.49934e-09
1.49924e-09
1.49941e-09
1.49928e-09
1.49955e-09
1.49939e-09
1.49986e-09
1.49967e-09
1.50028e-09
1.49956e-09
1.49867e-09
1.49483e-09
1.48714e-09
1.47856e-09
1.4136e-09
1.42186e-09
1.42915e-09
1.4328e-09
1.43367e-09
1.43436e-09
1.43378e-09
1.43396e-09
1.43352e-09
1.43365e-09
1.4334e-09
1.43351e-09
1.43336e-09
1.43345e-09
1.43335e-09
1.43342e-09
1.43335e-09
1.43341e-09
1.43336e-09
1.4334e-09
1.43337e-09
1.43339e-09
1.43337e-09
1.43338e-09
1.43338e-09
1.43338e-09
1.43338e-09
1.43337e-09
1.43339e-09
1.43337e-09
1.4334e-09
1.43336e-09
1.4334e-09
1.43335e-09
1.43342e-09
1.43335e-09
1.43345e-09
1.43336e-09
1.43351e-09
1.4334e-09
1.43365e-09
1.43352e-09
1.43396e-09
1.43378e-09
1.43436e-09
1.43367e-09
1.4328e-09
1.42915e-09
1.42185e-09
1.4136e-09
1.35348e-09
1.36144e-09
1.36834e-09
1.37182e-09
1.37266e-09
1.37332e-09
1.37277e-09
1.37293e-09
1.37252e-09
1.37264e-09
1.3724e-09
1.37251e-09
1.37236e-09
1.37244e-09
1.37235e-09
1.37241e-09
1.37235e-09
1.3724e-09
1.37236e-09
1.37239e-09
1.37237e-09
1.37239e-09
1.37237e-09
1.37238e-09
1.37237e-09
1.37237e-09
1.37238e-09
1.37237e-09
1.37239e-09
1.37237e-09
1.37239e-09
1.37236e-09
1.3724e-09
1.37235e-09
1.37241e-09
1.37235e-09
1.37244e-09
1.37236e-09
1.37251e-09
1.3724e-09
1.37264e-09
1.37252e-09
1.37293e-09
1.37277e-09
1.37332e-09
1.37266e-09
1.37182e-09
1.36834e-09
1.36144e-09
1.35348e-09
1.29777e-09
1.30546e-09
1.31196e-09
1.31528e-09
1.31609e-09
1.31672e-09
1.31621e-09
1.31635e-09
1.31596e-09
1.31606e-09
1.31584e-09
1.31594e-09
1.3158e-09
1.31587e-09
1.31578e-09
1.31584e-09
1.31578e-09
1.31583e-09
1.31579e-09
1.31583e-09
1.3158e-09
1.31582e-09
1.3158e-09
1.31581e-09
1.31581e-09
1.31581e-09
1.31581e-09
1.3158e-09
1.31582e-09
1.3158e-09
1.31583e-09
1.31579e-09
1.31583e-09
1.31578e-09
1.31585e-09
1.31578e-09
1.31587e-09
1.3158e-09
1.31594e-09
1.31584e-09
1.31606e-09
1.31596e-09
1.31635e-09
1.3162e-09
1.31671e-09
1.31609e-09
1.31528e-09
1.31196e-09
1.30545e-09
1.29777e-09
1.24605e-09
1.25347e-09
1.25963e-09
1.26277e-09
1.26355e-09
1.26415e-09
1.26367e-09
1.2638e-09
1.26343e-09
1.26352e-09
1.26331e-09
1.2634e-09
1.26327e-09
1.26334e-09
1.26325e-09
1.26331e-09
1.26325e-09
1.2633e-09
1.26326e-09
1.26329e-09
1.26327e-09
1.26329e-09
1.26327e-09
1.26328e-09
1.26328e-09
1.26328e-09
1.26328e-09
1.26327e-09
1.26329e-09
1.26327e-09
1.26329e-09
1.26326e-09
1.2633e-09
1.26325e-09
1.26331e-09
1.26325e-09
1.26334e-09
1.26327e-09
1.2634e-09
1.26331e-09
1.26352e-09
1.26343e-09
1.2638e-09
1.26367e-09
1.26415e-09
1.26355e-09
1.26277e-09
1.25963e-09
1.25347e-09
1.24605e-09
1.19798e-09
1.20514e-09
1.21096e-09
1.21394e-09
1.21469e-09
1.21525e-09
1.2148e-09
1.21492e-09
1.21457e-09
1.21465e-09
1.21445e-09
1.21453e-09
1.21441e-09
1.21447e-09
1.21439e-09
1.21445e-09
1.21439e-09
1.21444e-09
1.2144e-09
1.21443e-09
1.21441e-09
1.21443e-09
1.21441e-09
1.21442e-09
1.21442e-09
1.21442e-09
1.21442e-09
1.21441e-09
1.21443e-09
1.21441e-09
1.21443e-09
1.2144e-09
1.21444e-09
1.21439e-09
1.21445e-09
1.2144e-09
1.21447e-09
1.21441e-09
1.21453e-09
1.21445e-09
1.21465e-09
1.21457e-09
1.21492e-09
1.2148e-09
1.21525e-09
1.21469e-09
1.21394e-09
1.21096e-09
1.20514e-09
1.19798e-09
1.15322e-09
1.16013e-09
1.16564e-09
1.16846e-09
1.16917e-09
1.16971e-09
1.16929e-09
1.16939e-09
1.16906e-09
1.16913e-09
1.16895e-09
1.16902e-09
1.1689e-09
1.16896e-09
1.16889e-09
1.16894e-09
1.16889e-09
1.16893e-09
1.16889e-09
1.16892e-09
1.1689e-09
1.16892e-09
1.1689e-09
1.16891e-09
1.16891e-09
1.16891e-09
1.16891e-09
1.1689e-09
1.16892e-09
1.1689e-09
1.16892e-09
1.16889e-09
1.16893e-09
1.16889e-09
1.16894e-09
1.16889e-09
1.16896e-09
1.1689e-09
1.16902e-09
1.16895e-09
1.16913e-09
1.16906e-09
1.16939e-09
1.16929e-09
1.16971e-09
1.16917e-09
1.16845e-09
1.16564e-09
1.16013e-09
1.15322e-09
1.11149e-09
1.11816e-09
1.12336e-09
1.12603e-09
1.12672e-09
1.12723e-09
1.12683e-09
1.12692e-09
1.12661e-09
1.12667e-09
1.1265e-09
1.12656e-09
1.12645e-09
1.12651e-09
1.12644e-09
1.12648e-09
1.12644e-09
1.12647e-09
1.12644e-09
1.12647e-09
1.12645e-09
1.12646e-09
1.12645e-09
1.12646e-09
1.12646e-09
1.12646e-09
1.12646e-09
1.12645e-09
1.12646e-09
1.12645e-09
1.12647e-09
1.12644e-09
1.12647e-09
1.12644e-09
1.12648e-09
1.12644e-09
1.12651e-09
1.12645e-09
1.12656e-09
1.1265e-09
1.12667e-09
1.12661e-09
1.12692e-09
1.12683e-09
1.12723e-09
1.12672e-09
1.12603e-09
1.12336e-09
1.11816e-09
1.11149e-09
1.07253e-09
1.07897e-09
1.08388e-09
1.0864e-09
1.08706e-09
1.08754e-09
1.08717e-09
1.08725e-09
1.08695e-09
1.08701e-09
1.08684e-09
1.0869e-09
1.0868e-09
1.08685e-09
1.08678e-09
1.08683e-09
1.08678e-09
1.08682e-09
1.08679e-09
1.08682e-09
1.0868e-09
1.08681e-09
1.0868e-09
1.08681e-09
1.0868e-09
1.0868e-09
1.08681e-09
1.0868e-09
1.08681e-09
1.0868e-09
1.08682e-09
1.08679e-09
1.08682e-09
1.08678e-09
1.08683e-09
1.08679e-09
1.08685e-09
1.0868e-09
1.0869e-09
1.08684e-09
1.08701e-09
1.08695e-09
1.08725e-09
1.08717e-09
1.08754e-09
1.08706e-09
1.0864e-09
1.08388e-09
1.07897e-09
1.07253e-09
1.0361e-09
1.04232e-09