/*--------------------------------*- C++ -*----------------------------------*\
| =========                 |                                                 |
| \\      /  F ield         | OpenFOAM: The Open Source CFD Toolbox           |
|  \\    /   O peration     | Version:  dev                                   |
|   \\  /    A nd           | Web:      www.OpenFOAM.org                      |
|    \\/     M anipulation  |                                                 |
\*---------------------------------------------------------------------------*/
FoamFile
{
    version     2.0;
    format      ascii;
    class       volScalarField;
    location    "0.1";
    object      A3C2H2;
}
// * * * * * * * * * * * * * * * * * * * * * * * * * * * * * * * * * * * * * //

dimensions      [0 0 0 0 0 0 0];

internalField   nonuniform List<scalar> 
8000
(
1.12786e-14
1.12498e-14
1.12256e-14
1.1211e-14
1.12094e-14
1.12052e-14
1.12064e-14
1.12045e-14
1.12058e-14
1.12047e-14
1.12056e-14
1.12049e-14
1.12055e-14
1.12051e-14
1.12055e-14
1.12052e-14
1.12055e-14
1.12052e-14
1.12054e-14
1.12053e-14
1.12054e-14
1.12053e-14
1.12054e-14
1.12054e-14
1.12054e-14
1.12054e-14
1.12054e-14
1.12054e-14
1.12053e-14
1.12054e-14
1.12053e-14
1.12054e-14
1.12052e-14
1.12055e-14
1.12052e-14
1.12055e-14
1.12051e-14
1.12055e-14
1.12049e-14
1.12056e-14
1.12047e-14
1.12058e-14
1.12045e-14
1.12064e-14
1.12052e-14
1.12094e-14
1.1211e-14
1.12256e-14
1.12498e-14
1.12786e-14
1.55604e-14
1.5524e-14
1.54975e-14
1.54803e-14
1.54787e-14
1.54735e-14
1.5475e-14
1.54727e-14
1.54742e-14
1.54728e-14
1.5474e-14
1.54731e-14
1.54739e-14
1.54733e-14
1.54738e-14
1.54734e-14
1.54738e-14
1.54735e-14
1.54738e-14
1.54736e-14
1.54738e-14
1.54737e-14
1.54738e-14
1.54737e-14
1.54737e-14
1.54737e-14
1.54737e-14
1.54738e-14
1.54737e-14
1.54738e-14
1.54736e-14
1.54738e-14
1.54735e-14
1.54738e-14
1.54734e-14
1.54739e-14
1.54733e-14
1.54739e-14
1.54731e-14
1.5474e-14
1.54728e-14
1.54742e-14
1.54727e-14
1.5475e-14
1.54735e-14
1.54787e-14
1.54803e-14
1.54975e-14
1.5524e-14
1.55604e-14
2.17647e-14
2.17183e-14
2.16862e-14
2.16642e-14
2.16614e-14
2.16549e-14
2.16565e-14
2.16537e-14
2.16555e-14
2.16539e-14
2.16553e-14
2.16542e-14
2.16552e-14
2.16545e-14
2.16551e-14
2.16547e-14
2.16551e-14
2.16548e-14
2.1655e-14
2.16549e-14
2.1655e-14
2.16549e-14
2.1655e-14
2.1655e-14
2.1655e-14
2.1655e-14
2.1655e-14
2.1655e-14
2.16549e-14
2.1655e-14
2.16549e-14
2.16551e-14
2.16548e-14
2.16551e-14
2.16547e-14
2.16551e-14
2.16545e-14
2.16552e-14
2.16542e-14
2.16553e-14
2.16539e-14
2.16555e-14
2.16537e-14
2.16565e-14
2.16549e-14
2.16614e-14
2.16642e-14
2.16862e-14
2.17183e-14
2.17647e-14
2.66814e-14
2.66266e-14
2.65883e-14
2.65612e-14
2.65562e-14
2.65488e-14
2.65499e-14
2.65471e-14
2.65488e-14
2.65473e-14
2.65486e-14
2.65476e-14
2.65485e-14
2.65479e-14
2.65485e-14
2.65481e-14
2.65485e-14
2.65482e-14
2.65485e-14
2.65483e-14
2.65485e-14
2.65484e-14
2.65485e-14
2.65484e-14
2.65484e-14
2.65484e-14
2.65484e-14
2.65485e-14
2.65484e-14
2.65485e-14
2.65483e-14
2.65485e-14
2.65482e-14
2.65485e-14
2.65481e-14
2.65485e-14
2.65479e-14
2.65485e-14
2.65476e-14
2.65486e-14
2.65473e-14
2.65488e-14
2.65471e-14
2.65499e-14
2.65488e-14
2.65562e-14
2.65612e-14
2.65883e-14
2.66266e-14
2.66814e-14
2.87502e-14
2.86931e-14
2.86541e-14
2.86244e-14
2.86171e-14
2.86098e-14
2.861e-14
2.86076e-14
2.86088e-14
2.86077e-14
2.86087e-14
2.8608e-14
2.86087e-14
2.86082e-14
2.86087e-14
2.86084e-14
2.86088e-14
2.86085e-14
2.86087e-14
2.86086e-14
2.86088e-14
2.86087e-14
2.86088e-14
2.86087e-14
2.86087e-14
2.86087e-14
2.86087e-14
2.86088e-14
2.86087e-14
2.86088e-14
2.86086e-14
2.86088e-14
2.86085e-14
2.86088e-14
2.86084e-14
2.86087e-14
2.86082e-14
2.86087e-14
2.8608e-14
2.86087e-14
2.86077e-14
2.86088e-14
2.86077e-14
2.861e-14
2.86098e-14
2.86171e-14
2.86244e-14
2.86541e-14
2.86931e-14
2.87502e-14
2.84876e-14
2.84348e-14
2.84021e-14
2.83731e-14
2.83643e-14
2.83577e-14
2.83569e-14
2.83552e-14
2.83557e-14
2.83551e-14
2.83557e-14
2.83553e-14
2.83558e-14
2.83555e-14
2.83558e-14
2.83557e-14
2.83559e-14
2.83558e-14
2.83559e-14
2.83558e-14
2.83559e-14
2.83559e-14
2.83559e-14
2.83559e-14
2.83559e-14
2.83559e-14
2.83559e-14
2.83559e-14
2.83559e-14
2.83559e-14
2.83558e-14
2.83559e-14
2.83558e-14
2.83559e-14
2.83557e-14
2.83558e-14
2.83555e-14
2.83557e-14
2.83553e-14
2.83557e-14
2.83551e-14
2.83557e-14
2.83552e-14
2.83569e-14
2.83577e-14
2.83642e-14
2.83731e-14
2.84021e-14
2.84348e-14
2.84876e-14
2.68071e-14
2.6763e-14
2.67412e-14
2.67157e-14
2.67059e-14
2.67006e-14
2.66987e-14
2.66979e-14
2.66976e-14
2.66976e-14
2.66977e-14
2.66977e-14
2.66978e-14
2.66979e-14
2.6698e-14
2.6698e-14
2.6698e-14
2.66981e-14
2.66981e-14
2.66981e-14
2.66981e-14
2.66981e-14
2.66981e-14
2.66981e-14
2.66981e-14
2.66981e-14
2.66981e-14
2.66981e-14
2.66981e-14
2.66981e-14
2.66981e-14
2.66981e-14
2.66981e-14
2.6698e-14
2.6698e-14
2.6698e-14
2.66979e-14
2.66978e-14
2.66977e-14
2.66977e-14
2.66976e-14
2.66976e-14
2.66979e-14
2.66987e-14
2.67006e-14
2.67059e-14
2.67157e-14
2.67412e-14
2.6763e-14
2.68071e-14
2.44163e-14
2.43829e-14
2.43738e-14
2.43532e-14
2.43432e-14
2.43394e-14
2.43365e-14
2.43366e-14
2.43355e-14
2.43361e-14
2.43357e-14
2.43361e-14
2.43359e-14
2.43362e-14
2.4336e-14
2.43363e-14
2.43362e-14
2.43363e-14
2.43362e-14
2.43363e-14
2.43363e-14
2.43363e-14
2.43363e-14
2.43363e-14
2.43363e-14
2.43363e-14
2.43363e-14
2.43363e-14
2.43363e-14
2.43363e-14
2.43363e-14
2.43362e-14
2.43363e-14
2.43362e-14
2.43363e-14
2.4336e-14
2.43362e-14
2.43359e-14
2.43361e-14
2.43357e-14
2.43361e-14
2.43355e-14
2.43366e-14
2.43365e-14
2.43394e-14
2.43432e-14
2.43532e-14
2.43738e-14
2.43829e-14
2.44163e-14
2.17862e-14
2.17636e-14
2.1767e-14
2.17517e-14
2.17421e-14
2.17397e-14
2.17361e-14
2.17368e-14
2.17352e-14
2.17363e-14
2.17354e-14
2.17362e-14
2.17357e-14
2.17362e-14
2.17358e-14
2.17362e-14
2.1736e-14
2.17362e-14
2.17361e-14
2.17362e-14
2.17361e-14
2.17362e-14
2.17362e-14
2.17362e-14
2.17362e-14
2.17362e-14
2.17362e-14
2.17362e-14
2.17362e-14
2.17361e-14
2.17362e-14
2.17361e-14
2.17362e-14
2.1736e-14
2.17362e-14
2.17358e-14
2.17362e-14
2.17357e-14
2.17362e-14
2.17354e-14
2.17363e-14
2.17352e-14
2.17369e-14
2.17361e-14
2.17397e-14
2.17421e-14
2.17517e-14
2.1767e-14
2.17636e-14
2.17862e-14
1.92073e-14
1.91949e-14
1.9209e-14
1.9199e-14
1.91901e-14
1.91889e-14
1.91848e-14
1.91862e-14
1.9184e-14
1.91855e-14
1.91843e-14
1.91853e-14
1.91846e-14
1.91852e-14
1.91848e-14
1.91852e-14
1.91849e-14
1.91852e-14
1.9185e-14
1.91852e-14
1.91851e-14
1.91852e-14
1.91851e-14
1.91852e-14
1.91851e-14
1.91851e-14
1.91852e-14
1.91851e-14
1.91852e-14
1.91851e-14
1.91852e-14
1.9185e-14
1.91852e-14
1.91849e-14
1.91852e-14
1.91848e-14
1.91852e-14
1.91846e-14
1.91853e-14
1.91843e-14
1.91855e-14
1.9184e-14
1.91862e-14
1.91848e-14
1.91889e-14
1.91901e-14
1.9199e-14
1.9209e-14
1.91949e-14
1.92073e-14
1.68261e-14
1.68225e-14
1.68455e-14
1.68402e-14
1.68323e-14
1.6832e-14
1.68277e-14
1.68294e-14
1.68269e-14
1.68286e-14
1.68272e-14
1.68284e-14
1.68275e-14
1.68283e-14
1.68277e-14
1.68283e-14
1.68278e-14
1.68282e-14
1.6828e-14
1.68282e-14
1.6828e-14
1.68282e-14
1.68281e-14
1.68281e-14
1.68281e-14
1.68281e-14
1.68281e-14
1.68281e-14
1.68282e-14
1.6828e-14
1.68282e-14
1.6828e-14
1.68282e-14
1.68278e-14
1.68283e-14
1.68277e-14
1.68283e-14
1.68275e-14
1.68284e-14
1.68272e-14
1.68286e-14
1.68269e-14
1.68294e-14
1.68277e-14
1.6832e-14
1.68323e-14
1.68402e-14
1.68455e-14
1.68225e-14
1.68261e-14
1.46219e-14
1.46249e-14
1.46526e-14
1.46509e-14
1.4644e-14
1.46444e-14
1.46401e-14
1.4642e-14
1.46394e-14
1.46412e-14
1.46397e-14
1.46409e-14
1.464e-14
1.46408e-14
1.46402e-14
1.46407e-14
1.46403e-14
1.46407e-14
1.46404e-14
1.46406e-14
1.46405e-14
1.46406e-14
1.46405e-14
1.46406e-14
1.46406e-14
1.46406e-14
1.46406e-14
1.46405e-14
1.46406e-14
1.46405e-14
1.46406e-14
1.46404e-14
1.46407e-14
1.46403e-14
1.46407e-14
1.46402e-14
1.46408e-14
1.464e-14
1.46409e-14
1.46397e-14
1.46412e-14
1.46394e-14
1.4642e-14
1.46401e-14
1.46444e-14
1.4644e-14
1.46509e-14
1.46526e-14
1.46249e-14
1.46219e-14
1.27764e-14
1.27855e-14
1.28178e-14
1.28194e-14
1.28135e-14
1.28146e-14
1.28101e-14
1.28122e-14
1.28095e-14
1.28114e-14
1.28098e-14
1.28111e-14
1.28101e-14
1.28109e-14
1.28103e-14
1.28109e-14
1.28104e-14
1.28108e-14
1.28105e-14
1.28108e-14
1.28106e-14
1.28107e-14
1.28106e-14
1.28107e-14
1.28107e-14
1.28107e-14
1.28107e-14
1.28106e-14
1.28107e-14
1.28106e-14
1.28108e-14
1.28105e-14
1.28108e-14
1.28104e-14
1.28109e-14
1.28103e-14
1.28109e-14
1.28101e-14
1.28111e-14
1.28098e-14
1.28114e-14
1.28095e-14
1.28122e-14
1.28101e-14
1.28145e-14
1.28135e-14
1.28194e-14
1.28179e-14
1.27855e-14
1.27764e-14
1.11858e-14
1.11927e-14
1.1222e-14
1.12244e-14
1.12204e-14
1.12213e-14
1.12177e-14
1.12194e-14
1.12171e-14
1.12186e-14
1.12173e-14
1.12184e-14
1.12175e-14
1.12182e-14
1.12177e-14
1.12181e-14
1.12178e-14
1.12181e-14
1.12179e-14
1.12181e-14
1.12179e-14
1.1218e-14
1.12179e-14
1.1218e-14
1.1218e-14
1.1218e-14
1.1218e-14
1.12179e-14
1.1218e-14
1.12179e-14
1.12181e-14
1.12179e-14
1.12181e-14
1.12178e-14
1.12182e-14
1.12177e-14
1.12182e-14
1.12175e-14
1.12183e-14
1.12173e-14
1.12186e-14
1.12171e-14
1.12194e-14
1.12177e-14
1.12213e-14
1.12204e-14
1.12244e-14
1.1222e-14
1.11927e-14
1.11858e-14
9.78957e-15
9.79941e-15
9.82879e-15
9.8327e-15
9.82952e-15
9.8306e-15
9.82724e-15
9.82882e-15
9.82668e-15
9.82809e-15
9.82683e-15
9.82784e-15
9.82703e-15
9.82769e-15
9.82717e-15
9.82763e-15
9.82725e-15
9.82759e-15
9.82735e-15
9.82755e-15
9.8274e-15
9.82752e-15
9.82743e-15
9.82749e-15
9.82747e-15
9.82747e-15
9.82749e-15
9.82743e-15
9.82752e-15
9.8274e-15
9.82755e-15
9.82735e-15
9.82759e-15
9.82726e-15
9.82764e-15
9.82717e-15
9.8277e-15
9.82703e-15
9.82784e-15
9.82684e-15
9.8281e-15
9.82668e-15
9.82882e-15
9.82724e-15
9.8306e-15
9.82952e-15
9.8327e-15
9.82879e-15
9.7994e-15
9.78957e-15
8.65049e-15
8.66296e-15
8.69265e-15
8.69792e-15
8.69547e-15
8.69675e-15
8.69356e-15
8.69511e-15
8.69304e-15
8.69439e-15
8.69317e-15
8.69413e-15
8.69335e-15
8.69399e-15
8.69347e-15
8.69392e-15
8.69355e-15
8.69388e-15
8.69365e-15
8.69384e-15
8.69369e-15
8.69381e-15
8.69372e-15
8.69378e-15
8.69376e-15
8.69376e-15
8.69378e-15
8.69372e-15
8.69381e-15
8.69369e-15
8.69384e-15
8.69365e-15
8.69388e-15
8.69355e-15
8.69392e-15
8.69347e-15
8.69399e-15
8.69335e-15
8.69413e-15
8.69317e-15
8.69439e-15
8.69303e-15
8.69511e-15
8.69357e-15
8.69674e-15
8.69547e-15
8.69793e-15
8.69266e-15
8.66296e-15
8.65049e-15
7.65241e-15
7.66845e-15
7.69955e-15
7.70699e-15
7.7056e-15
7.70722e-15
7.70422e-15
7.70573e-15
7.7037e-15
7.70499e-15
7.70378e-15
7.70471e-15
7.70394e-15
7.70455e-15
7.70404e-15
7.70447e-15
7.70411e-15
7.70443e-15
7.7042e-15
7.70439e-15
7.70424e-15
7.70435e-15
7.70427e-15
7.70433e-15
7.7043e-15
7.7043e-15
7.70433e-15
7.70427e-15
7.70436e-15
7.70424e-15
7.70439e-15
7.7042e-15
7.70443e-15
7.70411e-15
7.70448e-15
7.70404e-15
7.70455e-15
7.70394e-15
7.70471e-15
7.70379e-15
7.70499e-15
7.70369e-15
7.70573e-15
7.70422e-15
7.70721e-15
7.7056e-15
7.70699e-15
7.69955e-15
7.66845e-15
7.65241e-15
6.83336e-15
6.85097e-15
6.88123e-15
6.88932e-15
6.88849e-15
6.89016e-15
6.88737e-15
6.88879e-15
6.88687e-15
6.88808e-15
6.88694e-15
6.8878e-15
6.88707e-15
6.88764e-15
6.88717e-15
6.88757e-15
6.88723e-15
6.88753e-15
6.88731e-15
6.88749e-15
6.88735e-15
6.88745e-15
6.88737e-15
6.88743e-15
6.8874e-15
6.8874e-15
6.88743e-15
6.88737e-15
6.88746e-15
6.88735e-15
6.88749e-15
6.88731e-15
6.88753e-15
6.88723e-15
6.88757e-15
6.88716e-15
6.88764e-15
6.88707e-15
6.8878e-15
6.88694e-15
6.88808e-15
6.88687e-15
6.88879e-15
6.88737e-15
6.89016e-15
6.88849e-15
6.88932e-15
6.88123e-15
6.85097e-15
6.83337e-15
6.10938e-15
6.12985e-15
6.16102e-15
6.1705e-15
6.17003e-15
6.17195e-15
6.16915e-15
6.17062e-15
6.16867e-15
6.1699e-15
6.16873e-15
6.16962e-15
6.16887e-15
6.16945e-15
6.16896e-15
6.16937e-15
6.16902e-15
6.16933e-15
6.1691e-15
6.16929e-15
6.16914e-15
6.16925e-15
6.16917e-15
6.16922e-15
6.1692e-15
6.1692e-15
6.16922e-15
6.16917e-15
6.16925e-15
6.16914e-15
6.16929e-15
6.1691e-15
6.16933e-15
6.16902e-15
6.16938e-15
6.16896e-15
6.16945e-15
6.16887e-15
6.16961e-15
6.16874e-15
6.1699e-15
6.16866e-15
6.17062e-15
6.16915e-15
6.17194e-15
6.17002e-15
6.1705e-15
6.16102e-15
6.12985e-15
6.10938e-15
5.48793e-15
5.5092e-15
5.53846e-15
5.54797e-15
5.54786e-15
5.54971e-15
5.54715e-15
5.5485e-15
5.54669e-15
5.54781e-15
5.54673e-15
5.54754e-15
5.54685e-15
5.54738e-15
5.54693e-15
5.54731e-15
5.54698e-15
5.54727e-15
5.54706e-15
5.54723e-15
5.5471e-15
5.5472e-15
5.54712e-15
5.54717e-15
5.54715e-15
5.54715e-15
5.54717e-15
5.54712e-15
5.5472e-15
5.5471e-15
5.54723e-15
5.54706e-15
5.54726e-15
5.54698e-15
5.54731e-15
5.54693e-15
5.54738e-15
5.54685e-15
5.54754e-15
5.54674e-15
5.54781e-15
5.54669e-15
5.5485e-15
5.54715e-15
5.54971e-15
5.54786e-15
5.54797e-15
5.53846e-15
5.5092e-15
5.48793e-15
4.97175e-15
4.99412e-15
5.02205e-15
5.03167e-15
5.03187e-15
5.0337e-15
5.03131e-15
5.03257e-15
5.03086e-15
5.0319e-15
5.03089e-15
5.03164e-15
5.03099e-15
5.03149e-15
5.03107e-15
5.03142e-15
5.03111e-15
5.03138e-15
5.03119e-15
5.03134e-15
5.03122e-15
5.03131e-15
5.03124e-15
5.03129e-15
5.03127e-15
5.03127e-15
5.03129e-15
5.03124e-15
5.03131e-15
5.03122e-15
5.03134e-15
5.03119e-15
5.03138e-15
5.03111e-15
5.03142e-15
5.03106e-15
5.03149e-15
5.03099e-15
5.03164e-15
5.0309e-15
5.03191e-15
5.03086e-15
5.03257e-15
5.03131e-15
5.0337e-15
5.03187e-15
5.03167e-15
5.02204e-15
4.99412e-15
4.97175e-15
4.52447e-15
4.54799e-15
4.57461e-15
4.58426e-15
4.5847e-15
4.58651e-15
4.58427e-15
4.58545e-15
4.58384e-15
4.58481e-15
4.58385e-15
4.58455e-15
4.58394e-15
4.5844e-15
4.584e-15
4.58434e-15
4.58405e-15
4.5843e-15
4.58412e-15
4.58426e-15
4.58415e-15
4.58423e-15
4.58417e-15
4.58421e-15
4.58419e-15
4.58419e-15
4.58421e-15
4.58417e-15
4.58424e-15
4.58415e-15
4.58426e-15
4.58411e-15
4.5843e-15
4.58405e-15
4.58434e-15
4.584e-15
4.58441e-15
4.58394e-15
4.58455e-15
4.58386e-15
4.58481e-15
4.58383e-15
4.58545e-15
4.58427e-15
4.58651e-15
4.5847e-15
4.58426e-15
4.57461e-15
4.54799e-15
4.52447e-15
4.13469e-15
4.148e-15
4.17193e-15
4.18113e-15
4.18204e-15
4.18377e-15
4.18183e-15
4.18284e-15
4.18139e-15
4.1822e-15
4.18135e-15
4.18194e-15
4.18139e-15
4.18179e-15
4.18143e-15
4.18171e-15
4.18146e-15
4.18167e-15
4.18151e-15
4.18164e-15
4.18154e-15
4.18161e-15
4.18155e-15
4.18159e-15
4.18158e-15
4.18158e-15
4.18159e-15
4.18155e-15
4.18162e-15
4.18154e-15
4.18164e-15
4.18151e-15
4.18167e-15
4.18146e-15
4.18172e-15
4.18143e-15
4.18179e-15
4.18139e-15
4.18194e-15
4.18135e-15
4.18221e-15
4.18138e-15
4.18284e-15
4.18183e-15
4.18377e-15
4.18204e-15
4.18113e-15
4.17193e-15
4.148e-15
4.13469e-15
3.79324e-15
3.80703e-15
3.82968e-15
3.83875e-15
3.83982e-15
3.84152e-15
3.8397e-15
3.84064e-15
3.83927e-15
3.84002e-15
3.83922e-15
3.83977e-15
3.83925e-15
3.83962e-15
3.83928e-15
3.83955e-15
3.83931e-15
3.83951e-15
3.83936e-15
3.83948e-15
3.83938e-15
3.83945e-15
3.83939e-15
3.83943e-15
3.83941e-15
3.83941e-15
3.83943e-15
3.83939e-15
3.83945e-15
3.83938e-15
3.83948e-15
3.83936e-15
3.83951e-15
3.83931e-15
3.83955e-15
3.83928e-15
3.83962e-15
3.83925e-15
3.83976e-15
3.83922e-15
3.84003e-15
3.83927e-15
3.84064e-15
3.8397e-15
3.84151e-15
3.83982e-15
3.83875e-15
3.82968e-15
3.80703e-15
3.79324e-15
3.481e-15
3.49535e-15
3.51731e-15
3.52658e-15
3.52789e-15
3.52962e-15
3.5279e-15
3.52878e-15
3.52747e-15
3.52817e-15
3.5274e-15
3.52791e-15
3.52741e-15
3.52776e-15
3.52744e-15
3.52769e-15
3.52746e-15
3.52765e-15
3.52751e-15
3.52762e-15
3.52753e-15
3.5276e-15
3.52754e-15
3.52758e-15
3.52756e-15
3.52756e-15
3.52758e-15
3.52754e-15
3.5276e-15
3.52753e-15
3.52762e-15
3.52751e-15
3.52765e-15
3.52746e-15
3.52769e-15
3.52744e-15
3.52776e-15
3.52741e-15
3.52791e-15
3.5274e-15
3.52817e-15
3.52746e-15
3.52878e-15
3.5279e-15
3.52962e-15
3.52789e-15
3.52658e-15
3.51731e-15
3.49535e-15
3.481e-15
3.20415e-15
3.21853e-15
3.23908e-15
3.24803e-15
3.24943e-15
3.25108e-15
3.24949e-15
3.2503e-15
3.24907e-15
3.24971e-15
3.24899e-15
3.24946e-15
3.24899e-15
3.24931e-15
3.24901e-15
3.24924e-15
3.24903e-15
3.24921e-15
3.24907e-15
3.24918e-15
3.24909e-15
3.24916e-15
3.2491e-15
3.24914e-15
3.24912e-15
3.24912e-15
3.24914e-15
3.2491e-15
3.24916e-15
3.24909e-15
3.24918e-15
3.24907e-15
3.24921e-15
3.24903e-15
3.24925e-15
3.24901e-15
3.24931e-15
3.24899e-15
3.24946e-15
3.24899e-15
3.24971e-15
3.24907e-15
3.2503e-15
3.24949e-15
3.25108e-15
3.24942e-15
3.24803e-15
3.23908e-15
3.21853e-15
3.20415e-15
2.95748e-15
2.97182e-15
2.99103e-15
2.99965e-15
3.0011e-15
3.00269e-15
3.00121e-15
3.00195e-15
3.0008e-15
3.00138e-15
3.00071e-15
3.00114e-15
3.00071e-15
3.001e-15
3.00072e-15
3.00093e-15
3.00073e-15
3.0009e-15
3.00077e-15
3.00087e-15
3.00079e-15
3.00085e-15
3.0008e-15
3.00083e-15
3.00082e-15
3.00082e-15
3.00083e-15
3.0008e-15
3.00085e-15
3.00079e-15
3.00087e-15
3.00077e-15
3.0009e-15
3.00073e-15
3.00094e-15
3.00072e-15
3.001e-15
3.00071e-15
3.00114e-15
3.00071e-15
3.00138e-15
3.0008e-15
3.00195e-15
3.00121e-15
3.00268e-15
3.0011e-15
2.99965e-15
2.99103e-15
2.97182e-15
2.95748e-15
2.73673e-15
2.75093e-15
2.76892e-15
2.77718e-15
2.77867e-15
2.78019e-15
2.77882e-15
2.77949e-15
2.77841e-15
2.77894e-15
2.77831e-15
2.77871e-15
2.7783e-15
2.77857e-15
2.77831e-15
2.77851e-15
2.77832e-15
2.77848e-15
2.77836e-15
2.77845e-15
2.77837e-15
2.77843e-15
2.77838e-15
2.77841e-15
2.7784e-15
2.7784e-15
2.77841e-15
2.77838e-15
2.77843e-15
2.77837e-15
2.77845e-15
2.77836e-15
2.77848e-15
2.77832e-15
2.77851e-15
2.77831e-15
2.77857e-15
2.7783e-15
2.7787e-15
2.77832e-15
2.77894e-15
2.77841e-15
2.77949e-15
2.77882e-15
2.78018e-15
2.77867e-15
2.77718e-15
2.76892e-15
2.75093e-15
2.73673e-15
2.53838e-15
2.55235e-15
2.56923e-15
2.57711e-15
2.57862e-15
2.58007e-15
2.5788e-15
2.57941e-15
2.57841e-15
2.57889e-15
2.5783e-15
2.57865e-15
2.57828e-15
2.57853e-15
2.57828e-15
2.57846e-15
2.57829e-15
2.57843e-15
2.57832e-15
2.57841e-15
2.57834e-15
2.57839e-15
2.57835e-15
2.57837e-15
2.57836e-15
2.57836e-15
2.57837e-15
2.57835e-15
2.57839e-15
2.57834e-15
2.57841e-15
2.57832e-15
2.57843e-15
2.57829e-15
2.57847e-15
2.57828e-15
2.57853e-15
2.57828e-15
2.57865e-15
2.5783e-15
2.57889e-15
2.5784e-15
2.57941e-15
2.5788e-15
2.58007e-15
2.57862e-15
2.57711e-15
2.56923e-15
2.55234e-15
2.53838e-15
2.3595e-15
2.37318e-15
2.38904e-15
2.39655e-15
2.39806e-15
2.39944e-15
2.39825e-15
2.39881e-15
2.39787e-15
2.39831e-15
2.39776e-15
2.39808e-15
2.39773e-15
2.39796e-15
2.39773e-15
2.3979e-15
2.39774e-15
2.39787e-15
2.39777e-15
2.39785e-15
2.39778e-15
2.39783e-15
2.39779e-15
2.39781e-15
2.3978e-15
2.3978e-15
2.39781e-15
2.39779e-15
2.39783e-15
2.39778e-15
2.39785e-15
2.39777e-15
2.39787e-15
2.39774e-15
2.3979e-15
2.39773e-15
2.39796e-15
2.39773e-15
2.39808e-15
2.39776e-15
2.39831e-15
2.39787e-15
2.39881e-15
2.39826e-15
2.39944e-15
2.39806e-15
2.39655e-15
2.38904e-15
2.37318e-15
2.3595e-15
2.19768e-15
2.21102e-15
2.22592e-15
2.23305e-15
2.23455e-15
2.23587e-15
2.23476e-15
2.23527e-15
2.23439e-15
2.23478e-15
2.23427e-15
2.23457e-15
2.23424e-15
2.23445e-15
2.23423e-15
2.23439e-15
2.23424e-15
2.23436e-15
2.23426e-15
2.23434e-15
2.23428e-15
2.23432e-15
2.23428e-15
2.23431e-15
2.2343e-15
2.2343e-15
2.23431e-15
2.23428e-15
2.23432e-15
2.23428e-15
2.23434e-15
2.23426e-15
2.23436e-15
2.23424e-15
2.23439e-15
2.23423e-15
2.23445e-15
2.23424e-15
2.23457e-15
2.23427e-15
2.23478e-15
2.23439e-15
2.23527e-15
2.23476e-15
2.23587e-15
2.23455e-15
2.23305e-15
2.22592e-15
2.21102e-15
2.19768e-15
2.05085e-15
2.06382e-15
2.07782e-15
2.08459e-15
2.08607e-15
2.08733e-15
2.08629e-15
2.08675e-15
2.08593e-15
2.08628e-15
2.0858e-15
2.08607e-15
2.08576e-15
2.08595e-15
2.08575e-15
2.0859e-15
2.08576e-15
2.08587e-15
2.08578e-15
2.08585e-15
2.08579e-15
2.08583e-15
2.0858e-15
2.08582e-15
2.08581e-15
2.08581e-15
2.08582e-15
2.0858e-15
2.08583e-15
2.08579e-15
2.08585e-15
2.08578e-15
2.08587e-15
2.08576e-15
2.0859e-15
2.08576e-15
2.08595e-15
2.08576e-15
2.08607e-15
2.0858e-15
2.08628e-15
2.08593e-15
2.08675e-15
2.08629e-15
2.08732e-15
2.08607e-15
2.08459e-15
2.07782e-15
2.06382e-15
2.05086e-15
1.9173e-15
1.92986e-15
1.94302e-15
1.94944e-15
1.95089e-15
1.95208e-15
1.95111e-15
1.95153e-15
1.95076e-15
1.95108e-15
1.95063e-15
1.95087e-15
1.95058e-15
1.95076e-15
1.95057e-15
1.9507e-15
1.95057e-15
1.95068e-15
1.95059e-15
1.95066e-15
1.9506e-15
1.95064e-15
1.95061e-15
1.95063e-15
1.95062e-15
1.95062e-15
1.95063e-15
1.95061e-15
1.95064e-15
1.9506e-15
1.95066e-15
1.95059e-15
1.95068e-15
1.95057e-15
1.9507e-15
1.95057e-15
1.95076e-15
1.95058e-15
1.95087e-15
1.95063e-15
1.95108e-15
1.95076e-15
1.95153e-15
1.95111e-15
1.95208e-15
1.95089e-15
1.94944e-15
1.94302e-15
1.92986e-15
1.9173e-15
1.79555e-15
1.80768e-15
1.82004e-15
1.82612e-15
1.82753e-15
1.82866e-15
1.82775e-15
1.82813e-15
1.82741e-15
1.82769e-15
1.82727e-15
1.82749e-15
1.82723e-15
1.82738e-15
1.82721e-15
1.82733e-15
1.82721e-15
1.82731e-15
1.82723e-15
1.82729e-15
1.82724e-15
1.82727e-15
1.82724e-15
1.82726e-15
1.82725e-15
1.82725e-15
1.82726e-15
1.82724e-15
1.82727e-15
1.82724e-15
1.82729e-15
1.82723e-15
1.82731e-15
1.82721e-15
1.82733e-15
1.82721e-15
1.82738e-15
1.82723e-15
1.82749e-15
1.82727e-15
1.82769e-15
1.82741e-15
1.82813e-15
1.82775e-15
1.82866e-15
1.82753e-15
1.82612e-15
1.82004e-15
1.80768e-15
1.79555e-15
1.68431e-15
1.69599e-15
1.70761e-15
1.71336e-15
1.71473e-15
1.7158e-15
1.71495e-15
1.7153e-15
1.71461e-15
1.71487e-15
1.71447e-15
1.71468e-15
1.71442e-15
1.71457e-15
1.71441e-15
1.71452e-15
1.7144e-15
1.71449e-15
1.71442e-15
1.71448e-15
1.71443e-15
1.71446e-15
1.71443e-15
1.71445e-15
1.71444e-15
1.71444e-15
1.71445e-15
1.71443e-15
1.71446e-15
1.71443e-15
1.71448e-15
1.71442e-15
1.71449e-15
1.7144e-15
1.71452e-15
1.71441e-15
1.71457e-15
1.71442e-15
1.71467e-15
1.71448e-15
1.71487e-15
1.71461e-15
1.7153e-15
1.71495e-15
1.7158e-15
1.71473e-15
1.71336e-15
1.70761e-15
1.69599e-15
1.68431e-15
1.58251e-15
1.59372e-15
1.60464e-15
1.61008e-15
1.61139e-15
1.61241e-15
1.61161e-15
1.61192e-15
1.61128e-15
1.61151e-15
1.61114e-15
1.61132e-15
1.61109e-15
1.61122e-15
1.61107e-15
1.61117e-15
1.61106e-15
1.61115e-15
1.61108e-15
1.61113e-15
1.61108e-15
1.61112e-15
1.61109e-15
1.61111e-15
1.6111e-15
1.6111e-15
1.61111e-15
1.61109e-15
1.61112e-15
1.61109e-15
1.61113e-15
1.61108e-15
1.61115e-15
1.61106e-15
1.61117e-15
1.61107e-15
1.61122e-15
1.61109e-15
1.61132e-15
1.61114e-15
1.61151e-15
1.61128e-15
1.61192e-15
1.61161e-15
1.61241e-15
1.61139e-15
1.61008e-15
1.60464e-15
1.59372e-15
1.58251e-15
1.48917e-15
1.4999e-15
1.51017e-15
1.5153e-15
1.51657e-15
1.51753e-15
1.51678e-15
1.51706e-15
1.51646e-15
1.51666e-15
1.51631e-15
1.51648e-15
1.51625e-15
1.51638e-15
1.51623e-15
1.51633e-15
1.51623e-15
1.51631e-15
1.51624e-15
1.51629e-15
1.51625e-15
1.51628e-15
1.51625e-15
1.51627e-15
1.51626e-15
1.51626e-15
1.51627e-15
1.51625e-15
1.51628e-15
1.51625e-15
1.51629e-15
1.51624e-15
1.51631e-15
1.51623e-15
1.51633e-15
1.51623e-15
1.51638e-15
1.51625e-15
1.51648e-15
1.51631e-15
1.51666e-15
1.51646e-15
1.51706e-15
1.51678e-15
1.51753e-15
1.51657e-15
1.5153e-15
1.51017e-15
1.49989e-15
1.48917e-15
1.40347e-15
1.41369e-15
1.42336e-15
1.42821e-15
1.42941e-15
1.43032e-15
1.42962e-15
1.42987e-15
1.4293e-15
1.42948e-15
1.42915e-15
1.4293e-15
1.42909e-15
1.42921e-15
1.42907e-15
1.42916e-15
1.42907e-15
1.42914e-15
1.42908e-15
1.42912e-15
1.42908e-15
1.42911e-15
1.42909e-15
1.4291e-15
1.42909e-15
1.42909e-15
1.4291e-15
1.42909e-15
1.42911e-15
1.42908e-15
1.42912e-15
1.42908e-15
1.42914e-15
1.42907e-15
1.42916e-15
1.42907e-15
1.42921e-15
1.42909e-15
1.4293e-15
1.42915e-15
1.42948e-15
1.4293e-15
1.42987e-15
1.42962e-15
1.43032e-15
1.42941e-15
1.4282e-15
1.42335e-15
1.41369e-15
1.40347e-15
1.32466e-15
1.33436e-15
1.34347e-15
1.34804e-15
1.34919e-15
1.35005e-15
1.34939e-15
1.34961e-15
1.34908e-15
1.34924e-15
1.34893e-15
1.34906e-15
1.34887e-15
1.34897e-15
1.34884e-15
1.34892e-15
1.34884e-15
1.3489e-15
1.34885e-15
1.34889e-15
1.34885e-15
1.34888e-15
1.34885e-15
1.34887e-15
1.34886e-15
1.34886e-15
1.34887e-15
1.34886e-15
1.34888e-15
1.34885e-15
1.34889e-15
1.34885e-15
1.3489e-15
1.34884e-15
1.34892e-15
1.34884e-15
1.34897e-15
1.34887e-15
1.34906e-15
1.34893e-15
1.34924e-15
1.34908e-15
1.34961e-15
1.34939e-15
1.35005e-15
1.34919e-15
1.34804e-15
1.34347e-15
1.33436e-15
1.32466e-15
1.25207e-15
1.26127e-15
1.26985e-15
1.27416e-15
1.27526e-15
1.27606e-15
1.27544e-15
1.27564e-15
1.27513e-15
1.27528e-15
1.27498e-15
1.27511e-15
1.27492e-15
1.27501e-15
1.2749e-15
1.27497e-15
1.27489e-15
1.27495e-15
1.2749e-15
1.27494e-15
1.2749e-15
1.27492e-15
1.2749e-15
1.27492e-15
1.27491e-15
1.27491e-15
1.27492e-15
1.2749e-15
1.27493e-15
1.2749e-15
1.27494e-15
1.2749e-15
1.27495e-15
1.27489e-15
1.27497e-15
1.2749e-15
1.27501e-15
1.27492e-15
1.2751e-15
1.27499e-15
1.27528e-15
1.27513e-15
1.27564e-15
1.27544e-15
1.27606e-15
1.27526e-15
1.27416e-15
1.26985e-15
1.26127e-15
1.25207e-15
1.18511e-15
1.19386e-15
1.20191e-15
1.20598e-15
1.20702e-15
1.20778e-15
1.20719e-15
1.20736e-15
1.20689e-15
1.20701e-15
1.20674e-15
1.20685e-15
1.20667e-15
1.20676e-15
1.20665e-15
1.20671e-15
1.20664e-15
1.2067e-15
1.20665e-15
1.20668e-15
1.20665e-15
1.20667e-15
1.20665e-15
1.20666e-15
1.20666e-15
1.20666e-15
1.20666e-15
1.20665e-15
1.20667e-15
1.20665e-15
1.20668e-15
1.20665e-15
1.2067e-15
1.20664e-15
1.20672e-15
1.20665e-15
1.20676e-15
1.20667e-15
1.20685e-15
1.20674e-15
1.20701e-15
1.20689e-15
1.20736e-15
1.20719e-15
1.20777e-15
1.20702e-15
1.20598e-15
1.20191e-15
1.19386e-15
1.18511e-15
1.12326e-15
1.1316e-15
1.13915e-15
1.14297e-15
1.14396e-15
1.14467e-15
1.14411e-15
1.14427e-15
1.14382e-15
1.14393e-15
1.14367e-15
1.14377e-15
1.14361e-15
1.14368e-15
1.14358e-15
1.14364e-15
1.14357e-15
1.14362e-15
1.14358e-15
1.14361e-15
1.14358e-15
1.1436e-15
1.14358e-15
1.14359e-15
1.14359e-15
1.14359e-15
1.14359e-15
1.14358e-15
1.1436e-15
1.14358e-15
1.14361e-15
1.14358e-15
1.14362e-15
1.14357e-15
1.14364e-15
1.14358e-15
1.14368e-15
1.14361e-15
1.14377e-15
1.14367e-15
1.14393e-15
1.14382e-15
1.14427e-15
1.14411e-15
1.14467e-15
1.14396e-15
1.14297e-15
1.13915e-15
1.1316e-15
1.12326e-15
1.06607e-15
1.07402e-15
1.08108e-15
1.08468e-15
1.08562e-15
1.08628e-15
1.08576e-15
1.08589e-15
1.08547e-15
1.08557e-15
1.08532e-15
1.08541e-15
1.08525e-15
1.08532e-15
1.08523e-15
1.08528e-15
1.08522e-15
1.08527e-15
1.08522e-15
1.08525e-15
1.08522e-15
1.08524e-15
1.08523e-15
1.08524e-15
1.08523e-15
1.08523e-15
1.08524e-15
1.08523e-15
1.08524e-15
1.08523e-15
1.08525e-15
1.08522e-15
1.08527e-15
1.08522e-15
1.08528e-15
1.08523e-15
1.08532e-15
1.08525e-15
1.08541e-15
1.08532e-15
1.08557e-15
1.08547e-15
1.08589e-15
1.08576e-15
1.08628e-15
1.08562e-15
1.08468e-15
1.08108e-15
1.07402e-15
1.06607e-15
1.01312e-15
1.02072e-15
1.02731e-15
1.0307e-15
1.03158e-15
1.0322e-15
1.0317e-15
1.03182e-15
1.03142e-15
1.0315e-15
1.03127e-15
1.03135e-15
1.0312e-15
1.03127e-15
1.03117e-15
1.03123e-15
1.03116e-15
1.03121e-15
1.03117e-15
1.0312e-15
1.03117e-15
1.03119e-15
1.03117e-15
1.03118e-15
1.03118e-15
1.03118e-15
1.03118e-15
1.03117e-15
1.03119e-15
1.03117e-15
1.0312e-15
1.03117e-15
1.03121e-15
1.03116e-15
1.03123e-15
1.03117e-15
1.03127e-15
1.0312e-15
1.03135e-15
1.03127e-15
1.0315e-15
1.03142e-15
1.03182e-15
1.0317e-15
1.0322e-15
1.03157e-15
1.03069e-15
1.02731e-15
1.02072e-15
1.01312e-15
9.64037e-16
9.71292e-16
9.77457e-16
9.80631e-16
9.81457e-16
9.8204e-16
9.8157e-16
9.81671e-16
9.81294e-16
9.81363e-16
9.81143e-16
9.81211e-16
9.81074e-16
9.81132e-16
9.81044e-16
9.81094e-16
9.81034e-16
9.81077e-16
9.81039e-16
9.81066e-16
9.81041e-16
9.81057e-16
9.81042e-16
9.81051e-16
9.81047e-16
9.81047e-16
9.81051e-16
9.81042e-16
9.81057e-16
9.81041e-16
9.81066e-16
9.81038e-16
9.81076e-16
9.81034e-16
9.81094e-16
9.81045e-16
9.81132e-16
9.81075e-16
9.81211e-16
9.81144e-16
9.81363e-16
9.81293e-16
9.81671e-16
9.81569e-16
9.82039e-16
9.81456e-16
9.8063e-16
9.77457e-16
9.71292e-16
9.64037e-16
9.18483e-16
9.25418e-16
9.3118e-16
9.34152e-16
9.34924e-16
9.35468e-16
9.35023e-16
9.35109e-16
9.34752e-16
9.3481e-16
9.34602e-16
9.34662e-16
9.34533e-16
9.34585e-16
9.34502e-16
9.34548e-16
9.34492e-16
9.34531e-16
9.34496e-16
9.34521e-16
9.34497e-16
9.34513e-16
9.34499e-16
9.34507e-16
9.34503e-16
9.34503e-16
9.34507e-16
9.34499e-16
9.34513e-16
9.34497e-16
9.34521e-16
9.34495e-16
9.34531e-16
9.34492e-16
9.34548e-16
9.34503e-16
9.34585e-16
9.34533e-16
9.34662e-16
9.34603e-16
9.3481e-16
9.34752e-16
9.35109e-16
9.35022e-16
9.35467e-16
9.34923e-16
9.34151e-16
9.3118e-16
9.25417e-16
9.18483e-16
8.76159e-16
8.8279e-16
8.8817e-16
8.90951e-16
8.91672e-16
8.92179e-16
8.91756e-16
8.91828e-16
8.9149e-16
8.91539e-16
8.91341e-16
8.91394e-16
8.91272e-16
8.91319e-16
8.91241e-16
8.91283e-16
8.9123e-16
8.91267e-16
8.91233e-16
8.91257e-16
8.91235e-16
8.91249e-16
8.91236e-16
8.91244e-16
8.9124e-16
8.9124e-16
8.91244e-16
8.91236e-16
8.91249e-16
8.91235e-16
8.91257e-16
8.91233e-16
8.91267e-16
8.91231e-16
8.91283e-16
8.91241e-16
8.91319e-16
8.91272e-16
8.91394e-16
8.91342e-16
8.91539e-16
8.9149e-16
8.91828e-16
8.91756e-16
8.92178e-16
8.91671e-16
8.90951e-16
8.8817e-16
8.8279e-16
8.76159e-16
8.36793e-16
8.43133e-16
8.48152e-16
8.50753e-16
8.51423e-16
8.51895e-16
8.51494e-16
8.51553e-16
8.51233e-16
8.51272e-16
8.51085e-16
8.51131e-16
8.51015e-16
8.51057e-16
8.50984e-16
8.51023e-16
8.50973e-16
8.51007e-16
8.50976e-16
8.50998e-16
8.50977e-16
8.5099e-16
8.50978e-16
8.50985e-16
8.50982e-16
8.50982e-16
8.50985e-16
8.50978e-16
8.50991e-16
8.50977e-16
8.50998e-16
8.50975e-16
8.51007e-16
8.50974e-16
8.51023e-16
8.50984e-16
8.51058e-16
8.51015e-16
8.5113e-16
8.51085e-16
8.51272e-16
8.51232e-16
8.51553e-16
8.51493e-16
8.51894e-16
8.51423e-16
8.50753e-16
8.48151e-16
8.43132e-16
8.36793e-16
8.00137e-16
8.06195e-16
8.10874e-16
8.13307e-16
8.13929e-16
8.14366e-16
8.13985e-16
8.14032e-16
8.13729e-16
8.1376e-16
8.13582e-16
8.13622e-16
8.13513e-16
8.13551e-16
8.13481e-16
8.13517e-16
8.1347e-16
8.13502e-16
8.13472e-16
8.13493e-16
8.13473e-16
8.13486e-16
8.13474e-16
8.13481e-16
8.13478e-16
8.13478e-16
8.13481e-16
8.13474e-16
8.13486e-16
8.13473e-16
8.13493e-16
8.13472e-16
8.13502e-16
8.13471e-16
8.13517e-16
8.13482e-16
8.13551e-16
8.13513e-16
8.13622e-16
8.13583e-16
8.1376e-16
8.13728e-16
8.14032e-16
8.13984e-16
8.14366e-16
8.13928e-16
8.13306e-16
8.10874e-16