/*--------------------------------*- C++ -*----------------------------------*\
| =========                 |                                                 |
| \\      /  F ield         | OpenFOAM: The Open Source CFD Toolbox           |
|  \\    /   O peration     | Version:  dev                                   |
|   \\  /    A nd           | Web:      www.OpenFOAM.org                      |
|    \\/     M anipulation  |                                                 |
\*---------------------------------------------------------------------------*/
FoamFile
{
    version     2.0;
    format      ascii;
    class       volScalarField;
    location    "0.1";
    object      A4;
}
// * * * * * * * * * * * * * * * * * * * * * * * * * * * * * * * * * * * * * //

dimensions      [0 0 0 0 0 0 0];

internalField   nonuniform List<scalar> 
8000
(
8.46234e-09
8.42912e-09
8.39758e-09
8.38198e-09
8.38102e-09
8.37625e-09
8.37806e-09
8.3757e-09
8.37737e-09
8.37591e-09
8.37712e-09
8.37614e-09
8.37698e-09
8.37636e-09
8.37691e-09
8.37648e-09
8.37688e-09
8.37656e-09
8.37681e-09
8.37663e-09
8.37678e-09
8.37668e-09
8.37677e-09
8.37672e-09
8.37674e-09
8.37674e-09
8.37672e-09
8.37677e-09
8.37668e-09
8.37678e-09
8.37663e-09
8.37681e-09
8.37657e-09
8.37688e-09
8.37648e-09
8.37692e-09
8.37636e-09
8.37698e-09
8.37615e-09
8.37712e-09
8.37591e-09
8.37737e-09
8.3757e-09
8.37806e-09
8.37625e-09
8.38102e-09
8.38199e-09
8.39758e-09
8.42912e-09
8.46234e-09
1.7493e-08
1.74228e-08
1.73557e-08
1.73227e-08
1.73206e-08
1.73106e-08
1.73144e-08
1.73094e-08
1.7313e-08
1.73099e-08
1.73124e-08
1.73104e-08
1.73121e-08
1.73108e-08
1.7312e-08
1.73111e-08
1.73119e-08
1.73113e-08
1.73118e-08
1.73114e-08
1.73117e-08
1.73115e-08
1.73117e-08
1.73116e-08
1.73116e-08
1.73116e-08
1.73116e-08
1.73117e-08
1.73115e-08
1.73117e-08
1.73114e-08
1.73118e-08
1.73113e-08
1.73119e-08
1.73111e-08
1.7312e-08
1.73108e-08
1.73121e-08
1.73104e-08
1.73124e-08
1.73099e-08
1.7313e-08
1.73094e-08
1.73144e-08
1.73106e-08
1.73206e-08
1.73227e-08
1.73557e-08
1.74228e-08
1.7493e-08
2.65398e-08
2.64364e-08
2.63354e-08
2.62862e-08
2.62826e-08
2.62677e-08
2.62732e-08
2.62659e-08
2.62711e-08
2.62666e-08
2.62703e-08
2.62673e-08
2.62699e-08
2.6268e-08
2.62697e-08
2.62684e-08
2.62696e-08
2.62686e-08
2.62694e-08
2.62688e-08
2.62693e-08
2.6269e-08
2.62693e-08
2.62691e-08
2.62692e-08
2.62692e-08
2.62691e-08
2.62693e-08
2.6269e-08
2.62693e-08
2.62688e-08
2.62694e-08
2.62686e-08
2.62696e-08
2.62683e-08
2.62697e-08
2.6268e-08
2.62699e-08
2.62673e-08
2.62703e-08
2.62666e-08
2.62711e-08
2.62659e-08
2.62732e-08
2.62678e-08
2.62826e-08
2.62862e-08
2.63354e-08
2.64364e-08
2.65398e-08
3.60471e-08
3.59116e-08
3.57754e-08
3.57096e-08
3.57035e-08
3.56841e-08
3.56908e-08
3.56815e-08
3.5688e-08
3.56823e-08
3.5687e-08
3.56832e-08
3.56865e-08
3.56841e-08
3.56862e-08
3.56846e-08
3.56861e-08
3.56849e-08
3.56858e-08
3.56851e-08
3.56858e-08
3.56854e-08
3.56857e-08
3.56855e-08
3.56856e-08
3.56856e-08
3.56855e-08
3.56857e-08
3.56854e-08
3.56858e-08
3.56852e-08
3.56859e-08
3.56849e-08
3.56861e-08
3.56846e-08
3.56863e-08
3.56841e-08
3.56865e-08
3.56832e-08
3.5687e-08
3.56823e-08
3.5688e-08
3.56815e-08
3.56908e-08
3.56841e-08
3.57035e-08
3.57096e-08
3.57754e-08
3.59116e-08
3.60471e-08
4.55442e-08
4.53793e-08
4.52087e-08
4.51266e-08
4.51173e-08
4.50936e-08
4.51012e-08
4.50901e-08
4.50977e-08
4.50909e-08
4.50965e-08
4.5092e-08
4.50959e-08
4.50931e-08
4.50956e-08
4.50937e-08
4.50956e-08
4.50941e-08
4.50952e-08
4.50944e-08
4.50951e-08
4.50947e-08
4.50951e-08
4.50948e-08
4.50949e-08
4.50949e-08
4.50948e-08
4.50951e-08
4.50946e-08
4.50951e-08
4.50944e-08
4.50952e-08
4.50941e-08
4.50955e-08
4.50937e-08
4.50957e-08
4.50931e-08
4.50959e-08
4.50921e-08
4.50965e-08
4.50909e-08
4.50977e-08
4.50901e-08
4.51012e-08
4.50937e-08
4.51173e-08
4.51267e-08
4.52087e-08
4.53793e-08
4.55442e-08
5.45998e-08
5.44098e-08
5.42082e-08
5.41111e-08
5.4098e-08
5.40706e-08
5.40784e-08
5.40659e-08
5.40743e-08
5.40668e-08
5.4073e-08
5.4068e-08
5.40723e-08
5.40692e-08
5.4072e-08
5.40699e-08
5.4072e-08
5.40703e-08
5.40716e-08
5.40707e-08
5.40715e-08
5.4071e-08
5.40715e-08
5.40712e-08
5.40713e-08
5.40713e-08
5.40712e-08
5.40715e-08
5.4071e-08
5.40715e-08
5.40707e-08
5.40716e-08
5.40703e-08
5.40719e-08
5.40699e-08
5.40721e-08
5.40692e-08
5.40723e-08
5.4068e-08
5.40729e-08
5.40667e-08
5.40743e-08
5.40659e-08
5.40784e-08
5.40706e-08
5.4098e-08
5.41111e-08
5.42082e-08
5.44098e-08
5.45998e-08
6.29313e-08
6.27216e-08
6.24945e-08
6.23845e-08
6.23671e-08
6.23367e-08
6.23443e-08
6.23308e-08
6.23396e-08
6.23316e-08
6.23382e-08
6.23329e-08
6.23376e-08
6.23343e-08
6.23373e-08
6.2335e-08
6.23372e-08
6.23355e-08
6.23368e-08
6.23359e-08
6.23367e-08
6.23362e-08
6.23367e-08
6.23364e-08
6.23365e-08
6.23365e-08
6.23364e-08
6.23367e-08
6.23362e-08
6.23367e-08
6.23359e-08
6.23368e-08
6.23355e-08
6.23372e-08
6.2335e-08
6.23373e-08
6.23342e-08
6.23376e-08
6.2333e-08
6.23382e-08
6.23316e-08
6.23396e-08
6.23308e-08
6.23444e-08
6.23367e-08
6.23671e-08
6.23845e-08
6.24945e-08
6.27216e-08
6.29313e-08
7.03935e-08
7.01698e-08
6.99237e-08
6.98033e-08
6.97817e-08
6.97489e-08
6.9756e-08
6.97418e-08
6.97507e-08
6.97424e-08
6.97492e-08
6.97438e-08
6.97486e-08
6.97452e-08
6.97483e-08
6.9746e-08
6.97483e-08
6.97465e-08
6.97479e-08
6.97469e-08
6.97478e-08
6.97472e-08
6.97478e-08
6.97475e-08
6.97476e-08
6.97476e-08
6.97475e-08
6.97478e-08
6.97472e-08
6.97478e-08
6.97469e-08
6.97479e-08
6.97465e-08
6.97483e-08
6.9746e-08
6.97483e-08
6.97452e-08
6.97486e-08
6.97438e-08
6.97492e-08
6.97424e-08
6.97507e-08
6.97418e-08
6.9756e-08
6.97489e-08
6.97817e-08
6.98033e-08
6.99237e-08
7.01698e-08
7.03935e-08
7.69449e-08
7.67129e-08
7.64543e-08
7.63262e-08
7.63005e-08
7.62661e-08
7.62722e-08
7.62578e-08
7.62665e-08
7.62582e-08
7.62649e-08
7.62596e-08
7.62644e-08
7.6261e-08
7.62641e-08
7.62618e-08
7.62641e-08
7.62624e-08
7.62637e-08
7.62628e-08
7.62637e-08
7.62631e-08
7.62637e-08
7.62634e-08
7.62635e-08
7.62635e-08
7.62634e-08
7.62637e-08
7.62631e-08
7.62637e-08
7.62628e-08
7.62637e-08
7.62624e-08
7.62641e-08
7.62618e-08
7.62642e-08
7.6261e-08
7.62643e-08
7.62596e-08
7.62649e-08
7.62582e-08
7.62665e-08
7.62578e-08
7.62723e-08
7.62661e-08
7.63005e-08
7.63262e-08
7.64543e-08
7.67129e-08
7.69449e-08
8.2609e-08
8.23735e-08
8.21087e-08
8.19755e-08
8.19462e-08
8.19107e-08
8.19157e-08
8.19012e-08
8.19095e-08
8.19014e-08
8.19079e-08
8.19027e-08
8.19074e-08
8.19042e-08
8.19072e-08
8.1905e-08
8.19072e-08
8.19055e-08
8.19069e-08
8.19059e-08
8.19068e-08
8.19063e-08
8.19068e-08
8.19065e-08
8.19066e-08
8.19066e-08
8.19065e-08
8.19068e-08
8.19063e-08
8.19068e-08
8.19059e-08
8.19069e-08
8.19055e-08
8.19072e-08
8.1905e-08
8.19072e-08
8.19041e-08
8.19074e-08
8.19028e-08
8.19079e-08
8.19014e-08
8.19095e-08
8.19012e-08
8.19157e-08
8.19107e-08
8.19462e-08
8.19756e-08
8.21087e-08
8.23735e-08
8.2609e-08
8.74481e-08
8.72134e-08
8.69479e-08
8.68121e-08
8.67796e-08
8.67436e-08
8.67473e-08
8.6733e-08
8.67406e-08
8.67328e-08
8.67391e-08
8.67341e-08
8.67386e-08
8.67355e-08
8.67384e-08
8.67363e-08
8.67385e-08
8.67369e-08
8.67381e-08
8.67373e-08
8.67381e-08
8.67376e-08
8.67381e-08
8.67378e-08
8.6738e-08
8.6738e-08
8.67378e-08
8.67381e-08
8.67376e-08
8.67381e-08
8.67373e-08
8.67382e-08
8.67369e-08
8.67385e-08
8.67363e-08
8.67385e-08
8.67355e-08
8.67386e-08
8.67341e-08
8.6739e-08
8.67328e-08
8.67406e-08
8.6733e-08
8.67473e-08
8.67436e-08
8.67796e-08
8.68121e-08
8.69479e-08
8.72134e-08
8.74481e-08
9.17087e-08
9.14808e-08
9.12234e-08
9.10884e-08
9.10534e-08
9.10176e-08
9.10197e-08
9.10059e-08
9.10126e-08
9.10054e-08
9.1011e-08
9.10065e-08
9.10106e-08
9.10078e-08
9.10105e-08
9.10086e-08
9.10106e-08
9.10091e-08
9.10103e-08
9.10095e-08
9.10103e-08
9.10099e-08
9.10103e-08
9.10101e-08
9.10102e-08
9.10102e-08
9.10101e-08
9.10103e-08
9.10099e-08
9.10103e-08
9.10095e-08
9.10103e-08
9.10091e-08
9.10106e-08
9.10086e-08
9.10105e-08
9.10078e-08
9.10106e-08
9.10065e-08
9.1011e-08
9.10053e-08
9.10126e-08
9.10059e-08
9.10197e-08
9.10176e-08
9.10534e-08
9.10885e-08
9.12234e-08
9.14808e-08
9.17087e-08
9.51529e-08
9.49325e-08
9.46831e-08
9.45499e-08
9.4513e-08
9.44775e-08
9.44782e-08
9.44648e-08
9.44708e-08
9.44639e-08
9.44692e-08
9.4465e-08
9.44688e-08
9.44662e-08
9.44688e-08
9.4467e-08
9.44689e-08
9.44675e-08
9.44686e-08
9.44679e-08
9.44686e-08
9.44682e-08
9.44687e-08
9.44684e-08
9.44685e-08
9.44685e-08
9.44684e-08
9.44687e-08
9.44682e-08
9.44686e-08
9.44679e-08
9.44686e-08
9.44675e-08
9.44689e-08
9.4467e-08
9.44688e-08
9.44662e-08
9.44688e-08
9.4465e-08
9.44692e-08
9.44639e-08
9.44708e-08
9.44648e-08
9.44782e-08
9.44775e-08
9.4513e-08
9.45499e-08
9.46831e-08
9.49325e-08
9.51529e-08
9.80329e-08
9.78355e-08
9.76086e-08
9.74823e-08
9.74424e-08
9.74087e-08
9.74067e-08
9.73947e-08
9.7399e-08
9.73933e-08
9.73974e-08
9.73941e-08
9.73972e-08
9.73952e-08
9.73973e-08
9.73959e-08
9.73974e-08
9.73964e-08
9.73973e-08
9.73967e-08
9.73973e-08
9.7397e-08
9.73974e-08
9.73972e-08
9.73973e-08
9.73973e-08
9.73972e-08
9.73974e-08
9.7397e-08
9.73973e-08
9.73967e-08
9.73973e-08
9.73964e-08
9.73974e-08
9.73959e-08
9.73973e-08
9.73952e-08
9.73972e-08
9.73941e-08
9.73974e-08
9.73932e-08
9.7399e-08
9.73948e-08
9.74067e-08
9.74088e-08
9.74424e-08
9.74823e-08
9.76086e-08
9.78355e-08
9.80329e-08
1.00478e-07
1.00296e-07
1.00087e-07
9.99667e-08
9.99262e-08
9.98938e-08
9.98901e-08
9.98789e-08
9.9882e-08
9.9877e-08
9.98805e-08
9.98776e-08
9.98803e-08
9.98786e-08
9.98804e-08
9.98792e-08
9.98806e-08
9.98797e-08
9.98805e-08
9.988e-08
9.98805e-08
9.98803e-08
9.98806e-08
9.98804e-08
9.98805e-08
9.98805e-08
9.98804e-08
9.98806e-08
9.98803e-08
9.98805e-08
9.988e-08
9.98805e-08
9.98797e-08
9.98806e-08
9.98792e-08
9.98804e-08
9.98786e-08
9.98803e-08
9.98776e-08
9.98805e-08
9.9877e-08
9.9882e-08
9.98789e-08
9.98901e-08
9.98938e-08
9.99262e-08
9.99667e-08
1.00087e-07
1.00296e-07
1.00478e-07
1.02389e-07
1.02221e-07
1.02029e-07
1.01916e-07
1.01875e-07
1.01844e-07
1.01839e-07
1.01828e-07
1.01831e-07
1.01826e-07
1.01829e-07
1.01826e-07
1.01829e-07
1.01827e-07
1.01829e-07
1.01828e-07
1.01829e-07
1.01828e-07
1.01829e-07
1.01829e-07
1.01829e-07
1.01829e-07
1.01829e-07
1.01829e-07
1.01829e-07
1.01829e-07
1.01829e-07
1.01829e-07
1.01829e-07
1.01829e-07
1.01829e-07
1.01829e-07
1.01828e-07
1.01829e-07
1.01828e-07
1.01829e-07
1.01827e-07
1.01829e-07
1.01826e-07
1.01829e-07
1.01826e-07
1.01831e-07
1.01828e-07
1.01839e-07
1.01844e-07
1.01875e-07
1.01916e-07
1.02029e-07
1.02221e-07
1.02389e-07
1.03961e-07
1.03808e-07
1.03633e-07
1.03526e-07
1.03485e-07
1.03455e-07
1.03448e-07
1.03438e-07
1.0344e-07
1.03436e-07
1.03438e-07
1.03436e-07
1.03438e-07
1.03437e-07
1.03438e-07
1.03437e-07
1.03438e-07
1.03438e-07
1.03438e-07
1.03438e-07
1.03438e-07
1.03438e-07
1.03438e-07
1.03438e-07
1.03438e-07
1.03438e-07
1.03438e-07
1.03438e-07
1.03438e-07
1.03438e-07
1.03438e-07
1.03438e-07
1.03438e-07
1.03438e-07
1.03437e-07
1.03438e-07
1.03437e-07
1.03438e-07
1.03436e-07
1.03438e-07
1.03436e-07
1.0344e-07
1.03438e-07
1.03448e-07
1.03455e-07
1.03485e-07
1.03526e-07
1.03633e-07
1.03808e-07
1.03961e-07
1.05141e-07
1.05005e-07
1.04849e-07
1.0475e-07
1.0471e-07
1.04682e-07
1.04674e-07
1.04665e-07
1.04665e-07
1.04662e-07
1.04664e-07
1.04662e-07
1.04663e-07
1.04663e-07
1.04664e-07
1.04663e-07
1.04664e-07
1.04663e-07
1.04664e-07
1.04664e-07
1.04664e-07
1.04664e-07
1.04664e-07
1.04664e-07
1.04664e-07
1.04664e-07
1.04664e-07
1.04664e-07
1.04664e-07
1.04664e-07
1.04664e-07
1.04664e-07
1.04663e-07
1.04664e-07
1.04663e-07
1.04664e-07
1.04663e-07
1.04663e-07
1.04662e-07
1.04664e-07
1.04662e-07
1.04665e-07
1.04665e-07
1.04674e-07
1.04682e-07
1.0471e-07
1.0475e-07
1.04849e-07
1.05005e-07
1.05141e-07
1.06052e-07
1.05933e-07
1.05796e-07
1.05705e-07
1.05667e-07
1.0564e-07
1.05631e-07
1.05622e-07
1.05622e-07
1.05619e-07
1.0562e-07
1.05619e-07
1.0562e-07
1.05619e-07
1.0562e-07
1.0562e-07
1.0562e-07
1.0562e-07
1.0562e-07
1.0562e-07
1.0562e-07
1.0562e-07
1.05621e-07
1.0562e-07
1.0562e-07
1.0562e-07
1.0562e-07
1.05621e-07
1.0562e-07
1.0562e-07
1.0562e-07
1.0562e-07
1.0562e-07
1.0562e-07
1.0562e-07
1.0562e-07
1.05619e-07
1.0562e-07
1.05619e-07
1.0562e-07
1.05619e-07
1.05622e-07
1.05622e-07
1.05631e-07
1.0564e-07
1.05667e-07
1.05705e-07
1.05796e-07
1.05933e-07
1.06053e-07
1.06693e-07
1.06593e-07
1.06477e-07
1.06397e-07
1.0636e-07
1.06335e-07
1.06325e-07
1.06317e-07
1.06315e-07
1.06313e-07
1.06313e-07
1.06312e-07
1.06313e-07
1.06313e-07
1.06314e-07
1.06313e-07
1.06314e-07
1.06314e-07
1.06314e-07
1.06314e-07
1.06314e-07
1.06314e-07
1.06314e-07
1.06314e-07
1.06314e-07
1.06314e-07
1.06314e-07
1.06314e-07
1.06314e-07
1.06314e-07
1.06314e-07
1.06314e-07
1.06314e-07
1.06314e-07
1.06313e-07
1.06314e-07
1.06313e-07
1.06313e-07
1.06312e-07
1.06313e-07
1.06313e-07
1.06315e-07
1.06317e-07
1.06325e-07
1.06335e-07
1.0636e-07
1.06397e-07
1.06477e-07
1.06593e-07
1.06693e-07
1.07078e-07
1.06996e-07
1.06901e-07
1.06831e-07
1.06796e-07
1.06773e-07
1.06762e-07
1.06754e-07
1.06752e-07
1.0675e-07
1.0675e-07
1.06749e-07
1.0675e-07
1.06749e-07
1.0675e-07
1.0675e-07
1.0675e-07
1.0675e-07
1.0675e-07
1.0675e-07
1.0675e-07
1.0675e-07
1.0675e-07
1.0675e-07
1.0675e-07
1.0675e-07
1.0675e-07
1.0675e-07
1.0675e-07
1.0675e-07
1.0675e-07
1.0675e-07
1.0675e-07
1.0675e-07
1.0675e-07
1.0675e-07
1.06749e-07
1.0675e-07
1.06749e-07
1.0675e-07
1.0675e-07
1.06752e-07
1.06754e-07
1.06762e-07
1.06773e-07
1.06796e-07
1.06831e-07
1.06901e-07
1.06996e-07
1.07078e-07
1.07259e-07
1.07195e-07
1.0712e-07
1.07059e-07
1.07027e-07
1.07005e-07
1.06994e-07
1.06987e-07
1.06984e-07
1.06982e-07
1.06981e-07
1.06981e-07
1.06981e-07
1.06981e-07
1.06981e-07
1.06982e-07
1.06982e-07
1.06982e-07
1.06982e-07
1.06982e-07
1.06982e-07
1.06982e-07
1.06982e-07
1.06982e-07
1.06982e-07
1.06982e-07
1.06982e-07
1.06982e-07
1.06982e-07
1.06982e-07
1.06982e-07
1.06982e-07
1.06982e-07
1.06982e-07
1.06982e-07
1.06981e-07
1.06981e-07
1.06981e-07
1.06981e-07
1.06981e-07
1.06982e-07
1.06984e-07
1.06987e-07
1.06994e-07
1.07005e-07
1.07027e-07
1.07059e-07
1.0712e-07
1.07195e-07
1.07259e-07
1.07259e-07
1.07213e-07
1.07157e-07
1.07108e-07
1.07078e-07
1.07058e-07
1.07045e-07
1.07039e-07
1.07035e-07
1.07034e-07
1.07033e-07
1.07033e-07
1.07033e-07
1.07033e-07
1.07033e-07
1.07033e-07
1.07033e-07
1.07033e-07
1.07033e-07
1.07033e-07
1.07033e-07
1.07034e-07
1.07034e-07
1.07034e-07
1.07034e-07
1.07034e-07
1.07034e-07
1.07034e-07
1.07034e-07
1.07033e-07
1.07033e-07
1.07033e-07
1.07033e-07
1.07033e-07
1.07033e-07
1.07033e-07
1.07033e-07
1.07033e-07
1.07033e-07
1.07033e-07
1.07034e-07
1.07035e-07
1.07039e-07
1.07046e-07
1.07058e-07
1.07078e-07
1.07108e-07
1.07157e-07
1.07213e-07
1.07259e-07
1.07099e-07
1.0707e-07
1.07033e-07
1.06994e-07
1.06966e-07
1.06949e-07
1.06935e-07
1.0693e-07
1.06925e-07
1.06924e-07
1.06922e-07
1.06923e-07
1.06922e-07
1.06923e-07
1.06922e-07
1.06923e-07
1.06923e-07
1.06923e-07
1.06923e-07
1.06923e-07
1.06923e-07
1.06923e-07
1.06923e-07
1.06923e-07
1.06923e-07
1.06923e-07
1.06923e-07
1.06923e-07
1.06923e-07
1.06923e-07
1.06923e-07
1.06923e-07
1.06923e-07
1.06923e-07
1.06923e-07
1.06922e-07
1.06923e-07
1.06922e-07
1.06923e-07
1.06922e-07
1.06924e-07
1.06925e-07
1.0693e-07
1.06935e-07
1.06949e-07
1.06966e-07
1.06994e-07
1.07033e-07
1.0707e-07
1.07099e-07
1.06784e-07
1.06775e-07
1.06757e-07
1.06728e-07
1.06703e-07
1.06688e-07
1.06674e-07
1.06669e-07
1.06663e-07
1.06662e-07
1.0666e-07
1.06661e-07
1.0666e-07
1.06661e-07
1.0666e-07
1.06661e-07
1.0666e-07
1.06661e-07
1.06661e-07
1.06661e-07
1.06661e-07
1.06661e-07
1.06661e-07
1.06661e-07
1.06661e-07
1.06661e-07
1.06661e-07
1.06661e-07
1.06661e-07
1.06661e-07
1.06661e-07
1.06661e-07
1.06661e-07
1.0666e-07
1.06661e-07
1.0666e-07
1.06661e-07
1.0666e-07
1.06661e-07
1.0666e-07
1.06662e-07
1.06663e-07
1.06669e-07
1.06674e-07
1.06688e-07
1.06703e-07
1.06728e-07
1.06757e-07
1.06775e-07
1.06784e-07
1.06339e-07
1.06348e-07
1.06348e-07
1.06329e-07
1.06307e-07
1.06294e-07
1.06279e-07
1.06274e-07
1.06268e-07
1.06267e-07
1.06265e-07
1.06266e-07
1.06264e-07
1.06265e-07
1.06265e-07
1.06265e-07
1.06265e-07
1.06265e-07
1.06265e-07
1.06265e-07
1.06265e-07
1.06265e-07
1.06265e-07
1.06265e-07
1.06265e-07
1.06265e-07
1.06265e-07
1.06265e-07
1.06265e-07
1.06265e-07
1.06265e-07
1.06265e-07
1.06265e-07
1.06265e-07
1.06265e-07
1.06265e-07
1.06265e-07
1.06264e-07
1.06266e-07
1.06265e-07
1.06267e-07
1.06268e-07
1.06274e-07
1.06279e-07
1.06294e-07
1.06307e-07
1.06329e-07
1.06348e-07
1.06348e-07
1.06339e-07
1.0578e-07
1.05806e-07
1.05822e-07
1.05813e-07
1.05794e-07
1.05782e-07
1.05767e-07
1.05763e-07
1.05756e-07
1.05756e-07
1.05753e-07
1.05754e-07
1.05752e-07
1.05753e-07
1.05752e-07
1.05753e-07
1.05753e-07
1.05753e-07
1.05753e-07
1.05753e-07
1.05753e-07
1.05753e-07
1.05753e-07
1.05753e-07
1.05753e-07
1.05753e-07
1.05753e-07
1.05753e-07
1.05753e-07
1.05753e-07
1.05753e-07
1.05753e-07
1.05753e-07
1.05753e-07
1.05753e-07
1.05752e-07
1.05753e-07
1.05752e-07
1.05754e-07
1.05753e-07
1.05756e-07
1.05756e-07
1.05763e-07
1.05767e-07
1.05782e-07
1.05794e-07
1.05813e-07
1.05822e-07
1.05806e-07
1.0578e-07
1.05119e-07
1.05163e-07
1.05195e-07
1.05194e-07
1.05178e-07
1.05169e-07
1.05153e-07
1.05149e-07
1.05141e-07
1.05141e-07
1.05138e-07
1.05139e-07
1.05137e-07
1.05138e-07
1.05137e-07
1.05138e-07
1.05138e-07
1.05138e-07
1.05138e-07
1.05138e-07
1.05138e-07
1.05138e-07
1.05138e-07
1.05138e-07
1.05138e-07
1.05138e-07
1.05138e-07
1.05138e-07
1.05138e-07
1.05138e-07
1.05138e-07
1.05138e-07
1.05138e-07
1.05138e-07
1.05138e-07
1.05137e-07
1.05138e-07
1.05137e-07
1.05139e-07
1.05138e-07
1.05141e-07
1.05141e-07
1.05149e-07
1.05153e-07
1.05169e-07
1.05178e-07
1.05194e-07
1.05195e-07
1.05163e-07
1.05119e-07
1.04371e-07
1.0443e-07
1.04477e-07
1.04485e-07
1.04472e-07
1.04464e-07
1.04448e-07
1.04445e-07
1.04436e-07
1.04437e-07
1.04433e-07
1.04434e-07
1.04432e-07
1.04433e-07
1.04432e-07
1.04433e-07
1.04432e-07
1.04433e-07
1.04432e-07
1.04433e-07
1.04433e-07
1.04433e-07
1.04433e-07
1.04433e-07
1.04433e-07
1.04433e-07
1.04433e-07
1.04433e-07
1.04433e-07
1.04433e-07
1.04433e-07
1.04432e-07
1.04433e-07
1.04432e-07
1.04433e-07
1.04432e-07
1.04433e-07
1.04432e-07
1.04434e-07
1.04433e-07
1.04437e-07
1.04436e-07
1.04445e-07
1.04448e-07
1.04464e-07
1.04472e-07
1.04485e-07
1.04477e-07
1.0443e-07
1.04371e-07
1.03545e-07
1.03621e-07
1.03681e-07
1.03697e-07
1.03687e-07
1.0368e-07
1.03664e-07
1.03661e-07
1.03652e-07
1.03652e-07
1.03648e-07
1.0365e-07
1.03647e-07
1.03649e-07
1.03647e-07
1.03648e-07
1.03647e-07
1.03648e-07
1.03648e-07
1.03648e-07
1.03648e-07
1.03648e-07
1.03648e-07
1.03648e-07
1.03648e-07
1.03648e-07
1.03648e-07
1.03648e-07
1.03648e-07
1.03648e-07
1.03648e-07
1.03648e-07
1.03648e-07
1.03647e-07
1.03648e-07
1.03647e-07
1.03649e-07
1.03647e-07
1.0365e-07
1.03648e-07
1.03652e-07
1.03652e-07
1.03661e-07
1.03664e-07
1.0368e-07
1.03687e-07
1.03697e-07
1.03681e-07
1.03621e-07
1.03545e-07
1.02653e-07
1.02743e-07
1.02816e-07
1.02839e-07
1.02832e-07
1.02827e-07
1.0281e-07
1.02808e-07
1.02798e-07
1.02799e-07
1.02794e-07
1.02796e-07
1.02793e-07
1.02795e-07
1.02793e-07
1.02794e-07
1.02793e-07
1.02794e-07
1.02794e-07
1.02794e-07
1.02794e-07
1.02794e-07
1.02794e-07
1.02794e-07
1.02794e-07
1.02794e-07
1.02794e-07
1.02794e-07
1.02794e-07
1.02794e-07
1.02794e-07
1.02794e-07
1.02794e-07
1.02793e-07
1.02794e-07
1.02793e-07
1.02795e-07
1.02793e-07
1.02796e-07
1.02794e-07
1.02799e-07
1.02798e-07
1.02808e-07
1.0281e-07
1.02827e-07
1.02832e-07
1.02839e-07
1.02816e-07
1.02743e-07
1.02653e-07
1.01703e-07
1.01807e-07
1.01892e-07
1.01922e-07
1.01917e-07
1.01914e-07
1.01897e-07
1.01894e-07
1.01884e-07
1.01885e-07
1.0188e-07
1.01882e-07
1.01879e-07
1.01881e-07
1.01879e-07
1.0188e-07
1.01879e-07
1.0188e-07
1.01879e-07
1.0188e-07
1.0188e-07
1.0188e-07
1.0188e-07
1.0188e-07
1.0188e-07
1.0188e-07
1.0188e-07
1.0188e-07
1.0188e-07
1.0188e-07
1.0188e-07
1.01879e-07
1.0188e-07
1.01879e-07
1.0188e-07
1.01879e-07
1.01881e-07
1.01879e-07
1.01882e-07
1.01881e-07
1.01885e-07
1.01884e-07
1.01894e-07
1.01897e-07
1.01914e-07
1.01917e-07
1.01922e-07
1.01892e-07
1.01807e-07
1.01703e-07
1.00703e-07
1.00821e-07
1.00916e-07
1.00953e-07
1.0095e-07
1.00949e-07
1.00931e-07
1.00929e-07
1.00919e-07
1.00919e-07
1.00915e-07
1.00916e-07
1.00913e-07
1.00915e-07
1.00913e-07
1.00914e-07
1.00913e-07
1.00914e-07
1.00913e-07
1.00914e-07
1.00914e-07
1.00914e-07
1.00914e-07
1.00914e-07
1.00914e-07
1.00914e-07
1.00914e-07
1.00914e-07
1.00914e-07
1.00914e-07
1.00914e-07
1.00913e-07
1.00914e-07
1.00913e-07
1.00914e-07
1.00913e-07
1.00915e-07
1.00913e-07
1.00916e-07
1.00915e-07
1.00919e-07
1.00919e-07
1.00929e-07
1.00931e-07
1.00949e-07
1.0095e-07
1.00953e-07
1.00916e-07
1.00821e-07
1.00703e-07
9.9662e-08
9.97924e-08
9.98971e-08
9.99393e-08
9.99391e-08
9.99386e-08
9.9921e-08
9.9919e-08
9.99085e-08
9.99092e-08
9.9904e-08
9.99056e-08
9.99027e-08
9.99041e-08
9.99023e-08
9.99035e-08
9.99024e-08
9.99034e-08
9.99026e-08
9.99033e-08
9.99028e-08
9.99032e-08
9.99029e-08
9.99031e-08
9.9903e-08
9.9903e-08
9.99031e-08
9.99029e-08
9.99032e-08
9.99028e-08
9.99033e-08
9.99026e-08
9.99034e-08
9.99024e-08
9.99035e-08
9.99023e-08
9.99041e-08
9.99027e-08
9.99056e-08
9.99041e-08
9.99092e-08
9.99085e-08
9.9919e-08
9.9921e-08
9.99386e-08
9.9939e-08
9.99393e-08
9.98971e-08
9.97924e-08
9.9662e-08
9.85858e-08
9.87273e-08
9.88408e-08
9.88882e-08
9.889e-08
9.88909e-08
9.88731e-08
9.88712e-08
9.88604e-08
9.88611e-08
9.88557e-08
9.88573e-08
9.88542e-08
9.88557e-08
9.88538e-08
9.88551e-08
9.88538e-08
9.88549e-08
9.88541e-08
9.88548e-08
9.88542e-08
9.88547e-08
9.88544e-08
9.88546e-08
9.88545e-08
9.88545e-08
9.88546e-08
9.88544e-08
9.88547e-08
9.88543e-08
9.88548e-08
9.88541e-08
9.88549e-08
9.88538e-08
9.88551e-08
9.88538e-08
9.88557e-08
9.88542e-08
9.88573e-08
9.88558e-08
9.88611e-08
9.88604e-08
9.88712e-08
9.88731e-08
9.88908e-08
9.889e-08
9.88882e-08
9.88408e-08
9.87273e-08
9.85858e-08
9.74806e-08
9.76321e-08
9.77535e-08
9.78056e-08
9.78094e-08
9.78113e-08
9.77935e-08
9.77917e-08
9.77806e-08
9.77813e-08
9.77757e-08
9.77773e-08
9.77741e-08
9.77755e-08
9.77736e-08
9.77749e-08
9.77736e-08
9.77746e-08
9.77738e-08
9.77745e-08
9.7774e-08
9.77744e-08
9.77741e-08
9.77743e-08
9.77742e-08
9.77742e-08
9.77743e-08
9.77741e-08
9.77744e-08
9.7774e-08
9.77745e-08
9.77738e-08
9.77746e-08
9.77736e-08
9.77749e-08
9.77736e-08
9.77755e-08
9.77741e-08
9.77773e-08
9.77757e-08
9.77813e-08
9.77806e-08
9.77917e-08
9.77935e-08
9.78113e-08
9.78094e-08
9.78056e-08
9.77535e-08
9.76321e-08
9.74807e-08
9.6352e-08
9.65123e-08
9.66407e-08
9.66971e-08
9.67026e-08
9.67056e-08
9.66876e-08
9.66859e-08
9.66746e-08
9.66753e-08
9.66695e-08
9.6671e-08
9.66678e-08
9.66692e-08
9.66672e-08
9.66685e-08
9.66671e-08
9.66682e-08
9.66674e-08
9.66681e-08
9.66675e-08
9.6668e-08
9.66677e-08
9.66679e-08
9.66678e-08
9.66678e-08
9.66679e-08
9.66677e-08
9.6668e-08
9.66676e-08
9.66681e-08
9.66674e-08
9.66682e-08
9.66672e-08
9.66685e-08
9.66672e-08
9.66692e-08
9.66678e-08
9.6671e-08
9.66695e-08
9.66753e-08
9.66746e-08
9.66859e-08
9.66876e-08
9.67055e-08
9.67026e-08
9.66971e-08
9.66407e-08
9.65122e-08
9.63521e-08
9.5205e-08
9.53727e-08
9.55075e-08
9.55676e-08
9.55747e-08
9.55786e-08
9.55606e-08
9.5559e-08
9.55474e-08
9.5548e-08
9.55421e-08
9.55436e-08
9.55402e-08
9.55417e-08
9.55396e-08
9.55409e-08
9.55395e-08
9.55406e-08
9.55398e-08
9.55405e-08
9.55399e-08
9.55403e-08
9.554e-08
9.55402e-08
9.55401e-08
9.55401e-08
9.55402e-08
9.554e-08
9.55404e-08
9.55399e-08
9.55405e-08
9.55398e-08
9.55406e-08
9.55395e-08
9.55409e-08
9.55396e-08
9.55417e-08
9.55402e-08
9.55436e-08
9.55421e-08
9.5548e-08
9.55474e-08
9.5559e-08
9.55606e-08
9.55785e-08
9.55747e-08
9.55676e-08
9.55075e-08
9.53726e-08
9.5205e-08
9.4044e-08
9.42177e-08
9.43583e-08
9.44217e-08
9.44301e-08
9.44349e-08
9.44168e-08
9.44153e-08
9.44035e-08
9.44041e-08
9.4398e-08
9.43995e-08
9.4396e-08
9.43975e-08
9.43953e-08
9.43966e-08
9.43952e-08
9.43963e-08
9.43955e-08
9.43962e-08
9.43956e-08
9.43961e-08
9.43957e-08
9.43959e-08
9.43958e-08
9.43958e-08
9.43959e-08
9.43957e-08
9.43961e-08
9.43956e-08
9.43962e-08
9.43955e-08
9.43963e-08
9.43952e-08
9.43966e-08
9.43954e-08
9.43975e-08
9.4396e-08
9.43995e-08
9.43981e-08
9.44041e-08
9.44035e-08
9.44153e-08
9.44168e-08
9.44349e-08
9.44301e-08
9.44217e-08
9.43583e-08
9.42177e-08
9.40441e-08
9.28727e-08
9.3052e-08
9.31973e-08
9.32635e-08
9.32731e-08
9.32786e-08
9.32606e-08
9.3259e-08
9.32471e-08
9.32476e-08
9.32414e-08
9.32428e-08
9.32393e-08
9.32407e-08
9.32385e-08
9.32398e-08
9.32384e-08
9.32395e-08
9.32386e-08
9.32394e-08
9.32388e-08
9.32392e-08
9.32389e-08
9.32391e-08
9.3239e-08
9.3239e-08
9.32391e-08
9.32389e-08
9.32392e-08
9.32388e-08
9.32394e-08
9.32386e-08
9.32395e-08
9.32384e-08
9.32398e-08
9.32386e-08
9.32407e-08
9.32393e-08
9.32428e-08
9.32414e-08
9.32476e-08
9.32471e-08
9.3259e-08
9.32606e-08
9.32786e-08
9.32731e-08
9.32634e-08
9.31973e-08
9.3052e-08
9.28727e-08
9.16947e-08
9.18792e-08
9.20281e-08
9.20966e-08
9.21073e-08
9.21134e-08
9.20954e-08
9.20938e-08
9.20819e-08
9.20822e-08
9.2076e-08
9.20773e-08
9.20737e-08
9.20751e-08
9.20729e-08
9.20742e-08
9.20727e-08
9.20738e-08
9.20729e-08
9.20737e-08
9.20731e-08
9.20735e-08
9.20732e-08
9.20734e-08
9.20733e-08
9.20733e-08
9.20734e-08
9.20732e-08
9.20735e-08
9.20731e-08
9.20737e-08
9.20729e-08
9.20738e-08
9.20727e-08
9.20742e-08
9.20729e-08
9.20751e-08
9.20737e-08
9.20773e-08
9.2076e-08
9.20822e-08
9.20819e-08
9.20938e-08
9.20954e-08
9.21134e-08
9.21073e-08
9.20966e-08
9.2028e-08
9.18792e-08
9.16947e-08
9.05131e-08
9.07026e-08
9.0854e-08
9.09244e-08
9.09361e-08
9.09427e-08
9.09248e-08
9.09232e-08
9.09111e-08
9.09113e-08
9.0905e-08
9.09063e-08
9.09026e-08
9.0904e-08
9.09017e-08
9.0903e-08
9.09016e-08
9.09027e-08
9.09017e-08
9.09025e-08
9.09019e-08
9.09023e-08
9.0902e-08
9.09022e-08
9.09021e-08
9.09021e-08
9.09022e-08
9.0902e-08
9.09023e-08
9.09019e-08
9.09025e-08
9.09017e-08
9.09027e-08
9.09016e-08
9.0903e-08
9.09018e-08
9.0904e-08
9.09026e-08
9.09063e-08
9.0905e-08
9.09113e-08
9.09111e-08
9.09232e-08
9.09248e-08
9.09427e-08
9.09361e-08
9.09244e-08
9.0854e-08
9.07025e-08
9.05131e-08
8.9331e-08
8.9525e-08
8.9678e-08
8.97501e-08
8.97625e-08
8.97696e-08
8.97517e-08
8.975e-08
8.97379e-08
8.9738e-08
8.97316e-08
8.97328e-08
8.97291e-08
8.97304e-08
8.97282e-08
8.97294e-08
8.9728e-08
8.97291e-08
8.97281e-08
8.97289e-08
8.97283e-08
8.97287e-08
8.97284e-08
8.97286e-08
8.97285e-08
8.97285e-08
8.97286e-08
8.97284e-08
8.97287e-08
8.97283e-08
8.97289e-08
8.97281e-08
8.97291e-08
8.9728e-08
8.97294e-08
8.97282e-08
8.97304e-08
8.97291e-08
8.97328e-08
8.97316e-08
8.9738e-08
8.97379e-08
8.975e-08
8.97516e-08
8.97696e-08
8.97625e-08
8.97501e-08
8.9678e-08
8.9525e-08
8.9331e-08
8.8151e-08
8.83494e-08
8.85029e-08
8.85762e-08
8.85892e-08
8.85967e-08
8.85788e-08
8.85771e-08
8.85649e-08
8.8565e-08
8.85585e-08
8.85596e-08
8.85559e-08
8.85572e-08
8.85549e-08
8.85562e-08
8.85547e-08
8.85558e-08
8.85548e-08
8.85556e-08
8.8555e-08
8.85554e-08
8.85551e-08
8.85553e-08
8.85552e-08
8.85552e-08
8.85553e-08
8.85551e-08
8.85554e-08
8.8555e-08
8.85556e-08
8.85548e-08
8.85558e-08
8.85547e-08
8.85562e-08
8.85549e-08
8.85572e-08
8.85559e-08
8.85596e-08
8.85585e-08
8.8565e-08
8.85649e-08
8.85771e-08
8.85788e-08
8.85967e-08
8.85892e-08
8.85762e-08
8.85029e-08
8.83494e-08
8.8151e-08
8.69753e-08
8.71775e-08
8.73315e-08
8.74054e-08
8.74188e-08
8.74265e-08
8.74088e-08
8.7407e-08
8.73948e-08
8.73947e-08
8.73882e-08
8.73892e-08
8.73855e-08
8.73867e-08
8.73844e-08
8.73857e-08
8.73842e-08
8.73853e-08
8.73843e-08
8.73851e-08
8.73845e-08
8.73849e-08
8.73845e-08
8.73848e-08
8.73847e-08
8.73847e-08
8.73848e-08
8.73846e-08
8.73849e-08
8.73845e-08
8.73851e-08
8.73843e-08
8.73853e-08
8.73842e-08
8.73857e-08
8.73845e-08
8.73867e-08
8.73855e-08
8.73892e-08
8.73882e-08
8.73947e-08
8.73948e-08
8.7407e-08
8.74088e-08
8.74265e-08
8.74187e-08
8.74054e-08
8.73315e-08
8.71775e-08
8.69754e-08
8.58064e-08
8.6012e-08
8.61657e-08
8.62398e-08
8.62534e-08
8.62614e-08
8.62437e-08
8.62418e-08
8.62297e-08
8.62294e-08
8.62229e-08
8.62239e-08
8.62201e-08
8.62213e-08
8.6219e-08
8.62202e-08
8.62187e-08
8.62198e-08
8.62189e-08
8.62196e-08
8.6219e-08
8.62195e-08
8.62191e-08
8.62193e-08
8.62192e-08
8.62192e-08
8.62193e-08
8.62191e-08
8.62195e-08
8.6219e-08
8.62196e-08
8.62189e-08
8.62198e-08
8.62187e-08
8.62202e-08
8.6219e-08
8.62213e-08
8.62201e-08
8.62239e-08
8.62229e-08
8.62294e-08
8.62296e-08
8.62418e-08
8.62437e-08
8.62613e-08
8.62534e-08
8.62397e-08
8.61657e-08
8.6012e-08
8.58064e-08
8.46461e-08
8.48546e-08
8.50073e-08
8.50813e-08
8.50951e-08
8.51032e-08
8.50857e-08
8.50837e-08
8.50716e-08
8.50712e-08
8.50647e-08
8.50656e-08
8.50618e-08
8.50629e-08
8.50607e-08
8.50618e-08
8.50604e-08
8.50614e-08
8.50605e-08
8.50612e-08
8.50606e-08
8.50611e-08
8.50607e-08
8.50609e-08
8.50608e-08
8.50608e-08
8.50609e-08
8.50607e-08
8.50611e-08
8.50606e-08
8.50612e-08
8.50605e-08
8.50614e-08
8.50604e-08
8.50618e-08
8.50607e-08
8.5063e-08
8.50618e-08
8.50656e-08
8.50647e-08
8.50712e-08
8.50716e-08
8.50837e-08
8.50857e-08
8.51032e-08
8.50951e-08
8.50813e-08
8.50073e-08
8.48545e-08
8.46461e-08
8.34963e-08
8.3707e-08
8.38582e-08
8.3932e-08
8.39457e-08
8.39539e-08
8.39365e-08
8.39345e-08
8.39223e-08
8.39219e-08
8.39153e-08
8.39161e-08
8.39124e-08
8.39135e-08
8.39112e-08
8.39124e-08
8.39109e-08
8.39119e-08
8.3911e-08
8.39117e-08
8.39111e-08
8.39116e-08
8.39112e-08
8.39114e-08
8.39113e-08
8.39113e-08
8.39114e-08
8.39112e-08
8.39116e-08
8.39111e-08
8.39117e-08
8.3911e-08
8.39119e-08
8.39109e-08
8.39124e-08
8.39112e-08
8.39135e-08
8.39124e-08
8.39161e-08
8.39153e-08
8.39219e-08
8.39223e-08
8.39345e-08
8.39365e-08
8.39539e-08
8.39457e-08
8.3932e-08
8.38582e-08
8.3707e-08
8.34963e-08
8.23584e-08
8.25708e-08
8.27201e-08
8.27933e-08
8.28069e-08
8.28151e-08
8.27979e-08
8.27957e-08
8.27836e-08
8.27831e-08
8.27765e-08
8.27772e-08
8.27735e-08
8.27746e-08
8.27723e-08
8.27734e-08
8.27719e-08
8.2773e-08
8.27721e-08
8.27728e-08
8.27722e-08
8.27726e-08
8.27722e-08
8.27725e-08
8.27724e-08
8.27724e-08
8.27725e-08
8.27723e-08
8.27726e-08
8.27722e-08
8.27728e-08
8.27721e-08
8.2773e-08
8.27719e-08
8.27734e-08
8.27723e-08
8.27746e-08
8.27735e-08
8.27772e-08
8.27765e-08
8.27831e-08
8.27836e-08
8.27957e-08
8.27979e-08
8.28151e-08
8.28069e-08
8.27933e-08
8.27201e-08
8.25708e-08
8.23584e-08