/*--------------------------------*- C++ -*----------------------------------*\
| =========                 |                                                 |
| \\      /  F ield         | OpenFOAM: The Open Source CFD Toolbox           |
|  \\    /   O peration     | Version:  dev                                   |
|   \\  /    A nd           | Web:      www.OpenFOAM.org                      |
|    \\/     M anipulation  |                                                 |
\*---------------------------------------------------------------------------*/
FoamFile
{
    version     2.0;
    format      ascii;
    class       volScalarField;
    location    "0.1";
    object      A4-;
}
// * * * * * * * * * * * * * * * * * * * * * * * * * * * * * * * * * * * * * //

dimensions      [0 0 0 0 0 0 0];

internalField   nonuniform List<scalar> 
8000
(
1.05751e-10
1.05466e-10
1.05195e-10
1.05056e-10
1.05049e-10
1.05002e-10
1.05019e-10
1.04995e-10
1.05011e-10
1.04997e-10
1.05008e-10
1.04999e-10
1.05007e-10
1.05001e-10
1.05006e-10
1.05002e-10
1.05006e-10
1.05003e-10
1.05005e-10
1.05004e-10
1.05005e-10
1.05004e-10
1.05005e-10
1.05005e-10
1.05005e-10
1.05005e-10
1.05005e-10
1.05005e-10
1.05004e-10
1.05005e-10
1.05004e-10
1.05005e-10
1.05003e-10
1.05006e-10
1.05002e-10
1.05006e-10
1.05001e-10
1.05007e-10
1.04999e-10
1.05008e-10
1.04997e-10
1.05011e-10
1.04996e-10
1.05019e-10
1.05002e-10
1.05049e-10
1.05056e-10
1.05195e-10
1.05466e-10
1.05751e-10
3.429e-10
3.42e-10
3.41167e-10
3.4074e-10
3.40719e-10
3.40573e-10
3.40625e-10
3.40552e-10
3.40601e-10
3.40556e-10
3.40592e-10
3.40563e-10
3.40588e-10
3.4057e-10
3.40586e-10
3.40573e-10
3.40586e-10
3.40576e-10
3.40583e-10
3.40578e-10
3.40583e-10
3.4058e-10
3.40582e-10
3.40581e-10
3.40582e-10
3.40582e-10
3.40581e-10
3.40582e-10
3.4058e-10
3.40583e-10
3.40578e-10
3.40583e-10
3.40576e-10
3.40585e-10
3.40573e-10
3.40586e-10
3.4057e-10
3.40588e-10
3.40563e-10
3.40592e-10
3.40556e-10
3.40601e-10
3.40552e-10
3.40625e-10
3.40573e-10
3.40719e-10
3.4074e-10
3.41167e-10
3.42e-10
3.429e-10
7.13206e-10
7.11358e-10
7.09574e-10
7.0868e-10
7.08609e-10
7.08315e-10
7.0841e-10
7.08268e-10
7.08362e-10
7.08276e-10
7.08345e-10
7.08289e-10
7.08338e-10
7.08302e-10
7.08334e-10
7.08309e-10
7.08333e-10
7.08315e-10
7.08329e-10
7.08318e-10
7.08328e-10
7.08322e-10
7.08327e-10
7.08324e-10
7.08325e-10
7.08325e-10
7.08324e-10
7.08327e-10
7.08322e-10
7.08328e-10
7.08318e-10
7.08329e-10
7.08315e-10
7.08333e-10
7.08309e-10
7.08334e-10
7.08302e-10
7.08338e-10
7.08289e-10
7.08345e-10
7.08276e-10
7.08362e-10
7.08268e-10
7.08411e-10
7.08316e-10
7.08608e-10
7.0868e-10
7.09574e-10
7.11358e-10
7.13207e-10
1.16551e-09
1.16265e-09
1.15977e-09
1.15834e-09
1.15818e-09
1.15773e-09
1.15785e-09
1.15764e-09
1.15778e-09
1.15765e-09
1.15775e-09
1.15767e-09
1.15774e-09
1.15769e-09
1.15774e-09
1.1577e-09
1.15774e-09
1.15771e-09
1.15773e-09
1.15772e-09
1.15773e-09
1.15772e-09
1.15773e-09
1.15772e-09
1.15773e-09
1.15773e-09
1.15772e-09
1.15773e-09
1.15772e-09
1.15773e-09
1.15772e-09
1.15773e-09
1.15771e-09
1.15774e-09
1.1577e-09
1.15774e-09
1.15769e-09
1.15774e-09
1.15767e-09
1.15775e-09
1.15765e-09
1.15778e-09
1.15764e-09
1.15785e-09
1.15773e-09
1.15818e-09
1.15834e-09
1.15977e-09
1.16265e-09
1.16551e-09
1.63262e-09
1.62884e-09
1.62489e-09
1.62293e-09
1.62264e-09
1.62205e-09
1.62219e-09
1.62192e-09
1.62208e-09
1.62192e-09
1.62205e-09
1.62195e-09
1.62204e-09
1.62197e-09
1.62203e-09
1.62199e-09
1.62203e-09
1.622e-09
1.62202e-09
1.62201e-09
1.62202e-09
1.62201e-09
1.62202e-09
1.62202e-09
1.62202e-09
1.62202e-09
1.62202e-09
1.62202e-09
1.62201e-09
1.62202e-09
1.62201e-09
1.62202e-09
1.622e-09
1.62203e-09
1.62199e-09
1.62203e-09
1.62197e-09
1.62204e-09
1.62195e-09
1.62205e-09
1.62192e-09
1.62208e-09
1.62192e-09
1.62219e-09
1.62205e-09
1.62264e-09
1.62293e-09
1.62489e-09
1.62884e-09
1.63262e-09
2.06057e-09
2.05615e-09
2.0514e-09
2.04902e-09
2.04858e-09
2.04788e-09
2.04801e-09
2.0477e-09
2.04788e-09
2.04771e-09
2.04784e-09
2.04773e-09
2.04783e-09
2.04776e-09
2.04783e-09
2.04778e-09
2.04783e-09
2.04779e-09
2.04782e-09
2.0478e-09
2.04782e-09
2.0478e-09
2.04782e-09
2.04781e-09
2.04781e-09
2.04781e-09
2.04781e-09
2.04782e-09
2.0478e-09
2.04782e-09
2.0478e-09
2.04782e-09
2.04779e-09
2.04782e-09
2.04778e-09
2.04783e-09
2.04776e-09
2.04783e-09
2.04773e-09
2.04784e-09
2.04771e-09
2.04788e-09
2.0477e-09
2.04801e-09
2.04788e-09
2.04858e-09
2.04902e-09
2.0514e-09
2.05615e-09
2.06057e-09
2.4248e-09
2.42009e-09
2.41495e-09
2.41231e-09
2.41174e-09
2.41098e-09
2.41107e-09
2.41075e-09
2.41092e-09
2.41075e-09
2.41088e-09
2.41077e-09
2.41087e-09
2.4108e-09
2.41086e-09
2.41082e-09
2.41087e-09
2.41083e-09
2.41086e-09
2.41084e-09
2.41086e-09
2.41085e-09
2.41086e-09
2.41085e-09
2.41085e-09
2.41085e-09
2.41085e-09
2.41086e-09
2.41085e-09
2.41086e-09
2.41084e-09
2.41086e-09
2.41083e-09
2.41087e-09
2.41082e-09
2.41087e-09
2.4108e-09
2.41087e-09
2.41077e-09
2.41088e-09
2.41075e-09
2.41092e-09
2.41075e-09
2.41107e-09
2.41098e-09
2.41174e-09
2.41231e-09
2.41495e-09
2.42009e-09
2.4248e-09
2.71925e-09
2.7146e-09
2.7095e-09
2.7068e-09
2.70612e-09
2.70534e-09
2.70538e-09
2.70507e-09
2.70521e-09
2.70505e-09
2.70517e-09
2.70508e-09
2.70516e-09
2.7051e-09
2.70516e-09
2.70512e-09
2.70516e-09
2.70513e-09
2.70516e-09
2.70514e-09
2.70516e-09
2.70515e-09
2.70516e-09
2.70515e-09
2.70516e-09
2.70516e-09
2.70515e-09
2.70516e-09
2.70515e-09
2.70516e-09
2.70514e-09
2.70516e-09
2.70513e-09
2.70516e-09
2.70512e-09
2.70516e-09
2.7051e-09
2.70516e-09
2.70508e-09
2.70517e-09
2.70505e-09
2.70521e-09
2.70507e-09
2.70538e-09
2.70534e-09
2.70612e-09
2.7068e-09
2.7095e-09
2.7146e-09
2.71925e-09
2.94649e-09
2.94221e-09
2.93753e-09
2.93493e-09
2.93417e-09
2.93342e-09
2.9334e-09
2.93311e-09
2.93322e-09
2.93308e-09
2.93318e-09
2.93309e-09
2.93317e-09
2.93312e-09
2.93317e-09
2.93313e-09
2.93317e-09
2.93315e-09
2.93317e-09
2.93315e-09
2.93317e-09
2.93316e-09
2.93317e-09
2.93316e-09
2.93317e-09
2.93317e-09
2.93316e-09
2.93317e-09
2.93316e-09
2.93317e-09
2.93315e-09
2.93317e-09
2.93315e-09
2.93317e-09
2.93313e-09
2.93317e-09
2.93312e-09
2.93317e-09
2.93309e-09
2.93318e-09
2.93308e-09
2.93322e-09
2.93311e-09
2.9334e-09
2.93342e-09
2.93417e-09
2.93493e-09
2.93753e-09
2.94221e-09
2.94649e-09
3.11514e-09
3.11146e-09
3.1075e-09
3.10515e-09
3.10436e-09
3.10366e-09
3.10358e-09
3.10333e-09
3.10339e-09
3.10328e-09
3.10335e-09
3.10328e-09
3.10334e-09
3.1033e-09
3.10334e-09
3.10332e-09
3.10335e-09
3.10333e-09
3.10334e-09
3.10333e-09
3.10334e-09
3.10334e-09
3.10335e-09
3.10334e-09
3.10334e-09
3.10334e-09
3.10334e-09
3.10335e-09
3.10334e-09
3.10334e-09
3.10333e-09
3.10334e-09
3.10333e-09
3.10335e-09
3.10332e-09
3.10334e-09
3.1033e-09
3.10334e-09
3.10328e-09
3.10335e-09
3.10328e-09
3.10339e-09
3.10333e-09
3.10358e-09
3.10366e-09
3.10436e-09
3.10515e-09
3.1075e-09
3.11146e-09
3.11514e-09
3.23383e-09
3.23091e-09
3.22787e-09
3.22588e-09
3.2251e-09
3.22449e-09
3.22433e-09
3.22413e-09
3.22414e-09
3.22406e-09
3.2241e-09
3.22406e-09
3.22409e-09
3.22407e-09
3.22409e-09
3.22408e-09
3.2241e-09
3.22409e-09
3.2241e-09
3.22409e-09
3.2241e-09
3.2241e-09
3.2241e-09
3.2241e-09
3.2241e-09
3.2241e-09
3.2241e-09
3.2241e-09
3.2241e-09
3.2241e-09
3.22409e-09
3.2241e-09
3.22409e-09
3.2241e-09
3.22408e-09
3.2241e-09
3.22407e-09
3.22409e-09
3.22406e-09
3.2241e-09
3.22406e-09
3.22414e-09
3.22413e-09
3.22434e-09
3.22449e-09
3.2251e-09
3.22588e-09
3.22787e-09
3.23091e-09
3.23383e-09
3.31483e-09
3.31284e-09
3.31096e-09
3.30944e-09
3.30871e-09
3.30819e-09
3.30798e-09
3.30782e-09
3.30777e-09
3.30773e-09
3.30773e-09
3.30772e-09
3.30773e-09
3.30772e-09
3.30773e-09
3.30773e-09
3.30774e-09
3.30774e-09
3.30774e-09
3.30774e-09
3.30774e-09
3.30774e-09
3.30775e-09
3.30775e-09
3.30775e-09
3.30775e-09
3.30775e-09
3.30775e-09
3.30774e-09
3.30774e-09
3.30774e-09
3.30774e-09
3.30774e-09
3.30774e-09
3.30773e-09
3.30773e-09
3.30772e-09
3.30773e-09
3.30772e-09
3.30773e-09
3.30773e-09
3.30777e-09
3.30782e-09
3.30798e-09
3.3082e-09
3.30871e-09
3.30944e-09
3.31096e-09
3.31284e-09
3.31483e-09
3.36134e-09
3.36023e-09
3.35942e-09
3.35838e-09
3.35773e-09
3.35731e-09
3.35705e-09
3.35693e-09
3.35684e-09
3.35682e-09
3.3568e-09
3.3568e-09
3.35679e-09
3.3568e-09
3.3568e-09
3.3568e-09
3.3568e-09
3.35681e-09
3.35681e-09
3.35681e-09
3.35681e-09
3.35681e-09
3.35681e-09
3.35681e-09
3.35681e-09
3.35681e-09
3.35681e-09
3.35681e-09
3.35681e-09
3.35681e-09
3.35681e-09
3.35681e-09
3.35681e-09
3.3568e-09
3.3568e-09
3.3568e-09
3.3568e-09
3.35679e-09
3.3568e-09
3.3568e-09
3.35682e-09
3.35684e-09
3.35693e-09
3.35705e-09
3.35731e-09
3.35773e-09
3.35838e-09
3.35942e-09
3.36023e-09
3.36134e-09
3.38403e-09
3.38389e-09
3.38422e-09
3.3837e-09
3.38315e-09
3.38284e-09
3.38253e-09
3.38245e-09
3.38231e-09
3.38232e-09
3.38227e-09
3.38229e-09
3.38226e-09
3.38228e-09
3.38227e-09
3.38228e-09
3.38227e-09
3.38228e-09
3.38228e-09
3.38228e-09
3.38228e-09
3.38228e-09
3.38228e-09
3.38228e-09
3.38228e-09
3.38228e-09
3.38228e-09
3.38228e-09
3.38228e-09
3.38228e-09
3.38228e-09
3.38228e-09
3.38228e-09
3.38227e-09
3.38228e-09
3.38227e-09
3.38228e-09
3.38226e-09
3.38229e-09
3.38227e-09
3.38232e-09
3.38231e-09
3.38245e-09
3.38253e-09
3.38284e-09
3.38315e-09
3.3837e-09
3.38422e-09
3.38389e-09
3.38403e-09
3.38896e-09
3.38971e-09
3.39105e-09
3.39105e-09
3.39064e-09
3.39042e-09
3.39008e-09
3.39003e-09
3.38986e-09
3.38988e-09
3.38981e-09
3.38984e-09
3.3898e-09
3.38983e-09
3.3898e-09
3.38983e-09
3.38981e-09
3.38982e-09
3.38981e-09
3.38982e-09
3.38982e-09
3.38982e-09
3.38982e-09
3.38982e-09
3.38982e-09
3.38982e-09
3.38982e-09
3.38982e-09
3.38982e-09
3.38982e-09
3.38982e-09
3.38981e-09
3.38982e-09
3.38981e-09
3.38982e-09
3.3898e-09
3.38983e-09
3.3898e-09
3.38984e-09
3.38981e-09
3.38988e-09
3.38986e-09
3.39003e-09
3.39008e-09
3.39042e-09
3.39063e-09
3.39105e-09
3.39105e-09
3.3897e-09
3.38896e-09
3.381e-09
3.38256e-09
3.38482e-09
3.38529e-09
3.38502e-09
3.38489e-09
3.38453e-09
3.38451e-09
3.38431e-09
3.38434e-09
3.38425e-09
3.38429e-09
3.38424e-09
3.38427e-09
3.38424e-09
3.38427e-09
3.38424e-09
3.38426e-09
3.38425e-09
3.38426e-09
3.38425e-09
3.38426e-09
3.38426e-09
3.38426e-09
3.38426e-09
3.38426e-09
3.38426e-09
3.38426e-09
3.38426e-09
3.38425e-09
3.38426e-09
3.38425e-09
3.38426e-09
3.38424e-09
3.38427e-09
3.38424e-09
3.38427e-09
3.38424e-09
3.38429e-09
3.38425e-09
3.38434e-09
3.38431e-09
3.38451e-09
3.38453e-09
3.38489e-09
3.38502e-09
3.38529e-09
3.38482e-09
3.38256e-09
3.381e-09
3.36332e-09
3.36572e-09
3.36887e-09
3.36982e-09
3.36972e-09
3.36969e-09
3.36931e-09
3.3693e-09
3.36908e-09
3.36913e-09
3.36901e-09
3.36906e-09
3.369e-09
3.36904e-09
3.369e-09
3.36903e-09
3.369e-09
3.36902e-09
3.36901e-09
3.36902e-09
3.36901e-09
3.36902e-09
3.36901e-09
3.36902e-09
3.36902e-09
3.36902e-09
3.36902e-09
3.36901e-09
3.36902e-09
3.36901e-09
3.36902e-09
3.36901e-09
3.36902e-09
3.369e-09
3.36903e-09
3.369e-09
3.36904e-09
3.369e-09
3.36906e-09
3.36901e-09
3.36913e-09
3.36908e-09
3.3693e-09
3.36931e-09
3.36969e-09
3.36972e-09
3.36983e-09
3.36887e-09
3.36572e-09
3.36332e-09
3.33992e-09
3.34306e-09
3.34695e-09
3.34834e-09
3.34838e-09
3.34843e-09
3.34805e-09
3.34806e-09
3.34781e-09
3.34786e-09
3.34774e-09
3.34779e-09
3.34772e-09
3.34776e-09
3.34771e-09
3.34775e-09
3.34772e-09
3.34774e-09
3.34772e-09
3.34774e-09
3.34773e-09
3.34774e-09
3.34773e-09
3.34773e-09
3.34773e-09
3.34773e-09
3.34773e-09
3.34773e-09
3.34774e-09
3.34773e-09
3.34774e-09
3.34772e-09
3.34774e-09
3.34772e-09
3.34775e-09
3.34772e-09
3.34776e-09
3.34772e-09
3.34779e-09
3.34774e-09
3.34786e-09
3.34781e-09
3.34806e-09
3.34805e-09
3.34843e-09
3.34838e-09
3.34834e-09
3.34695e-09
3.34306e-09
3.33992e-09
3.31099e-09
3.31492e-09
3.31959e-09
3.32142e-09
3.32162e-09
3.32176e-09
3.32136e-09
3.32139e-09
3.32111e-09
3.32118e-09
3.32103e-09
3.3211e-09
3.32101e-09
3.32106e-09
3.321e-09
3.32104e-09
3.321e-09
3.32103e-09
3.32101e-09
3.32103e-09
3.32101e-09
3.32102e-09
3.32102e-09
3.32102e-09
3.32102e-09
3.32102e-09
3.32102e-09
3.32102e-09
3.32102e-09
3.32101e-09
3.32103e-09
3.32101e-09
3.32103e-09
3.321e-09
3.32104e-09
3.321e-09
3.32106e-09
3.32101e-09
3.3211e-09
3.32103e-09
3.32118e-09
3.32111e-09
3.32139e-09
3.32136e-09
3.32176e-09
3.32162e-09
3.32142e-09
3.31959e-09
3.31492e-09
3.31099e-09
3.27875e-09
3.28337e-09
3.28862e-09
3.29082e-09
3.29117e-09
3.29138e-09
3.29098e-09
3.29102e-09
3.29073e-09
3.29079e-09
3.29064e-09
3.2907e-09
3.29061e-09
3.29066e-09
3.2906e-09
3.29064e-09
3.2906e-09
3.29063e-09
3.29061e-09
3.29062e-09
3.29061e-09
3.29062e-09
3.29061e-09
3.29062e-09
3.29061e-09
3.29061e-09
3.29062e-09
3.29061e-09
3.29062e-09
3.29061e-09
3.29062e-09
3.29061e-09
3.29063e-09
3.2906e-09
3.29064e-09
3.2906e-09
3.29066e-09
3.29061e-09
3.2907e-09
3.29064e-09
3.29079e-09
3.29073e-09
3.29102e-09
3.29098e-09
3.29138e-09
3.29117e-09
3.29082e-09
3.28862e-09
3.28337e-09
3.27875e-09
3.24552e-09
3.25079e-09
3.25656e-09
3.2591e-09
3.25958e-09
3.25986e-09
3.25946e-09
3.25951e-09
3.2592e-09
3.25927e-09
3.2591e-09
3.25917e-09
3.25907e-09
3.25912e-09
3.25906e-09
3.2591e-09
3.25905e-09
3.25909e-09
3.25906e-09
3.25908e-09
3.25906e-09
3.25907e-09
3.25906e-09
3.25907e-09
3.25907e-09
3.25907e-09
3.25907e-09
3.25906e-09
3.25907e-09
3.25906e-09
3.25908e-09
3.25906e-09
3.25909e-09
3.25905e-09
3.2591e-09
3.25906e-09
3.25912e-09
3.25907e-09
3.25917e-09
3.2591e-09
3.25927e-09
3.2592e-09
3.25951e-09
3.25946e-09
3.25986e-09
3.25958e-09
3.2591e-09
3.25656e-09
3.25079e-09
3.24552e-09
3.21074e-09
3.21664e-09
3.22287e-09
3.22572e-09
3.22633e-09
3.22668e-09
3.22627e-09
3.22632e-09
3.226e-09
3.22607e-09
3.22589e-09
3.22596e-09
3.22586e-09
3.22591e-09
3.22584e-09
3.22588e-09
3.22584e-09
3.22587e-09
3.22584e-09
3.22586e-09
3.22584e-09
3.22586e-09
3.22585e-09
3.22585e-09
3.22585e-09
3.22585e-09
3.22585e-09
3.22585e-09
3.22586e-09
3.22584e-09
3.22586e-09
3.22584e-09
3.22587e-09
3.22584e-09
3.22588e-09
3.22584e-09
3.22591e-09
3.22586e-09
3.22596e-09
3.2259e-09
3.22607e-09
3.226e-09
3.22632e-09
3.22627e-09
3.22668e-09
3.22633e-09
3.22572e-09
3.22287e-09
3.21664e-09
3.21074e-09
3.17482e-09
3.18026e-09
3.18678e-09
3.18989e-09
3.19066e-09
3.19106e-09
3.19067e-09
3.19072e-09
3.19039e-09
3.19045e-09
3.19026e-09
3.19033e-09
3.19022e-09
3.19027e-09
3.1902e-09
3.19024e-09
3.19019e-09
3.19022e-09
3.19019e-09
3.19021e-09
3.1902e-09
3.19021e-09
3.1902e-09
3.1902e-09
3.1902e-09
3.1902e-09
3.1902e-09
3.1902e-09
3.19021e-09
3.1902e-09
3.19021e-09
3.19019e-09
3.19022e-09
3.19019e-09
3.19024e-09
3.1902e-09
3.19027e-09
3.19022e-09
3.19033e-09
3.19027e-09
3.19045e-09
3.19039e-09
3.19072e-09
3.19067e-09
3.19106e-09
3.19066e-09
3.18989e-09
3.18678e-09
3.18026e-09
3.17482e-09
3.13802e-09
3.14395e-09
3.15083e-09
3.15419e-09
3.15507e-09
3.15552e-09
3.15514e-09
3.15519e-09
3.15485e-09
3.15491e-09
3.15471e-09
3.15477e-09
3.15466e-09
3.15471e-09
3.15463e-09
3.15467e-09
3.15462e-09
3.15466e-09
3.15463e-09
3.15465e-09
3.15463e-09
3.15464e-09
3.15463e-09
3.15464e-09
3.15463e-09
3.15463e-09
3.15464e-09
3.15463e-09
3.15464e-09
3.15463e-09
3.15465e-09
3.15463e-09
3.15466e-09
3.15463e-09
3.15467e-09
3.15463e-09
3.15471e-09
3.15466e-09
3.15477e-09
3.15471e-09
3.15491e-09
3.15485e-09
3.15519e-09
3.15514e-09
3.15552e-09
3.15507e-09
3.15419e-09
3.15083e-09
3.14395e-09
3.13802e-09
3.09902e-09
3.10547e-09
3.11275e-09
3.11638e-09
3.11739e-09
3.11791e-09
3.11752e-09
3.11757e-09
3.11722e-09
3.11727e-09
3.11707e-09
3.11713e-09
3.11701e-09
3.11706e-09
3.11698e-09
3.11702e-09
3.11697e-09
3.117e-09
3.11697e-09
3.11699e-09
3.11697e-09
3.11698e-09
3.11697e-09
3.11698e-09
3.11698e-09
3.11698e-09
3.11698e-09
3.11697e-09
3.11698e-09
3.11697e-09
3.11699e-09
3.11697e-09
3.117e-09
3.11697e-09
3.11702e-09
3.11698e-09
3.11706e-09
3.11701e-09
3.11713e-09
3.11707e-09
3.11727e-09
3.11721e-09
3.11757e-09
3.11752e-09
3.11791e-09
3.11739e-09
3.11638e-09
3.11274e-09
3.10547e-09
3.09902e-09
3.05931e-09
3.06618e-09
3.07371e-09
3.07755e-09
3.07866e-09
3.07922e-09
3.07883e-09
3.07889e-09
3.07852e-09
3.07857e-09
3.07836e-09
3.07842e-09
3.07829e-09
3.07834e-09
3.07826e-09
3.0783e-09
3.07825e-09
3.07828e-09
3.07825e-09
3.07827e-09
3.07825e-09
3.07826e-09
3.07825e-09
3.07826e-09
3.07825e-09
3.07825e-09
3.07826e-09
3.07825e-09
3.07826e-09
3.07825e-09
3.07827e-09
3.07825e-09
3.07828e-09
3.07825e-09
3.0783e-09
3.07826e-09
3.07834e-09
3.07829e-09
3.07842e-09
3.07836e-09
3.07857e-09
3.07852e-09
3.07889e-09
3.07883e-09
3.07922e-09
3.07866e-09
3.07755e-09
3.07371e-09
3.06618e-09
3.05931e-09
3.01894e-09
3.02622e-09
3.03397e-09
3.03798e-09
3.03918e-09
3.03978e-09
3.03939e-09
3.03945e-09
3.03907e-09
3.03912e-09
3.0389e-09
3.03895e-09
3.03882e-09
3.03887e-09
3.03879e-09
3.03882e-09
3.03877e-09
3.03881e-09
3.03877e-09
3.03879e-09
3.03877e-09
3.03878e-09
3.03877e-09
3.03878e-09
3.03877e-09
3.03877e-09
3.03878e-09
3.03877e-09
3.03878e-09
3.03877e-09
3.03879e-09
3.03877e-09
3.03881e-09
3.03877e-09
3.03883e-09
3.03879e-09
3.03887e-09
3.03882e-09
3.03895e-09
3.0389e-09
3.03912e-09
3.03907e-09
3.03945e-09
3.03939e-09
3.03978e-09
3.03918e-09
3.03797e-09
3.03397e-09
3.02622e-09
3.01894e-09
2.97798e-09
2.98564e-09
2.99359e-09
2.99773e-09
2.99902e-09
2.99965e-09
2.99926e-09
2.99932e-09
2.99893e-09
2.99897e-09
2.99875e-09
2.9988e-09
2.99867e-09
2.99871e-09
2.99862e-09
2.99866e-09
2.99861e-09
2.99864e-09
2.99861e-09
2.99863e-09
2.99861e-09
2.99862e-09
2.99861e-09
2.99861e-09
2.99861e-09
2.99861e-09
2.99861e-09
2.99861e-09
2.99862e-09
2.99861e-09
2.99863e-09
2.99861e-09
2.99864e-09
2.99861e-09
2.99866e-09
2.99862e-09
2.99871e-09
2.99867e-09
2.9988e-09
2.99875e-09
2.99897e-09
2.99893e-09
2.99932e-09
2.99926e-09
2.99965e-09
2.99902e-09
2.99773e-09
2.99359e-09
2.98564e-09
2.97798e-09
2.9365e-09
2.94448e-09
2.95262e-09
2.95688e-09
2.95823e-09
2.9589e-09
2.95851e-09
2.95856e-09
2.95817e-09
2.9582e-09
2.95797e-09
2.95802e-09
2.95788e-09
2.95792e-09
2.95784e-09
2.95787e-09
2.95782e-09
2.95785e-09
2.95782e-09
2.95784e-09
2.95781e-09
2.95783e-09
2.95781e-09
2.95782e-09
2.95782e-09
2.95782e-09
2.95782e-09
2.95781e-09
2.95783e-09
2.95781e-09
2.95784e-09
2.95782e-09
2.95785e-09
2.95782e-09
2.95787e-09
2.95784e-09
2.95792e-09
2.95788e-09
2.95802e-09
2.95797e-09
2.9582e-09
2.95817e-09
2.95856e-09
2.95851e-09
2.9589e-09
2.95823e-09
2.95688e-09
2.95262e-09
2.94448e-09
2.9365e-09
2.89454e-09
2.90282e-09
2.91111e-09
2.91547e-09
2.91688e-09
2.91758e-09
2.91719e-09
2.91724e-09
2.91683e-09
2.91686e-09
2.91662e-09
2.91667e-09
2.91652e-09
2.91656e-09
2.91647e-09
2.91651e-09
2.91645e-09
2.91649e-09
2.91645e-09
2.91647e-09
2.91645e-09
2.91646e-09
2.91645e-09
2.91646e-09
2.91645e-09
2.91645e-09
2.91646e-09
2.91645e-09
2.91646e-09
2.91645e-09
2.91647e-09
2.91645e-09
2.91649e-09
2.91645e-09
2.91651e-09
2.91647e-09
2.91656e-09
2.91652e-09
2.91667e-09
2.91662e-09
2.91686e-09
2.91683e-09
2.91724e-09
2.91719e-09
2.91758e-09
2.91688e-09
2.91547e-09
2.91111e-09
2.90282e-09
2.89454e-09
2.85216e-09
2.8607e-09
2.86913e-09
2.87356e-09
2.87502e-09
2.87575e-09
2.87535e-09
2.87539e-09
2.87498e-09
2.875e-09
2.87476e-09
2.8748e-09
2.87465e-09
2.87469e-09
2.8746e-09
2.87464e-09
2.87457e-09
2.87461e-09
2.87457e-09
2.87459e-09
2.87457e-09
2.87458e-09
2.87457e-09
2.87458e-09
2.87457e-09
2.87457e-09
2.87458e-09
2.87457e-09
2.87458e-09
2.87457e-09
2.87459e-09
2.87457e-09
2.87461e-09
2.87457e-09
2.87464e-09
2.8746e-09
2.87469e-09
2.87465e-09
2.8748e-09
2.87476e-09
2.87501e-09
2.87498e-09
2.87539e-09
2.87535e-09
2.87575e-09
2.87502e-09
2.87355e-09
2.86913e-09
2.8607e-09
2.85216e-09
2.80941e-09
2.81818e-09
2.82672e-09
2.83121e-09
2.83271e-09
2.83346e-09
2.83306e-09
2.8331e-09
2.83268e-09
2.83269e-09
2.83244e-09
2.83248e-09
2.83233e-09
2.83236e-09
2.83227e-09
2.8323e-09
2.83224e-09
2.83228e-09
2.83224e-09
2.83226e-09
2.83223e-09
2.83225e-09
2.83223e-09
2.83224e-09
2.83224e-09
2.83224e-09
2.83224e-09
2.83223e-09
2.83225e-09
2.83223e-09
2.83226e-09
2.83224e-09
2.83228e-09
2.83224e-09
2.8323e-09
2.83227e-09
2.83236e-09
2.83233e-09
2.83248e-09
2.83244e-09
2.83269e-09
2.83267e-09
2.8331e-09
2.83306e-09
2.83346e-09
2.83271e-09
2.8312e-09
2.82672e-09
2.81818e-09
2.80941e-09
2.76636e-09
2.77533e-09
2.78396e-09
2.78848e-09
2.79002e-09
2.79078e-09
2.79037e-09
2.79041e-09
2.78998e-09
2.78999e-09
2.78973e-09
2.78976e-09
2.7896e-09
2.78964e-09
2.78954e-09
2.78958e-09
2.78951e-09
2.78955e-09
2.78951e-09
2.78953e-09
2.78951e-09
2.78952e-09
2.7895e-09
2.78951e-09
2.78951e-09
2.78951e-09
2.78951e-09
2.7895e-09
2.78952e-09
2.78951e-09
2.78953e-09
2.78951e-09
2.78955e-09
2.78951e-09
2.78958e-09
2.78954e-09
2.78964e-09
2.7896e-09
2.78976e-09
2.78973e-09
2.78999e-09
2.78998e-09
2.79041e-09
2.79037e-09
2.79078e-09
2.79002e-09
2.78848e-09
2.78395e-09
2.77533e-09
2.76636e-09
2.72307e-09
2.73219e-09
2.74089e-09
2.74543e-09
2.747e-09
2.74777e-09
2.74736e-09
2.74738e-09
2.74695e-09
2.74695e-09
2.74669e-09
2.74671e-09
2.74655e-09
2.74658e-09
2.74649e-09
2.74652e-09
2.74646e-09
2.74649e-09
2.74645e-09
2.74647e-09
2.74645e-09
2.74646e-09
2.74644e-09
2.74645e-09
2.74645e-09
2.74645e-09
2.74645e-09
2.74644e-09
2.74646e-09
2.74645e-09
2.74647e-09
2.74645e-09
2.74649e-09
2.74646e-09
2.74652e-09
2.74649e-09
2.74658e-09
2.74655e-09
2.74671e-09
2.74669e-09
2.74695e-09
2.74695e-09
2.74738e-09
2.74736e-09
2.74777e-09
2.747e-09
2.74543e-09
2.74088e-09
2.73219e-09
2.72307e-09
2.6796e-09
2.68884e-09
2.69758e-09
2.70214e-09
2.70371e-09
2.7045e-09
2.70408e-09
2.7041e-09
2.70365e-09
2.70365e-09
2.70338e-09
2.7034e-09
2.70324e-09
2.70326e-09
2.70316e-09
2.7032e-09
2.70313e-09
2.70316e-09
2.70312e-09
2.70315e-09
2.70312e-09
2.70313e-09
2.70312e-09
2.70312e-09
2.70312e-09
2.70312e-09
2.70312e-09
2.70312e-09
2.70313e-09
2.70312e-09
2.70315e-09
2.70312e-09
2.70316e-09
2.70313e-09
2.7032e-09
2.70316e-09
2.70327e-09
2.70324e-09
2.7034e-09
2.70338e-09
2.70365e-09
2.70365e-09
2.7041e-09
2.70408e-09
2.70449e-09
2.70371e-09
2.70214e-09
2.69758e-09
2.68884e-09
2.6796e-09
2.63601e-09
2.64534e-09
2.65409e-09
2.65866e-09
2.66024e-09
2.66102e-09
2.6606e-09
2.66061e-09
2.66015e-09
2.66014e-09
2.65987e-09
2.65988e-09
2.65972e-09
2.65974e-09
2.65964e-09
2.65967e-09
2.65961e-09
2.65964e-09
2.6596e-09
2.65962e-09
2.65959e-09
2.65961e-09
2.65959e-09
2.6596e-09
2.65959e-09
2.65959e-09
2.6596e-09
2.65959e-09
2.65961e-09
2.65959e-09
2.65962e-09
2.6596e-09
2.65964e-09
2.65961e-09
2.65967e-09
2.65964e-09
2.65974e-09
2.65972e-09
2.65988e-09
2.65987e-09
2.66014e-09
2.66015e-09
2.66061e-09
2.6606e-09
2.66102e-09
2.66024e-09
2.65865e-09
2.65409e-09
2.64534e-09
2.63601e-09
2.59237e-09
2.60174e-09
2.6105e-09
2.61505e-09
2.61663e-09
2.61741e-09
2.61698e-09
2.61698e-09
2.61652e-09
2.6165e-09
2.61622e-09
2.61623e-09
2.61606e-09
2.61608e-09
2.61598e-09
2.61601e-09
2.61594e-09
2.61597e-09
2.61593e-09
2.61595e-09
2.61593e-09
2.61594e-09
2.61592e-09
2.61593e-09
2.61593e-09
2.61593e-09
2.61593e-09
2.61592e-09
2.61594e-09
2.61593e-09
2.61595e-09
2.61593e-09
2.61597e-09
2.61594e-09
2.61601e-09
2.61598e-09
2.61608e-09
2.61606e-09
2.61623e-09
2.61622e-09
2.6165e-09
2.61652e-09
2.61698e-09
2.61698e-09
2.61741e-09
2.61663e-09
2.61505e-09
2.6105e-09
2.60174e-09
2.59237e-09
2.54873e-09
2.5581e-09
2.56685e-09
2.57138e-09
2.57295e-09
2.57373e-09
2.57328e-09
2.57328e-09
2.57281e-09
2.57278e-09
2.57249e-09
2.5725e-09
2.57233e-09
2.57235e-09
2.57224e-09
2.57227e-09
2.5722e-09
2.57223e-09
2.57219e-09
2.57221e-09
2.57219e-09
2.5722e-09
2.57218e-09
2.57219e-09
2.57218e-09
2.57218e-09
2.57219e-09
2.57218e-09
2.5722e-09
2.57219e-09
2.57221e-09
2.57219e-09
2.57223e-09
2.5722e-09
2.57227e-09
2.57224e-09
2.57235e-09
2.57233e-09
2.5725e-09
2.57249e-09
2.57278e-09
2.57281e-09
2.57328e-09
2.57328e-09
2.57372e-09
2.57295e-09
2.57138e-09
2.56685e-09
2.5581e-09
2.54873e-09
2.50516e-09
2.51449e-09
2.52321e-09
2.5277e-09
2.52925e-09
2.53003e-09
2.52957e-09
2.52956e-09
2.52908e-09
2.52904e-09
2.52875e-09
2.52875e-09
2.52858e-09
2.5286e-09
2.52849e-09
2.52851e-09
2.52845e-09
2.52848e-09
2.52843e-09
2.52845e-09
2.52843e-09
2.52844e-09
2.52842e-09
2.52843e-09
2.52843e-09
2.52843e-09
2.52843e-09
2.52842e-09
2.52844e-09
2.52843e-09
2.52845e-09
2.52843e-09
2.52848e-09
2.52845e-09
2.52851e-09
2.52849e-09
2.5286e-09
2.52858e-09
2.52875e-09
2.52875e-09
2.52904e-09
2.52908e-09
2.52956e-09
2.52957e-09
2.53002e-09
2.52925e-09
2.5277e-09
2.52321e-09
2.51449e-09
2.50516e-09
2.46168e-09
2.47097e-09
2.47963e-09
2.48408e-09
2.48561e-09
2.48637e-09
2.4859e-09
2.48587e-09
2.48539e-09
2.48534e-09
2.48505e-09
2.48505e-09
2.48487e-09
2.48488e-09
2.48477e-09
2.4848e-09
2.48473e-09
2.48476e-09
2.48472e-09
2.48474e-09
2.48471e-09
2.48472e-09
2.4847e-09
2.48471e-09
2.48471e-09
2.48471e-09
2.48471e-09
2.4847e-09
2.48472e-09
2.48471e-09
2.48474e-09
2.48472e-09
2.48476e-09
2.48473e-09
2.4848e-09
2.48477e-09
2.48488e-09
2.48487e-09
2.48505e-09
2.48505e-09
2.48534e-09
2.48539e-09
2.48587e-09
2.4859e-09
2.48636e-09
2.4856e-09
2.48408e-09
2.47963e-09
2.47097e-09
2.46168e-09
2.41835e-09
2.42759e-09
2.43617e-09
2.44056e-09
2.44206e-09
2.4428e-09
2.44233e-09
2.44229e-09
2.4418e-09
2.44174e-09
2.44144e-09
2.44143e-09
2.44125e-09
2.44126e-09
2.44115e-09
2.44118e-09
2.44111e-09
2.44113e-09
2.44109e-09
2.44111e-09
2.44108e-09
2.4411e-09
2.44108e-09
2.44109e-09
2.44108e-09
2.44108e-09
2.44109e-09
2.44108e-09
2.4411e-09
2.44108e-09
2.44111e-09
2.44109e-09
2.44113e-09
2.44111e-09
2.44118e-09
2.44115e-09
2.44126e-09
2.44125e-09
2.44143e-09
2.44144e-09
2.44174e-09
2.4418e-09
2.44229e-09
2.44233e-09
2.4428e-09
2.44205e-09
2.44055e-09
2.43616e-09
2.42759e-09
2.41834e-09
2.3752e-09
2.38442e-09
2.39286e-09
2.39719e-09
2.39865e-09
2.39938e-09
2.39889e-09
2.39884e-09
2.39835e-09
2.39828e-09
2.39798e-09
2.39796e-09
2.39778e-09
2.39779e-09
2.39767e-09
2.3977e-09
2.39763e-09
2.39765e-09
2.39761e-09
2.39763e-09
2.3976e-09
2.39761e-09
2.3976e-09
2.3976e-09
2.3976e-09
2.3976e-09
2.3976e-09
2.3976e-09
2.39761e-09
2.3976e-09
2.39763e-09
2.39761e-09
2.39765e-09
2.39763e-09
2.3977e-09
2.39767e-09
2.39779e-09
2.39778e-09
2.39796e-09
2.39798e-09
2.39828e-09
2.39834e-09
2.39884e-09
2.39889e-09
2.39938e-09
2.39865e-09
2.39718e-09
2.39286e-09
2.38441e-09
2.3752e-09
2.33229e-09
2.34148e-09
2.34977e-09
2.35401e-09
2.35544e-09
2.35615e-09
2.35565e-09
2.35558e-09
2.35508e-09
2.35501e-09
2.3547e-09
2.35468e-09
2.35449e-09
2.3545e-09
2.35438e-09
2.3544e-09
2.35433e-09
2.35436e-09
2.35432e-09
2.35434e-09
2.35431e-09
2.35432e-09
2.3543e-09
2.35431e-09
2.3543e-09
2.3543e-09
2.35431e-09
2.3543e-09
2.35432e-09
2.35431e-09
2.35434e-09
2.35432e-09
2.35436e-09
2.35433e-09
2.35441e-09
2.35439e-09
2.3545e-09
2.35449e-09
2.35468e-09
2.3547e-09
2.35501e-09
2.35508e-09
2.35558e-09
2.35565e-09
2.35614e-09
2.35544e-09
2.35401e-09
2.34976e-09
2.34147e-09
2.33229e-09
2.28965e-09
2.29881e-09
2.30691e-09
2.31108e-09
2.31247e-09
2.31315e-09
2.31263e-09
2.31255e-09
2.31205e-09
2.31196e-09
2.31165e-09
2.31163e-09
2.31144e-09
2.31144e-09
2.31133e-09
2.31134e-09
2.31127e-09
2.3113e-09
2.31126e-09
2.31127e-09
2.31125e-09
2.31126e-09
2.31124e-09
2.31125e-09
2.31124e-09
2.31124e-09
2.31125e-09
2.31124e-09
2.31126e-09
2.31125e-09
2.31127e-09
2.31125e-09
2.3113e-09
2.31127e-09
2.31135e-09
2.31133e-09
2.31144e-09
2.31144e-09
2.31163e-09
2.31165e-09
2.31196e-09
2.31205e-09
2.31255e-09
2.31263e-09
2.31314e-09
2.31247e-09
2.31108e-09
2.30691e-09
2.29881e-09
2.28965e-09
2.24732e-09
2.25644e-09
2.26437e-09
2.26843e-09
2.26976e-09
2.27041e-09
2.26989e-09
2.2698e-09
2.26928e-09
2.26919e-09
2.26888e-09
2.26884e-09
2.26865e-09
2.26865e-09
2.26854e-09
2.26855e-09
2.26848e-09
2.26851e-09
2.26846e-09
2.26848e-09
2.26845e-09
2.26846e-09
2.26845e-09
2.26845e-09
2.26845e-09
2.26845e-09
2.26845e-09
2.26845e-09
2.26846e-09
2.26845e-09
2.26848e-09
2.26846e-09
2.26851e-09
2.26848e-09
2.26855e-09
2.26854e-09
2.26865e-09
2.26865e-09
2.26884e-09
2.26888e-09
2.26919e-09
2.26928e-09
2.2698e-09
2.26989e-09
2.27041e-09
2.26976e-09
2.26843e-09
2.26437e-09
2.25644e-09
2.24732e-09
2.20534e-09
2.21441e-09
2.22214e-09
2.22609e-09
2.22737e-09
2.22799e-09
2.22745e-09
2.22734e-09
2.22682e-09
2.22672e-09
2.2264e-09
2.22636e-09
2.22617e-09
2.22617e-09
2.22605e-09
2.22607e-09
2.22599e-09
2.22602e-09
2.22597e-09
2.22599e-09
2.22596e-09
2.22597e-09
2.22596e-09
2.22596e-09
2.22596e-09
2.22596e-09
2.22596e-09
2.22596e-09
2.22597e-09
2.22596e-09
2.22599e-09
2.22597e-09
2.22602e-09
2.22599e-09
2.22607e-09
2.22605e-09
2.22617e-09
2.22617e-09
2.22636e-09
2.2264e-09
2.22672e-09
2.22682e-09
2.22734e-09
2.22745e-09
2.22799e-09
2.22736e-09
2.22609e-09
2.22214e-09
2.21441e-09
2.20534e-09
2.16372e-09
2.17274e-09
2.18025e-09
2.1841e-09
2.18531e-09
2.18589e-09
2.18534e-09
2.18522e-09
2.1847e-09
2.18458e-09
2.18426e-09
2.18422e-09
2.18402e-09
2.18402e-09
2.1839e-09
2.18391e-09
2.18384e-09
2.18386e-09
2.18382e-09
2.18384e-09
2.18381e-09
2.18382e-09
2.1838e-09
2.18381e-09
2.1838e-09
2.1838e-09
2.18381e-09
2.1838e-09
2.18382e-09
2.18381e-09
2.18384e-09
2.18382e-09
2.18386e-09
2.18384e-09
2.18391e-09
2.1839e-09
2.18402e-09
2.18403e-09
2.18422e-09
2.18426e-09
2.18458e-09
2.1847e-09
2.18522e-09
2.18534e-09
2.18589e-09
2.1853e-09
2.18409e-09
2.18025e-09
2.17274e-09
2.16372e-09
2.12251e-09
2.13146e-09
2.13874e-09
2.14247e-09
2.14361e-09
2.14416e-09
2.1436e-09
2.14346e-09
2.14293e-09
2.14281e-09
2.14248e-09
2.14243e-09
2.14224e-09
2.14223e-09
2.14211e-09
2.14212e-09
2.14205e-09
2.14207e-09
2.14203e-09
2.14204e-09
2.14201e-09
2.14202e-09
2.14201e-09
2.14201e-09
2.14201e-09
2.14201e-09
2.14201e-09
2.14201e-09
2.14202e-09
2.14201e-09
2.14204e-09
2.14203e-09
2.14207e-09
2.14205e-09
2.14212e-09
2.14211e-09
2.14223e-09
2.14224e-09
2.14243e-09
2.14249e-09
2.14281e-09
2.14293e-09
2.14346e-09
2.1436e-09
2.14416e-09
2.14361e-09
2.14247e-09
2.13874e-09
2.13146e-09
2.12251e-09
2.08171e-09
2.09059e-09
2.09763e-09
2.10123e-09
2.1023e-09
2.10282e-09
2.10224e-09
2.10208e-09
2.10155e-09
2.10142e-09
2.10109e-09
2.10103e-09
2.10084e-09
2.10082e-09
2.10071e-09
2.10072e-09
2.10064e-09
2.10066e-09
2.10062e-09
2.10063e-09
2.10061e-09
2.10062e-09
2.1006e-09
2.10061e-09
2.1006e-09
2.1006e-09
2.10061e-09
2.1006e-09
2.10062e-09
2.10061e-09
2.10063e-09
2.10062e-09
2.10066e-09
2.10064e-09
2.10072e-09
2.10071e-09
2.10083e-09
2.10084e-09
2.10103e-09
2.10109e-09
2.10142e-09
2.10155e-09
2.10208e-09
2.10224e-09
2.10282e-09
2.1023e-09
2.10123e-09
2.09763e-09
2.09058e-09
2.08171e-09
2.04136e-09