/*--------------------------------*- C++ -*----------------------------------*\
| =========                 |                                                 |
| \\      /  F ield         | OpenFOAM: The Open Source CFD Toolbox           |
|  \\    /   O peration     | Version:  dev                                   |
|   \\  /    A nd           | Web:      www.OpenFOAM.org                      |
|    \\/     M anipulation  |                                                 |
\*---------------------------------------------------------------------------*/
FoamFile
{
    version     2.0;
    format      ascii;
    class       volScalarField;
    location    "0.1";
    object      c-C6H4;
}
// * * * * * * * * * * * * * * * * * * * * * * * * * * * * * * * * * * * * * //

dimensions      [0 0 0 0 0 0 0];

internalField   nonuniform List<scalar> 
8000
(
4.16472e-07
4.17148e-07
4.17953e-07
4.18286e-07
4.18344e-07
4.18404e-07
4.1838e-07
4.18405e-07
4.18383e-07
4.18399e-07
4.18384e-07
4.18395e-07
4.18385e-07
4.18392e-07
4.18386e-07
4.18391e-07
4.18386e-07
4.1839e-07
4.18387e-07
4.1839e-07
4.18388e-07
4.18389e-07
4.18388e-07
4.18388e-07
4.18388e-07
4.18388e-07
4.18388e-07
4.18388e-07
4.18389e-07
4.18388e-07
4.1839e-07
4.18387e-07
4.1839e-07
4.18386e-07
4.18391e-07
4.18386e-07
4.18392e-07
4.18385e-07
4.18395e-07
4.18384e-07
4.18399e-07
4.18382e-07
4.18405e-07
4.1838e-07
4.18403e-07
4.18344e-07
4.18286e-07
4.17953e-07
4.17148e-07
4.16472e-07
8.16806e-07
8.17883e-07
8.19294e-07
8.19869e-07
8.19965e-07
8.20068e-07
8.20025e-07
8.20069e-07
8.20028e-07
8.20057e-07
8.2003e-07
8.20051e-07
8.20032e-07
8.20046e-07
8.20034e-07
8.20043e-07
8.20034e-07
8.20042e-07
8.20036e-07
8.20041e-07
8.20037e-07
8.2004e-07
8.20037e-07
8.20039e-07
8.20038e-07
8.20038e-07
8.20039e-07
8.20037e-07
8.2004e-07
8.20037e-07
8.20041e-07
8.20036e-07
8.20042e-07
8.20034e-07
8.20043e-07
8.20034e-07
8.20046e-07
8.20032e-07
8.20051e-07
8.2003e-07
8.20058e-07
8.20028e-07
8.20069e-07
8.20025e-07
8.20068e-07
8.19965e-07
8.19869e-07
8.19294e-07
8.17883e-07
8.16807e-07
1.4681e-06
1.47056e-06
1.47366e-06
1.47496e-06
1.47513e-06
1.47539e-06
1.47527e-06
1.47539e-06
1.47528e-06
1.47536e-06
1.47529e-06
1.47534e-06
1.4753e-06
1.47533e-06
1.4753e-06
1.47533e-06
1.4753e-06
1.47532e-06
1.47531e-06
1.47532e-06
1.47531e-06
1.47532e-06
1.47531e-06
1.47531e-06
1.47531e-06
1.47531e-06
1.47531e-06
1.47531e-06
1.47532e-06
1.47531e-06
1.47532e-06
1.47531e-06
1.47532e-06
1.4753e-06
1.47533e-06
1.4753e-06
1.47533e-06
1.4753e-06
1.47534e-06
1.47529e-06
1.47536e-06
1.47528e-06
1.47539e-06
1.47527e-06
1.47539e-06
1.47513e-06
1.47496e-06
1.47366e-06
1.47057e-06
1.4681e-06
2.63518e-06
2.64015e-06
2.6462e-06
2.64874e-06
2.64901e-06
2.64954e-06
2.64928e-06
2.64953e-06
2.6493e-06
2.64948e-06
2.64932e-06
2.64944e-06
2.64934e-06
2.64942e-06
2.64935e-06
2.6494e-06
2.64935e-06
2.64939e-06
2.64936e-06
2.64939e-06
2.64937e-06
2.64938e-06
2.64937e-06
2.64938e-06
2.64938e-06
2.64938e-06
2.64938e-06
2.64937e-06
2.64938e-06
2.64937e-06
2.64939e-06
2.64936e-06
2.64939e-06
2.64935e-06
2.6494e-06
2.64935e-06
2.64942e-06
2.64934e-06
2.64944e-06
2.64932e-06
2.64948e-06
2.6493e-06
2.64953e-06
2.64928e-06
2.64954e-06
2.64901e-06
2.64874e-06
2.6462e-06
2.64015e-06
2.63518e-06
4.16832e-06
4.17581e-06
4.18496e-06
4.18874e-06
4.18905e-06
4.18987e-06
4.18942e-06
4.18984e-06
4.18946e-06
4.18974e-06
4.18949e-06
4.18969e-06
4.18952e-06
4.18965e-06
4.18954e-06
4.18962e-06
4.18954e-06
4.18961e-06
4.18956e-06
4.1896e-06
4.18957e-06
4.18959e-06
4.18957e-06
4.18959e-06
4.18958e-06
4.18958e-06
4.18959e-06
4.18957e-06
4.18959e-06
4.18957e-06
4.1896e-06
4.18956e-06
4.18961e-06
4.18954e-06
4.18963e-06
4.18953e-06
4.18965e-06
4.18952e-06
4.18969e-06
4.18949e-06
4.18974e-06
4.18946e-06
4.18984e-06
4.18942e-06
4.18987e-06
4.18905e-06
4.18874e-06
4.18496e-06
4.17581e-06
4.16832e-06
5.73046e-06
5.73984e-06
5.75159e-06
5.75629e-06
5.75659e-06
5.75764e-06
5.75702e-06
5.75757e-06
5.75706e-06
5.75743e-06
5.7571e-06
5.75736e-06
5.75714e-06
5.75731e-06
5.75716e-06
5.75728e-06
5.75717e-06
5.75726e-06
5.7572e-06
5.75725e-06
5.75721e-06
5.75724e-06
5.75721e-06
5.75723e-06
5.75722e-06
5.75722e-06
5.75723e-06
5.75721e-06
5.75724e-06
5.75721e-06
5.75725e-06
5.7572e-06
5.75726e-06
5.75717e-06
5.75728e-06
5.75716e-06
5.75731e-06
5.75714e-06
5.75736e-06
5.7571e-06
5.75744e-06
5.75706e-06
5.75757e-06
5.75702e-06
5.75764e-06
5.75659e-06
5.75629e-06
5.75159e-06
5.73984e-06
5.73046e-06
7.10641e-06
7.11708e-06
7.13101e-06
7.13637e-06
7.13665e-06
7.13785e-06
7.13708e-06
7.13773e-06
7.13711e-06
7.13757e-06
7.13716e-06
7.13748e-06
7.13721e-06
7.13741e-06
7.13724e-06
7.13738e-06
7.13725e-06
7.13736e-06
7.13728e-06
7.13734e-06
7.13729e-06
7.13733e-06
7.1373e-06
7.13732e-06
7.13731e-06
7.13731e-06
7.13732e-06
7.1373e-06
7.13733e-06
7.13729e-06
7.13734e-06
7.13728e-06
7.13736e-06
7.13725e-06
7.13738e-06
7.13723e-06
7.13741e-06
7.13721e-06
7.13748e-06
7.13716e-06
7.13757e-06
7.13711e-06
7.13773e-06
7.13708e-06
7.13785e-06
7.13665e-06
7.13637e-06
7.13101e-06
7.11708e-06
7.10641e-06
8.2034e-06
8.215e-06
8.23092e-06
8.2368e-06
8.23705e-06
8.23837e-06
8.23747e-06
8.2382e-06
8.23748e-06
8.23801e-06
8.23754e-06
8.2379e-06
8.23759e-06
8.23783e-06
8.23762e-06
8.23779e-06
8.23764e-06
8.23776e-06
8.23767e-06
8.23774e-06
8.23769e-06
8.23773e-06
8.23769e-06
8.23772e-06
8.23771e-06
8.23771e-06
8.23772e-06
8.23769e-06
8.23773e-06
8.23769e-06
8.23774e-06
8.23767e-06
8.23776e-06
8.23764e-06
8.23779e-06
8.23762e-06
8.23783e-06
8.23759e-06
8.2379e-06
8.23754e-06
8.23801e-06
8.23748e-06
8.2382e-06
8.23747e-06
8.23837e-06
8.23705e-06
8.2368e-06
8.23092e-06
8.215e-06
8.2034e-06
9.00004e-06
9.01245e-06
9.03032e-06
9.03666e-06
9.03689e-06
9.03833e-06
9.03728e-06
9.0381e-06
9.03728e-06
9.03787e-06
9.03734e-06
9.03775e-06
9.0374e-06
9.03767e-06
9.03744e-06
9.03762e-06
9.03746e-06
9.0376e-06
9.03749e-06
9.03758e-06
9.03751e-06
9.03756e-06
9.03752e-06
9.03754e-06
9.03753e-06
9.03753e-06
9.03754e-06
9.03752e-06
9.03756e-06
9.03751e-06
9.03757e-06
9.03749e-06
9.0376e-06
9.03746e-06
9.03762e-06
9.03743e-06
9.03767e-06
9.0374e-06
9.03775e-06
9.03734e-06
9.03787e-06
9.03728e-06
9.0381e-06
9.03728e-06
9.03832e-06
9.03689e-06
9.03666e-06
9.03032e-06
9.01245e-06
9.00005e-06
9.5187e-06
9.53195e-06
9.55186e-06
9.5587e-06
9.55893e-06
9.56048e-06
9.5593e-06
9.56021e-06
9.55928e-06
9.55994e-06
9.55934e-06
9.5598e-06
9.55941e-06
9.55971e-06
9.55945e-06
9.55966e-06
9.55947e-06
9.55963e-06
9.55951e-06
9.5596e-06
9.55953e-06
9.55958e-06
9.55954e-06
9.55957e-06
9.55955e-06
9.55955e-06
9.55957e-06
9.55954e-06
9.55958e-06
9.55953e-06
9.5596e-06
9.55951e-06
9.55963e-06
9.55947e-06
9.55966e-06
9.55945e-06
9.55971e-06
9.55941e-06
9.5598e-06
9.55934e-06
9.55994e-06
9.55928e-06
9.56021e-06
9.5593e-06
9.56048e-06
9.55893e-06
9.5587e-06
9.55186e-06
9.53195e-06
9.5187e-06
9.79015e-06
9.8043e-06
9.82623e-06
9.83361e-06
9.83386e-06
9.83554e-06
9.83422e-06
9.83521e-06
9.83418e-06
9.83491e-06
9.83424e-06
9.83475e-06
9.83431e-06
9.83465e-06
9.83436e-06
9.83459e-06
9.83438e-06
9.83456e-06
9.83443e-06
9.83453e-06
9.83445e-06
9.83451e-06
9.83446e-06
9.83449e-06
9.83448e-06
9.83448e-06
9.83449e-06
9.83446e-06
9.83451e-06
9.83445e-06
9.83453e-06
9.83443e-06
9.83456e-06
9.83439e-06
9.83459e-06
9.83436e-06
9.83465e-06
9.83432e-06
9.83475e-06
9.83425e-06
9.83491e-06
9.83418e-06
9.83521e-06
9.83422e-06
9.83554e-06
9.83386e-06
9.83361e-06
9.82623e-06
9.80431e-06
9.79015e-06
9.8583e-06
9.87345e-06
9.8974e-06
9.90537e-06
9.90566e-06
9.90749e-06
9.90602e-06
9.90711e-06
9.90596e-06
9.90676e-06
9.90603e-06
9.90659e-06
9.90611e-06
9.90647e-06
9.90615e-06
9.90641e-06
9.90618e-06
9.90637e-06
9.90623e-06
9.90634e-06
9.90625e-06
9.90632e-06
9.90626e-06
9.9063e-06
9.90628e-06
9.90628e-06
9.9063e-06
9.90626e-06
9.90632e-06
9.90625e-06
9.90634e-06
9.90623e-06
9.90637e-06
9.90618e-06
9.90641e-06
9.90615e-06
9.90647e-06
9.90611e-06
9.90659e-06
9.90603e-06
9.90676e-06
9.90596e-06
9.90711e-06
9.90602e-06
9.90748e-06
9.90566e-06
9.90537e-06
9.8974e-06
9.87345e-06
9.8583e-06
9.76381e-06
9.77991e-06
9.80558e-06
9.8141e-06
9.81448e-06
9.81643e-06
9.81484e-06
9.81601e-06
9.81477e-06
9.81563e-06
9.81484e-06
9.81544e-06
9.81492e-06
9.81531e-06
9.81497e-06
9.81524e-06
9.815e-06
9.8152e-06
9.81505e-06
9.81517e-06
9.81507e-06
9.81514e-06
9.81508e-06
9.81512e-06
9.8151e-06
9.8151e-06
9.81512e-06
9.81508e-06
9.81514e-06
9.81507e-06
9.81517e-06
9.81505e-06
9.8152e-06
9.815e-06
9.81524e-06
9.81497e-06
9.81531e-06
9.81492e-06
9.81543e-06
9.81484e-06
9.81563e-06
9.81477e-06
9.81601e-06
9.81484e-06
9.81643e-06
9.81448e-06
9.8141e-06
9.80558e-06
9.77991e-06
9.76382e-06
9.54592e-06
9.56191e-06
9.58817e-06
9.59696e-06
9.5976e-06
9.59957e-06
9.598e-06
9.59915e-06
9.5979e-06
9.59875e-06
9.59795e-06
9.59855e-06
9.59803e-06
9.59841e-06
9.59807e-06
9.59835e-06
9.5981e-06
9.59831e-06
9.59815e-06
9.59827e-06
9.59817e-06
9.59824e-06
9.59819e-06
9.59822e-06
9.59821e-06
9.59821e-06
9.59822e-06
9.59819e-06
9.59824e-06
9.59818e-06
9.59827e-06
9.59815e-06
9.59831e-06
9.5981e-06
9.59835e-06
9.59807e-06
9.59842e-06
9.59803e-06
9.59855e-06
9.59796e-06
9.59875e-06
9.59789e-06
9.59915e-06
9.598e-06
9.59957e-06
9.5976e-06
9.59696e-06
9.58817e-06
9.56191e-06
9.54592e-06
9.22786e-06
9.24461e-06
9.27173e-06
9.28092e-06
9.2817e-06
9.28374e-06
9.28211e-06
9.2833e-06
9.28199e-06
9.28287e-06
9.28205e-06
9.28266e-06
9.28212e-06
9.28252e-06
9.28216e-06
9.28245e-06
9.28219e-06
9.2824e-06
9.28225e-06
9.28237e-06
9.28227e-06
9.28234e-06
9.28228e-06
9.28232e-06
9.2823e-06
9.2823e-06
9.28232e-06
9.28228e-06
9.28234e-06
9.28227e-06
9.28237e-06
9.28224e-06
9.2824e-06
9.28219e-06
9.28245e-06
9.28216e-06
9.28252e-06
9.28212e-06
9.28266e-06
9.28205e-06
9.28287e-06
9.28199e-06
9.2833e-06
9.28211e-06
9.28374e-06
9.2817e-06
9.28092e-06
9.27173e-06
9.24461e-06
9.22786e-06
8.86076e-06
8.87851e-06
8.90653e-06
8.91619e-06
8.91712e-06
8.91925e-06
8.91756e-06
8.91879e-06
8.91742e-06
8.91833e-06
8.91747e-06
8.9181e-06
8.91754e-06
8.91795e-06
8.91759e-06
8.91788e-06
8.91761e-06
8.91783e-06
8.91767e-06
8.9178e-06
8.91769e-06
8.91777e-06
8.9177e-06
8.91774e-06
8.91773e-06
8.91773e-06
8.91774e-06
8.9177e-06
8.91777e-06
8.91769e-06
8.9178e-06
8.91767e-06
8.91783e-06
8.91762e-06
8.91788e-06
8.91759e-06
8.91796e-06
8.91754e-06
8.9181e-06
8.91747e-06
8.91833e-06
8.91742e-06
8.91878e-06
8.91756e-06
8.91925e-06
8.91711e-06
8.91619e-06
8.90653e-06
8.87851e-06
8.86076e-06
8.4401e-06
8.45962e-06
8.48913e-06
8.49975e-06
8.50102e-06
8.50334e-06
8.50159e-06
8.50286e-06
8.50142e-06
8.50236e-06
8.50146e-06
8.50211e-06
8.50152e-06
8.50195e-06
8.50156e-06
8.50187e-06
8.50159e-06
8.50182e-06
8.50165e-06
8.50178e-06
8.50167e-06
8.50175e-06
8.50168e-06
8.50172e-06
8.5017e-06
8.5017e-06
8.50172e-06
8.50168e-06
8.50175e-06
8.50167e-06
8.50178e-06
8.50164e-06
8.50182e-06
8.50159e-06
8.50187e-06
8.50156e-06
8.50195e-06
8.50152e-06
8.50211e-06
8.50146e-06
8.50236e-06
8.50142e-06
8.50286e-06
8.50159e-06
8.50334e-06
8.50102e-06
8.49975e-06
8.48913e-06
8.45962e-06
8.4401e-06
8.01212e-06
8.03283e-06
8.06278e-06
8.0738e-06
8.07524e-06
8.07763e-06
8.07584e-06
8.07713e-06
8.07566e-06
8.07661e-06
8.07569e-06
8.07635e-06
8.07575e-06
8.07618e-06
8.07579e-06
8.0761e-06
8.07581e-06
8.07605e-06
8.07587e-06
8.07601e-06
8.07589e-06
8.07597e-06
8.07591e-06
8.07595e-06
8.07593e-06
8.07593e-06
8.07595e-06
8.07591e-06
8.07597e-06
8.07589e-06
8.07601e-06
8.07587e-06
8.07605e-06
8.07581e-06
8.0761e-06
8.07579e-06
8.07618e-06
8.07575e-06
8.07635e-06
8.07569e-06
8.07661e-06
8.07565e-06
8.07713e-06
8.07584e-06
8.07762e-06
8.07524e-06
8.0738e-06
8.06278e-06
8.03283e-06
8.01212e-06
7.55936e-06
7.58233e-06
7.6138e-06
7.62579e-06
7.62731e-06
7.6299e-06
7.62795e-06
7.62935e-06
7.62775e-06
7.62879e-06
7.62779e-06
7.62851e-06
7.62785e-06
7.62833e-06
7.6279e-06
7.62824e-06
7.62793e-06
7.62818e-06
7.62799e-06
7.62814e-06
7.62802e-06
7.6281e-06
7.62803e-06
7.62808e-06
7.62806e-06
7.62806e-06
7.62808e-06
7.62803e-06
7.6281e-06
7.62802e-06
7.62814e-06
7.62799e-06
7.62818e-06
7.62793e-06
7.62824e-06
7.6279e-06
7.62833e-06
7.62785e-06
7.62851e-06
7.62779e-06
7.62879e-06
7.62775e-06
7.62935e-06
7.62795e-06
7.6299e-06
7.62731e-06
7.62579e-06
7.6138e-06
7.58233e-06
7.55936e-06
7.10784e-06
7.13189e-06
7.16288e-06
7.17498e-06
7.17661e-06
7.1792e-06
7.17726e-06
7.17864e-06
7.17705e-06
7.17806e-06
7.17707e-06
7.17778e-06
7.17714e-06
7.1776e-06
7.17718e-06
7.17751e-06
7.17721e-06
7.17746e-06
7.17727e-06
7.17742e-06
7.17729e-06
7.17738e-06
7.17731e-06
7.17735e-06
7.17733e-06
7.17733e-06
7.17735e-06
7.17731e-06
7.17738e-06
7.17729e-06
7.17742e-06
7.17727e-06
7.17746e-06
7.17721e-06
7.17752e-06
7.17718e-06
7.17761e-06
7.17714e-06
7.17778e-06
7.17708e-06
7.17807e-06
7.17705e-06
7.17864e-06
7.17726e-06
7.17919e-06
7.17661e-06
7.17498e-06
7.16288e-06
7.13189e-06
7.10784e-06
6.68302e-06
6.70844e-06
6.73913e-06
6.75141e-06
6.75316e-06
6.75577e-06
6.75384e-06
6.7552e-06
6.75361e-06
6.75462e-06
6.75363e-06
6.75433e-06
6.75369e-06
6.75415e-06
6.75373e-06
6.75406e-06
6.75375e-06
6.75401e-06
6.75382e-06
6.75396e-06
6.75384e-06
6.75393e-06
6.75385e-06
6.7539e-06
6.75388e-06
6.75388e-06
6.7539e-06
6.75385e-06
6.75393e-06
6.75384e-06
6.75396e-06
6.75382e-06
6.754e-06
6.75376e-06
6.75406e-06
6.75373e-06
6.75415e-06
6.75369e-06
6.75433e-06
6.75363e-06
6.75462e-06
6.75361e-06
6.7552e-06
6.75384e-06
6.75576e-06
6.75316e-06
6.75141e-06
6.73913e-06
6.70844e-06
6.68302e-06
6.2743e-06
6.30112e-06
6.33134e-06
6.34372e-06
6.34556e-06
6.34818e-06
6.34626e-06
6.34761e-06
6.34602e-06
6.34702e-06
6.34603e-06
6.34673e-06
6.34609e-06
6.34654e-06
6.34613e-06
6.34645e-06
6.34615e-06
6.3464e-06
6.34621e-06
6.34636e-06
6.34624e-06
6.34632e-06
6.34625e-06
6.34629e-06
6.34627e-06
6.34627e-06
6.34629e-06
6.34625e-06
6.34632e-06
6.34624e-06
6.34636e-06
6.34621e-06
6.3464e-06
6.34615e-06
6.34646e-06
6.34612e-06
6.34655e-06
6.34609e-06
6.34673e-06
6.34604e-06
6.34702e-06
6.34602e-06
6.34761e-06
6.34626e-06
6.34817e-06
6.34556e-06
6.34372e-06
6.33134e-06
6.30112e-06
6.2743e-06
5.88553e-06
5.90219e-06
5.93036e-06
5.94236e-06
5.94456e-06
5.94712e-06
5.94538e-06
5.94661e-06
5.94511e-06
5.946e-06
5.94507e-06
5.94569e-06
5.94509e-06
5.9455e-06
5.9451e-06
5.9454e-06
5.94512e-06
5.94534e-06
5.94517e-06
5.9453e-06
5.94519e-06
5.94526e-06
5.9452e-06
5.94524e-06
5.94522e-06
5.94522e-06
5.94524e-06
5.9452e-06
5.94526e-06
5.94519e-06
5.9453e-06
5.94516e-06
5.94534e-06
5.94512e-06
5.9454e-06
5.9451e-06
5.9455e-06
5.94509e-06
5.94569e-06
5.94507e-06
5.946e-06
5.94511e-06
5.94661e-06
5.94538e-06
5.94712e-06
5.94456e-06
5.94236e-06
5.93035e-06
5.90219e-06
5.88553e-06
5.5192e-06
5.53638e-06
5.5637e-06
5.57562e-06
5.57789e-06
5.58043e-06
5.57874e-06
5.57993e-06
5.57846e-06
5.57931e-06
5.5784e-06
5.579e-06
5.57841e-06
5.57881e-06
5.57842e-06
5.57871e-06
5.57844e-06
5.57866e-06
5.57848e-06
5.57862e-06
5.5785e-06
5.57858e-06
5.57851e-06
5.57855e-06
5.57854e-06
5.57854e-06
5.57855e-06
5.57851e-06
5.57858e-06
5.5785e-06
5.57862e-06
5.57848e-06
5.57866e-06
5.57844e-06
5.57871e-06
5.57842e-06
5.57881e-06
5.57841e-06
5.579e-06
5.57841e-06
5.57931e-06
5.57846e-06
5.57992e-06
5.57874e-06
5.58043e-06
5.57789e-06
5.57562e-06
5.5637e-06
5.53638e-06
5.5192e-06
5.16321e-06
5.18105e-06
5.20808e-06
5.2203e-06
5.22276e-06
5.22535e-06
5.22367e-06
5.22484e-06
5.22337e-06
5.2242e-06
5.2233e-06
5.22388e-06
5.2233e-06
5.22368e-06
5.2233e-06
5.22358e-06
5.22331e-06
5.22353e-06
5.22336e-06
5.22349e-06
5.22338e-06
5.22345e-06
5.22338e-06
5.22342e-06
5.22341e-06
5.22341e-06
5.22343e-06
5.22338e-06
5.22345e-06
5.22338e-06
5.22349e-06
5.22336e-06
5.22353e-06
5.22331e-06
5.22359e-06
5.2233e-06
5.22369e-06
5.2233e-06
5.22388e-06
5.2233e-06
5.2242e-06
5.22337e-06
5.22484e-06
5.22367e-06
5.22535e-06
5.22276e-06
5.2203e-06
5.20808e-06
5.18105e-06
5.16321e-06
4.83159e-06
4.84949e-06
4.87523e-06
4.88714e-06
4.88963e-06
4.89215e-06
4.89054e-06
4.89164e-06
4.89024e-06
4.89101e-06
4.89015e-06
4.8907e-06
4.89014e-06
4.8905e-06
4.89014e-06
4.89041e-06
4.89014e-06
4.89035e-06
4.89019e-06
4.89031e-06
4.8902e-06
4.89028e-06
4.89021e-06
4.89025e-06
4.89023e-06
4.89023e-06
4.89025e-06
4.89021e-06
4.89028e-06
4.8902e-06
4.89031e-06
4.89019e-06
4.89035e-06
4.89014e-06
4.89041e-06
4.89014e-06
4.89051e-06
4.89014e-06
4.8907e-06
4.89015e-06
4.89102e-06
4.89023e-06
4.89164e-06
4.89054e-06
4.89214e-06
4.88963e-06
4.88714e-06
4.87523e-06
4.84949e-06
4.83159e-06
4.52416e-06
4.54207e-06
4.5665e-06
4.57804e-06
4.58054e-06
4.58297e-06
4.58145e-06
4.58248e-06
4.58114e-06
4.58186e-06
4.58104e-06
4.58155e-06
4.58102e-06
4.58136e-06
4.58101e-06
4.58126e-06
4.58102e-06
4.58121e-06
4.58106e-06
4.58117e-06
4.58107e-06
4.58114e-06
4.58108e-06
4.58112e-06
4.5811e-06
4.5811e-06
4.58112e-06
4.58108e-06
4.58114e-06
4.58107e-06
4.58117e-06
4.58105e-06
4.58121e-06
4.58102e-06
4.58127e-06
4.58101e-06
4.58136e-06
4.58102e-06
4.58155e-06
4.58104e-06
4.58186e-06
4.58113e-06
4.58248e-06
4.58145e-06
4.58297e-06
4.58054e-06
4.57804e-06
4.5665e-06
4.54207e-06
4.52416e-06
4.24035e-06
4.25815e-06
4.28129e-06
4.29242e-06
4.29492e-06
4.29726e-06
4.29581e-06
4.29678e-06
4.2955e-06
4.29617e-06
4.29539e-06
4.29587e-06
4.29536e-06
4.29568e-06
4.29535e-06
4.29559e-06
4.29535e-06
4.29554e-06
4.29539e-06
4.2955e-06
4.2954e-06
4.29547e-06
4.29541e-06
4.29545e-06
4.29543e-06
4.29543e-06
4.29545e-06
4.29541e-06
4.29547e-06
4.2954e-06
4.2955e-06
4.29539e-06
4.29554e-06
4.29535e-06
4.29559e-06
4.29535e-06
4.29568e-06
4.29536e-06
4.29587e-06
4.29539e-06
4.29617e-06
4.2955e-06
4.29678e-06
4.29581e-06
4.29725e-06
4.29492e-06
4.29242e-06
4.28128e-06
4.25815e-06
4.24035e-06
3.97917e-06
3.99676e-06
4.01867e-06
4.02935e-06
4.03184e-06
4.03408e-06
4.03272e-06
4.03361e-06
4.0324e-06
4.03302e-06
4.03228e-06
4.03272e-06
4.03224e-06
4.03254e-06
4.03223e-06
4.03245e-06
4.03223e-06
4.0324e-06
4.03226e-06
4.03237e-06
4.03227e-06
4.03234e-06
4.03228e-06
4.03231e-06
4.0323e-06
4.0323e-06
4.03231e-06
4.03228e-06
4.03234e-06
4.03227e-06
4.03237e-06
4.03226e-06
4.0324e-06
4.03223e-06
4.03245e-06
4.03223e-06
4.03254e-06
4.03224e-06
4.03272e-06
4.03228e-06
4.03302e-06
4.0324e-06
4.03361e-06
4.03272e-06
4.03408e-06
4.03183e-06
4.02935e-06
4.01867e-06
3.99676e-06
3.97917e-06
3.73943e-06
3.75673e-06
3.77745e-06
3.78767e-06
3.79013e-06
3.79228e-06
3.79099e-06
3.79182e-06
3.79068e-06
3.79125e-06
3.79054e-06
3.79095e-06
3.7905e-06
3.79078e-06
3.79048e-06
3.79069e-06
3.79048e-06
3.79064e-06
3.79051e-06
3.79061e-06
3.79052e-06
3.79058e-06
3.79053e-06
3.79056e-06
3.79054e-06
3.79054e-06
3.79056e-06
3.79053e-06
3.79058e-06
3.79052e-06
3.79061e-06
3.79051e-06
3.79064e-06
3.79048e-06
3.79069e-06
3.79048e-06
3.79078e-06
3.7905e-06
3.79095e-06
3.79055e-06
3.79125e-06
3.79067e-06
3.79182e-06
3.79099e-06
3.79228e-06
3.79013e-06
3.78767e-06
3.77745e-06
3.75673e-06
3.73943e-06
3.51978e-06
3.53673e-06
3.55631e-06
3.56607e-06
3.56848e-06
3.57054e-06
3.56933e-06
3.57009e-06
3.56901e-06
3.56953e-06
3.56887e-06
3.56924e-06
3.56882e-06
3.56907e-06
3.56879e-06
3.56899e-06
3.56879e-06
3.56894e-06
3.56882e-06
3.56891e-06
3.56883e-06
3.56888e-06
3.56883e-06
3.56886e-06
3.56885e-06
3.56885e-06
3.56886e-06
3.56883e-06
3.56888e-06
3.56883e-06
3.56891e-06
3.56882e-06
3.56894e-06
3.56879e-06
3.56899e-06
3.56879e-06
3.56907e-06
3.56882e-06
3.56924e-06
3.56887e-06
3.56953e-06
3.56901e-06
3.57009e-06
3.56933e-06
3.57054e-06
3.56848e-06
3.56607e-06
3.55631e-06
3.53673e-06
3.51978e-06
3.31881e-06
3.33536e-06
3.35385e-06
3.36314e-06
3.36551e-06
3.36747e-06
3.36633e-06
3.36704e-06
3.36602e-06
3.36649e-06
3.36586e-06
3.36621e-06
3.3658e-06
3.36604e-06
3.36578e-06
3.36596e-06
3.36577e-06
3.36591e-06
3.3658e-06
3.36588e-06
3.3658e-06
3.36585e-06
3.36581e-06
3.36584e-06
3.36582e-06
3.36582e-06
3.36584e-06
3.36581e-06
3.36586e-06
3.3658e-06
3.36588e-06
3.36579e-06
3.36591e-06
3.36577e-06
3.36596e-06
3.36578e-06
3.36604e-06
3.3658e-06
3.36621e-06
3.36587e-06
3.36649e-06
3.36601e-06
3.36704e-06
3.36633e-06
3.36747e-06
3.3655e-06
3.36314e-06
3.35385e-06
3.33536e-06
3.31881e-06
3.13509e-06
3.15119e-06
3.16864e-06
3.17748e-06
3.17979e-06
3.18166e-06
3.18059e-06
3.18124e-06
3.18027e-06
3.1807e-06
3.18011e-06
3.18043e-06
3.18005e-06
3.18026e-06
3.18002e-06
3.18018e-06
3.18001e-06
3.18014e-06
3.18003e-06
3.18011e-06
3.18004e-06
3.18008e-06
3.18004e-06
3.18007e-06
3.18006e-06
3.18006e-06
3.18007e-06
3.18004e-06
3.18009e-06
3.18004e-06
3.18011e-06
3.18003e-06
3.18014e-06
3.18001e-06
3.18018e-06
3.18002e-06
3.18026e-06
3.18005e-06
3.18042e-06
3.18012e-06
3.1807e-06
3.18027e-06
3.18124e-06
3.18059e-06
3.18165e-06
3.17978e-06
3.17747e-06
3.16864e-06
3.15119e-06
3.13509e-06
2.96719e-06
2.98282e-06
2.99928e-06
3.00768e-06
3.00992e-06
3.0117e-06
3.01071e-06
3.01129e-06
3.01039e-06
3.01077e-06
3.01022e-06
3.0105e-06
3.01015e-06
3.01034e-06
3.01011e-06
3.01026e-06
3.0101e-06
3.01022e-06
3.01012e-06
3.0102e-06
3.01013e-06
3.01017e-06
3.01013e-06
3.01016e-06
3.01014e-06
3.01014e-06
3.01016e-06
3.01013e-06
3.01017e-06
3.01013e-06
3.0102e-06
3.01012e-06
3.01022e-06
3.0101e-06
3.01027e-06
3.01011e-06
3.01035e-06
3.01015e-06
3.0105e-06
3.01022e-06
3.01077e-06
3.01038e-06
3.01129e-06
3.01071e-06
3.0117e-06
3.00992e-06
3.00767e-06
2.99928e-06
2.98282e-06
2.96719e-06
2.81375e-06
2.82888e-06
2.84441e-06
2.85238e-06
2.85456e-06
2.85626e-06
2.85532e-06
2.85586e-06
2.855e-06
2.85535e-06
2.85483e-06
2.85508e-06
2.85475e-06
2.85493e-06
2.85471e-06
2.85485e-06
2.8547e-06
2.85481e-06
2.85472e-06
2.85479e-06
2.85472e-06
2.85476e-06
2.85473e-06
2.85475e-06
2.85474e-06
2.85474e-06
2.85475e-06
2.85473e-06
2.85476e-06
2.85472e-06
2.85479e-06
2.85472e-06
2.85481e-06
2.8547e-06
2.85485e-06
2.85471e-06
2.85493e-06
2.85475e-06
2.85508e-06
2.85483e-06
2.85535e-06
2.855e-06
2.85586e-06
2.85532e-06
2.85625e-06
2.85456e-06
2.85238e-06
2.84441e-06
2.82888e-06
2.81375e-06
2.67348e-06
2.68808e-06
2.70275e-06
2.71031e-06
2.71242e-06
2.71403e-06
2.71315e-06
2.71364e-06
2.71283e-06
2.71314e-06
2.71265e-06
2.71288e-06
2.71257e-06
2.71273e-06
2.71253e-06
2.71266e-06
2.71251e-06
2.71262e-06
2.71253e-06
2.71259e-06
2.71253e-06
2.71257e-06
2.71254e-06
2.71256e-06
2.71255e-06
2.71255e-06
2.71256e-06
2.71254e-06
2.71257e-06
2.71253e-06
2.71259e-06
2.71253e-06
2.71262e-06
2.71251e-06
2.71266e-06
2.71253e-06
2.71273e-06
2.71257e-06
2.71288e-06
2.71265e-06
2.71314e-06
2.71283e-06
2.71364e-06
2.71315e-06
2.71402e-06
2.71242e-06
2.71031e-06
2.70274e-06
2.68808e-06
2.67348e-06
2.54516e-06
2.55921e-06
2.57307e-06
2.58025e-06
2.58228e-06
2.58381e-06
2.58298e-06
2.58342e-06
2.58267e-06
2.58294e-06
2.58248e-06
2.58269e-06
2.58239e-06
2.58254e-06
2.58235e-06
2.58247e-06
2.58233e-06
2.58243e-06
2.58234e-06
2.58241e-06
2.58235e-06
2.58238e-06
2.58235e-06
2.58237e-06
2.58236e-06
2.58236e-06
2.58237e-06
2.58235e-06
2.58238e-06
2.58235e-06
2.58241e-06
2.58234e-06
2.58243e-06
2.58233e-06
2.58247e-06
2.58235e-06
2.58254e-06
2.58239e-06
2.58269e-06
2.58248e-06
2.58294e-06
2.58266e-06
2.58342e-06
2.58298e-06
2.5838e-06
2.58228e-06
2.58024e-06
2.57307e-06
2.55921e-06
2.54516e-06
2.42766e-06
2.44114e-06
2.45425e-06
2.46106e-06
2.46302e-06
2.46446e-06
2.46369e-06
2.46409e-06
2.46337e-06
2.46362e-06
2.46318e-06
2.46337e-06
2.46309e-06
2.46322e-06
2.46304e-06
2.46315e-06
2.46303e-06
2.46312e-06
2.46304e-06
2.46309e-06
2.46304e-06
2.46307e-06
2.46304e-06
2.46306e-06
2.46305e-06
2.46305e-06
2.46306e-06
2.46304e-06
2.46307e-06
2.46304e-06
2.46309e-06
2.46304e-06
2.46312e-06
2.46303e-06
2.46315e-06
2.46304e-06
2.46323e-06
2.46309e-06
2.46337e-06
2.46318e-06
2.46362e-06
2.46337e-06
2.46409e-06
2.46369e-06
2.46446e-06
2.46301e-06
2.46106e-06
2.45425e-06
2.44114e-06
2.42766e-06
2.31994e-06
2.33282e-06
2.34525e-06
2.35171e-06
2.35359e-06
2.35496e-06
2.35424e-06
2.35459e-06
2.35392e-06
2.35413e-06
2.35372e-06
2.35389e-06
2.35362e-06
2.35375e-06
2.35358e-06
2.35368e-06
2.35356e-06
2.35364e-06
2.35357e-06
2.35362e-06
2.35357e-06
2.3536e-06
2.35357e-06
2.35359e-06
2.35358e-06
2.35358e-06
2.35359e-06
2.35357e-06
2.3536e-06
2.35357e-06
2.35362e-06
2.35357e-06
2.35364e-06
2.35356e-06
2.35368e-06
2.35358e-06
2.35375e-06
2.35362e-06
2.35389e-06
2.35372e-06
2.35413e-06
2.35392e-06
2.35459e-06
2.35424e-06
2.35496e-06
2.35359e-06
2.3517e-06
2.34525e-06
2.33282e-06
2.31994e-06
2.22102e-06
2.23334e-06
2.24511e-06
2.25124e-06
2.25305e-06
2.25434e-06
2.25366e-06
2.25398e-06
2.25335e-06
2.25353e-06
2.25314e-06
2.25329e-06
2.25304e-06
2.25315e-06
2.25299e-06
2.25308e-06
2.25297e-06
2.25305e-06
2.25298e-06
2.25303e-06
2.25298e-06
2.25301e-06
2.25298e-06
2.253e-06
2.25299e-06
2.25299e-06
2.253e-06
2.25298e-06
2.25301e-06
2.25298e-06
2.25303e-06
2.25298e-06
2.25305e-06
2.25297e-06
2.25308e-06
2.25299e-06
2.25315e-06
2.25304e-06
2.25329e-06
2.25314e-06
2.25353e-06
2.25334e-06
2.25398e-06
2.25366e-06
2.25434e-06
2.25304e-06
2.25124e-06
2.24511e-06
2.23334e-06
2.22102e-06
2.13003e-06
2.14184e-06
2.15298e-06
2.15878e-06
2.16052e-06
2.16174e-06
2.1611e-06
2.16139e-06
2.16079e-06
2.16095e-06
2.16058e-06
2.16071e-06
2.16047e-06
2.16058e-06
2.16042e-06
2.16051e-06
2.1604e-06
2.16048e-06
2.16041e-06
2.16046e-06
2.16041e-06
2.16044e-06
2.16041e-06
2.16043e-06
2.16042e-06
2.16042e-06
2.16043e-06
2.16041e-06
2.16044e-06
2.16041e-06
2.16045e-06
2.16041e-06
2.16048e-06
2.1604e-06
2.16051e-06
2.16042e-06
2.16058e-06
2.16047e-06
2.16071e-06
2.16058e-06
2.16095e-06
2.16079e-06
2.16139e-06
2.1611e-06
2.16174e-06
2.16052e-06
2.15878e-06
2.15298e-06
2.14184e-06
2.13003e-06
2.04619e-06
2.05751e-06
2.06805e-06
2.07355e-06
2.07521e-06
2.07637e-06
2.07577e-06
2.07602e-06
2.07545e-06
2.07559e-06
2.07524e-06
2.07536e-06
2.07513e-06
2.07523e-06
2.07508e-06
2.07516e-06
2.07506e-06
2.07513e-06
2.07507e-06
2.07511e-06
2.07507e-06
2.07509e-06
2.07507e-06
2.07508e-06
2.07507e-06
2.07507e-06
2.07508e-06
2.07507e-06
2.07509e-06
2.07507e-06
2.07511e-06
2.07507e-06
2.07513e-06
2.07506e-06
2.07516e-06
2.07508e-06
2.07523e-06
2.07513e-06
2.07536e-06
2.07524e-06
2.07559e-06
2.07545e-06
2.07602e-06
2.07577e-06
2.07637e-06
2.07521e-06
2.07355e-06
2.06805e-06
2.05751e-06
2.04619e-06
1.96878e-06
1.97967e-06
1.98962e-06
1.99483e-06
1.99643e-06
1.99752e-06
1.99695e-06
1.99717e-06
1.99663e-06
1.99675e-06
1.99642e-06
1.99652e-06
1.99631e-06
1.99639e-06
1.99626e-06
1.99633e-06
1.99623e-06
1.9963e-06
1.99624e-06
1.99628e-06
1.99624e-06
1.99626e-06
1.99624e-06
1.99625e-06
1.99624e-06
1.99624e-06
1.99625e-06
1.99624e-06
1.99626e-06
1.99624e-06
1.99628e-06
1.99624e-06
1.9963e-06
1.99624e-06
1.99633e-06
1.99626e-06
1.99639e-06
1.99631e-06
1.99652e-06
1.99642e-06
1.99675e-06
1.99663e-06
1.99717e-06
1.99695e-06
1.99752e-06
1.99643e-06
1.99483e-06
1.98962e-06
1.97967e-06
1.96878e-06
1.89717e-06
1.90766e-06
1.91704e-06
1.92199e-06
1.92351e-06
1.92455e-06
1.92401e-06
1.9242e-06
1.92369e-06
1.92379e-06
1.92347e-06
1.92356e-06
1.92336e-06
1.92343e-06
1.9233e-06
1.92337e-06
1.92328e-06
1.92334e-06
1.92328e-06
1.92332e-06
1.92328e-06
1.92331e-06
1.92328e-06
1.9233e-06
1.92329e-06
1.92329e-06
1.9233e-06
1.92328e-06
1.92331e-06
1.92328e-06
1.92332e-06
1.92328e-06
1.92334e-06
1.92328e-06
1.92337e-06
1.92331e-06
1.92343e-06
1.92336e-06
1.92356e-06
1.92347e-06
1.92379e-06
1.92369e-06
1.9242e-06
1.92401e-06
1.92455e-06
1.92351e-06
1.92199e-06
1.91704e-06
1.90766e-06
1.89717e-06
1.83078e-06
1.8409e-06
1.84977e-06
1.85445e-06
1.8559e-06
1.85687e-06
1.85636e-06
1.85653e-06
1.85604e-06
1.85612e-06
1.85582e-06
1.8559e-06
1.85571e-06
1.85577e-06
1.85565e-06
1.85571e-06
1.85563e-06
1.85568e-06
1.85563e-06
1.85566e-06
1.85563e-06
1.85565e-06
1.85563e-06
1.85564e-06
1.85563e-06
1.85563e-06
1.85564e-06
1.85563e-06
1.85565e-06
1.85563e-06
1.85566e-06
1.85563e-06
1.85568e-06
1.85563e-06
1.85571e-06
1.85565e-06
1.85577e-06
1.85571e-06
1.8559e-06
1.85582e-06
1.85612e-06
1.85604e-06
1.85653e-06
1.85636e-06
1.85687e-06
1.8559e-06
1.85445e-06
1.84977e-06
1.84089e-06
1.83078e-06
1.76911e-06
1.77887e-06
1.78727e-06
1.79169e-06
1.79306e-06
1.79398e-06
1.79349e-06
1.79364e-06
1.79317e-06
1.79324e-06
1.79295e-06
1.79302e-06
1.79284e-06
1.7929e-06
1.79278e-06
1.79283e-06
1.79276e-06
1.79281e-06
1.79276e-06
1.79279e-06
1.79276e-06
1.79277e-06
1.79275e-06
1.79277e-06
1.79276e-06
1.79276e-06
1.79277e-06
1.79276e-06
1.79277e-06
1.79276e-06
1.79279e-06
1.79276e-06
1.79281e-06
1.79276e-06
1.79283e-06
1.79278e-06
1.7929e-06
1.79284e-06
1.79302e-06
1.79295e-06
1.79324e-06
1.79317e-06
1.79364e-06
1.79349e-06
1.79398e-06
1.79306e-06
1.79168e-06
1.78727e-06
1.77887e-06
1.76911e-06
1.71171e-06
1.72113e-06
1.72907e-06
1.73324e-06
1.73455e-06
1.73541e-06
1.73495e-06
1.73507e-06
1.73463e-06
1.73468e-06
1.73441e-06
1.73446e-06
1.73429e-06
1.73434e-06
1.73423e-06
1.73428e-06
1.73421e-06
1.73425e-06
1.7342e-06
1.73423e-06
1.7342e-06
1.73422e-06
1.7342e-06
1.73421e-06
1.73421e-06
1.73421e-06
1.73421e-06
1.7342e-06
1.73422e-06
1.7342e-06
1.73423e-06
1.7342e-06
1.73425e-06
1.73421e-06
1.73428e-06
1.73423e-06
1.73434e-06
1.73429e-06
1.73446e-06
1.73441e-06
1.73468e-06
1.73463e-06
1.73507e-06
1.73495e-06
1.73541e-06
1.73455e-06
1.73324e-06
1.72907e-06
1.72113e-06
1.71171e-06
1.65817e-06
1.66726e-06
1.67476e-06
1.67871e-06
1.67994e-06
1.68076e-06
1.68031e-06
1.68042e-06
1.67999e-06
1.68003e-06
1.67977e-06
1.67981e-06
1.67965e-06
1.67969e-06
1.67959e-06
1.67963e-06
1.67956e-06
1.6796e-06
1.67956e-06
1.67959e-06
1.67956e-06
1.67958e-06
1.67956e-06
1.67957e-06
1.67956e-06
1.67956e-06
1.67957e-06
1.67956e-06
1.67958e-06
1.67956e-06
1.67959e-06
1.67956e-06
1.6796e-06
1.67956e-06
1.67963e-06
1.67959e-06
1.67969e-06
1.67965e-06
1.67981e-06
1.67977e-06
1.68003e-06
1.67999e-06
1.68042e-06
1.68031e-06
1.68075e-06
1.67994e-06
1.6787e-06
1.67476e-06
1.66726e-06
1.65817e-06
1.60811e-06
1.61689e-06
1.62398e-06
1.62771e-06
1.62887e-06
1.62964e-06
1.62921e-06
1.6293e-06
1.62889e-06
1.62892e-06
1.62866e-06
1.6287e-06
1.62854e-06
1.62858e-06
1.62848e-06
1.62853e-06
1.62846e-06
1.6285e-06
1.62846e-06
1.62848e-06
1.62846e-06
1.62847e-06
1.62845e-06
1.62846e-06
1.62846e-06
1.62846e-06
1.62846e-06
1.62845e-06
1.62847e-06
1.62846e-06
1.62848e-06
1.62846e-06
1.6285e-06
1.62846e-06
1.62853e-06
1.62849e-06
1.62858e-06
1.62854e-06
1.6287e-06
1.62866e-06
1.62892e-06
1.62889e-06
1.6293e-06
1.62921e-06
1.62964e-06
1.62887e-06
1.6277e-06
1.62398e-06
1.61689e-06