/*--------------------------------*- C++ -*----------------------------------*\
| =========                 |                                                 |
| \\      /  F ield         | OpenFOAM: The Open Source CFD Toolbox           |
|  \\    /   O peration     | Version:  dev                                   |
|   \\  /    A nd           | Web:      www.OpenFOAM.org                      |
|    \\/     M anipulation  |                                                 |
\*---------------------------------------------------------------------------*/
FoamFile
{
    version     2.0;
    format      ascii;
    class       volScalarField;
    location    "0.1";
    object      C2H;
}
// * * * * * * * * * * * * * * * * * * * * * * * * * * * * * * * * * * * * * //

dimensions      [0 0 0 0 0 0 0];

internalField   nonuniform List<scalar> 
8000
(
2.49024e-07
2.50058e-07
2.51185e-07
2.51695e-07
2.51757e-07
2.51869e-07
2.51823e-07
2.51874e-07
2.51832e-07
2.51864e-07
2.51835e-07
2.51858e-07
2.51838e-07
2.51853e-07
2.5184e-07
2.5185e-07
2.51841e-07
2.51848e-07
2.51843e-07
2.51847e-07
2.51843e-07
2.51846e-07
2.51844e-07
2.51845e-07
2.51845e-07
2.51845e-07
2.51845e-07
2.51844e-07
2.51846e-07
2.51843e-07
2.51847e-07
2.51843e-07
2.51848e-07
2.51841e-07
2.5185e-07
2.5184e-07
2.51853e-07
2.51838e-07
2.51858e-07
2.51835e-07
2.51865e-07
2.51832e-07
2.51874e-07
2.51823e-07
2.51869e-07
2.51757e-07
2.51695e-07
2.51185e-07
2.50058e-07
2.49025e-07
1.25508e-06
1.25997e-06
1.26524e-06
1.26762e-06
1.26789e-06
1.26843e-06
1.2682e-06
1.26845e-06
1.26824e-06
1.2684e-06
1.26826e-06
1.26837e-06
1.26827e-06
1.26834e-06
1.26828e-06
1.26833e-06
1.26829e-06
1.26832e-06
1.2683e-06
1.26832e-06
1.2683e-06
1.26831e-06
1.2683e-06
1.26831e-06
1.26831e-06
1.26831e-06
1.26831e-06
1.2683e-06
1.26831e-06
1.2683e-06
1.26832e-06
1.2683e-06
1.26832e-06
1.26829e-06
1.26833e-06
1.26828e-06
1.26835e-06
1.26827e-06
1.26837e-06
1.26826e-06
1.2684e-06
1.26824e-06
1.26845e-06
1.2682e-06
1.26843e-06
1.26789e-06
1.26762e-06
1.26524e-06
1.25997e-06
1.25508e-06
3.45668e-06
3.46915e-06
3.48215e-06
3.48808e-06
3.48852e-06
3.48995e-06
3.48928e-06
3.48998e-06
3.48939e-06
3.48985e-06
3.48945e-06
3.48977e-06
3.48949e-06
3.4897e-06
3.48952e-06
3.48966e-06
3.48953e-06
3.48964e-06
3.48956e-06
3.48962e-06
3.48957e-06
3.48961e-06
3.48958e-06
3.48959e-06
3.48959e-06
3.48959e-06
3.48959e-06
3.48958e-06
3.48961e-06
3.48957e-06
3.48962e-06
3.48956e-06
3.48964e-06
3.48953e-06
3.48966e-06
3.48952e-06
3.4897e-06
3.48949e-06
3.48977e-06
3.48945e-06
3.48985e-06
3.48939e-06
3.48998e-06
3.48928e-06
3.48995e-06
3.48852e-06
3.48808e-06
3.48215e-06
3.46915e-06
3.45668e-06
5.92631e-06
5.94684e-06
5.96789e-06
5.97743e-06
5.97781e-06
5.98027e-06
5.979e-06
5.98026e-06
5.9792e-06
5.98003e-06
5.97931e-06
5.97989e-06
5.97939e-06
5.97976e-06
5.97944e-06
5.9797e-06
5.97946e-06
5.97966e-06
5.97952e-06
5.97963e-06
5.97953e-06
5.9796e-06
5.97954e-06
5.97958e-06
5.97956e-06
5.97956e-06
5.97958e-06
5.97954e-06
5.9796e-06
5.97953e-06
5.97963e-06
5.97952e-06
5.97966e-06
5.97947e-06
5.9797e-06
5.97944e-06
5.97976e-06
5.97939e-06
5.97988e-06
5.97931e-06
5.98004e-06
5.9792e-06
5.98026e-06
5.979e-06
5.98027e-06
5.97781e-06
5.97743e-06
5.96788e-06
5.94684e-06
5.9263e-06
7.43039e-06
7.45488e-06
7.48019e-06
7.49139e-06
7.49151e-06
7.49456e-06
7.49288e-06
7.49449e-06
7.49313e-06
7.4942e-06
7.49327e-06
7.49401e-06
7.49338e-06
7.49386e-06
7.49344e-06
7.49378e-06
7.49347e-06
7.49372e-06
7.49354e-06
7.49368e-06
7.49356e-06
7.49364e-06
7.49357e-06
7.49362e-06
7.4936e-06
7.4936e-06
7.49362e-06
7.49357e-06
7.49364e-06
7.49356e-06
7.49368e-06
7.49354e-06
7.49372e-06
7.49348e-06
7.49378e-06
7.49344e-06
7.49386e-06
7.49338e-06
7.49401e-06
7.49327e-06
7.4942e-06
7.49313e-06
7.49449e-06
7.49287e-06
7.49455e-06
7.49151e-06
7.49139e-06
7.48019e-06
7.45489e-06
7.43039e-06
7.76537e-06
7.79044e-06
7.81719e-06
7.82863e-06
7.82859e-06
7.83179e-06
7.82995e-06
7.83169e-06
7.83021e-06
7.83137e-06
7.83037e-06
7.83117e-06
7.83049e-06
7.831e-06
7.83056e-06
7.83091e-06
7.83059e-06
7.83085e-06
7.83066e-06
7.83081e-06
7.83068e-06
7.83077e-06
7.83069e-06
7.83074e-06
7.83072e-06
7.83072e-06
7.83074e-06
7.83069e-06
7.83077e-06
7.83068e-06
7.83081e-06
7.83066e-06
7.83085e-06
7.83059e-06
7.83092e-06
7.83055e-06
7.831e-06
7.83049e-06
7.83117e-06
7.83037e-06
7.83138e-06
7.83021e-06
7.83169e-06
7.82995e-06
7.83179e-06
7.82859e-06
7.82863e-06
7.81719e-06
7.79045e-06
7.76536e-06
7.36057e-06
7.38461e-06
7.4114e-06
7.42249e-06
7.42244e-06
7.42558e-06
7.42375e-06
7.42547e-06
7.424e-06
7.42515e-06
7.42415e-06
7.42494e-06
7.42427e-06
7.42478e-06
7.42434e-06
7.42469e-06
7.42437e-06
7.42463e-06
7.42443e-06
7.42458e-06
7.42446e-06
7.42454e-06
7.42447e-06
7.42452e-06
7.4245e-06
7.4245e-06
7.42452e-06
7.42447e-06
7.42455e-06
7.42446e-06
7.42458e-06
7.42443e-06
7.42463e-06
7.42437e-06
7.42469e-06
7.42433e-06
7.42478e-06
7.42427e-06
7.42494e-06
7.42416e-06
7.42515e-06
7.424e-06
7.42547e-06
7.42375e-06
7.42558e-06
7.42244e-06
7.42249e-06
7.4114e-06
7.38461e-06
7.36057e-06
6.63242e-06
6.65477e-06
6.68083e-06
6.69138e-06
6.69145e-06
6.6944e-06
6.69269e-06
6.6943e-06
6.69291e-06
6.69399e-06
6.69305e-06
6.69379e-06
6.69315e-06
6.69363e-06
6.69322e-06
6.69355e-06
6.69325e-06
6.69349e-06
6.69331e-06
6.69345e-06
6.69333e-06
6.69341e-06
6.69334e-06
6.69339e-06
6.69337e-06
6.69337e-06
6.69339e-06
6.69334e-06
6.69341e-06
6.69333e-06
6.69345e-06
6.69331e-06
6.69349e-06
6.69325e-06
6.69355e-06
6.69321e-06
6.69363e-06
6.69315e-06
6.69379e-06
6.69305e-06
6.69399e-06
6.69291e-06
6.6943e-06
6.69269e-06
6.6944e-06
6.69145e-06
6.69138e-06
6.68083e-06
6.65478e-06
6.63241e-06
5.83147e-06
5.85198e-06
5.87688e-06
5.88681e-06
5.88705e-06
5.88978e-06
5.88822e-06
5.8897e-06
5.88842e-06
5.88941e-06
5.88854e-06
5.88922e-06
5.88863e-06
5.88907e-06
5.88869e-06
5.88899e-06
5.88871e-06
5.88894e-06
5.88877e-06
5.8889e-06
5.88879e-06
5.88887e-06
5.8888e-06
5.88884e-06
5.88882e-06
5.88882e-06
5.88884e-06
5.8888e-06
5.88887e-06
5.88879e-06
5.8889e-06
5.88877e-06
5.88894e-06
5.88872e-06
5.889e-06
5.88869e-06
5.88907e-06
5.88863e-06
5.88922e-06
5.88854e-06
5.88941e-06
5.88842e-06
5.8897e-06
5.88822e-06
5.88978e-06
5.88705e-06
5.88681e-06
5.87688e-06
5.85199e-06
5.83147e-06
5.08096e-06
5.09972e-06
5.12322e-06
5.13256e-06
5.13298e-06
5.13549e-06
5.13409e-06
5.13542e-06
5.13425e-06
5.13515e-06
5.13436e-06
5.13498e-06
5.13444e-06
5.13484e-06
5.13449e-06
5.13477e-06
5.13451e-06
5.13472e-06
5.13456e-06
5.13468e-06
5.13458e-06
5.13465e-06
5.13459e-06
5.13463e-06
5.13461e-06
5.13461e-06
5.13463e-06
5.13459e-06
5.13465e-06
5.13458e-06
5.13468e-06
5.13456e-06
5.13472e-06
5.13451e-06
5.13477e-06
5.13449e-06
5.13484e-06
5.13444e-06
5.13497e-06
5.13436e-06
5.13515e-06
5.13425e-06
5.13542e-06
5.13409e-06
5.13548e-06
5.13298e-06
5.13256e-06
5.12322e-06
5.09972e-06
5.08096e-06
4.42689e-06
4.44408e-06
4.46614e-06
4.47492e-06
4.4755e-06
4.4778e-06
4.47656e-06
4.47776e-06
4.4767e-06
4.47751e-06
4.47679e-06
4.47734e-06
4.47686e-06
4.47722e-06
4.4769e-06
4.47715e-06
4.47692e-06
4.47711e-06
4.47697e-06
4.47707e-06
4.47698e-06
4.47704e-06
4.47699e-06
4.47702e-06
4.47701e-06
4.47701e-06
4.47702e-06
4.47699e-06
4.47704e-06
4.47698e-06
4.47707e-06
4.47697e-06
4.4771e-06
4.47692e-06
4.47715e-06
4.4769e-06
4.47722e-06
4.47686e-06
4.47734e-06
4.47679e-06
4.47751e-06
4.4767e-06
4.47776e-06
4.47656e-06
4.4778e-06
4.4755e-06
4.47492e-06
4.46614e-06
4.44408e-06
4.42689e-06
3.85526e-06
3.87077e-06
3.89082e-06
3.8989e-06
3.89963e-06
3.90169e-06
3.90062e-06
3.90166e-06
3.90074e-06
3.90144e-06
3.90081e-06
3.90129e-06
3.90087e-06
3.90117e-06
3.9009e-06
3.90111e-06
3.90091e-06
3.90107e-06
3.90095e-06
3.90105e-06
3.90097e-06
3.90102e-06
3.90097e-06
3.901e-06
3.90099e-06
3.90099e-06
3.901e-06
3.90097e-06
3.90102e-06
3.90097e-06
3.90105e-06
3.90095e-06
3.90107e-06
3.90091e-06
3.90112e-06
3.9009e-06
3.90118e-06
3.90087e-06
3.90129e-06
3.90081e-06
3.90144e-06
3.90074e-06
3.90166e-06
3.90062e-06
3.90168e-06
3.89963e-06
3.8989e-06
3.89082e-06
3.87077e-06
3.85526e-06
3.40152e-06
3.41592e-06
3.43462e-06
3.44225e-06
3.44307e-06
3.44497e-06
3.44402e-06
3.44496e-06
3.44412e-06
3.44475e-06
3.44418e-06
3.44461e-06
3.44423e-06
3.44451e-06
3.44426e-06
3.44445e-06
3.44427e-06
3.44441e-06
3.4443e-06
3.44439e-06
3.44431e-06
3.44436e-06
3.44432e-06
3.44435e-06
3.44434e-06
3.44434e-06
3.44435e-06
3.44432e-06
3.44436e-06
3.44431e-06
3.44439e-06
3.4443e-06
3.44441e-06
3.44427e-06
3.44445e-06
3.44425e-06
3.44451e-06
3.44423e-06
3.44461e-06
3.44418e-06
3.44475e-06
3.44412e-06
3.44496e-06
3.44402e-06
3.44497e-06
3.44307e-06
3.44225e-06
3.43462e-06
3.41593e-06
3.40152e-06
3.02886e-06
3.0407e-06
3.05673e-06
3.06351e-06
3.06463e-06
3.06625e-06
3.06557e-06
3.06631e-06
3.06565e-06
3.06613e-06
3.06568e-06
3.06601e-06
3.06571e-06
3.06592e-06
3.06572e-06
3.06587e-06
3.06573e-06
3.06584e-06
3.06575e-06
3.06582e-06
3.06576e-06
3.0658e-06
3.06577e-06
3.06579e-06
3.06578e-06
3.06578e-06
3.06579e-06
3.06577e-06
3.0658e-06
3.06576e-06
3.06582e-06
3.06575e-06
3.06584e-06
3.06573e-06
3.06587e-06
3.06572e-06
3.06592e-06
3.06571e-06
3.06601e-06
3.06568e-06
3.06613e-06
3.06565e-06
3.06631e-06
3.06557e-06
3.06625e-06
3.06463e-06
3.0635e-06
3.05673e-06
3.0407e-06
3.02886e-06
2.71571e-06
2.7265e-06
2.74095e-06
2.74721e-06
2.74839e-06
2.74985e-06
2.74929e-06
2.74992e-06
2.74935e-06
2.74976e-06
2.74937e-06
2.74965e-06
2.74939e-06
2.74957e-06
2.7494e-06
2.74952e-06
2.7494e-06
2.7495e-06
2.74942e-06
2.74948e-06
2.74943e-06
2.74946e-06
2.74943e-06
2.74945e-06
2.74944e-06
2.74944e-06
2.74945e-06
2.74943e-06
2.74946e-06
2.74943e-06
2.74948e-06
2.74942e-06
2.7495e-06
2.7494e-06
2.74953e-06
2.7494e-06
2.74957e-06
2.74939e-06
2.74965e-06
2.74937e-06
2.74976e-06
2.74935e-06
2.74992e-06
2.74929e-06
2.74985e-06
2.74839e-06
2.74721e-06
2.74095e-06
2.7265e-06
2.71571e-06
2.47004e-06
2.4801e-06
2.4934e-06
2.49929e-06
2.50051e-06
2.50186e-06
2.50138e-06
2.50195e-06
2.50144e-06
2.50179e-06
2.50145e-06
2.50169e-06
2.50146e-06
2.50161e-06
2.50146e-06
2.50157e-06
2.50146e-06
2.50155e-06
2.50148e-06
2.50153e-06
2.50149e-06
2.50152e-06
2.50149e-06
2.5015e-06
2.5015e-06
2.5015e-06
2.5015e-06
2.50149e-06
2.50152e-06
2.50149e-06
2.50153e-06
2.50148e-06
2.50155e-06
2.50146e-06
2.50157e-06
2.50146e-06
2.50162e-06
2.50146e-06
2.50169e-06
2.50145e-06
2.50179e-06
2.50144e-06
2.50194e-06
2.50138e-06
2.50186e-06
2.50051e-06
2.49928e-06
2.4934e-06
2.4801e-06
2.47004e-06
2.26249e-06
2.27221e-06
2.28481e-06
2.29059e-06
2.29194e-06
2.29324e-06
2.29283e-06
2.29333e-06
2.29287e-06
2.29318e-06
2.29287e-06
2.29308e-06
2.29287e-06
2.29301e-06
2.29287e-06
2.29297e-06
2.29287e-06
2.29294e-06
2.29288e-06
2.29293e-06
2.29289e-06
2.29291e-06
2.29289e-06
2.2929e-06
2.2929e-06
2.2929e-06
2.2929e-06
2.29289e-06
2.29291e-06
2.29289e-06
2.29293e-06
2.29288e-06
2.29294e-06
2.29287e-06
2.29297e-06
2.29287e-06
2.29301e-06
2.29287e-06
2.29308e-06
2.29287e-06
2.29319e-06
2.29287e-06
2.29333e-06
2.29283e-06
2.29324e-06
2.29194e-06
2.29059e-06
2.28481e-06
2.27221e-06
2.26249e-06
2.09786e-06
2.10707e-06
2.11873e-06
2.1242e-06
2.12559e-06
2.12679e-06
2.12645e-06
2.1269e-06
2.12648e-06
2.12676e-06
2.12647e-06
2.12666e-06
2.12647e-06
2.12659e-06
2.12647e-06
2.12655e-06
2.12646e-06
2.12653e-06
2.12648e-06
2.12651e-06
2.12648e-06
2.1265e-06
2.12648e-06
2.12649e-06
2.12649e-06
2.12649e-06
2.12649e-06
2.12648e-06
2.1265e-06
2.12648e-06
2.12651e-06
2.12648e-06
2.12653e-06
2.12646e-06
2.12655e-06
2.12646e-06
2.12659e-06
2.12647e-06
2.12666e-06
2.12647e-06
2.12676e-06
2.12648e-06
2.1269e-06
2.12645e-06
2.12679e-06
2.12559e-06
2.1242e-06
2.11873e-06
2.10707e-06
2.09786e-06
1.95702e-06
1.9661e-06
1.97731e-06
1.98269e-06
1.98407e-06
1.98525e-06
1.98492e-06
1.98535e-06
1.98494e-06
1.9852e-06
1.98493e-06
1.98511e-06
1.98492e-06
1.98504e-06
1.98492e-06
1.985e-06
1.98492e-06
1.98498e-06
1.98493e-06
1.98497e-06
1.98493e-06
1.98495e-06
1.98493e-06
1.98494e-06
1.98494e-06
1.98494e-06
1.98494e-06
1.98493e-06
1.98495e-06
1.98493e-06
1.98497e-06
1.98493e-06
1.98498e-06
1.98492e-06
1.985e-06
1.98492e-06
1.98504e-06
1.98492e-06
1.98511e-06
1.98493e-06
1.98521e-06
1.98494e-06
1.98535e-06
1.98492e-06
1.98524e-06
1.98407e-06
1.98269e-06
1.97731e-06
1.9661e-06
1.95702e-06
1.83981e-06
1.84852e-06
1.85884e-06
1.86393e-06
1.86532e-06
1.86642e-06
1.86615e-06
1.86653e-06
1.86617e-06
1.86639e-06
1.86615e-06
1.8663e-06
1.86613e-06
1.86623e-06
1.86613e-06
1.8662e-06
1.86612e-06
1.86618e-06
1.86613e-06
1.86617e-06
1.86613e-06
1.86615e-06
1.86613e-06
1.86614e-06
1.86614e-06
1.86614e-06
1.86614e-06
1.86613e-06
1.86615e-06
1.86613e-06
1.86617e-06
1.86613e-06
1.86618e-06
1.86612e-06
1.8662e-06
1.86613e-06
1.86623e-06
1.86613e-06
1.8663e-06
1.86615e-06
1.86639e-06
1.86617e-06
1.86653e-06
1.86615e-06
1.86642e-06
1.86532e-06
1.86393e-06
1.85884e-06
1.84852e-06
1.83981e-06
1.74527e-06
1.7538e-06
1.76347e-06
1.76834e-06
1.76974e-06
1.77078e-06
1.77055e-06
1.7709e-06
1.77057e-06
1.77077e-06
1.77054e-06
1.77068e-06
1.77053e-06
1.77061e-06
1.77052e-06
1.77058e-06
1.77051e-06
1.77056e-06
1.77052e-06
1.77055e-06
1.77052e-06
1.77054e-06
1.77052e-06
1.77053e-06
1.77052e-06
1.77052e-06
1.77053e-06
1.77052e-06
1.77054e-06
1.77052e-06
1.77055e-06
1.77052e-06
1.77056e-06
1.77051e-06
1.77058e-06
1.77051e-06
1.77061e-06
1.77053e-06
1.77068e-06
1.77054e-06
1.77077e-06
1.77057e-06
1.7709e-06
1.77055e-06
1.77078e-06
1.76974e-06
1.76834e-06
1.76347e-06
1.7538e-06
1.74527e-06
1.66565e-06
1.67408e-06
1.68319e-06
1.68787e-06
1.68928e-06
1.69027e-06
1.69008e-06
1.69039e-06
1.69008e-06
1.69026e-06
1.69005e-06
1.69017e-06
1.69003e-06
1.69011e-06
1.69002e-06
1.69008e-06
1.69001e-06
1.69006e-06
1.69002e-06
1.69005e-06
1.69002e-06
1.69004e-06
1.69002e-06
1.69003e-06
1.69003e-06
1.69003e-06
1.69003e-06
1.69002e-06
1.69004e-06
1.69002e-06
1.69005e-06
1.69002e-06
1.69006e-06
1.69001e-06
1.69008e-06
1.69002e-06
1.69011e-06
1.69003e-06
1.69017e-06
1.69005e-06
1.69026e-06
1.69008e-06
1.69039e-06
1.69008e-06
1.69027e-06
1.68927e-06
1.68787e-06
1.68319e-06
1.67408e-06
1.66565e-06
1.59811e-06
1.60454e-06
1.61291e-06
1.61733e-06
1.61879e-06
1.61974e-06
1.6196e-06
1.61986e-06
1.61959e-06
1.61974e-06
1.61955e-06
1.61965e-06
1.61952e-06
1.61958e-06
1.6195e-06
1.61955e-06
1.61949e-06
1.61953e-06
1.6195e-06
1.61952e-06
1.6195e-06
1.61951e-06
1.6195e-06
1.6195e-06
1.6195e-06
1.6195e-06
1.6195e-06
1.6195e-06
1.61951e-06
1.6195e-06
1.61952e-06
1.6195e-06
1.61953e-06
1.61949e-06
1.61955e-06
1.6195e-06
1.61958e-06
1.61952e-06
1.61965e-06
1.61955e-06
1.61974e-06
1.61959e-06
1.61986e-06
1.61959e-06
1.61974e-06
1.61879e-06
1.61733e-06
1.6129e-06
1.60454e-06
1.59811e-06
1.54038e-06
1.5467e-06
1.55463e-06
1.5589e-06
1.56035e-06
1.56127e-06
1.56115e-06
1.56139e-06
1.56114e-06
1.56127e-06
1.56109e-06
1.56118e-06
1.56106e-06
1.56112e-06
1.56104e-06
1.56108e-06
1.56103e-06
1.56106e-06
1.56103e-06
1.56105e-06
1.56103e-06
1.56104e-06
1.56103e-06
1.56104e-06
1.56103e-06
1.56103e-06
1.56104e-06
1.56103e-06
1.56104e-06
1.56103e-06
1.56105e-06
1.56103e-06
1.56106e-06
1.56103e-06
1.56108e-06
1.56104e-06
1.56112e-06
1.56106e-06
1.56118e-06
1.56109e-06
1.56127e-06
1.56114e-06
1.56139e-06
1.56115e-06
1.56126e-06
1.56035e-06
1.5589e-06
1.55463e-06
1.5467e-06
1.54038e-06
1.48873e-06
1.49499e-06
1.50261e-06
1.50679e-06
1.50826e-06
1.50915e-06
1.50905e-06
1.50928e-06
1.50904e-06
1.50915e-06
1.50898e-06
1.50906e-06
1.50895e-06
1.509e-06
1.50892e-06
1.50896e-06
1.50891e-06
1.50894e-06
1.50891e-06
1.50893e-06
1.50891e-06
1.50892e-06
1.50891e-06
1.50892e-06
1.50891e-06
1.50891e-06
1.50892e-06
1.50891e-06
1.50892e-06
1.50891e-06
1.50893e-06
1.50891e-06
1.50894e-06
1.50891e-06
1.50896e-06
1.50892e-06
1.509e-06
1.50895e-06
1.50906e-06
1.50898e-06
1.50915e-06
1.50904e-06
1.50928e-06
1.50905e-06
1.50915e-06
1.50825e-06
1.50679e-06
1.50261e-06
1.49499e-06
1.48873e-06
1.44374e-06
1.44987e-06
1.45711e-06
1.46113e-06
1.46258e-06
1.46345e-06
1.46337e-06
1.46357e-06
1.46335e-06
1.46345e-06
1.46329e-06
1.46335e-06
1.46325e-06
1.46329e-06
1.46322e-06
1.46326e-06
1.46321e-06
1.46324e-06
1.46321e-06
1.46323e-06
1.46321e-06
1.46322e-06
1.46321e-06
1.46321e-06
1.46321e-06
1.46321e-06
1.46321e-06
1.46321e-06
1.46322e-06
1.46321e-06
1.46323e-06
1.46321e-06
1.46324e-06
1.46321e-06
1.46326e-06
1.46322e-06
1.46329e-06
1.46325e-06
1.46335e-06
1.46329e-06
1.46345e-06
1.46335e-06
1.46357e-06
1.46337e-06
1.46345e-06
1.46258e-06
1.46113e-06
1.45711e-06
1.44987e-06
1.44374e-06
1.40415e-06
1.41018e-06
1.41707e-06
1.42094e-06
1.42239e-06
1.42323e-06
1.42316e-06
1.42335e-06
1.42314e-06
1.42322e-06
1.42307e-06
1.42313e-06
1.42303e-06
1.42306e-06
1.423e-06
1.42303e-06
1.42299e-06
1.42301e-06
1.42299e-06
1.423e-06
1.42298e-06
1.42299e-06
1.42298e-06
1.42299e-06
1.42298e-06
1.42298e-06
1.42299e-06
1.42298e-06
1.42299e-06
1.42298e-06
1.423e-06
1.42299e-06
1.42301e-06
1.42299e-06
1.42303e-06
1.423e-06
1.42306e-06
1.42303e-06
1.42313e-06
1.42307e-06
1.42322e-06
1.42314e-06
1.42335e-06
1.42316e-06
1.42322e-06
1.42239e-06
1.42094e-06
1.41707e-06
1.41018e-06
1.40415e-06
1.36897e-06
1.3749e-06
1.38149e-06
1.38523e-06
1.38666e-06
1.38747e-06
1.38742e-06
1.38759e-06
1.38739e-06
1.38746e-06
1.38732e-06
1.38736e-06
1.38727e-06
1.3873e-06
1.38724e-06
1.38727e-06
1.38723e-06
1.38725e-06
1.38723e-06
1.38724e-06
1.38722e-06
1.38723e-06
1.38722e-06
1.38722e-06
1.38722e-06
1.38722e-06
1.38722e-06
1.38722e-06
1.38723e-06
1.38722e-06
1.38724e-06
1.38723e-06
1.38725e-06
1.38723e-06
1.38727e-06
1.38724e-06
1.3873e-06
1.38727e-06
1.38736e-06
1.38732e-06
1.38746e-06
1.38739e-06
1.38759e-06
1.38742e-06
1.38747e-06
1.38666e-06
1.38523e-06
1.38149e-06
1.3749e-06
1.36897e-06
1.3374e-06
1.34323e-06
1.34956e-06
1.35317e-06
1.35458e-06
1.35537e-06
1.35533e-06
1.35548e-06
1.35529e-06
1.35535e-06
1.35521e-06
1.35525e-06
1.35516e-06
1.35519e-06
1.35513e-06
1.35516e-06
1.35512e-06
1.35514e-06
1.35511e-06
1.35513e-06
1.35511e-06
1.35512e-06
1.35511e-06
1.35511e-06
1.35511e-06
1.35511e-06
1.35511e-06
1.35511e-06
1.35512e-06
1.35511e-06
1.35513e-06
1.35511e-06
1.35514e-06
1.35512e-06
1.35516e-06
1.35513e-06
1.35519e-06
1.35516e-06
1.35525e-06
1.35522e-06
1.35535e-06
1.35529e-06
1.35548e-06
1.35533e-06
1.35537e-06
1.35458e-06
1.35316e-06
1.34956e-06
1.34323e-06
1.3374e-06
1.30878e-06
1.3145e-06
1.32061e-06
1.32409e-06
1.32549e-06
1.32626e-06
1.32623e-06
1.32637e-06
1.32618e-06
1.32623e-06
1.3261e-06
1.32613e-06
1.32604e-06
1.32607e-06
1.32601e-06
1.32603e-06
1.32599e-06
1.32601e-06
1.32599e-06
1.326e-06
1.32599e-06
1.32599e-06
1.32598e-06
1.32599e-06
1.32599e-06
1.32599e-06
1.32599e-06
1.32598e-06
1.32599e-06
1.32599e-06
1.326e-06
1.32599e-06
1.32601e-06
1.32599e-06
1.32603e-06
1.32601e-06
1.32607e-06
1.32604e-06
1.32613e-06
1.3261e-06
1.32623e-06
1.32618e-06
1.32637e-06
1.32623e-06
1.32625e-06
1.32549e-06
1.32409e-06
1.32061e-06
1.3145e-06
1.30878e-06
1.28258e-06
1.2882e-06
1.29411e-06
1.29748e-06
1.29885e-06
1.2996e-06
1.29958e-06
1.2997e-06
1.29953e-06
1.29956e-06
1.29944e-06
1.29946e-06
1.29938e-06
1.2994e-06
1.29934e-06
1.29936e-06
1.29932e-06
1.29934e-06
1.29932e-06
1.29933e-06
1.29931e-06
1.29932e-06
1.29931e-06
1.29932e-06
1.29931e-06
1.29931e-06
1.29932e-06
1.29931e-06
1.29932e-06
1.29931e-06
1.29933e-06
1.29932e-06
1.29934e-06
1.29932e-06
1.29936e-06
1.29934e-06
1.2994e-06
1.29938e-06
1.29946e-06
1.29944e-06
1.29956e-06
1.29953e-06
1.2997e-06
1.29957e-06
1.2996e-06
1.29885e-06
1.29748e-06
1.29411e-06
1.2882e-06
1.28258e-06
1.25838e-06
1.2639e-06
1.26963e-06
1.27288e-06
1.27424e-06
1.27496e-06
1.27494e-06
1.27506e-06
1.27489e-06
1.27492e-06
1.27479e-06
1.27481e-06
1.27473e-06
1.27474e-06
1.27469e-06
1.27471e-06
1.27467e-06
1.27469e-06
1.27467e-06
1.27468e-06
1.27466e-06
1.27467e-06
1.27466e-06
1.27466e-06
1.27466e-06
1.27466e-06
1.27466e-06
1.27466e-06
1.27467e-06
1.27466e-06
1.27468e-06
1.27467e-06
1.27469e-06
1.27467e-06
1.27471e-06
1.27469e-06
1.27474e-06
1.27473e-06
1.27481e-06
1.27479e-06
1.27492e-06
1.27489e-06
1.27506e-06
1.27494e-06
1.27496e-06
1.27424e-06
1.27288e-06
1.26963e-06
1.2639e-06
1.25838e-06
1.23583e-06
1.24125e-06
1.24682e-06
1.24996e-06
1.25129e-06
1.252e-06
1.25198e-06
1.25209e-06
1.25192e-06
1.25194e-06
1.25181e-06
1.25183e-06
1.25175e-06
1.25176e-06
1.25171e-06
1.25172e-06
1.25169e-06
1.2517e-06
1.25168e-06
1.25169e-06
1.25168e-06
1.25168e-06
1.25167e-06
1.25168e-06
1.25167e-06
1.25167e-06
1.25168e-06
1.25167e-06
1.25168e-06
1.25168e-06
1.25169e-06
1.25168e-06
1.2517e-06
1.25169e-06
1.25172e-06
1.25171e-06
1.25176e-06
1.25175e-06
1.25183e-06
1.25181e-06
1.25194e-06
1.25192e-06
1.25209e-06
1.25198e-06
1.252e-06
1.25129e-06
1.24996e-06
1.24682e-06
1.24125e-06
1.23583e-06
1.21465e-06
1.21996e-06
1.22538e-06
1.22842e-06
1.22972e-06
1.23041e-06
1.2304e-06
1.23049e-06
1.23032e-06
1.23034e-06
1.23021e-06
1.23022e-06
1.23014e-06
1.23015e-06
1.2301e-06
1.23011e-06
1.23008e-06
1.23009e-06
1.23007e-06
1.23008e-06
1.23007e-06
1.23007e-06
1.23007e-06
1.23007e-06
1.23007e-06
1.23007e-06
1.23007e-06
1.23007e-06
1.23007e-06
1.23007e-06
1.23008e-06
1.23007e-06
1.23009e-06
1.23008e-06
1.23011e-06
1.2301e-06
1.23015e-06
1.23014e-06
1.23022e-06
1.23021e-06
1.23034e-06
1.23032e-06
1.23049e-06
1.2304e-06
1.23041e-06
1.22972e-06
1.22842e-06
1.22538e-06
1.21996e-06
1.21465e-06
1.1946e-06
1.19981e-06
1.20508e-06
1.20803e-06
1.20931e-06
1.20998e-06
1.20996e-06
1.21004e-06
1.20988e-06
1.20988e-06
1.20976e-06
1.20977e-06
1.20969e-06
1.20969e-06
1.20964e-06
1.20965e-06
1.20962e-06
1.20963e-06
1.20961e-06
1.20962e-06
1.20961e-06
1.20961e-06
1.2096e-06
1.20961e-06
1.20961e-06
1.20961e-06
1.20961e-06
1.2096e-06
1.20961e-06
1.20961e-06
1.20962e-06
1.20961e-06
1.20963e-06
1.20962e-06
1.20965e-06
1.20964e-06
1.20969e-06
1.20969e-06
1.20977e-06
1.20976e-06
1.20988e-06
1.20988e-06
1.21004e-06
1.20996e-06
1.20997e-06
1.2093e-06
1.20803e-06
1.20508e-06
1.19981e-06
1.1946e-06
1.1755e-06
1.1806e-06
1.18574e-06
1.1886e-06
1.18984e-06
1.19049e-06
1.19047e-06
1.19055e-06
1.19038e-06
1.19038e-06
1.19026e-06
1.19026e-06
1.19018e-06
1.19019e-06
1.19014e-06
1.19015e-06
1.19011e-06
1.19013e-06
1.19011e-06
1.19011e-06
1.1901e-06
1.1901e-06
1.1901e-06
1.1901e-06
1.1901e-06
1.1901e-06
1.1901e-06
1.1901e-06
1.1901e-06
1.1901e-06
1.19011e-06
1.19011e-06
1.19013e-06
1.19011e-06
1.19015e-06
1.19014e-06
1.19019e-06
1.19018e-06
1.19026e-06
1.19026e-06
1.19038e-06
1.19038e-06
1.19055e-06
1.19047e-06
1.19049e-06
1.18984e-06
1.1886e-06
1.18574e-06
1.1806e-06
1.1755e-06
1.1572e-06
1.16219e-06
1.1672e-06
1.16997e-06
1.17118e-06
1.17181e-06
1.17179e-06
1.17186e-06
1.17169e-06
1.17168e-06
1.17156e-06
1.17156e-06
1.17148e-06
1.17148e-06
1.17143e-06
1.17144e-06
1.17141e-06
1.17142e-06
1.1714e-06
1.1714e-06
1.17139e-06
1.17139e-06
1.17139e-06
1.17139e-06
1.17139e-06
1.17139e-06
1.17139e-06
1.17139e-06
1.17139e-06
1.17139e-06
1.1714e-06
1.1714e-06
1.17142e-06
1.17141e-06
1.17144e-06
1.17143e-06
1.17148e-06
1.17148e-06
1.17156e-06
1.17156e-06
1.17168e-06
1.17169e-06
1.17186e-06
1.17179e-06
1.17181e-06
1.17118e-06
1.16997e-06
1.1672e-06
1.16219e-06
1.1572e-06
1.13957e-06
1.14443e-06
1.14933e-06
1.15201e-06
1.15319e-06
1.1538e-06
1.15377e-06
1.15383e-06
1.15366e-06
1.15365e-06
1.15353e-06
1.15352e-06
1.15344e-06
1.15344e-06
1.15339e-06
1.1534e-06
1.15337e-06
1.15338e-06
1.15336e-06
1.15336e-06
1.15335e-06
1.15335e-06
1.15335e-06
1.15335e-06
1.15335e-06
1.15335e-06
1.15335e-06
1.15335e-06
1.15335e-06
1.15335e-06
1.15336e-06
1.15336e-06
1.15338e-06
1.15337e-06
1.1534e-06
1.15339e-06
1.15344e-06
1.15344e-06
1.15352e-06
1.15353e-06
1.15365e-06
1.15366e-06
1.15383e-06
1.15377e-06
1.1538e-06
1.15319e-06
1.15201e-06
1.14933e-06
1.14443e-06
1.13957e-06
1.12251e-06
1.12724e-06
1.13202e-06
1.13463e-06
1.13577e-06
1.13636e-06
1.13632e-06
1.13637e-06
1.1362e-06
1.13619e-06
1.13606e-06
1.13605e-06
1.13597e-06
1.13597e-06
1.13592e-06
1.13592e-06
1.13589e-06
1.1359e-06
1.13588e-06
1.13589e-06
1.13588e-06
1.13588e-06
1.13587e-06
1.13587e-06
1.13587e-06
1.13587e-06
1.13587e-06
1.13587e-06
1.13588e-06
1.13588e-06
1.13589e-06
1.13588e-06
1.1359e-06
1.13589e-06
1.13592e-06
1.13592e-06
1.13597e-06
1.13597e-06
1.13605e-06
1.13606e-06
1.13619e-06
1.1362e-06
1.13637e-06
1.13632e-06
1.13636e-06
1.13577e-06
1.13463e-06
1.13202e-06
1.12724e-06
1.12251e-06
1.10593e-06
1.11053e-06
1.1152e-06
1.11772e-06
1.11883e-06
1.1194e-06
1.11935e-06
1.11939e-06
1.11922e-06
1.1192e-06
1.11907e-06
1.11906e-06
1.11898e-06
1.11897e-06
1.11893e-06
1.11893e-06
1.1189e-06
1.1189e-06
1.11889e-06
1.11889e-06
1.11888e-06
1.11888e-06
1.11887e-06
1.11888e-06
1.11887e-06
1.11887e-06
1.11888e-06
1.11887e-06
1.11888e-06
1.11888e-06
1.11889e-06
1.11889e-06
1.1189e-06
1.1189e-06
1.11893e-06
1.11893e-06
1.11897e-06
1.11898e-06
1.11906e-06
1.11907e-06
1.1192e-06
1.11922e-06
1.11939e-06
1.11935e-06
1.1194e-06
1.11883e-06
1.11772e-06
1.1152e-06
1.11053e-06
1.10593e-06
1.08974e-06
1.09424e-06
1.09878e-06
1.10122e-06
1.10229e-06
1.10284e-06
1.10279e-06
1.10282e-06
1.10265e-06
1.10262e-06
1.10249e-06
1.10247e-06
1.10239e-06
1.10239e-06
1.10234e-06
1.10234e-06
1.10231e-06
1.10231e-06
1.10229e-06
1.1023e-06
1.10229e-06
1.10229e-06
1.10228e-06
1.10228e-06
1.10228e-06
1.10228e-06
1.10228e-06
1.10228e-06
1.10229e-06
1.10229e-06
1.1023e-06
1.10229e-06
1.10231e-06
1.10231e-06
1.10234e-06
1.10234e-06
1.10239e-06
1.10239e-06
1.10247e-06
1.10249e-06
1.10262e-06
1.10265e-06
1.10282e-06
1.10279e-06
1.10284e-06
1.10229e-06
1.10122e-06
1.09878e-06
1.09424e-06
1.08974e-06
1.0739e-06
1.0783e-06
1.08271e-06
1.08507e-06
1.08611e-06
1.08663e-06
1.08657e-06
1.08659e-06
1.08642e-06
1.08638e-06
1.08625e-06
1.08623e-06
1.08615e-06
1.08614e-06
1.08609e-06
1.08609e-06
1.08606e-06
1.08607e-06
1.08605e-06
1.08605e-06
1.08604e-06
1.08604e-06
1.08604e-06
1.08604e-06
1.08604e-06
1.08604e-06
1.08604e-06
1.08604e-06
1.08604e-06
1.08604e-06
1.08605e-06
1.08605e-06
1.08607e-06
1.08606e-06
1.08609e-06
1.08609e-06
1.08614e-06
1.08615e-06
1.08623e-06
1.08625e-06
1.08638e-06
1.08642e-06
1.08659e-06
1.08657e-06
1.08663e-06
1.08611e-06
1.08507e-06
1.08271e-06
1.0783e-06
1.0739e-06
1.05835e-06
1.06266e-06
1.06694e-06
1.06922e-06
1.07022e-06
1.07072e-06
1.07065e-06
1.07066e-06
1.07048e-06
1.07044e-06
1.07031e-06
1.07029e-06
1.07021e-06
1.0702e-06
1.07014e-06
1.07014e-06
1.07011e-06
1.07012e-06
1.0701e-06
1.0701e-06
1.07009e-06
1.07009e-06
1.07009e-06
1.07009e-06
1.07009e-06
1.07009e-06
1.07009e-06
1.07009e-06
1.07009e-06
1.07009e-06
1.0701e-06
1.0701e-06
1.07012e-06
1.07011e-06
1.07014e-06
1.07014e-06
1.0702e-06
1.07021e-06
1.07029e-06
1.07031e-06
1.07044e-06
1.07048e-06
1.07066e-06
1.07065e-06
1.07072e-06
1.07022e-06
1.06922e-06
1.06694e-06
1.06266e-06
1.05835e-06
1.04305e-06
1.04729e-06
1.05143e-06
1.05363e-06
1.05459e-06
1.05507e-06
1.05499e-06
1.05499e-06
1.0548e-06
1.05476e-06
1.05463e-06
1.0546e-06
1.05451e-06
1.0545e-06
1.05445e-06
1.05445e-06
1.05442e-06
1.05442e-06
1.0544e-06
1.05441e-06
1.0544e-06
1.0544e-06
1.05439e-06
1.05439e-06
1.05439e-06
1.05439e-06
1.05439e-06
1.05439e-06
1.0544e-06
1.0544e-06
1.05441e-06
1.0544e-06
1.05442e-06
1.05442e-06
1.05445e-06
1.05445e-06
1.0545e-06
1.05452e-06
1.0546e-06
1.05463e-06
1.05476e-06
1.0548e-06
1.05499e-06
1.05499e-06
1.05507e-06
1.05459e-06
1.05363e-06
1.05143e-06
1.04729e-06
1.04305e-06
1.02797e-06
1.03214e-06
1.03615e-06
1.03827e-06
1.03918e-06
1.03963e-06
1.03954e-06
1.03953e-06
1.03934e-06
1.03929e-06
1.03916e-06
1.03913e-06
1.03904e-06
1.03903e-06
1.03898e-06
1.03897e-06
1.03894e-06
1.03895e-06
1.03893e-06
1.03893e-06
1.03892e-06
1.03892e-06
1.03891e-06
1.03892e-06
1.03891e-06
1.03891e-06
1.03892e-06
1.03891e-06
1.03892e-06
1.03892e-06
1.03893e-06
1.03893e-06
1.03895e-06
1.03894e-06
1.03898e-06
1.03898e-06
1.03903e-06
1.03904e-06
1.03913e-06
1.03916e-06
1.03929e-06
1.03934e-06
1.03953e-06
1.03954e-06
1.03963e-06
1.03918e-06
1.03827e-06
1.03614e-06
1.03214e-06
1.02797e-06
1.01308e-06
1.01718e-06
1.02105e-06
1.02309e-06
1.02396e-06
1.02439e-06
1.02428e-06
1.02426e-06
1.02407e-06
1.02401e-06
1.02388e-06
1.02384e-06
1.02376e-06
1.02374e-06
1.02369e-06
1.02369e-06
1.02366e-06
1.02366e-06
1.02364e-06
1.02364e-06
1.02363e-06
1.02363e-06
1.02363e-06
1.02363e-06
1.02363e-06
1.02363e-06
1.02363e-06
1.02363e-06
1.02363e-06
1.02363e-06
1.02364e-06
1.02364e-06
1.02366e-06
1.02366e-06
1.02369e-06
1.02369e-06
1.02374e-06
1.02376e-06
1.02384e-06
1.02388e-06
1.02401e-06
1.02407e-06
1.02426e-06
1.02428e-06
1.02439e-06
1.02396e-06
1.02309e-06
1.02105e-06
1.01718e-06
1.01308e-06
9.98356e-07
1.00239e-06
1.00612e-06
1.00808e-06
1.0089e-06
1.0093e-06
1.00919e-06
1.00916e-06
1.00896e-06
1.0089e-06
1.00876e-06
1.00872e-06
1.00864e-06
1.00862e-06
1.00857e-06
1.00856e-06
1.00853e-06
1.00853e-06
1.00851e-06
1.00852e-06
1.00851e-06
1.00851e-06
1.0085e-06
1.0085e-06
1.0085e-06
1.0085e-06
1.0085e-06
1.0085e-06
1.00851e-06
1.00851e-06
1.00852e-06
1.00851e-06
1.00853e-06
1.00853e-06
1.00856e-06
1.00857e-06
1.00862e-06
1.00864e-06
1.00872e-06
1.00876e-06
1.0089e-06
1.00896e-06
1.00916e-06
1.00919e-06
1.0093e-06
1.0089e-06
1.00808e-06
1.00612e-06
1.00239e-06
9.98355e-07
9.83777e-07
9.87741e-07
9.91339e-07
9.93216e-07
9.93987e-07
9.94364e-07
9.94236e-07
9.94196e-07
9.93995e-07
9.93926e-07
9.93786e-07
9.93745e-07
9.93657e-07
9.93638e-07
9.93585e-07
9.93579e-07
9.93546e-07
9.93549e-07
9.93529e-07
9.93532e-07
9.93519e-07
9.93521e-07
9.93514e-07
9.93515e-07
9.93513e-07
9.93513e-07
9.93515e-07
9.93514e-07
9.93521e-07
9.93519e-07
9.93532e-07
9.93529e-07
9.93548e-07
9.93547e-07
9.93579e-07
9.93585e-07
9.93638e-07
9.93658e-07
9.93745e-07
9.93787e-07
9.93926e-07
9.93995e-07
9.94196e-07
9.94236e-07
9.94364e-07
9.93987e-07
9.93215e-07
9.91338e-07
9.8774e-07
9.83776e-07
9.69323e-07
9.73218e-07
9.76675e-07
9.78473e-07
9.79196e-07
9.79545e-07
9.79403e-07
9.79353e-07
9.79147e-07
9.79072e-07
9.7893e-07
9.78886e-07
9.78797e-07
9.78776e-07
9.78721e-07
9.78715e-07
9.78682e-07
9.78684e-07
9.78664e-07
9.78666e-07
9.78654e-07
9.78655e-07
9.78648e-07
9.7865e-07
9.78648e-07
9.78648e-07
9.7865e-07
9.78648e-07
9.78655e-07
9.78654e-07
9.78666e-07
9.78664e-07
9.78683e-07
9.78682e-07
9.78715e-07
9.78722e-07
9.78776e-07
9.78797e-07
9.78886e-07
9.7893e-07
9.79072e-07
9.79147e-07
9.79353e-07
9.79403e-07
9.79545e-07
9.79196e-07
9.78472e-07
9.76674e-07
9.73217e-07
9.69322e-07
9.54978e-07