/*--------------------------------*- C++ -*----------------------------------*\
| =========                 |                                                 |
| \\      /  F ield         | OpenFOAM: The Open Source CFD Toolbox           |
|  \\    /   O peration     | Version:  dev                                   |
|   \\  /    A nd           | Web:      www.OpenFOAM.org                      |
|    \\/     M anipulation  |                                                 |
\*---------------------------------------------------------------------------*/
FoamFile
{
    version     2.0;
    format      ascii;
    class       volScalarField;
    location    "0.1";
    object      C2H3O;
}
// * * * * * * * * * * * * * * * * * * * * * * * * * * * * * * * * * * * * * //

dimensions      [0 0 0 0 0 0 0];

internalField   nonuniform List<scalar> 
8000
(
0.000205263
0.000205079
0.000204981
0.000204939
0.000204911
0.000204912
0.000204904
0.000204909
0.000204905
0.000204908
0.000204905
0.000204908
0.000204906
0.000204908
0.000204906
0.000204907
0.000204907
0.000204907
0.000204907
0.000204907
0.000204907
0.000204907
0.000204907
0.000204907
0.000204907
0.000204907
0.000204907
0.000204907
0.000204907
0.000204907
0.000204907
0.000204907
0.000204907
0.000204907
0.000204907
0.000204906
0.000204908
0.000204906
0.000204908
0.000204905
0.000204908
0.000204905
0.000204909
0.000204904
0.000204912
0.000204911
0.000204939
0.000204981
0.000205079
0.000205263
6.58734e-05
6.58389e-05
6.58212e-05
6.58155e-05
6.58038e-05
6.58075e-05
6.58024e-05
6.5806e-05
6.58029e-05
6.58055e-05
6.58034e-05
6.58052e-05
6.58038e-05
6.58049e-05
6.5804e-05
6.58048e-05
6.58041e-05
6.58046e-05
6.58042e-05
6.58046e-05
6.58043e-05
6.58045e-05
6.58043e-05
6.58044e-05
6.58044e-05
6.58044e-05
6.58044e-05
6.58043e-05
6.58045e-05
6.58043e-05
6.58046e-05
6.58042e-05
6.58046e-05
6.58041e-05
6.58048e-05
6.5804e-05
6.58049e-05
6.58038e-05
6.58052e-05
6.58034e-05
6.58055e-05
6.58029e-05
6.5806e-05
6.58024e-05
6.58075e-05
6.58038e-05
6.58155e-05
6.58212e-05
6.58389e-05
6.58734e-05
2.42633e-05
2.42631e-05
2.42674e-05
2.427e-05
2.42644e-05
2.42676e-05
2.42644e-05
2.42669e-05
2.42648e-05
2.42665e-05
2.42651e-05
2.42663e-05
2.42653e-05
2.42661e-05
2.42654e-05
2.4266e-05
2.42655e-05
2.42659e-05
2.42656e-05
2.42658e-05
2.42656e-05
2.42658e-05
2.42657e-05
2.42657e-05
2.42657e-05
2.42657e-05
2.42657e-05
2.42657e-05
2.42658e-05
2.42656e-05
2.42658e-05
2.42656e-05
2.42659e-05
2.42655e-05
2.4266e-05
2.42654e-05
2.42661e-05
2.42653e-05
2.42663e-05
2.42651e-05
2.42665e-05
2.42648e-05
2.42669e-05
2.42644e-05
2.42676e-05
2.42645e-05
2.42699e-05
2.42674e-05
2.42631e-05
2.42634e-05
9.59069e-06
9.59606e-06
9.60354e-06
9.60665e-06
9.60399e-06
9.60604e-06
9.60419e-06
9.60567e-06
9.6044e-06
9.60544e-06
9.60458e-06
9.60529e-06
9.60471e-06
9.60517e-06
9.60479e-06
9.6051e-06
9.60483e-06
9.60505e-06
9.60488e-06
9.60501e-06
9.60491e-06
9.60499e-06
9.60492e-06
9.60496e-06
9.60495e-06
9.60495e-06
9.60496e-06
9.60493e-06
9.60499e-06
9.60491e-06
9.60502e-06
9.60488e-06
9.60505e-06
9.60483e-06
9.60511e-06
9.60479e-06
9.60517e-06
9.60471e-06
9.60529e-06
9.60459e-06
9.60544e-06
9.6044e-06
9.60567e-06
9.60419e-06
9.60605e-06
9.60399e-06
9.60665e-06
9.60354e-06
9.59608e-06
9.59071e-06
3.94338e-06
3.94798e-06
3.95396e-06
3.95622e-06
3.95493e-06
3.95613e-06
3.95511e-06
3.95594e-06
3.95522e-06
3.95581e-06
3.95532e-06
3.95572e-06
3.95539e-06
3.95565e-06
3.95544e-06
3.95561e-06
3.95546e-06
3.95558e-06
3.95549e-06
3.95556e-06
3.9555e-06
3.95555e-06
3.95551e-06
3.95553e-06
3.95552e-06
3.95552e-06
3.95553e-06
3.95551e-06
3.95555e-06
3.9555e-06
3.95556e-06
3.95549e-06
3.95558e-06
3.95546e-06
3.95561e-06
3.95544e-06
3.95565e-06
3.95539e-06
3.95572e-06
3.95533e-06
3.95581e-06
3.95522e-06
3.95594e-06
3.95511e-06
3.95613e-06
3.95493e-06
3.95621e-06
3.95396e-06
3.94799e-06
3.94339e-06
1.66129e-06
1.66427e-06
1.6682e-06
1.6696e-06
1.66899e-06
1.66965e-06
1.6691e-06
1.66955e-06
1.66917e-06
1.66948e-06
1.66922e-06
1.66943e-06
1.66925e-06
1.66939e-06
1.66928e-06
1.66937e-06
1.66929e-06
1.66936e-06
1.66931e-06
1.66935e-06
1.66931e-06
1.66934e-06
1.66932e-06
1.66933e-06
1.66933e-06
1.66933e-06
1.66933e-06
1.66932e-06
1.66934e-06
1.66931e-06
1.66935e-06
1.66931e-06
1.66936e-06
1.66929e-06
1.66937e-06
1.66928e-06
1.66939e-06
1.66926e-06
1.66943e-06
1.66922e-06
1.66948e-06
1.66917e-06
1.66955e-06
1.6691e-06
1.66965e-06
1.66899e-06
1.6696e-06
1.6682e-06
1.66427e-06
1.66129e-06
7.11946e-07
7.13677e-07
7.16027e-07
7.16835e-07
7.16548e-07
7.16902e-07
7.16618e-07
7.16854e-07
7.16649e-07
7.16814e-07
7.16677e-07
7.16789e-07
7.16696e-07
7.16768e-07
7.16707e-07
7.16758e-07
7.16714e-07
7.1675e-07
7.16723e-07
7.16744e-07
7.16727e-07
7.16739e-07
7.16729e-07
7.16735e-07
7.16733e-07
7.16733e-07
7.16735e-07
7.16729e-07
7.16739e-07
7.16727e-07
7.16744e-07
7.16723e-07
7.1675e-07
7.16714e-07
7.16758e-07
7.16707e-07
7.16769e-07
7.16696e-07
7.16789e-07
7.16677e-07
7.16815e-07
7.1665e-07
7.16855e-07
7.16618e-07
7.16902e-07
7.16549e-07
7.16835e-07
7.16027e-07
7.1368e-07
7.11949e-07
3.09766e-07
3.10715e-07
3.12046e-07
3.12492e-07
3.12359e-07
3.12544e-07
3.12398e-07
3.1252e-07
3.12414e-07
3.12499e-07
3.12428e-07
3.12486e-07
3.12438e-07
3.12475e-07
3.12444e-07
3.12469e-07
3.12447e-07
3.12465e-07
3.12451e-07
3.12462e-07
3.12453e-07
3.1246e-07
3.12455e-07
3.12458e-07
3.12456e-07
3.12456e-07
3.12458e-07
3.12455e-07
3.1246e-07
3.12453e-07
3.12462e-07
3.12451e-07
3.12465e-07
3.12447e-07
3.1247e-07
3.12443e-07
3.12475e-07
3.12438e-07
3.12486e-07
3.12428e-07
3.12499e-07
3.12414e-07
3.1252e-07
3.12398e-07
3.12544e-07
3.1236e-07
3.12491e-07
3.12046e-07
3.10716e-07
3.09768e-07
1.37191e-07
1.37694e-07
1.38423e-07
1.38662e-07
1.38602e-07
1.38696e-07
1.38623e-07
1.38685e-07
1.38631e-07
1.38674e-07
1.38638e-07
1.38667e-07
1.38643e-07
1.38662e-07
1.38646e-07
1.38659e-07
1.38647e-07
1.38657e-07
1.3865e-07
1.38655e-07
1.38651e-07
1.38654e-07
1.38651e-07
1.38653e-07
1.38652e-07
1.38652e-07
1.38653e-07
1.38651e-07
1.38654e-07
1.38651e-07
1.38655e-07
1.3865e-07
1.38657e-07
1.38647e-07
1.38659e-07
1.38646e-07
1.38662e-07
1.38643e-07
1.38667e-07
1.38638e-07
1.38674e-07
1.38631e-07
1.38685e-07
1.38623e-07
1.38697e-07
1.38602e-07
1.38662e-07
1.38423e-07
1.37695e-07
1.37192e-07
6.22798e-08
6.25424e-08
6.29336e-08
6.30606e-08
6.30336e-08
6.30816e-08
6.30447e-08
6.30759e-08
6.30485e-08
6.30702e-08
6.30519e-08
6.30668e-08
6.30543e-08
6.30639e-08
6.30558e-08
6.30625e-08
6.30566e-08
6.30614e-08
6.30578e-08
6.30606e-08
6.30583e-08
6.306e-08
6.30586e-08
6.30595e-08
6.30591e-08
6.30591e-08
6.30595e-08
6.30586e-08
6.306e-08
6.30583e-08
6.30606e-08
6.30578e-08
6.30614e-08
6.30566e-08
6.30625e-08
6.30558e-08
6.3064e-08
6.30544e-08
6.30668e-08
6.3052e-08
6.30703e-08
6.30485e-08
6.30759e-08
6.30447e-08
6.30817e-08
6.30338e-08
6.30605e-08
6.29337e-08
6.25427e-08
6.22802e-08
2.94406e-08
2.95791e-08
2.9791e-08
2.9859e-08
2.98469e-08
2.98717e-08
2.98527e-08
2.98688e-08
2.98546e-08
2.98658e-08
2.98563e-08
2.9864e-08
2.98575e-08
2.98625e-08
2.98583e-08
2.98617e-08
2.98587e-08
2.98612e-08
2.98593e-08
2.98608e-08
2.98596e-08
2.98604e-08
2.98598e-08
2.98602e-08
2.986e-08
2.986e-08
2.98602e-08
2.98598e-08
2.98605e-08
2.98596e-08
2.98608e-08
2.98593e-08
2.98612e-08
2.98587e-08
2.98618e-08
2.98583e-08
2.98625e-08
2.98576e-08
2.9864e-08
2.98564e-08
2.98658e-08
2.98546e-08
2.98688e-08
2.98527e-08
2.98717e-08
2.9847e-08
2.9859e-08
2.9791e-08
2.95793e-08
2.94408e-08
1.4393e-08
1.44617e-08
1.45674e-08
1.46012e-08
1.45958e-08
1.46077e-08
1.45985e-08
1.46063e-08
1.45994e-08
1.46048e-08
1.46002e-08
1.46039e-08
1.46008e-08
1.46032e-08
1.46012e-08
1.46028e-08
1.46014e-08
1.46026e-08
1.46017e-08
1.46024e-08
1.46018e-08
1.46022e-08
1.46019e-08
1.46021e-08
1.4602e-08
1.4602e-08
1.46021e-08
1.46019e-08
1.46022e-08
1.46018e-08
1.46024e-08
1.46017e-08
1.46026e-08
1.46014e-08
1.46029e-08
1.46012e-08
1.46032e-08
1.46008e-08
1.46039e-08
1.46002e-08
1.46048e-08
1.45994e-08
1.46063e-08
1.45985e-08
1.46078e-08
1.45958e-08
1.46012e-08
1.45674e-08
1.44618e-08
1.43931e-08
7.77942e-09
7.81953e-09
7.88025e-09
7.89953e-09
7.89662e-09
7.90324e-09
7.89803e-09
7.90235e-09
7.89845e-09
7.9015e-09
7.89891e-09
7.901e-09
7.89925e-09
7.9006e-09
7.89946e-09
7.9004e-09
7.89957e-09
7.90025e-09
7.89975e-09
7.90014e-09
7.89982e-09
7.90005e-09
7.89986e-09
7.89998e-09
7.89993e-09
7.89993e-09
7.89998e-09
7.89986e-09
7.90005e-09
7.89982e-09
7.90014e-09
7.89975e-09
7.90025e-09
7.89958e-09
7.90041e-09
7.89946e-09
7.90061e-09
7.89926e-09
7.901e-09
7.89892e-09
7.90151e-09
7.89845e-09
7.90236e-09
7.89803e-09
7.90324e-09
7.89663e-09
7.89952e-09
7.88026e-09
7.81956e-09
7.77948e-09
4.65017e-09
4.66598e-09
4.69492e-09
4.70416e-09
4.70376e-09
4.70681e-09
4.70466e-09
4.70654e-09
4.70484e-09
4.70616e-09
4.70502e-09
4.70592e-09
4.70515e-09
4.70573e-09
4.70523e-09
4.70563e-09
4.70527e-09
4.70556e-09
4.70534e-09
4.70551e-09
4.70537e-09
4.70547e-09
4.70539e-09
4.70544e-09
4.70542e-09
4.70542e-09
4.70544e-09
4.70539e-09
4.70547e-09
4.70537e-09
4.70551e-09
4.70534e-09
4.70556e-09
4.70527e-09
4.70563e-09
4.70523e-09
4.70573e-09
4.70515e-09
4.70592e-09
4.70503e-09
4.70616e-09
4.70484e-09
4.70655e-09
4.70466e-09
4.70681e-09
4.70376e-09
4.70416e-09
4.69492e-09
4.66599e-09
4.6502e-09
3.06476e-09
3.07402e-09
3.09083e-09
3.09619e-09
3.09606e-09
3.09778e-09
3.09656e-09
3.09761e-09
3.09664e-09
3.09738e-09
3.09674e-09
3.09724e-09
3.09681e-09
3.09714e-09
3.09686e-09
3.09708e-09
3.09688e-09
3.09705e-09
3.09692e-09
3.09702e-09
3.09694e-09
3.09699e-09
3.09695e-09
3.09698e-09
3.09696e-09
3.09696e-09
3.09698e-09
3.09695e-09
3.09699e-09
3.09694e-09
3.09702e-09
3.09692e-09
3.09705e-09
3.09688e-09
3.09709e-09
3.09686e-09
3.09714e-09
3.09681e-09
3.09724e-09
3.09674e-09
3.09739e-09
3.09664e-09
3.09761e-09
3.09656e-09
3.09778e-09
3.09607e-09
3.09619e-09
3.09083e-09
3.07403e-09
3.06477e-09
2.25708e-09
2.26342e-09
2.27464e-09
2.27824e-09
2.27825e-09
2.27935e-09
2.27856e-09
2.27924e-09
2.27861e-09
2.27909e-09
2.27867e-09
2.27899e-09
2.27871e-09
2.27893e-09
2.27874e-09
2.27889e-09
2.27876e-09
2.27886e-09
2.27878e-09
2.27885e-09
2.27879e-09
2.27883e-09
2.2788e-09
2.27882e-09
2.27881e-09
2.27881e-09
2.27882e-09
2.2788e-09
2.27883e-09
2.27879e-09
2.27885e-09
2.27878e-09
2.27886e-09
2.27876e-09
2.27889e-09
2.27874e-09
2.27893e-09
2.27872e-09
2.27899e-09
2.27867e-09
2.27909e-09
2.27861e-09
2.27924e-09
2.27856e-09
2.27935e-09
2.27825e-09
2.27824e-09
2.27464e-09
2.26342e-09
2.25708e-09
1.78104e-09
1.78638e-09
1.79516e-09
1.79826e-09
1.79851e-09
1.79937e-09
1.79881e-09
1.7993e-09
1.79883e-09
1.79917e-09
1.79886e-09
1.79909e-09
1.79889e-09
1.79904e-09
1.79891e-09
1.79901e-09
1.79891e-09
1.79899e-09
1.79893e-09
1.79898e-09
1.79894e-09
1.79897e-09
1.79894e-09
1.79896e-09
1.79895e-09
1.79895e-09
1.79896e-09
1.79895e-09
1.79897e-09
1.79894e-09
1.79898e-09
1.79893e-09
1.79899e-09
1.79892e-09
1.79901e-09
1.79891e-09
1.79904e-09
1.79889e-09
1.79909e-09
1.79886e-09
1.79917e-09
1.79883e-09
1.7993e-09
1.79881e-09
1.79937e-09
1.79851e-09
1.79826e-09
1.79516e-09
1.78639e-09
1.78104e-09
1.49425e-09
1.4987e-09
1.50558e-09
1.50811e-09
1.5084e-09
1.50907e-09
1.50865e-09
1.50902e-09
1.50866e-09
1.50891e-09
1.50868e-09
1.50885e-09
1.5087e-09
1.50881e-09
1.50871e-09
1.50879e-09
1.50872e-09
1.50877e-09
1.50873e-09
1.50876e-09
1.50874e-09
1.50875e-09
1.50874e-09
1.50875e-09
1.50874e-09
1.50874e-09
1.50875e-09
1.50874e-09
1.50876e-09
1.50874e-09
1.50876e-09
1.50873e-09
1.50877e-09
1.50872e-09
1.50879e-09
1.50871e-09
1.50881e-09
1.5087e-09
1.50885e-09
1.50868e-09
1.50891e-09
1.50866e-09
1.50902e-09
1.50865e-09
1.50907e-09
1.5084e-09
1.50811e-09
1.50558e-09
1.4987e-09
1.49425e-09
1.29473e-09
1.29907e-09
1.30527e-09
1.30769e-09
1.30799e-09
1.30859e-09
1.30822e-09
1.30854e-09
1.30822e-09
1.30845e-09
1.30824e-09
1.30839e-09
1.30825e-09
1.30835e-09
1.30826e-09
1.30833e-09
1.30827e-09
1.30832e-09
1.30828e-09
1.30831e-09
1.30829e-09
1.30831e-09
1.30829e-09
1.3083e-09
1.3083e-09
1.3083e-09
1.3083e-09
1.30829e-09
1.30831e-09
1.30829e-09
1.30831e-09
1.30828e-09
1.30832e-09
1.30827e-09
1.30834e-09
1.30826e-09
1.30836e-09
1.30825e-09
1.30839e-09
1.30824e-09
1.30845e-09
1.30822e-09
1.30854e-09
1.30822e-09
1.30859e-09
1.30799e-09
1.30769e-09
1.30527e-09
1.29907e-09
1.29473e-09
1.15161e-09
1.1556e-09
1.16085e-09
1.16297e-09
1.16329e-09
1.1638e-09
1.16351e-09
1.16377e-09
1.1635e-09
1.16368e-09
1.16351e-09
1.16364e-09
1.16353e-09
1.16361e-09
1.16353e-09
1.16359e-09
1.16354e-09
1.16358e-09
1.16355e-09
1.16357e-09
1.16355e-09
1.16357e-09
1.16355e-09
1.16356e-09
1.16356e-09
1.16356e-09
1.16356e-09
1.16355e-09
1.16357e-09
1.16355e-09
1.16357e-09
1.16355e-09
1.16358e-09
1.16354e-09
1.16359e-09
1.16353e-09
1.16361e-09
1.16353e-09
1.16364e-09
1.16351e-09
1.16368e-09
1.1635e-09
1.16377e-09
1.16351e-09
1.1638e-09
1.16329e-09
1.16297e-09
1.16085e-09
1.1556e-09
1.15161e-09
1.04788e-09
1.05178e-09
1.05644e-09
1.05841e-09
1.05875e-09
1.05921e-09
1.05896e-09
1.05918e-09
1.05895e-09
1.0591e-09
1.05896e-09
1.05906e-09
1.05897e-09
1.05903e-09
1.05897e-09
1.05902e-09
1.05897e-09
1.05901e-09
1.05898e-09
1.059e-09
1.05899e-09
1.059e-09
1.05899e-09
1.05899e-09
1.05899e-09
1.05899e-09
1.05899e-09
1.05899e-09
1.059e-09
1.05899e-09
1.059e-09
1.05898e-09
1.05901e-09
1.05897e-09
1.05902e-09
1.05897e-09
1.05903e-09
1.05897e-09
1.05906e-09
1.05896e-09
1.05911e-09
1.05895e-09
1.05918e-09
1.05896e-09
1.05921e-09
1.05875e-09
1.05841e-09
1.05644e-09
1.05178e-09
1.04788e-09
9.67375e-10
9.71298e-10
9.75525e-10
9.7737e-10
9.77721e-10
9.78144e-10
9.77926e-10
9.78122e-10
9.7792e-10
9.78054e-10
9.77923e-10
9.78015e-10
9.77929e-10
9.77989e-10
9.77933e-10
9.77975e-10
9.77935e-10
9.77967e-10
9.77943e-10
9.77962e-10
9.77945e-10
9.77956e-10
9.77946e-10
9.77952e-10
9.7795e-10
9.7795e-10
9.77952e-10
9.77946e-10
9.77956e-10
9.77945e-10
9.77961e-10
9.77942e-10
9.77967e-10
9.77935e-10
9.77976e-10
9.77933e-10
9.77989e-10
9.77929e-10
9.78015e-10
9.77924e-10
9.78054e-10
9.7792e-10
9.78122e-10
9.77926e-10
9.78144e-10
9.77721e-10
9.7737e-10
9.75525e-10
9.71298e-10
9.67375e-10
9.03475e-10
9.05652e-10
9.09301e-10
9.10982e-10
9.11385e-10
9.1177e-10
9.11605e-10
9.11763e-10
9.11594e-10
9.11697e-10
9.11587e-10
9.11658e-10
9.11586e-10
9.11632e-10
9.11585e-10
9.11619e-10
9.11585e-10
9.11611e-10
9.1159e-10
9.11605e-10
9.11592e-10
9.11601e-10
9.11593e-10
9.11597e-10
9.11595e-10
9.11595e-10
9.11597e-10
9.11593e-10
9.11601e-10
9.11592e-10
9.11605e-10
9.1159e-10
9.11611e-10
9.11585e-10
9.11619e-10
9.11585e-10
9.11632e-10
9.11586e-10
9.11658e-10
9.11587e-10
9.11697e-10
9.11593e-10
9.11762e-10
9.11605e-10
9.11769e-10
9.11385e-10
9.10982e-10
9.09301e-10
9.05652e-10
9.03475e-10
8.51941e-10
8.54134e-10
8.57491e-10
8.59085e-10
8.59494e-10
8.59855e-10
8.59711e-10
8.59852e-10
8.59699e-10
8.59789e-10
8.59691e-10
8.59752e-10
8.59687e-10
8.59728e-10
8.59685e-10
8.59715e-10
8.59685e-10
8.59708e-10
8.59689e-10
8.59703e-10
8.59691e-10
8.59698e-10
8.59691e-10
8.59695e-10
8.59693e-10
8.59693e-10
8.59695e-10
8.59691e-10
8.59699e-10
8.59691e-10
8.59703e-10
8.59689e-10
8.59708e-10
8.59685e-10
8.59715e-10
8.59685e-10
8.59728e-10
8.59687e-10
8.59752e-10
8.59691e-10
8.5979e-10
8.59699e-10
8.59852e-10
8.59711e-10
8.59854e-10
8.59494e-10
8.59085e-10
8.57491e-10
8.54134e-10
8.51941e-10
8.08236e-10
8.10463e-10
8.13646e-10
8.15216e-10
8.15645e-10
8.15995e-10
8.15867e-10
8.15994e-10
8.15852e-10
8.15932e-10
8.1584e-10
8.15895e-10
8.15834e-10
8.15871e-10
8.15832e-10
8.15858e-10
8.1583e-10
8.15851e-10
8.15834e-10
8.15847e-10
8.15835e-10
8.15842e-10
8.15836e-10
8.15839e-10
8.15838e-10
8.15838e-10
8.15839e-10
8.15836e-10
8.15842e-10
8.15835e-10
8.15847e-10
8.15834e-10
8.15851e-10
8.1583e-10
8.15859e-10
8.15832e-10
8.15871e-10
8.15834e-10
8.15895e-10
8.1584e-10
8.15932e-10
8.15852e-10
8.15994e-10
8.15867e-10
8.15994e-10
8.15645e-10
8.15216e-10
8.13646e-10
8.10463e-10
8.08236e-10
7.72048e-10
7.74247e-10
7.77188e-10
7.78676e-10
7.79107e-10
7.79435e-10
7.79326e-10
7.79437e-10
7.7931e-10
7.79378e-10
7.79295e-10
7.79342e-10
7.79288e-10
7.79319e-10
7.79284e-10
7.79307e-10
7.79282e-10
7.79301e-10
7.79285e-10
7.79296e-10
7.79286e-10
7.79292e-10
7.79286e-10
7.7929e-10
7.79288e-10
7.79288e-10
7.7929e-10
7.79286e-10
7.79292e-10
7.79286e-10
7.79296e-10
7.79285e-10
7.79301e-10
7.79282e-10
7.79308e-10
7.79284e-10
7.7932e-10
7.79288e-10
7.79342e-10
7.79295e-10
7.79378e-10
7.7931e-10
7.79437e-10
7.79326e-10
7.79435e-10
7.79106e-10
7.78676e-10
7.77188e-10
7.74247e-10
7.72048e-10
7.41741e-10
7.43917e-10
7.46652e-10
7.48068e-10
7.48498e-10
7.48809e-10
7.48715e-10
7.48813e-10
7.48698e-10
7.48756e-10
7.48681e-10
7.48722e-10
7.48672e-10
7.48699e-10
7.48667e-10
7.48688e-10
7.48665e-10
7.48681e-10
7.48667e-10
7.48677e-10
7.48668e-10
7.48674e-10
7.48668e-10
7.48671e-10
7.4867e-10
7.4867e-10
7.48671e-10
7.48668e-10
7.48674e-10
7.48668e-10
7.48677e-10
7.48667e-10
7.48681e-10
7.48665e-10
7.48688e-10
7.48667e-10
7.48699e-10
7.48672e-10
7.48721e-10
7.48681e-10
7.48757e-10
7.48697e-10
7.48813e-10
7.48715e-10
7.48808e-10
7.48498e-10
7.48067e-10
7.46652e-10
7.43917e-10
7.41741e-10
7.16085e-10
7.18234e-10
7.20797e-10
7.22148e-10
7.22578e-10
7.22873e-10
7.22791e-10
7.22879e-10
7.22773e-10
7.22824e-10
7.22754e-10
7.22789e-10
7.22744e-10
7.22768e-10
7.22738e-10
7.22756e-10
7.22736e-10
7.2275e-10
7.22738e-10
7.22746e-10
7.22738e-10
7.22743e-10
7.22738e-10
7.22741e-10
7.22739e-10
7.22739e-10
7.22741e-10
7.22738e-10
7.22743e-10
7.22738e-10
7.22746e-10
7.22737e-10
7.2275e-10
7.22736e-10
7.22756e-10
7.22738e-10
7.22768e-10
7.22744e-10
7.22789e-10
7.22754e-10
7.22824e-10
7.22773e-10
7.22879e-10
7.22791e-10
7.22872e-10
7.22577e-10
7.22148e-10
7.20797e-10
7.18234e-10
7.16085e-10
6.94129e-10
6.96248e-10
6.9867e-10
6.9996e-10
7.00388e-10
7.0067e-10
7.00599e-10
7.00678e-10
7.0058e-10
7.00623e-10
7.00559e-10
7.00589e-10
7.00547e-10
7.00568e-10
7.00541e-10
7.00557e-10
7.00538e-10
7.00551e-10
7.00539e-10
7.00547e-10
7.00539e-10
7.00544e-10
7.00539e-10
7.00542e-10
7.0054e-10
7.0054e-10
7.00542e-10
7.00539e-10
7.00544e-10
7.00539e-10
7.00547e-10
7.00539e-10
7.00551e-10
7.00538e-10
7.00557e-10
7.00541e-10
7.00568e-10
7.00547e-10
7.00589e-10
7.00559e-10
7.00623e-10
7.0058e-10
7.00678e-10
7.00599e-10
7.0067e-10
7.00388e-10
6.9996e-10
6.9867e-10
6.96248e-10
6.94129e-10
6.75133e-10
6.77221e-10
6.79525e-10
6.8076e-10
6.81186e-10
6.81457e-10
6.81394e-10
6.81465e-10
6.81373e-10
6.81411e-10
6.8135e-10
6.81377e-10
6.81337e-10
6.81355e-10
6.8133e-10
6.81344e-10
6.81327e-10
6.81338e-10
6.81328e-10
6.81335e-10
6.81328e-10
6.81332e-10
6.81327e-10
6.8133e-10
6.81328e-10
6.81328e-10
6.8133e-10
6.81327e-10
6.81332e-10
6.81328e-10
6.81335e-10
6.81328e-10
6.81338e-10
6.81327e-10
6.81344e-10
6.8133e-10
6.81356e-10
6.81337e-10
6.81377e-10
6.81351e-10
6.81411e-10
6.81373e-10
6.81465e-10
6.81394e-10
6.81456e-10
6.81185e-10
6.8076e-10
6.79525e-10
6.77221e-10
6.75133e-10
6.58518e-10
6.60575e-10
6.62778e-10
6.63963e-10
6.64385e-10
6.64646e-10
6.64591e-10
6.64654e-10
6.64569e-10
6.646e-10
6.64544e-10
6.64566e-10
6.64529e-10
6.64545e-10
6.64521e-10
6.64534e-10
6.64517e-10
6.64528e-10
6.64518e-10
6.64525e-10
6.64518e-10
6.64522e-10
6.64518e-10
6.6452e-10
6.64519e-10
6.64519e-10
6.6452e-10
6.64518e-10
6.64522e-10
6.64518e-10
6.64525e-10
6.64518e-10
6.64528e-10
6.64518e-10
6.64534e-10
6.64521e-10
6.64545e-10
6.64529e-10
6.64566e-10
6.64544e-10
6.646e-10
6.64568e-10
6.64654e-10
6.64591e-10
6.64646e-10
6.64385e-10
6.63963e-10
6.62778e-10
6.60575e-10
6.58518e-10
6.43825e-10
6.45851e-10
6.47967e-10
6.49107e-10
6.49525e-10
6.49777e-10
6.49728e-10
6.49785e-10
6.49704e-10
6.49731e-10
6.49677e-10
6.49696e-10
6.49661e-10
6.49675e-10
6.49652e-10
6.49664e-10
6.49648e-10
6.49658e-10
6.49649e-10
6.49655e-10
6.49648e-10
6.49652e-10
6.49648e-10
6.4965e-10
6.49649e-10
6.49649e-10
6.4965e-10
6.49648e-10
6.49652e-10
6.49648e-10
6.49654e-10
6.49648e-10
6.49658e-10
6.49648e-10
6.49664e-10
6.49652e-10
6.49675e-10
6.49661e-10
6.49696e-10
6.49677e-10
6.49731e-10
6.49703e-10
6.49785e-10
6.49728e-10
6.49777e-10
6.49525e-10
6.49107e-10
6.47967e-10
6.45851e-10
6.43825e-10
6.30691e-10
6.32686e-10
6.34726e-10
6.35826e-10
6.36238e-10
6.36483e-10
6.36437e-10
6.36489e-10
6.36412e-10
6.36435e-10
6.36383e-10
6.364e-10
6.36366e-10
6.36378e-10
6.36357e-10
6.36367e-10
6.36352e-10
6.36361e-10
6.36352e-10
6.36358e-10
6.36352e-10
6.36355e-10
6.36351e-10
6.36353e-10
6.36352e-10
6.36352e-10
6.36353e-10
6.36351e-10
6.36355e-10
6.36352e-10
6.36358e-10
6.36352e-10
6.36361e-10
6.36352e-10
6.36367e-10
6.36357e-10
6.36378e-10
6.36366e-10
6.364e-10
6.36383e-10
6.36435e-10
6.36411e-10
6.36489e-10
6.36437e-10
6.36482e-10
6.36238e-10
6.35825e-10
6.34726e-10
6.32686e-10
6.30691e-10
6.18827e-10
6.2079e-10
6.22764e-10
6.23826e-10
6.24232e-10
6.2447e-10
6.24428e-10
6.24475e-10
6.24401e-10
6.2442e-10
6.2437e-10
6.24384e-10
6.24352e-10
6.24362e-10
6.24342e-10
6.24351e-10
6.24337e-10
6.24345e-10
6.24337e-10
6.24342e-10
6.24336e-10
6.24339e-10
6.24335e-10
6.24337e-10
6.24336e-10
6.24336e-10
6.24337e-10
6.24335e-10
6.24339e-10
6.24336e-10
6.24342e-10
6.24337e-10
6.24345e-10
6.24337e-10
6.24351e-10
6.24342e-10
6.24363e-10
6.24352e-10
6.24384e-10
6.2437e-10
6.2442e-10
6.244e-10
6.24475e-10
6.24428e-10
6.24469e-10
6.24232e-10
6.23826e-10
6.22764e-10
6.2079e-10
6.18827e-10
6.08002e-10
6.09931e-10
6.11847e-10
6.12874e-10
6.13275e-10
6.13505e-10
6.13466e-10
6.13509e-10
6.13437e-10
6.13453e-10
6.13404e-10
6.13416e-10
6.13385e-10
6.13394e-10
6.13374e-10
6.13382e-10
6.13369e-10
6.13377e-10
6.13368e-10
6.13373e-10
6.13368e-10
6.1337e-10
6.13367e-10
6.13369e-10
6.13368e-10
6.13368e-10
6.13369e-10
6.13367e-10
6.1337e-10
6.13368e-10
6.13373e-10
6.13368e-10
6.13377e-10
6.13369e-10
6.13383e-10
6.13374e-10
6.13394e-10
6.13385e-10
6.13416e-10
6.13404e-10
6.13453e-10
6.13437e-10
6.13509e-10
6.13466e-10
6.13505e-10
6.13275e-10
6.12874e-10
6.11847e-10
6.09931e-10
6.08001e-10
5.9803e-10
5.99925e-10
6.01789e-10
6.02784e-10
6.03178e-10
6.03402e-10
6.03365e-10
6.03403e-10
6.03333e-10
6.03346e-10
6.03299e-10
6.03308e-10
6.03278e-10
6.03286e-10
6.03267e-10
6.03274e-10
6.03261e-10
6.03268e-10
6.0326e-10
6.03265e-10
6.03259e-10
6.03262e-10
6.03259e-10
6.0326e-10
6.03259e-10
6.03259e-10
6.0326e-10
6.03259e-10
6.03262e-10
6.03259e-10
6.03265e-10
6.0326e-10
6.03268e-10
6.03261e-10
6.03274e-10
6.03267e-10
6.03286e-10
6.03278e-10
6.03308e-10
6.03299e-10
6.03346e-10
6.03333e-10
6.03403e-10
6.03365e-10
6.03401e-10
6.03177e-10
6.02784e-10
6.01789e-10
5.99925e-10
5.9803e-10
5.88765e-10
5.90623e-10
5.92439e-10
5.93405e-10
5.9379e-10
5.94008e-10
5.93973e-10
5.94007e-10
5.93938e-10
5.93949e-10
5.93902e-10
5.9391e-10
5.93881e-10
5.93888e-10
5.93869e-10
5.93875e-10
5.93863e-10
5.93869e-10
5.93862e-10
5.93866e-10
5.93861e-10
5.93863e-10
5.9386e-10
5.93861e-10
5.93861e-10
5.93861e-10
5.93861e-10
5.9386e-10
5.93863e-10
5.93861e-10
5.93866e-10
5.93862e-10
5.93869e-10
5.93863e-10
5.93875e-10
5.93869e-10
5.93888e-10
5.93881e-10
5.9391e-10
5.93902e-10
5.93949e-10
5.93938e-10
5.94007e-10
5.93973e-10
5.94008e-10
5.9379e-10
5.93405e-10
5.92439e-10
5.90622e-10
5.88764e-10
5.80085e-10
5.81903e-10
5.83677e-10
5.84615e-10
5.84992e-10
5.85204e-10
5.85169e-10
5.852e-10
5.85133e-10
5.8514e-10
5.85095e-10
5.85101e-10
5.85072e-10
5.85078e-10
5.85059e-10
5.85065e-10
5.85053e-10
5.85059e-10
5.85052e-10
5.85055e-10
5.8505e-10
5.85053e-10
5.8505e-10
5.85051e-10
5.8505e-10
5.8505e-10
5.85051e-10
5.8505e-10
5.85053e-10
5.8505e-10
5.85055e-10
5.85052e-10
5.85059e-10
5.85053e-10
5.85065e-10
5.85059e-10
5.85078e-10
5.85072e-10
5.85101e-10
5.85095e-10
5.8514e-10
5.85133e-10
5.852e-10
5.85169e-10
5.85204e-10
5.84992e-10
5.84615e-10
5.83677e-10
5.81903e-10
5.80085e-10
5.71897e-10
5.73669e-10
5.75406e-10
5.76317e-10
5.76686e-10
5.76891e-10
5.76857e-10
5.76884e-10
5.76817e-10
5.76823e-10
5.76778e-10
5.76782e-10
5.76753e-10
5.76759e-10
5.7674e-10
5.76746e-10
5.76734e-10
5.76739e-10
5.76732e-10
5.76736e-10
5.76731e-10
5.76733e-10
5.7673e-10
5.76731e-10
5.76731e-10
5.76731e-10
5.76731e-10
5.7673e-10
5.76733e-10
5.76731e-10
5.76736e-10
5.76732e-10
5.76739e-10
5.76734e-10
5.76746e-10
5.7674e-10
5.76759e-10
5.76753e-10
5.76782e-10
5.76778e-10
5.76823e-10
5.76817e-10
5.76884e-10
5.76857e-10
5.76891e-10
5.76686e-10
5.76317e-10
5.75406e-10
5.73668e-10
5.71897e-10
5.64116e-10
5.65847e-10
5.67547e-10
5.68432e-10
5.68791e-10
5.68991e-10
5.68956e-10
5.6898e-10
5.68914e-10
5.68917e-10
5.68872e-10
5.68876e-10
5.68847e-10
5.68851e-10
5.68833e-10
5.68838e-10
5.68826e-10
5.68832e-10
5.68824e-10
5.68828e-10
5.68823e-10
5.68825e-10
5.68822e-10
5.68824e-10
5.68823e-10
5.68823e-10
5.68824e-10
5.68822e-10
5.68825e-10
5.68823e-10
5.68828e-10
5.68824e-10
5.68832e-10
5.68826e-10
5.68838e-10
5.68833e-10
5.68851e-10
5.68847e-10
5.68876e-10
5.68872e-10
5.68917e-10
5.68914e-10
5.6898e-10
5.68956e-10
5.6899e-10
5.68791e-10
5.68431e-10
5.67546e-10
5.65847e-10
5.64116e-10
5.56679e-10
5.58375e-10
5.60035e-10
5.60894e-10
5.61245e-10
5.61438e-10
5.61403e-10
5.61424e-10
5.61358e-10
5.61359e-10
5.61314e-10
5.61316e-10
5.61288e-10
5.61291e-10
5.61274e-10
5.61278e-10
5.61266e-10
5.61271e-10
5.61264e-10
5.61268e-10
5.61263e-10
5.61265e-10
5.61262e-10
5.61263e-10
5.61262e-10
5.61262e-10
5.61263e-10
5.61262e-10
5.61265e-10
5.61263e-10
5.61268e-10
5.61264e-10
5.61271e-10
5.61266e-10
5.61278e-10
5.61274e-10
5.61291e-10
5.61288e-10
5.61316e-10
5.61314e-10
5.61359e-10
5.61358e-10
5.61424e-10
5.61403e-10
5.61438e-10
5.61245e-10
5.60894e-10
5.60035e-10
5.58375e-10
5.56679e-10
5.49536e-10
5.51202e-10
5.52819e-10
5.53654e-10
5.53995e-10
5.54182e-10
5.54146e-10
5.54164e-10
5.54098e-10
5.54097e-10
5.54052e-10
5.54053e-10
5.54025e-10
5.54027e-10
5.5401e-10
5.54014e-10
5.54002e-10
5.54007e-10
5.54e-10
5.54003e-10
5.53998e-10
5.54e-10
5.53997e-10
5.53998e-10
5.53998e-10
5.53998e-10
5.53998e-10
5.53997e-10
5.54e-10
5.53998e-10
5.54003e-10
5.54e-10
5.54007e-10
5.54002e-10
5.54014e-10
5.5401e-10
5.54027e-10
5.54025e-10
5.54053e-10
5.54052e-10
5.54097e-10
5.54098e-10
5.54164e-10
5.54145e-10
5.54182e-10
5.53995e-10
5.53654e-10
5.52819e-10
5.51201e-10
5.49536e-10
5.42643e-10
5.44284e-10
5.45857e-10
5.46667e-10
5.46999e-10
5.47179e-10
5.47142e-10
5.47157e-10
5.47091e-10
5.47088e-10
5.47043e-10
5.47043e-10
5.47014e-10
5.47016e-10
5.46999e-10
5.47002e-10
5.46991e-10
5.46995e-10
5.46988e-10
5.46991e-10
5.46987e-10
5.46989e-10
5.46986e-10
5.46987e-10
5.46986e-10
5.46986e-10
5.46987e-10
5.46986e-10
5.46989e-10
5.46987e-10
5.46991e-10
5.46988e-10
5.46995e-10
5.46991e-10
5.47002e-10
5.46999e-10
5.47016e-10
5.47014e-10
5.47043e-10
5.47043e-10
5.47088e-10
5.47091e-10
5.47157e-10
5.47141e-10
5.47179e-10
5.46999e-10
5.46667e-10
5.45857e-10
5.44284e-10
5.42643e-10
5.35968e-10
5.37588e-10
5.39113e-10
5.39901e-10
5.40222e-10
5.40396e-10
5.40356e-10
5.40368e-10
5.40302e-10
5.40297e-10
5.40253e-10
5.40251e-10
5.40223e-10
5.40224e-10
5.40206e-10
5.4021e-10
5.40198e-10
5.40202e-10
5.40195e-10
5.40198e-10
5.40194e-10
5.40195e-10
5.40193e-10
5.40194e-10
5.40193e-10
5.40193e-10
5.40194e-10
5.40193e-10
5.40195e-10
5.40194e-10
5.40198e-10
5.40195e-10
5.40202e-10
5.40198e-10
5.4021e-10
5.40206e-10
5.40224e-10
5.40223e-10
5.40251e-10
5.40253e-10
5.40297e-10
5.40302e-10
5.40368e-10
5.40356e-10
5.40395e-10
5.40222e-10
5.399e-10
5.39113e-10
5.37587e-10
5.35968e-10
5.29482e-10
5.3108e-10
5.32564e-10
5.33325e-10
5.33635e-10
5.33802e-10
5.33761e-10
5.3377e-10
5.33704e-10
5.33697e-10
5.33652e-10
5.33649e-10
5.33621e-10
5.33622e-10
5.33604e-10
5.33607e-10
5.33596e-10
5.33599e-10
5.33593e-10
5.33595e-10
5.33591e-10
5.33592e-10
5.3359e-10
5.33591e-10
5.3359e-10
5.3359e-10
5.33591e-10
5.3359e-10
5.33593e-10
5.33591e-10
5.33595e-10
5.33593e-10
5.33599e-10
5.33596e-10
5.33607e-10
5.33604e-10
5.33622e-10
5.33621e-10
5.33649e-10
5.33652e-10
5.33697e-10
5.33704e-10
5.3377e-10
5.33761e-10
5.33802e-10
5.33635e-10
5.33325e-10
5.32564e-10
5.3108e-10
5.29482e-10
5.23163e-10
5.24741e-10
5.26182e-10
5.26918e-10
5.27215e-10
5.27376e-10
5.27332e-10
5.27339e-10
5.27272e-10
5.27263e-10
5.27218e-10
5.27214e-10
5.27186e-10
5.27186e-10
5.27168e-10
5.27171e-10
5.2716e-10
5.27163e-10
5.27156e-10
5.27159e-10
5.27155e-10
5.27156e-10
5.27154e-10
5.27155e-10
5.27154e-10
5.27154e-10
5.27155e-10
5.27154e-10
5.27156e-10
5.27155e-10
5.27159e-10
5.27156e-10
5.27163e-10
5.2716e-10
5.27171e-10
5.27168e-10
5.27186e-10
5.27186e-10
5.27214e-10
5.27218e-10
5.27263e-10
5.27272e-10
5.27339e-10
5.27332e-10
5.27376e-10
5.27215e-10
5.26918e-10
5.26182e-10
5.24741e-10
5.23163e-10
5.16992e-10
5.18552e-10
5.19948e-10
5.20659e-10
5.20943e-10
5.21097e-10
5.21051e-10
5.21055e-10
5.20987e-10
5.20977e-10
5.20932e-10
5.20927e-10
5.20898e-10
5.20898e-10
5.2088e-10
5.20882e-10
5.20871e-10
5.20874e-10
5.20868e-10
5.2087e-10
5.20866e-10
5.20867e-10
5.20865e-10
5.20865e-10
5.20865e-10
5.20865e-10
5.20865e-10
5.20865e-10
5.20867e-10
5.20866e-10
5.2087e-10
5.20868e-10
5.20874e-10
5.20871e-10
5.20882e-10
5.2088e-10
5.20898e-10
5.20898e-10
5.20927e-10
5.20932e-10
5.20977e-10
5.20987e-10
5.21055e-10
5.21051e-10
5.21097e-10
5.20943e-10
5.20658e-10
5.19948e-10
5.18551e-10
5.16992e-10
5.10953e-10
5.12494e-10
5.13846e-10
5.14531e-10
5.14803e-10
5.14949e-10
5.14901e-10
5.14902e-10
5.14834e-10
5.14822e-10
5.14776e-10
5.1477e-10
5.14741e-10
5.1474e-10
5.14723e-10
5.14724e-10
5.14713e-10
5.14716e-10
5.1471e-10
5.14712e-10
5.14708e-10
5.14709e-10
5.14707e-10
5.14707e-10
5.14707e-10
5.14707e-10
5.14707e-10
5.14707e-10
5.14709e-10
5.14708e-10
5.14712e-10
5.1471e-10
5.14716e-10
5.14713e-10
5.14724e-10
5.14723e-10
5.1474e-10
5.14741e-10
5.1477e-10
5.14776e-10
5.14822e-10
5.14834e-10
5.14902e-10
5.14901e-10
5.14949e-10
5.14803e-10
5.14531e-10
5.13846e-10
5.12494e-10
5.10953e-10
5.05034e-10
5.06556e-10
5.07862e-10
5.08522e-10
5.08781e-10
5.0892e-10
5.08869e-10
5.08867e-10
5.08798e-10
5.08784e-10
5.08738e-10
5.08731e-10
5.08702e-10
5.08701e-10
5.08683e-10
5.08684e-10
5.08673e-10
5.08676e-10
5.08669e-10
5.08672e-10
5.08667e-10
5.08669e-10
5.08666e-10
5.08667e-10
5.08666e-10
5.08666e-10
5.08667e-10
5.08666e-10
5.08669e-10
5.08667e-10
5.08672e-10
5.08669e-10
5.08676e-10
5.08673e-10
5.08684e-10
5.08683e-10
5.08701e-10
5.08702e-10
5.08731e-10
5.08738e-10
5.08784e-10
5.08798e-10
5.08867e-10
5.08869e-10
5.0892e-10
5.08781e-10
5.08522e-10