/*--------------------------------*- C++ -*----------------------------------*\
| =========                 |                                                 |
| \\      /  F ield         | OpenFOAM: The Open Source CFD Toolbox           |
|  \\    /   O peration     | Version:  dev                                   |
|   \\  /    A nd           | Web:      www.OpenFOAM.org                      |
|    \\/     M anipulation  |                                                 |
\*---------------------------------------------------------------------------*/
FoamFile
{
    version     2.0;
    format      ascii;
    class       volScalarField;
    location    "0.1";
    object      C2H6;
}
// * * * * * * * * * * * * * * * * * * * * * * * * * * * * * * * * * * * * * //

dimensions      [0 0 0 0 0 0 0];

internalField   nonuniform List<scalar> 
8000
(
0.000318326
0.00031745
0.000317444
0.000317441
0.000317432
0.000317435
0.000317431
0.000317434
0.000317431
0.000317433
0.000317432
0.000317433
0.000317432
0.000317433
0.000317432
0.000317433
0.000317432
0.000317433
0.000317432
0.000317433
0.000317432
0.000317433
0.000317432
0.000317432
0.000317432
0.000317432
0.000317432
0.000317432
0.000317433
0.000317432
0.000317433
0.000317432
0.000317433
0.000317432
0.000317433
0.000317432
0.000317433
0.000317432
0.000317433
0.000317432
0.000317433
0.000317431
0.000317434
0.000317431
0.000317435
0.000317432
0.000317441
0.000317444
0.00031745
0.000318326
0.000367549
0.00036664
0.000365943
0.000365629
0.000365552
0.000365501
0.000365509
0.000365492
0.000365505
0.000365496
0.000365505
0.000365498
0.000365504
0.0003655
0.000365504
0.000365501
0.000365504
0.000365502
0.000365503
0.000365502
0.000365503
0.000365502
0.000365503
0.000365503
0.000365503
0.000365503
0.000365503
0.000365503
0.000365502
0.000365503
0.000365502
0.000365503
0.000365502
0.000365504
0.000365501
0.000365504
0.0003655
0.000365504
0.000365498
0.000365505
0.000365496
0.000365505
0.000365492
0.000365509
0.000365501
0.000365552
0.000365629
0.000365943
0.00036664
0.000367549
0.000175682
0.000175263
0.000174903
0.000174737
0.00017469
0.000174665
0.000174666
0.00017466
0.000174665
0.000174661
0.000174665
0.000174662
0.000174665
0.000174663
0.000174665
0.000174664
0.000174665
0.000174664
0.000174665
0.000174664
0.000174664
0.000174664
0.000174664
0.000174664
0.000174664
0.000174664
0.000174664
0.000174664
0.000174664
0.000174664
0.000174664
0.000174665
0.000174664
0.000174665
0.000174664
0.000174665
0.000174663
0.000174665
0.000174662
0.000174665
0.000174661
0.000174665
0.00017466
0.000174666
0.000174665
0.00017469
0.000174737
0.000174903
0.000175263
0.000175681
8.09754e-05
8.08026e-05
8.06527e-05
8.05787e-05
8.05534e-05
8.05445e-05
8.05425e-05
8.05414e-05
8.0542e-05
8.05418e-05
8.05423e-05
8.05421e-05
8.05425e-05
8.05424e-05
8.05426e-05
8.05425e-05
8.05427e-05
8.05425e-05
8.05426e-05
8.05425e-05
8.05426e-05
8.05426e-05
8.05426e-05
8.05426e-05
8.05426e-05
8.05426e-05
8.05426e-05
8.05426e-05
8.05426e-05
8.05426e-05
8.05425e-05
8.05426e-05
8.05425e-05
8.05427e-05
8.05425e-05
8.05426e-05
8.05424e-05
8.05424e-05
8.05421e-05
8.05423e-05
8.05418e-05
8.0542e-05
8.05414e-05
8.05425e-05
8.05445e-05
8.05534e-05
8.05787e-05
8.06527e-05
8.08025e-05
8.09752e-05
3.87538e-05
3.86813e-05
3.86217e-05
3.85886e-05
3.85752e-05
3.85721e-05
3.857e-05
3.85704e-05
3.85699e-05
3.85704e-05
3.85701e-05
3.85705e-05
3.85703e-05
3.85705e-05
3.85704e-05
3.85705e-05
3.85705e-05
3.85705e-05
3.85705e-05
3.85705e-05
3.85705e-05
3.85705e-05
3.85705e-05
3.85705e-05
3.85705e-05
3.85705e-05
3.85705e-05
3.85705e-05
3.85705e-05
3.85705e-05
3.85705e-05
3.85705e-05
3.85705e-05
3.85704e-05
3.85705e-05
3.85704e-05
3.85705e-05
3.85703e-05
3.85705e-05
3.85701e-05
3.85704e-05
3.85698e-05
3.85704e-05
3.857e-05
3.85721e-05
3.85752e-05
3.85886e-05
3.86216e-05
3.86813e-05
3.87537e-05
1.97057e-05
1.96728e-05
1.96483e-05
1.96323e-05
1.9625e-05
1.96238e-05
1.96223e-05
1.96229e-05
1.96223e-05
1.96228e-05
1.96225e-05
1.96228e-05
1.96226e-05
1.96228e-05
1.96226e-05
1.96228e-05
1.96227e-05
1.96228e-05
1.96227e-05
1.96228e-05
1.96227e-05
1.96228e-05
1.96227e-05
1.96227e-05
1.96227e-05
1.96227e-05
1.96227e-05
1.96227e-05
1.96228e-05
1.96227e-05
1.96228e-05
1.96227e-05
1.96228e-05
1.96227e-05
1.96228e-05
1.96226e-05
1.96228e-05
1.96226e-05
1.96228e-05
1.96225e-05
1.96228e-05
1.96223e-05
1.96229e-05
1.96223e-05
1.96238e-05
1.9625e-05
1.96323e-05
1.96483e-05
1.96727e-05
1.97057e-05
1.07986e-05
1.07815e-05
1.07704e-05
1.07616e-05
1.07575e-05
1.07569e-05
1.07559e-05
1.07563e-05
1.07559e-05
1.07562e-05
1.0756e-05
1.07562e-05
1.07561e-05
1.07562e-05
1.07561e-05
1.07562e-05
1.07561e-05
1.07562e-05
1.07562e-05
1.07562e-05
1.07562e-05
1.07562e-05
1.07562e-05
1.07562e-05
1.07562e-05
1.07562e-05
1.07562e-05
1.07562e-05
1.07562e-05
1.07562e-05
1.07562e-05
1.07562e-05
1.07562e-05
1.07561e-05
1.07562e-05
1.07561e-05
1.07562e-05
1.07561e-05
1.07562e-05
1.0756e-05
1.07562e-05
1.07559e-05
1.07563e-05
1.07559e-05
1.07569e-05
1.07575e-05
1.07616e-05
1.07704e-05
1.07815e-05
1.07985e-05
6.43686e-06
6.42678e-06
6.42087e-06
6.41542e-06
6.41285e-06
6.41246e-06
6.41184e-06
6.41207e-06
6.4118e-06
6.41203e-06
6.41188e-06
6.41203e-06
6.41193e-06
6.41203e-06
6.41196e-06
6.41202e-06
6.41198e-06
6.41202e-06
6.41199e-06
6.41201e-06
6.41199e-06
6.41201e-06
6.412e-06
6.41201e-06
6.412e-06
6.412e-06
6.41201e-06
6.412e-06
6.41201e-06
6.41199e-06
6.41201e-06
6.41199e-06
6.41202e-06
6.41198e-06
6.41202e-06
6.41195e-06
6.41202e-06
6.41192e-06
6.41203e-06
6.41187e-06
6.41203e-06
6.4118e-06
6.41207e-06
6.41183e-06
6.41246e-06
6.41285e-06
6.41541e-06
6.42087e-06
6.42677e-06
6.43684e-06
4.17195e-06
4.16536e-06
4.16181e-06
4.15809e-06
4.15637e-06
4.15606e-06
4.15564e-06
4.15579e-06
4.1556e-06
4.15576e-06
4.15565e-06
4.15576e-06
4.15569e-06
4.15576e-06
4.15571e-06
4.15576e-06
4.15573e-06
4.15575e-06
4.15573e-06
4.15575e-06
4.15574e-06
4.15575e-06
4.15574e-06
4.15575e-06
4.15575e-06
4.15575e-06
4.15575e-06
4.15574e-06
4.15575e-06
4.15574e-06
4.15575e-06
4.15573e-06
4.15575e-06
4.15573e-06
4.15576e-06
4.15571e-06
4.15576e-06
4.15569e-06
4.15576e-06
4.15565e-06
4.15576e-06
4.1556e-06
4.15579e-06
4.15563e-06
4.15606e-06
4.15637e-06
4.15809e-06
4.16181e-06
4.16536e-06
4.17194e-06
2.92382e-06
2.91934e-06
2.91722e-06
2.91459e-06
2.91333e-06
2.9131e-06
2.91277e-06
2.91289e-06
2.91274e-06
2.91286e-06
2.91278e-06
2.91286e-06
2.91281e-06
2.91286e-06
2.91282e-06
2.91286e-06
2.91284e-06
2.91286e-06
2.91284e-06
2.91286e-06
2.91285e-06
2.91286e-06
2.91285e-06
2.91285e-06
2.91285e-06
2.91285e-06
2.91285e-06
2.91285e-06
2.91286e-06
2.91285e-06
2.91286e-06
2.91284e-06
2.91286e-06
2.91284e-06
2.91286e-06
2.91282e-06
2.91286e-06
2.91281e-06
2.91286e-06
2.91278e-06
2.91286e-06
2.91274e-06
2.91289e-06
2.91277e-06
2.9131e-06
2.91333e-06
2.91458e-06
2.91722e-06
2.91934e-06
2.92382e-06
2.18264e-06
2.17965e-06
2.1786e-06
2.17673e-06
2.17575e-06
2.17561e-06
2.17531e-06
2.17543e-06
2.17529e-06
2.1754e-06
2.17532e-06
2.1754e-06
2.17535e-06
2.1754e-06
2.17536e-06
2.1754e-06
2.17537e-06
2.17539e-06
2.17538e-06
2.17539e-06
2.17538e-06
2.17539e-06
2.17539e-06
2.17539e-06
2.17539e-06
2.17539e-06
2.17539e-06
2.17539e-06
2.17539e-06
2.17538e-06
2.17539e-06
2.17538e-06
2.17539e-06
2.17537e-06
2.1754e-06
2.17536e-06
2.1754e-06
2.17535e-06
2.1754e-06
2.17532e-06
2.1754e-06
2.17529e-06
2.17543e-06
2.17531e-06
2.17561e-06
2.17575e-06
2.17673e-06
2.1786e-06
2.17964e-06
2.18264e-06
1.69242e-06
1.69036e-06
1.68979e-06
1.68841e-06
1.68761e-06
1.68751e-06
1.68725e-06
1.68736e-06
1.68723e-06
1.68733e-06
1.68726e-06
1.68733e-06
1.68728e-06
1.68733e-06
1.6873e-06
1.68733e-06
1.68731e-06
1.68733e-06
1.68731e-06
1.68732e-06
1.68731e-06
1.68732e-06
1.68732e-06
1.68732e-06
1.68732e-06
1.68732e-06
1.68732e-06
1.68732e-06
1.68732e-06
1.68731e-06
1.68732e-06
1.68731e-06
1.68733e-06
1.68731e-06
1.68733e-06
1.6873e-06
1.68733e-06
1.68728e-06
1.68733e-06
1.68726e-06
1.68733e-06
1.68723e-06
1.68736e-06
1.68725e-06
1.68751e-06
1.68761e-06
1.68841e-06
1.68979e-06
1.69036e-06
1.69242e-06
1.37118e-06
1.37002e-06
1.37014e-06
1.36921e-06
1.36853e-06
1.3685e-06
1.36824e-06
1.36836e-06
1.36822e-06
1.36833e-06
1.36825e-06
1.36832e-06
1.36827e-06
1.36832e-06
1.36828e-06
1.36832e-06
1.36829e-06
1.36832e-06
1.3683e-06
1.36831e-06
1.3683e-06
1.36831e-06
1.36831e-06
1.36831e-06
1.36831e-06
1.36831e-06
1.36831e-06
1.36831e-06
1.36831e-06
1.3683e-06
1.36831e-06
1.3683e-06
1.36832e-06
1.36829e-06
1.36832e-06
1.36828e-06
1.36832e-06
1.36827e-06
1.36832e-06
1.36825e-06
1.36833e-06
1.36822e-06
1.36836e-06
1.36824e-06
1.3685e-06
1.36853e-06
1.36921e-06
1.37014e-06
1.37001e-06
1.37118e-06
1.14094e-06
1.13952e-06
1.13934e-06
1.13852e-06
1.13806e-06
1.138e-06
1.13784e-06
1.13791e-06
1.13782e-06
1.13789e-06
1.13784e-06
1.13788e-06
1.13785e-06
1.13788e-06
1.13786e-06
1.13788e-06
1.13787e-06
1.13788e-06
1.13787e-06
1.13788e-06
1.13787e-06
1.13788e-06
1.13787e-06
1.13788e-06
1.13788e-06
1.13788e-06
1.13788e-06
1.13787e-06
1.13788e-06
1.13787e-06
1.13788e-06
1.13787e-06
1.13788e-06
1.13787e-06
1.13788e-06
1.13786e-06
1.13788e-06
1.13785e-06
1.13788e-06
1.13784e-06
1.13789e-06
1.13782e-06
1.13791e-06
1.13784e-06
1.138e-06
1.13806e-06
1.13852e-06
1.13934e-06
1.13952e-06
1.14094e-06
9.65747e-07
9.64747e-07
9.64765e-07
9.64149e-07
9.63767e-07
9.63727e-07
9.63574e-07
9.63641e-07
9.63559e-07
9.63623e-07
9.63575e-07
9.63619e-07
9.63588e-07
9.63616e-07
9.63596e-07
9.63616e-07
9.63601e-07
9.63614e-07
9.63605e-07
9.63613e-07
9.63607e-07
9.63612e-07
9.63609e-07
9.63611e-07
9.6361e-07
9.6361e-07
9.63611e-07
9.63609e-07
9.63612e-07
9.63607e-07
9.63613e-07
9.63605e-07
9.63614e-07
9.63601e-07
9.63616e-07
9.63596e-07
9.63617e-07
9.63588e-07
9.63619e-07
9.63575e-07
9.63623e-07
9.63559e-07
9.63641e-07
9.63574e-07
9.63727e-07
9.63767e-07
9.64149e-07
9.64765e-07
9.64747e-07
9.65747e-07
8.37955e-07
8.37307e-07
8.37525e-07
8.37084e-07
8.36761e-07
8.36744e-07
8.36598e-07
8.36666e-07
8.36585e-07
8.36648e-07
8.366e-07
8.36643e-07
8.36612e-07
8.3664e-07
8.3662e-07
8.36639e-07
8.36625e-07
8.36638e-07
8.36628e-07
8.36636e-07
8.36631e-07
8.36635e-07
8.36632e-07
8.36634e-07
8.36633e-07
8.36633e-07
8.36635e-07
8.36632e-07
8.36635e-07
8.36631e-07
8.36636e-07
8.36628e-07
8.36638e-07
8.36625e-07
8.36639e-07
8.3662e-07
8.3664e-07
8.36612e-07
8.36643e-07
8.366e-07
8.36648e-07
8.36585e-07
8.36666e-07
8.36598e-07
8.36744e-07
8.36761e-07
8.37084e-07
8.37525e-07
8.37307e-07
8.37955e-07
7.36105e-07
7.35867e-07
7.36375e-07
7.36178e-07
7.35946e-07
7.35965e-07
7.35826e-07
7.35897e-07
7.35813e-07
7.35874e-07
7.35825e-07
7.35867e-07
7.35835e-07
7.35862e-07
7.35841e-07
7.3586e-07
7.35845e-07
7.35859e-07
7.35849e-07
7.35857e-07
7.35851e-07
7.35856e-07
7.35853e-07
7.35855e-07
7.35854e-07
7.35854e-07
7.35855e-07
7.35853e-07
7.35856e-07
7.35851e-07
7.35857e-07
7.35849e-07
7.35859e-07
7.35845e-07
7.35861e-07
7.35841e-07
7.35863e-07
7.35835e-07
7.35867e-07
7.35825e-07
7.35874e-07
7.35813e-07
7.35897e-07
7.35826e-07
7.35965e-07
7.35946e-07
7.36179e-07
7.36375e-07
7.35867e-07
7.36105e-07
6.59103e-07
6.59051e-07
6.59603e-07
6.59491e-07
6.59301e-07
6.59327e-07
6.592e-07
6.59266e-07
6.59188e-07
6.59244e-07
6.59198e-07
6.59237e-07
6.59207e-07
6.59233e-07
6.59213e-07
6.59231e-07
6.59217e-07
6.59229e-07
6.5922e-07
6.59228e-07
6.59222e-07
6.59227e-07
6.59223e-07
6.59226e-07
6.59225e-07
6.59225e-07
6.59226e-07
6.59223e-07
6.59227e-07
6.59222e-07
6.59228e-07
6.5922e-07
6.59229e-07
6.59217e-07
6.59231e-07
6.59213e-07
6.59233e-07
6.59207e-07
6.59237e-07
6.59198e-07
6.59244e-07
6.59188e-07
6.59266e-07
6.592e-07
6.59327e-07
6.59301e-07
6.59491e-07
6.59603e-07
6.59051e-07
6.59103e-07
5.95993e-07
5.96226e-07
5.96964e-07
5.96996e-07
5.96832e-07
5.9688e-07
5.96746e-07
5.96819e-07
5.96735e-07
5.96796e-07
5.96746e-07
5.96788e-07
5.96755e-07
5.96783e-07
5.96762e-07
5.96781e-07
5.96765e-07
5.96779e-07
5.96769e-07
5.96778e-07
5.96771e-07
5.96776e-07
5.96773e-07
5.96775e-07
5.96774e-07
5.96774e-07
5.96775e-07
5.96773e-07
5.96776e-07
5.96771e-07
5.96778e-07
5.96769e-07
5.96779e-07
5.96765e-07
5.96781e-07
5.96762e-07
5.96783e-07
5.96755e-07
5.96788e-07
5.96746e-07
5.96796e-07
5.96735e-07
5.96819e-07
5.96746e-07
5.9688e-07
5.96831e-07
5.96996e-07
5.96964e-07
5.96226e-07
5.95993e-07
5.45493e-07
5.45829e-07
5.46506e-07
5.46565e-07
5.46427e-07
5.46472e-07
5.46353e-07
5.46417e-07
5.46342e-07
5.46396e-07
5.46351e-07
5.46389e-07
5.4636e-07
5.46384e-07
5.46365e-07
5.46383e-07
5.46369e-07
5.46381e-07
5.46372e-07
5.4638e-07
5.46374e-07
5.46379e-07
5.46375e-07
5.46378e-07
5.46377e-07
5.46377e-07
5.46378e-07
5.46375e-07
5.46379e-07
5.46374e-07
5.4638e-07
5.46372e-07
5.46381e-07
5.46369e-07
5.46383e-07
5.46365e-07
5.46385e-07
5.4636e-07
5.46389e-07
5.46351e-07
5.46396e-07
5.46342e-07
5.46417e-07
5.46353e-07
5.46471e-07
5.46427e-07
5.46565e-07
5.46506e-07
5.45829e-07
5.45493e-07
5.06236e-07
5.06695e-07
5.07349e-07
5.07439e-07
5.07325e-07
5.07369e-07
5.0726e-07
5.07319e-07
5.0725e-07
5.07299e-07
5.07258e-07
5.07293e-07
5.07266e-07
5.07289e-07
5.07271e-07
5.07287e-07
5.07274e-07
5.07285e-07
5.07277e-07
5.07284e-07
5.07279e-07
5.07283e-07
5.0728e-07
5.07282e-07
5.07281e-07
5.07281e-07
5.07282e-07
5.0728e-07
5.07283e-07
5.07279e-07
5.07284e-07
5.07277e-07
5.07285e-07
5.07274e-07
5.07287e-07
5.07271e-07
5.07289e-07
5.07266e-07
5.07292e-07
5.07258e-07
5.07299e-07
5.0725e-07
5.07319e-07
5.0726e-07
5.07369e-07
5.07325e-07
5.07439e-07
5.07349e-07
5.06695e-07
5.06236e-07
4.74345e-07
4.74935e-07
4.75564e-07
4.75676e-07
4.7558e-07
4.75624e-07
4.75523e-07
4.75577e-07
4.75513e-07
4.75559e-07
4.75521e-07
4.75552e-07
4.75528e-07
4.75549e-07
4.75533e-07
4.75547e-07
4.75536e-07
4.75546e-07
4.75539e-07
4.75545e-07
4.7554e-07
4.75544e-07
4.75541e-07
4.75543e-07
4.75542e-07
4.75542e-07
4.75543e-07
4.75541e-07
4.75544e-07
4.7554e-07
4.75545e-07
4.75539e-07
4.75546e-07
4.75536e-07
4.75547e-07
4.75533e-07
4.75549e-07
4.75528e-07
4.75552e-07
4.75521e-07
4.75559e-07
4.75513e-07
4.75577e-07
4.75523e-07
4.75624e-07
4.7558e-07
4.75676e-07
4.75564e-07
4.74935e-07
4.74345e-07
4.48258e-07
4.48225e-07
4.48734e-07
4.48838e-07
4.48775e-07
4.48814e-07
4.48732e-07
4.48775e-07
4.4872e-07
4.48756e-07
4.48724e-07
4.4875e-07
4.48729e-07
4.48746e-07
4.48732e-07
4.48744e-07
4.48734e-07
4.48743e-07
4.48737e-07
4.48742e-07
4.48738e-07
4.48741e-07
4.48739e-07
4.4874e-07
4.4874e-07
4.4874e-07
4.4874e-07
4.48739e-07
4.48741e-07
4.48738e-07
4.48742e-07
4.48737e-07
4.48743e-07
4.48734e-07
4.48744e-07
4.48732e-07
4.48746e-07
4.48729e-07
4.4875e-07
4.48725e-07
4.48756e-07
4.4872e-07
4.48775e-07
4.48732e-07
4.48814e-07
4.48775e-07
4.48838e-07
4.48734e-07
4.48225e-07
4.48258e-07
4.26784e-07
4.26829e-07
4.27307e-07
4.27422e-07
4.27371e-07
4.27409e-07
4.27333e-07
4.27372e-07
4.27322e-07
4.27355e-07
4.27326e-07
4.27349e-07
4.2733e-07
4.27345e-07
4.27333e-07
4.27344e-07
4.27335e-07
4.27342e-07
4.27337e-07
4.27342e-07
4.27338e-07
4.27341e-07
4.27339e-07
4.2734e-07
4.27339e-07
4.27339e-07
4.2734e-07
4.27339e-07
4.27341e-07
4.27338e-07
4.27342e-07
4.27337e-07
4.27342e-07
4.27335e-07
4.27344e-07
4.27333e-07
4.27345e-07
4.2733e-07
4.27349e-07
4.27326e-07
4.27355e-07
4.27322e-07
4.27372e-07
4.27333e-07
4.27409e-07
4.27371e-07
4.27422e-07
4.27307e-07
4.26829e-07
4.26784e-07
4.08306e-07
4.08427e-07
4.08909e-07
4.09054e-07
4.09022e-07
4.09062e-07
4.08991e-07
4.09028e-07
4.0898e-07
4.0901e-07
4.08982e-07
4.09004e-07
4.08986e-07
4.09e-07
4.08988e-07
4.08998e-07
4.0899e-07
4.08997e-07
4.08992e-07
4.08996e-07
4.08993e-07
4.08996e-07
4.08994e-07
4.08995e-07
4.08994e-07
4.08994e-07
4.08995e-07
4.08994e-07
4.08996e-07
4.08993e-07
4.08996e-07
4.08992e-07
4.08997e-07
4.0899e-07
4.08998e-07
4.08988e-07
4.09e-07
4.08986e-07
4.09003e-07
4.08982e-07
4.0901e-07
4.0898e-07
4.09028e-07
4.08991e-07
4.09062e-07
4.09021e-07
4.09054e-07
4.08909e-07
4.08427e-07
4.08306e-07
3.92851e-07
3.93014e-07
3.93457e-07
3.93602e-07
3.93578e-07
3.93616e-07
3.93551e-07
3.93584e-07
3.9354e-07
3.93567e-07
3.93542e-07
3.93561e-07
3.93545e-07
3.93558e-07
3.93547e-07
3.93557e-07
3.93549e-07
3.93556e-07
3.93551e-07
3.93555e-07
3.93552e-07
3.93554e-07
3.93552e-07
3.93554e-07
3.93553e-07
3.93553e-07
3.93554e-07
3.93552e-07
3.93554e-07
3.93552e-07
3.93555e-07
3.93551e-07
3.93556e-07
3.93549e-07
3.93557e-07
3.93547e-07
3.93558e-07
3.93545e-07
3.93561e-07
3.93542e-07
3.93567e-07
3.9354e-07
3.93584e-07
3.93551e-07
3.93616e-07
3.93578e-07
3.93602e-07
3.93457e-07
3.93014e-07
3.92851e-07
3.79822e-07
3.80018e-07
3.80428e-07
3.80573e-07
3.80556e-07
3.80592e-07
3.80533e-07
3.80562e-07
3.80522e-07
3.80546e-07
3.80523e-07
3.8054e-07
3.80526e-07
3.80537e-07
3.80528e-07
3.80536e-07
3.80529e-07
3.80535e-07
3.80531e-07
3.80535e-07
3.80532e-07
3.80534e-07
3.80533e-07
3.80534e-07
3.80533e-07
3.80533e-07
3.80534e-07
3.80533e-07
3.80534e-07
3.80532e-07
3.80535e-07
3.80531e-07
3.80535e-07
3.80529e-07
3.80536e-07
3.80528e-07
3.80538e-07
3.80526e-07
3.8054e-07
3.80523e-07
3.80546e-07
3.80522e-07
3.80562e-07
3.80533e-07
3.80592e-07
3.80556e-07
3.80573e-07
3.80428e-07
3.80018e-07
3.79822e-07
3.68749e-07
3.68972e-07
3.69355e-07
3.69498e-07
3.69488e-07
3.69522e-07
3.69468e-07
3.69493e-07
3.69457e-07
3.69479e-07
3.69458e-07
3.69473e-07
3.6946e-07
3.69471e-07
3.69462e-07
3.6947e-07
3.69463e-07
3.69469e-07
3.69465e-07
3.69468e-07
3.69466e-07
3.69468e-07
3.69466e-07
3.69467e-07
3.69467e-07
3.69467e-07
3.69467e-07
3.69466e-07
3.69468e-07
3.69466e-07
3.69468e-07
3.69465e-07
3.69469e-07
3.69463e-07
3.6947e-07
3.69462e-07
3.69471e-07
3.6946e-07
3.69473e-07
3.69458e-07
3.69479e-07
3.69457e-07
3.69494e-07
3.69468e-07
3.69522e-07
3.69488e-07
3.69498e-07
3.69355e-07
3.68972e-07
3.68749e-07
3.5926e-07
3.59505e-07
3.59866e-07
3.60008e-07
3.60004e-07
3.60035e-07
3.59986e-07
3.60009e-07
3.59976e-07
3.59995e-07
3.59976e-07
3.5999e-07
3.59978e-07
3.59987e-07
3.59979e-07
3.59986e-07
3.59981e-07
3.59986e-07
3.59982e-07
3.59985e-07
3.59983e-07
3.59985e-07
3.59983e-07
3.59984e-07
3.59984e-07
3.59984e-07
3.59984e-07
3.59983e-07
3.59985e-07
3.59983e-07
3.59985e-07
3.59982e-07
3.59986e-07
3.59981e-07
3.59986e-07
3.59979e-07
3.59987e-07
3.59978e-07
3.5999e-07
3.59976e-07
3.59995e-07
3.59975e-07
3.60009e-07
3.59986e-07
3.60035e-07
3.60004e-07
3.60008e-07
3.59866e-07
3.59505e-07
3.5926e-07
3.51061e-07
3.51324e-07
3.51667e-07
3.51807e-07
3.51808e-07
3.51838e-07
3.51792e-07
3.51813e-07
3.51782e-07
3.518e-07
3.51782e-07
3.51795e-07
3.51784e-07
3.51793e-07
3.51785e-07
3.51792e-07
3.51786e-07
3.51791e-07
3.51788e-07
3.51791e-07
3.51789e-07
3.5179e-07
3.51789e-07
3.5179e-07
3.51789e-07
3.51789e-07
3.5179e-07
3.51789e-07
3.5179e-07
3.51789e-07
3.51791e-07
3.51788e-07
3.51791e-07
3.51786e-07
3.51792e-07
3.51785e-07
3.51793e-07
3.51784e-07
3.51795e-07
3.51782e-07
3.518e-07
3.51782e-07
3.51813e-07
3.51792e-07
3.51838e-07
3.51808e-07
3.51807e-07
3.51667e-07
3.51324e-07
3.51061e-07
3.43915e-07
3.44193e-07
3.44521e-07
3.4466e-07
3.44665e-07
3.44695e-07
3.44652e-07
3.44671e-07
3.44642e-07
3.44658e-07
3.44642e-07
3.44653e-07
3.44643e-07
3.44651e-07
3.44645e-07
3.4465e-07
3.44646e-07
3.4465e-07
3.44647e-07
3.4465e-07
3.44648e-07
3.44649e-07
3.44648e-07
3.44649e-07
3.44649e-07
3.44649e-07
3.44649e-07
3.44648e-07
3.44649e-07
3.44648e-07
3.4465e-07
3.44647e-07
3.4465e-07
3.44646e-07
3.4465e-07
3.44645e-07
3.44651e-07
3.44643e-07
3.44653e-07
3.44642e-07
3.44658e-07
3.44642e-07
3.44671e-07
3.44652e-07
3.44695e-07
3.44665e-07
3.4466e-07
3.44521e-07
3.44193e-07
3.43915e-07
3.37634e-07
3.37925e-07
3.38241e-07
3.38379e-07
3.38387e-07
3.38416e-07
3.38377e-07
3.38394e-07
3.38367e-07
3.38381e-07
3.38366e-07
3.38377e-07
3.38367e-07
3.38375e-07
3.38369e-07
3.38374e-07
3.3837e-07
3.38374e-07
3.38371e-07
3.38373e-07
3.38372e-07
3.38373e-07
3.38372e-07
3.38373e-07
3.38372e-07
3.38372e-07
3.38373e-07
3.38372e-07
3.38373e-07
3.38372e-07
3.38373e-07
3.38371e-07
3.38374e-07
3.3837e-07
3.38374e-07
3.38369e-07
3.38375e-07
3.38367e-07
3.38377e-07
3.38366e-07
3.38381e-07
3.38367e-07
3.38394e-07
3.38377e-07
3.38416e-07
3.38387e-07
3.38379e-07
3.38241e-07
3.37925e-07
3.37634e-07
3.32066e-07
3.32367e-07
3.32674e-07
3.32811e-07
3.32823e-07
3.32851e-07
3.32814e-07
3.3283e-07
3.32805e-07
3.32818e-07
3.32804e-07
3.32814e-07
3.32805e-07
3.32812e-07
3.32806e-07
3.32811e-07
3.32807e-07
3.32811e-07
3.32808e-07
3.3281e-07
3.32809e-07
3.3281e-07
3.32809e-07
3.3281e-07
3.3281e-07
3.3281e-07
3.3281e-07
3.32809e-07
3.3281e-07
3.32809e-07
3.32811e-07
3.32808e-07
3.32811e-07
3.32807e-07
3.32811e-07
3.32806e-07
3.32812e-07
3.32805e-07
3.32814e-07
3.32804e-07
3.32818e-07
3.32805e-07
3.3283e-07
3.32814e-07
3.32851e-07
3.32823e-07
3.32811e-07
3.32674e-07
3.32367e-07
3.32066e-07
3.2709e-07
3.27399e-07
3.27698e-07
3.27834e-07
3.2785e-07
3.27878e-07
3.27843e-07
3.27857e-07
3.27833e-07
3.27845e-07
3.27832e-07
3.27841e-07
3.27833e-07
3.2784e-07
3.27834e-07
3.27839e-07
3.27835e-07
3.27839e-07
3.27836e-07
3.27838e-07
3.27837e-07
3.27838e-07
3.27837e-07
3.27838e-07
3.27838e-07
3.27838e-07
3.27838e-07
3.27837e-07
3.27838e-07
3.27837e-07
3.27838e-07
3.27836e-07
3.27839e-07
3.27835e-07
3.27839e-07
3.27834e-07
3.2784e-07
3.27833e-07
3.27841e-07
3.27832e-07
3.27845e-07
3.27833e-07
3.27857e-07
3.27843e-07
3.27877e-07
3.2785e-07
3.27834e-07
3.27698e-07
3.27399e-07
3.2709e-07
3.22605e-07
3.22922e-07
3.23215e-07
3.2335e-07
3.23368e-07
3.23396e-07
3.23363e-07
3.23376e-07
3.23354e-07
3.23365e-07
3.23353e-07
3.23361e-07
3.23353e-07
3.23359e-07
3.23354e-07
3.23359e-07
3.23355e-07
3.23359e-07
3.23356e-07
3.23358e-07
3.23357e-07
3.23358e-07
3.23357e-07
3.23358e-07
3.23358e-07
3.23358e-07
3.23358e-07
3.23357e-07
3.23358e-07
3.23357e-07
3.23358e-07
3.23356e-07
3.23359e-07
3.23355e-07
3.23359e-07
3.23354e-07
3.23359e-07
3.23353e-07
3.23361e-07
3.23353e-07
3.23365e-07
3.23354e-07
3.23376e-07
3.23363e-07
3.23396e-07
3.23368e-07
3.2335e-07
3.23215e-07
3.22922e-07
3.22605e-07
3.18533e-07
3.18855e-07
3.19144e-07
3.19278e-07
3.19299e-07
3.19326e-07
3.19295e-07
3.19308e-07
3.19286e-07
3.19297e-07
3.19285e-07
3.19293e-07
3.19285e-07
3.19291e-07
3.19286e-07
3.19291e-07
3.19287e-07
3.19291e-07
3.19288e-07
3.1929e-07
3.19289e-07
3.1929e-07
3.19289e-07
3.1929e-07
3.1929e-07
3.1929e-07
3.1929e-07
3.19289e-07
3.1929e-07
3.19289e-07
3.1929e-07
3.19288e-07
3.19291e-07
3.19287e-07
3.19291e-07
3.19286e-07
3.19291e-07
3.19285e-07
3.19293e-07
3.19285e-07
3.19297e-07
3.19286e-07
3.19308e-07
3.19295e-07
3.19326e-07
3.19299e-07
3.19278e-07
3.19143e-07
3.18855e-07
3.18533e-07
3.14809e-07
3.15135e-07
3.15419e-07
3.15553e-07
3.15576e-07
3.15603e-07
3.15574e-07
3.15586e-07
3.15565e-07
3.15575e-07
3.15564e-07
3.15571e-07
3.15564e-07
3.1557e-07
3.15565e-07
3.15569e-07
3.15566e-07
3.15569e-07
3.15567e-07
3.15569e-07
3.15568e-07
3.15569e-07
3.15568e-07
3.15569e-07
3.15568e-07
3.15568e-07
3.15569e-07
3.15568e-07
3.15569e-07
3.15568e-07
3.15569e-07
3.15567e-07
3.15569e-07
3.15566e-07
3.15569e-07
3.15565e-07
3.1557e-07
3.15564e-07
3.15571e-07
3.15564e-07
3.15575e-07
3.15565e-07
3.15586e-07
3.15574e-07
3.15603e-07
3.15576e-07
3.15553e-07
3.15419e-07
3.15134e-07
3.14809e-07
3.11379e-07
3.11707e-07
3.11988e-07
3.12122e-07
3.12147e-07
3.12174e-07
3.12146e-07
3.12157e-07
3.12138e-07
3.12147e-07
3.12136e-07
3.12143e-07
3.12137e-07
3.12142e-07
3.12138e-07
3.12142e-07
3.12139e-07
3.12142e-07
3.1214e-07
3.12142e-07
3.1214e-07
3.12141e-07
3.12141e-07
3.12141e-07
3.12141e-07
3.12141e-07
3.12141e-07
3.12141e-07
3.12141e-07
3.1214e-07
3.12142e-07
3.1214e-07
3.12142e-07
3.12139e-07
3.12142e-07
3.12138e-07
3.12142e-07
3.12137e-07
3.12143e-07
3.12136e-07
3.12147e-07
3.12138e-07
3.12157e-07
3.12146e-07
3.12174e-07
3.12147e-07
3.12122e-07
3.11988e-07
3.11707e-07
3.11379e-07
3.08201e-07
3.08529e-07
3.08809e-07
3.08942e-07
3.08968e-07
3.08996e-07
3.08969e-07
3.0898e-07
3.08961e-07
3.0897e-07
3.0896e-07
3.08966e-07
3.0896e-07
3.08965e-07
3.08961e-07
3.08965e-07
3.08962e-07
3.08965e-07
3.08963e-07
3.08965e-07
3.08963e-07
3.08964e-07
3.08964e-07
3.08964e-07
3.08964e-07
3.08964e-07
3.08964e-07
3.08964e-07
3.08965e-07
3.08963e-07
3.08965e-07
3.08963e-07
3.08965e-07
3.08962e-07
3.08965e-07
3.08961e-07
3.08965e-07
3.0896e-07
3.08966e-07
3.0896e-07
3.0897e-07
3.08961e-07
3.0898e-07
3.08969e-07
3.08996e-07
3.08968e-07
3.08942e-07
3.08809e-07
3.08529e-07
3.08201e-07
3.05239e-07
3.05566e-07
3.05845e-07
3.05978e-07
3.06005e-07
3.06033e-07
3.06008e-07
3.06018e-07
3.06e-07
3.06008e-07
3.05998e-07
3.06005e-07
3.05999e-07
3.06004e-07
3.06e-07
3.06003e-07
3.06001e-07
3.06003e-07
3.06002e-07
3.06003e-07
3.06002e-07
3.06003e-07
3.06002e-07
3.06003e-07
3.06003e-07
3.06003e-07
3.06003e-07
3.06002e-07
3.06003e-07
3.06002e-07
3.06003e-07
3.06002e-07
3.06003e-07
3.06001e-07
3.06003e-07
3.06e-07
3.06004e-07
3.05999e-07
3.06005e-07
3.05998e-07
3.06008e-07
3.06e-07
3.06018e-07
3.06008e-07
3.06033e-07
3.06005e-07
3.05978e-07
3.05845e-07
3.05566e-07
3.05239e-07
3.02464e-07
3.02792e-07
3.03067e-07
3.032e-07
3.03229e-07
3.03256e-07
3.03233e-07
3.03242e-07
3.03225e-07
3.03233e-07
3.03224e-07
3.0323e-07
3.03224e-07
3.03229e-07
3.03225e-07
3.03228e-07
3.03226e-07
3.03228e-07
3.03227e-07
3.03228e-07
3.03227e-07
3.03228e-07
3.03228e-07
3.03228e-07
3.03228e-07
3.03228e-07
3.03228e-07
3.03228e-07
3.03228e-07
3.03227e-07
3.03228e-07
3.03227e-07
3.03228e-07
3.03226e-07
3.03228e-07
3.03225e-07
3.03229e-07
3.03224e-07
3.0323e-07
3.03224e-07
3.03233e-07
3.03225e-07
3.03242e-07
3.03233e-07
3.03256e-07
3.03229e-07
3.032e-07
3.03067e-07
3.02792e-07
3.02464e-07
2.99852e-07
3.00181e-07
3.00453e-07
3.00585e-07
3.00615e-07
3.00643e-07
3.0062e-07
3.0063e-07
3.00613e-07
3.00621e-07
3.00612e-07
3.00618e-07
3.00612e-07
3.00617e-07
3.00613e-07
3.00617e-07
3.00614e-07
3.00617e-07
3.00615e-07
3.00617e-07
3.00616e-07
3.00617e-07
3.00616e-07
3.00616e-07
3.00616e-07
3.00616e-07
3.00616e-07
3.00616e-07
3.00617e-07
3.00616e-07
3.00617e-07
3.00615e-07
3.00617e-07
3.00614e-07
3.00617e-07
3.00613e-07
3.00617e-07
3.00612e-07
3.00618e-07
3.00612e-07
3.00621e-07
3.00613e-07
3.0063e-07
3.0062e-07
3.00643e-07
3.00615e-07
3.00585e-07
3.00453e-07
3.00181e-07
2.99852e-07
2.97385e-07
2.97714e-07
2.97983e-07
2.98114e-07
2.98146e-07
2.98173e-07
2.98152e-07
2.98161e-07
2.98145e-07
2.98152e-07
2.98144e-07
2.9815e-07
2.98144e-07
2.98149e-07
2.98145e-07
2.98149e-07
2.98146e-07
2.98149e-07
2.98147e-07
2.98149e-07
2.98148e-07
2.98149e-07
2.98148e-07
2.98149e-07
2.98148e-07
2.98148e-07
2.98149e-07
2.98148e-07
2.98149e-07
2.98148e-07
2.98149e-07
2.98147e-07
2.98149e-07
2.98146e-07
2.98149e-07
2.98145e-07
2.98149e-07
2.98144e-07
2.9815e-07
2.98144e-07
2.98152e-07
2.98145e-07
2.98161e-07
2.98152e-07
2.98173e-07
2.98146e-07
2.98114e-07
2.97983e-07
2.97714e-07
2.97385e-07
2.95046e-07
2.95377e-07
2.95641e-07
2.95772e-07
2.95804e-07
2.95832e-07
2.95811e-07
2.9582e-07
2.95805e-07
2.95812e-07
2.95804e-07
2.95809e-07
2.95804e-07
2.95809e-07
2.95805e-07
2.95809e-07
2.95806e-07
2.95809e-07
2.95807e-07
2.95809e-07
2.95808e-07
2.95809e-07
2.95808e-07
2.95809e-07
2.95809e-07
2.95809e-07
2.95809e-07
2.95808e-07
2.95809e-07
2.95808e-07
2.95809e-07
2.95807e-07
2.95809e-07
2.95806e-07
2.95809e-07
2.95805e-07
2.95809e-07
2.95804e-07
2.95809e-07
2.95804e-07
2.95812e-07
2.95805e-07
2.9582e-07
2.95811e-07
2.95832e-07
2.95804e-07
2.95772e-07
2.95641e-07
2.95377e-07
2.95046e-07
2.92822e-07
2.93155e-07
2.93415e-07
2.93544e-07
2.93577e-07
2.93605e-07
2.93586e-07
2.93594e-07
2.9358e-07
2.93587e-07
2.93579e-07
2.93584e-07
2.9358e-07
2.93584e-07
2.93581e-07
2.93584e-07
2.93581e-07
2.93584e-07
2.93583e-07
2.93584e-07
2.93583e-07
2.93584e-07
2.93583e-07
2.93584e-07
2.93584e-07
2.93584e-07
2.93584e-07
2.93583e-07
2.93584e-07
2.93583e-07
2.93584e-07
2.93583e-07
2.93584e-07
2.93582e-07
2.93584e-07
2.93581e-07
2.93584e-07
2.9358e-07
2.93584e-07
2.93579e-07
2.93587e-07
2.9358e-07
2.93594e-07
2.93586e-07
2.93605e-07
2.93577e-07
2.93544e-07
2.93415e-07
2.93155e-07
2.92822e-07
2.90703e-07
2.91037e-07
2.91294e-07
2.91421e-07
2.91454e-07
2.91482e-07
2.91464e-07
2.91473e-07
2.91459e-07
2.91465e-07
2.91458e-07
2.91463e-07
2.91459e-07
2.91463e-07
2.9146e-07
2.91463e-07
2.91461e-07
2.91463e-07
2.91462e-07
2.91464e-07
2.91463e-07
2.91464e-07
2.91463e-07
2.91463e-07
2.91463e-07
2.91463e-07
2.91463e-07
2.91463e-07
2.91464e-07
2.91463e-07
2.91464e-07
2.91462e-07
2.91463e-07
2.91461e-07
2.91463e-07
2.9146e-07
2.91463e-07
2.91459e-07
2.91463e-07
2.91458e-07
2.91465e-07
2.91459e-07
2.91473e-07
2.91464e-07
2.91482e-07
2.91454e-07
2.91421e-07
2.91294e-07
2.91037e-07
2.90704e-07
2.88681e-07
2.89015e-07
2.89268e-07
2.89393e-07
2.89427e-07
2.89455e-07
2.89438e-07
2.89447e-07
2.89434e-07
2.8944e-07
2.89433e-07
2.89438e-07
2.89434e-07
2.89438e-07
2.89435e-07
2.89438e-07
2.89436e-07
2.89439e-07
2.89437e-07
2.89439e-07
2.89438e-07
2.89439e-07
2.89438e-07
2.89439e-07
2.89438e-07
2.89438e-07
2.89439e-07
2.89438e-07
2.89439e-07
2.89438e-07
2.89439e-07
2.89437e-07
2.89439e-07
2.89436e-07
2.89438e-07
2.89435e-07
2.89438e-07
2.89434e-07
2.89438e-07
2.89433e-07
2.8944e-07
2.89434e-07
2.89447e-07
2.89438e-07
2.89455e-07
2.89427e-07
2.89393e-07
2.89268e-07
2.89015e-07
2.88681e-07
2.86748e-07
2.87082e-07
2.8733e-07
2.87453e-07
2.87488e-07
2.87516e-07
2.87501e-07
2.87509e-07
2.87497e-07
2.87503e-07
2.87496e-07
2.87501e-07
2.87497e-07
2.87501e-07
2.87499e-07
2.87502e-07
2.875e-07
2.87502e-07
2.87501e-07
2.87502e-07
2.87501e-07
2.87502e-07
2.87502e-07
2.87502e-07
2.87502e-07
2.87502e-07
2.87502e-07
2.87502e-07
2.87502e-07
2.87501e-07
2.87502e-07
2.87501e-07
2.87502e-07
2.875e-07
2.87502e-07
2.87499e-07
2.87501e-07
2.87497e-07
2.87501e-07
2.87496e-07
2.87503e-07
2.87497e-07
2.87509e-07
2.87501e-07
2.87516e-07
2.87488e-07
2.87453e-07
2.8733e-07
2.87082e-07
2.86748e-07
2.84897e-07
2.85232e-07
2.85475e-07
2.85597e-07
2.85631e-07
2.8566e-07
2.85645e-07
2.85654e-07
2.85642e-07
2.85648e-07
2.85642e-07
2.85647e-07
2.85643e-07
2.85647e-07
2.85645e-07
2.85648e-07
2.85646e-07
2.85648e-07
2.85647e-07
2.85648e-07
2.85648e-07
2.85648e-07
2.85648e-07
2.85648e-07
2.85648e-07
2.85648e-07
2.85648e-07
2.85648e-07
2.85648e-07
2.85648e-07
2.85648e-07
2.85647e-07
2.85648e-07
2.85646e-07
2.85648e-07
2.85645e-07
2.85647e-07
2.85643e-07
2.85647e-07
2.85642e-07
2.85648e-07
2.85642e-07
2.85654e-07
2.85645e-07
2.8566e-07
2.85631e-07
2.85597e-07