/*--------------------------------*- C++ -*----------------------------------*\
| =========                 |                                                 |
| \\      /  F ield         | OpenFOAM: The Open Source CFD Toolbox           |
|  \\    /   O peration     | Version:  dev                                   |
|   \\  /    A nd           | Web:      www.OpenFOAM.org                      |
|    \\/     M anipulation  |                                                 |
\*---------------------------------------------------------------------------*/
FoamFile
{
    version     2.0;
    format      ascii;
    class       volScalarField;
    location    "0.1";
    object      C4H6;
}
// * * * * * * * * * * * * * * * * * * * * * * * * * * * * * * * * * * * * * //

dimensions      [0 0 0 0 0 0 0];

internalField   nonuniform List<scalar> 
8000
(
8.87775e-05
8.87598e-05
8.87214e-05
8.87041e-05
8.86927e-05
8.8693e-05
8.86898e-05
8.86916e-05
8.86899e-05
8.86914e-05
8.86903e-05
8.86913e-05
8.86905e-05
8.86912e-05
8.86907e-05
8.86911e-05
8.86908e-05
8.86911e-05
8.86908e-05
8.8691e-05
8.86909e-05
8.8691e-05
8.86909e-05
8.8691e-05
8.86909e-05
8.86909e-05
8.8691e-05
8.86909e-05
8.8691e-05
8.86909e-05
8.8691e-05
8.86908e-05
8.86911e-05
8.86908e-05
8.86911e-05
8.86907e-05
8.86912e-05
8.86905e-05
8.86913e-05
8.86903e-05
8.86914e-05
8.86899e-05
8.86916e-05
8.86898e-05
8.8693e-05
8.86927e-05
8.87041e-05
8.87214e-05
8.87598e-05
8.87775e-05
0.000171675
0.000171587
0.00017144
0.000171374
0.000171344
0.00017134
0.000171334
0.000171336
0.000171334
0.000171336
0.000171335
0.000171336
0.000171335
0.000171336
0.000171335
0.000171336
0.000171336
0.000171336
0.000171336
0.000171336
0.000171336
0.000171336
0.000171336
0.000171336
0.000171336
0.000171336
0.000171336
0.000171336
0.000171336
0.000171336
0.000171336
0.000171336
0.000171336
0.000171336
0.000171336
0.000171335
0.000171336
0.000171335
0.000171336
0.000171335
0.000171336
0.000171334
0.000171336
0.000171334
0.00017134
0.000171344
0.000171374
0.00017144
0.000171587
0.000171675
8.22174e-05
8.21355e-05
8.20163e-05
8.19609e-05
8.19379e-05
8.1933e-05
8.19296e-05
8.19302e-05
8.19294e-05
8.19303e-05
8.19298e-05
8.19304e-05
8.19301e-05
8.19305e-05
8.19303e-05
8.19305e-05
8.19304e-05
8.19305e-05
8.19304e-05
8.19304e-05
8.19304e-05
8.19304e-05
8.19304e-05
8.19304e-05
8.19304e-05
8.19304e-05
8.19304e-05
8.19304e-05
8.19304e-05
8.19304e-05
8.19304e-05
8.19304e-05
8.19305e-05
8.19304e-05
8.19305e-05
8.19302e-05
8.19305e-05
8.19301e-05
8.19304e-05
8.19298e-05
8.19303e-05
8.19294e-05
8.19303e-05
8.19296e-05
8.19331e-05
8.1938e-05
8.19609e-05
8.20163e-05
8.21355e-05
8.22174e-05
3.41166e-05
3.40912e-05
3.40515e-05
3.40309e-05
3.40191e-05
3.40188e-05
3.40157e-05
3.40173e-05
3.40158e-05
3.40171e-05
3.40162e-05
3.4017e-05
3.40164e-05
3.40169e-05
3.40165e-05
3.40169e-05
3.40166e-05
3.40168e-05
3.40166e-05
3.40167e-05
3.40166e-05
3.40167e-05
3.40167e-05
3.40167e-05
3.40167e-05
3.40167e-05
3.40167e-05
3.40167e-05
3.40167e-05
3.40166e-05
3.40167e-05
3.40166e-05
3.40168e-05
3.40166e-05
3.40168e-05
3.40165e-05
3.40169e-05
3.40163e-05
3.4017e-05
3.40161e-05
3.4017e-05
3.40158e-05
3.40172e-05
3.40157e-05
3.40187e-05
3.40191e-05
3.40309e-05
3.40514e-05
3.40912e-05
3.41164e-05
1.42214e-05
1.42178e-05
1.42101e-05
1.42043e-05
1.41986e-05
1.41996e-05
1.41974e-05
1.41988e-05
1.41976e-05
1.41986e-05
1.41978e-05
1.41985e-05
1.41979e-05
1.41984e-05
1.4198e-05
1.41983e-05
1.41981e-05
1.41983e-05
1.41981e-05
1.41982e-05
1.41981e-05
1.41982e-05
1.41982e-05
1.41982e-05
1.41982e-05
1.41982e-05
1.41982e-05
1.41982e-05
1.41982e-05
1.41981e-05
1.41982e-05
1.41981e-05
1.41983e-05
1.41981e-05
1.41983e-05
1.4198e-05
1.41984e-05
1.41979e-05
1.41985e-05
1.41978e-05
1.41986e-05
1.41976e-05
1.41988e-05
1.41974e-05
1.41996e-05
1.41986e-05
1.42042e-05
1.42101e-05
1.42177e-05
1.42212e-05
6.04465e-06
6.04651e-06
6.04801e-06
6.04698e-06
6.0443e-06
6.04523e-06
6.04393e-06
6.04485e-06
6.04403e-06
6.0447e-06
6.04416e-06
6.04461e-06
6.04424e-06
6.04454e-06
6.0443e-06
6.0445e-06
6.04433e-06
6.04447e-06
6.04436e-06
6.04444e-06
6.04437e-06
6.04442e-06
6.04438e-06
6.04441e-06
6.04439e-06
6.04439e-06
6.04441e-06
6.04438e-06
6.04442e-06
6.04437e-06
6.04444e-06
6.04435e-06
6.04446e-06
6.04432e-06
6.0445e-06
6.04429e-06
6.04453e-06
6.04424e-06
6.0446e-06
6.04415e-06
6.04469e-06
6.04402e-06
6.04484e-06
6.04392e-06
6.04522e-06
6.04429e-06
6.04697e-06
6.04799e-06
6.04649e-06
6.04455e-06
2.60975e-06
2.61206e-06
2.61503e-06
2.61528e-06
2.61402e-06
2.61466e-06
2.61392e-06
2.61447e-06
2.61398e-06
2.61438e-06
2.61405e-06
2.61432e-06
2.6141e-06
2.61428e-06
2.61413e-06
2.61425e-06
2.61415e-06
2.61423e-06
2.61417e-06
2.61422e-06
2.61418e-06
2.6142e-06
2.61418e-06
2.61419e-06
2.61419e-06
2.61419e-06
2.61419e-06
2.61418e-06
2.6142e-06
2.61417e-06
2.61421e-06
2.61416e-06
2.61423e-06
2.61414e-06
2.61425e-06
2.61413e-06
2.61427e-06
2.6141e-06
2.61432e-06
2.61405e-06
2.61437e-06
2.61397e-06
2.61446e-06
2.61391e-06
2.61466e-06
2.61402e-06
2.61527e-06
2.61502e-06
2.61206e-06
2.60969e-06
1.14327e-06
1.14494e-06
1.14732e-06
1.14775e-06
1.14717e-06
1.14755e-06
1.14715e-06
1.14746e-06
1.14718e-06
1.1474e-06
1.14722e-06
1.14737e-06
1.14725e-06
1.14734e-06
1.14726e-06
1.14733e-06
1.14727e-06
1.14732e-06
1.14728e-06
1.14731e-06
1.14729e-06
1.1473e-06
1.14729e-06
1.1473e-06
1.14729e-06
1.14729e-06
1.1473e-06
1.14729e-06
1.1473e-06
1.14729e-06
1.14731e-06
1.14728e-06
1.14732e-06
1.14727e-06
1.14733e-06
1.14726e-06
1.14734e-06
1.14724e-06
1.14737e-06
1.14722e-06
1.1474e-06
1.14718e-06
1.14745e-06
1.14715e-06
1.14755e-06
1.14716e-06
1.14774e-06
1.14732e-06
1.14494e-06
1.14324e-06
5.0746e-07
5.08469e-07
5.10004e-07
5.10332e-07
5.10065e-07
5.10279e-07
5.10069e-07
5.10231e-07
5.10085e-07
5.10202e-07
5.10105e-07
5.10184e-07
5.10119e-07
5.1017e-07
5.10127e-07
5.10162e-07
5.10131e-07
5.10156e-07
5.10137e-07
5.10152e-07
5.1014e-07
5.10148e-07
5.10141e-07
5.10145e-07
5.10143e-07
5.10143e-07
5.10145e-07
5.10141e-07
5.10148e-07
5.10139e-07
5.10151e-07
5.10137e-07
5.10156e-07
5.1013e-07
5.10161e-07
5.10126e-07
5.10169e-07
5.10117e-07
5.10183e-07
5.10104e-07
5.102e-07
5.10083e-07
5.10229e-07
5.10066e-07
5.10277e-07
5.10063e-07
5.10329e-07
5.10001e-07
5.08466e-07
5.07444e-07
2.31988e-07
2.32556e-07
2.33466e-07
2.33675e-07
2.33552e-07
2.33667e-07
2.33557e-07
2.33643e-07
2.33566e-07
2.33627e-07
2.33576e-07
2.33618e-07
2.33583e-07
2.3361e-07
2.33587e-07
2.33606e-07
2.33589e-07
2.33603e-07
2.33593e-07
2.336e-07
2.33594e-07
2.33598e-07
2.33595e-07
2.33597e-07
2.33596e-07
2.33596e-07
2.33597e-07
2.33595e-07
2.33598e-07
2.33594e-07
2.336e-07
2.33592e-07
2.33602e-07
2.33589e-07
2.33605e-07
2.33586e-07
2.33609e-07
2.33582e-07
2.33617e-07
2.33575e-07
2.33626e-07
2.33565e-07
2.33642e-07
2.33556e-07
2.33666e-07
2.33551e-07
2.33673e-07
2.33464e-07
2.32554e-07
2.3198e-07
1.11032e-07
1.11348e-07
1.11877e-07
1.12003e-07
1.11944e-07
1.12006e-07
1.11948e-07
1.11994e-07
1.11952e-07
1.11985e-07
1.11958e-07
1.1198e-07
1.11961e-07
1.11976e-07
1.11964e-07
1.11974e-07
1.11965e-07
1.11972e-07
1.11967e-07
1.11971e-07
1.11967e-07
1.1197e-07
1.11968e-07
1.11969e-07
1.11968e-07
1.11968e-07
1.11969e-07
1.11968e-07
1.1197e-07
1.11967e-07
1.11971e-07
1.11966e-07
1.11972e-07
1.11965e-07
1.11973e-07
1.11963e-07
1.11975e-07
1.11961e-07
1.11979e-07
1.11957e-07
1.11985e-07
1.11952e-07
1.11993e-07
1.11948e-07
1.12006e-07
1.11944e-07
1.12002e-07
1.11876e-07
1.11347e-07
1.11028e-07
5.52729e-08
5.54299e-08
5.57007e-08
5.57642e-08
5.57358e-08
5.5766e-08
5.57369e-08
5.57594e-08
5.57386e-08
5.57549e-08
5.57413e-08
5.57523e-08
5.57431e-08
5.57503e-08
5.57443e-08
5.57492e-08
5.57449e-08
5.57484e-08
5.57458e-08
5.57478e-08
5.57461e-08
5.57473e-08
5.57463e-08
5.57469e-08
5.57466e-08
5.57466e-08
5.57469e-08
5.57463e-08
5.57473e-08
5.5746e-08
5.57477e-08
5.57456e-08
5.57483e-08
5.57448e-08
5.57491e-08
5.57441e-08
5.57501e-08
5.57429e-08
5.57521e-08
5.5741e-08
5.57547e-08
5.57384e-08
5.57591e-08
5.57365e-08
5.57656e-08
5.57355e-08
5.57638e-08
5.57003e-08
5.54295e-08
5.52709e-08
3.04891e-08
3.05865e-08
3.07515e-08
3.07906e-08
3.07743e-08
3.07916e-08
3.07743e-08
3.07874e-08
3.07751e-08
3.07847e-08
3.07766e-08
3.07832e-08
3.07778e-08
3.0782e-08
3.07785e-08
3.07814e-08
3.07788e-08
3.0781e-08
3.07794e-08
3.07806e-08
3.07796e-08
3.07803e-08
3.07797e-08
3.07801e-08
3.07799e-08
3.07799e-08
3.07801e-08
3.07797e-08
3.07803e-08
3.07796e-08
3.07806e-08
3.07793e-08
3.07809e-08
3.07788e-08
3.07813e-08
3.07784e-08
3.07819e-08
3.07777e-08
3.07831e-08
3.07765e-08
3.07846e-08
3.0775e-08
3.07873e-08
3.07741e-08
3.07915e-08
3.07742e-08
3.07904e-08
3.07513e-08
3.05863e-08
3.04882e-08
1.85599e-08
1.85889e-08
1.86644e-08
1.86804e-08
1.86751e-08
1.86825e-08
1.86752e-08
1.86808e-08
1.86754e-08
1.86795e-08
1.86761e-08
1.86788e-08
1.86765e-08
1.86783e-08
1.86768e-08
1.8678e-08
1.86769e-08
1.86778e-08
1.86771e-08
1.86777e-08
1.86772e-08
1.86775e-08
1.86773e-08
1.86774e-08
1.86773e-08
1.86773e-08
1.86774e-08
1.86773e-08
1.86775e-08
1.86772e-08
1.86776e-08
1.86771e-08
1.86778e-08
1.86769e-08
1.8678e-08
1.86767e-08
1.86783e-08
1.86765e-08
1.86788e-08
1.8676e-08
1.86795e-08
1.86754e-08
1.86807e-08
1.86751e-08
1.86824e-08
1.8675e-08
1.86803e-08
1.86643e-08
1.85888e-08
1.85595e-08
1.23775e-08
1.23942e-08
1.24389e-08
1.24479e-08
1.24446e-08
1.24487e-08
1.24442e-08
1.24475e-08
1.24443e-08
1.24467e-08
1.24446e-08
1.24463e-08
1.24449e-08
1.2446e-08
1.24451e-08
1.24458e-08
1.24452e-08
1.24457e-08
1.24453e-08
1.24456e-08
1.24453e-08
1.24455e-08
1.24454e-08
1.24455e-08
1.24454e-08
1.24454e-08
1.24455e-08
1.24454e-08
1.24455e-08
1.24453e-08
1.24456e-08
1.24453e-08
1.24457e-08
1.24451e-08
1.24458e-08
1.2445e-08
1.24459e-08
1.24449e-08
1.24462e-08
1.24446e-08
1.24467e-08
1.24442e-08
1.24474e-08
1.24442e-08
1.24486e-08
1.24446e-08
1.24479e-08
1.24389e-08
1.23941e-08
1.23772e-08
9.14796e-09
9.16006e-09
9.19117e-09
9.19734e-09
9.19508e-09
9.19772e-09
9.19459e-09
9.19679e-09
9.19456e-09
9.19623e-09
9.19481e-09
9.19595e-09
9.19501e-09
9.19575e-09
9.19514e-09
9.19565e-09
9.19521e-09
9.19558e-09
9.1953e-09
9.19552e-09
9.19534e-09
9.19547e-09
9.19537e-09
9.19543e-09
9.1954e-09
9.1954e-09
9.19543e-09
9.19537e-09
9.19547e-09
9.19534e-09
9.19551e-09
9.19529e-09
9.19557e-09
9.1952e-09
9.19564e-09
9.19512e-09
9.19574e-09
9.195e-09
9.19594e-09
9.1948e-09
9.19622e-09
9.19454e-09
9.19678e-09
9.19458e-09
9.19769e-09
9.19506e-09
9.19732e-09
9.19115e-09
9.16003e-09
9.14787e-09
7.19746e-09
7.20974e-09
7.23583e-09
7.24247e-09
7.24158e-09
7.24379e-09
7.24142e-09
7.24308e-09
7.24133e-09
7.24258e-09
7.24147e-09
7.24233e-09
7.24161e-09
7.24217e-09
7.24169e-09
7.24208e-09
7.24174e-09
7.24202e-09
7.24181e-09
7.24198e-09
7.24184e-09
7.24194e-09
7.24186e-09
7.24191e-09
7.24189e-09
7.24189e-09
7.24191e-09
7.24186e-09
7.24194e-09
7.24184e-09
7.24198e-09
7.24181e-09
7.24202e-09
7.24174e-09
7.24208e-09
7.24168e-09
7.24216e-09
7.2416e-09
7.24232e-09
7.24147e-09
7.24257e-09
7.24132e-09
7.24307e-09
7.24141e-09
7.24378e-09
7.24157e-09
7.24246e-09
7.23582e-09
7.20973e-09
7.19742e-09
5.99867e-09
6.00972e-09
6.03078e-09
6.03646e-09
6.036e-09
6.03773e-09
6.03587e-09
6.03715e-09
6.03576e-09
6.03673e-09
6.03587e-09
6.03654e-09
6.03597e-09
6.03641e-09
6.03603e-09
6.03634e-09
6.03607e-09
6.0363e-09
6.03613e-09
6.03626e-09
6.03616e-09
6.03623e-09
6.03617e-09
6.03621e-09
6.03619e-09
6.03619e-09
6.03621e-09
6.03617e-09
6.03623e-09
6.03615e-09
6.03626e-09
6.03613e-09
6.0363e-09
6.03607e-09
6.03634e-09
6.03603e-09
6.03641e-09
6.03597e-09
6.03653e-09
6.03587e-09
6.03673e-09
6.03576e-09
6.03714e-09
6.03587e-09
6.03773e-09
6.03599e-09
6.03645e-09
6.03078e-09
6.00971e-09
5.99865e-09
5.15178e-09
5.16405e-09
5.18406e-09
5.19023e-09
5.18997e-09
5.19166e-09
5.1899e-09
5.1911e-09
5.18979e-09
5.1907e-09
5.18989e-09
5.19052e-09
5.18999e-09
5.1904e-09
5.19005e-09
5.19034e-09
5.19009e-09
5.1903e-09
5.19014e-09
5.19027e-09
5.19017e-09
5.19024e-09
5.19018e-09
5.19022e-09
5.1902e-09
5.1902e-09
5.19022e-09
5.19018e-09
5.19024e-09
5.19017e-09
5.19027e-09
5.19014e-09
5.1903e-09
5.19009e-09
5.19034e-09
5.19005e-09
5.1904e-09
5.18999e-09
5.19052e-09
5.18989e-09
5.1907e-09
5.18979e-09
5.1911e-09
5.1899e-09
5.19166e-09
5.18996e-09
5.19023e-09
5.18406e-09
5.16404e-09
5.15177e-09
4.53711e-09
4.54901e-09
4.56611e-09
4.5717e-09
4.57165e-09
4.57309e-09
4.57162e-09
4.5726e-09
4.57151e-09
4.57226e-09
4.57158e-09
4.57211e-09
4.57166e-09
4.572e-09
4.57171e-09
4.57195e-09
4.57175e-09
4.57192e-09
4.57179e-09
4.5719e-09
4.57181e-09
4.57187e-09
4.57182e-09
4.57186e-09
4.57184e-09
4.57184e-09
4.57186e-09
4.57182e-09
4.57187e-09
4.57181e-09
4.5719e-09
4.57179e-09
4.57192e-09
4.57175e-09
4.57196e-09
4.57171e-09
4.57201e-09
4.57166e-09
4.5721e-09
4.57159e-09
4.57226e-09
4.57151e-09
4.5726e-09
4.57162e-09
4.57309e-09
4.57165e-09
4.5717e-09
4.56611e-09
4.54901e-09
4.53711e-09
4.08686e-09
4.09913e-09
4.11456e-09
4.11991e-09
4.12005e-09
4.12136e-09
4.12007e-09
4.12093e-09
4.11996e-09
4.12061e-09
4.12001e-09
4.12047e-09
4.12008e-09
4.12038e-09
4.12012e-09
4.12034e-09
4.12015e-09
4.12031e-09
4.12019e-09
4.12029e-09
4.12021e-09
4.12027e-09
4.12022e-09
4.12025e-09
4.12024e-09
4.12024e-09
4.12025e-09
4.12022e-09
4.12027e-09
4.12021e-09
4.12029e-09
4.12019e-09
4.12031e-09
4.12015e-09
4.12034e-09
4.12012e-09
4.12038e-09
4.12008e-09
4.12047e-09
4.12002e-09
4.12061e-09
4.11995e-09
4.12093e-09
4.12007e-09
4.12136e-09
4.12005e-09
4.11991e-09
4.11456e-09
4.09913e-09
4.08686e-09
3.73338e-09
3.74633e-09
3.7605e-09
3.76567e-09
3.76594e-09
3.76715e-09
3.766e-09
3.76676e-09
3.76589e-09
3.76647e-09
3.76593e-09
3.76634e-09
3.76599e-09
3.76626e-09
3.76603e-09
3.76622e-09
3.76605e-09
3.76619e-09
3.76609e-09
3.76617e-09
3.76611e-09
3.76615e-09
3.76611e-09
3.76614e-09
3.76613e-09
3.76613e-09
3.76614e-09
3.76611e-09
3.76615e-09
3.76611e-09
3.76617e-09
3.76609e-09
3.76619e-09
3.76605e-09
3.76622e-09
3.76603e-09
3.76626e-09
3.76599e-09
3.76634e-09
3.76593e-09
3.76647e-09
3.76588e-09
3.76676e-09
3.766e-09
3.76715e-09
3.76594e-09
3.76567e-09
3.7605e-09
3.74633e-09
3.73338e-09
3.449e-09
3.45462e-09
3.46675e-09
3.47149e-09
3.47205e-09
3.47316e-09
3.47222e-09
3.47284e-09
3.47209e-09
3.47256e-09
3.4721e-09
3.47242e-09
3.47213e-09
3.47234e-09
3.47215e-09
3.4723e-09
3.47216e-09
3.47228e-09
3.47219e-09
3.47226e-09
3.4722e-09
3.47224e-09
3.47221e-09
3.47223e-09
3.47222e-09
3.47222e-09
3.47223e-09
3.47221e-09
3.47224e-09
3.4722e-09
3.47226e-09
3.47219e-09
3.47227e-09
3.47216e-09
3.4723e-09
3.47215e-09
3.47234e-09
3.47213e-09
3.47242e-09
3.4721e-09
3.47256e-09
3.47209e-09
3.47284e-09
3.47222e-09
3.47315e-09
3.47205e-09
3.47149e-09
3.46675e-09
3.45462e-09
3.449e-09
3.21598e-09
3.22202e-09
3.23326e-09
3.23785e-09
3.23849e-09
3.23953e-09
3.23868e-09
3.23924e-09
3.23856e-09
3.23897e-09
3.23855e-09
3.23885e-09
3.23857e-09
3.23877e-09
3.23859e-09
3.23873e-09
3.2386e-09
3.23871e-09
3.23863e-09
3.23869e-09
3.23864e-09
3.23867e-09
3.23864e-09
3.23866e-09
3.23865e-09
3.23865e-09
3.23866e-09
3.23864e-09
3.23867e-09
3.23864e-09
3.23869e-09
3.23863e-09
3.23871e-09
3.2386e-09
3.23873e-09
3.23859e-09
3.23877e-09
3.23857e-09
3.23884e-09
3.23855e-09
3.23897e-09
3.23855e-09
3.23924e-09
3.23868e-09
3.23953e-09
3.23849e-09
3.23785e-09
3.23326e-09
3.22202e-09
3.21598e-09
3.01471e-09
3.02121e-09
3.03203e-09
3.03672e-09
3.0375e-09
3.03853e-09
3.03774e-09
3.03826e-09
3.03761e-09
3.03799e-09
3.03759e-09
3.03786e-09
3.03761e-09
3.03778e-09
3.03762e-09
3.03775e-09
3.03763e-09
3.03772e-09
3.03765e-09
3.03771e-09
3.03766e-09
3.03769e-09
3.03767e-09
3.03768e-09
3.03768e-09
3.03768e-09
3.03768e-09
3.03767e-09
3.03769e-09
3.03766e-09
3.03771e-09
3.03765e-09
3.03772e-09
3.03763e-09
3.03775e-09
3.03762e-09
3.03778e-09
3.03761e-09
3.03786e-09
3.03759e-09
3.03799e-09
3.03761e-09
3.03826e-09
3.03774e-09
3.03853e-09
3.0375e-09
3.03672e-09
3.03203e-09
3.02121e-09
3.01471e-09
2.84468e-09
2.8513e-09
2.86132e-09
2.86582e-09
2.86664e-09
2.86761e-09
2.86689e-09
2.86735e-09
2.86676e-09
2.8671e-09
2.86674e-09
2.86698e-09
2.86674e-09
2.86691e-09
2.86675e-09
2.86687e-09
2.86676e-09
2.86685e-09
2.86678e-09
2.86684e-09
2.86679e-09
2.86682e-09
2.8668e-09
2.86681e-09
2.8668e-09
2.8668e-09
2.86681e-09
2.8668e-09
2.86682e-09
2.86679e-09
2.86684e-09
2.86678e-09
2.86685e-09
2.86676e-09
2.86687e-09
2.86675e-09
2.86691e-09
2.86674e-09
2.86698e-09
2.86674e-09
2.8671e-09
2.86676e-09
2.86735e-09
2.86689e-09
2.86761e-09
2.86664e-09
2.86582e-09
2.86132e-09
2.8513e-09
2.84468e-09
2.69925e-09
2.70597e-09
2.7153e-09
2.71961e-09
2.72047e-09
2.72138e-09
2.72073e-09
2.72115e-09
2.7206e-09
2.7209e-09
2.72057e-09
2.72079e-09
2.72057e-09
2.72072e-09
2.72058e-09
2.72068e-09
2.72058e-09
2.72067e-09
2.7206e-09
2.72065e-09
2.72061e-09
2.72064e-09
2.72062e-09
2.72063e-09
2.72062e-09
2.72062e-09
2.72063e-09
2.72062e-09
2.72064e-09
2.72061e-09
2.72065e-09
2.7206e-09
2.72067e-09
2.72058e-09
2.72068e-09
2.72058e-09
2.72072e-09
2.72057e-09
2.72079e-09
2.72057e-09
2.7209e-09
2.7206e-09
2.72115e-09
2.72073e-09
2.72138e-09
2.72046e-09
2.71961e-09
2.7153e-09
2.70597e-09
2.69925e-09
2.57348e-09
2.58026e-09
2.58899e-09
2.59314e-09
2.59401e-09
2.59489e-09
2.59429e-09
2.59467e-09
2.59416e-09
2.59443e-09
2.59412e-09
2.59432e-09
2.59412e-09
2.59425e-09
2.59412e-09
2.59422e-09
2.59413e-09
2.5942e-09
2.59415e-09
2.59419e-09
2.59415e-09
2.59418e-09
2.59416e-09
2.59417e-09
2.59416e-09
2.59416e-09
2.59417e-09
2.59416e-09
2.59418e-09
2.59415e-09
2.59419e-09
2.59415e-09
2.5942e-09
2.59413e-09
2.59422e-09
2.59412e-09
2.59425e-09
2.59412e-09
2.59432e-09
2.59413e-09
2.59443e-09
2.59416e-09
2.59467e-09
2.59429e-09
2.59489e-09
2.59401e-09
2.59314e-09
2.58899e-09
2.58026e-09
2.57348e-09
2.46359e-09
2.47038e-09
2.47862e-09
2.4826e-09
2.4835e-09
2.48433e-09
2.48378e-09
2.48412e-09
2.48365e-09
2.48389e-09
2.48361e-09
2.48378e-09
2.4836e-09
2.48372e-09
2.4836e-09
2.48369e-09
2.4836e-09
2.48367e-09
2.48362e-09
2.48366e-09
2.48363e-09
2.48365e-09
2.48363e-09
2.48364e-09
2.48364e-09
2.48364e-09
2.48364e-09
2.48363e-09
2.48365e-09
2.48363e-09
2.48366e-09
2.48362e-09
2.48367e-09
2.48361e-09
2.48369e-09
2.4836e-09
2.48372e-09
2.4836e-09
2.48378e-09
2.48361e-09
2.48389e-09
2.48365e-09
2.48412e-09
2.48378e-09
2.48433e-09
2.4835e-09
2.4826e-09
2.47862e-09
2.47038e-09
2.46359e-09
2.36665e-09
2.37343e-09
2.38125e-09
2.38508e-09
2.38598e-09
2.38678e-09
2.38627e-09
2.38658e-09
2.38614e-09
2.38636e-09
2.3861e-09
2.38625e-09
2.38608e-09
2.38619e-09
2.38608e-09
2.38616e-09
2.38609e-09
2.38615e-09
2.3861e-09
2.38614e-09
2.38611e-09
2.38613e-09
2.38611e-09
2.38612e-09
2.38612e-09
2.38612e-09
2.38612e-09
2.38611e-09
2.38613e-09
2.38611e-09
2.38614e-09
2.3861e-09
2.38615e-09
2.38609e-09
2.38616e-09
2.38608e-09
2.38619e-09
2.38608e-09
2.38625e-09
2.3861e-09
2.38636e-09
2.38614e-09
2.38658e-09
2.38627e-09
2.38678e-09
2.38598e-09
2.38508e-09
2.38125e-09
2.37343e-09
2.36665e-09
2.28039e-09
2.28714e-09
2.29459e-09
2.29827e-09
2.29919e-09
2.29995e-09
2.29948e-09
2.29976e-09
2.29935e-09
2.29955e-09
2.2993e-09
2.29944e-09
2.29928e-09
2.29938e-09
2.29928e-09
2.29935e-09
2.29928e-09
2.29934e-09
2.29929e-09
2.29933e-09
2.2993e-09
2.29932e-09
2.2993e-09
2.29931e-09
2.29931e-09
2.29931e-09
2.29931e-09
2.2993e-09
2.29932e-09
2.2993e-09
2.29933e-09
2.29929e-09
2.29934e-09
2.29928e-09
2.29935e-09
2.29928e-09
2.29938e-09
2.29928e-09
2.29944e-09
2.2993e-09
2.29955e-09
2.29935e-09
2.29976e-09
2.29948e-09
2.29995e-09
2.29919e-09
2.29827e-09
2.29458e-09
2.28714e-09
2.28039e-09
2.203e-09
2.20971e-09
2.21682e-09
2.22037e-09
2.22129e-09
2.22203e-09
2.22159e-09
2.22185e-09
2.22146e-09
2.22164e-09
2.2214e-09
2.22154e-09
2.22139e-09
2.22148e-09
2.22138e-09
2.22145e-09
2.22138e-09
2.22144e-09
2.22139e-09
2.22143e-09
2.2214e-09
2.22142e-09
2.2214e-09
2.22141e-09
2.22141e-09
2.22141e-09
2.22141e-09
2.2214e-09
2.22142e-09
2.2214e-09
2.22143e-09
2.22139e-09
2.22144e-09
2.22138e-09
2.22145e-09
2.22138e-09
2.22148e-09
2.22139e-09
2.22153e-09
2.2214e-09
2.22164e-09
2.22146e-09
2.22185e-09
2.22159e-09
2.22203e-09
2.22129e-09
2.22037e-09
2.21682e-09
2.20971e-09
2.203e-09
2.13305e-09
2.1397e-09
2.14652e-09
2.14995e-09
2.15087e-09
2.15158e-09
2.15117e-09
2.1514e-09
2.15103e-09
2.1512e-09
2.15098e-09
2.1511e-09
2.15096e-09
2.15104e-09
2.15095e-09
2.15101e-09
2.15095e-09
2.151e-09
2.15096e-09
2.15099e-09
2.15096e-09
2.15098e-09
2.15097e-09
2.15098e-09
2.15097e-09
2.15097e-09
2.15098e-09
2.15097e-09
2.15098e-09
2.15096e-09
2.15099e-09
2.15096e-09
2.151e-09
2.15095e-09
2.15101e-09
2.15095e-09
2.15104e-09
2.15096e-09
2.1511e-09
2.15098e-09
2.1512e-09
2.15103e-09
2.1514e-09
2.15117e-09
2.15158e-09
2.15087e-09
2.14995e-09
2.14652e-09
2.1397e-09
2.13305e-09
2.06939e-09
2.07597e-09
2.08253e-09
2.08584e-09
2.08676e-09
2.08745e-09
2.08706e-09
2.08727e-09
2.08692e-09
2.08707e-09
2.08686e-09
2.08697e-09
2.08684e-09
2.08692e-09
2.08683e-09
2.08689e-09
2.08683e-09
2.08688e-09
2.08684e-09
2.08687e-09
2.08684e-09
2.08686e-09
2.08685e-09
2.08686e-09
2.08685e-09
2.08685e-09
2.08686e-09
2.08685e-09
2.08686e-09
2.08684e-09
2.08687e-09
2.08684e-09
2.08688e-09
2.08683e-09
2.08689e-09
2.08683e-09
2.08692e-09
2.08684e-09
2.08697e-09
2.08686e-09
2.08707e-09
2.08692e-09
2.08727e-09
2.08706e-09
2.08745e-09
2.08676e-09
2.08584e-09
2.08253e-09
2.07597e-09
2.06939e-09
2.0111e-09
2.0176e-09
2.02392e-09
2.02712e-09
2.02803e-09
2.0287e-09
2.02833e-09
2.02853e-09
2.02819e-09
2.02833e-09
2.02813e-09
2.02823e-09
2.0281e-09
2.02818e-09
2.02809e-09
2.02815e-09
2.02809e-09
2.02814e-09
2.0281e-09
2.02813e-09
2.02811e-09
2.02812e-09
2.02811e-09
2.02812e-09
2.02811e-09
2.02811e-09
2.02812e-09
2.02811e-09
2.02812e-09
2.02811e-09
2.02813e-09
2.0281e-09
2.02814e-09
2.02809e-09
2.02815e-09
2.02809e-09
2.02818e-09
2.0281e-09
2.02823e-09
2.02813e-09
2.02833e-09
2.02819e-09
2.02853e-09
2.02833e-09
2.0287e-09
2.02803e-09
2.02712e-09
2.02392e-09
2.0176e-09
2.0111e-09
1.95743e-09
1.96383e-09
1.96993e-09
1.97303e-09
1.97392e-09
1.97457e-09
1.97422e-09
1.97441e-09
1.97409e-09
1.97421e-09
1.97402e-09
1.97411e-09
1.97399e-09
1.97406e-09
1.97398e-09
1.97403e-09
1.97398e-09
1.97402e-09
1.97399e-09
1.97401e-09
1.97399e-09
1.97401e-09
1.97399e-09
1.974e-09
1.974e-09
1.974e-09
1.974e-09
1.97399e-09
1.97401e-09
1.97399e-09
1.97401e-09
1.97399e-09
1.97402e-09
1.97398e-09
1.97403e-09
1.97398e-09
1.97406e-09
1.97399e-09
1.97411e-09
1.97402e-09
1.97421e-09
1.97409e-09
1.97441e-09
1.97422e-09
1.97457e-09
1.97392e-09
1.97302e-09
1.96993e-09
1.96383e-09
1.95743e-09
1.90776e-09
1.91404e-09
1.91994e-09
1.92294e-09
1.92382e-09
1.92445e-09
1.92412e-09
1.92429e-09
1.92399e-09
1.9241e-09
1.92392e-09
1.924e-09
1.92389e-09
1.92395e-09
1.92387e-09
1.92392e-09
1.92387e-09
1.92391e-09
1.92388e-09
1.92391e-09
1.92388e-09
1.9239e-09
1.92389e-09
1.92389e-09
1.92389e-09
1.92389e-09
1.92389e-09
1.92389e-09
1.9239e-09
1.92388e-09
1.92391e-09
1.92388e-09
1.92391e-09
1.92387e-09
1.92393e-09
1.92387e-09
1.92395e-09
1.92389e-09
1.924e-09
1.92392e-09
1.9241e-09
1.92399e-09
1.92429e-09
1.92412e-09
1.92445e-09
1.92382e-09
1.92294e-09
1.91994e-09
1.91404e-09
1.90776e-09
1.86158e-09
1.86772e-09
1.87345e-09
1.87635e-09
1.87722e-09
1.87783e-09
1.87751e-09
1.87767e-09
1.87738e-09
1.87748e-09
1.87731e-09
1.87739e-09
1.87728e-09
1.87734e-09
1.87727e-09
1.87731e-09
1.87726e-09
1.8773e-09
1.87727e-09
1.87729e-09
1.87727e-09
1.87729e-09
1.87727e-09
1.87728e-09
1.87728e-09
1.87728e-09
1.87728e-09
1.87728e-09
1.87729e-09
1.87727e-09
1.87729e-09
1.87727e-09
1.8773e-09
1.87726e-09
1.87731e-09
1.87727e-09
1.87734e-09
1.87728e-09
1.87739e-09
1.87731e-09
1.87748e-09
1.87738e-09
1.87767e-09
1.87751e-09
1.87783e-09
1.87722e-09
1.87635e-09
1.87345e-09
1.86772e-09
1.86158e-09
1.81848e-09
1.82447e-09
1.83003e-09
1.83284e-09
1.83369e-09
1.83429e-09
1.83399e-09
1.83413e-09
1.83385e-09
1.83394e-09
1.83378e-09
1.83385e-09
1.83374e-09
1.8338e-09
1.83373e-09
1.83378e-09
1.83373e-09
1.83377e-09
1.83374e-09
1.83376e-09
1.83374e-09
1.83375e-09
1.83374e-09
1.83375e-09
1.83374e-09
1.83374e-09
1.83375e-09
1.83374e-09
1.83375e-09
1.83374e-09
1.83376e-09
1.83374e-09
1.83377e-09
1.83373e-09
1.83378e-09
1.83373e-09
1.8338e-09
1.83374e-09
1.83385e-09
1.83378e-09
1.83394e-09
1.83385e-09
1.83413e-09
1.83398e-09
1.83429e-09
1.83369e-09
1.83284e-09
1.83003e-09
1.82447e-09
1.81848e-09
1.77809e-09
1.78394e-09
1.78933e-09
1.79206e-09
1.79289e-09
1.79347e-09
1.79318e-09
1.79332e-09
1.79305e-09
1.79313e-09
1.79297e-09
1.79304e-09
1.79294e-09
1.79299e-09
1.79292e-09
1.79297e-09
1.79292e-09
1.79296e-09
1.79293e-09
1.79295e-09
1.79293e-09
1.79294e-09
1.79293e-09
1.79294e-09
1.79294e-09
1.79294e-09
1.79294e-09
1.79293e-09
1.79294e-09
1.79293e-09
1.79295e-09
1.79293e-09
1.79296e-09
1.79292e-09
1.79297e-09
1.79292e-09
1.79299e-09
1.79294e-09
1.79304e-09
1.79297e-09
1.79313e-09
1.79305e-09
1.79332e-09
1.79318e-09
1.79347e-09
1.79289e-09
1.79206e-09
1.78933e-09
1.78394e-09
1.77809e-09
1.74013e-09
1.74584e-09
1.75107e-09
1.7537e-09
1.75452e-09
1.75508e-09
1.75481e-09
1.75493e-09
1.75467e-09
1.75475e-09
1.7546e-09
1.75466e-09
1.75456e-09
1.75461e-09
1.75455e-09
1.75459e-09
1.75455e-09
1.75458e-09
1.75455e-09
1.75457e-09
1.75455e-09
1.75457e-09
1.75456e-09
1.75456e-09
1.75456e-09
1.75456e-09
1.75456e-09
1.75456e-09
1.75457e-09
1.75455e-09
1.75457e-09
1.75455e-09
1.75458e-09
1.75455e-09
1.75459e-09
1.75455e-09
1.75461e-09
1.75456e-09
1.75466e-09
1.7546e-09
1.75475e-09
1.75467e-09
1.75493e-09
1.75481e-09
1.75508e-09
1.75452e-09
1.7537e-09
1.75107e-09
1.74584e-09
1.74013e-09
1.70434e-09
1.70993e-09
1.71498e-09
1.71754e-09
1.71834e-09
1.71888e-09
1.71862e-09
1.71874e-09
1.71849e-09
1.71856e-09
1.71841e-09
1.71847e-09
1.71837e-09
1.71842e-09
1.71836e-09
1.7184e-09
1.71836e-09
1.71839e-09
1.71836e-09
1.71838e-09
1.71836e-09
1.71838e-09
1.71837e-09
1.71837e-09
1.71837e-09
1.71837e-09
1.71837e-09
1.71837e-09
1.71838e-09
1.71836e-09
1.71838e-09
1.71836e-09
1.71839e-09
1.71836e-09
1.7184e-09
1.71836e-09
1.71842e-09
1.71837e-09
1.71847e-09
1.71841e-09
1.71856e-09
1.71849e-09
1.71874e-09
1.71862e-09
1.71888e-09
1.71834e-09
1.71754e-09
1.71498e-09
1.70993e-09
1.70434e-09
1.67052e-09
1.676e-09
1.68088e-09
1.68335e-09
1.68414e-09
1.68466e-09
1.68441e-09
1.68452e-09
1.68428e-09
1.68434e-09
1.6842e-09
1.68425e-09
1.68416e-09
1.6842e-09
1.68415e-09
1.68418e-09
1.68414e-09
1.68417e-09
1.68415e-09
1.68417e-09
1.68415e-09
1.68416e-09
1.68415e-09
1.68416e-09
1.68416e-09
1.68416e-09
1.68416e-09
1.68415e-09
1.68416e-09
1.68415e-09
1.68417e-09
1.68415e-09
1.68417e-09
1.68414e-09
1.68418e-09
1.68415e-09
1.6842e-09
1.68416e-09
1.68425e-09
1.6842e-09
1.68434e-09
1.68428e-09
1.68452e-09
1.68441e-09
1.68466e-09
1.68413e-09
1.68335e-09
1.68088e-09
1.676e-09
1.67052e-09
1.63848e-09
1.64387e-09
1.64857e-09
1.65096e-09
1.65173e-09
1.65224e-09
1.65199e-09
1.6521e-09
1.65187e-09
1.65192e-09
1.65179e-09
1.65184e-09
1.65175e-09
1.65179e-09
1.65174e-09
1.65177e-09
1.65173e-09
1.65176e-09
1.65174e-09
1.65176e-09
1.65174e-09
1.65175e-09
1.65174e-09
1.65175e-09
1.65174e-09
1.65174e-09
1.65175e-09
1.65174e-09
1.65175e-09
1.65174e-09
1.65176e-09
1.65174e-09
1.65176e-09
1.65173e-09
1.65177e-09
1.65174e-09
1.65179e-09
1.65175e-09
1.65184e-09
1.65179e-09
1.65192e-09
1.65187e-09
1.6521e-09
1.65199e-09
1.65224e-09
1.65173e-09
1.65096e-09
1.64857e-09
1.64387e-09
1.63848e-09
1.60809e-09
1.61338e-09
1.61792e-09
1.62023e-09
1.62097e-09
1.62146e-09
1.62123e-09
1.62133e-09
1.6211e-09
1.62116e-09
1.62102e-09
1.62107e-09
1.62099e-09
1.62103e-09
1.62097e-09
1.62101e-09
1.62097e-09
1.621e-09
1.62097e-09
1.62099e-09
1.62098e-09
1.62099e-09
1.62098e-09
1.62098e-09
1.62098e-09
1.62098e-09
1.62098e-09
1.62098e-09
1.62099e-09
1.62098e-09
1.62099e-09
1.62097e-09
1.621e-09
1.62097e-09
1.62101e-09
1.62097e-09
1.62103e-09
1.62099e-09
1.62107e-09
1.62102e-09
1.62116e-09
1.6211e-09
1.62133e-09
1.62123e-09
1.62146e-09
1.62097e-09
1.62023e-09
1.61792e-09
1.61338e-09
1.60809e-09
1.57921e-09
1.58441e-09
1.58879e-09
1.59101e-09
1.59173e-09
1.59221e-09
1.59198e-09
1.59207e-09
1.59186e-09
1.59191e-09
1.59178e-09
1.59182e-09
1.59174e-09
1.59178e-09
1.59173e-09
1.59176e-09
1.59173e-09
1.59175e-09
1.59173e-09
1.59175e-09
1.59173e-09
1.59174e-09
1.59174e-09
1.59174e-09
1.59174e-09
1.59174e-09
1.59174e-09
1.59174e-09
1.59174e-09
1.59173e-09
1.59175e-09
1.59173e-09
1.59175e-09
1.59173e-09
1.59176e-09
1.59173e-09
1.59178e-09
1.59174e-09
1.59182e-09
1.59178e-09
1.59191e-09
1.59186e-09
1.59207e-09
1.59198e-09
1.59221e-09
1.59173e-09
1.59101e-09
1.58879e-09
1.58441e-09
1.57921e-09
1.55173e-09
1.55684e-09
1.56106e-09
1.5632e-09
1.56389e-09
1.56436e-09
1.56414e-09
1.56423e-09
1.56402e-09
1.56407e-09
1.56394e-09
1.56398e-09
1.56391e-09
1.56394e-09
1.56389e-09
1.56392e-09
1.56389e-09
1.56392e-09
1.5639e-09
1.56391e-09
1.5639e-09
1.56391e-09
1.5639e-09
1.56391e-09
1.5639e-09
1.5639e-09
1.56391e-09
1.5639e-09
1.56391e-09
1.5639e-09
1.56391e-09
1.5639e-09
1.56392e-09
1.56389e-09
1.56392e-09
1.56389e-09
1.56394e-09
1.56391e-09
1.56398e-09
1.56394e-09
1.56407e-09
1.56402e-09
1.56423e-09
1.56414e-09
1.56436e-09
1.56389e-09
1.5632e-09
1.56106e-09
1.55684e-09
1.55173e-09
1.52555e-09
1.53058e-09
1.53464e-09
1.53669e-09
1.53737e-09
1.53782e-09
1.53761e-09
1.53769e-09
1.53749e-09
1.53753e-09
1.53742e-09
1.53745e-09
1.53738e-09
1.53741e-09
1.53737e-09
1.5374e-09
1.53736e-09
1.53739e-09
1.53737e-09
1.53739e-09
1.53737e-09
1.53738e-09
1.53737e-09
1.53738e-09
1.53738e-09
1.53738e-09
1.53738e-09
1.53737e-09
1.53738e-09
1.53737e-09
1.53739e-09
1.53737e-09
1.53739e-09
1.53737e-09
1.5374e-09
1.53737e-09
1.53741e-09
1.53738e-09
1.53745e-09
1.53742e-09
1.53753e-09
1.53749e-09
1.53769e-09
1.53761e-09
1.53782e-09
1.53737e-09
1.53669e-09
1.53464e-09
1.53058e-09
1.52555e-09
1.5006e-09
1.50553e-09
1.50944e-09
1.51141e-09
1.51206e-09
1.5125e-09
1.51231e-09
1.51238e-09
1.51219e-09
1.51223e-09
1.51211e-09
1.51215e-09
1.51208e-09
1.51211e-09
1.51207e-09
1.51209e-09
1.51206e-09
1.51209e-09
1.51207e-09
1.51209e-09
1.51207e-09
1.51208e-09
1.51207e-09
1.51208e-09
1.51208e-09
1.51208e-09
1.51208e-09
1.51207e-09
1.51208e-09
1.51207e-09
1.51209e-09
1.51207e-09
1.51209e-09
1.51206e-09
1.51209e-09
1.51207e-09
1.51211e-09
1.51208e-09
1.51215e-09
1.51211e-09
1.51223e-09
1.51219e-09
1.51238e-09
1.51231e-09
1.5125e-09
1.51206e-09
1.51141e-09
1.50944e-09