/*--------------------------------*- C++ -*----------------------------------*\
| =========                 |                                                 |
| \\      /  F ield         | OpenFOAM: The Open Source CFD Toolbox           |
|  \\    /   O peration     | Version:  dev                                   |
|   \\  /    A nd           | Web:      www.OpenFOAM.org                      |
|    \\/     M anipulation  |                                                 |
\*---------------------------------------------------------------------------*/
FoamFile
{
    version     2.0;
    format      ascii;
    class       volScalarField;
    location    "0.1";
    object      C5H2;
}
// * * * * * * * * * * * * * * * * * * * * * * * * * * * * * * * * * * * * * //

dimensions      [0 0 0 0 0 0 0];

internalField   nonuniform List<scalar> 
8000
(
4.94427e-07
4.96437e-07
4.9872e-07
4.99738e-07
4.99881e-07
5.00094e-07
5.00011e-07
5.00105e-07
5.00026e-07
5.00086e-07
5.00032e-07
5.00074e-07
5.00037e-07
5.00064e-07
5.0004e-07
5.00059e-07
5.00041e-07
5.00056e-07
5.00045e-07
5.00053e-07
5.00046e-07
5.00051e-07
5.00047e-07
5.00049e-07
5.00048e-07
5.00048e-07
5.00049e-07
5.00047e-07
5.00051e-07
5.00046e-07
5.00053e-07
5.00045e-07
5.00055e-07
5.00041e-07
5.00059e-07
5.0004e-07
5.00064e-07
5.00037e-07
5.00074e-07
5.00032e-07
5.00087e-07
5.00026e-07
5.00105e-07
5.0001e-07
5.00094e-07
4.99881e-07
4.99737e-07
4.9872e-07
4.96437e-07
4.94426e-07
2.49142e-06
2.50095e-06
2.51165e-06
2.5164e-06
2.51704e-06
2.51805e-06
2.51764e-06
2.5181e-06
2.51771e-06
2.51801e-06
2.51774e-06
2.51795e-06
2.51777e-06
2.5179e-06
2.51778e-06
2.51788e-06
2.51779e-06
2.51786e-06
2.51781e-06
2.51785e-06
2.51782e-06
2.51784e-06
2.51782e-06
2.51783e-06
2.51783e-06
2.51783e-06
2.51783e-06
2.51782e-06
2.51784e-06
2.51782e-06
2.51785e-06
2.51781e-06
2.51786e-06
2.51779e-06
2.51788e-06
2.51778e-06
2.5179e-06
2.51777e-06
2.51795e-06
2.51774e-06
2.51801e-06
2.51771e-06
2.5181e-06
2.51764e-06
2.51805e-06
2.51704e-06
2.5164e-06
2.51165e-06
2.50095e-06
2.49142e-06
7.54724e-06
7.57421e-06
7.60359e-06
7.61675e-06
7.61809e-06
7.62108e-06
7.61973e-06
7.62115e-06
7.61996e-06
7.62088e-06
7.62006e-06
7.6207e-06
7.62015e-06
7.62056e-06
7.6202e-06
7.62049e-06
7.62022e-06
7.62044e-06
7.62028e-06
7.6204e-06
7.6203e-06
7.62037e-06
7.62031e-06
7.62035e-06
7.62033e-06
7.62033e-06
7.62035e-06
7.62031e-06
7.62037e-06
7.6203e-06
7.6204e-06
7.62028e-06
7.62044e-06
7.62022e-06
7.62049e-06
7.6202e-06
7.62056e-06
7.62015e-06
7.6207e-06
7.62006e-06
7.62088e-06
7.61995e-06
7.62115e-06
7.61973e-06
7.62107e-06
7.61809e-06
7.61674e-06
7.60359e-06
7.57421e-06
7.54724e-06
1.40628e-05
1.41079e-05
1.41559e-05
1.41771e-05
1.41782e-05
1.41835e-05
1.41808e-05
1.41835e-05
1.41812e-05
1.4183e-05
1.41814e-05
1.41826e-05
1.41816e-05
1.41824e-05
1.41817e-05
1.41822e-05
1.41817e-05
1.41821e-05
1.41818e-05
1.41821e-05
1.41819e-05
1.4182e-05
1.41819e-05
1.4182e-05
1.41819e-05
1.41819e-05
1.4182e-05
1.41819e-05
1.4182e-05
1.41819e-05
1.41821e-05
1.41818e-05
1.41821e-05
1.41817e-05
1.41822e-05
1.41817e-05
1.41824e-05
1.41816e-05
1.41826e-05
1.41814e-05
1.4183e-05
1.41812e-05
1.41835e-05
1.41808e-05
1.41835e-05
1.41782e-05
1.41771e-05
1.41559e-05
1.41079e-05
1.40628e-05
1.78048e-05
1.78555e-05
1.791e-05
1.79329e-05
1.79328e-05
1.79391e-05
1.79354e-05
1.79388e-05
1.79358e-05
1.79382e-05
1.79362e-05
1.79377e-05
1.79364e-05
1.79374e-05
1.79365e-05
1.79372e-05
1.79366e-05
1.79371e-05
1.79367e-05
1.7937e-05
1.79368e-05
1.7937e-05
1.79368e-05
1.79369e-05
1.79369e-05
1.79369e-05
1.79369e-05
1.79368e-05
1.7937e-05
1.79368e-05
1.7937e-05
1.79367e-05
1.79371e-05
1.79366e-05
1.79373e-05
1.79365e-05
1.79374e-05
1.79364e-05
1.79377e-05
1.79362e-05
1.79382e-05
1.79358e-05
1.79388e-05
1.79354e-05
1.79391e-05
1.79328e-05
1.79329e-05
1.791e-05
1.78555e-05
1.78048e-05
1.80469e-05
1.80951e-05
1.81492e-05
1.81705e-05
1.81693e-05
1.81756e-05
1.81716e-05
1.81752e-05
1.8172e-05
1.81745e-05
1.81724e-05
1.81741e-05
1.81726e-05
1.81737e-05
1.81728e-05
1.81735e-05
1.81728e-05
1.81734e-05
1.8173e-05
1.81733e-05
1.8173e-05
1.81732e-05
1.81731e-05
1.81732e-05
1.81731e-05
1.81731e-05
1.81732e-05
1.81731e-05
1.81732e-05
1.8173e-05
1.81733e-05
1.8173e-05
1.81734e-05
1.81729e-05
1.81735e-05
1.81728e-05
1.81737e-05
1.81726e-05
1.8174e-05
1.81724e-05
1.81745e-05
1.8172e-05
1.81752e-05
1.81715e-05
1.81756e-05
1.81693e-05
1.81705e-05
1.81492e-05
1.80951e-05
1.80469e-05
1.63186e-05
1.63617e-05
1.64134e-05
1.64324e-05
1.64308e-05
1.64367e-05
1.64327e-05
1.64361e-05
1.64331e-05
1.64355e-05
1.64334e-05
1.6435e-05
1.64336e-05
1.64347e-05
1.64338e-05
1.64345e-05
1.64339e-05
1.64344e-05
1.6434e-05
1.64343e-05
1.64341e-05
1.64343e-05
1.64341e-05
1.64342e-05
1.64342e-05
1.64342e-05
1.64342e-05
1.64341e-05
1.64343e-05
1.64341e-05
1.64343e-05
1.6434e-05
1.64344e-05
1.64339e-05
1.64346e-05
1.64338e-05
1.64347e-05
1.64337e-05
1.6435e-05
1.64334e-05
1.64355e-05
1.64331e-05
1.64361e-05
1.64327e-05
1.64367e-05
1.64308e-05
1.64324e-05
1.64134e-05
1.63617e-05
1.63186e-05
1.39349e-05
1.39729e-05
1.40213e-05
1.40382e-05
1.40367e-05
1.40419e-05
1.40382e-05
1.40414e-05
1.40385e-05
1.40407e-05
1.40388e-05
1.40404e-05
1.40391e-05
1.40401e-05
1.40392e-05
1.40399e-05
1.40393e-05
1.40398e-05
1.40394e-05
1.40397e-05
1.40395e-05
1.40396e-05
1.40395e-05
1.40396e-05
1.40395e-05
1.40395e-05
1.40396e-05
1.40395e-05
1.40396e-05
1.40395e-05
1.40397e-05
1.40394e-05
1.40398e-05
1.40393e-05
1.40399e-05
1.40392e-05
1.40401e-05
1.40391e-05
1.40404e-05
1.40388e-05
1.40407e-05
1.40385e-05
1.40414e-05
1.40382e-05
1.40419e-05
1.40367e-05
1.40382e-05
1.40213e-05
1.39729e-05
1.39349e-05
1.1582e-05
1.16153e-05
1.16601e-05
1.16753e-05
1.1674e-05
1.16787e-05
1.16753e-05
1.16782e-05
1.16756e-05
1.16776e-05
1.16759e-05
1.16772e-05
1.16761e-05
1.1677e-05
1.16762e-05
1.16768e-05
1.16763e-05
1.16767e-05
1.16764e-05
1.16767e-05
1.16764e-05
1.16766e-05
1.16765e-05
1.16765e-05
1.16765e-05
1.16765e-05
1.16765e-05
1.16765e-05
1.16766e-05
1.16764e-05
1.16767e-05
1.16764e-05
1.16767e-05
1.16763e-05
1.16768e-05
1.16762e-05
1.1677e-05
1.16761e-05
1.16772e-05
1.16759e-05
1.16776e-05
1.16756e-05
1.16782e-05
1.16753e-05
1.16787e-05
1.1674e-05
1.16752e-05
1.16601e-05
1.16153e-05
1.1582e-05
9.52832e-06
9.5577e-06
9.59883e-06
9.61258e-06
9.6117e-06
9.61586e-06
9.61284e-06
9.61538e-06
9.61305e-06
9.61483e-06
9.61329e-06
9.61452e-06
9.61348e-06
9.61427e-06
9.61359e-06
9.61414e-06
9.61365e-06
9.61405e-06
9.61375e-06
9.61398e-06
9.61379e-06
9.61393e-06
9.61381e-06
9.61388e-06
9.61385e-06
9.61385e-06
9.61388e-06
9.61381e-06
9.61393e-06
9.61379e-06
9.61398e-06
9.61375e-06
9.61405e-06
9.61365e-06
9.61414e-06
9.61359e-06
9.61427e-06
9.61348e-06
9.61451e-06
9.61329e-06
9.61484e-06
9.61305e-06
9.61538e-06
9.61284e-06
9.61586e-06
9.6117e-06
9.61257e-06
9.59883e-06
9.55771e-06
9.52832e-06
7.83408e-06
7.86029e-06
7.89795e-06
7.91053e-06
7.90998e-06
7.91368e-06
7.911e-06
7.91325e-06
7.91117e-06
7.91275e-06
7.91137e-06
7.91246e-06
7.91153e-06
7.91224e-06
7.91163e-06
7.91212e-06
7.91168e-06
7.91204e-06
7.91178e-06
7.91198e-06
7.91181e-06
7.91193e-06
7.91183e-06
7.91189e-06
7.91187e-06
7.91187e-06
7.91189e-06
7.91183e-06
7.91193e-06
7.91181e-06
7.91198e-06
7.91178e-06
7.91204e-06
7.91169e-06
7.91213e-06
7.91163e-06
7.91224e-06
7.91154e-06
7.91246e-06
7.91137e-06
7.91275e-06
7.91117e-06
7.91325e-06
7.911e-06
7.91368e-06
7.90998e-06
7.91052e-06
7.89795e-06
7.86029e-06
7.83408e-06
6.41837e-06
6.44124e-06
6.4743e-06
6.48545e-06
6.48519e-06
6.48837e-06
6.48608e-06
6.488e-06
6.48621e-06
6.48755e-06
6.48637e-06
6.4873e-06
6.48651e-06
6.48711e-06
6.48659e-06
6.48701e-06
6.48663e-06
6.48694e-06
6.48671e-06
6.48689e-06
6.48674e-06
6.48685e-06
6.48676e-06
6.48681e-06
6.48679e-06
6.48679e-06
6.48681e-06
6.48676e-06
6.48685e-06
6.48674e-06
6.48689e-06
6.48671e-06
6.48694e-06
6.48664e-06
6.48701e-06
6.48659e-06
6.48711e-06
6.48651e-06
6.4873e-06
6.48637e-06
6.48756e-06
6.4862e-06
6.48799e-06
6.48608e-06
6.48837e-06
6.48519e-06
6.48545e-06
6.4743e-06
6.44125e-06
6.41837e-06
5.334e-06
5.35495e-06
5.38516e-06
5.39548e-06
5.39542e-06
5.39829e-06
5.39624e-06
5.39795e-06
5.39633e-06
5.39754e-06
5.39647e-06
5.39731e-06
5.3966e-06
5.39713e-06
5.39667e-06
5.39704e-06
5.39671e-06
5.39698e-06
5.39678e-06
5.39694e-06
5.3968e-06
5.3969e-06
5.39682e-06
5.39687e-06
5.39685e-06
5.39685e-06
5.39687e-06
5.39682e-06
5.3969e-06
5.3968e-06
5.39694e-06
5.39678e-06
5.39698e-06
5.39671e-06
5.39705e-06
5.39667e-06
5.39714e-06
5.3966e-06
5.3973e-06
5.39648e-06
5.39754e-06
5.39633e-06
5.39795e-06
5.39623e-06
5.39829e-06
5.39542e-06
5.39548e-06
5.38516e-06
5.35495e-06
5.334e-06
4.46966e-06
4.48532e-06
4.50974e-06
4.51836e-06
4.51897e-06
4.52124e-06
4.51979e-06
4.52105e-06
4.51985e-06
4.52073e-06
4.51993e-06
4.52054e-06
4.52001e-06
4.5204e-06
4.52005e-06
4.52033e-06
4.52008e-06
4.52028e-06
4.52013e-06
4.52024e-06
4.52014e-06
4.52021e-06
4.52015e-06
4.52019e-06
4.52017e-06
4.52017e-06
4.52019e-06
4.52015e-06
4.52021e-06
4.52014e-06
4.52024e-06
4.52013e-06
4.52028e-06
4.52008e-06
4.52033e-06
4.52005e-06
4.5204e-06
4.52001e-06
4.52054e-06
4.51993e-06
4.52073e-06
4.51984e-06
4.52105e-06
4.51979e-06
4.52124e-06
4.51897e-06
4.51836e-06
4.50974e-06
4.48532e-06
4.46966e-06
3.76164e-06
3.77548e-06
3.79672e-06
3.80441e-06
3.80512e-06
3.80708e-06
3.80587e-06
3.80693e-06
3.8059e-06
3.80665e-06
3.80597e-06
3.80648e-06
3.80603e-06
3.80636e-06
3.80607e-06
3.8063e-06
3.80608e-06
3.80626e-06
3.80613e-06
3.80623e-06
3.80614e-06
3.8062e-06
3.80615e-06
3.80618e-06
3.80617e-06
3.80617e-06
3.80618e-06
3.80615e-06
3.8062e-06
3.80614e-06
3.80623e-06
3.80613e-06
3.80626e-06
3.80609e-06
3.8063e-06
3.80606e-06
3.80636e-06
3.80603e-06
3.80648e-06
3.80597e-06
3.80665e-06
3.8059e-06
3.80693e-06
3.80587e-06
3.80708e-06
3.80512e-06
3.80441e-06
3.79672e-06
3.77548e-06
3.76164e-06
3.21801e-06
3.23067e-06
3.24969e-06
3.25673e-06
3.25753e-06
3.25928e-06
3.25823e-06
3.25915e-06
3.25825e-06
3.25889e-06
3.2583e-06
3.25874e-06
3.25835e-06
3.25864e-06
3.25838e-06
3.25858e-06
3.25839e-06
3.25854e-06
3.25843e-06
3.25852e-06
3.25844e-06
3.25849e-06
3.25845e-06
3.25848e-06
3.25846e-06
3.25846e-06
3.25848e-06
3.25845e-06
3.25849e-06
3.25844e-06
3.25852e-06
3.25843e-06
3.25854e-06
3.25839e-06
3.25858e-06
3.25838e-06
3.25864e-06
3.25835e-06
3.25874e-06
3.2583e-06
3.2589e-06
3.25825e-06
3.25915e-06
3.25823e-06
3.25928e-06
3.25753e-06
3.25673e-06
3.24969e-06
3.23067e-06
3.21801e-06
2.76749e-06
2.77978e-06
2.79755e-06
2.80452e-06
2.80557e-06
2.80724e-06
2.80632e-06
2.80714e-06
2.80632e-06
2.80689e-06
2.80635e-06
2.80674e-06
2.80638e-06
2.80664e-06
2.8064e-06
2.80658e-06
2.80641e-06
2.80655e-06
2.80645e-06
2.80652e-06
2.80646e-06
2.8065e-06
2.80646e-06
2.80649e-06
2.80648e-06
2.80648e-06
2.80649e-06
2.80646e-06
2.8065e-06
2.80646e-06
2.80652e-06
2.80645e-06
2.80655e-06
2.80641e-06
2.80658e-06
2.8064e-06
2.80664e-06
2.80638e-06
2.80674e-06
2.80635e-06
2.80689e-06
2.80632e-06
2.80714e-06
2.80632e-06
2.80723e-06
2.80557e-06
2.80452e-06
2.79755e-06
2.77978e-06
2.76749e-06
2.41625e-06
2.42771e-06
2.4437e-06
2.45015e-06
2.45126e-06
2.45276e-06
2.45197e-06
2.45269e-06
2.45196e-06
2.45245e-06
2.45198e-06
2.45232e-06
2.45201e-06
2.45223e-06
2.45202e-06
2.45218e-06
2.45203e-06
2.45215e-06
2.45206e-06
2.45212e-06
2.45207e-06
2.4521e-06
2.45207e-06
2.45209e-06
2.45208e-06
2.45208e-06
2.45209e-06
2.45207e-06
2.45211e-06
2.45207e-06
2.45212e-06
2.45206e-06
2.45215e-06
2.45203e-06
2.45218e-06
2.45202e-06
2.45223e-06
2.45201e-06
2.45232e-06
2.45198e-06
2.45246e-06
2.45196e-06
2.45269e-06
2.45197e-06
2.45276e-06
2.45126e-06
2.45015e-06
2.4437e-06
2.42771e-06
2.41625e-06
2.12065e-06
2.13207e-06
2.14729e-06
2.15365e-06
2.15476e-06
2.15621e-06
2.15544e-06
2.15613e-06
2.15543e-06
2.1559e-06
2.15545e-06
2.15577e-06
2.15547e-06
2.15568e-06
2.15548e-06
2.15563e-06
2.15549e-06
2.15561e-06
2.15552e-06
2.15559e-06
2.15553e-06
2.15557e-06
2.15553e-06
2.15555e-06
2.15554e-06
2.15554e-06
2.15555e-06
2.15553e-06
2.15557e-06
2.15553e-06
2.15559e-06
2.15552e-06
2.15561e-06
2.15549e-06
2.15564e-06
2.15548e-06
2.15568e-06
2.15547e-06
2.15577e-06
2.15545e-06
2.1559e-06
2.15543e-06
2.15613e-06
2.15544e-06
2.15621e-06
2.15475e-06
2.15365e-06
2.14729e-06
2.13207e-06
2.12065e-06
1.8785e-06
1.8893e-06
1.90288e-06
1.90873e-06
1.90984e-06
1.91115e-06
1.9105e-06
1.91109e-06
1.91048e-06
1.91088e-06
1.91048e-06
1.91076e-06
1.9105e-06
1.91068e-06
1.91051e-06
1.91064e-06
1.91051e-06
1.91061e-06
1.91054e-06
1.91059e-06
1.91054e-06
1.91058e-06
1.91055e-06
1.91057e-06
1.91056e-06
1.91056e-06
1.91057e-06
1.91055e-06
1.91058e-06
1.91054e-06
1.91059e-06
1.91054e-06
1.91061e-06
1.91051e-06
1.91064e-06
1.91051e-06
1.91068e-06
1.9105e-06
1.91076e-06
1.91048e-06
1.91088e-06
1.91048e-06
1.91109e-06
1.9105e-06
1.91115e-06
1.90984e-06
1.90873e-06
1.90288e-06
1.8893e-06
1.8785e-06
1.68619e-06
1.69674e-06
1.70913e-06
1.71462e-06
1.71575e-06
1.71696e-06
1.71638e-06
1.71691e-06
1.71635e-06
1.71671e-06
1.71635e-06
1.7166e-06
1.71636e-06
1.71652e-06
1.71637e-06
1.71648e-06
1.71637e-06
1.71646e-06
1.71639e-06
1.71644e-06
1.7164e-06
1.71643e-06
1.7164e-06
1.71642e-06
1.71641e-06
1.71641e-06
1.71642e-06
1.7164e-06
1.71643e-06
1.7164e-06
1.71644e-06
1.71639e-06
1.71646e-06
1.71637e-06
1.71648e-06
1.71637e-06
1.71652e-06
1.71636e-06
1.7166e-06
1.71635e-06
1.71671e-06
1.71635e-06
1.71691e-06
1.71638e-06
1.71695e-06
1.71574e-06
1.71462e-06
1.70913e-06
1.69674e-06
1.68619e-06
1.5268e-06
1.53727e-06
1.54865e-06
1.55382e-06
1.55495e-06
1.55607e-06
1.55556e-06
1.55603e-06
1.55553e-06
1.55585e-06
1.55552e-06
1.55574e-06
1.55553e-06
1.55567e-06
1.55553e-06
1.55564e-06
1.55553e-06
1.55561e-06
1.55555e-06
1.5556e-06
1.55556e-06
1.55558e-06
1.55556e-06
1.55557e-06
1.55557e-06
1.55557e-06
1.55557e-06
1.55556e-06
1.55558e-06
1.55556e-06
1.5556e-06
1.55555e-06
1.55561e-06
1.55553e-06
1.55564e-06
1.55553e-06
1.55567e-06
1.55553e-06
1.55574e-06
1.55552e-06
1.55585e-06
1.55553e-06
1.55603e-06
1.55556e-06
1.55607e-06
1.55495e-06
1.55382e-06
1.54865e-06
1.53727e-06
1.5268e-06
1.39387e-06
1.4005e-06
1.41051e-06
1.41525e-06
1.41647e-06
1.4175e-06
1.4171e-06
1.41749e-06
1.41706e-06
1.41731e-06
1.41703e-06
1.4172e-06
1.41702e-06
1.41713e-06
1.41701e-06
1.4171e-06
1.41701e-06
1.41708e-06
1.41702e-06
1.41706e-06
1.41703e-06
1.41705e-06
1.41703e-06
1.41704e-06
1.41704e-06
1.41704e-06
1.41704e-06
1.41703e-06
1.41705e-06
1.41703e-06
1.41706e-06
1.41702e-06
1.41708e-06
1.41701e-06
1.4171e-06
1.41701e-06
1.41714e-06
1.41702e-06
1.4172e-06
1.41703e-06
1.41731e-06
1.41705e-06
1.41749e-06
1.4171e-06
1.4175e-06
1.41647e-06
1.41525e-06
1.41051e-06
1.4005e-06
1.39387e-06
1.28234e-06
1.28883e-06
1.29806e-06
1.30254e-06
1.30374e-06
1.30472e-06
1.30436e-06
1.30471e-06
1.30431e-06
1.30454e-06
1.30428e-06
1.30444e-06
1.30427e-06
1.30437e-06
1.30426e-06
1.30434e-06
1.30426e-06
1.30432e-06
1.30427e-06
1.3043e-06
1.30427e-06
1.30429e-06
1.30427e-06
1.30428e-06
1.30428e-06
1.30428e-06
1.30428e-06
1.30427e-06
1.30429e-06
1.30427e-06
1.3043e-06
1.30427e-06
1.30432e-06
1.30426e-06
1.30434e-06
1.30426e-06
1.30437e-06
1.30427e-06
1.30444e-06
1.30428e-06
1.30454e-06
1.30431e-06
1.30471e-06
1.30436e-06
1.30472e-06
1.30374e-06
1.30254e-06
1.29806e-06
1.28883e-06
1.28234e-06
1.18454e-06
1.19096e-06
1.19967e-06
1.20402e-06
1.20525e-06
1.20619e-06
1.20586e-06
1.20618e-06
1.20581e-06
1.20601e-06
1.20577e-06
1.20591e-06
1.20575e-06
1.20585e-06
1.20574e-06
1.20581e-06
1.20574e-06
1.20579e-06
1.20575e-06
1.20578e-06
1.20575e-06
1.20577e-06
1.20575e-06
1.20576e-06
1.20576e-06
1.20576e-06
1.20576e-06
1.20575e-06
1.20577e-06
1.20575e-06
1.20578e-06
1.20575e-06
1.20579e-06
1.20574e-06
1.20581e-06
1.20574e-06
1.20585e-06
1.20575e-06
1.20591e-06
1.20577e-06
1.20601e-06
1.20581e-06
1.20618e-06
1.20586e-06
1.20619e-06
1.20525e-06
1.20402e-06
1.19967e-06
1.19096e-06
1.18454e-06
1.10121e-06
1.10743e-06
1.11546e-06
1.11956e-06
1.12077e-06
1.12165e-06
1.12136e-06
1.12165e-06
1.12131e-06
1.12149e-06
1.12127e-06
1.12139e-06
1.12125e-06
1.12133e-06
1.12123e-06
1.1213e-06
1.12123e-06
1.12128e-06
1.12124e-06
1.12127e-06
1.12124e-06
1.12126e-06
1.12124e-06
1.12125e-06
1.12124e-06
1.12124e-06
1.12125e-06
1.12124e-06
1.12126e-06
1.12124e-06
1.12127e-06
1.12124e-06
1.12128e-06
1.12123e-06
1.1213e-06
1.12123e-06
1.12133e-06
1.12125e-06
1.12139e-06
1.12127e-06
1.12149e-06
1.12131e-06
1.12165e-06
1.12136e-06
1.12165e-06
1.12077e-06
1.11956e-06
1.11546e-06
1.10743e-06
1.10121e-06
1.02965e-06
1.0357e-06
1.04313e-06
1.047e-06
1.04819e-06
1.04902e-06
1.04877e-06
1.04902e-06
1.04871e-06
1.04886e-06
1.04866e-06
1.04877e-06
1.04864e-06
1.04871e-06
1.04862e-06
1.04868e-06
1.04862e-06
1.04866e-06
1.04862e-06
1.04865e-06
1.04863e-06
1.04864e-06
1.04863e-06
1.04863e-06
1.04863e-06
1.04863e-06
1.04863e-06
1.04863e-06
1.04864e-06
1.04863e-06
1.04865e-06
1.04862e-06
1.04866e-06
1.04862e-06
1.04868e-06
1.04862e-06
1.04871e-06
1.04864e-06
1.04877e-06
1.04866e-06
1.04886e-06
1.04871e-06
1.04902e-06
1.04877e-06
1.04902e-06
1.04819e-06
1.047e-06
1.04313e-06
1.0357e-06
1.02965e-06
9.6772e-07
9.73598e-07
9.80519e-07
9.84179e-07
9.85343e-07
9.86127e-07
9.85905e-07
9.86133e-07
9.85848e-07
9.85979e-07
9.85795e-07
9.85887e-07
9.85766e-07
9.85829e-07
9.85751e-07
9.85799e-07
9.85744e-07
9.85783e-07
9.8575e-07
9.85773e-07
9.8575e-07
9.85763e-07
9.8575e-07
9.85757e-07
9.85754e-07
9.85754e-07
9.85757e-07
9.8575e-07
9.85764e-07
9.8575e-07
9.85773e-07
9.85749e-07
9.85783e-07
9.85744e-07
9.85799e-07
9.85751e-07
9.8583e-07
9.85766e-07
9.85887e-07
9.85795e-07
9.8598e-07
9.85847e-07
9.86132e-07
9.85905e-07
9.86125e-07
9.85342e-07
9.84179e-07
9.80519e-07
9.73598e-07
9.6772e-07
9.13706e-07
9.19414e-07
9.259e-07
9.29361e-07
9.30501e-07
9.31244e-07
9.31047e-07
9.31251e-07
9.30987e-07
9.31102e-07
9.3093e-07
9.31011e-07
9.30899e-07
9.30955e-07
9.30883e-07
9.30925e-07
9.30875e-07
9.3091e-07
9.30879e-07
9.309e-07
9.30879e-07
9.30891e-07
9.30879e-07
9.30886e-07
9.30882e-07
9.30882e-07
9.30886e-07
9.30879e-07
9.30891e-07
9.30879e-07
9.309e-07
9.30879e-07
9.3091e-07
9.30875e-07
9.30926e-07
9.30883e-07
9.30955e-07
9.30899e-07
9.31011e-07
9.30931e-07
9.31102e-07
9.30987e-07
9.31251e-07
9.31047e-07
9.31243e-07
9.305e-07
9.29361e-07
9.25899e-07
9.19414e-07
9.13706e-07
8.66225e-07
8.71768e-07
8.77874e-07
8.81153e-07
8.82267e-07
8.82974e-07
8.82798e-07
8.82981e-07
8.82735e-07
8.82835e-07
8.82675e-07
8.82745e-07
8.82641e-07
8.8269e-07
8.82623e-07
8.82661e-07
8.82614e-07
8.82646e-07
8.82617e-07
8.82636e-07
8.82617e-07
8.82628e-07
8.82616e-07
8.82623e-07
8.82619e-07
8.82619e-07
8.82623e-07
8.82617e-07
8.82628e-07
8.82617e-07
8.82636e-07
8.82617e-07
8.82646e-07
8.82614e-07
8.82661e-07
8.82623e-07
8.8269e-07
8.82641e-07
8.82745e-07
8.82675e-07
8.82835e-07
8.82735e-07
8.82981e-07
8.82798e-07
8.82973e-07
8.82266e-07
8.81152e-07
8.77874e-07
8.71768e-07
8.66225e-07
8.24163e-07
8.29545e-07
8.35316e-07
8.38426e-07
8.39513e-07
8.40188e-07
8.40029e-07
8.40194e-07
8.39964e-07
8.4005e-07
8.39899e-07
8.39961e-07
8.39863e-07
8.39906e-07
8.39844e-07
8.39878e-07
8.39834e-07
8.39863e-07
8.39836e-07
8.39854e-07
8.39836e-07
8.39846e-07
8.39835e-07
8.39841e-07
8.39838e-07
8.39838e-07
8.39841e-07
8.39835e-07
8.39846e-07
8.39836e-07
8.39854e-07
8.39836e-07
8.39863e-07
8.39834e-07
8.39878e-07
8.39844e-07
8.39907e-07
8.39863e-07
8.39961e-07
8.399e-07
8.4005e-07
8.39963e-07
8.40194e-07
8.40029e-07
8.40187e-07
8.39513e-07
8.38426e-07
8.35316e-07
8.29544e-07
8.24163e-07
7.86613e-07
7.91838e-07
7.97313e-07
8.00268e-07
8.01326e-07
8.01971e-07
8.01827e-07
8.01975e-07
8.01759e-07
8.01833e-07
8.01691e-07
8.01744e-07
8.01652e-07
8.01691e-07
8.01631e-07
8.01662e-07
8.01622e-07
8.01648e-07
8.01623e-07
8.01639e-07
8.01622e-07
8.01631e-07
8.01621e-07
8.01626e-07
8.01624e-07
8.01624e-07
8.01626e-07
8.01621e-07
8.01631e-07
8.01622e-07
8.01639e-07
8.01623e-07
8.01648e-07
8.01622e-07
8.01662e-07
8.01632e-07
8.01691e-07
8.01652e-07
8.01744e-07
8.01692e-07
8.01833e-07
8.01758e-07
8.01975e-07
8.01827e-07
8.0197e-07
8.01326e-07
8.00267e-07
7.97312e-07
7.91838e-07
7.86613e-07
7.52843e-07
7.57914e-07
7.63122e-07
7.65934e-07
7.66964e-07
7.6758e-07
7.67448e-07
7.67582e-07
7.67377e-07
7.67441e-07
7.67306e-07
7.67352e-07
7.67265e-07
7.67299e-07
7.67243e-07
7.67271e-07
7.67233e-07
7.67257e-07
7.67233e-07
7.67248e-07
7.67232e-07
7.6724e-07
7.67231e-07
7.67236e-07
7.67233e-07
7.67233e-07
7.67236e-07
7.67231e-07
7.67241e-07
7.67232e-07
7.67248e-07
7.67233e-07
7.67257e-07
7.67233e-07
7.67271e-07
7.67243e-07
7.67299e-07
7.67265e-07
7.67352e-07
7.67307e-07
7.67441e-07
7.67377e-07
7.67582e-07
7.67448e-07
7.67579e-07
7.66963e-07
7.65933e-07
7.63122e-07
7.57914e-07
7.52843e-07
7.22253e-07
7.27172e-07
7.3214e-07
7.34818e-07
7.35819e-07
7.36409e-07
7.36287e-07
7.36408e-07
7.36213e-07
7.36267e-07
7.36139e-07
7.36179e-07
7.36096e-07
7.36125e-07
7.36072e-07
7.36097e-07
7.36061e-07
7.36083e-07
7.36061e-07
7.36075e-07
7.3606e-07
7.36067e-07
7.36059e-07
7.36063e-07
7.36061e-07
7.36061e-07
7.36063e-07
7.36059e-07
7.36068e-07
7.3606e-07
7.36075e-07
7.36061e-07
7.36083e-07
7.36061e-07
7.36098e-07
7.36072e-07
7.36126e-07
7.36096e-07
7.36178e-07
7.36139e-07
7.36267e-07
7.36213e-07
7.36408e-07
7.36287e-07
7.36408e-07
7.35818e-07
7.34818e-07
7.32139e-07
7.27172e-07
7.22253e-07
6.94353e-07
6.99122e-07
7.03871e-07
7.06426e-07
7.07396e-07
7.07962e-07
7.07848e-07
7.07956e-07
7.0777e-07
7.07816e-07
7.07693e-07
7.07727e-07
7.07648e-07
7.07674e-07
7.07623e-07
7.07646e-07
7.07612e-07
7.07632e-07
7.07611e-07
7.07624e-07
7.07609e-07
7.07617e-07
7.07608e-07
7.07612e-07
7.0761e-07
7.0761e-07
7.07612e-07
7.07608e-07
7.07617e-07
7.07609e-07
7.07623e-07
7.07611e-07
7.07632e-07
7.07612e-07
7.07646e-07
7.07623e-07
7.07674e-07
7.07648e-07
7.07727e-07
7.07693e-07
7.07816e-07
7.0777e-07
7.07956e-07
7.07848e-07
7.07961e-07
7.07395e-07
7.06426e-07
7.0387e-07
6.99122e-07
6.94353e-07
6.68744e-07
6.73361e-07
6.7791e-07
6.80351e-07
6.81288e-07
6.81831e-07
6.81724e-07
6.81821e-07
6.81642e-07
6.8168e-07
6.81562e-07
6.81591e-07
6.81515e-07
6.81538e-07
6.8149e-07
6.8151e-07
6.81477e-07
6.81496e-07
6.81476e-07
6.81488e-07
6.81474e-07
6.81481e-07
6.81473e-07
6.81477e-07
6.81475e-07
6.81475e-07
6.81477e-07
6.81473e-07
6.81481e-07
6.81474e-07
6.81488e-07
6.81476e-07
6.81496e-07
6.81478e-07
6.8151e-07
6.8149e-07
6.81538e-07
6.81515e-07
6.81591e-07
6.81562e-07
6.8168e-07
6.81642e-07
6.81821e-07
6.81723e-07
6.8183e-07
6.81288e-07
6.8035e-07
6.77909e-07
6.7336e-07
6.68744e-07
6.45096e-07
6.49557e-07
6.53923e-07
6.56257e-07
6.57162e-07
6.57683e-07
6.5758e-07
6.57668e-07
6.57495e-07
6.57526e-07
6.57412e-07
6.57437e-07
6.57363e-07
6.57383e-07
6.57337e-07
6.57355e-07
6.57324e-07
6.57341e-07
6.57322e-07
6.57333e-07
6.5732e-07
6.57326e-07
6.57319e-07
6.57322e-07
6.5732e-07
6.5732e-07
6.57322e-07
6.57319e-07
6.57327e-07
6.5732e-07
6.57333e-07
6.57322e-07
6.57341e-07
6.57324e-07
6.57355e-07
6.57337e-07
6.57384e-07
6.57363e-07
6.57437e-07
6.57412e-07
6.57526e-07
6.57495e-07
6.57667e-07
6.5758e-07
6.57682e-07
6.57162e-07
6.56256e-07
6.53923e-07
6.49557e-07
6.45096e-07
6.23137e-07
6.27438e-07
6.31636e-07
6.33869e-07
6.34742e-07
6.3524e-07
6.35141e-07
6.3522e-07
6.35053e-07
6.35077e-07
6.34967e-07
6.34987e-07
6.34916e-07
6.34934e-07
6.34889e-07
6.34906e-07
6.34876e-07
6.34892e-07
6.34873e-07
6.34884e-07
6.34871e-07
6.34877e-07
6.3487e-07
6.34873e-07
6.34871e-07
6.34871e-07
6.34873e-07
6.3487e-07
6.34877e-07
6.34871e-07
6.34883e-07
6.34873e-07
6.34892e-07
6.34876e-07
6.34906e-07
6.34889e-07
6.34934e-07
6.34916e-07
6.34987e-07
6.34967e-07
6.35078e-07
6.35053e-07
6.3522e-07
6.35141e-07
6.3524e-07
6.34741e-07
6.33868e-07
6.31636e-07
6.27437e-07
6.23137e-07
6.02643e-07
6.06776e-07
6.10821e-07
6.12958e-07
6.13799e-07
6.14276e-07
6.1418e-07
6.14249e-07
6.14087e-07
6.14106e-07
6.13999e-07
6.14015e-07
6.13946e-07
6.13962e-07
6.13918e-07
6.13933e-07
6.13904e-07
6.13919e-07
6.13902e-07
6.13911e-07
6.13899e-07
6.13905e-07
6.13898e-07
6.13901e-07
6.13899e-07
6.13899e-07
6.13901e-07
6.13898e-07
6.13905e-07
6.13899e-07
6.13911e-07
6.13901e-07
6.13919e-07
6.13905e-07
6.13933e-07
6.13918e-07
6.13962e-07
6.13946e-07
6.14015e-07
6.13999e-07
6.14106e-07
6.14087e-07
6.14249e-07
6.14179e-07
6.14275e-07
6.13798e-07
6.12957e-07
6.10821e-07
6.06776e-07
6.02643e-07
5.83417e-07
5.87396e-07
5.9129e-07
5.93335e-07
5.94143e-07
5.946e-07
5.94505e-07
5.94567e-07
5.94409e-07
5.94423e-07
5.94318e-07
5.94331e-07
5.94264e-07
5.94277e-07
5.94235e-07
5.94248e-07
5.94221e-07
5.94234e-07
5.94217e-07
5.94226e-07
5.94215e-07
5.9422e-07
5.94213e-07
5.94216e-07
5.94214e-07
5.94214e-07
5.94216e-07
5.94213e-07
5.9422e-07
5.94215e-07
5.94226e-07
5.94217e-07
5.94234e-07
5.94221e-07
5.94249e-07
5.94235e-07
5.94277e-07
5.94264e-07
5.94331e-07
5.94318e-07
5.94423e-07
5.94409e-07
5.94567e-07
5.94505e-07
5.94599e-07
5.94143e-07
5.93334e-07
5.9129e-07
5.87396e-07
5.83416e-07
5.65302e-07
5.69142e-07
5.72885e-07
5.74842e-07
5.75618e-07
5.76054e-07
5.75961e-07
5.76015e-07
5.75861e-07
5.75869e-07
5.75767e-07
5.75777e-07
5.75711e-07
5.75722e-07
5.75681e-07
5.75694e-07
5.75667e-07
5.7568e-07
5.75663e-07
5.75671e-07
5.7566e-07
5.75665e-07
5.75659e-07
5.75662e-07
5.7566e-07
5.7566e-07
5.75662e-07
5.75659e-07
5.75665e-07
5.7566e-07
5.75671e-07
5.75663e-07
5.7568e-07
5.75667e-07
5.75694e-07
5.75682e-07
5.75723e-07
5.75711e-07
5.75777e-07
5.75767e-07
5.75869e-07
5.75861e-07
5.76014e-07
5.75961e-07
5.76054e-07
5.75618e-07
5.74841e-07
5.72885e-07
5.69141e-07
5.65301e-07
5.48169e-07
5.51882e-07
5.55475e-07
5.57347e-07
5.58092e-07
5.58508e-07
5.58415e-07
5.58461e-07
5.5831e-07
5.58314e-07
5.58214e-07
5.58221e-07
5.58157e-07
5.58166e-07
5.58126e-07
5.58137e-07
5.58111e-07
5.58123e-07
5.58107e-07
5.58115e-07
5.58104e-07
5.58109e-07
5.58103e-07
5.58105e-07
5.58103e-07
5.58103e-07
5.58105e-07
5.58103e-07
5.58109e-07
5.58104e-07
5.58115e-07
5.58107e-07
5.58123e-07
5.58111e-07
5.58137e-07
5.58126e-07
5.58166e-07
5.58157e-07
5.58221e-07
5.58214e-07
5.58314e-07
5.5831e-07
5.58461e-07
5.58414e-07
5.58507e-07
5.58092e-07
5.57346e-07
5.55475e-07
5.51882e-07
5.48168e-07
5.31909e-07
5.35508e-07
5.38949e-07
5.4074e-07
5.41454e-07
5.41849e-07
5.41756e-07
5.41795e-07
5.41647e-07
5.41647e-07
5.41549e-07
5.41553e-07
5.4149e-07
5.41498e-07
5.41459e-07
5.41469e-07
5.41444e-07
5.41454e-07
5.41439e-07
5.41446e-07
5.41436e-07
5.4144e-07
5.41434e-07
5.41437e-07
5.41435e-07
5.41435e-07
5.41437e-07
5.41434e-07
5.4144e-07
5.41436e-07
5.41446e-07
5.41439e-07
5.41454e-07
5.41444e-07
5.41469e-07
5.41459e-07
5.41498e-07
5.4149e-07
5.41553e-07
5.41549e-07
5.41647e-07
5.41647e-07
5.41795e-07
5.41756e-07
5.41849e-07
5.41453e-07
5.40739e-07
5.38949e-07
5.35508e-07
5.31908e-07
5.1643e-07
5.19928e-07
5.23215e-07
5.24929e-07
5.2561e-07
5.25986e-07
5.25892e-07
5.25924e-07
5.25779e-07
5.25775e-07
5.25678e-07
5.2568e-07
5.25619e-07
5.25624e-07
5.25586e-07
5.25595e-07
5.25571e-07
5.25581e-07
5.25566e-07
5.25573e-07
5.25563e-07
5.25567e-07
5.25561e-07
5.25563e-07
5.25562e-07
5.25562e-07
5.25563e-07
5.25561e-07
5.25567e-07
5.25563e-07
5.25573e-07
5.25566e-07
5.25581e-07
5.25571e-07
5.25595e-07
5.25586e-07
5.25625e-07
5.25619e-07
5.2568e-07
5.25678e-07
5.25775e-07
5.25779e-07
5.25924e-07
5.25892e-07
5.25985e-07
5.2561e-07
5.24928e-07
5.23214e-07
5.19927e-07
5.16429e-07
5.01654e-07
5.05052e-07
5.08202e-07
5.09834e-07
5.10482e-07
5.10839e-07
5.10744e-07
5.1077e-07
5.10627e-07
5.10619e-07
5.10524e-07
5.10523e-07
5.10463e-07
5.10467e-07
5.1043e-07
5.10438e-07
5.10414e-07
5.10423e-07
5.10409e-07
5.10415e-07
5.10405e-07
5.10409e-07
5.10404e-07
5.10406e-07
5.10404e-07
5.10404e-07
5.10406e-07
5.10404e-07
5.10409e-07
5.10405e-07
5.10415e-07
5.10408e-07
5.10423e-07
5.10414e-07
5.10438e-07
5.1043e-07
5.10467e-07
5.10463e-07
5.10523e-07
5.10524e-07
5.10619e-07
5.10627e-07
5.1077e-07
5.10744e-07
5.10839e-07
5.10482e-07
5.09834e-07
5.08201e-07
5.05052e-07
5.01654e-07
4.87519e-07
4.90823e-07
4.93835e-07
4.95389e-07
4.96004e-07
4.96342e-07
4.96245e-07
4.96265e-07
4.96124e-07
4.96112e-07
4.96018e-07
4.96015e-07
4.95956e-07
4.95959e-07
4.95923e-07
4.9593e-07
4.95906e-07
4.95915e-07
4.95901e-07
4.95907e-07
4.95897e-07
4.95901e-07
4.95896e-07
4.95898e-07
4.95896e-07
4.95896e-07
4.95898e-07
4.95896e-07
4.95901e-07
4.95897e-07
4.95907e-07
4.95901e-07
4.95915e-07
4.95906e-07
4.9593e-07
4.95923e-07
4.95959e-07
4.95956e-07
4.96015e-07
4.96019e-07
4.96112e-07
4.96124e-07
4.96264e-07
4.96245e-07
4.96342e-07
4.96004e-07
4.95389e-07
4.93835e-07
4.90822e-07
4.87518e-07
4.73967e-07
4.77181e-07
4.80058e-07
4.81536e-07
4.82118e-07
4.82437e-07
4.82338e-07
4.82352e-07
4.82213e-07
4.82197e-07
4.82105e-07
4.821e-07
4.82042e-07
4.82044e-07
4.82008e-07
4.82014e-07
4.81991e-07
4.81999e-07
4.81985e-07
4.81991e-07
4.81982e-07
4.81985e-07
4.8198e-07
4.81982e-07
4.8198e-07
4.8198e-07
4.81982e-07
4.8198e-07
4.81985e-07
4.81982e-07
4.81991e-07
4.81985e-07
4.81999e-07
4.81991e-07
4.82014e-07
4.82008e-07
4.82044e-07
4.82042e-07
4.821e-07
4.82105e-07
4.82197e-07
4.82213e-07
4.82351e-07
4.82338e-07
4.82437e-07
4.82117e-07
4.81536e-07
4.80057e-07
4.77181e-07
4.73966e-07
4.6095e-07
4.64078e-07
4.66821e-07
4.68227e-07
4.68775e-07
4.69075e-07
4.68974e-07
4.68982e-07
4.68844e-07
4.68826e-07
4.68735e-07
4.68728e-07
4.6867e-07
4.68671e-07
4.68636e-07
4.68641e-07
4.68619e-07
4.68626e-07
4.68613e-07
4.68618e-07
4.68609e-07
4.68612e-07
4.68607e-07
4.68609e-07
4.68608e-07
4.68608e-07
4.68609e-07
4.68607e-07
4.68612e-07
4.68609e-07
4.68618e-07
4.68613e-07
4.68626e-07
4.68619e-07
4.68641e-07
4.68636e-07
4.68671e-07
4.6867e-07
4.68728e-07
4.68735e-07
4.68826e-07
4.68844e-07
4.68982e-07
4.68974e-07
4.69075e-07
4.68774e-07
4.68226e-07
4.6682e-07
4.64077e-07
4.6095e-07
4.48429e-07
4.51469e-07
4.54081e-07
4.55417e-07
4.55932e-07
4.56214e-07
4.56111e-07
4.56112e-07
4.55977e-07
4.55955e-07
4.55865e-07
4.55856e-07
4.558e-07
4.55799e-07
4.55764e-07
4.55769e-07
4.55747e-07
4.55754e-07
4.55741e-07
4.55746e-07
4.55737e-07
4.5574e-07
4.55735e-07
4.55737e-07
4.55736e-07
4.55736e-07
4.55737e-07
4.55735e-07
4.5574e-07
4.55737e-07
4.55746e-07
4.55741e-07
4.55754e-07
4.55747e-07
4.55769e-07
4.55765e-07
4.55799e-07
4.558e-07
4.55856e-07
4.55865e-07
4.55955e-07
4.55976e-07
4.56112e-07
4.56111e-07
4.56214e-07
4.55932e-07
4.55416e-07
4.54081e-07