/*--------------------------------*- C++ -*----------------------------------*\
| =========                 |                                                 |
| \\      /  F ield         | OpenFOAM: The Open Source CFD Toolbox           |
|  \\    /   O peration     | Version:  dev                                   |
|   \\  /    A nd           | Web:      www.OpenFOAM.org                      |
|    \\/     M anipulation  |                                                 |
\*---------------------------------------------------------------------------*/
FoamFile
{
    version     2.0;
    format      ascii;
    class       volScalarField;
    location    "0.1";
    object      C5H4OH;
}
// * * * * * * * * * * * * * * * * * * * * * * * * * * * * * * * * * * * * * //

dimensions      [0 0 0 0 0 0 0];

internalField   nonuniform List<scalar> 
8000
(
1.76297e-08
1.76077e-08
1.76165e-08
1.76176e-08
1.76189e-08
1.76182e-08
1.76186e-08
1.76182e-08
1.76185e-08
1.76182e-08
1.76184e-08
1.76182e-08
1.76184e-08
1.76183e-08
1.76183e-08
1.76183e-08
1.76183e-08
1.76183e-08
1.76183e-08
1.76183e-08
1.76183e-08
1.76183e-08
1.76183e-08
1.76183e-08
1.76183e-08
1.76183e-08
1.76183e-08
1.76183e-08
1.76183e-08
1.76183e-08
1.76183e-08
1.76183e-08
1.76183e-08
1.76183e-08
1.76183e-08
1.76184e-08
1.76182e-08
1.76184e-08
1.76182e-08
1.76184e-08
1.76182e-08
1.76185e-08
1.76182e-08
1.76186e-08
1.76182e-08
1.76189e-08
1.76176e-08
1.76165e-08
1.76077e-08
1.76297e-08
1.83267e-08
1.83007e-08
1.82883e-08
1.82796e-08
1.82791e-08
1.82766e-08
1.82775e-08
1.82764e-08
1.82772e-08
1.82765e-08
1.82771e-08
1.82766e-08
1.82771e-08
1.82767e-08
1.8277e-08
1.82768e-08
1.8277e-08
1.82768e-08
1.8277e-08
1.82769e-08
1.8277e-08
1.82769e-08
1.82769e-08
1.82769e-08
1.82769e-08
1.82769e-08
1.82769e-08
1.82769e-08
1.82769e-08
1.8277e-08
1.82769e-08
1.8277e-08
1.82768e-08
1.8277e-08
1.82768e-08
1.8277e-08
1.82767e-08
1.82771e-08
1.82766e-08
1.82771e-08
1.82765e-08
1.82772e-08
1.82764e-08
1.82776e-08
1.82766e-08
1.82791e-08
1.82796e-08
1.82883e-08
1.83007e-08
1.83267e-08
1.6249e-08
1.62224e-08
1.62033e-08
1.61917e-08
1.61904e-08
1.61875e-08
1.61885e-08
1.61872e-08
1.61882e-08
1.61874e-08
1.61881e-08
1.61875e-08
1.6188e-08
1.61877e-08
1.6188e-08
1.61877e-08
1.6188e-08
1.61878e-08
1.61879e-08
1.61878e-08
1.61879e-08
1.61878e-08
1.61879e-08
1.61879e-08
1.61879e-08
1.61879e-08
1.61879e-08
1.61879e-08
1.61878e-08
1.61879e-08
1.61878e-08
1.61879e-08
1.61878e-08
1.6188e-08
1.61877e-08
1.6188e-08
1.61877e-08
1.6188e-08
1.61875e-08
1.61881e-08
1.61874e-08
1.61882e-08
1.61872e-08
1.61885e-08
1.61875e-08
1.61904e-08
1.61917e-08
1.62033e-08
1.62224e-08
1.6249e-08
1.22958e-08
1.22753e-08
1.22593e-08
1.22494e-08
1.22476e-08
1.22454e-08
1.22459e-08
1.22451e-08
1.22457e-08
1.22452e-08
1.22457e-08
1.22453e-08
1.22456e-08
1.22454e-08
1.22456e-08
1.22455e-08
1.22456e-08
1.22455e-08
1.22456e-08
1.22455e-08
1.22456e-08
1.22456e-08
1.22456e-08
1.22456e-08
1.22456e-08
1.22456e-08
1.22456e-08
1.22456e-08
1.22456e-08
1.22456e-08
1.22455e-08
1.22456e-08
1.22455e-08
1.22456e-08
1.22455e-08
1.22456e-08
1.22454e-08
1.22456e-08
1.22453e-08
1.22457e-08
1.22452e-08
1.22457e-08
1.22451e-08
1.2246e-08
1.22454e-08
1.22476e-08
1.22494e-08
1.22593e-08
1.22753e-08
1.22958e-08
9.00731e-09
8.99425e-09
8.98472e-09
8.97783e-09
8.97601e-09
8.97472e-09
8.97473e-09
8.97439e-09
8.97458e-09
8.97442e-09
8.97458e-09
8.97448e-09
8.97459e-09
8.97452e-09
8.9746e-09
8.97455e-09
8.97461e-09
8.97457e-09
8.9746e-09
8.97458e-09
8.9746e-09
8.97459e-09
8.9746e-09
8.97459e-09
8.9746e-09
8.9746e-09
8.97459e-09
8.9746e-09
8.97459e-09
8.9746e-09
8.97458e-09
8.9746e-09
8.97457e-09
8.97461e-09
8.97455e-09
8.9746e-09
8.97452e-09
8.97459e-09
8.97448e-09
8.97458e-09
8.97442e-09
8.97458e-09
8.97439e-09
8.97473e-09
8.97472e-09
8.97601e-09
8.97783e-09
8.98472e-09
8.99425e-09
9.00731e-09
6.58963e-09
6.58204e-09
6.57771e-09
6.5733e-09
6.5716e-09
6.57097e-09
6.57066e-09
6.57065e-09
6.57058e-09
6.57063e-09
6.57061e-09
6.57064e-09
6.57064e-09
6.57066e-09
6.57065e-09
6.57067e-09
6.57067e-09
6.57067e-09
6.57067e-09
6.57068e-09
6.57067e-09
6.57068e-09
6.57068e-09
6.57068e-09
6.57068e-09
6.57068e-09
6.57068e-09
6.57068e-09
6.57068e-09
6.57067e-09
6.57068e-09
6.57067e-09
6.57067e-09
6.57067e-09
6.57067e-09
6.57065e-09
6.57066e-09
6.57063e-09
6.57064e-09
6.57061e-09
6.57063e-09
6.57058e-09
6.57065e-09
6.57066e-09
6.57097e-09
6.5716e-09
6.5733e-09
6.57772e-09
6.58204e-09
6.58963e-09
4.85945e-09
4.85556e-09
4.85487e-09
4.85226e-09
4.85079e-09
4.85058e-09
4.85011e-09
4.85028e-09
4.85006e-09
4.85024e-09
4.85011e-09
4.85023e-09
4.85014e-09
4.85022e-09
4.85017e-09
4.85022e-09
4.85018e-09
4.85022e-09
4.85019e-09
4.85022e-09
4.8502e-09
4.85021e-09
4.85021e-09
4.85021e-09
4.85021e-09
4.85021e-09
4.85021e-09
4.85021e-09
4.85021e-09
4.8502e-09
4.85022e-09
4.85019e-09
4.85022e-09
4.85018e-09
4.85022e-09
4.85017e-09
4.85022e-09
4.85014e-09
4.85023e-09
4.85011e-09
4.85024e-09
4.85006e-09
4.85028e-09
4.85011e-09
4.85058e-09
4.85079e-09
4.85226e-09
4.85487e-09
4.85555e-09
4.85945e-09
3.63284e-09
3.63132e-09
3.63294e-09
3.6316e-09
3.63038e-09
3.63042e-09
3.62989e-09
3.63016e-09
3.62986e-09
3.63009e-09
3.62991e-09
3.63007e-09
3.62995e-09
3.63006e-09
3.62998e-09
3.63005e-09
3.62999e-09
3.63004e-09
3.63001e-09
3.63004e-09
3.63001e-09
3.63003e-09
3.63002e-09
3.63003e-09
3.63002e-09
3.63002e-09
3.63003e-09
3.63002e-09
3.63003e-09
3.63001e-09
3.63004e-09
3.63001e-09
3.63004e-09
3.62999e-09
3.63005e-09
3.62998e-09
3.63006e-09
3.62995e-09
3.63007e-09
3.62991e-09
3.63009e-09
3.62986e-09
3.63016e-09
3.62989e-09
3.63042e-09
3.63038e-09
3.6316e-09
3.63294e-09
3.63132e-09
3.63284e-09
2.7629e-09
2.76287e-09
2.76583e-09
2.76534e-09
2.76437e-09
2.76454e-09
2.76401e-09
2.76431e-09
2.76399e-09
2.76424e-09
2.76404e-09
2.76421e-09
2.76408e-09
2.76419e-09
2.76411e-09
2.76418e-09
2.76412e-09
2.76417e-09
2.76414e-09
2.76417e-09
2.76414e-09
2.76416e-09
2.76415e-09
2.76416e-09
2.76415e-09
2.76415e-09
2.76416e-09
2.76415e-09
2.76416e-09
2.76414e-09
2.76417e-09
2.76414e-09
2.76417e-09
2.76412e-09
2.76418e-09
2.76411e-09
2.76419e-09
2.76408e-09
2.76421e-09
2.76404e-09
2.76424e-09
2.76399e-09
2.76431e-09
2.76401e-09
2.76454e-09
2.76437e-09
2.76534e-09
2.76583e-09
2.76287e-09
2.7629e-09
2.14458e-09
2.14547e-09
2.14917e-09
2.14924e-09
2.14847e-09
2.14872e-09
2.14822e-09
2.14853e-09
2.14821e-09
2.14845e-09
2.14825e-09
2.14842e-09
2.14829e-09
2.1484e-09
2.14831e-09
2.14839e-09
2.14832e-09
2.14838e-09
2.14834e-09
2.14837e-09
2.14834e-09
2.14836e-09
2.14835e-09
2.14836e-09
2.14835e-09
2.14835e-09
2.14836e-09
2.14835e-09
2.14836e-09
2.14834e-09
2.14837e-09
2.14834e-09
2.14838e-09
2.14832e-09
2.14839e-09
2.14831e-09
2.1484e-09
2.14829e-09
2.14842e-09
2.14825e-09
2.14845e-09
2.1482e-09
2.14853e-09
2.14822e-09
2.14872e-09
2.14847e-09
2.14924e-09
2.14917e-09
2.14547e-09
2.14458e-09
1.6996e-09
1.70107e-09
1.70513e-09
1.70558e-09
1.70498e-09
1.70527e-09
1.70479e-09
1.7051e-09
1.70479e-09
1.70502e-09
1.70483e-09
1.70499e-09
1.70486e-09
1.70497e-09
1.70488e-09
1.70496e-09
1.70489e-09
1.70495e-09
1.70491e-09
1.70494e-09
1.70491e-09
1.70493e-09
1.70492e-09
1.70493e-09
1.70492e-09
1.70492e-09
1.70493e-09
1.70492e-09
1.70493e-09
1.70491e-09
1.70494e-09
1.70491e-09
1.70495e-09
1.70489e-09
1.70496e-09
1.70488e-09
1.70497e-09
1.70486e-09
1.70499e-09
1.70483e-09
1.70502e-09
1.70479e-09
1.7051e-09
1.70479e-09
1.70527e-09
1.70498e-09
1.70558e-09
1.70513e-09
1.70107e-09
1.6996e-09
1.36229e-09
1.36399e-09
1.36787e-09
1.36849e-09
1.36803e-09
1.36831e-09
1.36789e-09
1.36816e-09
1.36788e-09
1.36809e-09
1.36791e-09
1.36806e-09
1.36794e-09
1.36804e-09
1.36796e-09
1.36803e-09
1.36797e-09
1.36802e-09
1.36799e-09
1.36801e-09
1.36799e-09
1.36801e-09
1.368e-09
1.368e-09
1.368e-09
1.368e-09
1.368e-09
1.368e-09
1.36801e-09
1.36799e-09
1.36801e-09
1.36799e-09
1.36802e-09
1.36797e-09
1.36803e-09
1.36796e-09
1.36804e-09
1.36794e-09
1.36806e-09
1.36792e-09
1.36809e-09
1.36788e-09
1.36816e-09
1.36789e-09
1.36831e-09
1.36803e-09
1.36848e-09
1.36787e-09
1.36399e-09
1.36229e-09
1.1211e-09
1.12305e-09
1.12693e-09
1.12771e-09
1.12735e-09
1.12764e-09
1.12725e-09
1.12751e-09
1.12724e-09
1.12744e-09
1.12728e-09
1.12741e-09
1.1273e-09
1.12739e-09
1.12732e-09
1.12738e-09
1.12733e-09
1.12737e-09
1.12734e-09
1.12737e-09
1.12735e-09
1.12736e-09
1.12735e-09
1.12736e-09
1.12735e-09
1.12735e-09
1.12736e-09
1.12735e-09
1.12736e-09
1.12735e-09
1.12737e-09
1.12734e-09
1.12737e-09
1.12733e-09
1.12738e-09
1.12732e-09
1.12739e-09
1.1273e-09
1.12741e-09
1.12728e-09
1.12744e-09
1.12724e-09
1.12751e-09
1.12725e-09
1.12764e-09
1.12735e-09
1.12771e-09
1.12693e-09
1.12305e-09
1.1211e-09
9.38213e-10
9.39565e-10
9.42708e-10
9.43394e-10
9.4322e-10
9.43441e-10
9.43161e-10
9.43347e-10
9.4315e-10
9.43294e-10
9.4317e-10
9.4327e-10
9.43188e-10
9.43253e-10
9.43199e-10
9.43245e-10
9.43206e-10
9.43239e-10
9.43215e-10
9.43234e-10
9.43219e-10
9.4323e-10
9.43221e-10
9.43227e-10
9.43224e-10
9.43224e-10
9.43227e-10
9.43221e-10
9.4323e-10
9.43219e-10
9.43234e-10
9.43215e-10
9.43239e-10
9.43206e-10
9.43245e-10
9.43199e-10
9.43253e-10
9.43188e-10
9.4327e-10
9.4317e-10
9.43295e-10
9.4315e-10
9.43347e-10
9.43162e-10
9.43441e-10
9.43219e-10
9.43394e-10
9.42708e-10
9.39565e-10
9.38213e-10
7.93714e-10
7.95092e-10
7.97957e-10
7.98656e-10
7.98541e-10
7.98744e-10
7.985e-10
7.98662e-10
7.98488e-10
7.98613e-10
7.98504e-10
7.98591e-10
7.98519e-10
7.98576e-10
7.98529e-10
7.98569e-10
7.98535e-10
7.98564e-10
7.98542e-10
7.98559e-10
7.98546e-10
7.98556e-10
7.98548e-10
7.98553e-10
7.98551e-10
7.98551e-10
7.98553e-10
7.98548e-10
7.98556e-10
7.98546e-10
7.98559e-10
7.98542e-10
7.98563e-10
7.98535e-10
7.98569e-10
7.98529e-10
7.98576e-10
7.98519e-10
7.98591e-10
7.98504e-10
7.98614e-10
7.98487e-10
7.98662e-10
7.985e-10
7.98743e-10
7.98541e-10
7.98655e-10
7.97957e-10
7.95092e-10
7.93714e-10
6.85396e-10
6.86825e-10
6.89518e-10
6.9024e-10
6.90172e-10
6.90365e-10
6.90146e-10
6.90293e-10
6.90134e-10
6.90247e-10
6.90147e-10
6.90226e-10
6.90161e-10
6.90212e-10
6.90169e-10
6.90205e-10
6.90174e-10
6.90201e-10
6.90181e-10
6.90197e-10
6.90184e-10
6.90193e-10
6.90186e-10
6.90191e-10
6.90189e-10
6.90189e-10
6.90191e-10
6.90186e-10
6.90194e-10
6.90184e-10
6.90197e-10
6.90181e-10
6.902e-10
6.90174e-10
6.90205e-10
6.90169e-10
6.90212e-10
6.90161e-10
6.90226e-10
6.90148e-10
6.90247e-10
6.90133e-10
6.90293e-10
6.90146e-10
6.90365e-10
6.90172e-10
6.9024e-10
6.89518e-10
6.86825e-10
6.85396e-10
5.96926e-10
5.98512e-10
6.01176e-10
6.02004e-10
6.02011e-10
6.02213e-10
6.02014e-10
6.02149e-10
6.01999e-10
6.02103e-10
6.02009e-10
6.02081e-10
6.0202e-10
6.02067e-10
6.02026e-10
6.0206e-10
6.0203e-10
6.02055e-10
6.02037e-10
6.02051e-10
6.0204e-10
6.02048e-10
6.02041e-10
6.02046e-10
6.02044e-10
6.02044e-10
6.02046e-10
6.02041e-10
6.02048e-10
6.0204e-10
6.02051e-10
6.02037e-10
6.02055e-10
6.02031e-10
6.0206e-10
6.02026e-10
6.02067e-10
6.0202e-10
6.02081e-10
6.02009e-10
6.02103e-10
6.01999e-10
6.02149e-10
6.02014e-10
6.02212e-10
6.02011e-10
6.02004e-10
6.01176e-10
5.98512e-10
5.96926e-10
5.28361e-10
5.29961e-10
5.32445e-10
5.33265e-10
5.33303e-10
5.33493e-10
5.33315e-10
5.33437e-10
5.333e-10
5.33393e-10
5.33308e-10
5.33373e-10
5.33317e-10
5.33359e-10
5.33323e-10
5.33352e-10
5.33326e-10
5.33348e-10
5.33332e-10
5.33345e-10
5.33334e-10
5.33342e-10
5.33336e-10
5.3334e-10
5.33338e-10
5.33338e-10
5.3334e-10
5.33336e-10
5.33342e-10
5.33334e-10
5.33345e-10
5.33332e-10
5.33348e-10
5.33326e-10
5.33353e-10
5.33323e-10
5.33359e-10
5.33317e-10
5.33372e-10
5.33308e-10
5.33393e-10
5.333e-10
5.33437e-10
5.33315e-10
5.33493e-10
5.33303e-10
5.33265e-10
5.32445e-10
5.29961e-10
5.28362e-10
4.7058e-10
4.72316e-10
4.7479e-10
4.7567e-10
4.75724e-10
4.75922e-10
4.75744e-10
4.75866e-10
4.75729e-10
4.75822e-10
4.75737e-10
4.75801e-10
4.75746e-10
4.75788e-10
4.75752e-10
4.75781e-10
4.75755e-10
4.75777e-10
4.75761e-10
4.75774e-10
4.75763e-10
4.75771e-10
4.75765e-10
4.75769e-10
4.75767e-10
4.75767e-10
4.75769e-10
4.75765e-10
4.75771e-10
4.75763e-10
4.75774e-10
4.75761e-10
4.75777e-10
4.75755e-10
4.75782e-10
4.75751e-10
4.75788e-10
4.75746e-10
4.75801e-10
4.75737e-10
4.75822e-10
4.75729e-10
4.75866e-10
4.75744e-10
4.75922e-10
4.75724e-10
4.7567e-10
4.7479e-10
4.72316e-10
4.7058e-10
4.22875e-10
4.24605e-10
4.26873e-10
4.27718e-10
4.2779e-10
4.27973e-10
4.27814e-10
4.27922e-10
4.27799e-10
4.2788e-10
4.27804e-10
4.27862e-10
4.27812e-10
4.27849e-10
4.27817e-10
4.27843e-10
4.2782e-10
4.2784e-10
4.27825e-10
4.27837e-10
4.27827e-10
4.27834e-10
4.27828e-10
4.27832e-10
4.2783e-10
4.2783e-10
4.27832e-10
4.27828e-10
4.27834e-10
4.27827e-10
4.27837e-10
4.27825e-10
4.27839e-10
4.2782e-10
4.27843e-10
4.27817e-10
4.27849e-10
4.27812e-10
4.27861e-10
4.27804e-10
4.27881e-10
4.27798e-10
4.27922e-10
4.27814e-10
4.27972e-10
4.2779e-10
4.27718e-10
4.26873e-10
4.24605e-10
4.22875e-10
3.84466e-10
3.86233e-10
3.88361e-10
3.89187e-10
3.89274e-10
3.89448e-10
3.89302e-10
3.89402e-10
3.89287e-10
3.89362e-10
3.89291e-10
3.89344e-10
3.89298e-10
3.89332e-10
3.89302e-10
3.89327e-10
3.89305e-10
3.89323e-10
3.8931e-10
3.8932e-10
3.89312e-10
3.89318e-10
3.89313e-10
3.89316e-10
3.89314e-10
3.89314e-10
3.89316e-10
3.89313e-10
3.89318e-10
3.89312e-10
3.8932e-10
3.89309e-10
3.89323e-10
3.89305e-10
3.89327e-10
3.89302e-10
3.89332e-10
3.89298e-10
3.89344e-10
3.89292e-10
3.89362e-10
3.89287e-10
3.89401e-10
3.89302e-10
3.89448e-10
3.89274e-10
3.89187e-10
3.88361e-10
3.86233e-10
3.84466e-10
3.52006e-10
3.53826e-10
3.55833e-10
3.5664e-10
3.56739e-10
3.56906e-10
3.5677e-10
3.56862e-10
3.56755e-10
3.56824e-10
3.56758e-10
3.56807e-10
3.56764e-10
3.56796e-10
3.56767e-10
3.5679e-10
3.5677e-10
3.56787e-10
3.56774e-10
3.56784e-10
3.56776e-10
3.56782e-10
3.56777e-10
3.5678e-10
3.56779e-10
3.56779e-10
3.5678e-10
3.56777e-10
3.56782e-10
3.56776e-10
3.56784e-10
3.56774e-10
3.56787e-10
3.5677e-10
3.5679e-10
3.56767e-10
3.56796e-10
3.56764e-10
3.56807e-10
3.56758e-10
3.56824e-10
3.56755e-10
3.56862e-10
3.5677e-10
3.56906e-10
3.56739e-10
3.5664e-10
3.55833e-10
3.53826e-10
3.52006e-10
3.24266e-10
3.25343e-10
3.2714e-10
3.27901e-10
3.28028e-10
3.28185e-10
3.2807e-10
3.28148e-10
3.28053e-10
3.2811e-10
3.28052e-10
3.28092e-10
3.28054e-10
3.28081e-10
3.28056e-10
3.28076e-10
3.28058e-10
3.28072e-10
3.28061e-10
3.2807e-10
3.28063e-10
3.28068e-10
3.28063e-10
3.28066e-10
3.28065e-10
3.28065e-10
3.28066e-10
3.28063e-10
3.28068e-10
3.28063e-10
3.2807e-10
3.28061e-10
3.28072e-10
3.28058e-10
3.28076e-10
3.28056e-10
3.28081e-10
3.28054e-10
3.28092e-10
3.28052e-10
3.2811e-10
3.28052e-10
3.28148e-10
3.2807e-10
3.28185e-10
3.28028e-10
3.27901e-10
3.2714e-10
3.25343e-10
3.24266e-10
3.00317e-10
3.01418e-10
3.03114e-10
3.03855e-10
3.03989e-10
3.0414e-10
3.04033e-10
3.04105e-10
3.04015e-10
3.04068e-10
3.04014e-10
3.04051e-10
3.04015e-10
3.0404e-10
3.04017e-10
3.04035e-10
3.04018e-10
3.04032e-10
3.04021e-10
3.04029e-10
3.04023e-10
3.04027e-10
3.04023e-10
3.04026e-10
3.04025e-10
3.04025e-10
3.04026e-10
3.04023e-10
3.04027e-10
3.04023e-10
3.04029e-10
3.04021e-10
3.04032e-10
3.04018e-10
3.04035e-10
3.04017e-10
3.0404e-10
3.04015e-10
3.04051e-10
3.04014e-10
3.04069e-10
3.04015e-10
3.04105e-10
3.04033e-10
3.04139e-10
3.03988e-10
3.03854e-10
3.03114e-10
3.01418e-10
3.00317e-10
2.78636e-10
2.79768e-10
2.81411e-10
2.82158e-10
2.82305e-10
2.82456e-10
2.82355e-10
2.82423e-10
2.82336e-10
2.82386e-10
2.82333e-10
2.82368e-10
2.82334e-10
2.82357e-10
2.82335e-10
2.82352e-10
2.82336e-10
2.82349e-10
2.82339e-10
2.82347e-10
2.8234e-10
2.82345e-10
2.82341e-10
2.82343e-10
2.82342e-10
2.82342e-10
2.82343e-10
2.82341e-10
2.82345e-10
2.8234e-10
2.82347e-10
2.82339e-10
2.82349e-10
2.82336e-10
2.82352e-10
2.82335e-10
2.82357e-10
2.82334e-10
2.82368e-10
2.82333e-10
2.82386e-10
2.82336e-10
2.82423e-10
2.82355e-10
2.82456e-10
2.82305e-10
2.82158e-10
2.81411e-10
2.79768e-10
2.78636e-10
2.59522e-10
2.60653e-10
2.62196e-10
2.62916e-10
2.63067e-10
2.63211e-10
2.63117e-10
2.63179e-10
2.63098e-10
2.63143e-10
2.63094e-10
2.63126e-10
2.63094e-10
2.63116e-10
2.63095e-10
2.63111e-10
2.63096e-10
2.63108e-10
2.63098e-10
2.63106e-10
2.631e-10
2.63104e-10
2.631e-10
2.63102e-10
2.63101e-10
2.63101e-10
2.63102e-10
2.631e-10
2.63104e-10
2.631e-10
2.63106e-10
2.63098e-10
2.63108e-10
2.63096e-10
2.63111e-10
2.63095e-10
2.63116e-10
2.63094e-10
2.63126e-10
2.63094e-10
2.63144e-10
2.63098e-10
2.63179e-10
2.63117e-10
2.63211e-10
2.63067e-10
2.62916e-10
2.62196e-10
2.60653e-10
2.59522e-10
2.42522e-10
2.4365e-10
2.45102e-10
2.45796e-10
2.45949e-10
2.46087e-10
2.45999e-10
2.46056e-10
2.45981e-10
2.46022e-10
2.45976e-10
2.46005e-10
2.45975e-10
2.45995e-10
2.45975e-10
2.4599e-10
2.45976e-10
2.45987e-10
2.45979e-10
2.45985e-10
2.4598e-10
2.45983e-10
2.4598e-10
2.45982e-10
2.45981e-10
2.45981e-10
2.45982e-10
2.4598e-10
2.45984e-10
2.4598e-10
2.45985e-10
2.45979e-10
2.45987e-10
2.45976e-10
2.4599e-10
2.45975e-10
2.45995e-10
2.45975e-10
2.46005e-10
2.45976e-10
2.46022e-10
2.45981e-10
2.46056e-10
2.45999e-10
2.46086e-10
2.45948e-10
2.45796e-10
2.45102e-10
2.4365e-10
2.42522e-10
2.27283e-10
2.28403e-10
2.29775e-10
2.30442e-10
2.30596e-10
2.30728e-10
2.30646e-10
2.30699e-10
2.30628e-10
2.30665e-10
2.30622e-10
2.30649e-10
2.30621e-10
2.30639e-10
2.30621e-10
2.30634e-10
2.30621e-10
2.30632e-10
2.30624e-10
2.3063e-10
2.30625e-10
2.30628e-10
2.30625e-10
2.30627e-10
2.30626e-10
2.30626e-10
2.30627e-10
2.30625e-10
2.30628e-10
2.30625e-10
2.3063e-10
2.30624e-10
2.30632e-10
2.30621e-10
2.30635e-10
2.30621e-10
2.30639e-10
2.30621e-10
2.30649e-10
2.30622e-10
2.30665e-10
2.30628e-10
2.30699e-10
2.30646e-10
2.30728e-10
2.30595e-10
2.30442e-10
2.29775e-10
2.28403e-10
2.27283e-10
2.13525e-10
2.14634e-10
2.15933e-10
2.16574e-10
2.16727e-10
2.16855e-10
2.16778e-10
2.16827e-10
2.16759e-10
2.16794e-10
2.16753e-10
2.16778e-10
2.16751e-10
2.16768e-10
2.16751e-10
2.16764e-10
2.16751e-10
2.16761e-10
2.16753e-10
2.16759e-10
2.16754e-10
2.16758e-10
2.16755e-10
2.16756e-10
2.16756e-10
2.16756e-10
2.16757e-10
2.16755e-10
2.16758e-10
2.16754e-10
2.16759e-10
2.16753e-10
2.16761e-10
2.16751e-10
2.16764e-10
2.16751e-10
2.16768e-10
2.16751e-10
2.16778e-10
2.16753e-10
2.16794e-10
2.16759e-10
2.16827e-10
2.16778e-10
2.16854e-10
2.16727e-10
2.16574e-10
2.15933e-10
2.14634e-10
2.13525e-10
2.01028e-10
2.0212e-10
2.03354e-10
2.03969e-10
2.04122e-10
2.04244e-10
2.04172e-10
2.04217e-10
2.04153e-10
2.04185e-10
2.04146e-10
2.04169e-10
2.04144e-10
2.0416e-10
2.04143e-10
2.04155e-10
2.04144e-10
2.04153e-10
2.04145e-10
2.04151e-10
2.04146e-10
2.04149e-10
2.04147e-10
2.04148e-10
2.04148e-10
2.04148e-10
2.04148e-10
2.04147e-10
2.04149e-10
2.04146e-10
2.04151e-10
2.04145e-10
2.04153e-10
2.04144e-10
2.04155e-10
2.04143e-10
2.0416e-10
2.04144e-10
2.04169e-10
2.04146e-10
2.04185e-10
2.04153e-10
2.04217e-10
2.04172e-10
2.04244e-10
2.04121e-10
2.03969e-10
2.03354e-10
2.0212e-10
2.01028e-10
1.89612e-10
1.90686e-10
1.9186e-10
1.92449e-10
1.926e-10
1.92718e-10
1.9265e-10
1.92692e-10
1.92631e-10
1.9266e-10
1.92624e-10
1.92645e-10
1.92621e-10
1.92636e-10
1.9262e-10
1.92631e-10
1.9262e-10
1.92629e-10
1.92622e-10
1.92627e-10
1.92623e-10
1.92626e-10
1.92623e-10
1.92625e-10
1.92624e-10
1.92624e-10
1.92625e-10
1.92623e-10
1.92626e-10
1.92623e-10
1.92627e-10
1.92622e-10
1.92629e-10
1.9262e-10
1.92631e-10
1.9262e-10
1.92636e-10
1.92621e-10
1.92645e-10
1.92624e-10
1.9266e-10
1.92631e-10
1.92692e-10
1.9265e-10
1.92718e-10
1.926e-10
1.92449e-10
1.9186e-10
1.90686e-10
1.89612e-10
1.79136e-10
1.80189e-10
1.81308e-10
1.81872e-10
1.8202e-10
1.82134e-10
1.82069e-10
1.82108e-10
1.8205e-10
1.82077e-10
1.82042e-10
1.82062e-10
1.82039e-10
1.82053e-10
1.82038e-10
1.82049e-10
1.82038e-10
1.82046e-10
1.8204e-10
1.82045e-10
1.8204e-10
1.82043e-10
1.82041e-10
1.82042e-10
1.82042e-10
1.82042e-10
1.82042e-10
1.82041e-10
1.82043e-10
1.8204e-10
1.82045e-10
1.8204e-10
1.82046e-10
1.82038e-10
1.82049e-10
1.82038e-10
1.82053e-10
1.82039e-10
1.82062e-10
1.82042e-10
1.82077e-10
1.8205e-10
1.82108e-10
1.82069e-10
1.82133e-10
1.8202e-10
1.81872e-10
1.81307e-10
1.80189e-10
1.79136e-10
1.69485e-10
1.70515e-10
1.7158e-10
1.7212e-10
1.72265e-10
1.72374e-10
1.72313e-10
1.72349e-10
1.72295e-10
1.72319e-10
1.72286e-10
1.72304e-10
1.72283e-10
1.72295e-10
1.72281e-10
1.72291e-10
1.72281e-10
1.72289e-10
1.72283e-10
1.72287e-10
1.72283e-10
1.72286e-10
1.72283e-10
1.72285e-10
1.72284e-10
1.72284e-10
1.72285e-10
1.72284e-10
1.72286e-10
1.72283e-10
1.72287e-10
1.72283e-10
1.72289e-10
1.72281e-10
1.72291e-10
1.72281e-10
1.72295e-10
1.72283e-10
1.72304e-10
1.72286e-10
1.72319e-10
1.72294e-10
1.72349e-10
1.72313e-10
1.72374e-10
1.72265e-10
1.7212e-10
1.7158e-10
1.70514e-10
1.69485e-10
1.60561e-10
1.61566e-10
1.62581e-10
1.63098e-10
1.6324e-10
1.63345e-10
1.63287e-10
1.6332e-10
1.63268e-10
1.6329e-10
1.63259e-10
1.63276e-10
1.63256e-10
1.63267e-10
1.63254e-10
1.63263e-10
1.63254e-10
1.63261e-10
1.63255e-10
1.6326e-10
1.63256e-10
1.63258e-10
1.63256e-10
1.63257e-10
1.63257e-10
1.63257e-10
1.63257e-10
1.63256e-10
1.63258e-10
1.63256e-10
1.6326e-10
1.63255e-10
1.63261e-10
1.63254e-10
1.63263e-10
1.63254e-10
1.63267e-10
1.63256e-10
1.63276e-10
1.63259e-10
1.6329e-10
1.63268e-10
1.6332e-10
1.63287e-10
1.63345e-10
1.6324e-10
1.63098e-10
1.62581e-10
1.61566e-10
1.60561e-10
1.52288e-10
1.53266e-10
1.54233e-10
1.54727e-10
1.54866e-10
1.54966e-10
1.54911e-10
1.54942e-10
1.54892e-10
1.54913e-10
1.54883e-10
1.54898e-10
1.54879e-10
1.5489e-10
1.54877e-10
1.54886e-10
1.54877e-10
1.54884e-10
1.54878e-10
1.54882e-10
1.54879e-10
1.54881e-10
1.54879e-10
1.5488e-10
1.5488e-10
1.5488e-10
1.5488e-10
1.54879e-10
1.54881e-10
1.54879e-10
1.54882e-10
1.54878e-10
1.54884e-10
1.54877e-10
1.54886e-10
1.54877e-10
1.5489e-10
1.54879e-10
1.54898e-10
1.54883e-10
1.54913e-10
1.54892e-10
1.54942e-10
1.54911e-10
1.54966e-10
1.54866e-10
1.54727e-10
1.54233e-10
1.53266e-10
1.52288e-10
1.44599e-10
1.45547e-10
1.46469e-10
1.46942e-10
1.47076e-10
1.47172e-10
1.4712e-10
1.47148e-10
1.47101e-10
1.4712e-10
1.47091e-10
1.47106e-10
1.47087e-10
1.47097e-10
1.47086e-10
1.47093e-10
1.47085e-10
1.47091e-10
1.47086e-10
1.4709e-10
1.47087e-10
1.47089e-10
1.47087e-10
1.47088e-10
1.47087e-10
1.47087e-10
1.47088e-10
1.47087e-10
1.47089e-10
1.47087e-10
1.4709e-10
1.47086e-10
1.47091e-10
1.47085e-10
1.47093e-10
1.47086e-10
1.47097e-10
1.47087e-10
1.47105e-10
1.47092e-10
1.4712e-10
1.47101e-10
1.47148e-10
1.4712e-10
1.47172e-10
1.47076e-10
1.46942e-10
1.46469e-10
1.45547e-10
1.44599e-10
1.37438e-10
1.38355e-10
1.39234e-10
1.39686e-10
1.39815e-10
1.39908e-10
1.39858e-10
1.39884e-10
1.39839e-10
1.39856e-10
1.39829e-10
1.39842e-10
1.39824e-10
1.39834e-10
1.39823e-10
1.3983e-10
1.39822e-10
1.39828e-10
1.39823e-10
1.39827e-10
1.39823e-10
1.39825e-10
1.39823e-10
1.39825e-10
1.39824e-10
1.39824e-10
1.39825e-10
1.39823e-10
1.39825e-10
1.39823e-10
1.39827e-10
1.39823e-10
1.39828e-10
1.39822e-10
1.3983e-10
1.39823e-10
1.39834e-10
1.39824e-10
1.39842e-10
1.39829e-10
1.39856e-10
1.39839e-10
1.39884e-10
1.39858e-10
1.39907e-10
1.39815e-10
1.39686e-10
1.39234e-10
1.38355e-10
1.37438e-10
1.30758e-10
1.31641e-10
1.3248e-10
1.32911e-10
1.33036e-10
1.33124e-10
1.33077e-10
1.33101e-10
1.33058e-10
1.33073e-10
1.33047e-10
1.33059e-10
1.33043e-10
1.33052e-10
1.33041e-10
1.33048e-10
1.3304e-10
1.33046e-10
1.33041e-10
1.33045e-10
1.33041e-10
1.33044e-10
1.33042e-10
1.33043e-10
1.33042e-10
1.33042e-10
1.33043e-10
1.33042e-10
1.33044e-10
1.33041e-10
1.33045e-10
1.33041e-10
1.33046e-10
1.3304e-10
1.33048e-10
1.33041e-10
1.33052e-10
1.33043e-10
1.33059e-10
1.33048e-10
1.33073e-10
1.33058e-10
1.33101e-10
1.33077e-10
1.33124e-10
1.33036e-10
1.32911e-10
1.3248e-10
1.31641e-10
1.30758e-10
1.24518e-10
1.25364e-10
1.26165e-10
1.26577e-10
1.26697e-10
1.26781e-10
1.26736e-10
1.26758e-10
1.26717e-10
1.26731e-10
1.26706e-10
1.26717e-10
1.26702e-10
1.2671e-10
1.267e-10
1.26706e-10
1.26699e-10
1.26704e-10
1.267e-10
1.26703e-10
1.267e-10
1.26702e-10
1.267e-10
1.26701e-10
1.26701e-10
1.26701e-10
1.26701e-10
1.267e-10
1.26702e-10
1.267e-10
1.26703e-10
1.267e-10
1.26704e-10
1.26699e-10
1.26706e-10
1.267e-10
1.2671e-10
1.26702e-10
1.26717e-10
1.26707e-10
1.26731e-10
1.26717e-10
1.26758e-10
1.26736e-10
1.26781e-10
1.26697e-10
1.26577e-10
1.26165e-10
1.25364e-10
1.24518e-10
1.18679e-10
1.19491e-10
1.20255e-10
1.20647e-10
1.20762e-10
1.20843e-10
1.20799e-10
1.2082e-10
1.20781e-10
1.20793e-10
1.2077e-10
1.2078e-10
1.20765e-10
1.20773e-10
1.20763e-10
1.20769e-10
1.20762e-10
1.20767e-10
1.20763e-10
1.20766e-10
1.20763e-10
1.20765e-10
1.20763e-10
1.20764e-10
1.20764e-10
1.20764e-10
1.20764e-10
1.20763e-10
1.20765e-10
1.20763e-10
1.20766e-10
1.20763e-10
1.20767e-10
1.20762e-10
1.20769e-10
1.20763e-10
1.20773e-10
1.20765e-10
1.2078e-10
1.2077e-10
1.20793e-10
1.20781e-10
1.2082e-10
1.20799e-10
1.20843e-10
1.20762e-10
1.20647e-10
1.20255e-10
1.19491e-10
1.18679e-10
1.13211e-10
1.13991e-10
1.14717e-10
1.15091e-10
1.15201e-10
1.15277e-10
1.15236e-10
1.15255e-10
1.15217e-10
1.15229e-10
1.15207e-10
1.15216e-10
1.15201e-10
1.15208e-10
1.15199e-10
1.15205e-10
1.15198e-10
1.15203e-10
1.15199e-10
1.15202e-10
1.15199e-10
1.15201e-10
1.15199e-10
1.152e-10
1.152e-10
1.152e-10
1.152e-10
1.15199e-10
1.15201e-10
1.15199e-10
1.15202e-10
1.15199e-10
1.15203e-10
1.15198e-10
1.15205e-10
1.15199e-10
1.15208e-10
1.15201e-10
1.15216e-10
1.15207e-10
1.15229e-10
1.15217e-10
1.15255e-10
1.15236e-10
1.15277e-10
1.15201e-10
1.15091e-10
1.14717e-10
1.13991e-10
1.13211e-10
1.08085e-10
1.08835e-10
1.09524e-10
1.09879e-10
1.09985e-10
1.10057e-10
1.10018e-10
1.10035e-10
1.09999e-10
1.1001e-10
1.09988e-10
1.09997e-10
1.09983e-10
1.0999e-10
1.09981e-10
1.09986e-10
1.0998e-10
1.09984e-10
1.0998e-10
1.09983e-10
1.09981e-10
1.09982e-10
1.09981e-10
1.09982e-10
1.09981e-10
1.09981e-10
1.09982e-10
1.09981e-10
1.09982e-10
1.09981e-10
1.09983e-10
1.0998e-10
1.09984e-10
1.0998e-10
1.09986e-10
1.09981e-10
1.0999e-10
1.09983e-10
1.09997e-10
1.09988e-10
1.1001e-10
1.09999e-10
1.10035e-10
1.10018e-10
1.10057e-10
1.09985e-10
1.09879e-10
1.09524e-10
1.08835e-10
1.08085e-10
1.03276e-10
1.03998e-10
1.0465e-10
1.04988e-10
1.05088e-10
1.05157e-10
1.0512e-10
1.05135e-10
1.05101e-10
1.0511e-10
1.0509e-10
1.05098e-10
1.05085e-10
1.05091e-10
1.05082e-10
1.05087e-10
1.05082e-10
1.05086e-10
1.05082e-10
1.05085e-10
1.05082e-10
1.05084e-10
1.05082e-10
1.05083e-10
1.05083e-10
1.05083e-10
1.05083e-10
1.05082e-10
1.05084e-10
1.05082e-10
1.05085e-10
1.05082e-10
1.05086e-10
1.05082e-10
1.05087e-10
1.05082e-10
1.05091e-10
1.05085e-10
1.05098e-10
1.0509e-10
1.0511e-10
1.05101e-10
1.05135e-10
1.0512e-10
1.05157e-10
1.05088e-10
1.04988e-10
1.0465e-10
1.03998e-10
1.03276e-10
9.87613e-11
9.94577e-11
1.00073e-10
1.00394e-10
1.0049e-10
1.00555e-10
1.00519e-10
1.00533e-10
1.00501e-10
1.00509e-10
1.0049e-10
1.00497e-10
1.00484e-10
1.0049e-10
1.00482e-10
1.00486e-10
1.00481e-10
1.00485e-10
1.00481e-10
1.00484e-10
1.00481e-10
1.00483e-10
1.00482e-10
1.00482e-10
1.00482e-10
1.00482e-10
1.00482e-10
1.00482e-10
1.00483e-10
1.00481e-10
1.00484e-10
1.00481e-10
1.00485e-10
1.00481e-10
1.00486e-10
1.00482e-10
1.0049e-10
1.00484e-10
1.00496e-10
1.0049e-10
1.00509e-10
1.00501e-10
1.00533e-10
1.00519e-10
1.00555e-10
1.0049e-10
1.00394e-10
1.00073e-10
9.94576e-11
9.87613e-11
9.4521e-11
9.51918e-11
9.57741e-11
9.60776e-11
9.61681e-11
9.62302e-11
9.61956e-11
9.62083e-11
9.61774e-11
9.61848e-11
9.61662e-11
9.61726e-11
9.61608e-11
9.61659e-11
9.61583e-11
9.61627e-11
9.61575e-11
9.61612e-11
9.61578e-11
9.61602e-11
9.6158e-11
9.61594e-11
9.61581e-11
9.61588e-11
9.61584e-11
9.61584e-11
9.61588e-11
9.61581e-11
9.61594e-11
9.6158e-11
9.61602e-11
9.61578e-11
9.61612e-11
9.61575e-11
9.61627e-11
9.61584e-11
9.6166e-11
9.61608e-11
9.61725e-11
9.61663e-11
9.61848e-11
9.61774e-11
9.62082e-11
9.61955e-11
9.62301e-11
9.6168e-11
9.60775e-11
9.5774e-11
9.51917e-11
9.4521e-11
9.05364e-11
9.1183e-11
9.17328e-11
9.20195e-11
9.2105e-11
9.21638e-11
9.21307e-11
9.21421e-11
9.21127e-11
9.21192e-11
9.21015e-11
9.21073e-11
9.20961e-11
9.21008e-11
9.20936e-11
9.20976e-11
9.20927e-11
9.20962e-11
9.2093e-11
9.20953e-11
9.20931e-11
9.20945e-11
9.20932e-11
9.20939e-11
9.20936e-11
9.20936e-11
9.20939e-11
9.20932e-11
9.20945e-11
9.20931e-11
9.20953e-11
9.2093e-11
9.20962e-11
9.20927e-11
9.20976e-11
9.20936e-11
9.21008e-11
9.20961e-11
9.21072e-11
9.21015e-11
9.21192e-11
9.21127e-11
9.21421e-11
9.21306e-11
9.21637e-11
9.2105e-11
9.20195e-11
9.17327e-11
9.11829e-11
9.05364e-11
8.67906e-11
8.74138e-11
8.79322e-11
8.82029e-11
8.82835e-11
8.8339e-11
8.83073e-11
8.83176e-11
8.82895e-11
8.82952e-11
8.82783e-11
8.82835e-11
8.82729e-11
8.82773e-11
8.82704e-11
8.82742e-11
8.82695e-11
8.82728e-11
8.82698e-11
8.82719e-11
8.82699e-11
8.82712e-11
8.827e-11
8.82707e-11
8.82703e-11
8.82703e-11
8.82707e-11
8.827e-11
8.82712e-11
8.82699e-11
8.82719e-11
8.82698e-11
8.82728e-11
8.82695e-11
8.82742e-11
8.82704e-11
8.82773e-11
8.82729e-11
8.82835e-11
8.82784e-11
8.82952e-11
8.82895e-11
8.83175e-11
8.83073e-11
8.83389e-11
8.82834e-11
8.82028e-11
8.79321e-11
8.74138e-11
8.67906e-11
8.32681e-11
8.38685e-11
8.43565e-11
8.46119e-11
8.46877e-11
8.47401e-11
8.47098e-11
8.47189e-11
8.46922e-11
8.46971e-11
8.46811e-11
8.46857e-11
8.46756e-11
8.46796e-11
8.46731e-11
8.46767e-11
8.46722e-11
8.46753e-11
8.46725e-11
8.46745e-11
8.46726e-11
8.46738e-11
8.46726e-11
8.46733e-11
8.4673e-11
8.4673e-11
8.46733e-11
8.46726e-11
8.46738e-11
8.46726e-11
8.46745e-11
8.46725e-11
8.46753e-11
8.46722e-11
8.46767e-11
8.46731e-11
8.46797e-11
8.46756e-11
8.46857e-11
8.46811e-11
8.46971e-11
8.46922e-11
8.47189e-11
8.47097e-11
8.474e-11
8.46876e-11
8.46118e-11
8.43565e-11
8.38685e-11
8.32681e-11
7.99545e-11
8.05324e-11
8.09914e-11
8.12321e-11
8.13033e-11
8.13526e-11
8.13236e-11
8.13317e-11
8.13062e-11
8.13105e-11
8.12952e-11
8.12994e-11
8.12898e-11
8.12935e-11
8.12873e-11
8.12906e-11
8.12864e-11
8.12893e-11
8.12866e-11
8.12885e-11
8.12867e-11
8.12878e-11
8.12867e-11
8.12874e-11
8.12871e-11
8.12871e-11
8.12874e-11
8.12868e-11
8.12878e-11
8.12867e-11
8.12885e-11
8.12866e-11
8.12893e-11
8.12864e-11
8.12906e-11
8.12873e-11
8.12935e-11
8.12898e-11
8.12994e-11
8.12952e-11
8.13105e-11
8.13062e-11
8.13317e-11
8.13236e-11
8.13525e-11
8.13032e-11
8.1232e-11
8.09913e-11
8.05324e-11
7.99545e-11
7.68365e-11