/*--------------------------------*- C++ -*----------------------------------*\
| =========                 |                                                 |
| \\      /  F ield         | OpenFOAM: The Open Source CFD Toolbox           |
|  \\    /   O peration     | Version:  dev                                   |
|   \\  /    A nd           | Web:      www.OpenFOAM.org                      |
|    \\/     M anipulation  |                                                 |
\*---------------------------------------------------------------------------*/
FoamFile
{
    version     2.0;
    format      ascii;
    class       volScalarField;
    location    "0.1";
    object      C5H5O;
}
// * * * * * * * * * * * * * * * * * * * * * * * * * * * * * * * * * * * * * //

dimensions      [0 0 0 0 0 0 0];

internalField   nonuniform List<scalar> 
8000
(
1.4695e-06
1.46844e-06
1.46862e-06
1.46847e-06
1.46851e-06
1.46842e-06
1.46845e-06
1.46841e-06
1.46843e-06
1.46841e-06
1.46843e-06
1.46841e-06
1.46843e-06
1.46842e-06
1.46843e-06
1.46842e-06
1.46843e-06
1.46842e-06
1.46843e-06
1.46842e-06
1.46843e-06
1.46843e-06
1.46843e-06
1.46843e-06
1.46843e-06
1.46843e-06
1.46843e-06
1.46843e-06
1.46843e-06
1.46843e-06
1.46842e-06
1.46843e-06
1.46842e-06
1.46843e-06
1.46842e-06
1.46843e-06
1.46842e-06
1.46843e-06
1.46841e-06
1.46843e-06
1.46841e-06
1.46843e-06
1.46841e-06
1.46845e-06
1.46842e-06
1.46851e-06
1.46847e-06
1.46862e-06
1.46844e-06
1.4695e-06
7.1883e-07
7.17698e-07
7.16866e-07
7.16396e-07
7.16291e-07
7.16195e-07
7.16208e-07
7.16176e-07
7.16197e-07
7.1618e-07
7.16196e-07
7.16184e-07
7.16195e-07
7.16188e-07
7.16195e-07
7.1619e-07
7.16195e-07
7.16191e-07
7.16194e-07
7.16192e-07
7.16194e-07
7.16193e-07
7.16194e-07
7.16193e-07
7.16194e-07
7.16194e-07
7.16193e-07
7.16194e-07
7.16193e-07
7.16194e-07
7.16192e-07
7.16194e-07
7.16191e-07
7.16195e-07
7.1619e-07
7.16195e-07
7.16188e-07
7.16195e-07
7.16184e-07
7.16196e-07
7.1618e-07
7.16197e-07
7.16176e-07
7.16208e-07
7.16195e-07
7.16291e-07
7.16396e-07
7.16867e-07
7.17698e-07
7.18831e-07
2.88816e-07
2.88426e-07
2.88127e-07
2.8795e-07
2.87888e-07
2.87861e-07
2.87854e-07
2.87851e-07
2.87851e-07
2.87851e-07
2.87852e-07
2.87851e-07
2.87852e-07
2.87852e-07
2.87853e-07
2.87853e-07
2.87853e-07
2.87853e-07
2.87853e-07
2.87853e-07
2.87853e-07
2.87853e-07
2.87853e-07
2.87853e-07
2.87853e-07
2.87853e-07
2.87853e-07
2.87853e-07
2.87853e-07
2.87853e-07
2.87853e-07
2.87853e-07
2.87853e-07
2.87853e-07
2.87853e-07
2.87853e-07
2.87852e-07
2.87852e-07
2.87851e-07
2.87852e-07
2.87851e-07
2.87851e-07
2.87851e-07
2.87854e-07
2.87861e-07
2.87888e-07
2.8795e-07
2.88127e-07
2.88426e-07
2.88816e-07
1.19782e-07
1.19668e-07
1.19594e-07
1.19536e-07
1.19503e-07
1.195e-07
1.1949e-07
1.19494e-07
1.1949e-07
1.19493e-07
1.19491e-07
1.19493e-07
1.19491e-07
1.19493e-07
1.19492e-07
1.19493e-07
1.19492e-07
1.19493e-07
1.19492e-07
1.19493e-07
1.19492e-07
1.19493e-07
1.19492e-07
1.19492e-07
1.19492e-07
1.19492e-07
1.19492e-07
1.19492e-07
1.19493e-07
1.19492e-07
1.19493e-07
1.19492e-07
1.19493e-07
1.19492e-07
1.19493e-07
1.19492e-07
1.19493e-07
1.19491e-07
1.19493e-07
1.19491e-07
1.19493e-07
1.1949e-07
1.19494e-07
1.1949e-07
1.19499e-07
1.19503e-07
1.19536e-07
1.19594e-07
1.19668e-07
1.19782e-07
5.12894e-08
5.12634e-08
5.12606e-08
5.12442e-08
5.12272e-08
5.12293e-08
5.12225e-08
5.12265e-08
5.12225e-08
5.12257e-08
5.12232e-08
5.12253e-08
5.12236e-08
5.12251e-08
5.1224e-08
5.12249e-08
5.12241e-08
5.12248e-08
5.12243e-08
5.12247e-08
5.12244e-08
5.12246e-08
5.12245e-08
5.12246e-08
5.12245e-08
5.12245e-08
5.12246e-08
5.12244e-08
5.12246e-08
5.12244e-08
5.12247e-08
5.12243e-08
5.12248e-08
5.12241e-08
5.12249e-08
5.12239e-08
5.1225e-08
5.12236e-08
5.12253e-08
5.12232e-08
5.12257e-08
5.12225e-08
5.12264e-08
5.12224e-08
5.12293e-08
5.12272e-08
5.12441e-08
5.12605e-08
5.12634e-08
5.12892e-08
2.25472e-08
2.25459e-08
2.25592e-08
2.2556e-08
2.25474e-08
2.25499e-08
2.25456e-08
2.25484e-08
2.25457e-08
2.25479e-08
2.25461e-08
2.25476e-08
2.25464e-08
2.25474e-08
2.25466e-08
2.25473e-08
2.25467e-08
2.25472e-08
2.25469e-08
2.25471e-08
2.25469e-08
2.25471e-08
2.2547e-08
2.2547e-08
2.2547e-08
2.2547e-08
2.2547e-08
2.25469e-08
2.25471e-08
2.25469e-08
2.25471e-08
2.25468e-08
2.25472e-08
2.25467e-08
2.25473e-08
2.25466e-08
2.25474e-08
2.25464e-08
2.25476e-08
2.25461e-08
2.25479e-08
2.25457e-08
2.25484e-08
2.25456e-08
2.25499e-08
2.25474e-08
2.2556e-08
2.25592e-08
2.25458e-08
2.2547e-08
1.01447e-08
1.01484e-08
1.01614e-08
1.01617e-08
1.01574e-08
1.01592e-08
1.01567e-08
1.01584e-08
1.01568e-08
1.01581e-08
1.0157e-08
1.01579e-08
1.01572e-08
1.01578e-08
1.01573e-08
1.01577e-08
1.01574e-08
1.01577e-08
1.01575e-08
1.01576e-08
1.01575e-08
1.01576e-08
1.01575e-08
1.01576e-08
1.01575e-08
1.01575e-08
1.01576e-08
1.01575e-08
1.01576e-08
1.01575e-08
1.01576e-08
1.01574e-08
1.01577e-08
1.01574e-08
1.01577e-08
1.01573e-08
1.01578e-08
1.01572e-08
1.01579e-08
1.0157e-08
1.01581e-08
1.01568e-08
1.01584e-08
1.01567e-08
1.01592e-08
1.01574e-08
1.01617e-08
1.01614e-08
1.01483e-08
1.01446e-08
4.67632e-09
4.6797e-09
4.68898e-09
4.68989e-09
4.68768e-09
4.68883e-09
4.68738e-09
4.6884e-09
4.68745e-09
4.68821e-09
4.68758e-09
4.6881e-09
4.68768e-09
4.68802e-09
4.68774e-09
4.68798e-09
4.68778e-09
4.68794e-09
4.68782e-09
4.68792e-09
4.68784e-09
4.68789e-09
4.68785e-09
4.68788e-09
4.68786e-09
4.68786e-09
4.68788e-09
4.68785e-09
4.68789e-09
4.68784e-09
4.68791e-09
4.68782e-09
4.68794e-09
4.68777e-09
4.68797e-09
4.68774e-09
4.68802e-09
4.68768e-09
4.6881e-09
4.68758e-09
4.6882e-09
4.68744e-09
4.6884e-09
4.68737e-09
4.68882e-09
4.68768e-09
4.68987e-09
4.68898e-09
4.67969e-09
4.67627e-09
2.21257e-09
2.21482e-09
2.22067e-09
2.2214e-09
2.22027e-09
2.22093e-09
2.22012e-09
2.2207e-09
2.22016e-09
2.22059e-09
2.22023e-09
2.22052e-09
2.22029e-09
2.22048e-09
2.22032e-09
2.22045e-09
2.22034e-09
2.22043e-09
2.22036e-09
2.22042e-09
2.22037e-09
2.22041e-09
2.22038e-09
2.2204e-09
2.22039e-09
2.22039e-09
2.2204e-09
2.22038e-09
2.22041e-09
2.22037e-09
2.22042e-09
2.22036e-09
2.22043e-09
2.22034e-09
2.22045e-09
2.22032e-09
2.22047e-09
2.22029e-09
2.22052e-09
2.22023e-09
2.22058e-09
2.22016e-09
2.22069e-09
2.22012e-09
2.22092e-09
2.22027e-09
2.22139e-09
2.22066e-09
2.21481e-09
2.21254e-09
1.08584e-09
1.08718e-09
1.09071e-09
1.09118e-09
1.09058e-09
1.09095e-09
1.0905e-09
1.09082e-09
1.09052e-09
1.09076e-09
1.09056e-09
1.09072e-09
1.09059e-09
1.09069e-09
1.09061e-09
1.09068e-09
1.09062e-09
1.09067e-09
1.09063e-09
1.09066e-09
1.09064e-09
1.09066e-09
1.09064e-09
1.09065e-09
1.09065e-09
1.09065e-09
1.09065e-09
1.09064e-09
1.09066e-09
1.09064e-09
1.09066e-09
1.09063e-09
1.09067e-09
1.09062e-09
1.09068e-09
1.09061e-09
1.09069e-09
1.09059e-09
1.09072e-09
1.09056e-09
1.09075e-09
1.09052e-09
1.09082e-09
1.0905e-09
1.09095e-09
1.09058e-09
1.09117e-09
1.0907e-09
1.08718e-09
1.08582e-09
5.57727e-10
5.58528e-10
5.60671e-10
5.60963e-10
5.60635e-10
5.60844e-10
5.60583e-10
5.60768e-10
5.60591e-10
5.6073e-10
5.60615e-10
5.60709e-10
5.60633e-10
5.60694e-10
5.60644e-10
5.60686e-10
5.6065e-10
5.6068e-10
5.60658e-10
5.60676e-10
5.60661e-10
5.60672e-10
5.60664e-10
5.60669e-10
5.60666e-10
5.60666e-10
5.60669e-10
5.60664e-10
5.60672e-10
5.60661e-10
5.60675e-10
5.60657e-10
5.6068e-10
5.6065e-10
5.60686e-10
5.60643e-10
5.60694e-10
5.60632e-10
5.60708e-10
5.60614e-10
5.60729e-10
5.6059e-10
5.60767e-10
5.60582e-10
5.60843e-10
5.60634e-10
5.60961e-10
5.6067e-10
5.58526e-10
5.5772e-10
2.94327e-10
2.94732e-10
2.95886e-10
2.96019e-10
2.95829e-10
2.95935e-10
2.9579e-10
2.95889e-10
2.95792e-10
2.95868e-10
2.95805e-10
2.95857e-10
2.95815e-10
2.95849e-10
2.95822e-10
2.95845e-10
2.95825e-10
2.95842e-10
2.95829e-10
2.95839e-10
2.95831e-10
2.95837e-10
2.95833e-10
2.95836e-10
2.95834e-10
2.95834e-10
2.95836e-10
2.95833e-10
2.95837e-10
2.95831e-10
2.95839e-10
2.95829e-10
2.95841e-10
2.95825e-10
2.95845e-10
2.95821e-10
2.95849e-10
2.95815e-10
2.95856e-10
2.95805e-10
2.95867e-10
2.95791e-10
2.95889e-10
2.95789e-10
2.95934e-10
2.95829e-10
2.96018e-10
2.95885e-10
2.94731e-10
2.94323e-10
1.66563e-10
1.66867e-10
1.67633e-10
1.67727e-10
1.67604e-10
1.67671e-10
1.67574e-10
1.67639e-10
1.67575e-10
1.67625e-10
1.67584e-10
1.67618e-10
1.67591e-10
1.67613e-10
1.67595e-10
1.6761e-10
1.67597e-10
1.67608e-10
1.676e-10
1.67607e-10
1.67601e-10
1.67605e-10
1.67602e-10
1.67604e-10
1.67603e-10
1.67603e-10
1.67604e-10
1.67602e-10
1.67605e-10
1.67601e-10
1.67606e-10
1.676e-10
1.67608e-10
1.67597e-10
1.6761e-10
1.67595e-10
1.67613e-10
1.6759e-10
1.67618e-10
1.67584e-10
1.67625e-10
1.67575e-10
1.67639e-10
1.67574e-10
1.67671e-10
1.67604e-10
1.67727e-10
1.67633e-10
1.66866e-10
1.66561e-10
9.91013e-11
9.91262e-11
9.94754e-11
9.94918e-11
9.94373e-11
9.94633e-11
9.9419e-11
9.94478e-11
9.94181e-11
9.94407e-11
9.94219e-11
9.94374e-11
9.9425e-11
9.9435e-11
9.94269e-11
9.94338e-11
9.9428e-11
9.94329e-11
9.94293e-11
9.94322e-11
9.94299e-11
9.94316e-11
9.94303e-11
9.94311e-11
9.94307e-11
9.94307e-11
9.94311e-11
9.94303e-11
9.94316e-11
9.94299e-11
9.94322e-11
9.94292e-11
9.94329e-11
9.9428e-11
9.94338e-11
9.94268e-11
9.9435e-11
9.94249e-11
9.94373e-11
9.94219e-11
9.94406e-11
9.94179e-11
9.94477e-11
9.94188e-11
9.94632e-11
9.94371e-11
9.94916e-11
9.94752e-11
9.91259e-11
9.91005e-11
6.09031e-11
6.09146e-11
6.11265e-11
6.11309e-11
6.1094e-11
6.11084e-11
6.10796e-11
6.10975e-11
6.10786e-11
6.10929e-11
6.10811e-11
6.10909e-11
6.10832e-11
6.10895e-11
6.10844e-11
6.10888e-11
6.10852e-11
6.10883e-11
6.1086e-11
6.10878e-11
6.10864e-11
6.10875e-11
6.10867e-11
6.10872e-11
6.1087e-11
6.10869e-11
6.10872e-11
6.10867e-11
6.10875e-11
6.10864e-11
6.10878e-11
6.1086e-11
6.10882e-11
6.10851e-11
6.10888e-11
6.10844e-11
6.10895e-11
6.10831e-11
6.10908e-11
6.10811e-11
6.10929e-11
6.10785e-11
6.10974e-11
6.10796e-11
6.11083e-11
6.1094e-11
6.11308e-11
6.11264e-11
6.09145e-11
6.09028e-11
3.95609e-11
3.95745e-11
3.97224e-11
3.97257e-11
3.96996e-11
3.97091e-11
3.96886e-11
3.97011e-11
3.96877e-11
3.96978e-11
3.96895e-11
3.96965e-11
3.9691e-11
3.96955e-11
3.9692e-11
3.96951e-11
3.96925e-11
3.96947e-11
3.96931e-11
3.96944e-11
3.96934e-11
3.96942e-11
3.96936e-11
3.9694e-11
3.96938e-11
3.96938e-11
3.9694e-11
3.96936e-11
3.96942e-11
3.96934e-11
3.96944e-11
3.96931e-11
3.96947e-11
3.96925e-11
3.96951e-11
3.96919e-11
3.96955e-11
3.9691e-11
3.96964e-11
3.96895e-11
3.96978e-11
3.96877e-11
3.97011e-11
3.96886e-11
3.97091e-11
3.96996e-11
3.97257e-11
3.97224e-11
3.95744e-11
3.95607e-11
2.61985e-11
2.623e-11
2.63552e-11
2.63713e-11
2.63573e-11
2.63662e-11
2.63511e-11
2.63605e-11
2.63502e-11
2.63576e-11
2.63513e-11
2.63564e-11
2.63523e-11
2.63556e-11
2.63529e-11
2.63552e-11
2.63532e-11
2.63549e-11
2.63537e-11
2.63547e-11
2.63539e-11
2.63545e-11
2.6354e-11
2.63543e-11
2.63542e-11
2.63542e-11
2.63543e-11
2.6354e-11
2.63545e-11
2.63539e-11
2.63547e-11
2.63537e-11
2.63549e-11
2.63532e-11
2.63552e-11
2.63529e-11
2.63556e-11
2.63522e-11
2.63564e-11
2.63513e-11
2.63576e-11
2.63501e-11
2.63604e-11
2.63511e-11
2.63662e-11
2.63573e-11
2.63712e-11
2.63552e-11
2.623e-11
2.61984e-11
1.80194e-11
1.80488e-11
1.8142e-11
1.81556e-11
1.81463e-11
1.81529e-11
1.81418e-11
1.81486e-11
1.8141e-11
1.81465e-11
1.81418e-11
1.81456e-11
1.81426e-11
1.8145e-11
1.8143e-11
1.81447e-11
1.81433e-11
1.81445e-11
1.81436e-11
1.81443e-11
1.81438e-11
1.81442e-11
1.81439e-11
1.81441e-11
1.8144e-11
1.8144e-11
1.81441e-11
1.81439e-11
1.81442e-11
1.81438e-11
1.81443e-11
1.81436e-11
1.81445e-11
1.81433e-11
1.81447e-11
1.8143e-11
1.8145e-11
1.81425e-11
1.81456e-11
1.81418e-11
1.81465e-11
1.8141e-11
1.81486e-11
1.81418e-11
1.81529e-11
1.81463e-11
1.81556e-11
1.8142e-11
1.80487e-11
1.80194e-11
1.24825e-11
1.25207e-11
1.26048e-11
1.2623e-11
1.2616e-11
1.26226e-11
1.26129e-11
1.2619e-11
1.26123e-11
1.26171e-11
1.2613e-11
1.26164e-11
1.26137e-11
1.26158e-11
1.26141e-11
1.26156e-11
1.26143e-11
1.26154e-11
1.26146e-11
1.26153e-11
1.26148e-11
1.26151e-11
1.26148e-11
1.2615e-11
1.2615e-11
1.26149e-11
1.2615e-11
1.26148e-11
1.26151e-11
1.26148e-11
1.26153e-11
1.26146e-11
1.26154e-11
1.26143e-11
1.26156e-11
1.26141e-11
1.26159e-11
1.26137e-11
1.26164e-11
1.2613e-11
1.26171e-11
1.26123e-11
1.2619e-11
1.26129e-11
1.26226e-11
1.2616e-11
1.2623e-11
1.26048e-11
1.25207e-11
1.24825e-11
8.75463e-12
8.7888e-12
8.85145e-12
8.86596e-12
8.86115e-12
8.86601e-12
8.85882e-12
8.8633e-12
8.85837e-12
8.86192e-12
8.85889e-12
8.86135e-12
8.85937e-12
8.86097e-12
8.85968e-12
8.8608e-12
8.85985e-12
8.86067e-12
8.86008e-12
8.86056e-12
8.86018e-12
8.86046e-12
8.86025e-12
8.86039e-12
8.86033e-12
8.86033e-12
8.86039e-12
8.86025e-12
8.86047e-12
8.86018e-12
8.86056e-12
8.86007e-12
8.86066e-12
8.85986e-12
8.8608e-12
8.85967e-12
8.86098e-12
8.85937e-12
8.86134e-12
8.8589e-12
8.86192e-12
8.85836e-12
8.8633e-12
8.85882e-12
8.866e-12
8.86114e-12
8.86596e-12
8.85145e-12
8.7888e-12
8.75463e-12
6.27877e-12
6.31247e-12
6.36201e-12
6.37459e-12
6.37127e-12
6.37518e-12
6.36958e-12
6.37308e-12
6.36922e-12
6.37199e-12
6.36964e-12
6.37155e-12
6.37001e-12
6.37126e-12
6.37025e-12
6.37113e-12
6.37039e-12
6.37103e-12
6.37057e-12
6.37094e-12
6.37065e-12
6.37087e-12
6.3707e-12
6.37081e-12
6.37076e-12
6.37076e-12
6.37081e-12
6.3707e-12
6.37087e-12
6.37065e-12
6.37094e-12
6.37056e-12
6.37102e-12
6.37039e-12
6.37113e-12
6.37025e-12
6.37127e-12
6.37001e-12
6.37155e-12
6.36964e-12
6.372e-12
6.36921e-12
6.37308e-12
6.36958e-12
6.37517e-12
6.37126e-12
6.37459e-12
6.36201e-12
6.31247e-12
6.27877e-12
4.54588e-12
4.58091e-12
4.6206e-12
4.6315e-12
4.62911e-12
4.63229e-12
4.62785e-12
4.63064e-12
4.62759e-12
4.62979e-12
4.62793e-12
4.62945e-12
4.62823e-12
4.62923e-12
4.62843e-12
4.62912e-12
4.62854e-12
4.62904e-12
4.62868e-12
4.62898e-12
4.62875e-12
4.62892e-12
4.62879e-12
4.62888e-12
4.62884e-12
4.62884e-12
4.62888e-12
4.62879e-12
4.62892e-12
4.62875e-12
4.62898e-12
4.62868e-12
4.62904e-12
4.62854e-12
4.62912e-12
4.62842e-12
4.62923e-12
4.62823e-12
4.62944e-12
4.62793e-12
4.62979e-12
4.62758e-12
4.63064e-12
4.62786e-12
4.63228e-12
4.62911e-12
4.63149e-12
4.6206e-12
4.58091e-12
4.54588e-12
3.3185e-12
3.32162e-12
3.34934e-12
3.35753e-12
3.35658e-12
3.35901e-12
3.35595e-12
3.35788e-12
3.35568e-12
3.35718e-12
3.35584e-12
3.35687e-12
3.356e-12
3.35667e-12
3.3561e-12
3.35658e-12
3.35616e-12
3.35651e-12
3.35625e-12
3.35646e-12
3.35629e-12
3.35642e-12
3.35632e-12
3.35638e-12
3.35635e-12
3.35635e-12
3.35638e-12
3.35632e-12
3.35642e-12
3.35629e-12
3.35646e-12
3.35625e-12
3.35651e-12
3.35616e-12
3.35658e-12
3.3561e-12
3.35668e-12
3.356e-12
3.35687e-12
3.35584e-12
3.35718e-12
3.35568e-12
3.35788e-12
3.35595e-12
3.359e-12
3.35657e-12
3.35753e-12
3.34934e-12
3.32162e-12
3.3185e-12
2.44213e-12
2.44634e-12
2.46808e-12
2.4749e-12
2.47432e-12
2.47628e-12
2.47389e-12
2.4754e-12
2.47367e-12
2.47484e-12
2.4738e-12
2.4746e-12
2.47392e-12
2.47445e-12
2.474e-12
2.47437e-12
2.47405e-12
2.47432e-12
2.47412e-12
2.47428e-12
2.47415e-12
2.47424e-12
2.47417e-12
2.47422e-12
2.47419e-12
2.47419e-12
2.47422e-12
2.47417e-12
2.47424e-12
2.47415e-12
2.47428e-12
2.47411e-12
2.47432e-12
2.47405e-12
2.47437e-12
2.474e-12
2.47445e-12
2.47392e-12
2.4746e-12
2.4738e-12
2.47485e-12
2.47367e-12
2.4754e-12
2.47389e-12
2.47627e-12
2.47431e-12
2.4749e-12
2.46808e-12
2.44634e-12
2.44214e-12
1.7893e-12
1.79431e-12
1.81236e-12
1.81872e-12
1.81861e-12
1.82032e-12
1.81841e-12
1.81962e-12
1.81822e-12
1.81915e-12
1.8183e-12
1.81894e-12
1.81838e-12
1.81881e-12
1.81844e-12
1.81874e-12
1.81848e-12
1.8187e-12
1.81853e-12
1.81867e-12
1.81856e-12
1.81864e-12
1.81857e-12
1.81861e-12
1.8186e-12
1.8186e-12
1.81861e-12
1.81857e-12
1.81864e-12
1.81856e-12
1.81867e-12
1.81853e-12
1.8187e-12
1.81848e-12
1.81874e-12
1.81844e-12
1.81881e-12
1.81838e-12
1.81894e-12
1.8183e-12
1.81915e-12
1.81822e-12
1.81962e-12
1.81841e-12
1.82031e-12
1.8186e-12
1.81872e-12
1.81236e-12
1.79431e-12
1.7893e-12
1.31732e-12
1.322e-12
1.33588e-12
1.34099e-12
1.34101e-12
1.34235e-12
1.34088e-12
1.34181e-12
1.34073e-12
1.34144e-12
1.34079e-12
1.34128e-12
1.34085e-12
1.34118e-12
1.3409e-12
1.34113e-12
1.34092e-12
1.34109e-12
1.34097e-12
1.34107e-12
1.34099e-12
1.34105e-12
1.341e-12
1.34103e-12
1.34102e-12
1.34102e-12
1.34103e-12
1.341e-12
1.34105e-12
1.34099e-12
1.34107e-12
1.34097e-12
1.34109e-12
1.34093e-12
1.34113e-12
1.3409e-12
1.34118e-12
1.34085e-12
1.34128e-12
1.34079e-12
1.34144e-12
1.34073e-12
1.34181e-12
1.34088e-12
1.34234e-12
1.341e-12
1.34099e-12
1.33588e-12
1.322e-12
1.31732e-12
9.74313e-13
9.78531e-13
9.89204e-13
9.93306e-13
9.93387e-13
9.94439e-13
9.93314e-13
9.94025e-13
9.93197e-13
9.93737e-13
9.93236e-13
9.9361e-13
9.93284e-13
9.93531e-13
9.93316e-13
9.93492e-13
9.93337e-13
9.93467e-13
9.9337e-13
9.93448e-13
9.93385e-13
9.9343e-13
9.93394e-13
9.93417e-13
9.93407e-13
9.93407e-13
9.93417e-13
9.93394e-13
9.93431e-13
9.93385e-13
9.93448e-13
9.93369e-13
9.93467e-13
9.93338e-13
9.93493e-13
9.93316e-13
9.93532e-13
9.93284e-13
9.9361e-13
9.93237e-13
9.93738e-13
9.93195e-13
9.94025e-13
9.93315e-13
9.94437e-13
9.93386e-13
9.93306e-13
9.89204e-13
9.78531e-13
9.74314e-13
7.23933e-13
7.27634e-13
7.35847e-13
7.39125e-13
7.39241e-13
7.40067e-13
7.39202e-13
7.39747e-13
7.39109e-13
7.39522e-13
7.39137e-13
7.39423e-13
7.39172e-13
7.39361e-13
7.39196e-13
7.39331e-13
7.39212e-13
7.39312e-13
7.39237e-13
7.39297e-13
7.39248e-13
7.39283e-13
7.39255e-13
7.39273e-13
7.39265e-13
7.39265e-13
7.39273e-13
7.39255e-13
7.39284e-13
7.39248e-13
7.39297e-13
7.39236e-13
7.39312e-13
7.39212e-13
7.39331e-13
7.39196e-13
7.39362e-13
7.39172e-13
7.39422e-13
7.39138e-13
7.39523e-13
7.39108e-13
7.39747e-13
7.39203e-13
7.40066e-13
7.3924e-13
7.39125e-13
7.35846e-13
7.27634e-13
7.23933e-13
5.40448e-13
5.43632e-13
5.49962e-13
5.52573e-13
5.52703e-13
5.53352e-13
5.52686e-13
5.53104e-13
5.52613e-13
5.52928e-13
5.52631e-13
5.5285e-13
5.52657e-13
5.52802e-13
5.52675e-13
5.52778e-13
5.52687e-13
5.52764e-13
5.52706e-13
5.52752e-13
5.52714e-13
5.52742e-13
5.5272e-13
5.52734e-13
5.52728e-13
5.52727e-13
5.52734e-13
5.5272e-13
5.52742e-13
5.52715e-13
5.52752e-13
5.52705e-13
5.52763e-13
5.52687e-13
5.52779e-13
5.52675e-13
5.52802e-13
5.52657e-13
5.52849e-13
5.52632e-13
5.52928e-13
5.52612e-13
5.53104e-13
5.52687e-13
5.53351e-13
5.52702e-13
5.52573e-13
5.49962e-13
5.43632e-13
5.40448e-13
4.05509e-13
4.0821e-13
4.13097e-13
4.15171e-13
4.15302e-13
4.15812e-13
4.153e-13
4.1562e-13
4.15241e-13
4.15481e-13
4.15253e-13
4.1542e-13
4.15272e-13
4.15383e-13
4.15285e-13
4.15364e-13
4.15294e-13
4.15353e-13
4.15309e-13
4.15344e-13
4.15315e-13
4.15336e-13
4.15319e-13
4.1533e-13
4.15325e-13
4.15325e-13
4.1533e-13
4.15319e-13
4.15336e-13
4.15315e-13
4.15344e-13
4.15308e-13
4.15353e-13
4.15294e-13
4.15365e-13
4.15285e-13
4.15383e-13
4.15272e-13
4.1542e-13
4.15254e-13
4.15482e-13
4.1524e-13
4.1562e-13
4.153e-13
4.15811e-13
4.15302e-13
4.15171e-13
4.13096e-13
4.0821e-13
4.05509e-13
3.05944e-13
3.08213e-13
3.11991e-13
3.13637e-13
3.13762e-13
3.14163e-13
3.13768e-13
3.14014e-13
3.13721e-13
3.13905e-13
3.13729e-13
3.13857e-13
3.13742e-13
3.13828e-13
3.13752e-13
3.13813e-13
3.13759e-13
3.13804e-13
3.1377e-13
3.13797e-13
3.13775e-13
3.13791e-13
3.13778e-13
3.13786e-13
3.13783e-13
3.13783e-13
3.13786e-13
3.13778e-13
3.13791e-13
3.13775e-13
3.13797e-13
3.1377e-13
3.13804e-13
3.13759e-13
3.13813e-13
3.13752e-13
3.13828e-13
3.13742e-13
3.13856e-13
3.1373e-13
3.13905e-13
3.13721e-13
3.14014e-13
3.13768e-13
3.14163e-13
3.13762e-13
3.13637e-13
3.11991e-13
3.08213e-13
3.05945e-13
2.32248e-13
2.3414e-13
2.37066e-13
2.38373e-13
2.38487e-13
2.38803e-13
2.38498e-13
2.38687e-13
2.38461e-13
2.38601e-13
2.38465e-13
2.38563e-13
2.38475e-13
2.3854e-13
2.38482e-13
2.38529e-13
2.38487e-13
2.38522e-13
2.38495e-13
2.38516e-13
2.38499e-13
2.38512e-13
2.38501e-13
2.38508e-13
2.38505e-13
2.38505e-13
2.38508e-13
2.38502e-13
2.38512e-13
2.38499e-13
2.38516e-13
2.38495e-13
2.38522e-13
2.38487e-13
2.38529e-13
2.38482e-13
2.3854e-13
2.38475e-13
2.38563e-13
2.38466e-13
2.38601e-13
2.38461e-13
2.38687e-13
2.38498e-13
2.38803e-13
2.38487e-13
2.38373e-13
2.37065e-13
2.3414e-13
2.32248e-13
1.77528e-13
1.79099e-13
1.81369e-13
1.82408e-13
1.8251e-13
1.8276e-13
1.82524e-13
1.82669e-13
1.82494e-13
1.82601e-13
1.82496e-13
1.82571e-13
1.82503e-13
1.82553e-13
1.82508e-13
1.82544e-13
1.82511e-13
1.82539e-13
1.82518e-13
1.82534e-13
1.82521e-13
1.82531e-13
1.82523e-13
1.82528e-13
1.82525e-13
1.82525e-13
1.82528e-13
1.82523e-13
1.82531e-13
1.82521e-13
1.82534e-13
1.82518e-13
1.82538e-13
1.82512e-13
1.82544e-13
1.82508e-13
1.82553e-13
1.82503e-13
1.82571e-13
1.82497e-13
1.82601e-13
1.82494e-13
1.82669e-13
1.82524e-13
1.82759e-13
1.8251e-13
1.82407e-13
1.81369e-13
1.79099e-13
1.77528e-13
1.36768e-13
1.38069e-13
1.39836e-13
1.40662e-13
1.40753e-13
1.4095e-13
1.40768e-13
1.40879e-13
1.40744e-13
1.40825e-13
1.40744e-13
1.40801e-13
1.40748e-13
1.40787e-13
1.40752e-13
1.4078e-13
1.40755e-13
1.40776e-13
1.4076e-13
1.40772e-13
1.40762e-13
1.40769e-13
1.40763e-13
1.40767e-13
1.40765e-13
1.40765e-13
1.40767e-13
1.40763e-13
1.40769e-13
1.40762e-13
1.40772e-13
1.4076e-13
1.40776e-13
1.40755e-13
1.4078e-13
1.40752e-13
1.40787e-13
1.40748e-13
1.40801e-13
1.40744e-13
1.40825e-13
1.40743e-13
1.40879e-13
1.40768e-13
1.4095e-13
1.40753e-13
1.40662e-13
1.39836e-13
1.38069e-13
1.36769e-13
1.06306e-13
1.07381e-13
1.08762e-13
1.0942e-13
1.095e-13
1.09657e-13
1.09515e-13
1.09601e-13
1.09496e-13
1.09558e-13
1.09495e-13
1.09539e-13
1.09498e-13
1.09527e-13
1.095e-13
1.09521e-13
1.09502e-13
1.09518e-13
1.09506e-13
1.09516e-13
1.09507e-13
1.09513e-13
1.09509e-13
1.09512e-13
1.0951e-13
1.0951e-13
1.09512e-13
1.09509e-13
1.09513e-13
1.09507e-13
1.09516e-13
1.09506e-13
1.09518e-13
1.09502e-13
1.09521e-13
1.095e-13
1.09527e-13
1.09498e-13
1.09538e-13
1.09495e-13
1.09558e-13
1.09495e-13
1.09601e-13
1.09515e-13
1.09656e-13
1.095e-13
1.0942e-13
1.08762e-13
1.07381e-13
1.06306e-13
8.34582e-14
8.43461e-14
8.54298e-14
8.59572e-14
8.60266e-14
8.61512e-14
8.60413e-14
8.6107e-14
8.60251e-14
8.60726e-14
8.60236e-14
8.6057e-14
8.60251e-14
8.60478e-14
8.60267e-14
8.60432e-14
8.60281e-14
8.60406e-14
8.6031e-14
8.60386e-14
8.60323e-14
8.60368e-14
8.60331e-14
8.60354e-14
8.60344e-14
8.60344e-14
8.60355e-14
8.60331e-14
8.60368e-14
8.60323e-14
8.60386e-14
8.60309e-14
8.60406e-14
8.60281e-14
8.60433e-14
8.60267e-14
8.60479e-14
8.60251e-14
8.60569e-14
8.60237e-14
8.60727e-14
8.6025e-14
8.6107e-14
8.60413e-14
8.6151e-14
8.60265e-14
8.59571e-14
8.54297e-14
8.4346e-14
8.34582e-14
6.62536e-14
6.69875e-14
6.78432e-14
6.82672e-14
6.83276e-14
6.84272e-14
6.83415e-14
6.83921e-14
6.83281e-14
6.83643e-14
6.8326e-14
6.83516e-14
6.83267e-14
6.83441e-14
6.83276e-14
6.83404e-14
6.83286e-14
6.83383e-14
6.83308e-14
6.83368e-14
6.83318e-14
6.83353e-14
6.83324e-14
6.83342e-14
6.83334e-14
6.83334e-14
6.83342e-14
6.83324e-14
6.83353e-14
6.83318e-14
6.83367e-14
6.83307e-14
6.83383e-14
6.83286e-14
6.83405e-14
6.83276e-14
6.83442e-14
6.83266e-14
6.83515e-14
6.83261e-14
6.83644e-14
6.8328e-14
6.83921e-14
6.83415e-14
6.8427e-14
6.83275e-14
6.82671e-14
6.78431e-14
6.69875e-14
6.62536e-14
5.32419e-14
5.38492e-14
5.45297e-14
5.48724e-14
5.49249e-14
5.50049e-14
5.49379e-14
5.4977e-14
5.49266e-14
5.49544e-14
5.49242e-14
5.49439e-14
5.49243e-14
5.49377e-14
5.49248e-14
5.49347e-14
5.49254e-14
5.4933e-14
5.49271e-14
5.49317e-14
5.49278e-14
5.49306e-14
5.49283e-14
5.49297e-14
5.49291e-14
5.49291e-14
5.49297e-14
5.49283e-14
5.49306e-14
5.49278e-14
5.49317e-14
5.4927e-14
5.4933e-14
5.49254e-14
5.49347e-14
5.49248e-14
5.49378e-14
5.49242e-14
5.49438e-14
5.49243e-14
5.49544e-14
5.49266e-14
5.4977e-14
5.49379e-14
5.50048e-14
5.49249e-14
5.48724e-14
5.45297e-14
5.38491e-14
5.3242e-14
4.33531e-14
4.38558e-14
4.44021e-14
4.46807e-14
4.47265e-14
4.47911e-14
4.47385e-14
4.47687e-14
4.47289e-14
4.47501e-14
4.47262e-14
4.47413e-14
4.47258e-14
4.47362e-14
4.47259e-14
4.47337e-14
4.47264e-14
4.47323e-14
4.47276e-14
4.47313e-14
4.47282e-14
4.47303e-14
4.47285e-14
4.47296e-14
4.47291e-14
4.47291e-14
4.47296e-14
4.47285e-14
4.47303e-14
4.47282e-14
4.47312e-14
4.47276e-14
4.47323e-14
4.47264e-14
4.47337e-14
4.4726e-14
4.47362e-14
4.47258e-14
4.47413e-14
4.47263e-14
4.47501e-14
4.47288e-14
4.47687e-14
4.47385e-14
4.4791e-14
4.47264e-14
4.46807e-14
4.4402e-14
4.38558e-14
4.33531e-14
3.57944e-14
3.62134e-14
3.66553e-14
3.68835e-14
3.69235e-14
3.69761e-14
3.69345e-14
3.69579e-14
3.69262e-14
3.69424e-14
3.69234e-14
3.6935e-14
3.69226e-14
3.69307e-14
3.69225e-14
3.69286e-14
3.69228e-14
3.69274e-14
3.69237e-14
3.69266e-14
3.69241e-14
3.69258e-14
3.69244e-14
3.69253e-14
3.69248e-14
3.69248e-14
3.69253e-14
3.69244e-14
3.69258e-14
3.69241e-14
3.69266e-14
3.69237e-14
3.69274e-14
3.69228e-14
3.69286e-14
3.69226e-14
3.69307e-14
3.69226e-14
3.69349e-14
3.69234e-14
3.69424e-14
3.69261e-14
3.69579e-14
3.69345e-14
3.6976e-14
3.69235e-14
3.68834e-14
3.66553e-14
3.62134e-14
3.57944e-14
2.998e-14
3.03321e-14
3.06926e-14
3.08808e-14
3.0916e-14
3.0959e-14
3.0926e-14
3.09441e-14
3.09187e-14
3.09311e-14
3.09158e-14
3.09247e-14
3.09148e-14
3.09211e-14
3.09145e-14
3.09192e-14
3.09146e-14
3.09183e-14
3.09153e-14
3.09176e-14
3.09156e-14
3.0917e-14
3.09158e-14
3.09165e-14
3.09162e-14
3.09162e-14
3.09165e-14
3.09158e-14
3.0917e-14
3.09156e-14
3.09176e-14
3.09153e-14
3.09183e-14
3.09146e-14
3.09193e-14
3.09146e-14
3.09211e-14
3.09148e-14
3.09247e-14
3.09158e-14
3.09311e-14
3.09187e-14
3.09441e-14
3.0926e-14
3.0959e-14
3.0916e-14
3.08808e-14
3.06926e-14
3.0332e-14
2.998e-14
2.54752e-14
2.57736e-14
2.60704e-14
2.62269e-14
2.6258e-14
2.62935e-14
2.62671e-14
2.62811e-14
2.62605e-14
2.627e-14
2.62576e-14
2.62645e-14
2.62564e-14
2.62613e-14
2.6256e-14
2.62597e-14
2.6256e-14
2.62589e-14
2.62565e-14
2.62583e-14
2.62567e-14
2.62578e-14
2.62568e-14
2.62574e-14
2.62571e-14
2.62571e-14
2.62574e-14
2.62569e-14
2.62578e-14
2.62567e-14
2.62583e-14
2.62565e-14
2.62589e-14
2.6256e-14
2.62597e-14
2.6256e-14
2.62613e-14
2.62564e-14
2.62644e-14
2.62576e-14
2.627e-14
2.62605e-14
2.62811e-14
2.6267e-14
2.62935e-14
2.6258e-14
2.62269e-14
2.60704e-14
2.57735e-14
2.54752e-14
2.19565e-14
2.2212e-14
2.24585e-14
2.25899e-14
2.26176e-14
2.26471e-14
2.26257e-14
2.26366e-14
2.26198e-14
2.2627e-14
2.26168e-14
2.26221e-14
2.26155e-14
2.26193e-14
2.2615e-14
2.26179e-14
2.26149e-14
2.26172e-14
2.26152e-14
2.26167e-14
2.26154e-14
2.26163e-14
2.26155e-14
2.2616e-14
2.26157e-14
2.26157e-14
2.2616e-14
2.26155e-14
2.26163e-14
2.26154e-14
2.26167e-14
2.26152e-14
2.26172e-14
2.26149e-14
2.26179e-14
2.2615e-14
2.26193e-14
2.26155e-14
2.26221e-14
2.26168e-14
2.2627e-14
2.26197e-14
2.26366e-14
2.26257e-14
2.2647e-14
2.26175e-14
2.25899e-14
2.24585e-14
2.2212e-14
2.19565e-14
1.91832e-14
1.94043e-14
1.96108e-14
1.97222e-14
1.97469e-14
1.97716e-14
1.97542e-14
1.97627e-14
1.97487e-14
1.97542e-14
1.97457e-14
1.97498e-14
1.97444e-14
1.97473e-14
1.97438e-14
1.97461e-14
1.97436e-14
1.97454e-14
1.97438e-14
1.9745e-14
1.97439e-14
1.97446e-14
1.9744e-14
1.97444e-14
1.97442e-14
1.97442e-14
1.97444e-14
1.9744e-14
1.97447e-14
1.9744e-14
1.9745e-14
1.97438e-14
1.97454e-14
1.97436e-14
1.97461e-14
1.97438e-14
1.97474e-14
1.97444e-14
1.97498e-14
1.97458e-14
1.97542e-14
1.97487e-14
1.97627e-14
1.97541e-14
1.97716e-14
1.97469e-14
1.97222e-14
1.96108e-14
1.94043e-14
1.91832e-14
1.69753e-14
1.71683e-14
1.73438e-14
1.74387e-14
1.74608e-14
1.74817e-14
1.74673e-14
1.74739e-14
1.74622e-14
1.74663e-14
1.74592e-14
1.74624e-14
1.74578e-14
1.74601e-14
1.74571e-14
1.7459e-14
1.74569e-14
1.74584e-14
1.74571e-14
1.7458e-14
1.74571e-14
1.74577e-14
1.74572e-14
1.74575e-14
1.74573e-14
1.74573e-14
1.74575e-14
1.74572e-14
1.74577e-14
1.74571e-14
1.7458e-14
1.74571e-14
1.74584e-14
1.74569e-14
1.7459e-14
1.74571e-14
1.74601e-14
1.74578e-14
1.74624e-14
1.74592e-14
1.74663e-14
1.74622e-14
1.74739e-14
1.74673e-14
1.74817e-14
1.74608e-14
1.74387e-14
1.73438e-14
1.71683e-14
1.69753e-14
1.51985e-14
1.53686e-14
1.55192e-14
1.56008e-14
1.56206e-14
1.56384e-14
1.56263e-14
1.56314e-14
1.56215e-14
1.56246e-14
1.56186e-14
1.5621e-14
1.56171e-14
1.56189e-14
1.56164e-14
1.56179e-14
1.56161e-14
1.56174e-14
1.56162e-14
1.5617e-14
1.56163e-14
1.56167e-14
1.56163e-14
1.56165e-14
1.56164e-14
1.56164e-14
1.56165e-14
1.56163e-14
1.56167e-14
1.56163e-14
1.5617e-14
1.56162e-14
1.56173e-14
1.56161e-14
1.56179e-14
1.56164e-14
1.56189e-14
1.56171e-14
1.5621e-14
1.56186e-14
1.56246e-14
1.56215e-14
1.56314e-14
1.56263e-14
1.56384e-14
1.56205e-14
1.56008e-14
1.55192e-14
1.53686e-14
1.51985e-14
1.37518e-14
1.39032e-14
1.40336e-14
1.41044e-14
1.41221e-14
1.41374e-14
1.41272e-14
1.41311e-14
1.41226e-14
1.41249e-14
1.41196e-14
1.41215e-14
1.41181e-14
1.41196e-14
1.41174e-14
1.41186e-14
1.41171e-14
1.41181e-14
1.41172e-14
1.41178e-14
1.41172e-14
1.41176e-14
1.41172e-14
1.41174e-14
1.41173e-14
1.41173e-14
1.41174e-14
1.41172e-14
1.41176e-14
1.41172e-14
1.41178e-14
1.41172e-14
1.41181e-14
1.41171e-14
1.41186e-14
1.41174e-14
1.41196e-14
1.41181e-14
1.41215e-14
1.41197e-14
1.41249e-14
1.41226e-14
1.41311e-14
1.41272e-14
1.41374e-14
1.41221e-14
1.41044e-14
1.40336e-14
1.39032e-14
1.37518e-14
1.25595e-14
1.26953e-14
1.28092e-14
1.28711e-14
1.28871e-14
1.29003e-14
1.28915e-14
1.28945e-14
1.2887e-14
1.28887e-14
1.28841e-14
1.28856e-14
1.28826e-14
1.28838e-14
1.28819e-14
1.28829e-14
1.28816e-14
1.28824e-14
1.28816e-14
1.28821e-14
1.28816e-14
1.28819e-14
1.28816e-14
1.28818e-14
1.28817e-14
1.28817e-14
1.28818e-14
1.28816e-14
1.28819e-14
1.28816e-14
1.28821e-14
1.28816e-14
1.28824e-14
1.28816e-14
1.28829e-14
1.28819e-14
1.28838e-14
1.28826e-14
1.28856e-14
1.28842e-14
1.28887e-14
1.2887e-14
1.28945e-14
1.28915e-14
1.29003e-14
1.28871e-14
1.28711e-14
1.28092e-14
1.26953e-14
1.25595e-14
1.15644e-14
1.16871e-14
1.17874e-14
1.1842e-14
1.18564e-14
1.18678e-14
1.18601e-14
1.18624e-14
1.18558e-14
1.1857e-14
1.18529e-14
1.1854e-14
1.18514e-14
1.18523e-14
1.18507e-14
1.18515e-14
1.18503e-14
1.1851e-14
1.18503e-14
1.18508e-14
1.18503e-14
1.18506e-14
1.18503e-14
1.18504e-14
1.18504e-14
1.18504e-14
1.18504e-14
1.18503e-14
1.18506e-14
1.18503e-14
1.18508e-14
1.18503e-14
1.1851e-14
1.18503e-14
1.18515e-14
1.18507e-14
1.18523e-14
1.18514e-14
1.1854e-14
1.1853e-14
1.1857e-14
1.18558e-14
1.18624e-14
1.18601e-14
1.18678e-14
1.18563e-14
1.1842e-14
1.17874e-14
1.16871e-14
1.15643e-14
1.07232e-14
1.08349e-14