/*--------------------------------*- C++ -*----------------------------------*\
| =========                 |                                                 |
| \\      /  F ield         | OpenFOAM: The Open Source CFD Toolbox           |
|  \\    /   O peration     | Version:  dev                                   |
|   \\  /    A nd           | Web:      www.OpenFOAM.org                      |
|    \\/     M anipulation  |                                                 |
\*---------------------------------------------------------------------------*/
FoamFile
{
    version     2.0;
    format      ascii;
    class       volScalarField;
    location    "0.1";
    object      C6H;
}
// * * * * * * * * * * * * * * * * * * * * * * * * * * * * * * * * * * * * * //

dimensions      [0 0 0 0 0 0 0];

internalField   nonuniform List<scalar> 
8000
(
2.60731e-10
2.62043e-10
2.63456e-10
2.64079e-10
2.64135e-10
2.6428e-10
2.64212e-10
2.64282e-10
2.64222e-10
2.64268e-10
2.64228e-10
2.6426e-10
2.64232e-10
2.64252e-10
2.64235e-10
2.64249e-10
2.64236e-10
2.64247e-10
2.64239e-10
2.64245e-10
2.6424e-10
2.64243e-10
2.6424e-10
2.64242e-10
2.64241e-10
2.64241e-10
2.64242e-10
2.6424e-10
2.64243e-10
2.6424e-10
2.64245e-10
2.64239e-10
2.64246e-10
2.64236e-10
2.64249e-10
2.64235e-10
2.64253e-10
2.64232e-10
2.64259e-10
2.64228e-10
2.64268e-10
2.64222e-10
2.64282e-10
2.64212e-10
2.6428e-10
2.64135e-10
2.64079e-10
2.63456e-10
2.62044e-10
2.60731e-10
1.30334e-09
1.30944e-09
1.31607e-09
1.31899e-09
1.31922e-09
1.31991e-09
1.31957e-09
1.31991e-09
1.31962e-09
1.31985e-09
1.31965e-09
1.31981e-09
1.31967e-09
1.31977e-09
1.31969e-09
1.31976e-09
1.31969e-09
1.31974e-09
1.31971e-09
1.31974e-09
1.31971e-09
1.31973e-09
1.31971e-09
1.31972e-09
1.31972e-09
1.31972e-09
1.31972e-09
1.31971e-09
1.31973e-09
1.31971e-09
1.31974e-09
1.31971e-09
1.31974e-09
1.31969e-09
1.31976e-09
1.31969e-09
1.31977e-09
1.31967e-09
1.31981e-09
1.31965e-09
1.31985e-09
1.31962e-09
1.31991e-09
1.31957e-09
1.31991e-09
1.31922e-09
1.31899e-09
1.31607e-09
1.30945e-09
1.30334e-09
3.47322e-09
3.4895e-09
3.50677e-09
3.51441e-09
3.51479e-09
3.51671e-09
3.51572e-09
3.51669e-09
3.51586e-09
3.51651e-09
3.51594e-09
3.51639e-09
3.51601e-09
3.5163e-09
3.51605e-09
3.51625e-09
3.51607e-09
3.51622e-09
3.51611e-09
3.51619e-09
3.51612e-09
3.51617e-09
3.51613e-09
3.51615e-09
3.51614e-09
3.51614e-09
3.51615e-09
3.51613e-09
3.51617e-09
3.51612e-09
3.51619e-09
3.51611e-09
3.51621e-09
3.51607e-09
3.51625e-09
3.51605e-09
3.5163e-09
3.51601e-09
3.51639e-09
3.51595e-09
3.51651e-09
3.51586e-09
3.51669e-09
3.51571e-09
3.5167e-09
3.51479e-09
3.51441e-09
3.50677e-09
3.4895e-09
3.47322e-09
6.30766e-09
6.33687e-09
6.36745e-09
6.38084e-09
6.38106e-09
6.38462e-09
6.38264e-09
6.38453e-09
6.38292e-09
6.38418e-09
6.38309e-09
6.38396e-09
6.38321e-09
6.38378e-09
6.38329e-09
6.38368e-09
6.38333e-09
6.38362e-09
6.38341e-09
6.38357e-09
6.38343e-09
6.38353e-09
6.38345e-09
6.3835e-09
6.38348e-09
6.38348e-09
6.3835e-09
6.38345e-09
6.38353e-09
6.38343e-09
6.38357e-09
6.38341e-09
6.38362e-09
6.38333e-09
6.38369e-09
6.38329e-09
6.38378e-09
6.38322e-09
6.38395e-09
6.38309e-09
6.38418e-09
6.38292e-09
6.38453e-09
6.38264e-09
6.38462e-09
6.38106e-09
6.38084e-09
6.36745e-09
6.33687e-09
6.30766e-09
8.01685e-09
8.05179e-09
8.08892e-09
8.10466e-09
8.10444e-09
8.10884e-09
8.10622e-09
8.10865e-09
8.10656e-09
8.10819e-09
8.10678e-09
8.10791e-09
8.10695e-09
8.10768e-09
8.10705e-09
8.10756e-09
8.1071e-09
8.10747e-09
8.1072e-09
8.10741e-09
8.10723e-09
8.10736e-09
8.10725e-09
8.10732e-09
8.10729e-09
8.10729e-09
8.10732e-09
8.10725e-09
8.10736e-09
8.10723e-09
8.10741e-09
8.1072e-09
8.10747e-09
8.1071e-09
8.10756e-09
8.10705e-09
8.10768e-09
8.10695e-09
8.1079e-09
8.10679e-09
8.1082e-09
8.10656e-09
8.10864e-09
8.10622e-09
8.10884e-09
8.10444e-09
8.10466e-09
8.08892e-09
8.05179e-09
8.01685e-09
8.16089e-09
8.19518e-09
8.23304e-09
8.24847e-09
8.24802e-09
8.25246e-09
8.24971e-09
8.2522e-09
8.25004e-09
8.25172e-09
8.25027e-09
8.25143e-09
8.25044e-09
8.25119e-09
8.25055e-09
8.25107e-09
8.2506e-09
8.25098e-09
8.2507e-09
8.25092e-09
8.25073e-09
8.25086e-09
8.25075e-09
8.25082e-09
8.25079e-09
8.25079e-09
8.25082e-09
8.25075e-09
8.25086e-09
8.25073e-09
8.25092e-09
8.2507e-09
8.25098e-09
8.2506e-09
8.25107e-09
8.25054e-09
8.25119e-09
8.25044e-09
8.25142e-09
8.25027e-09
8.25173e-09
8.25004e-09
8.2522e-09
8.24971e-09
8.25246e-09
8.24802e-09
8.24847e-09
8.23304e-09
8.19518e-09
8.16089e-09
7.409e-09
7.4401e-09
7.47614e-09
7.49035e-09
7.48996e-09
7.49406e-09
7.49148e-09
7.49379e-09
7.49177e-09
7.49334e-09
7.49197e-09
7.49306e-09
7.49213e-09
7.49283e-09
7.49223e-09
7.49272e-09
7.49228e-09
7.49264e-09
7.49237e-09
7.49257e-09
7.4924e-09
7.49252e-09
7.49242e-09
7.49249e-09
7.49246e-09
7.49246e-09
7.49249e-09
7.49242e-09
7.49252e-09
7.4924e-09
7.49257e-09
7.49237e-09
7.49263e-09
7.49228e-09
7.49272e-09
7.49223e-09
7.49283e-09
7.49213e-09
7.49305e-09
7.49198e-09
7.49334e-09
7.49176e-09
7.49379e-09
7.49148e-09
7.49406e-09
7.48996e-09
7.49035e-09
7.47614e-09
7.4401e-09
7.40899e-09
6.36255e-09
6.38996e-09
6.42325e-09
6.4361e-09
6.43594e-09
6.43958e-09
6.4373e-09
6.43934e-09
6.43753e-09
6.43892e-09
6.43771e-09
6.43867e-09
6.43785e-09
6.43847e-09
6.43793e-09
6.43836e-09
6.43797e-09
6.43829e-09
6.43805e-09
6.43824e-09
6.43808e-09
6.43819e-09
6.4381e-09
6.43815e-09
6.43813e-09
6.43813e-09
6.43816e-09
6.4381e-09
6.43819e-09
6.43808e-09
6.43824e-09
6.43805e-09
6.43829e-09
6.43797e-09
6.43836e-09
6.43793e-09
6.43847e-09
6.43785e-09
6.43867e-09
6.43771e-09
6.43893e-09
6.43753e-09
6.43934e-09
6.4373e-09
6.43958e-09
6.43594e-09
6.4361e-09
6.42325e-09
6.38997e-09
6.36255e-09
5.33161e-09
5.35559e-09
5.38589e-09
5.39747e-09
5.39759e-09
5.40079e-09
5.39882e-09
5.40059e-09
5.399e-09
5.40021e-09
5.39915e-09
5.39998e-09
5.39926e-09
5.3998e-09
5.39933e-09
5.39971e-09
5.39937e-09
5.39964e-09
5.39944e-09
5.3996e-09
5.39946e-09
5.39955e-09
5.39948e-09
5.39952e-09
5.3995e-09
5.3995e-09
5.39952e-09
5.39948e-09
5.39955e-09
5.39946e-09
5.3996e-09
5.39944e-09
5.39964e-09
5.39937e-09
5.39971e-09
5.39933e-09
5.3998e-09
5.39926e-09
5.39998e-09
5.39915e-09
5.40021e-09
5.399e-09
5.40059e-09
5.39882e-09
5.40079e-09
5.39759e-09
5.39747e-09
5.38589e-09
5.3556e-09
5.33161e-09
4.43706e-09
4.45812e-09
4.48554e-09
4.49602e-09
4.49639e-09
4.49919e-09
4.49751e-09
4.49903e-09
4.49765e-09
4.49869e-09
4.49777e-09
4.49849e-09
4.49786e-09
4.49833e-09
4.49792e-09
4.49824e-09
4.49795e-09
4.49819e-09
4.49801e-09
4.49815e-09
4.49803e-09
4.49811e-09
4.49804e-09
4.49809e-09
4.49807e-09
4.49807e-09
4.49809e-09
4.49804e-09
4.49811e-09
4.49803e-09
4.49815e-09
4.49801e-09
4.49819e-09
4.49795e-09
4.49825e-09
4.49792e-09
4.49833e-09
4.49787e-09
4.49848e-09
4.49777e-09
4.49869e-09
4.49765e-09
4.49903e-09
4.49751e-09
4.49919e-09
4.49639e-09
4.49601e-09
4.48554e-09
4.45812e-09
4.43706e-09
3.70297e-09
3.72164e-09
3.74644e-09
3.75599e-09
3.75657e-09
3.75905e-09
3.75761e-09
3.75892e-09
3.75772e-09
3.75862e-09
3.75781e-09
3.75843e-09
3.75789e-09
3.75829e-09
3.75794e-09
3.75822e-09
3.75796e-09
3.75817e-09
3.75801e-09
3.75813e-09
3.75803e-09
3.7581e-09
3.75804e-09
3.75808e-09
3.75806e-09
3.75806e-09
3.75808e-09
3.75804e-09
3.7581e-09
3.75803e-09
3.75813e-09
3.75801e-09
3.75817e-09
3.75796e-09
3.75822e-09
3.75794e-09
3.75829e-09
3.75789e-09
3.75843e-09
3.75782e-09
3.75862e-09
3.75772e-09
3.75892e-09
3.75761e-09
3.75905e-09
3.75657e-09
3.75599e-09
3.74644e-09
3.72164e-09
3.70297e-09
3.09248e-09
3.10885e-09
3.13067e-09
3.13923e-09
3.13997e-09
3.14212e-09
3.14092e-09
3.14203e-09
3.14101e-09
3.14176e-09
3.14108e-09
3.14159e-09
3.14114e-09
3.14147e-09
3.14117e-09
3.14141e-09
3.14119e-09
3.14136e-09
3.14123e-09
3.14133e-09
3.14125e-09
3.14131e-09
3.14126e-09
3.14129e-09
3.14127e-09
3.14127e-09
3.14129e-09
3.14126e-09
3.14131e-09
3.14125e-09
3.14133e-09
3.14123e-09
3.14136e-09
3.14119e-09
3.14141e-09
3.14117e-09
3.14147e-09
3.14114e-09
3.14159e-09
3.14108e-09
3.14176e-09
3.14101e-09
3.14203e-09
3.14092e-09
3.14212e-09
3.13997e-09
3.13923e-09
3.13067e-09
3.10885e-09
3.09248e-09
2.62693e-09
2.6418e-09
2.66161e-09
2.6695e-09
2.67035e-09
2.67228e-09
2.67124e-09
2.67221e-09
2.6713e-09
2.67196e-09
2.67136e-09
2.67181e-09
2.6714e-09
2.6717e-09
2.67143e-09
2.67164e-09
2.67145e-09
2.6716e-09
2.67149e-09
2.67158e-09
2.6715e-09
2.67155e-09
2.67151e-09
2.67153e-09
2.67152e-09
2.67152e-09
2.67153e-09
2.67151e-09
2.67155e-09
2.6715e-09
2.67157e-09
2.67149e-09
2.6716e-09
2.67145e-09
2.67164e-09
2.67143e-09
2.6717e-09
2.6714e-09
2.67181e-09
2.67136e-09
2.67196e-09
2.6713e-09
2.6722e-09
2.67124e-09
2.67228e-09
2.67035e-09
2.6695e-09
2.66161e-09
2.64181e-09
2.62693e-09
2.25684e-09
2.26889e-09
2.28555e-09
2.29244e-09
2.29358e-09
2.29519e-09
2.29445e-09
2.29519e-09
2.29449e-09
2.29498e-09
2.29452e-09
2.29486e-09
2.29454e-09
2.29476e-09
2.29456e-09
2.29471e-09
2.29457e-09
2.29468e-09
2.2946e-09
2.29466e-09
2.2946e-09
2.29464e-09
2.29461e-09
2.29463e-09
2.29462e-09
2.29462e-09
2.29463e-09
2.29461e-09
2.29464e-09
2.2946e-09
2.29466e-09
2.29459e-09
2.29468e-09
2.29457e-09
2.29471e-09
2.29456e-09
2.29476e-09
2.29455e-09
2.29485e-09
2.29452e-09
2.29498e-09
2.29449e-09
2.29519e-09
2.29445e-09
2.29519e-09
2.29358e-09
2.29244e-09
2.28555e-09
2.26889e-09
2.25684e-09
1.95384e-09
1.96468e-09
1.97943e-09
1.98569e-09
1.98687e-09
1.98829e-09
1.98769e-09
1.98831e-09
1.98772e-09
1.98812e-09
1.98773e-09
1.98801e-09
1.98774e-09
1.98793e-09
1.98775e-09
1.98788e-09
1.98776e-09
1.98786e-09
1.98778e-09
1.98784e-09
1.98779e-09
1.98782e-09
1.98779e-09
1.98781e-09
1.9878e-09
1.9878e-09
1.98781e-09
1.98779e-09
1.98782e-09
1.98779e-09
1.98784e-09
1.98778e-09
1.98786e-09
1.98776e-09
1.98788e-09
1.98775e-09
1.98793e-09
1.98774e-09
1.98801e-09
1.98773e-09
1.98812e-09
1.98771e-09
1.98831e-09
1.98769e-09
1.98829e-09
1.98687e-09
1.98569e-09
1.97943e-09
1.96468e-09
1.95384e-09
1.72077e-09
1.73077e-09
1.74413e-09
1.74994e-09
1.75115e-09
1.75244e-09
1.75193e-09
1.75247e-09
1.75194e-09
1.7523e-09
1.75195e-09
1.75219e-09
1.75196e-09
1.75211e-09
1.75196e-09
1.75208e-09
1.75197e-09
1.75205e-09
1.75199e-09
1.75203e-09
1.75199e-09
1.75202e-09
1.75199e-09
1.75201e-09
1.752e-09
1.752e-09
1.75201e-09
1.75199e-09
1.75202e-09
1.75199e-09
1.75203e-09
1.75198e-09
1.75205e-09
1.75197e-09
1.75208e-09
1.75196e-09
1.75212e-09
1.75196e-09
1.75219e-09
1.75195e-09
1.7523e-09
1.75194e-09
1.75247e-09
1.75193e-09
1.75244e-09
1.75115e-09
1.74994e-09
1.74413e-09
1.73077e-09
1.72077e-09
1.52663e-09
1.53619e-09
1.54866e-09
1.55428e-09
1.55559e-09
1.55681e-09
1.55637e-09
1.55685e-09
1.55638e-09
1.55669e-09
1.55637e-09
1.55658e-09
1.55637e-09
1.55651e-09
1.55637e-09
1.55647e-09
1.55637e-09
1.55645e-09
1.55639e-09
1.55643e-09
1.55639e-09
1.55642e-09
1.55639e-09
1.55641e-09
1.5564e-09
1.5564e-09
1.55641e-09
1.55639e-09
1.55642e-09
1.55639e-09
1.55643e-09
1.55639e-09
1.55645e-09
1.55637e-09
1.55647e-09
1.55637e-09
1.55651e-09
1.55637e-09
1.55658e-09
1.55637e-09
1.55669e-09
1.55638e-09
1.55685e-09
1.55637e-09
1.55681e-09
1.55559e-09
1.55428e-09
1.54866e-09
1.53619e-09
1.52663e-09
1.37398e-09
1.38297e-09
1.39438e-09
1.39965e-09
1.40097e-09
1.4021e-09
1.40173e-09
1.40215e-09
1.40173e-09
1.40199e-09
1.40171e-09
1.40189e-09
1.40171e-09
1.40183e-09
1.4017e-09
1.40179e-09
1.4017e-09
1.40177e-09
1.40172e-09
1.40176e-09
1.40172e-09
1.40174e-09
1.40172e-09
1.40173e-09
1.40173e-09
1.40173e-09
1.40173e-09
1.40172e-09
1.40174e-09
1.40172e-09
1.40176e-09
1.40172e-09
1.40177e-09
1.4017e-09
1.40179e-09
1.4017e-09
1.40183e-09
1.40171e-09
1.40189e-09
1.40171e-09
1.40199e-09
1.40172e-09
1.40215e-09
1.40173e-09
1.4021e-09
1.40097e-09
1.39965e-09
1.39438e-09
1.38297e-09
1.37398e-09
1.24392e-09
1.25273e-09
1.26356e-09
1.26868e-09
1.26998e-09
1.27107e-09
1.27071e-09
1.27111e-09
1.2707e-09
1.27096e-09
1.27069e-09
1.27086e-09
1.27068e-09
1.27079e-09
1.27068e-09
1.27076e-09
1.27068e-09
1.27074e-09
1.27069e-09
1.27073e-09
1.27069e-09
1.27071e-09
1.27069e-09
1.27071e-09
1.2707e-09
1.2707e-09
1.27071e-09
1.27069e-09
1.27071e-09
1.27069e-09
1.27073e-09
1.27069e-09
1.27074e-09
1.27068e-09
1.27076e-09
1.27068e-09
1.2708e-09
1.27068e-09
1.27086e-09
1.27069e-09
1.27096e-09
1.2707e-09
1.27111e-09
1.27071e-09
1.27107e-09
1.26998e-09
1.26868e-09
1.26356e-09
1.25273e-09
1.24392e-09
1.13568e-09
1.14407e-09
1.15397e-09
1.15876e-09
1.16005e-09
1.16106e-09
1.16076e-09
1.16111e-09
1.16074e-09
1.16096e-09
1.16072e-09
1.16087e-09
1.16071e-09
1.16081e-09
1.16071e-09
1.16078e-09
1.1607e-09
1.16076e-09
1.16071e-09
1.16075e-09
1.16072e-09
1.16073e-09
1.16072e-09
1.16073e-09
1.16072e-09
1.16072e-09
1.16073e-09
1.16072e-09
1.16074e-09
1.16072e-09
1.16075e-09
1.16071e-09
1.16076e-09
1.1607e-09
1.16078e-09
1.1607e-09
1.16081e-09
1.16071e-09
1.16087e-09
1.16072e-09
1.16096e-09
1.16074e-09
1.16111e-09
1.16076e-09
1.16106e-09
1.16005e-09
1.15876e-09
1.15397e-09
1.14407e-09
1.13568e-09
1.04804e-09
1.05619e-09
1.06539e-09
1.06994e-09
1.07122e-09
1.07217e-09
1.07191e-09
1.07222e-09
1.07189e-09
1.07208e-09
1.07186e-09
1.07199e-09
1.07185e-09
1.07194e-09
1.07184e-09
1.0719e-09
1.07184e-09
1.07189e-09
1.07185e-09
1.07188e-09
1.07185e-09
1.07186e-09
1.07185e-09
1.07186e-09
1.07185e-09
1.07185e-09
1.07186e-09
1.07185e-09
1.07187e-09
1.07185e-09
1.07188e-09
1.07185e-09
1.07189e-09
1.07184e-09
1.0719e-09
1.07184e-09
1.07194e-09
1.07185e-09
1.07199e-09
1.07186e-09
1.07208e-09
1.07189e-09
1.07222e-09
1.07191e-09
1.07217e-09
1.07122e-09
1.06994e-09
1.06539e-09
1.05619e-09
1.04804e-09
9.73668e-10
9.81672e-10
9.90273e-10
9.94611e-10
9.95878e-10
9.96781e-10
9.96545e-10
9.96834e-10
9.96524e-10
9.96696e-10
9.96491e-10
9.96611e-10
9.96475e-10
9.96554e-10
9.96466e-10
9.96524e-10
9.96461e-10
9.96508e-10
9.9647e-10
9.96497e-10
9.96471e-10
9.96487e-10
9.96471e-10
9.9648e-10
9.96476e-10
9.96476e-10
9.9648e-10
9.96471e-10
9.96487e-10
9.96471e-10
9.96497e-10
9.96469e-10
9.96507e-10
9.96461e-10
9.96524e-10
9.96466e-10
9.96554e-10
9.96475e-10
9.9661e-10
9.96492e-10
9.96697e-10
9.96523e-10
9.96833e-10
9.96545e-10
9.9678e-10
9.95877e-10
9.9461e-10
9.90272e-10
9.81672e-10
9.73668e-10
9.09929e-10
9.15984e-10
9.23827e-10
9.27902e-10
9.29195e-10
9.30048e-10
9.29863e-10
9.3011e-10
9.29834e-10
9.29974e-10
9.2979e-10
9.29888e-10
9.29766e-10
9.29831e-10
9.29752e-10
9.29801e-10
9.29745e-10
9.29785e-10
9.29751e-10
9.29774e-10
9.29752e-10
9.29765e-10
9.29751e-10
9.29759e-10
9.29755e-10
9.29755e-10
9.29759e-10
9.29751e-10
9.29765e-10
9.29752e-10
9.29774e-10
9.29751e-10
9.29785e-10
9.29746e-10
9.29801e-10
9.29752e-10
9.29831e-10
9.29766e-10
9.29887e-10
9.29791e-10
9.29975e-10
9.29834e-10
9.3011e-10
9.29863e-10
9.30047e-10
9.29195e-10
9.27901e-10
9.23826e-10
9.15984e-10
9.0993e-10
8.5478e-10
8.60689e-10
8.68067e-10
8.71962e-10
8.73237e-10
8.74053e-10
8.73889e-10
8.74115e-10
8.73857e-10
8.73982e-10
8.73809e-10
8.73896e-10
8.73782e-10
8.73841e-10
8.73767e-10
8.73811e-10
8.7376e-10
8.73796e-10
8.73765e-10
8.73786e-10
8.73765e-10
8.73777e-10
8.73764e-10
8.73771e-10
8.73767e-10
8.73767e-10
8.73771e-10
8.73764e-10
8.73777e-10
8.73765e-10
8.73786e-10
8.73764e-10
8.73796e-10
8.7376e-10
8.73812e-10
8.73767e-10
8.73841e-10
8.73783e-10
8.73896e-10
8.7381e-10
8.73982e-10
8.73856e-10
8.74115e-10
8.73889e-10
8.74052e-10
8.73237e-10
8.71961e-10
8.68067e-10
8.60689e-10
8.5478e-10
8.04755e-10
8.10567e-10
8.17611e-10
8.21396e-10
8.2267e-10
8.23463e-10
8.23314e-10
8.23523e-10
8.23276e-10
8.23389e-10
8.23224e-10
8.23302e-10
8.23194e-10
8.23247e-10
8.23177e-10
8.23217e-10
8.23168e-10
8.23202e-10
8.23172e-10
8.23192e-10
8.23172e-10
8.23183e-10
8.23171e-10
8.23178e-10
8.23175e-10
8.23175e-10
8.23178e-10
8.23172e-10
8.23184e-10
8.23172e-10
8.23192e-10
8.23172e-10
8.23202e-10
8.23169e-10
8.23218e-10
8.23177e-10
8.23247e-10
8.23194e-10
8.23302e-10
8.23224e-10
8.23389e-10
8.23275e-10
8.23523e-10
8.23314e-10
8.23462e-10
8.22669e-10
8.21396e-10
8.17611e-10
8.10567e-10
8.04755e-10
7.60571e-10
7.66227e-10
7.72856e-10
7.76468e-10
7.77717e-10
7.78476e-10
7.78344e-10
7.78534e-10
7.78303e-10
7.78401e-10
7.78247e-10
7.78316e-10
7.78214e-10
7.78262e-10
7.78196e-10
7.78233e-10
7.78187e-10
7.78218e-10
7.7819e-10
7.78208e-10
7.78189e-10
7.782e-10
7.78189e-10
7.78194e-10
7.78191e-10
7.78191e-10
7.78194e-10
7.78189e-10
7.782e-10
7.7819e-10
7.78208e-10
7.7819e-10
7.78217e-10
7.78187e-10
7.78233e-10
7.78196e-10
7.78262e-10
7.78214e-10
7.78316e-10
7.78247e-10
7.78402e-10
7.78302e-10
7.78534e-10
7.78344e-10
7.78475e-10
7.77717e-10
7.76468e-10
7.72856e-10
7.66227e-10
7.60571e-10
7.21177e-10
7.26698e-10
7.32953e-10
7.36403e-10
7.37626e-10
7.38352e-10
7.38235e-10
7.38408e-10
7.3819e-10
7.38277e-10
7.38131e-10
7.38192e-10
7.38096e-10
7.38138e-10
7.38077e-10
7.38109e-10
7.38067e-10
7.38095e-10
7.38069e-10
7.38086e-10
7.38068e-10
7.38078e-10
7.38067e-10
7.38072e-10
7.3807e-10
7.3807e-10
7.38072e-10
7.38067e-10
7.38078e-10
7.38068e-10
7.38086e-10
7.38069e-10
7.38095e-10
7.38067e-10
7.3811e-10
7.38077e-10
7.38138e-10
7.38096e-10
7.38192e-10
7.38132e-10
7.38277e-10
7.3819e-10
7.38408e-10
7.38235e-10
7.38351e-10
7.37625e-10
7.36402e-10
7.32953e-10
7.26698e-10
7.21177e-10
6.85756e-10
6.91141e-10
6.97069e-10
7.00363e-10
7.01558e-10
7.02255e-10
7.02151e-10
7.02308e-10
7.02102e-10
7.02178e-10
7.0204e-10
7.02093e-10
7.02002e-10
7.0204e-10
7.01982e-10
7.02011e-10
7.01971e-10
7.01997e-10
7.01973e-10
7.01988e-10
7.01972e-10
7.0198e-10
7.0197e-10
7.01975e-10
7.01973e-10
7.01973e-10
7.01975e-10
7.0197e-10
7.0198e-10
7.01972e-10
7.01988e-10
7.01973e-10
7.01997e-10
7.01972e-10
7.02012e-10
7.01982e-10
7.0204e-10
7.02003e-10
7.02093e-10
7.0204e-10
7.02178e-10
7.02102e-10
7.02308e-10
7.0215e-10
7.02254e-10
7.01557e-10
7.00362e-10
6.97069e-10
6.91141e-10
6.85756e-10
6.53653e-10
6.58898e-10
6.64539e-10
6.67682e-10
6.68849e-10
6.69519e-10
6.69424e-10
6.69568e-10
6.69372e-10
6.69438e-10
6.69306e-10
6.69353e-10
6.69267e-10
6.693e-10
6.69245e-10
6.69272e-10
6.69234e-10
6.69258e-10
6.69235e-10
6.69249e-10
6.69234e-10
6.69241e-10
6.69232e-10
6.69237e-10
6.69234e-10
6.69234e-10
6.69237e-10
6.69232e-10
6.69242e-10
6.69234e-10
6.69249e-10
6.69235e-10
6.69258e-10
6.69234e-10
6.69272e-10
6.69245e-10
6.69301e-10
6.69267e-10
6.69353e-10
6.69307e-10
6.69438e-10
6.69372e-10
6.69567e-10
6.69424e-10
6.69518e-10
6.68848e-10
6.67682e-10
6.64539e-10
6.58898e-10
6.53653e-10
6.2434e-10
6.29446e-10
6.3483e-10
6.3783e-10
6.38965e-10
6.3961e-10
6.39523e-10
6.39654e-10
6.39468e-10
6.39525e-10
6.39399e-10
6.3944e-10
6.39358e-10
6.39387e-10
6.39335e-10
6.39359e-10
6.39323e-10
6.39345e-10
6.39323e-10
6.39336e-10
6.39321e-10
6.39329e-10
6.3932e-10
6.39324e-10
6.39322e-10
6.39322e-10
6.39324e-10
6.3932e-10
6.39329e-10
6.39321e-10
6.39336e-10
6.39323e-10
6.39345e-10
6.39323e-10
6.39359e-10
6.39335e-10
6.39387e-10
6.39358e-10
6.39439e-10
6.39399e-10
6.39525e-10
6.39467e-10
6.39654e-10
6.39523e-10
6.39609e-10
6.38965e-10
6.37829e-10
6.3483e-10
6.29446e-10
6.2434e-10
5.97398e-10
6.02365e-10
6.07513e-10
6.10376e-10
6.1148e-10
6.121e-10
6.1202e-10
6.1214e-10
6.11961e-10
6.1201e-10
6.11889e-10
6.11924e-10
6.11846e-10
6.11872e-10
6.11822e-10
6.11844e-10
6.1181e-10
6.1183e-10
6.11809e-10
6.11821e-10
6.11807e-10
6.11814e-10
6.11806e-10
6.1181e-10
6.11807e-10
6.11807e-10
6.1181e-10
6.11806e-10
6.11814e-10
6.11807e-10
6.11821e-10
6.11809e-10
6.1183e-10
6.1181e-10
6.11844e-10
6.11822e-10
6.11872e-10
6.11846e-10
6.11924e-10
6.11889e-10
6.1201e-10
6.1196e-10
6.1214e-10
6.1202e-10
6.121e-10
6.1148e-10
6.10376e-10
6.07512e-10
6.02364e-10
5.97398e-10
5.72485e-10
5.77312e-10
5.82242e-10
5.84976e-10
5.86047e-10
5.86644e-10
5.86569e-10
5.86678e-10
5.86506e-10
5.86547e-10
5.86431e-10
5.86462e-10
5.86386e-10
5.86409e-10
5.86361e-10
5.86381e-10
5.86348e-10
5.86367e-10
5.86347e-10
5.86358e-10
5.86345e-10
5.86351e-10
5.86344e-10
5.86347e-10
5.86345e-10
5.86345e-10
5.86347e-10
5.86344e-10
5.86352e-10
5.86345e-10
5.86358e-10
5.86347e-10
5.86367e-10
5.86349e-10
5.86381e-10
5.86361e-10
5.86409e-10
5.86386e-10
5.86461e-10
5.86431e-10
5.86548e-10
5.86505e-10
5.86678e-10
5.86568e-10
5.86643e-10
5.86047e-10
5.84976e-10
5.82242e-10
5.77312e-10
5.72485e-10
5.49324e-10
5.54011e-10
5.58738e-10
5.61349e-10
5.62386e-10
5.6296e-10
5.62889e-10
5.62988e-10
5.62822e-10
5.62857e-10
5.62744e-10
5.62771e-10
5.62697e-10
5.62718e-10
5.62671e-10
5.6269e-10
5.62658e-10
5.62676e-10
5.62657e-10
5.62667e-10
5.62654e-10
5.6266e-10
5.62653e-10
5.62656e-10
5.62654e-10
5.62654e-10
5.62656e-10
5.62653e-10
5.62661e-10
5.62654e-10
5.62667e-10
5.62657e-10
5.62676e-10
5.62659e-10
5.6269e-10
5.62671e-10
5.62718e-10
5.62697e-10
5.6277e-10
5.62745e-10
5.62857e-10
5.62821e-10
5.62988e-10
5.62888e-10
5.62959e-10
5.62386e-10
5.61349e-10
5.58738e-10
5.54011e-10
5.49324e-10
5.27691e-10
5.32236e-10
5.36771e-10
5.39266e-10
5.40268e-10
5.40819e-10
5.4075e-10
5.40841e-10
5.4068e-10
5.40709e-10
5.406e-10
5.40622e-10
5.40551e-10
5.40569e-10
5.40524e-10
5.40541e-10
5.40511e-10
5.40527e-10
5.40508e-10
5.40518e-10
5.40506e-10
5.40512e-10
5.40504e-10
5.40508e-10
5.40506e-10
5.40506e-10
5.40508e-10
5.40504e-10
5.40512e-10
5.40506e-10
5.40518e-10
5.40508e-10
5.40527e-10
5.40511e-10
5.40541e-10
5.40524e-10
5.40569e-10
5.40551e-10
5.40622e-10
5.406e-10
5.40709e-10
5.40679e-10
5.40841e-10
5.4075e-10
5.40819e-10
5.40267e-10
5.39265e-10
5.36771e-10
5.32236e-10
5.27691e-10
5.07399e-10
5.11799e-10
5.16154e-10
5.18537e-10
5.19504e-10
5.20033e-10
5.19966e-10
5.20048e-10
5.19891e-10
5.19915e-10
5.19808e-10
5.19827e-10
5.19758e-10
5.19774e-10
5.19731e-10
5.19746e-10
5.19717e-10
5.19732e-10
5.19714e-10
5.19723e-10
5.19711e-10
5.19717e-10
5.1971e-10
5.19713e-10
5.19711e-10
5.19711e-10
5.19713e-10
5.1971e-10
5.19717e-10
5.19711e-10
5.19723e-10
5.19714e-10
5.19731e-10
5.19717e-10
5.19746e-10
5.19731e-10
5.19774e-10
5.19758e-10
5.19827e-10
5.19809e-10
5.19915e-10
5.19891e-10
5.20048e-10
5.19966e-10
5.20033e-10
5.19503e-10
5.18537e-10
5.16153e-10
5.11799e-10
5.07399e-10
4.88294e-10
4.92548e-10
4.9673e-10
4.99008e-10
4.99938e-10
5.00446e-10
5.00379e-10
5.00453e-10
5.00301e-10
5.00319e-10
5.00215e-10
5.00231e-10
5.00164e-10
5.00177e-10
5.00135e-10
5.00149e-10
5.00121e-10
5.00135e-10
5.00118e-10
5.00126e-10
5.00115e-10
5.0012e-10
5.00113e-10
5.00116e-10
5.00114e-10
5.00114e-10
5.00116e-10
5.00113e-10
5.0012e-10
5.00115e-10
5.00126e-10
5.00118e-10
5.00135e-10
5.00121e-10
5.00149e-10
5.00135e-10
5.00177e-10
5.00164e-10
5.0023e-10
5.00216e-10
5.00319e-10
5.00301e-10
5.00453e-10
5.00379e-10
5.00445e-10
4.99937e-10
4.99008e-10
4.9673e-10
4.92547e-10
4.88294e-10
4.7025e-10
4.74352e-10
4.78372e-10
4.80549e-10
4.81441e-10
4.81928e-10
4.81861e-10
4.81928e-10
4.81779e-10
4.81792e-10
4.81691e-10
4.81703e-10
4.81638e-10
4.81649e-10
4.81608e-10
4.81621e-10
4.81594e-10
4.81607e-10
4.8159e-10
4.81598e-10
4.81587e-10
4.81592e-10
4.81585e-10
4.81588e-10
4.81586e-10
4.81586e-10
4.81588e-10
4.81586e-10
4.81592e-10
4.81587e-10
4.81598e-10
4.8159e-10
4.81607e-10
4.81594e-10
4.81621e-10
4.81609e-10
4.8165e-10
4.81638e-10
4.81703e-10
4.81691e-10
4.81792e-10
4.81778e-10
4.81927e-10
4.81861e-10
4.81927e-10
4.81441e-10
4.80548e-10
4.78371e-10
4.74352e-10
4.7025e-10
4.5316e-10
4.57104e-10
4.6097e-10
4.6305e-10
4.63905e-10
4.6437e-10
4.64303e-10
4.64362e-10
4.64217e-10
4.64225e-10
4.64127e-10
4.64135e-10
4.64072e-10
4.64082e-10
4.64042e-10
4.64053e-10
4.64027e-10
4.64039e-10
4.64023e-10
4.6403e-10
4.6402e-10
4.64024e-10
4.64018e-10
4.64021e-10
4.64019e-10
4.64019e-10
4.64021e-10
4.64018e-10
4.64024e-10
4.6402e-10
4.6403e-10
4.64023e-10
4.64039e-10
4.64027e-10
4.64053e-10
4.64042e-10
4.64082e-10
4.64072e-10
4.64135e-10
4.64127e-10
4.64225e-10
4.64216e-10
4.64362e-10
4.64303e-10
4.64369e-10
4.63904e-10
4.63049e-10
4.6097e-10
4.57104e-10
4.5316e-10
4.36934e-10
4.40713e-10
4.44434e-10
4.4642e-10
4.47237e-10
4.47681e-10
4.47614e-10
4.47666e-10
4.47523e-10
4.47527e-10
4.47431e-10
4.47437e-10
4.47375e-10
4.47383e-10
4.47344e-10
4.47354e-10
4.47328e-10
4.47339e-10
4.47324e-10
4.47331e-10
4.47321e-10
4.47325e-10
4.47319e-10
4.47321e-10
4.4732e-10
4.4732e-10
4.47321e-10
4.47319e-10
4.47325e-10
4.47321e-10
4.47331e-10
4.47324e-10
4.47339e-10
4.47329e-10
4.47354e-10
4.47344e-10
4.47383e-10
4.47375e-10
4.47437e-10
4.47431e-10
4.47527e-10
4.47523e-10
4.47665e-10
4.47614e-10
4.47681e-10
4.47237e-10
4.46419e-10
4.44433e-10
4.40713e-10
4.36934e-10
4.21484e-10
4.25111e-10
4.28685e-10
4.3058e-10
4.31361e-10
4.31784e-10
4.31715e-10
4.3176e-10
4.3162e-10
4.3162e-10
4.31525e-10
4.31529e-10
4.31468e-10
4.31475e-10
4.31437e-10
4.31446e-10
4.31421e-10
4.31431e-10
4.31416e-10
4.31423e-10
4.31413e-10
4.31417e-10
4.31411e-10
4.31413e-10
4.31412e-10
4.31412e-10
4.31413e-10
4.31411e-10
4.31417e-10
4.31413e-10
4.31423e-10
4.31416e-10
4.31431e-10
4.31421e-10
4.31446e-10
4.31437e-10
4.31475e-10
4.31468e-10
4.31529e-10
4.31526e-10
4.3162e-10
4.3162e-10
4.3176e-10
4.31715e-10
4.31783e-10
4.31361e-10
4.3058e-10
4.28685e-10
4.25111e-10
4.21484e-10
4.06744e-10
4.10232e-10
4.13658e-10
4.15464e-10
4.16209e-10
4.16611e-10
4.1654e-10
4.16579e-10
4.16441e-10
4.16438e-10
4.16344e-10
4.16345e-10
4.16286e-10
4.16291e-10
4.16254e-10
4.16262e-10
4.16238e-10
4.16247e-10
4.16233e-10
4.16239e-10
4.16229e-10
4.16233e-10
4.16227e-10
4.1623e-10
4.16228e-10
4.16228e-10
4.1623e-10
4.16227e-10
4.16233e-10
4.16229e-10
4.16239e-10
4.16233e-10
4.16247e-10
4.16238e-10
4.16262e-10
4.16254e-10
4.16291e-10
4.16286e-10
4.16345e-10
4.16345e-10
4.16438e-10
4.16441e-10
4.16578e-10
4.1654e-10
4.1661e-10
4.16209e-10
4.15464e-10
4.13657e-10
4.10232e-10
4.06744e-10
3.92659e-10
3.96018e-10
3.99294e-10
4.01015e-10
4.01724e-10
4.02105e-10
4.02032e-10
4.02064e-10
4.01929e-10
4.01922e-10
4.0183e-10
4.01829e-10
4.0177e-10
4.01774e-10
4.01738e-10
4.01745e-10
4.01721e-10
4.0173e-10
4.01716e-10
4.01722e-10
4.01712e-10
4.01716e-10
4.0171e-10
4.01713e-10
4.01711e-10
4.01711e-10
4.01713e-10
4.0171e-10
4.01716e-10
4.01712e-10
4.01722e-10
4.01716e-10
4.0173e-10
4.01721e-10
4.01745e-10
4.01738e-10
4.01774e-10
4.0177e-10
4.01829e-10
4.0183e-10
4.01922e-10
4.01928e-10
4.02064e-10
4.02032e-10
4.02104e-10
4.01723e-10
4.01014e-10
3.99293e-10
3.96017e-10
3.92659e-10
3.79178e-10
3.82419e-10
3.85543e-10
3.87182e-10
3.87855e-10
3.88216e-10
3.88141e-10
3.88166e-10
3.88033e-10
3.88022e-10
3.87932e-10
3.87929e-10
3.87872e-10
3.87874e-10
3.87838e-10
3.87845e-10
3.87822e-10
3.8783e-10
3.87816e-10
3.87822e-10
3.87813e-10
3.87816e-10
3.87811e-10
3.87813e-10
3.87811e-10
3.87811e-10
3.87813e-10
3.87811e-10
3.87816e-10
3.87813e-10
3.87822e-10
3.87816e-10
3.8783e-10
3.87822e-10
3.87845e-10
3.87839e-10
3.87874e-10
3.87872e-10
3.87929e-10
3.87932e-10
3.88023e-10
3.88033e-10
3.88166e-10
3.8814e-10
3.88215e-10
3.87855e-10
3.87181e-10
3.85543e-10
3.82419e-10
3.79178e-10
3.66258e-10
3.69392e-10
3.72362e-10
3.73922e-10
3.7456e-10
3.749e-10
3.74822e-10
3.74842e-10
3.7471e-10
3.74697e-10
3.74608e-10
3.74602e-10
3.74546e-10
3.74547e-10
3.74512e-10
3.74518e-10
3.74496e-10
3.74503e-10
3.7449e-10
3.74495e-10
3.74486e-10
3.74489e-10
3.74484e-10
3.74486e-10
3.74484e-10
3.74484e-10
3.74486e-10
3.74484e-10
3.74489e-10
3.74486e-10
3.74495e-10
3.7449e-10
3.74503e-10
3.74496e-10
3.74518e-10
3.74513e-10
3.74547e-10
3.74546e-10
3.74602e-10
3.74608e-10
3.74697e-10
3.7471e-10
3.74841e-10
3.74822e-10
3.74899e-10
3.74559e-10
3.73922e-10
3.72362e-10
3.69392e-10
3.66257e-10
3.5386e-10
3.56889e-10
3.59719e-10
3.61197e-10
3.61798e-10
3.62118e-10
3.62038e-10
3.62052e-10
3.61922e-10
3.61905e-10
3.61818e-10
3.6181e-10
3.61755e-10
3.61755e-10
3.61721e-10
3.61726e-10
3.61704e-10
3.61711e-10
3.61698e-10
3.61703e-10
3.61694e-10
3.61697e-10
3.61692e-10
3.61694e-10
3.61692e-10
3.61692e-10
3.61694e-10
3.61692e-10
3.61697e-10
3.61694e-10
3.61703e-10
3.61698e-10
3.61711e-10
3.61704e-10
3.61726e-10
3.61721e-10
3.61755e-10
3.61755e-10
3.6181e-10
3.61818e-10
3.61905e-10
3.61922e-10
3.62051e-10
3.62038e-10
3.62118e-10
3.61798e-10
3.61197e-10
3.59719e-10
3.56889e-10
3.5386e-10
3.41953e-10
3.44882e-10
3.47574e-10
3.48972e-10
3.49537e-10
3.49837e-10
3.49754e-10
3.49762e-10
3.49634e-10
3.49614e-10
3.49528e-10
3.49519e-10
3.49465e-10
3.49464e-10
3.4943e-10
3.49434e-10
3.49413e-10
3.49419e-10
3.49406e-10
3.49411e-10
3.49402e-10
3.49405e-10
3.494e-10
3.49402e-10
3.49401e-10
3.49401e-10
3.49402e-10
3.494e-10
3.49405e-10
3.49402e-10
3.49411e-10
3.49406e-10
3.49419e-10
3.49413e-10
3.49434e-10
3.4943e-10
3.49464e-10
3.49465e-10
3.49519e-10
3.49528e-10
3.49614e-10
3.49634e-10
3.49762e-10
3.49754e-10
3.49837e-10
3.49536e-10
3.48972e-10
3.47573e-10
3.44881e-10
3.41953e-10
3.30507e-10
3.33339e-10
3.35894e-10
3.37216e-10
3.37745e-10
3.38025e-10
3.37939e-10
3.37942e-10
3.37815e-10
3.37793e-10
3.37708e-10
3.37697e-10
3.37644e-10
3.37642e-10
3.37609e-10
3.37612e-10
3.37591e-10
3.37597e-10
3.37584e-10
3.37589e-10
3.3758e-10
3.37583e-10
3.37578e-10
3.3758e-10
3.37579e-10
3.37579e-10
3.3758e-10
3.37578e-10
3.37583e-10
3.3758e-10
3.37589e-10
3.37584e-10
3.37597e-10
3.37591e-10
3.37612e-10
3.37609e-10
3.37642e-10
3.37644e-10
3.37697e-10
3.37708e-10
3.37793e-10
3.37815e-10
3.37942e-10
3.37939e-10
3.38025e-10
3.37744e-10
3.37215e-10
3.35893e-10
3.33339e-10
3.30507e-10
3.19494e-10
3.22232e-10
3.24652e-10
3.25901e-10
3.26394e-10
3.26656e-10
3.26567e-10
3.26563e-10
3.26438e-10
3.26413e-10
3.2633e-10
3.26317e-10
3.26265e-10
3.26262e-10
3.26229e-10
3.26232e-10
3.26212e-10
3.26217e-10
3.26205e-10
3.26209e-10
3.26201e-10
3.26203e-10
3.26198e-10
3.262e-10
3.26199e-10
3.26199e-10
3.262e-10
3.26199e-10
3.26203e-10
3.26201e-10
3.26209e-10
3.26205e-10
3.26217e-10
3.26212e-10
3.26232e-10
3.26229e-10
3.26262e-10
3.26265e-10
3.26317e-10
3.2633e-10
3.26413e-10
3.26438e-10
3.26563e-10
3.26567e-10
3.26655e-10
3.26394e-10
3.259e-10
3.24652e-10
3.22231e-10
3.19494e-10
3.0889e-10
3.11535e-10
3.13824e-10
3.15002e-10
3.15461e-10
3.15703e-10
3.15611e-10
3.15602e-10
3.15478e-10
3.15451e-10
3.15368e-10
3.15354e-10
3.15303e-10
3.15299e-10
3.15267e-10
3.15269e-10
3.15249e-10
3.15254e-10
3.15242e-10
3.15246e-10
3.15238e-10
3.1524e-10
3.15236e-10
3.15237e-10
3.15236e-10
3.15236e-10
3.15237e-10
3.15236e-10
3.1524e-10
3.15238e-10
3.15246e-10
3.15242e-10
3.15254e-10
3.15249e-10
3.15269e-10
3.15267e-10
3.15299e-10
3.15303e-10
3.15354e-10
3.15368e-10
3.15451e-10
3.15478e-10
3.15602e-10
3.15611e-10
3.15702e-10
3.1546e-10
3.15001e-10
3.13823e-10
3.11534e-10
3.0889e-10