/*--------------------------------*- C++ -*----------------------------------*\
| =========                 |                                                 |
| \\      /  F ield         | OpenFOAM: The Open Source CFD Toolbox           |
|  \\    /   O peration     | Version:  dev                                   |
|   \\  /    A nd           | Web:      www.OpenFOAM.org                      |
|    \\/     M anipulation  |                                                 |
\*---------------------------------------------------------------------------*/
FoamFile
{
    version     2.0;
    format      ascii;
    class       volScalarField;
    location    "0.1";
    object      C6H5OH;
}
// * * * * * * * * * * * * * * * * * * * * * * * * * * * * * * * * * * * * * //

dimensions      [0 0 0 0 0 0 0];

internalField   nonuniform List<scalar> 
8000
(
8.78287e-06
8.77835e-06
8.77698e-06
8.77479e-06
8.77455e-06
8.77391e-06
8.77407e-06
8.77381e-06
8.77398e-06
8.77384e-06
8.77396e-06
8.77387e-06
8.77396e-06
8.7739e-06
8.77396e-06
8.77392e-06
8.77396e-06
8.77393e-06
8.77395e-06
8.77394e-06
8.77395e-06
8.77394e-06
8.77395e-06
8.77395e-06
8.77395e-06
8.77395e-06
8.77395e-06
8.77395e-06
8.77394e-06
8.77395e-06
8.77394e-06
8.77395e-06
8.77393e-06
8.77396e-06
8.77392e-06
8.77396e-06
8.7739e-06
8.77396e-06
8.77387e-06
8.77396e-06
8.77384e-06
8.77398e-06
8.77381e-06
8.77407e-06
8.77391e-06
8.77455e-06
8.77479e-06
8.77698e-06
8.77835e-06
8.78287e-06
1.73913e-05
1.73785e-05
1.73714e-05
1.7365e-05
1.73642e-05
1.73625e-05
1.73629e-05
1.73623e-05
1.73627e-05
1.73624e-05
1.73627e-05
1.73624e-05
1.73627e-05
1.73625e-05
1.73627e-05
1.73626e-05
1.73627e-05
1.73626e-05
1.73627e-05
1.73626e-05
1.73626e-05
1.73626e-05
1.73627e-05
1.73626e-05
1.73626e-05
1.73626e-05
1.73626e-05
1.73626e-05
1.73626e-05
1.73627e-05
1.73626e-05
1.73627e-05
1.73626e-05
1.73627e-05
1.73626e-05
1.73627e-05
1.73625e-05
1.73627e-05
1.73624e-05
1.73627e-05
1.73624e-05
1.73627e-05
1.73623e-05
1.73629e-05
1.73625e-05
1.73642e-05
1.7365e-05
1.73714e-05
1.73785e-05
1.73913e-05
1.76068e-05
1.7586e-05
1.75692e-05
1.75583e-05
1.7556e-05
1.75538e-05
1.75541e-05
1.75534e-05
1.75539e-05
1.75535e-05
1.75539e-05
1.75536e-05
1.75539e-05
1.75537e-05
1.75538e-05
1.75537e-05
1.75539e-05
1.75538e-05
1.75538e-05
1.75538e-05
1.75538e-05
1.75538e-05
1.75538e-05
1.75538e-05
1.75538e-05
1.75538e-05
1.75538e-05
1.75538e-05
1.75538e-05
1.75538e-05
1.75538e-05
1.75538e-05
1.75538e-05
1.75539e-05
1.75537e-05
1.75539e-05
1.75537e-05
1.75539e-05
1.75536e-05
1.75539e-05
1.75535e-05
1.75539e-05
1.75534e-05
1.75541e-05
1.75538e-05
1.7556e-05
1.75583e-05
1.75692e-05
1.7586e-05
1.76068e-05
1.34311e-05
1.34113e-05
1.33944e-05
1.33835e-05
1.33808e-05
1.33788e-05
1.3379e-05
1.33784e-05
1.33788e-05
1.33785e-05
1.33788e-05
1.33786e-05
1.33788e-05
1.33786e-05
1.33788e-05
1.33787e-05
1.33788e-05
1.33787e-05
1.33788e-05
1.33787e-05
1.33788e-05
1.33787e-05
1.33788e-05
1.33788e-05
1.33788e-05
1.33788e-05
1.33788e-05
1.33788e-05
1.33787e-05
1.33788e-05
1.33787e-05
1.33788e-05
1.33787e-05
1.33788e-05
1.33787e-05
1.33788e-05
1.33786e-05
1.33788e-05
1.33786e-05
1.33788e-05
1.33785e-05
1.33788e-05
1.33784e-05
1.3379e-05
1.33788e-05
1.33808e-05
1.33835e-05
1.33944e-05
1.34113e-05
1.34311e-05
9.32593e-06
9.31166e-06
9.30013e-06
9.29203e-06
9.28961e-06
9.28829e-06
9.28817e-06
9.2879e-06
9.28803e-06
9.28793e-06
9.28805e-06
9.28798e-06
9.28807e-06
9.28803e-06
9.28808e-06
9.28805e-06
9.2881e-06
9.28806e-06
9.28809e-06
9.28807e-06
9.28809e-06
9.28808e-06
9.2881e-06
9.28809e-06
9.28809e-06
9.28809e-06
9.28809e-06
9.2881e-06
9.28808e-06
9.28809e-06
9.28807e-06
9.28809e-06
9.28807e-06
9.2881e-06
9.28805e-06
9.28808e-06
9.28803e-06
9.28807e-06
9.28798e-06
9.28805e-06
9.28793e-06
9.28803e-06
9.2879e-06
9.28817e-06
9.28829e-06
9.28961e-06
9.29203e-06
9.30013e-06
9.31166e-06
9.32593e-06
6.41505e-06
6.40603e-06
6.39984e-06
6.39448e-06
6.39251e-06
6.39177e-06
6.39147e-06
6.39144e-06
6.39139e-06
6.39143e-06
6.39143e-06
6.39145e-06
6.39145e-06
6.39147e-06
6.39147e-06
6.39149e-06
6.39149e-06
6.39149e-06
6.39149e-06
6.39149e-06
6.39149e-06
6.3915e-06
6.3915e-06
6.3915e-06
6.3915e-06
6.3915e-06
6.3915e-06
6.3915e-06
6.3915e-06
6.39149e-06
6.39149e-06
6.39149e-06
6.39149e-06
6.39149e-06
6.39149e-06
6.39147e-06
6.39147e-06
6.39145e-06
6.39145e-06
6.39143e-06
6.39143e-06
6.39139e-06
6.39144e-06
6.39147e-06
6.39177e-06
6.39251e-06
6.39448e-06
6.39984e-06
6.40603e-06
6.41505e-06
4.5025e-06
4.49717e-06
4.49468e-06
4.49131e-06
4.48976e-06
4.48941e-06
4.48902e-06
4.48913e-06
4.48897e-06
4.4891e-06
4.48901e-06
4.4891e-06
4.48905e-06
4.4891e-06
4.48907e-06
4.48911e-06
4.48908e-06
4.4891e-06
4.48909e-06
4.4891e-06
4.48909e-06
4.4891e-06
4.4891e-06
4.4891e-06
4.4891e-06
4.4891e-06
4.4891e-06
4.4891e-06
4.4891e-06
4.48909e-06
4.4891e-06
4.48909e-06
4.4891e-06
4.48908e-06
4.4891e-06
4.48907e-06
4.4891e-06
4.48904e-06
4.4891e-06
4.48901e-06
4.4891e-06
4.48897e-06
4.48913e-06
4.48902e-06
4.48941e-06
4.48976e-06
4.49131e-06
4.49468e-06
4.49717e-06
4.5025e-06
3.24941e-06
3.24645e-06
3.24625e-06
3.24421e-06
3.24298e-06
3.24286e-06
3.24245e-06
3.24263e-06
3.24242e-06
3.24258e-06
3.24246e-06
3.24257e-06
3.24249e-06
3.24256e-06
3.24251e-06
3.24256e-06
3.24252e-06
3.24256e-06
3.24253e-06
3.24255e-06
3.24254e-06
3.24255e-06
3.24255e-06
3.24255e-06
3.24255e-06
3.24255e-06
3.24255e-06
3.24254e-06
3.24255e-06
3.24254e-06
3.24255e-06
3.24253e-06
3.24256e-06
3.24252e-06
3.24256e-06
3.24251e-06
3.24257e-06
3.24249e-06
3.24257e-06
3.24246e-06
3.24258e-06
3.24242e-06
3.24263e-06
3.24245e-06
3.24286e-06
3.24298e-06
3.24421e-06
3.24625e-06
3.24645e-06
3.24941e-06
2.41012e-06
2.40865e-06
2.4098e-06
2.40862e-06
2.40765e-06
2.40767e-06
2.40725e-06
2.40746e-06
2.40723e-06
2.40741e-06
2.40727e-06
2.4074e-06
2.4073e-06
2.40739e-06
2.40733e-06
2.40738e-06
2.40734e-06
2.40738e-06
2.40735e-06
2.40737e-06
2.40735e-06
2.40737e-06
2.40736e-06
2.40736e-06
2.40736e-06
2.40736e-06
2.40736e-06
2.40736e-06
2.40737e-06
2.40735e-06
2.40737e-06
2.40735e-06
2.40738e-06
2.40734e-06
2.40738e-06
2.40732e-06
2.40739e-06
2.4073e-06
2.4074e-06
2.40727e-06
2.40741e-06
2.40723e-06
2.40747e-06
2.40725e-06
2.40767e-06
2.40765e-06
2.40862e-06
2.4098e-06
2.40865e-06
2.41012e-06
1.83159e-06
1.83108e-06
1.833e-06
1.8324e-06
1.83162e-06
1.83171e-06
1.83132e-06
1.83154e-06
1.8313e-06
1.83148e-06
1.83134e-06
1.83146e-06
1.83137e-06
1.83145e-06
1.83139e-06
1.83144e-06
1.8314e-06
1.83144e-06
1.83141e-06
1.83143e-06
1.83142e-06
1.83143e-06
1.83142e-06
1.83143e-06
1.83142e-06
1.83142e-06
1.83143e-06
1.83142e-06
1.83143e-06
1.83142e-06
1.83143e-06
1.83141e-06
1.83144e-06
1.8314e-06
1.83144e-06
1.83139e-06
1.83145e-06
1.83137e-06
1.83146e-06
1.83134e-06
1.83149e-06
1.8313e-06
1.83154e-06
1.83132e-06
1.83171e-06
1.83162e-06
1.8324e-06
1.833e-06
1.83108e-06
1.83159e-06
1.42187e-06
1.42201e-06
1.42436e-06
1.42415e-06
1.42352e-06
1.42366e-06
1.42329e-06
1.42351e-06
1.42328e-06
1.42346e-06
1.42331e-06
1.42343e-06
1.42334e-06
1.42342e-06
1.42336e-06
1.42341e-06
1.42337e-06
1.42341e-06
1.42338e-06
1.4234e-06
1.42338e-06
1.4234e-06
1.42339e-06
1.42339e-06
1.42339e-06
1.42339e-06
1.42339e-06
1.42339e-06
1.4234e-06
1.42338e-06
1.4234e-06
1.42338e-06
1.42341e-06
1.42337e-06
1.42341e-06
1.42336e-06
1.42342e-06
1.42334e-06
1.42343e-06
1.42331e-06
1.42346e-06
1.42328e-06
1.42351e-06
1.42329e-06
1.42366e-06
1.42352e-06
1.42415e-06
1.42436e-06
1.42201e-06
1.42187e-06
1.11325e-06
1.1137e-06
1.116e-06
1.11598e-06
1.11547e-06
1.11562e-06
1.11529e-06
1.11549e-06
1.11528e-06
1.11544e-06
1.11531e-06
1.11542e-06
1.11533e-06
1.1154e-06
1.11535e-06
1.1154e-06
1.11536e-06
1.11539e-06
1.11537e-06
1.11539e-06
1.11537e-06
1.11538e-06
1.11537e-06
1.11538e-06
1.11538e-06
1.11538e-06
1.11538e-06
1.11537e-06
1.11538e-06
1.11537e-06
1.11539e-06
1.11537e-06
1.11539e-06
1.11536e-06
1.1154e-06
1.11535e-06
1.1154e-06
1.11533e-06
1.11542e-06
1.11531e-06
1.11544e-06
1.11528e-06
1.11549e-06
1.11529e-06
1.11562e-06
1.11547e-06
1.11598e-06
1.116e-06
1.1137e-06
1.11325e-06
8.92942e-07
8.93715e-07
8.96112e-07
8.96283e-07
8.95861e-07
8.96023e-07
8.9571e-07
8.95903e-07
8.95701e-07
8.95855e-07
8.95728e-07
8.95835e-07
8.95751e-07
8.9582e-07
8.95766e-07
8.95813e-07
8.95774e-07
8.95808e-07
8.95783e-07
8.95803e-07
8.95788e-07
8.958e-07
8.95791e-07
8.95797e-07
8.95794e-07
8.95794e-07
8.95797e-07
8.95791e-07
8.958e-07
8.95788e-07
8.95803e-07
8.95783e-07
8.95808e-07
8.95774e-07
8.95814e-07
8.95765e-07
8.95821e-07
8.95751e-07
8.95834e-07
8.95728e-07
8.95855e-07
8.95701e-07
8.95903e-07
8.9571e-07
8.96023e-07
8.95861e-07
8.96283e-07
8.96112e-07
8.93715e-07
8.92942e-07
7.26068e-07
7.26366e-07
7.28164e-07
7.2828e-07
7.28021e-07
7.2813e-07
7.27911e-07
7.28045e-07
7.27901e-07
7.28008e-07
7.27919e-07
7.27993e-07
7.27934e-07
7.27982e-07
7.27944e-07
7.27977e-07
7.2795e-07
7.27974e-07
7.27956e-07
7.2797e-07
7.27959e-07
7.27968e-07
7.27961e-07
7.27966e-07
7.27964e-07
7.27964e-07
7.27966e-07
7.27961e-07
7.27968e-07
7.27959e-07
7.2797e-07
7.27956e-07
7.27973e-07
7.2795e-07
7.27978e-07
7.27944e-07
7.27983e-07
7.27934e-07
7.27993e-07
7.27919e-07
7.28009e-07
7.27901e-07
7.28045e-07
7.27911e-07
7.2813e-07
7.28021e-07
7.2828e-07
7.28164e-07
7.26365e-07
7.26068e-07
5.94562e-07
5.94942e-07
5.9655e-07
5.96704e-07
5.96498e-07
5.96596e-07
5.96406e-07
5.96521e-07
5.96395e-07
5.96488e-07
5.96411e-07
5.96475e-07
5.96424e-07
5.96466e-07
5.96432e-07
5.96461e-07
5.96437e-07
5.96458e-07
5.96443e-07
5.96455e-07
5.96446e-07
5.96453e-07
5.96447e-07
5.96451e-07
5.96449e-07
5.96449e-07
5.96451e-07
5.96447e-07
5.96453e-07
5.96446e-07
5.96455e-07
5.96443e-07
5.96458e-07
5.96437e-07
5.96461e-07
5.96432e-07
5.96466e-07
5.96424e-07
5.96475e-07
5.96411e-07
5.96489e-07
5.96395e-07
5.96521e-07
5.96406e-07
5.96595e-07
5.96498e-07
5.96704e-07
5.9655e-07
5.94942e-07
5.94562e-07
4.96541e-07
4.97011e-07
4.98511e-07
4.98707e-07
4.98541e-07
4.98636e-07
4.98465e-07
4.98569e-07
4.98455e-07
4.98539e-07
4.98469e-07
4.98527e-07
4.9848e-07
4.98518e-07
4.98488e-07
4.98514e-07
4.98492e-07
4.98511e-07
4.98497e-07
4.98509e-07
4.985e-07
4.98507e-07
4.98502e-07
4.98505e-07
4.98503e-07
4.98503e-07
4.98505e-07
4.98502e-07
4.98507e-07
4.985e-07
4.98509e-07
4.98497e-07
4.98511e-07
4.98492e-07
4.98514e-07
4.98488e-07
4.98518e-07
4.9848e-07
4.98526e-07
4.98469e-07
4.98539e-07
4.98455e-07
4.98569e-07
4.98465e-07
4.98635e-07
4.98541e-07
4.98707e-07
4.98511e-07
4.97011e-07
4.96541e-07
4.17217e-07
4.17862e-07
4.19373e-07
4.19681e-07
4.19582e-07
4.19687e-07
4.19533e-07
4.19629e-07
4.19522e-07
4.19598e-07
4.19532e-07
4.19585e-07
4.19542e-07
4.19576e-07
4.19548e-07
4.19572e-07
4.19552e-07
4.19569e-07
4.19556e-07
4.19567e-07
4.19558e-07
4.19565e-07
4.1956e-07
4.19563e-07
4.19562e-07
4.19562e-07
4.19563e-07
4.1956e-07
4.19565e-07
4.19558e-07
4.19567e-07
4.19556e-07
4.19569e-07
4.19552e-07
4.19572e-07
4.19548e-07
4.19576e-07
4.19542e-07
4.19585e-07
4.19532e-07
4.19599e-07
4.19522e-07
4.19629e-07
4.19533e-07
4.19687e-07
4.19582e-07
4.19681e-07
4.19373e-07
4.17862e-07
4.17217e-07
3.56528e-07
3.57209e-07
3.58587e-07
3.58901e-07
3.5883e-07
3.58927e-07
3.5879e-07
3.58876e-07
3.5878e-07
3.58847e-07
3.58788e-07
3.58835e-07
3.58797e-07
3.58827e-07
3.58802e-07
3.58823e-07
3.58805e-07
3.58821e-07
3.58809e-07
3.58818e-07
3.58811e-07
3.58817e-07
3.58812e-07
3.58815e-07
3.58814e-07
3.58814e-07
3.58815e-07
3.58812e-07
3.58817e-07
3.58811e-07
3.58818e-07
3.58809e-07
3.58821e-07
3.58805e-07
3.58823e-07
3.58802e-07
3.58827e-07
3.58797e-07
3.58835e-07
3.58788e-07
3.58847e-07
3.58779e-07
3.58876e-07
3.5879e-07
3.58926e-07
3.58829e-07
3.58901e-07
3.58587e-07
3.57209e-07
3.56528e-07
3.06223e-07
3.07039e-07
3.08429e-07
3.08806e-07
3.08748e-07
3.08853e-07
3.08717e-07
3.08803e-07
3.08707e-07
3.08775e-07
3.08716e-07
3.08763e-07
3.08724e-07
3.08755e-07
3.0873e-07
3.08751e-07
3.08733e-07
3.08749e-07
3.08737e-07
3.08746e-07
3.08739e-07
3.08744e-07
3.0874e-07
3.08743e-07
3.08742e-07
3.08742e-07
3.08743e-07
3.0874e-07
3.08745e-07
3.08739e-07
3.08746e-07
3.08737e-07
3.08748e-07
3.08733e-07
3.08751e-07
3.0873e-07
3.08755e-07
3.08724e-07
3.08763e-07
3.08716e-07
3.08775e-07
3.08707e-07
3.08803e-07
3.08717e-07
3.08853e-07
3.08748e-07
3.08806e-07
3.08429e-07
3.07039e-07
3.06223e-07
2.65504e-07
2.66327e-07
2.67556e-07
2.67911e-07
2.6787e-07
2.67962e-07
2.67843e-07
2.67918e-07
2.67834e-07
2.67892e-07
2.67841e-07
2.67882e-07
2.67848e-07
2.67875e-07
2.67853e-07
2.67871e-07
2.67855e-07
2.67869e-07
2.67859e-07
2.67867e-07
2.67861e-07
2.67866e-07
2.67862e-07
2.67864e-07
2.67863e-07
2.67863e-07
2.67864e-07
2.67862e-07
2.67866e-07
2.67861e-07
2.67867e-07
2.67859e-07
2.67869e-07
2.67855e-07
2.67871e-07
2.67853e-07
2.67875e-07
2.67848e-07
2.67881e-07
2.67841e-07
2.67892e-07
2.67833e-07
2.67918e-07
2.67843e-07
2.67962e-07
2.67869e-07
2.67911e-07
2.67556e-07
2.66327e-07
2.65504e-07
2.33457e-07
2.34319e-07
2.35442e-07
2.35787e-07
2.35759e-07
2.35845e-07
2.35737e-07
2.35804e-07
2.35728e-07
2.35781e-07
2.35734e-07
2.35771e-07
2.35741e-07
2.35765e-07
2.35745e-07
2.35762e-07
2.35747e-07
2.3576e-07
2.35751e-07
2.35758e-07
2.35752e-07
2.35757e-07
2.35753e-07
2.35755e-07
2.35754e-07
2.35754e-07
2.35755e-07
2.35753e-07
2.35757e-07
2.35752e-07
2.35758e-07
2.35751e-07
2.3576e-07
2.35747e-07
2.35762e-07
2.35745e-07
2.35765e-07
2.35741e-07
2.35771e-07
2.35734e-07
2.35781e-07
2.35728e-07
2.35804e-07
2.35737e-07
2.35845e-07
2.35759e-07
2.35787e-07
2.35442e-07
2.34319e-07
2.33457e-07
2.07061e-07
2.07975e-07
2.09006e-07
2.09341e-07
2.09323e-07
2.09403e-07
2.09305e-07
2.09366e-07
2.09296e-07
2.09344e-07
2.09301e-07
2.09335e-07
2.09307e-07
2.09329e-07
2.09311e-07
2.09326e-07
2.09313e-07
2.09325e-07
2.09316e-07
2.09323e-07
2.09318e-07
2.09322e-07
2.09319e-07
2.09321e-07
2.0932e-07
2.0932e-07
2.09321e-07
2.09319e-07
2.09322e-07
2.09318e-07
2.09323e-07
2.09316e-07
2.09325e-07
2.09313e-07
2.09326e-07
2.09311e-07
2.09329e-07
2.09307e-07
2.09335e-07
2.09301e-07
2.09344e-07
2.09296e-07
2.09366e-07
2.09305e-07
2.09403e-07
2.09323e-07
2.09341e-07
2.09006e-07
2.07975e-07
2.07061e-07
1.85137e-07
1.85476e-07
1.86346e-07
1.86648e-07
1.86653e-07
1.86725e-07
1.86644e-07
1.86694e-07
1.86634e-07
1.86673e-07
1.86637e-07
1.86664e-07
1.8664e-07
1.86658e-07
1.86643e-07
1.86655e-07
1.86644e-07
1.86654e-07
1.86647e-07
1.86652e-07
1.86648e-07
1.86651e-07
1.86648e-07
1.8665e-07
1.86649e-07
1.86649e-07
1.8665e-07
1.86648e-07
1.86651e-07
1.86648e-07
1.86652e-07
1.86646e-07
1.86653e-07
1.86644e-07
1.86655e-07
1.86643e-07
1.86658e-07
1.8664e-07
1.86664e-07
1.86637e-07
1.86673e-07
1.86634e-07
1.86694e-07
1.86644e-07
1.86725e-07
1.86653e-07
1.86648e-07
1.86346e-07
1.85476e-07
1.85137e-07
1.66792e-07
1.67156e-07
1.67951e-07
1.6824e-07
1.68252e-07
1.68319e-07
1.68246e-07
1.68291e-07
1.68236e-07
1.68271e-07
1.68238e-07
1.68262e-07
1.68241e-07
1.68257e-07
1.68243e-07
1.68254e-07
1.68244e-07
1.68253e-07
1.68246e-07
1.68252e-07
1.68247e-07
1.6825e-07
1.68248e-07
1.6825e-07
1.68249e-07
1.68249e-07
1.6825e-07
1.68248e-07
1.6825e-07
1.68247e-07
1.68252e-07
1.68246e-07
1.68253e-07
1.68244e-07
1.68254e-07
1.68243e-07
1.68257e-07
1.68241e-07
1.68262e-07
1.68238e-07
1.68271e-07
1.68236e-07
1.68291e-07
1.68246e-07
1.68319e-07
1.68252e-07
1.6824e-07
1.67951e-07
1.67156e-07
1.66792e-07
1.50737e-07
1.51128e-07
1.51885e-07
1.52181e-07
1.52204e-07
1.52271e-07
1.52203e-07
1.52244e-07
1.52193e-07
1.52224e-07
1.52193e-07
1.52216e-07
1.52196e-07
1.52211e-07
1.52198e-07
1.52208e-07
1.52199e-07
1.52207e-07
1.52201e-07
1.52206e-07
1.52202e-07
1.52204e-07
1.52202e-07
1.52204e-07
1.52203e-07
1.52203e-07
1.52204e-07
1.52202e-07
1.52204e-07
1.52202e-07
1.52206e-07
1.52201e-07
1.52207e-07
1.52199e-07
1.52208e-07
1.52198e-07
1.52211e-07
1.52196e-07
1.52216e-07
1.52194e-07
1.52224e-07
1.52192e-07
1.52244e-07
1.52203e-07
1.52271e-07
1.52204e-07
1.52181e-07
1.51885e-07
1.51128e-07
1.50737e-07
1.37079e-07
1.37474e-07
1.38159e-07
1.38439e-07
1.38465e-07
1.38527e-07
1.38465e-07
1.38502e-07
1.38455e-07
1.38484e-07
1.38456e-07
1.38476e-07
1.38458e-07
1.38471e-07
1.38459e-07
1.38469e-07
1.3846e-07
1.38467e-07
1.38462e-07
1.38466e-07
1.38463e-07
1.38465e-07
1.38463e-07
1.38465e-07
1.38464e-07
1.38464e-07
1.38465e-07
1.38463e-07
1.38465e-07
1.38463e-07
1.38466e-07
1.38462e-07
1.38467e-07
1.3846e-07
1.38469e-07
1.38459e-07
1.38471e-07
1.38458e-07
1.38476e-07
1.38456e-07
1.38484e-07
1.38455e-07
1.38502e-07
1.38465e-07
1.38526e-07
1.38465e-07
1.38439e-07
1.38159e-07
1.37474e-07
1.37079e-07
1.25378e-07
1.25773e-07
1.26396e-07
1.2666e-07
1.26688e-07
1.26746e-07
1.2669e-07
1.26723e-07
1.26681e-07
1.26706e-07
1.26681e-07
1.26698e-07
1.26682e-07
1.26694e-07
1.26683e-07
1.26692e-07
1.26684e-07
1.26691e-07
1.26686e-07
1.2669e-07
1.26687e-07
1.26689e-07
1.26687e-07
1.26688e-07
1.26688e-07
1.26688e-07
1.26688e-07
1.26687e-07
1.26689e-07
1.26687e-07
1.2669e-07
1.26686e-07
1.26691e-07
1.26684e-07
1.26692e-07
1.26683e-07
1.26694e-07
1.26682e-07
1.26698e-07
1.26681e-07
1.26706e-07
1.2668e-07
1.26723e-07
1.2669e-07
1.26745e-07
1.26688e-07
1.2666e-07
1.26396e-07
1.25773e-07
1.25378e-07
1.15286e-07
1.15678e-07
1.16248e-07
1.16496e-07
1.16527e-07
1.1658e-07
1.1653e-07
1.16559e-07
1.16521e-07
1.16543e-07
1.1652e-07
1.16536e-07
1.16521e-07
1.16532e-07
1.16522e-07
1.1653e-07
1.16523e-07
1.16529e-07
1.16525e-07
1.16528e-07
1.16525e-07
1.16527e-07
1.16526e-07
1.16527e-07
1.16526e-07
1.16526e-07
1.16527e-07
1.16526e-07
1.16527e-07
1.16525e-07
1.16528e-07
1.16525e-07
1.16529e-07
1.16523e-07
1.1653e-07
1.16522e-07
1.16532e-07
1.16521e-07
1.16536e-07
1.1652e-07
1.16543e-07
1.16521e-07
1.16559e-07
1.1653e-07
1.1658e-07
1.16527e-07
1.16496e-07
1.16248e-07
1.15678e-07
1.15286e-07
1.06529e-07
1.06916e-07
1.07439e-07
1.07673e-07
1.07705e-07
1.07755e-07
1.07709e-07
1.07735e-07
1.077e-07
1.0772e-07
1.07699e-07
1.07713e-07
1.077e-07
1.0771e-07
1.07701e-07
1.07708e-07
1.07702e-07
1.07707e-07
1.07703e-07
1.07706e-07
1.07704e-07
1.07705e-07
1.07704e-07
1.07705e-07
1.07704e-07
1.07704e-07
1.07705e-07
1.07704e-07
1.07705e-07
1.07704e-07
1.07706e-07
1.07703e-07
1.07707e-07
1.07702e-07
1.07708e-07
1.07701e-07
1.0771e-07
1.077e-07
1.07713e-07
1.07699e-07
1.0772e-07
1.077e-07
1.07735e-07
1.07709e-07
1.07754e-07
1.07705e-07
1.07673e-07
1.07439e-07
1.06916e-07
1.06529e-07
9.88867e-08
9.92661e-08
9.97488e-08
9.99687e-08
1.00002e-07
1.00048e-07
1.00007e-07
1.0003e-07
9.99981e-08
1.00016e-07
9.9997e-08
1.0001e-07
9.99976e-08
1.00006e-07
9.99983e-08
1.00005e-07
9.99989e-08
1.00004e-07
1e-07
1.00003e-07
1.00001e-07
1.00002e-07
1.00001e-07
1.00002e-07
1.00001e-07
1.00001e-07
1.00002e-07
1.00001e-07
1.00002e-07
1.00001e-07
1.00003e-07
1e-07
1.00004e-07
9.99989e-08
1.00005e-07
9.99983e-08
1.00006e-07
9.99976e-08
1.0001e-07
9.99971e-08
1.00016e-07
9.9998e-08
1.0003e-07
1.00007e-07
1.00048e-07
1.00002e-07
9.99687e-08
9.97488e-08
9.92661e-08
9.88867e-08
9.21813e-08
9.25525e-08
9.29992e-08
9.32064e-08
9.32404e-08
9.32839e-08
9.32456e-08
9.32668e-08
9.32374e-08
9.32534e-08
9.32361e-08
9.32476e-08
9.32365e-08
9.32443e-08
9.3237e-08
9.32428e-08
9.32375e-08
9.3242e-08
9.32386e-08
9.32413e-08
9.32391e-08
9.32407e-08
9.32394e-08
9.32402e-08
9.32399e-08
9.32399e-08
9.32402e-08
9.32394e-08
9.32407e-08
9.32391e-08
9.32413e-08
9.32386e-08
9.3242e-08
9.32376e-08
9.32428e-08
9.3237e-08
9.32444e-08
9.32365e-08
9.32476e-08
9.32362e-08
9.32534e-08
9.32374e-08
9.32668e-08
9.32456e-08
9.32838e-08
9.32404e-08
9.32064e-08
9.29992e-08
9.25525e-08
9.21813e-08
8.62694e-08
8.66315e-08
8.70462e-08
8.72415e-08
8.72759e-08
8.73168e-08
8.72817e-08
8.73008e-08
8.72738e-08
8.72882e-08
8.72723e-08
8.72827e-08
8.72724e-08
8.72796e-08
8.72729e-08
8.72781e-08
8.72733e-08
8.72773e-08
8.72743e-08
8.72768e-08
8.72747e-08
8.72762e-08
8.7275e-08
8.72758e-08
8.72754e-08
8.72754e-08
8.72758e-08
8.7275e-08
8.72762e-08
8.72748e-08
8.72768e-08
8.72743e-08
8.72773e-08
8.72733e-08
8.72781e-08
8.72729e-08
8.72796e-08
8.72724e-08
8.72826e-08
8.72723e-08
8.72882e-08
8.72738e-08
8.73008e-08
8.72817e-08
8.73167e-08
8.72759e-08
8.72415e-08
8.70461e-08
8.66314e-08
8.62694e-08
8.10332e-08
8.13855e-08
8.17716e-08
8.1956e-08
8.19905e-08
8.2029e-08
8.19969e-08
8.2014e-08
8.19892e-08
8.2002e-08
8.19874e-08
8.19968e-08
8.19874e-08
8.19939e-08
8.19877e-08
8.19925e-08
8.19881e-08
8.19918e-08
8.1989e-08
8.19913e-08
8.19894e-08
8.19908e-08
8.19897e-08
8.19904e-08
8.19901e-08
8.199e-08
8.19904e-08
8.19897e-08
8.19908e-08
8.19894e-08
8.19913e-08
8.1989e-08
8.19918e-08
8.19881e-08
8.19925e-08
8.19877e-08
8.19939e-08
8.19874e-08
8.19968e-08
8.19875e-08
8.20021e-08
8.19892e-08
8.2014e-08
8.19969e-08
8.20289e-08
8.19905e-08
8.1956e-08
8.17716e-08
8.13855e-08
8.10332e-08
7.63757e-08
7.67178e-08
7.70782e-08
7.72524e-08
7.72868e-08
7.73232e-08
7.72936e-08
7.73091e-08
7.72862e-08
7.72977e-08
7.72843e-08
7.72927e-08
7.72841e-08
7.72899e-08
7.72843e-08
7.72887e-08
7.72846e-08
7.7288e-08
7.72854e-08
7.72875e-08
7.72858e-08
7.7287e-08
7.7286e-08
7.72867e-08
7.72864e-08
7.72864e-08
7.72867e-08
7.7286e-08
7.7287e-08
7.72858e-08
7.72875e-08
7.72854e-08
7.7288e-08
7.72846e-08
7.72887e-08
7.72843e-08
7.729e-08
7.72841e-08
7.72927e-08
7.72843e-08
7.72977e-08
7.72862e-08
7.73091e-08
7.72936e-08
7.73231e-08
7.72868e-08
7.72524e-08
7.70781e-08
7.67177e-08
7.63758e-08
7.22164e-08
7.25477e-08
7.2885e-08
7.30499e-08
7.3084e-08
7.31184e-08
7.30912e-08
7.31052e-08
7.3084e-08
7.30943e-08
7.30819e-08
7.30895e-08
7.30816e-08
7.30869e-08
7.30817e-08
7.30857e-08
7.3082e-08
7.30851e-08
7.30827e-08
7.30846e-08
7.30831e-08
7.30842e-08
7.30833e-08
7.30838e-08
7.30836e-08
7.30836e-08
7.30839e-08
7.30833e-08
7.30842e-08
7.30831e-08
7.30846e-08
7.30827e-08
7.30851e-08
7.3082e-08
7.30857e-08
7.30817e-08
7.30869e-08
7.30816e-08
7.30895e-08
7.30819e-08
7.30943e-08
7.3084e-08
7.31052e-08
7.30912e-08
7.31183e-08
7.3084e-08
7.30499e-08
7.2885e-08
7.25477e-08
7.22164e-08
6.8488e-08
6.88081e-08
6.91247e-08
6.92808e-08
6.93144e-08
6.9347e-08
6.93219e-08
6.93346e-08
6.9315e-08
6.93242e-08
6.93127e-08
6.93196e-08
6.93123e-08
6.93171e-08
6.93123e-08
6.9316e-08
6.93126e-08
6.93154e-08
6.93132e-08
6.9315e-08
6.93136e-08
6.93146e-08
6.93137e-08
6.93143e-08
6.9314e-08
6.9314e-08
6.93143e-08
6.93137e-08
6.93146e-08
6.93136e-08
6.9315e-08
6.93132e-08
6.93154e-08
6.93126e-08
6.9316e-08
6.93123e-08
6.93171e-08
6.93123e-08
6.93196e-08
6.93128e-08
6.93242e-08
6.93149e-08
6.93346e-08
6.93219e-08
6.93469e-08
6.93144e-08
6.92808e-08
6.91246e-08
6.88081e-08
6.8488e-08
6.51338e-08
6.54424e-08
6.57402e-08
6.58882e-08
6.59213e-08
6.59522e-08
6.5929e-08
6.59405e-08
6.59223e-08
6.59306e-08
6.59199e-08
6.59262e-08
6.59194e-08
6.59238e-08
6.59194e-08
6.59227e-08
6.59196e-08
6.59222e-08
6.59202e-08
6.59218e-08
6.59205e-08
6.59214e-08
6.59206e-08
6.59212e-08
6.59209e-08
6.59209e-08
6.59212e-08
6.59207e-08
6.59215e-08
6.59205e-08
6.59218e-08
6.59202e-08
6.59222e-08
6.59196e-08
6.59227e-08
6.59194e-08
6.59238e-08
6.59194e-08
6.59262e-08
6.592e-08
6.59306e-08
6.59223e-08
6.59405e-08
6.5929e-08
6.59521e-08
6.59213e-08
6.58882e-08
6.57402e-08
6.54423e-08
6.51339e-08
6.21062e-08
6.24026e-08
6.26837e-08
6.28241e-08
6.28565e-08
6.28858e-08
6.28644e-08
6.28748e-08
6.28579e-08
6.28654e-08
6.28555e-08
6.28611e-08
6.28548e-08
6.28589e-08
6.28547e-08
6.28578e-08
6.28549e-08
6.28574e-08
6.28555e-08
6.2857e-08
6.28558e-08
6.28567e-08
6.28559e-08
6.28564e-08
6.28562e-08
6.28562e-08
6.28564e-08
6.28559e-08
6.28567e-08
6.28558e-08
6.2857e-08
6.28555e-08
6.28574e-08
6.28549e-08
6.28578e-08
6.28547e-08
6.28589e-08
6.28548e-08
6.28611e-08
6.28555e-08
6.28654e-08
6.28579e-08
6.28748e-08
6.28644e-08
6.28858e-08
6.28565e-08
6.28241e-08
6.26836e-08
6.24026e-08
6.21062e-08
5.93643e-08
5.9648e-08
5.99142e-08
6.00475e-08
6.00793e-08
6.01071e-08
6.00873e-08
6.00967e-08
6.0081e-08
6.00876e-08
6.00785e-08
6.00836e-08
6.00777e-08
6.00814e-08
6.00776e-08
6.00804e-08
6.00777e-08
6.008e-08
6.00783e-08
6.00797e-08
6.00785e-08
6.00794e-08
6.00787e-08
6.00791e-08
6.00789e-08
6.00789e-08
6.00791e-08
6.00787e-08
6.00794e-08
6.00785e-08
6.00797e-08
6.00783e-08
6.008e-08
6.00778e-08
6.00805e-08
6.00776e-08
6.00814e-08
6.00777e-08
6.00836e-08
6.00785e-08
6.00877e-08
6.0081e-08
6.00967e-08
6.00873e-08
6.01071e-08
6.00792e-08
6.00475e-08
5.99142e-08
5.9648e-08
5.93644e-08
5.68729e-08
5.71448e-08
5.73969e-08
5.75236e-08
5.75546e-08
5.75811e-08
5.75627e-08
5.75713e-08
5.75566e-08
5.75626e-08
5.7554e-08
5.75587e-08
5.75532e-08
5.75566e-08
5.75531e-08
5.75557e-08
5.75532e-08
5.75553e-08
5.75537e-08
5.7555e-08
5.75539e-08
5.75547e-08
5.7554e-08
5.75544e-08
5.75543e-08
5.75543e-08
5.75544e-08
5.7554e-08
5.75547e-08
5.75539e-08
5.7555e-08
5.75537e-08
5.75553e-08
5.75532e-08
5.75557e-08
5.75531e-08
5.75566e-08
5.75532e-08
5.75586e-08
5.7554e-08
5.75626e-08
5.75566e-08
5.75713e-08
5.75627e-08
5.7581e-08
5.75546e-08
5.75235e-08
5.73969e-08
5.71448e-08
5.68729e-08
5.4602e-08
5.48632e-08
5.5102e-08
5.52223e-08
5.52526e-08
5.52778e-08
5.52607e-08
5.52685e-08
5.52549e-08
5.52602e-08
5.52522e-08
5.52564e-08
5.52514e-08
5.52545e-08
5.52512e-08
5.52536e-08
5.52513e-08
5.52532e-08
5.52517e-08
5.5253e-08
5.5252e-08
5.52527e-08
5.52521e-08
5.52525e-08
5.52523e-08
5.52523e-08
5.52525e-08
5.52521e-08
5.52527e-08
5.5252e-08
5.5253e-08
5.52517e-08
5.52532e-08
5.52513e-08
5.52536e-08
5.52512e-08
5.52545e-08
5.52514e-08
5.52564e-08
5.52523e-08
5.52602e-08
5.52548e-08
5.52685e-08
5.52607e-08
5.52777e-08
5.52525e-08
5.52223e-08
5.5102e-08
5.48632e-08
5.4602e-08
5.25262e-08
5.27776e-08
5.30036e-08
5.3118e-08
5.31475e-08
5.31715e-08
5.31557e-08
5.31628e-08
5.315e-08
5.31548e-08
5.31473e-08
5.31512e-08
5.31464e-08
5.31493e-08
5.31462e-08
5.31485e-08
5.31463e-08
5.31481e-08
5.31467e-08
5.31479e-08
5.31469e-08
5.31476e-08
5.31471e-08
5.31474e-08
5.31473e-08
5.31473e-08
5.31474e-08
5.31471e-08
5.31476e-08
5.3147e-08
5.31479e-08
5.31467e-08
5.31481e-08
5.31463e-08
5.31485e-08
5.31462e-08
5.31493e-08
5.31464e-08
5.31512e-08
5.31474e-08
5.31548e-08
5.315e-08
5.31628e-08
5.31557e-08
5.31715e-08
5.31475e-08
5.3118e-08
5.30036e-08
5.27775e-08
5.25262e-08
5.06233e-08
5.08657e-08
5.10796e-08
5.11884e-08
5.12171e-08
5.124e-08
5.12253e-08
5.12318e-08
5.12198e-08
5.12242e-08
5.12172e-08
5.12207e-08
5.12163e-08
5.12189e-08
5.1216e-08
5.12181e-08
5.12161e-08
5.12178e-08
5.12165e-08
5.12176e-08
5.12167e-08
5.12173e-08
5.12168e-08
5.12171e-08
5.1217e-08
5.1217e-08
5.12171e-08
5.12168e-08
5.12173e-08
5.12167e-08
5.12176e-08
5.12165e-08
5.12178e-08
5.12161e-08
5.12181e-08
5.1216e-08
5.12189e-08
5.12163e-08
5.12207e-08
5.12172e-08
5.12242e-08
5.12198e-08
5.12318e-08
5.12253e-08
5.124e-08
5.12171e-08
5.11884e-08
5.10796e-08
5.08657e-08
5.06233e-08
4.88742e-08
4.91086e-08
4.93107e-08
4.94144e-08
4.94423e-08
4.94641e-08
4.94505e-08
4.94563e-08
4.94452e-08
4.9449e-08
4.94425e-08
4.94457e-08
4.94415e-08
4.9444e-08
4.94413e-08
4.94432e-08
4.94414e-08
4.94429e-08
4.94417e-08
4.94427e-08
4.94419e-08
4.94425e-08
4.9442e-08
4.94423e-08
4.94422e-08
4.94422e-08
4.94423e-08
4.9442e-08
4.94425e-08
4.94419e-08
4.94427e-08
4.94417e-08
4.94429e-08
4.94414e-08
4.94432e-08
4.94413e-08
4.9444e-08
4.94415e-08
4.94457e-08
4.94425e-08
4.9449e-08
4.94451e-08
4.94563e-08
4.94504e-08
4.94641e-08
4.94422e-08
4.94144e-08
4.93107e-08
4.91086e-08
4.88742e-08
4.72624e-08
4.7489e-08
4.76808e-08
4.77792e-08
4.78061e-08
4.7827e-08
4.78143e-08
4.78197e-08
4.78092e-08
4.78127e-08
4.78066e-08
4.78095e-08
4.78056e-08
4.78079e-08
4.78054e-08
4.78072e-08
4.78054e-08
4.78069e-08
4.78058e-08
4.78067e-08
4.7806e-08
4.78065e-08
4.78061e-08
4.78064e-08
4.78062e-08
4.78062e-08
4.78064e-08
4.78061e-08
4.78065e-08
4.7806e-08
4.78067e-08
4.78058e-08
4.78069e-08
4.78054e-08
4.78072e-08
4.78054e-08
4.78079e-08
4.78056e-08
4.78095e-08
4.78066e-08
4.78127e-08
4.78092e-08
4.78197e-08
4.78143e-08
4.7827e-08
4.78061e-08
4.77791e-08
4.76808e-08
4.7489e-08
4.72624e-08
4.57735e-08
4.59929e-08
4.61749e-08
4.62682e-08
4.62943e-08
4.63142e-08
4.63025e-08
4.63074e-08
4.62976e-08
4.63007e-08
4.6295e-08
4.62976e-08
4.6294e-08
4.62961e-08
4.62937e-08
4.62954e-08
4.62938e-08
4.62952e-08
4.62941e-08
4.6295e-08
4.62943e-08
4.62948e-08
4.62944e-08
4.62947e-08
4.62946e-08
4.62946e-08
4.62947e-08
4.62944e-08
4.62948e-08
4.62943e-08
4.6295e-08
4.62941e-08
4.62952e-08
4.62938e-08
4.62954e-08
4.62937e-08
4.62961e-08
4.6294e-08
4.62976e-08
4.6295e-08
4.63007e-08
4.62976e-08
4.63074e-08
4.63025e-08
4.63142e-08
4.62943e-08
4.62682e-08
4.61749e-08
4.59929e-08
4.57735e-08
4.43951e-08
4.46076e-08
4.47803e-08
4.48689e-08
4.4894e-08
4.49131e-08
4.49022e-08
4.49067e-08
4.48975e-08
4.49003e-08
4.48949e-08
4.48974e-08
4.4894e-08
4.48959e-08
4.48937e-08
4.48953e-08
4.48938e-08
4.48951e-08
4.48941e-08
4.48949e-08
4.48943e-08
4.48948e-08
4.48944e-08
4.48946e-08
4.48945e-08
4.48945e-08
4.48946e-08
4.48944e-08
4.48948e-08
4.48943e-08
4.48949e-08
4.48941e-08
4.48951e-08
4.48938e-08
4.48953e-08
4.48937e-08
4.48959e-08
4.4894e-08
4.48973e-08
4.48949e-08
4.49003e-08
4.48975e-08
4.49067e-08
4.49022e-08
4.49131e-08
4.4894e-08
4.48688e-08
4.47802e-08
4.46076e-08
4.43951e-08
4.31161e-08
4.33221e-08
4.34859e-08
4.357e-08
4.35943e-08
4.36126e-08
4.36024e-08
4.36066e-08
4.35979e-08
4.36005e-08
4.35955e-08
4.35977e-08
4.35945e-08
4.35963e-08
4.35943e-08
4.35957e-08
4.35943e-08
4.35956e-08
4.35946e-08
4.35954e-08
4.35948e-08
4.35953e-08
4.35949e-08
4.35951e-08
4.3595e-08
4.3595e-08
4.35951e-08
4.35949e-08
4.35953e-08
4.35948e-08
4.35954e-08
4.35946e-08
4.35955e-08
4.35943e-08
4.35957e-08
4.35943e-08
4.35963e-08
4.35945e-08
4.35977e-08
4.35955e-08
4.36005e-08
4.35979e-08
4.36066e-08
4.36024e-08
4.36126e-08
4.35943e-08
4.357e-08
4.34859e-08
4.3322e-08
4.31161e-08
4.19271e-08
4.21266e-08
4.22821e-08
4.2362e-08
4.23854e-08
4.2403e-08
4.23935e-08
4.23974e-08
4.23893e-08
4.23916e-08
4.23869e-08
4.23889e-08
4.23859e-08
4.23876e-08
4.23857e-08
4.23871e-08
4.23858e-08
4.23869e-08
4.23861e-08
4.23868e-08
4.23862e-08
4.23867e-08
4.23863e-08
4.23866e-08
4.23865e-08
4.23865e-08
4.23866e-08
4.23863e-08
4.23867e-08
4.23862e-08
4.23868e-08
4.23861e-08
4.23869e-08
4.23858e-08
4.23871e-08
4.23857e-08
4.23876e-08
4.23859e-08
4.23889e-08
4.23869e-08
4.23916e-08
4.23893e-08
4.23974e-08
4.23935e-08
4.24029e-08
4.23854e-08
4.2362e-08
4.22821e-08
4.21266e-08
4.19271e-08
4.08196e-08
4.10128e-08