/*--------------------------------*- C++ -*----------------------------------*\
| =========                 |                                                 |
| \\      /  F ield         | OpenFOAM: The Open Source CFD Toolbox           |
|  \\    /   O peration     | Version:  dev                                   |
|   \\  /    A nd           | Web:      www.OpenFOAM.org                      |
|    \\/     M anipulation  |                                                 |
\*---------------------------------------------------------------------------*/
FoamFile
{
    version     2.0;
    format      ascii;
    class       volScalarField;
    location    "0.1";
    object      C6H5O;
}
// * * * * * * * * * * * * * * * * * * * * * * * * * * * * * * * * * * * * * //

dimensions      [0 0 0 0 0 0 0];

internalField   nonuniform List<scalar> 
8000
(
7.3675e-07
7.35513e-07
7.35417e-07
7.35267e-07
7.35229e-07
7.35193e-07
7.35192e-07
7.35183e-07
7.35187e-07
7.35183e-07
7.35187e-07
7.35184e-07
7.35187e-07
7.35186e-07
7.35188e-07
7.35187e-07
7.35188e-07
7.35187e-07
7.35188e-07
7.35188e-07
7.35188e-07
7.35188e-07
7.35188e-07
7.35188e-07
7.35188e-07
7.35188e-07
7.35188e-07
7.35188e-07
7.35188e-07
7.35188e-07
7.35188e-07
7.35188e-07
7.35187e-07
7.35188e-07
7.35187e-07
7.35188e-07
7.35186e-07
7.35187e-07
7.35184e-07
7.35187e-07
7.35183e-07
7.35187e-07
7.35183e-07
7.35192e-07
7.35193e-07
7.35229e-07
7.35267e-07
7.35417e-07
7.35512e-07
7.3675e-07
9.41071e-07
9.40665e-07
9.40817e-07
9.40735e-07
9.40693e-07
9.40676e-07
9.40661e-07
9.40662e-07
9.40656e-07
9.4066e-07
9.40657e-07
9.4066e-07
9.40658e-07
9.40661e-07
9.4066e-07
9.40661e-07
9.4066e-07
9.40661e-07
9.40661e-07
9.40662e-07
9.40661e-07
9.40662e-07
9.40662e-07
9.40662e-07
9.40662e-07
9.40662e-07
9.40662e-07
9.40662e-07
9.40662e-07
9.40661e-07
9.40662e-07
9.40661e-07
9.40661e-07
9.4066e-07
9.40661e-07
9.4066e-07
9.40661e-07
9.40658e-07
9.4066e-07
9.40657e-07
9.4066e-07
9.40656e-07
9.40662e-07
9.40661e-07
9.40676e-07
9.40693e-07
9.40735e-07
9.40817e-07
9.40665e-07
9.4107e-07
1.01847e-06
1.01805e-06
1.01793e-06
1.0177e-06
1.01758e-06
1.01756e-06
1.01752e-06
1.01753e-06
1.01752e-06
1.01753e-06
1.01752e-06
1.01753e-06
1.01753e-06
1.01753e-06
1.01753e-06
1.01753e-06
1.01753e-06
1.01753e-06
1.01753e-06
1.01753e-06
1.01753e-06
1.01753e-06
1.01753e-06
1.01753e-06
1.01753e-06
1.01753e-06
1.01753e-06
1.01753e-06
1.01753e-06
1.01753e-06
1.01753e-06
1.01753e-06
1.01753e-06
1.01753e-06
1.01753e-06
1.01753e-06
1.01753e-06
1.01753e-06
1.01753e-06
1.01752e-06
1.01753e-06
1.01752e-06
1.01753e-06
1.01752e-06
1.01756e-06
1.01758e-06
1.0177e-06
1.01793e-06
1.01805e-06
1.01847e-06
8.59643e-07
8.59131e-07
8.5882e-07
8.58486e-07
8.58319e-07
8.58288e-07
8.58246e-07
8.58259e-07
8.58241e-07
8.58256e-07
8.58246e-07
8.58256e-07
8.58249e-07
8.58256e-07
8.58251e-07
8.58256e-07
8.58253e-07
8.58256e-07
8.58254e-07
8.58256e-07
8.58255e-07
8.58256e-07
8.58255e-07
8.58256e-07
8.58255e-07
8.58255e-07
8.58256e-07
8.58255e-07
8.58256e-07
8.58255e-07
8.58256e-07
8.58254e-07
8.58256e-07
8.58253e-07
8.58256e-07
8.58251e-07
8.58256e-07
8.58249e-07
8.58256e-07
8.58246e-07
8.58256e-07
8.58241e-07
8.58259e-07
8.58246e-07
8.58289e-07
8.58319e-07
8.58487e-07
8.5882e-07
8.59131e-07
8.59644e-07
6.31884e-07
6.31447e-07
6.31197e-07
6.3089e-07
6.30723e-07
6.30701e-07
6.30654e-07
6.30673e-07
6.30651e-07
6.30669e-07
6.30656e-07
6.30668e-07
6.3066e-07
6.30668e-07
6.30662e-07
6.30668e-07
6.30664e-07
6.30667e-07
6.30665e-07
6.30667e-07
6.30665e-07
6.30667e-07
6.30666e-07
6.30667e-07
6.30666e-07
6.30666e-07
6.30667e-07
6.30666e-07
6.30667e-07
6.30665e-07
6.30667e-07
6.30665e-07
6.30667e-07
6.30664e-07
6.30668e-07
6.30662e-07
6.30668e-07
6.3066e-07
6.30668e-07
6.30656e-07
6.30669e-07
6.30651e-07
6.30673e-07
6.30654e-07
6.30701e-07
6.30723e-07
6.3089e-07
6.31197e-07
6.31447e-07
6.31885e-07
4.38208e-07
4.37924e-07
4.37839e-07
4.37619e-07
4.37478e-07
4.37471e-07
4.37424e-07
4.37447e-07
4.37423e-07
4.37442e-07
4.37427e-07
4.37441e-07
4.37431e-07
4.3744e-07
4.37433e-07
4.37439e-07
4.37435e-07
4.37439e-07
4.37436e-07
4.37438e-07
4.37437e-07
4.37438e-07
4.37437e-07
4.37438e-07
4.37438e-07
4.37438e-07
4.37438e-07
4.37437e-07
4.37438e-07
4.37437e-07
4.37438e-07
4.37436e-07
4.37439e-07
4.37435e-07
4.37439e-07
4.37433e-07
4.3744e-07
4.37431e-07
4.37441e-07
4.37427e-07
4.37442e-07
4.37423e-07
4.37447e-07
4.37424e-07
4.37472e-07
4.37478e-07
4.37619e-07
4.37839e-07
4.37924e-07
4.38208e-07
2.98803e-07
2.98656e-07
2.9871e-07
2.98575e-07
2.98464e-07
2.98469e-07
2.98425e-07
2.98449e-07
2.98425e-07
2.98444e-07
2.98429e-07
2.98442e-07
2.98432e-07
2.98441e-07
2.98434e-07
2.9844e-07
2.98436e-07
2.9844e-07
2.98437e-07
2.98439e-07
2.98437e-07
2.98439e-07
2.98438e-07
2.98439e-07
2.98438e-07
2.98438e-07
2.98439e-07
2.98438e-07
2.98439e-07
2.98437e-07
2.98439e-07
2.98437e-07
2.9844e-07
2.98436e-07
2.9844e-07
2.98434e-07
2.98441e-07
2.98432e-07
2.98442e-07
2.98429e-07
2.98444e-07
2.98425e-07
2.98449e-07
2.98425e-07
2.98469e-07
2.98464e-07
2.98575e-07
2.9871e-07
2.98656e-07
2.98804e-07
2.04402e-07
2.04347e-07
2.04486e-07
2.04414e-07
2.0433e-07
2.04341e-07
2.04302e-07
2.04325e-07
2.04302e-07
2.0432e-07
2.04306e-07
2.04318e-07
2.04309e-07
2.04317e-07
2.0431e-07
2.04316e-07
2.04312e-07
2.04315e-07
2.04313e-07
2.04315e-07
2.04313e-07
2.04314e-07
2.04314e-07
2.04314e-07
2.04314e-07
2.04314e-07
2.04314e-07
2.04314e-07
2.04314e-07
2.04313e-07
2.04315e-07
2.04313e-07
2.04315e-07
2.04312e-07
2.04316e-07
2.0431e-07
2.04317e-07
2.04309e-07
2.04318e-07
2.04306e-07
2.0432e-07
2.04302e-07
2.04325e-07
2.04302e-07
2.04341e-07
2.0433e-07
2.04414e-07
2.04486e-07
2.04347e-07
2.04402e-07
1.41848e-07
1.4185e-07
1.42027e-07
1.41996e-07
1.41934e-07
1.41948e-07
1.41914e-07
1.41935e-07
1.41914e-07
1.4193e-07
1.41917e-07
1.41928e-07
1.4192e-07
1.41927e-07
1.41921e-07
1.41926e-07
1.41922e-07
1.41926e-07
1.41923e-07
1.41925e-07
1.41924e-07
1.41925e-07
1.41924e-07
1.41925e-07
1.41924e-07
1.41924e-07
1.41925e-07
1.41924e-07
1.41925e-07
1.41924e-07
1.41925e-07
1.41923e-07
1.41926e-07
1.41922e-07
1.41926e-07
1.41921e-07
1.41927e-07
1.4192e-07
1.41928e-07
1.41917e-07
1.4193e-07
1.41914e-07
1.41935e-07
1.41914e-07
1.41948e-07
1.41934e-07
1.41996e-07
1.42027e-07
1.4185e-07
1.41848e-07
1.00523e-07
1.00557e-07
1.00745e-07
1.0074e-07
1.00694e-07
1.00709e-07
1.0068e-07
1.00698e-07
1.0068e-07
1.00694e-07
1.00683e-07
1.00692e-07
1.00685e-07
1.00691e-07
1.00686e-07
1.0069e-07
1.00687e-07
1.0069e-07
1.00688e-07
1.00689e-07
1.00688e-07
1.00689e-07
1.00688e-07
1.00689e-07
1.00689e-07
1.00689e-07
1.00689e-07
1.00688e-07
1.00689e-07
1.00688e-07
1.0069e-07
1.00688e-07
1.0069e-07
1.00687e-07
1.0069e-07
1.00686e-07
1.00691e-07
1.00685e-07
1.00692e-07
1.00683e-07
1.00694e-07
1.0068e-07
1.00698e-07
1.0068e-07
1.00709e-07
1.00694e-07
1.0074e-07
1.00745e-07
1.00557e-07
1.00523e-07
7.30166e-08
7.30696e-08
7.32545e-08
7.32651e-08
7.32311e-08
7.32456e-08
7.32214e-08
7.32371e-08
7.32214e-08
7.32336e-08
7.32236e-08
7.3232e-08
7.32253e-08
7.32308e-08
7.32264e-08
7.32302e-08
7.32271e-08
7.32297e-08
7.32278e-08
7.32294e-08
7.32281e-08
7.32291e-08
7.32284e-08
7.32288e-08
7.32286e-08
7.32286e-08
7.32288e-08
7.32284e-08
7.32291e-08
7.32281e-08
7.32294e-08
7.32278e-08
7.32297e-08
7.32271e-08
7.32302e-08
7.32264e-08
7.32308e-08
7.32253e-08
7.3232e-08
7.32236e-08
7.32336e-08
7.32214e-08
7.32371e-08
7.32214e-08
7.32456e-08
7.32311e-08
7.32651e-08
7.32545e-08
7.30696e-08
7.30166e-08
5.37361e-08
5.37912e-08
5.39501e-08
5.39655e-08
5.39402e-08
5.39524e-08
5.39329e-08
5.39456e-08
5.39328e-08
5.39426e-08
5.39345e-08
5.39413e-08
5.39359e-08
5.39403e-08
5.39368e-08
5.39398e-08
5.39373e-08
5.39394e-08
5.39379e-08
5.39391e-08
5.39381e-08
5.39389e-08
5.39383e-08
5.39387e-08
5.39385e-08
5.39385e-08
5.39387e-08
5.39383e-08
5.39389e-08
5.39381e-08
5.39391e-08
5.39379e-08
5.39394e-08
5.39373e-08
5.39398e-08
5.39367e-08
5.39403e-08
5.39359e-08
5.39413e-08
5.39345e-08
5.39426e-08
5.39327e-08
5.39456e-08
5.39329e-08
5.39524e-08
5.39402e-08
5.39655e-08
5.39501e-08
5.37912e-08
5.37361e-08
4.09324e-08
4.09953e-08
4.11439e-08
4.11651e-08
4.11455e-08
4.1157e-08
4.11399e-08
4.11512e-08
4.11398e-08
4.11485e-08
4.11413e-08
4.11473e-08
4.11425e-08
4.11464e-08
4.11433e-08
4.1146e-08
4.11437e-08
4.11456e-08
4.11442e-08
4.11453e-08
4.11445e-08
4.11451e-08
4.11446e-08
4.1145e-08
4.11448e-08
4.11448e-08
4.1145e-08
4.11446e-08
4.11451e-08
4.11445e-08
4.11454e-08
4.11442e-08
4.11456e-08
4.11437e-08
4.1146e-08
4.11432e-08
4.11464e-08
4.11425e-08
4.11473e-08
4.11413e-08
4.11485e-08
4.11398e-08
4.11512e-08
4.11399e-08
4.1157e-08
4.11455e-08
4.11651e-08
4.11439e-08
4.09953e-08
4.09324e-08
3.18766e-08
3.19068e-08
3.20124e-08
3.20272e-08
3.20167e-08
3.20242e-08
3.20131e-08
3.20204e-08
3.20128e-08
3.20185e-08
3.20137e-08
3.20177e-08
3.20145e-08
3.2017e-08
3.2015e-08
3.20167e-08
3.20152e-08
3.20165e-08
3.20156e-08
3.20163e-08
3.20157e-08
3.20162e-08
3.20158e-08
3.20161e-08
3.2016e-08
3.2016e-08
3.20161e-08
3.20158e-08
3.20162e-08
3.20157e-08
3.20163e-08
3.20156e-08
3.20165e-08
3.20152e-08
3.20167e-08
3.2015e-08
3.2017e-08
3.20145e-08
3.20176e-08
3.20137e-08
3.20185e-08
3.20128e-08
3.20204e-08
3.20131e-08
3.20242e-08
3.20167e-08
3.20272e-08
3.20124e-08
3.19068e-08
3.18766e-08
2.51712e-08
2.52005e-08
2.52889e-08
2.53032e-08
2.52954e-08
2.53016e-08
2.52925e-08
2.52985e-08
2.52922e-08
2.52968e-08
2.52929e-08
2.52961e-08
2.52935e-08
2.52956e-08
2.52939e-08
2.52954e-08
2.52941e-08
2.52952e-08
2.52944e-08
2.5295e-08
2.52945e-08
2.52949e-08
2.52946e-08
2.52948e-08
2.52947e-08
2.52947e-08
2.52948e-08
2.52946e-08
2.52949e-08
2.52945e-08
2.5295e-08
2.52944e-08
2.52952e-08
2.52941e-08
2.52954e-08
2.52939e-08
2.52956e-08
2.52935e-08
2.52961e-08
2.52929e-08
2.52968e-08
2.52922e-08
2.52985e-08
2.52925e-08
2.53016e-08
2.52954e-08
2.53032e-08
2.52889e-08
2.52005e-08
2.51712e-08
2.04334e-08
2.04635e-08
2.05414e-08
2.05558e-08
2.055e-08
2.05555e-08
2.05477e-08
2.05528e-08
2.05474e-08
2.05514e-08
2.0548e-08
2.05507e-08
2.05485e-08
2.05503e-08
2.05488e-08
2.05501e-08
2.0549e-08
2.05499e-08
2.05493e-08
2.05498e-08
2.05494e-08
2.05497e-08
2.05495e-08
2.05496e-08
2.05495e-08
2.05495e-08
2.05496e-08
2.05495e-08
2.05497e-08
2.05494e-08
2.05498e-08
2.05493e-08
2.05499e-08
2.0549e-08
2.05501e-08
2.05488e-08
2.05503e-08
2.05485e-08
2.05507e-08
2.0548e-08
2.05514e-08
2.05474e-08
2.05528e-08
2.05477e-08
2.05555e-08
2.055e-08
2.05558e-08
2.05414e-08
2.04635e-08
2.04334e-08
1.67715e-08
1.68068e-08
1.6881e-08
1.68991e-08
1.68962e-08
1.69018e-08
1.68951e-08
1.68996e-08
1.68947e-08
1.68982e-08
1.68952e-08
1.68976e-08
1.68956e-08
1.68971e-08
1.68958e-08
1.68969e-08
1.6896e-08
1.68968e-08
1.68962e-08
1.68966e-08
1.68963e-08
1.68965e-08
1.68963e-08
1.68965e-08
1.68964e-08
1.68964e-08
1.68965e-08
1.68963e-08
1.68966e-08
1.68963e-08
1.68966e-08
1.68962e-08
1.68968e-08
1.6896e-08
1.68969e-08
1.68958e-08
1.68971e-08
1.68956e-08
1.68975e-08
1.68952e-08
1.68982e-08
1.68947e-08
1.68996e-08
1.68951e-08
1.69018e-08
1.68962e-08
1.68991e-08
1.6881e-08
1.68068e-08
1.67715e-08
1.40743e-08
1.4109e-08
1.41744e-08
1.41916e-08
1.41898e-08
1.41948e-08
1.4189e-08
1.41929e-08
1.41886e-08
1.41916e-08
1.4189e-08
1.4191e-08
1.41893e-08
1.41907e-08
1.41895e-08
1.41905e-08
1.41897e-08
1.41903e-08
1.41898e-08
1.41902e-08
1.41899e-08
1.41902e-08
1.419e-08
1.41901e-08
1.419e-08
1.419e-08
1.41901e-08
1.419e-08
1.41902e-08
1.41899e-08
1.41902e-08
1.41898e-08
1.41903e-08
1.41897e-08
1.41905e-08
1.41895e-08
1.41907e-08
1.41893e-08
1.4191e-08
1.4189e-08
1.41916e-08
1.41886e-08
1.41929e-08
1.4189e-08
1.41948e-08
1.41898e-08
1.41916e-08
1.41744e-08
1.4109e-08
1.40743e-08
1.19087e-08
1.19476e-08
1.2011e-08
1.20299e-08
1.20287e-08
1.20338e-08
1.20282e-08
1.20319e-08
1.20278e-08
1.20307e-08
1.20281e-08
1.20301e-08
1.20285e-08
1.20298e-08
1.20287e-08
1.20296e-08
1.20288e-08
1.20295e-08
1.2029e-08
1.20294e-08
1.20291e-08
1.20293e-08
1.20291e-08
1.20292e-08
1.20292e-08
1.20292e-08
1.20292e-08
1.20291e-08
1.20293e-08
1.20291e-08
1.20294e-08
1.2029e-08
1.20295e-08
1.20288e-08
1.20296e-08
1.20287e-08
1.20298e-08
1.20285e-08
1.20301e-08
1.20281e-08
1.20307e-08
1.20278e-08
1.20319e-08
1.20282e-08
1.20338e-08
1.20287e-08
1.20299e-08
1.2011e-08
1.19476e-08
1.19087e-08
1.02011e-08
1.02388e-08
1.02937e-08
1.0311e-08
1.03103e-08
1.03147e-08
1.03099e-08
1.03131e-08
1.03095e-08
1.0312e-08
1.03098e-08
1.03115e-08
1.03101e-08
1.03112e-08
1.03103e-08
1.03111e-08
1.03104e-08
1.0311e-08
1.03105e-08
1.03109e-08
1.03106e-08
1.03108e-08
1.03106e-08
1.03107e-08
1.03107e-08
1.03107e-08
1.03107e-08
1.03106e-08
1.03108e-08
1.03106e-08
1.03109e-08
1.03105e-08
1.0311e-08
1.03104e-08
1.03111e-08
1.03103e-08
1.03112e-08
1.03101e-08
1.03115e-08
1.03098e-08
1.0312e-08
1.03095e-08
1.03131e-08
1.03099e-08
1.03147e-08
1.03103e-08
1.0311e-08
1.02937e-08
1.02388e-08
1.02011e-08
8.88527e-09
8.9235e-09
8.97271e-09
8.98901e-09
8.98881e-09
8.99279e-09
8.98852e-09
8.99132e-09
8.98817e-09
8.99033e-09
8.9884e-09
8.9899e-09
8.98864e-09
8.98962e-09
8.9888e-09
8.98949e-09
8.98889e-09
8.9894e-09
8.98903e-09
8.98933e-09
8.98909e-09
8.98926e-09
8.98912e-09
8.98922e-09
8.98918e-09
8.98918e-09
8.98922e-09
8.98912e-09
8.98927e-09
8.98909e-09
8.98933e-09
8.98902e-09
8.9894e-09
8.98889e-09
8.98949e-09
8.98879e-09
8.98963e-09
8.98864e-09
8.9899e-09
8.98841e-09
8.99034e-09
8.98817e-09
8.99132e-09
8.98852e-09
8.99279e-09
8.98881e-09
8.98901e-09
8.97271e-09
8.9235e-09
8.88527e-09
7.82004e-09
7.85957e-09
7.90403e-09
7.91946e-09
7.91959e-09
7.92323e-09
7.91939e-09
7.92189e-09
7.91905e-09
7.92098e-09
7.91925e-09
7.92059e-09
7.91946e-09
7.92034e-09
7.9196e-09
7.92022e-09
7.91968e-09
7.92014e-09
7.91981e-09
7.92008e-09
7.91986e-09
7.92002e-09
7.91989e-09
7.91998e-09
7.91994e-09
7.91994e-09
7.91998e-09
7.91989e-09
7.92002e-09
7.91986e-09
7.92008e-09
7.91981e-09
7.92014e-09
7.91968e-09
7.92022e-09
7.9196e-09
7.92035e-09
7.91946e-09
7.92059e-09
7.91925e-09
7.92099e-09
7.91905e-09
7.92189e-09
7.91939e-09
7.92322e-09
7.91958e-09
7.91946e-09
7.90403e-09
7.85957e-09
7.82004e-09
6.94775e-09
6.96385e-09
7.00109e-09
7.01482e-09
7.01579e-09
7.01903e-09
7.01591e-09
7.01793e-09
7.01554e-09
7.01707e-09
7.01561e-09
7.01668e-09
7.01572e-09
7.01643e-09
7.01581e-09
7.01631e-09
7.01586e-09
7.01623e-09
7.01595e-09
7.01618e-09
7.01599e-09
7.01613e-09
7.01602e-09
7.01609e-09
7.01606e-09
7.01606e-09
7.01609e-09
7.01602e-09
7.01613e-09
7.01599e-09
7.01618e-09
7.01595e-09
7.01623e-09
7.01586e-09
7.01631e-09
7.0158e-09
7.01643e-09
7.01572e-09
7.01667e-09
7.01561e-09
7.01707e-09
7.01553e-09
7.01793e-09
7.01591e-09
7.01902e-09
7.01578e-09
7.01482e-09
7.00108e-09
6.96385e-09
6.94775e-09
6.22632e-09
6.24297e-09
6.27663e-09
6.28957e-09
6.29071e-09
6.2937e-09
6.2909e-09
6.2927e-09
6.29054e-09
6.2919e-09
6.29058e-09
6.29154e-09
6.29068e-09
6.29131e-09
6.29075e-09
6.2912e-09
6.2908e-09
6.29113e-09
6.29088e-09
6.29108e-09
6.29092e-09
6.29104e-09
6.29094e-09
6.291e-09
6.29097e-09
6.29097e-09
6.291e-09
6.29094e-09
6.29104e-09
6.29092e-09
6.29108e-09
6.29088e-09
6.29113e-09
6.2908e-09
6.2912e-09
6.29075e-09
6.29132e-09
6.29068e-09
6.29154e-09
6.29059e-09
6.29191e-09
6.29053e-09
6.2927e-09
6.2909e-09
6.2937e-09
6.29071e-09
6.28957e-09
6.27663e-09
6.24297e-09
6.22632e-09
5.60104e-09
5.61841e-09
5.65005e-09
5.663e-09
5.66452e-09
5.66743e-09
5.66485e-09
5.66649e-09
5.66447e-09
5.66571e-09
5.66448e-09
5.66535e-09
5.66456e-09
5.66513e-09
5.66461e-09
5.66502e-09
5.66465e-09
5.66496e-09
5.66473e-09
5.66491e-09
5.66476e-09
5.66487e-09
5.66478e-09
5.66484e-09
5.66481e-09
5.66481e-09
5.66484e-09
5.66478e-09
5.66487e-09
5.66476e-09
5.66491e-09
5.66472e-09
5.66496e-09
5.66465e-09
5.66503e-09
5.66461e-09
5.66514e-09
5.66456e-09
5.66535e-09
5.66449e-09
5.66571e-09
5.66447e-09
5.66649e-09
5.66485e-09
5.66742e-09
5.66451e-09
5.663e-09
5.65005e-09
5.61841e-09
5.60104e-09
5.07342e-09
5.09058e-09
5.11906e-09
5.13113e-09
5.13272e-09
5.13539e-09
5.13308e-09
5.13453e-09
5.13272e-09
5.13381e-09
5.13271e-09
5.13347e-09
5.13276e-09
5.13327e-09
5.13281e-09
5.13317e-09
5.13284e-09
5.13312e-09
5.13291e-09
5.13307e-09
5.13294e-09
5.13303e-09
5.13295e-09
5.133e-09
5.13298e-09
5.13298e-09
5.13301e-09
5.13295e-09
5.13304e-09
5.13294e-09
5.13307e-09
5.13291e-09
5.13312e-09
5.13284e-09
5.13318e-09
5.13281e-09
5.13328e-09
5.13276e-09
5.13347e-09
5.13271e-09
5.13381e-09
5.13271e-09
5.13453e-09
5.13308e-09
5.13538e-09
5.13272e-09
5.13113e-09
5.11906e-09
5.09058e-09
5.07342e-09
4.62436e-09
4.64128e-09
4.66702e-09
4.67829e-09
4.67993e-09
4.68238e-09
4.68031e-09
4.6816e-09
4.67996e-09
4.68092e-09
4.67993e-09
4.68061e-09
4.67997e-09
4.68043e-09
4.68001e-09
4.68034e-09
4.68004e-09
4.68029e-09
4.6801e-09
4.68025e-09
4.68012e-09
4.68021e-09
4.68014e-09
4.68018e-09
4.68016e-09
4.68016e-09
4.68018e-09
4.68014e-09
4.68021e-09
4.68012e-09
4.68025e-09
4.68009e-09
4.68028e-09
4.68004e-09
4.68034e-09
4.68001e-09
4.68043e-09
4.67997e-09
4.68061e-09
4.67994e-09
4.68092e-09
4.67996e-09
4.6816e-09
4.68031e-09
4.68238e-09
4.67993e-09
4.67829e-09
4.66702e-09
4.64128e-09
4.62437e-09
4.23922e-09
4.25579e-09
4.2792e-09
4.28973e-09
4.2914e-09
4.29366e-09
4.29179e-09
4.29293e-09
4.29145e-09
4.2923e-09
4.29141e-09
4.29201e-09
4.29144e-09
4.29184e-09
4.29146e-09
4.29176e-09
4.29149e-09
4.29171e-09
4.29154e-09
4.29168e-09
4.29156e-09
4.29164e-09
4.29158e-09
4.29162e-09
4.2916e-09
4.2916e-09
4.29162e-09
4.29158e-09
4.29164e-09
4.29156e-09
4.29168e-09
4.29154e-09
4.29171e-09
4.29149e-09
4.29176e-09
4.29146e-09
4.29184e-09
4.29144e-09
4.29201e-09
4.29141e-09
4.2923e-09
4.29145e-09
4.29293e-09
4.29179e-09
4.29366e-09
4.2914e-09
4.28973e-09
4.2792e-09
4.25579e-09
4.23922e-09
3.90652e-09
3.92269e-09
3.9441e-09
3.95394e-09
3.95562e-09
3.95772e-09
3.95603e-09
3.95705e-09
3.9557e-09
3.95645e-09
3.95565e-09
3.95618e-09
3.95566e-09
3.95602e-09
3.95568e-09
3.95595e-09
3.9557e-09
3.9559e-09
3.95575e-09
3.95587e-09
3.95577e-09
3.95584e-09
3.95578e-09
3.95582e-09
3.9558e-09
3.9558e-09
3.95582e-09
3.95578e-09
3.95584e-09
3.95577e-09
3.95587e-09
3.95575e-09
3.9559e-09
3.9557e-09
3.95595e-09
3.95568e-09
3.95602e-09
3.95566e-09
3.95618e-09
3.95565e-09
3.95646e-09
3.9557e-09
3.95705e-09
3.95603e-09
3.95772e-09
3.95562e-09
3.95394e-09
3.9441e-09
3.92269e-09
3.90652e-09
3.61727e-09
3.633e-09
3.65267e-09
3.66187e-09
3.66356e-09
3.66551e-09
3.66397e-09
3.66488e-09
3.66365e-09
3.66432e-09
3.66359e-09
3.66407e-09
3.66359e-09
3.66392e-09
3.66361e-09
3.66384e-09
3.66362e-09
3.66381e-09
3.66367e-09
3.66378e-09
3.66368e-09
3.66375e-09
3.66369e-09
3.66373e-09
3.66371e-09
3.66371e-09
3.66373e-09
3.6637e-09
3.66375e-09
3.66368e-09
3.66378e-09
3.66366e-09
3.66381e-09
3.66362e-09
3.66385e-09
3.66361e-09
3.66392e-09
3.66359e-09
3.66407e-09
3.66359e-09
3.66432e-09
3.66365e-09
3.66488e-09
3.66397e-09
3.66551e-09
3.66356e-09
3.66187e-09
3.65267e-09
3.633e-09
3.61727e-09
3.3643e-09
3.37955e-09
3.3977e-09
3.40632e-09
3.408e-09
3.40982e-09
3.40842e-09
3.40924e-09
3.40811e-09
3.40871e-09
3.40804e-09
3.40846e-09
3.40803e-09
3.40832e-09
3.40804e-09
3.40826e-09
3.40805e-09
3.40822e-09
3.40809e-09
3.40819e-09
3.40811e-09
3.40817e-09
3.40812e-09
3.40815e-09
3.40814e-09
3.40814e-09
3.40815e-09
3.40812e-09
3.40817e-09
3.40811e-09
3.40819e-09
3.40809e-09
3.40822e-09
3.40805e-09
3.40826e-09
3.40804e-09
3.40833e-09
3.40803e-09
3.40846e-09
3.40804e-09
3.40871e-09
3.40811e-09
3.40924e-09
3.40842e-09
3.40982e-09
3.408e-09
3.40632e-09
3.3977e-09
3.37955e-09
3.3643e-09
3.14184e-09
3.15662e-09
3.17342e-09
3.18151e-09
3.18317e-09
3.18487e-09
3.1836e-09
3.18433e-09
3.18329e-09
3.18382e-09
3.18321e-09
3.18359e-09
3.1832e-09
3.18346e-09
3.1832e-09
3.1834e-09
3.18321e-09
3.18336e-09
3.18325e-09
3.18334e-09
3.18326e-09
3.18331e-09
3.18327e-09
3.1833e-09
3.18328e-09
3.18328e-09
3.1833e-09
3.18327e-09
3.18332e-09
3.18326e-09
3.18334e-09
3.18324e-09
3.18336e-09
3.18321e-09
3.1834e-09
3.1832e-09
3.18346e-09
3.1832e-09
3.18359e-09
3.18321e-09
3.18382e-09
3.18329e-09
3.18433e-09
3.1836e-09
3.18487e-09
3.18317e-09
3.1815e-09
3.17342e-09
3.15662e-09
3.14185e-09
2.94525e-09
2.95954e-09
2.97514e-09
2.98273e-09
2.98437e-09
2.98597e-09
2.9848e-09
2.98546e-09
2.98451e-09
2.98498e-09
2.98442e-09
2.98476e-09
2.9844e-09
2.98463e-09
2.9844e-09
2.98457e-09
2.9844e-09
2.98454e-09
2.98444e-09
2.98452e-09
2.98445e-09
2.9845e-09
2.98446e-09
2.98448e-09
2.98447e-09
2.98447e-09
2.98448e-09
2.98446e-09
2.9845e-09
2.98445e-09
2.98452e-09
2.98443e-09
2.98454e-09
2.98441e-09
2.98457e-09
2.9844e-09
2.98463e-09
2.9844e-09
2.98476e-09
2.98442e-09
2.98498e-09
2.98451e-09
2.98546e-09
2.9848e-09
2.98597e-09
2.98437e-09
2.98273e-09
2.97514e-09
2.95954e-09
2.94525e-09
2.7707e-09
2.7845e-09
2.79902e-09
2.80617e-09
2.80778e-09
2.80928e-09
2.80821e-09
2.8088e-09
2.80793e-09
2.80835e-09
2.80782e-09
2.80813e-09
2.8078e-09
2.80801e-09
2.80779e-09
2.80796e-09
2.8078e-09
2.80793e-09
2.80783e-09
2.80791e-09
2.80784e-09
2.80789e-09
2.80785e-09
2.80787e-09
2.80786e-09
2.80786e-09
2.80787e-09
2.80785e-09
2.80789e-09
2.80784e-09
2.80791e-09
2.80783e-09
2.80793e-09
2.8078e-09
2.80796e-09
2.8078e-09
2.80801e-09
2.8078e-09
2.80813e-09
2.80783e-09
2.80835e-09
2.80792e-09
2.8088e-09
2.80821e-09
2.80928e-09
2.80778e-09
2.80617e-09
2.79902e-09
2.7845e-09
2.7707e-09
2.61506e-09
2.62836e-09
2.64192e-09
2.64865e-09
2.65022e-09
2.65164e-09
2.65066e-09
2.65119e-09
2.65038e-09
2.65075e-09
2.65027e-09
2.65055e-09
2.65024e-09
2.65043e-09
2.65023e-09
2.65038e-09
2.65024e-09
2.65035e-09
2.65026e-09
2.65033e-09
2.65027e-09
2.65032e-09
2.65028e-09
2.6503e-09
2.65029e-09
2.65029e-09
2.6503e-09
2.65028e-09
2.65032e-09
2.65027e-09
2.65033e-09
2.65026e-09
2.65035e-09
2.65024e-09
2.65038e-09
2.65023e-09
2.65044e-09
2.65024e-09
2.65055e-09
2.65027e-09
2.65075e-09
2.65038e-09
2.65119e-09
2.65066e-09
2.65164e-09
2.65022e-09
2.64865e-09
2.64192e-09
2.62836e-09
2.61506e-09
2.47571e-09
2.4885e-09
2.5012e-09
2.50755e-09
2.50909e-09
2.51043e-09
2.50952e-09
2.50999e-09
2.50925e-09
2.50958e-09
2.50913e-09
2.50938e-09
2.5091e-09
2.50927e-09
2.50909e-09
2.50922e-09
2.50909e-09
2.5092e-09
2.50911e-09
2.50918e-09
2.50912e-09
2.50916e-09
2.50913e-09
2.50915e-09
2.50914e-09
2.50914e-09
2.50915e-09
2.50913e-09
2.50916e-09
2.50912e-09
2.50918e-09
2.50911e-09
2.5092e-09
2.50909e-09
2.50922e-09
2.50909e-09
2.50927e-09
2.5091e-09
2.50938e-09
2.50913e-09
2.50958e-09
2.50924e-09
2.50999e-09
2.50952e-09
2.51042e-09
2.50908e-09
2.50755e-09
2.5012e-09
2.4885e-09
2.47571e-09
2.35047e-09
2.36274e-09
2.37467e-09
2.38068e-09
2.38216e-09
2.38343e-09
2.38259e-09
2.38302e-09
2.38233e-09
2.38262e-09
2.38221e-09
2.38243e-09
2.38217e-09
2.38233e-09
2.38216e-09
2.38228e-09
2.38216e-09
2.38226e-09
2.38218e-09
2.38224e-09
2.38219e-09
2.38222e-09
2.38219e-09
2.38221e-09
2.3822e-09
2.3822e-09
2.38221e-09
2.38219e-09
2.38222e-09
2.38219e-09
2.38224e-09
2.38218e-09
2.38226e-09
2.38216e-09
2.38228e-09
2.38216e-09
2.38233e-09
2.38217e-09
2.38243e-09
2.38221e-09
2.38262e-09
2.38233e-09
2.38302e-09
2.38259e-09
2.38343e-09
2.38216e-09
2.38067e-09
2.37467e-09
2.36274e-09
2.35047e-09
2.2375e-09
2.24925e-09
2.26049e-09
2.26617e-09
2.26761e-09
2.26881e-09
2.26803e-09
2.26842e-09
2.26777e-09
2.26804e-09
2.26765e-09
2.26785e-09
2.26761e-09
2.26775e-09
2.26759e-09
2.26771e-09
2.26759e-09
2.26768e-09
2.26761e-09
2.26767e-09
2.26762e-09
2.26765e-09
2.26763e-09
2.26764e-09
2.26764e-09
2.26764e-09
2.26764e-09
2.26763e-09
2.26765e-09
2.26762e-09
2.26767e-09
2.26761e-09
2.26768e-09
2.2676e-09
2.26771e-09
2.2676e-09
2.26776e-09
2.26761e-09
2.26785e-09
2.26766e-09
2.26804e-09
2.26777e-09
2.26842e-09
2.26803e-09
2.26881e-09
2.26761e-09
2.26616e-09
2.26049e-09
2.24925e-09
2.2375e-09
2.13525e-09
2.14647e-09
2.15709e-09
2.16246e-09
2.16386e-09
2.16499e-09
2.16428e-09
2.16463e-09
2.16402e-09
2.16426e-09
2.1639e-09
2.16408e-09
2.16385e-09
2.16398e-09
2.16383e-09
2.16394e-09
2.16383e-09
2.16392e-09
2.16385e-09
2.1639e-09
2.16386e-09
2.16389e-09
2.16386e-09
2.16388e-09
2.16387e-09
2.16387e-09
2.16388e-09
2.16386e-09
2.16389e-09
2.16386e-09
2.1639e-09
2.16385e-09
2.16392e-09
2.16383e-09
2.16394e-09
2.16384e-09
2.16398e-09
2.16385e-09
2.16408e-09
2.1639e-09
2.16426e-09
2.16402e-09
2.16463e-09
2.16428e-09
2.16499e-09
2.16386e-09
2.16246e-09
2.15708e-09
2.14647e-09
2.13525e-09
2.04238e-09
2.05309e-09
2.06313e-09
2.06822e-09
2.06958e-09
2.07065e-09
2.06999e-09
2.0703e-09
2.06974e-09
2.06995e-09
2.06961e-09
2.06978e-09
2.06956e-09
2.06968e-09
2.06955e-09
2.06964e-09
2.06954e-09
2.06962e-09
2.06956e-09
2.06961e-09
2.06956e-09
2.06959e-09
2.06957e-09
2.06958e-09
2.06958e-09
2.06958e-09
2.06958e-09
2.06957e-09
2.06959e-09
2.06957e-09
2.06961e-09
2.06956e-09
2.06962e-09
2.06954e-09
2.06964e-09
2.06955e-09
2.06968e-09
2.06956e-09
2.06978e-09
2.06962e-09
2.06995e-09
2.06974e-09
2.0703e-09
2.06999e-09
2.07065e-09
2.06958e-09
2.06822e-09
2.06313e-09
2.05309e-09
2.04238e-09
1.95774e-09
1.968e-09
1.97749e-09
1.98232e-09
1.98363e-09
1.98465e-09
1.98403e-09
1.98431e-09
1.98379e-09
1.98397e-09
1.98366e-09
1.9838e-09
1.98361e-09
1.98372e-09
1.98359e-09
1.98367e-09
1.98358e-09
1.98365e-09
1.9836e-09
1.98364e-09
1.9836e-09
1.98363e-09
1.98361e-09
1.98362e-09
1.98361e-09
1.98361e-09
1.98362e-09
1.98361e-09
1.98363e-09
1.9836e-09
1.98364e-09
1.9836e-09
1.98365e-09
1.98358e-09
1.98367e-09
1.98359e-09
1.98372e-09
1.98361e-09
1.9838e-09
1.98366e-09
1.98397e-09
1.98379e-09
1.98431e-09
1.98403e-09
1.98465e-09
1.98363e-09
1.98232e-09
1.97749e-09
1.968e-09
1.95774e-09
1.88037e-09
1.89022e-09
1.89919e-09
1.90376e-09
1.90503e-09
1.906e-09
1.90542e-09
1.90568e-09
1.90519e-09
1.90535e-09
1.90506e-09
1.90519e-09
1.905e-09
1.9051e-09
1.90498e-09
1.90506e-09
1.90498e-09
1.90504e-09
1.90499e-09
1.90503e-09
1.905e-09
1.90502e-09
1.905e-09
1.90501e-09
1.90501e-09
1.90501e-09
1.90501e-09
1.905e-09
1.90502e-09
1.905e-09
1.90503e-09
1.90499e-09
1.90504e-09
1.90498e-09
1.90506e-09
1.90498e-09
1.9051e-09
1.905e-09
1.90519e-09
1.90506e-09
1.90535e-09
1.90519e-09
1.90568e-09
1.90542e-09
1.906e-09
1.90503e-09
1.90376e-09
1.89919e-09
1.89022e-09
1.88037e-09
1.80943e-09
1.81891e-09
1.82738e-09
1.83172e-09
1.83295e-09
1.83387e-09
1.83333e-09
1.83356e-09
1.8331e-09
1.83324e-09
1.83297e-09
1.83308e-09
1.83291e-09
1.833e-09
1.83289e-09
1.83296e-09
1.83288e-09
1.83295e-09
1.8329e-09
1.83293e-09
1.8329e-09
1.83292e-09
1.8329e-09
1.83292e-09
1.83291e-09
1.83291e-09
1.83292e-09
1.8329e-09
1.83292e-09
1.8329e-09
1.83293e-09
1.8329e-09
1.83295e-09
1.83288e-09
1.83296e-09
1.83289e-09
1.833e-09
1.83291e-09
1.83308e-09
1.83297e-09
1.83324e-09
1.8331e-09
1.83356e-09
1.83333e-09
1.83386e-09
1.83295e-09
1.83172e-09
1.82738e-09
1.81891e-09
1.80943e-09
1.74421e-09
1.75335e-09
1.76134e-09
1.76547e-09
1.76665e-09
1.76752e-09
1.76702e-09
1.76723e-09
1.76679e-09
1.76692e-09
1.76666e-09
1.76677e-09
1.7666e-09
1.76669e-09
1.76658e-09
1.76665e-09
1.76658e-09
1.76663e-09
1.76659e-09
1.76662e-09
1.76659e-09
1.76661e-09
1.76659e-09
1.76661e-09
1.7666e-09
1.7666e-09
1.76661e-09
1.76659e-09
1.76661e-09
1.76659e-09
1.76662e-09
1.76659e-09
1.76663e-09
1.76658e-09
1.76665e-09
1.76658e-09
1.76669e-09
1.7666e-09
1.76677e-09
1.76666e-09
1.76692e-09
1.76679e-09
1.76723e-09
1.76702e-09
1.76752e-09
1.76665e-09
1.76547e-09
1.76134e-09
1.75335e-09
1.74421e-09
1.68407e-09
1.69289e-09
1.70046e-09
1.70437e-09
1.7055e-09
1.70633e-09
1.70586e-09
1.70605e-09
1.70564e-09
1.70575e-09
1.70551e-09
1.70561e-09
1.70545e-09
1.70553e-09
1.70543e-09
1.70549e-09
1.70542e-09
1.70548e-09
1.70543e-09
1.70547e-09
1.70544e-09
1.70546e-09
1.70544e-09
1.70545e-09
1.70545e-09
1.70545e-09
1.70545e-09
1.70544e-09
1.70546e-09
1.70544e-09
1.70547e-09
1.70543e-09
1.70548e-09
1.70542e-09
1.70549e-09
1.70543e-09
1.70553e-09
1.70545e-09
1.7056e-09
1.70551e-09
1.70575e-09
1.70564e-09
1.70605e-09
1.70586e-09
1.70633e-09
1.7055e-09
1.70437e-09
1.70046e-09
1.69289e-09
1.68407e-09
1.62848e-09
1.63701e-09
1.64418e-09
1.64787e-09
1.64896e-09
1.64975e-09
1.64931e-09
1.64948e-09
1.6491e-09
1.6492e-09
1.64897e-09
1.64905e-09
1.64891e-09
1.64898e-09
1.64888e-09
1.64894e-09
1.64888e-09
1.64893e-09
1.64889e-09
1.64892e-09
1.64889e-09
1.64891e-09
1.64889e-09
1.6489e-09
1.6489e-09
1.6489e-09
1.6489e-09
1.64889e-09
1.64891e-09
1.64889e-09
1.64892e-09
1.64889e-09
1.64893e-09
1.64888e-09
1.64894e-09
1.64888e-09
1.64898e-09
1.64891e-09
1.64905e-09
1.64897e-09
1.6492e-09
1.6491e-09
1.64948e-09
1.64931e-09
1.64975e-09
1.64896e-09
1.64787e-09
1.64418e-09
1.63701e-09
1.62848e-09
1.57698e-09
1.58522e-09
1.59201e-09
1.59551e-09
1.59655e-09
1.5973e-09
1.59689e-09
1.59705e-09
1.59668e-09
1.59677e-09
1.59655e-09
1.59663e-09
1.59649e-09
1.59656e-09
1.59647e-09
1.59652e-09
1.59646e-09
1.59651e-09
1.59647e-09
1.5965e-09
1.59648e-09
1.59649e-09
1.59648e-09
1.59649e-09
1.59648e-09
1.59648e-09
1.59649e-09
1.59648e-09
1.59649e-09
1.59648e-09
1.5965e-09
1.59647e-09
1.59651e-09
1.59646e-09
1.59652e-09
1.59647e-09
1.59656e-09
1.59649e-09
1.59663e-09
1.59655e-09
1.59677e-09
1.59668e-09
1.59705e-09
1.59689e-09
1.5973e-09
1.59655e-09
1.59551e-09
1.59201e-09
1.58522e-09
1.57698e-09
1.52914e-09
1.53711e-09
1.54354e-09
1.54686e-09
1.54786e-09
1.54857e-09
1.54819e-09
1.54832e-09
1.54798e-09
1.54806e-09
1.54785e-09
1.54792e-09
1.54779e-09
1.54785e-09
1.54777e-09
1.54782e-09
1.54776e-09
1.54781e-09
1.54777e-09
1.5478e-09
1.54777e-09
1.54779e-09
1.54778e-09
1.54779e-09
1.54778e-09
1.54778e-09
1.54779e-09
1.54778e-09
1.54779e-09
1.54777e-09
1.5478e-09
1.54777e-09
1.54781e-09
1.54776e-09
1.54782e-09
1.54777e-09
1.54785e-09
1.54779e-09
1.54792e-09
1.54785e-09
1.54806e-09
1.54798e-09
1.54832e-09
1.54819e-09
1.54857e-09
1.54786e-09
1.54686e-09
1.54354e-09
1.53711e-09
1.52914e-09
1.48461e-09
1.49232e-09
1.49841e-09
1.50156e-09
1.50251e-09
1.50319e-09
1.50283e-09
1.50295e-09
1.50263e-09
1.50269e-09
1.5025e-09
1.50256e-09
1.50244e-09
1.5025e-09
1.50242e-09
1.50247e-09
1.50241e-09
1.50245e-09
1.50242e-09
1.50245e-09
1.50242e-09
1.50244e-09
1.50243e-09
1.50243e-09
1.50243e-09
1.50243e-09
1.50243e-09
1.50243e-09
1.50244e-09
1.50242e-09
1.50245e-09
1.50242e-09
1.50245e-09
1.50241e-09
1.50247e-09
1.50242e-09
1.5025e-09
1.50244e-09
1.50256e-09
1.5025e-09
1.50269e-09
1.50263e-09
1.50295e-09
1.50283e-09
1.50319e-09
1.50251e-09
1.50155e-09
1.49841e-09
1.49232e-09
1.48461e-09
1.44307e-09
1.45053e-09