/*--------------------------------*- C++ -*----------------------------------*\
| =========                 |                                                 |
| \\      /  F ield         | OpenFOAM: The Open Source CFD Toolbox           |
|  \\    /   O peration     | Version:  dev                                   |
|   \\  /    A nd           | Web:      www.OpenFOAM.org                      |
|    \\/     M anipulation  |                                                 |
\*---------------------------------------------------------------------------*/
FoamFile
{
    version     2.0;
    format      ascii;
    class       volScalarField;
    location    "0.1";
    object      C6H8;
}
// * * * * * * * * * * * * * * * * * * * * * * * * * * * * * * * * * * * * * //

dimensions      [0 0 0 0 0 0 0];

internalField   nonuniform List<scalar> 
8000
(
3.55871e-07
3.56013e-07
3.56018e-07
3.56021e-07
3.55969e-07
3.55993e-07
3.55966e-07
3.55986e-07
3.55969e-07
3.55983e-07
3.55971e-07
3.55981e-07
3.55973e-07
3.5598e-07
3.55975e-07
3.55979e-07
3.55975e-07
3.55978e-07
3.55976e-07
3.55978e-07
3.55977e-07
3.55978e-07
3.55977e-07
3.55977e-07
3.55977e-07
3.55977e-07
3.55977e-07
3.55977e-07
3.55978e-07
3.55977e-07
3.55978e-07
3.55976e-07
3.55978e-07
3.55975e-07
3.55979e-07
3.55975e-07
3.5598e-07
3.55973e-07
3.55981e-07
3.55971e-07
3.55983e-07
3.55969e-07
3.55986e-07
3.55966e-07
3.55993e-07
3.55969e-07
3.56021e-07
3.56018e-07
3.56013e-07
3.55871e-07
7.38572e-07
7.38791e-07
7.38731e-07
7.38706e-07
7.3859e-07
7.38635e-07
7.38579e-07
7.38619e-07
7.38584e-07
7.38613e-07
7.3859e-07
7.3861e-07
7.38594e-07
7.38607e-07
7.38597e-07
7.38606e-07
7.38598e-07
7.38604e-07
7.386e-07
7.38604e-07
7.38601e-07
7.38603e-07
7.38601e-07
7.38602e-07
7.38602e-07
7.38602e-07
7.38602e-07
7.38601e-07
7.38603e-07
7.38601e-07
7.38604e-07
7.386e-07
7.38604e-07
7.38598e-07
7.38606e-07
7.38597e-07
7.38607e-07
7.38594e-07
7.3861e-07
7.3859e-07
7.38613e-07
7.38584e-07
7.38619e-07
7.38579e-07
7.38635e-07
7.3859e-07
7.38706e-07
7.38731e-07
7.38791e-07
7.38571e-07
3.27925e-07
3.27822e-07
3.27547e-07
3.27417e-07
3.27323e-07
3.27329e-07
3.273e-07
3.27317e-07
3.27302e-07
3.27315e-07
3.27305e-07
3.27314e-07
3.27307e-07
3.27313e-07
3.27308e-07
3.27312e-07
3.27309e-07
3.27312e-07
3.2731e-07
3.27311e-07
3.2731e-07
3.27311e-07
3.2731e-07
3.27311e-07
3.27311e-07
3.27311e-07
3.27311e-07
3.2731e-07
3.27311e-07
3.2731e-07
3.27311e-07
3.2731e-07
3.27312e-07
3.27309e-07
3.27312e-07
3.27308e-07
3.27313e-07
3.27307e-07
3.27314e-07
3.27305e-07
3.27315e-07
3.27302e-07
3.27317e-07
3.273e-07
3.27329e-07
3.27323e-07
3.27417e-07
3.27547e-07
3.27822e-07
3.27925e-07
1.30341e-07
1.30359e-07
1.30313e-07
1.30282e-07
1.30237e-07
1.30249e-07
1.3023e-07
1.30243e-07
1.30231e-07
1.30241e-07
1.30233e-07
1.3024e-07
1.30235e-07
1.30239e-07
1.30235e-07
1.30238e-07
1.30236e-07
1.30238e-07
1.30236e-07
1.30238e-07
1.30237e-07
1.30237e-07
1.30237e-07
1.30237e-07
1.30237e-07
1.30237e-07
1.30237e-07
1.30237e-07
1.30237e-07
1.30237e-07
1.30238e-07
1.30236e-07
1.30238e-07
1.30236e-07
1.30238e-07
1.30235e-07
1.30239e-07
1.30235e-07
1.3024e-07
1.30233e-07
1.30241e-07
1.30231e-07
1.30243e-07
1.3023e-07
1.30249e-07
1.30237e-07
1.30282e-07
1.30313e-07
1.30359e-07
1.30341e-07
5.32261e-08
5.32658e-08
5.3287e-08
5.32881e-08
5.32669e-08
5.32767e-08
5.32653e-08
5.32737e-08
5.32663e-08
5.32724e-08
5.32675e-08
5.32716e-08
5.32683e-08
5.3271e-08
5.32688e-08
5.32706e-08
5.3269e-08
5.32703e-08
5.32694e-08
5.32701e-08
5.32695e-08
5.327e-08
5.32696e-08
5.32698e-08
5.32697e-08
5.32697e-08
5.32698e-08
5.32696e-08
5.327e-08
5.32695e-08
5.32701e-08
5.32694e-08
5.32703e-08
5.3269e-08
5.32706e-08
5.32688e-08
5.3271e-08
5.32683e-08
5.32716e-08
5.32675e-08
5.32724e-08
5.32663e-08
5.32737e-08
5.32653e-08
5.32767e-08
5.32669e-08
5.32881e-08
5.3287e-08
5.32658e-08
5.32261e-08
2.22242e-08
2.22552e-08
2.22837e-08
2.22905e-08
2.22806e-08
2.2287e-08
2.22806e-08
2.22855e-08
2.22812e-08
2.22847e-08
2.22818e-08
2.22842e-08
2.22823e-08
2.22838e-08
2.22825e-08
2.22836e-08
2.22827e-08
2.22834e-08
2.22829e-08
2.22833e-08
2.22829e-08
2.22832e-08
2.2283e-08
2.22831e-08
2.22831e-08
2.22831e-08
2.22831e-08
2.2283e-08
2.22832e-08
2.22829e-08
2.22833e-08
2.22829e-08
2.22834e-08
2.22827e-08
2.22836e-08
2.22825e-08
2.22838e-08
2.22823e-08
2.22842e-08
2.22818e-08
2.22847e-08
2.22812e-08
2.22855e-08
2.22806e-08
2.2287e-08
2.22806e-08
2.22905e-08
2.22837e-08
2.22552e-08
2.22241e-08
9.40829e-09
9.4278e-09
9.44916e-09
9.45496e-09
9.45044e-09
9.4541e-09
9.45069e-09
9.45338e-09
9.45102e-09
9.45293e-09
9.45136e-09
9.45265e-09
9.45158e-09
9.45242e-09
9.45173e-09
9.45231e-09
9.4518e-09
9.45221e-09
9.45191e-09
9.45215e-09
9.45195e-09
9.45209e-09
9.45198e-09
9.45205e-09
9.45202e-09
9.45202e-09
9.45205e-09
9.45198e-09
9.45209e-09
9.45195e-09
9.45215e-09
9.4519e-09
9.45221e-09
9.4518e-09
9.45231e-09
9.45172e-09
9.45243e-09
9.45158e-09
9.45265e-09
9.45136e-09
9.45293e-09
9.45102e-09
9.45338e-09
9.45068e-09
9.45409e-09
9.45045e-09
9.45495e-09
9.44916e-09
9.4278e-09
9.40828e-09
4.01834e-09
4.02945e-09
4.04291e-09
4.04674e-09
4.0447e-09
4.0467e-09
4.04493e-09
4.04635e-09
4.04511e-09
4.04611e-09
4.04528e-09
4.04596e-09
4.04539e-09
4.04583e-09
4.04547e-09
4.04577e-09
4.0455e-09
4.04572e-09
4.04556e-09
4.04569e-09
4.04558e-09
4.04566e-09
4.0456e-09
4.04564e-09
4.04562e-09
4.04562e-09
4.04564e-09
4.0456e-09
4.04566e-09
4.04558e-09
4.04569e-09
4.04556e-09
4.04572e-09
4.04551e-09
4.04577e-09
4.04546e-09
4.04584e-09
4.04539e-09
4.04595e-09
4.04528e-09
4.04611e-09
4.04511e-09
4.04635e-09
4.04493e-09
4.04669e-09
4.0447e-09
4.04673e-09
4.04291e-09
4.02945e-09
4.01833e-09
1.72356e-09
1.72956e-09
1.73734e-09
1.73961e-09
1.73871e-09
1.73976e-09
1.73887e-09
1.73959e-09
1.73895e-09
1.73947e-09
1.73904e-09
1.73939e-09
1.7391e-09
1.73932e-09
1.73913e-09
1.73929e-09
1.73915e-09
1.73926e-09
1.73918e-09
1.73925e-09
1.73919e-09
1.73923e-09
1.7392e-09
1.73922e-09
1.73921e-09
1.73921e-09
1.73922e-09
1.7392e-09
1.73923e-09
1.73919e-09
1.73925e-09
1.73918e-09
1.73926e-09
1.73915e-09
1.73929e-09
1.73913e-09
1.73932e-09
1.7391e-09
1.73939e-09
1.73904e-09
1.73947e-09
1.73895e-09
1.73959e-09
1.73887e-09
1.73976e-09
1.73871e-09
1.73961e-09
1.73734e-09
1.72956e-09
1.72356e-09
7.47612e-10
7.50717e-10
7.54951e-10
7.56208e-10
7.55815e-10
7.5635e-10
7.55909e-10
7.56271e-10
7.5595e-10
7.56206e-10
7.55992e-10
7.56166e-10
7.56021e-10
7.56133e-10
7.56038e-10
7.56116e-10
7.56048e-10
7.56104e-10
7.56062e-10
7.56095e-10
7.56068e-10
7.56087e-10
7.56071e-10
7.56081e-10
7.56077e-10
7.56077e-10
7.56081e-10
7.56071e-10
7.56087e-10
7.56068e-10
7.56095e-10
7.56062e-10
7.56104e-10
7.56048e-10
7.56117e-10
7.56038e-10
7.56134e-10
7.5602e-10
7.56165e-10
7.55992e-10
7.56206e-10
7.5595e-10
7.56271e-10
7.55908e-10
7.56349e-10
7.55816e-10
7.56207e-10
7.54951e-10
7.50717e-10
7.47611e-10
3.31355e-10
3.32956e-10
3.35233e-10
3.35917e-10
3.35746e-10
3.36019e-10
3.35798e-10
3.35981e-10
3.35818e-10
3.35947e-10
3.35839e-10
3.35926e-10
3.35853e-10
3.3591e-10
3.35862e-10
3.35901e-10
3.35866e-10
3.35895e-10
3.35874e-10
3.3589e-10
3.35876e-10
3.35886e-10
3.35878e-10
3.35883e-10
3.35881e-10
3.35881e-10
3.35883e-10
3.35878e-10
3.35886e-10
3.35876e-10
3.3589e-10
3.35873e-10
3.35895e-10
3.35866e-10
3.35901e-10
3.35861e-10
3.3591e-10
3.35853e-10
3.35926e-10
3.35839e-10
3.35947e-10
3.35818e-10
3.35981e-10
3.35798e-10
3.36018e-10
3.35746e-10
3.35916e-10
3.35233e-10
3.32956e-10
3.31355e-10
1.47397e-10
1.48153e-10
1.49244e-10
1.49574e-10
1.49501e-10
1.49627e-10
1.49525e-10
1.4961e-10
1.49534e-10
1.49594e-10
1.49543e-10
1.49584e-10
1.4955e-10
1.49576e-10
1.49554e-10
1.49572e-10
1.49556e-10
1.49569e-10
1.4956e-10
1.49567e-10
1.49561e-10
1.49565e-10
1.49562e-10
1.49564e-10
1.49563e-10
1.49563e-10
1.49564e-10
1.49562e-10
1.49565e-10
1.49561e-10
1.49567e-10
1.49559e-10
1.49569e-10
1.49556e-10
1.49572e-10
1.49554e-10
1.49576e-10
1.4955e-10
1.49584e-10
1.49543e-10
1.49594e-10
1.49534e-10
1.4961e-10
1.49525e-10
1.49627e-10
1.49501e-10
1.49574e-10
1.49244e-10
1.48153e-10
1.47397e-10
7.03763e-11
7.07888e-11
7.13818e-11
7.15619e-11
7.15248e-11
7.15909e-11
7.15365e-11
7.15809e-11
7.15407e-11
7.15723e-11
7.15456e-11
7.15672e-11
7.15492e-11
7.15631e-11
7.15513e-11
7.1561e-11
7.15525e-11
7.15595e-11
7.15543e-11
7.15584e-11
7.1555e-11
7.15574e-11
7.15555e-11
7.15567e-11
7.15562e-11
7.15562e-11
7.15567e-11
7.15555e-11
7.15574e-11
7.1555e-11
7.15584e-11
7.15543e-11
7.15595e-11
7.15525e-11
7.1561e-11
7.15513e-11
7.15631e-11
7.15492e-11
7.15671e-11
7.15456e-11
7.15723e-11
7.15407e-11
7.15809e-11
7.15364e-11
7.15909e-11
7.15248e-11
7.15617e-11
7.13818e-11
7.07888e-11
7.03762e-11
3.63525e-11
3.64931e-11
3.67437e-11
3.68194e-11
3.68117e-11
3.68388e-11
3.68185e-11
3.68359e-11
3.68201e-11
3.68324e-11
3.68219e-11
3.68302e-11
3.68231e-11
3.68285e-11
3.68238e-11
3.68276e-11
3.68242e-11
3.68269e-11
3.68249e-11
3.68265e-11
3.68252e-11
3.68261e-11
3.68253e-11
3.68258e-11
3.68256e-11
3.68256e-11
3.68258e-11
3.68253e-11
3.68261e-11
3.68252e-11
3.68265e-11
3.68249e-11
3.68269e-11
3.68242e-11
3.68276e-11
3.68238e-11
3.68285e-11
3.68231e-11
3.68301e-11
3.68219e-11
3.68324e-11
3.68201e-11
3.68359e-11
3.68184e-11
3.68388e-11
3.68117e-11
3.68193e-11
3.67437e-11
3.64931e-11
3.63524e-11
2.07142e-11
2.07823e-11
2.09075e-11
2.0944e-11
2.09399e-11
2.09528e-11
2.09425e-11
2.09511e-11
2.09432e-11
2.09493e-11
2.0944e-11
2.09482e-11
2.09447e-11
2.09473e-11
2.09451e-11
2.09469e-11
2.09453e-11
2.09466e-11
2.09456e-11
2.09464e-11
2.09457e-11
2.09462e-11
2.09458e-11
2.09461e-11
2.0946e-11
2.0946e-11
2.09461e-11
2.09458e-11
2.09462e-11
2.09457e-11
2.09464e-11
2.09456e-11
2.09466e-11
2.09453e-11
2.09469e-11
2.0945e-11
2.09474e-11
2.09447e-11
2.09482e-11
2.09441e-11
2.09493e-11
2.09432e-11
2.09511e-11
2.09425e-11
2.09528e-11
2.09399e-11
2.0944e-11
2.09075e-11
2.07823e-11
2.07142e-11
1.36867e-11
1.37233e-11
1.37934e-11
1.38126e-11
1.38099e-11
1.38166e-11
1.38106e-11
1.38154e-11
1.38109e-11
1.38143e-11
1.38114e-11
1.38137e-11
1.38118e-11
1.38133e-11
1.3812e-11
1.3813e-11
1.38121e-11
1.38129e-11
1.38123e-11
1.38128e-11
1.38124e-11
1.38127e-11
1.38124e-11
1.38126e-11
1.38125e-11
1.38125e-11
1.38126e-11
1.38124e-11
1.38127e-11
1.38124e-11
1.38128e-11
1.38123e-11
1.38129e-11
1.38121e-11
1.3813e-11
1.3812e-11
1.38133e-11
1.38118e-11
1.38137e-11
1.38114e-11
1.38143e-11
1.38109e-11
1.38154e-11
1.38106e-11
1.38166e-11
1.38099e-11
1.38126e-11
1.37934e-11
1.37233e-11
1.36867e-11
1.01175e-11
1.01426e-11
1.01892e-11
1.02028e-11
1.02018e-11
1.0206e-11
1.02022e-11
1.02051e-11
1.02021e-11
1.02043e-11
1.02024e-11
1.02039e-11
1.02026e-11
1.02036e-11
1.02028e-11
1.02034e-11
1.02028e-11
1.02033e-11
1.0203e-11
1.02032e-11
1.0203e-11
1.02032e-11
1.0203e-11
1.02031e-11
1.02031e-11
1.02031e-11
1.02031e-11
1.0203e-11
1.02032e-11
1.0203e-11
1.02032e-11
1.0203e-11
1.02033e-11
1.02028e-11
1.02034e-11
1.02027e-11
1.02036e-11
1.02026e-11
1.02039e-11
1.02024e-11
1.02043e-11
1.02021e-11
1.02051e-11
1.02021e-11
1.0206e-11
1.02018e-11
1.02028e-11
1.01892e-11
1.01426e-11
1.01175e-11
8.2524e-12
8.26983e-12
8.30184e-12
8.31074e-12
8.30992e-12
8.3126e-12
8.30982e-12
8.31177e-12
8.30971e-12
8.31118e-12
8.30988e-12
8.3109e-12
8.31004e-12
8.31071e-12
8.31015e-12
8.31061e-12
8.31021e-12
8.31055e-12
8.3103e-12
8.31049e-12
8.31033e-12
8.31045e-12
8.31036e-12
8.31042e-12
8.31039e-12
8.31039e-12
8.31042e-12
8.31036e-12
8.31045e-12
8.31033e-12
8.31049e-12
8.31029e-12
8.31054e-12
8.31021e-12
8.31061e-12
8.31014e-12
8.31071e-12
8.31004e-12
8.3109e-12
8.30989e-12
8.31119e-12
8.3097e-12
8.31177e-12
8.30981e-12
8.3126e-12
8.30992e-12
8.31073e-12
8.30184e-12
8.26983e-12
8.2524e-12
7.08693e-12
7.10336e-12
7.13072e-12
7.13874e-12
7.13793e-12
7.14015e-12
7.13763e-12
7.13931e-12
7.13749e-12
7.13878e-12
7.13765e-12
7.13854e-12
7.1378e-12
7.13838e-12
7.13789e-12
7.1383e-12
7.13795e-12
7.13825e-12
7.13803e-12
7.13821e-12
7.13807e-12
7.13817e-12
7.13809e-12
7.13814e-12
7.13812e-12
7.13812e-12
7.13815e-12
7.13809e-12
7.13817e-12
7.13807e-12
7.13821e-12
7.13803e-12
7.13825e-12
7.13795e-12
7.13831e-12
7.13789e-12
7.13838e-12
7.1378e-12
7.13854e-12
7.13765e-12
7.13878e-12
7.13748e-12
7.13931e-12
7.13763e-12
7.14015e-12
7.13793e-12
7.13874e-12
7.13072e-12
7.10336e-12
7.08693e-12
6.28981e-12
6.30487e-12
6.32744e-12
6.33412e-12
6.33346e-12
6.3352e-12
6.33306e-12
6.33441e-12
6.33289e-12
6.33395e-12
6.33302e-12
6.33376e-12
6.33315e-12
6.33363e-12
6.33323e-12
6.33357e-12
6.33328e-12
6.33353e-12
6.33335e-12
6.3335e-12
6.33338e-12
6.33347e-12
6.3334e-12
6.33344e-12
6.33342e-12
6.33342e-12
6.33344e-12
6.3334e-12
6.33347e-12
6.33338e-12
6.3335e-12
6.33335e-12
6.33353e-12
6.33328e-12
6.33357e-12
6.33323e-12
6.33363e-12
6.33315e-12
6.33375e-12
6.33302e-12
6.33395e-12
6.33289e-12
6.33441e-12
6.33306e-12
6.33519e-12
6.33346e-12
6.33412e-12
6.32744e-12
6.30487e-12
6.28981e-12
5.70649e-12
5.72196e-12
5.74236e-12
5.74864e-12
5.74812e-12
5.74967e-12
5.74772e-12
5.74893e-12
5.74754e-12
5.74849e-12
5.74765e-12
5.74832e-12
5.74777e-12
5.7482e-12
5.74784e-12
5.74815e-12
5.74789e-12
5.74812e-12
5.74795e-12
5.74809e-12
5.74798e-12
5.74806e-12
5.748e-12
5.74804e-12
5.74802e-12
5.74802e-12
5.74804e-12
5.748e-12
5.74806e-12
5.74798e-12
5.74809e-12
5.74795e-12
5.74812e-12
5.74789e-12
5.74815e-12
5.74784e-12
5.74821e-12
5.74777e-12
5.74832e-12
5.74765e-12
5.7485e-12
5.74754e-12
5.74893e-12
5.74772e-12
5.74967e-12
5.74812e-12
5.74864e-12
5.74236e-12
5.72196e-12
5.70649e-12
5.23154e-12
5.24816e-12
5.26725e-12
5.27338e-12
5.273e-12
5.27446e-12
5.27262e-12
5.27374e-12
5.27243e-12
5.27332e-12
5.27253e-12
5.27316e-12
5.27264e-12
5.27305e-12
5.27272e-12
5.273e-12
5.27276e-12
5.27297e-12
5.27282e-12
5.27294e-12
5.27285e-12
5.27292e-12
5.27286e-12
5.2729e-12
5.27288e-12
5.27288e-12
5.2729e-12
5.27286e-12
5.27292e-12
5.27285e-12
5.27294e-12
5.27282e-12
5.27297e-12
5.27276e-12
5.273e-12
5.27271e-12
5.27305e-12
5.27264e-12
5.27315e-12
5.27254e-12
5.27332e-12
5.27243e-12
5.27374e-12
5.27262e-12
5.27445e-12
5.273e-12
5.27338e-12
5.26725e-12
5.24816e-12
5.23154e-12
4.82788e-12
4.83425e-12
4.85095e-12
4.85666e-12
4.85668e-12
4.85803e-12
4.85644e-12
4.85739e-12
4.85623e-12
4.85698e-12
4.85628e-12
4.8568e-12
4.85635e-12
4.85669e-12
4.8564e-12
4.85664e-12
4.85643e-12
4.85661e-12
4.85647e-12
4.85658e-12
4.8565e-12
4.85656e-12
4.85651e-12
4.85654e-12
4.85653e-12
4.85653e-12
4.85654e-12
4.85651e-12
4.85656e-12
4.8565e-12
4.85658e-12
4.85647e-12
4.85661e-12
4.85643e-12
4.85664e-12
4.85639e-12
4.85669e-12
4.85635e-12
4.8568e-12
4.85628e-12
4.85698e-12
4.85623e-12
4.85739e-12
4.85644e-12
4.85803e-12
4.85668e-12
4.85666e-12
4.85095e-12
4.83425e-12
4.82788e-12
4.47656e-12
4.4837e-12
4.49956e-12
4.50525e-12
4.50539e-12
4.5067e-12
4.50519e-12
4.50609e-12
4.50498e-12
4.50568e-12
4.50502e-12
4.50551e-12
4.50508e-12
4.50541e-12
4.50512e-12
4.50536e-12
4.50515e-12
4.50533e-12
4.5052e-12
4.5053e-12
4.50522e-12
4.50528e-12
4.50523e-12
4.50526e-12
4.50525e-12
4.50525e-12
4.50526e-12
4.50523e-12
4.50528e-12
4.50522e-12
4.5053e-12
4.5052e-12
4.50532e-12
4.50515e-12
4.50536e-12
4.50512e-12
4.50541e-12
4.50508e-12
4.50551e-12
4.50502e-12
4.50568e-12
4.50498e-12
4.50609e-12
4.50519e-12
4.5067e-12
4.50538e-12
4.50525e-12
4.49956e-12
4.4837e-12
4.47656e-12
4.15475e-12
4.16276e-12
4.17845e-12
4.18451e-12
4.18488e-12
4.18624e-12
4.18478e-12
4.18564e-12
4.18456e-12
4.18523e-12
4.18458e-12
4.18505e-12
4.18463e-12
4.18494e-12
4.18467e-12
4.18489e-12
4.18469e-12
4.18486e-12
4.18474e-12
4.18484e-12
4.18476e-12
4.18482e-12
4.18477e-12
4.1848e-12
4.18478e-12
4.18478e-12
4.1848e-12
4.18477e-12
4.18482e-12
4.18476e-12
4.18484e-12
4.18473e-12
4.18486e-12
4.18469e-12
4.18489e-12
4.18467e-12
4.18494e-12
4.18463e-12
4.18505e-12
4.18458e-12
4.18523e-12
4.18455e-12
4.18564e-12
4.18478e-12
4.18624e-12
4.18488e-12
4.18451e-12
4.17845e-12
4.16276e-12
4.15475e-12
3.86822e-12
3.87657e-12
3.89132e-12
3.89725e-12
3.89771e-12
3.89901e-12
3.89764e-12
3.89844e-12
3.89742e-12
3.89804e-12
3.89743e-12
3.89787e-12
3.89748e-12
3.89777e-12
3.89751e-12
3.89772e-12
3.89753e-12
3.89769e-12
3.89757e-12
3.89767e-12
3.89759e-12
3.89765e-12
3.8976e-12
3.89763e-12
3.89762e-12
3.89762e-12
3.89763e-12
3.8976e-12
3.89765e-12
3.89759e-12
3.89767e-12
3.89757e-12
3.89769e-12
3.89753e-12
3.89772e-12
3.89751e-12
3.89777e-12
3.89748e-12
3.89787e-12
3.89743e-12
3.89804e-12
3.89742e-12
3.89844e-12
3.89764e-12
3.89901e-12
3.89771e-12
3.89725e-12
3.89132e-12
3.87657e-12
3.86822e-12
3.61195e-12
3.62058e-12
3.63445e-12
3.64023e-12
3.64077e-12
3.64202e-12
3.64073e-12
3.64147e-12
3.64051e-12
3.64108e-12
3.64051e-12
3.64092e-12
3.64055e-12
3.64082e-12
3.64058e-12
3.64078e-12
3.6406e-12
3.64075e-12
3.64064e-12
3.64073e-12
3.64066e-12
3.64071e-12
3.64067e-12
3.64069e-12
3.64068e-12
3.64068e-12
3.64069e-12
3.64067e-12
3.64071e-12
3.64066e-12
3.64073e-12
3.64064e-12
3.64075e-12
3.6406e-12
3.64078e-12
3.64058e-12
3.64082e-12
3.64055e-12
3.64092e-12
3.64052e-12
3.64109e-12
3.64051e-12
3.64147e-12
3.64073e-12
3.64201e-12
3.64077e-12
3.64023e-12
3.63445e-12
3.62058e-12
3.61195e-12
3.38212e-12
3.39093e-12
3.40399e-12
3.40961e-12
3.41022e-12
3.41142e-12
3.41021e-12
3.4109e-12
3.41e-12
3.41052e-12
3.40999e-12
3.41036e-12
3.41002e-12
3.41027e-12
3.41004e-12
3.41023e-12
3.41006e-12
3.4102e-12
3.4101e-12
3.41018e-12
3.41011e-12
3.41016e-12
3.41012e-12
3.41015e-12
3.41014e-12
3.41014e-12
3.41015e-12
3.41012e-12
3.41016e-12
3.41011e-12
3.41018e-12
3.4101e-12
3.4102e-12
3.41006e-12
3.41023e-12
3.41004e-12
3.41027e-12
3.41002e-12
3.41036e-12
3.40999e-12
3.41052e-12
3.40999e-12
3.4109e-12
3.41021e-12
3.41141e-12
3.41022e-12
3.40961e-12
3.40399e-12
3.39093e-12
3.38212e-12
3.1756e-12
3.18452e-12
3.19683e-12
3.20227e-12
3.20294e-12
3.20408e-12
3.20296e-12
3.20359e-12
3.20274e-12
3.20323e-12
3.20273e-12
3.20307e-12
3.20275e-12
3.20298e-12
3.20277e-12
3.20294e-12
3.20279e-12
3.20292e-12
3.20282e-12
3.2029e-12
3.20284e-12
3.20288e-12
3.20285e-12
3.20287e-12
3.20286e-12
3.20286e-12
3.20287e-12
3.20285e-12
3.20288e-12
3.20284e-12
3.2029e-12
3.20282e-12
3.20292e-12
3.20279e-12
3.20294e-12
3.20277e-12
3.20298e-12
3.20275e-12
3.20307e-12
3.20273e-12
3.20323e-12
3.20274e-12
3.20359e-12
3.20296e-12
3.20408e-12
3.20293e-12
3.20227e-12
3.19683e-12
3.18452e-12
3.1756e-12
2.98972e-12
2.99868e-12
3.0103e-12
3.01554e-12
3.01626e-12
3.01736e-12
3.01631e-12
3.01688e-12
3.01609e-12
3.01654e-12
3.01607e-12
3.01639e-12
3.01609e-12
3.0163e-12
3.01611e-12
3.01626e-12
3.01612e-12
3.01624e-12
3.01615e-12
3.01622e-12
3.01616e-12
3.01621e-12
3.01617e-12
3.0162e-12
3.01619e-12
3.01619e-12
3.0162e-12
3.01617e-12
3.01621e-12
3.01617e-12
3.01622e-12
3.01615e-12
3.01624e-12
3.01612e-12
3.01626e-12
3.01611e-12
3.0163e-12
3.01609e-12
3.01639e-12
3.01607e-12
3.01654e-12
3.01609e-12
3.01688e-12
3.01631e-12
3.01736e-12
3.01626e-12
3.01554e-12
3.0103e-12
2.99868e-12
2.98972e-12
2.82216e-12
2.83111e-12
2.84208e-12
2.84713e-12
2.84788e-12
2.84894e-12
2.84795e-12
2.84849e-12
2.84774e-12
2.84815e-12
2.84771e-12
2.84801e-12
2.84773e-12
2.84792e-12
2.84774e-12
2.84789e-12
2.84775e-12
2.84787e-12
2.84778e-12
2.84785e-12
2.84779e-12
2.84783e-12
2.8478e-12
2.84782e-12
2.84781e-12
2.84781e-12
2.84782e-12
2.8478e-12
2.84784e-12
2.84779e-12
2.84785e-12
2.84778e-12
2.84787e-12
2.84775e-12
2.84789e-12
2.84774e-12
2.84793e-12
2.84773e-12
2.84801e-12
2.84772e-12
2.84815e-12
2.84774e-12
2.84849e-12
2.84795e-12
2.84893e-12
2.84788e-12
2.84713e-12
2.84208e-12
2.83111e-12
2.82216e-12
2.67088e-12
2.67978e-12
2.69015e-12
2.695e-12
2.69578e-12
2.69679e-12
2.69588e-12
2.69637e-12
2.69567e-12
2.69604e-12
2.69563e-12
2.6959e-12
2.69564e-12
2.69582e-12
2.69565e-12
2.69579e-12
2.69566e-12
2.69577e-12
2.69569e-12
2.69575e-12
2.6957e-12
2.69574e-12
2.69571e-12
2.69573e-12
2.69572e-12
2.69572e-12
2.69573e-12
2.69571e-12
2.69574e-12
2.6957e-12
2.69575e-12
2.69569e-12
2.69577e-12
2.69566e-12
2.69579e-12
2.69565e-12
2.69582e-12
2.69564e-12
2.6959e-12
2.69563e-12
2.69604e-12
2.69567e-12
2.69637e-12
2.69588e-12
2.69679e-12
2.69578e-12
2.695e-12
2.69014e-12
2.67978e-12
2.67088e-12
2.53411e-12
2.54291e-12
2.55271e-12
2.55737e-12
2.55818e-12
2.55914e-12
2.55829e-12
2.55874e-12
2.55809e-12
2.55842e-12
2.55804e-12
2.55829e-12
2.55804e-12
2.55821e-12
2.55805e-12
2.55818e-12
2.55806e-12
2.55816e-12
2.55809e-12
2.55815e-12
2.5581e-12
2.55813e-12
2.5581e-12
2.55812e-12
2.55811e-12
2.55811e-12
2.55812e-12
2.5581e-12
2.55813e-12
2.5581e-12
2.55815e-12
2.55809e-12
2.55816e-12
2.55806e-12
2.55818e-12
2.55805e-12
2.55821e-12
2.55804e-12
2.55829e-12
2.55804e-12
2.55842e-12
2.55808e-12
2.55874e-12
2.55829e-12
2.55914e-12
2.55818e-12
2.55737e-12
2.55271e-12
2.54291e-12
2.53411e-12
2.41023e-12
2.41891e-12
2.42818e-12
2.43265e-12
2.43347e-12
2.4344e-12
2.4336e-12
2.43401e-12
2.4334e-12
2.43371e-12
2.43335e-12
2.43358e-12
2.43335e-12
2.43351e-12
2.43336e-12
2.43347e-12
2.43337e-12
2.43346e-12
2.43339e-12
2.43344e-12
2.4334e-12
2.43343e-12
2.4334e-12
2.43342e-12
2.43341e-12
2.43341e-12
2.43342e-12
2.4334e-12
2.43343e-12
2.4334e-12
2.43344e-12
2.43339e-12
2.43346e-12
2.43337e-12
2.43347e-12
2.43336e-12
2.43351e-12
2.43335e-12
2.43358e-12
2.43336e-12
2.43371e-12
2.4334e-12
2.43401e-12
2.4336e-12
2.4344e-12
2.43347e-12
2.43265e-12
2.42818e-12
2.41891e-12
2.41023e-12
2.29786e-12
2.30637e-12
2.31515e-12
2.31945e-12
2.32028e-12
2.32116e-12
2.32042e-12
2.32079e-12
2.32022e-12
2.3205e-12
2.32017e-12
2.32037e-12
2.32016e-12
2.32031e-12
2.32017e-12
2.32027e-12
2.32017e-12
2.32026e-12
2.32019e-12
2.32025e-12
2.3202e-12
2.32023e-12
2.32021e-12
2.32022e-12
2.32022e-12
2.32022e-12
2.32022e-12
2.32021e-12
2.32023e-12
2.3202e-12
2.32024e-12
2.32019e-12
2.32026e-12
2.32017e-12
2.32027e-12
2.32017e-12
2.32031e-12
2.32016e-12
2.32037e-12
2.32017e-12
2.3205e-12
2.32022e-12
2.32079e-12
2.32042e-12
2.32116e-12
2.32027e-12
2.31945e-12
2.31515e-12
2.30637e-12
2.29786e-12
2.19573e-12
2.20406e-12
2.21239e-12
2.2165e-12
2.21733e-12
2.21818e-12
2.21749e-12
2.21783e-12
2.2173e-12
2.21755e-12
2.21724e-12
2.21743e-12
2.21723e-12
2.21736e-12
2.21723e-12
2.21733e-12
2.21724e-12
2.21731e-12
2.21726e-12
2.2173e-12
2.21726e-12
2.21729e-12
2.21727e-12
2.21728e-12
2.21728e-12
2.21728e-12
2.21728e-12
2.21727e-12
2.21729e-12
2.21726e-12
2.2173e-12
2.21725e-12
2.21731e-12
2.21724e-12
2.21733e-12
2.21723e-12
2.21736e-12
2.21723e-12
2.21743e-12
2.21724e-12
2.21755e-12
2.2173e-12
2.21783e-12
2.21749e-12
2.21818e-12
2.21733e-12
2.2165e-12
2.21239e-12
2.20406e-12
2.19573e-12
2.10274e-12
2.11086e-12
2.11877e-12
2.12272e-12
2.12355e-12
2.12436e-12
2.12371e-12
2.12403e-12
2.12352e-12
2.12375e-12
2.12346e-12
2.12363e-12
2.12345e-12
2.12357e-12
2.12345e-12
2.12354e-12
2.12345e-12
2.12353e-12
2.12347e-12
2.12351e-12
2.12348e-12
2.1235e-12
2.12348e-12
2.1235e-12
2.12349e-12
2.12349e-12
2.1235e-12
2.12348e-12
2.1235e-12
2.12348e-12
2.12351e-12
2.12347e-12
2.12353e-12
2.12345e-12
2.12354e-12
2.12345e-12
2.12357e-12
2.12345e-12
2.12363e-12
2.12346e-12
2.12375e-12
2.12352e-12
2.12403e-12
2.12371e-12
2.12436e-12
2.12355e-12
2.12271e-12
2.11877e-12
2.11086e-12
2.10274e-12
2.01791e-12
2.0258e-12
2.03332e-12
2.03711e-12
2.03793e-12
2.03871e-12
2.03811e-12
2.03839e-12
2.03792e-12
2.03813e-12
2.03786e-12
2.03801e-12
2.03784e-12
2.03795e-12
2.03784e-12
2.03792e-12
2.03784e-12
2.03791e-12
2.03786e-12
2.0379e-12
2.03786e-12
2.03789e-12
2.03787e-12
2.03788e-12
2.03788e-12
2.03788e-12
2.03788e-12
2.03787e-12
2.03789e-12
2.03786e-12
2.0379e-12
2.03786e-12
2.03791e-12
2.03784e-12
2.03792e-12
2.03784e-12
2.03795e-12
2.03784e-12
2.03801e-12
2.03786e-12
2.03813e-12
2.03792e-12
2.03839e-12
2.03811e-12
2.03871e-12
2.03793e-12
2.0371e-12
2.03332e-12
2.0258e-12
2.01791e-12
1.94038e-12
1.948e-12
1.95518e-12
1.9588e-12
1.95962e-12
1.96037e-12
1.9598e-12
1.96006e-12
1.95962e-12
1.95981e-12
1.95955e-12
1.9597e-12
1.95953e-12
1.95964e-12
1.95953e-12
1.95961e-12
1.95953e-12
1.9596e-12
1.95955e-12
1.95959e-12
1.95955e-12
1.95958e-12
1.95956e-12
1.95957e-12
1.95957e-12
1.95957e-12
1.95957e-12
1.95956e-12
1.95958e-12
1.95955e-12
1.95959e-12
1.95955e-12
1.9596e-12
1.95953e-12
1.95961e-12
1.95953e-12
1.95964e-12
1.95953e-12
1.9597e-12
1.95955e-12
1.95981e-12
1.95962e-12
1.96006e-12
1.9598e-12
1.96037e-12
1.95962e-12
1.9588e-12
1.95518e-12
1.948e-12
1.94038e-12
1.86935e-12
1.87672e-12
1.88357e-12
1.88703e-12
1.88784e-12
1.88856e-12
1.88803e-12
1.88827e-12
1.88786e-12
1.88802e-12
1.88778e-12
1.88791e-12
1.88776e-12
1.88785e-12
1.88775e-12
1.88783e-12
1.88776e-12
1.88782e-12
1.88777e-12
1.88781e-12
1.88778e-12
1.8878e-12
1.88778e-12
1.88779e-12
1.88779e-12
1.88779e-12
1.88779e-12
1.88778e-12
1.8878e-12
1.88778e-12
1.88781e-12
1.88777e-12
1.88782e-12
1.88776e-12
1.88783e-12
1.88775e-12
1.88786e-12
1.88776e-12
1.88791e-12
1.88778e-12
1.88802e-12
1.88785e-12
1.88827e-12
1.88803e-12
1.88856e-12
1.88784e-12
1.88703e-12
1.88356e-12
1.87672e-12
1.86935e-12
1.80413e-12
1.81127e-12
1.8178e-12
1.82112e-12
1.82191e-12
1.8226e-12
1.82211e-12
1.82233e-12
1.82194e-12
1.82209e-12
1.82186e-12
1.82198e-12
1.82184e-12
1.82192e-12
1.82183e-12
1.8219e-12
1.82183e-12
1.82189e-12
1.82185e-12
1.82188e-12
1.82185e-12
1.82187e-12
1.82185e-12
1.82187e-12
1.82186e-12
1.82186e-12
1.82187e-12
1.82186e-12
1.82187e-12
1.82185e-12
1.82188e-12
1.82184e-12
1.82189e-12
1.82183e-12
1.8219e-12
1.82183e-12
1.82192e-12
1.82184e-12
1.82198e-12
1.82186e-12
1.82209e-12
1.82194e-12
1.82233e-12
1.82211e-12
1.8226e-12
1.82191e-12
1.82112e-12
1.8178e-12
1.81127e-12
1.80413e-12
1.74413e-12
1.75105e-12
1.75727e-12
1.76045e-12
1.76123e-12
1.76189e-12
1.76143e-12
1.76163e-12
1.76126e-12
1.7614e-12
1.76118e-12
1.76129e-12
1.76116e-12
1.76124e-12
1.76115e-12
1.76121e-12
1.76115e-12
1.7612e-12
1.76116e-12
1.7612e-12
1.76117e-12
1.76119e-12
1.76117e-12
1.76118e-12
1.76118e-12
1.76118e-12
1.76118e-12
1.76117e-12
1.76119e-12
1.76117e-12
1.7612e-12
1.76116e-12
1.7612e-12
1.76115e-12
1.76121e-12
1.76115e-12
1.76124e-12
1.76116e-12
1.76129e-12
1.76118e-12
1.7614e-12
1.76126e-12
1.76163e-12
1.76143e-12
1.76189e-12
1.76123e-12
1.76045e-12
1.75727e-12
1.75105e-12
1.74413e-12
1.68881e-12
1.69553e-12
1.70144e-12
1.70449e-12
1.70526e-12
1.70589e-12
1.70546e-12
1.70564e-12
1.70529e-12
1.70541e-12
1.70521e-12
1.70531e-12
1.70518e-12
1.70526e-12
1.70518e-12
1.70524e-12
1.70518e-12
1.70523e-12
1.70519e-12
1.70522e-12
1.70519e-12
1.70521e-12
1.7052e-12
1.70521e-12
1.7052e-12
1.7052e-12
1.70521e-12
1.7052e-12
1.70521e-12
1.70519e-12
1.70522e-12
1.70519e-12
1.70523e-12
1.70518e-12
1.70524e-12
1.70518e-12
1.70526e-12
1.70518e-12
1.70531e-12
1.70521e-12
1.70541e-12
1.70529e-12
1.70564e-12
1.70545e-12
1.70589e-12
1.70526e-12
1.70449e-12
1.70144e-12
1.69553e-12
1.68881e-12
1.63769e-12
1.64422e-12
1.64984e-12
1.65276e-12
1.65351e-12
1.65412e-12
1.65371e-12
1.65388e-12
1.65355e-12
1.65366e-12
1.65347e-12
1.65356e-12
1.65345e-12
1.65351e-12
1.65344e-12
1.65349e-12
1.65344e-12
1.65348e-12
1.65345e-12
1.65348e-12
1.65345e-12
1.65347e-12
1.65346e-12
1.65347e-12
1.65346e-12
1.65346e-12
1.65347e-12
1.65346e-12
1.65347e-12
1.65345e-12
1.65348e-12
1.65345e-12
1.65348e-12
1.65344e-12
1.65349e-12
1.65344e-12
1.65351e-12
1.65345e-12
1.65356e-12
1.65348e-12
1.65366e-12
1.65355e-12
1.65388e-12
1.65371e-12
1.65412e-12
1.65351e-12
1.65276e-12
1.64984e-12
1.64422e-12
1.63769e-12
1.59035e-12
1.5967e-12
1.60206e-12
1.60485e-12
1.60558e-12
1.60616e-12
1.60578e-12
1.60593e-12
1.60563e-12
1.60573e-12
1.60555e-12
1.60563e-12
1.60552e-12
1.60558e-12
1.60551e-12
1.60556e-12
1.60551e-12
1.60555e-12
1.60552e-12
1.60554e-12
1.60552e-12
1.60554e-12
1.60553e-12
1.60553e-12
1.60553e-12
1.60553e-12
1.60553e-12
1.60553e-12
1.60554e-12
1.60552e-12
1.60554e-12
1.60552e-12
1.60555e-12
1.60551e-12
1.60556e-12
1.60551e-12
1.60558e-12
1.60552e-12
1.60563e-12
1.60555e-12
1.60573e-12
1.60563e-12
1.60593e-12
1.60578e-12
1.60616e-12
1.60558e-12
1.60485e-12
1.60206e-12
1.5967e-12
1.59035e-12
1.54642e-12
1.5526e-12
1.55771e-12
1.56037e-12
1.56108e-12
1.56164e-12
1.56129e-12
1.56143e-12
1.56114e-12
1.56123e-12
1.56106e-12
1.56113e-12
1.56103e-12
1.56108e-12
1.56102e-12
1.56106e-12
1.56102e-12
1.56106e-12
1.56103e-12
1.56105e-12
1.56103e-12
1.56105e-12
1.56103e-12
1.56104e-12
1.56104e-12
1.56104e-12
1.56104e-12
1.56103e-12
1.56105e-12
1.56103e-12
1.56105e-12
1.56103e-12
1.56106e-12
1.56102e-12
1.56106e-12
1.56102e-12
1.56108e-12
1.56103e-12
1.56113e-12
1.56106e-12
1.56123e-12
1.56114e-12
1.56143e-12
1.56129e-12
1.56164e-12
1.56108e-12
1.56037e-12
1.55771e-12
1.5526e-12
1.54642e-12
1.50557e-12
1.5116e-12
1.51647e-12
1.519e-12
1.5197e-12
1.52023e-12
1.5199e-12
1.52003e-12
1.51975e-12
1.51983e-12
1.51967e-12
1.51974e-12
1.51964e-12
1.5197e-12
1.51963e-12
1.51968e-12
1.51963e-12
1.51967e-12
1.51964e-12
1.51967e-12
1.51965e-12
1.51966e-12
1.51965e-12
1.51966e-12
1.51965e-12
1.51965e-12
1.51966e-12
1.51965e-12
1.51966e-12
1.51965e-12
1.51967e-12
1.51964e-12
1.51967e-12
1.51963e-12
1.51968e-12
1.51963e-12
1.5197e-12
1.51964e-12
1.51974e-12
1.51967e-12
1.51983e-12
1.51975e-12
1.52003e-12
1.5199e-12
1.52023e-12
1.5197e-12
1.519e-12
1.51647e-12
1.5116e-12
1.50557e-12
1.46753e-12
1.47339e-12
1.47803e-12
1.48045e-12
1.48112e-12
1.48164e-12
1.48133e-12
1.48144e-12
1.48118e-12
1.48126e-12
1.4811e-12
1.48117e-12
1.48107e-12
1.48112e-12
1.48106e-12
1.48111e-12
1.48106e-12
1.4811e-12
1.48107e-12
1.48109e-12
1.48108e-12
1.48109e-12
1.48108e-12
1.48109e-12
1.48108e-12
1.48108e-12
1.48109e-12
1.48108e-12
1.48109e-12
1.48108e-12
1.48109e-12
1.48107e-12
1.4811e-12
1.48106e-12
1.48111e-12
1.48106e-12
1.48112e-12
1.48107e-12
1.48117e-12
1.4811e-12
1.48126e-12
1.48118e-12
1.48144e-12
1.48133e-12
1.48163e-12
1.48112e-12
1.48045e-12
1.47803e-12
1.47339e-12
1.46753e-12
1.43201e-12
1.43772e-12
1.44214e-12
1.44445e-12
1.4451e-12
1.4456e-12
1.44531e-12
1.44541e-12
1.44517e-12
1.44523e-12
1.44509e-12
1.44515e-12
1.44506e-12
1.44511e-12
1.44505e-12
1.44509e-12
1.44505e-12
1.44508e-12
1.44506e-12
1.44508e-12
1.44506e-12
1.44508e-12
1.44507e-12
1.44507e-12
1.44507e-12
1.44507e-12
1.44507e-12
1.44507e-12
1.44508e-12
1.44506e-12
1.44508e-12
1.44506e-12
1.44508e-12
1.44505e-12
1.44509e-12
1.44505e-12
1.44511e-12
1.44506e-12
1.44515e-12
1.44509e-12
1.44523e-12
1.44517e-12
1.44541e-12
1.44531e-12
1.4456e-12
1.4451e-12
1.44445e-12
1.44214e-12
1.43772e-12
1.43201e-12