/*--------------------------------*- C++ -*----------------------------------*\
| =========                 |                                                 |
| \\      /  F ield         | OpenFOAM: The Open Source CFD Toolbox           |
|  \\    /   O peration     | Version:  dev                                   |
|   \\  /    A nd           | Web:      www.OpenFOAM.org                      |
|    \\/     M anipulation  |                                                 |
\*---------------------------------------------------------------------------*/
FoamFile
{
    version     2.0;
    format      ascii;
    class       volScalarField;
    location    "0.1";
    object      CH2;
}
// * * * * * * * * * * * * * * * * * * * * * * * * * * * * * * * * * * * * * //

dimensions      [0 0 0 0 0 0 0];

internalField   nonuniform List<scalar> 
8000
(
2.83857e-06
2.84579e-06
2.85418e-06
2.85791e-06
2.85845e-06
2.85923e-06
2.85894e-06
2.85928e-06
2.859e-06
2.85921e-06
2.85902e-06
2.85917e-06
2.85904e-06
2.85914e-06
2.85905e-06
2.85912e-06
2.85905e-06
2.85911e-06
2.85907e-06
2.8591e-06
2.85907e-06
2.85909e-06
2.85907e-06
2.85908e-06
2.85908e-06
2.85908e-06
2.85908e-06
2.85907e-06
2.85909e-06
2.85907e-06
2.8591e-06
2.85907e-06
2.85911e-06
2.85905e-06
2.85912e-06
2.85905e-06
2.85914e-06
2.85904e-06
2.85917e-06
2.85902e-06
2.85921e-06
2.859e-06
2.85928e-06
2.85894e-06
2.85923e-06
2.85845e-06
2.85791e-06
2.85418e-06
2.84579e-06
2.83856e-06
1.42224e-05
1.42565e-05
1.42937e-05
1.43103e-05
1.43125e-05
1.4316e-05
1.43146e-05
1.43162e-05
1.43149e-05
1.43159e-05
1.4315e-05
1.43157e-05
1.43151e-05
1.43156e-05
1.43152e-05
1.43155e-05
1.43152e-05
1.43154e-05
1.43152e-05
1.43154e-05
1.43153e-05
1.43153e-05
1.43153e-05
1.43153e-05
1.43153e-05
1.43153e-05
1.43153e-05
1.43153e-05
1.43153e-05
1.43153e-05
1.43154e-05
1.43152e-05
1.43154e-05
1.43152e-05
1.43155e-05
1.43152e-05
1.43156e-05
1.43151e-05
1.43157e-05
1.4315e-05
1.43159e-05
1.43149e-05
1.43162e-05
1.43146e-05
1.4316e-05
1.43125e-05
1.43103e-05
1.42937e-05
1.42565e-05
1.42224e-05
2.63515e-05
2.63976e-05
2.6444e-05
2.64647e-05
2.64652e-05
2.64707e-05
2.64678e-05
2.64706e-05
2.64683e-05
2.64701e-05
2.64685e-05
2.64698e-05
2.64687e-05
2.64695e-05
2.64688e-05
2.64694e-05
2.64689e-05
2.64693e-05
2.6469e-05
2.64692e-05
2.6469e-05
2.64692e-05
2.64691e-05
2.64691e-05
2.64691e-05
2.64691e-05
2.64691e-05
2.64691e-05
2.64692e-05
2.6469e-05
2.64692e-05
2.6469e-05
2.64693e-05
2.64689e-05
2.64694e-05
2.64688e-05
2.64695e-05
2.64687e-05
2.64698e-05
2.64685e-05
2.64701e-05
2.64683e-05
2.64706e-05
2.64678e-05
2.64707e-05
2.64652e-05
2.64647e-05
2.6444e-05
2.63976e-05
2.63514e-05
3.01731e-05
3.02233e-05
3.02723e-05
3.02935e-05
3.0292e-05
3.02985e-05
3.02944e-05
3.02981e-05
3.0295e-05
3.02975e-05
3.02954e-05
3.02971e-05
3.02956e-05
3.02967e-05
3.02958e-05
3.02966e-05
3.02959e-05
3.02964e-05
3.0296e-05
3.02963e-05
3.02961e-05
3.02963e-05
3.02961e-05
3.02962e-05
3.02962e-05
3.02962e-05
3.02962e-05
3.02961e-05
3.02963e-05
3.02961e-05
3.02963e-05
3.0296e-05
3.02964e-05
3.02959e-05
3.02966e-05
3.02958e-05
3.02968e-05
3.02956e-05
3.02971e-05
3.02954e-05
3.02975e-05
3.0295e-05
3.02981e-05
3.02944e-05
3.02985e-05
3.0292e-05
3.02935e-05
3.02723e-05
3.02233e-05
3.01731e-05
2.81633e-05
2.82112e-05
2.82594e-05
2.82788e-05
2.8276e-05
2.82826e-05
2.82781e-05
2.82821e-05
2.82787e-05
2.82814e-05
2.82791e-05
2.8281e-05
2.82794e-05
2.82806e-05
2.82796e-05
2.82804e-05
2.82797e-05
2.82803e-05
2.82798e-05
2.82802e-05
2.82799e-05
2.82801e-05
2.82799e-05
2.828e-05
2.828e-05
2.828e-05
2.828e-05
2.82799e-05
2.82801e-05
2.82799e-05
2.82802e-05
2.82798e-05
2.82803e-05
2.82797e-05
2.82804e-05
2.82796e-05
2.82806e-05
2.82794e-05
2.8281e-05
2.82791e-05
2.82814e-05
2.82787e-05
2.82821e-05
2.82781e-05
2.82826e-05
2.8276e-05
2.82788e-05
2.82594e-05
2.82112e-05
2.81633e-05
2.36498e-05
2.36933e-05
2.37402e-05
2.37578e-05
2.37547e-05
2.37609e-05
2.37565e-05
2.37604e-05
2.3757e-05
2.37597e-05
2.37574e-05
2.37593e-05
2.37577e-05
2.37589e-05
2.37579e-05
2.37587e-05
2.3758e-05
2.37586e-05
2.37582e-05
2.37585e-05
2.37582e-05
2.37584e-05
2.37582e-05
2.37583e-05
2.37583e-05
2.37583e-05
2.37583e-05
2.37582e-05
2.37584e-05
2.37582e-05
2.37585e-05
2.37581e-05
2.37586e-05
2.3758e-05
2.37587e-05
2.37579e-05
2.37589e-05
2.37577e-05
2.37593e-05
2.37574e-05
2.37597e-05
2.3757e-05
2.37604e-05
2.37565e-05
2.37609e-05
2.37547e-05
2.37578e-05
2.37402e-05
2.36933e-05
2.36498e-05
1.88116e-05
1.88503e-05
1.88955e-05
1.89115e-05
1.89088e-05
1.89145e-05
1.89103e-05
1.89139e-05
1.89108e-05
1.89133e-05
1.89112e-05
1.89129e-05
1.89115e-05
1.89126e-05
1.89116e-05
1.89124e-05
1.89117e-05
1.89123e-05
1.89119e-05
1.89122e-05
1.89119e-05
1.89121e-05
1.89119e-05
1.8912e-05
1.8912e-05
1.8912e-05
1.8912e-05
1.89119e-05
1.89121e-05
1.89119e-05
1.89122e-05
1.89119e-05
1.89123e-05
1.89117e-05
1.89124e-05
1.89116e-05
1.89126e-05
1.89115e-05
1.89129e-05
1.89112e-05
1.89133e-05
1.89108e-05
1.89139e-05
1.89103e-05
1.89145e-05
1.89088e-05
1.89115e-05
1.88955e-05
1.88503e-05
1.88116e-05
1.45569e-05
1.4591e-05
1.46335e-05
1.46481e-05
1.46459e-05
1.4651e-05
1.46474e-05
1.46505e-05
1.46478e-05
1.465e-05
1.46481e-05
1.46496e-05
1.46483e-05
1.46493e-05
1.46485e-05
1.46492e-05
1.46486e-05
1.4649e-05
1.46487e-05
1.4649e-05
1.46487e-05
1.46489e-05
1.46488e-05
1.46488e-05
1.46488e-05
1.46488e-05
1.46488e-05
1.46488e-05
1.46489e-05
1.46487e-05
1.4649e-05
1.46487e-05
1.4649e-05
1.46486e-05
1.46492e-05
1.46485e-05
1.46493e-05
1.46483e-05
1.46496e-05
1.46481e-05
1.465e-05
1.46478e-05
1.46505e-05
1.46474e-05
1.4651e-05
1.46459e-05
1.46481e-05
1.46335e-05
1.4591e-05
1.45569e-05
1.11466e-05
1.11763e-05
1.12154e-05
1.12286e-05
1.12271e-05
1.12316e-05
1.12284e-05
1.12311e-05
1.12287e-05
1.12306e-05
1.1229e-05
1.12303e-05
1.12292e-05
1.12301e-05
1.12293e-05
1.12299e-05
1.12294e-05
1.12298e-05
1.12295e-05
1.12298e-05
1.12295e-05
1.12297e-05
1.12296e-05
1.12296e-05
1.12296e-05
1.12296e-05
1.12296e-05
1.12296e-05
1.12297e-05
1.12295e-05
1.12298e-05
1.12295e-05
1.12298e-05
1.12294e-05
1.12299e-05
1.12293e-05
1.12301e-05
1.12292e-05
1.12303e-05
1.1229e-05
1.12306e-05
1.12287e-05
1.12311e-05
1.12284e-05
1.12315e-05
1.12271e-05
1.12286e-05
1.12154e-05
1.11763e-05
1.11466e-05
8.54558e-06
8.57131e-06
8.60653e-06
8.61849e-06
8.61757e-06
8.62142e-06
8.61876e-06
8.62109e-06
8.61903e-06
8.62064e-06
8.61926e-06
8.62036e-06
8.61943e-06
8.62014e-06
8.61953e-06
8.62002e-06
8.61958e-06
8.61994e-06
8.61967e-06
8.61988e-06
8.6197e-06
8.61982e-06
8.61972e-06
8.61979e-06
8.61976e-06
8.61976e-06
8.61979e-06
8.61972e-06
8.61982e-06
8.6197e-06
8.61988e-06
8.61967e-06
8.61994e-06
8.61958e-06
8.62003e-06
8.61953e-06
8.62014e-06
8.61943e-06
8.62036e-06
8.61926e-06
8.62065e-06
8.61903e-06
8.62109e-06
8.61875e-06
8.62141e-06
8.61757e-06
8.61849e-06
8.60653e-06
8.57132e-06
8.54558e-06
6.61537e-06
6.63777e-06
6.6692e-06
6.68e-06
6.67954e-06
6.68286e-06
6.68062e-06
6.68261e-06
6.68085e-06
6.68221e-06
6.68103e-06
6.68197e-06
6.68117e-06
6.68177e-06
6.68125e-06
6.68167e-06
6.68129e-06
6.6816e-06
6.68137e-06
6.68155e-06
6.6814e-06
6.6815e-06
6.68142e-06
6.68147e-06
6.68145e-06
6.68145e-06
6.68147e-06
6.68142e-06
6.6815e-06
6.6814e-06
6.68155e-06
6.68137e-06
6.6816e-06
6.6813e-06
6.68168e-06
6.68125e-06
6.68178e-06
6.68117e-06
6.68197e-06
6.68103e-06
6.68222e-06
6.68084e-06
6.68261e-06
6.68062e-06
6.68286e-06
6.67954e-06
6.67999e-06
6.6692e-06
6.63777e-06
6.61537e-06
5.14573e-06
5.16459e-06
5.1911e-06
5.20041e-06
5.2003e-06
5.20305e-06
5.20125e-06
5.20286e-06
5.20143e-06
5.20253e-06
5.20157e-06
5.20233e-06
5.20168e-06
5.20216e-06
5.20174e-06
5.20208e-06
5.20177e-06
5.20202e-06
5.20184e-06
5.20198e-06
5.20186e-06
5.20194e-06
5.20187e-06
5.20191e-06
5.2019e-06
5.2019e-06
5.20192e-06
5.20187e-06
5.20194e-06
5.20186e-06
5.20198e-06
5.20184e-06
5.20202e-06
5.20178e-06
5.20208e-06
5.20174e-06
5.20217e-06
5.20168e-06
5.20232e-06
5.20157e-06
5.20253e-06
5.20142e-06
5.20286e-06
5.20125e-06
5.20304e-06
5.2003e-06
5.2004e-06
5.1911e-06
5.16459e-06
5.14573e-06
4.11049e-06
4.12729e-06
4.15079e-06
4.1592e-06
4.1593e-06
4.1617e-06
4.16017e-06
4.16155e-06
4.16031e-06
4.16125e-06
4.16043e-06
4.16107e-06
4.16052e-06
4.16093e-06
4.16057e-06
4.16086e-06
4.1606e-06
4.16081e-06
4.16065e-06
4.16077e-06
4.16067e-06
4.16074e-06
4.16068e-06
4.16072e-06
4.1607e-06
4.1607e-06
4.16072e-06
4.16068e-06
4.16074e-06
4.16067e-06
4.16077e-06
4.16065e-06
4.16081e-06
4.1606e-06
4.16086e-06
4.16057e-06
4.16094e-06
4.16052e-06
4.16107e-06
4.16043e-06
4.16126e-06
4.16031e-06
4.16154e-06
4.16017e-06
4.1617e-06
4.1593e-06
4.1592e-06
4.15079e-06
4.12729e-06
4.11049e-06
3.34726e-06
3.35918e-06
3.37729e-06
3.38408e-06
3.38476e-06
3.38659e-06
3.38561e-06
3.38657e-06
3.38571e-06
3.38635e-06
3.38578e-06
3.38622e-06
3.38583e-06
3.38611e-06
3.38585e-06
3.38605e-06
3.38587e-06
3.38601e-06
3.3859e-06
3.38599e-06
3.38591e-06
3.38596e-06
3.38592e-06
3.38594e-06
3.38593e-06
3.38593e-06
3.38595e-06
3.38592e-06
3.38596e-06
3.38591e-06
3.38599e-06
3.3859e-06
3.38601e-06
3.38587e-06
3.38605e-06
3.38585e-06
3.38611e-06
3.38583e-06
3.38621e-06
3.38578e-06
3.38636e-06
3.38571e-06
3.38657e-06
3.38561e-06
3.38658e-06
3.38476e-06
3.38408e-06
3.37729e-06
3.35918e-06
3.34726e-06
2.76615e-06
2.77635e-06
2.79156e-06
2.79744e-06
2.79819e-06
2.79972e-06
2.79896e-06
2.79973e-06
2.79904e-06
2.79955e-06
2.79908e-06
2.79943e-06
2.79912e-06
2.79934e-06
2.79914e-06
2.7993e-06
2.79915e-06
2.79927e-06
2.79918e-06
2.79924e-06
2.79918e-06
2.79922e-06
2.79919e-06
2.79921e-06
2.7992e-06
2.7992e-06
2.79921e-06
2.79919e-06
2.79922e-06
2.79918e-06
2.79924e-06
2.79917e-06
2.79927e-06
2.79915e-06
2.7993e-06
2.79914e-06
2.79935e-06
2.79912e-06
2.79943e-06
2.79908e-06
2.79955e-06
2.79904e-06
2.79973e-06
2.79896e-06
2.79972e-06
2.79819e-06
2.79744e-06
2.79156e-06
2.77635e-06
2.76615e-06
2.34876e-06
2.35781e-06
2.37104e-06
2.37629e-06
2.37709e-06
2.37843e-06
2.3778e-06
2.37845e-06
2.37786e-06
2.37829e-06
2.3779e-06
2.37819e-06
2.37792e-06
2.37811e-06
2.37794e-06
2.37807e-06
2.37794e-06
2.37804e-06
2.37797e-06
2.37802e-06
2.37797e-06
2.37801e-06
2.37798e-06
2.37799e-06
2.37799e-06
2.37799e-06
2.37799e-06
2.37798e-06
2.37801e-06
2.37797e-06
2.37802e-06
2.37797e-06
2.37804e-06
2.37794e-06
2.37807e-06
2.37794e-06
2.37811e-06
2.37792e-06
2.37819e-06
2.3779e-06
2.37829e-06
2.37786e-06
2.37845e-06
2.3778e-06
2.37842e-06
2.37709e-06
2.37629e-06
2.37104e-06
2.35781e-06
2.34876e-06
2.02349e-06
2.03203e-06
2.04408e-06
2.04916e-06
2.05012e-06
2.05135e-06
2.05084e-06
2.05139e-06
2.05088e-06
2.05124e-06
2.0509e-06
2.05114e-06
2.05091e-06
2.05107e-06
2.05092e-06
2.05103e-06
2.05092e-06
2.05101e-06
2.05094e-06
2.05099e-06
2.05095e-06
2.05097e-06
2.05095e-06
2.05096e-06
2.05096e-06
2.05096e-06
2.05096e-06
2.05095e-06
2.05098e-06
2.05095e-06
2.05099e-06
2.05094e-06
2.05101e-06
2.05092e-06
2.05103e-06
2.05092e-06
2.05107e-06
2.05091e-06
2.05114e-06
2.0509e-06
2.05125e-06
2.05088e-06
2.05139e-06
2.05084e-06
2.05135e-06
2.05012e-06
2.04916e-06
2.04408e-06
2.03203e-06
2.02349e-06
1.78353e-06
1.7913e-06
1.8019e-06
1.8065e-06
1.80748e-06
1.80857e-06
1.80816e-06
1.80863e-06
1.80819e-06
1.80849e-06
1.8082e-06
1.80841e-06
1.80821e-06
1.80834e-06
1.80821e-06
1.8083e-06
1.80821e-06
1.80828e-06
1.80823e-06
1.80827e-06
1.80823e-06
1.80825e-06
1.80823e-06
1.80825e-06
1.80824e-06
1.80824e-06
1.80825e-06
1.80823e-06
1.80825e-06
1.80823e-06
1.80827e-06
1.80823e-06
1.80828e-06
1.80821e-06
1.80831e-06
1.80821e-06
1.80834e-06
1.80821e-06
1.8084e-06
1.8082e-06
1.8085e-06
1.80819e-06
1.80863e-06
1.80816e-06
1.80857e-06
1.80748e-06
1.8065e-06
1.8019e-06
1.7913e-06
1.78353e-06
1.59151e-06
1.59906e-06
1.60895e-06
1.61339e-06
1.61434e-06
1.61538e-06
1.61499e-06
1.61543e-06
1.61502e-06
1.6153e-06
1.61502e-06
1.61521e-06
1.61503e-06
1.61515e-06
1.61503e-06
1.61512e-06
1.61503e-06
1.6151e-06
1.61504e-06
1.61508e-06
1.61505e-06
1.61507e-06
1.61505e-06
1.61506e-06
1.61506e-06
1.61506e-06
1.61506e-06
1.61505e-06
1.61507e-06
1.61505e-06
1.61508e-06
1.61504e-06
1.6151e-06
1.61503e-06
1.61512e-06
1.61503e-06
1.61515e-06
1.61503e-06
1.61521e-06
1.61502e-06
1.6153e-06
1.61502e-06
1.61543e-06
1.61499e-06
1.61538e-06
1.61434e-06
1.61339e-06
1.60895e-06
1.59906e-06
1.59151e-06
1.44117e-06
1.44816e-06
1.45686e-06
1.46089e-06
1.46184e-06
1.46276e-06
1.46245e-06
1.46282e-06
1.46247e-06
1.4627e-06
1.46247e-06
1.46262e-06
1.46247e-06
1.46257e-06
1.46247e-06
1.46254e-06
1.46246e-06
1.46252e-06
1.46248e-06
1.46251e-06
1.46248e-06
1.4625e-06
1.46248e-06
1.46249e-06
1.46248e-06
1.46248e-06
1.46249e-06
1.46248e-06
1.4625e-06
1.46248e-06
1.46251e-06
1.46247e-06
1.46252e-06
1.46246e-06
1.46254e-06
1.46246e-06
1.46257e-06
1.46247e-06
1.46262e-06
1.46247e-06
1.4627e-06
1.46247e-06
1.46282e-06
1.46245e-06
1.46276e-06
1.46184e-06
1.46089e-06
1.45686e-06
1.44816e-06
1.44117e-06
1.32646e-06
1.33317e-06
1.34102e-06
1.34476e-06
1.34571e-06
1.34655e-06
1.34629e-06
1.34662e-06
1.34631e-06
1.34651e-06
1.3463e-06
1.34644e-06
1.3463e-06
1.34639e-06
1.34629e-06
1.34636e-06
1.34629e-06
1.34634e-06
1.3463e-06
1.34633e-06
1.3463e-06
1.34632e-06
1.3463e-06
1.34631e-06
1.34631e-06
1.34631e-06
1.34631e-06
1.3463e-06
1.34632e-06
1.3463e-06
1.34633e-06
1.3463e-06
1.34634e-06
1.34629e-06
1.34636e-06
1.34629e-06
1.34639e-06
1.3463e-06
1.34644e-06
1.3463e-06
1.34651e-06
1.34631e-06
1.34662e-06
1.34629e-06
1.34655e-06
1.34571e-06
1.34476e-06
1.34102e-06
1.33317e-06
1.32646e-06
1.23476e-06
1.24131e-06
1.24847e-06
1.25197e-06
1.25291e-06
1.25369e-06
1.25347e-06
1.25375e-06
1.25348e-06
1.25365e-06
1.25347e-06
1.25359e-06
1.25346e-06
1.25354e-06
1.25346e-06
1.25351e-06
1.25345e-06
1.2535e-06
1.25346e-06
1.25349e-06
1.25346e-06
1.25348e-06
1.25346e-06
1.25347e-06
1.25347e-06
1.25347e-06
1.25347e-06
1.25346e-06
1.25348e-06
1.25346e-06
1.25349e-06
1.25346e-06
1.2535e-06
1.25345e-06
1.25351e-06
1.25346e-06
1.25354e-06
1.25346e-06
1.25358e-06
1.25347e-06
1.25365e-06
1.25348e-06
1.25375e-06
1.25347e-06
1.25369e-06
1.25291e-06
1.25197e-06
1.24847e-06
1.24131e-06
1.23476e-06
1.16072e-06
1.16508e-06
1.17138e-06
1.17459e-06
1.17557e-06
1.17628e-06
1.17613e-06
1.17636e-06
1.17613e-06
1.17627e-06
1.17611e-06
1.1762e-06
1.17609e-06
1.17615e-06
1.17608e-06
1.17612e-06
1.17608e-06
1.17611e-06
1.17608e-06
1.1761e-06
1.17608e-06
1.17609e-06
1.17608e-06
1.17609e-06
1.17608e-06
1.17608e-06
1.17609e-06
1.17608e-06
1.17609e-06
1.17608e-06
1.1761e-06
1.17608e-06
1.17611e-06
1.17608e-06
1.17613e-06
1.17608e-06
1.17615e-06
1.17609e-06
1.1762e-06
1.17611e-06
1.17627e-06
1.17613e-06
1.17636e-06
1.17613e-06
1.17628e-06
1.17557e-06
1.17459e-06
1.17138e-06
1.16508e-06
1.16072e-06
1.10042e-06
1.10465e-06
1.11046e-06
1.11348e-06
1.11444e-06
1.11512e-06
1.11499e-06
1.1152e-06
1.11499e-06
1.11511e-06
1.11496e-06
1.11504e-06
1.11494e-06
1.11499e-06
1.11493e-06
1.11497e-06
1.11492e-06
1.11495e-06
1.11493e-06
1.11495e-06
1.11493e-06
1.11494e-06
1.11493e-06
1.11493e-06
1.11493e-06
1.11493e-06
1.11493e-06
1.11493e-06
1.11494e-06
1.11493e-06
1.11495e-06
1.11493e-06
1.11495e-06
1.11493e-06
1.11497e-06
1.11493e-06
1.11499e-06
1.11494e-06
1.11504e-06
1.11496e-06
1.11511e-06
1.11499e-06
1.1152e-06
1.11499e-06
1.11512e-06
1.11444e-06
1.11348e-06
1.11046e-06
1.10465e-06
1.10042e-06
1.04896e-06
1.05312e-06
1.05858e-06
1.0615e-06
1.06246e-06
1.06311e-06
1.063e-06
1.06319e-06
1.063e-06
1.0631e-06
1.06297e-06
1.06303e-06
1.06294e-06
1.06299e-06
1.06293e-06
1.06296e-06
1.06292e-06
1.06295e-06
1.06292e-06
1.06294e-06
1.06292e-06
1.06293e-06
1.06292e-06
1.06293e-06
1.06292e-06
1.06292e-06
1.06293e-06
1.06292e-06
1.06293e-06
1.06292e-06
1.06294e-06
1.06292e-06
1.06295e-06
1.06292e-06
1.06296e-06
1.06293e-06
1.06299e-06
1.06294e-06
1.06303e-06
1.06297e-06
1.0631e-06
1.063e-06
1.06319e-06
1.063e-06
1.06311e-06
1.06246e-06
1.06149e-06
1.05858e-06
1.05312e-06
1.04896e-06
1.00618e-06
1.0102e-06
1.01525e-06
1.01801e-06
1.01896e-06
1.01957e-06
1.01949e-06
1.01965e-06
1.01948e-06
1.01956e-06
1.01944e-06
1.01949e-06
1.01941e-06
1.01945e-06
1.0194e-06
1.01943e-06
1.01939e-06
1.01941e-06
1.01939e-06
1.0194e-06
1.01939e-06
1.0194e-06
1.01939e-06
1.01939e-06
1.01939e-06
1.01939e-06
1.01939e-06
1.01939e-06
1.0194e-06
1.01939e-06
1.0194e-06
1.01939e-06
1.01941e-06
1.01939e-06
1.01943e-06
1.0194e-06
1.01945e-06
1.01941e-06
1.01949e-06
1.01944e-06
1.01956e-06
1.01948e-06
1.01965e-06
1.01948e-06
1.01957e-06
1.01896e-06
1.01801e-06
1.01525e-06
1.0102e-06
1.00618e-06
9.70239e-07
9.74137e-07
9.78842e-07
9.81451e-07
9.82386e-07
9.82965e-07
9.82902e-07
9.83047e-07
9.8289e-07
9.82958e-07
9.82848e-07
9.82893e-07
9.8282e-07
9.8285e-07
9.82803e-07
9.82826e-07
9.82793e-07
9.82813e-07
9.82794e-07
9.82805e-07
9.82792e-07
9.82799e-07
9.82791e-07
9.82795e-07
9.82793e-07
9.82793e-07
9.82795e-07
9.82791e-07
9.82799e-07
9.82792e-07
9.82805e-07
9.82793e-07
9.82813e-07
9.82793e-07
9.82826e-07
9.82803e-07
9.8285e-07
9.8282e-07
9.82893e-07
9.82848e-07
9.82959e-07
9.8289e-07
9.83047e-07
9.82901e-07
9.82964e-07
9.82386e-07
9.81451e-07
9.78842e-07
9.74137e-07
9.70239e-07
9.39723e-07
9.43509e-07
9.47922e-07
9.504e-07
9.51319e-07
9.5187e-07
9.51822e-07
9.51951e-07
9.51807e-07
9.51863e-07
9.51761e-07
9.51798e-07
9.5173e-07
9.51755e-07
9.51712e-07
9.51732e-07
9.51702e-07
9.51719e-07
9.51701e-07
9.51711e-07
9.51699e-07
9.51705e-07
9.51698e-07
9.51701e-07
9.51699e-07
9.51699e-07
9.51701e-07
9.51698e-07
9.51705e-07
9.51699e-07
9.51711e-07
9.51701e-07
9.51719e-07
9.51702e-07
9.51732e-07
9.51712e-07
9.51756e-07
9.5173e-07
9.51798e-07
9.51762e-07
9.51864e-07
9.51807e-07
9.51951e-07
9.51822e-07
9.51869e-07
9.51319e-07
9.504e-07
9.47921e-07
9.43509e-07
9.39723e-07
9.13534e-07
9.17212e-07
9.2138e-07
9.23738e-07
9.24642e-07
9.25169e-07
9.25133e-07
9.25247e-07
9.25114e-07
9.2516e-07
9.25064e-07
9.25094e-07
9.25031e-07
9.25051e-07
9.25011e-07
9.25028e-07
9.25e-07
9.25015e-07
9.24998e-07
9.25007e-07
9.24996e-07
9.25001e-07
9.24994e-07
9.24997e-07
9.24996e-07
9.24996e-07
9.24997e-07
9.24994e-07
9.25001e-07
9.24996e-07
9.25007e-07
9.24998e-07
9.25015e-07
9.25e-07
9.25028e-07
9.25011e-07
9.25051e-07
9.25031e-07
9.25094e-07
9.25064e-07
9.2516e-07
9.25114e-07
9.25247e-07
9.25133e-07
9.25168e-07
9.24642e-07
9.23738e-07
9.2138e-07
9.17212e-07
9.13534e-07
8.90809e-07
8.94385e-07
8.98344e-07
9.00594e-07
9.0148e-07
9.01986e-07
9.0196e-07
9.02062e-07
9.01937e-07
9.01973e-07
9.01883e-07
9.01907e-07
9.01847e-07
9.01864e-07
9.01825e-07
9.0184e-07
9.01814e-07
9.01827e-07
9.01812e-07
9.0182e-07
9.01809e-07
9.01813e-07
9.01807e-07
9.0181e-07
9.01808e-07
9.01808e-07
9.0181e-07
9.01807e-07
9.01814e-07
9.01809e-07
9.01819e-07
9.01811e-07
9.01827e-07
9.01814e-07
9.0184e-07
9.01825e-07
9.01864e-07
9.01847e-07
9.01907e-07
9.01883e-07
9.01973e-07
9.01936e-07
9.02061e-07
9.0196e-07
9.01985e-07
9.0148e-07
9.00593e-07
8.98344e-07
8.94385e-07
8.90809e-07
8.70868e-07
8.74348e-07
8.78126e-07
8.80276e-07
8.81146e-07
8.81632e-07
8.81613e-07
8.81704e-07
8.81586e-07
8.81614e-07
8.81528e-07
8.81547e-07
8.8149e-07
8.81503e-07
8.81467e-07
8.81479e-07
8.81454e-07
8.81466e-07
8.81451e-07
8.81458e-07
8.81448e-07
8.81452e-07
8.81447e-07
8.81449e-07
8.81447e-07
8.81447e-07
8.81449e-07
8.81447e-07
8.81452e-07
8.81449e-07
8.81458e-07
8.81451e-07
8.81466e-07
8.81454e-07
8.81479e-07
8.81467e-07
8.81503e-07
8.8149e-07
8.81546e-07
8.81528e-07
8.81614e-07
8.81586e-07
8.81704e-07
8.81613e-07
8.81631e-07
8.81146e-07
8.80276e-07
8.78126e-07
8.74348e-07
8.70868e-07
8.53171e-07
8.5656e-07
8.6018e-07
8.62239e-07
8.63091e-07
8.6356e-07
8.63547e-07
8.63627e-07
8.63514e-07
8.63535e-07
8.63453e-07
8.63466e-07
8.63411e-07
8.63422e-07
8.63387e-07
8.63397e-07
8.63374e-07
8.63384e-07
8.6337e-07
8.63377e-07
8.63367e-07
8.63371e-07
8.63365e-07
8.63367e-07
8.63366e-07
8.63366e-07
8.63367e-07
8.63365e-07
8.63371e-07
8.63367e-07
8.63376e-07
8.6337e-07
8.63384e-07
8.63374e-07
8.63397e-07
8.63387e-07
8.63422e-07
8.63411e-07
8.63466e-07
8.63453e-07
8.63535e-07
8.63514e-07
8.63627e-07
8.63546e-07
8.63559e-07
8.63091e-07
8.62239e-07
8.6018e-07
8.5656e-07
8.53171e-07
8.37289e-07
8.40591e-07
8.44071e-07
8.46047e-07
8.46881e-07
8.47333e-07
8.47323e-07
8.47395e-07
8.47286e-07
8.473e-07
8.4722e-07
8.47229e-07
8.47176e-07
8.47184e-07
8.4715e-07
8.47159e-07
8.47136e-07
8.47145e-07
8.47132e-07
8.47138e-07
8.47129e-07
8.47132e-07
8.47127e-07
8.47129e-07
8.47127e-07
8.47127e-07
8.47129e-07
8.47127e-07
8.47132e-07
8.47129e-07
8.47138e-07
8.47132e-07
8.47145e-07
8.47137e-07
8.47159e-07
8.4715e-07
8.47184e-07
8.47176e-07
8.47229e-07
8.4722e-07
8.473e-07
8.47286e-07
8.47395e-07
8.47323e-07
8.47332e-07
8.4688e-07
8.46046e-07
8.4407e-07
8.4059e-07
8.37289e-07
8.22878e-07
8.26096e-07
8.2945e-07
8.3135e-07
8.32165e-07
8.32601e-07
8.32594e-07
8.32657e-07
8.32551e-07
8.32559e-07
8.32481e-07
8.32486e-07
8.32435e-07
8.3244e-07
8.32407e-07
8.32414e-07
8.32393e-07
8.324e-07
8.32388e-07
8.32393e-07
8.32384e-07
8.32387e-07
8.32382e-07
8.32384e-07
8.32382e-07
8.32382e-07
8.32384e-07
8.32382e-07
8.32387e-07
8.32384e-07
8.32393e-07
8.32388e-07
8.324e-07
8.32393e-07
8.32414e-07
8.32407e-07
8.3244e-07
8.32435e-07
8.32486e-07
8.32481e-07
8.3256e-07
8.32551e-07
8.32657e-07
8.32594e-07
8.32601e-07
8.32165e-07
8.3135e-07
8.2945e-07
8.26095e-07
8.22878e-07
8.09663e-07
8.12797e-07
8.16039e-07
8.17868e-07
8.18663e-07
8.19084e-07
8.19078e-07
8.19133e-07
8.19029e-07
8.19032e-07
8.18955e-07
8.18956e-07
8.18905e-07
8.18908e-07
8.18877e-07
8.18882e-07
8.18861e-07
8.18868e-07
8.18856e-07
8.1886e-07
8.18852e-07
8.18854e-07
8.18849e-07
8.18851e-07
8.1885e-07
8.1885e-07
8.18851e-07
8.18849e-07
8.18854e-07
8.18852e-07
8.1886e-07
8.18856e-07
8.18868e-07
8.18861e-07
8.18882e-07
8.18877e-07
8.18909e-07
8.18905e-07
8.18956e-07
8.18955e-07
8.19032e-07
8.19029e-07
8.19133e-07
8.19077e-07
8.19084e-07
8.18662e-07
8.17867e-07
8.16039e-07
8.12797e-07
8.09662e-07
7.97419e-07
8.00472e-07
8.03611e-07
8.05374e-07
8.06148e-07
8.06555e-07
8.06548e-07
8.06595e-07
8.06492e-07
8.0649e-07
8.06414e-07
8.06412e-07
8.06362e-07
8.06363e-07
8.06332e-07
8.06336e-07
8.06315e-07
8.06321e-07
8.06309e-07
8.06313e-07
8.06305e-07
8.06307e-07
8.06303e-07
8.06304e-07
8.06303e-07
8.06303e-07
8.06304e-07
8.06303e-07
8.06307e-07
8.06305e-07
8.06313e-07
8.06309e-07
8.06321e-07
8.06316e-07
8.06336e-07
8.06332e-07
8.06363e-07
8.06362e-07
8.06412e-07
8.06414e-07
8.0649e-07
8.06492e-07
8.06595e-07
8.06547e-07
8.06554e-07
8.06148e-07
8.05373e-07
8.0361e-07
8.00471e-07
7.97419e-07
7.85967e-07
7.88937e-07
7.91983e-07
7.93684e-07
7.94437e-07
7.94829e-07
7.9482e-07
7.94861e-07
7.94759e-07
7.94752e-07
7.94676e-07
7.94671e-07
7.94621e-07
7.9462e-07
7.94589e-07
7.94592e-07
7.94572e-07
7.94577e-07
7.94565e-07
7.94569e-07
7.94561e-07
7.94563e-07
7.94558e-07
7.9456e-07
7.94558e-07
7.94558e-07
7.9456e-07
7.94558e-07
7.94563e-07
7.94561e-07
7.94569e-07
7.94565e-07
7.94577e-07
7.94572e-07
7.94592e-07
7.94589e-07
7.9462e-07
7.94621e-07
7.9467e-07
7.94676e-07
7.94752e-07
7.94758e-07
7.94861e-07
7.9482e-07
7.94829e-07
7.94436e-07
7.93684e-07
7.91982e-07
7.88937e-07
7.85967e-07
7.75162e-07
7.78047e-07
7.81007e-07
7.8265e-07
7.8338e-07
7.83758e-07
7.83747e-07
7.8378e-07
7.83678e-07
7.83666e-07
7.8359e-07
7.83582e-07
7.83532e-07
7.8353e-07
7.83499e-07
7.83501e-07
7.83481e-07
7.83485e-07
7.83474e-07
7.83477e-07
7.83469e-07
7.83471e-07
7.83466e-07
7.83468e-07
7.83466e-07
7.83466e-07
7.83468e-07
7.83466e-07
7.83471e-07
7.83469e-07
7.83477e-07
7.83474e-07
7.83485e-07
7.83481e-07
7.83501e-07
7.83499e-07
7.8353e-07
7.83532e-07
7.83582e-07
7.8359e-07
7.83666e-07
7.83677e-07
7.8378e-07
7.83747e-07
7.83758e-07
7.83379e-07
7.82649e-07
7.81006e-07
7.78047e-07
7.75162e-07
7.64885e-07
7.6768e-07
7.70561e-07
7.72148e-07
7.72856e-07
7.7322e-07
7.73205e-07
7.73232e-07
7.73128e-07
7.73112e-07
7.73035e-07
7.73025e-07
7.72975e-07
7.72971e-07
7.7294e-07
7.72941e-07
7.72921e-07
7.72925e-07
7.72913e-07
7.72916e-07
7.72909e-07
7.7291e-07
7.72906e-07
7.72907e-07
7.72906e-07
7.72906e-07
7.72907e-07
7.72906e-07
7.7291e-07
7.72909e-07
7.72916e-07
7.72913e-07
7.72925e-07
7.72921e-07
7.72941e-07
7.7294e-07
7.72971e-07
7.72975e-07
7.73025e-07
7.73036e-07
7.73112e-07
7.73128e-07
7.73231e-07
7.73204e-07
7.73219e-07
7.72855e-07
7.72148e-07
7.70561e-07
7.67679e-07
7.64885e-07
7.5503e-07
7.57745e-07
7.60548e-07
7.62081e-07
7.62765e-07
7.63114e-07
7.63095e-07
7.63115e-07
7.6301e-07
7.6299e-07
7.62913e-07
7.62899e-07
7.62849e-07
7.62843e-07
7.62812e-07
7.62812e-07
7.62793e-07
7.62796e-07
7.62784e-07
7.62787e-07
7.62779e-07
7.62781e-07
7.62776e-07
7.62777e-07
7.62776e-07
7.62776e-07
7.62777e-07
7.62776e-07
7.62781e-07
7.62779e-07
7.62787e-07
7.62784e-07
7.62796e-07
7.62793e-07
7.62812e-07
7.62812e-07
7.62843e-07
7.62849e-07
7.62899e-07
7.62913e-07
7.6299e-07
7.6301e-07
7.63115e-07
7.63095e-07
7.63114e-07
7.62765e-07
7.6208e-07
7.60547e-07
7.57745e-07
7.55029e-07
7.45517e-07
7.48162e-07
7.50884e-07
7.52365e-07
7.53025e-07
7.5336e-07
7.53335e-07
7.53349e-07
7.53242e-07
7.53217e-07
7.53139e-07
7.53123e-07
7.53073e-07
7.53065e-07
7.53034e-07
7.53033e-07
7.53014e-07
7.53016e-07
7.53005e-07
7.53007e-07
7.52999e-07
7.53001e-07
7.52996e-07
7.52997e-07
7.52996e-07
7.52996e-07
7.52997e-07
7.52996e-07
7.53001e-07
7.52999e-07
7.53007e-07
7.53005e-07
7.53016e-07
7.53014e-07
7.53033e-07
7.53034e-07
7.53066e-07
7.53073e-07
7.53123e-07
7.53139e-07
7.53217e-07
7.53242e-07
7.53348e-07
7.53335e-07
7.53359e-07
7.53025e-07
7.52365e-07
7.50884e-07
7.48162e-07
7.45517e-07
7.36281e-07
7.38864e-07
7.41504e-07
7.42933e-07
7.4357e-07
7.43888e-07
7.43858e-07
7.43864e-07
7.43756e-07
7.43727e-07
7.43648e-07
7.43629e-07
7.43578e-07
7.43569e-07
7.43538e-07
7.43536e-07
7.43516e-07
7.43519e-07
7.43507e-07
7.43509e-07
7.43501e-07
7.43502e-07
7.43498e-07
7.43499e-07
7.43498e-07
7.43498e-07
7.43499e-07
7.43498e-07
7.43502e-07
7.43501e-07
7.43509e-07
7.43507e-07
7.43518e-07
7.43517e-07
7.43536e-07
7.43538e-07
7.43569e-07
7.43578e-07
7.43629e-07
7.43648e-07
7.43727e-07
7.43755e-07
7.43864e-07
7.43857e-07
7.43888e-07
7.43569e-07
7.42933e-07
7.41503e-07
7.38864e-07
7.3628e-07
7.27266e-07
7.29795e-07
7.3235e-07
7.33729e-07
7.34341e-07
7.34644e-07
7.34607e-07
7.34607e-07
7.34495e-07
7.34463e-07
7.34382e-07
7.34361e-07
7.34309e-07
7.34299e-07
7.34267e-07
7.34264e-07
7.34245e-07
7.34246e-07
7.34235e-07
7.34236e-07
7.34229e-07
7.3423e-07
7.34226e-07
7.34226e-07
7.34225e-07
7.34225e-07
7.34226e-07
7.34226e-07
7.3423e-07
7.34229e-07
7.34236e-07
7.34235e-07
7.34246e-07
7.34245e-07
7.34265e-07
7.34267e-07
7.34299e-07
7.34309e-07
7.34361e-07
7.34382e-07
7.34463e-07
7.34495e-07
7.34606e-07
7.34606e-07
7.34644e-07
7.34341e-07
7.33729e-07
7.32349e-07
7.29795e-07
7.27265e-07
7.18426e-07
7.20911e-07
7.23375e-07
7.24708e-07
7.25293e-07
7.2558e-07
7.25535e-07
7.25528e-07
7.25414e-07
7.25377e-07
7.25295e-07
7.25272e-07
7.25219e-07
7.25207e-07
7.25175e-07
7.25172e-07
7.25152e-07
7.25153e-07
7.25141e-07
7.25143e-07
7.25135e-07
7.25136e-07
7.25132e-07
7.25132e-07
7.25131e-07
7.25131e-07
7.25132e-07
7.25132e-07
7.25136e-07
7.25135e-07
7.25142e-07
7.25141e-07
7.25153e-07
7.25152e-07
7.25172e-07
7.25175e-07
7.25208e-07
7.25219e-07
7.25272e-07
7.25295e-07
7.25377e-07
7.25414e-07
7.25528e-07
7.25535e-07
7.2558e-07
7.25293e-07
7.24707e-07
7.23375e-07
7.2091e-07
7.18426e-07
7.09724e-07
7.12163e-07
7.14548e-07
7.15828e-07
7.16386e-07
7.16657e-07
7.16604e-07
7.1659e-07
7.16472e-07
7.16432e-07
7.16347e-07
7.16322e-07
7.16268e-07
7.16255e-07
7.16223e-07
7.16218e-07
7.16198e-07
7.16199e-07
7.16187e-07
7.16188e-07
7.16181e-07
7.16181e-07
7.16177e-07
7.16178e-07
7.16177e-07
7.16177e-07
7.16178e-07
7.16177e-07
7.16181e-07
7.16181e-07
7.16188e-07
7.16187e-07
7.16199e-07
7.16198e-07
7.16218e-07
7.16223e-07
7.16255e-07
7.16268e-07
7.16322e-07
7.16347e-07
7.16432e-07
7.16472e-07
7.1659e-07
7.16603e-07
7.16656e-07
7.16385e-07
7.15828e-07
7.14548e-07
7.12163e-07
7.09724e-07
7.01128e-07
7.03526e-07
7.05829e-07
7.07058e-07
7.07587e-07
7.07841e-07
7.07779e-07
7.07758e-07
7.07637e-07
7.07592e-07
7.07506e-07
7.07478e-07
7.07424e-07
7.0741e-07
7.07376e-07
7.07371e-07
7.07351e-07
7.07351e-07
7.07339e-07
7.0734e-07
7.07332e-07
7.07333e-07
7.07329e-07
7.07329e-07
7.07328e-07
7.07328e-07
7.07329e-07
7.07329e-07
7.07333e-07
7.07332e-07
7.0734e-07
7.07339e-07
7.07351e-07
7.07351e-07
7.07371e-07
7.07376e-07
7.0741e-07
7.07424e-07
7.07478e-07
7.07506e-07
7.07592e-07
7.07637e-07
7.07758e-07
7.07779e-07
7.07841e-07
7.07586e-07
7.07058e-07
7.05829e-07
7.03525e-07
7.01127e-07
6.92611e-07
6.94969e-07
6.9719e-07
6.98369e-07
6.98867e-07
6.99105e-07
6.99033e-07
6.99005e-07
6.9888e-07
6.98831e-07
6.98743e-07
6.98713e-07
6.98657e-07
6.98642e-07
6.98608e-07
6.98602e-07
6.98581e-07
6.98581e-07
6.98569e-07
6.9857e-07
6.98562e-07
6.98562e-07
6.98558e-07
6.98559e-07
6.98557e-07
6.98557e-07
6.98559e-07
6.98558e-07
6.98562e-07
6.98562e-07
6.9857e-07
6.98569e-07
6.98581e-07
6.98581e-07
6.98602e-07
6.98608e-07
6.98642e-07
6.98657e-07
6.98713e-07
6.98743e-07
6.98831e-07
6.9888e-07
6.99005e-07
6.99033e-07
6.99104e-07
6.98867e-07
6.98368e-07
6.97189e-07
6.94969e-07
6.9261e-07
6.84149e-07
6.8647e-07
6.88606e-07
6.89736e-07
6.90203e-07
6.90423e-07
6.90342e-07
6.90305e-07
6.90177e-07
6.90124e-07
6.90033e-07
6.90001e-07
6.89944e-07
6.89927e-07
6.89893e-07
6.89886e-07
6.89865e-07
6.89865e-07
6.89852e-07
6.89853e-07
6.89845e-07
6.89845e-07
6.89841e-07
6.89842e-07
6.8984e-07
6.8984e-07
6.89842e-07
6.89841e-07
6.89845e-07
6.89845e-07
6.89853e-07
6.89852e-07
6.89865e-07
6.89865e-07
6.89886e-07
6.89893e-07
6.89927e-07
6.89944e-07
6.90001e-07
6.90033e-07
6.90124e-07
6.90177e-07
6.90305e-07
6.90341e-07
6.90422e-07
6.90203e-07
6.89735e-07
6.88605e-07
6.86469e-07
6.84149e-07
6.75724e-07
6.78005e-07
6.80056e-07
6.81137e-07
6.81574e-07
6.81775e-07
6.81683e-07
6.81639e-07
6.81506e-07
6.81449e-07
6.81356e-07
6.81321e-07
6.81263e-07
6.81245e-07
6.8121e-07
6.81203e-07
6.81182e-07
6.81181e-07
6.81168e-07
6.81168e-07
6.8116e-07
6.81161e-07
6.81156e-07
6.81157e-07
6.81156e-07
6.81156e-07
6.81157e-07
6.81156e-07
6.81161e-07
6.8116e-07
6.81168e-07
6.81168e-07
6.81181e-07
6.81182e-07
6.81203e-07
6.8121e-07
6.81245e-07
6.81263e-07
6.81321e-07
6.81356e-07
6.81449e-07
6.81506e-07
6.81639e-07
6.81683e-07
6.81774e-07
6.81573e-07
6.81137e-07
6.80056e-07
6.78005e-07
6.75723e-07
6.67316e-07
6.69558e-07