/*--------------------------------*- C++ -*----------------------------------*\
| =========                 |                                                 |
| \\      /  F ield         | OpenFOAM: The Open Source CFD Toolbox           |
|  \\    /   O peration     | Version:  dev                                   |
|   \\  /    A nd           | Web:      www.OpenFOAM.org                      |
|    \\/     M anipulation  |                                                 |
\*---------------------------------------------------------------------------*/
FoamFile
{
    version     2.0;
    format      ascii;
    class       volScalarField;
    location    "0.1";
    object      CO2;
}
// * * * * * * * * * * * * * * * * * * * * * * * * * * * * * * * * * * * * * //

dimensions      [0 0 0 0 0 0 0];

internalField   nonuniform List<scalar> 
8000
(
0.0125
0.0124999
0.0125022
0.0125032
0.0125045
0.0125042
0.0125047
0.0125043
0.0125046
0.0125044
0.0125046
0.0125044
0.0125046
0.0125044
0.0125045
0.0125045
0.0125045
0.0125045
0.0125045
0.0125045
0.0125045
0.0125045
0.0125045
0.0125045
0.0125045
0.0125045
0.0125045
0.0125045
0.0125045
0.0125045
0.0125045
0.0125045
0.0125045
0.0125045
0.0125045
0.0125045
0.0125044
0.0125046
0.0125044
0.0125046
0.0125044
0.0125046
0.0125043
0.0125047
0.0125042
0.0125045
0.0125032
0.0125022
0.0124999
0.0125
0.0256245
0.0256223
0.0256241
0.0256248
0.0256272
0.0256263
0.0256274
0.0256266
0.0256273
0.0256268
0.0256272
0.0256268
0.0256271
0.0256269
0.0256271
0.0256269
0.0256271
0.0256269
0.025627
0.025627
0.025627
0.025627
0.025627
0.025627
0.025627
0.025627
0.025627
0.025627
0.025627
0.025627
0.025627
0.025627
0.0256269
0.0256271
0.0256269
0.0256271
0.0256269
0.0256271
0.0256268
0.0256272
0.0256268
0.0256273
0.0256266
0.0256274
0.0256263
0.0256272
0.0256248
0.0256241
0.0256223
0.0256245
0.0343402
0.0343344
0.0343314
0.0343305
0.0343327
0.0343315
0.0343328
0.0343318
0.0343326
0.0343319
0.0343325
0.034332
0.0343324
0.0343321
0.0343324
0.0343321
0.0343323
0.0343322
0.0343323
0.0343322
0.0343323
0.0343322
0.0343323
0.0343322
0.0343323
0.0343323
0.0343322
0.0343323
0.0343322
0.0343323
0.0343322
0.0343323
0.0343322
0.0343323
0.0343321
0.0343324
0.0343321
0.0343324
0.034332
0.0343325
0.0343319
0.0343326
0.0343318
0.0343328
0.0343315
0.0343327
0.0343305
0.0343314
0.0343344
0.0343402
0.0396929
0.0396849
0.0396783
0.0396761
0.039678
0.0396766
0.0396779
0.0396768
0.0396777
0.039677
0.0396776
0.0396771
0.0396775
0.0396772
0.0396774
0.0396772
0.0396774
0.0396773
0.0396774
0.0396773
0.0396774
0.0396773
0.0396774
0.0396773
0.0396773
0.0396773
0.0396773
0.0396774
0.0396773
0.0396774
0.0396773
0.0396774
0.0396773
0.0396774
0.0396772
0.0396775
0.0396772
0.0396775
0.0396771
0.0396776
0.039677
0.0396777
0.0396768
0.0396779
0.0396766
0.039678
0.0396761
0.0396783
0.0396849
0.0396929
0.0430322
0.0430232
0.0430142
0.0430112
0.0430127
0.0430112
0.0430124
0.0430114
0.0430123
0.0430116
0.0430122
0.0430117
0.0430121
0.0430118
0.043012
0.0430118
0.043012
0.0430119
0.043012
0.0430119
0.043012
0.0430119
0.0430119
0.0430119
0.0430119
0.0430119
0.0430119
0.0430119
0.0430119
0.043012
0.0430119
0.043012
0.0430119
0.043012
0.0430118
0.043012
0.0430118
0.0430121
0.0430117
0.0430122
0.0430116
0.0430123
0.0430114
0.0430125
0.0430112
0.0430127
0.0430112
0.0430142
0.0430232
0.0430322
0.0451718
0.0451624
0.0451522
0.0451486
0.0451498
0.0451483
0.0451494
0.0451485
0.0451493
0.0451486
0.0451492
0.0451487
0.0451491
0.0451488
0.0451491
0.0451488
0.045149
0.0451489
0.045149
0.0451489
0.045149
0.0451489
0.045149
0.0451489
0.045149
0.045149
0.0451489
0.045149
0.0451489
0.045149
0.0451489
0.045149
0.0451489
0.045149
0.0451488
0.0451491
0.0451488
0.0451491
0.0451487
0.0451492
0.0451486
0.0451493
0.0451485
0.0451494
0.0451483
0.0451498
0.0451487
0.0451522
0.0451624
0.0451718
0.0465858
0.0465765
0.0465658
0.046562
0.0465628
0.0465614
0.0465624
0.0465616
0.0465623
0.0465617
0.0465622
0.0465618
0.0465621
0.0465619
0.0465621
0.0465619
0.0465621
0.0465619
0.046562
0.0465619
0.046562
0.046562
0.046562
0.046562
0.046562
0.046562
0.046562
0.046562
0.046562
0.046562
0.0465619
0.046562
0.0465619
0.0465621
0.0465619
0.0465621
0.0465619
0.0465621
0.0465618
0.0465622
0.0465617
0.0465623
0.0465616
0.0465624
0.0465614
0.0465628
0.046562
0.0465658
0.0465765
0.0465858
0.0475491
0.0475401
0.0475294
0.0475256
0.0475261
0.0475248
0.0475257
0.0475249
0.0475255
0.047525
0.0475255
0.0475251
0.0475254
0.0475251
0.0475254
0.0475252
0.0475253
0.0475252
0.0475253
0.0475252
0.0475253
0.0475253
0.0475253
0.0475253
0.0475253
0.0475253
0.0475253
0.0475253
0.0475252
0.0475253
0.0475252
0.0475253
0.0475252
0.0475253
0.0475252
0.0475254
0.0475251
0.0475254
0.0475251
0.0475255
0.047525
0.0475255
0.0475249
0.0475257
0.0475248
0.0475261
0.0475256
0.0475294
0.0475401
0.0475491
0.0482231
0.0482147
0.0482043
0.0482005
0.0482009
0.0481996
0.0482004
0.0481997
0.0482003
0.0481998
0.0482002
0.0481999
0.0482001
0.0481999
0.0482001
0.0482
0.0482001
0.0482
0.0482001
0.0482
0.0482001
0.0482
0.0482
0.0482
0.0482
0.0482
0.0482
0.0482
0.0482
0.0482001
0.0482
0.0482001
0.0482
0.0482001
0.0482
0.0482001
0.0481999
0.0482001
0.0481999
0.0482002
0.0481998
0.0482003
0.0481997
0.0482004
0.0481996
0.0482009
0.0482005
0.0482043
0.0482147
0.0482231
0.0487055
0.0486976
0.0486879
0.0486842
0.0486844
0.0486833
0.0486839
0.0486833
0.0486838
0.0486833
0.0486837
0.0486834
0.0486837
0.0486835
0.0486836
0.0486835
0.0486836
0.0486835
0.0486836
0.0486835
0.0486836
0.0486836
0.0486836
0.0486836
0.0486836
0.0486836
0.0486836
0.0486836
0.0486836
0.0486836
0.0486835
0.0486836
0.0486835
0.0486836
0.0486835
0.0486836
0.0486835
0.0486837
0.0486834
0.0486837
0.0486833
0.0486838
0.0486833
0.0486839
0.0486833
0.0486844
0.0486842
0.0486879
0.0486976
0.0487055
0.0490565
0.0490492
0.0490402
0.0490367
0.0490368
0.0490358
0.0490363
0.0490357
0.0490362
0.0490358
0.0490361
0.0490359
0.0490361
0.0490359
0.0490361
0.0490359
0.0490361
0.049036
0.049036
0.049036
0.049036
0.049036
0.049036
0.049036
0.049036
0.049036
0.049036
0.049036
0.049036
0.049036
0.049036
0.049036
0.049036
0.0490361
0.0490359
0.0490361
0.0490359
0.0490361
0.0490359
0.0490361
0.0490358
0.0490362
0.0490357
0.0490363
0.0490358
0.0490368
0.0490367
0.0490402
0.0490492
0.0490565
0.0493251
0.0493187
0.0493107
0.0493075
0.0493076
0.0493067
0.0493071
0.0493066
0.049307
0.0493067
0.0493069
0.0493067
0.0493069
0.0493068
0.0493069
0.0493068
0.0493069
0.0493068
0.0493069
0.0493068
0.0493068
0.0493068
0.0493068
0.0493068
0.0493068
0.0493068
0.0493068
0.0493068
0.0493068
0.0493068
0.0493068
0.0493069
0.0493068
0.0493069
0.0493068
0.0493069
0.0493068
0.0493069
0.0493067
0.0493069
0.0493067
0.049307
0.0493066
0.0493071
0.0493067
0.0493076
0.0493075
0.0493107
0.0493187
0.0493251
0.0495172
0.0495115
0.0495044
0.0495015
0.0495016
0.0495007
0.0495011
0.0495007
0.049501
0.0495007
0.0495009
0.0495007
0.0495009
0.0495008
0.0495009
0.0495008
0.0495009
0.0495008
0.0495009
0.0495008
0.0495009
0.0495008
0.0495009
0.0495008
0.0495008
0.0495008
0.0495008
0.0495009
0.0495008
0.0495009
0.0495008
0.0495009
0.0495008
0.0495009
0.0495008
0.0495009
0.0495008
0.0495009
0.0495007
0.0495009
0.0495007
0.049501
0.0495007
0.0495011
0.0495007
0.0495016
0.0495016
0.0495044
0.0495115
0.0495172
0.0496606
0.0496563
0.0496506
0.0496483
0.0496482
0.0496475
0.0496478
0.0496474
0.0496477
0.0496474
0.0496476
0.0496475
0.0496476
0.0496475
0.0496476
0.0496475
0.0496476
0.0496475
0.0496476
0.0496475
0.0496476
0.0496475
0.0496476
0.0496475
0.0496475
0.0496475
0.0496475
0.0496476
0.0496475
0.0496476
0.0496475
0.0496476
0.0496475
0.0496476
0.0496475
0.0496476
0.0496475
0.0496476
0.0496475
0.0496476
0.0496474
0.0496477
0.0496474
0.0496478
0.0496475
0.0496482
0.0496483
0.0496506
0.0496563
0.0496606
0.0497694
0.0497661
0.0497616
0.0497597
0.0497596
0.049759
0.0497592
0.0497589
0.0497591
0.0497589
0.049759
0.0497589
0.049759
0.0497589
0.049759
0.0497589
0.049759
0.049759
0.049759
0.049759
0.049759
0.049759
0.049759
0.049759
0.049759
0.049759
0.049759
0.049759
0.049759
0.049759
0.049759
0.049759
0.049759
0.049759
0.0497589
0.049759
0.0497589
0.049759
0.0497589
0.049759
0.0497589
0.0497591
0.0497589
0.0497592
0.049759
0.0497596
0.0497597
0.0497616
0.0497661
0.0497694
0.0498452
0.0498427
0.0498392
0.0498377
0.0498377
0.0498372
0.0498374
0.0498371
0.0498372
0.0498371
0.0498372
0.0498371
0.0498371
0.0498371
0.0498371
0.0498371
0.0498371
0.0498371
0.0498371
0.0498371
0.0498371
0.0498371
0.0498371
0.0498371
0.0498371
0.0498371
0.0498371
0.0498371
0.0498371
0.0498371
0.0498371
0.0498371
0.0498371
0.0498371
0.0498371
0.0498371
0.0498371
0.0498371
0.0498371
0.0498372
0.0498371
0.0498372
0.0498371
0.0498374
0.0498372
0.0498377
0.0498377
0.0498392
0.0498427
0.0498452
0.0498996
0.0498979
0.0498954
0.0498943
0.0498943
0.049894
0.0498941
0.0498938
0.0498939
0.0498938
0.0498939
0.0498938
0.0498938
0.0498938
0.0498938
0.0498938
0.0498938
0.0498938
0.0498938
0.0498938
0.0498938
0.0498938
0.0498938
0.0498938
0.0498938
0.0498938
0.0498938
0.0498938
0.0498938
0.0498938
0.0498938
0.0498938
0.0498938
0.0498938
0.0498938
0.0498938
0.0498938
0.0498938
0.0498938
0.0498939
0.0498938
0.0498939
0.0498938
0.0498941
0.049894
0.0498943
0.0498943
0.0498954
0.0498979
0.0498996
0.0499336
0.0499329
0.0499314
0.0499308
0.0499309
0.0499306
0.0499306
0.0499304
0.0499305
0.0499304
0.0499304
0.0499304
0.0499304
0.0499304
0.0499304
0.0499304
0.0499304
0.0499304
0.0499304
0.0499304
0.0499304
0.0499304
0.0499304
0.0499304
0.0499304
0.0499304
0.0499304
0.0499304
0.0499304
0.0499304
0.0499304
0.0499304
0.0499304
0.0499304
0.0499304
0.0499304
0.0499304
0.0499304
0.0499304
0.0499304
0.0499304
0.0499305
0.0499304
0.0499306
0.0499306
0.0499309
0.0499308
0.0499314
0.0499329
0.0499336
0.0499531
0.0499533
0.0499528
0.0499526
0.0499528
0.0499527
0.0499526
0.0499525
0.0499525
0.0499524
0.0499524
0.0499524
0.0499524
0.0499524
0.0499524
0.0499524
0.0499524
0.0499524
0.0499524
0.0499524
0.0499524
0.0499524
0.0499524
0.0499524
0.0499524
0.0499524
0.0499524
0.0499524
0.0499524
0.0499524
0.0499524
0.0499524
0.0499524
0.0499524
0.0499524
0.0499524
0.0499524
0.0499524
0.0499524
0.0499524
0.0499524
0.0499525
0.0499525
0.0499526
0.0499527
0.0499528
0.0499526
0.0499528
0.0499533
0.0499531
0.0499595
0.0499607
0.0499612
0.0499615
0.0499618
0.0499618
0.0499617
0.0499616
0.0499615
0.0499615
0.0499615
0.0499614
0.0499614
0.0499614
0.0499614
0.0499614
0.0499614
0.0499614
0.0499614
0.0499614
0.0499614
0.0499614
0.0499614
0.0499614
0.0499614
0.0499614
0.0499614
0.0499614
0.0499614
0.0499614
0.0499614
0.0499614
0.0499614
0.0499614
0.0499614
0.0499614
0.0499614
0.0499614
0.0499614
0.0499615
0.0499615
0.0499615
0.0499616
0.0499617
0.0499618
0.0499618
0.0499615
0.0499612
0.0499607
0.0499595
0.0499551
0.0499573
0.0499588
0.0499596
0.04996
0.04996
0.0499599
0.0499598
0.0499597
0.0499597
0.0499596
0.0499596
0.0499596
0.0499596
0.0499596
0.0499596
0.0499596
0.0499596
0.0499596
0.0499596
0.0499596
0.0499596
0.0499596
0.0499596
0.0499596
0.0499596
0.0499596
0.0499596
0.0499596
0.0499596
0.0499596
0.0499596
0.0499596
0.0499596
0.0499596
0.0499596
0.0499596
0.0499596
0.0499596
0.0499596
0.0499597
0.0499597
0.0499598
0.0499599
0.04996
0.04996
0.0499596
0.0499588
0.0499573
0.0499551
0.0499419
0.0499449
0.0499474
0.0499486
0.0499491
0.0499493
0.0499491
0.049949
0.0499489
0.0499489
0.0499488
0.0499488
0.0499488
0.0499488
0.0499488
0.0499488
0.0499488
0.0499488
0.0499488
0.0499488
0.0499488
0.0499488
0.0499488
0.0499488
0.0499488
0.0499488
0.0499488
0.0499488
0.0499488
0.0499488
0.0499488
0.0499488
0.0499488
0.0499488
0.0499488
0.0499488
0.0499488
0.0499488
0.0499488
0.0499488
0.0499489
0.0499489
0.049949
0.0499491
0.0499493
0.0499491
0.0499486
0.0499474
0.0499449
0.0499419
0.0499209
0.0499243
0.0499276
0.0499293
0.0499299
0.0499301
0.0499299
0.0499299
0.0499297
0.0499298
0.0499297
0.0499297
0.0499296
0.0499297
0.0499296
0.0499297
0.0499296
0.0499297
0.0499296
0.0499297
0.0499296
0.0499297
0.0499297
0.0499297
0.0499297
0.0499297
0.0499297
0.0499297
0.0499297
0.0499296
0.0499297
0.0499296
0.0499297
0.0499296
0.0499297
0.0499296
0.0499297
0.0499296
0.0499297
0.0499297
0.0499298
0.0499297
0.0499299
0.0499299
0.0499301
0.0499299
0.0499293
0.0499276
0.0499243
0.0499209
0.0498934
0.0498976
0.0499018
0.0499039
0.0499047
0.049905
0.0499047
0.0499048
0.0499045
0.0499046
0.0499045
0.0499045
0.0499044
0.0499045
0.0499044
0.0499045
0.0499044
0.0499045
0.0499044
0.0499045
0.0499044
0.0499045
0.0499044
0.0499045
0.0499045
0.0499045
0.0499045
0.0499044
0.0499045
0.0499044
0.0499045
0.0499044
0.0499045
0.0499044
0.0499045
0.0499044
0.0499045
0.0499044
0.0499045
0.0499045
0.0499046
0.0499045
0.0499048
0.0499047
0.049905
0.0499047
0.0499039
0.0499018
0.0498976
0.0498934
0.0498589
0.049864
0.0498691
0.0498717
0.0498726
0.049873
0.0498727
0.0498728
0.0498725
0.0498726
0.0498724
0.0498725
0.0498724
0.0498724
0.0498724
0.0498724
0.0498724
0.0498724
0.0498724
0.0498724
0.0498724
0.0498724
0.0498724
0.0498724
0.0498724
0.0498724
0.0498724
0.0498724
0.0498724
0.0498724
0.0498724
0.0498724
0.0498724
0.0498724
0.0498724
0.0498724
0.0498724
0.0498724
0.0498725
0.0498724
0.0498726
0.0498725
0.0498728
0.0498727
0.049873
0.0498726
0.0498717
0.049869
0.049864
0.0498589
0.0498191
0.0498251
0.0498309
0.0498339
0.049835
0.0498355
0.0498352
0.0498353
0.049835
0.049835
0.0498349
0.0498349
0.0498348
0.0498349
0.0498348
0.0498349
0.0498348
0.0498349
0.0498348
0.0498349
0.0498348
0.0498349
0.0498348
0.0498349
0.0498349
0.0498349
0.0498349
0.0498348
0.0498349
0.0498348
0.0498349
0.0498348
0.0498349
0.0498348
0.0498349
0.0498348
0.0498349
0.0498348
0.0498349
0.0498349
0.049835
0.049835
0.0498353
0.0498352
0.0498355
0.049835
0.0498339
0.0498309
0.0498251
0.0498191
0.0497749
0.0497817
0.0497882
0.0497916
0.0497927
0.0497934
0.049793
0.0497931
0.0497928
0.0497929
0.0497927
0.0497928
0.0497927
0.0497927
0.0497927
0.0497927
0.0497927
0.0497927
0.0497927
0.0497927
0.0497927
0.0497927
0.0497927
0.0497927
0.0497927
0.0497927
0.0497927
0.0497927
0.0497927
0.0497927
0.0497927
0.0497927
0.0497927
0.0497927
0.0497927
0.0497927
0.0497927
0.0497927
0.0497928
0.0497927
0.0497929
0.0497928
0.0497931
0.049793
0.0497934
0.0497927
0.0497916
0.0497882
0.0497817
0.0497749
0.0497267
0.0497343
0.0497415
0.0497452
0.0497465
0.0497472
0.0497468
0.049747
0.0497466
0.0497467
0.0497465
0.0497466
0.0497465
0.0497465
0.0497464
0.0497465
0.0497464
0.0497465
0.0497465
0.0497465
0.0497465
0.0497465
0.0497465
0.0497465
0.0497465
0.0497465
0.0497465
0.0497465
0.0497465
0.0497465
0.0497465
0.0497465
0.0497465
0.0497464
0.0497465
0.0497464
0.0497465
0.0497465
0.0497466
0.0497465
0.0497467
0.0497466
0.049747
0.0497468
0.0497472
0.0497465
0.0497452
0.0497415
0.0497343
0.0497267
0.049675
0.0496835
0.0496913
0.0496953
0.0496967
0.0496975
0.0496971
0.0496973
0.0496969
0.049697
0.0496968
0.0496969
0.0496967
0.0496968
0.0496967
0.0496968
0.0496967
0.0496968
0.0496967
0.0496967
0.0496967
0.0496967
0.0496967
0.0496967
0.0496967
0.0496967
0.0496967
0.0496967
0.0496967
0.0496967
0.0496967
0.0496967
0.0496968
0.0496967
0.0496968
0.0496967
0.0496968
0.0496967
0.0496969
0.0496968
0.049697
0.0496969
0.0496973
0.0496971
0.0496975
0.0496967
0.0496953
0.0496913
0.0496835
0.049675
0.0496205
0.0496297
0.049638
0.0496424
0.0496439
0.0496447
0.0496443
0.0496445
0.0496441
0.0496442
0.049644
0.0496441
0.0496439
0.049644
0.0496439
0.049644
0.0496439
0.049644
0.0496439
0.0496439
0.0496439
0.0496439
0.0496439
0.0496439
0.0496439
0.0496439
0.0496439
0.0496439
0.0496439
0.0496439
0.0496439
0.0496439
0.049644
0.0496439
0.049644
0.0496439
0.049644
0.0496439
0.0496441
0.049644
0.0496442
0.0496441
0.0496445
0.0496443
0.0496447
0.0496439
0.0496424
0.049638
0.0496297
0.0496205
0.0495634
0.0495733
0.0495822
0.0495868
0.0495884
0.0495893
0.0495889
0.0495891
0.0495886
0.0495887
0.0495885
0.0495886
0.0495885
0.0495885
0.0495884
0.0495885
0.0495884
0.0495885
0.0495885
0.0495885
0.0495885
0.0495885
0.0495885
0.0495885
0.0495885
0.0495885
0.0495885
0.0495885
0.0495885
0.0495885
0.0495885
0.0495884
0.0495885
0.0495884
0.0495885
0.0495884
0.0495885
0.0495885
0.0495886
0.0495885
0.0495887
0.0495886
0.0495891
0.0495889
0.0495893
0.0495884
0.0495868
0.0495822
0.0495733
0.0495634
0.0495041
0.0495146
0.049524
0.0495289
0.0495306
0.0495316
0.0495311
0.0495313
0.0495309
0.049531
0.0495307
0.0495309
0.0495307
0.0495308
0.0495307
0.0495307
0.0495307
0.0495307
0.0495307
0.0495307
0.0495307
0.0495307
0.0495307
0.0495307
0.0495307
0.0495307
0.0495307
0.0495307
0.0495307
0.0495307
0.0495307
0.0495307
0.0495307
0.0495307
0.0495307
0.0495307
0.0495308
0.0495307
0.0495309
0.0495307
0.049531
0.0495309
0.0495313
0.0495311
0.0495316
0.0495306
0.0495289
0.049524
0.0495146
0.0495041
0.049443
0.0494541
0.049464
0.0494691
0.0494709
0.0494719
0.0494714
0.0494716
0.0494712
0.0494713
0.049471
0.0494711
0.049471
0.0494711
0.049471
0.049471
0.049471
0.049471
0.049471
0.049471
0.049471
0.049471
0.049471
0.049471
0.049471
0.049471
0.049471
0.049471
0.049471
0.049471
0.049471
0.049471
0.049471
0.049471
0.049471
0.049471
0.0494711
0.049471
0.0494711
0.049471
0.0494713
0.0494712
0.0494716
0.0494714
0.0494719
0.0494709
0.0494691
0.049464
0.0494541
0.049443
0.0493804
0.049392
0.0494023
0.0494076
0.0494095
0.0494105
0.0494101
0.0494103
0.0494098
0.0494099
0.0494097
0.0494098
0.0494096
0.0494097
0.0494096
0.0494096
0.0494096
0.0494096
0.0494096
0.0494096
0.0494096
0.0494096
0.0494096
0.0494096
0.0494096
0.0494096
0.0494096
0.0494096
0.0494096
0.0494096
0.0494096
0.0494096
0.0494096
0.0494096
0.0494096
0.0494096
0.0494097
0.0494096
0.0494098
0.0494097
0.0494099
0.0494098
0.0494103
0.0494101
0.0494105
0.0494095
0.0494076
0.0494023
0.049392
0.0493804
0.0493166
0.0493287
0.0493393
0.0493448
0.0493467
0.0493478
0.0493473
0.0493475
0.0493471
0.0493472
0.0493469
0.049347
0.0493468
0.0493469
0.0493468
0.0493469
0.0493468
0.0493469
0.0493468
0.0493469
0.0493468
0.0493469
0.0493468
0.0493468
0.0493468
0.0493468
0.0493468
0.0493468
0.0493469
0.0493468
0.0493469
0.0493468
0.0493469
0.0493468
0.0493469
0.0493468
0.0493469
0.0493468
0.049347
0.0493469
0.0493472
0.0493471
0.0493475
0.0493473
0.0493478
0.0493467
0.0493448
0.0493393
0.0493287
0.0493166
0.0492517
0.0492642
0.0492752
0.0492808
0.0492828
0.0492839
0.0492835
0.0492837
0.0492832
0.0492833
0.049283
0.0492831
0.0492829
0.049283
0.0492829
0.049283
0.0492829
0.049283
0.0492829
0.049283
0.0492829
0.049283
0.0492829
0.049283
0.049283
0.049283
0.049283
0.0492829
0.049283
0.0492829
0.049283
0.0492829
0.049283
0.0492829
0.049283
0.0492829
0.049283
0.0492829
0.0492831
0.049283
0.0492833
0.0492832
0.0492837
0.0492835
0.0492839
0.0492828
0.0492808
0.0492752
0.0492642
0.0492517
0.0491861
0.0491989
0.0492102
0.049216
0.049218
0.0492192
0.0492187
0.0492189
0.0492184
0.0492185
0.0492182
0.0492183
0.0492182
0.0492183
0.0492181
0.0492182
0.0492181
0.0492182
0.0492182
0.0492182
0.0492182
0.0492182
0.0492182
0.0492182
0.0492182
0.0492182
0.0492182
0.0492182
0.0492182
0.0492182
0.0492182
0.0492182
0.0492182
0.0492181
0.0492182
0.0492181
0.0492183
0.0492182
0.0492183
0.0492182
0.0492185
0.0492184
0.0492189
0.0492187
0.0492192
0.049218
0.049216
0.0492102
0.0491989
0.0491861
0.04912
0.0491331
0.0491446
0.0491504
0.0491525
0.0491537
0.0491533
0.0491535
0.049153
0.0491531
0.0491528
0.0491529
0.0491527
0.0491528
0.0491527
0.0491528
0.0491527
0.0491528
0.0491527
0.0491527
0.0491527
0.0491527
0.0491527
0.0491527
0.0491527
0.0491527
0.0491527
0.0491527
0.0491527
0.0491527
0.0491527
0.0491527
0.0491528
0.0491527
0.0491528
0.0491527
0.0491528
0.0491527
0.0491529
0.0491528
0.0491531
0.049153
0.0491535
0.0491533
0.0491537
0.0491525
0.0491504
0.0491446
0.0491331
0.04912
0.0490535
0.0490668
0.0490786
0.0490845
0.0490866
0.0490878
0.0490873
0.0490876
0.049087
0.0490872
0.0490869
0.049087
0.0490868
0.0490869
0.0490868
0.0490868
0.0490868
0.0490868
0.0490868
0.0490868
0.0490868
0.0490868
0.0490868
0.0490868
0.0490868
0.0490868
0.0490868
0.0490868
0.0490868
0.0490868
0.0490868
0.0490868
0.0490868
0.0490868
0.0490868
0.0490868
0.0490869
0.0490868
0.049087
0.0490869
0.0490872
0.049087
0.0490876
0.0490873
0.0490878
0.0490866
0.0490845
0.0490786
0.0490668
0.0490535
0.0489869
0.0490003
0.0490122
0.0490182
0.0490203
0.0490216
0.0490211
0.0490213
0.0490208
0.049021
0.0490207
0.0490208
0.0490206
0.0490207
0.0490206
0.0490206
0.0490206
0.0490206
0.0490206
0.0490206
0.0490206
0.0490206
0.0490206
0.0490206
0.0490206
0.0490206
0.0490206
0.0490206
0.0490206
0.0490206
0.0490206
0.0490206
0.0490206
0.0490206
0.0490206
0.0490206
0.0490207
0.0490206
0.0490208
0.0490207
0.049021
0.0490208
0.0490213
0.0490211
0.0490216
0.0490203
0.0490182
0.0490122
0.0490003
0.0489869
0.0489202
0.0489338
0.0489458
0.0489519
0.048954
0.0489553
0.0489548
0.048955
0.0489545
0.0489546
0.0489543
0.0489544
0.0489543
0.0489543
0.0489542
0.0489543
0.0489542
0.0489543
0.0489542
0.0489543
0.0489543
0.0489543
0.0489543
0.0489543
0.0489543
0.0489543
0.0489543
0.0489543
0.0489543
0.0489543
0.0489543
0.0489542
0.0489543
0.0489542
0.0489543
0.0489542
0.0489543
0.0489543
0.0489544
0.0489543
0.0489546
0.0489545
0.048955
0.0489548
0.0489553
0.048954
0.0489519
0.0489458
0.0489338
0.0489202
0.0488537
0.0488674
0.0488795
0.0488856
0.0488877
0.048889
0.0488885
0.0488888
0.0488883
0.0488884
0.0488881
0.0488882
0.048888
0.0488881
0.048888
0.048888
0.048888
0.048888
0.048888
0.048888
0.048888
0.048888
0.048888
0.048888
0.048888
0.048888
0.048888
0.048888
0.048888
0.048888
0.048888
0.048888
0.048888
0.048888
0.048888
0.048888
0.0488881
0.048888
0.0488882
0.0488881
0.0488884
0.0488883
0.0488888
0.0488885
0.048889
0.0488877
0.0488856
0.0488795
0.0488674
0.0488537
0.0487874
0.0488013
0.0488134
0.0488195
0.0488216
0.048823
0.0488225
0.0488227
0.0488222
0.0488223
0.048822
0.0488221
0.0488219
0.048822
0.0488219
0.048822
0.0488219
0.048822
0.0488219
0.048822
0.0488219
0.048822
0.0488219
0.048822
0.0488219
0.0488219
0.048822
0.0488219
0.048822
0.0488219
0.048822
0.0488219
0.048822
0.0488219
0.048822
0.0488219
0.048822
0.0488219
0.0488221
0.048822
0.0488223
0.0488222
0.0488227
0.0488225
0.048823
0.0488216
0.0488195
0.0488134
0.0488013
0.0487874
0.0487216
0.0487356
0.0487477
0.0487537
0.0487559
0.0487572
0.0487568
0.048757
0.0487565
0.0487566
0.0487563
0.0487564
0.0487562
0.0487563
0.0487562
0.0487563
0.0487562
0.0487563
0.0487562
0.0487563
0.0487562
0.0487563
0.0487562
0.0487563
0.0487562
0.0487562
0.0487563
0.0487562
0.0487563
0.0487562
0.0487563
0.0487562
0.0487563
0.0487562
0.0487563
0.0487562
0.0487563
0.0487562
0.0487564
0.0487563
0.0487566
0.0487565
0.048757
0.0487568
0.0487572
0.0487559
0.0487537
0.0487477
0.0487356
0.0487216
0.0486564
0.0486705
0.0486825
0.0486885
0.0486907
0.048692
0.0486915
0.0486918
0.0486913
0.0486914
0.0486911
0.0486912
0.048691
0.0486911
0.048691
0.0486911
0.048691
0.0486911
0.048691
0.0486911
0.048691
0.048691
0.048691
0.048691
0.048691
0.048691
0.048691
0.048691
0.048691
0.048691
0.0486911
0.048691
0.0486911
0.048691
0.0486911
0.048691
0.0486911
0.048691
0.0486912
0.0486911
0.0486914
0.0486913
0.0486918
0.0486915
0.048692
0.0486907
0.0486885
0.0486825
0.0486705
0.0486564
0.0485918
0.048606
0.048618
0.0486239
0.0486261
0.0486274
0.0486269
0.0486272
0.0486267
0.0486268
0.0486265
0.0486266
0.0486264
0.0486265
0.0486264
0.0486265
0.0486264
0.0486265
0.0486264
0.0486265
0.0486264
0.0486265
0.0486264
0.0486265
0.0486264
0.0486264
0.0486265
0.0486264
0.0486265
0.0486264
0.0486265
0.0486264
0.0486265
0.0486264
0.0486265
0.0486264
0.0486265
0.0486264
0.0486266
0.0486265
0.0486268
0.0486267
0.0486272
0.0486269
0.0486274
0.0486261
0.0486239
0.048618
0.048606
0.0485918
0.0485281
0.0485424
0.0485542
0.04856
0.0485622
0.0485635
0.0485631
0.0485633
0.0485628
0.0485629
0.0485626
0.0485627
0.0485626
0.0485627
0.0485625
0.0485626
0.0485626
0.0485626
0.0485626
0.0485626
0.0485626
0.0485626
0.0485626
0.0485626
0.0485626
0.0485626
0.0485626
0.0485626
0.0485626
0.0485626
0.0485626
0.0485626
0.0485626
0.0485626
0.0485626
0.0485625
0.0485627
0.0485626
0.0485627
0.0485626
0.0485629
0.0485628
0.0485633
0.0485631
0.0485635
0.0485622
0.04856
0.0485542
0.0485424
0.0485281
0.0484653
0.0484796
0.0484912
0.048497
0.0484991
0.0485005
0.0485
0.0485003
0.0484998
0.0484999
0.0484996
0.0484997
0.0484996
0.0484997
0.0484995
0.0484996
0.0484996
0.0484996
0.0484996
0.0484996
0.0484996
0.0484996
0.0484996
0.0484996
0.0484996
0.0484996
0.0484996
0.0484996
0.0484996
0.0484996
0.0484996
0.0484996
0.0484996
0.0484996
0.0484996
0.0484995
0.0484997
0.0484996
0.0484997
0.0484996
0.0484999
0.0484998
0.0485003
0.0485
0.0485005
0.0484991
0.048497
0.0484912
0.0484796
0.0484653
0.0484035
0.0484178
0.0484293
0.048435
0.0484371
0.0484384
0.048438
0.0484382
0.0484377
0.0484379
0.0484376
0.0484377
0.0484375
0.0484376
0.0484375
0.0484376
0.0484375
0.0484376
0.0484376
0.0484376
0.0484376
0.0484376
0.0484376
0.0484376
0.0484376
0.0484376
0.0484376
0.0484376
0.0484376
0.0484376
0.0484376
0.0484376
0.0484376
0.0484375
0.0484376
0.0484375
0.0484376
0.0484375
0.0484377
0.0484376
0.0484379
0.0484377
0.0484382
0.048438
0.0484384
0.0484371
0.048435
0.0484293
0.0484178
0.0484035
0.0483428
0.0483571
0.0483684
0.048374
0.048376
0.0483774
0.048377
0.0483772
0.0483768
0.0483769
0.0483766
0.0483767
0.0483766
0.0483767
0.0483766
0.0483767
0.0483766
0.0483767
0.0483766
0.0483767
0.0483766
0.0483766
0.0483766
0.0483766
0.0483766
0.0483766
0.0483766
0.0483766
0.0483766
0.0483766
0.0483767
0.0483766
0.0483767
0.0483766
0.0483767
0.0483766
0.0483767
0.0483766
0.0483767
0.0483766
0.0483769
0.0483768
0.0483772
0.048377
0.0483774
0.048376
0.048374
0.0483684
0.0483571
0.0483428
0.0482834
0.0482976
0.0483087
0.0483142
0.0483162
0.0483175
0.0483172
0.0483174
0.048317
0.0483171
0.0483168
0.0483169
0.0483168
0.0483169
0.0483168
0.0483169
0.0483168
0.0483169
0.0483168
0.0483169
0.0483169
0.0483169
0.0483169
0.0483169
0.0483169
0.0483169
0.0483169
0.0483169
0.0483169
0.0483169
0.0483169
0.0483168
0.0483169
0.0483168
0.0483169
0.0483168
0.0483169
0.0483168
0.0483169
0.0483168
0.0483171
0.048317
0.0483174
0.0483172
0.0483175
0.0483162
0.0483142
0.0483087
0.0482976
0.0482834
0.0482253
0.0482394
0.0482502
0.0482556
0.0482576
0.0482589
0.0482586
0.0482588
0.0482584
0.0482586
0.0482583
0.0482584
0.0482583
0.0482584
0.0482583
0.0482584
0.0482583
0.0482584
0.0482583
0.0482584
0.0482584
0.0482584
0.0482584
0.0482584
0.0482584
0.0482584
0.0482584
0.0482584
0.0482584
0.0482584
0.0482584
0.0482583
0.0482584
0.0482583
0.0482584
0.0482583
0.0482584
0.0482583
0.0482584
0.0482583
0.0482586
0.0482584
0.0482588
0.0482586
0.0482589
0.0482576
0.0482556
0.0482502
0.0482394
0.0482253
0.0481686
0.0481825
0.0481931
0.0481984
0.0482004
0.0482017
0.0482014
0.0482016
0.0482013
0.0482014
0.0482012
0.0482013
0.0482011
0.0482012
0.0482011
0.0482012
0.0482012
0.0482012
0.0482012
0.0482012
0.0482012
0.0482012
0.0482012
0.0482012
0.0482012
0.0482012
0.0482012
0.0482012
0.0482012
0.0482012
0.0482012
0.0482012
0.0482012
0.0482012
0.0482012
0.0482011
0.0482012
0.0482011
0.0482013
0.0482012
0.0482014
0.0482013
0.0482016
0.0482014
0.0482017
0.0482004
0.0481984
0.0481931
0.0481825
0.0481686
0.0481134
0.048127
0.0481375
0.0481426
0.0481446
0.0481459
0.0481456
0.0481459
0.0481455
0.0481457
0.0481455
0.0481456
0.0481454
0.0481455
0.0481455
0.0481455
0.0481455
0.0481456
0.0481455
0.0481456
0.0481455
0.0481456
0.0481456
0.0481456
0.0481456
0.0481456
0.0481456
0.0481456
0.0481456
0.0481455
0.0481456
0.0481455
0.0481456
0.0481455
0.0481455
0.0481455
0.0481455
0.0481454
0.0481456
0.0481455
0.0481457
0.0481455
0.0481459
0.0481456
0.0481459
0.0481446
0.0481426
0.0481375
0.048127
0.0481134
0.0480597
0.0480731
0.0480834
0.0480884
0.0480904
0.0480917
0.0480914
0.0480917
0.0480914
0.0480915
0.0480913
0.0480914
0.0480913
0.0480914
0.0480913
0.0480914
0.0480914
0.0480914
0.0480914
0.0480914
0.0480914
0.0480914
0.0480914
0.0480914
0.0480914
0.0480914
0.0480914
0.0480914
0.0480914
0.0480914
0.0480914
0.0480914
0.0480914
0.0480914
0.0480914
0.0480913
0.0480914
0.0480913
0.0480914
0.0480913
0.0480915
0.0480914
0.0480917
0.0480914
0.0480917
0.0480904
0.0480884
0.0480834
0.0480731
0.0480597
0.0480077
0.0480208
0.0480308
0.0480358
0.0480377
0.048039
0.0480388
0.0480391
0.0480388
0.0480389
0.0480388
0.0480389
0.0480388
0.0480389
0.0480388
0.0480389
0.0480389
0.0480389
0.0480389
0.0480389
0.0480389
0.0480389
0.0480389
0.0480389
0.0480389
0.0480389
0.0480389
0.0480389
0.0480389
0.0480389
0.0480389
0.0480389
0.0480389
0.0480389
0.0480389
0.0480388
0.0480389
0.0480388
0.0480389
0.0480388
0.0480389
0.0480388
0.0480391
0.0480388
0.048039
0.0480377
0.0480358
0.0480308
0.0480208
0.0480077
0.0479575
0.0479702
0.04798
0.0479849
0.0479868
0.0479881
0.0479879
0.0479882
0.047988
0.0479881
0.0479879
0.0479881
0.047988
0.0479881
0.047988
0.0479881
0.0479881
0.0479881
0.0479881
0.0479881
0.0479881
0.0479881
0.0479881
0.0479881
0.0479881
0.0479881
0.0479881
0.0479881
0.0479881
0.0479881
0.0479881
0.0479881
0.0479881
0.0479881
0.0479881
0.047988
0.0479881
0.047988
0.0479881
0.0479879
0.0479881
0.047988
0.0479882
0.0479879
0.0479881
0.0479868
0.0479849
0.04798
0.0479702
0.0479575
0.047909
0.0479213
0.047931
0.0479357
0.0479376
0.0479389
0.0479388
0.0479391
0.0479389
0.047939
0.0479389
0.047939
0.047939
0.0479391
0.047939
0.0479391
0.0479391
0.0479391
0.0479391
0.0479391
0.0479391
0.0479391
0.0479391
0.0479391
0.0479391
0.0479391
0.0479391
0.0479391
0.0479391
0.0479391
0.0479391
0.0479391
0.0479391
0.0479391
0.0479391
0.047939
0.0479391
0.047939
0.047939
0.0479389
0.047939
0.0479389
0.0479391
0.0479388
0.0479389
0.0479376
0.0479357
0.047931
0.0479213
0.047909
0.0478624
0.0478743
0.0478838
0.0478884
0.0478903
0.0478916
0.0478916
0.0478919
0.0478917
0.0478918
0.0478917
0.0478919
0.0478918
0.0478919
0.0478919
0.0478919
0.0478919
0.047892
0.047892
0.047892
0.047892
0.047892
0.047892
0.047892
0.047892
0.047892
0.047892
0.047892
0.047892
0.047892
0.047892
0.047892
0.047892
0.0478919
0.0478919
0.0478919
0.0478919
0.0478918
0.0478919
0.0478917
0.0478918
0.0478917
0.0478919
0.0478916
0.0478916
0.0478903
0.0478884
0.0478838
0.0478743
0.0478624
0.0478177
0.0478292
0.0478385
0.047843