/*--------------------------------*- C++ -*----------------------------------*\
| =========                 |                                                 |
| \\      /  F ield         | OpenFOAM: The Open Source CFD Toolbox           |
|  \\    /   O peration     | Version:  dev                                   |
|   \\  /    A nd           | Web:      www.OpenFOAM.org                      |
|    \\/     M anipulation  |                                                 |
\*---------------------------------------------------------------------------*/
FoamFile
{
    version     2.0;
    format      ascii;
    class       volScalarField;
    location    "0.1";
    object      dQ;
}
// * * * * * * * * * * * * * * * * * * * * * * * * * * * * * * * * * * * * * //

dimensions      [1 2 -3 0 0 0 0];

internalField   nonuniform List<scalar> 
8000
(
0.930253
0.93144
0.933485
0.934399
0.93453
0.934722
0.93465
0.934734
0.934665
0.934719
0.934671
0.934709
0.934676
0.9347
0.934679
0.934696
0.934681
0.934694
0.934685
0.934692
0.934686
0.93469
0.934686
0.934689
0.934688
0.934688
0.934689
0.934686
0.93469
0.934686
0.934692
0.934684
0.934694
0.934681
0.934696
0.934679
0.9347
0.934676
0.934708
0.934671
0.934719
0.934665
0.934734
0.93465
0.934721
0.93453
0.934398
0.933484
0.93144
0.930253
6.52614
6.53661
6.54593
6.55019
6.55022
6.55138
6.55075
6.55137
6.55085
6.55126
6.55091
6.5512
6.55096
6.55114
6.55099
6.55112
6.551
6.5511
6.55103
6.55109
6.55104
6.55107
6.55105
6.55107
6.55106
6.55106
6.55107
6.55105
6.55108
6.55104
6.55109
6.55103
6.5511
6.55101
6.55112
6.55099
6.55114
6.55096
6.5512
6.55091
6.55126
6.55085
6.55136
6.55075
6.55138
6.55022
6.55019
6.54593
6.53661
6.52614
4.77059
4.77578
4.77941
4.78101
4.78028
4.78105
4.78043
4.78095
4.78051
4.78087
4.78057
4.78082
4.78062
4.78078
4.78065
4.78076
4.78066
4.78074
4.78068
4.78073
4.78069
4.78072
4.7807
4.78071
4.7807
4.7807
4.78071
4.7807
4.78072
4.78069
4.78073
4.78068
4.78074
4.78066
4.78076
4.78064
4.78078
4.78062
4.78082
4.78057
4.78087
4.78051
4.78095
4.78043
4.78105
4.78028
4.78101
4.77941
4.77578
4.77059
2.98893
2.99354
2.99746
2.99902
2.99845
2.99913
2.99859
2.99905
2.99866
2.99897
2.99871
2.99893
2.99875
2.99889
2.99878
2.99887
2.99879
2.99886
2.99881
2.99885
2.99881
2.99884
2.99882
2.99883
2.99883
2.99883
2.99883
2.99882
2.99884
2.99881
2.99885
2.99881
2.99886
2.99879
2.99887
2.99878
2.99889
2.99875
2.99893
2.99871
2.99898
2.99866
2.99905
2.99859
2.99913
2.99845
2.99902
2.99746
2.99354
2.98893
1.87366
1.8769
1.88002
1.88111
1.88066
1.88116
1.88075
1.88109
1.8808
1.88103
1.88084
1.881
1.88087
1.88097
1.88089
1.88096
1.88089
1.88095
1.88091
1.88094
1.88091
1.88093
1.88092
1.88093
1.88092
1.88092
1.88093
1.88092
1.88093
1.88091
1.88094
1.88091
1.88095
1.88089
1.88096
1.88088
1.88097
1.88087
1.881
1.88084
1.88104
1.8808
1.88109
1.88075
1.88116
1.88066
1.88111
1.88002
1.8769
1.87366
1.13531
1.13741
1.13973
1.14044
1.14012
1.14046
1.14017
1.14041
1.1402
1.14037
1.14023
1.14034
1.14025
1.14032
1.14026
1.14031
1.14027
1.14031
1.14028
1.1403
1.14028
1.14029
1.14028
1.14029
1.14029
1.14029
1.14029
1.14028
1.14029
1.14028
1.1403
1.14028
1.14031
1.14027
1.14031
1.14026
1.14032
1.14025
1.14034
1.14023
1.14037
1.1402
1.14041
1.14017
1.14046
1.14012
1.14044
1.13973
1.13741
1.13531
0.684172
0.685562
0.687298
0.687791
0.687581
0.687812
0.687613
0.687775
0.687633
0.687747
0.687652
0.687731
0.687666
0.687717
0.687675
0.68771
0.687679
0.687705
0.687686
0.6877
0.687689
0.687697
0.68769
0.687695
0.687693
0.687693
0.687695
0.68769
0.687697
0.687689
0.6877
0.687686
0.687704
0.68768
0.68771
0.687675
0.687717
0.687667
0.68773
0.687653
0.687747
0.687633
0.687775
0.687613
0.687812
0.687581
0.687791
0.687298
0.685563
0.684172
0.419377
0.420327
0.421635
0.421994
0.421862
0.422022
0.421885
0.421997
0.421898
0.421977
0.421911
0.421965
0.421921
0.421955
0.421926
0.42195
0.421929
0.421947
0.421934
0.421944
0.421936
0.421942
0.421937
0.42194
0.421939
0.421939
0.42194
0.421937
0.421942
0.421936
0.421944
0.421934
0.421947
0.42193
0.421951
0.421926
0.421956
0.421921
0.421965
0.421911
0.421977
0.421898
0.421996
0.421885
0.422022
0.421862
0.421994
0.421635
0.420327
0.419377
0.263809
0.264478
0.265468
0.265738
0.265656
0.265769
0.265673
0.265751
0.265682
0.265737
0.265691
0.265728
0.265697
0.265722
0.265701
0.265718
0.265703
0.265716
0.265707
0.265714
0.265708
0.265712
0.265709
0.265711
0.26571
0.26571
0.265711
0.265709
0.265712
0.265708
0.265714
0.265707
0.265715
0.265704
0.265718
0.265701
0.265722
0.265697
0.265728
0.265691
0.265737
0.265682
0.265751
0.265673
0.265769
0.265656
0.265738
0.265468
0.264479
0.263809
0.170879
0.17137
0.17213
0.17234
0.172289
0.172371
0.172302
0.172358
0.172308
0.172348
0.172314
0.172341
0.172319
0.172337
0.172322
0.172334
0.172323
0.172332
0.172326
0.172331
0.172327
0.17233
0.172327
0.172329
0.172328
0.172328
0.172329
0.172327
0.17233
0.172327
0.172331
0.172326
0.172332
0.172323
0.172334
0.172322
0.172337
0.172319
0.172341
0.172314
0.172348
0.172308
0.172358
0.172302
0.172371
0.172289
0.17234
0.17213
0.17137
0.170879
0.113894
0.114268
0.11486
0.115028
0.114996
0.115057
0.115006
0.115048
0.11501
0.11504
0.115015
0.115035
0.115018
0.115031
0.11502
0.115029
0.115021
0.115028
0.115023
0.115027
0.115024
0.115026
0.115024
0.115025
0.115025
0.115025
0.115025
0.115024
0.115026
0.115024
0.115027
0.115023
0.115028
0.115021
0.115029
0.11502
0.115031
0.115018
0.115035
0.115015
0.11504
0.11501
0.115048
0.115006
0.115057
0.114996
0.115028
0.11486
0.114268
0.113894
0.0766577
0.0769321
0.0773669
0.077492
0.0774717
0.0775154
0.0774792
0.0775087
0.0774818
0.0775027
0.0774849
0.0774993
0.0774874
0.0774967
0.0774889
0.0774953
0.0774896
0.0774943
0.0774909
0.0774936
0.0774913
0.0774929
0.0774916
0.0774925
0.0774921
0.0774921
0.0774925
0.0774916
0.0774929
0.0774913
0.0774936
0.0774908
0.0774943
0.0774897
0.0774953
0.0774888
0.0774967
0.0774874
0.0774993
0.077485
0.0775028
0.0774817
0.0775087
0.0774792
0.0775153
0.0774717
0.077492
0.0773669
0.0769322
0.0766577
0.0534536
0.0536761
0.0540242
0.0541266
0.0541125
0.0541468
0.0541184
0.0541415
0.0541202
0.0541367
0.0541227
0.054134
0.0541246
0.0541319
0.0541258
0.0541308
0.0541264
0.05413
0.0541273
0.0541295
0.0541277
0.0541289
0.0541279
0.0541286
0.0541283
0.0541283
0.0541286
0.0541279
0.054129
0.0541277
0.0541294
0.0541273
0.05413
0.0541264
0.0541308
0.0541257
0.0541319
0.0541246
0.0541339
0.0541227
0.0541367
0.0541202
0.0541415
0.0541183
0.0541468
0.0541125
0.0541266
0.0540242
0.0536761
0.0534536
0.0379338
0.0380564
0.0382848
0.0383532
0.0383513
0.0383732
0.0383569
0.0383709
0.038358
0.0383679
0.0383594
0.0383661
0.0383604
0.0383647
0.038361
0.038364
0.0383613
0.0383635
0.0383619
0.0383632
0.0383621
0.0383629
0.0383622
0.0383626
0.0383624
0.0383624
0.0383626
0.0383622
0.0383629
0.0383621
0.0383632
0.0383619
0.0383635
0.0383614
0.0383641
0.038361
0.0383648
0.0383604
0.0383661
0.0383594
0.0383679
0.038358
0.0383709
0.0383569
0.0383732
0.0383513
0.0383532
0.0382848
0.0380565
0.0379338
0.0270627
0.0271553
0.0273254
0.0273771
0.0273763
0.0273925
0.0273805
0.0273908
0.0273812
0.0273885
0.0273822
0.0273872
0.027383
0.0273862
0.0273834
0.0273856
0.0273836
0.0273853
0.027384
0.027385
0.0273842
0.0273848
0.0273843
0.0273846
0.0273845
0.0273845
0.0273846
0.0273843
0.0273848
0.0273842
0.027385
0.027384
0.0273853
0.0273837
0.0273856
0.0273834
0.0273862
0.027383
0.0273872
0.0273822
0.0273885
0.0273812
0.0273908
0.0273805
0.0273925
0.0273763
0.0273771
0.0273254
0.0271553
0.0270627
0.0197961
0.0198705
0.0200041
0.0200452
0.0200451
0.0200577
0.0200483
0.0200563
0.0200488
0.0200545
0.0200496
0.0200535
0.0200502
0.0200527
0.0200505
0.0200523
0.0200507
0.020052
0.0200511
0.0200518
0.0200512
0.0200516
0.0200512
0.0200515
0.0200514
0.0200514
0.0200515
0.0200513
0.0200516
0.0200512
0.0200518
0.020051
0.020052
0.0200507
0.0200523
0.0200505
0.0200527
0.0200502
0.0200535
0.0200496
0.0200546
0.0200488
0.0200563
0.0200483
0.0200577
0.0200451
0.0200452
0.0200041
0.0198705
0.0197961
0.0144821
0.014549
0.0146619
0.0147
0.0147023
0.0147131
0.0147056
0.0147121
0.0147059
0.0147105
0.0147064
0.0147095
0.0147068
0.0147088
0.0147071
0.0147085
0.0147072
0.0147082
0.0147074
0.014708
0.0147075
0.0147079
0.0147076
0.0147078
0.0147077
0.0147077
0.0147078
0.0147076
0.0147079
0.0147075
0.014708
0.0147074
0.0147082
0.0147072
0.0147085
0.0147071
0.0147088
0.0147068
0.0147095
0.0147064
0.0147105
0.0147059
0.0147121
0.0147056
0.0147131
0.0147022
0.0147
0.0146619
0.014549
0.0144821
0.0107851
0.0108402
0.0109296
0.0109603
0.0109625
0.0109711
0.0109652
0.0109703
0.0109654
0.010969
0.0109658
0.0109682
0.0109661
0.0109677
0.0109663
0.0109674
0.0109664
0.0109672
0.0109666
0.010967
0.0109666
0.0109669
0.0109667
0.0109668
0.0109668
0.0109668
0.0109668
0.0109667
0.0109669
0.0109666
0.010967
0.0109666
0.0109672
0.0109664
0.0109674
0.0109663
0.0109677
0.0109661
0.0109682
0.0109658
0.010969
0.0109654
0.0109703
0.0109652
0.0109711
0.0109625
0.0109603
0.0109296
0.0108402
0.0107851
0.00798583
0.00803743
0.00811547
0.00814351
0.00814512
0.00815271
0.00814724
0.00815181
0.00814738
0.00815063
0.00814776
0.00814998
0.00814807
0.00814951
0.00814826
0.00814926
0.00814836
0.0081491
0.00814854
0.00814898
0.00814862
0.00814887
0.00814866
0.00814879
0.00814873
0.00814873
0.00814879
0.00814866
0.00814887
0.00814862
0.00814898
0.00814854
0.0081491
0.00814836
0.00814927
0.00814825
0.00814952
0.00814807
0.00814997
0.00814777
0.00815064
0.00814738
0.00815181
0.00814724
0.0081527
0.00814511
0.00814351
0.00811547
0.00803743
0.00798583
0.00591184
0.0059553
0.00601596
0.00603804
0.00603935
0.00604522
0.00604092
0.00604448
0.00604101
0.00604355
0.00604131
0.00604305
0.00604156
0.00604269
0.00604171
0.0060425
0.00604179
0.00604237
0.00604194
0.00604228
0.00604199
0.00604219
0.00604203
0.00604213
0.00604209
0.00604208
0.00604213
0.00604203
0.00604219
0.00604199
0.00604228
0.00604193
0.00604237
0.00604179
0.0060425
0.00604171
0.00604269
0.00604156
0.00604304
0.00604132
0.00604355
0.006041
0.00604448
0.00604092
0.00604521
0.00603935
0.00603804
0.00601596
0.00595531
0.00591184
0.00441283
0.00445193
0.00450094
0.00451904
0.00452009
0.00452484
0.00452128
0.00452419
0.00452135
0.00452343
0.0045216
0.00452303
0.00452182
0.00452274
0.00452194
0.00452259
0.00452201
0.00452249
0.00452213
0.00452241
0.00452218
0.00452234
0.00452221
0.00452229
0.00452226
0.00452226
0.00452229
0.00452221
0.00452235
0.00452218
0.00452241
0.00452213
0.00452249
0.00452202
0.00452259
0.00452194
0.00452274
0.00452182
0.00452302
0.00452161
0.00452343
0.00452134
0.00452419
0.00452128
0.00452483
0.00452009
0.00451904
0.00450094
0.00445194
0.00441283
0.00327715
0.00331377
0.00335365
0.00336854
0.00336931
0.00337316
0.00337017
0.00337258
0.00337022
0.00337196
0.00337046
0.00337164
0.00337064
0.00337141
0.00337076
0.0033713
0.00337082
0.00337122
0.00337092
0.00337115
0.00337096
0.0033711
0.00337099
0.00337106
0.00337103
0.00337102
0.00337106
0.00337099
0.0033711
0.00337096
0.00337115
0.00337092
0.00337121
0.00337082
0.0033713
0.00337076
0.00337142
0.00337064
0.00337164
0.00337046
0.00337196
0.00337022
0.00337258
0.00337017
0.00337316
0.00336931
0.00336854
0.00335365
0.00331377
0.00327716
0.0024101
0.00242068
0.00245008
0.00246143
0.00246249
0.0024655
0.00246332
0.0024651
0.00246331
0.00246457
0.00246342
0.00246428
0.00246352
0.00246408
0.00246358
0.00246398
0.00246362
0.00246391
0.00246369
0.00246386
0.00246371
0.00246381
0.00246373
0.00246378
0.00246376
0.00246376
0.00246378
0.00246373
0.00246381
0.00246371
0.00246386
0.00246368
0.00246391
0.00246362
0.00246398
0.00246358
0.00246408
0.00246352
0.00246428
0.00246343
0.00246457
0.0024633
0.00246509
0.00246332
0.00246549
0.00246249
0.00246143
0.00245008
0.00242068
0.0024101
0.00174429
0.00175371
0.00177729
0.00178647
0.00178726
0.00178968
0.00178786
0.00178932
0.00178785
0.00178889
0.00178795
0.00178867
0.00178804
0.00178851
0.0017881
0.00178842
0.00178813
0.00178837
0.00178818
0.00178833
0.00178821
0.00178829
0.00178822
0.00178826
0.00178824
0.00178824
0.00178826
0.00178822
0.00178829
0.00178821
0.00178833
0.00178818
0.00178837
0.00178813
0.00178842
0.0017881
0.00178851
0.00178804
0.00178866
0.00178796
0.0017889
0.00178784
0.00178932
0.00178786
0.00178968
0.00178726
0.00178647
0.00177729
0.00175371
0.00174429
0.00121094
0.00121952
0.00123922
0.0012472
0.00124794
0.00125
0.00124843
0.00124966
0.0012484
0.00124928
0.00124848
0.00124909
0.00124856
0.00124895
0.0012486
0.00124888
0.00124863
0.00124884
0.00124868
0.0012488
0.0012487
0.00124877
0.00124871
0.00124875
0.00124873
0.00124873
0.00124875
0.00124871
0.00124877
0.0012487
0.0012488
0.00124868
0.00124884
0.00124863
0.00124888
0.0012486
0.00124895
0.00124856
0.00124908
0.00124849
0.00124928
0.0012484
0.00124966
0.00124843
0.00125
0.00124794
0.0012472
0.00123922
0.00121952
0.00121094
0.00079729
0.000804443
0.000819859
0.000826141
0.000826633
0.000828248
0.000826947
0.000827944
0.000826923
0.000827644
0.000827004
0.000827495
0.000827072
0.000827393
0.000827114
0.00082734
0.000827137
0.000827306
0.000827179
0.000827278
0.000827196
0.000827254
0.000827206
0.000827236
0.000827223
0.000827223
0.000827236
0.000827206
0.000827255
0.000827196
0.000827278
0.000827178
0.000827305
0.000827138
0.000827341
0.000827113
0.000827394
0.000827072
0.000827494
0.000827006
0.000827645
0.000826921
0.000827944
0.000826947
0.000828245
0.000826632
0.000826141
0.000819858
0.000804443
0.00079729
0.000475141
0.00048108
0.000493048
0.000497937
0.000498222
0.000499475
0.000498394
0.000499202
0.000498377
0.000498968
0.000498455
0.000498858
0.000498519
0.000498782
0.000498558
0.000498743
0.00049858
0.000498717
0.000498615
0.000498696
0.000498629
0.000498677
0.000498638
0.000498663
0.000498652
0.000498652
0.000498663
0.000498638
0.000498678
0.00049863
0.000498696
0.000498614
0.000498717
0.00049858
0.000498744
0.000498557
0.000498783
0.000498519
0.000498857
0.000498457
0.000498969
0.000498376
0.000499202
0.000498394
0.000499472
0.000498221
0.000497937
0.000493047
0.000481081
0.000475142
0.000223534
0.000228388
0.000237603
0.000241343
0.000241452
0.000242412
0.00024151
0.000242167
0.000241502
0.000241989
0.000241579
0.000241911
0.00024164
0.000241857
0.000241677
0.00024183
0.000241698
0.000241811
0.000241728
0.000241795
0.000241741
0.00024178
0.000241748
0.000241769
0.00024176
0.00024176
0.000241769
0.000241749
0.000241781
0.000241741
0.000241795
0.000241727
0.000241811
0.000241699
0.000241831
0.000241677
0.000241858
0.00024164
0.00024191
0.00024158
0.000241989
0.000241501
0.000242167
0.00024151
0.00024241
0.000241451
0.000241343
0.000237603
0.000228388
0.000223534
2.66403e-05
3.05299e-05
3.75545e-05
4.03394e-05
4.02996e-05
4.1021e-05
4.02669e-05
4.08013e-05
4.02673e-05
4.06705e-05
4.03449e-05
4.06207e-05
4.04051e-05
4.05852e-05
4.04414e-05
4.05675e-05
4.04617e-05
4.05546e-05
4.04877e-05
4.05429e-05
4.04993e-05
4.05316e-05
4.0506e-05
4.05228e-05
4.05156e-05
4.05155e-05
4.05229e-05
4.05061e-05
4.0532e-05
4.04994e-05
4.0543e-05
4.04874e-05
4.05545e-05
4.04622e-05
4.05682e-05
4.04412e-05
4.05859e-05
4.04051e-05
4.06201e-05
4.0346e-05
4.06712e-05
4.02663e-05
4.08012e-05
4.02669e-05
4.10196e-05
4.02992e-05
4.03393e-05
3.75541e-05
3.05301e-05
2.66406e-05
-0.00012757
-0.000124524
-0.000119259
-0.000117262
-0.000117426
-0.000116899
-0.000117531
-0.000117095
-0.000117521
-0.000117185
-0.000117442
-0.000117211
-0.000117381
-0.000117231
-0.000117345
-0.000117241
-0.000117325
-0.000117248
-0.000117302
-0.000117257
-0.000117292
-0.000117265
-0.000117286
-0.000117272
-0.000117278
-0.000117278
-0.000117272
-0.000117285
-0.000117265
-0.000117292
-0.000117256
-0.000117302
-0.000117248
-0.000117325
-0.00011724
-0.000117345
-0.000117231
-0.000117381
-0.000117212
-0.000117441
-0.000117185
-0.000117522
-0.000117095
-0.000117531
-0.0001169
-0.000117427
-0.000117262
-0.000119259
-0.000124524
-0.00012757
-0.000248316
-0.000246002
-0.000242156
-0.000240806
-0.000241074
-0.000240704
-0.000241235
-0.000240878
-0.000241215
-0.000240933
-0.000241132
-0.000240939
-0.000241071
-0.000240945
-0.000241034
-0.000240947
-0.000241014
-0.000240951
-0.000240994
-0.000240956
-0.000240984
-0.000240962
-0.000240978
-0.000240967
-0.000240972
-0.000240972
-0.000240967
-0.000240978
-0.000240962
-0.000240984
-0.000240956
-0.000240994
-0.000240951
-0.000241014
-0.000240947
-0.000241034
-0.000240944
-0.000241071
-0.000240939
-0.000241131
-0.000240933
-0.000241216
-0.000240879
-0.000241235
-0.000240705
-0.000241074
-0.000240806
-0.000242156
-0.000246002
-0.000248316
-0.000342711
-0.000341026
-0.000338328
-0.000337508
-0.00033786
-0.000337618
-0.000338065
-0.000337772
-0.000338034
-0.000337795
-0.000337947
-0.000337783
-0.000337884
-0.000337778
-0.000337847
-0.000337774
-0.000337826
-0.000337774
-0.000337808
-0.000337776
-0.000337798
-0.00033778
-0.000337793
-0.000337784
-0.000337787
-0.000337787
-0.000337784
-0.000337793
-0.00033778
-0.000337798
-0.000337776
-0.000337808
-0.000337774
-0.000337826
-0.000337773
-0.000337847
-0.000337777
-0.000337884
-0.000337783
-0.000337946
-0.000337795
-0.000338035
-0.000337772
-0.000338065
-0.000337619
-0.00033786
-0.000337508
-0.000338328
-0.000341026
-0.00034271
-0.000416275
-0.000415131
-0.00041336
-0.000412972
-0.000413392
-0.000413254
-0.00041363
-0.000413387
-0.000413588
-0.000413383
-0.000413495
-0.000413355
-0.00041343
-0.00041334
-0.000413392
-0.00041333
-0.000413371
-0.000413327
-0.000413353
-0.000413327
-0.000413345
-0.000413329
-0.00041334
-0.000413332
-0.000413335
-0.000413335
-0.000413332
-0.00041334
-0.000413329
-0.000413345
-0.000413327
-0.000413353
-0.000413327
-0.00041337
-0.00041333
-0.000413392
-0.000413339
-0.00041343
-0.000413355
-0.000413495
-0.000413383
-0.000413588
-0.000413387
-0.00041363
-0.000413255
-0.000413392
-0.000412972
-0.00041336
-0.000415131
-0.000416275
-0.000473316
-0.000472635
-0.000471612
-0.000471574
-0.00047205
-0.000471994
-0.000472309
-0.000472107
-0.000472256
-0.000472078
-0.000472158
-0.000472036
-0.00047209
-0.000472012
-0.00047205
-0.000471998
-0.000472028
-0.000471991
-0.000472012
-0.00047199
-0.000472003
-0.000471991
-0.000471999
-0.000471992
-0.000471994
-0.000471994
-0.000471992
-0.000471999
-0.00047199
-0.000472003
-0.00047199
-0.000472012
-0.000471991
-0.000472028
-0.000471997
-0.00047205
-0.000472012
-0.00047209
-0.000472036
-0.000472157
-0.000472078
-0.000472256
-0.000472107
-0.000472309
-0.000471995
-0.000472049
-0.000471574
-0.000471612
-0.000472634
-0.000473316
-0.00051721
-0.000516925
-0.000516503
-0.000516749
-0.000517266
-0.000517277
-0.00051754
-0.00051737
-0.000517474
-0.000517319
-0.00051737
-0.000517264
-0.000517299
-0.000517231
-0.000517258
-0.000517213
-0.000517235
-0.000517204
-0.000517219
-0.000517201
-0.000517211
-0.000517201
-0.000517207
-0.000517201
-0.000517203
-0.000517203
-0.000517201
-0.000517207
-0.0005172
-0.000517211
-0.000517201
-0.000517219
-0.000517204
-0.000517235
-0.000517213
-0.000517258
-0.000517231
-0.000517299
-0.000517264
-0.00051737
-0.000517319
-0.000517475
-0.00051737
-0.00051754
-0.000517277
-0.000517266
-0.000516749
-0.000516503
-0.000516925
-0.00051721
-0.000550614
-0.000550669
-0.000550727
-0.000551199
-0.000551748
-0.000551811
-0.000552029
-0.000551883
-0.000551951
-0.000551812
-0.00055184
-0.000551745
-0.000551766
-0.000551706
-0.000551722
-0.000551683
-0.000551699
-0.000551672
-0.000551683
-0.000551668
-0.000551675
-0.000551666
-0.000551671
-0.000551666
-0.000551667
-0.000551667
-0.000551666
-0.000551671
-0.000551666
-0.000551675
-0.000551668
-0.000551683
-0.000551672
-0.000551699
-0.000551683
-0.000551722
-0.000551706
-0.000551766
-0.000551745
-0.00055184
-0.000551812
-0.000551951
-0.000551883
-0.000552029
-0.000551811
-0.000551748
-0.000551198
-0.000550727
-0.000550669
-0.000550614
-0.000575624
-0.000575975
-0.000576411
-0.000577061
-0.000577633
-0.000577736
-0.000577915
-0.000577787
-0.000577823
-0.000577698
-0.000577706
-0.00057762
-0.000577628
-0.000577574
-0.000577582
-0.000577548
-0.000577558
-0.000577535
-0.000577542
-0.000577529
-0.000577534
-0.000577527
-0.00057753
-0.000577526
-0.000577527
-0.000577527
-0.000577526
-0.00057753
-0.000577526
-0.000577534
-0.000577529
-0.000577542
-0.000577535
-0.000577558
-0.000577548
-0.000577582
-0.000577574
-0.000577628
-0.00057762
-0.000577706
-0.000577698
-0.000577824
-0.000577787
-0.000577914
-0.000577736
-0.000577633
-0.000577061
-0.00057641
-0.000575974
-0.000575624
-0.0005939
-0.000594512
-0.00059524
-0.000596031
-0.000596616
-0.000596748
-0.000596893
-0.000596779
-0.000596788
-0.000596672
-0.000596663
-0.000596585
-0.000596581
-0.000596532
-0.000596534
-0.000596503
-0.000596508
-0.000596488
-0.000596492
-0.000596481
-0.000596484
-0.000596478
-0.00059648
-0.000596476
-0.000596477
-0.000596477
-0.000596476
-0.00059648
-0.000596478
-0.000596484
-0.000596481
-0.000596492
-0.000596488
-0.000596508
-0.000596503
-0.000596534
-0.000596532
-0.000596581
-0.000596585
-0.000596663
-0.000596672
-0.000596788
-0.000596779
-0.000596893
-0.000596749
-0.000596616
-0.00059603
-0.00059524
-0.000594512
-0.000593899
-0.000606756
-0.000607611
-0.000608555
-0.000609453
-0.000610045
-0.000610198
-0.000610311
-0.000610207
-0.000610193
-0.000610083
-0.00061006
-0.000609986
-0.000609974
-0.000609928
-0.000609924
-0.000609896
-0.000609897
-0.000609879
-0.000609881
-0.000609871
-0.000609873
-0.000609867
-0.000609868
-0.000609865
-0.000609866
-0.000609866
-0.000609865
-0.000609868
-0.000609867
-0.000609873
-0.000609871
-0.000609881
-0.000609879
-0.000609897
-0.000609896
-0.000609924
-0.000609928
-0.000609974
-0.000609986
-0.00061006
-0.000610083
-0.000610193
-0.000610207
-0.000610311
-0.000610198
-0.000610045
-0.000609453
-0.000608554
-0.000607611
-0.000606756
-0.000615261
-0.000616309
-0.000617423
-0.000618403
-0.000618994
-0.000619161
-0.000619246
-0.000619148
-0.000619113
-0.000619008
-0.000618972
-0.000618901
-0.00061888
-0.000618838
-0.000618828
-0.000618802
-0.000618799
-0.000618784
-0.000618783
-0.000618775
-0.000618775
-0.00061877
-0.00061877
-0.000618768
-0.000618768
-0.000618768
-0.000618768
-0.00061877
-0.00061877
-0.000618775
-0.000618775
-0.000618783
-0.000618784
-0.000618799
-0.000618802
-0.000618828
-0.000618838
-0.00061888
-0.000618901
-0.000618971
-0.000619008
-0.000619113
-0.000619148
-0.000619246
-0.000619161
-0.000618993
-0.000618403
-0.000617423
-0.000616308
-0.000615261
-0.000620248
-0.000621445
-0.000622691
-0.00062373
-0.000624313
-0.000624488
-0.000624548
-0.000624453
-0.0006244
-0.000624298
-0.000624251
-0.000624183
-0.000624155
-0.000624115
-0.0006241
-0.000624076
-0.00062407
-0.000624057
-0.000624054
-0.000624047
-0.000624046
-0.000624041
-0.000624041
-0.000624039
-0.000624039
-0.000624039
-0.000624039
-0.000624041
-0.000624041
-0.000624045
-0.000624046
-0.000624054
-0.000624057
-0.00062407
-0.000624076
-0.0006241
-0.000624115
-0.000624155
-0.000624183
-0.000624251
-0.000624298
-0.0006244
-0.000624453
-0.000624548
-0.000624488
-0.000624313
-0.00062373
-0.000622691
-0.000621445
-0.000620248
-0.000622382
-0.00062369
-0.000625036
-0.000626113
-0.000626682
-0.00062686
-0.000626896
-0.000626802
-0.000626734
-0.000626633
-0.000626577
-0.000626511
-0.000626477
-0.000626438
-0.00062642
-0.000626397
-0.000626389
-0.000626376
-0.000626373
-0.000626366
-0.000626364
-0.00062636
-0.000626359
-0.000626357
-0.000626357
-0.000626357
-0.000626357
-0.000626359
-0.00062636
-0.000626364
-0.000626365
-0.000626372
-0.000626376
-0.000626389
-0.000626397
-0.00062642
-0.000626438
-0.000626477
-0.000626511
-0.000626577
-0.000626633
-0.000626734
-0.000626802
-0.000626895
-0.00062686
-0.000626682
-0.000626113
-0.000625036
-0.00062369
-0.000622381
-0.000622198
-0.000623586
-0.000625009
-0.000626107
-0.000626657
-0.000626833
-0.000626847
-0.000626753
-0.00062667
-0.00062657
-0.000626505
-0.00062644
-0.000626401
-0.000626363
-0.000626341
-0.00062632
-0.000626309
-0.000626297
-0.000626292
-0.000626286
-0.000626283
-0.000626279
-0.000626278
-0.000626277
-0.000626276
-0.000626276
-0.000626276
-0.000626278
-0.000626279
-0.000626283
-0.000626286
-0.000626292
-0.000626297
-0.000626309
-0.00062632
-0.000626341
-0.000626363
-0.000626401
-0.00062644
-0.000626505
-0.00062657
-0.00062667
-0.000626753
-0.000626847
-0.000626833
-0.000626657
-0.000626107
-0.000625009
-0.000623585
-0.000622197
-0.000620122
-0.000621559
-0.000623046
-0.000624146
-0.000624675
-0.000624845
-0.000624837
-0.00062474
-0.000624644
-0.000624543
-0.000624471
-0.000624406
-0.000624362
-0.000624324
-0.0006243
-0.000624279
-0.000624267
-0.000624256
-0.000624249
-0.000624243
-0.00062424
-0.000624236
-0.000624235
-0.000624233
-0.000624233
-0.000624233
-0.000624233
-0.000624235
-0.000624236
-0.00062424
-0.000624243
-0.000624249
-0.000624255
-0.000624267
-0.000624279
-0.0006243
-0.000624324
-0.000624362
-0.000624406
-0.000624471
-0.000624543
-0.000624644
-0.00062474
-0.000624837
-0.000624844
-0.000624675
-0.000624146
-0.000623045
-0.000621558
-0.000620121
-0.000616496
-0.000617971
-0.000619476
-0.00062058
-0.000621085
-0.000621244
-0.000621217
-0.000621115
-0.000621007
-0.000620904
-0.000620825
-0.000620759
-0.000620711
-0.000620674
-0.000620647
-0.000620626
-0.000620612
-0.000620601
-0.000620594
-0.000620588
-0.000620584
-0.000620581
-0.000620579
-0.000620578
-0.000620577
-0.000620577
-0.000620578
-0.000620579
-0.000620581
-0.000620584
-0.000620588
-0.000620594
-0.000620601
-0.000620612
-0.000620626
-0.000620647
-0.000620674
-0.000620711
-0.000620759
-0.000620825
-0.000620904
-0.000621007
-0.000621115
-0.000621216
-0.000621244
-0.000621085
-0.000620579
-0.000619475
-0.000617971
-0.000616495
-0.000611591
-0.000613085
-0.000614594
-0.00061569
-0.000616169
-0.000616314
-0.000616266
-0.000616159
-0.00061604
-0.000615935
-0.000615849
-0.000615782
-0.00061573
-0.000615692
-0.000615663
-0.000615643
-0.000615627
-0.000615616
-0.000615608
-0.000615603
-0.000615598
-0.000615595
-0.000615593
-0.000615592
-0.000615591
-0.000615591
-0.000615592
-0.000615593
-0.000615595
-0.000615598
-0.000615603
-0.000615608
-0.000615616
-0.000615627
-0.000615642
-0.000615663
-0.000615692
-0.00061573
-0.000615782
-0.000615849
-0.000615935
-0.00061604
-0.000616158
-0.000616266
-0.000616314
-0.000616168
-0.000615689
-0.000614593
-0.000613084
-0.00061159
-0.000605626
-0.000607122
-0.000608623
-0.000609701
-0.000610151
-0.000610279
-0.000610213
-0.000610098
-0.000609968
-0.00060986
-0.000609768
-0.0006097
-0.000609645
-0.000609606
-0.000609575
-0.000609554
-0.000609537
-0.000609527
-0.000609518
-0.000609513
-0.000609508
-0.000609505
-0.000609502
-0.000609501
-0.0006095
-0.0006095
-0.000609501
-0.000609502
-0.000609504
-0.000609507
-0.000609512
-0.000609518
-0.000609527
-0.000609537
-0.000609554
-0.000609575
-0.000609606
-0.000609645
-0.0006097
-0.000609768
-0.00060986
-0.000609968
-0.000610097
-0.000610212
-0.000610279
-0.000610151
-0.000609701
-0.000608622
-0.000607121
-0.000605625
-0.000598775
-0.000600261
-0.000601743
-0.000602795
-0.000603213
-0.000603322
-0.000603236
-0.000603113
-0.000602974
-0.000602862
-0.000602764
-0.000602694
-0.000602636
-0.000602596
-0.000602563
-0.000602542
-0.000602524
-0.000602514
-0.000602504
-0.000602499
-0.000602493
-0.00060249
-0.000602488
-0.000602486
-0.000602486
-0.000602486
-0.000602486
-0.000602488
-0.00060249
-0.000602493
-0.000602499
-0.000602504
-0.000602514
-0.000602524
-0.000602542
-0.000602563
-0.000602596
-0.000602636
-0.000602694
-0.000602764
-0.000602862
-0.000602974
-0.000603113
-0.000603236
-0.000603322
-0.000603213
-0.000602795
-0.000601742
-0.00060026
-0.000598775
-0.00059118
-0.000592644
-0.000594097
-0.000595116
-0.0005955
-0.000595588
-0.000595482
-0.00059535
-0.000595202
-0.000595085
-0.000594982
-0.00059491
-0.000594849
-0.000594808
-0.000594773
-0.000594752
-0.000594733
-0.000594722
-0.000594712
-0.000594707
-0.000594701
-0.000594698
-0.000594695
-0.000594694
-0.000594693
-0.000594693
-0.000594694
-0.000594695
-0.000594698
-0.000594701
-0.000594706
-0.000594712
-0.000594722
-0.000594733
-0.000594752
-0.000594773
-0.000594808
-0.000594849
-0.00059491
-0.000594982
-0.000595085
-0.000595201
-0.00059535
-0.000595482
-0.000595587
-0.000595499
-0.000595116
-0.000594096
-0.000592643
-0.000591179
-0.000582951
-0.000584385
-0.000585801
-0.000586781
-0.000587127
-0.000587192
-0.000587067
-0.000586925
-0.000586767
-0.000586646
-0.000586538
-0.000586464
-0.000586399
-0.000586358
-0.000586321
-0.000586299
-0.000586279
-0.000586268
-0.000586258
-0.000586252
-0.000586246
-0.000586243
-0.00058624
-0.000586239
-0.000586238
-0.000586238
-0.000586239
-0.00058624
-0.000586243
-0.000586246
-0.000586252
-0.000586258
-0.000586268
-0.000586279
-0.000586299
-0.000586321
-0.000586358
-0.000586399
-0.000586464
-0.000586538
-0.000586646
-0.000586767
-0.000586925
-0.000587067
-0.000587191
-0.000587127
-0.000586781
-0.0005858
-0.000584384
-0.00058295
-0.000574178
-0.000575575
-0.000576945
-0.000577882
-0.000578189
-0.000578228
-0.000578084
-0.000577932
-0.000577764
-0.000577638
-0.000577525
-0.000577448
-0.000577381
-0.000577338
-0.0005773
-0.000577277
-0.000577256
-0.000577246
-0.000577234
-0.000577229
-0.000577222
-0.000577219
-0.000577216
-0.000577215
-0.000577214
-0.000577214
-0.000577215
-0.000577216
-0.000577219
-0.000577222
-0.000577228
-0.000577234
-0.000577245
-0.000577256
-0.000577277
-0.0005773
-0.000577338
-0.000577381
-0.000577448
-0.000577525
-0.000577638
-0.000577764
-0.000577931
-0.000578084
-0.000578227
-0.000578188
-0.000577881
-0.000576944
-0.000575575
-0.000574177
-0.000564932
-0.000566288
-0.000567603
-0.000568492
-0.000568757
-0.00056877
-0.000568607
-0.000568443
-0.000568266
-0.000568135
-0.000568017
-0.000567937
-0.000567868
-0.000567823
-0.000567784
-0.00056776
-0.000567739
-0.000567727
-0.000567715
-0.00056771
-0.000567703
-0.0005677
-0.000567697
-0.000567696
-0.000567695
-0.000567695
-0.000567695
-0.000567697
-0.0005677
-0.000567703
-0.00056771
-0.000567715
-0.000567727
-0.000567739
-0.00056776
-0.000567784
-0.000567823
-0.000567868
-0.000567937
-0.000568017
-0.000568135
-0.000568266
-0.000568442
-0.000568606
-0.000568769
-0.000568757
-0.000568492
-0.000567603
-0.000566288
-0.000564931
-0.000555267
-0.000556583
-0.000557835