/*--------------------------------*- C++ -*----------------------------------*\
| =========                 |                                                 |
| \\      /  F ield         | OpenFOAM: The Open Source CFD Toolbox           |
|  \\    /   O peration     | Version:  dev                                   |
|   \\  /    A nd           | Web:      www.OpenFOAM.org                      |
|    \\/     M anipulation  |                                                 |
\*---------------------------------------------------------------------------*/
FoamFile
{
    version     2.0;
    format      ascii;
    class       volScalarField;
    location    "0.1";
    object      H2;
}
// * * * * * * * * * * * * * * * * * * * * * * * * * * * * * * * * * * * * * //

dimensions      [0 0 0 0 0 0 0];

internalField   nonuniform List<scalar> 
8000
(
0.00190678
0.00190742
0.00190836
0.00190878
0.00190898
0.00190901
0.00190904
0.00190903
0.00190905
0.00190903
0.00190904
0.00190903
0.00190904
0.00190903
0.00190904
0.00190903
0.00190904
0.00190903
0.00190904
0.00190903
0.00190904
0.00190903
0.00190903
0.00190903
0.00190903
0.00190903
0.00190903
0.00190903
0.00190903
0.00190904
0.00190903
0.00190904
0.00190903
0.00190904
0.00190903
0.00190904
0.00190903
0.00190904
0.00190903
0.00190904
0.00190903
0.00190905
0.00190903
0.00190904
0.00190901
0.00190898
0.00190878
0.00190836
0.00190742
0.00190678
0.00396481
0.00396584
0.00396745
0.00396818
0.00396855
0.00396859
0.00396867
0.00396863
0.00396867
0.00396864
0.00396866
0.00396864
0.00396865
0.00396864
0.00396865
0.00396864
0.00396865
0.00396864
0.00396865
0.00396864
0.00396865
0.00396864
0.00396864
0.00396864
0.00396864
0.00396864
0.00396864
0.00396864
0.00396864
0.00396865
0.00396864
0.00396865
0.00396864
0.00396865
0.00396864
0.00396865
0.00396864
0.00396865
0.00396864
0.00396866
0.00396864
0.00396867
0.00396863
0.00396867
0.00396859
0.00396855
0.00396818
0.00396745
0.00396584
0.00396481
0.00537752
0.00537806
0.00537892
0.00537939
0.0053797
0.00537969
0.00537978
0.00537974
0.00537978
0.00537974
0.00537977
0.00537975
0.00537977
0.00537975
0.00537976
0.00537975
0.00537976
0.00537975
0.00537976
0.00537975
0.00537976
0.00537975
0.00537976
0.00537976
0.00537976
0.00537976
0.00537976
0.00537976
0.00537975
0.00537976
0.00537975
0.00537976
0.00537975
0.00537976
0.00537975
0.00537976
0.00537975
0.00537977
0.00537975
0.00537977
0.00537974
0.00537978
0.00537974
0.00537978
0.00537969
0.0053797
0.00537939
0.00537892
0.00537806
0.00537752
0.00613526
0.00613536
0.00613551
0.00613573
0.00613597
0.00613593
0.00613602
0.00613596
0.00613602
0.00613597
0.00613601
0.00613598
0.006136
0.00613598
0.006136
0.00613599
0.006136
0.00613599
0.006136
0.00613599
0.00613599
0.00613599
0.00613599
0.00613599
0.00613599
0.00613599
0.00613599
0.00613599
0.00613599
0.00613599
0.00613599
0.006136
0.00613599
0.006136
0.00613599
0.006136
0.00613598
0.006136
0.00613598
0.00613601
0.00613597
0.00613602
0.00613596
0.00613602
0.00613593
0.00613597
0.00613573
0.00613551
0.00613536
0.00613526
0.00656077
0.00656063
0.00656032
0.00656039
0.00656058
0.00656052
0.00656062
0.00656056
0.00656062
0.00656057
0.00656061
0.00656058
0.0065606
0.00656058
0.0065606
0.00656059
0.0065606
0.00656059
0.0065606
0.00656059
0.00656059
0.00656059
0.00656059
0.00656059
0.00656059
0.00656059
0.00656059
0.00656059
0.00656059
0.00656059
0.00656059
0.0065606
0.00656059
0.0065606
0.00656059
0.0065606
0.00656058
0.0065606
0.00656058
0.00656061
0.00656057
0.00656062
0.00656056
0.00656062
0.00656052
0.00656058
0.00656039
0.00656032
0.00656063
0.00656077
0.0068334
0.0068331
0.00683248
0.00683245
0.00683261
0.00683254
0.00683264
0.00683257
0.00683264
0.00683259
0.00683263
0.0068326
0.00683263
0.0068326
0.00683262
0.00683261
0.00683262
0.00683261
0.00683262
0.00683261
0.00683262
0.00683261
0.00683261
0.00683261
0.00683261
0.00683261
0.00683261
0.00683261
0.00683261
0.00683262
0.00683261
0.00683262
0.00683261
0.00683262
0.00683261
0.00683262
0.0068326
0.00683263
0.0068326
0.00683263
0.00683259
0.00683264
0.00683257
0.00683264
0.00683254
0.00683261
0.00683245
0.00683248
0.0068331
0.0068334
0.00702955
0.00702912
0.00702823
0.0070281
0.00702824
0.00702816
0.00702827
0.0070282
0.00702827
0.00702822
0.00702826
0.00702822
0.00702826
0.00702823
0.00702825
0.00702823
0.00702825
0.00702824
0.00702825
0.00702824
0.00702824
0.00702824
0.00702824
0.00702824
0.00702824
0.00702824
0.00702824
0.00702824
0.00702824
0.00702824
0.00702824
0.00702825
0.00702824
0.00702825
0.00702823
0.00702825
0.00702823
0.00702826
0.00702822
0.00702826
0.00702821
0.00702827
0.0070282
0.00702827
0.00702816
0.00702824
0.0070281
0.00702823
0.00702912
0.00702955
0.0071816
0.00718103
0.00717988
0.00717967
0.00717978
0.00717968
0.0071798
0.00717972
0.0071798
0.00717974
0.0071798
0.00717975
0.00717979
0.00717976
0.00717978
0.00717976
0.00717978
0.00717977
0.00717978
0.00717977
0.00717978
0.00717977
0.00717977
0.00717977
0.00717977
0.00717977
0.00717977
0.00717977
0.00717977
0.00717978
0.00717977
0.00717978
0.00717977
0.00717978
0.00717976
0.00717978
0.00717976
0.00717979
0.00717975
0.0071798
0.00717974
0.0071798
0.00717972
0.0071798
0.00717968
0.00717978
0.00717967
0.00717988
0.00718103
0.0071816
0.00730482
0.00730408
0.00730268
0.00730236
0.00730245
0.00730234
0.00730246
0.00730238
0.00730247
0.0073024
0.00730246
0.00730241
0.00730245
0.00730242
0.00730245
0.00730243
0.00730244
0.00730243
0.00730244
0.00730243
0.00730244
0.00730243
0.00730244
0.00730243
0.00730243
0.00730243
0.00730243
0.00730244
0.00730243
0.00730244
0.00730243
0.00730244
0.00730243
0.00730244
0.00730243
0.00730245
0.00730242
0.00730245
0.00730241
0.00730246
0.0073024
0.00730247
0.00730238
0.00730246
0.00730234
0.00730245
0.00730236
0.00730268
0.00730408
0.00730482
0.00740742
0.00740651
0.00740486
0.00740443
0.00740448
0.00740435
0.00740449
0.00740439
0.00740449
0.00740442
0.00740448
0.00740444
0.00740448
0.00740444
0.00740447
0.00740445
0.00740447
0.00740445
0.00740446
0.00740445
0.00740446
0.00740446
0.00740446
0.00740446
0.00740446
0.00740446
0.00740446
0.00740446
0.00740446
0.00740446
0.00740445
0.00740446
0.00740445
0.00740447
0.00740445
0.00740447
0.00740444
0.00740448
0.00740444
0.00740448
0.00740442
0.00740449
0.00740439
0.00740449
0.00740435
0.00740448
0.00740443
0.00740486
0.00740651
0.00740742
0.00749457
0.00749346
0.00749156
0.00749102
0.00749104
0.00749089
0.00749103
0.00749093
0.00749104
0.00749096
0.00749103
0.00749098
0.00749102
0.00749099
0.00749102
0.00749099
0.00749101
0.007491
0.00749101
0.007491
0.00749101
0.007491
0.00749101
0.007491
0.00749101
0.00749101
0.007491
0.00749101
0.007491
0.00749101
0.007491
0.00749101
0.007491
0.00749101
0.00749099
0.00749102
0.00749099
0.00749102
0.00749098
0.00749103
0.00749096
0.00749104
0.00749093
0.00749103
0.00749089
0.00749104
0.00749102
0.00749156
0.00749346
0.00749457
0.00757285
0.00757157
0.00756949
0.00756884
0.00756883
0.00756867
0.00756881
0.00756871
0.00756882
0.00756874
0.00756881
0.00756876
0.00756881
0.00756877
0.0075688
0.00756878
0.0075688
0.00756878
0.00756879
0.00756878
0.00756879
0.00756879
0.00756879
0.00756879
0.00756879
0.00756879
0.00756879
0.00756879
0.00756879
0.00756879
0.00756878
0.00756879
0.00756878
0.0075688
0.00756878
0.0075688
0.00756877
0.00756881
0.00756876
0.00756881
0.00756874
0.00756882
0.00756871
0.00756881
0.00756867
0.00756883
0.00756884
0.00756949
0.00757157
0.00757285
0.00763897
0.00763747
0.00763516
0.0076344
0.00763435
0.00763417
0.00763431
0.00763421
0.00763433
0.00763425
0.00763432
0.00763427
0.00763431
0.00763428
0.00763431
0.00763428
0.00763431
0.00763429
0.0076343
0.00763429
0.0076343
0.00763429
0.0076343
0.0076343
0.0076343
0.0076343
0.0076343
0.0076343
0.00763429
0.0076343
0.00763429
0.0076343
0.00763429
0.00763431
0.00763428
0.00763431
0.00763428
0.00763431
0.00763427
0.00763432
0.00763425
0.00763433
0.00763421
0.00763431
0.00763417
0.00763435
0.0076344
0.00763516
0.00763747
0.00763897
0.00769806
0.0076966
0.0076943
0.00769348
0.00769336
0.00769318
0.0076933
0.00769321
0.00769332
0.00769325
0.00769331
0.00769327
0.00769331
0.00769328
0.00769331
0.00769329
0.00769331
0.00769329
0.0076933
0.00769329
0.0076933
0.00769329
0.0076933
0.0076933
0.0076933
0.0076933
0.0076933
0.0076933
0.00769329
0.0076933
0.00769329
0.0076933
0.00769329
0.00769331
0.00769329
0.00769331
0.00769328
0.00769331
0.00769327
0.00769331
0.00769325
0.00769332
0.00769321
0.0076933
0.00769318
0.00769336
0.00769348
0.0076943
0.0076966
0.00769806
0.00775294
0.00775129
0.00774885
0.00774793
0.00774777
0.00774758
0.0077477
0.00774761
0.00774772
0.00774765
0.00774772
0.00774767
0.00774772
0.00774768
0.00774771
0.00774769
0.00774771
0.00774769
0.00774771
0.0077477
0.00774771
0.0077477
0.00774771
0.0077477
0.0077477
0.0077477
0.0077477
0.00774771
0.0077477
0.00774771
0.0077477
0.00774771
0.00774769
0.00774771
0.00774769
0.00774771
0.00774768
0.00774772
0.00774767
0.00774772
0.00774765
0.00774772
0.00774761
0.0077477
0.00774758
0.00774777
0.00774793
0.00774885
0.00775129
0.00775294
0.00780098
0.00779913
0.00779653
0.0077955
0.00779531
0.00779509
0.00779522
0.00779512
0.00779524
0.00779517
0.00779524
0.00779519
0.00779524
0.0077952
0.00779523
0.00779521
0.00779523
0.00779521
0.00779523
0.00779522
0.00779523
0.00779522
0.00779523
0.00779522
0.00779522
0.00779522
0.00779522
0.00779523
0.00779522
0.00779523
0.00779522
0.00779523
0.00779521
0.00779523
0.00779521
0.00779523
0.0077952
0.00779524
0.00779519
0.00779524
0.00779517
0.00779524
0.00779512
0.00779522
0.00779509
0.00779531
0.0077955
0.00779653
0.00779913
0.00780098
0.00784663
0.00784449
0.00784165
0.00784047
0.00784021
0.00783996
0.00784009
0.00783999
0.00784011
0.00784004
0.00784012
0.00784007
0.00784012
0.00784009
0.00784012
0.00784009
0.00784012
0.0078401
0.00784011
0.0078401
0.00784011
0.0078401
0.00784011
0.00784011
0.00784011
0.00784011
0.00784011
0.00784011
0.0078401
0.00784011
0.0078401
0.00784011
0.0078401
0.00784012
0.00784009
0.00784012
0.00784009
0.00784012
0.00784007
0.00784012
0.00784004
0.00784012
0.00783999
0.00784009
0.00783996
0.00784021
0.00784047
0.00784165
0.00784449
0.00784663
0.00788749
0.00788513
0.00788215
0.00788087
0.00788057
0.00788031
0.00788044
0.00788034
0.00788046
0.00788039
0.00788047
0.00788042
0.00788047
0.00788044
0.00788047
0.00788045
0.00788047
0.00788045
0.00788046
0.00788045
0.00788046
0.00788046
0.00788046
0.00788046
0.00788046
0.00788046
0.00788046
0.00788046
0.00788046
0.00788046
0.00788045
0.00788046
0.00788045
0.00788047
0.00788045
0.00788047
0.00788044
0.00788047
0.00788042
0.00788047
0.00788039
0.00788046
0.00788034
0.00788044
0.00788031
0.00788057
0.00788087
0.00788215
0.00788513
0.00788749
0.00792705
0.00792438
0.00792116
0.00791972
0.00791939
0.0079191
0.00791924
0.00791913
0.00791927
0.00791919
0.00791927
0.00791922
0.00791927
0.00791924
0.00791927
0.00791925
0.00791927
0.00791925
0.00791927
0.00791926
0.00791927
0.00791926
0.00791927
0.00791926
0.00791926
0.00791926
0.00791926
0.00791927
0.00791926
0.00791927
0.00791926
0.00791927
0.00791925
0.00791927
0.00791925
0.00791927
0.00791924
0.00791927
0.00791922
0.00791927
0.00791919
0.00791927
0.00791913
0.00791924
0.0079191
0.00791939
0.00791972
0.00792116
0.00792438
0.00792705
0.00796431
0.00796142
0.00795811
0.0079566
0.00795622
0.00795592
0.00795606
0.00795595
0.00795608
0.00795601
0.00795609
0.00795604
0.0079561
0.00795606
0.0079561
0.00795607
0.0079561
0.00795608
0.00795609
0.00795608
0.00795609
0.00795608
0.00795609
0.00795609
0.00795609
0.00795609
0.00795609
0.00795609
0.00795608
0.00795609
0.00795608
0.00795609
0.00795608
0.0079561
0.00795607
0.0079561
0.00795606
0.0079561
0.00795604
0.00795609
0.00795601
0.00795608
0.00795595
0.00795606
0.00795592
0.00795622
0.0079566
0.00795811
0.00796142
0.00796431
0.00799822
0.0079951
0.00799169
0.00799008
0.00798967
0.00798935
0.00798949
0.00798938
0.00798952
0.00798944
0.00798953
0.00798948
0.00798953
0.0079895
0.00798954
0.00798951
0.00798953
0.00798951
0.00798953
0.00798952
0.00798953
0.00798952
0.00798953
0.00798952
0.00798953
0.00798953
0.00798952
0.00798953
0.00798952
0.00798953
0.00798952
0.00798953
0.00798951
0.00798953
0.00798951
0.00798954
0.0079895
0.00798953
0.00798948
0.00798953
0.00798944
0.00798952
0.00798938
0.00798949
0.00798935
0.00798967
0.00799008
0.00799169
0.0079951
0.00799822
0.00803039
0.00802702
0.00802351
0.00802183
0.00802138
0.00802104
0.00802118
0.00802107
0.00802122
0.00802114
0.00802123
0.00802118
0.00802124
0.0080212
0.00802124
0.00802121
0.00802124
0.00802122
0.00802123
0.00802122
0.00802123
0.00802122
0.00802123
0.00802123
0.00802123
0.00802123
0.00802123
0.00802123
0.00802122
0.00802123
0.00802122
0.00802123
0.00802122
0.00802124
0.00802121
0.00802124
0.0080212
0.00802124
0.00802118
0.00802123
0.00802114
0.00802122
0.00802107
0.00802118
0.00802104
0.00802138
0.00802183
0.00802351
0.00802702
0.00803039
0.00806102
0.00805831
0.00805482
0.00805309
0.00805258
0.00805224
0.00805236
0.00805226
0.0080524
0.00805233
0.00805242
0.00805237
0.00805243
0.0080524
0.00805243
0.00805241
0.00805243
0.00805241
0.00805243
0.00805242
0.00805243
0.00805242
0.00805243
0.00805242
0.00805243
0.00805243
0.00805242
0.00805243
0.00805242
0.00805243
0.00805242
0.00805243
0.00805241
0.00805243
0.00805241
0.00805243
0.0080524
0.00805243
0.00805237
0.00805242
0.00805233
0.0080524
0.00805226
0.00805236
0.00805224
0.00805258
0.00805309
0.00805482
0.00805831
0.00806102
0.00809029
0.00808739
0.00808383
0.00808204
0.00808149
0.00808113
0.00808126
0.00808115
0.0080813
0.00808123
0.00808132
0.00808127
0.00808133
0.0080813
0.00808134
0.00808131
0.00808134
0.00808132
0.00808134
0.00808132
0.00808134
0.00808133
0.00808133
0.00808133
0.00808133
0.00808133
0.00808133
0.00808133
0.00808133
0.00808134
0.00808132
0.00808134
0.00808132
0.00808134
0.00808131
0.00808134
0.0080813
0.00808133
0.00808127
0.00808132
0.00808123
0.0080813
0.00808115
0.00808126
0.00808113
0.00808149
0.00808204
0.00808383
0.00808739
0.00809029
0.00811944
0.00811634
0.00811266
0.00811077
0.00811018
0.0081098
0.00810993
0.00810982
0.00810997
0.0081099
0.00811
0.00810995
0.00811001
0.00810998
0.00811002
0.00810999
0.00811002
0.00811
0.00811001
0.00811
0.00811001
0.00811001
0.00811001
0.00811001
0.00811001
0.00811001
0.00811001
0.00811001
0.00811001
0.00811001
0.00811
0.00811001
0.00811
0.00811002
0.00810999
0.00811002
0.00810998
0.00811001
0.00810995
0.00811
0.0081099
0.00810997
0.00810982
0.00810993
0.0081098
0.00811018
0.00811077
0.00811266
0.00811634
0.00811944
0.00814752
0.00814427
0.00814055
0.00813861
0.00813799
0.0081376
0.00813773
0.00813762
0.00813778
0.00813771
0.00813781
0.00813776
0.00813782
0.00813779
0.00813783
0.0081378
0.00813783
0.00813781
0.00813782
0.00813781
0.00813782
0.00813782
0.00813782
0.00813782
0.00813782
0.00813782
0.00813782
0.00813782
0.00813782
0.00813782
0.00813781
0.00813783
0.00813781
0.00813783
0.0081378
0.00813783
0.00813779
0.00813782
0.00813776
0.00813781
0.00813771
0.00813778
0.00813762
0.00813773
0.0081376
0.00813799
0.00813861
0.00814055
0.00814427
0.00814752
0.00817464
0.00817124
0.0081675
0.00816552
0.00816487
0.00816447
0.0081646
0.00816449
0.00816465
0.00816458
0.00816468
0.00816463
0.0081647
0.00816466
0.0081647
0.00816468
0.00816471
0.00816469
0.0081647
0.00816469
0.0081647
0.0081647
0.0081647
0.0081647
0.0081647
0.0081647
0.0081647
0.0081647
0.0081647
0.0081647
0.00816469
0.0081647
0.00816469
0.00816471
0.00816468
0.0081647
0.00816466
0.0081647
0.00816463
0.00816468
0.00816458
0.00816465
0.00816449
0.0081646
0.00816447
0.00816487
0.00816552
0.0081675
0.00817124
0.00817464
0.00820089
0.00819736
0.00819359
0.00819158
0.00819091
0.0081905
0.00819062
0.00819052
0.00819068
0.00819062
0.00819071
0.00819067
0.00819073
0.0081907
0.00819074
0.00819071
0.00819074
0.00819072
0.00819074
0.00819073
0.00819074
0.00819073
0.00819074
0.00819073
0.00819074
0.00819074
0.00819073
0.00819074
0.00819073
0.00819074
0.00819073
0.00819074
0.00819072
0.00819074
0.00819071
0.00819074
0.0081907
0.00819073
0.00819067
0.00819071
0.00819062
0.00819068
0.00819052
0.00819062
0.0081905
0.00819091
0.00819158
0.00819359
0.00819736
0.00820089
0.00822635
0.00822269
0.00821889
0.00821686
0.00821618
0.00821576
0.00821588
0.00821578
0.00821594
0.00821588
0.00821598
0.00821593
0.008216
0.00821597
0.00821601
0.00821598
0.00821601
0.00821599
0.00821601
0.00821599
0.00821601
0.008216
0.00821601
0.008216
0.008216
0.008216
0.008216
0.00821601
0.008216
0.00821601
0.00821599
0.00821601
0.00821599
0.00821601
0.00821598
0.00821601
0.00821597
0.008216
0.00821593
0.00821598
0.00821588
0.00821594
0.00821578
0.00821588
0.00821576
0.00821618
0.00821686
0.00821889
0.00822269
0.00822635
0.00825107
0.00824731
0.00824349
0.00824144
0.00824074
0.00824032
0.00824044
0.00824034
0.00824049
0.00824044
0.00824054
0.0082405
0.00824056
0.00824053
0.00824057
0.00824055
0.00824057
0.00824055
0.00824057
0.00824056
0.00824057
0.00824056
0.00824057
0.00824057
0.00824057
0.00824057
0.00824057
0.00824057
0.00824056
0.00824057
0.00824056
0.00824057
0.00824055
0.00824057
0.00824055
0.00824057
0.00824053
0.00824056
0.0082405
0.00824054
0.00824044
0.00824049
0.00824034
0.00824044
0.00824032
0.00824074
0.00824144
0.00824349
0.00824731
0.00825107
0.00827512
0.00827127
0.00826742
0.00826537
0.00826465
0.00826422
0.00826434
0.00826425
0.0082644
0.00826435
0.00826445
0.00826441
0.00826447
0.00826444
0.00826448
0.00826446
0.00826449
0.00826447
0.00826449
0.00826447
0.00826449
0.00826448
0.00826449
0.00826448
0.00826448
0.00826448
0.00826448
0.00826449
0.00826448
0.00826449
0.00826447
0.00826449
0.00826447
0.00826449
0.00826446
0.00826448
0.00826444
0.00826447
0.00826441
0.00826445
0.00826435
0.0082644
0.00826425
0.00826434
0.00826422
0.00826465
0.00826537
0.00826742
0.00827127
0.00827512
0.00829853
0.0082946
0.00829075
0.00828869
0.00828796
0.00828753
0.00828764
0.00828755
0.00828771
0.00828766
0.00828776
0.00828772
0.00828778
0.00828776
0.0082878
0.00828777
0.0082878
0.00828778
0.0082878
0.00828779
0.0082878
0.00828779
0.0082878
0.0082878
0.0082878
0.0082878
0.0082878
0.0082878
0.00828779
0.0082878
0.00828779
0.0082878
0.00828778
0.0082878
0.00828777
0.0082878
0.00828776
0.00828778
0.00828772
0.00828776
0.00828766
0.00828771
0.00828755
0.00828764
0.00828753
0.00828796
0.00828869
0.00829075
0.0082946
0.00829853
0.00832136
0.00831737
0.0083135
0.00831145
0.0083107
0.00831027
0.00831038
0.0083103
0.00831045
0.00831041
0.00831051
0.00831047
0.00831053
0.00831051
0.00831055
0.00831053
0.00831055
0.00831054
0.00831055
0.00831054
0.00831055
0.00831055
0.00831055
0.00831055
0.00831055
0.00831055
0.00831055
0.00831055
0.00831055
0.00831055
0.00831054
0.00831055
0.00831054
0.00831055
0.00831053
0.00831055
0.00831051
0.00831053
0.00831047
0.00831051
0.00831041
0.00831045
0.0083103
0.00831038
0.00831027
0.0083107
0.00831145
0.0083135
0.00831737
0.00832136
0.00834363
0.00833959
0.00833572
0.00833367
0.00833292
0.00833248
0.0083326
0.00833251
0.00833267
0.00833263
0.00833273
0.00833269
0.00833276
0.00833273
0.00833277
0.00833275
0.00833278
0.00833276
0.00833278
0.00833277
0.00833278
0.00833277
0.00833278
0.00833278
0.00833278
0.00833278
0.00833278
0.00833278
0.00833277
0.00833278
0.00833277
0.00833278
0.00833276
0.00833278
0.00833275
0.00833277
0.00833273
0.00833276
0.0083327
0.00833273
0.00833263
0.00833267
0.00833251
0.0083326
0.00833248
0.00833292
0.00833367
0.00833572
0.00833959
0.00834363
0.00836539
0.00836131
0.00835744
0.0083554
0.00835464
0.0083542
0.00835432
0.00835424
0.00835439
0.00835435
0.00835445
0.00835442
0.00835449
0.00835446
0.0083545
0.00835448
0.00835451
0.00835449
0.00835451
0.0083545
0.00835451
0.0083545
0.00835451
0.00835451
0.00835451
0.00835451
0.00835451
0.00835451
0.0083545
0.00835451
0.0083545
0.00835451
0.00835449
0.00835451
0.00835448
0.0083545
0.00835446
0.00835449
0.00835442
0.00835445
0.00835435
0.00835439
0.00835424
0.00835432
0.0083542
0.00835464
0.0083554
0.00835744
0.00836131
0.00836539
0.00838664
0.00838254
0.00837868
0.00837665
0.00837589
0.00837545
0.00837557
0.00837549
0.00837565
0.00837561
0.00837571
0.00837568
0.00837575
0.00837572
0.00837576
0.00837574
0.00837577
0.00837575
0.00837577
0.00837576
0.00837577
0.00837576
0.00837577
0.00837577
0.00837577
0.00837577
0.00837577
0.00837577
0.00837576
0.00837577
0.00837576
0.00837577
0.00837575
0.00837577
0.00837574
0.00837576
0.00837572
0.00837575
0.00837568
0.00837571
0.00837561
0.00837565
0.00837549
0.00837557
0.00837545
0.00837589
0.00837665
0.00837868
0.00838254
0.00838664
0.00840743
0.00840332
0.00839947
0.00839745
0.0083967
0.00839626
0.00839637
0.0083963
0.00839646
0.00839642
0.00839652
0.0083965
0.00839656
0.00839654
0.00839658
0.00839656
0.00839659
0.00839657
0.00839659
0.00839658
0.00839659
0.00839658
0.00839659
0.00839658
0.00839659
0.00839659
0.00839658
0.00839659
0.00839658
0.00839659
0.00839658
0.00839659
0.00839657
0.00839659
0.00839656
0.00839658
0.00839654
0.00839656
0.0083965
0.00839652
0.00839642
0.00839646
0.0083963
0.00839637
0.00839626
0.0083967
0.00839745
0.00839947
0.00840332
0.00840743
0.00842777
0.00842367
0.00841982
0.00841783
0.00841707
0.00841664
0.00841675
0.00841668
0.00841684
0.00841681
0.00841691
0.00841689
0.00841695
0.00841693
0.00841697
0.00841695
0.00841698
0.00841696
0.00841698
0.00841697
0.00841698
0.00841697
0.00841698
0.00841698
0.00841698
0.00841698
0.00841698
0.00841698
0.00841697
0.00841698
0.00841697
0.00841698
0.00841696
0.00841698
0.00841695
0.00841697
0.00841693
0.00841695
0.00841689
0.00841691
0.00841681
0.00841684
0.00841668
0.00841675
0.00841664
0.00841707
0.00841783
0.00841982
0.00842367
0.00842777
0.00844767
0.0084436
0.00843977
0.00843779
0.00843704
0.00843661
0.00843673
0.00843666
0.00843682
0.00843679
0.00843689
0.00843687
0.00843693
0.00843692
0.00843696
0.00843694
0.00843696
0.00843695
0.00843696
0.00843695
0.00843697
0.00843696
0.00843697
0.00843696
0.00843696
0.00843696
0.00843696
0.00843697
0.00843696
0.00843697
0.00843695
0.00843696
0.00843695
0.00843696
0.00843694
0.00843696
0.00843692
0.00843693
0.00843687
0.00843689
0.00843679
0.00843682
0.00843666
0.00843673
0.00843661
0.00843704
0.00843779
0.00843977
0.0084436
0.00844767
0.00846717
0.00846313
0.00845932
0.00845736
0.00845662
0.0084562
0.00845631
0.00845625
0.00845641
0.00845638
0.00845649
0.00845646
0.00845653
0.00845651
0.00845655
0.00845653
0.00845656
0.00845654
0.00845656
0.00845655
0.00845656
0.00845656
0.00845656
0.00845656
0.00845656
0.00845656
0.00845656
0.00845656
0.00845655
0.00845656
0.00845655
0.00845656
0.00845654
0.00845656
0.00845653
0.00845655
0.00845651
0.00845653
0.00845646
0.00845648
0.00845638
0.00845641
0.00845625
0.00845631
0.0084562
0.00845662
0.00845736
0.00845932
0.00846313
0.00846717
0.00848628
0.00848226
0.00847849
0.00847656
0.00847582
0.0084754
0.00847552
0.00847546
0.00847562
0.0084756
0.0084757
0.00847568
0.00847575
0.00847573
0.00847577
0.00847575
0.00847578
0.00847576
0.00847578
0.00847577
0.00847578
0.00847578
0.00847578
0.00847578
0.00847578
0.00847578
0.00847578
0.00847578
0.00847578
0.00847578
0.00847577
0.00847578
0.00847576
0.00847578
0.00847575
0.00847577
0.00847573
0.00847575
0.00847568
0.0084757
0.0084756
0.00847562
0.00847546
0.00847552
0.0084754
0.00847583
0.00847656
0.00847849
0.00848226
0.00848628
0.00850501
0.00850101
0.00849729
0.00849539
0.00849466
0.00849425
0.00849437
0.00849431
0.00849447
0.00849445
0.00849456
0.00849454
0.0084946
0.00849459
0.00849463
0.00849461
0.00849464
0.00849462
0.00849464
0.00849463
0.00849464
0.00849463
0.00849464
0.00849464
0.00849464
0.00849464
0.00849464
0.00849464
0.00849463
0.00849464
0.00849463
0.00849464
0.00849462
0.00849464
0.00849461
0.00849463
0.00849459
0.0084946
0.00849454
0.00849456
0.00849445
0.00849447
0.00849431
0.00849437
0.00849425
0.00849466
0.00849539
0.00849729
0.00850101
0.00850501
0.00852339
0.0085194
0.00851573
0.00851386
0.00851315
0.00851274
0.00851286
0.00851281
0.00851297
0.00851296
0.00851306
0.00851304
0.00851311
0.00851309
0.00851313
0.00851312
0.00851314
0.00851313
0.00851314
0.00851313
0.00851315
0.00851314
0.00851315
0.00851314
0.00851315
0.00851315
0.00851314
0.00851315
0.00851314
0.00851315
0.00851313
0.00851314
0.00851313
0.00851314
0.00851312
0.00851313
0.00851309
0.00851311
0.00851304
0.00851306
0.00851296
0.00851297
0.00851281
0.00851286
0.00851274
0.00851315
0.00851386
0.00851573
0.0085194
0.00852339
0.00854141
0.00853743
0.00853384
0.008532
0.0085313
0.0085309
0.00853102
0.00853097
0.00853113
0.00853112
0.00853122
0.00853121
0.00853127
0.00853126
0.0085313
0.00853128
0.00853131
0.00853129
0.00853131
0.0085313
0.00853131
0.00853131
0.00853131
0.00853131
0.00853131
0.00853131
0.00853131
0.00853131
0.00853131
0.00853131
0.0085313
0.00853131
0.00853129
0.00853131
0.00853128
0.0085313
0.00853126
0.00853127
0.00853121
0.00853122
0.00853112
0.00853113
0.00853097
0.00853102
0.0085309
0.0085313
0.008532
0.00853384
0.00853743
0.00854141
0.00855909
0.00855513
0.00855159
0.00854979
0.00854911
0.00854872
0.00854884
0.0085488
0.00854896
0.00854895
0.00854905
0.00854904
0.00854911
0.00854909
0.00854913
0.00854912
0.00854914
0.00854913
0.00854915
0.00854914
0.00854915
0.00854914
0.00854915
0.00854914
0.00854915
0.00854915
0.00854914
0.00854915
0.00854914
0.00854915
0.00854914
0.00854915
0.00854913
0.00854914
0.00854912
0.00854913
0.00854909
0.00854911
0.00854904
0.00854905
0.00854895
0.00854896
0.0085488
0.00854884
0.00854872
0.00854911
0.00854979
0.00855159
0.00855513
0.00855909
0.00857644
0.00857249
0.00856902
0.00856727
0.0085666
0.00856622
0.00856634
0.00856631
0.00856646
0.00856646
0.00856656
0.00856655
0.00856662
0.0085666
0.00856664
0.00856663
0.00856666
0.00856664
0.00856666
0.00856665
0.00856666
0.00856665
0.00856666
0.00856666
0.00856666
0.00856666
0.00856666
0.00856666
0.00856665
0.00856666
0.00856665
0.00856666
0.00856664
0.00856666
0.00856663
0.00856664
0.0085666
0.00856662
0.00856655
0.00856656
0.00856646
0.00856646
0.00856631
0.00856634
0.00856622
0.0085666
0.00856727
0.00856902
0.00857249
0.00857644
0.00859346
0.00858953
0.00858614
0.00858442
0.00858378
0.0085834
0.00858353
0.0085835
0.00858365
0.00858365
0.00858376
0.00858375
0.00858381
0.0085838
0.00858384
0.00858383
0.00858385
0.00858384
0.00858385
0.00858385
0.00858386
0.00858385
0.00858386
0.00858385
0.00858386
0.00858386
0.00858385
0.00858386
0.00858385
0.00858386
0.00858385
0.00858385
0.00858384
0.00858385
0.00858383
0.00858384
0.0085838
0.00858381
0.00858375
0.00858375
0.00858365
0.00858365
0.0085835
0.00858353
0.0085834
0.00858378
0.00858442
0.00858614
0.00858953
0.00859346
0.00861017
0.00860625
0.00860294
0.00860127
0.00860064
0.00860028
0.00860041
0.00860038
0.00860054
0.00860054
0.00860064
0.00860064
0.0086007
0.00860069
0.00860073
0.00860072
0.00860074
0.00860073
0.00860074
0.00860073
0.00860075
0.00860074
0.00860075
0.00860074
0.00860075
0.00860075
0.00860074
0.00860075
0.00860074
0.00860075
0.00860073
0.00860074
0.00860073
0.00860074
0.00860072
0.00860073
0.00860069
0.0086007
0.00860064
0.00860064
0.00860054
0.00860054
0.00860038
0.00860041
0.00860028
0.00860064
0.00860127
0.00860294
0.00860625
0.00861017
0.00862656
0.00862267
0.00861944
0.00861781
0.00861721
0.00861686
0.00861698
0.00861696
0.00861712
0.00861712
0.00861722
0.00861722
0.00861728
0.00861728
0.00861731
0.0086173
0.00861733
0.00861731
0.00861733
0.00861732
0.00861733
0.00861733
0.00861733
0.00861733
0.00861733
0.00861733
0.00861733
0.00861733
0.00861733
0.00861733
0.00861732
0.00861733
0.00861731
0.00861733
0.0086173
0.00861731
0.00861728
0.00861728
0.00861722
0.00861722
0.00861712
0.00861712
0.00861696
0.00861698
0.00861686
0.00861721
0.00861781
0.00861944
0.00862267
0.00862656
0.00864264
0.00863878
0.00863564
0.00863406
0.00863347
0.00863313
0.00863326
0.00863325
0.0086334
0.00863341
0.00863351
0.00863351
0.00863357
0.00863357
0.0086336
0.00863359
0.00863362
0.00863361
0.00863362
0.00863361
0.00863362
0.00863362
0.00863362
0.00863362
0.00863362
0.00863362
0.00863362
0.00863362
0.00863362
0.00863362
0.00863361
0.00863362
0.00863361
0.00863362
0.00863359
0.0086336
0.00863357
0.00863357
0.00863351
0.00863351
0.00863341
0.0086334
0.00863325
0.00863327
0.00863313
0.00863347
0.00863406
0.00863564
0.00863878
0.00864264
0.00865842
0.0086546
0.00865155
0.00865001
0.00864945
0.00864912
0.00864925
0.00864924
0.0086494
0.00864941
0.00864951
0.00864951
0.00864957
0.00864956
0.0086496
0.00864959
0.00864962
0.0086496
0.00864962
0.00864961
0.00864962
0.00864962
0.00864962
0.00864962
0.00864962
0.00864962
0.00864962
0.00864962
0.00864962
0.00864962
0.00864961
0.00864962
0.0086496
0.00864962
0.00864959
0.0086496
0.00864956
0.00864957
0.00864951
0.00864951
0.00864941
0.0086494
0.00864924
0.00864926
0.00864912
0.00864945
0.00865001
0.00865155
0.0086546
0.00865842
0.00867391
0.00867014
0.00866717
0.00866568
0.00866514
0.00866482
0.00866496
0.00866495
0.00866511
0.00866512
0.00866522
0.00866522
0.00866528
0.00866528
0.00866532
0.00866531
0.00866533
0.00866532
0.00866533
0.00866532
0.00866533
0.00866533
0.00866534
0.00866533
0.00866533
0.00866533
0.00866533
0.00866534
0.00866533
0.00866533
0.00866532
0.00866533
0.00866532
0.00866533
0.0086653
0.00866531
0.00866528
0.00866528
0.00866522
0.00866522
0.00866512
0.00866511
0.00866495
0.00866496
0.00866482
0.00866514
0.00866568
0.00866717
0.00867014
0.00867391
0.0086891
0.00868539
0.00868251
0.00868106
0.00868054
0.00868024
0.00868038
0.00868038
0.00868053
0.00868055
0.00868065
0.00868065
0.00868071
0.00868071
0.00868075
0.00868074
0.00868076
0.00868075
0.00868076
0.00868076
0.00868077
0.00868076
0.00868077
0.00868076
0.00868077
0.00868077
0.00868076
0.00868077
0.00868076
0.00868077
0.00868076
0.00868076
0.00868075
0.00868076
0.00868074
0.00868075
0.00868071
0.00868071
0.00868065
0.00868065
0.00868055
0.00868053
0.00868038
0.00868038
0.00868025
0.00868054
0.00868106
0.00868251
0.00868539
0.0086891
0.008704
0.00870037
0.00869757
0.00869617
0.00869567
0.00869539
0.00869553
0.00869553
0.00869568
0.0086957
0.0086958
0.0086958
0.00869586
0.00869586
0.0086959
0.00869589
0.00869591
0.0086959
0.00869592
0.00869591
0.00869592
0.00869591
0.00869592
0.00869592
0.00869592
0.00869592
0.00869592
0.00869592