/*--------------------------------*- C++ -*----------------------------------*\
| =========                 |                                                 |
| \\      /  F ield         | OpenFOAM: The Open Source CFD Toolbox           |
|  \\    /   O peration     | Version:  dev                                   |
|   \\  /    A nd           | Web:      www.OpenFOAM.org                      |
|    \\/     M anipulation  |                                                 |
\*---------------------------------------------------------------------------*/
FoamFile
{
    version     2.0;
    format      ascii;
    class       volScalarField;
    location    "0.1";
    object      H2O;
}
// * * * * * * * * * * * * * * * * * * * * * * * * * * * * * * * * * * * * * //

dimensions      [0 0 0 0 0 0 0];

internalField   nonuniform List<scalar> 
8000
(
0.0209036
0.0209084
0.0209167
0.0209201
0.0209216
0.0209219
0.0209221
0.0209221
0.0209221
0.0209221
0.0209221
0.0209221
0.0209221
0.0209221
0.0209221
0.0209221
0.0209221
0.0209221
0.0209221
0.0209221
0.0209221
0.0209221
0.0209221
0.0209221
0.0209221
0.0209221
0.0209221
0.0209221
0.0209221
0.0209221
0.0209221
0.0209221
0.0209221
0.0209221
0.0209221
0.0209221
0.0209221
0.0209221
0.0209221
0.0209221
0.0209221
0.0209221
0.0209221
0.0209221
0.0209219
0.0209216
0.0209201
0.0209167
0.0209084
0.0209036
0.0423513
0.0423572
0.0423684
0.0423728
0.0423754
0.0423754
0.0423761
0.0423757
0.042376
0.0423758
0.0423759
0.0423758
0.0423759
0.0423758
0.0423759
0.0423758
0.0423759
0.0423758
0.0423759
0.0423758
0.0423759
0.0423758
0.0423758
0.0423758
0.0423758
0.0423758
0.0423758
0.0423758
0.0423758
0.0423759
0.0423758
0.0423759
0.0423758
0.0423759
0.0423758
0.0423759
0.0423758
0.0423759
0.0423758
0.0423759
0.0423758
0.042376
0.0423757
0.0423761
0.0423754
0.0423754
0.0423728
0.0423684
0.0423572
0.0423513
0.0551678
0.055172
0.0551802
0.0551837
0.0551859
0.0551858
0.0551864
0.0551861
0.0551864
0.0551861
0.0551863
0.0551861
0.0551862
0.0551861
0.0551862
0.0551861
0.0551862
0.0551862
0.0551862
0.0551862
0.0551862
0.0551862
0.0551862
0.0551862
0.0551862
0.0551862
0.0551862
0.0551862
0.0551862
0.0551862
0.0551862
0.0551862
0.0551862
0.0551862
0.0551861
0.0551862
0.0551861
0.0551862
0.0551861
0.0551863
0.0551861
0.0551864
0.0551861
0.0551864
0.0551858
0.0551859
0.0551837
0.0551802
0.055172
0.0551678
0.0623477
0.0623511
0.062357
0.0623596
0.0623611
0.0623611
0.0623615
0.0623613
0.0623614
0.0623613
0.0623614
0.0623613
0.0623614
0.0623613
0.0623613
0.0623613
0.0623613
0.0623613
0.0623613
0.0623613
0.0623613
0.0623613
0.0623613
0.0623613
0.0623613
0.0623613
0.0623613
0.0623613
0.0623613
0.0623613
0.0623613
0.0623613
0.0623613
0.0623613
0.0623613
0.0623613
0.0623613
0.0623614
0.0623613
0.0623614
0.0623613
0.0623614
0.0623613
0.0623615
0.0623611
0.0623611
0.0623596
0.062357
0.0623511
0.0623477
0.0660344
0.0660374
0.0660421
0.0660441
0.0660449
0.066045
0.0660451
0.066045
0.066045
0.066045
0.066045
0.066045
0.066045
0.066045
0.066045
0.066045
0.066045
0.066045
0.066045
0.066045
0.066045
0.066045
0.066045
0.066045
0.066045
0.066045
0.066045
0.066045
0.066045
0.066045
0.066045
0.066045
0.066045
0.066045
0.066045
0.066045
0.066045
0.066045
0.066045
0.066045
0.066045
0.066045
0.066045
0.0660451
0.066045
0.0660449
0.0660441
0.0660421
0.0660374
0.0660344
0.0677368
0.0677399
0.0677447
0.0677464
0.0677467
0.067747
0.0677468
0.0677469
0.0677468
0.0677469
0.0677468
0.0677469
0.0677468
0.0677468
0.0677468
0.0677468
0.0677468
0.0677468
0.0677468
0.0677468
0.0677468
0.0677468
0.0677468
0.0677468
0.0677468
0.0677468
0.0677468
0.0677468
0.0677468
0.0677468
0.0677468
0.0677468
0.0677468
0.0677468
0.0677468
0.0677468
0.0677468
0.0677468
0.0677469
0.0677468
0.0677469
0.0677468
0.0677469
0.0677468
0.0677469
0.0677467
0.0677464
0.0677447
0.0677399
0.0677368
0.0684034
0.068407
0.0684128
0.0684146
0.0684146
0.068415
0.0684147
0.0684149
0.0684147
0.0684148
0.0684147
0.0684148
0.0684147
0.0684148
0.0684147
0.0684148
0.0684147
0.0684148
0.0684147
0.0684148
0.0684147
0.0684148
0.0684147
0.0684147
0.0684147
0.0684147
0.0684147
0.0684147
0.0684148
0.0684147
0.0684148
0.0684147
0.0684148
0.0684147
0.0684148
0.0684147
0.0684148
0.0684147
0.0684148
0.0684147
0.0684148
0.0684147
0.0684149
0.0684147
0.068415
0.0684146
0.0684146
0.0684128
0.068407
0.0684034
0.0685538
0.0685582
0.0685653
0.0685675
0.0685674
0.068568
0.0685675
0.0685678
0.0685675
0.0685677
0.0685675
0.0685677
0.0685675
0.0685676
0.0685676
0.0685676
0.0685676
0.0685676
0.0685676
0.0685676
0.0685676
0.0685676
0.0685676
0.0685676
0.0685676
0.0685676
0.0685676
0.0685676
0.0685676
0.0685676
0.0685676
0.0685676
0.0685676
0.0685676
0.0685676
0.0685675
0.0685676
0.0685675
0.0685677
0.0685675
0.0685677
0.0685675
0.0685678
0.0685675
0.068568
0.0685674
0.0685675
0.0685653
0.0685582
0.0685538
0.0684558
0.0684613
0.0684699
0.0684725
0.0684725
0.0684732
0.0684726
0.068473
0.0684726
0.0684729
0.0684726
0.0684728
0.0684726
0.0684728
0.0684727
0.0684728
0.0684727
0.0684727
0.0684727
0.0684727
0.0684727
0.0684727
0.0684727
0.0684727
0.0684727
0.0684727
0.0684727
0.0684727
0.0684727
0.0684727
0.0684727
0.0684727
0.0684727
0.0684727
0.0684728
0.0684727
0.0684728
0.0684726
0.0684728
0.0684726
0.0684729
0.0684726
0.068473
0.0684726
0.0684732
0.0684725
0.0684725
0.0684699
0.0684613
0.0684558
0.068245
0.0682515
0.0682616
0.0682649
0.0682649
0.0682657
0.0682651
0.0682656
0.068265
0.0682654
0.0682651
0.0682653
0.0682651
0.0682653
0.0682651
0.0682652
0.0682651
0.0682652
0.0682652
0.0682652
0.0682652
0.0682652
0.0682652
0.0682652
0.0682652
0.0682652
0.0682652
0.0682652
0.0682652
0.0682652
0.0682652
0.0682652
0.0682652
0.0682651
0.0682652
0.0682651
0.0682653
0.0682651
0.0682653
0.0682651
0.0682654
0.068265
0.0682656
0.0682651
0.0682657
0.0682649
0.0682649
0.0682616
0.0682515
0.068245
0.0679878
0.0679954
0.0680071
0.0680109
0.0680111
0.068012
0.0680113
0.0680119
0.0680113
0.0680117
0.0680113
0.0680116
0.0680113
0.0680115
0.0680114
0.0680115
0.0680114
0.0680115
0.0680114
0.0680115
0.0680114
0.0680115
0.0680114
0.0680114
0.0680114
0.0680114
0.0680114
0.0680114
0.0680115
0.0680114
0.0680115
0.0680114
0.0680115
0.0680114
0.0680115
0.0680114
0.0680115
0.0680113
0.0680116
0.0680113
0.0680117
0.0680113
0.0680119
0.0680113
0.068012
0.0680111
0.0680109
0.0680071
0.0679954
0.0679878
0.0677057
0.0677144
0.0677273
0.0677317
0.0677321
0.0677331
0.0677323
0.0677329
0.0677323
0.0677327
0.0677323
0.0677326
0.0677324
0.0677326
0.0677324
0.0677325
0.0677324
0.0677325
0.0677324
0.0677325
0.0677324
0.0677325
0.0677325
0.0677325
0.0677325
0.0677325
0.0677325
0.0677325
0.0677325
0.0677324
0.0677325
0.0677324
0.0677325
0.0677324
0.0677325
0.0677324
0.0677326
0.0677324
0.0677326
0.0677323
0.0677327
0.0677323
0.0677329
0.0677323
0.0677331
0.0677321
0.0677317
0.0677273
0.0677144
0.0677057
0.0674364
0.0674462
0.0674604
0.0674655
0.0674661
0.0674672
0.0674664
0.067467
0.0674664
0.0674668
0.0674664
0.0674667
0.0674664
0.0674666
0.0674665
0.0674666
0.0674665
0.0674666
0.0674665
0.0674666
0.0674665
0.0674665
0.0674665
0.0674665
0.0674665
0.0674665
0.0674665
0.0674665
0.0674665
0.0674665
0.0674666
0.0674665
0.0674666
0.0674665
0.0674666
0.0674665
0.0674666
0.0674664
0.0674667
0.0674664
0.0674668
0.0674664
0.067467
0.0674664
0.0674672
0.0674661
0.0674655
0.0674604
0.0674462
0.0674364
0.0671747
0.0671846
0.067199
0.0672045
0.0672054
0.0672066
0.0672058
0.0672064
0.0672058
0.0672062
0.0672058
0.0672061
0.0672058
0.067206
0.0672058
0.067206
0.0672058
0.0672059
0.0672059
0.0672059
0.0672059
0.0672059
0.0672059
0.0672059
0.0672059
0.0672059
0.0672059
0.0672059
0.0672059
0.0672059
0.0672059
0.0672059
0.0672059
0.0672058
0.067206
0.0672058
0.067206
0.0672058
0.0672061
0.0672058
0.0672062
0.0672058
0.0672064
0.0672058
0.0672066
0.0672054
0.0672045
0.067199
0.0671846
0.0671747
0.0669169
0.0669277
0.066943
0.066949
0.0669501
0.0669514
0.0669507
0.0669513
0.0669506
0.066951
0.0669506
0.0669509
0.0669506
0.0669508
0.0669506
0.0669508
0.0669506
0.0669507
0.0669507
0.0669507
0.0669507
0.0669507
0.0669507
0.0669507
0.0669507
0.0669507
0.0669507
0.0669507
0.0669507
0.0669507
0.0669507
0.0669507
0.0669507
0.0669506
0.0669508
0.0669506
0.0669508
0.0669506
0.0669509
0.0669506
0.066951
0.0669506
0.0669513
0.0669507
0.0669514
0.0669501
0.066949
0.066943
0.0669277
0.0669169
0.0666813
0.0666932
0.0667094
0.066716
0.0667173
0.0667187
0.066718
0.0667186
0.0667179
0.0667183
0.0667179
0.0667182
0.0667179
0.0667181
0.0667179
0.0667181
0.0667179
0.066718
0.066718
0.066718
0.066718
0.066718
0.066718
0.066718
0.066718
0.066718
0.066718
0.066718
0.066718
0.066718
0.066718
0.066718
0.066718
0.0667179
0.0667181
0.0667179
0.0667181
0.0667179
0.0667182
0.0667179
0.0667183
0.0667179
0.0667186
0.066718
0.0667187
0.0667173
0.066716
0.0667094
0.0666932
0.0666813
0.0664502
0.0664636
0.0664811
0.0664885
0.0664902
0.0664917
0.066491
0.0664916
0.0664909
0.0664913
0.0664909
0.0664912
0.0664909
0.0664911
0.0664909
0.066491
0.0664909
0.066491
0.0664909
0.066491
0.0664909
0.066491
0.0664909
0.0664909
0.0664909
0.0664909
0.0664909
0.0664909
0.066491
0.0664909
0.066491
0.0664909
0.066491
0.0664909
0.066491
0.0664909
0.0664911
0.0664909
0.0664912
0.0664909
0.0664913
0.0664909
0.0664916
0.066491
0.0664917
0.0664902
0.0664885
0.0664811
0.0664636
0.0664502
0.0662384
0.066253
0.0662711
0.0662791
0.066281
0.0662826
0.0662819
0.0662825
0.0662818
0.0662822
0.0662818
0.0662821
0.0662818
0.066282
0.0662818
0.0662819
0.0662818
0.0662819
0.0662818
0.0662819
0.0662818
0.0662818
0.0662818
0.0662818
0.0662818
0.0662818
0.0662818
0.0662818
0.0662818
0.0662818
0.0662819
0.0662818
0.0662819
0.0662818
0.0662819
0.0662818
0.066282
0.0662818
0.0662821
0.0662818
0.0662822
0.0662818
0.0662825
0.0662819
0.0662826
0.066281
0.0662791
0.0662711
0.066253
0.0662384
0.0660295
0.0660458
0.0660652
0.066074
0.0660761
0.0660779
0.0660771
0.0660778
0.066077
0.0660774
0.0660769
0.0660772
0.0660769
0.0660771
0.0660769
0.0660771
0.0660769
0.066077
0.066077
0.066077
0.066077
0.066077
0.066077
0.066077
0.066077
0.066077
0.066077
0.066077
0.066077
0.066077
0.066077
0.066077
0.066077
0.0660769
0.0660771
0.0660769
0.0660771
0.0660769
0.0660772
0.0660769
0.0660774
0.066077
0.0660778
0.0660771
0.0660779
0.0660761
0.066074
0.0660652
0.0660458
0.0660295
0.0658302
0.0658475
0.0658674
0.0658766
0.065879
0.0658808
0.06588
0.0658807
0.0658799
0.0658804
0.0658798
0.0658802
0.0658798
0.06588
0.0658798
0.06588
0.0658798
0.06588
0.0658799
0.0658799
0.0658799
0.0658799
0.0658799
0.0658799
0.0658799
0.0658799
0.0658799
0.0658799
0.0658799
0.0658799
0.0658799
0.0658799
0.06588
0.0658798
0.06588
0.0658798
0.06588
0.0658798
0.0658802
0.0658798
0.0658804
0.0658799
0.0658807
0.06588
0.0658808
0.065879
0.0658766
0.0658674
0.0658475
0.0658302
0.0656469
0.0656655
0.0656859
0.0656956
0.0656981
0.0657
0.0656993
0.0656999
0.0656991
0.0656996
0.065699
0.0656994
0.065699
0.0656992
0.065699
0.0656992
0.065699
0.0656991
0.065699
0.0656991
0.0656991
0.0656991
0.0656991
0.0656991
0.0656991
0.0656991
0.0656991
0.0656991
0.0656991
0.0656991
0.0656991
0.065699
0.0656991
0.065699
0.0656992
0.065699
0.0656992
0.065699
0.0656994
0.065699
0.0656996
0.0656991
0.0656999
0.0656993
0.0657
0.0656981
0.0656956
0.0656859
0.0656655
0.0656469
0.0654717
0.0654917
0.0655125
0.0655226
0.0655253
0.0655273
0.0655266
0.0655272
0.0655264
0.0655268
0.0655263
0.0655266
0.0655263
0.0655265
0.0655263
0.0655264
0.0655263
0.0655264
0.0655263
0.0655264
0.0655263
0.0655264
0.0655263
0.0655263
0.0655263
0.0655263
0.0655263
0.0655263
0.0655264
0.0655263
0.0655264
0.0655263
0.0655264
0.0655263
0.0655264
0.0655263
0.0655265
0.0655263
0.0655266
0.0655263
0.0655269
0.0655264
0.0655272
0.0655266
0.0655273
0.0655253
0.0655226
0.0655125
0.0654917
0.0654717
0.0653041
0.0653204
0.065341
0.0653513
0.0653544
0.0653564
0.0653557
0.0653564
0.0653556
0.065356
0.0653554
0.0653557
0.0653554
0.0653556
0.0653554
0.0653555
0.0653554
0.0653555
0.0653554
0.0653555
0.0653554
0.0653554
0.0653554
0.0653554
0.0653554
0.0653554
0.0653554
0.0653554
0.0653554
0.0653554
0.0653555
0.0653554
0.0653555
0.0653554
0.0653555
0.0653554
0.0653556
0.0653554
0.0653557
0.0653554
0.065356
0.0653556
0.0653564
0.0653557
0.0653564
0.0653544
0.0653513
0.065341
0.0653204
0.0653041
0.0651433
0.0651605
0.0651815
0.0651921
0.0651954
0.0651975
0.0651968
0.0651975
0.0651966
0.065197
0.0651965
0.0651968
0.0651964
0.0651966
0.0651964
0.0651966
0.0651964
0.0651965
0.0651964
0.0651965
0.0651964
0.0651965
0.0651964
0.0651964
0.0651964
0.0651964
0.0651964
0.0651964
0.0651965
0.0651964
0.0651965
0.0651964
0.0651965
0.0651964
0.0651966
0.0651964
0.0651966
0.0651964
0.0651968
0.0651965
0.065197
0.0651966
0.0651975
0.0651968
0.0651975
0.0651954
0.0651921
0.0651815
0.0651605
0.0651433
0.0649829
0.0650011
0.0650226
0.0650338
0.0650372
0.0650395
0.0650388
0.0650394
0.0650386
0.065039
0.0650384
0.0650387
0.0650383
0.0650385
0.0650383
0.0650385
0.0650383
0.0650384
0.0650383
0.0650384
0.0650383
0.0650384
0.0650383
0.0650383
0.0650383
0.0650383
0.0650383
0.0650383
0.0650384
0.0650383
0.0650384
0.0650383
0.0650384
0.0650383
0.0650385
0.0650383
0.0650385
0.0650383
0.0650387
0.0650384
0.065039
0.0650386
0.0650394
0.0650388
0.0650395
0.0650372
0.0650338
0.0650226
0.0650011
0.0649829
0.0648281
0.064847
0.0648687
0.06488
0.0648837
0.064886
0.0648853
0.0648859
0.0648851
0.0648854
0.0648849
0.0648852
0.0648848
0.064885
0.0648848
0.0648849
0.0648848
0.0648849
0.0648848
0.0648848
0.0648848
0.0648848
0.0648848
0.0648848
0.0648848
0.0648848
0.0648848
0.0648848
0.0648848
0.0648848
0.0648848
0.0648848
0.0648849
0.0648848
0.0648849
0.0648848
0.064885
0.0648848
0.0648852
0.0648849
0.0648854
0.0648851
0.0648859
0.0648853
0.064886
0.0648837
0.06488
0.0648687
0.064847
0.0648281
0.0646785
0.0646982
0.0647199
0.0647314
0.0647352
0.0647376
0.0647369
0.0647375
0.0647366
0.064737
0.0647364
0.0647367
0.0647364
0.0647365
0.0647363
0.0647364
0.0647363
0.0647364
0.0647363
0.0647364
0.0647363
0.0647363
0.0647363
0.0647363
0.0647363
0.0647363
0.0647363
0.0647363
0.0647363
0.0647363
0.0647364
0.0647363
0.0647364
0.0647363
0.0647364
0.0647363
0.0647365
0.0647364
0.0647367
0.0647364
0.064737
0.0647366
0.0647375
0.0647369
0.0647376
0.0647352
0.0647314
0.0647199
0.0646982
0.0646785
0.0645337
0.0645541
0.0645759
0.0645875
0.0645914
0.0645938
0.0645932
0.0645937
0.0645929
0.0645932
0.0645927
0.0645929
0.0645926
0.0645927
0.0645925
0.0645927
0.0645925
0.0645926
0.0645925
0.0645926
0.0645925
0.0645926
0.0645925
0.0645925
0.0645925
0.0645925
0.0645925
0.0645925
0.0645926
0.0645925
0.0645926
0.0645925
0.0645926
0.0645925
0.0645927
0.0645925
0.0645927
0.0645926
0.0645929
0.0645927
0.0645932
0.0645929
0.0645937
0.0645932
0.0645938
0.0645914
0.0645875
0.0645759
0.0645541
0.0645337
0.0643935
0.0644144
0.0644363
0.064448
0.064452
0.0644544
0.0644538
0.0644543
0.0644535
0.0644538
0.0644532
0.0644535
0.0644531
0.0644533
0.0644531
0.0644532
0.064453
0.0644532
0.0644531
0.0644531
0.0644531
0.0644531
0.0644531
0.0644531
0.0644531
0.0644531
0.0644531
0.0644531
0.0644531
0.0644531
0.0644531
0.0644531
0.0644532
0.064453
0.0644532
0.0644531
0.0644533
0.0644531
0.0644535
0.0644532
0.0644538
0.0644535
0.0644543
0.0644538
0.0644544
0.064452
0.064448
0.0644363
0.0644144
0.0643935
0.0642574
0.0642788
0.0643007
0.0643125
0.0643166
0.064319
0.0643184
0.0643189
0.0643181
0.0643184
0.0643178
0.0643181
0.0643177
0.0643179
0.0643176
0.0643178
0.0643176
0.0643177
0.0643176
0.0643177
0.0643176
0.0643177
0.0643176
0.0643176
0.0643176
0.0643176
0.0643176
0.0643176
0.0643177
0.0643176
0.0643177
0.0643176
0.0643177
0.0643176
0.0643178
0.0643176
0.0643179
0.0643177
0.0643181
0.0643178
0.0643184
0.0643181
0.0643189
0.0643184
0.064319
0.0643166
0.0643125
0.0643007
0.0642788
0.0642574
0.0641252
0.0641471
0.064169
0.0641808
0.0641849
0.0641874
0.0641868
0.0641873
0.0641864
0.0641867
0.0641862
0.0641864
0.064186
0.0641862
0.064186
0.0641861
0.0641859
0.064186
0.064186
0.064186
0.064186
0.064186
0.0641859
0.064186
0.064186
0.064186
0.064186
0.0641859
0.064186
0.064186
0.064186
0.064186
0.064186
0.0641859
0.0641861
0.064186
0.0641862
0.064186
0.0641864
0.0641862
0.0641867
0.0641864
0.0641873
0.0641868
0.0641874
0.0641849
0.0641808
0.064169
0.0641471
0.0641252
0.0639967
0.0640189
0.0640409
0.0640526
0.0640568
0.0640593
0.0640587
0.0640592
0.0640583
0.0640586
0.064058
0.0640582
0.0640579
0.064058
0.0640578
0.0640579
0.0640578
0.0640579
0.0640578
0.0640579
0.0640578
0.0640578
0.0640578
0.0640578
0.0640578
0.0640578
0.0640578
0.0640578
0.0640578
0.0640578
0.0640579
0.0640578
0.0640579
0.0640578
0.0640579
0.0640578
0.064058
0.0640579
0.0640582
0.064058
0.0640586
0.0640583
0.0640592
0.0640587
0.0640593
0.0640568
0.0640526
0.0640409
0.0640189
0.0639967
0.0638716
0.0638941
0.0639161
0.0639277
0.063932
0.0639345
0.0639339
0.0639344
0.0639335
0.0639338
0.0639332
0.0639334
0.063933
0.0639332
0.063933
0.0639331
0.0639329
0.063933
0.0639329
0.063933
0.0639329
0.063933
0.0639329
0.0639329
0.0639329
0.0639329
0.0639329
0.0639329
0.063933
0.0639329
0.063933
0.0639329
0.063933
0.0639329
0.0639331
0.063933
0.0639332
0.063933
0.0639334
0.0639332
0.0639338
0.0639335
0.0639344
0.0639339
0.0639345
0.063932
0.0639277
0.063916
0.0638941
0.0638716
0.0637498
0.0637725
0.0637944
0.063806
0.0638103
0.0638128
0.0638122
0.0638127
0.0638118
0.063812
0.0638115
0.0638117
0.0638113
0.0638114
0.0638112
0.0638113
0.0638112
0.0638113
0.0638112
0.0638112
0.0638112
0.0638112
0.0638112
0.0638112
0.0638112
0.0638112
0.0638112
0.0638112
0.0638112
0.0638112
0.0638112
0.0638112
0.0638113
0.0638112
0.0638113
0.0638112
0.0638114
0.0638113
0.0638117
0.0638115
0.063812
0.0638118
0.0638127
0.0638122
0.0638128
0.0638103
0.063806
0.0637944
0.0637725
0.0637498
0.0636311
0.0636539
0.0636757
0.0636872
0.0636915
0.063694
0.0636934
0.0636939
0.063693
0.0636932
0.0636927
0.0636928
0.0636925
0.0636926
0.0636924
0.0636925
0.0636924
0.0636925
0.0636924
0.0636924
0.0636924
0.0636924
0.0636924
0.0636924
0.0636924
0.0636924
0.0636924
0.0636924
0.0636924
0.0636924
0.0636924
0.0636924
0.0636925
0.0636924
0.0636925
0.0636924
0.0636926
0.0636925
0.0636928
0.0636927
0.0636932
0.063693
0.0636939
0.0636934
0.063694
0.0636915
0.0636872
0.0636757
0.0636539
0.0636311
0.0635152
0.0635381
0.0635598
0.0635713
0.0635756
0.0635781
0.0635775
0.0635779
0.063577
0.0635772
0.0635767
0.0635768
0.0635765
0.0635766
0.0635764
0.0635765
0.0635763
0.0635764
0.0635763
0.0635764
0.0635763
0.0635763
0.0635763
0.0635763
0.0635763
0.0635763
0.0635763
0.0635763
0.0635763
0.0635763
0.0635764
0.0635763
0.0635764
0.0635763
0.0635765
0.0635764
0.0635766
0.0635765
0.0635768
0.0635767
0.0635772
0.063577
0.0635779
0.0635775
0.063578
0.0635756
0.0635713
0.0635598
0.0635381
0.0635152
0.0634022
0.0634251
0.0634466
0.063458
0.0634622
0.0634647
0.0634641
0.0634645
0.0634637
0.0634638
0.0634633
0.0634634
0.0634631
0.0634632
0.0634629
0.0634631
0.0634629
0.063463
0.0634629
0.063463
0.0634629
0.0634629
0.0634629
0.0634629
0.0634629
0.0634629
0.0634629
0.0634629
0.0634629
0.0634629
0.063463
0.0634629
0.063463
0.0634629
0.0634631
0.063463
0.0634632
0.0634631
0.0634634
0.0634633
0.0634638
0.0634637
0.0634645
0.0634641
0.0634647
0.0634622
0.063458
0.0634466
0.063425
0.0634022
0.0632917
0.0633145
0.063336
0.0633472
0.0633514
0.0633539
0.0633533
0.0633537
0.0633528
0.0633529
0.0633524
0.0633525
0.0633522
0.0633523
0.063352
0.0633521
0.063352
0.0633521
0.063352
0.063352
0.063352
0.063352
0.063352
0.063352
0.063352
0.063352
0.063352
0.063352
0.063352
0.063352
0.063352
0.063352
0.0633521
0.063352
0.0633521
0.063352
0.0633523
0.0633522
0.0633525
0.0633524
0.0633529
0.0633528
0.0633537
0.0633533
0.0633539
0.0633514
0.0633472
0.063336
0.0633145
0.0632917
0.0631838
0.0632064
0.0632277
0.0632388
0.063243
0.0632454
0.0632448
0.0632452
0.0632443
0.0632444
0.0632439
0.063244
0.0632437
0.0632438
0.0632435
0.0632436
0.0632435
0.0632436
0.0632435
0.0632435
0.0632435
0.0632435
0.0632435
0.0632435
0.0632435
0.0632435
0.0632435
0.0632435
0.0632435
0.0632435
0.0632435
0.0632435
0.0632436
0.0632435
0.0632436
0.0632435
0.0632438
0.0632437
0.063244
0.0632439
0.0632444
0.0632443
0.0632452
0.0632448
0.0632454
0.063243
0.0632388
0.0632277
0.0632064
0.0631838
0.0630783
0.0631006
0.0631218
0.0631327
0.0631369
0.0631393
0.0631386
0.063139
0.0631381
0.0631382
0.0631377
0.0631378
0.0631374
0.0631375
0.0631373
0.0631374
0.0631372
0.0631373
0.0631372
0.0631373
0.0631372
0.0631373
0.0631372
0.0631372
0.0631372
0.0631372
0.0631372
0.0631372
0.0631373
0.0631372
0.0631373
0.0631372
0.0631373
0.0631372
0.0631374
0.0631373
0.0631375
0.0631374
0.0631378
0.0631377
0.0631382
0.0631381
0.063139
0.0631386
0.0631392
0.0631369
0.0631327
0.0631218
0.0631006
0.0630783
0.062975
0.0629971
0.0630181
0.0630288
0.0630329
0.0630353
0.0630347
0.063035
0.0630341
0.0630342
0.0630336
0.0630337
0.0630334
0.0630335
0.0630332
0.0630333
0.0630332
0.0630333
0.0630332
0.0630332
0.0630332
0.0630332
0.0630332
0.0630332
0.0630332
0.0630332
0.0630332
0.0630332
0.0630332
0.0630332
0.0630332
0.0630332
0.0630333
0.0630332
0.0630333
0.0630332
0.0630335
0.0630334
0.0630337
0.0630336
0.0630342
0.0630341
0.063035
0.0630347
0.0630353
0.0630329
0.0630288
0.0630181
0.0629971
0.062975
0.0628738
0.0628958
0.0629165
0.062927
0.0629311
0.0629334
0.0629328
0.0629331
0.0629322
0.0629323
0.0629317
0.0629318
0.0629314
0.0629315
0.0629313
0.0629314
0.0629312
0.0629313
0.0629312
0.0629313
0.0629312
0.0629312
0.0629312
0.0629312
0.0629312
0.0629312
0.0629312
0.0629312
0.0629312
0.0629312
0.0629313
0.0629312
0.0629313
0.0629312
0.0629314
0.0629313
0.0629315
0.0629314
0.0629318
0.0629317
0.0629323
0.0629322
0.0629331
0.0629328
0.0629334
0.0629311
0.062927
0.0629165
0.0628958
0.0628738
0.0627747
0.0627966
0.0628169
0.0628273
0.0628312
0.0628335
0.0628329
0.0628331
0.0628323
0.0628323
0.0628318
0.0628318
0.0628315
0.0628316
0.0628313
0.0628314
0.0628313
0.0628313
0.0628313
0.0628313
0.0628312
0.0628313
0.0628312
0.0628313
0.0628313
0.0628313
0.0628313
0.0628312
0.0628313
0.0628312
0.0628313
0.0628313
0.0628313
0.0628313
0.0628314
0.0628313
0.0628316
0.0628315
0.0628318
0.0628318
0.0628323
0.0628323
0.0628331
0.0628329
0.0628335
0.0628312
0.0628273
0.0628169
0.0627966
0.0627747
0.0626776
0.0626994
0.0627193
0.0627295
0.0627334
0.0627356
0.0627349
0.0627352
0.0627343
0.0627343
0.0627338
0.0627338
0.0627335
0.0627335
0.0627333
0.0627334
0.0627333
0.0627333
0.0627332
0.0627333
0.0627332
0.0627333
0.0627332
0.0627332
0.0627332
0.0627332
0.0627332
0.0627332
0.0627333
0.0627332
0.0627333
0.0627332
0.0627333
0.0627333
0.0627334
0.0627333
0.0627335
0.0627335
0.0627338
0.0627338
0.0627343
0.0627343
0.0627352
0.0627349
0.0627356
0.0627334
0.0627294
0.0627193
0.0626994
0.0626776
0.0625824
0.0626041
0.0626236
0.0626335
0.0626373
0.0626395
0.0626388
0.0626391
0.0626382
0.0626382
0.0626376
0.0626377
0.0626373
0.0626374
0.0626372
0.0626373
0.0626371
0.0626372
0.0626371
0.0626371
0.0626371
0.0626371
0.0626371
0.0626371
0.0626371
0.0626371
0.0626371
0.0626371
0.0626371
0.0626371
0.0626371
0.0626371
0.0626372
0.0626371
0.0626373
0.0626372
0.0626374
0.0626373
0.0626377
0.0626376
0.0626382
0.0626382
0.0626391
0.0626388
0.0626395
0.0626373
0.0626335
0.0626236
0.0626041
0.0625824
0.0624891
0.0625107
0.0625297
0.0625394
0.0625431
0.0625452
0.0625446
0.0625447
0.0625439
0.0625439
0.0625433
0.0625434
0.062543
0.0625431
0.0625428
0.0625429
0.0625428
0.0625428
0.0625427
0.0625428
0.0625427
0.0625428
0.0625427
0.0625427
0.0625427
0.0625427
0.0625427
0.0625427
0.0625428
0.0625427
0.0625428
0.0625427
0.0625428
0.0625428
0.0625429
0.0625428
0.0625431
0.062543
0.0625434
0.0625433
0.0625439
0.0625439
0.0625447
0.0625446
0.0625452
0.0625431
0.0625394
0.0625297
0.0625107
0.0624891
0.0623975
0.062419
0.0624376
0.0624471
0.0624507
0.0624527
0.062452
0.0624522
0.0624513
0.0624513
0.0624507
0.0624508
0.0624504
0.0624505
0.0624502
0.0624503
0.0624502
0.0624502
0.0624501
0.0624502
0.0624501
0.0624502
0.0624501
0.0624501
0.0624501
0.0624501
0.0624501
0.0624501
0.0624502
0.0624501
0.0624502
0.0624501
0.0624502
0.0624502
0.0624503
0.0624502
0.0624505
0.0624504
0.0624508
0.0624507
0.0624513
0.0624513
0.0624522
0.062452
0.0624527
0.0624507
0.0624471
0.0624376
0.062419
0.0623975
0.0623077
0.0623291
0.0623472
0.0623564
0.0623599
0.0623619
0.0623612
0.0623613
0.0623604
0.0623604
0.0623598
0.0623598
0.0623595
0.0623595
0.0623593
0.0623594
0.0623592
0.0623593
0.0623592
0.0623593
0.0623592
0.0623592
0.0623592
0.0623592
0.0623592
0.0623592
0.0623592
0.0623592
0.0623592
0.0623592
0.0623593
0.0623592
0.0623593
0.0623592
0.0623594
0.0623593
0.0623595
0.0623595
0.0623598
0.0623598
0.0623604
0.0623604
0.0623613
0.0623612
0.0623619
0.0623599
0.0623564
0.0623472
0.0623291
0.0623077
0.0622196
0.0622408
0.0622585
0.0622674
0.0622708
0.0622727
0.062272
0.0622721
0.0622712
0.0622711
0.0622706
0.0622706
0.0622702
0.0622703
0.06227
0.0622701
0.06227
0.06227
0.0622699
0.06227
0.0622699
0.06227
0.0622699
0.0622699
0.0622699
0.0622699
0.0622699
0.0622699
0.06227
0.0622699
0.06227
0.0622699
0.06227
0.06227
0.0622701
0.06227
0.0622703
0.0622702
0.0622706
0.0622706
0.0622711
0.0622712
0.0622721
0.062272
0.0622727
0.0622708
0.0622674
0.0622585
0.0622408
0.0622196
0.0621332
0.0621542
0.0621714
0.06218
0.0621832
0.0621851
0.0621843
0.0621844
0.0621835
0.0621835
0.0621829
0.0621829
0.0621825
0.0621826
0.0621824
0.0621824
0.0621823
0.0621823
0.0621823
0.0621823
0.0621822
0.0621823
0.0621822
0.0621822
0.0621822
0.0621822
0.0621822
0.0621822
0.0621823
0.0621822
0.0621823
0.0621823
0.0621823
0.0621823
0.0621824
0.0621824
0.0621826
0.0621826
0.0621829
0.0621829
0.0621835
0.0621835
0.0621844
0.0621843
0.0621851
0.0621832
0.06218
0.0621713
0.0621542
0.0621332
0.0620483
0.0620691
0.0620858
0.0620941
0.0620972
0.062099
0.0620983
0.0620983
0.0620974
0.0620973
0.0620968
0.0620968
0.0620964
0.0620964
0.0620962
0.0620963
0.0620961
0.0620962
0.0620961
0.0620962
0.0620961
0.0620961
0.0620961
0.0620961
0.0620961
0.0620961
0.0620961
0.0620961
0.0620961
0.0620961
0.0620962
0.0620961
0.0620962
0.0620961
0.0620963
0.0620962
0.0620964
0.0620964
0.0620968
0.0620968
0.0620973
0.0620974
0.0620983
0.0620983
0.062099
0.0620972
0.0620941
0.0620858
0.0620691
0.0620483
0.061965
0.0619855
0.0620017
0.0620098
0.0620128
0.0620144
0.0620137
0.0620137
0.0620128
0.0620127
0.0620122
0.0620121
0.0620118
0.0620118
0.0620116
0.0620116
0.0620115
0.0620116
0.0620115
0.0620115
0.0620115
0.0620115
0.0620115
0.0620115
0.0620115
0.0620115
0.0620115
0.0620115
0.0620115
0.0620115
0.0620115
0.0620115
0.0620116
0.0620115
0.0620116
0.0620116
0.0620118
0.0620118
0.0620121
0.0620122
0.0620127
0.0620128
0.0620137
0.0620137
0.0620144
0.0620128
0.0620098
0.0620017
0.0619855
0.061965
0.0618832
0.0619033
0.0619191
0.0619269
0.0619297
0.0619313
0.0619306
0.0619306
0.0619297
0.0619296
0.061929
0.061929
0.0619286
0.0619286
0.0619284
0.0619285
0.0619283
0.0619284
0.0619283
0.0619283
0.0619283
0.0619283
0.0619283
0.0619283
0.0619283
0.0619283
0.0619283
0.0619283
0.0619283
0.0619283
0.0619283
0.0619283
0.0619284
0.0619283
0.0619285
0.0619284
0.0619286
0.0619286
0.061929
0.061929
0.0619296
0.0619297
0.0619306
0.0619306
0.0619313
0.0619297
0.0619269
0.0619191
0.0619033
0.0618832
0.0618029
0.0618226
0.0618379
0.0618455
0.0618482
0.0618497
0.0618489
0.0618489
0.061848
0.0618478
0.0618473
0.0618472
0.0618469
0.0618469
0.0618467
0.0618467
0.0618466
0.0618466
0.0618466
0.0618466
0.0618465
0.0618466
0.0618465
0.0618466
0.0618465
0.0618465
0.0618466
0.0618465
0.0618466
0.0618465
0.0618466
0.0618466
0.0618466
0.0618466
0.0618467
0.0618467
0.0618469
0.0618469
0.0618472
0.0618473
0.0618478
0.061848
0.0618489
0.0618489
0.0618497
0.0618482
0.0618455
0.0618379
0.0618226
0.0618029
0.0617241
0.0617433
0.0617581
0.0617654
0.061768
0.0617694
0.0617686
0.0617685
0.0617677
0.0617675
0.061767
0.0617669
0.0617666
0.0617666
0.0617663
0.0617664
0.0617662
0.0617663
0.0617662
0.0617663
0.0617662
0.0617662
0.0617662
0.0617662
0.0617662
0.0617662
0.0617662
0.0617662
0.0617662
0.0617662
0.0617663
0.0617662
0.0617663
0.0617662
0.0617664
0.0617663
0.0617666
0.0617666
0.0617669
0.061767
0.0617675
0.0617677
0.0617685
0.0617686
0.0617694
0.061768
0.0617654
0.0617581
0.0617433
0.0617241
0.0616466
0.0616653
0.0616797
0.0616868
0.0616891
0.0616905
0.0616897
0.0616896
0.0616887
0.0616885
0.061688
0.0616879
0.0616876
0.0616876
0.0616874
0.0616874
0.0616873
0.0616873
0.0616872
0.0616873
0.0616872
0.0616872
0.0616872
0.0616872
0.0616872
0.0616872
0.0616872
0.0616872
0.0616872
0.0616872
0.0616873
0.0616872
0.0616873
0.0616873
0.0616874
0.0616874
0.0616876
0.0616876
0.0616879
0.061688
0.0616885
0.0616887
0.0616896
0.0616897
0.0616905
0.0616891
0.0616868
0.0616797
0.0616653
0.0616466
0.0615705
0.0615887
0.0616026
0.0616094
0.0616116
0.0616129
0.0616121
0.0616119
0.0616111
0.0616109
0.0616103
0.0616103
0.0616099
0.0616099
0.0616097
0.0616097
0.0616096
0.0616097
0.0616096
0.0616096
0.0616096
0.0616096
0.0616096
0.0616096
0.0616096
0.0616096
0.0616096
0.0616096
0.0616096
0.0616096
0.0616096
0.0616096
0.0616097
0.0616096
0.0616097
0.0616097
0.0616099
0.0616099
0.0616103
0.0616103
0.0616109
0.0616111
0.0616119
0.0616121
0.0616129
0.0616116
0.0616094
0.0616026
0.0615887
0.0615705
0.0614957
0.0615134
0.0615268
0.0615334
0.0615354
0.0615366
0.0615358
0.0615356
0.0615348
0.0615346
0.061534
0.0615339
0.0615336
0.0615336
0.0615334
0.0615334
0.0615333
0.0615333
0.0615332
0.0615333
0.0615332
0.0615332
0.0615332
0.0615332
0.0615332
0.0615332
0.0615332
0.0615332
0.0615332
0.0615332
0.0615333
0.0615332
0.0615333
0.0615333
0.0615334
0.0615334
0.0615336
0.0615336
0.0615339
0.061534
0.0615346
0.0615348
0.0615356
0.0615358
0.0615366
0.0615354
0.0615334
0.0615268
0.0615134
0.0614957
0.0614222
0.0614393
0.0614522
0.0614586
0.0614605
0.0614616
0.0614607
0.0614606
0.0614597
0.0614595
0.0614589
0.0614588
0.0614585
0.0614585
0.0614583
0.0614583
0.0614582
0.0614582
0.0614582
0.0614582
0.0614581
0.0614582
0.0614581
0.0614581
0.0614581
0.0614581
0.0614581
0.0614581
0.0614582
0.0614581
0.0614582
0.0614582
0.0614582
0.0614582
0.0614583
0.0614583
0.0614585
0.0614585
0.0614588
0.0614589
0.0614595
0.0614597
0.0614606
0.0614607
0.0614616
0.0614605
0.0614586