/*--------------------------------*- C++ -*----------------------------------*\
| =========                 |                                                 |
| \\      /  F ield         | OpenFOAM: The Open Source CFD Toolbox           |
|  \\    /   O peration     | Version:  dev                                   |
|   \\  /    A nd           | Web:      www.OpenFOAM.org                      |
|    \\/     M anipulation  |                                                 |
\*---------------------------------------------------------------------------*/
FoamFile
{
    version     2.0;
    format      ascii;
    class       volScalarField;
    location    "0.1";
    object      i-C4H5;
}
// * * * * * * * * * * * * * * * * * * * * * * * * * * * * * * * * * * * * * //

dimensions      [0 0 0 0 0 0 0];

internalField   nonuniform List<scalar> 
8000
(
1.00265e-06
1.00434e-06
1.00561e-06
1.00617e-06
1.00618e-06
1.00633e-06
1.00625e-06
1.00633e-06
1.00626e-06
1.00632e-06
1.00627e-06
1.00631e-06
1.00628e-06
1.0063e-06
1.00628e-06
1.0063e-06
1.00628e-06
1.00629e-06
1.00628e-06
1.00629e-06
1.00629e-06
1.00629e-06
1.00629e-06
1.00629e-06
1.00629e-06
1.00629e-06
1.00629e-06
1.00629e-06
1.00629e-06
1.00629e-06
1.00629e-06
1.00628e-06
1.00629e-06
1.00628e-06
1.0063e-06
1.00628e-06
1.0063e-06
1.00628e-06
1.00631e-06
1.00627e-06
1.00632e-06
1.00626e-06
1.00633e-06
1.00625e-06
1.00633e-06
1.00618e-06
1.00617e-06
1.00561e-06
1.00434e-06
1.00265e-06
4.48689e-06
4.49042e-06
4.49287e-06
4.49396e-06
4.49367e-06
4.4941e-06
4.49378e-06
4.49405e-06
4.49382e-06
4.49401e-06
4.49385e-06
4.49398e-06
4.49388e-06
4.49396e-06
4.49389e-06
4.49395e-06
4.4939e-06
4.49394e-06
4.49391e-06
4.49393e-06
4.49391e-06
4.49393e-06
4.49392e-06
4.49392e-06
4.49392e-06
4.49392e-06
4.49392e-06
4.49392e-06
4.49393e-06
4.49391e-06
4.49393e-06
4.49391e-06
4.49394e-06
4.4939e-06
4.49395e-06
4.49389e-06
4.49396e-06
4.49388e-06
4.49398e-06
4.49385e-06
4.49401e-06
4.49382e-06
4.49405e-06
4.49378e-06
4.49409e-06
4.49367e-06
4.49396e-06
4.49287e-06
4.49042e-06
4.48689e-06
2.73676e-06
2.73627e-06
2.73469e-06
2.7339e-06
2.7333e-06
2.73335e-06
2.73317e-06
2.73328e-06
2.73318e-06
2.73326e-06
2.7332e-06
2.73325e-06
2.73321e-06
2.73325e-06
2.73322e-06
2.73324e-06
2.73322e-06
2.73324e-06
2.73323e-06
2.73324e-06
2.73323e-06
2.73324e-06
2.73323e-06
2.73323e-06
2.73323e-06
2.73323e-06
2.73323e-06
2.73323e-06
2.73324e-06
2.73323e-06
2.73324e-06
2.73323e-06
2.73324e-06
2.73322e-06
2.73324e-06
2.73322e-06
2.73325e-06
2.73321e-06
2.73325e-06
2.7332e-06
2.73326e-06
2.73318e-06
2.73328e-06
2.73317e-06
2.73335e-06
2.7333e-06
2.7339e-06
2.73469e-06
2.73627e-06
2.73676e-06
1.25539e-06
1.25511e-06
1.25435e-06
1.2539e-06
1.25353e-06
1.25357e-06
1.25345e-06
1.25352e-06
1.25345e-06
1.25351e-06
1.25347e-06
1.25351e-06
1.25347e-06
1.2535e-06
1.25348e-06
1.2535e-06
1.25348e-06
1.2535e-06
1.25349e-06
1.25349e-06
1.25349e-06
1.25349e-06
1.25349e-06
1.25349e-06
1.25349e-06
1.25349e-06
1.25349e-06
1.25349e-06
1.25349e-06
1.25349e-06
1.25349e-06
1.25349e-06
1.2535e-06
1.25348e-06
1.2535e-06
1.25348e-06
1.2535e-06
1.25347e-06
1.25351e-06
1.25347e-06
1.25351e-06
1.25345e-06
1.25352e-06
1.25345e-06
1.25357e-06
1.25353e-06
1.2539e-06
1.25435e-06
1.25511e-06
1.25539e-06
5.56755e-07
5.56786e-07
5.56685e-07
5.56541e-07
5.56346e-07
5.56393e-07
5.56311e-07
5.56366e-07
5.56317e-07
5.56358e-07
5.56325e-07
5.56353e-07
5.56331e-07
5.56349e-07
5.56335e-07
5.56347e-07
5.56337e-07
5.56345e-07
5.56339e-07
5.56344e-07
5.5634e-07
5.56343e-07
5.56341e-07
5.56342e-07
5.56341e-07
5.56341e-07
5.56342e-07
5.56341e-07
5.56343e-07
5.5634e-07
5.56344e-07
5.56339e-07
5.56345e-07
5.56337e-07
5.56347e-07
5.56335e-07
5.56349e-07
5.56331e-07
5.56353e-07
5.56325e-07
5.56358e-07
5.56317e-07
5.56366e-07
5.56311e-07
5.56393e-07
5.56346e-07
5.5654e-07
5.56685e-07
5.56786e-07
5.56755e-07
2.50784e-07
2.50898e-07
2.5101e-07
2.50987e-07
2.50888e-07
2.50926e-07
2.50875e-07
2.50911e-07
2.50879e-07
2.50905e-07
2.50884e-07
2.50902e-07
2.50887e-07
2.50899e-07
2.5089e-07
2.50898e-07
2.50891e-07
2.50896e-07
2.50892e-07
2.50895e-07
2.50893e-07
2.50895e-07
2.50893e-07
2.50894e-07
2.50894e-07
2.50894e-07
2.50894e-07
2.50893e-07
2.50895e-07
2.50893e-07
2.50895e-07
2.50892e-07
2.50896e-07
2.50891e-07
2.50898e-07
2.5089e-07
2.50899e-07
2.50887e-07
2.50902e-07
2.50884e-07
2.50905e-07
2.50879e-07
2.50911e-07
2.50875e-07
2.50926e-07
2.50888e-07
2.50987e-07
2.5101e-07
2.50898e-07
2.50784e-07
1.15222e-07
1.15323e-07
1.15459e-07
1.15471e-07
1.15421e-07
1.15447e-07
1.15417e-07
1.15439e-07
1.15419e-07
1.15435e-07
1.15422e-07
1.15433e-07
1.15424e-07
1.15431e-07
1.15425e-07
1.1543e-07
1.15426e-07
1.15429e-07
1.15427e-07
1.15429e-07
1.15427e-07
1.15428e-07
1.15427e-07
1.15428e-07
1.15428e-07
1.15428e-07
1.15428e-07
1.15427e-07
1.15428e-07
1.15427e-07
1.15429e-07
1.15427e-07
1.15429e-07
1.15426e-07
1.1543e-07
1.15425e-07
1.15431e-07
1.15424e-07
1.15433e-07
1.15422e-07
1.15435e-07
1.15419e-07
1.15439e-07
1.15416e-07
1.15447e-07
1.15421e-07
1.15471e-07
1.15459e-07
1.15324e-07
1.15222e-07
5.42507e-08
5.43214e-08
5.44279e-08
5.44446e-08
5.44195e-08
5.44354e-08
5.44182e-08
5.44312e-08
5.44196e-08
5.44289e-08
5.44212e-08
5.44276e-08
5.44224e-08
5.44265e-08
5.44231e-08
5.4426e-08
5.44235e-08
5.44255e-08
5.4424e-08
5.44252e-08
5.44243e-08
5.4425e-08
5.44244e-08
5.44248e-08
5.44246e-08
5.44246e-08
5.44248e-08
5.44244e-08
5.4425e-08
5.44243e-08
5.44252e-08
5.4424e-08
5.44255e-08
5.44235e-08
5.4426e-08
5.44231e-08
5.44266e-08
5.44224e-08
5.44276e-08
5.44212e-08
5.44289e-08
5.44195e-08
5.44312e-08
5.44182e-08
5.44354e-08
5.44195e-08
5.44446e-08
5.44279e-08
5.43214e-08
5.42506e-08
2.62736e-08
2.6318e-08
2.63902e-08
2.64036e-08
2.6391e-08
2.64004e-08
2.63907e-08
2.63981e-08
2.63914e-08
2.63968e-08
2.63924e-08
2.6396e-08
2.6393e-08
2.63954e-08
2.63934e-08
2.63951e-08
2.63937e-08
2.63948e-08
2.6394e-08
2.63946e-08
2.63941e-08
2.63945e-08
2.63942e-08
2.63944e-08
2.63943e-08
2.63943e-08
2.63944e-08
2.63942e-08
2.63945e-08
2.63941e-08
2.63946e-08
2.63939e-08
2.63948e-08
2.63937e-08
2.63951e-08
2.63934e-08
2.63954e-08
2.6393e-08
2.6396e-08
2.63924e-08
2.63968e-08
2.63914e-08
2.63981e-08
2.63907e-08
2.64004e-08
2.6391e-08
2.64036e-08
2.63902e-08
2.6318e-08
2.62736e-08
1.33087e-08
1.33359e-08
1.33829e-08
1.33925e-08
1.3386e-08
1.33916e-08
1.3386e-08
1.33903e-08
1.33864e-08
1.33895e-08
1.33869e-08
1.3389e-08
1.33873e-08
1.33887e-08
1.33875e-08
1.33885e-08
1.33877e-08
1.33883e-08
1.33878e-08
1.33882e-08
1.33879e-08
1.33881e-08
1.3388e-08
1.33881e-08
1.3388e-08
1.3388e-08
1.33881e-08
1.3388e-08
1.33881e-08
1.33879e-08
1.33882e-08
1.33878e-08
1.33883e-08
1.33877e-08
1.33885e-08
1.33875e-08
1.33887e-08
1.33873e-08
1.3389e-08
1.33869e-08
1.33895e-08
1.33864e-08
1.33903e-08
1.3386e-08
1.33916e-08
1.3386e-08
1.33925e-08
1.33829e-08
1.33359e-08
1.33087e-08
7.14175e-09
7.1591e-09
7.19e-09
7.19678e-09
7.19339e-09
7.19678e-09
7.19345e-09
7.19602e-09
7.19366e-09
7.19552e-09
7.19397e-09
7.19524e-09
7.19419e-09
7.19501e-09
7.19433e-09
7.1949e-09
7.19441e-09
7.19481e-09
7.19451e-09
7.19475e-09
7.19455e-09
7.19469e-09
7.19458e-09
7.19465e-09
7.19462e-09
7.19462e-09
7.19465e-09
7.19458e-09
7.1947e-09
7.19455e-09
7.19475e-09
7.19451e-09
7.19481e-09
7.19441e-09
7.1949e-09
7.19433e-09
7.19502e-09
7.19419e-09
7.19523e-09
7.19397e-09
7.19552e-09
7.19366e-09
7.19602e-09
7.19345e-09
7.19677e-09
7.19339e-09
7.19677e-09
7.19e-09
7.15911e-09
7.14175e-09
4.01257e-09
4.023e-09
4.04163e-09
4.04585e-09
4.04403e-09
4.04597e-09
4.04405e-09
4.04552e-09
4.04415e-09
4.04522e-09
4.04433e-09
4.04506e-09
4.04446e-09
4.04493e-09
4.04454e-09
4.04486e-09
4.04458e-09
4.04481e-09
4.04464e-09
4.04478e-09
4.04467e-09
4.04475e-09
4.04468e-09
4.04472e-09
4.04471e-09
4.04471e-09
4.04472e-09
4.04468e-09
4.04475e-09
4.04467e-09
4.04478e-09
4.04464e-09
4.04481e-09
4.04458e-09
4.04487e-09
4.04453e-09
4.04493e-09
4.04446e-09
4.04506e-09
4.04433e-09
4.04522e-09
4.04415e-09
4.04552e-09
4.04405e-09
4.04597e-09
4.04403e-09
4.04584e-09
4.04164e-09
4.023e-09
4.01257e-09
2.46474e-09
2.47255e-09
2.48587e-09
2.48911e-09
2.488e-09
2.48933e-09
2.48802e-09
2.48902e-09
2.48808e-09
2.48881e-09
2.4882e-09
2.4887e-09
2.48829e-09
2.48861e-09
2.48834e-09
2.48856e-09
2.48837e-09
2.48853e-09
2.48841e-09
2.48851e-09
2.48843e-09
2.48849e-09
2.48844e-09
2.48847e-09
2.48846e-09
2.48846e-09
2.48847e-09
2.48844e-09
2.48849e-09
2.48843e-09
2.48851e-09
2.48841e-09
2.48853e-09
2.48837e-09
2.48857e-09
2.48834e-09
2.48861e-09
2.48829e-09
2.48869e-09
2.4882e-09
2.48881e-09
2.48808e-09
2.48902e-09
2.48802e-09
2.48933e-09
2.488e-09
2.48911e-09
2.48587e-09
2.47255e-09
2.46474e-09
1.6279e-09
1.63126e-09
1.63879e-09
1.64064e-09
1.64031e-09
1.64103e-09
1.64039e-09
1.6409e-09
1.64041e-09
1.64078e-09
1.64047e-09
1.64072e-09
1.64051e-09
1.64067e-09
1.64053e-09
1.64064e-09
1.64054e-09
1.64062e-09
1.64056e-09
1.64061e-09
1.64057e-09
1.6406e-09
1.64058e-09
1.64059e-09
1.64059e-09
1.64059e-09
1.64059e-09
1.64058e-09
1.6406e-09
1.64057e-09
1.64061e-09
1.64056e-09
1.64062e-09
1.64054e-09
1.64064e-09
1.64053e-09
1.64067e-09
1.64051e-09
1.64072e-09
1.64047e-09
1.64078e-09
1.64041e-09
1.6409e-09
1.64039e-09
1.64103e-09
1.64031e-09
1.64064e-09
1.63879e-09
1.63126e-09
1.6279e-09
1.13992e-09
1.14242e-09
1.14769e-09
1.14907e-09
1.1489e-09
1.14939e-09
1.14896e-09
1.1493e-09
1.14897e-09
1.14922e-09
1.149e-09
1.14917e-09
1.14903e-09
1.14914e-09
1.14905e-09
1.14912e-09
1.14906e-09
1.14911e-09
1.14907e-09
1.1491e-09
1.14908e-09
1.14909e-09
1.14908e-09
1.14909e-09
1.14908e-09
1.14908e-09
1.14909e-09
1.14908e-09
1.14909e-09
1.14908e-09
1.1491e-09
1.14907e-09
1.14911e-09
1.14906e-09
1.14912e-09
1.14905e-09
1.14914e-09
1.14903e-09
1.14917e-09
1.149e-09
1.14922e-09
1.14897e-09
1.1493e-09
1.14896e-09
1.14939e-09
1.1489e-09
1.14906e-09
1.14769e-09
1.14242e-09
1.13992e-09
8.57323e-10
8.59398e-10
8.63472e-10
8.64603e-10
8.6453e-10
8.64901e-10
8.64582e-10
8.64834e-10
8.64588e-10
8.64772e-10
8.64613e-10
8.64738e-10
8.64632e-10
8.64713e-10
8.64644e-10
8.647e-10
8.6465e-10
8.64691e-10
8.6466e-10
8.64684e-10
8.64665e-10
8.64679e-10
8.64667e-10
8.64674e-10
8.64671e-10
8.64671e-10
8.64674e-10
8.64667e-10
8.64679e-10
8.64665e-10
8.64684e-10
8.6466e-10
8.64691e-10
8.6465e-10
8.647e-10
8.64643e-10
8.64713e-10
8.64632e-10
8.64737e-10
8.64613e-10
8.64772e-10
8.64588e-10
8.64834e-10
8.64582e-10
8.649e-10
8.6453e-10
8.64603e-10
8.63472e-10
8.59398e-10
8.57323e-10
6.72259e-10
6.74273e-10
6.77783e-10
6.78926e-10
6.78978e-10
6.79305e-10
6.7906e-10
6.79258e-10
6.79059e-10
6.79201e-10
6.79073e-10
6.79171e-10
6.79086e-10
6.79149e-10
6.79093e-10
6.79137e-10
6.79097e-10
6.7913e-10
6.79105e-10
6.79125e-10
6.79109e-10
6.7912e-10
6.79111e-10
6.79116e-10
6.79114e-10
6.79114e-10
6.79116e-10
6.79111e-10
6.7912e-10
6.79109e-10
6.79125e-10
6.79105e-10
6.7913e-10
6.79098e-10
6.79138e-10
6.79093e-10
6.79149e-10
6.79086e-10
6.7917e-10
6.79074e-10
6.79202e-10
6.79059e-10
6.79258e-10
6.7906e-10
6.79304e-10
6.78978e-10
6.78925e-10
6.77783e-10
6.74273e-10
6.72259e-10
5.52714e-10
5.54498e-10
5.57379e-10
5.5837e-10
5.58457e-10
5.58724e-10
5.58535e-10
5.5869e-10
5.58532e-10
5.58643e-10
5.58542e-10
5.58617e-10
5.5855e-10
5.58599e-10
5.58556e-10
5.5859e-10
5.58559e-10
5.58584e-10
5.58565e-10
5.5858e-10
5.58567e-10
5.58576e-10
5.58569e-10
5.58573e-10
5.58571e-10
5.58571e-10
5.58573e-10
5.58569e-10
5.58576e-10
5.58567e-10
5.5858e-10
5.58565e-10
5.58584e-10
5.58559e-10
5.5859e-10
5.58555e-10
5.586e-10
5.5855e-10
5.58617e-10
5.58542e-10
5.58643e-10
5.58532e-10
5.5869e-10
5.58535e-10
5.58724e-10
5.58456e-10
5.5837e-10
5.57379e-10
5.54498e-10
5.52714e-10
4.66378e-10
4.68172e-10
4.70808e-10
4.71788e-10
4.71884e-10
4.72134e-10
4.71961e-10
4.72101e-10
4.71957e-10
4.72058e-10
4.71965e-10
4.72034e-10
4.71973e-10
4.72018e-10
4.71978e-10
4.7201e-10
4.71981e-10
4.72005e-10
4.71987e-10
4.72001e-10
4.71989e-10
4.71997e-10
4.7199e-10
4.71995e-10
4.71993e-10
4.71993e-10
4.71995e-10
4.7199e-10
4.71997e-10
4.71989e-10
4.72001e-10
4.71987e-10
4.72005e-10
4.71981e-10
4.7201e-10
4.71978e-10
4.72018e-10
4.71973e-10
4.72034e-10
4.71966e-10
4.72058e-10
4.71957e-10
4.72101e-10
4.71961e-10
4.72134e-10
4.71884e-10
4.71788e-10
4.70807e-10
4.68172e-10
4.66378e-10
4.0376e-10
4.05408e-10
4.07617e-10
4.08479e-10
4.08587e-10
4.08798e-10
4.0866e-10
4.08773e-10
4.08655e-10
4.08735e-10
4.0866e-10
4.08716e-10
4.08666e-10
4.08702e-10
4.0867e-10
4.08695e-10
4.08672e-10
4.08691e-10
4.08676e-10
4.08687e-10
4.08678e-10
4.08685e-10
4.08679e-10
4.08682e-10
4.08681e-10
4.08681e-10
4.08683e-10
4.08679e-10
4.08685e-10
4.08678e-10
4.08687e-10
4.08676e-10
4.08691e-10
4.08672e-10
4.08695e-10
4.08669e-10
4.08702e-10
4.08666e-10
4.08715e-10
4.08661e-10
4.08736e-10
4.08655e-10
4.08773e-10
4.0866e-10
4.08798e-10
4.08587e-10
4.08479e-10
4.07617e-10
4.05408e-10
4.0376e-10
3.58584e-10
3.60179e-10
3.62114e-10
3.62903e-10
3.63021e-10
3.63208e-10
3.63092e-10
3.63187e-10
3.63087e-10
3.63154e-10
3.6309e-10
3.63136e-10
3.63094e-10
3.63124e-10
3.63097e-10
3.63118e-10
3.63098e-10
3.63114e-10
3.63102e-10
3.63112e-10
3.63104e-10
3.63109e-10
3.63104e-10
3.63107e-10
3.63106e-10
3.63106e-10
3.63107e-10
3.63104e-10
3.63109e-10
3.63104e-10
3.63112e-10
3.63102e-10
3.63114e-10
3.63098e-10
3.63118e-10
3.63097e-10
3.63124e-10
3.63094e-10
3.63136e-10
3.6309e-10
3.63154e-10
3.63087e-10
3.63187e-10
3.63092e-10
3.63208e-10
3.63021e-10
3.62903e-10
3.62114e-10
3.60179e-10
3.58584e-10
3.2392e-10
3.25509e-10
3.27235e-10
3.27965e-10
3.28088e-10
3.28256e-10
3.28156e-10
3.28239e-10
3.28151e-10
3.28209e-10
3.28153e-10
3.28193e-10
3.28156e-10
3.28182e-10
3.28158e-10
3.28177e-10
3.28159e-10
3.28173e-10
3.28163e-10
3.28171e-10
3.28164e-10
3.28169e-10
3.28165e-10
3.28167e-10
3.28166e-10
3.28166e-10
3.28167e-10
3.28165e-10
3.28169e-10
3.28164e-10
3.28171e-10
3.28163e-10
3.28173e-10
3.28159e-10
3.28177e-10
3.28158e-10
3.28182e-10
3.28156e-10
3.28193e-10
3.28153e-10
3.28209e-10
3.28151e-10
3.28239e-10
3.28156e-10
3.28256e-10
3.28088e-10
3.27965e-10
3.27235e-10
3.2551e-10
3.2392e-10
2.9676e-10
2.97596e-10
2.99055e-10
2.99709e-10
2.99853e-10
3.00004e-10
2.99928e-10
2.99993e-10
2.9992e-10
2.99965e-10
2.99918e-10
2.99949e-10
2.99918e-10
2.99938e-10
2.99918e-10
2.99933e-10
2.99918e-10
2.9993e-10
2.99921e-10
2.99927e-10
2.99922e-10
2.99925e-10
2.99922e-10
2.99924e-10
2.99923e-10
2.99923e-10
2.99924e-10
2.99922e-10
2.99925e-10
2.99922e-10
2.99927e-10
2.99921e-10
2.9993e-10
2.99919e-10
2.99933e-10
2.99918e-10
2.99938e-10
2.99918e-10
2.99948e-10
2.99918e-10
2.99965e-10
2.9992e-10
2.99993e-10
2.99928e-10
3.00003e-10
2.99853e-10
2.99709e-10
2.99055e-10
2.97596e-10
2.9676e-10
2.75106e-10
2.7594e-10
2.77261e-10
2.77874e-10
2.78019e-10
2.78158e-10
2.78092e-10
2.78149e-10
2.78085e-10
2.78123e-10
2.78081e-10
2.78108e-10
2.78081e-10
2.78098e-10
2.7808e-10
2.78093e-10
2.7808e-10
2.7809e-10
2.78082e-10
2.78088e-10
2.78083e-10
2.78086e-10
2.78083e-10
2.78085e-10
2.78084e-10
2.78084e-10
2.78085e-10
2.78083e-10
2.78086e-10
2.78083e-10
2.78088e-10
2.78082e-10
2.7809e-10
2.7808e-10
2.78093e-10
2.7808e-10
2.78098e-10
2.78081e-10
2.78108e-10
2.78082e-10
2.78123e-10
2.78085e-10
2.78149e-10
2.78092e-10
2.78158e-10
2.78019e-10
2.77874e-10
2.77261e-10
2.7594e-10
2.75106e-10
2.56901e-10
2.57743e-10
2.58981e-10
2.59579e-10
2.59732e-10
2.59865e-10
2.59806e-10
2.59857e-10
2.59798e-10
2.59831e-10
2.59793e-10
2.59816e-10
2.59791e-10
2.59807e-10
2.59791e-10
2.59802e-10
2.5979e-10
2.59799e-10
2.59792e-10
2.59797e-10
2.59793e-10
2.59796e-10
2.59793e-10
2.59795e-10
2.59794e-10
2.59794e-10
2.59795e-10
2.59793e-10
2.59796e-10
2.59793e-10
2.59797e-10
2.59792e-10
2.59799e-10
2.5979e-10
2.59802e-10
2.59791e-10
2.59807e-10
2.59791e-10
2.59816e-10
2.59793e-10
2.59831e-10
2.59798e-10
2.59857e-10
2.59806e-10
2.59865e-10
2.59731e-10
2.59579e-10
2.58981e-10
2.57743e-10
2.56901e-10
2.41912e-10
2.42738e-10
2.43868e-10
2.44429e-10
2.44581e-10
2.44704e-10
2.44654e-10
2.44698e-10
2.44645e-10
2.44673e-10
2.44639e-10
2.44659e-10
2.44637e-10
2.4465e-10
2.44636e-10
2.44646e-10
2.44635e-10
2.44643e-10
2.44637e-10
2.44641e-10
2.44637e-10
2.4464e-10
2.44637e-10
2.44639e-10
2.44638e-10
2.44638e-10
2.44639e-10
2.44637e-10
2.4464e-10
2.44637e-10
2.44641e-10
2.44637e-10
2.44643e-10
2.44635e-10
2.44646e-10
2.44636e-10
2.4465e-10
2.44637e-10
2.44659e-10
2.44639e-10
2.44674e-10
2.44645e-10
2.44698e-10
2.44654e-10
2.44704e-10
2.44581e-10
2.44429e-10
2.43868e-10
2.42738e-10
2.41912e-10
2.29392e-10
2.30204e-10
2.31245e-10
2.31773e-10
2.31924e-10
2.3204e-10
2.31995e-10
2.32035e-10
2.31986e-10
2.32011e-10
2.3198e-10
2.31997e-10
2.31977e-10
2.31989e-10
2.31976e-10
2.31984e-10
2.31975e-10
2.31982e-10
2.31976e-10
2.3198e-10
2.31977e-10
2.31979e-10
2.31977e-10
2.31978e-10
2.31977e-10
2.31977e-10
2.31978e-10
2.31977e-10
2.31979e-10
2.31977e-10
2.3198e-10
2.31976e-10
2.31982e-10
2.31975e-10
2.31984e-10
2.31976e-10
2.31989e-10
2.31977e-10
2.31997e-10
2.3198e-10
2.32011e-10
2.31986e-10
2.32035e-10
2.31995e-10
2.3204e-10
2.31924e-10
2.31773e-10
2.31244e-10
2.30204e-10
2.29392e-10
2.18794e-10
2.19592e-10
2.20559e-10
2.21059e-10
2.21209e-10
2.21318e-10
2.21279e-10
2.21314e-10
2.21269e-10
2.21291e-10
2.21262e-10
2.21277e-10
2.21259e-10
2.21269e-10
2.21257e-10
2.21265e-10
2.21256e-10
2.21263e-10
2.21257e-10
2.21261e-10
2.21258e-10
2.2126e-10
2.21258e-10
2.21259e-10
2.21258e-10
2.21258e-10
2.21259e-10
2.21258e-10
2.2126e-10
2.21258e-10
2.21261e-10
2.21257e-10
2.21263e-10
2.21257e-10
2.21265e-10
2.21257e-10
2.21269e-10
2.21259e-10
2.21277e-10
2.21263e-10
2.21291e-10
2.21269e-10
2.21314e-10
2.21279e-10
2.21318e-10
2.21209e-10
2.21059e-10
2.20559e-10
2.19592e-10
2.18794e-10
2.09708e-10
2.10491e-10
2.11398e-10
2.11873e-10
2.12021e-10
2.12125e-10
2.1209e-10
2.12121e-10
2.1208e-10
2.12098e-10
2.12072e-10
2.12085e-10
2.12068e-10
2.12077e-10
2.12066e-10
2.12073e-10
2.12066e-10
2.12071e-10
2.12066e-10
2.1207e-10
2.12067e-10
2.12068e-10
2.12067e-10
2.12068e-10
2.12067e-10
2.12067e-10
2.12068e-10
2.12067e-10
2.12068e-10
2.12067e-10
2.1207e-10
2.12066e-10
2.12071e-10
2.12066e-10
2.12073e-10
2.12066e-10
2.12077e-10
2.12068e-10
2.12085e-10
2.12073e-10
2.12099e-10
2.1208e-10
2.12121e-10
2.1209e-10
2.12124e-10
2.12021e-10
2.11873e-10
2.11398e-10
2.10491e-10
2.09708e-10
2.01824e-10
2.02593e-10
2.03449e-10
2.03901e-10
2.04048e-10
2.04146e-10
2.04115e-10
2.04143e-10
2.04105e-10
2.04121e-10
2.04096e-10
2.04108e-10
2.04092e-10
2.041e-10
2.0409e-10
2.04096e-10
2.04089e-10
2.04094e-10
2.04089e-10
2.04092e-10
2.0409e-10
2.04091e-10
2.0409e-10
2.0409e-10
2.0409e-10
2.0409e-10
2.0409e-10
2.0409e-10
2.04091e-10
2.0409e-10
2.04092e-10
2.04089e-10
2.04094e-10
2.04089e-10
2.04096e-10
2.0409e-10
2.041e-10
2.04092e-10
2.04108e-10
2.04097e-10
2.04121e-10
2.04105e-10
2.04143e-10
2.04115e-10
2.04146e-10
2.04048e-10
2.03901e-10
2.03449e-10
2.02593e-10
2.01824e-10
1.94903e-10
1.95658e-10
1.96471e-10
1.96903e-10
1.97048e-10
1.97142e-10
1.97114e-10
1.97139e-10
1.97103e-10
1.97117e-10
1.97094e-10
1.97104e-10
1.97089e-10
1.97096e-10
1.97087e-10
1.97092e-10
1.97086e-10
1.9709e-10
1.97086e-10
1.97089e-10
1.97086e-10
1.97088e-10
1.97086e-10
1.97087e-10
1.97087e-10
1.97087e-10
1.97087e-10
1.97086e-10
1.97088e-10
1.97086e-10
1.97089e-10
1.97086e-10
1.9709e-10
1.97086e-10
1.97092e-10
1.97087e-10
1.97096e-10
1.97089e-10
1.97104e-10
1.97094e-10
1.97117e-10
1.97103e-10
1.97139e-10
1.97114e-10
1.97142e-10
1.97047e-10
1.96903e-10
1.96471e-10
1.95658e-10
1.94903e-10
1.88761e-10
1.89502e-10
1.90279e-10
1.90693e-10
1.90835e-10
1.90925e-10
1.909e-10
1.90922e-10
1.90889e-10
1.90901e-10
1.90879e-10
1.90888e-10
1.90874e-10
1.9088e-10
1.90871e-10
1.90876e-10
1.9087e-10
1.90874e-10
1.9087e-10
1.90873e-10
1.9087e-10
1.90872e-10
1.9087e-10
1.90871e-10
1.9087e-10
1.9087e-10
1.90871e-10
1.9087e-10
1.90872e-10
1.9087e-10
1.90873e-10
1.9087e-10
1.90874e-10
1.9087e-10
1.90876e-10
1.90871e-10
1.9088e-10
1.90874e-10
1.90888e-10
1.90879e-10
1.90901e-10
1.90888e-10
1.90922e-10
1.909e-10
1.90925e-10
1.90835e-10
1.90693e-10
1.90279e-10
1.89502e-10
1.88761e-10
1.83254e-10
1.83982e-10
1.84727e-10
1.85124e-10
1.85264e-10
1.85351e-10
1.85327e-10
1.85348e-10
1.85316e-10
1.85326e-10
1.85306e-10
1.85313e-10
1.853e-10
1.85306e-10
1.85297e-10
1.85302e-10
1.85296e-10
1.853e-10
1.85296e-10
1.85298e-10
1.85296e-10
1.85297e-10
1.85296e-10
1.85297e-10
1.85296e-10
1.85296e-10
1.85297e-10
1.85296e-10
1.85297e-10
1.85296e-10
1.85298e-10
1.85296e-10
1.85299e-10
1.85296e-10
1.85302e-10
1.85297e-10
1.85306e-10
1.853e-10
1.85313e-10
1.85306e-10
1.85326e-10
1.85316e-10
1.85348e-10
1.85327e-10
1.85351e-10
1.85264e-10
1.85124e-10
1.84727e-10
1.83982e-10
1.83254e-10
1.78269e-10
1.78984e-10
1.79701e-10
1.80083e-10
1.8022e-10
1.80304e-10
1.80282e-10
1.80301e-10
1.8027e-10
1.80279e-10
1.80259e-10
1.80266e-10
1.80253e-10
1.80258e-10
1.8025e-10
1.80254e-10
1.80249e-10
1.80252e-10
1.80249e-10
1.80251e-10
1.80249e-10
1.8025e-10
1.80249e-10
1.80249e-10
1.80249e-10
1.80249e-10
1.80249e-10
1.80249e-10
1.8025e-10
1.80249e-10
1.80251e-10
1.80249e-10
1.80252e-10
1.80249e-10
1.80254e-10
1.8025e-10
1.80258e-10
1.80253e-10
1.80266e-10
1.80259e-10
1.80279e-10
1.8027e-10
1.803e-10
1.80282e-10
1.80304e-10
1.8022e-10
1.80083e-10
1.79701e-10
1.78984e-10
1.78269e-10
1.73717e-10
1.74418e-10
1.7511e-10
1.75478e-10
1.75613e-10
1.75694e-10
1.75673e-10
1.7569e-10
1.75661e-10
1.75668e-10
1.75649e-10
1.75655e-10
1.75643e-10
1.75648e-10
1.7564e-10
1.75643e-10
1.75638e-10
1.75641e-10
1.75638e-10
1.7564e-10
1.75638e-10
1.75639e-10
1.75638e-10
1.75639e-10
1.75638e-10
1.75638e-10
1.75639e-10
1.75638e-10
1.75639e-10
1.75638e-10
1.7564e-10
1.75638e-10
1.75641e-10
1.75638e-10
1.75643e-10
1.7564e-10
1.75648e-10
1.75643e-10
1.75655e-10
1.7565e-10
1.75668e-10
1.75661e-10
1.7569e-10
1.75673e-10
1.75694e-10
1.75613e-10
1.75478e-10
1.7511e-10
1.74418e-10
1.73717e-10
1.69526e-10
1.70213e-10
1.70882e-10
1.71238e-10
1.7137e-10
1.71448e-10
1.71428e-10
1.71443e-10
1.71415e-10
1.71422e-10
1.71403e-10
1.71408e-10
1.71397e-10
1.71401e-10
1.71393e-10
1.71397e-10
1.71392e-10
1.71395e-10
1.71391e-10
1.71393e-10
1.71391e-10
1.71392e-10
1.71391e-10
1.71392e-10
1.71391e-10
1.71391e-10
1.71392e-10
1.71391e-10
1.71392e-10
1.71391e-10
1.71393e-10
1.71391e-10
1.71395e-10
1.71392e-10
1.71397e-10
1.71393e-10
1.71401e-10
1.71397e-10
1.71408e-10
1.71403e-10
1.71422e-10
1.71415e-10
1.71443e-10
1.71428e-10
1.71448e-10
1.7137e-10
1.71238e-10
1.70882e-10
1.70213e-10
1.69526e-10
1.6564e-10
1.66311e-10
1.6696e-10
1.67304e-10
1.67432e-10
1.67509e-10
1.67489e-10
1.67503e-10
1.67476e-10
1.67481e-10
1.67463e-10
1.67468e-10
1.67456e-10
1.6746e-10
1.67452e-10
1.67456e-10
1.67451e-10
1.67453e-10
1.6745e-10
1.67452e-10
1.6745e-10
1.67451e-10
1.6745e-10
1.67451e-10
1.6745e-10
1.6745e-10
1.67451e-10
1.6745e-10
1.67451e-10
1.6745e-10
1.67452e-10
1.6745e-10
1.67453e-10
1.67451e-10
1.67456e-10
1.67452e-10
1.6746e-10
1.67456e-10
1.67467e-10
1.67463e-10
1.67481e-10
1.67475e-10
1.67503e-10
1.67489e-10
1.67508e-10
1.67432e-10
1.67303e-10
1.6696e-10
1.66311e-10
1.6564e-10
1.6201e-10
1.62665e-10
1.63296e-10
1.63629e-10
1.63754e-10
1.63828e-10
1.63809e-10
1.63822e-10
1.63795e-10
1.63799e-10
1.63782e-10
1.63786e-10
1.63774e-10
1.63778e-10
1.63771e-10
1.63773e-10
1.63769e-10
1.63771e-10
1.63769e-10
1.6377e-10
1.63768e-10
1.63769e-10
1.63768e-10
1.63769e-10
1.63768e-10
1.63768e-10
1.63769e-10
1.63768e-10
1.63769e-10
1.63768e-10
1.6377e-10
1.63769e-10
1.63771e-10
1.63769e-10
1.63773e-10
1.63771e-10
1.63778e-10
1.63774e-10
1.63786e-10
1.63782e-10
1.63799e-10
1.63795e-10
1.63821e-10
1.63809e-10
1.63828e-10
1.63754e-10
1.63628e-10
1.63296e-10
1.62665e-10
1.6201e-10
1.58602e-10
1.59238e-10
1.59853e-10
1.60175e-10
1.60297e-10
1.60368e-10
1.6035e-10
1.60361e-10
1.60335e-10
1.60339e-10
1.60322e-10
1.60325e-10
1.60314e-10
1.60317e-10
1.6031e-10
1.60313e-10
1.60308e-10
1.60311e-10
1.60308e-10
1.60309e-10
1.60307e-10
1.60308e-10
1.60307e-10
1.60308e-10
1.60307e-10
1.60307e-10
1.60308e-10
1.60307e-10
1.60308e-10
1.60307e-10
1.60309e-10
1.60308e-10
1.6031e-10
1.60308e-10
1.60313e-10
1.6031e-10
1.60317e-10
1.60314e-10
1.60325e-10
1.60322e-10
1.60339e-10
1.60335e-10
1.60361e-10
1.6035e-10
1.60368e-10
1.60297e-10
1.60175e-10
1.59853e-10
1.59238e-10
1.58602e-10
1.55382e-10
1.56002e-10
1.566e-10
1.56911e-10
1.5703e-10
1.57099e-10
1.57081e-10
1.57091e-10
1.57066e-10
1.57068e-10
1.57052e-10
1.57054e-10
1.57044e-10
1.57046e-10
1.57039e-10
1.57042e-10
1.57037e-10
1.5704e-10
1.57037e-10
1.57039e-10
1.57037e-10
1.57038e-10
1.57037e-10
1.57037e-10
1.57037e-10
1.57037e-10
1.57037e-10
1.57037e-10
1.57038e-10
1.57037e-10
1.57039e-10
1.57037e-10
1.5704e-10
1.57037e-10
1.57042e-10
1.57039e-10
1.57046e-10
1.57044e-10
1.57054e-10
1.57052e-10
1.57068e-10
1.57066e-10
1.57091e-10
1.57081e-10
1.57099e-10
1.5703e-10
1.56911e-10
1.566e-10
1.56002e-10
1.55382e-10
1.52325e-10
1.52931e-10
1.53512e-10
1.53813e-10
1.53929e-10
1.53995e-10
1.53978e-10
1.53986e-10
1.53961e-10
1.53963e-10
1.53947e-10
1.53949e-10
1.53938e-10
1.53941e-10
1.53934e-10
1.53936e-10
1.53932e-10
1.53934e-10
1.53932e-10
1.53933e-10
1.53931e-10
1.53932e-10
1.53931e-10
1.53932e-10
1.53931e-10
1.53931e-10
1.53932e-10
1.53931e-10
1.53932e-10
1.53931e-10
1.53933e-10
1.53932e-10
1.53934e-10
1.53932e-10
1.53936e-10
1.53934e-10
1.53941e-10
1.53938e-10
1.53949e-10
1.53947e-10
1.53963e-10
1.53961e-10
1.53986e-10
1.53978e-10
1.53995e-10
1.53929e-10
1.53813e-10
1.53512e-10
1.52931e-10
1.52325e-10
1.49412e-10
1.50004e-10
1.50568e-10
1.5086e-10
1.50972e-10
1.51036e-10
1.51018e-10
1.51026e-10
1.51001e-10
1.51002e-10
1.50986e-10
1.50988e-10
1.50978e-10
1.5098e-10
1.50973e-10
1.50975e-10
1.50971e-10
1.50973e-10
1.5097e-10
1.50972e-10
1.5097e-10
1.50971e-10
1.5097e-10
1.5097e-10
1.5097e-10
1.5097e-10
1.5097e-10
1.5097e-10
1.50971e-10
1.5097e-10
1.50972e-10
1.5097e-10
1.50973e-10
1.50971e-10
1.50975e-10
1.50973e-10
1.5098e-10
1.50978e-10
1.50988e-10
1.50986e-10
1.51002e-10
1.51001e-10
1.51026e-10
1.51018e-10
1.51036e-10
1.50972e-10
1.5086e-10
1.50568e-10
1.50004e-10
1.49412e-10
1.46624e-10
1.47206e-10
1.47752e-10
1.48034e-10
1.48142e-10
1.48204e-10
1.48186e-10
1.48193e-10
1.48168e-10
1.48169e-10
1.48153e-10
1.48154e-10
1.48144e-10
1.48146e-10
1.48139e-10
1.48141e-10
1.48137e-10
1.48139e-10
1.48137e-10
1.48138e-10
1.48136e-10
1.48137e-10
1.48136e-10
1.48136e-10
1.48136e-10
1.48136e-10
1.48136e-10
1.48136e-10
1.48137e-10
1.48136e-10
1.48138e-10
1.48137e-10
1.48139e-10
1.48137e-10
1.48141e-10
1.48139e-10
1.48146e-10
1.48144e-10
1.48154e-10
1.48153e-10
1.48169e-10
1.48168e-10
1.48193e-10
1.48186e-10
1.48204e-10
1.48142e-10
1.48034e-10
1.47752e-10
1.47206e-10
1.46624e-10
1.43949e-10
1.44521e-10
1.45048e-10
1.45321e-10
1.45426e-10
1.45486e-10
1.45468e-10
1.45473e-10
1.45449e-10
1.45449e-10
1.45433e-10
1.45434e-10
1.45424e-10
1.45425e-10
1.45419e-10
1.45421e-10
1.45417e-10
1.45419e-10
1.45416e-10
1.45417e-10
1.45416e-10
1.45416e-10
1.45415e-10
1.45416e-10
1.45416e-10
1.45416e-10
1.45416e-10
1.45415e-10
1.45416e-10
1.45416e-10
1.45417e-10
1.45416e-10
1.45419e-10
1.45417e-10
1.45421e-10
1.45419e-10
1.45425e-10
1.45424e-10
1.45434e-10
1.45433e-10
1.45449e-10
1.45449e-10
1.45473e-10
1.45468e-10
1.45485e-10
1.45426e-10
1.45321e-10
1.45048e-10
1.44521e-10
1.43949e-10
1.41375e-10
1.41937e-10
1.42448e-10
1.4271e-10
1.42811e-10
1.42868e-10
1.4285e-10
1.42855e-10
1.42831e-10
1.4283e-10
1.42814e-10
1.42815e-10
1.42805e-10
1.42806e-10
1.428e-10
1.42802e-10
1.42798e-10
1.42799e-10
1.42797e-10
1.42798e-10
1.42797e-10
1.42797e-10
1.42796e-10
1.42797e-10
1.42796e-10
1.42796e-10
1.42797e-10
1.42796e-10
1.42797e-10
1.42797e-10
1.42798e-10
1.42797e-10
1.42799e-10
1.42798e-10
1.42802e-10
1.428e-10
1.42806e-10
1.42805e-10
1.42815e-10
1.42815e-10
1.4283e-10
1.42831e-10
1.42855e-10
1.4285e-10
1.42868e-10
1.42811e-10
1.4271e-10
1.42447e-10
1.41937e-10
1.41375e-10
1.38892e-10
1.39446e-10
1.39938e-10
1.40192e-10
1.40288e-10
1.40343e-10
1.40325e-10
1.40328e-10
1.40304e-10
1.40303e-10
1.40288e-10
1.40288e-10
1.40278e-10
1.40279e-10
1.40273e-10
1.40274e-10
1.4027e-10
1.40272e-10
1.40269e-10
1.40271e-10
1.40269e-10
1.4027e-10
1.40269e-10
1.40269e-10
1.40269e-10
1.40269e-10
1.40269e-10
1.40269e-10
1.4027e-10
1.40269e-10
1.40271e-10
1.40269e-10
1.40272e-10
1.4027e-10
1.40274e-10
1.40273e-10
1.40279e-10
1.40278e-10
1.40288e-10
1.40288e-10
1.40303e-10
1.40304e-10
1.40328e-10
1.40325e-10
1.40343e-10
1.40288e-10
1.40192e-10
1.39938e-10
1.39445e-10
1.38892e-10
1.36493e-10
1.37037e-10
1.37513e-10
1.37756e-10
1.37849e-10
1.37901e-10
1.37882e-10
1.37885e-10
1.37861e-10
1.37859e-10
1.37844e-10
1.37844e-10
1.37834e-10
1.37835e-10
1.37829e-10
1.3783e-10
1.37826e-10
1.37828e-10
1.37825e-10
1.37827e-10
1.37825e-10
1.37826e-10
1.37825e-10
1.37825e-10
1.37825e-10
1.37825e-10
1.37825e-10
1.37825e-10
1.37826e-10
1.37825e-10
1.37827e-10
1.37825e-10
1.37828e-10
1.37826e-10
1.3783e-10
1.37829e-10
1.37835e-10
1.37834e-10
1.37844e-10
1.37844e-10
1.37859e-10
1.37861e-10
1.37885e-10
1.37882e-10
1.37901e-10
1.37849e-10
1.37756e-10
1.37513e-10
1.37037e-10
1.36493e-10
1.3417e-10
1.34705e-10
1.35163e-10
1.35397e-10
1.35486e-10
1.35535e-10
1.35516e-10
1.35518e-10
1.35495e-10
1.35492e-10
1.35477e-10
1.35476e-10
1.35467e-10
1.35467e-10
1.35461e-10
1.35462e-10
1.35459e-10
1.3546e-10
1.35458e-10
1.35459e-10
1.35457e-10
1.35458e-10
1.35457e-10
1.35457e-10
1.35457e-10
1.35457e-10
1.35457e-10
1.35457e-10
1.35458e-10
1.35457e-10
1.35459e-10
1.35458e-10
1.3546e-10
1.35459e-10
1.35462e-10
1.35461e-10
1.35467e-10
1.35467e-10
1.35476e-10
1.35477e-10
1.35492e-10
1.35495e-10
1.35518e-10
1.35516e-10
1.35535e-10
1.35486e-10
1.35397e-10
1.35163e-10
1.34705e-10
1.3417e-10
1.31917e-10
1.32443e-10
1.32884e-10
1.33109e-10
1.33193e-10
1.3324e-10
1.33221e-10
1.33222e-10
1.33198e-10
1.33195e-10
1.3318e-10
1.33179e-10
1.3317e-10
1.3317e-10
1.33164e-10
1.33165e-10
1.33161e-10
1.33163e-10
1.3316e-10
1.33162e-10
1.3316e-10
1.33161e-10
1.3316e-10
1.3316e-10
1.3316e-10
1.3316e-10
1.3316e-10
1.3316e-10
1.33161e-10
1.3316e-10
1.33162e-10
1.3316e-10
1.33163e-10
1.33161e-10
1.33165e-10
1.33164e-10
1.3317e-10
1.3317e-10
1.33179e-10
1.3318e-10
1.33195e-10
1.33198e-10
1.33222e-10
1.33221e-10
1.3324e-10
1.33193e-10
1.33109e-10
1.32884e-10
1.32443e-10
1.31917e-10
1.2973e-10
1.30247e-10
1.3067e-10
1.30886e-10