/*--------------------------------*- C++ -*----------------------------------*\
| =========                 |                                                 |
| \\      /  F ield         | OpenFOAM: The Open Source CFD Toolbox           |
|  \\    /   O peration     | Version:  dev                                   |
|   \\  /    A nd           | Web:      www.OpenFOAM.org                      |
|    \\/     M anipulation  |                                                 |
\*---------------------------------------------------------------------------*/
FoamFile
{
    version     2.0;
    format      ascii;
    class       volScalarField;
    location    "0.1";
    object      i-C6H7;
}
// * * * * * * * * * * * * * * * * * * * * * * * * * * * * * * * * * * * * * //

dimensions      [0 0 0 0 0 0 0];

internalField   nonuniform List<scalar> 
8000
(
6.24657e-09
6.26329e-09
6.27863e-09
6.28548e-09
6.28563e-09
6.28744e-09
6.28647e-09
6.28742e-09
6.28663e-09
6.28725e-09
6.28671e-09
6.28715e-09
6.28678e-09
6.28706e-09
6.28682e-09
6.28702e-09
6.28684e-09
6.28699e-09
6.28688e-09
6.28697e-09
6.2869e-09
6.28695e-09
6.28691e-09
6.28693e-09
6.28692e-09
6.28692e-09
6.28693e-09
6.28691e-09
6.28695e-09
6.2869e-09
6.28697e-09
6.28688e-09
6.28699e-09
6.28684e-09
6.28702e-09
6.28682e-09
6.28706e-09
6.28678e-09
6.28715e-09
6.28672e-09
6.28725e-09
6.28662e-09
6.28741e-09
6.28647e-09
6.28744e-09
6.28563e-09
6.28548e-09
6.27863e-09
6.26329e-09
6.24657e-09
3.04321e-08
3.05013e-08
3.05644e-08
3.05927e-08
3.05921e-08
3.06001e-08
3.05955e-08
3.05998e-08
3.05962e-08
3.05991e-08
3.05966e-08
3.05986e-08
3.0597e-08
3.05983e-08
3.05972e-08
3.05981e-08
3.05973e-08
3.05979e-08
3.05975e-08
3.05978e-08
3.05975e-08
3.05977e-08
3.05976e-08
3.05977e-08
3.05976e-08
3.05976e-08
3.05977e-08
3.05976e-08
3.05977e-08
3.05975e-08
3.05978e-08
3.05974e-08
3.05979e-08
3.05973e-08
3.05981e-08
3.05972e-08
3.05983e-08
3.0597e-08
3.05986e-08
3.05966e-08
3.05991e-08
3.05962e-08
3.05998e-08
3.05955e-08
3.06001e-08
3.05921e-08
3.05926e-08
3.05644e-08
3.05014e-08
3.04321e-08
1.76252e-08
1.76337e-08
1.76335e-08
1.76328e-08
1.76281e-08
1.763e-08
1.76277e-08
1.76293e-08
1.76279e-08
1.76291e-08
1.76281e-08
1.76289e-08
1.76283e-08
1.76288e-08
1.76284e-08
1.76288e-08
1.76285e-08
1.76287e-08
1.76285e-08
1.76287e-08
1.76285e-08
1.76286e-08
1.76286e-08
1.76286e-08
1.76286e-08
1.76286e-08
1.76286e-08
1.76286e-08
1.76286e-08
1.76285e-08
1.76287e-08
1.76285e-08
1.76287e-08
1.76285e-08
1.76288e-08
1.76284e-08
1.76288e-08
1.76283e-08
1.76289e-08
1.76281e-08
1.76291e-08
1.76279e-08
1.76293e-08
1.76277e-08
1.763e-08
1.76281e-08
1.76328e-08
1.76335e-08
1.76337e-08
1.76252e-08
7.23285e-09
7.23783e-09
7.23938e-09
7.23941e-09
7.23697e-09
7.23806e-09
7.23678e-09
7.23772e-09
7.2369e-09
7.23757e-09
7.23702e-09
7.23748e-09
7.23711e-09
7.23741e-09
7.23717e-09
7.23738e-09
7.2372e-09
7.23734e-09
7.23723e-09
7.23732e-09
7.23725e-09
7.2373e-09
7.23726e-09
7.23729e-09
7.23727e-09
7.23727e-09
7.23729e-09
7.23726e-09
7.2373e-09
7.23725e-09
7.23732e-09
7.23723e-09
7.23734e-09
7.2372e-09
7.23737e-09
7.23717e-09
7.23741e-09
7.23711e-09
7.23748e-09
7.23702e-09
7.23757e-09
7.23689e-09
7.23772e-09
7.23677e-09
7.23806e-09
7.23697e-09
7.2394e-09
7.23938e-09
7.23783e-09
7.23283e-09
2.96615e-09
2.96984e-09
2.97254e-09
2.97322e-09
2.97207e-09
2.97277e-09
2.97205e-09
2.9726e-09
2.97212e-09
2.97251e-09
2.9722e-09
2.97246e-09
2.97224e-09
2.97242e-09
2.97227e-09
2.97239e-09
2.97229e-09
2.97238e-09
2.97231e-09
2.97236e-09
2.97232e-09
2.97235e-09
2.97233e-09
2.97234e-09
2.97233e-09
2.97233e-09
2.97234e-09
2.97233e-09
2.97235e-09
2.97232e-09
2.97236e-09
2.97231e-09
2.97237e-09
2.97229e-09
2.97239e-09
2.97227e-09
2.97242e-09
2.97224e-09
2.97246e-09
2.97219e-09
2.97251e-09
2.97212e-09
2.9726e-09
2.97205e-09
2.97277e-09
2.97207e-09
2.97322e-09
2.97253e-09
2.96983e-09
2.96613e-09
1.24126e-09
1.24359e-09
1.24579e-09
1.24642e-09
1.24588e-09
1.2463e-09
1.24591e-09
1.24621e-09
1.24594e-09
1.24616e-09
1.24598e-09
1.24613e-09
1.24601e-09
1.2461e-09
1.24603e-09
1.24609e-09
1.24603e-09
1.24608e-09
1.24605e-09
1.24607e-09
1.24605e-09
1.24607e-09
1.24605e-09
1.24606e-09
1.24606e-09
1.24606e-09
1.24606e-09
1.24605e-09
1.24607e-09
1.24605e-09
1.24607e-09
1.24604e-09
1.24608e-09
1.24603e-09
1.24609e-09
1.24602e-09
1.2461e-09
1.24601e-09
1.24613e-09
1.24598e-09
1.24616e-09
1.24594e-09
1.24621e-09
1.2459e-09
1.24629e-09
1.24588e-09
1.24642e-09
1.24579e-09
1.24358e-09
1.24124e-09
5.26838e-10
5.28173e-10
5.2962e-10
5.30047e-10
5.298e-10
5.3003e-10
5.29826e-10
5.29989e-10
5.29846e-10
5.29961e-10
5.29866e-10
5.29944e-10
5.29879e-10
5.2993e-10
5.29888e-10
5.29923e-10
5.29892e-10
5.29917e-10
5.29898e-10
5.29913e-10
5.29901e-10
5.29909e-10
5.29903e-10
5.29907e-10
5.29905e-10
5.29905e-10
5.29907e-10
5.29902e-10
5.29909e-10
5.29901e-10
5.29913e-10
5.29898e-10
5.29917e-10
5.29892e-10
5.29923e-10
5.29887e-10
5.2993e-10
5.29879e-10
5.29943e-10
5.29865e-10
5.29961e-10
5.29845e-10
5.29988e-10
5.29824e-10
5.30029e-10
5.29799e-10
5.30046e-10
5.29618e-10
5.28171e-10
5.26829e-10
2.25632e-10
2.26356e-10
2.27214e-10
2.27472e-10
2.2736e-10
2.27482e-10
2.27378e-10
2.27463e-10
2.27388e-10
2.27448e-10
2.27398e-10
2.27439e-10
2.27405e-10
2.27431e-10
2.27409e-10
2.27427e-10
2.27411e-10
2.27424e-10
2.27415e-10
2.27422e-10
2.27416e-10
2.2742e-10
2.27417e-10
2.27419e-10
2.27418e-10
2.27418e-10
2.27419e-10
2.27417e-10
2.2742e-10
2.27416e-10
2.27422e-10
2.27414e-10
2.27424e-10
2.27411e-10
2.27427e-10
2.27409e-10
2.27431e-10
2.27405e-10
2.27438e-10
2.27398e-10
2.27447e-10
2.27388e-10
2.27462e-10
2.27377e-10
2.27481e-10
2.2736e-10
2.27471e-10
2.27213e-10
2.26355e-10
2.25627e-10
9.68895e-11
9.72689e-11
9.77492e-11
9.78949e-11
9.78454e-11
9.79086e-11
9.78563e-11
9.78992e-11
9.78614e-11
9.78916e-11
9.78663e-11
9.78869e-11
9.78697e-11
9.7883e-11
9.78718e-11
9.7881e-11
9.78729e-11
9.78795e-11
9.78746e-11
9.78784e-11
9.78752e-11
9.78774e-11
9.78756e-11
9.78767e-11
9.78762e-11
9.78762e-11
9.78767e-11
9.78756e-11
9.78774e-11
9.78751e-11
9.78783e-11
9.78744e-11
9.78794e-11
9.78728e-11
9.78809e-11
9.78716e-11
9.78829e-11
9.78695e-11
9.78866e-11
9.78661e-11
9.78914e-11
9.78611e-11
9.78989e-11
9.78559e-11
9.79082e-11
9.78451e-11
9.78944e-11
9.77487e-11
9.72684e-11
9.68872e-11
4.23038e-11
4.24952e-11
4.27507e-11
4.28285e-11
4.28069e-11
4.28386e-11
4.28129e-11
4.28341e-11
4.28153e-11
4.28303e-11
4.28177e-11
4.28279e-11
4.28194e-11
4.28259e-11
4.28204e-11
4.28249e-11
4.28209e-11
4.28242e-11
4.28217e-11
4.28236e-11
4.2822e-11
4.28231e-11
4.28222e-11
4.28228e-11
4.28225e-11
4.28225e-11
4.28228e-11
4.28222e-11
4.28231e-11
4.2822e-11
4.28236e-11
4.28217e-11
4.28241e-11
4.28208e-11
4.28249e-11
4.28202e-11
4.28259e-11
4.28192e-11
4.28277e-11
4.28176e-11
4.28301e-11
4.28152e-11
4.2834e-11
4.28127e-11
4.28384e-11
4.28067e-11
4.28282e-11
4.27505e-11
4.24949e-11
4.23026e-11
1.89612e-11
1.90591e-11
1.91957e-11
1.92375e-11
1.92281e-11
1.92442e-11
1.92313e-11
1.9242e-11
1.92325e-11
1.924e-11
1.92337e-11
1.92388e-11
1.92345e-11
1.92378e-11
1.9235e-11
1.92373e-11
1.92352e-11
1.92369e-11
1.92357e-11
1.92366e-11
1.92358e-11
1.92364e-11
1.92359e-11
1.92362e-11
1.92361e-11
1.92361e-11
1.92362e-11
1.92359e-11
1.92364e-11
1.92358e-11
1.92366e-11
1.92356e-11
1.92369e-11
1.92352e-11
1.92372e-11
1.92349e-11
1.92378e-11
1.92344e-11
1.92387e-11
1.92336e-11
1.92399e-11
1.92324e-11
1.92419e-11
1.92312e-11
1.92441e-11
1.9228e-11
1.92374e-11
1.91956e-11
1.9059e-11
1.89606e-11
8.55619e-12
8.6031e-12
8.66961e-12
8.69011e-12
8.686e-12
8.69362e-12
8.68756e-12
8.69258e-12
8.68808e-12
8.69162e-12
8.68862e-12
8.69104e-12
8.68901e-12
8.69057e-12
8.68925e-12
8.69033e-12
8.68937e-12
8.69015e-12
8.68956e-12
8.69001e-12
8.68964e-12
8.6899e-12
8.68968e-12
8.68981e-12
8.68975e-12
8.68975e-12
8.68981e-12
8.68967e-12
8.68989e-12
8.68962e-12
8.69e-12
8.68954e-12
8.69013e-12
8.68935e-12
8.69031e-12
8.68921e-12
8.69055e-12
8.68898e-12
8.691e-12
8.68859e-12
8.69159e-12
8.68804e-12
8.69254e-12
8.6875e-12
8.69356e-12
8.68596e-12
8.69003e-12
8.66955e-12
8.60303e-12
8.5559e-12
4.13512e-12
4.1613e-12
4.19842e-12
4.20992e-12
4.20785e-12
4.21194e-12
4.20864e-12
4.21135e-12
4.2089e-12
4.21081e-12
4.20919e-12
4.2105e-12
4.2094e-12
4.21024e-12
4.20953e-12
4.21011e-12
4.20959e-12
4.21002e-12
4.2097e-12
4.20995e-12
4.20974e-12
4.20988e-12
4.20977e-12
4.20984e-12
4.2098e-12
4.2098e-12
4.20984e-12
4.20976e-12
4.20988e-12
4.20974e-12
4.20994e-12
4.20969e-12
4.21001e-12
4.20959e-12
4.2101e-12
4.20951e-12
4.21023e-12
4.20938e-12
4.21047e-12
4.20917e-12
4.2108e-12
4.20887e-12
4.21132e-12
4.20861e-12
4.21191e-12
4.20783e-12
4.20988e-12
4.19838e-12
4.16127e-12
4.13498e-12
2.13962e-12
2.14943e-12
2.16615e-12
2.1714e-12
2.17105e-12
2.17284e-12
2.17155e-12
2.17267e-12
2.17166e-12
2.17244e-12
2.17177e-12
2.1723e-12
2.17184e-12
2.17218e-12
2.17189e-12
2.17212e-12
2.17191e-12
2.17208e-12
2.17195e-12
2.17205e-12
2.17197e-12
2.17202e-12
2.17197e-12
2.172e-12
2.17199e-12
2.17199e-12
2.172e-12
2.17197e-12
2.17202e-12
2.17196e-12
2.17205e-12
2.17195e-12
2.17208e-12
2.1719e-12
2.17212e-12
2.17188e-12
2.17218e-12
2.17183e-12
2.17229e-12
2.17176e-12
2.17243e-12
2.17165e-12
2.17266e-12
2.17154e-12
2.17283e-12
2.17104e-12
2.17139e-12
2.16614e-12
2.14941e-12
2.13955e-12
1.19534e-12
1.2006e-12
1.20961e-12
1.21245e-12
1.21231e-12
1.21324e-12
1.21256e-12
1.21314e-12
1.21261e-12
1.21302e-12
1.21266e-12
1.21294e-12
1.2127e-12
1.21288e-12
1.21273e-12
1.21285e-12
1.21274e-12
1.21283e-12
1.21276e-12
1.21281e-12
1.21277e-12
1.2128e-12
1.21277e-12
1.21279e-12
1.21278e-12
1.21278e-12
1.21279e-12
1.21277e-12
1.2128e-12
1.21277e-12
1.21281e-12
1.21276e-12
1.21283e-12
1.21274e-12
1.21285e-12
1.21272e-12
1.21288e-12
1.2127e-12
1.21294e-12
1.21266e-12
1.21301e-12
1.2126e-12
1.21314e-12
1.21256e-12
1.21323e-12
1.21231e-12
1.21244e-12
1.20961e-12
1.20059e-12
1.19531e-12
7.5616e-13
7.59343e-13
7.64829e-13
7.66547e-13
7.66494e-13
7.67032e-13
7.66627e-13
7.66967e-13
7.66649e-13
7.6689e-13
7.66681e-13
7.66845e-13
7.66705e-13
7.66811e-13
7.66719e-13
7.66793e-13
7.66726e-13
7.6678e-13
7.6674e-13
7.66771e-13
7.66745e-13
7.66763e-13
7.66747e-13
7.66757e-13
7.66752e-13
7.66752e-13
7.66757e-13
7.66747e-13
7.66762e-13
7.66744e-13
7.6677e-13
7.66738e-13
7.66779e-13
7.66725e-13
7.66792e-13
7.66717e-13
7.6681e-13
7.66703e-13
7.66843e-13
7.66679e-13
7.66889e-13
7.66646e-13
7.66965e-13
7.66624e-13
7.67028e-13
7.66491e-13
7.66543e-13
7.64825e-13
7.59338e-13
7.56146e-13
5.24946e-13
5.27285e-13
5.31147e-13
5.32465e-13
5.32524e-13
5.32895e-13
5.32632e-13
5.32851e-13
5.32638e-13
5.32793e-13
5.32654e-13
5.3276e-13
5.32667e-13
5.32736e-13
5.32675e-13
5.32723e-13
5.3268e-13
5.32715e-13
5.32688e-13
5.32709e-13
5.32691e-13
5.32703e-13
5.32693e-13
5.32699e-13
5.32697e-13
5.32697e-13
5.32699e-13
5.32693e-13
5.32703e-13
5.32691e-13
5.32709e-13
5.32688e-13
5.32715e-13
5.32679e-13
5.32723e-13
5.32674e-13
5.32736e-13
5.32666e-13
5.32759e-13
5.32653e-13
5.32793e-13
5.32636e-13
5.3285e-13
5.3263e-13
5.32893e-13
5.32522e-13
5.32463e-13
5.31145e-13
5.27283e-13
5.24939e-13
4.01002e-13
4.02733e-13
4.05493e-13
4.0645e-13
4.06518e-13
4.06775e-13
4.06592e-13
4.06742e-13
4.06593e-13
4.06699e-13
4.06603e-13
4.06676e-13
4.06611e-13
4.06659e-13
4.06617e-13
4.0665e-13
4.0662e-13
4.06644e-13
4.06626e-13
4.0664e-13
4.06628e-13
4.06636e-13
4.06629e-13
4.06634e-13
4.06632e-13
4.06632e-13
4.06634e-13
4.06629e-13
4.06636e-13
4.06628e-13
4.0664e-13
4.06625e-13
4.06644e-13
4.0662e-13
4.0665e-13
4.06616e-13
4.06659e-13
4.06611e-13
4.06675e-13
4.06602e-13
4.06699e-13
4.06592e-13
4.06742e-13
4.06592e-13
4.06774e-13
4.06518e-13
4.06449e-13
4.05492e-13
4.02732e-13
4.00999e-13
3.23312e-13
3.24856e-13
3.27157e-13
3.27997e-13
3.28059e-13
3.28272e-13
3.28116e-13
3.2824e-13
3.28114e-13
3.28203e-13
3.28122e-13
3.28183e-13
3.2813e-13
3.28169e-13
3.28134e-13
3.28162e-13
3.28137e-13
3.28158e-13
3.28142e-13
3.28154e-13
3.28144e-13
3.28151e-13
3.28145e-13
3.28149e-13
3.28147e-13
3.28147e-13
3.28149e-13
3.28145e-13
3.28151e-13
3.28144e-13
3.28154e-13
3.28142e-13
3.28158e-13
3.28137e-13
3.28162e-13
3.28134e-13
3.28169e-13
3.28129e-13
3.28183e-13
3.28122e-13
3.28203e-13
3.28113e-13
3.2824e-13
3.28116e-13
3.28272e-13
3.28059e-13
3.27997e-13
3.27157e-13
3.24856e-13
3.23311e-13
2.71563e-13
2.72897e-13
2.74736e-13
2.75426e-13
2.7549e-13
2.75658e-13
2.75535e-13
2.75631e-13
2.75531e-13
2.756e-13
2.75536e-13
2.75584e-13
2.75542e-13
2.75573e-13
2.75546e-13
2.75568e-13
2.75548e-13
2.75564e-13
2.75552e-13
2.75561e-13
2.75553e-13
2.75559e-13
2.75554e-13
2.75557e-13
2.75556e-13
2.75556e-13
2.75557e-13
2.75554e-13
2.75559e-13
2.75553e-13
2.75561e-13
2.75552e-13
2.75564e-13
2.75548e-13
2.75568e-13
2.75545e-13
2.75573e-13
2.75542e-13
2.75584e-13
2.75536e-13
2.756e-13
2.75531e-13
2.75631e-13
2.75535e-13
2.75657e-13
2.7549e-13
2.75426e-13
2.74736e-13
2.72897e-13
2.71562e-13
2.3552e-13
2.36773e-13
2.38347e-13
2.38956e-13
2.39022e-13
2.39165e-13
2.39061e-13
2.39142e-13
2.39056e-13
2.39114e-13
2.3906e-13
2.391e-13
2.39065e-13
2.39091e-13
2.39068e-13
2.39086e-13
2.39069e-13
2.39083e-13
2.39073e-13
2.39081e-13
2.39074e-13
2.39079e-13
2.39075e-13
2.39077e-13
2.39076e-13
2.39076e-13
2.39077e-13
2.39075e-13
2.39079e-13
2.39074e-13
2.39081e-13
2.39073e-13
2.39083e-13
2.39069e-13
2.39086e-13
2.39068e-13
2.39091e-13
2.39065e-13
2.391e-13
2.3906e-13
2.39114e-13
2.39056e-13
2.39141e-13
2.39061e-13
2.39165e-13
2.39022e-13
2.38956e-13
2.38347e-13
2.36773e-13
2.3552e-13
2.07903e-13
2.09134e-13
2.10521e-13
2.11072e-13
2.11139e-13
2.11265e-13
2.11174e-13
2.11244e-13
2.11169e-13
2.11219e-13
2.11172e-13
2.11207e-13
2.11176e-13
2.11198e-13
2.11178e-13
2.11194e-13
2.11179e-13
2.11192e-13
2.11182e-13
2.1119e-13
2.11184e-13
2.11188e-13
2.11184e-13
2.11187e-13
2.11186e-13
2.11186e-13
2.11187e-13
2.11184e-13
2.11188e-13
2.11184e-13
2.1119e-13
2.11182e-13
2.11192e-13
2.11179e-13
2.11194e-13
2.11178e-13
2.11198e-13
2.11176e-13
2.11207e-13
2.11172e-13
2.11219e-13
2.11168e-13
2.11244e-13
2.11174e-13
2.11265e-13
2.11138e-13
2.11072e-13
2.10521e-13
2.09134e-13
2.07903e-13
1.85854e-13
1.86461e-13
1.87624e-13
1.8811e-13
1.88191e-13
1.88302e-13
1.88229e-13
1.88285e-13
1.88222e-13
1.88262e-13
1.88222e-13
1.8825e-13
1.88224e-13
1.88242e-13
1.88225e-13
1.88238e-13
1.88225e-13
1.88235e-13
1.88228e-13
1.88233e-13
1.88228e-13
1.88232e-13
1.88229e-13
1.88231e-13
1.8823e-13
1.8823e-13
1.88231e-13
1.88229e-13
1.88232e-13
1.88228e-13
1.88233e-13
1.88228e-13
1.88235e-13
1.88225e-13
1.88238e-13
1.88225e-13
1.88242e-13
1.88224e-13
1.8825e-13
1.88222e-13
1.88262e-13
1.88222e-13
1.88285e-13
1.88229e-13
1.88302e-13
1.8819e-13
1.8811e-13
1.87624e-13
1.86461e-13
1.85854e-13
1.67765e-13
1.68362e-13
1.69408e-13
1.69857e-13
1.69937e-13
1.70039e-13
1.69974e-13
1.70024e-13
1.69967e-13
1.70002e-13
1.69966e-13
1.69991e-13
1.69967e-13
1.69983e-13
1.69968e-13
1.69979e-13
1.69968e-13
1.69977e-13
1.6997e-13
1.69976e-13
1.69971e-13
1.69974e-13
1.69972e-13
1.69973e-13
1.69972e-13
1.69972e-13
1.69973e-13
1.69972e-13
1.69974e-13
1.69971e-13
1.69976e-13
1.6997e-13
1.69977e-13
1.69968e-13
1.6998e-13
1.69968e-13
1.69983e-13
1.69967e-13
1.69991e-13
1.69966e-13
1.70002e-13
1.69967e-13
1.70024e-13
1.69974e-13
1.70039e-13
1.69937e-13
1.69857e-13
1.69408e-13
1.68362e-13
1.67765e-13
1.52068e-13
1.52664e-13
1.53639e-13
1.54075e-13
1.5416e-13
1.54258e-13
1.54197e-13
1.54243e-13
1.54189e-13
1.54221e-13
1.54188e-13
1.5421e-13
1.54188e-13
1.54203e-13
1.54189e-13
1.54199e-13
1.54189e-13
1.54197e-13
1.54191e-13
1.54196e-13
1.54191e-13
1.54194e-13
1.54192e-13
1.54193e-13
1.54193e-13
1.54193e-13
1.54193e-13
1.54192e-13
1.54194e-13
1.54191e-13
1.54196e-13
1.54191e-13
1.54197e-13
1.54189e-13
1.54199e-13
1.54189e-13
1.54203e-13
1.54188e-13
1.5421e-13
1.54188e-13
1.54221e-13
1.54189e-13
1.54243e-13
1.54197e-13
1.54257e-13
1.5416e-13
1.54075e-13
1.53639e-13
1.52664e-13
1.52068e-13
1.38745e-13
1.3932e-13
1.40199e-13
1.40603e-13
1.40686e-13
1.40775e-13
1.40721e-13
1.40761e-13
1.40713e-13
1.40741e-13
1.40711e-13
1.40731e-13
1.40711e-13
1.40724e-13
1.40711e-13
1.40721e-13
1.40711e-13
1.40719e-13
1.40713e-13
1.40717e-13
1.40714e-13
1.40716e-13
1.40714e-13
1.40715e-13
1.40715e-13
1.40715e-13
1.40715e-13
1.40714e-13
1.40716e-13
1.40714e-13
1.40717e-13
1.40713e-13
1.40719e-13
1.40711e-13
1.40721e-13
1.40711e-13
1.40724e-13
1.40711e-13
1.40731e-13
1.40711e-13
1.40741e-13
1.40713e-13
1.40761e-13
1.40721e-13
1.40775e-13
1.40686e-13
1.40603e-13
1.40199e-13
1.3932e-13
1.38745e-13
1.27317e-13
1.27874e-13
1.2867e-13
1.29045e-13
1.29126e-13
1.29208e-13
1.29159e-13
1.29195e-13
1.29151e-13
1.29176e-13
1.29149e-13
1.29166e-13
1.29148e-13
1.2916e-13
1.29148e-13
1.29157e-13
1.29148e-13
1.29155e-13
1.2915e-13
1.29154e-13
1.2915e-13
1.29153e-13
1.29151e-13
1.29152e-13
1.29151e-13
1.29151e-13
1.29152e-13
1.29151e-13
1.29153e-13
1.2915e-13
1.29154e-13
1.2915e-13
1.29155e-13
1.29148e-13
1.29157e-13
1.29148e-13
1.2916e-13
1.29148e-13
1.29166e-13
1.29149e-13
1.29176e-13
1.29151e-13
1.29195e-13
1.29159e-13
1.29208e-13
1.29126e-13
1.29045e-13
1.2867e-13
1.27874e-13
1.27317e-13
1.17434e-13
1.17971e-13
1.18697e-13
1.19046e-13
1.19125e-13
1.19201e-13
1.19157e-13
1.19189e-13
1.19149e-13
1.19171e-13
1.19146e-13
1.19161e-13
1.19145e-13
1.19155e-13
1.19145e-13
1.19152e-13
1.19145e-13
1.19151e-13
1.19146e-13
1.1915e-13
1.19146e-13
1.19148e-13
1.19147e-13
1.19148e-13
1.19147e-13
1.19147e-13
1.19148e-13
1.19147e-13
1.19148e-13
1.19146e-13
1.1915e-13
1.19146e-13
1.19151e-13
1.19145e-13
1.19152e-13
1.19145e-13
1.19155e-13
1.19145e-13
1.19161e-13
1.19146e-13
1.19171e-13
1.19149e-13
1.19189e-13
1.19157e-13
1.19201e-13
1.19125e-13
1.19046e-13
1.18697e-13
1.17971e-13
1.17434e-13
1.08828e-13
1.09346e-13
1.10011e-13
1.10336e-13
1.10412e-13
1.10483e-13
1.10443e-13
1.10471e-13
1.10435e-13
1.10454e-13
1.10432e-13
1.10445e-13
1.1043e-13
1.1044e-13
1.1043e-13
1.10437e-13
1.1043e-13
1.10435e-13
1.10431e-13
1.10434e-13
1.10431e-13
1.10433e-13
1.10432e-13
1.10432e-13
1.10432e-13
1.10432e-13
1.10432e-13
1.10432e-13
1.10433e-13
1.10431e-13
1.10434e-13
1.10431e-13
1.10435e-13
1.1043e-13
1.10437e-13
1.1043e-13
1.1044e-13
1.1043e-13
1.10445e-13
1.10432e-13
1.10454e-13
1.10435e-13
1.10471e-13
1.10443e-13
1.10483e-13
1.10412e-13
1.10336e-13
1.10011e-13
1.09346e-13
1.08828e-13
1.01288e-13
1.01786e-13
1.02399e-13
1.02702e-13
1.02776e-13
1.02842e-13
1.02806e-13
1.02831e-13
1.02798e-13
1.02815e-13
1.02794e-13
1.02806e-13
1.02792e-13
1.02801e-13
1.02792e-13
1.02798e-13
1.02792e-13
1.02796e-13
1.02793e-13
1.02795e-13
1.02793e-13
1.02795e-13
1.02793e-13
1.02794e-13
1.02794e-13
1.02794e-13
1.02794e-13
1.02793e-13
1.02795e-13
1.02793e-13
1.02795e-13
1.02793e-13
1.02796e-13
1.02792e-13
1.02798e-13
1.02792e-13
1.02801e-13
1.02792e-13
1.02806e-13
1.02794e-13
1.02815e-13
1.02797e-13
1.02831e-13
1.02806e-13
1.02842e-13
1.02776e-13
1.02702e-13
1.02399e-13
1.01786e-13
1.01288e-13
9.46462e-14
9.51262e-14
9.56924e-14
9.59755e-14
9.60475e-14
9.61087e-14
9.60756e-14
9.60983e-14
9.60676e-14
9.60826e-14
9.60636e-14
9.60743e-14
9.60619e-14
9.60692e-14
9.60612e-14
9.60666e-14
9.60609e-14
9.60653e-14
9.60617e-14
9.60643e-14
9.6062e-14
9.60635e-14
9.60621e-14
9.60629e-14
9.60626e-14
9.60625e-14
9.60629e-14
9.60621e-14
9.60635e-14
9.6062e-14
9.60643e-14
9.60617e-14
9.60653e-14
9.6061e-14
9.60667e-14
9.60612e-14
9.60692e-14
9.60619e-14
9.60742e-14
9.60636e-14
9.60826e-14
9.60675e-14
9.60983e-14
9.60756e-14
9.61086e-14
9.60474e-14
9.59755e-14
9.56924e-14
9.51262e-14
9.46462e-14
8.87675e-14
8.92294e-14
8.97545e-14
9.00194e-14
9.00891e-14
9.01464e-14
9.0116e-14
9.01364e-14
9.0108e-14
9.01213e-14
9.01037e-14
9.01132e-14
9.01018e-14
9.01084e-14
9.0101e-14
9.01059e-14
9.01007e-14
9.01046e-14
9.01013e-14
9.01037e-14
9.01016e-14
9.01029e-14
9.01017e-14
9.01024e-14
9.01021e-14
9.01021e-14
9.01024e-14
9.01017e-14
9.0103e-14
9.01016e-14
9.01037e-14
9.01013e-14
9.01046e-14
9.01007e-14
9.01059e-14
9.0101e-14
9.01084e-14
9.01018e-14
9.01132e-14
9.01038e-14
9.01213e-14
9.01079e-14
9.01364e-14
9.0116e-14
9.01463e-14
9.0089e-14
9.00194e-14
8.97544e-14
8.92294e-14
8.87675e-14
8.35405e-14
8.39847e-14
8.44731e-14
8.47215e-14
8.47888e-14
8.48426e-14
8.48147e-14
8.48329e-14
8.48066e-14
8.48183e-14
8.48021e-14
8.48105e-14
8.48e-14
8.48058e-14
8.4799e-14
8.48035e-14
8.47986e-14
8.48022e-14
8.47992e-14
8.48014e-14
8.47994e-14
8.48007e-14
8.47995e-14
8.48002e-14
8.47998e-14
8.47998e-14
8.48002e-14
8.47995e-14
8.48007e-14
8.47994e-14
8.48014e-14
8.47992e-14
8.48022e-14
8.47987e-14
8.48035e-14
8.4799e-14
8.48059e-14
8.48e-14
8.48105e-14
8.48021e-14
8.48183e-14
8.48066e-14
8.48329e-14
8.48147e-14
8.48425e-14
8.47888e-14
8.47215e-14
8.4473e-14
8.39847e-14
8.35405e-14
7.88731e-14
7.93001e-14
7.97556e-14
7.9989e-14
8.00539e-14
8.01044e-14
8.00787e-14
8.0095e-14
8.00706e-14
8.00809e-14
8.00658e-14
8.00733e-14
8.00635e-14
8.00688e-14
8.00624e-14
8.00665e-14
8.0062e-14
8.00653e-14
8.00625e-14
8.00645e-14
8.00627e-14
8.00638e-14
8.00627e-14
8.00634e-14
8.00631e-14
8.00631e-14
8.00634e-14
8.00627e-14
8.00638e-14
8.00627e-14
8.00645e-14
8.00625e-14
8.00653e-14
8.00621e-14
8.00665e-14
8.00624e-14
8.00688e-14
8.00635e-14
8.00733e-14
8.00659e-14
8.00809e-14
8.00705e-14
8.0095e-14
8.00787e-14
8.01044e-14
8.00539e-14
7.9989e-14
7.97556e-14
7.93001e-14
7.88731e-14
7.46888e-14
7.50989e-14
7.55249e-14
7.57445e-14
7.5807e-14
7.58546e-14
7.58308e-14
7.58454e-14
7.58226e-14
7.58317e-14
7.58176e-14
7.58242e-14
7.58151e-14
7.58199e-14
7.5814e-14
7.58176e-14
7.58135e-14
7.58165e-14
7.58139e-14
7.58157e-14
7.5814e-14
7.58151e-14
7.58141e-14
7.58147e-14
7.58144e-14
7.58144e-14
7.58147e-14
7.58141e-14
7.58151e-14
7.5814e-14
7.58157e-14
7.58139e-14
7.58165e-14
7.58135e-14
7.58176e-14
7.5814e-14
7.58199e-14
7.58151e-14
7.58242e-14
7.58176e-14
7.58317e-14
7.58226e-14
7.58454e-14
7.58308e-14
7.58545e-14
7.5807e-14
7.57444e-14
7.55249e-14
7.50989e-14
7.46888e-14
7.09232e-14
7.13167e-14
7.17161e-14
7.1923e-14
7.19832e-14
7.2028e-14
7.20059e-14
7.2019e-14
7.19977e-14
7.20057e-14
7.19925e-14
7.19984e-14
7.19899e-14
7.19941e-14
7.19886e-14
7.19919e-14
7.19881e-14
7.19908e-14
7.19884e-14
7.19901e-14
7.19885e-14
7.19895e-14
7.19886e-14
7.19891e-14
7.19888e-14
7.19888e-14
7.19891e-14
7.19886e-14
7.19895e-14
7.19885e-14
7.19901e-14
7.19884e-14
7.19908e-14
7.19881e-14
7.1992e-14
7.19886e-14
7.19941e-14
7.19899e-14
7.19984e-14
7.19925e-14
7.20057e-14
7.19977e-14
7.2019e-14
7.20059e-14
7.20279e-14
7.19832e-14
7.1923e-14
7.17161e-14
7.13167e-14
7.09232e-14
6.75222e-14
6.7899e-14
6.82746e-14
6.84698e-14
6.85277e-14
6.85699e-14
6.85494e-14
6.8561e-14
6.85411e-14
6.8548e-14
6.85357e-14
6.85409e-14
6.85329e-14
6.85367e-14
6.85315e-14
6.85346e-14
6.8531e-14
6.85335e-14
6.85313e-14
6.85328e-14
6.85313e-14
6.85322e-14
6.85313e-14
6.85318e-14
6.85316e-14
6.85316e-14
6.85318e-14
6.85314e-14
6.85322e-14
6.85313e-14
6.85328e-14
6.85312e-14
6.85335e-14
6.8531e-14
6.85346e-14
6.85316e-14
6.85367e-14
6.85329e-14
6.85408e-14
6.85357e-14
6.8548e-14
6.85411e-14
6.8561e-14
6.85493e-14
6.85698e-14
6.85276e-14
6.84698e-14
6.82746e-14
6.7899e-14
6.75222e-14
6.44395e-14
6.47997e-14
6.51538e-14
6.53383e-14
6.53938e-14
6.54336e-14
6.54144e-14
6.54248e-14
6.54061e-14
6.54121e-14
6.54005e-14
6.54051e-14
6.53976e-14
6.5401e-14
6.53962e-14
6.53989e-14
6.53956e-14
6.53979e-14
6.53958e-14
6.53972e-14
6.53958e-14
6.53967e-14
6.53958e-14
6.53963e-14
6.53961e-14
6.53961e-14
6.53963e-14
6.53958e-14
6.53967e-14
6.53958e-14
6.53972e-14
6.53958e-14
6.53979e-14
6.53956e-14
6.53989e-14
6.53962e-14
6.5401e-14
6.53976e-14
6.54051e-14
6.54005e-14
6.54121e-14
6.54061e-14
6.54248e-14
6.54144e-14
6.54335e-14
6.53937e-14
6.53382e-14
6.51538e-14
6.47997e-14
6.44395e-14
6.1636e-14
6.19792e-14
6.23141e-14
6.24885e-14
6.25418e-14
6.25793e-14
6.25614e-14
6.25707e-14
6.2553e-14
6.25582e-14
6.25472e-14
6.25512e-14
6.25442e-14
6.25472e-14
6.25427e-14
6.25452e-14
6.25421e-14
6.25442e-14
6.25422e-14
6.25435e-14
6.25422e-14
6.2543e-14
6.25422e-14
6.25427e-14
6.25424e-14
6.25424e-14
6.25427e-14
6.25422e-14
6.2543e-14
6.25422e-14
6.25435e-14
6.25422e-14
6.25442e-14
6.25421e-14
6.25452e-14
6.25427e-14
6.25473e-14
6.25442e-14
6.25512e-14
6.25473e-14
6.25582e-14
6.2553e-14
6.25707e-14
6.25614e-14
6.25793e-14
6.25417e-14
6.24885e-14
6.23141e-14
6.19792e-14
6.1636e-14
5.90768e-14
5.94047e-14
5.97215e-14
5.98866e-14
5.99376e-14
5.9973e-14
5.99562e-14
5.99644e-14
5.99477e-14
5.99522e-14
5.99418e-14
5.99453e-14
5.99386e-14
5.99413e-14
5.99371e-14
5.99393e-14
5.99364e-14
5.99383e-14
5.99365e-14
5.99377e-14
5.99365e-14
5.99372e-14
5.99365e-14
5.99369e-14
5.99367e-14
5.99367e-14
5.99369e-14
5.99365e-14
5.99372e-14
5.99365e-14
5.99377e-14
5.99365e-14
5.99383e-14
5.99364e-14
5.99393e-14
5.99371e-14
5.99414e-14
5.99386e-14
5.99453e-14
5.99418e-14
5.99522e-14
5.99477e-14
5.99644e-14
5.99562e-14
5.9973e-14
5.99376e-14
5.98865e-14
5.97215e-14
5.94047e-14
5.90768e-14
5.67331e-14
5.7047e-14
5.73467e-14
5.7503e-14
5.75519e-14
5.75853e-14
5.75695e-14
5.75767e-14
5.75609e-14
5.75646e-14
5.75548e-14
5.75578e-14
5.75515e-14
5.75539e-14
5.75499e-14
5.75519e-14
5.75492e-14
5.7551e-14
5.75492e-14
5.75504e-14
5.75492e-14
5.75499e-14
5.75492e-14
5.75496e-14
5.75494e-14
5.75494e-14
5.75496e-14
5.75492e-14
5.75499e-14
5.75492e-14
5.75504e-14
5.75492e-14
5.7551e-14
5.75492e-14
5.7552e-14
5.75499e-14
5.75539e-14
5.75515e-14
5.75578e-14
5.75548e-14
5.75646e-14
5.75609e-14
5.75767e-14
5.75694e-14
5.75853e-14
5.75518e-14
5.75029e-14
5.73467e-14
5.7047e-14
5.67331e-14
5.45798e-14
5.48809e-14
5.51644e-14
5.53124e-14
5.53592e-14
5.53908e-14
5.53758e-14
5.53821e-14
5.53671e-14
5.53702e-14
5.53609e-14
5.53635e-14
5.53575e-14
5.53596e-14
5.53558e-14
5.53577e-14
5.53551e-14
5.53567e-14
5.53551e-14
5.53561e-14
5.53551e-14
5.53557e-14
5.5355e-14
5.53554e-14
5.53552e-14
5.53552e-14
5.53554e-14
5.5355e-14
5.53557e-14
5.53551e-14
5.53561e-14
5.53551e-14
5.53567e-14
5.53551e-14
5.53577e-14
5.53558e-14
5.53597e-14
5.53575e-14
5.53635e-14
5.53609e-14
5.53702e-14
5.53671e-14
5.53821e-14
5.53758e-14
5.53907e-14
5.53592e-14
5.53123e-14
5.51643e-14
5.48809e-14
5.45798e-14
5.25951e-14
5.28848e-14
5.31526e-14
5.32929e-14
5.33377e-14
5.33675e-14
5.33533e-14
5.33588e-14
5.33445e-14
5.3347e-14
5.33381e-14
5.33403e-14
5.33347e-14
5.33365e-14
5.33329e-14
5.33346e-14
5.33322e-14
5.33336e-14
5.33321e-14
5.33331e-14
5.33321e-14
5.33326e-14
5.3332e-14
5.33323e-14
5.33322e-14
5.33322e-14
5.33323e-14
5.3332e-14
5.33326e-14
5.33321e-14
5.33331e-14
5.33321e-14
5.33336e-14
5.33322e-14
5.33346e-14
5.33329e-14
5.33365e-14
5.33347e-14
5.33403e-14
5.33381e-14
5.3347e-14
5.33444e-14
5.33587e-14
5.33532e-14
5.33674e-14
5.33377e-14
5.32929e-14
5.31526e-14
5.28848e-14
5.25951e-14
5.07602e-14
5.10396e-14
5.12923e-14
5.14255e-14
5.14683e-14
5.14963e-14
5.14828e-14
5.14875e-14
5.14739e-14
5.14759e-14
5.14674e-14
5.14693e-14
5.14638e-14
5.14655e-14
5.14621e-14
5.14636e-14
5.14613e-14
5.14626e-14
5.14612e-14
5.14621e-14
5.14611e-14
5.14617e-14
5.14611e-14
5.14614e-14
5.14612e-14
5.14612e-14
5.14614e-14
5.14611e-14
5.14617e-14
5.14611e-14
5.14621e-14
5.14612e-14
5.14626e-14
5.14613e-14
5.14636e-14
5.14621e-14
5.14655e-14
5.14638e-14
5.14693e-14
5.14674e-14
5.14759e-14
5.14739e-14
5.14875e-14
5.14828e-14
5.14963e-14
5.14683e-14
5.14255e-14
5.12923e-14
5.10396e-14
5.07602e-14
4.90586e-14
4.93282e-14
4.95677e-14
4.96936e-14
4.97343e-14
4.97607e-14
4.97477e-14
4.97518e-14
4.97387e-14
4.97403e-14
4.97321e-14
4.97337e-14
4.97285e-14
4.97299e-14
4.97266e-14
4.9728e-14
4.97258e-14
4.97271e-14
4.97257e-14
4.97266e-14
4.97256e-14
4.97261e-14
4.97256e-14
4.97259e-14
4.97257e-14
4.97257e-14
4.97259e-14
4.97256e-14
4.97261e-14
4.97256e-14
4.97266e-14
4.97257e-14
4.97271e-14
4.97258e-14
4.9728e-14
4.97267e-14
4.97299e-14
4.97285e-14
4.97336e-14
4.97321e-14
4.97403e-14
4.97387e-14
4.97518e-14
4.97477e-14
4.97607e-14
4.97342e-14
4.96936e-14
4.95677e-14
4.93282e-14
4.90586e-14
4.74762e-14
4.77367e-14
4.79635e-14
4.80826e-14
4.81211e-14
4.8146e-14
4.81336e-14
4.8137e-14
4.81244e-14
4.81256e-14
4.81177e-14
4.8119e-14
4.8114e-14
4.81153e-14
4.81121e-14
4.81134e-14
4.81113e-14
4.81125e-14
4.81112e-14
4.8112e-14
4.81111e-14
4.81116e-14
4.8111e-14
4.81113e-14
4.81112e-14
4.81112e-14
4.81113e-14
4.8111e-14
4.81116e-14
4.81111e-14
4.8112e-14
4.81112e-14
4.81125e-14
4.81113e-14
4.81134e-14
4.81122e-14
4.81153e-14
4.8114e-14
4.8119e-14
4.81177e-14
4.81256e-14
4.81244e-14
4.8137e-14
4.81336e-14
4.8146e-14
4.81211e-14
4.80825e-14
4.79635e-14
4.77366e-14
4.74762e-14
4.60005e-14
4.62524e-14
4.64671e-14
4.65797e-14
4.66163e-14
4.66397e-14
4.66277e-14
4.66304e-14
4.66184e-14
4.66191e-14
4.66115e-14
4.66126e-14
4.66078e-14
4.66089e-14
4.66059e-14
4.6607e-14
4.6605e-14
4.66061e-14
4.66049e-14
4.66056e-14
4.66048e-14
4.66052e-14
4.66047e-14
4.6605e-14
4.66048e-14
4.66048e-14
4.6605e-14
4.66047e-14
4.66052e-14
4.66048e-14
4.66056e-14
4.66049e-14
4.66061e-14
4.6605e-14
4.6607e-14
4.66059e-14
4.66089e-14
4.66078e-14
4.66126e-14
4.66116e-14
4.66191e-14
4.66184e-14
4.66304e-14
4.66277e-14
4.66396e-14
4.66162e-14
4.65797e-14
4.64671e-14
4.62523e-14
4.60005e-14
4.46206e-14
4.48642e-14
4.50674e-14
4.51739e-14
4.52085e-14
4.52304e-14
4.52188e-14
4.5221e-14
4.52094e-14
4.52098e-14
4.52025e-14
4.52032e-14
4.51986e-14
4.51996e-14
4.51967e-14
4.51977e-14
4.51958e-14
4.51968e-14
4.51956e-14
4.51963e-14
4.51955e-14
4.51959e-14
4.51955e-14
4.51957e-14
4.51956e-14
4.51956e-14
4.51957e-14
4.51955e-14
4.51959e-14
4.51955e-14
4.51963e-14
4.51956e-14
4.51968e-14
4.51958e-14
4.51977e-14
4.51967e-14
4.51996e-14
4.51987e-14
4.52032e-14
4.52025e-14
4.52098e-14
4.52094e-14
4.5221e-14
4.52188e-14
4.52304e-14
4.52084e-14
4.51739e-14
4.50674e-14
4.48641e-14
4.46205e-14
4.33267e-14
4.35623e-14
4.37547e-14
4.38554e-14
4.3888e-14
4.39085e-14
4.38973e-14
4.3899e-14
4.38877e-14
4.38878e-14
4.38807e-14
4.38812e-14
4.38768e-14
4.38776e-14
4.38748e-14
4.38758e-14
4.38739e-14
4.38749e-14
4.38737e-14
4.38744e-14
4.38736e-14
4.3874e-14
4.38736e-14
4.38738e-14
4.38736e-14
4.38736e-14
4.38738e-14
4.38736e-14
4.3874e-14
4.38736e-14
4.38744e-14
4.38737e-14
4.38749e-14
4.3874e-14
4.38758e-14
4.38748e-14
4.38776e-14
4.38768e-14
4.38812e-14
4.38807e-14
4.38878e-14
4.38877e-14
4.38989e-14
4.38973e-14
4.39085e-14
4.38879e-14
4.38554e-14
4.37546e-14