/*--------------------------------*- C++ -*----------------------------------*\
| =========                 |                                                 |
| \\      /  F ield         | OpenFOAM: The Open Source CFD Toolbox           |
|  \\    /   O peration     | Version:  dev                                   |
|   \\  /    A nd           | Web:      www.OpenFOAM.org                      |
|    \\/     M anipulation  |                                                 |
\*---------------------------------------------------------------------------*/
FoamFile
{
    version     2.0;
    format      ascii;
    class       volScalarField;
    location    "0.1";
    object      i-C6H5;
}
// * * * * * * * * * * * * * * * * * * * * * * * * * * * * * * * * * * * * * //

dimensions      [0 0 0 0 0 0 0];

internalField   nonuniform List<scalar> 
8000
(
4.67318e-09
4.68546e-09
4.69702e-09
4.70199e-09
4.70233e-09
4.70353e-09
4.70294e-09
4.70354e-09
4.70303e-09
4.70343e-09
4.70308e-09
4.70336e-09
4.70313e-09
4.7033e-09
4.70315e-09
4.70327e-09
4.70316e-09
4.70326e-09
4.70319e-09
4.70324e-09
4.7032e-09
4.70323e-09
4.7032e-09
4.70322e-09
4.70321e-09
4.70321e-09
4.70322e-09
4.7032e-09
4.70323e-09
4.7032e-09
4.70324e-09
4.70319e-09
4.70326e-09
4.70316e-09
4.70328e-09
4.70315e-09
4.7033e-09
4.70313e-09
4.70336e-09
4.70309e-09
4.70343e-09
4.70303e-09
4.70354e-09
4.70294e-09
4.70353e-09
4.70233e-09
4.70199e-09
4.69702e-09
4.68546e-09
4.67318e-09
2.20393e-08
2.20837e-08
2.21274e-08
2.21461e-08
2.21465e-08
2.21514e-08
2.21487e-08
2.21513e-08
2.21491e-08
2.21508e-08
2.21493e-08
2.21505e-08
2.21495e-08
2.21503e-08
2.21496e-08
2.21502e-08
2.21497e-08
2.21501e-08
2.21498e-08
2.215e-08
2.21499e-08
2.215e-08
2.21499e-08
2.215e-08
2.21499e-08
2.21499e-08
2.215e-08
2.21499e-08
2.215e-08
2.21499e-08
2.215e-08
2.21498e-08
2.21501e-08
2.21497e-08
2.21502e-08
2.21496e-08
2.21503e-08
2.21495e-08
2.21505e-08
2.21493e-08
2.21508e-08
2.21491e-08
2.21513e-08
2.21487e-08
2.21514e-08
2.21465e-08
2.21461e-08
2.21274e-08
2.20837e-08
2.20393e-08
2.04627e-08
2.04683e-08
2.04671e-08
2.04652e-08
2.04607e-08
2.04622e-08
2.04601e-08
2.04615e-08
2.04603e-08
2.04613e-08
2.04605e-08
2.04612e-08
2.04606e-08
2.04611e-08
2.04607e-08
2.0461e-08
2.04608e-08
2.0461e-08
2.04608e-08
2.04609e-08
2.04608e-08
2.04609e-08
2.04609e-08
2.04609e-08
2.04609e-08
2.04609e-08
2.04609e-08
2.04609e-08
2.04609e-08
2.04608e-08
2.04609e-08
2.04608e-08
2.0461e-08
2.04608e-08
2.0461e-08
2.04607e-08
2.04611e-08
2.04606e-08
2.04612e-08
2.04605e-08
2.04613e-08
2.04603e-08
2.04615e-08
2.04601e-08
2.04622e-08
2.04607e-08
2.04652e-08
2.04671e-08
2.04683e-08
2.04627e-08
1.07469e-08
1.07476e-08
1.07451e-08
1.07426e-08
1.07394e-08
1.07401e-08
1.07388e-08
1.07396e-08
1.07388e-08
1.07395e-08
1.0739e-08
1.07394e-08
1.07391e-08
1.07394e-08
1.07391e-08
1.07393e-08
1.07392e-08
1.07393e-08
1.07392e-08
1.07393e-08
1.07392e-08
1.07393e-08
1.07392e-08
1.07392e-08
1.07392e-08
1.07392e-08
1.07392e-08
1.07392e-08
1.07393e-08
1.07392e-08
1.07393e-08
1.07392e-08
1.07393e-08
1.07392e-08
1.07393e-08
1.07391e-08
1.07394e-08
1.07391e-08
1.07394e-08
1.0739e-08
1.07395e-08
1.07388e-08
1.07396e-08
1.07388e-08
1.07401e-08
1.07394e-08
1.07426e-08
1.07451e-08
1.07476e-08
1.07469e-08
5.6811e-09
5.68497e-09
5.68842e-09
5.68879e-09
5.68705e-09
5.68791e-09
5.6869e-09
5.68763e-09
5.68697e-09
5.6875e-09
5.68707e-09
5.68743e-09
5.68714e-09
5.68737e-09
5.68718e-09
5.68735e-09
5.68721e-09
5.68732e-09
5.68724e-09
5.6873e-09
5.68725e-09
5.68729e-09
5.68726e-09
5.68728e-09
5.68727e-09
5.68727e-09
5.68728e-09
5.68726e-09
5.68729e-09
5.68725e-09
5.6873e-09
5.68724e-09
5.68732e-09
5.68721e-09
5.68735e-09
5.68718e-09
5.68738e-09
5.68714e-09
5.68743e-09
5.68707e-09
5.6875e-09
5.68697e-09
5.68763e-09
5.6869e-09
5.68791e-09
5.68705e-09
5.68879e-09
5.68842e-09
5.68497e-09
5.6811e-09
3.51605e-09
3.52152e-09
3.52784e-09
3.52968e-09
3.52876e-09
3.52966e-09
3.52885e-09
3.52948e-09
3.52892e-09
3.52937e-09
3.52899e-09
3.5293e-09
3.52905e-09
3.52925e-09
3.52908e-09
3.52922e-09
3.5291e-09
3.5292e-09
3.52912e-09
3.52918e-09
3.52913e-09
3.52917e-09
3.52914e-09
3.52916e-09
3.52915e-09
3.52915e-09
3.52916e-09
3.52914e-09
3.52917e-09
3.52913e-09
3.52918e-09
3.52912e-09
3.5292e-09
3.5291e-09
3.52922e-09
3.52908e-09
3.52925e-09
3.52905e-09
3.5293e-09
3.52899e-09
3.52937e-09
3.52892e-09
3.52949e-09
3.52885e-09
3.52966e-09
3.52877e-09
3.52968e-09
3.52784e-09
3.52152e-09
3.51605e-09
2.55685e-09
2.5626e-09
2.56979e-09
2.57215e-09
2.57164e-09
2.57249e-09
2.57182e-09
2.57237e-09
2.57187e-09
2.57226e-09
2.57193e-09
2.5722e-09
2.57198e-09
2.57215e-09
2.57201e-09
2.57213e-09
2.57202e-09
2.57211e-09
2.57204e-09
2.57209e-09
2.57205e-09
2.57208e-09
2.57206e-09
2.57207e-09
2.57207e-09
2.57207e-09
2.57207e-09
2.57206e-09
2.57208e-09
2.57205e-09
2.57209e-09
2.57204e-09
2.57211e-09
2.57202e-09
2.57213e-09
2.57201e-09
2.57215e-09
2.57198e-09
2.5722e-09
2.57193e-09
2.57226e-09
2.57187e-09
2.57237e-09
2.57181e-09
2.57249e-09
2.57164e-09
2.57215e-09
2.56979e-09
2.5626e-09
2.55685e-09
2.06708e-09
2.07261e-09
2.0799e-09
2.08236e-09
2.08206e-09
2.08285e-09
2.08226e-09
2.08275e-09
2.08231e-09
2.08265e-09
2.08236e-09
2.08259e-09
2.08239e-09
2.08255e-09
2.08242e-09
2.08252e-09
2.08243e-09
2.08251e-09
2.08245e-09
2.0825e-09
2.08246e-09
2.08248e-09
2.08246e-09
2.08248e-09
2.08247e-09
2.08247e-09
2.08248e-09
2.08246e-09
2.08249e-09
2.08246e-09
2.0825e-09
2.08245e-09
2.08251e-09
2.08243e-09
2.08253e-09
2.08242e-09
2.08255e-09
2.08239e-09
2.08259e-09
2.08236e-09
2.08265e-09
2.08231e-09
2.08275e-09
2.08226e-09
2.08285e-09
2.08206e-09
2.08236e-09
2.0799e-09
2.07261e-09
2.06708e-09
1.75575e-09
1.76092e-09
1.76804e-09
1.77045e-09
1.77027e-09
1.77099e-09
1.77046e-09
1.77091e-09
1.7705e-09
1.77081e-09
1.77055e-09
1.77076e-09
1.77058e-09
1.77072e-09
1.7706e-09
1.7707e-09
1.77061e-09
1.77068e-09
1.77063e-09
1.77067e-09
1.77064e-09
1.77066e-09
1.77064e-09
1.77065e-09
1.77065e-09
1.77065e-09
1.77065e-09
1.77064e-09
1.77066e-09
1.77064e-09
1.77067e-09
1.77063e-09
1.77068e-09
1.77061e-09
1.7707e-09
1.7706e-09
1.77072e-09
1.77058e-09
1.77076e-09
1.77055e-09
1.77081e-09
1.7705e-09
1.77091e-09
1.77046e-09
1.77099e-09
1.77027e-09
1.77045e-09
1.76804e-09
1.76092e-09
1.75575e-09
1.52018e-09
1.52499e-09
1.53186e-09
1.53418e-09
1.53407e-09
1.53474e-09
1.53426e-09
1.53467e-09
1.53429e-09
1.53458e-09
1.53433e-09
1.53453e-09
1.53436e-09
1.53449e-09
1.53438e-09
1.53447e-09
1.53439e-09
1.53445e-09
1.53441e-09
1.53444e-09
1.53441e-09
1.53443e-09
1.53442e-09
1.53443e-09
1.53442e-09
1.53442e-09
1.53443e-09
1.53442e-09
1.53443e-09
1.53441e-09
1.53444e-09
1.5344e-09
1.53445e-09
1.53439e-09
1.53447e-09
1.53438e-09
1.53449e-09
1.53436e-09
1.53453e-09
1.53433e-09
1.53458e-09
1.53429e-09
1.53466e-09
1.53426e-09
1.53474e-09
1.53407e-09
1.53418e-09
1.53186e-09
1.52499e-09
1.52018e-09
1.32167e-09
1.32617e-09
1.33274e-09
1.33496e-09
1.33491e-09
1.33554e-09
1.33509e-09
1.33546e-09
1.33512e-09
1.33538e-09
1.33515e-09
1.33533e-09
1.33518e-09
1.33529e-09
1.33519e-09
1.33528e-09
1.3352e-09
1.33526e-09
1.33522e-09
1.33525e-09
1.33522e-09
1.33524e-09
1.33523e-09
1.33524e-09
1.33523e-09
1.33523e-09
1.33524e-09
1.33523e-09
1.33524e-09
1.33522e-09
1.33525e-09
1.33522e-09
1.33526e-09
1.3352e-09
1.33528e-09
1.33519e-09
1.3353e-09
1.33518e-09
1.33533e-09
1.33515e-09
1.33538e-09
1.33512e-09
1.33546e-09
1.33509e-09
1.33553e-09
1.33491e-09
1.33496e-09
1.33274e-09
1.32617e-09
1.32167e-09
1.14167e-09
1.14576e-09
1.15183e-09
1.15389e-09
1.15389e-09
1.15445e-09
1.15405e-09
1.15438e-09
1.15407e-09
1.1543e-09
1.1541e-09
1.15426e-09
1.15412e-09
1.15423e-09
1.15414e-09
1.15421e-09
1.15414e-09
1.1542e-09
1.15416e-09
1.15419e-09
1.15416e-09
1.15418e-09
1.15417e-09
1.15417e-09
1.15417e-09
1.15417e-09
1.15418e-09
1.15417e-09
1.15418e-09
1.15416e-09
1.15419e-09
1.15416e-09
1.1542e-09
1.15414e-09
1.15421e-09
1.15413e-09
1.15423e-09
1.15412e-09
1.15426e-09
1.1541e-09
1.1543e-09
1.15407e-09
1.15438e-09
1.15405e-09
1.15445e-09
1.15389e-09
1.15389e-09
1.15183e-09
1.14576e-09
1.14167e-09
9.90661e-10
9.94505e-10
1.00022e-09
1.00218e-09
1.0022e-09
1.00272e-09
1.00235e-09
1.00266e-09
1.00237e-09
1.00259e-09
1.00239e-09
1.00254e-09
1.00241e-09
1.00251e-09
1.00243e-09
1.0025e-09
1.00243e-09
1.00249e-09
1.00245e-09
1.00248e-09
1.00245e-09
1.00247e-09
1.00246e-09
1.00246e-09
1.00246e-09
1.00246e-09
1.00246e-09
1.00246e-09
1.00247e-09
1.00245e-09
1.00248e-09
1.00245e-09
1.00248e-09
1.00244e-09
1.0025e-09
1.00243e-09
1.00251e-09
1.00241e-09
1.00254e-09
1.00239e-09
1.00259e-09
1.00237e-09
1.00266e-09
1.00235e-09
1.00272e-09
1.0022e-09
1.00218e-09
1.00022e-09
9.94505e-10
9.90661e-10
8.59616e-10
8.62648e-10
8.6749e-10
8.69187e-10
8.69313e-10
8.69747e-10
8.69465e-10
8.69709e-10
8.69475e-10
8.69645e-10
8.69492e-10
8.69609e-10
8.69507e-10
8.69582e-10
8.69516e-10
8.69569e-10
8.6952e-10
8.6956e-10
8.6953e-10
8.69553e-10
8.69534e-10
8.69547e-10
8.69536e-10
8.69543e-10
8.6954e-10
8.6954e-10
8.69543e-10
8.69536e-10
8.69547e-10
8.69534e-10
8.69553e-10
8.6953e-10
8.6956e-10
8.6952e-10
8.69569e-10
8.69515e-10
8.69583e-10
8.69507e-10
8.69609e-10
8.69492e-10
8.69646e-10
8.69475e-10
8.69709e-10
8.69465e-10
8.69746e-10
8.69313e-10
8.69187e-10
8.6749e-10
8.62648e-10
8.59616e-10
7.43997e-10
7.4673e-10
7.51049e-10
7.52589e-10
7.52733e-10
7.53117e-10
7.52873e-10
7.53084e-10
7.52878e-10
7.53027e-10
7.52892e-10
7.52994e-10
7.52904e-10
7.5297e-10
7.52911e-10
7.52958e-10
7.52915e-10
7.5295e-10
7.52924e-10
7.52944e-10
7.52927e-10
7.52939e-10
7.52929e-10
7.52935e-10
7.52932e-10
7.52932e-10
7.52935e-10
7.52929e-10
7.52939e-10
7.52927e-10
7.52944e-10
7.52924e-10
7.5295e-10
7.52915e-10
7.52958e-10
7.52911e-10
7.5297e-10
7.52904e-10
7.52994e-10
7.52892e-10
7.53027e-10
7.52878e-10
7.53084e-10
7.52873e-10
7.53117e-10
7.52733e-10
7.52589e-10
7.51049e-10
7.46731e-10
7.43997e-10
6.49585e-10
6.52116e-10
6.56045e-10
6.57471e-10
6.57628e-10
6.57977e-10
6.57758e-10
6.57948e-10
6.57761e-10
6.57894e-10
6.57772e-10
6.57863e-10
6.57782e-10
6.57841e-10
6.57788e-10
6.5783e-10
6.57792e-10
6.57823e-10
6.57799e-10
6.57817e-10
6.57802e-10
6.57813e-10
6.57804e-10
6.57809e-10
6.57807e-10
6.57807e-10
6.57809e-10
6.57804e-10
6.57813e-10
6.57802e-10
6.57817e-10
6.57799e-10
6.57823e-10
6.57792e-10
6.5783e-10
6.57788e-10
6.57842e-10
6.57782e-10
6.57863e-10
6.57772e-10
6.57894e-10
6.57761e-10
6.57947e-10
6.57758e-10
6.57976e-10
6.57628e-10
6.57471e-10
6.56045e-10
6.52116e-10
6.49585e-10
5.67095e-10
5.69568e-10
5.73267e-10
5.74679e-10
5.7488e-10
5.75215e-10
5.75018e-10
5.7519e-10
5.75017e-10
5.75136e-10
5.75024e-10
5.75106e-10
5.75031e-10
5.75085e-10
5.75036e-10
5.75074e-10
5.75038e-10
5.75067e-10
5.75045e-10
5.75062e-10
5.75048e-10
5.75057e-10
5.75049e-10
5.75054e-10
5.75052e-10
5.75052e-10
5.75054e-10
5.75049e-10
5.75057e-10
5.75048e-10
5.75062e-10
5.75045e-10
5.75067e-10
5.75039e-10
5.75074e-10
5.75036e-10
5.75085e-10
5.75031e-10
5.75106e-10
5.75024e-10
5.75137e-10
5.75017e-10
5.7519e-10
5.75018e-10
5.75214e-10
5.7488e-10
5.74679e-10
5.73267e-10
5.69568e-10
5.67095e-10
4.99843e-10
5.02169e-10
5.05525e-10
5.06835e-10
5.07043e-10
5.07348e-10
5.07173e-10
5.07326e-10
5.0717e-10
5.07276e-10
5.07175e-10
5.07248e-10
5.07181e-10
5.07228e-10
5.07184e-10
5.07218e-10
5.07186e-10
5.07212e-10
5.07192e-10
5.07207e-10
5.07194e-10
5.07203e-10
5.07196e-10
5.072e-10
5.07198e-10
5.07198e-10
5.072e-10
5.07196e-10
5.07203e-10
5.07194e-10
5.07207e-10
5.07192e-10
5.07212e-10
5.07186e-10
5.07218e-10
5.07184e-10
5.07228e-10
5.07181e-10
5.07247e-10
5.07175e-10
5.07276e-10
5.0717e-10
5.07326e-10
5.07173e-10
5.07347e-10
5.07043e-10
5.06835e-10
5.05525e-10
5.02169e-10
4.99844e-10
4.40959e-10
4.43288e-10
4.46489e-10
4.47781e-10
4.47982e-10
4.48278e-10
4.48105e-10
4.48253e-10
4.481e-10
4.48204e-10
4.48105e-10
4.48176e-10
4.48111e-10
4.48157e-10
4.48115e-10
4.48147e-10
4.48117e-10
4.48141e-10
4.48123e-10
4.48137e-10
4.48125e-10
4.48133e-10
4.48126e-10
4.4813e-10
4.48128e-10
4.48128e-10
4.4813e-10
4.48126e-10
4.48133e-10
4.48125e-10
4.48137e-10
4.48122e-10
4.48141e-10
4.48117e-10
4.48148e-10
4.48114e-10
4.48157e-10
4.48111e-10
4.48176e-10
4.48105e-10
4.48204e-10
4.481e-10
4.48253e-10
4.48105e-10
4.48278e-10
4.47981e-10
4.4778e-10
4.46489e-10
4.43288e-10
4.40959e-10
3.91014e-10
3.93222e-10
3.96082e-10
3.97265e-10
3.97464e-10
3.9773e-10
3.97578e-10
3.97708e-10
3.97572e-10
3.97662e-10
3.97575e-10
3.97637e-10
3.97579e-10
3.9762e-10
3.97582e-10
3.97611e-10
3.97584e-10
3.97606e-10
3.97589e-10
3.97602e-10
3.97591e-10
3.97598e-10
3.97592e-10
3.97596e-10
3.97594e-10
3.97594e-10
3.97596e-10
3.97592e-10
3.97598e-10
3.97591e-10
3.97602e-10
3.97589e-10
3.97606e-10
3.97584e-10
3.97611e-10
3.97582e-10
3.9762e-10
3.97579e-10
3.97637e-10
3.97575e-10
3.97663e-10
3.97572e-10
3.97708e-10
3.97578e-10
3.9773e-10
3.97464e-10
3.97265e-10
3.96082e-10
3.93222e-10
3.91014e-10
3.50104e-10
3.52258e-10
3.54865e-10
3.55968e-10
3.56165e-10
3.5641e-10
3.56272e-10
3.5639e-10
3.56265e-10
3.56346e-10
3.56267e-10
3.56323e-10
3.5627e-10
3.56307e-10
3.56272e-10
3.56299e-10
3.56274e-10
3.56294e-10
3.56278e-10
3.5629e-10
3.5628e-10
3.56287e-10
3.56281e-10
3.56285e-10
3.56283e-10
3.56283e-10
3.56285e-10
3.56281e-10
3.56287e-10
3.5628e-10
3.5629e-10
3.56278e-10
3.56294e-10
3.56274e-10
3.56299e-10
3.56272e-10
3.56307e-10
3.5627e-10
3.56323e-10
3.56267e-10
3.56347e-10
3.56265e-10
3.56389e-10
3.56272e-10
3.5641e-10
3.56164e-10
3.55968e-10
3.54864e-10
3.52258e-10
3.50105e-10
3.15212e-10
3.17342e-10
3.19727e-10
3.20759e-10
3.20952e-10
3.21179e-10
3.21053e-10
3.21159e-10
3.21045e-10
3.21119e-10
3.21045e-10
3.21096e-10
3.21048e-10
3.21082e-10
3.2105e-10
3.21074e-10
3.21051e-10
3.21069e-10
3.21055e-10
3.21066e-10
3.21057e-10
3.21063e-10
3.21058e-10
3.21061e-10
3.21059e-10
3.21059e-10
3.21061e-10
3.21058e-10
3.21063e-10
3.21057e-10
3.21066e-10
3.21055e-10
3.21069e-10
3.21051e-10
3.21074e-10
3.2105e-10
3.21082e-10
3.21048e-10
3.21096e-10
3.21046e-10
3.21119e-10
3.21045e-10
3.21159e-10
3.21053e-10
3.21179e-10
3.20951e-10
3.20759e-10
3.19727e-10
3.17342e-10
3.15212e-10
2.85328e-10
2.86584e-10
2.88662e-10
2.89597e-10
2.89804e-10
2.90012e-10
2.89908e-10
2.89997e-10
2.89898e-10
2.89958e-10
2.89894e-10
2.89935e-10
2.89893e-10
2.89921e-10
2.89893e-10
2.89913e-10
2.89894e-10
2.89909e-10
2.89897e-10
2.89906e-10
2.89898e-10
2.89903e-10
2.89898e-10
2.89901e-10
2.899e-10
2.899e-10
2.89901e-10
2.89898e-10
2.89903e-10
2.89898e-10
2.89906e-10
2.89897e-10
2.89909e-10
2.89894e-10
2.89913e-10
2.89893e-10
2.89921e-10
2.89893e-10
2.89935e-10
2.89894e-10
2.89958e-10
2.89897e-10
2.89997e-10
2.89908e-10
2.90011e-10
2.89804e-10
2.89597e-10
2.88662e-10
2.86584e-10
2.85328e-10
2.59634e-10
2.60852e-10
2.62752e-10
2.63626e-10
2.63827e-10
2.6402e-10
2.63926e-10
2.64007e-10
2.63915e-10
2.63969e-10
2.6391e-10
2.63948e-10
2.63909e-10
2.63934e-10
2.63909e-10
2.63927e-10
2.63909e-10
2.63923e-10
2.63911e-10
2.6392e-10
2.63912e-10
2.63917e-10
2.63913e-10
2.63915e-10
2.63914e-10
2.63914e-10
2.63915e-10
2.63913e-10
2.63917e-10
2.63912e-10
2.6392e-10
2.63911e-10
2.63922e-10
2.63909e-10
2.63927e-10
2.63909e-10
2.63934e-10
2.63909e-10
2.63948e-10
2.63911e-10
2.63969e-10
2.63915e-10
2.64007e-10
2.63926e-10
2.6402e-10
2.63827e-10
2.63626e-10
2.62752e-10
2.60852e-10
2.59634e-10
2.36596e-10
2.37791e-10
2.39571e-10
2.40415e-10
2.40619e-10
2.40804e-10
2.40716e-10
2.40791e-10
2.40704e-10
2.40753e-10
2.40698e-10
2.40732e-10
2.40696e-10
2.40719e-10
2.40695e-10
2.40712e-10
2.40695e-10
2.40708e-10
2.40697e-10
2.40705e-10
2.40698e-10
2.40703e-10
2.40699e-10
2.40701e-10
2.407e-10
2.407e-10
2.40701e-10
2.40699e-10
2.40703e-10
2.40698e-10
2.40705e-10
2.40697e-10
2.40708e-10
2.40695e-10
2.40712e-10
2.40695e-10
2.40719e-10
2.40696e-10
2.40732e-10
2.40698e-10
2.40753e-10
2.40704e-10
2.40791e-10
2.40716e-10
2.40804e-10
2.40619e-10
2.40415e-10
2.39571e-10
2.37791e-10
2.36596e-10
2.16578e-10
2.17723e-10
2.19342e-10
2.20126e-10
2.20323e-10
2.20494e-10
2.20415e-10
2.20481e-10
2.20402e-10
2.20445e-10
2.20395e-10
2.20425e-10
2.20393e-10
2.20413e-10
2.20391e-10
2.20406e-10
2.20391e-10
2.20402e-10
2.20393e-10
2.204e-10
2.20394e-10
2.20398e-10
2.20394e-10
2.20396e-10
2.20395e-10
2.20395e-10
2.20396e-10
2.20394e-10
2.20398e-10
2.20394e-10
2.204e-10
2.20393e-10
2.20402e-10
2.20391e-10
2.20406e-10
2.20391e-10
2.20413e-10
2.20393e-10
2.20425e-10
2.20395e-10
2.20446e-10
2.20402e-10
2.20481e-10
2.20415e-10
2.20494e-10
2.20323e-10
2.20126e-10
2.19342e-10
2.17723e-10
2.16578e-10
1.99103e-10
2.00201e-10
2.01677e-10
2.02407e-10
2.02597e-10
2.02755e-10
2.02683e-10
2.02742e-10
2.0267e-10
2.02709e-10
2.02663e-10
2.0269e-10
2.0266e-10
2.02678e-10
2.02658e-10
2.02671e-10
2.02657e-10
2.02668e-10
2.02659e-10
2.02665e-10
2.0266e-10
2.02663e-10
2.0266e-10
2.02662e-10
2.02661e-10
2.02661e-10
2.02662e-10
2.0266e-10
2.02663e-10
2.0266e-10
2.02665e-10
2.02659e-10
2.02668e-10
2.02657e-10
2.02671e-10
2.02658e-10
2.02678e-10
2.0266e-10
2.0269e-10
2.02663e-10
2.02709e-10
2.0267e-10
2.02742e-10
2.02683e-10
2.02755e-10
2.02597e-10
2.02407e-10
2.01677e-10
2.00201e-10
1.99103e-10
1.8378e-10
1.84833e-10
1.86185e-10
1.86864e-10
1.87046e-10
1.87193e-10
1.87128e-10
1.87181e-10
1.87115e-10
1.87149e-10
1.87107e-10
1.87131e-10
1.87103e-10
1.87119e-10
1.87101e-10
1.87113e-10
1.87101e-10
1.8711e-10
1.87102e-10
1.87108e-10
1.87103e-10
1.87106e-10
1.87103e-10
1.87104e-10
1.87104e-10
1.87104e-10
1.87104e-10
1.87103e-10
1.87106e-10
1.87103e-10
1.87108e-10
1.87102e-10
1.8711e-10
1.87101e-10
1.87113e-10
1.87101e-10
1.87119e-10
1.87103e-10
1.87131e-10
1.87107e-10
1.87149e-10
1.87115e-10
1.87181e-10
1.87128e-10
1.87193e-10
1.87046e-10
1.86864e-10
1.86185e-10
1.84833e-10
1.8378e-10
1.70289e-10
1.71297e-10
1.7254e-10
1.73172e-10
1.73347e-10
1.73484e-10
1.73425e-10
1.73472e-10
1.73411e-10
1.73441e-10
1.73402e-10
1.73424e-10
1.73398e-10
1.73413e-10
1.73396e-10
1.73407e-10
1.73395e-10
1.73404e-10
1.73397e-10
1.73402e-10
1.73397e-10
1.734e-10
1.73397e-10
1.73399e-10
1.73398e-10
1.73398e-10
1.73399e-10
1.73397e-10
1.734e-10
1.73397e-10
1.73402e-10
1.73397e-10
1.73404e-10
1.73395e-10
1.73407e-10
1.73396e-10
1.73413e-10
1.73398e-10
1.73423e-10
1.73403e-10
1.73441e-10
1.73411e-10
1.73472e-10
1.73425e-10
1.73484e-10
1.73347e-10
1.73172e-10
1.7254e-10
1.71297e-10
1.70289e-10
1.58362e-10
1.59327e-10
1.60474e-10
1.61063e-10
1.6123e-10
1.61358e-10
1.61304e-10
1.61346e-10
1.6129e-10
1.61316e-10
1.61281e-10
1.61299e-10
1.61276e-10
1.61289e-10
1.61274e-10
1.61283e-10
1.61273e-10
1.6128e-10
1.61274e-10
1.61278e-10
1.61274e-10
1.61277e-10
1.61274e-10
1.61276e-10
1.61275e-10
1.61275e-10
1.61276e-10
1.61274e-10
1.61277e-10
1.61274e-10
1.61278e-10
1.61274e-10
1.6128e-10
1.61273e-10
1.61283e-10
1.61274e-10
1.61289e-10
1.61276e-10
1.61299e-10
1.61281e-10
1.61316e-10
1.6129e-10
1.61346e-10
1.61304e-10
1.61357e-10
1.6123e-10
1.61062e-10
1.60474e-10
1.59327e-10
1.58363e-10
1.47778e-10
1.48701e-10
1.49762e-10
1.50311e-10
1.50471e-10
1.50591e-10
1.50541e-10
1.50579e-10
1.50527e-10
1.5055e-10
1.50517e-10
1.50534e-10
1.50512e-10
1.50524e-10
1.5051e-10
1.50519e-10
1.50509e-10
1.50516e-10
1.5051e-10
1.50514e-10
1.5051e-10
1.50512e-10
1.5051e-10
1.50511e-10
1.50511e-10
1.50511e-10
1.50511e-10
1.5051e-10
1.50512e-10
1.5051e-10
1.50514e-10
1.5051e-10
1.50516e-10
1.50509e-10
1.50519e-10
1.5051e-10
1.50524e-10
1.50512e-10
1.50534e-10
1.50518e-10
1.5055e-10
1.50527e-10
1.50579e-10
1.50541e-10
1.5059e-10
1.50471e-10
1.50311e-10
1.49762e-10
1.48701e-10
1.47778e-10
1.38351e-10
1.39233e-10
1.40218e-10
1.4073e-10
1.40884e-10
1.40995e-10
1.4095e-10
1.40984e-10
1.40936e-10
1.40956e-10
1.40925e-10
1.4094e-10
1.4092e-10
1.4093e-10
1.40917e-10
1.40925e-10
1.40916e-10
1.40923e-10
1.40917e-10
1.40921e-10
1.40917e-10
1.40919e-10
1.40917e-10
1.40918e-10
1.40918e-10
1.40918e-10
1.40918e-10
1.40917e-10
1.40919e-10
1.40917e-10
1.40921e-10
1.40917e-10
1.40922e-10
1.40916e-10
1.40925e-10
1.40917e-10
1.4093e-10
1.4092e-10
1.4094e-10
1.40926e-10
1.40956e-10
1.40935e-10
1.40984e-10
1.4095e-10
1.40995e-10
1.40884e-10
1.4073e-10
1.40218e-10
1.39233e-10
1.38351e-10
1.29925e-10
1.30768e-10
1.31684e-10
1.32163e-10
1.32309e-10
1.32414e-10
1.32372e-10
1.32402e-10
1.32357e-10
1.32375e-10
1.32347e-10
1.3236e-10
1.32341e-10
1.3235e-10
1.32338e-10
1.32345e-10
1.32337e-10
1.32343e-10
1.32338e-10
1.32341e-10
1.32338e-10
1.3234e-10
1.32338e-10
1.32339e-10
1.32338e-10
1.32338e-10
1.32339e-10
1.32338e-10
1.3234e-10
1.32338e-10
1.32341e-10
1.32338e-10
1.32343e-10
1.32337e-10
1.32346e-10
1.32338e-10
1.3235e-10
1.32341e-10
1.3236e-10
1.32347e-10
1.32375e-10
1.32357e-10
1.32402e-10
1.32372e-10
1.32414e-10
1.32309e-10
1.32163e-10
1.31684e-10
1.30768e-10
1.29925e-10
1.22368e-10
1.23173e-10
1.24027e-10
1.24475e-10
1.24615e-10
1.24713e-10
1.24674e-10
1.24701e-10
1.2466e-10
1.24675e-10
1.24649e-10
1.2466e-10
1.24643e-10
1.24651e-10
1.2464e-10
1.24646e-10
1.24638e-10
1.24643e-10
1.24639e-10
1.24642e-10
1.24639e-10
1.24641e-10
1.24639e-10
1.2464e-10
1.24639e-10
1.24639e-10
1.2464e-10
1.24639e-10
1.24641e-10
1.24639e-10
1.24642e-10
1.24639e-10
1.24643e-10
1.24638e-10
1.24646e-10
1.2464e-10
1.24651e-10
1.24643e-10
1.2466e-10
1.24649e-10
1.24675e-10
1.24659e-10
1.24701e-10
1.24674e-10
1.24713e-10
1.24615e-10
1.24475e-10
1.24027e-10
1.23173e-10
1.22368e-10
1.15567e-10
1.16336e-10
1.17133e-10
1.17554e-10
1.17687e-10
1.17779e-10
1.17743e-10
1.17767e-10
1.17728e-10
1.17742e-10
1.17717e-10
1.17727e-10
1.17711e-10
1.17718e-10
1.17708e-10
1.17713e-10
1.17706e-10
1.17711e-10
1.17706e-10
1.17709e-10
1.17706e-10
1.17708e-10
1.17706e-10
1.17707e-10
1.17707e-10
1.17707e-10
1.17707e-10
1.17706e-10
1.17708e-10
1.17706e-10
1.17709e-10
1.17706e-10
1.17711e-10
1.17706e-10
1.17713e-10
1.17708e-10
1.17718e-10
1.17711e-10
1.17727e-10
1.17717e-10
1.17742e-10
1.17728e-10
1.17767e-10
1.17743e-10
1.17779e-10
1.17687e-10
1.17554e-10
1.17133e-10
1.16336e-10
1.15567e-10
1.09428e-10
1.10161e-10
1.10908e-10
1.11302e-10
1.11429e-10
1.11515e-10
1.11482e-10
1.11504e-10
1.11467e-10
1.11479e-10
1.11455e-10
1.11464e-10
1.11449e-10
1.11455e-10
1.11446e-10
1.11451e-10
1.11444e-10
1.11448e-10
1.11444e-10
1.11447e-10
1.11444e-10
1.11446e-10
1.11444e-10
1.11445e-10
1.11444e-10
1.11444e-10
1.11445e-10
1.11444e-10
1.11446e-10
1.11444e-10
1.11447e-10
1.11444e-10
1.11448e-10
1.11444e-10
1.11451e-10
1.11446e-10
1.11455e-10
1.11449e-10
1.11464e-10
1.11455e-10
1.11479e-10
1.11467e-10
1.11504e-10
1.11482e-10
1.11515e-10
1.11429e-10
1.11302e-10
1.10908e-10
1.10161e-10
1.09428e-10
1.03867e-10
1.04566e-10
1.05266e-10
1.05637e-10
1.05758e-10
1.05839e-10
1.05808e-10
1.05827e-10
1.05793e-10
1.05803e-10
1.05781e-10
1.05788e-10
1.05774e-10
1.0578e-10
1.0577e-10
1.05775e-10
1.05769e-10
1.05773e-10
1.05769e-10
1.05771e-10
1.05769e-10
1.0577e-10
1.05769e-10
1.05769e-10
1.05769e-10
1.05769e-10
1.05769e-10
1.05769e-10
1.0577e-10
1.05769e-10
1.05771e-10
1.05769e-10
1.05773e-10
1.05769e-10
1.05775e-10
1.0577e-10
1.0578e-10
1.05774e-10
1.05788e-10
1.05781e-10
1.05803e-10
1.05792e-10
1.05827e-10
1.05808e-10
1.05839e-10
1.05758e-10
1.05637e-10
1.05266e-10
1.04566e-10
1.03867e-10
9.88154e-11
9.94798e-11
1.00138e-10
1.00487e-10
1.00602e-10
1.00678e-10
1.00649e-10
1.00666e-10
1.00634e-10
1.00642e-10
1.00621e-10
1.00628e-10
1.00614e-10
1.00619e-10
1.00611e-10
1.00615e-10
1.00609e-10
1.00613e-10
1.00609e-10
1.00611e-10
1.00609e-10
1.0061e-10
1.00609e-10
1.0061e-10
1.00609e-10
1.00609e-10
1.0061e-10
1.00609e-10
1.0061e-10
1.00609e-10
1.00611e-10
1.00609e-10
1.00613e-10
1.00609e-10
1.00615e-10
1.00611e-10
1.00619e-10
1.00614e-10
1.00628e-10
1.00621e-10
1.00642e-10
1.00634e-10
1.00666e-10
1.00649e-10
1.00678e-10
1.00602e-10
1.00487e-10
1.00138e-10
9.94797e-11
9.88154e-11
9.42116e-11
9.48415e-11
9.54627e-11
9.5791e-11
9.59006e-11
9.5972e-11
9.59445e-11
9.59593e-11
9.59286e-11
9.59356e-11
9.5916e-11
9.59215e-11
9.59089e-11
9.59132e-11
9.59052e-11
9.59089e-11
9.59034e-11
9.59067e-11
9.59033e-11
9.59054e-11
9.59031e-11
9.59043e-11
9.5903e-11
9.59037e-11
9.59033e-11
9.59033e-11
9.59037e-11
9.5903e-11
9.59043e-11
9.59031e-11
9.59054e-11
9.59033e-11
9.59067e-11
9.59034e-11
9.59089e-11
9.59052e-11
9.59133e-11
9.59089e-11
9.59215e-11
9.5916e-11
9.59356e-11
9.59285e-11
9.59593e-11
9.59445e-11
9.59719e-11
9.59005e-11
9.5791e-11
9.54627e-11
9.48414e-11
9.42116e-11
9.00013e-11
9.05999e-11
9.11858e-11
9.14951e-11
9.15992e-11
9.16663e-11
9.16402e-11
9.16532e-11
9.1624e-11
9.16298e-11
9.16111e-11
9.16158e-11
9.16039e-11
9.16077e-11
9.16e-11
9.16034e-11
9.15982e-11
9.16012e-11
9.1598e-11
9.15999e-11
9.15978e-11
9.15989e-11
9.15977e-11
9.15983e-11
9.15979e-11
9.15979e-11
9.15983e-11
9.15977e-11
9.15989e-11
9.15978e-11
9.15999e-11
9.1598e-11
9.16012e-11
9.15982e-11
9.16034e-11
9.16e-11
9.16077e-11
9.16039e-11
9.16158e-11
9.16112e-11
9.16298e-11
9.1624e-11
9.16532e-11
9.16402e-11
9.16662e-11
9.15991e-11
9.14951e-11
9.11858e-11
9.05998e-11
9.00012e-11
8.61388e-11
8.67091e-11
8.72616e-11
8.75531e-11
8.76519e-11
8.77149e-11
8.76902e-11
8.77014e-11
8.76736e-11
8.76782e-11
8.76605e-11
8.76644e-11
8.7653e-11
8.76563e-11
8.76491e-11
8.76521e-11
8.76472e-11
8.765e-11
8.76469e-11
8.76487e-11
8.76467e-11
8.76477e-11
8.76465e-11
8.76471e-11
8.76468e-11
8.76468e-11
8.76471e-11
8.76466e-11
8.76477e-11
8.76467e-11
8.76487e-11
8.76469e-11
8.76499e-11
8.76472e-11
8.76521e-11
8.76491e-11
8.76563e-11
8.7653e-11
8.76643e-11
8.76605e-11
8.76782e-11
8.76736e-11
8.77014e-11
8.76901e-11
8.77148e-11
8.76519e-11
8.7553e-11
8.72616e-11
8.6709e-11
8.61388e-11
8.25845e-11
8.31291e-11
8.36498e-11
8.39247e-11
8.40185e-11
8.40775e-11
8.40539e-11
8.40635e-11
8.4037e-11
8.40406e-11
8.40237e-11
8.40269e-11
8.4016e-11
8.40189e-11
8.4012e-11
8.40147e-11
8.40101e-11
8.40126e-11
8.40097e-11
8.40114e-11
8.40095e-11
8.40104e-11
8.40093e-11
8.40099e-11
8.40095e-11
8.40095e-11
8.40099e-11
8.40093e-11
8.40104e-11
8.40095e-11
8.40114e-11
8.40097e-11
8.40126e-11
8.40101e-11
8.40147e-11
8.4012e-11
8.40189e-11
8.4016e-11
8.40268e-11
8.40237e-11
8.40406e-11
8.4037e-11
8.40635e-11
8.40539e-11
8.40774e-11
8.40184e-11
8.39246e-11
8.36498e-11
8.3129e-11
8.25845e-11
7.93037e-11
7.98251e-11
8.03155e-11
8.05748e-11
8.06638e-11
8.0719e-11
8.06964e-11
8.07045e-11
8.06792e-11
8.06818e-11
8.06656e-11
8.06681e-11
8.06578e-11
8.06602e-11
8.06537e-11
8.06561e-11
8.06517e-11
8.0654e-11
8.06513e-11
8.06528e-11
8.0651e-11
8.06519e-11
8.06508e-11
8.06513e-11
8.0651e-11
8.0651e-11
8.06513e-11
8.06508e-11
8.06519e-11
8.0651e-11
8.06528e-11
8.06513e-11
8.0654e-11
8.06517e-11
8.06561e-11
8.06537e-11
8.06602e-11
8.06578e-11
8.06681e-11
8.06656e-11
8.06818e-11
8.06791e-11
8.07045e-11
8.06964e-11
8.07189e-11
8.06637e-11
8.05747e-11
8.03154e-11
7.98251e-11
7.93037e-11
7.62661e-11
7.67668e-11
7.72278e-11
7.74728e-11
7.75569e-11
7.76086e-11
7.75869e-11
7.75936e-11
7.75693e-11
7.7571e-11
7.75554e-11
7.75574e-11
7.75475e-11
7.75496e-11
7.75433e-11
7.75455e-11
7.75413e-11
7.75434e-11
7.75408e-11
7.75422e-11
7.75405e-11
7.75413e-11
7.75403e-11
7.75408e-11
7.75405e-11
7.75405e-11
7.75408e-11
7.75403e-11
7.75413e-11
7.75405e-11
7.75422e-11
7.75408e-11
7.75434e-11
7.75413e-11
7.75455e-11
7.75433e-11
7.75496e-11
7.75475e-11
7.75574e-11
7.75555e-11
7.7571e-11
7.75693e-11
7.75936e-11
7.75868e-11
7.76086e-11
7.75569e-11
7.74727e-11
7.72277e-11
7.67668e-11
7.62661e-11
7.34454e-11
7.39262e-11
7.43613e-11
7.45919e-11
7.46711e-11
7.47195e-11
7.46985e-11
7.47039e-11
7.46805e-11
7.46814e-11
7.46664e-11
7.46679e-11
7.46584e-11
7.46601e-11
7.46541e-11
7.4656e-11
7.46521e-11
7.4654e-11
7.46515e-11
7.46528e-11
7.46512e-11
7.46519e-11
7.4651e-11
7.46514e-11
7.46511e-11
7.46511e-11
7.46514e-11
7.4651e-11
7.46519e-11
7.46512e-11
7.46528e-11
7.46515e-11
7.46539e-11
7.46521e-11
7.4656e-11
7.46541e-11
7.46601e-11
7.46584e-11
7.46679e-11
7.46665e-11
7.46814e-11
7.46805e-11
7.47039e-11
7.46984e-11
7.47194e-11
7.46711e-11
7.45918e-11
7.43613e-11
7.39261e-11
7.34454e-11
7.08186e-11
7.12809e-11
7.16914e-11
7.19084e-11
7.19829e-11
7.20281e-11
7.20076e-11
7.20118e-11
7.19893e-11
7.19895e-11
7.1975e-11
7.19759e-11
7.19668e-11
7.19682e-11
7.19624e-11
7.19641e-11
7.19604e-11
7.19621e-11
7.19597e-11
7.19609e-11
7.19594e-11
7.19601e-11
7.19592e-11
7.19596e-11
7.19593e-11
7.19593e-11
7.19596e-11
7.19592e-11
7.19601e-11
7.19594e-11
7.19609e-11
7.19597e-11
7.19621e-11
7.19604e-11
7.19641e-11
7.19624e-11
7.19682e-11
7.19668e-11
7.19759e-11
7.1975e-11
7.19895e-11
7.19893e-11
7.20118e-11
7.20076e-11
7.2028e-11
7.19828e-11
7.19083e-11
7.16914e-11
7.12809e-11
7.08185e-11
6.83653e-11
6.88104e-11
6.91974e-11
6.94016e-11
6.94715e-11
6.95136e-11
6.94936e-11
6.94967e-11
6.94749e-11
6.94744e-11
6.94604e-11
6.94609e-11
6.94521e-11
6.94532e-11
6.94476e-11
6.94491e-11
6.94455e-11
6.94471e-11
6.94449e-11
6.9446e-11
6.94445e-11
6.94451e-11
6.94443e-11
6.94447e-11
6.94444e-11
6.94444e-11
6.94447e-11
6.94443e-11
6.94452e-11
6.94445e-11
6.9446e-11
6.94449e-11
6.94471e-11
6.94455e-11
6.94491e-11
6.94477e-11
6.94532e-11
6.94521e-11
6.94609e-11
6.94604e-11
6.94744e-11
6.94749e-11
6.94967e-11
6.94936e-11
6.95135e-11
6.94715e-11
6.94015e-11
6.91973e-11
6.88104e-11
6.83653e-11
6.60679e-11
6.64965e-11
6.68612e-11
6.70534e-11
6.71188e-11
6.71579e-11
6.71383e-11
6.71403e-11
6.71192e-11
6.7118e-11
6.71045e-11
6.71045e-11
6.7096e-11
6.70969e-11
6.70915e-11
6.70928e-11
6.70894e-11
6.70908e-11
6.70887e-11
6.70897e-11
6.70883e-11
6.70889e-11
6.70881e-11
6.70884e-11
6.70882e-11
6.70882e-11
6.70884e-11
6.70881e-11
6.70889e-11
6.70883e-11
6.70897e-11
6.70887e-11
6.70908e-11
6.70894e-11
6.70928e-11
6.70916e-11
6.70969e-11
6.7096e-11
6.71045e-11
6.71045e-11
6.7118e-11
6.71191e-11
6.71403e-11
6.71383e-11
6.71578e-11
6.71187e-11
6.70533e-11
6.68611e-11
6.64965e-11
6.60679e-11
6.39106e-11
6.43233e-11
6.46669e-11
6.48477e-11
6.49087e-11
6.49449e-11
6.49256e-11
6.49266e-11
6.49061e-11
6.49044e-11
6.48912e-11
6.48909e-11
6.48827e-11
6.48833e-11
6.48781e-11
6.48792e-11
6.48759e-11
6.48772e-11
6.48752e-11
6.48761e-11
6.48748e-11
6.48753e-11
6.48745e-11
6.48749e-11
6.48747e-11
6.48747e-11
6.48749e-11
6.48746e-11
6.48753e-11
6.48748e-11
6.48761e-11
6.48752e-11
6.48772e-11
6.48759e-11
6.48792e-11
6.48781e-11
6.48833e-11
6.48827e-11
6.48909e-11
6.48912e-11
6.49044e-11
6.49061e-11
6.49266e-11
6.49256e-11
6.49449e-11
6.49087e-11
6.48477e-11
6.46668e-11
6.43233e-11