/*--------------------------------*- C++ -*----------------------------------*\
| =========                 |                                                 |
| \\      /  F ield         | OpenFOAM: The Open Source CFD Toolbox           |
|  \\    /   O peration     | Version:  dev                                   |
|   \\  /    A nd           | Web:      www.OpenFOAM.org                      |
|    \\/     M anipulation  |                                                 |
\*---------------------------------------------------------------------------*/
FoamFile
{
    version     2.0;
    format      ascii;
    class       volScalarField;
    location    "0.1";
    object      n-A1C2H2;
}
// * * * * * * * * * * * * * * * * * * * * * * * * * * * * * * * * * * * * * //

dimensions      [0 0 0 0 0 0 0];

internalField   nonuniform List<scalar> 
8000
(
1.84906e-08
1.8518e-08
1.85256e-08
1.85263e-08
1.85266e-08
1.85263e-08
1.85263e-08
1.85262e-08
1.85262e-08
1.85262e-08
1.85262e-08
1.85261e-08
1.85262e-08
1.85262e-08
1.85262e-08
1.85262e-08
1.85262e-08
1.85262e-08
1.85262e-08
1.85262e-08
1.85262e-08
1.85262e-08
1.85262e-08
1.85262e-08
1.85262e-08
1.85262e-08
1.85262e-08
1.85262e-08
1.85262e-08
1.85262e-08
1.85262e-08
1.85262e-08
1.85262e-08
1.85262e-08
1.85262e-08
1.85262e-08
1.85262e-08
1.85262e-08
1.85261e-08
1.85262e-08
1.85262e-08
1.85262e-08
1.85262e-08
1.85263e-08
1.85263e-08
1.85266e-08
1.85263e-08
1.85256e-08
1.8518e-08
1.84906e-08
2.04605e-08
2.04568e-08
2.04505e-08
2.04447e-08
2.04435e-08
2.04421e-08
2.04422e-08
2.04418e-08
2.04421e-08
2.04418e-08
2.0442e-08
2.04419e-08
2.0442e-08
2.04419e-08
2.0442e-08
2.0442e-08
2.0442e-08
2.0442e-08
2.0442e-08
2.0442e-08
2.0442e-08
2.0442e-08
2.0442e-08
2.0442e-08
2.0442e-08
2.0442e-08
2.0442e-08
2.0442e-08
2.0442e-08
2.0442e-08
2.0442e-08
2.0442e-08
2.0442e-08
2.0442e-08
2.0442e-08
2.0442e-08
2.04419e-08
2.0442e-08
2.04419e-08
2.0442e-08
2.04418e-08
2.04421e-08
2.04418e-08
2.04422e-08
2.04421e-08
2.04435e-08
2.04447e-08
2.04505e-08
2.04568e-08
2.04605e-08
1.62127e-08
1.62013e-08
1.61898e-08
1.61819e-08
1.61798e-08
1.61783e-08
1.61783e-08
1.6178e-08
1.61782e-08
1.6178e-08
1.61782e-08
1.6178e-08
1.61782e-08
1.61781e-08
1.61782e-08
1.61781e-08
1.61782e-08
1.61781e-08
1.61782e-08
1.61782e-08
1.61782e-08
1.61782e-08
1.61782e-08
1.61782e-08
1.61782e-08
1.61782e-08
1.61782e-08
1.61782e-08
1.61782e-08
1.61782e-08
1.61782e-08
1.61782e-08
1.61781e-08
1.61782e-08
1.61781e-08
1.61782e-08
1.61781e-08
1.61782e-08
1.6178e-08
1.61782e-08
1.6178e-08
1.61782e-08
1.6178e-08
1.61783e-08
1.61783e-08
1.61798e-08
1.61819e-08
1.61898e-08
1.62013e-08
1.62127e-08
1.11801e-08
1.11692e-08
1.1159e-08
1.1152e-08
1.11497e-08
1.11487e-08
1.11485e-08
1.11483e-08
1.11483e-08
1.11483e-08
1.11484e-08
1.11483e-08
1.11484e-08
1.11484e-08
1.11484e-08
1.11484e-08
1.11484e-08
1.11484e-08
1.11484e-08
1.11484e-08
1.11484e-08
1.11484e-08
1.11484e-08
1.11484e-08
1.11484e-08
1.11484e-08
1.11484e-08
1.11484e-08
1.11484e-08
1.11484e-08
1.11484e-08
1.11484e-08
1.11484e-08
1.11484e-08
1.11484e-08
1.11484e-08
1.11484e-08
1.11484e-08
1.11483e-08
1.11484e-08
1.11483e-08
1.11483e-08
1.11483e-08
1.11485e-08
1.11487e-08
1.11497e-08
1.1152e-08
1.1159e-08
1.11692e-08
1.11801e-08
7.43543e-09
7.4276e-09
7.42127e-09
7.41625e-09
7.41437e-09
7.4137e-09
7.4134e-09
7.41338e-09
7.41333e-09
7.41337e-09
7.41336e-09
7.41339e-09
7.41338e-09
7.41341e-09
7.4134e-09
7.41342e-09
7.41342e-09
7.41342e-09
7.41342e-09
7.41342e-09
7.41342e-09
7.41343e-09
7.41343e-09
7.41343e-09
7.41343e-09
7.41343e-09
7.41343e-09
7.41343e-09
7.41343e-09
7.41342e-09
7.41342e-09
7.41342e-09
7.41342e-09
7.41342e-09
7.41342e-09
7.4134e-09
7.41341e-09
7.41338e-09
7.41339e-09
7.41336e-09
7.41337e-09
7.41333e-09
7.41338e-09
7.4134e-09
7.4137e-09
7.41437e-09
7.41625e-09
7.42127e-09
7.4276e-09
7.43543e-09
5.03236e-09
5.02733e-09
5.02424e-09
5.02092e-09
5.01944e-09
5.01908e-09
5.01874e-09
5.01882e-09
5.01869e-09
5.0188e-09
5.01873e-09
5.0188e-09
5.01876e-09
5.0188e-09
5.01878e-09
5.01881e-09
5.01879e-09
5.01881e-09
5.01879e-09
5.01881e-09
5.0188e-09
5.01881e-09
5.0188e-09
5.01881e-09
5.0188e-09
5.0188e-09
5.01881e-09
5.0188e-09
5.01881e-09
5.0188e-09
5.01881e-09
5.01879e-09
5.01881e-09
5.01879e-09
5.01881e-09
5.01877e-09
5.0188e-09
5.01876e-09
5.0188e-09
5.01873e-09
5.0188e-09
5.01869e-09
5.01882e-09
5.01874e-09
5.01908e-09
5.01944e-09
5.02092e-09
5.02424e-09
5.02733e-09
5.03236e-09
3.5299e-09
3.52681e-09
3.52583e-09
3.52369e-09
3.52254e-09
3.52237e-09
3.52202e-09
3.52215e-09
3.52199e-09
3.52212e-09
3.52202e-09
3.52211e-09
3.52205e-09
3.52211e-09
3.52207e-09
3.52211e-09
3.52208e-09
3.5221e-09
3.52209e-09
3.5221e-09
3.52209e-09
3.5221e-09
3.5221e-09
3.5221e-09
3.5221e-09
3.5221e-09
3.5221e-09
3.5221e-09
3.5221e-09
3.52209e-09
3.5221e-09
3.52209e-09
3.5221e-09
3.52208e-09
3.52211e-09
3.52207e-09
3.52211e-09
3.52205e-09
3.52211e-09
3.52202e-09
3.52212e-09
3.52199e-09
3.52215e-09
3.52202e-09
3.52237e-09
3.52254e-09
3.52369e-09
3.52583e-09
3.52681e-09
3.5299e-09
2.56746e-09
2.56565e-09
2.56597e-09
2.56462e-09
2.56371e-09
2.56366e-09
2.56331e-09
2.56347e-09
2.56329e-09
2.56343e-09
2.56332e-09
2.56342e-09
2.56335e-09
2.56341e-09
2.56337e-09
2.56341e-09
2.56338e-09
2.56341e-09
2.56339e-09
2.5634e-09
2.56339e-09
2.5634e-09
2.5634e-09
2.5634e-09
2.5634e-09
2.5634e-09
2.5634e-09
2.5634e-09
2.5634e-09
2.56339e-09
2.5634e-09
2.56339e-09
2.56341e-09
2.56338e-09
2.56341e-09
2.56337e-09
2.56341e-09
2.56335e-09
2.56342e-09
2.56332e-09
2.56343e-09
2.56329e-09
2.56347e-09
2.56331e-09
2.56366e-09
2.56371e-09
2.56462e-09
2.56597e-09
2.56565e-09
2.56746e-09
1.92924e-09
1.92831e-09
1.92942e-09
1.9286e-09
1.92787e-09
1.9279e-09
1.92757e-09
1.92773e-09
1.92755e-09
1.92769e-09
1.92758e-09
1.92768e-09
1.9276e-09
1.92767e-09
1.92762e-09
1.92766e-09
1.92763e-09
1.92766e-09
1.92764e-09
1.92765e-09
1.92764e-09
1.92765e-09
1.92764e-09
1.92765e-09
1.92765e-09
1.92765e-09
1.92765e-09
1.92764e-09
1.92765e-09
1.92764e-09
1.92765e-09
1.92764e-09
1.92766e-09
1.92763e-09
1.92766e-09
1.92762e-09
1.92767e-09
1.9276e-09
1.92768e-09
1.92758e-09
1.92769e-09
1.92755e-09
1.92773e-09
1.92757e-09
1.9279e-09
1.92787e-09
1.9286e-09
1.92942e-09
1.92831e-09
1.92924e-09
1.49079e-09
1.49046e-09
1.49205e-09
1.49162e-09
1.49102e-09
1.4911e-09
1.49079e-09
1.49096e-09
1.49077e-09
1.49091e-09
1.4908e-09
1.4909e-09
1.49082e-09
1.49088e-09
1.49084e-09
1.49088e-09
1.49084e-09
1.49088e-09
1.49085e-09
1.49087e-09
1.49086e-09
1.49087e-09
1.49086e-09
1.49087e-09
1.49086e-09
1.49086e-09
1.49087e-09
1.49086e-09
1.49087e-09
1.49086e-09
1.49087e-09
1.49085e-09
1.49088e-09
1.49084e-09
1.49088e-09
1.49084e-09
1.49089e-09
1.49082e-09
1.4909e-09
1.4908e-09
1.49091e-09
1.49077e-09
1.49096e-09
1.49079e-09
1.4911e-09
1.49102e-09
1.49162e-09
1.49205e-09
1.49046e-09
1.49079e-09
1.17988e-09
1.18e-09
1.18189e-09
1.18173e-09
1.18125e-09
1.18135e-09
1.18105e-09
1.18122e-09
1.18104e-09
1.18118e-09
1.18107e-09
1.18116e-09
1.18109e-09
1.18115e-09
1.1811e-09
1.18115e-09
1.18111e-09
1.18114e-09
1.18112e-09
1.18114e-09
1.18112e-09
1.18113e-09
1.18113e-09
1.18113e-09
1.18113e-09
1.18113e-09
1.18113e-09
1.18113e-09
1.18113e-09
1.18112e-09
1.18114e-09
1.18112e-09
1.18114e-09
1.18111e-09
1.18115e-09
1.1811e-09
1.18115e-09
1.18109e-09
1.18116e-09
1.18107e-09
1.18118e-09
1.18104e-09
1.18122e-09
1.18105e-09
1.18135e-09
1.18125e-09
1.18173e-09
1.18189e-09
1.18e-09
1.17988e-09
9.44277e-10
9.44634e-10
9.46504e-10
9.46496e-10
9.46099e-10
9.46208e-10
9.4594e-10
9.46096e-10
9.45927e-10
9.46054e-10
9.4595e-10
9.46037e-10
9.45969e-10
9.46026e-10
9.45982e-10
9.46021e-10
9.45989e-10
9.46017e-10
9.45997e-10
9.46013e-10
9.46001e-10
9.46011e-10
9.46003e-10
9.46008e-10
9.46006e-10
9.46006e-10
9.46008e-10
9.46003e-10
9.46011e-10
9.46001e-10
9.46013e-10
9.45997e-10
9.46017e-10
9.45989e-10
9.46021e-10
9.45981e-10
9.46026e-10
9.45969e-10
9.46037e-10
9.4595e-10
9.46054e-10
9.45927e-10
9.46096e-10
9.45941e-10
9.46208e-10
9.46099e-10
9.46495e-10
9.46504e-10
9.44634e-10
9.44277e-10
7.74326e-10
7.74954e-10
7.76927e-10
7.77072e-10
7.76739e-10
7.76864e-10
7.7661e-10
7.76762e-10
7.76598e-10
7.7672e-10
7.76618e-10
7.76703e-10
7.76637e-10
7.76692e-10
7.76648e-10
7.76687e-10
7.76655e-10
7.76683e-10
7.76663e-10
7.76679e-10
7.76667e-10
7.76676e-10
7.76669e-10
7.76674e-10
7.76672e-10
7.76672e-10
7.76674e-10
7.76669e-10
7.76676e-10
7.76667e-10
7.76679e-10
7.76663e-10
7.76682e-10
7.76655e-10
7.76687e-10
7.76648e-10
7.76692e-10
7.76637e-10
7.76703e-10
7.76618e-10
7.7672e-10
7.76597e-10
7.76762e-10
7.7661e-10
7.76864e-10
7.76739e-10
7.77072e-10
7.76928e-10
7.74954e-10
7.74326e-10
6.43695e-10
6.43977e-10
6.45517e-10
6.4563e-10
6.45426e-10
6.45513e-10
6.45329e-10
6.45437e-10
6.45316e-10
6.45404e-10
6.45329e-10
6.4539e-10
6.45342e-10
6.45382e-10
6.4535e-10
6.45378e-10
6.45355e-10
6.45375e-10
6.4536e-10
6.45372e-10
6.45363e-10
6.4537e-10
6.45365e-10
6.45368e-10
6.45367e-10
6.45367e-10
6.45368e-10
6.45365e-10
6.4537e-10
6.45363e-10
6.45372e-10
6.4536e-10
6.45375e-10
6.45355e-10
6.45378e-10
6.4535e-10
6.45382e-10
6.45342e-10
6.4539e-10
6.4533e-10
6.45404e-10
6.45316e-10
6.45437e-10
6.45329e-10
6.45512e-10
6.45426e-10
6.4563e-10
6.45517e-10
6.43977e-10
6.43695e-10
5.3887e-10
5.39247e-10
5.40671e-10
5.4083e-10
5.40667e-10
5.40749e-10
5.40586e-10
5.40681e-10
5.40573e-10
5.40651e-10
5.40584e-10
5.40639e-10
5.40595e-10
5.40631e-10
5.40603e-10
5.40627e-10
5.40607e-10
5.40625e-10
5.40612e-10
5.40622e-10
5.40614e-10
5.4062e-10
5.40616e-10
5.40619e-10
5.40617e-10
5.40617e-10
5.40619e-10
5.40616e-10
5.4062e-10
5.40614e-10
5.40622e-10
5.40612e-10
5.40624e-10
5.40607e-10
5.40627e-10
5.40602e-10
5.40631e-10
5.40595e-10
5.40639e-10
5.40585e-10
5.40651e-10
5.40573e-10
5.40681e-10
5.40586e-10
5.40749e-10
5.40667e-10
5.4083e-10
5.40672e-10
5.39247e-10
5.3887e-10
4.59125e-10
4.59603e-10
4.60974e-10
4.61179e-10
4.61051e-10
4.61133e-10
4.60983e-10
4.61072e-10
4.60971e-10
4.61043e-10
4.60981e-10
4.61031e-10
4.60991e-10
4.61024e-10
4.60997e-10
4.6102e-10
4.61001e-10
4.61018e-10
4.61006e-10
4.61016e-10
4.61008e-10
4.61014e-10
4.6101e-10
4.61012e-10
4.61011e-10
4.61011e-10
4.61012e-10
4.6101e-10
4.61014e-10
4.61008e-10
4.61016e-10
4.61006e-10
4.61018e-10
4.61001e-10
4.6102e-10
4.60997e-10
4.61024e-10
4.60991e-10
4.61031e-10
4.60981e-10
4.61043e-10
4.60971e-10
4.61072e-10
4.60983e-10
4.61133e-10
4.6105e-10
4.61179e-10
4.60974e-10
4.59603e-10
4.59125e-10
3.93136e-10
3.93786e-10
3.95199e-10
3.95511e-10
3.95438e-10
3.95533e-10
3.95395e-10
3.95479e-10
3.95382e-10
3.95449e-10
3.95389e-10
3.95436e-10
3.95398e-10
3.95428e-10
3.95403e-10
3.95424e-10
3.95406e-10
3.95422e-10
3.9541e-10
3.9542e-10
3.95412e-10
3.95418e-10
3.95414e-10
3.95416e-10
3.95415e-10
3.95415e-10
3.95416e-10
3.95414e-10
3.95418e-10
3.95412e-10
3.9542e-10
3.9541e-10
3.95422e-10
3.95406e-10
3.95425e-10
3.95403e-10
3.95428e-10
3.95398e-10
3.95436e-10
3.9539e-10
3.95449e-10
3.95381e-10
3.95479e-10
3.95395e-10
3.95533e-10
3.95438e-10
3.95511e-10
3.95199e-10
3.93786e-10
3.93137e-10
3.41472e-10
3.42176e-10
3.43504e-10
3.43831e-10
3.43783e-10
3.43874e-10
3.43749e-10
3.43825e-10
3.43736e-10
3.43797e-10
3.43743e-10
3.43785e-10
3.4375e-10
3.43778e-10
3.43754e-10
3.43774e-10
3.43757e-10
3.43772e-10
3.43761e-10
3.4377e-10
3.43763e-10
3.43768e-10
3.43764e-10
3.43767e-10
3.43766e-10
3.43766e-10
3.43767e-10
3.43764e-10
3.43768e-10
3.43763e-10
3.4377e-10
3.43761e-10
3.43772e-10
3.43757e-10
3.43774e-10
3.43754e-10
3.43778e-10
3.4375e-10
3.43785e-10
3.43743e-10
3.43797e-10
3.43736e-10
3.43825e-10
3.43749e-10
3.43874e-10
3.43783e-10
3.43831e-10
3.43504e-10
3.42176e-10
3.41472e-10
2.97624e-10
2.98468e-10
2.9983e-10
3.00222e-10
3.00186e-10
3.00288e-10
3.00161e-10
3.00239e-10
3.00148e-10
3.00211e-10
3.00155e-10
3.00199e-10
3.00162e-10
3.00191e-10
3.00167e-10
3.00187e-10
3.0017e-10
3.00185e-10
3.00174e-10
3.00183e-10
3.00176e-10
3.00181e-10
3.00177e-10
3.0018e-10
3.00179e-10
3.00179e-10
3.0018e-10
3.00177e-10
3.00181e-10
3.00176e-10
3.00183e-10
3.00174e-10
3.00185e-10
3.0017e-10
3.00187e-10
3.00167e-10
3.00191e-10
3.00162e-10
3.00198e-10
3.00155e-10
3.00211e-10
3.00148e-10
3.00239e-10
3.00161e-10
3.00287e-10
3.00186e-10
3.00222e-10
2.9983e-10
2.98468e-10
2.97624e-10
2.61299e-10
2.62166e-10
2.63405e-10
2.63785e-10
2.63765e-10
2.63857e-10
2.63744e-10
2.63814e-10
2.63732e-10
2.63787e-10
2.63737e-10
2.63776e-10
2.63744e-10
2.63769e-10
2.63748e-10
2.63766e-10
2.63751e-10
2.63764e-10
2.63754e-10
2.63762e-10
2.63756e-10
2.6376e-10
2.63757e-10
2.63759e-10
2.63758e-10
2.63758e-10
2.63759e-10
2.63757e-10
2.63761e-10
2.63756e-10
2.63762e-10
2.63754e-10
2.63764e-10
2.63751e-10
2.63766e-10
2.63748e-10
2.63769e-10
2.63744e-10
2.63776e-10
2.63738e-10
2.63787e-10
2.63732e-10
2.63814e-10
2.63744e-10
2.63857e-10
2.63764e-10
2.63785e-10
2.63405e-10
2.62166e-10
2.61299e-10
2.32068e-10
2.32984e-10
2.34141e-10
2.34519e-10
2.34511e-10
2.34599e-10
2.34495e-10
2.34559e-10
2.34483e-10
2.34534e-10
2.34488e-10
2.34523e-10
2.34494e-10
2.34517e-10
2.34497e-10
2.34514e-10
2.345e-10
2.34512e-10
2.34503e-10
2.3451e-10
2.34505e-10
2.34509e-10
2.34506e-10
2.34508e-10
2.34507e-10
2.34507e-10
2.34508e-10
2.34506e-10
2.34509e-10
2.34505e-10
2.3451e-10
2.34503e-10
2.34512e-10
2.345e-10
2.34514e-10
2.34497e-10
2.34517e-10
2.34494e-10
2.34523e-10
2.34488e-10
2.34534e-10
2.34483e-10
2.34559e-10
2.34495e-10
2.34599e-10
2.3451e-10
2.34519e-10
2.34141e-10
2.32984e-10
2.32068e-10
2.07474e-10
2.08447e-10
2.0953e-10
2.09903e-10
2.09904e-10
2.09989e-10
2.09893e-10
2.09952e-10
2.09881e-10
2.09928e-10
2.09886e-10
2.09918e-10
2.09891e-10
2.09912e-10
2.09894e-10
2.09909e-10
2.09896e-10
2.09908e-10
2.09899e-10
2.09906e-10
2.09901e-10
2.09905e-10
2.09902e-10
2.09904e-10
2.09903e-10
2.09903e-10
2.09904e-10
2.09902e-10
2.09905e-10
2.09901e-10
2.09906e-10
2.09899e-10
2.09908e-10
2.09896e-10
2.0991e-10
2.09894e-10
2.09912e-10
2.09891e-10
2.09918e-10
2.09886e-10
2.09928e-10
2.09881e-10
2.09952e-10
2.09893e-10
2.09989e-10
2.09904e-10
2.09903e-10
2.0953e-10
2.08447e-10
2.07474e-10
1.86633e-10
1.87061e-10
1.88001e-10
1.88346e-10
1.88369e-10
1.88448e-10
1.88367e-10
1.88416e-10
1.88355e-10
1.88393e-10
1.88356e-10
1.88383e-10
1.88359e-10
1.88377e-10
1.88361e-10
1.88374e-10
1.88363e-10
1.88372e-10
1.88365e-10
1.88371e-10
1.88366e-10
1.8837e-10
1.88367e-10
1.88369e-10
1.88368e-10
1.88368e-10
1.88369e-10
1.88367e-10
1.8837e-10
1.88366e-10
1.88371e-10
1.88365e-10
1.88372e-10
1.88363e-10
1.88374e-10
1.88361e-10
1.88377e-10
1.88359e-10
1.88383e-10
1.88356e-10
1.88393e-10
1.88355e-10
1.88416e-10
1.88367e-10
1.88448e-10
1.88369e-10
1.88346e-10
1.88001e-10
1.87061e-10
1.86633e-10
1.68863e-10
1.69318e-10
1.70192e-10
1.70528e-10
1.70557e-10
1.70632e-10
1.70558e-10
1.70603e-10
1.70546e-10
1.70581e-10
1.70547e-10
1.70571e-10
1.70549e-10
1.70566e-10
1.70551e-10
1.70563e-10
1.70552e-10
1.70561e-10
1.70555e-10
1.7056e-10
1.70556e-10
1.70559e-10
1.70556e-10
1.70558e-10
1.70557e-10
1.70557e-10
1.70558e-10
1.70556e-10
1.70559e-10
1.70556e-10
1.7056e-10
1.70555e-10
1.70561e-10
1.70552e-10
1.70563e-10
1.70551e-10
1.70566e-10
1.70549e-10
1.70571e-10
1.70547e-10
1.70581e-10
1.70546e-10
1.70603e-10
1.70558e-10
1.70632e-10
1.70557e-10
1.70528e-10
1.70192e-10
1.69318e-10
1.68863e-10
1.53038e-10
1.53522e-10
1.54364e-10
1.54708e-10
1.54749e-10
1.54824e-10
1.54754e-10
1.54797e-10
1.54742e-10
1.54775e-10
1.54742e-10
1.54765e-10
1.54744e-10
1.54759e-10
1.54746e-10
1.54757e-10
1.54747e-10
1.54755e-10
1.54749e-10
1.54754e-10
1.5475e-10
1.54753e-10
1.5475e-10
1.54752e-10
1.54751e-10
1.54751e-10
1.54752e-10
1.5475e-10
1.54753e-10
1.5475e-10
1.54754e-10
1.54749e-10
1.54755e-10
1.54747e-10
1.54757e-10
1.54746e-10
1.54759e-10
1.54744e-10
1.54765e-10
1.54742e-10
1.54775e-10
1.54742e-10
1.54797e-10
1.54754e-10
1.54824e-10
1.54749e-10
1.54708e-10
1.54364e-10
1.53522e-10
1.53038e-10
1.39364e-10
1.39851e-10
1.40626e-10
1.40954e-10
1.40998e-10
1.41069e-10
1.41005e-10
1.41043e-10
1.40994e-10
1.41023e-10
1.40993e-10
1.41014e-10
1.40994e-10
1.41008e-10
1.40996e-10
1.41006e-10
1.40997e-10
1.41004e-10
1.40999e-10
1.41003e-10
1.40999e-10
1.41002e-10
1.41e-10
1.41001e-10
1.41001e-10
1.41001e-10
1.41001e-10
1.41e-10
1.41002e-10
1.40999e-10
1.41003e-10
1.40999e-10
1.41004e-10
1.40997e-10
1.41006e-10
1.40996e-10
1.41008e-10
1.40994e-10
1.41014e-10
1.40993e-10
1.41023e-10
1.40994e-10
1.41043e-10
1.41005e-10
1.41069e-10
1.40998e-10
1.40954e-10
1.40626e-10
1.39851e-10
1.39364e-10
1.27482e-10
1.2797e-10
1.28684e-10
1.28997e-10
1.29043e-10
1.2911e-10
1.29051e-10
1.29086e-10
1.2904e-10
1.29066e-10
1.29039e-10
1.29058e-10
1.2904e-10
1.29053e-10
1.29041e-10
1.2905e-10
1.29042e-10
1.29049e-10
1.29044e-10
1.29048e-10
1.29044e-10
1.29047e-10
1.29045e-10
1.29046e-10
1.29046e-10
1.29046e-10
1.29046e-10
1.29045e-10
1.29047e-10
1.29044e-10
1.29048e-10
1.29044e-10
1.29049e-10
1.29042e-10
1.2905e-10
1.29041e-10
1.29053e-10
1.2904e-10
1.29058e-10
1.29039e-10
1.29066e-10
1.2904e-10
1.29086e-10
1.29051e-10
1.29109e-10
1.29043e-10
1.28997e-10
1.28684e-10
1.2797e-10
1.27482e-10
1.17107e-10
1.17591e-10
1.18251e-10
1.18548e-10
1.18596e-10
1.18659e-10
1.18606e-10
1.18637e-10
1.18595e-10
1.18618e-10
1.18593e-10
1.1861e-10
1.18594e-10
1.18605e-10
1.18595e-10
1.18603e-10
1.18596e-10
1.18602e-10
1.18597e-10
1.18601e-10
1.18598e-10
1.186e-10
1.18598e-10
1.18599e-10
1.18599e-10
1.18599e-10
1.18599e-10
1.18598e-10
1.186e-10
1.18598e-10
1.18601e-10
1.18597e-10
1.18602e-10
1.18596e-10
1.18603e-10
1.18595e-10
1.18605e-10
1.18594e-10
1.1861e-10
1.18594e-10
1.18618e-10
1.18595e-10
1.18637e-10
1.18606e-10
1.18659e-10
1.18596e-10
1.18548e-10
1.18251e-10
1.17591e-10
1.17107e-10
1.08005e-10
1.08483e-10
1.09094e-10
1.09376e-10
1.09425e-10
1.09484e-10
1.09436e-10
1.09463e-10
1.09425e-10
1.09446e-10
1.09423e-10
1.09438e-10
1.09424e-10
1.09434e-10
1.09424e-10
1.09432e-10
1.09425e-10
1.09431e-10
1.09426e-10
1.0943e-10
1.09427e-10
1.09429e-10
1.09427e-10
1.09428e-10
1.09428e-10
1.09428e-10
1.09428e-10
1.09427e-10
1.09429e-10
1.09427e-10
1.0943e-10
1.09426e-10
1.09431e-10
1.09425e-10
1.09432e-10
1.09424e-10
1.09434e-10
1.09424e-10
1.09438e-10
1.09423e-10
1.09446e-10
1.09425e-10
1.09463e-10
1.09436e-10
1.09484e-10
1.09425e-10
1.09376e-10
1.09094e-10
1.08483e-10
1.08005e-10
9.99852e-11
1.00454e-10
1.01023e-10
1.01289e-10
1.01339e-10
1.01395e-10
1.0135e-10
1.01376e-10
1.0134e-10
1.01359e-10
1.01338e-10
1.01352e-10
1.01338e-10
1.01347e-10
1.01339e-10
1.01345e-10
1.01339e-10
1.01344e-10
1.0134e-10
1.01344e-10
1.01341e-10
1.01343e-10
1.01341e-10
1.01342e-10
1.01342e-10
1.01342e-10
1.01342e-10
1.01341e-10
1.01343e-10
1.01341e-10
1.01344e-10
1.0134e-10
1.01344e-10
1.01339e-10
1.01345e-10
1.01339e-10
1.01347e-10
1.01338e-10
1.01352e-10
1.01338e-10
1.01359e-10
1.0134e-10
1.01376e-10
1.0135e-10
1.01395e-10
1.01339e-10
1.01289e-10
1.01023e-10
1.00454e-10
9.99852e-11
9.28913e-11
9.33495e-11
9.38795e-11
9.41315e-11
9.41817e-11
9.42342e-11
9.41933e-11
9.42161e-11
9.41835e-11
9.42004e-11
9.41811e-11
9.41933e-11
9.41809e-11
9.41893e-11
9.41812e-11
9.41875e-11
9.41817e-11
9.41865e-11
9.41828e-11
9.41857e-11
9.41833e-11
9.4185e-11
9.41836e-11
9.41845e-11
9.41841e-11
9.41841e-11
9.41845e-11
9.41836e-11
9.41851e-11
9.41833e-11
9.41857e-11
9.41828e-11
9.41865e-11
9.41817e-11
9.41875e-11
9.41812e-11
9.41894e-11
9.41809e-11
9.41933e-11
9.41811e-11
9.42004e-11
9.41835e-11
9.42161e-11
9.41933e-11
9.42341e-11
9.41817e-11
9.41315e-11
9.38794e-11
9.33495e-11
9.28913e-11
8.65928e-11
8.70391e-11
8.75337e-11
8.77721e-11
8.78221e-11
8.78717e-11
8.78342e-11
8.78548e-11
8.78247e-11
8.78398e-11
8.7822e-11
8.78331e-11
8.78216e-11
8.78293e-11
8.78218e-11
8.78275e-11
8.78222e-11
8.78266e-11
8.78232e-11
8.78259e-11
8.78237e-11
8.78253e-11
8.78239e-11
8.78248e-11
8.78244e-11
8.78244e-11
8.78248e-11
8.78239e-11
8.78253e-11
8.78237e-11
8.78259e-11
8.78232e-11
8.78266e-11
8.78222e-11
8.78275e-11
8.78218e-11
8.78293e-11
8.78216e-11
8.7833e-11
8.78221e-11
8.78398e-11
8.78246e-11
8.78548e-11
8.78342e-11
8.78716e-11
8.78221e-11
8.7772e-11
8.75337e-11
8.70391e-11
8.65928e-11
8.09806e-11
8.14141e-11
8.18767e-11
8.2102e-11
8.21516e-11
8.21985e-11
8.2164e-11
8.21827e-11
8.21548e-11
8.21684e-11
8.21519e-11
8.21619e-11
8.21514e-11
8.21583e-11
8.21514e-11
8.21566e-11
8.21517e-11
8.21558e-11
8.21527e-11
8.21552e-11
8.21531e-11
8.21546e-11
8.21533e-11
8.21541e-11
8.21538e-11
8.21538e-11
8.21541e-11
8.21533e-11
8.21546e-11
8.21531e-11
8.21552e-11
8.21526e-11
8.21558e-11
8.21517e-11
8.21566e-11
8.21514e-11
8.21583e-11
8.21514e-11
8.21619e-11
8.2152e-11
8.21684e-11
8.21548e-11
8.21827e-11
8.2164e-11
8.21984e-11
8.21516e-11
8.2102e-11
8.18767e-11
8.14141e-11
8.09807e-11
7.59634e-11
7.63833e-11
7.68166e-11
7.70297e-11
7.70786e-11
7.7123e-11
7.70913e-11
7.71082e-11
7.70823e-11
7.70945e-11
7.70793e-11
7.70883e-11
7.70785e-11
7.70849e-11
7.70785e-11
7.70832e-11
7.70787e-11
7.70825e-11
7.70796e-11
7.70819e-11
7.708e-11
7.70813e-11
7.70802e-11
7.70809e-11
7.70806e-11
7.70806e-11
7.70809e-11
7.70802e-11
7.70813e-11
7.708e-11
7.70819e-11
7.70796e-11
7.70825e-11
7.70787e-11
7.70833e-11
7.70785e-11
7.70849e-11
7.70785e-11
7.70883e-11
7.70793e-11
7.70945e-11
7.70823e-11
7.71082e-11
7.70913e-11
7.71229e-11
7.70786e-11
7.70297e-11
7.68166e-11
7.63833e-11
7.59635e-11
7.14637e-11
7.18694e-11
7.2276e-11
7.24776e-11
7.25256e-11
7.25676e-11
7.25384e-11
7.25537e-11
7.25297e-11
7.25406e-11
7.25265e-11
7.25346e-11
7.25256e-11
7.25314e-11
7.25255e-11
7.25298e-11
7.25257e-11
7.25291e-11
7.25264e-11
7.25286e-11
7.25268e-11
7.2528e-11
7.2527e-11
7.25277e-11
7.25274e-11
7.25274e-11
7.25277e-11
7.2527e-11
7.25281e-11
7.25268e-11
7.25286e-11
7.25264e-11
7.25291e-11
7.25257e-11
7.25298e-11
7.25255e-11
7.25314e-11
7.25256e-11
7.25346e-11
7.25265e-11
7.25406e-11
7.25297e-11
7.25537e-11
7.25384e-11
7.25676e-11
7.25255e-11
7.24776e-11
7.22759e-11
7.18694e-11
7.14637e-11
6.74156e-11
6.78066e-11
6.81888e-11
6.83796e-11
6.84265e-11
6.84664e-11
6.84394e-11
6.84532e-11
6.8431e-11
6.84408e-11
6.84277e-11
6.8435e-11
6.84266e-11
6.84319e-11
6.84264e-11
6.84304e-11
6.84266e-11
6.84297e-11
6.84273e-11
6.84292e-11
6.84276e-11
6.84287e-11
6.84278e-11
6.84284e-11
6.84281e-11
6.84281e-11
6.84284e-11
6.84278e-11
6.84288e-11
6.84276e-11
6.84292e-11
6.84273e-11
6.84297e-11
6.84266e-11
6.84304e-11
6.84264e-11
6.84319e-11
6.84266e-11
6.8435e-11
6.84277e-11
6.84408e-11
6.8431e-11
6.84532e-11
6.84394e-11
6.84663e-11
6.84265e-11
6.83796e-11
6.81888e-11
6.78065e-11
6.74157e-11
6.3763e-11
6.41386e-11
6.44987e-11
6.46795e-11
6.47251e-11
6.47629e-11
6.4738e-11
6.47505e-11
6.47299e-11
6.47386e-11
6.47264e-11
6.47331e-11
6.47253e-11
6.47301e-11
6.4725e-11
6.47287e-11
6.47251e-11
6.4728e-11
6.47257e-11
6.47276e-11
6.4726e-11
6.47271e-11
6.47262e-11
6.47268e-11
6.47265e-11
6.47265e-11
6.47268e-11
6.47262e-11
6.47271e-11
6.47261e-11
6.47276e-11
6.47257e-11
6.4728e-11
6.47251e-11
6.47287e-11
6.4725e-11
6.47301e-11
6.47253e-11
6.4733e-11
6.47265e-11
6.47386e-11
6.47298e-11
6.47505e-11
6.4738e-11
6.47629e-11
6.47251e-11
6.46794e-11
6.44987e-11
6.41386e-11
6.3763e-11
6.04577e-11
6.08174e-11
6.11574e-11
6.13287e-11
6.1373e-11
6.14089e-11
6.13859e-11
6.13972e-11
6.1378e-11
6.13858e-11
6.13744e-11
6.13804e-11
6.13732e-11
6.13776e-11
6.13729e-11
6.13762e-11
6.13729e-11
6.13756e-11
6.13735e-11
6.13752e-11
6.13738e-11
6.13748e-11
6.13739e-11
6.13745e-11
6.13742e-11
6.13742e-11
6.13745e-11
6.1374e-11
6.13748e-11
6.13738e-11
6.13752e-11
6.13735e-11
6.13756e-11
6.13729e-11
6.13762e-11
6.13729e-11
6.13776e-11
6.13732e-11
6.13804e-11
6.13745e-11
6.13858e-11
6.1378e-11
6.13972e-11
6.13859e-11
6.14089e-11
6.1373e-11
6.13286e-11
6.11574e-11
6.08174e-11
6.04577e-11
5.74583e-11
5.78015e-11
5.81233e-11
5.82856e-11
5.83286e-11
5.83627e-11
5.83414e-11
5.83517e-11
5.83337e-11
5.83407e-11
5.83301e-11
5.83355e-11
5.83288e-11
5.83328e-11
5.83284e-11
5.83315e-11
5.83285e-11
5.83309e-11
5.8329e-11
5.83306e-11
5.83292e-11
5.83302e-11
5.83294e-11
5.83299e-11
5.83296e-11
5.83296e-11
5.83299e-11
5.83294e-11
5.83302e-11
5.83292e-11
5.83305e-11
5.8329e-11
5.83309e-11
5.83285e-11
5.83315e-11
5.83284e-11
5.83328e-11
5.83288e-11
5.83355e-11
5.83302e-11
5.83407e-11
5.83337e-11
5.83516e-11
5.83414e-11
5.83627e-11
5.83286e-11
5.82856e-11
5.81233e-11
5.78014e-11
5.74583e-11
5.47279e-11
5.50558e-11
5.53605e-11
5.55144e-11
5.5556e-11
5.55884e-11
5.55686e-11
5.55779e-11
5.55612e-11
5.55674e-11
5.55575e-11
5.55624e-11
5.55562e-11
5.55598e-11
5.55557e-11
5.55586e-11
5.55557e-11
5.5558e-11
5.55562e-11
5.55577e-11
5.55564e-11
5.55573e-11
5.55566e-11
5.5557e-11
5.55568e-11
5.55568e-11
5.5557e-11
5.55566e-11
5.55573e-11
5.55565e-11
5.55577e-11
5.55562e-11
5.5558e-11
5.55557e-11
5.55586e-11
5.55557e-11
5.55598e-11
5.55562e-11
5.55624e-11
5.55576e-11
5.55674e-11
5.55612e-11
5.55779e-11
5.55686e-11
5.55883e-11
5.5556e-11
5.55143e-11
5.53605e-11
5.50558e-11
5.47279e-11
5.22357e-11
5.25496e-11
5.28379e-11
5.29837e-11
5.3024e-11
5.30548e-11
5.30364e-11
5.30449e-11
5.30292e-11
5.30348e-11
5.30255e-11
5.303e-11
5.30241e-11
5.30274e-11
5.30236e-11
5.30263e-11
5.30236e-11
5.30258e-11
5.30241e-11
5.30254e-11
5.30243e-11
5.30251e-11
5.30244e-11
5.30248e-11
5.30246e-11
5.30246e-11
5.30248e-11
5.30244e-11
5.30251e-11
5.30243e-11
5.30254e-11
5.30241e-11
5.30258e-11
5.30236e-11
5.30263e-11
5.30237e-11
5.30274e-11
5.30241e-11
5.30299e-11
5.30256e-11
5.30348e-11
5.30292e-11
5.30449e-11
5.30364e-11
5.30547e-11
5.3024e-11
5.29837e-11
5.28379e-11
5.25496e-11
5.22357e-11
4.99548e-11
5.02559e-11
5.05285e-11
5.06667e-11
5.07057e-11
5.07349e-11
5.07178e-11
5.07255e-11
5.07109e-11
5.07158e-11
5.07072e-11
5.07112e-11
5.07057e-11
5.07087e-11
5.07052e-11
5.07076e-11
5.07052e-11
5.07072e-11
5.07056e-11
5.07069e-11
5.07058e-11
5.07065e-11
5.07059e-11
5.07063e-11
5.07061e-11
5.07061e-11
5.07063e-11
5.07059e-11
5.07065e-11
5.07058e-11
5.07068e-11
5.07056e-11
5.07072e-11
5.07052e-11
5.07076e-11
5.07052e-11
5.07087e-11
5.07057e-11
5.07111e-11
5.07072e-11
5.07158e-11
5.07109e-11
5.07255e-11
5.07178e-11
5.07348e-11
5.07057e-11
5.06667e-11
5.05284e-11
5.02559e-11
4.99548e-11
4.78619e-11
4.81512e-11
4.84087e-11
4.85398e-11
4.85775e-11
4.86052e-11
4.85894e-11
4.85963e-11
4.85826e-11
4.8587e-11
4.85789e-11
4.85825e-11
4.85774e-11
4.85802e-11
4.85769e-11
4.85792e-11
4.85769e-11
4.85787e-11
4.85773e-11
4.85784e-11
4.85774e-11
4.85781e-11
4.85776e-11
4.85779e-11
4.85778e-11
4.85778e-11
4.85779e-11
4.85776e-11
4.85782e-11
4.85775e-11
4.85784e-11
4.85773e-11
4.85787e-11
4.85769e-11
4.85792e-11
4.85769e-11
4.85802e-11
4.85774e-11
4.85825e-11
4.8579e-11
4.8587e-11
4.85826e-11
4.85963e-11
4.85894e-11
4.86052e-11
4.85775e-11
4.85398e-11
4.84087e-11
4.81512e-11
4.78619e-11
4.59365e-11
4.62153e-11
4.64581e-11
4.65827e-11
4.66189e-11
4.66453e-11
4.66306e-11
4.66369e-11
4.66241e-11
4.6628e-11
4.66204e-11
4.66236e-11
4.66189e-11
4.66214e-11
4.66183e-11
4.66204e-11
4.66183e-11
4.662e-11
4.66186e-11
4.66197e-11
4.66188e-11
4.66195e-11
4.66189e-11
4.66193e-11
4.66191e-11
4.66191e-11
4.66193e-11
4.66189e-11
4.66195e-11
4.66188e-11
4.66197e-11
4.66186e-11
4.662e-11
4.66183e-11
4.66204e-11
4.66183e-11
4.66214e-11
4.66189e-11
4.66236e-11
4.66204e-11
4.6628e-11
4.6624e-11
4.66369e-11
4.66306e-11
4.66453e-11
4.66189e-11
4.65826e-11
4.64581e-11
4.62153e-11
4.59365e-11
4.41611e-11
4.44297e-11
4.46596e-11
4.47774e-11
4.48122e-11
4.48373e-11
4.48236e-11
4.48293e-11
4.48173e-11
4.48208e-11
4.48136e-11
4.48166e-11
4.48121e-11
4.48144e-11
4.48116e-11
4.48135e-11
4.48115e-11
4.48131e-11
4.48118e-11
4.48129e-11
4.4812e-11
4.48126e-11
4.48121e-11
4.48124e-11
4.48123e-11
4.48123e-11
4.48124e-11
4.48121e-11
4.48126e-11
4.4812e-11
4.48129e-11
4.48118e-11
4.48131e-11
4.48115e-11
4.48135e-11
4.48116e-11
4.48145e-11
4.48121e-11
4.48166e-11
4.48137e-11
4.48208e-11
4.48173e-11
4.48293e-11
4.48236e-11
4.48373e-11
4.48122e-11
4.47773e-11
4.46595e-11
4.44297e-11
4.41611e-11
4.25201e-11
4.27792e-11
4.29968e-11
4.31082e-11
4.31416e-11
4.31656e-11
4.31528e-11
4.3158e-11
4.31467e-11
4.31498e-11
4.31431e-11
4.31458e-11
4.31416e-11
4.31437e-11
4.3141e-11
4.31428e-11
4.3141e-11
4.31425e-11
4.31413e-11
4.31423e-11
4.31414e-11
4.3142e-11
4.31415e-11
4.31418e-11
4.31417e-11
4.31417e-11
4.31418e-11
4.31415e-11
4.3142e-11
4.31414e-11
4.31422e-11
4.31413e-11
4.31425e-11
4.3141e-11
4.31428e-11
4.3141e-11
4.31437e-11
4.31416e-11
4.31458e-11
4.31431e-11
4.31498e-11
4.31467e-11
4.3158e-11
4.31528e-11
4.31655e-11
4.31416e-11
4.31082e-11
4.29968e-11
4.27792e-11
4.25201e-11
4.10002e-11
4.12503e-11
4.14562e-11
4.15616e-11
4.15936e-11
4.16164e-11
4.16045e-11
4.16092e-11
4.15986e-11
4.16014e-11
4.15951e-11
4.15975e-11
4.15936e-11
4.15956e-11
4.1593e-11
4.15947e-11
4.1593e-11
4.15944e-11
4.15933e-11
4.15942e-11
4.15934e-11
4.1594e-11
4.15935e-11
4.15938e-11
4.15937e-11
4.15937e-11
4.15938e-11
4.15935e-11
4.1594e-11
4.15934e-11
4.15942e-11
4.15933e-11
4.15944e-11
4.1593e-11
4.15947e-11
4.1593e-11
4.15956e-11
4.15936e-11
4.15975e-11
4.15951e-11
4.16014e-11
4.15986e-11
4.16092e-11
4.16045e-11
4.16164e-11
4.15936e-11
4.15616e-11
4.14562e-11
4.12503e-11
4.10002e-11
3.95894e-11
3.98309e-11
4.00257e-11
4.01255e-11
4.01561e-11
4.01778e-11
4.01668e-11
4.01711e-11
4.01611e-11
4.01636e-11
4.01576e-11
4.01598e-11
4.01561e-11
4.0158e-11
4.01556e-11
4.01572e-11
4.01556e-11
4.01569e-11
4.01558e-11
4.01567e-11
4.0156e-11
4.01565e-11
4.01561e-11
4.01564e-11
4.01562e-11
4.01562e-11
4.01564e-11
4.01561e-11
4.01565e-11
4.0156e-11
4.01567e-11
4.01558e-11
4.01569e-11
4.01556e-11
4.01572e-11
4.01556e-11
4.0158e-11
4.01562e-11
4.01598e-11
4.01577e-11
4.01636e-11
4.01611e-11
4.01711e-11
4.01667e-11
4.01778e-11
4.01561e-11
4.01255e-11
4.00257e-11
3.98309e-11
3.95894e-11
3.82774e-11
3.85105e-11
3.86949e-11
3.87894e-11
3.88186e-11
3.88393e-11
3.8829e-11
3.8833e-11
3.88236e-11
3.88258e-11
3.88202e-11
3.88222e-11
3.88188e-11
3.88205e-11
3.88183e-11
3.88197e-11
3.88182e-11
3.88195e-11
3.88185e-11
3.88193e-11
3.88186e-11
3.88191e-11
3.88187e-11
3.8819e-11
3.88189e-11
3.88189e-11
3.8819e-11
3.88187e-11
3.88191e-11
3.88186e-11
3.88193e-11
3.88185e-11
3.88195e-11
3.88182e-11
3.88197e-11
3.88183e-11
3.88205e-11
3.88188e-11
3.88222e-11
3.88202e-11
3.88258e-11
3.88236e-11
3.8833e-11
3.8829e-11
3.88393e-11
3.88186e-11
3.87894e-11
3.86949e-11
3.85105e-11
3.82774e-11
3.70551e-11