/*--------------------------------*- C++ -*----------------------------------*\
| =========                 |                                                 |
| \\      /  F ield         | OpenFOAM: The Open Source CFD Toolbox           |
|  \\    /   O peration     | Version:  dev                                   |
|   \\  /    A nd           | Web:      www.OpenFOAM.org                      |
|    \\/     M anipulation  |                                                 |
\*---------------------------------------------------------------------------*/
FoamFile
{
    version     2.0;
    format      ascii;
    class       volScalarField;
    location    "0.1";
    object      P2;
}
// * * * * * * * * * * * * * * * * * * * * * * * * * * * * * * * * * * * * * //

dimensions      [0 0 0 0 0 0 0];

internalField   nonuniform List<scalar> 
8000
(
1.49797e-08
1.4959e-08
1.49509e-08
1.49426e-08
1.49425e-08
1.49397e-08
1.49407e-08
1.49394e-08
1.49404e-08
1.49396e-08
1.49402e-08
1.49397e-08
1.49402e-08
1.49398e-08
1.49402e-08
1.49399e-08
1.49401e-08
1.494e-08
1.49401e-08
1.494e-08
1.49401e-08
1.494e-08
1.49401e-08
1.49401e-08
1.49401e-08
1.49401e-08
1.49401e-08
1.49401e-08
1.494e-08
1.49401e-08
1.494e-08
1.49401e-08
1.494e-08
1.49401e-08
1.49399e-08
1.49402e-08
1.49398e-08
1.49402e-08
1.49397e-08
1.49402e-08
1.49396e-08
1.49404e-08
1.49394e-08
1.49407e-08
1.49397e-08
1.49425e-08
1.49426e-08
1.49509e-08
1.4959e-08
1.49797e-08
2.98308e-08
2.97852e-08
2.97636e-08
2.97444e-08
2.97438e-08
2.97378e-08
2.974e-08
2.97373e-08
2.97392e-08
2.97376e-08
2.9739e-08
2.97379e-08
2.97389e-08
2.97382e-08
2.97388e-08
2.97383e-08
2.97388e-08
2.97384e-08
2.97387e-08
2.97385e-08
2.97387e-08
2.97386e-08
2.97387e-08
2.97386e-08
2.97386e-08
2.97386e-08
2.97386e-08
2.97387e-08
2.97386e-08
2.97387e-08
2.97385e-08
2.97387e-08
2.97384e-08
2.97388e-08
2.97383e-08
2.97388e-08
2.97382e-08
2.97389e-08
2.97379e-08
2.9739e-08
2.97376e-08
2.97393e-08
2.97373e-08
2.974e-08
2.97378e-08
2.97438e-08
2.97445e-08
2.97636e-08
2.97852e-08
2.98308e-08
4.85207e-08
4.84587e-08
4.84334e-08
4.84069e-08
4.84053e-08
4.83971e-08
4.83996e-08
4.8396e-08
4.83985e-08
4.83964e-08
4.83982e-08
4.83968e-08
4.8398e-08
4.83971e-08
4.8398e-08
4.83974e-08
4.8398e-08
4.83975e-08
4.83979e-08
4.83976e-08
4.83979e-08
4.83977e-08
4.83979e-08
4.83978e-08
4.83978e-08
4.83978e-08
4.83978e-08
4.83979e-08
4.83977e-08
4.83979e-08
4.83976e-08
4.83979e-08
4.83975e-08
4.8398e-08
4.83973e-08
4.8398e-08
4.83971e-08
4.8398e-08
4.83968e-08
4.83982e-08
4.83963e-08
4.83985e-08
4.8396e-08
4.83996e-08
4.83971e-08
4.84053e-08
4.84069e-08
4.84334e-08
4.84587e-08
4.85207e-08
6.86554e-08
6.85636e-08
6.85189e-08
6.8476e-08
6.84693e-08
6.84579e-08
6.84601e-08
6.84558e-08
6.84585e-08
6.84561e-08
6.84582e-08
6.84567e-08
6.84581e-08
6.84572e-08
6.84581e-08
6.84575e-08
6.84582e-08
6.84576e-08
6.84581e-08
6.84578e-08
6.84581e-08
6.84579e-08
6.84581e-08
6.8458e-08
6.8458e-08
6.8458e-08
6.8458e-08
6.84581e-08
6.84579e-08
6.84581e-08
6.84578e-08
6.84581e-08
6.84577e-08
6.84582e-08
6.84574e-08
6.84581e-08
6.84572e-08
6.84581e-08
6.84567e-08
6.84582e-08
6.84561e-08
6.84585e-08
6.84558e-08
6.84601e-08
6.84579e-08
6.84693e-08
6.8476e-08
6.85189e-08
6.85635e-08
6.86554e-08
8.25914e-08
8.24669e-08
8.23995e-08
8.2337e-08
8.23231e-08
8.23086e-08
8.23095e-08
8.2305e-08
8.23075e-08
8.23053e-08
8.23074e-08
8.23059e-08
8.23074e-08
8.23065e-08
8.23075e-08
8.23068e-08
8.23076e-08
8.23071e-08
8.23075e-08
8.23072e-08
8.23075e-08
8.23074e-08
8.23075e-08
8.23074e-08
8.23075e-08
8.23075e-08
8.23074e-08
8.23075e-08
8.23074e-08
8.23075e-08
8.23072e-08
8.23075e-08
8.23071e-08
8.23076e-08
8.23068e-08
8.23075e-08
8.23065e-08
8.23074e-08
8.23059e-08
8.23074e-08
8.23053e-08
8.23075e-08
8.23051e-08
8.23095e-08
8.23086e-08
8.2323e-08
8.2337e-08
8.23995e-08
8.24669e-08
8.25914e-08
8.90595e-08
8.89133e-08
8.88349e-08
8.87581e-08
8.87368e-08
8.87207e-08
8.87196e-08
8.87157e-08
8.87172e-08
8.87157e-08
8.87173e-08
8.87163e-08
8.87175e-08
8.87169e-08
8.87177e-08
8.87173e-08
8.87179e-08
8.87175e-08
8.87178e-08
8.87176e-08
8.87179e-08
8.87178e-08
8.87179e-08
8.87178e-08
8.87179e-08
8.87179e-08
8.87178e-08
8.87179e-08
8.87178e-08
8.87179e-08
8.87176e-08
8.87178e-08
8.87175e-08
8.87178e-08
8.87172e-08
8.87177e-08
8.87169e-08
8.87175e-08
8.87163e-08
8.87173e-08
8.87157e-08
8.87172e-08
8.87157e-08
8.87196e-08
8.87207e-08
8.87368e-08
8.87581e-08
8.88349e-08
8.89133e-08
8.90595e-08
8.95817e-08
8.94288e-08
8.9355e-08
8.92715e-08
8.9244e-08
8.92281e-08
8.92243e-08
8.92216e-08
8.92218e-08
8.92214e-08
8.92221e-08
8.92219e-08
8.92225e-08
8.92224e-08
8.92228e-08
8.92227e-08
8.9223e-08
8.92229e-08
8.92231e-08
8.9223e-08
8.92231e-08
8.92231e-08
8.92232e-08
8.92232e-08
8.92232e-08
8.92232e-08
8.92232e-08
8.92232e-08
8.92231e-08
8.92231e-08
8.9223e-08
8.92231e-08
8.92229e-08
8.9223e-08
8.92227e-08
8.92228e-08
8.92224e-08
8.92225e-08
8.92219e-08
8.9222e-08
8.92214e-08
8.92218e-08
8.92216e-08
8.92243e-08
8.92281e-08
8.9244e-08
8.92715e-08
8.9355e-08
8.94288e-08
8.95817e-08
8.59972e-08
8.58514e-08
8.5795e-08
8.57123e-08
8.56803e-08
8.56658e-08
8.56592e-08
8.56583e-08
8.56566e-08
8.56576e-08
8.56571e-08
8.56579e-08
8.56578e-08
8.56583e-08
8.56582e-08
8.56586e-08
8.56585e-08
8.56587e-08
8.56587e-08
8.56588e-08
8.56588e-08
8.56589e-08
8.56589e-08
8.56589e-08
8.56589e-08
8.56589e-08
8.56589e-08
8.56589e-08
8.56589e-08
8.56588e-08
8.56588e-08
8.56587e-08
8.56587e-08
8.56585e-08
8.56586e-08
8.56582e-08
8.56583e-08
8.56578e-08
8.56579e-08
8.56571e-08
8.56576e-08
8.56566e-08
8.56583e-08
8.56592e-08
8.56658e-08
8.56803e-08
8.57123e-08
8.5795e-08
8.58513e-08
8.59972e-08
7.98897e-08
7.9761e-08
7.97301e-08
7.9654e-08
7.96194e-08
7.96073e-08
7.95979e-08
7.9599e-08
7.95954e-08
7.95978e-08
7.95961e-08
7.95979e-08
7.9597e-08
7.95982e-08
7.95975e-08
7.95984e-08
7.95979e-08
7.95984e-08
7.95981e-08
7.95985e-08
7.95983e-08
7.95985e-08
7.95984e-08
7.95985e-08
7.95985e-08
7.95985e-08
7.95985e-08
7.95984e-08
7.95985e-08
7.95983e-08
7.95985e-08
7.95981e-08
7.95984e-08
7.95979e-08
7.95983e-08
7.95975e-08
7.95982e-08
7.9597e-08
7.95979e-08
7.95961e-08
7.95978e-08
7.95954e-08
7.9599e-08
7.95979e-08
7.96074e-08
7.96194e-08
7.9654e-08
7.97301e-08
7.9761e-08
7.98897e-08
7.24829e-08
7.23776e-08
7.23756e-08
7.231e-08
7.22744e-08
7.22652e-08
7.22533e-08
7.22563e-08
7.22509e-08
7.22548e-08
7.22519e-08
7.22546e-08
7.22529e-08
7.22547e-08
7.22535e-08
7.22548e-08
7.2254e-08
7.22548e-08
7.22543e-08
7.22548e-08
7.22545e-08
7.22548e-08
7.22546e-08
7.22548e-08
7.22547e-08
7.22547e-08
7.22548e-08
7.22546e-08
7.22548e-08
7.22545e-08
7.22548e-08
7.22543e-08
7.22548e-08
7.2254e-08
7.22548e-08
7.22535e-08
7.22547e-08
7.22529e-08
7.22546e-08
7.22519e-08
7.22548e-08
7.22509e-08
7.22563e-08
7.22533e-08
7.22652e-08
7.22744e-08
7.231e-08
7.23756e-08
7.23776e-08
7.24829e-08
6.46374e-08
6.45584e-08
6.45846e-08
6.45315e-08
6.44963e-08
6.44902e-08
6.44762e-08
6.4481e-08
6.4474e-08
6.44791e-08
6.44751e-08
6.44787e-08
6.44762e-08
6.44786e-08
6.4477e-08
6.44786e-08
6.44775e-08
6.44786e-08
6.44778e-08
6.44785e-08
6.4478e-08
6.44785e-08
6.44782e-08
6.44784e-08
6.44783e-08
6.44783e-08
6.44784e-08
6.44782e-08
6.44785e-08
6.4478e-08
6.44785e-08
6.44778e-08
6.44786e-08
6.44775e-08
6.44786e-08
6.4477e-08
6.44786e-08
6.44762e-08
6.44787e-08
6.44751e-08
6.44791e-08
6.4474e-08
6.4481e-08
6.44762e-08
6.44902e-08
6.44963e-08
6.45315e-08
6.45847e-08
6.45584e-08
6.46374e-08
5.66058e-08
5.655e-08
5.65947e-08
5.65526e-08
5.65189e-08
5.6515e-08
5.65001e-08
5.65059e-08
5.6498e-08
5.65037e-08
5.64992e-08
5.65033e-08
5.65004e-08
5.6503e-08
5.65012e-08
5.6503e-08
5.65017e-08
5.65029e-08
5.6502e-08
5.65028e-08
5.65023e-08
5.65028e-08
5.65025e-08
5.65027e-08
5.65026e-08
5.65026e-08
5.65027e-08
5.65025e-08
5.65028e-08
5.65023e-08
5.65028e-08
5.6502e-08
5.65029e-08
5.65017e-08
5.6503e-08
5.65012e-08
5.65031e-08
5.65004e-08
5.65032e-08
5.64992e-08
5.65037e-08
5.6498e-08
5.65059e-08
5.65001e-08
5.6515e-08
5.65189e-08
5.65526e-08
5.65947e-08
5.655e-08
5.66058e-08
4.93517e-08
4.93208e-08
4.93859e-08
4.9356e-08
4.93244e-08
4.93231e-08
4.93072e-08
4.9314e-08
4.93052e-08
4.93116e-08
4.93065e-08
4.9311e-08
4.93077e-08
4.93107e-08
4.93085e-08
4.93106e-08
4.9309e-08
4.93105e-08
4.93095e-08
4.93103e-08
4.93097e-08
4.93102e-08
4.93099e-08
4.93101e-08
4.931e-08
4.931e-08
4.93101e-08
4.93099e-08
4.93102e-08
4.93097e-08
4.93103e-08
4.93095e-08
4.93105e-08
4.9309e-08
4.93106e-08
4.93085e-08
4.93107e-08
4.93077e-08
4.9311e-08
4.93065e-08
4.93117e-08
4.93052e-08
4.9314e-08
4.93072e-08
4.9323e-08
4.93244e-08
4.9356e-08
4.93859e-08
4.93208e-08
4.93517e-08
4.27141e-08
4.2676e-08
4.27315e-08
4.27051e-08
4.26801e-08
4.26782e-08
4.26651e-08
4.26705e-08
4.26631e-08
4.26684e-08
4.26641e-08
4.26678e-08
4.26651e-08
4.26676e-08
4.26658e-08
4.26675e-08
4.26662e-08
4.26674e-08
4.26666e-08
4.26673e-08
4.26668e-08
4.26672e-08
4.26669e-08
4.26671e-08
4.2667e-08
4.2667e-08
4.26671e-08
4.26669e-08
4.26672e-08
4.26668e-08
4.26673e-08
4.26666e-08
4.26674e-08
4.26662e-08
4.26675e-08
4.26658e-08
4.26676e-08
4.26651e-08
4.26678e-08
4.26641e-08
4.26684e-08
4.26631e-08
4.26705e-08
4.26651e-08
4.26782e-08
4.26801e-08
4.27051e-08
4.27315e-08
4.26759e-08
4.27141e-08
3.66093e-08
3.65865e-08
3.66461e-08
3.66271e-08
3.66049e-08
3.66041e-08
3.65914e-08
3.65968e-08
3.65896e-08
3.65947e-08
3.65905e-08
3.65942e-08
3.65915e-08
3.65939e-08
3.65921e-08
3.65938e-08
3.65925e-08
3.65937e-08
3.65929e-08
3.65936e-08
3.65931e-08
3.65935e-08
3.65932e-08
3.65934e-08
3.65933e-08
3.65933e-08
3.65934e-08
3.65932e-08
3.65935e-08
3.65931e-08
3.65936e-08
3.65929e-08
3.65937e-08
3.65925e-08
3.65938e-08
3.65921e-08
3.65939e-08
3.65915e-08
3.65941e-08
3.65905e-08
3.65947e-08
3.65896e-08
3.65968e-08
3.65914e-08
3.66041e-08
3.66049e-08
3.66271e-08
3.66461e-08
3.65865e-08
3.66094e-08
3.14559e-08
3.14481e-08
3.1513e-08
3.15014e-08
3.14819e-08
3.14822e-08
3.14699e-08
3.14755e-08
3.14683e-08
3.14734e-08
3.14692e-08
3.14728e-08
3.14701e-08
3.14725e-08
3.14707e-08
3.14723e-08
3.14711e-08
3.14722e-08
3.14714e-08
3.14721e-08
3.14716e-08
3.1472e-08
3.14717e-08
3.14719e-08
3.14719e-08
3.14719e-08
3.14719e-08
3.14717e-08
3.1472e-08
3.14716e-08
3.14721e-08
3.14714e-08
3.14722e-08
3.14711e-08
3.14723e-08
3.14707e-08
3.14725e-08
3.14701e-08
3.14728e-08
3.14692e-08
3.14734e-08
3.14682e-08
3.14755e-08
3.147e-08
3.14822e-08
3.14819e-08
3.15014e-08
3.1513e-08
3.14481e-08
3.14559e-08
2.68334e-08
2.68454e-08
2.6921e-08
2.6921e-08
2.69061e-08
2.69083e-08
2.68965e-08
2.69021e-08
2.68948e-08
2.68999e-08
2.68956e-08
2.68992e-08
2.68964e-08
2.68987e-08
2.6897e-08
2.68986e-08
2.68973e-08
2.68985e-08
2.68976e-08
2.68983e-08
2.68978e-08
2.68982e-08
2.68979e-08
2.68981e-08
2.6898e-08
2.6898e-08
2.68981e-08
2.68979e-08
2.68982e-08
2.68978e-08
2.68983e-08
2.68976e-08
2.68985e-08
2.68973e-08
2.68986e-08
2.6897e-08
2.68988e-08
2.68964e-08
2.68991e-08
2.68956e-08
2.68999e-08
2.68948e-08
2.69021e-08
2.68965e-08
2.69083e-08
2.69061e-08
2.6921e-08
2.6921e-08
2.68454e-08
2.68334e-08
2.29919e-08
2.30142e-08
2.30896e-08
2.30941e-08
2.30817e-08
2.30845e-08
2.30734e-08
2.30788e-08
2.30719e-08
2.30767e-08
2.30726e-08
2.3076e-08
2.30734e-08
2.30756e-08
2.30739e-08
2.30754e-08
2.30742e-08
2.30753e-08
2.30745e-08
2.30751e-08
2.30746e-08
2.3075e-08
2.30748e-08
2.30749e-08
2.30749e-08
2.30749e-08
2.3075e-08
2.30748e-08
2.3075e-08
2.30746e-08
2.30751e-08
2.30745e-08
2.30753e-08
2.30742e-08
2.30754e-08
2.30739e-08
2.30756e-08
2.30734e-08
2.30759e-08
2.30726e-08
2.30767e-08
2.30719e-08
2.30788e-08
2.30735e-08
2.30844e-08
2.30817e-08
2.30941e-08
2.30896e-08
2.30142e-08
2.29919e-08
1.95868e-08
1.96252e-08
1.97082e-08
1.97207e-08
1.97101e-08
1.97143e-08
1.97031e-08
1.97088e-08
1.97017e-08
1.97066e-08
1.97024e-08
1.97059e-08
1.97032e-08
1.97054e-08
1.97037e-08
1.97053e-08
1.9704e-08
1.97051e-08
1.97043e-08
1.9705e-08
1.97045e-08
1.97049e-08
1.97046e-08
1.97048e-08
1.97047e-08
1.97047e-08
1.97048e-08
1.97046e-08
1.97049e-08
1.97045e-08
1.9705e-08
1.97043e-08
1.97051e-08
1.9704e-08
1.97053e-08
1.97037e-08
1.97055e-08
1.97032e-08
1.97059e-08
1.97024e-08
1.97066e-08
1.97017e-08
1.97088e-08
1.97031e-08
1.97143e-08
1.97101e-08
1.97207e-08
1.97082e-08
1.96252e-08
1.95868e-08
1.66834e-08
1.67278e-08
1.68046e-08
1.68187e-08
1.68099e-08
1.6814e-08
1.68038e-08
1.6809e-08
1.68026e-08
1.6807e-08
1.68032e-08
1.68063e-08
1.68039e-08
1.68059e-08
1.68043e-08
1.68058e-08
1.68046e-08
1.68056e-08
1.68049e-08
1.68055e-08
1.68051e-08
1.68054e-08
1.68052e-08
1.68053e-08
1.68053e-08
1.68053e-08
1.68053e-08
1.68052e-08
1.68054e-08
1.68051e-08
1.68055e-08
1.68049e-08
1.68056e-08
1.68046e-08
1.68058e-08
1.68043e-08
1.68059e-08
1.68039e-08
1.68063e-08
1.68032e-08
1.6807e-08
1.68025e-08
1.6809e-08
1.68038e-08
1.68139e-08
1.68099e-08
1.68187e-08
1.68046e-08
1.67278e-08
1.66834e-08
1.43094e-08
1.43607e-08
1.44333e-08
1.4449e-08
1.44419e-08
1.4446e-08
1.44367e-08
1.44415e-08
1.44355e-08
1.44396e-08
1.44361e-08
1.4439e-08
1.44367e-08
1.44386e-08
1.44371e-08
1.44385e-08
1.44374e-08
1.44384e-08
1.44377e-08
1.44383e-08
1.44378e-08
1.44382e-08
1.44379e-08
1.44381e-08
1.4438e-08
1.4438e-08
1.44381e-08
1.44379e-08
1.44382e-08
1.44378e-08
1.44383e-08
1.44377e-08
1.44384e-08
1.44374e-08
1.44385e-08
1.44371e-08
1.44386e-08
1.44367e-08
1.4439e-08
1.44361e-08
1.44397e-08
1.44355e-08
1.44415e-08
1.44367e-08
1.4446e-08
1.44419e-08
1.4449e-08
1.44333e-08
1.43607e-08
1.43094e-08
1.23011e-08
1.23592e-08
1.24275e-08
1.24442e-08
1.24384e-08
1.24425e-08
1.2434e-08
1.24385e-08
1.24329e-08
1.24367e-08
1.24334e-08
1.24361e-08
1.2434e-08
1.24358e-08
1.24344e-08
1.24356e-08
1.24346e-08
1.24355e-08
1.24349e-08
1.24354e-08
1.2435e-08
1.24353e-08
1.24351e-08
1.24353e-08
1.24352e-08
1.24352e-08
1.24353e-08
1.24351e-08
1.24353e-08
1.2435e-08
1.24354e-08
1.24349e-08
1.24355e-08
1.24346e-08
1.24356e-08
1.24344e-08
1.24358e-08
1.2434e-08
1.24361e-08
1.24335e-08
1.24367e-08
1.24329e-08
1.24385e-08
1.2434e-08
1.24425e-08
1.24384e-08
1.24442e-08
1.24275e-08
1.23592e-08
1.23012e-08
1.06056e-08
1.0621e-08
1.06785e-08
1.06941e-08
1.06906e-08
1.06944e-08
1.06873e-08
1.0691e-08
1.06862e-08
1.06893e-08
1.06865e-08
1.06887e-08
1.06869e-08
1.06883e-08
1.06871e-08
1.06882e-08
1.06873e-08
1.06881e-08
1.06875e-08
1.0688e-08
1.06876e-08
1.06879e-08
1.06877e-08
1.06878e-08
1.06878e-08
1.06878e-08
1.06878e-08
1.06877e-08
1.06879e-08
1.06876e-08
1.0688e-08
1.06875e-08
1.06881e-08
1.06873e-08
1.06882e-08
1.06871e-08
1.06883e-08
1.06869e-08
1.06887e-08
1.06865e-08
1.06893e-08
1.06862e-08
1.0691e-08
1.06873e-08
1.06944e-08
1.06906e-08
1.06941e-08
1.06785e-08
1.0621e-08
1.06056e-08
9.17666e-09
9.19509e-09
9.24781e-09
9.26337e-09
9.26085e-09
9.2645e-09
9.2581e-09
9.26142e-09
9.2571e-09
9.25988e-09
9.25734e-09
9.2593e-09
9.25767e-09
9.25897e-09
9.2579e-09
9.25883e-09
9.25805e-09
9.25873e-09
9.25824e-09
9.25865e-09
9.25833e-09
9.25857e-09
9.25839e-09
9.25851e-09
9.25846e-09
9.25846e-09
9.25851e-09
9.25839e-09
9.25857e-09
9.25833e-09
9.25865e-09
9.25824e-09
9.25873e-09
9.25805e-09
9.25883e-09
9.2579e-09
9.25898e-09
9.25767e-09
9.2593e-09
9.25735e-09
9.25988e-09
9.25709e-09
9.26142e-09
9.2581e-09
9.26449e-09
9.26084e-09
9.26337e-09
9.24781e-09
9.19509e-09
9.17666e-09
7.92723e-09
7.94863e-09
7.99887e-09
8.01567e-09
8.0144e-09
8.01817e-09
8.01232e-09
8.01537e-09
8.01136e-09
8.01388e-09
8.01153e-09
8.01332e-09
8.01181e-09
8.01299e-09
8.012e-09
8.01285e-09
8.01213e-09
8.01276e-09
8.0123e-09
8.01268e-09
8.01238e-09
8.01261e-09
8.01243e-09
8.01255e-09
8.0125e-09
8.0125e-09
8.01255e-09
8.01244e-09
8.01261e-09
8.01238e-09
8.01268e-09
8.0123e-09
8.01276e-09
8.01213e-09
8.01285e-09
8.012e-09
8.013e-09
8.0118e-09
8.01331e-09
8.01154e-09
8.01389e-09
8.01135e-09
8.01537e-09
8.01233e-09
8.01816e-09
8.0144e-09
8.01567e-09
7.99886e-09
7.94863e-09
7.92723e-09
6.87319e-09
6.89525e-09
6.94015e-09
6.95609e-09
6.95541e-09
6.95889e-09
6.95371e-09
6.95639e-09
6.95283e-09
6.95504e-09
6.95296e-09
6.95453e-09
6.95319e-09
6.95424e-09
6.95336e-09
6.95411e-09
6.95347e-09
6.95403e-09
6.95362e-09
6.95396e-09
6.9537e-09
6.95389e-09
6.95374e-09
6.95384e-09
6.9538e-09
6.9538e-09
6.95384e-09
6.95374e-09
6.9539e-09
6.9537e-09
6.95396e-09
6.95362e-09
6.95403e-09
6.95347e-09
6.95411e-09
6.95336e-09
6.95424e-09
6.95319e-09
6.95452e-09
6.95297e-09
6.95504e-09
6.95282e-09
6.95639e-09
6.95372e-09
6.95888e-09
6.95541e-09
6.95609e-09
6.94015e-09
6.89525e-09
6.87319e-09
5.98323e-09
6.00549e-09
6.04552e-09
6.06051e-09
6.0603e-09
6.06349e-09
6.05892e-09
6.06127e-09
6.05811e-09
6.06004e-09
6.0582e-09
6.05958e-09
6.0584e-09
6.05932e-09
6.05854e-09
6.0592e-09
6.05864e-09
6.05913e-09
6.05877e-09
6.05907e-09
6.05884e-09
6.05901e-09
6.05888e-09
6.05897e-09
6.05893e-09
6.05893e-09
6.05897e-09
6.05888e-09
6.05902e-09
6.05884e-09
6.05907e-09
6.05877e-09
6.05913e-09
6.05864e-09
6.0592e-09
6.05854e-09
6.05932e-09
6.0584e-09
6.05958e-09
6.05821e-09
6.06004e-09
6.0581e-09
6.06127e-09
6.05892e-09
6.06348e-09
6.0603e-09
6.06051e-09
6.04552e-09
6.00549e-09
5.98324e-09
5.2309e-09
5.25293e-09
5.28863e-09
5.30261e-09
5.30276e-09
5.30568e-09
5.30164e-09
5.3037e-09
5.3009e-09
5.30259e-09
5.30096e-09
5.30217e-09
5.30113e-09
5.30194e-09
5.30125e-09
5.30183e-09
5.30134e-09
5.30177e-09
5.30145e-09
5.30172e-09
5.30151e-09
5.30167e-09
5.30155e-09
5.30163e-09
5.30159e-09
5.30159e-09
5.30163e-09
5.30155e-09
5.30167e-09
5.30151e-09
5.30172e-09
5.30145e-09
5.30177e-09
5.30134e-09
5.30183e-09
5.30125e-09
5.30194e-09
5.30113e-09
5.30217e-09
5.30097e-09
5.30259e-09
5.3009e-09
5.3037e-09
5.30164e-09
5.30567e-09
5.30275e-09
5.30261e-09
5.28862e-09
5.25293e-09
5.2309e-09
4.59384e-09
4.61533e-09
4.64719e-09
4.66015e-09
4.66057e-09
4.66325e-09
4.65968e-09
4.66148e-09
4.65901e-09
4.66047e-09
4.65904e-09
4.6601e-09
4.65918e-09
4.65989e-09
4.65928e-09
4.65979e-09
4.65936e-09
4.65974e-09
4.65946e-09
4.6597e-09
4.65951e-09
4.65965e-09
4.65954e-09
4.65962e-09
4.65958e-09
4.65958e-09
4.65962e-09
4.65954e-09
4.65965e-09
4.65951e-09
4.6597e-09
4.65946e-09
4.65974e-09
4.65936e-09
4.6598e-09
4.65928e-09
4.65989e-09
4.65918e-09
4.66009e-09
4.65905e-09
4.66048e-09
4.659e-09
4.66148e-09
4.65969e-09
4.66324e-09
4.66057e-09
4.66015e-09
4.64719e-09
4.61533e-09
4.59384e-09
4.05328e-09
4.07403e-09
4.1025e-09
4.11445e-09
4.11508e-09
4.11752e-09
4.11438e-09
4.11594e-09
4.11376e-09
4.11504e-09
4.11377e-09
4.11469e-09
4.11388e-09
4.11451e-09
4.11397e-09
4.11442e-09
4.11404e-09
4.11438e-09
4.11413e-09
4.11434e-09
4.11418e-09
4.1143e-09
4.1142e-09
4.11427e-09
4.11424e-09
4.11424e-09
4.11427e-09
4.1142e-09
4.1143e-09
4.11418e-09
4.11434e-09
4.11413e-09
4.11438e-09
4.11404e-09
4.11443e-09
4.11397e-09
4.11451e-09
4.11388e-09
4.11469e-09
4.11378e-09
4.11504e-09
4.11376e-09
4.11594e-09
4.11438e-09
4.11752e-09
4.11508e-09
4.11445e-09
4.1025e-09
4.07403e-09
4.05329e-09
3.59352e-09
3.61339e-09
3.63885e-09
3.64985e-09
3.65063e-09
3.65286e-09
3.65008e-09
3.65145e-09
3.64952e-09
3.65063e-09
3.64951e-09
3.65032e-09
3.6496e-09
3.65015e-09
3.64968e-09
3.65008e-09
3.64974e-09
3.65004e-09
3.64982e-09
3.65e-09
3.64986e-09
3.64997e-09
3.64988e-09
3.64994e-09
3.64991e-09
3.64991e-09
3.64994e-09
3.64988e-09
3.64997e-09
3.64986e-09
3.65e-09
3.64982e-09
3.65004e-09
3.64974e-09
3.65008e-09
3.64968e-09
3.65015e-09
3.6496e-09
3.65032e-09
3.64952e-09
3.65063e-09
3.64951e-09
3.65145e-09
3.65008e-09
3.65285e-09
3.65063e-09
3.64985e-09
3.63885e-09
3.61339e-09
3.59352e-09
3.20143e-09
3.22035e-09
3.24315e-09
3.25325e-09
3.25414e-09
3.25617e-09
3.25372e-09
3.25491e-09
3.2532e-09
3.25416e-09
3.25318e-09
3.25388e-09
3.25325e-09
3.25373e-09
3.25332e-09
3.25367e-09
3.25337e-09
3.25363e-09
3.25344e-09
3.2536e-09
3.25348e-09
3.25357e-09
3.2535e-09
3.25355e-09
3.25353e-09
3.25353e-09
3.25355e-09
3.2535e-09
3.25357e-09
3.25348e-09
3.2536e-09
3.25344e-09
3.25363e-09
3.25337e-09
3.25367e-09
3.25332e-09
3.25373e-09
3.25325e-09
3.25388e-09
3.25318e-09
3.25416e-09
3.2532e-09
3.25491e-09
3.25372e-09
3.25617e-09
3.25413e-09
3.25325e-09
3.24315e-09
3.22034e-09
3.20143e-09
2.86606e-09
2.88399e-09
2.90445e-09
2.91371e-09
2.91467e-09
2.91653e-09
2.91436e-09
2.9154e-09
2.91389e-09
2.91473e-09
2.91386e-09
2.91447e-09
2.91392e-09
2.91434e-09
2.91397e-09
2.91428e-09
2.91401e-09
2.91425e-09
2.91408e-09
2.91422e-09
2.91411e-09
2.9142e-09
2.91413e-09
2.91417e-09
2.91415e-09
2.91415e-09
2.91417e-09
2.91413e-09
2.9142e-09
2.91411e-09
2.91422e-09
2.91408e-09
2.91425e-09
2.91402e-09
2.91428e-09
2.91397e-09
2.91434e-09
2.91392e-09
2.91447e-09
2.91386e-09
2.91473e-09
2.91388e-09
2.9154e-09
2.91436e-09
2.91653e-09
2.91467e-09
2.91371e-09
2.90445e-09
2.88399e-09
2.86606e-09
2.57831e-09
2.59524e-09
2.61364e-09
2.62213e-09
2.62313e-09
2.62483e-09
2.62291e-09
2.62382e-09
2.62247e-09
2.6232e-09
2.62244e-09
2.62297e-09
2.62248e-09
2.62285e-09
2.62253e-09
2.6228e-09
2.62257e-09
2.62277e-09
2.62263e-09
2.62275e-09
2.62265e-09
2.62273e-09
2.62267e-09
2.62271e-09
2.62269e-09
2.62269e-09
2.62271e-09
2.62267e-09
2.62273e-09
2.62265e-09
2.62275e-09
2.62262e-09
2.62277e-09
2.62257e-09
2.6228e-09
2.62253e-09
2.62285e-09
2.62248e-09
2.62297e-09
2.62244e-09
2.62321e-09
2.62247e-09
2.62382e-09
2.62291e-09
2.62483e-09
2.62313e-09
2.62213e-09
2.61363e-09
2.59524e-09
2.57832e-09
2.3306e-09
2.34653e-09
2.36311e-09
2.3709e-09
2.37192e-09
2.37348e-09
2.37177e-09
2.37257e-09
2.37137e-09
2.37201e-09
2.37133e-09
2.3718e-09
2.37137e-09
2.37169e-09
2.3714e-09
2.37165e-09
2.37144e-09
2.37162e-09
2.37149e-09
2.3716e-09
2.37152e-09
2.37158e-09
2.37153e-09
2.37157e-09
2.37155e-09
2.37155e-09
2.37157e-09
2.37153e-09
2.37158e-09
2.37152e-09
2.3716e-09
2.37149e-09
2.37162e-09
2.37144e-09
2.37165e-09
2.37141e-09
2.37169e-09
2.37136e-09
2.3718e-09
2.37133e-09
2.37201e-09
2.37137e-09
2.37257e-09
2.37177e-09
2.37347e-09
2.37192e-09
2.3709e-09
2.36311e-09
2.34653e-09
2.3306e-09
2.11661e-09
2.13155e-09
2.14654e-09
2.15369e-09
2.15471e-09
2.15614e-09
2.15463e-09
2.15533e-09
2.15426e-09
2.15482e-09
2.15421e-09
2.15463e-09
2.15424e-09
2.15453e-09
2.15427e-09
2.15449e-09
2.15431e-09
2.15447e-09
2.15435e-09
2.15445e-09
2.15437e-09
2.15443e-09
2.15439e-09
2.15442e-09
2.15441e-09
2.15441e-09
2.15442e-09
2.15439e-09
2.15443e-09
2.15437e-09
2.15445e-09
2.15435e-09
2.15447e-09
2.15431e-09
2.15449e-09
2.15428e-09
2.15453e-09
2.15424e-09
2.15463e-09
2.15422e-09
2.15482e-09
2.15426e-09
2.15533e-09
2.15463e-09
2.15614e-09
2.15471e-09
2.15369e-09
2.14654e-09
2.13155e-09
2.11661e-09
1.93108e-09
1.94507e-09
1.95866e-09
1.96523e-09
1.96624e-09
1.96755e-09
1.96621e-09
1.96682e-09
1.96587e-09
1.96636e-09
1.96582e-09
1.96618e-09
1.96584e-09
1.96609e-09
1.96587e-09
1.96606e-09
1.96589e-09
1.96604e-09
1.96594e-09
1.96603e-09
1.96596e-09
1.96601e-09
1.96597e-09
1.966e-09
1.96598e-09
1.96598e-09
1.966e-09
1.96597e-09
1.96601e-09
1.96596e-09
1.96603e-09
1.96594e-09
1.96604e-09
1.9659e-09
1.96606e-09
1.96587e-09
1.96609e-09
1.96584e-09
1.96618e-09
1.96582e-09
1.96636e-09
1.96587e-09
1.96682e-09
1.96621e-09
1.96755e-09
1.96624e-09
1.96523e-09
1.95866e-09
1.94507e-09
1.93109e-09
1.76965e-09
1.7827e-09
1.79506e-09
1.80111e-09
1.8021e-09
1.80331e-09
1.80211e-09
1.80265e-09
1.8018e-09
1.80223e-09
1.80175e-09
1.80207e-09
1.80176e-09
1.80199e-09
1.80179e-09
1.80196e-09
1.80181e-09
1.80194e-09
1.80185e-09
1.80193e-09
1.80187e-09
1.80192e-09
1.80188e-09
1.8019e-09
1.80189e-09
1.80189e-09
1.8019e-09
1.80188e-09
1.80192e-09
1.80187e-09
1.80193e-09
1.80185e-09
1.80194e-09
1.80181e-09
1.80196e-09
1.80179e-09
1.80199e-09
1.80176e-09
1.80207e-09
1.80175e-09
1.80223e-09
1.8018e-09
1.80265e-09
1.80211e-09
1.80331e-09
1.8021e-09
1.80111e-09
1.79506e-09
1.7827e-09
1.76965e-09
1.62866e-09
1.64079e-09
1.65209e-09
1.65766e-09
1.65863e-09
1.65974e-09
1.65867e-09
1.65915e-09
1.65839e-09
1.65876e-09
1.65833e-09
1.65861e-09
1.65834e-09
1.65854e-09
1.65836e-09
1.65852e-09
1.65839e-09
1.6585e-09
1.65842e-09
1.65849e-09
1.65844e-09
1.65848e-09
1.65845e-09
1.65847e-09
1.65846e-09
1.65846e-09
1.65847e-09
1.65845e-09
1.65848e-09
1.65844e-09
1.65849e-09
1.65842e-09
1.6585e-09
1.65839e-09
1.65852e-09
1.65837e-09
1.65854e-09
1.65834e-09
1.65861e-09
1.65833e-09
1.65876e-09
1.65839e-09
1.65915e-09
1.65867e-09
1.65974e-09
1.65863e-09
1.65766e-09
1.65209e-09
1.64079e-09
1.62866e-09
1.50503e-09
1.51633e-09
1.52667e-09
1.53181e-09
1.53275e-09
1.53378e-09
1.53282e-09
1.53324e-09
1.53256e-09
1.53289e-09
1.53251e-09
1.53276e-09
1.53251e-09
1.53269e-09
1.53253e-09
1.53267e-09
1.53255e-09
1.53266e-09
1.53258e-09
1.53265e-09
1.5326e-09
1.53264e-09
1.53261e-09
1.53263e-09
1.53262e-09
1.53262e-09
1.53263e-09
1.53261e-09
1.53264e-09
1.5326e-09
1.53265e-09
1.53258e-09
1.53266e-09
1.53255e-09
1.53267e-09
1.53253e-09
1.53269e-09
1.53251e-09
1.53276e-09
1.53251e-09
1.53289e-09
1.53256e-09
1.53324e-09
1.53282e-09
1.53378e-09
1.53275e-09
1.53181e-09
1.52667e-09
1.51633e-09
1.50503e-09
1.39622e-09
1.40676e-09
1.41625e-09
1.42099e-09
1.4219e-09
1.42285e-09
1.422e-09
1.42237e-09
1.42176e-09
1.42204e-09
1.4217e-09
1.42192e-09
1.42171e-09
1.42187e-09
1.42172e-09
1.42184e-09
1.42174e-09
1.42184e-09
1.42177e-09
1.42183e-09
1.42178e-09
1.42182e-09
1.42179e-09
1.42181e-09
1.4218e-09
1.4218e-09
1.42181e-09
1.42179e-09
1.42182e-09
1.42178e-09
1.42183e-09
1.42177e-09
1.42184e-09
1.42174e-09
1.42184e-09
1.42172e-09
1.42187e-09
1.42171e-09
1.42192e-09
1.4217e-09
1.42204e-09
1.42176e-09
1.42237e-09
1.422e-09
1.42285e-09
1.42189e-09
1.42099e-09
1.41625e-09
1.40676e-09
1.39622e-09
1.30009e-09
1.30995e-09
1.31865e-09
1.32304e-09
1.32391e-09
1.3248e-09
1.32404e-09
1.32437e-09
1.32382e-09
1.32407e-09
1.32376e-09
1.32396e-09
1.32377e-09
1.32391e-09
1.32378e-09
1.32389e-09
1.3238e-09
1.32388e-09
1.32382e-09
1.32388e-09
1.32384e-09
1.32387e-09
1.32385e-09
1.32386e-09
1.32386e-09
1.32386e-09
1.32386e-09
1.32385e-09
1.32387e-09
1.32384e-09
1.32388e-09
1.32382e-09
1.32388e-09
1.3238e-09
1.32389e-09
1.32378e-09
1.32391e-09
1.32377e-09
1.32396e-09
1.32376e-09
1.32407e-09
1.32382e-09
1.32437e-09
1.32404e-09
1.3248e-09
1.32391e-09
1.32304e-09
1.31865e-09
1.30995e-09
1.30009e-09
1.21485e-09
1.2241e-09
1.23209e-09
1.23615e-09
1.237e-09
1.23782e-09
1.23714e-09
1.23743e-09
1.23694e-09
1.23716e-09
1.23688e-09
1.23706e-09
1.23689e-09
1.23701e-09
1.2369e-09
1.237e-09
1.23692e-09
1.23699e-09
1.23694e-09
1.23699e-09
1.23695e-09
1.23698e-09
1.23696e-09
1.23698e-09
1.23697e-09
1.23697e-09
1.23698e-09
1.23696e-09
1.23698e-09
1.23695e-09
1.23699e-09
1.23694e-09
1.23699e-09
1.23692e-09
1.237e-09
1.2369e-09
1.23702e-09
1.23689e-09
1.23706e-09
1.23689e-09
1.23716e-09
1.23694e-09
1.23743e-09
1.23714e-09
1.23782e-09
1.237e-09
1.23615e-09
1.23209e-09
1.2241e-09
1.21485e-09
1.13899e-09
1.1477e-09
1.15504e-09
1.15881e-09
1.15962e-09
1.16039e-09
1.15978e-09
1.16004e-09
1.15959e-09
1.15979e-09
1.15954e-09
1.1597e-09
1.15954e-09
1.15966e-09
1.15956e-09
1.15965e-09
1.15957e-09
1.15964e-09
1.1596e-09
1.15964e-09
1.15961e-09
1.15963e-09
1.15961e-09
1.15963e-09
1.15962e-09
1.15962e-09
1.15963e-09
1.15961e-09
1.15963e-09
1.15961e-09
1.15964e-09
1.1596e-09
1.15964e-09
1.15957e-09
1.15965e-09
1.15956e-09
1.15966e-09
1.15954e-09
1.1597e-09
1.15954e-09
1.15979e-09
1.15959e-09
1.16004e-09
1.15978e-09
1.16039e-09
1.15962e-09
1.15881e-09
1.15504e-09
1.1477e-09
1.13899e-09
1.07125e-09
1.07946e-09
1.08623e-09
1.08972e-09
1.0905e-09
1.09122e-09
1.09067e-09
1.09091e-09
1.0905e-09
1.09068e-09
1.09046e-09
1.0906e-09
1.09046e-09
1.09056e-09
1.09047e-09
1.09055e-09
1.09049e-09
1.09055e-09
1.09051e-09
1.09055e-09
1.09052e-09
1.09054e-09
1.09052e-09
1.09054e-09
1.09053e-09
1.09053e-09
1.09054e-09
1.09052e-09
1.09054e-09
1.09052e-09
1.09055e-09
1.09051e-09
1.09055e-09
1.09049e-09
1.09055e-09
1.09047e-09
1.09056e-09
1.09046e-09
1.0906e-09
1.09046e-09
1.09068e-09
1.0905e-09
1.09091e-09
1.09067e-09
1.09122e-09
1.0905e-09
1.08972e-09
1.08623e-09
1.07946e-09
1.07125e-09
1.01055e-09
1.01831e-09
1.02457e-09
1.0278e-09
1.02855e-09
1.02922e-09
1.02873e-09
1.02894e-09
1.02858e-09
1.02874e-09
1.02854e-09
1.02866e-09
1.02854e-09
1.02863e-09
1.02855e-09
1.02862e-09
1.02856e-09
1.02862e-09
1.02858e-09
1.02862e-09
1.02859e-09
1.02862e-09
1.0286e-09
1.02861e-09
1.02861e-09
1.02861e-09
1.02861e-09
1.0286e-09
1.02862e-09
1.0286e-09
1.02862e-09
1.02858e-09
1.02862e-09
1.02856e-09
1.02862e-09
1.02855e-09
1.02863e-09
1.02854e-09
1.02866e-09
1.02854e-09
1.02874e-09
1.02858e-09
1.02894e-09
1.02873e-09
1.02922e-09
1.02855e-09
1.0278e-09
1.02457e-09
1.0183e-09
1.01055e-09
9.56e-10
9.63332e-10
9.69129e-10
9.72128e-10
9.72843e-10
9.73478e-10
9.73034e-10
9.7323e-10
9.72903e-10
9.73045e-10
9.72862e-10
9.72978e-10
9.72864e-10
9.72952e-10
9.72877e-10
9.72945e-10
9.72892e-10
9.72946e-10
9.72911e-10
9.72945e-10
9.72921e-10
9.72941e-10
9.72927e-10
9.72937e-10
9.72933e-10
9.72933e-10
9.72937e-10
9.72927e-10
9.72941e-10
9.72921e-10
9.72945e-10
9.7291e-10
9.72946e-10
9.72892e-10
9.72945e-10
9.72877e-10
9.72952e-10
9.72864e-10
9.72978e-10
9.72863e-10
9.73045e-10
9.72902e-10
9.73229e-10
9.73034e-10
9.73477e-10
9.72842e-10
9.72127e-10
9.69129e-10
9.63331e-10
9.56e-10
9.06816e-10
9.1376e-10
9.19134e-10
9.2192e-10
9.22605e-10
9.23203e-10
9.22806e-10
9.22985e-10
9.2269e-10
9.22819e-10
9.22654e-10
9.2276e-10
9.22657e-10
9.22738e-10
9.2267e-10
9.22733e-10
9.22685e-10
9.22735e-10
9.22703e-10
9.22735e-10
9.22713e-10
9.22732e-10
9.22719e-10
9.22729e-10
9.22725e-10
9.22725e-10
9.22729e-10
9.22719e-10
9.22732e-10
9.22713e-10
9.22735e-10
9.22703e-10
9.22735e-10
9.22686e-10
9.22733e-10
9.22671e-10
9.22738e-10
9.22657e-10
9.2276e-10
9.22655e-10
9.22819e-10
9.2269e-10
9.22985e-10
9.22806e-10
9.23203e-10
9.22605e-10
9.2192e-10
9.19133e-10
9.13759e-10
9.06816e-10
8.62347e-10
8.68928e-10
8.73918e-10
8.76512e-10
8.77168e-10
8.77733e-10
8.77378e-10
8.77543e-10
8.77277e-10
8.77394e-10
8.77246e-10
8.77343e-10
8.7725e-10
8.77325e-10
8.77264e-10
8.77322e-10
8.77279e-10
8.77325e-10
8.77296e-10
8.77326e-10
8.77306e-10
8.77324e-10
8.77311e-10
8.77321e-10
8.77317e-10
8.77317e-10
8.77321e-10
8.77312e-10
8.77324e-10
8.77306e-10
8.77326e-10
8.77296e-10
8.77325e-10
8.77279e-10
8.77323e-10
8.77264e-10
8.77325e-10
8.7725e-10
8.77343e-10
8.77246e-10
8.77394e-10
8.77276e-10
8.77543e-10
8.77378e-10
8.77732e-10
8.77167e-10
8.76511e-10
8.73918e-10
8.68928e-10
8.62347e-10
8.22034e-10
8.28274e-10
8.32915e-10
8.35333e-10