/*--------------------------------*- C++ -*----------------------------------*\
| =========                 |                                                 |
| \\      /  F ield         | OpenFOAM: The Open Source CFD Toolbox           |
|  \\    /   O peration     | Version:  dev                                   |
|   \\  /    A nd           | Web:      www.OpenFOAM.org                      |
|    \\/     M anipulation  |                                                 |
\*---------------------------------------------------------------------------*/
FoamFile
{
    version     2.0;
    format      ascii;
    class       volScalarField;
    location    "0.1";
    object      PC3H4;
}
// * * * * * * * * * * * * * * * * * * * * * * * * * * * * * * * * * * * * * //

dimensions      [0 0 0 0 0 0 0];

internalField   nonuniform List<scalar> 
8000
(
5.39266e-06
5.40151e-06
5.40638e-06
5.40843e-06
5.40849e-06
5.40902e-06
5.40873e-06
5.40901e-06
5.40877e-06
5.40896e-06
5.4088e-06
5.40893e-06
5.40882e-06
5.4089e-06
5.40883e-06
5.40889e-06
5.40884e-06
5.40888e-06
5.40885e-06
5.40888e-06
5.40886e-06
5.40887e-06
5.40886e-06
5.40887e-06
5.40886e-06
5.40886e-06
5.40887e-06
5.40886e-06
5.40887e-06
5.40886e-06
5.40888e-06
5.40885e-06
5.40888e-06
5.40884e-06
5.40889e-06
5.40883e-06
5.4089e-06
5.40882e-06
5.40893e-06
5.4088e-06
5.40896e-06
5.40877e-06
5.40901e-06
5.40873e-06
5.40902e-06
5.40849e-06
5.40843e-06
5.40638e-06
5.40151e-06
5.39266e-06
6.13629e-06
6.13941e-06
6.14066e-06
6.14107e-06
6.14064e-06
6.14094e-06
6.14065e-06
6.14087e-06
6.14067e-06
6.14083e-06
6.1407e-06
6.14081e-06
6.14072e-06
6.14079e-06
6.14074e-06
6.14079e-06
6.14074e-06
6.14078e-06
6.14075e-06
6.14077e-06
6.14076e-06
6.14077e-06
6.14076e-06
6.14077e-06
6.14076e-06
6.14076e-06
6.14077e-06
6.14076e-06
6.14077e-06
6.14076e-06
6.14077e-06
6.14075e-06
6.14078e-06
6.14074e-06
6.14079e-06
6.14074e-06
6.14079e-06
6.14072e-06
6.14081e-06
6.1407e-06
6.14083e-06
6.14067e-06
6.14087e-06
6.14065e-06
6.14094e-06
6.14064e-06
6.14107e-06
6.14066e-06
6.13941e-06
6.13629e-06
4.01379e-06
4.01335e-06
4.01157e-06
4.01058e-06
4.00988e-06
4.00992e-06
4.0097e-06
4.00982e-06
4.00971e-06
4.00981e-06
4.00973e-06
4.0098e-06
4.00975e-06
4.00979e-06
4.00976e-06
4.00979e-06
4.00976e-06
4.00978e-06
4.00977e-06
4.00978e-06
4.00977e-06
4.00978e-06
4.00977e-06
4.00977e-06
4.00977e-06
4.00977e-06
4.00978e-06
4.00977e-06
4.00978e-06
4.00977e-06
4.00978e-06
4.00977e-06
4.00978e-06
4.00976e-06
4.00979e-06
4.00976e-06
4.00979e-06
4.00975e-06
4.0098e-06
4.00973e-06
4.00981e-06
4.00971e-06
4.00982e-06
4.0097e-06
4.00992e-06
4.00988e-06
4.01058e-06
4.01157e-06
4.01335e-06
4.01379e-06
2.25426e-06
2.25378e-06
2.25272e-06
2.25202e-06
2.25151e-06
2.25154e-06
2.25138e-06
2.25147e-06
2.25138e-06
2.25146e-06
2.2514e-06
2.25145e-06
2.25141e-06
2.25145e-06
2.25142e-06
2.25144e-06
2.25142e-06
2.25144e-06
2.25143e-06
2.25144e-06
2.25143e-06
2.25143e-06
2.25143e-06
2.25143e-06
2.25143e-06
2.25143e-06
2.25143e-06
2.25143e-06
2.25143e-06
2.25143e-06
2.25144e-06
2.25143e-06
2.25144e-06
2.25142e-06
2.25144e-06
2.25142e-06
2.25145e-06
2.25141e-06
2.25145e-06
2.2514e-06
2.25146e-06
2.25138e-06
2.25147e-06
2.25138e-06
2.25154e-06
2.25151e-06
2.25202e-06
2.25272e-06
2.25378e-06
2.25425e-06
1.30848e-06
1.30824e-06
1.30786e-06
1.30748e-06
1.30716e-06
1.3072e-06
1.30708e-06
1.30715e-06
1.30709e-06
1.30714e-06
1.3071e-06
1.30713e-06
1.30711e-06
1.30713e-06
1.30711e-06
1.30713e-06
1.30711e-06
1.30712e-06
1.30712e-06
1.30712e-06
1.30712e-06
1.30712e-06
1.30712e-06
1.30712e-06
1.30712e-06
1.30712e-06
1.30712e-06
1.30712e-06
1.30712e-06
1.30712e-06
1.30712e-06
1.30712e-06
1.30712e-06
1.30711e-06
1.30713e-06
1.30711e-06
1.30713e-06
1.30711e-06
1.30713e-06
1.3071e-06
1.30714e-06
1.30709e-06
1.30715e-06
1.30708e-06
1.3072e-06
1.30716e-06
1.30748e-06
1.30786e-06
1.30824e-06
1.30848e-06
8.34761e-07
8.34601e-07
8.34494e-07
8.34274e-07
8.34081e-07
8.34104e-07
8.3403e-07
8.34074e-07
8.34032e-07
8.34066e-07
8.34039e-07
8.34063e-07
8.34044e-07
8.3406e-07
8.34048e-07
8.34058e-07
8.3405e-07
8.34057e-07
8.34051e-07
8.34055e-07
8.34052e-07
8.34055e-07
8.34053e-07
8.34054e-07
8.34053e-07
8.34053e-07
8.34054e-07
8.34053e-07
8.34055e-07
8.34052e-07
8.34055e-07
8.34051e-07
8.34057e-07
8.3405e-07
8.34058e-07
8.34047e-07
8.3406e-07
8.34044e-07
8.34062e-07
8.34039e-07
8.34066e-07
8.34032e-07
8.34074e-07
8.3403e-07
8.34104e-07
8.34081e-07
8.34273e-07
8.34494e-07
8.34601e-07
8.34759e-07
5.96411e-07
5.96254e-07
5.96213e-07
5.96059e-07
5.9594e-07
5.95948e-07
5.95903e-07
5.95928e-07
5.95903e-07
5.95923e-07
5.95907e-07
5.95921e-07
5.9591e-07
5.95919e-07
5.95912e-07
5.95918e-07
5.95913e-07
5.95918e-07
5.95914e-07
5.95917e-07
5.95915e-07
5.95916e-07
5.95915e-07
5.95916e-07
5.95916e-07
5.95916e-07
5.95916e-07
5.95915e-07
5.95916e-07
5.95915e-07
5.95917e-07
5.95914e-07
5.95917e-07
5.95913e-07
5.95918e-07
5.95912e-07
5.95919e-07
5.9591e-07
5.95921e-07
5.95907e-07
5.95923e-07
5.95903e-07
5.95928e-07
5.95903e-07
5.95948e-07
5.9594e-07
5.96059e-07
5.96213e-07
5.96253e-07
5.9641e-07
4.73888e-07
4.73717e-07
4.73671e-07
4.73545e-07
4.73468e-07
4.73465e-07
4.73438e-07
4.7345e-07
4.73436e-07
4.73447e-07
4.73438e-07
4.73445e-07
4.7344e-07
4.73445e-07
4.73441e-07
4.73444e-07
4.73442e-07
4.73444e-07
4.73442e-07
4.73444e-07
4.73443e-07
4.73444e-07
4.73443e-07
4.73443e-07
4.73443e-07
4.73443e-07
4.73443e-07
4.73443e-07
4.73444e-07
4.73443e-07
4.73444e-07
4.73442e-07
4.73444e-07
4.73442e-07
4.73444e-07
4.73441e-07
4.73445e-07
4.7344e-07
4.73445e-07
4.73438e-07
4.73447e-07
4.73435e-07
4.7345e-07
4.73437e-07
4.73465e-07
4.73468e-07
4.73545e-07
4.73671e-07
4.73717e-07
4.73887e-07
4.08566e-07
4.08391e-07
4.08332e-07
4.08221e-07
4.08167e-07
4.08157e-07
4.0814e-07
4.08145e-07
4.08137e-07
4.08142e-07
4.08138e-07
4.08142e-07
4.08139e-07
4.08142e-07
4.0814e-07
4.08142e-07
4.0814e-07
4.08142e-07
4.08141e-07
4.08141e-07
4.08141e-07
4.08141e-07
4.08141e-07
4.08141e-07
4.08141e-07
4.08141e-07
4.08141e-07
4.08141e-07
4.08141e-07
4.08141e-07
4.08141e-07
4.08141e-07
4.08142e-07
4.0814e-07
4.08142e-07
4.0814e-07
4.08142e-07
4.08139e-07
4.08142e-07
4.08138e-07
4.08142e-07
4.08137e-07
4.08145e-07
4.0814e-07
4.08157e-07
4.08167e-07
4.08221e-07
4.08332e-07
4.08391e-07
4.08566e-07
3.72116e-07
3.7195e-07
3.71889e-07
3.71791e-07
3.71751e-07
3.71738e-07
3.71726e-07
3.71728e-07
3.71722e-07
3.71726e-07
3.71723e-07
3.71725e-07
3.71724e-07
3.71725e-07
3.71724e-07
3.71725e-07
3.71725e-07
3.71725e-07
3.71725e-07
3.71725e-07
3.71725e-07
3.71726e-07
3.71725e-07
3.71725e-07
3.71725e-07
3.71725e-07
3.71725e-07
3.71725e-07
3.71726e-07
3.71725e-07
3.71725e-07
3.71725e-07
3.71725e-07
3.71725e-07
3.71725e-07
3.71724e-07
3.71725e-07
3.71724e-07
3.71725e-07
3.71723e-07
3.71726e-07
3.71722e-07
3.71728e-07
3.71726e-07
3.71738e-07
3.71751e-07
3.71791e-07
3.71889e-07
3.7195e-07
3.72115e-07
3.50361e-07
3.50219e-07
3.50173e-07
3.50091e-07
3.50058e-07
3.50046e-07
3.50035e-07
3.50036e-07
3.50031e-07
3.50034e-07
3.50032e-07
3.50033e-07
3.50032e-07
3.50033e-07
3.50033e-07
3.50034e-07
3.50033e-07
3.50034e-07
3.50033e-07
3.50034e-07
3.50033e-07
3.50034e-07
3.50034e-07
3.50034e-07
3.50034e-07
3.50034e-07
3.50034e-07
3.50034e-07
3.50034e-07
3.50033e-07
3.50034e-07
3.50033e-07
3.50034e-07
3.50033e-07
3.50034e-07
3.50033e-07
3.50033e-07
3.50032e-07
3.50033e-07
3.50032e-07
3.50034e-07
3.50031e-07
3.50036e-07
3.50035e-07
3.50046e-07
3.50058e-07
3.50091e-07
3.50173e-07
3.50219e-07
3.50361e-07
3.35699e-07
3.35586e-07
3.35556e-07
3.35489e-07
3.35462e-07
3.35451e-07
3.35441e-07
3.35441e-07
3.35437e-07
3.35439e-07
3.35437e-07
3.35438e-07
3.35437e-07
3.35438e-07
3.35438e-07
3.35438e-07
3.35438e-07
3.35438e-07
3.35438e-07
3.35438e-07
3.35438e-07
3.35438e-07
3.35438e-07
3.35438e-07
3.35438e-07
3.35438e-07
3.35438e-07
3.35438e-07
3.35438e-07
3.35438e-07
3.35438e-07
3.35438e-07
3.35438e-07
3.35438e-07
3.35438e-07
3.35438e-07
3.35438e-07
3.35437e-07
3.35438e-07
3.35437e-07
3.35439e-07
3.35437e-07
3.35441e-07
3.35441e-07
3.35451e-07
3.35462e-07
3.35489e-07
3.35556e-07
3.35586e-07
3.35699e-07
3.25577e-07
3.25505e-07
3.25512e-07
3.25466e-07
3.25443e-07
3.25436e-07
3.25425e-07
3.25426e-07
3.2542e-07
3.25423e-07
3.2542e-07
3.25422e-07
3.25421e-07
3.25422e-07
3.25421e-07
3.25422e-07
3.25421e-07
3.25422e-07
3.25422e-07
3.25422e-07
3.25422e-07
3.25422e-07
3.25422e-07
3.25422e-07
3.25422e-07
3.25422e-07
3.25422e-07
3.25422e-07
3.25422e-07
3.25422e-07
3.25422e-07
3.25422e-07
3.25422e-07
3.25421e-07
3.25422e-07
3.25421e-07
3.25422e-07
3.25421e-07
3.25422e-07
3.2542e-07
3.25423e-07
3.2542e-07
3.25426e-07
3.25425e-07
3.25436e-07
3.25443e-07
3.25466e-07
3.25512e-07
3.25505e-07
3.25577e-07
3.176e-07
3.17539e-07
3.17559e-07
3.17526e-07
3.17512e-07
3.17506e-07
3.17496e-07
3.17497e-07
3.17492e-07
3.17494e-07
3.17491e-07
3.17493e-07
3.17491e-07
3.17493e-07
3.17492e-07
3.17493e-07
3.17492e-07
3.17493e-07
3.17492e-07
3.17493e-07
3.17492e-07
3.17493e-07
3.17493e-07
3.17493e-07
3.17493e-07
3.17493e-07
3.17493e-07
3.17493e-07
3.17493e-07
3.17492e-07
3.17493e-07
3.17492e-07
3.17493e-07
3.17492e-07
3.17493e-07
3.17492e-07
3.17493e-07
3.17491e-07
3.17493e-07
3.17491e-07
3.17494e-07
3.17492e-07
3.17497e-07
3.17496e-07
3.17506e-07
3.17512e-07
3.17526e-07
3.17559e-07
3.17539e-07
3.176e-07
3.10653e-07
3.10635e-07
3.10692e-07
3.10679e-07
3.1067e-07
3.10667e-07
3.10656e-07
3.10658e-07
3.10651e-07
3.10654e-07
3.10651e-07
3.10653e-07
3.10651e-07
3.10652e-07
3.10651e-07
3.10652e-07
3.10651e-07
3.10652e-07
3.10652e-07
3.10652e-07
3.10652e-07
3.10652e-07
3.10652e-07
3.10652e-07
3.10652e-07
3.10652e-07
3.10652e-07
3.10652e-07
3.10652e-07
3.10652e-07
3.10652e-07
3.10652e-07
3.10652e-07
3.10651e-07
3.10652e-07
3.10651e-07
3.10652e-07
3.10651e-07
3.10653e-07
3.10651e-07
3.10654e-07
3.10651e-07
3.10658e-07
3.10656e-07
3.10667e-07
3.10669e-07
3.10679e-07
3.10692e-07
3.10635e-07
3.10653e-07
3.04698e-07
3.04725e-07
3.04822e-07
3.04831e-07
3.04826e-07
3.04828e-07
3.04815e-07
3.04819e-07
3.0481e-07
3.04814e-07
3.0481e-07
3.04813e-07
3.0481e-07
3.04812e-07
3.0481e-07
3.04812e-07
3.04811e-07
3.04812e-07
3.04811e-07
3.04812e-07
3.04811e-07
3.04812e-07
3.04811e-07
3.04811e-07
3.04811e-07
3.04811e-07
3.04811e-07
3.04811e-07
3.04812e-07
3.04811e-07
3.04812e-07
3.04811e-07
3.04812e-07
3.04811e-07
3.04812e-07
3.0481e-07
3.04812e-07
3.0481e-07
3.04813e-07
3.0481e-07
3.04814e-07
3.0481e-07
3.04819e-07
3.04815e-07
3.04828e-07
3.04826e-07
3.04831e-07
3.04822e-07
3.04725e-07
3.04698e-07
2.99023e-07
2.99105e-07
2.99253e-07
2.99291e-07
2.99294e-07
2.99301e-07
2.99287e-07
2.99292e-07
2.99281e-07
2.99286e-07
2.9928e-07
2.99284e-07
2.99281e-07
2.99283e-07
2.99281e-07
2.99283e-07
2.99281e-07
2.99283e-07
2.99282e-07
2.99282e-07
2.99282e-07
2.99282e-07
2.99282e-07
2.99282e-07
2.99282e-07
2.99282e-07
2.99282e-07
2.99282e-07
2.99282e-07
2.99282e-07
2.99282e-07
2.99282e-07
2.99283e-07
2.99281e-07
2.99283e-07
2.99281e-07
2.99283e-07
2.99281e-07
2.99284e-07
2.9928e-07
2.99286e-07
2.99281e-07
2.99292e-07
2.99287e-07
2.99301e-07
2.99294e-07
2.99291e-07
2.99253e-07
2.99105e-07
2.99023e-07
2.93867e-07
2.93993e-07
2.94179e-07
2.94237e-07
2.94245e-07
2.94257e-07
2.94241e-07
2.94247e-07
2.94235e-07
2.94241e-07
2.94234e-07
2.94239e-07
2.94234e-07
2.94237e-07
2.94235e-07
2.94237e-07
2.94235e-07
2.94237e-07
2.94235e-07
2.94236e-07
2.94236e-07
2.94236e-07
2.94236e-07
2.94236e-07
2.94236e-07
2.94236e-07
2.94236e-07
2.94236e-07
2.94236e-07
2.94236e-07
2.94236e-07
2.94235e-07
2.94237e-07
2.94235e-07
2.94237e-07
2.94235e-07
2.94237e-07
2.94234e-07
2.94239e-07
2.94234e-07
2.94241e-07
2.94235e-07
2.94247e-07
2.94241e-07
2.94257e-07
2.94245e-07
2.94237e-07
2.94178e-07
2.93993e-07
2.93867e-07
2.88776e-07
2.88959e-07
2.89194e-07
2.8928e-07
2.89293e-07
2.8931e-07
2.89292e-07
2.893e-07
2.89286e-07
2.89293e-07
2.89285e-07
2.89291e-07
2.89285e-07
2.89289e-07
2.89286e-07
2.89288e-07
2.89286e-07
2.89288e-07
2.89286e-07
2.89288e-07
2.89287e-07
2.89287e-07
2.89287e-07
2.89287e-07
2.89287e-07
2.89287e-07
2.89287e-07
2.89287e-07
2.89287e-07
2.89287e-07
2.89288e-07
2.89286e-07
2.89288e-07
2.89286e-07
2.89288e-07
2.89286e-07
2.89289e-07
2.89285e-07
2.8929e-07
2.89285e-07
2.89293e-07
2.89286e-07
2.893e-07
2.89292e-07
2.8931e-07
2.89293e-07
2.8928e-07
2.89194e-07
2.88959e-07
2.88776e-07
2.83887e-07
2.84113e-07
2.84377e-07
2.84481e-07
2.845e-07
2.8452e-07
2.84501e-07
2.84511e-07
2.84495e-07
2.84503e-07
2.84494e-07
2.845e-07
2.84494e-07
2.84498e-07
2.84494e-07
2.84497e-07
2.84495e-07
2.84497e-07
2.84495e-07
2.84497e-07
2.84495e-07
2.84496e-07
2.84496e-07
2.84496e-07
2.84496e-07
2.84496e-07
2.84496e-07
2.84496e-07
2.84496e-07
2.84495e-07
2.84497e-07
2.84495e-07
2.84497e-07
2.84495e-07
2.84497e-07
2.84494e-07
2.84498e-07
2.84494e-07
2.845e-07
2.84494e-07
2.84503e-07
2.84495e-07
2.84511e-07
2.84501e-07
2.8452e-07
2.845e-07
2.84481e-07
2.84377e-07
2.84113e-07
2.83887e-07
2.79359e-07
2.79629e-07
2.79922e-07
2.80044e-07
2.80069e-07
2.80093e-07
2.80073e-07
2.80083e-07
2.80066e-07
2.80074e-07
2.80065e-07
2.80071e-07
2.80065e-07
2.80069e-07
2.80065e-07
2.80068e-07
2.80065e-07
2.80068e-07
2.80066e-07
2.80067e-07
2.80066e-07
2.80067e-07
2.80066e-07
2.80067e-07
2.80067e-07
2.80067e-07
2.80067e-07
2.80066e-07
2.80067e-07
2.80066e-07
2.80067e-07
2.80066e-07
2.80068e-07
2.80065e-07
2.80068e-07
2.80065e-07
2.80069e-07
2.80065e-07
2.80071e-07
2.80065e-07
2.80075e-07
2.80066e-07
2.80083e-07
2.80073e-07
2.80093e-07
2.80069e-07
2.80044e-07
2.79922e-07
2.79629e-07
2.79359e-07
2.75002e-07
2.75316e-07
2.75635e-07
2.75774e-07
2.75804e-07
2.75831e-07
2.7581e-07
2.75821e-07
2.75804e-07
2.75812e-07
2.75802e-07
2.75808e-07
2.75802e-07
2.75806e-07
2.75802e-07
2.75805e-07
2.75802e-07
2.75805e-07
2.75803e-07
2.75804e-07
2.75803e-07
2.75804e-07
2.75803e-07
2.75804e-07
2.75803e-07
2.75803e-07
2.75804e-07
2.75803e-07
2.75804e-07
2.75803e-07
2.75804e-07
2.75803e-07
2.75805e-07
2.75802e-07
2.75805e-07
2.75802e-07
2.75806e-07
2.75802e-07
2.75808e-07
2.75802e-07
2.75812e-07
2.75803e-07
2.75821e-07
2.7581e-07
2.75831e-07
2.75804e-07
2.75774e-07
2.75635e-07
2.75316e-07
2.75002e-07
2.70804e-07
2.71038e-07
2.71366e-07
2.71517e-07
2.71555e-07
2.71585e-07
2.71565e-07
2.71576e-07
2.71558e-07
2.71566e-07
2.71556e-07
2.71562e-07
2.71555e-07
2.7156e-07
2.71555e-07
2.71558e-07
2.71555e-07
2.71558e-07
2.71556e-07
2.71557e-07
2.71556e-07
2.71557e-07
2.71556e-07
2.71557e-07
2.71557e-07
2.71557e-07
2.71557e-07
2.71556e-07
2.71557e-07
2.71556e-07
2.71557e-07
2.71556e-07
2.71558e-07
2.71555e-07
2.71558e-07
2.71555e-07
2.7156e-07
2.71555e-07
2.71562e-07
2.71556e-07
2.71566e-07
2.71558e-07
2.71576e-07
2.71565e-07
2.71585e-07
2.71555e-07
2.71517e-07
2.71366e-07
2.71038e-07
2.70804e-07
2.66758e-07
2.67025e-07
2.67374e-07
2.67539e-07
2.67582e-07
2.67615e-07
2.67595e-07
2.67606e-07
2.67587e-07
2.67595e-07
2.67585e-07
2.67591e-07
2.67584e-07
2.67588e-07
2.67584e-07
2.67587e-07
2.67584e-07
2.67586e-07
2.67584e-07
2.67586e-07
2.67585e-07
2.67585e-07
2.67585e-07
2.67585e-07
2.67585e-07
2.67585e-07
2.67585e-07
2.67585e-07
2.67585e-07
2.67585e-07
2.67586e-07
2.67584e-07
2.67586e-07
2.67584e-07
2.67587e-07
2.67584e-07
2.67588e-07
2.67584e-07
2.67591e-07
2.67585e-07
2.67596e-07
2.67587e-07
2.67606e-07
2.67595e-07
2.67615e-07
2.67582e-07
2.67539e-07
2.67374e-07
2.67025e-07
2.66758e-07
2.62703e-07
2.63005e-07
2.6338e-07
2.63563e-07
2.63613e-07
2.63649e-07
2.63628e-07
2.6364e-07
2.63621e-07
2.63629e-07
2.63618e-07
2.63624e-07
2.63617e-07
2.63621e-07
2.63616e-07
2.6362e-07
2.63616e-07
2.63619e-07
2.63617e-07
2.63619e-07
2.63617e-07
2.63618e-07
2.63617e-07
2.63618e-07
2.63618e-07
2.63618e-07
2.63618e-07
2.63617e-07
2.63618e-07
2.63617e-07
2.63619e-07
2.63617e-07
2.63619e-07
2.63616e-07
2.6362e-07
2.63616e-07
2.63621e-07
2.63617e-07
2.63624e-07
2.63618e-07
2.63629e-07
2.63621e-07
2.6364e-07
2.63628e-07
2.63649e-07
2.63613e-07
2.63563e-07
2.6338e-07
2.63005e-07
2.62703e-07
2.58779e-07
2.5911e-07
2.59498e-07
2.59691e-07
2.59746e-07
2.59784e-07
2.59764e-07
2.59775e-07
2.59756e-07
2.59764e-07
2.59752e-07
2.59759e-07
2.59751e-07
2.59755e-07
2.59751e-07
2.59754e-07
2.59751e-07
2.59753e-07
2.59751e-07
2.59753e-07
2.59751e-07
2.59752e-07
2.59752e-07
2.59752e-07
2.59752e-07
2.59752e-07
2.59752e-07
2.59752e-07
2.59752e-07
2.59751e-07
2.59753e-07
2.59751e-07
2.59753e-07
2.59751e-07
2.59754e-07
2.59751e-07
2.59756e-07
2.59751e-07
2.59759e-07
2.59752e-07
2.59764e-07
2.59756e-07
2.59775e-07
2.59764e-07
2.59784e-07
2.59746e-07
2.59691e-07
2.59498e-07
2.5911e-07
2.58779e-07
2.54981e-07
2.55338e-07
2.55736e-07
2.55939e-07
2.55998e-07
2.56039e-07
2.56018e-07
2.5603e-07
2.5601e-07
2.56018e-07
2.56006e-07
2.56012e-07
2.56004e-07
2.56009e-07
2.56004e-07
2.56007e-07
2.56004e-07
2.56007e-07
2.56004e-07
2.56006e-07
2.56005e-07
2.56006e-07
2.56005e-07
2.56005e-07
2.56005e-07
2.56005e-07
2.56005e-07
2.56005e-07
2.56006e-07
2.56005e-07
2.56006e-07
2.56004e-07
2.56007e-07
2.56004e-07
2.56007e-07
2.56004e-07
2.56009e-07
2.56004e-07
2.56012e-07
2.56006e-07
2.56018e-07
2.5601e-07
2.5603e-07
2.56018e-07
2.56038e-07
2.55998e-07
2.55939e-07
2.55736e-07
2.55338e-07
2.54981e-07
2.513e-07
2.51681e-07
2.5209e-07
2.523e-07
2.52363e-07
2.52405e-07
2.52384e-07
2.52396e-07
2.52376e-07
2.52384e-07
2.52372e-07
2.52378e-07
2.5237e-07
2.52374e-07
2.5237e-07
2.52373e-07
2.52369e-07
2.52372e-07
2.5237e-07
2.52372e-07
2.5237e-07
2.52371e-07
2.5237e-07
2.52371e-07
2.52371e-07
2.52371e-07
2.52371e-07
2.5237e-07
2.52371e-07
2.5237e-07
2.52372e-07
2.5237e-07
2.52372e-07
2.52369e-07
2.52373e-07
2.5237e-07
2.52375e-07
2.5237e-07
2.52378e-07
2.52372e-07
2.52384e-07
2.52376e-07
2.52396e-07
2.52384e-07
2.52405e-07
2.52363e-07
2.523e-07
2.5209e-07
2.51681e-07
2.513e-07
2.47732e-07
2.48134e-07
2.48551e-07
2.48768e-07
2.48834e-07
2.48878e-07
2.48857e-07
2.48869e-07
2.48849e-07
2.48856e-07
2.48844e-07
2.4885e-07
2.48842e-07
2.48846e-07
2.48842e-07
2.48845e-07
2.48841e-07
2.48844e-07
2.48842e-07
2.48844e-07
2.48842e-07
2.48843e-07
2.48842e-07
2.48843e-07
2.48842e-07
2.48842e-07
2.48843e-07
2.48842e-07
2.48843e-07
2.48842e-07
2.48843e-07
2.48842e-07
2.48844e-07
2.48841e-07
2.48845e-07
2.48842e-07
2.48847e-07
2.48842e-07
2.4885e-07
2.48844e-07
2.48856e-07
2.48849e-07
2.48869e-07
2.48857e-07
2.48878e-07
2.48834e-07
2.48768e-07
2.48551e-07
2.48134e-07
2.47732e-07
2.4427e-07
2.4469e-07
2.45116e-07
2.45337e-07
2.45406e-07
2.45451e-07
2.45431e-07
2.45443e-07
2.45422e-07
2.45429e-07
2.45417e-07
2.45423e-07
2.45415e-07
2.45419e-07
2.45414e-07
2.45417e-07
2.45414e-07
2.45417e-07
2.45414e-07
2.45416e-07
2.45415e-07
2.45416e-07
2.45415e-07
2.45415e-07
2.45415e-07
2.45415e-07
2.45415e-07
2.45415e-07
2.45416e-07
2.45415e-07
2.45416e-07
2.45414e-07
2.45417e-07
2.45414e-07
2.45417e-07
2.45414e-07
2.45419e-07
2.45415e-07
2.45423e-07
2.45417e-07
2.45429e-07
2.45422e-07
2.45443e-07
2.45431e-07
2.45451e-07
2.45406e-07
2.45337e-07
2.45116e-07
2.4469e-07
2.4427e-07
2.40908e-07
2.41345e-07
2.41777e-07
2.42002e-07
2.42074e-07
2.4212e-07
2.421e-07
2.42111e-07
2.42091e-07
2.42098e-07
2.42086e-07
2.42091e-07
2.42083e-07
2.42087e-07
2.42082e-07
2.42085e-07
2.42082e-07
2.42085e-07
2.42082e-07
2.42084e-07
2.42083e-07
2.42084e-07
2.42083e-07
2.42083e-07
2.42083e-07
2.42083e-07
2.42083e-07
2.42083e-07
2.42084e-07
2.42083e-07
2.42084e-07
2.42082e-07
2.42085e-07
2.42082e-07
2.42086e-07
2.42082e-07
2.42087e-07
2.42083e-07
2.42091e-07
2.42086e-07
2.42098e-07
2.42091e-07
2.42111e-07
2.421e-07
2.4212e-07
2.42074e-07
2.42002e-07
2.41777e-07
2.41345e-07
2.40908e-07
2.37643e-07
2.38093e-07
2.3853e-07
2.38758e-07
2.38833e-07
2.3888e-07
2.3886e-07
2.38871e-07
2.3885e-07
2.38857e-07
2.38845e-07
2.3885e-07
2.38842e-07
2.38846e-07
2.38841e-07
2.38844e-07
2.38841e-07
2.38843e-07
2.38841e-07
2.38843e-07
2.38841e-07
2.38842e-07
2.38841e-07
2.38842e-07
2.38842e-07
2.38842e-07
2.38842e-07
2.38841e-07
2.38842e-07
2.38841e-07
2.38843e-07
2.38841e-07
2.38843e-07
2.38841e-07
2.38844e-07
2.38841e-07
2.38846e-07
2.38842e-07
2.3885e-07
2.38845e-07
2.38857e-07
2.3885e-07
2.38871e-07
2.3886e-07
2.3888e-07
2.38833e-07
2.38758e-07
2.3853e-07
2.38093e-07
2.37643e-07
2.34468e-07
2.3493e-07
2.35371e-07
2.35601e-07
2.35678e-07
2.35726e-07
2.35706e-07
2.35717e-07
2.35696e-07
2.35703e-07
2.3569e-07
2.35695e-07
2.35687e-07
2.35691e-07
2.35686e-07
2.35689e-07
2.35686e-07
2.35688e-07
2.35686e-07
2.35688e-07
2.35686e-07
2.35687e-07
2.35686e-07
2.35687e-07
2.35687e-07
2.35687e-07
2.35687e-07
2.35686e-07
2.35687e-07
2.35686e-07
2.35688e-07
2.35686e-07
2.35688e-07
2.35686e-07
2.35689e-07
2.35686e-07
2.35691e-07
2.35687e-07
2.35695e-07
2.3569e-07
2.35703e-07
2.35696e-07
2.35717e-07
2.35706e-07
2.35726e-07
2.35678e-07
2.35601e-07
2.35371e-07
2.3493e-07
2.34468e-07
2.3138e-07
2.31852e-07
2.32296e-07
2.32528e-07
2.32606e-07
2.32654e-07
2.32634e-07
2.32645e-07
2.32624e-07
2.3263e-07
2.32618e-07
2.32623e-07
2.32615e-07
2.32619e-07
2.32614e-07
2.32617e-07
2.32613e-07
2.32616e-07
2.32614e-07
2.32615e-07
2.32614e-07
2.32615e-07
2.32614e-07
2.32614e-07
2.32614e-07
2.32614e-07
2.32614e-07
2.32614e-07
2.32615e-07
2.32614e-07
2.32615e-07
2.32614e-07
2.32616e-07
2.32613e-07
2.32617e-07
2.32614e-07
2.32619e-07
2.32615e-07
2.32623e-07
2.32618e-07
2.3263e-07
2.32624e-07
2.32645e-07
2.32634e-07
2.32654e-07
2.32605e-07
2.32528e-07
2.32296e-07
2.31852e-07
2.3138e-07
2.28375e-07
2.28855e-07
2.29301e-07
2.29533e-07
2.29612e-07
2.29661e-07
2.29642e-07
2.29652e-07
2.29631e-07
2.29637e-07
2.29624e-07
2.29629e-07
2.29621e-07
2.29625e-07
2.2962e-07
2.29623e-07
2.29619e-07
2.29622e-07
2.2962e-07
2.29621e-07
2.2962e-07
2.29621e-07
2.2962e-07
2.2962e-07
2.2962e-07
2.2962e-07
2.2962e-07
2.2962e-07
2.29621e-07
2.2962e-07
2.29621e-07
2.2962e-07
2.29622e-07
2.29619e-07
2.29623e-07
2.2962e-07
2.29625e-07
2.29621e-07
2.29629e-07
2.29624e-07
2.29637e-07
2.29631e-07
2.29652e-07
2.29642e-07
2.29661e-07
2.29612e-07
2.29533e-07
2.29301e-07
2.28855e-07
2.28375e-07
2.2545e-07
2.25935e-07
2.26382e-07
2.26614e-07
2.26694e-07
2.26743e-07
2.26724e-07
2.26734e-07
2.26714e-07
2.26719e-07
2.26707e-07
2.26711e-07
2.26703e-07
2.26707e-07
2.26702e-07
2.26705e-07
2.26701e-07
2.26704e-07
2.26701e-07
2.26703e-07
2.26702e-07
2.26702e-07
2.26702e-07
2.26702e-07
2.26702e-07
2.26702e-07
2.26702e-07
2.26702e-07
2.26702e-07
2.26702e-07
2.26703e-07
2.26701e-07
2.26704e-07
2.26701e-07
2.26705e-07
2.26702e-07
2.26707e-07
2.26703e-07
2.26711e-07
2.26707e-07
2.26719e-07
2.26714e-07
2.26734e-07
2.26724e-07
2.26743e-07
2.26694e-07
2.26614e-07
2.26382e-07
2.25935e-07
2.2545e-07
2.22602e-07
2.2309e-07
2.23537e-07
2.23769e-07
2.23849e-07
2.23898e-07
2.2388e-07
2.23889e-07
2.23869e-07
2.23874e-07
2.23861e-07
2.23866e-07
2.23858e-07
2.23861e-07
2.23856e-07
2.23859e-07
2.23856e-07
2.23858e-07
2.23856e-07
2.23857e-07
2.23856e-07
2.23857e-07
2.23856e-07
2.23856e-07
2.23856e-07
2.23856e-07
2.23856e-07
2.23856e-07
2.23857e-07
2.23856e-07
2.23857e-07
2.23856e-07
2.23858e-07
2.23856e-07
2.23859e-07
2.23856e-07
2.23861e-07
2.23858e-07
2.23865e-07
2.23861e-07
2.23874e-07
2.23869e-07
2.23889e-07
2.2388e-07
2.23898e-07
2.23849e-07
2.23769e-07
2.23537e-07
2.2309e-07
2.22602e-07
2.19828e-07
2.20317e-07
2.20764e-07
2.20994e-07
2.21075e-07
2.21124e-07
2.21105e-07
2.21114e-07
2.21094e-07
2.21098e-07
2.21086e-07
2.2109e-07
2.21082e-07
2.21085e-07
2.21081e-07
2.21083e-07
2.2108e-07
2.21082e-07
2.2108e-07
2.21082e-07
2.2108e-07
2.21081e-07
2.2108e-07
2.21081e-07
2.21081e-07
2.21081e-07
2.21081e-07
2.2108e-07
2.21081e-07
2.2108e-07
2.21082e-07
2.2108e-07
2.21082e-07
2.2108e-07
2.21083e-07
2.21081e-07
2.21085e-07
2.21082e-07
2.2109e-07
2.21086e-07
2.21098e-07
2.21094e-07
2.21114e-07
2.21105e-07
2.21124e-07
2.21074e-07
2.20994e-07
2.20763e-07
2.20317e-07
2.19828e-07
2.17126e-07
2.17612e-07
2.18058e-07
2.18287e-07
2.18367e-07
2.18416e-07
2.18398e-07
2.18407e-07
2.18386e-07
2.18391e-07
2.18378e-07
2.18382e-07
2.18374e-07
2.18378e-07
2.18373e-07
2.18375e-07
2.18372e-07
2.18374e-07
2.18372e-07
2.18374e-07
2.18372e-07
2.18373e-07
2.18372e-07
2.18373e-07
2.18373e-07
2.18373e-07
2.18373e-07
2.18372e-07
2.18373e-07
2.18372e-07
2.18374e-07
2.18372e-07
2.18374e-07
2.18372e-07
2.18375e-07
2.18373e-07
2.18378e-07
2.18374e-07
2.18382e-07
2.18378e-07
2.18391e-07
2.18386e-07
2.18407e-07
2.18398e-07
2.18416e-07
2.18367e-07
2.18287e-07
2.18058e-07
2.17612e-07
2.17126e-07
2.14491e-07
2.14975e-07
2.15419e-07
2.15646e-07
2.15726e-07
2.15775e-07
2.15757e-07
2.15765e-07
2.15745e-07
2.15749e-07
2.15736e-07
2.1574e-07
2.15732e-07
2.15735e-07
2.1573e-07
2.15733e-07
2.1573e-07
2.15732e-07
2.1573e-07
2.15731e-07
2.1573e-07
2.15731e-07
2.1573e-07
2.1573e-07
2.1573e-07
2.1573e-07
2.1573e-07
2.1573e-07
2.15731e-07
2.1573e-07
2.15731e-07
2.1573e-07
2.15732e-07
2.1573e-07
2.15733e-07
2.1573e-07
2.15735e-07
2.15732e-07
2.1574e-07
2.15736e-07
2.15749e-07
2.15745e-07
2.15765e-07
2.15757e-07
2.15775e-07
2.15726e-07
2.15646e-07
2.15419e-07
2.14975e-07
2.14491e-07
2.11922e-07
2.12404e-07
2.12844e-07
2.13069e-07
2.13148e-07
2.13196e-07
2.13179e-07
2.13186e-07
2.13166e-07
2.1317e-07
2.13158e-07
2.13161e-07
2.13154e-07
2.13156e-07
2.13152e-07
2.13154e-07
2.13151e-07
2.13153e-07
2.13151e-07
2.13153e-07
2.13151e-07
2.13152e-07
2.13151e-07
2.13152e-07
2.13151e-07
2.13151e-07
2.13152e-07
2.13151e-07
2.13152e-07
2.13151e-07
2.13153e-07
2.13151e-07
2.13153e-07
2.13151e-07
2.13154e-07
2.13152e-07
2.13156e-07
2.13154e-07
2.13161e-07
2.13158e-07
2.1317e-07
2.13166e-07
2.13186e-07
2.13179e-07
2.13196e-07
2.13148e-07
2.13069e-07
2.12844e-07
2.12404e-07
2.11922e-07
2.09417e-07
2.09897e-07
2.10332e-07
2.10554e-07
2.10633e-07
2.1068e-07
2.10662e-07
2.1067e-07
2.1065e-07
2.10653e-07
2.10641e-07
2.10644e-07
2.10637e-07
2.10639e-07
2.10635e-07
2.10637e-07
2.10634e-07
2.10636e-07
2.10634e-07
2.10636e-07
2.10634e-07
2.10635e-07
2.10634e-07
2.10635e-07
2.10634e-07
2.10634e-07
2.10635e-07
2.10634e-07
2.10635e-07
2.10634e-07
2.10636e-07
2.10634e-07
2.10636e-07
2.10634e-07
2.10637e-07
2.10635e-07
2.10639e-07
2.10637e-07
2.10644e-07
2.10641e-07
2.10653e-07
2.1065e-07
2.1067e-07
2.10662e-07
2.1068e-07
2.10633e-07
2.10554e-07
2.10332e-07
2.09897e-07
2.09417e-07
2.06974e-07
2.07453e-07
2.07881e-07
2.08099e-07
2.08177e-07
2.08224e-07
2.08206e-07
2.08213e-07
2.08194e-07
2.08197e-07
2.08185e-07
2.08188e-07
2.0818e-07
2.08183e-07
2.08178e-07
2.0818e-07
2.08177e-07
2.08179e-07
2.08177e-07
2.08179e-07
2.08178e-07
2.08178e-07
2.08178e-07
2.08178e-07
2.08178e-07
2.08178e-07
2.08178e-07
2.08178e-07
2.08178e-07
2.08178e-07
2.08179e-07
2.08177e-07
2.08179e-07
2.08177e-07
2.0818e-07
2.08178e-07
2.08183e-07
2.0818e-07
2.08188e-07
2.08185e-07
2.08197e-07
2.08194e-07
2.08213e-07
2.08206e-07
2.08224e-07
2.08177e-07
2.08099e-07
2.07881e-07
2.07453e-07
2.06974e-07
2.04592e-07
2.05069e-07
2.05489e-07
2.05704e-07
2.05781e-07
2.05827e-07
2.05809e-07
2.05816e-07
2.05797e-07
2.05799e-07
2.05787e-07
2.0579e-07
2.05782e-07
2.05785e-07
2.0578e-07
2.05783e-07
2.0578e-07
2.05782e-07
2.0578e-07
2.05781e-07
2.0578e-07
2.05781e-07
2.0578e-07
2.0578e-07
2.0578e-07
2.0578e-07
2.0578e-07
2.0578e-07
2.05781e-07
2.0578e-07
2.05781e-07
2.0578e-07
2.05782e-07
2.0578e-07
2.05783e-07
2.0578e-07
2.05785e-07
2.05782e-07
2.0579e-07
2.05787e-07
2.05799e-07
2.05797e-07
2.05816e-07
2.05809e-07
2.05827e-07
2.05781e-07
2.05704e-07
2.05489e-07
2.05069e-07
2.04592e-07
2.02268e-07
2.02744e-07
2.03156e-07
2.03366e-07
2.03442e-07
2.03487e-07
2.0347e-07
2.03476e-07
2.03457e-07
2.03459e-07
2.03447e-07
2.0345e-07
2.03442e-07
2.03445e-07
2.0344e-07
2.03442e-07
2.03439e-07
2.03441e-07
2.03439e-07
2.03441e-07
2.0344e-07
2.0344e-07
2.0344e-07
2.0344e-07
2.0344e-07
2.0344e-07
2.0344e-07
2.0344e-07
2.0344e-07
2.0344e-07
2.03441e-07
2.03439e-07
2.03441e-07
2.03439e-07
2.03442e-07
2.0344e-07
2.03445e-07
2.03442e-07
2.0345e-07
2.03447e-07
2.03459e-07
2.03457e-07
2.03476e-07
2.0347e-07
2.03487e-07
2.03441e-07
2.03366e-07
2.03156e-07
2.02744e-07
2.02268e-07
2.00002e-07
2.00476e-07
2.0088e-07
2.01085e-07
2.01159e-07
2.01203e-07
2.01186e-07
2.01192e-07
2.01173e-07
2.01175e-07
2.01164e-07
2.01166e-07
2.01159e-07
2.01161e-07
2.01156e-07
2.01159e-07
2.01156e-07
2.01158e-07
2.01156e-07
2.01157e-07
2.01156e-07
2.01156e-07
2.01156e-07
2.01156e-07
2.01156e-07
2.01156e-07
2.01156e-07
2.01156e-07
2.01156e-07
2.01156e-07
2.01157e-07
2.01156e-07
2.01158e-07
2.01156e-07
2.01159e-07
2.01156e-07
2.01161e-07
2.01159e-07
2.01166e-07
2.01164e-07
2.01175e-07
2.01173e-07
2.01192e-07
2.01186e-07
2.01203e-07
2.01159e-07
2.01085e-07
2.0088e-07
2.00476e-07
2.00002e-07
1.97793e-07
1.98264e-07
1.98659e-07
1.9886e-07
1.98932e-07
1.98975e-07
1.98958e-07
1.98963e-07
1.98945e-07
1.98947e-07
1.98935e-07
1.98937e-07
1.9893e-07
1.98932e-07
1.98928e-07
1.9893e-07
1.98927e-07
1.98929e-07
1.98927e-07
1.98928e-07
1.98927e-07
1.98928e-07
1.98927e-07
1.98928e-07
1.98927e-07
1.98927e-07
1.98928e-07
1.98927e-07
1.98928e-07
1.98927e-07
1.98928e-07
1.98927e-07
1.98929e-07
1.98927e-07
1.9893e-07
1.98928e-07
1.98932e-07
1.9893e-07
1.98937e-07
1.98935e-07
1.98947e-07
1.98945e-07
1.98963e-07
1.98958e-07
1.98975e-07
1.98931e-07
1.9886e-07
1.98659e-07
1.98264e-07
1.97793e-07
1.95639e-07
1.96108e-07
1.96493e-07
1.96689e-07
1.96758e-07
1.96801e-07
1.96784e-07
1.96789e-07
1.96771e-07
1.96772e-07
1.96761e-07
1.96763e-07
1.96756e-07
1.96758e-07
1.96754e-07
1.96756e-07
1.96753e-07
1.96755e-07
1.96753e-07
1.96754e-07
1.96753e-07
1.96754e-07
1.96753e-07
1.96753e-07
1.96753e-07
1.96753e-07
1.96753e-07
1.96753e-07
1.96754e-07
1.96753e-07
1.96754e-07
1.96753e-07
1.96755e-07
1.96753e-07
1.96756e-07
1.96754e-07
1.96758e-07
1.96756e-07
1.96763e-07
1.96761e-07
1.96772e-07
1.96771e-07
1.96789e-07
1.96784e-07
1.96801e-07
1.96758e-07
1.96689e-07
1.96493e-07
1.96108e-07
1.95639e-07
1.93541e-07
1.94006e-07
1.94381e-07
1.94571e-07
1.94639e-07
1.9468e-07
1.94664e-07
1.94668e-07
1.9465e-07
1.94651e-07
1.9464e-07
1.94642e-07
1.94635e-07
1.94637e-07
1.94633e-07
1.94635e-07
1.94632e-07
1.94634e-07
1.94632e-07
1.94633e-07
1.94632e-07
1.94633e-07
1.94632e-07
1.94633e-07
1.94632e-07
1.94632e-07
1.94633e-07
1.94632e-07
1.94633e-07
1.94632e-07
1.94633e-07
1.94632e-07
1.94634e-07
1.94632e-07
1.94635e-07
1.94633e-07
1.94637e-07
1.94635e-07
1.94642e-07
1.9464e-07
1.94651e-07
1.9465e-07
1.94668e-07
1.94664e-07
1.9468e-07
1.94639e-07
1.94571e-07
1.94381e-07