/*--------------------------------*- C++ -*----------------------------------*\
| =========                 |                                                 |
| \\      /  F ield         | OpenFOAM: The Open Source CFD Toolbox           |
|  \\    /   O peration     | Version:  dev                                   |
|   \\  /    A nd           | Web:      www.OpenFOAM.org                      |
|    \\/     M anipulation  |                                                 |
\*---------------------------------------------------------------------------*/
FoamFile
{
    version     2.0;
    format      ascii;
    class       volScalarField;
    location    "0.09";
    object      C4H2;
}
// * * * * * * * * * * * * * * * * * * * * * * * * * * * * * * * * * * * * * //

dimensions      [0 0 0 0 0 0 0];

internalField   nonuniform List<scalar> 
250
(
0.000233473
0.000233554
0.000233182
0.000233533
0.000233942
0.000235395
0.000243956
0.000264971
0.000325152
0.000315328
0.000224438
0.000224502
0.000224155
0.000224489
0.000224887
0.000226272
0.00023428
0.000253477
0.000308863
0.000309723
0.000309966
0.000295545
0.000243304
0.00022805
0.000219369
0.000217183
0.000217071
0.000216134
0.000216859
0.000216202
0.000216298
0.000216348
0.000216025
0.000216343
0.000216729
0.000218044
0.000225496
0.000242952
0.000293736
0.000302035
0.000300504
0.000280686
0.000234065
0.000219884
0.00021182
0.000209789
0.000209689
0.000208806
0.000209483
0.000208849
0.000208965
0.000209004
0.000208705
0.000209009
0.000209381
0.000210626
0.000217531
0.000233326
0.000278357
0.000292847
0.000290483
0.000266916
0.000225567
0.00021244
0.000204995
0.000203107
0.000203015
0.000202188
0.000202819
0.000202213
0.000202341
0.000202374
0.000202098
0.000202388
0.000202746
0.00020392
0.000210296
0.000224523
0.000263709
0.000282707
0.000280197
0.000255581
0.00021772
0.00020562
0.000198787
0.000197031
0.000196946
0.000196173
0.00019676
0.000196185
0.000196319
0.000196349
0.000196095
0.000196373
0.000196716
0.000197819
0.000203693
0.000216451
0.000251568
0.00027209
0.000269788
0.000244918
0.000210424
0.000199313
0.000193082
0.000191445
0.000191366
0.000190643
0.000191191
0.000190647
0.000190782
0.000190813
0.00019058
0.000190848
0.000191175
0.000192205
0.00019761
0.000208994
0.000239911
0.000261287
0.000259339
0.00023485
0.000203571
0.00019339
0.00018776
0.000186224
0.00018615
0.000185473
0.000185987
0.000185472
0.000185606
0.000185642
0.000185427
0.000185687
0.000185998
0.000186952
0.000191804
0.000202023
0.000229443
0.000250525
0.000248889
0.000225271
0.000196829
0.000187751
0.000182576
0.000181051
0.000180985
0.000180292
0.000180821
0.000180284
0.000180425
0.000180475
0.000180262
0.000180528
0.000180839
0.000181771
0.000186347
0.000195401
0.000219655
0.000239922
0.000238438
0.000216059
0.00019006
0.000182142
0.000177527
0.000176109
0.000176049
0.000175382
0.000175896
0.00017537
0.00017551
0.000175572
0.000175371
0.000175634
0.000175933
0.000176796
0.000181002
0.000188985
0.000210403
0.000229524
0.000227969
0.000207089
0.000183646
0.000176628
0.000172412
0.000171104
0.000171053
0.000170402
0.000170909
0.000170385
0.000170526
0.000170603
0.000170409
0.000170673
0.000170959
0.000171755
0.000175629
0.000182634
0.000201532
0.000219323
0.000217379
0.000198228
0.000177121
0.000170984
0.000167101
0.00016591
0.000165868
0.000165225
0.000165735
0.000165205
0.000165348
0.000165441
0.000165252
0.000165516
0.000165792
0.000166523
0.000170096
0.000176214
0.000192886
0.000209266
0.000206748
0.000189351
0.000170377
0.000165072
0.000161499
0.000160412
0.000160381
0.000159741
0.000160259
0.000159716
0.000159862
0.000159973
0.000159786
0.000160051
0.000160317
0.000160985
0.000164285
0.000169606
0.000184316
0.000199279
0.000153965
0.000154094
0.000153907
0.000154173
0.000154428
0.000155038
0.00015809
0.000162694
0.000175682
0.00018927
)
;

boundaryField
{
    fuel
    {
        type            fixedValue;
        value           nonuniform 0();
    }
    wall
    {
        type            zeroGradient;
    }
    outlet
    {
        type            zeroGradient;
    }
    frontAndBack
    {
        type            empty;
    }
    procBoundary0to1
    {
        type            processor;
        value           nonuniform List<scalar> 
21
(
0.000195965
0.000180347
0.000163313
0.000158792
0.000155495
0.000154505
0.000154486
0.000153843
0.000154376
0.000153814
0.000153814
0.000147543
0.000147691
0.000147501
0.000147767
0.000148014
0.00014857
0.000151398
0.000155359
0.000166839
0.000179127
)
;
    }
    procBoundary0to2
    {
        type            processor;
        value           nonuniform List<scalar> 
12
(
0.000233452
0.000318481
0.00031001
0.000253361
0.000237019
0.000227738
0.000225386
0.00022526
0.000224268
0.000225043
0.000224372
0.000224372
)
;
    }
    procBoundary0to3
    {
        type            processor;
        value           nonuniform List<scalar> 10(0.000243483 0.000243584 0.000243189 0.000243556 0.000243973 0.000245493 0.000255562 0.000278874 0.000343942 0.000318133);
    }
}


// ************************************************************************* //
