/*--------------------------------*- C++ -*----------------------------------*\
| =========                 |                                                 |
| \\      /  F ield         | OpenFOAM: The Open Source CFD Toolbox           |
|  \\    /   O peration     | Version:  dev                                   |
|   \\  /    A nd           | Web:      www.OpenFOAM.org                      |
|    \\/     M anipulation  |                                                 |
\*---------------------------------------------------------------------------*/
FoamFile
{
    version     2.0;
    format      ascii;
    class       volScalarField;
    location    "0.09";
    object      H2C4O;
}
// * * * * * * * * * * * * * * * * * * * * * * * * * * * * * * * * * * * * * //

dimensions      [0 0 0 0 0 0 0];

internalField   nonuniform List<scalar> 
2014
(
2.78763e-06
2.80094e-06
2.81353e-06
2.81999e-06
2.8225e-06
2.82391e-06
2.82355e-06
2.82373e-06
2.82321e-06
2.82326e-06
2.82293e-06
2.82298e-06
2.82277e-06
2.82282e-06
2.82269e-06
2.82274e-06
2.82265e-06
2.8227e-06
2.82265e-06
2.82268e-06
2.82264e-06
2.82266e-06
2.82264e-06
2.82265e-06
2.82265e-06
2.82265e-06
2.82265e-06
2.82264e-06
2.82266e-06
2.82264e-06
2.82268e-06
2.82265e-06
2.8227e-06
2.82265e-06
2.82274e-06
2.82269e-06
2.82282e-06
2.82277e-06
2.82298e-06
2.82293e-06
2.82326e-06
2.82321e-06
2.82373e-06
2.82355e-06
2.82391e-06
2.82249e-06
2.81999e-06
2.81353e-06
2.80094e-06
2.78763e-06
2.7283e-06
2.74135e-06
2.75361e-06
2.75988e-06
2.76232e-06
2.76369e-06
2.76332e-06
2.76349e-06
2.76298e-06
2.76302e-06
2.76269e-06
2.76273e-06
2.76253e-06
2.76257e-06
2.76244e-06
2.76249e-06
2.76241e-06
2.76245e-06
2.7624e-06
2.76243e-06
2.76239e-06
2.76241e-06
2.76239e-06
2.7624e-06
2.7624e-06
2.7624e-06
2.7624e-06
2.76239e-06
2.76241e-06
2.7624e-06
2.76243e-06
2.7624e-06
2.76245e-06
2.76241e-06
2.76249e-06
2.76244e-06
2.76257e-06
2.76253e-06
2.76273e-06
2.76269e-06
2.76302e-06
2.76298e-06
2.76349e-06
2.76332e-06
2.76369e-06
2.76231e-06
2.75988e-06
2.75361e-06
2.74135e-06
2.7283e-06
2.67079e-06
2.6836e-06
2.6955e-06
2.70159e-06
2.70395e-06
2.70528e-06
2.70491e-06
2.70506e-06
2.70456e-06
2.70459e-06
2.70426e-06
2.7043e-06
2.70409e-06
2.70414e-06
2.70401e-06
2.70405e-06
2.70397e-06
2.70402e-06
2.70396e-06
2.70399e-06
2.70396e-06
2.70398e-06
2.70395e-06
2.70396e-06
2.70396e-06
2.70396e-06
2.70396e-06
2.70395e-06
2.70398e-06
2.70396e-06
2.70399e-06
2.70396e-06
2.70402e-06
2.70397e-06
2.70405e-06
2.70401e-06
2.70414e-06
2.70409e-06
2.7043e-06
2.70426e-06
2.70459e-06
2.70456e-06
2.70506e-06
2.70491e-06
2.70527e-06
2.70395e-06
2.70159e-06
2.6955e-06
2.6836e-06
2.67079e-06
2.61505e-06
2.62765e-06
2.63915e-06
2.64505e-06
2.64733e-06
2.64862e-06
2.64825e-06
2.64839e-06
2.64789e-06
2.6479e-06
2.64758e-06
2.64761e-06
2.64741e-06
2.64745e-06
2.64732e-06
2.64737e-06
2.64729e-06
2.64733e-06
2.64728e-06
2.64731e-06
2.64727e-06
2.64729e-06
2.64727e-06
2.64728e-06
2.64727e-06
2.64727e-06
2.64728e-06
2.64727e-06
2.64729e-06
2.64727e-06
2.64731e-06
2.64728e-06
2.64733e-06
2.64729e-06
2.64737e-06
2.64733e-06
2.64745e-06
2.64741e-06
2.64761e-06
2.64758e-06
2.6479e-06
2.64789e-06
2.64839e-06
2.64825e-06
2.64861e-06
2.64733e-06
2.64505e-06
2.63915e-06
2.62765e-06
2.61505e-06
2.561e-06
2.57338e-06
2.58453e-06
2.59021e-06
2.59241e-06
2.59365e-06
2.59328e-06
2.5934e-06
2.59291e-06
2.59292e-06
2.5926e-06
2.59262e-06
2.59242e-06
2.59246e-06
2.59234e-06
2.59238e-06
2.5923e-06
2.59234e-06
2.59229e-06
2.59231e-06
2.59228e-06
2.5923e-06
2.59228e-06
2.59229e-06
2.59228e-06
2.59228e-06
2.59229e-06
2.59228e-06
2.5923e-06
2.59228e-06
2.59231e-06
2.59229e-06
2.59234e-06
2.5923e-06
2.59238e-06
2.59234e-06
2.59246e-06
2.59243e-06
2.59262e-06
2.5926e-06
2.59292e-06
2.59291e-06
2.5934e-06
2.59328e-06
2.59365e-06
2.59241e-06
2.59021e-06
2.58453e-06
2.57338e-06
2.561e-06
2.5086e-06
2.52076e-06
2.53155e-06
2.53702e-06
2.53913e-06
2.54032e-06
2.53995e-06
2.54005e-06
2.53957e-06
2.53957e-06
2.53925e-06
2.53927e-06
2.53908e-06
2.53911e-06
2.53898e-06
2.53902e-06
2.53894e-06
2.53898e-06
2.53893e-06
2.53896e-06
2.53893e-06
2.53894e-06
2.53893e-06
2.53893e-06
2.53893e-06
2.53893e-06
2.53893e-06
2.53893e-06
2.53895e-06
2.53893e-06
2.53896e-06
2.53893e-06
2.53898e-06
2.53894e-06
2.53902e-06
2.53899e-06
2.53911e-06
2.53908e-06
2.53927e-06
2.53925e-06
2.53957e-06
2.53957e-06
2.54005e-06
2.53995e-06
2.54032e-06
2.53913e-06
2.53702e-06
2.53154e-06
2.52076e-06
2.5086e-06
2.4578e-06
2.46974e-06
2.48015e-06
2.48541e-06
2.48743e-06
2.48858e-06
2.48821e-06
2.48829e-06
2.48781e-06
2.4878e-06
2.48749e-06
2.48751e-06
2.48731e-06
2.48734e-06
2.48722e-06
2.48726e-06
2.48718e-06
2.48722e-06
2.48717e-06
2.4872e-06
2.48716e-06
2.48718e-06
2.48716e-06
2.48717e-06
2.48716e-06
2.48716e-06
2.48717e-06
2.48716e-06
2.48718e-06
2.48716e-06
2.4872e-06
2.48717e-06
2.48722e-06
2.48718e-06
2.48726e-06
2.48722e-06
2.48734e-06
2.48731e-06
2.48751e-06
2.48749e-06
2.4878e-06
2.48781e-06
2.48829e-06
2.48821e-06
2.48857e-06
2.48743e-06
2.48541e-06
2.48014e-06
2.46974e-06
2.4578e-06
2.40854e-06
2.42026e-06
2.43028e-06
2.43534e-06
2.43727e-06
2.43837e-06
2.438e-06
2.43807e-06
2.4376e-06
2.43757e-06
2.43727e-06
2.43728e-06
2.43709e-06
2.43711e-06
2.43699e-06
2.43703e-06
2.43695e-06
2.43699e-06
2.43694e-06
2.43697e-06
2.43693e-06
2.43695e-06
2.43693e-06
2.43694e-06
2.43693e-06
2.43693e-06
2.43694e-06
2.43693e-06
2.43695e-06
2.43693e-06
2.43697e-06
2.43694e-06
2.43699e-06
2.43695e-06
2.43703e-06
2.43699e-06
2.43711e-06
2.43709e-06
2.43728e-06
2.43727e-06
2.43757e-06
2.4376e-06
2.43807e-06
2.438e-06
2.43837e-06
2.43727e-06
2.43534e-06
2.43028e-06
2.42026e-06
2.40854e-06
2.36078e-06
2.37227e-06
2.38191e-06
2.38676e-06
2.3886e-06
2.38965e-06
2.38927e-06
2.38933e-06
2.38886e-06
2.38883e-06
2.38853e-06
2.38854e-06
2.38835e-06
2.38837e-06
2.38825e-06
2.38829e-06
2.38821e-06
2.38825e-06
2.3882e-06
2.38823e-06
2.38819e-06
2.38821e-06
2.38819e-06
2.3882e-06
2.38819e-06
2.38819e-06
2.3882e-06
2.38819e-06
2.38821e-06
2.38819e-06
2.38823e-06
2.3882e-06
2.38825e-06
2.38821e-06
2.38829e-06
2.38826e-06
2.38837e-06
2.38835e-06
2.38854e-06
2.38854e-06
2.38883e-06
2.38886e-06
2.38933e-06
2.38927e-06
2.38965e-06
2.3886e-06
2.38676e-06
2.3819e-06
2.37227e-06
2.36078e-06
2.31447e-06
2.32571e-06
2.33497e-06
2.33962e-06
2.34137e-06
2.34237e-06
2.34199e-06
2.34204e-06
2.34158e-06
2.34154e-06
2.34124e-06
2.34124e-06
2.34106e-06
2.34107e-06
2.34096e-06
2.34099e-06
2.34092e-06
2.34095e-06
2.3409e-06
2.34093e-06
2.3409e-06
2.34091e-06
2.34089e-06
2.3409e-06
2.3409e-06
2.3409e-06
2.3409e-06
2.34089e-06
2.34091e-06
2.3409e-06
2.34093e-06
2.3409e-06
2.34095e-06
2.34092e-06
2.34099e-06
2.34096e-06
2.34107e-06
2.34106e-06
2.34124e-06
2.34124e-06
2.34154e-06
2.34158e-06
2.34203e-06
2.34199e-06
2.34237e-06
2.34137e-06
2.33962e-06
2.33497e-06
2.32571e-06
2.31447e-06
2.26956e-06
2.28054e-06
2.28942e-06
2.29388e-06
2.29554e-06
2.29649e-06
2.29611e-06
2.29614e-06
2.29569e-06
2.29564e-06
2.29535e-06
2.29534e-06
2.29516e-06
2.29518e-06
2.29506e-06
2.29509e-06
2.29502e-06
2.29505e-06
2.29501e-06
2.29503e-06
2.295e-06
2.29502e-06
2.295e-06
2.29501e-06
2.295e-06
2.295e-06
2.29501e-06
2.295e-06
2.29502e-06
2.295e-06
2.29503e-06
2.29501e-06
2.29505e-06
2.29502e-06
2.29509e-06
2.29507e-06
2.29518e-06
2.29516e-06
2.29534e-06
2.29535e-06
2.29564e-06
2.29569e-06
2.29614e-06
2.29611e-06
2.29649e-06
2.29554e-06
2.29388e-06
2.28942e-06
2.28054e-06
2.26956e-06
2.22602e-06
2.23672e-06
2.24523e-06
2.2495e-06
2.25107e-06
2.25197e-06
2.25159e-06
2.2516e-06
2.25116e-06
2.2511e-06
2.25082e-06
2.2508e-06
2.25063e-06
2.25064e-06
2.25053e-06
2.25055e-06
2.25048e-06
2.25052e-06
2.25047e-06
2.25049e-06
2.25047e-06
2.25048e-06
2.25046e-06
2.25047e-06
2.25046e-06
2.25046e-06
2.25047e-06
2.25046e-06
2.25048e-06
2.25047e-06
2.25049e-06
2.25047e-06
2.25052e-06
2.25049e-06
2.25055e-06
2.25053e-06
2.25064e-06
2.25063e-06
2.2508e-06
2.25082e-06
2.2511e-06
2.25116e-06
2.2516e-06
2.25159e-06
2.25197e-06
2.25107e-06
2.2495e-06
2.24523e-06
2.23672e-06
2.22602e-06
2.18381e-06
2.19419e-06
2.20235e-06
2.20643e-06
2.20792e-06
2.20876e-06
2.20838e-06
2.20838e-06
2.20794e-06
2.20788e-06
2.2076e-06
2.20758e-06
2.20741e-06
2.20742e-06
2.20731e-06
2.20733e-06
2.20727e-06
2.2073e-06
2.20725e-06
2.20727e-06
2.20725e-06
2.20726e-06
2.20724e-06
2.20725e-06
2.20725e-06
2.20725e-06
2.20725e-06
2.20724e-06
2.20726e-06
2.20725e-06
2.20727e-06
2.20725e-06
2.2073e-06
2.20727e-06
2.20734e-06
2.20731e-06
2.20742e-06
2.20741e-06
2.20758e-06
2.2076e-06
2.20788e-06
2.20794e-06
2.20838e-06
2.20838e-06
2.20876e-06
2.20792e-06
2.20643e-06
2.20235e-06
2.19419e-06
2.1838e-06
2.14287e-06
2.15292e-06
2.16074e-06
2.16464e-06
2.16604e-06
2.16684e-06
2.16645e-06
2.16644e-06
2.16601e-06
2.16594e-06
2.16566e-06
2.16564e-06
2.16547e-06
2.16548e-06
2.16537e-06
2.1654e-06
2.16533e-06
2.16536e-06
2.16532e-06
2.16534e-06
2.16531e-06
2.16532e-06
2.16531e-06
2.16531e-06
2.16531e-06
2.16531e-06
2.16531e-06
2.16531e-06
2.16532e-06
2.16531e-06
2.16534e-06
2.16532e-06
2.16536e-06
2.16533e-06
2.1654e-06
2.16537e-06
2.16548e-06
2.16547e-06
2.16564e-06
2.16566e-06
2.16594e-06
2.16601e-06
2.16644e-06
2.16645e-06
2.16683e-06
2.16604e-06
2.16464e-06
2.16074e-06
2.15292e-06
2.14287e-06
2.10318e-06
2.11287e-06
2.12037e-06
2.1241e-06
2.1254e-06
2.12615e-06
2.12576e-06
2.12574e-06
2.12531e-06
2.12524e-06
2.12497e-06
2.12494e-06
2.12478e-06
2.12478e-06
2.12468e-06
2.1247e-06
2.12463e-06
2.12466e-06
2.12462e-06
2.12464e-06
2.12461e-06
2.12463e-06
2.12461e-06
2.12462e-06
2.12461e-06
2.12461e-06
2.12462e-06
2.12461e-06
2.12463e-06
2.12461e-06
2.12464e-06
2.12462e-06
2.12466e-06
2.12463e-06
2.1247e-06
2.12468e-06
2.12478e-06
2.12478e-06
2.12494e-06
2.12497e-06
2.12524e-06
2.12531e-06
2.12574e-06
2.12576e-06
2.12615e-06
2.1254e-06
2.1241e-06
2.12037e-06
2.11287e-06
2.10318e-06
2.06468e-06
2.07401e-06
2.08119e-06
2.08475e-06
2.08597e-06
2.08667e-06
2.08628e-06
2.08624e-06
2.08583e-06
2.08575e-06
2.08548e-06
2.08545e-06
2.08529e-06
2.08529e-06
2.08519e-06
2.08521e-06
2.08515e-06
2.08517e-06
2.08513e-06
2.08515e-06
2.08513e-06
2.08514e-06
2.08512e-06
2.08513e-06
2.08513e-06
2.08513e-06
2.08513e-06
2.08512e-06
2.08514e-06
2.08513e-06
2.08515e-06
2.08513e-06
2.08517e-06
2.08515e-06
2.08521e-06
2.08519e-06
2.08529e-06
2.08529e-06
2.08545e-06
2.08548e-06
2.08575e-06
2.08583e-06
2.08624e-06
2.08628e-06
2.08667e-06
2.08597e-06
2.08475e-06
2.08119e-06
2.07401e-06
2.06468e-06
2.02735e-06
2.03631e-06
2.04318e-06
2.04658e-06
2.04771e-06
2.04836e-06
2.04797e-06
2.04792e-06
2.04751e-06
2.04743e-06
2.04717e-06
2.04714e-06
2.04698e-06
2.04698e-06
2.04688e-06
2.0469e-06
2.04683e-06
2.04686e-06
2.04682e-06
2.04684e-06
2.04681e-06
2.04682e-06
2.04681e-06
2.04682e-06
2.04681e-06
2.04681e-06
2.04682e-06
2.04681e-06
2.04682e-06
2.04681e-06
2.04684e-06
2.04682e-06
2.04686e-06
2.04683e-06
2.0469e-06
2.04688e-06
2.04698e-06
2.04698e-06
2.04714e-06
2.04717e-06
2.04743e-06
2.04751e-06
2.04792e-06
2.04797e-06
2.04836e-06
2.04771e-06
2.04658e-06
2.04318e-06
2.03631e-06
2.02735e-06
1.99115e-06
1.99973e-06
2.0063e-06
2.00954e-06
2.01058e-06
2.01119e-06
2.0108e-06
2.01074e-06
2.01034e-06
2.01025e-06
2.00999e-06
2.00996e-06
2.0098e-06
2.0098e-06
2.0097e-06
2.00972e-06
2.00966e-06
2.00968e-06
2.00965e-06
2.00966e-06
2.00964e-06
2.00965e-06
2.00964e-06
2.00964e-06
2.00964e-06
2.00964e-06
2.00964e-06
2.00964e-06
2.00965e-06
2.00964e-06
2.00966e-06
2.00965e-06
2.00968e-06
2.00966e-06
2.00972e-06
2.0097e-06
2.0098e-06
2.0098e-06
2.00996e-06
2.00999e-06
2.01025e-06
2.01034e-06
2.01074e-06
2.0108e-06
2.01119e-06
2.01058e-06
2.00954e-06
2.00629e-06
1.99973e-06
1.99115e-06
1.95603e-06
1.96424e-06
1.97051e-06
1.9736e-06
1.97456e-06
1.97512e-06
1.97473e-06
1.97466e-06
1.97427e-06
1.97418e-06
1.97393e-06
1.97389e-06
1.97373e-06
1.97373e-06
1.97364e-06
1.97365e-06
1.9736e-06
1.97362e-06
1.97358e-06
1.9736e-06
1.97357e-06
1.97358e-06
1.97357e-06
1.97358e-06
1.97357e-06
1.97357e-06
1.97358e-06
1.97357e-06
1.97358e-06
1.97357e-06
1.9736e-06
1.97358e-06
1.97362e-06
1.9736e-06
1.97365e-06
1.97364e-06
1.97373e-06
1.97373e-06
1.97389e-06
1.97393e-06
1.97418e-06
1.97427e-06
1.97466e-06
1.97473e-06
1.97512e-06
1.97456e-06
1.9736e-06
1.97051e-06
1.96424e-06
1.95603e-06
1.92197e-06
1.9298e-06
1.93581e-06
1.93874e-06
1.93962e-06
1.94013e-06
1.93974e-06
1.93966e-06
1.93927e-06
1.93918e-06
1.93893e-06
1.93889e-06
1.93874e-06
1.93874e-06
1.93865e-06
1.93866e-06
1.93861e-06
1.93863e-06
1.93859e-06
1.93861e-06
1.93858e-06
1.9386e-06
1.93858e-06
1.93859e-06
1.93858e-06
1.93858e-06
1.93859e-06
1.93858e-06
1.9386e-06
1.93859e-06
1.93861e-06
1.93859e-06
1.93863e-06
1.93861e-06
1.93866e-06
1.93865e-06
1.93874e-06
1.93874e-06
1.93889e-06
1.93893e-06
1.93918e-06
1.93927e-06
1.93966e-06
1.93974e-06
1.94013e-06
1.93962e-06
1.93873e-06
1.93581e-06
1.9298e-06
1.92196e-06
1.88892e-06
1.89639e-06
1.90214e-06
1.90491e-06
1.90572e-06
1.90618e-06
1.90579e-06
1.9057e-06
1.90533e-06
1.90523e-06
1.90499e-06
1.90495e-06
1.9048e-06
1.90479e-06
1.90471e-06
1.90472e-06
1.90466e-06
1.90468e-06
1.90465e-06
1.90466e-06
1.90464e-06
1.90465e-06
1.90464e-06
1.90465e-06
1.90464e-06
1.90464e-06
1.90465e-06
1.90464e-06
1.90465e-06
1.90464e-06
1.90466e-06
1.90465e-06
1.90468e-06
1.90466e-06
1.90472e-06
1.90471e-06
1.90479e-06
1.9048e-06
1.90495e-06
1.90499e-06
1.90523e-06
1.90532e-06
1.9057e-06
1.90579e-06
1.90618e-06
1.90572e-06
1.90491e-06
1.90213e-06
1.89639e-06
1.88892e-06
1.85686e-06
1.864e-06
1.86946e-06
1.87209e-06
1.87283e-06
1.87324e-06
1.87286e-06
1.87276e-06
1.87239e-06
1.87229e-06
1.87206e-06
1.87201e-06
1.87187e-06
1.87186e-06
1.87178e-06
1.87179e-06
1.87174e-06
1.87176e-06
1.87172e-06
1.87174e-06
1.87172e-06
1.87173e-06
1.87171e-06
1.87172e-06
1.87171e-06
1.87171e-06
1.87172e-06
1.87171e-06
1.87173e-06
1.87172e-06
1.87174e-06
1.87172e-06
1.87176e-06
1.87174e-06
1.87179e-06
1.87178e-06
1.87186e-06
1.87187e-06
1.87201e-06
1.87206e-06
1.87229e-06
1.87239e-06
1.87276e-06
1.87286e-06
1.87324e-06
1.87283e-06
1.87209e-06
1.86946e-06
1.864e-06
1.85686e-06
1.82577e-06
1.83257e-06
1.83776e-06
1.84025e-06
1.84092e-06
1.84129e-06
1.84091e-06
1.8408e-06
1.84044e-06
1.84034e-06
1.84011e-06
1.84007e-06
1.83993e-06
1.83992e-06
1.83984e-06
1.83985e-06
1.8398e-06
1.83981e-06
1.83978e-06
1.8398e-06
1.83978e-06
1.83979e-06
1.83977e-06
1.83978e-06
1.83977e-06
1.83977e-06
1.83978e-06
1.83977e-06
1.83979e-06
1.83978e-06
1.8398e-06
1.83978e-06
1.83981e-06
1.8398e-06
1.83985e-06
1.83984e-06
1.83992e-06
1.83993e-06
1.84007e-06
1.84011e-06
1.84034e-06
1.84044e-06
1.8408e-06
1.8409e-06
1.84129e-06
1.84092e-06
1.84025e-06
1.83776e-06
1.83257e-06
1.82577e-06
1.79561e-06
1.8021e-06
1.807e-06
1.80937e-06
1.80997e-06
1.81029e-06
1.80991e-06
1.8098e-06
1.80945e-06
1.80935e-06
1.80912e-06
1.80908e-06
1.80894e-06
1.80893e-06
1.80885e-06
1.80886e-06
1.80881e-06
1.80883e-06
1.8088e-06
1.80881e-06
1.80879e-06
1.8088e-06
1.80879e-06
1.8088e-06
1.80879e-06
1.80879e-06
1.8088e-06
1.80879e-06
1.8088e-06
1.80879e-06
1.80881e-06
1.8088e-06
1.80883e-06
1.80881e-06
1.80886e-06
1.80885e-06
1.80893e-06
1.80894e-06
1.80908e-06
1.80912e-06
1.80935e-06
1.80945e-06
1.8098e-06
1.80991e-06
1.81029e-06
1.80997e-06
1.80937e-06
1.807e-06
1.8021e-06
1.7956e-06
1.76634e-06
1.77253e-06
1.77716e-06
1.7794e-06
1.77994e-06
1.78022e-06
1.77984e-06
1.77972e-06
1.77938e-06
1.77928e-06
1.77906e-06
1.77902e-06
1.77889e-06
1.77888e-06
1.7788e-06
1.77881e-06
1.77876e-06
1.77877e-06
1.77874e-06
1.77876e-06
1.77874e-06
1.77875e-06
1.77874e-06
1.77874e-06
1.77874e-06
1.77874e-06
1.77874e-06
1.77874e-06
1.77875e-06
1.77874e-06
1.77876e-06
1.77874e-06
1.77877e-06
1.77876e-06
1.77881e-06
1.7788e-06
1.77888e-06
1.77889e-06
1.77902e-06
1.77906e-06
1.77928e-06
1.77938e-06
1.77972e-06
1.77984e-06
1.78022e-06
1.77994e-06
1.7794e-06
1.77716e-06
1.77253e-06
1.76634e-06
1.73893e-06
1.74486e-06
1.74921e-06
1.75135e-06
1.75184e-06
1.75207e-06
1.75169e-06
1.75157e-06
1.75124e-06
1.75113e-06
1.75092e-06
1.75087e-06
1.75075e-06
1.75074e-06
1.75066e-06
1.75067e-06
1.75062e-06
1.75064e-06
1.75061e-06
1.75062e-06
1.7506e-06
1.75061e-06
1.7506e-06
1.75061e-06
1.7506e-06
1.7506e-06
1.75061e-06
1.7506e-06
1.75061e-06
1.7506e-06
1.75062e-06
1.75061e-06
1.75064e-06
1.75062e-06
1.75067e-06
1.75066e-06
1.75074e-06
1.75075e-06
1.75087e-06
1.75092e-06
1.75113e-06
1.75124e-06
1.75157e-06
1.75169e-06
1.75206e-06
1.75184e-06
1.75135e-06
1.74921e-06
1.74486e-06
1.73892e-06
1.71198e-06
1.7177e-06
1.72168e-06
1.72369e-06
1.72405e-06
1.72419e-06
1.72378e-06
1.72363e-06
1.7233e-06
1.72318e-06
1.72297e-06
1.72291e-06
1.72279e-06
1.72277e-06
1.72269e-06
1.7227e-06
1.72265e-06
1.72267e-06
1.72264e-06
1.72265e-06
1.72263e-06
1.72264e-06
1.72263e-06
1.72264e-06
1.72263e-06
1.72263e-06
1.72264e-06
1.72263e-06
1.72264e-06
1.72263e-06
1.72265e-06
1.72264e-06
1.72267e-06
1.72266e-06
1.7227e-06
1.7227e-06
1.72277e-06
1.72279e-06
1.72291e-06
1.72297e-06
1.72318e-06
1.72329e-06
1.72363e-06
1.72378e-06
1.72419e-06
1.72405e-06
1.72369e-06
1.72168e-06
1.7177e-06
1.71198e-06
1.68537e-06
1.69083e-06
1.69453e-06
1.69644e-06
1.69675e-06
1.69683e-06
1.69643e-06
1.69628e-06
1.69595e-06
1.69583e-06
1.69563e-06
1.69557e-06
1.69545e-06
1.69544e-06
1.69536e-06
1.69537e-06
1.69532e-06
1.69534e-06
1.69531e-06
1.69532e-06
1.6953e-06
1.69531e-06
1.6953e-06
1.6953e-06
1.6953e-06
1.6953e-06
1.6953e-06
1.6953e-06
1.69531e-06
1.6953e-06
1.69532e-06
1.69531e-06
1.69534e-06
1.69532e-06
1.69537e-06
1.69536e-06
1.69544e-06
1.69545e-06
1.69557e-06
1.69563e-06
1.69583e-06
1.69595e-06
1.69628e-06
1.69643e-06
1.69683e-06
1.69675e-06
1.69644e-06
1.69453e-06
1.69083e-06
1.68537e-06
1.65957e-06
1.66477e-06
1.6682e-06
1.67001e-06
1.67028e-06
1.6703e-06
1.6699e-06
1.66975e-06
1.66943e-06
1.66932e-06
1.66912e-06
1.66906e-06
1.66894e-06
1.66893e-06
1.66886e-06
1.66886e-06
1.66882e-06
1.66883e-06
1.6688e-06
1.66882e-06
1.6688e-06
1.66881e-06
1.6688e-06
1.6688e-06
1.6688e-06
1.6688e-06
1.6688e-06
1.6688e-06
1.66881e-06
1.6688e-06
1.66882e-06
1.6688e-06
1.66883e-06
1.66882e-06
1.66886e-06
1.66886e-06
1.66893e-06
1.66894e-06
1.66906e-06
1.66912e-06
1.66932e-06
1.66943e-06
1.66975e-06
1.6699e-06
1.6703e-06
1.67028e-06
1.67001e-06
1.6682e-06
1.66477e-06
1.65957e-06
1.63455e-06
1.63949e-06
1.64268e-06
1.64439e-06
1.64461e-06
1.64458e-06
1.64418e-06
1.64402e-06
1.64372e-06
1.6436e-06
1.64341e-06
1.64335e-06
1.64324e-06
1.64322e-06
1.64316e-06
1.64316e-06
1.64312e-06
1.64313e-06
1.6431e-06
1.64312e-06
1.6431e-06
1.64311e-06
1.6431e-06
1.6431e-06
1.6431e-06
1.6431e-06
1.6431e-06
1.6431e-06
1.64311e-06
1.6431e-06
1.64312e-06
1.6431e-06
1.64313e-06
1.64312e-06
1.64316e-06
1.64316e-06
1.64322e-06
1.64324e-06
1.64335e-06
1.64341e-06
1.6436e-06
1.64372e-06
1.64402e-06
1.64418e-06
1.64458e-06
1.64461e-06
1.64439e-06
1.64268e-06
1.63949e-06
1.63455e-06
1.61028e-06
1.61497e-06
1.61792e-06
1.61954e-06
1.61972e-06
1.61962e-06
1.61923e-06
1.61907e-06
1.61878e-06
1.61866e-06
1.61848e-06
1.61842e-06
1.61831e-06
1.6183e-06
1.61823e-06
1.61823e-06
1.61819e-06
1.61821e-06
1.61818e-06
1.61819e-06
1.61818e-06
1.61818e-06
1.61817e-06
1.61818e-06
1.61817e-06
1.61817e-06
1.61818e-06
1.61817e-06
1.61818e-06
1.61818e-06
1.61819e-06
1.61818e-06
1.61821e-06
1.61819e-06
1.61823e-06
1.61823e-06
1.6183e-06
1.61831e-06
1.61842e-06
1.61848e-06
1.61866e-06
1.61878e-06
1.61907e-06
1.61923e-06
1.61962e-06
1.61972e-06
1.61954e-06
1.61792e-06
1.61497e-06
1.61028e-06
1.58753e-06
1.59199e-06
1.59472e-06
1.59625e-06
1.5964e-06
1.59623e-06
1.59585e-06
1.59569e-06
1.5954e-06
1.59529e-06
1.59511e-06
1.59506e-06
1.59495e-06
1.59493e-06
1.59487e-06
1.59487e-06
1.59483e-06
1.59485e-06
1.59482e-06
1.59483e-06
1.59482e-06
1.59482e-06
1.59481e-06
1.59482e-06
1.59482e-06
1.59482e-06
1.59482e-06
1.59482e-06
1.59482e-06
1.59482e-06
1.59483e-06
1.59482e-06
1.59485e-06
1.59483e-06
1.59487e-06
1.59487e-06
1.59493e-06
1.59495e-06
1.59506e-06
1.59511e-06
1.59529e-06
1.5954e-06
1.59569e-06
1.59585e-06
1.59623e-06
1.5964e-06
1.59625e-06
1.59472e-06
1.59199e-06
1.58753e-06
1.5655e-06
1.56974e-06
1.57228e-06
1.57372e-06
1.57383e-06
1.57359e-06
1.57321e-06
1.57303e-06
1.57273e-06
1.5726e-06
1.57241e-06
1.57235e-06
1.57223e-06
1.57222e-06
1.57215e-06
1.57215e-06
1.57211e-06
1.57212e-06
1.5721e-06
1.57211e-06
1.57209e-06
1.5721e-06
1.57209e-06
1.57209e-06
1.57209e-06
1.57209e-06
1.57209e-06
1.57209e-06
1.5721e-06
1.57209e-06
1.57211e-06
1.5721e-06
1.57212e-06
1.57211e-06
1.57215e-06
1.57215e-06
1.57222e-06
1.57223e-06
1.57235e-06
1.57241e-06
1.5726e-06
1.57273e-06
1.57303e-06
1.57321e-06
1.57359e-06
1.57383e-06
1.57372e-06
1.57228e-06
1.56974e-06
1.5655e-06
1.54354e-06
1.54757e-06
1.5499e-06
1.55124e-06
1.55131e-06
1.55096e-06
1.55058e-06
1.55039e-06
1.55008e-06
1.54995e-06
1.54976e-06
1.5497e-06
1.54959e-06
1.54957e-06
1.5495e-06
1.5495e-06
1.54946e-06
1.54947e-06
1.54945e-06
1.54946e-06
1.54944e-06
1.54945e-06
1.54944e-06
1.54945e-06
1.54944e-06
1.54944e-06
1.54945e-06
1.54944e-06
1.54945e-06
1.54944e-06
1.54946e-06
1.54945e-06
1.54947e-06
1.54946e-06
1.5495e-06
1.5495e-06
1.54957e-06
1.54959e-06
1.5497e-06
1.54976e-06
1.54995e-06
1.55008e-06
1.55039e-06
1.55058e-06
1.55096e-06
1.55131e-06
1.55123e-06
1.5499e-06
1.54757e-06
1.54354e-06
1.52216e-06
1.52595e-06
1.5281e-06
1.52935e-06
1.52941e-06
1.52969e-06
1.52932e-06
1.52913e-06
1.52883e-06
1.5287e-06
1.52852e-06
1.52846e-06
1.52835e-06
1.52833e-06
1.52826e-06
1.52827e-06
1.52823e-06
1.52824e-06
1.52821e-06
1.52822e-06
1.52821e-06
1.52821e-06
1.5282e-06
1.52821e-06
1.52821e-06
1.52821e-06
1.52821e-06
1.5282e-06
1.52821e-06
1.52821e-06
1.52822e-06
1.52821e-06
1.52824e-06
1.52823e-06
1.52827e-06
1.52826e-06
1.52833e-06
1.52835e-06
1.52846e-06
1.52852e-06
1.5287e-06
1.52883e-06
1.52913e-06
1.52932e-06
1.52969e-06
1.5294e-06
1.52935e-06
1.5281e-06
1.52595e-06
1.52215e-06
1.50209e-06
1.50568e-06
1.50766e-06
1.50882e-06
1.50886e-06
1.5091e-06
1.50874e-06
1.50855e-06
1.50826e-06
1.50813e-06
1.50795e-06
1.50789e-06
1.50778e-06
1.50776e-06
1.5077e-06
1.5077e-06
1.50767e-06
1.50768e-06
1.50765e-06
1.50766e-06
1.50765e-06
1.50765e-06
1.50765e-06
1.50765e-06
1.50765e-06
1.50765e-06
1.50765e-06
1.50765e-06
1.50765e-06
1.50765e-06
1.50766e-06
1.50765e-06
1.50768e-06
1.50767e-06
1.5077e-06
1.5077e-06
1.50777e-06
1.50779e-06
1.50789e-06
1.50795e-06
1.50813e-06
1.50826e-06
1.50855e-06
1.50874e-06
1.5091e-06
1.50886e-06
1.50882e-06
1.50765e-06
1.50568e-06
1.50209e-06
1.48254e-06
1.48599e-06
1.48775e-06
1.48882e-06
1.48878e-06
1.48893e-06
1.48855e-06
1.48834e-06
1.48805e-06
1.48791e-06
1.48773e-06
1.48766e-06
1.48756e-06
1.48753e-06
1.48747e-06
1.48747e-06
1.48743e-06
1.48744e-06
1.48742e-06
1.48743e-06
1.48741e-06
1.48742e-06
1.48741e-06
1.48741e-06
1.48741e-06
1.48741e-06
1.48741e-06
1.48741e-06
1.48742e-06
1.48741e-06
1.48743e-06
1.48742e-06
1.48744e-06
1.48743e-06
1.48747e-06
1.48747e-06
1.48753e-06
1.48756e-06
1.48766e-06
1.48773e-06
1.48791e-06
1.48805e-06
1.48834e-06
1.48855e-06
1.48893e-06
1.48878e-06
1.48881e-06
1.48775e-06
1.48599e-06
1.48254e-06
1.4637e-06
1.46697e-06
1.46857e-06
1.46956e-06
1.4695e-06
1.46961e-06
1.46924e-06
1.46903e-06
1.46874e-06
1.4686e-06
1.46843e-06
1.46836e-06
1.46826e-06
1.46824e-06
1.46818e-06
1.46817e-06
1.46814e-06
1.46815e-06
1.46812e-06
1.46813e-06
1.46812e-06
1.46812e-06
1.46812e-06
1.46812e-06
1.46812e-06
1.46812e-06
1.46812e-06
1.46812e-06
1.46812e-06
1.46812e-06
1.46813e-06
1.46812e-06
1.46815e-06
1.46814e-06
1.46818e-06
1.46818e-06
1.46824e-06
1.46826e-06
1.46836e-06
1.46843e-06
1.4686e-06
1.46874e-06
1.46903e-06
1.46924e-06
1.46961e-06
1.4695e-06
1.46956e-06
1.46857e-06
1.46697e-06
1.4637e-06
1.44546e-06
1.44855e-06
1.44998e-06
1.45091e-06
1.45083e-06
1.4509e-06
1.45054e-06
1.45032e-06
1.45004e-06
1.4499e-06
1.44973e-06
1.44967e-06
1.44957e-06
1.44955e-06
1.44949e-06
1.44949e-06
1.44945e-06
1.44946e-06
1.44944e-06
1.44945e-06
1.44943e-06
1.44944e-06
1.44943e-06
1.44943e-06
1.44943e-06
1.44943e-06
1.44943e-06
1.44943e-06
1.44944e-06
1.44943e-06
1.44945e-06
1.44944e-06
1.44946e-06
1.44945e-06
1.44949e-06
1.44949e-06
1.44955e-06
1.44957e-06
1.44967e-06
1.44973e-06
1.4499e-06
1.45004e-06
1.45032e-06
1.45054e-06
1.4509e-06
1.45083e-06
1.45091e-06
1.44998e-06
1.44855e-06
1.44546e-06
1.43134e-06
1.43135e-06
1.43133e-06
1.43134e-06
1.43133e-06
1.43133e-06
1.43133e-06
1.43133e-06
1.43133e-06
1.43133e-06
1.43134e-06
1.43133e-06
1.43135e-06
1.43134e-06
1.43136e-06
1.43135e-06
1.43139e-06
1.43139e-06
1.43144e-06
1.43147e-06
1.43156e-06
1.43163e-06
1.43179e-06
1.43193e-06
1.4322e-06
1.43242e-06
1.43278e-06
1.43274e-06
1.43284e-06
1.43198e-06
1.4307e-06
1.42778e-06
1.4138e-06
1.4138e-06
1.41381e-06
1.4138e-06
1.41382e-06
1.41382e-06
1.41385e-06
1.41385e-06
1.41391e-06
1.41393e-06
1.41402e-06
1.41409e-06
1.41425e-06
1.41438e-06
1.41465e-06
1.41486e-06
1.41522e-06
1.41521e-06
1.41533e-06
1.41453e-06
1.4134e-06
1.41065e-06
1.39724e-06
1.39738e-06
1.39763e-06
1.39785e-06
1.3982e-06
1.39822e-06
1.39836e-06
1.39763e-06
1.39663e-06
1.39405e-06
)
;

boundaryField
{
    fuel
    {
        type            fixedValue;
        value           nonuniform 0();
    }
    wall
    {
        type            zeroGradient;
    }
    outlet
    {
        type            zeroGradient;
    }
    frontAndBack
    {
        type            empty;
    }
    procBoundary0to1
    {
        type            processor;
        value           nonuniform List<scalar> 
50
(
2.84885e-06
2.86244e-06
2.87534e-06
2.88199e-06
2.88456e-06
2.88601e-06
2.88565e-06
2.88585e-06
2.88532e-06
2.88538e-06
2.88505e-06
2.88511e-06
2.88489e-06
2.88495e-06
2.88482e-06
2.88487e-06
2.88478e-06
2.88483e-06
2.88478e-06
2.88481e-06
2.88477e-06
2.88479e-06
2.88477e-06
2.88478e-06
2.88477e-06
2.88477e-06
2.88478e-06
2.88477e-06
2.88479e-06
2.88477e-06
2.88481e-06
2.88478e-06
2.88483e-06
2.88478e-06
2.88487e-06
2.88482e-06
2.88495e-06
2.8849e-06
2.88511e-06
2.88505e-06
2.88538e-06
2.88532e-06
2.88585e-06
2.88565e-06
2.88601e-06
2.88456e-06
2.88199e-06
2.87534e-06
2.86244e-06
2.84885e-06
)
;
    }
    procBoundary0to2
    {
        type            processor;
        value           nonuniform List<scalar> 
53
(
1.42778e-06
1.4307e-06
1.43198e-06
1.43284e-06
1.43274e-06
1.43278e-06
1.43242e-06
1.4322e-06
1.43193e-06
1.43179e-06
1.43163e-06
1.43156e-06
1.43147e-06
1.43144e-06
1.43139e-06
1.43139e-06
1.43135e-06
1.43136e-06
1.43136e-06
1.4138e-06
1.41381e-06
1.4138e-06
1.4138e-06
1.4138e-06
1.4138e-06
1.4138e-06
1.4138e-06
1.4138e-06
1.4138e-06
1.4138e-06
1.39681e-06
1.3968e-06
1.39682e-06
1.39681e-06
1.39683e-06
1.39682e-06
1.39685e-06
1.39686e-06
1.39691e-06
1.39693e-06
1.39702e-06
1.39709e-06
1.39709e-06
1.38075e-06
1.38089e-06
1.38114e-06
1.38136e-06
1.3817e-06
1.38175e-06
1.38191e-06
1.38124e-06
1.38037e-06
1.37794e-06
)
;
    }
}


// ************************************************************************* //
