/*--------------------------------*- C++ -*----------------------------------*\
| =========                 |                                                 |
| \\      /  F ield         | OpenFOAM: The Open Source CFD Toolbox           |
|  \\    /   O peration     | Version:  dev                                   |
|   \\  /    A nd           | Web:      www.OpenFOAM.org                      |
|    \\/     M anipulation  |                                                 |
\*---------------------------------------------------------------------------*/
FoamFile
{
    version     2.0;
    format      ascii;
    class       volScalarField;
    location    "0.09";
    object      H2O;
}
// * * * * * * * * * * * * * * * * * * * * * * * * * * * * * * * * * * * * * //

dimensions      [0 0 0 0 0 0 0];

internalField   nonuniform List<scalar> 
2014
(
0.0629748
0.062997
0.0630179
0.0630286
0.0630327
0.0630351
0.0630345
0.0630348
0.0630339
0.063034
0.0630334
0.0630335
0.0630332
0.0630333
0.063033
0.0630331
0.063033
0.0630331
0.063033
0.063033
0.063033
0.063033
0.063033
0.063033
0.063033
0.063033
0.063033
0.063033
0.063033
0.063033
0.063033
0.063033
0.0630331
0.063033
0.0630331
0.063033
0.0630333
0.0630332
0.0630335
0.0630334
0.063034
0.0630339
0.0630348
0.0630345
0.0630351
0.0630327
0.0630286
0.0630179
0.062997
0.0629748
0.0628736
0.0628956
0.0629163
0.0629268
0.0629309
0.0629332
0.0629326
0.0629328
0.062932
0.0629321
0.0629315
0.0629316
0.0629312
0.0629313
0.0629311
0.0629312
0.062931
0.0629311
0.062931
0.062931
0.062931
0.062931
0.062931
0.062931
0.062931
0.062931
0.062931
0.062931
0.062931
0.062931
0.062931
0.062931
0.0629311
0.062931
0.0629312
0.0629311
0.0629313
0.0629312
0.0629316
0.0629315
0.0629321
0.062932
0.0629328
0.0629326
0.0629332
0.0629309
0.0629268
0.0629163
0.0628956
0.0628736
0.0627745
0.0627964
0.0628167
0.0628271
0.062831
0.0628333
0.0628327
0.0628329
0.0628321
0.0628321
0.0628315
0.0628316
0.0628313
0.0628313
0.0628311
0.0628312
0.062831
0.0628311
0.062831
0.0628311
0.062831
0.062831
0.062831
0.062831
0.062831
0.062831
0.062831
0.062831
0.062831
0.062831
0.0628311
0.062831
0.0628311
0.062831
0.0628312
0.0628311
0.0628313
0.0628313
0.0628316
0.0628315
0.0628321
0.0628321
0.0628329
0.0628327
0.0628333
0.062831
0.062827
0.0628167
0.0627964
0.0627745
0.0626774
0.0626992
0.0627191
0.0627292
0.0627331
0.0627353
0.0627347
0.0627349
0.0627341
0.0627341
0.0627335
0.0627336
0.0627332
0.0627333
0.0627331
0.0627332
0.062733
0.0627331
0.062733
0.062733
0.062733
0.062733
0.062733
0.062733
0.062733
0.062733
0.062733
0.062733
0.062733
0.062733
0.062733
0.062733
0.0627331
0.062733
0.0627332
0.0627331
0.0627333
0.0627332
0.0627336
0.0627335
0.0627341
0.0627341
0.0627349
0.0627347
0.0627353
0.0627331
0.0627292
0.0627191
0.0626992
0.0626774
0.0625822
0.0626039
0.0626234
0.0626333
0.0626371
0.0626393
0.0626386
0.0626388
0.0626379
0.062638
0.0626374
0.0626374
0.0626371
0.0626371
0.0626369
0.062637
0.0626368
0.0626369
0.0626368
0.0626369
0.0626368
0.0626368
0.0626368
0.0626368
0.0626368
0.0626368
0.0626368
0.0626368
0.0626368
0.0626368
0.0626369
0.0626368
0.0626369
0.0626368
0.062637
0.0626369
0.0626371
0.0626371
0.0626374
0.0626374
0.062638
0.0626379
0.0626388
0.0626386
0.0626393
0.0626371
0.0626333
0.0626234
0.0626039
0.0625822
0.0624888
0.0625104
0.0625295
0.0625392
0.0625429
0.062545
0.0625443
0.0625445
0.0625436
0.0625436
0.062543
0.0625431
0.0625427
0.0625428
0.0625426
0.0625426
0.0625425
0.0625426
0.0625425
0.0625425
0.0625424
0.0625425
0.0625424
0.0625425
0.0625424
0.0625424
0.0625425
0.0625424
0.0625425
0.0625425
0.0625425
0.0625425
0.0625426
0.0625425
0.0625426
0.0625426
0.0625428
0.0625427
0.0625431
0.062543
0.0625436
0.0625436
0.0625445
0.0625443
0.062545
0.0625429
0.0625392
0.0625295
0.0625104
0.0624888
0.0623973
0.0624187
0.0624374
0.0624468
0.0624504
0.0624524
0.0624518
0.0624519
0.062451
0.062451
0.0624504
0.0624505
0.0624501
0.0624502
0.0624499
0.06245
0.0624499
0.0624499
0.0624498
0.0624499
0.0624498
0.0624499
0.0624498
0.0624498
0.0624498
0.0624498
0.0624498
0.0624498
0.0624499
0.0624498
0.0624499
0.0624498
0.0624499
0.0624499
0.06245
0.0624499
0.0624502
0.0624501
0.0624505
0.0624504
0.062451
0.062451
0.0624519
0.0624518
0.0624524
0.0624504
0.0624468
0.0624374
0.0624187
0.0623973
0.0623075
0.0623288
0.062347
0.0623561
0.0623596
0.0623616
0.0623609
0.062361
0.0623601
0.0623601
0.0623595
0.0623595
0.0623592
0.0623592
0.062359
0.0623591
0.0623589
0.062359
0.0623589
0.0623589
0.0623589
0.0623589
0.0623589
0.0623589
0.0623589
0.0623589
0.0623589
0.0623589
0.0623589
0.0623589
0.0623589
0.0623589
0.062359
0.0623589
0.0623591
0.062359
0.0623592
0.0623592
0.0623595
0.0623595
0.0623601
0.0623601
0.062361
0.0623609
0.0623616
0.0623596
0.0623561
0.062347
0.0623288
0.0623075
0.0622193
0.0622405
0.0622582
0.0622671
0.0622704
0.0622724
0.0622716
0.0622717
0.0622709
0.0622708
0.0622702
0.0622702
0.0622699
0.0622699
0.0622697
0.0622698
0.0622696
0.0622697
0.0622696
0.0622696
0.0622696
0.0622696
0.0622696
0.0622696
0.0622696
0.0622696
0.0622696
0.0622696
0.0622696
0.0622696
0.0622696
0.0622696
0.0622697
0.0622696
0.0622698
0.0622697
0.0622699
0.0622699
0.0622702
0.0622702
0.0622708
0.0622709
0.0622717
0.0622716
0.0622724
0.0622704
0.0622671
0.0622582
0.0622405
0.0622193
0.0621328
0.0621538
0.062171
0.0621797
0.0621829
0.0621847
0.062184
0.0621841
0.0621832
0.0621831
0.0621826
0.0621825
0.0621822
0.0621822
0.062182
0.0621821
0.0621819
0.062182
0.0621819
0.0621819
0.0621819
0.0621819
0.0621819
0.0621819
0.0621819
0.0621819
0.0621819
0.0621819
0.0621819
0.0621819
0.0621819
0.0621819
0.062182
0.0621819
0.0621821
0.062182
0.0621822
0.0621822
0.0621825
0.0621826
0.0621831
0.0621832
0.0621841
0.062184
0.0621847
0.0621829
0.0621797
0.062171
0.0621538
0.0621328
0.062048
0.0620687
0.0620854
0.0620938
0.0620969
0.0620986
0.0620979
0.0620979
0.0620971
0.062097
0.0620964
0.0620964
0.062096
0.0620961
0.0620958
0.0620959
0.0620957
0.0620958
0.0620957
0.0620958
0.0620957
0.0620957
0.0620957
0.0620957
0.0620957
0.0620957
0.0620957
0.0620957
0.0620957
0.0620957
0.0620958
0.0620957
0.0620958
0.0620957
0.0620959
0.0620958
0.0620961
0.062096
0.0620964
0.0620964
0.062097
0.0620971
0.0620979
0.0620979
0.0620986
0.0620969
0.0620938
0.0620854
0.0620687
0.062048
0.0619646
0.0619851
0.0620013
0.0620094
0.0620124
0.0620141
0.0620133
0.0620133
0.0620124
0.0620123
0.0620118
0.0620117
0.0620114
0.0620114
0.0620112
0.0620112
0.0620111
0.0620111
0.0620111
0.0620111
0.062011
0.0620111
0.062011
0.062011
0.062011
0.062011
0.062011
0.062011
0.0620111
0.062011
0.0620111
0.0620111
0.0620111
0.0620111
0.0620112
0.0620112
0.0620114
0.0620114
0.0620117
0.0620118
0.0620123
0.0620124
0.0620133
0.0620133
0.062014
0.0620124
0.0620094
0.0620013
0.0619851
0.0619646
0.0618828
0.0619029
0.0619187
0.0619265
0.0619293
0.0619309
0.0619302
0.0619301
0.0619293
0.0619291
0.0619286
0.0619285
0.0619282
0.0619282
0.061928
0.061928
0.0619279
0.0619279
0.0619279
0.0619279
0.0619278
0.0619279
0.0619278
0.0619278
0.0619278
0.0619278
0.0619278
0.0619278
0.0619279
0.0619278
0.0619279
0.0619279
0.0619279
0.0619279
0.061928
0.061928
0.0619282
0.0619282
0.0619285
0.0619286
0.0619291
0.0619293
0.0619301
0.0619302
0.0619309
0.0619293
0.0619265
0.0619187
0.0619029
0.0618828
0.0618025
0.0618222
0.0618375
0.061845
0.0618477
0.0618492
0.0618484
0.0618484
0.0618475
0.0618474
0.0618468
0.0618468
0.0618464
0.0618464
0.0618462
0.0618462
0.0618461
0.0618462
0.0618461
0.0618461
0.0618461
0.0618461
0.0618461
0.0618461
0.0618461
0.0618461
0.0618461
0.0618461
0.0618461
0.0618461
0.0618461
0.0618461
0.0618462
0.0618461
0.0618462
0.0618462
0.0618464
0.0618464
0.0618468
0.0618468
0.0618474
0.0618475
0.0618484
0.0618484
0.0618492
0.0618477
0.061845
0.0618375
0.0618222
0.0618025
0.0617236
0.0617428
0.0617576
0.061765
0.0617675
0.0617689
0.0617681
0.061768
0.0617672
0.061767
0.0617665
0.0617664
0.061766
0.061766
0.0617658
0.0617659
0.0617657
0.0617658
0.0617657
0.0617657
0.0617657
0.0617657
0.0617657
0.0617657
0.0617657
0.0617657
0.0617657
0.0617657
0.0617657
0.0617657
0.0617657
0.0617657
0.0617658
0.0617657
0.0617659
0.0617658
0.061766
0.061766
0.0617664
0.0617665
0.061767
0.0617672
0.061768
0.0617681
0.0617689
0.0617675
0.061765
0.0617576
0.0617428
0.0617236
0.0616461
0.0616649
0.0616792
0.0616863
0.0616886
0.06169
0.0616892
0.0616891
0.0616882
0.061688
0.0616874
0.0616874
0.061687
0.061687
0.0616868
0.0616869
0.0616867
0.0616868
0.0616867
0.0616867
0.0616867
0.0616867
0.0616867
0.0616867
0.0616867
0.0616867
0.0616867
0.0616867
0.0616867
0.0616867
0.0616867
0.0616867
0.0616868
0.0616867
0.0616869
0.0616868
0.061687
0.061687
0.0616874
0.0616874
0.061688
0.0616882
0.0616891
0.0616892
0.06169
0.0616886
0.0616863
0.0616792
0.0616649
0.0616461
0.06157
0.0615882
0.061602
0.0616089
0.0616111
0.0616124
0.0616115
0.0616114
0.0616105
0.0616103
0.0616098
0.0616097
0.0616093
0.0616093
0.0616091
0.0616092
0.061609
0.0616091
0.061609
0.061609
0.061609
0.061609
0.061609
0.061609
0.061609
0.061609
0.061609
0.061609
0.061609
0.061609
0.061609
0.061609
0.0616091
0.061609
0.0616092
0.0616091
0.0616093
0.0616094
0.0616097
0.0616098
0.0616103
0.0616105
0.0616114
0.0616115
0.0616124
0.0616111
0.0616089
0.061602
0.0615882
0.06157
0.0614951
0.0615128
0.0615262
0.0615328
0.0615349
0.061536
0.0615352
0.061535
0.0615342
0.0615339
0.0615334
0.0615333
0.061533
0.061533
0.0615327
0.0615328
0.0615326
0.0615327
0.0615326
0.0615326
0.0615326
0.0615326
0.0615326
0.0615326
0.0615326
0.0615326
0.0615326
0.0615326
0.0615326
0.0615326
0.0615326
0.0615326
0.0615327
0.0615326
0.0615328
0.0615327
0.061533
0.061533
0.0615333
0.0615334
0.0615339
0.0615342
0.061535
0.0615352
0.061536
0.0615349
0.0615328
0.0615262
0.0615128
0.0614951
0.0614216
0.0614387
0.0614516
0.061458
0.0614599
0.061461
0.0614601
0.0614599
0.0614591
0.0614588
0.0614583
0.0614582
0.0614579
0.0614578
0.0614576
0.0614577
0.0614575
0.0614576
0.0614575
0.0614575
0.0614575
0.0614575
0.0614575
0.0614575
0.0614575
0.0614575
0.0614575
0.0614575
0.0614575
0.0614575
0.0614575
0.0614575
0.0614576
0.0614575
0.0614577
0.0614576
0.0614578
0.0614579
0.0614582
0.0614583
0.0614588
0.0614591
0.0614599
0.0614601
0.061461
0.0614599
0.061458
0.0614516
0.0614387
0.0614216
0.0613493
0.0613658
0.0613783
0.0613844
0.0613862
0.0613872
0.0613863
0.0613861
0.0613852
0.061385
0.0613844
0.0613843
0.061384
0.061384
0.0613838
0.0613838
0.0613837
0.0613837
0.0613836
0.0613836
0.0613836
0.0613836
0.0613836
0.0613836
0.0613836
0.0613836
0.0613836
0.0613836
0.0613836
0.0613836
0.0613836
0.0613836
0.0613837
0.0613837
0.0613838
0.0613838
0.061384
0.061384
0.0613843
0.0613844
0.061385
0.0613852
0.0613861
0.0613863
0.0613872
0.0613862
0.0613844
0.0613783
0.0613658
0.0613493
0.0612782
0.0612942
0.0613062
0.0613121
0.0613137
0.0613146
0.0613137
0.0613134
0.0613126
0.0613123
0.0613118
0.0613117
0.0613113
0.0613113
0.0613111
0.0613111
0.061311
0.061311
0.061311
0.061311
0.0613109
0.061311
0.0613109
0.0613109
0.0613109
0.0613109
0.0613109
0.0613109
0.061311
0.0613109
0.061311
0.061311
0.061311
0.061311
0.0613111
0.0613111
0.0613113
0.0613113
0.0613117
0.0613118
0.0613123
0.0613126
0.0613134
0.0613137
0.0613146
0.0613137
0.0613121
0.0613062
0.0612942
0.0612782
0.0612083
0.0612237
0.0612353
0.0612409
0.0612423
0.0612431
0.0612422
0.0612419
0.0612411
0.0612408
0.0612403
0.0612402
0.0612398
0.0612398
0.0612396
0.0612396
0.0612395
0.0612396
0.0612395
0.0612395
0.0612395
0.0612395
0.0612394
0.0612395
0.0612395
0.0612395
0.0612395
0.0612394
0.0612395
0.0612395
0.0612395
0.0612395
0.0612396
0.0612395
0.0612396
0.0612396
0.0612398
0.0612398
0.0612402
0.0612403
0.0612408
0.0612411
0.0612419
0.0612422
0.0612431
0.0612423
0.0612409
0.0612353
0.0612237
0.0612083
0.0611395
0.0611544
0.0611655
0.0611709
0.0611722
0.0611729
0.0611719
0.0611716
0.0611708
0.0611705
0.06117
0.0611699
0.0611695
0.0611695
0.0611693
0.0611693
0.0611692
0.0611692
0.0611692
0.0611692
0.0611691
0.0611692
0.0611691
0.0611691
0.0611691
0.0611691
0.0611691
0.0611691
0.0611692
0.0611691
0.0611692
0.0611692
0.0611692
0.0611692
0.0611693
0.0611693
0.0611695
0.0611695
0.0611699
0.06117
0.0611705
0.0611708
0.0611716
0.0611719
0.0611729
0.0611722
0.0611709
0.0611655
0.0611544
0.0611395
0.0610719
0.0610862
0.0610969
0.061102
0.0611031
0.0611037
0.0611028
0.0611025
0.0611016
0.0611013
0.0611008
0.0611007
0.0611004
0.0611003
0.0611001
0.0611001
0.0611
0.0611001
0.0611
0.0611
0.0611
0.0611
0.0611
0.0611
0.0611
0.0611
0.0611
0.0611
0.0611
0.0611
0.0611
0.0611
0.0611001
0.0611
0.0611001
0.0611001
0.0611003
0.0611004
0.0611007
0.0611008
0.0611013
0.0611016
0.0611025
0.0611028
0.0611037
0.0611031
0.061102
0.0610969
0.0610862
0.0610719
0.0610054
0.0610192
0.0610293
0.0610342
0.0610352
0.0610357
0.0610347
0.0610344
0.0610336
0.0610333
0.0610327
0.0610326
0.0610323
0.0610322
0.0610321
0.0610321
0.0610319
0.061032
0.0610319
0.0610319
0.0610319
0.0610319
0.0610319
0.0610319
0.0610319
0.0610319
0.0610319
0.0610319
0.0610319
0.0610319
0.0610319
0.0610319
0.061032
0.061032
0.0610321
0.0610321
0.0610322
0.0610323
0.0610326
0.0610327
0.0610333
0.0610336
0.0610344
0.0610347
0.0610357
0.0610352
0.0610342
0.0610293
0.0610192
0.0610054
0.0609421
0.0609556
0.0609651
0.0609698
0.0609707
0.0609711
0.0609701
0.0609697
0.0609689
0.0609686
0.0609681
0.060968
0.0609676
0.0609676
0.0609674
0.0609674
0.0609673
0.0609673
0.0609673
0.0609673
0.0609672
0.0609673
0.0609672
0.0609672
0.0609672
0.0609672
0.0609672
0.0609672
0.0609673
0.0609672
0.0609673
0.0609673
0.0609673
0.0609673
0.0609674
0.0609674
0.0609676
0.0609676
0.060968
0.0609681
0.0609686
0.0609689
0.0609697
0.0609701
0.0609711
0.0609707
0.0609698
0.0609651
0.0609556
0.0609421
0.0608791
0.0608922
0.060901
0.0609054
0.060906
0.0609062
0.0609051
0.0609047
0.0609038
0.0609035
0.0609029
0.0609028
0.0609025
0.0609024
0.0609022
0.0609022
0.0609021
0.0609021
0.0609021
0.0609021
0.060902
0.0609021
0.060902
0.060902
0.060902
0.060902
0.060902
0.060902
0.0609021
0.060902
0.0609021
0.0609021
0.0609021
0.0609021
0.0609022
0.0609022
0.0609024
0.0609025
0.0609028
0.0609029
0.0609035
0.0609038
0.0609047
0.0609051
0.0609062
0.060906
0.0609054
0.060901
0.0608922
0.0608791
0.0608159
0.0608285
0.0608368
0.060841
0.0608415
0.0608415
0.0608404
0.06084
0.0608391
0.0608388
0.0608383
0.0608381
0.0608378
0.0608377
0.0608375
0.0608375
0.0608374
0.0608375
0.0608374
0.0608374
0.0608374
0.0608374
0.0608374
0.0608374
0.0608374
0.0608374
0.0608374
0.0608374
0.0608374
0.0608374
0.0608374
0.0608374
0.0608375
0.0608374
0.0608375
0.0608375
0.0608377
0.0608378
0.0608381
0.0608383
0.0608388
0.0608391
0.06084
0.0608404
0.0608415
0.0608415
0.060841
0.0608368
0.0608285
0.0608159
0.0607538
0.0607659
0.0607736
0.0607777
0.060778
0.0607779
0.0607768
0.0607763
0.0607755
0.0607751
0.0607746
0.0607744
0.0607741
0.0607741
0.0607739
0.0607739
0.0607738
0.0607738
0.0607737
0.0607737
0.0607737
0.0607737
0.0607737
0.0607737
0.0607737
0.0607737
0.0607737
0.0607737
0.0607737
0.0607737
0.0607738
0.0607737
0.0607738
0.0607738
0.0607739
0.0607739
0.0607741
0.0607741
0.0607744
0.0607746
0.0607751
0.0607755
0.0607763
0.0607768
0.0607779
0.060778
0.0607777
0.0607736
0.0607659
0.0607538
0.0606926
0.0607043
0.0607114
0.0607153
0.0607155
0.0607152
0.0607141
0.0607136
0.0607128
0.0607125
0.0607119
0.0607118
0.0607115
0.0607114
0.0607112
0.0607112
0.0607111
0.0607111
0.0607111
0.0607111
0.060711
0.0607111
0.060711
0.060711
0.060711
0.060711
0.060711
0.060711
0.0607111
0.060711
0.0607111
0.0607111
0.0607111
0.0607111
0.0607112
0.0607112
0.0607114
0.0607115
0.0607118
0.0607119
0.0607125
0.0607128
0.0607136
0.0607141
0.0607152
0.0607155
0.0607153
0.0607114
0.0607043
0.0606926
0.0606324
0.0606436
0.0606502
0.0606539
0.060654
0.0606535
0.0606524
0.0606519
0.0606511
0.0606507
0.0606502
0.0606501
0.0606498
0.0606497
0.0606495
0.0606495
0.0606494
0.0606494
0.0606494
0.0606494
0.0606493
0.0606494
0.0606493
0.0606493
0.0606493
0.0606493
0.0606493
0.0606493
0.0606494
0.0606493
0.0606494
0.0606494
0.0606494
0.0606494
0.0606495
0.0606495
0.0606497
0.0606498
0.0606501
0.0606502
0.0606507
0.0606511
0.0606519
0.0606524
0.0606535
0.060654
0.0606539
0.0606502
0.0606436
0.0606324
0.0605751
0.0605858
0.060592
0.0605955
0.0605955
0.0605948
0.0605937
0.0605932
0.0605924
0.060592
0.0605915
0.0605914
0.0605911
0.060591
0.0605908
0.0605908
0.0605907
0.0605907
0.0605907
0.0605907
0.0605906
0.0605907
0.0605906
0.0605907
0.0605906
0.0605906
0.0605907
0.0605906
0.0605907
0.0605906
0.0605907
0.0605907
0.0605907
0.0605907
0.0605908
0.0605908
0.060591
0.0605911
0.0605914
0.0605915
0.060592
0.0605924
0.0605932
0.0605937
0.0605948
0.0605955
0.0605955
0.060592
0.0605858
0.0605751
0.0605188
0.0605291
0.0605348
0.0605381
0.060538
0.0605372
0.060536
0.0605354
0.0605346
0.0605342
0.0605336
0.0605334
0.0605331
0.060533
0.0605329
0.0605328
0.0605327
0.0605328
0.0605327
0.0605327
0.0605327
0.0605327
0.0605327
0.0605327
0.0605327
0.0605327
0.0605327
0.0605327
0.0605327
0.0605327
0.0605327
0.0605327
0.0605328
0.0605327
0.0605328
0.0605329
0.060533
0.0605331
0.0605334
0.0605336
0.0605342
0.0605346
0.0605354
0.060536
0.0605371
0.060538
0.0605381
0.0605348
0.0605291
0.0605188
0.0604618
0.0604717
0.0604769
0.0604799
0.0604798
0.0604786
0.0604774
0.0604768
0.0604759
0.0604755
0.060475
0.0604748
0.0604744
0.0604744
0.0604742
0.0604742
0.0604741
0.0604741
0.060474
0.060474
0.060474
0.060474
0.060474
0.060474
0.060474
0.060474
0.060474
0.060474
0.060474
0.060474
0.060474
0.060474
0.0604741
0.0604741
0.0604742
0.0604742
0.0604744
0.0604744
0.0604748
0.060475
0.0604755
0.0604759
0.0604768
0.0604774
0.0604786
0.0604798
0.0604799
0.0604769
0.0604717
0.0604618
0.0604054
0.0604148
0.0604196
0.0604225
0.0604222
0.0604227
0.0604216
0.0604209
0.0604201
0.0604196
0.0604191
0.0604189
0.0604186
0.0604185
0.0604183
0.0604183
0.0604182
0.0604182
0.0604181
0.0604181
0.0604181
0.0604181
0.0604181
0.0604181
0.0604181
0.0604181
0.0604181
0.0604181
0.0604181
0.0604181
0.0604181
0.0604181
0.0604182
0.0604182
0.0604183
0.0604183
0.0604185
0.0604186
0.0604189
0.0604191
0.0604196
0.0604201
0.0604209
0.0604216
0.0604227
0.0604222
0.0604224
0.0604196
0.0604148
0.0604054
0.0603517
0.0603607
0.0603651
0.0603677
0.0603674
0.0603678
0.0603666
0.060366
0.0603651
0.0603647
0.0603642
0.0603639
0.0603636
0.0603635
0.0603634
0.0603633
0.0603632
0.0603633
0.0603632
0.0603632
0.0603632
0.0603632
0.0603632
0.0603632
0.0603632
0.0603632
0.0603632
0.0603632
0.0603632
0.0603632
0.0603632
0.0603632
0.0603633
0.0603632
0.0603633
0.0603634
0.0603635
0.0603636
0.0603639
0.0603642
0.0603647
0.0603651
0.060366
0.0603666
0.0603678
0.0603674
0.0603677
0.0603651
0.0603607
0.0603517
0.0602986
0.0603073
0.0603112
0.0603135
0.060313
0.0603131
0.0603119
0.0603112
0.0603103
0.0603098
0.0603093
0.0603091
0.0603087
0.0603086
0.0603085
0.0603084
0.0603083
0.0603083
0.0603083
0.0603083
0.0603082
0.0603083
0.0603082
0.0603082
0.0603082
0.0603082
0.0603082
0.0603082
0.0603083
0.0603082
0.0603083
0.0603083
0.0603083
0.0603083
0.0603084
0.0603085
0.0603086
0.0603087
0.0603091
0.0603093
0.0603098
0.0603103
0.0603112
0.0603119
0.0603131
0.060313
0.0603135
0.0603112
0.0603073
0.0602986
0.0602466
0.0602549
0.0602584
0.0602606
0.06026
0.06026
0.0602588
0.060258
0.0602571
0.0602567
0.0602561
0.0602559
0.0602556
0.0602555
0.0602553
0.0602553
0.0602552
0.0602552
0.0602551
0.0602551
0.0602551
0.0602551
0.0602551
0.0602551
0.0602551
0.0602551
0.0602551
0.0602551
0.0602551
0.0602551
0.0602551
0.0602551
0.0602552
0.0602552
0.0602553
0.0602553
0.0602555
0.0602556
0.0602559
0.0602561
0.0602567
0.0602571
0.060258
0.0602588
0.06026
0.06026
0.0602606
0.0602584
0.0602549
0.0602466
0.0601955
0.0602034
0.0602065
0.0602085
0.0602078
0.0602077
0.0602065
0.0602057
0.0602048
0.0602043
0.0602038
0.0602036
0.0602033
0.0602032
0.060203
0.060203
0.0602029
0.0602029
0.0602028
0.0602028
0.0602028
0.0602028
0.0602028
0.0602028
0.0602028
0.0602028
0.0602028
0.0602028
0.0602028
0.0602028
0.0602028
0.0602028
0.0602029
0.0602029
0.060203
0.060203
0.0602032
0.0602033
0.0602036
0.0602038
0.0602044
0.0602048
0.0602057
0.0602065
0.0602077
0.0602078
0.0602085
0.0602064
0.0602034
0.0601955
0.0601514
0.0601514
0.0601513
0.0601514
0.0601513
0.0601513
0.0601513
0.0601513
0.0601513
0.0601513
0.0601514
0.0601513
0.0601514
0.0601514
0.0601514
0.0601514
0.0601515
0.0601516
0.0601517
0.0601518
0.0601521
0.0601524
0.0601529
0.0601534
0.0601543
0.060155
0.0601563
0.0601565
0.0601572
0.0601554
0.0601528
0.0601452
0.0601008
0.0601008
0.0601008
0.0601008
0.0601008
0.0601008
0.0601009
0.060101
0.0601011
0.0601012
0.0601015
0.0601018
0.0601023
0.0601028
0.0601037
0.0601044
0.0601057
0.060106
0.0601068
0.0601051
0.0601029
0.0600958
0.0600525
0.060053
0.0600539
0.0600547
0.0600559
0.0600563
0.0600572
0.0600557
0.0600538
0.0600471
)
;

boundaryField
{
    fuel
    {
        type            fixedValue;
        value           nonuniform 0();
    }
    wall
    {
        type            zeroGradient;
    }
    outlet
    {
        type            zeroGradient;
    }
    frontAndBack
    {
        type            empty;
    }
    procBoundary0to1
    {
        type            processor;
        value           nonuniform List<scalar> 
50
(
0.0630781
0.0631005
0.0631216
0.0631325
0.0631367
0.0631391
0.0631385
0.0631388
0.0631379
0.0631381
0.0631375
0.0631376
0.0631372
0.0631373
0.0631371
0.0631372
0.0631371
0.0631371
0.063137
0.0631371
0.063137
0.0631371
0.063137
0.0631371
0.063137
0.063137
0.0631371
0.063137
0.0631371
0.063137
0.0631371
0.063137
0.0631371
0.0631371
0.0631372
0.0631371
0.0631373
0.0631372
0.0631376
0.0631375
0.0631381
0.0631379
0.0631388
0.0631385
0.0631391
0.0631367
0.0631325
0.0631216
0.0631005
0.0630781
)
;
    }
    procBoundary0to2
    {
        type            processor;
        value           nonuniform List<scalar> 
53
(
0.0601452
0.0601528
0.0601554
0.0601572
0.0601565
0.0601563
0.060155
0.0601543
0.0601534
0.0601529
0.0601524
0.0601521
0.0601518
0.0601517
0.0601516
0.0601515
0.0601514
0.0601514
0.0601514
0.0601008
0.0601008
0.0601008
0.0601008
0.0601007
0.0601008
0.0601007
0.0601007
0.0601008
0.0601007
0.0601007
0.060051
0.060051
0.060051
0.060051
0.0600511
0.0600511
0.0600512
0.0600512
0.0600514
0.0600515
0.0600518
0.060052
0.060052
0.0600036
0.060004
0.0600049
0.0600057
0.060007
0.0600074
0.0600084
0.0600071
0.0600056
0.0599992
)
;
    }
}


// ************************************************************************* //
