/*--------------------------------*- C++ -*----------------------------------*\
| =========                 |                                                 |
| \\      /  F ield         | OpenFOAM: The Open Source CFD Toolbox           |
|  \\    /   O peration     | Version:  dev                                   |
|   \\  /    A nd           | Web:      www.OpenFOAM.org                      |
|    \\/     M anipulation  |                                                 |
\*---------------------------------------------------------------------------*/
FoamFile
{
    version     2.0;
    format      ascii;
    class       volScalarField;
    location    "0.09";
    object      H2O2;
}
// * * * * * * * * * * * * * * * * * * * * * * * * * * * * * * * * * * * * * //

dimensions      [0 0 0 0 0 0 0];

internalField   nonuniform List<scalar> 
250
(
4.74893e-11
4.77968e-11
4.71976e-11
4.80546e-11
4.7328e-11
4.86368e-11
4.75198e-11
4.58055e-11
3.89692e-11
3.06995e-11
4.39287e-11
4.42999e-11
4.36788e-11
4.45743e-11
4.3791e-11
4.51417e-11
4.40954e-11
4.26678e-11
3.65339e-11
2.85482e-11
2.46727e-10
3.10282e-11
3.72741e-11
4.0101e-11
4.05019e-11
4.04348e-11
4.04235e-11
4.02639e-11
4.0358e-11
4.03203e-11
4.02181e-11
4.06405e-11
4.00026e-11
4.09302e-11
4.01e-11
4.14819e-11
4.05032e-11
3.93854e-11
3.3939e-11
2.62469e-11
1.64615e-10
2.78882e-11
3.4193e-11
3.64473e-11
3.67161e-11
3.66147e-11
3.66077e-11
3.64472e-11
3.65422e-11
3.64998e-11
3.63826e-11
3.68437e-11
3.61992e-11
3.71467e-11
3.62855e-11
3.76758e-11
3.67667e-11
3.59707e-11
3.12474e-11
2.39204e-11
1.10926e-10
2.49794e-11
3.0961e-11
3.26825e-11
3.28245e-11
3.26973e-11
3.26959e-11
3.25342e-11
3.26296e-11
3.2583e-11
3.24622e-11
3.29493e-11
3.23158e-11
3.32638e-11
3.23975e-11
3.37574e-11
3.2921e-11
3.24448e-11
2.847e-11
2.16429e-11
7.59829e-11
2.24313e-11
2.7612e-11
2.88554e-11
2.88815e-11
2.87369e-11
2.87417e-11
2.85801e-11
2.86746e-11
2.86247e-11
2.85129e-11
2.90132e-11
2.84164e-11
2.93383e-11
2.85055e-11
2.9776e-11
2.90156e-11
2.88443e-11
2.53593e-11
1.94504e-11
5.17076e-11
1.9756e-11
2.41961e-11
2.50327e-11
2.49563e-11
2.48026e-11
2.48134e-11
2.46543e-11
2.47465e-11
2.4694e-11
2.44478e-11
2.4955e-11
2.41912e-11
2.51814e-11
2.43034e-11
2.57947e-11
2.51158e-11
2.52251e-11
2.24948e-11
1.73697e-11
3.66504e-11
1.72339e-11
2.07816e-11
2.1192e-11
2.11302e-11
2.09752e-11
2.09912e-11
2.08379e-11
2.0926e-11
2.08729e-11
2.06367e-11
2.11288e-11
2.04166e-11
2.13441e-11
2.0536e-11
2.19018e-11
2.13008e-11
2.16571e-11
1.96464e-11
1.52227e-11
2.62355e-11
1.47469e-11
1.73781e-11
1.76031e-11
1.74914e-11
1.7342e-11
1.73619e-11
1.72181e-11
1.73001e-11
1.72484e-11
1.70293e-11
1.7492e-11
1.68423e-11
1.76902e-11
1.69539e-11
1.81836e-11
1.76578e-11
1.7985e-11
1.65198e-11
1.33273e-11
1.9294e-11
1.22206e-11
1.42196e-11
1.42652e-11
1.41268e-11
1.39888e-11
1.40112e-11
1.38802e-11
1.39543e-11
1.39059e-11
1.37087e-11
1.41295e-11
1.35508e-11
1.43052e-11
1.3645e-11
1.47284e-11
1.42764e-11
1.45558e-11
1.37794e-11
1.15197e-11
1.42773e-11
9.93887e-12
1.13278e-11
1.12575e-11
1.11124e-11
1.09902e-11
1.10135e-11
1.08982e-11
1.0963e-11
1.09193e-11
1.07476e-11
1.11167e-11
1.06151e-11
1.12661e-11
1.0689e-11
1.1617e-11
1.12372e-11
1.15764e-11
1.12009e-11
9.71503e-12
1.06496e-11
7.85307e-12
8.77314e-12
8.64084e-12
8.50409e-12
8.40049e-12
8.42309e-12
8.3253e-12
8.37987e-12
8.34186e-12
8.19736e-12
8.50905e-12
8.0876e-12
8.63052e-12
8.14242e-12
8.9108e-12
8.59977e-12
8.95378e-12
8.85892e-12
8.18172e-12
7.90272e-12
6.02229e-12
6.60178e-12
6.44902e-12
6.32987e-12
6.2458e-12
6.26647e-12
6.18663e-12
6.23082e-12
6.19901e-12
6.08166e-12
6.33454e-12
5.99232e-12
6.42891e-12
6.03092e-12
6.64415e-12
6.39625e-12
6.7295e-12
6.81467e-12
6.81531e-12
4.39329e-12
4.59038e-12
4.32216e-12
4.66043e-12
4.34772e-12
4.81951e-12
4.62639e-12
4.91802e-12
5.10384e-12
5.65286e-12
)
;

boundaryField
{
    fuel
    {
        type            fixedValue;
        value           nonuniform 0();
    }
    wall
    {
        type            zeroGradient;
    }
    outlet
    {
        type            zeroGradient;
    }
    frontAndBack
    {
        type            empty;
    }
    procBoundary0to1
    {
        type            processor;
        value           nonuniform List<scalar> 
21
(
5.8076e-12
4.48459e-12
4.8302e-12
4.68364e-12
4.58696e-12
4.52135e-12
4.53926e-12
4.47656e-12
4.51093e-12
4.48531e-12
4.48531e-12
3.09728e-12
3.24501e-12
3.0421e-12
3.29463e-12
3.05802e-12
3.40758e-12
3.26168e-12
3.50064e-12
3.73152e-12
4.66197e-12
)
;
    }
    procBoundary0to2
    {
        type            processor;
        value           nonuniform List<scalar> 
12
(
4.7527e-11
3.73526e-10
3.46542e-11
4.01908e-11
4.36077e-11
4.41426e-11
4.4118e-11
4.41054e-11
4.39441e-11
4.40371e-11
4.40045e-11
4.40045e-11
)
;
    }
    procBoundary0to3
    {
        type            processor;
        value           nonuniform List<scalar> 10(5.08887e-11 5.11196e-11 5.05502e-11 5.13595e-11 5.07064e-11 5.19588e-11 5.07767e-11 4.87882e-11 4.12342e-11 3.2447e-11);
    }
}


// ************************************************************************* //
