/*--------------------------------*- C++ -*----------------------------------*\
| =========                 |                                                 |
| \\      /  F ield         | OpenFOAM: The Open Source CFD Toolbox           |
|  \\    /   O peration     | Version:  dev                                   |
|   \\  /    A nd           | Web:      www.OpenFOAM.org                      |
|    \\/     M anipulation  |                                                 |
\*---------------------------------------------------------------------------*/
FoamFile
{
    version     2.0;
    format      ascii;
    class       volScalarField;
    location    "0.09";
    object      HCCO;
}
// * * * * * * * * * * * * * * * * * * * * * * * * * * * * * * * * * * * * * //

dimensions      [0 0 0 0 0 0 0];

internalField   nonuniform List<scalar> 
250
(
6.29014e-07
6.30199e-07
6.28699e-07
6.30847e-07
6.32134e-07
6.33113e-07
6.42739e-07
6.15532e-07
5.02218e-07
4.74106e-07
5.81275e-07
5.82497e-07
5.80994e-07
5.83206e-07
5.84545e-07
5.85556e-07
5.96089e-07
5.7369e-07
4.77854e-07
4.07038e-07
3.51247e-07
5.14972e-07
5.46853e-07
5.60103e-07
5.43003e-07
5.38052e-07
5.38356e-07
5.3265e-07
5.36724e-07
5.32344e-07
5.33236e-07
5.34497e-07
5.32996e-07
5.35258e-07
5.36633e-07
5.37656e-07
5.48932e-07
5.30936e-07
4.52905e-07
3.5934e-07
3.5012e-07
4.8361e-07
5.01266e-07
5.11644e-07
4.94458e-07
4.89755e-07
4.90075e-07
4.84351e-07
4.88461e-07
4.83968e-07
4.84952e-07
4.86248e-07
4.84758e-07
4.87051e-07
4.88441e-07
4.8945e-07
5.01275e-07
4.872e-07
4.23909e-07
3.2401e-07
3.43495e-07
4.47626e-07
4.54699e-07
4.62768e-07
4.45747e-07
4.41315e-07
4.41657e-07
4.35978e-07
4.40087e-07
4.35542e-07
4.3659e-07
4.37913e-07
4.36447e-07
4.38745e-07
4.40123e-07
4.41089e-07
4.5325e-07
4.42563e-07
3.91729e-07
2.96396e-07
3.30314e-07
4.11902e-07
4.0751e-07
4.1374e-07
3.97154e-07
3.93031e-07
3.93392e-07
3.8784e-07
3.91896e-07
3.87372e-07
3.88455e-07
3.89791e-07
3.88366e-07
3.90636e-07
3.91975e-07
3.92864e-07
4.05127e-07
3.97263e-07
3.60557e-07
2.73253e-07
3.10535e-07
3.72781e-07
3.60241e-07
3.64973e-07
3.49124e-07
3.45346e-07
3.45721e-07
3.40394e-07
3.44329e-07
3.39913e-07
3.41001e-07
3.4233e-07
3.40968e-07
3.43169e-07
3.44439e-07
3.45213e-07
3.57334e-07
3.5168e-07
3.25902e-07
2.5197e-07
2.84963e-07
3.31309e-07
3.13635e-07
3.17024e-07
3.02272e-07
2.9886e-07
2.99244e-07
2.94255e-07
2.97985e-07
2.93777e-07
2.94839e-07
2.96135e-07
2.94863e-07
2.96949e-07
2.98119e-07
2.9873e-07
3.0946e-07
3.0638e-07
2.90618e-07
2.30714e-07
2.54953e-07
2.88654e-07
2.67054e-07
2.7069e-07
2.56534e-07
2.52648e-07
2.53065e-07
2.47998e-07
2.51851e-07
2.47516e-07
2.48605e-07
2.49894e-07
2.48598e-07
2.50639e-07
2.51825e-07
2.5277e-07
2.63975e-07
2.62144e-07
2.54278e-07
2.08357e-07
2.22181e-07
2.46111e-07
2.21485e-07
2.25854e-07
2.13925e-07
2.1049e-07
2.109e-07
2.06312e-07
2.09847e-07
2.05859e-07
2.06875e-07
2.08078e-07
2.06905e-07
2.08756e-07
2.09812e-07
2.10613e-07
2.20853e-07
2.19844e-07
2.17821e-07
1.84555e-07
1.8844e-07
2.05068e-07
1.8135e-07
1.85055e-07
1.74618e-07
1.71683e-07
1.72075e-07
1.68026e-07
1.71192e-07
1.67617e-07
1.68537e-07
1.6963e-07
1.68592e-07
1.70226e-07
1.71141e-07
1.71802e-07
1.80886e-07
1.8038e-07
1.8231e-07
1.59638e-07
1.55202e-07
1.66698e-07
1.45027e-07
1.48204e-07
1.39267e-07
1.36859e-07
1.37221e-07
1.33747e-07
1.36508e-07
1.33389e-07
1.34199e-07
1.35163e-07
1.34266e-07
1.35666e-07
1.36437e-07
1.3697e-07
1.44779e-07
1.44565e-07
1.48814e-07
1.3441e-07
1.24291e-07
1.31993e-07
1.13103e-07
1.15791e-07
1.08396e-07
1.06464e-07
1.06789e-07
1.03892e-07
1.06234e-07
1.03591e-07
1.04283e-07
1.05107e-07
1.04353e-07
1.05514e-07
1.06147e-07
1.06567e-07
1.13062e-07
1.13004e-07
1.18274e-07
1.09894e-07
7.89698e-08
7.96514e-08
7.9035e-08
7.99665e-08
8.04718e-08
8.07986e-08
8.602e-08
8.60312e-08
9.13956e-08
8.7102e-08
)
;

boundaryField
{
    fuel
    {
        type            fixedValue;
        value           nonuniform 0();
    }
    wall
    {
        type            zeroGradient;
    }
    outlet
    {
        type            zeroGradient;
    }
    frontAndBack
    {
        type            empty;
    }
    procBoundary0to1
    {
        type            processor;
        value           nonuniform List<scalar> 
21
(
9.65938e-08
1.01646e-07
8.5896e-08
8.81291e-08
8.22071e-08
8.07012e-08
8.09829e-08
7.86421e-08
8.05686e-08
7.83961e-08
7.83961e-08
5.81899e-08
5.8734e-08
5.82464e-08
5.89669e-08
5.93587e-08
5.96135e-08
6.36614e-08
6.36928e-08
6.85553e-08
6.6821e-08
)
;
    }
    procBoundary0to2
    {
        type            processor;
        value           nonuniform List<scalar> 
12
(
6.2842e-07
3.48822e-07
5.38656e-07
5.91178e-07
6.08006e-07
5.91207e-07
5.86059e-07
5.86331e-07
5.80711e-07
5.84713e-07
5.80513e-07
5.80513e-07
)
;
    }
    procBoundary0to3
    {
        type            processor;
        value           nonuniform List<scalar> 10(6.76491e-07 6.77643e-07 6.76149e-07 6.78225e-07 6.79441e-07 6.80369e-07 6.93147e-07 6.61189e-07 5.29141e-07 5.73953e-07);
    }
}


// ************************************************************************* //
