/*--------------------------------*- C++ -*----------------------------------*\
| =========                 |                                                 |
| \\      /  F ield         | OpenFOAM: The Open Source CFD Toolbox           |
|  \\    /   O peration     | Version:  dev                                   |
|   \\  /    A nd           | Web:      www.OpenFOAM.org                      |
|    \\/     M anipulation  |                                                 |
\*---------------------------------------------------------------------------*/
FoamFile
{
    version     2.0;
    format      ascii;
    class       volScalarField;
    location    "0.09";
    object      HCCOH;
}
// * * * * * * * * * * * * * * * * * * * * * * * * * * * * * * * * * * * * * //

dimensions      [0 0 0 0 0 0 0];

internalField   nonuniform List<scalar> 
250
(
6.29002e-06
6.2955e-06
6.28598e-06
6.2979e-06
6.30703e-06
6.3253e-06
6.44662e-06
6.5276e-06
6.34512e-06
3.98123e-06
6.00713e-06
6.01275e-06
6.0033e-06
6.01559e-06
6.02498e-06
6.04273e-06
6.16322e-06
6.24468e-06
6.14039e-06
4.17068e-06
5.31529e-06
6.30314e-06
6.03487e-06
5.95098e-06
5.79582e-06
5.75396e-06
5.75395e-06
5.72086e-06
5.74496e-06
5.72006e-06
5.72477e-06
5.73064e-06
5.72124e-06
5.73391e-06
5.7435e-06
5.76063e-06
5.87966e-06
5.96038e-06
5.92518e-06
4.30713e-06
5.32874e-06
6.03742e-06
5.74451e-06
5.66135e-06
5.50986e-06
5.46986e-06
5.47015e-06
5.43648e-06
5.461e-06
5.435e-06
5.44049e-06
5.44669e-06
5.43732e-06
5.4504e-06
5.46014e-06
5.47653e-06
5.59378e-06
5.6725e-06
5.67544e-06
4.3867e-06
5.26874e-06
5.74813e-06
5.4467e-06
5.36669e-06
5.2194e-06
5.18123e-06
5.1818e-06
5.1476e-06
5.1726e-06
5.14558e-06
5.15172e-06
5.15832e-06
5.14899e-06
5.16248e-06
5.17229e-06
5.1878e-06
5.30309e-06
5.37864e-06
5.40222e-06
4.40823e-06
5.14253e-06
5.46862e-06
5.1395e-06
5.06448e-06
4.92187e-06
4.88549e-06
4.88635e-06
4.8517e-06
4.87718e-06
4.84924e-06
4.8559e-06
4.86299e-06
4.85367e-06
4.86756e-06
4.87737e-06
4.89187e-06
5.00507e-06
5.07635e-06
5.13921e-06
4.37277e-06
4.95637e-06
5.16518e-06
4.82109e-06
4.75225e-06
4.61495e-06
4.58028e-06
4.58143e-06
4.54645e-06
4.57241e-06
4.54363e-06
4.55073e-06
4.55835e-06
4.54906e-06
4.56329e-06
4.57302e-06
4.58634e-06
4.69741e-06
4.76311e-06
4.84765e-06
4.28142e-06
4.7167e-06
4.83871e-06
4.49039e-06
4.42775e-06
4.29689e-06
4.26385e-06
4.2653e-06
4.23027e-06
4.25656e-06
4.22716e-06
4.23461e-06
4.24274e-06
4.23355e-06
4.24801e-06
4.25754e-06
4.26939e-06
4.3721e-06
4.43683e-06
4.54545e-06
4.1368e-06
4.42988e-06
4.48993e-06
4.13688e-06
4.09026e-06
3.96113e-06
3.9243e-06
3.92628e-06
3.88804e-06
3.91721e-06
3.88453e-06
3.8928e-06
3.90182e-06
3.89184e-06
3.90718e-06
3.91735e-06
3.93091e-06
4.0382e-06
4.09626e-06
4.2229e-06
3.94191e-06
4.10233e-06
4.12009e-06
3.75948e-06
3.73264e-06
3.61517e-06
3.58046e-06
3.58279e-06
3.54473e-06
3.57421e-06
3.54103e-06
3.54955e-06
3.55902e-06
3.54913e-06
3.56447e-06
3.57435e-06
3.58657e-06
3.69005e-06
3.74101e-06
3.88017e-06
3.70051e-06
3.74076e-06
3.73163e-06
3.38546e-06
3.36732e-06
3.25579e-06
3.22352e-06
3.22619e-06
3.18858e-06
3.21823e-06
3.18476e-06
3.19344e-06
3.20328e-06
3.1935e-06
3.20866e-06
3.21817e-06
3.22914e-06
3.32819e-06
3.37191e-06
3.51836e-06
3.41722e-06
3.34981e-06
3.32732e-06
2.99961e-06
2.99048e-06
2.88511e-06
2.85578e-06
2.85875e-06
2.82204e-06
2.85155e-06
2.81819e-06
2.82692e-06
2.83696e-06
2.82736e-06
2.8421e-06
2.85116e-06
2.86091e-06
2.9546e-06
2.99125e-06
3.13988e-06
3.09774e-06
2.94135e-06
2.9116e-06
2.60654e-06
2.60543e-06
2.50758e-06
2.48121e-06
2.4844e-06
2.44917e-06
2.47811e-06
2.44539e-06
2.45401e-06
2.46405e-06
2.45474e-06
2.46878e-06
2.47728e-06
2.48586e-06
2.57305e-06
2.60304e-06
2.74889e-06
2.74919e-06
2.08079e-06
2.09054e-06
2.0817e-06
2.09471e-06
2.10254e-06
2.11001e-06
2.18944e-06
2.21328e-06
2.35166e-06
2.38048e-06
)
;

boundaryField
{
    fuel
    {
        type            fixedValue;
        value           nonuniform 0();
    }
    wall
    {
        type            zeroGradient;
    }
    outlet
    {
        type            zeroGradient;
    }
    frontAndBack
    {
        type            empty;
    }
    procBoundary0to1
    {
        type            processor;
        value           nonuniform List<scalar> 
21
(
2.52225e-06
2.49081e-06
2.21264e-06
2.21815e-06
2.12907e-06
2.10581e-06
2.10912e-06
2.07606e-06
2.10385e-06
2.07244e-06
2.07244e-06
1.71549e-06
1.72464e-06
1.71647e-06
1.72814e-06
1.73517e-06
1.74162e-06
1.81197e-06
1.83026e-06
1.95684e-06
2.0026e-06
)
;
    }
    procBoundary0to2
    {
        type            processor;
        value           nonuniform List<scalar> 
12
(
6.28743e-06
5.22354e-06
6.52442e-06
6.3198e-06
6.23801e-06
6.07988e-06
6.03609e-06
6.03578e-06
6.0033e-06
6.02704e-06
6.00337e-06
6.00337e-06
)
;
    }
    procBoundary0to3
    {
        type            processor;
        value           nonuniform List<scalar> 10(6.57565e-06 6.58106e-06 6.57147e-06 6.58306e-06 6.59188e-06 6.61056e-06 6.75698e-06 6.84152e-06 6.55693e-06 3.74446e-06);
    }
}


// ************************************************************************* //
