/*--------------------------------*- C++ -*----------------------------------*\
| =========                 |                                                 |
| \\      /  F ield         | OpenFOAM: The Open Source CFD Toolbox           |
|  \\    /   O peration     | Version:  dev                                   |
|   \\  /    A nd           | Web:      www.OpenFOAM.org                      |
|    \\/     M anipulation  |                                                 |
\*---------------------------------------------------------------------------*/
FoamFile
{
    version     2.0;
    format      ascii;
    class       volScalarField;
    location    "0.09";
    object      HCO;
}
// * * * * * * * * * * * * * * * * * * * * * * * * * * * * * * * * * * * * * //

dimensions      [0 0 0 0 0 0 0];

internalField   nonuniform List<scalar> 
2014
(
9.80535e-08
9.83326e-08
9.86188e-08
9.8773e-08
9.88415e-08
9.88764e-08
9.88736e-08
9.88754e-08
9.88644e-08
9.88622e-08
9.88542e-08
9.88529e-08
9.88477e-08
9.88472e-08
9.8844e-08
9.8844e-08
9.8842e-08
9.88424e-08
9.88412e-08
9.88415e-08
9.88407e-08
9.88408e-08
9.88404e-08
9.88405e-08
9.88404e-08
9.88404e-08
9.88405e-08
9.88404e-08
9.88408e-08
9.88407e-08
9.88414e-08
9.88412e-08
9.88424e-08
9.8842e-08
9.8844e-08
9.8844e-08
9.88472e-08
9.88477e-08
9.88529e-08
9.88542e-08
9.88622e-08
9.88643e-08
9.88754e-08
9.88736e-08
9.88764e-08
9.88414e-08
9.8773e-08
9.86187e-08
9.83325e-08
9.80534e-08
9.70655e-08
9.73372e-08
9.7614e-08
9.77625e-08
9.78283e-08
9.78616e-08
9.78583e-08
9.78594e-08
9.78482e-08
9.78456e-08
9.78375e-08
9.78359e-08
9.78308e-08
9.78301e-08
9.78269e-08
9.78268e-08
9.78248e-08
9.78251e-08
9.78239e-08
9.78242e-08
9.78234e-08
9.78235e-08
9.78231e-08
9.78232e-08
9.78231e-08
9.78231e-08
9.78232e-08
9.78231e-08
9.78236e-08
9.78234e-08
9.78242e-08
9.78239e-08
9.78251e-08
9.78248e-08
9.78268e-08
9.78269e-08
9.78301e-08
9.78308e-08
9.78359e-08
9.78376e-08
9.78456e-08
9.78482e-08
9.78594e-08
9.78582e-08
9.78616e-08
9.78283e-08
9.77624e-08
9.76139e-08
9.73372e-08
9.70655e-08
9.61076e-08
9.63729e-08
9.66399e-08
9.67829e-08
9.68461e-08
9.68777e-08
9.68737e-08
9.68741e-08
9.68627e-08
9.68598e-08
9.68516e-08
9.68497e-08
9.68445e-08
9.68436e-08
9.68404e-08
9.68403e-08
9.68383e-08
9.68385e-08
9.68374e-08
9.68376e-08
9.68368e-08
9.68369e-08
9.68365e-08
9.68366e-08
9.68365e-08
9.68365e-08
9.68366e-08
9.68365e-08
9.68369e-08
9.68368e-08
9.68376e-08
9.68373e-08
9.68385e-08
9.68383e-08
9.68403e-08
9.68404e-08
9.68437e-08
9.68445e-08
9.68497e-08
9.68516e-08
9.68598e-08
9.68627e-08
9.68741e-08
9.68736e-08
9.68776e-08
9.6846e-08
9.67828e-08
9.66399e-08
9.63728e-08
9.61075e-08
9.51743e-08
9.54341e-08
9.56911e-08
9.58288e-08
9.58892e-08
9.59191e-08
9.59144e-08
9.59141e-08
9.59025e-08
9.58991e-08
9.58908e-08
9.58887e-08
9.58834e-08
9.58825e-08
9.58792e-08
9.5879e-08
9.5877e-08
9.58772e-08
9.5876e-08
9.58762e-08
9.58754e-08
9.58756e-08
9.58751e-08
9.58752e-08
9.58751e-08
9.58751e-08
9.58752e-08
9.58751e-08
9.58756e-08
9.58754e-08
9.58762e-08
9.5876e-08
9.58772e-08
9.5877e-08
9.5879e-08
9.58793e-08
9.58825e-08
9.58835e-08
9.58887e-08
9.58908e-08
9.58991e-08
9.59025e-08
9.59141e-08
9.59144e-08
9.5919e-08
9.58891e-08
9.58287e-08
9.5691e-08
9.5434e-08
9.51743e-08
9.42613e-08
9.45156e-08
9.47637e-08
9.48956e-08
9.49531e-08
9.49813e-08
9.49758e-08
9.49749e-08
9.4963e-08
9.49592e-08
9.49508e-08
9.49485e-08
9.49431e-08
9.4942e-08
9.49387e-08
9.49384e-08
9.49364e-08
9.49366e-08
9.49354e-08
9.49355e-08
9.49348e-08
9.49349e-08
9.49344e-08
9.49345e-08
9.49344e-08
9.49344e-08
9.49345e-08
9.49344e-08
9.49349e-08
9.49348e-08
9.49355e-08
9.49354e-08
9.49366e-08
9.49364e-08
9.49384e-08
9.49387e-08
9.4942e-08
9.49431e-08
9.49485e-08
9.49508e-08
9.49593e-08
9.4963e-08
9.49749e-08
9.49758e-08
9.49812e-08
9.4953e-08
9.48956e-08
9.47636e-08
9.45156e-08
9.42613e-08
9.33649e-08
9.36142e-08
9.38532e-08
9.39796e-08
9.4034e-08
9.40605e-08
9.40542e-08
9.40525e-08
9.40403e-08
9.40362e-08
9.40276e-08
9.4025e-08
9.40196e-08
9.40184e-08
9.40151e-08
9.40147e-08
9.40127e-08
9.40128e-08
9.40116e-08
9.40117e-08
9.40109e-08
9.4011e-08
9.40106e-08
9.40107e-08
9.40105e-08
9.40105e-08
9.40107e-08
9.40106e-08
9.4011e-08
9.40109e-08
9.40117e-08
9.40116e-08
9.40128e-08
9.40127e-08
9.40147e-08
9.40151e-08
9.40184e-08
9.40196e-08
9.4025e-08
9.40276e-08
9.40362e-08
9.40403e-08
9.40525e-08
9.40542e-08
9.40604e-08
9.40339e-08
9.39795e-08
9.38532e-08
9.36142e-08
9.33649e-08
9.2482e-08
9.27265e-08
9.29564e-08
9.30773e-08
9.31286e-08
9.31533e-08
9.31462e-08
9.31438e-08
9.31313e-08
9.31267e-08
9.31179e-08
9.31152e-08
9.31096e-08
9.31083e-08
9.31049e-08
9.31045e-08
9.31024e-08
9.31025e-08
9.31013e-08
9.31014e-08
9.31006e-08
9.31007e-08
9.31003e-08
9.31003e-08
9.31002e-08
9.31002e-08
9.31003e-08
9.31003e-08
9.31007e-08
9.31006e-08
9.31014e-08
9.31013e-08
9.31025e-08
9.31024e-08
9.31045e-08
9.31049e-08
9.31083e-08
9.31096e-08
9.31152e-08
9.3118e-08
9.31267e-08
9.31313e-08
9.31437e-08
9.31461e-08
9.31532e-08
9.31285e-08
9.30773e-08
9.29563e-08
9.27265e-08
9.24819e-08
9.16098e-08
9.18498e-08
9.20704e-08
9.2186e-08
9.22341e-08
9.2257e-08
9.22489e-08
9.22458e-08
9.22329e-08
9.2228e-08
9.2219e-08
9.2216e-08
9.22104e-08
9.22089e-08
9.22055e-08
9.2205e-08
9.22029e-08
9.22029e-08
9.22017e-08
9.22018e-08
9.2201e-08
9.22011e-08
9.22007e-08
9.22007e-08
9.22006e-08
9.22006e-08
9.22007e-08
9.22007e-08
9.22011e-08
9.2201e-08
9.22018e-08
9.22017e-08
9.22029e-08
9.22029e-08
9.2205e-08
9.22055e-08
9.22089e-08
9.22104e-08
9.2216e-08
9.2219e-08
9.2228e-08
9.22329e-08
9.22457e-08
9.22489e-08
9.22569e-08
9.2234e-08
9.21859e-08
9.20703e-08
9.18497e-08
9.16097e-08
9.0746e-08
9.09814e-08
9.11928e-08
9.13032e-08
9.1348e-08
9.1369e-08
9.136e-08
9.13561e-08
9.13429e-08
9.13375e-08
9.13284e-08
9.13251e-08
9.13194e-08
9.13178e-08
9.13144e-08
9.13138e-08
9.13117e-08
9.13117e-08
9.13104e-08
9.13105e-08
9.13097e-08
9.13098e-08
9.13093e-08
9.13094e-08
9.13093e-08
9.13093e-08
9.13094e-08
9.13093e-08
9.13098e-08
9.13097e-08
9.13105e-08
9.13104e-08
9.13116e-08
9.13117e-08
9.13138e-08
9.13144e-08
9.13178e-08
9.13194e-08
9.13251e-08
9.13284e-08
9.13375e-08
9.13428e-08
9.13561e-08
9.136e-08
9.13689e-08
9.13479e-08
9.13031e-08
9.11927e-08
9.09814e-08
9.07459e-08
8.98885e-08
9.01193e-08
9.03215e-08
9.04267e-08
9.04682e-08
9.04873e-08
9.04772e-08
9.04726e-08
9.0459e-08
9.04532e-08
9.04439e-08
9.04404e-08
9.04346e-08
9.04329e-08
9.04293e-08
9.04287e-08
9.04265e-08
9.04265e-08
9.04252e-08
9.04253e-08
9.04245e-08
9.04245e-08
9.04241e-08
9.04242e-08
9.0424e-08
9.0424e-08
9.04242e-08
9.04241e-08
9.04245e-08
9.04245e-08
9.04253e-08
9.04252e-08
9.04265e-08
9.04265e-08
9.04287e-08
9.04293e-08
9.04329e-08
9.04346e-08
9.04404e-08
9.04439e-08
9.04532e-08
9.04589e-08
9.04725e-08
9.04772e-08
9.04872e-08
9.04682e-08
9.04266e-08
9.03214e-08
9.01192e-08
8.98885e-08
8.90357e-08
8.92614e-08
8.94545e-08
8.95547e-08
8.95929e-08
8.96099e-08
8.95988e-08
8.95933e-08
8.95793e-08
8.95732e-08
8.95636e-08
8.95599e-08
8.9554e-08
8.95521e-08
8.95485e-08
8.95478e-08
8.95457e-08
8.95456e-08
8.95443e-08
8.95443e-08
8.95435e-08
8.95436e-08
8.95431e-08
8.95432e-08
8.9543e-08
8.9543e-08
8.95432e-08
8.95431e-08
8.95436e-08
8.95435e-08
8.95443e-08
8.95443e-08
8.95456e-08
8.95457e-08
8.95478e-08
8.95485e-08
8.95521e-08
8.9554e-08
8.95599e-08
8.95636e-08
8.95732e-08
8.95793e-08
8.95933e-08
8.95988e-08
8.96098e-08
8.95928e-08
8.95546e-08
8.94544e-08
8.92614e-08
8.90356e-08
8.81857e-08
8.84062e-08
8.85902e-08
8.86854e-08
8.87202e-08
8.87352e-08
8.8723e-08
8.87167e-08
8.87022e-08
8.86957e-08
8.86859e-08
8.8682e-08
8.86759e-08
8.86739e-08
8.86703e-08
8.86695e-08
8.86673e-08
8.86672e-08
8.86659e-08
8.86659e-08
8.86651e-08
8.86651e-08
8.86647e-08
8.86647e-08
8.86646e-08
8.86646e-08
8.86647e-08
8.86647e-08
8.86651e-08
8.86651e-08
8.86659e-08
8.86659e-08
8.86672e-08
8.86673e-08
8.86695e-08
8.86703e-08
8.86739e-08
8.86759e-08
8.8682e-08
8.86859e-08
8.86957e-08
8.87022e-08
8.87167e-08
8.87229e-08
8.87351e-08
8.87201e-08
8.86853e-08
8.85901e-08
8.84061e-08
8.81856e-08
8.73372e-08
8.75519e-08
8.77271e-08
8.78173e-08
8.78487e-08
8.78616e-08
8.78482e-08
8.78411e-08
8.78262e-08
8.78192e-08
8.78092e-08
8.78051e-08
8.77989e-08
8.77968e-08
8.77931e-08
8.77922e-08
8.779e-08
8.77898e-08
8.77885e-08
8.77885e-08
8.77877e-08
8.77877e-08
8.77872e-08
8.77873e-08
8.77872e-08
8.77872e-08
8.77873e-08
8.77873e-08
8.77877e-08
8.77877e-08
8.77885e-08
8.77885e-08
8.77898e-08
8.779e-08
8.77922e-08
8.77931e-08
8.77968e-08
8.77989e-08
8.78051e-08
8.78092e-08
8.78192e-08
8.78262e-08
8.78411e-08
8.78482e-08
8.78615e-08
8.78487e-08
8.78173e-08
8.7727e-08
8.75519e-08
8.73372e-08
8.64888e-08
8.66973e-08
8.68638e-08
8.69492e-08
8.6977e-08
8.69877e-08
8.69731e-08
8.69652e-08
8.69498e-08
8.69424e-08
8.69321e-08
8.69278e-08
8.69215e-08
8.69193e-08
8.69155e-08
8.69146e-08
8.69123e-08
8.69121e-08
8.69107e-08
8.69107e-08
8.69099e-08
8.69099e-08
8.69095e-08
8.69095e-08
8.69094e-08
8.69094e-08
8.69095e-08
8.69095e-08
8.69099e-08
8.69099e-08
8.69107e-08
8.69107e-08
8.69121e-08
8.69123e-08
8.69146e-08
8.69155e-08
8.69193e-08
8.69215e-08
8.69278e-08
8.69322e-08
8.69424e-08
8.69498e-08
8.69652e-08
8.69731e-08
8.69876e-08
8.6977e-08
8.69491e-08
8.68637e-08
8.66973e-08
8.64888e-08
8.56392e-08
8.58412e-08
8.59989e-08
8.60796e-08
8.61038e-08
8.61123e-08
8.60965e-08
8.60877e-08
8.60718e-08
8.6064e-08
8.60535e-08
8.60489e-08
8.60424e-08
8.60401e-08
8.60362e-08
8.60353e-08
8.6033e-08
8.60327e-08
8.60314e-08
8.60313e-08
8.60305e-08
8.60305e-08
8.603e-08
8.60301e-08
8.60299e-08
8.60299e-08
8.60301e-08
8.603e-08
8.60305e-08
8.60305e-08
8.60313e-08
8.60313e-08
8.60327e-08
8.6033e-08
8.60353e-08
8.60363e-08
8.60401e-08
8.60424e-08
8.60489e-08
8.60535e-08
8.6064e-08
8.60718e-08
8.60876e-08
8.60965e-08
8.61122e-08
8.61037e-08
8.60796e-08
8.59988e-08
8.58411e-08
8.56391e-08
8.47871e-08
8.49823e-08
8.51314e-08
8.52075e-08
8.52279e-08
8.52341e-08
8.52171e-08
8.52074e-08
8.5191e-08
8.51828e-08
8.5172e-08
8.51672e-08
8.51606e-08
8.51581e-08
8.51542e-08
8.51532e-08
8.51508e-08
8.51505e-08
8.51491e-08
8.51491e-08
8.51482e-08
8.51482e-08
8.51478e-08
8.51478e-08
8.51477e-08
8.51477e-08
8.51478e-08
8.51478e-08
8.51482e-08
8.51482e-08
8.51491e-08
8.51491e-08
8.51505e-08
8.51508e-08
8.51532e-08
8.51542e-08
8.51582e-08
8.51606e-08
8.51672e-08
8.5172e-08
8.51828e-08
8.5191e-08
8.52073e-08
8.5217e-08
8.52341e-08
8.52278e-08
8.52074e-08
8.51313e-08
8.49823e-08
8.4787e-08
8.39314e-08
8.41196e-08
8.42601e-08
8.43315e-08
8.43481e-08
8.43521e-08
8.43337e-08
8.43231e-08
8.43063e-08
8.42976e-08
8.42865e-08
8.42815e-08
8.42748e-08
8.42722e-08
8.42682e-08
8.42671e-08
8.42647e-08
8.42644e-08
8.4263e-08
8.42629e-08
8.4262e-08
8.4262e-08
8.42616e-08
8.42616e-08
8.42615e-08
8.42615e-08
8.42616e-08
8.42616e-08
8.4262e-08
8.4262e-08
8.42629e-08
8.4263e-08
8.42644e-08
8.42647e-08
8.42671e-08
8.42682e-08
8.42722e-08
8.42748e-08
8.42815e-08
8.42865e-08
8.42976e-08
8.43062e-08
8.43231e-08
8.43337e-08
8.4352e-08
8.43481e-08
8.43315e-08
8.426e-08
8.41196e-08
8.39313e-08
8.3071e-08
8.32522e-08
8.3384e-08
8.34508e-08
8.34635e-08
8.34651e-08
8.34454e-08
8.34339e-08
8.34165e-08
8.34074e-08
8.33961e-08
8.33908e-08
8.3384e-08
8.33813e-08
8.33772e-08
8.3376e-08
8.33736e-08
8.33732e-08
8.33718e-08
8.33717e-08
8.33708e-08
8.33708e-08
8.33703e-08
8.33704e-08
8.33702e-08
8.33702e-08
8.33704e-08
8.33704e-08
8.33708e-08
8.33708e-08
8.33717e-08
8.33718e-08
8.33732e-08
8.33736e-08
8.3376e-08
8.33772e-08
8.33813e-08
8.3384e-08
8.33908e-08
8.33961e-08
8.34074e-08
8.34165e-08
8.34339e-08
8.34454e-08
8.34651e-08
8.34635e-08
8.34507e-08
8.33839e-08
8.32521e-08
8.30709e-08
8.22048e-08
8.23789e-08
8.25021e-08
8.25642e-08
8.25731e-08
8.25722e-08
8.25512e-08
8.25387e-08
8.25208e-08
8.25112e-08
8.24997e-08
8.24942e-08
8.24871e-08
8.24843e-08
8.24802e-08
8.24789e-08
8.24765e-08
8.24761e-08
8.24746e-08
8.24745e-08
8.24736e-08
8.24736e-08
8.24731e-08
8.24731e-08
8.2473e-08
8.2473e-08
8.24731e-08
8.24731e-08
8.24736e-08
8.24736e-08
8.24745e-08
8.24746e-08
8.24761e-08
8.24765e-08
8.24789e-08
8.24802e-08
8.24844e-08
8.24871e-08
8.24942e-08
8.24997e-08
8.25112e-08
8.25208e-08
8.25387e-08
8.25511e-08
8.25721e-08
8.2573e-08
8.25641e-08
8.2502e-08
8.23788e-08
8.22047e-08
8.13318e-08
8.14986e-08
8.16136e-08
8.16708e-08
8.16758e-08
8.16723e-08
8.16499e-08
8.16365e-08
8.16181e-08
8.16081e-08
8.15962e-08
8.15905e-08
8.15833e-08
8.15804e-08
8.15761e-08
8.15749e-08
8.15723e-08
8.15719e-08
8.15704e-08
8.15703e-08
8.15694e-08
8.15694e-08
8.15689e-08
8.15689e-08
8.15688e-08
8.15688e-08
8.15689e-08
8.15689e-08
8.15694e-08
8.15694e-08
8.15703e-08
8.15704e-08
8.15719e-08
8.15723e-08
8.15749e-08
8.15762e-08
8.15804e-08
8.15833e-08
8.15905e-08
8.15962e-08
8.16081e-08
8.1618e-08
8.16365e-08
8.16499e-08
8.16723e-08
8.16757e-08
8.16707e-08
8.16135e-08
8.14986e-08
8.13317e-08
8.0451e-08
8.06109e-08
8.07172e-08
8.07695e-08
8.07706e-08
8.07646e-08
8.07408e-08
8.07264e-08
8.07074e-08
8.0697e-08
8.06848e-08
8.06789e-08
8.06716e-08
8.06685e-08
8.06642e-08
8.06629e-08
8.06603e-08
8.06598e-08
8.06583e-08
8.06582e-08
8.06573e-08
8.06572e-08
8.06567e-08
8.06568e-08
8.06566e-08
8.06566e-08
8.06568e-08
8.06567e-08
8.06572e-08
8.06573e-08
8.06582e-08
8.06583e-08
8.06598e-08
8.06603e-08
8.06629e-08
8.06642e-08
8.06686e-08
8.06716e-08
8.06789e-08
8.06849e-08
8.0697e-08
8.07074e-08
8.07264e-08
8.07407e-08
8.07645e-08
8.07706e-08
8.07695e-08
8.07172e-08
8.06108e-08
8.04509e-08
7.95615e-08
7.97146e-08
7.98121e-08
7.98596e-08
7.98567e-08
7.9848e-08
7.98228e-08
7.98075e-08
7.97879e-08
7.9777e-08
7.97646e-08
7.97584e-08
7.9751e-08
7.97478e-08
7.97434e-08
7.9742e-08
7.97394e-08
7.97389e-08
7.97373e-08
7.97372e-08
7.97363e-08
7.97362e-08
7.97357e-08
7.97358e-08
7.97356e-08
7.97356e-08
7.97358e-08
7.97357e-08
7.97362e-08
7.97363e-08
7.97372e-08
7.97373e-08
7.97389e-08
7.97394e-08
7.9742e-08
7.97434e-08
7.97478e-08
7.9751e-08
7.97584e-08
7.97646e-08
7.9777e-08
7.97879e-08
7.98074e-08
7.98228e-08
7.9848e-08
7.98567e-08
7.98595e-08
7.9812e-08
7.97145e-08
7.95614e-08
7.86624e-08
7.88089e-08
7.88973e-08
7.89401e-08
7.89332e-08
7.89217e-08
7.88951e-08
7.88788e-08
7.88587e-08
7.88473e-08
7.88346e-08
7.88282e-08
7.88206e-08
7.88174e-08
7.88128e-08
7.88114e-08
7.88087e-08
7.88082e-08
7.88066e-08
7.88065e-08
7.88055e-08
7.88055e-08
7.8805e-08
7.8805e-08
7.88048e-08
7.88048e-08
7.8805e-08
7.8805e-08
7.88055e-08
7.88055e-08
7.88065e-08
7.88066e-08
7.88082e-08
7.88087e-08
7.88114e-08
7.88129e-08
7.88174e-08
7.88206e-08
7.88282e-08
7.88346e-08
7.88473e-08
7.88586e-08
7.88787e-08
7.8895e-08
7.89217e-08
7.89332e-08
7.894e-08
7.88972e-08
7.88088e-08
7.86623e-08
7.77528e-08
7.78928e-08
7.7972e-08
7.801e-08
7.79992e-08
7.79848e-08
7.79567e-08
7.79394e-08
7.79188e-08
7.79069e-08
7.7894e-08
7.78874e-08
7.78796e-08
7.78763e-08
7.78717e-08
7.78701e-08
7.78674e-08
7.78669e-08
7.78653e-08
7.78651e-08
7.78641e-08
7.78641e-08
7.78636e-08
7.78636e-08
7.78634e-08
7.78634e-08
7.78636e-08
7.78636e-08
7.78641e-08
7.78641e-08
7.78651e-08
7.78653e-08
7.78669e-08
7.78674e-08
7.78701e-08
7.78717e-08
7.78763e-08
7.78796e-08
7.78874e-08
7.7894e-08
7.79069e-08
7.79187e-08
7.79394e-08
7.79567e-08
7.79847e-08
7.79991e-08
7.80099e-08
7.79719e-08
7.78927e-08
7.77527e-08
7.6832e-08
7.69655e-08
7.70352e-08
7.70685e-08
7.70538e-08
7.70364e-08
7.70069e-08
7.69886e-08
7.69674e-08
7.69551e-08
7.6942e-08
7.69351e-08
7.69272e-08
7.69237e-08
7.6919e-08
7.69174e-08
7.69147e-08
7.69141e-08
7.69125e-08
7.69123e-08
7.69113e-08
7.69113e-08
7.69107e-08
7.69108e-08
7.69106e-08
7.69106e-08
7.69108e-08
7.69107e-08
7.69113e-08
7.69113e-08
7.69123e-08
7.69125e-08
7.69141e-08
7.69147e-08
7.69174e-08
7.6919e-08
7.69237e-08
7.69272e-08
7.69351e-08
7.6942e-08
7.69551e-08
7.69674e-08
7.69885e-08
7.70068e-08
7.70363e-08
7.70537e-08
7.70684e-08
7.70351e-08
7.69654e-08
7.68319e-08
7.59312e-08
7.60594e-08
7.61196e-08
7.61488e-08
7.613e-08
7.61097e-08
7.60787e-08
7.60594e-08
7.60377e-08
7.6025e-08
7.60115e-08
7.60044e-08
7.59964e-08
7.59928e-08
7.5988e-08
7.59864e-08
7.59836e-08
7.5983e-08
7.59813e-08
7.59811e-08
7.59801e-08
7.59801e-08
7.59795e-08
7.59796e-08
7.59794e-08
7.59794e-08
7.59796e-08
7.59795e-08
7.59801e-08
7.59801e-08
7.59811e-08
7.59813e-08
7.5983e-08
7.59836e-08
7.59864e-08
7.5988e-08
7.59928e-08
7.59964e-08
7.60044e-08
7.60115e-08
7.60249e-08
7.60376e-08
7.60594e-08
7.60786e-08
7.61096e-08
7.61299e-08
7.61487e-08
7.61195e-08
7.60593e-08
7.59311e-08
7.50058e-08
7.51294e-08
7.51773e-08
7.52005e-08
7.51755e-08
7.51505e-08
7.51168e-08
7.50959e-08
7.5073e-08
7.50595e-08
7.50454e-08
7.5038e-08
7.50296e-08
7.50258e-08
7.50209e-08
7.50192e-08
7.50162e-08
7.50156e-08
7.50138e-08
7.50136e-08
7.50126e-08
7.50126e-08
7.5012e-08
7.5012e-08
7.50118e-08
7.50118e-08
7.5012e-08
7.5012e-08
7.50125e-08
7.50126e-08
7.50136e-08
7.50138e-08
7.50156e-08
7.50162e-08
7.50192e-08
7.50209e-08
7.50258e-08
7.50296e-08
7.5038e-08
7.50454e-08
7.50595e-08
7.50729e-08
7.50958e-08
7.51167e-08
7.51504e-08
7.51754e-08
7.52004e-08
7.51772e-08
7.51293e-08
7.50056e-08
7.40499e-08
7.41672e-08
7.42054e-08
7.42238e-08
7.41948e-08
7.41662e-08
7.4131e-08
7.4109e-08
7.40856e-08
7.40717e-08
7.40573e-08
7.40497e-08
7.40411e-08
7.40372e-08
7.40322e-08
7.40304e-08
7.40275e-08
7.40268e-08
7.4025e-08
7.40248e-08
7.40238e-08
7.40237e-08
7.40231e-08
7.40232e-08
7.4023e-08
7.4023e-08
7.40232e-08
7.40231e-08
7.40237e-08
7.40237e-08
7.40248e-08
7.4025e-08
7.40268e-08
7.40275e-08
7.40304e-08
7.40322e-08
7.40373e-08
7.40412e-08
7.40497e-08
7.40573e-08
7.40716e-08
7.40856e-08
7.4109e-08
7.41309e-08
7.41661e-08
7.41947e-08
7.42237e-08
7.42052e-08
7.41671e-08
7.40498e-08
7.308e-08
7.31908e-08
7.32193e-08
7.32329e-08
7.31998e-08
7.31675e-08
7.31308e-08
7.31078e-08
7.30838e-08
7.30695e-08
7.30549e-08
7.3047e-08
7.30383e-08
7.30343e-08
7.30292e-08
7.30274e-08
7.30244e-08
7.30237e-08
7.30219e-08
7.30216e-08
7.30206e-08
7.30205e-08
7.302e-08
7.302e-08
7.30198e-08
7.30198e-08
7.302e-08
7.302e-08
7.30205e-08
7.30206e-08
7.30216e-08
7.30219e-08
7.30237e-08
7.30244e-08
7.30274e-08
7.30292e-08
7.30343e-08
7.30384e-08
7.3047e-08
7.30549e-08
7.30694e-08
7.30838e-08
7.31078e-08
7.31307e-08
7.31674e-08
7.31997e-08
7.32328e-08
7.32191e-08
7.31907e-08
7.30799e-08
7.20952e-08
7.21994e-08
7.22184e-08
7.2227e-08
7.219e-08
7.21536e-08
7.21155e-08
7.20915e-08
7.2067e-08
7.20522e-08
7.20374e-08
7.20293e-08
7.20205e-08
7.20164e-08
7.20112e-08
7.20093e-08
7.20063e-08
7.20055e-08
7.20037e-08
7.20035e-08
7.20024e-08
7.20023e-08
7.20018e-08
7.20018e-08
7.20016e-08
7.20016e-08
7.20018e-08
7.20018e-08
7.20023e-08
7.20024e-08
7.20035e-08
7.20037e-08
7.20055e-08
7.20063e-08
7.20093e-08
7.20112e-08
7.20164e-08
7.20205e-08
7.20293e-08
7.20374e-08
7.20522e-08
7.2067e-08
7.20915e-08
7.21155e-08
7.21535e-08
7.21899e-08
7.22269e-08
7.22182e-08
7.21993e-08
7.20951e-08
7.10949e-08
7.11924e-08
7.12019e-08
7.12055e-08
7.11646e-08
7.11239e-08
7.10844e-08
7.10594e-08
7.10344e-08
7.10192e-08
7.10042e-08
7.09958e-08
7.09869e-08
7.09827e-08
7.09775e-08
7.09755e-08
7.09724e-08
7.09717e-08
7.09698e-08
7.09696e-08
7.09685e-08
7.09684e-08
7.09678e-08
7.09679e-08
7.09677e-08
7.09677e-08
7.09679e-08
7.09678e-08
7.09684e-08
7.09685e-08
7.09696e-08
7.09698e-08
7.09717e-08
7.09724e-08
7.09755e-08
7.09775e-08
7.09827e-08
7.0987e-08
7.09958e-08
7.10042e-08
7.10192e-08
7.10344e-08
7.10593e-08
7.10843e-08
7.11238e-08
7.11645e-08
7.12054e-08
7.12018e-08
7.11923e-08
7.10948e-08
7.01127e-08
7.02044e-08
7.02046e-08
7.02036e-08
7.01588e-08
7.01135e-08
7.00726e-08
7.00466e-08
7.00212e-08
7.00055e-08
6.99903e-08
6.99817e-08
6.99727e-08
6.99684e-08
6.99631e-08
6.99611e-08
6.9958e-08
6.99572e-08
6.99553e-08
6.9955e-08
6.99539e-08
6.99539e-08
6.99533e-08
6.99533e-08
6.99531e-08
6.99531e-08
6.99533e-08
6.99533e-08
6.99539e-08
6.99539e-08
6.9955e-08
6.99553e-08
6.99572e-08
6.9958e-08
6.99611e-08
6.99631e-08
6.99684e-08
6.99727e-08
6.99817e-08
6.99903e-08
7.00055e-08
7.00212e-08
7.00466e-08
7.00726e-08
7.01134e-08
7.01587e-08
7.02035e-08
7.02045e-08
7.02043e-08
7.01125e-08
6.91162e-08
6.92022e-08
6.91931e-08
6.91875e-08
6.9139e-08
6.90886e-08
6.90464e-08
6.90187e-08
6.89913e-08
6.89745e-08
6.89582e-08
6.89491e-08
6.89396e-08
6.8935e-08
6.89294e-08
6.89273e-08
6.89239e-08
6.89231e-08
6.89211e-08
6.89208e-08
6.89197e-08
6.89196e-08
6.8919e-08
6.8919e-08
6.89188e-08
6.89188e-08
6.8919e-08
6.8919e-08
6.89196e-08
6.89197e-08
6.89208e-08
6.89211e-08
6.89231e-08
6.89239e-08
6.89273e-08
6.89294e-08
6.8935e-08
6.89396e-08
6.89492e-08
6.89582e-08
6.89744e-08
6.89913e-08
6.90186e-08
6.90463e-08
6.90885e-08
6.91389e-08
6.91874e-08
6.9193e-08
6.9202e-08
6.91161e-08
6.80747e-08
6.81549e-08
6.81358e-08
6.81246e-08
6.80715e-08
6.80147e-08
6.79707e-08
6.79415e-08
6.79133e-08
6.78957e-08
6.78791e-08
6.78697e-08
6.78599e-08
6.78551e-08
6.78494e-08
6.78472e-08
6.78438e-08
6.78429e-08
6.78409e-08
6.78406e-08
6.78394e-08
6.78393e-08
6.78387e-08
6.78387e-08
6.78385e-08
6.78385e-08
6.78387e-08
6.78387e-08
6.78393e-08
6.78394e-08
6.78406e-08
6.78409e-08
6.78429e-08
6.78438e-08
6.78472e-08
6.78494e-08
6.78551e-08
6.78599e-08
6.78697e-08
6.78791e-08
6.78957e-08
6.79133e-08
6.79415e-08
6.79706e-08
6.80146e-08
6.80714e-08
6.81245e-08
6.81357e-08
6.81548e-08
6.80746e-08
6.70115e-08
6.70843e-08
6.70563e-08
6.70399e-08
6.69836e-08
6.69575e-08
6.69123e-08
6.68821e-08
6.68534e-08
6.68354e-08
6.68185e-08
6.68089e-08
6.6799e-08
6.67941e-08
6.67883e-08
6.6786e-08
6.67826e-08
6.67817e-08
6.67797e-08
6.67793e-08
6.67782e-08
6.67781e-08
6.67774e-08
6.67774e-08
6.67773e-08
6.67773e-08
6.67774e-08
6.67774e-08
6.67781e-08
6.67781e-08
6.67793e-08
6.67796e-08
6.67817e-08
6.67826e-08
6.6786e-08
6.67883e-08
6.67941e-08
6.6799e-08
6.68089e-08
6.68185e-08
6.68354e-08
6.68533e-08
6.68821e-08
6.69122e-08
6.69574e-08
6.69835e-08
6.70398e-08
6.70562e-08
6.70842e-08
6.70113e-08
6.59659e-08
6.60324e-08
6.59956e-08
6.59744e-08
6.59147e-08
6.58847e-08
6.58384e-08
6.58073e-08
6.57781e-08
6.57596e-08
6.57425e-08
6.57327e-08
6.57227e-08
6.57177e-08
6.57118e-08
6.57095e-08
6.5706e-08
6.57051e-08
6.57031e-08
6.57028e-08
6.57016e-08
6.57015e-08
6.57008e-08
6.57008e-08
6.57006e-08
6.57006e-08
6.57008e-08
6.57008e-08
6.57015e-08
6.57015e-08
6.57027e-08
6.57031e-08
6.57051e-08
6.57061e-08
6.57096e-08
6.57118e-08
6.57178e-08
6.57227e-08
6.57327e-08
6.57425e-08
6.57596e-08
6.5778e-08
6.58072e-08
6.58383e-08
6.58847e-08
6.59146e-08
6.59743e-08
6.59955e-08
6.60323e-08
6.59658e-08
6.48983e-08
6.49614e-08
6.49143e-08
6.4886e-08
6.48192e-08
6.47839e-08
6.47346e-08
6.47015e-08
6.46709e-08
6.46516e-08
6.46337e-08
6.46235e-08
6.46131e-08
6.46079e-08
6.46018e-08
6.45994e-08
6.45958e-08
6.45948e-08
6.45927e-08
6.45924e-08
6.45911e-08
6.45911e-08
6.45904e-08
6.45904e-08
6.45902e-08
6.45902e-08
6.45904e-08
6.45904e-08
6.4591e-08
6.45911e-08
6.45924e-08
6.45927e-08
6.45948e-08
6.45958e-08
6.45994e-08
6.46018e-08
6.4608e-08
6.46131e-08
6.46235e-08
6.46338e-08
6.46515e-08
6.46709e-08
6.47015e-08
6.47346e-08
6.47838e-08
6.48191e-08
6.48859e-08
6.49141e-08
6.49612e-08
6.48982e-08
6.38208e-08
6.38775e-08
6.38219e-08
6.37886e-08
6.37179e-08
6.3679e-08
6.36285e-08
6.35944e-08
6.35633e-08
6.35435e-08
6.35255e-08
6.35151e-08
6.35045e-08
6.34993e-08
6.34931e-08
6.34907e-08
6.3487e-08
6.3486e-08
6.34839e-08
6.34835e-08
6.34823e-08
6.34822e-08
6.34815e-08
6.34815e-08
6.34813e-08
6.34813e-08
6.34815e-08
6.34815e-08
6.34822e-08
6.34823e-08
6.34835e-08
6.34839e-08
6.34861e-08
6.3487e-08
6.34907e-08
6.34931e-08
6.34994e-08
6.35046e-08
6.35151e-08
6.35255e-08
6.35435e-08
6.35633e-08
6.35944e-08
6.36284e-08
6.3679e-08
6.37178e-08
6.37885e-08
6.38217e-08
6.38773e-08
6.38207e-08
6.27274e-08
6.27774e-08
6.27138e-08
6.26753e-08
6.26006e-08
6.25585e-08
6.25067e-08
6.24716e-08
6.24401e-08
6.24199e-08
6.24017e-08
6.23911e-08
6.23804e-08
6.23751e-08
6.23688e-08
6.23664e-08
6.23627e-08
6.23617e-08
6.23595e-08
6.23592e-08
6.23579e-08
6.23578e-08
6.23571e-08
6.23571e-08
6.23569e-08
6.23569e-08
6.23571e-08
6.23571e-08
6.23578e-08
6.23579e-08
6.23592e-08
6.23595e-08
6.23617e-08
6.23627e-08
6.23664e-08
6.23689e-08
6.23752e-08
6.23805e-08
6.23911e-08
6.24017e-08
6.24199e-08
6.24401e-08
6.24716e-08
6.25067e-08
6.25584e-08
6.26005e-08
6.26752e-08
6.27137e-08
6.27773e-08
6.27273e-08
6.12197e-08
6.12193e-08
6.1218e-08
6.1218e-08
6.12173e-08
6.12173e-08
6.12171e-08
6.12171e-08
6.12173e-08
6.12173e-08
6.1218e-08
6.1218e-08
6.12193e-08
6.12197e-08
6.12219e-08
6.12229e-08
6.12267e-08
6.12292e-08
6.12355e-08
6.12409e-08
6.12517e-08
6.12624e-08
6.12808e-08
6.13013e-08
6.13333e-08
6.13693e-08
6.14222e-08
6.14674e-08
6.15462e-08
6.15898e-08
6.16613e-08
6.1618e-08
6.00629e-08
6.0063e-08
6.00643e-08
6.00647e-08
6.00669e-08
6.00679e-08
6.00717e-08
6.00743e-08
6.00807e-08
6.00861e-08
6.0097e-08
6.01078e-08
6.01264e-08
6.01473e-08
6.01797e-08
6.02165e-08
6.02706e-08
6.03186e-08
6.04017e-08
6.04502e-08
6.05297e-08
6.0493e-08
5.89572e-08
5.89784e-08
5.90111e-08
5.90488e-08
5.9104e-08
5.91545e-08
5.9242e-08
5.92953e-08
5.93826e-08
5.93526e-08
)
;

boundaryField
{
    fuel
    {
        type            fixedValue;
        value           nonuniform 0();
    }
    wall
    {
        type            zeroGradient;
    }
    outlet
    {
        type            zeroGradient;
    }
    frontAndBack
    {
        type            empty;
    }
    procBoundary0to1
    {
        type            processor;
        value           nonuniform List<scalar> 
50
(
9.90778e-08
9.93653e-08
9.96607e-08
9.98209e-08
9.9892e-08
9.99286e-08
9.99262e-08
9.99287e-08
9.99178e-08
9.99161e-08
9.99081e-08
9.9907e-08
9.99019e-08
9.99015e-08
9.98983e-08
9.98984e-08
9.98964e-08
9.98968e-08
9.98956e-08
9.98959e-08
9.98952e-08
9.98953e-08
9.98949e-08
9.9895e-08
9.98949e-08
9.98949e-08
9.9895e-08
9.98949e-08
9.98953e-08
9.98952e-08
9.98959e-08
9.98956e-08
9.98968e-08
9.98964e-08
9.98984e-08
9.98983e-08
9.99015e-08
9.99019e-08
9.9907e-08
9.99081e-08
9.99161e-08
9.99177e-08
9.99287e-08
9.99262e-08
9.99285e-08
9.98919e-08
9.98209e-08
9.96607e-08
9.93652e-08
9.90778e-08
)
;
    }
    procBoundary0to2
    {
        type            processor;
        value           nonuniform List<scalar> 
53
(
6.16181e-08
6.16615e-08
6.15899e-08
6.15463e-08
6.14674e-08
6.14223e-08
6.13693e-08
6.13333e-08
6.13013e-08
6.12808e-08
6.12624e-08
6.12516e-08
6.12408e-08
6.12355e-08
6.12291e-08
6.12266e-08
6.12229e-08
6.12219e-08
6.12219e-08
6.00647e-08
6.00643e-08
6.0063e-08
6.0063e-08
6.00623e-08
6.00623e-08
6.00621e-08
6.00621e-08
6.00623e-08
6.00623e-08
6.00623e-08
5.88931e-08
5.88932e-08
5.88945e-08
5.88949e-08
5.88972e-08
5.88982e-08
5.8902e-08
5.89046e-08
5.8911e-08
5.89165e-08
5.89274e-08
5.89384e-08
5.89384e-08
5.77735e-08
5.7795e-08
5.7828e-08
5.78665e-08
5.79228e-08
5.79755e-08
5.80676e-08
5.81254e-08
5.82205e-08
5.81972e-08
)
;
    }
}


// ************************************************************************* //
