/*--------------------------------*- C++ -*----------------------------------*\
| =========                 |                                                 |
| \\      /  F ield         | OpenFOAM: The Open Source CFD Toolbox           |
|  \\    /   O peration     | Version:  dev                                   |
|   \\  /    A nd           | Web:      www.OpenFOAM.org                      |
|    \\/     M anipulation  |                                                 |
\*---------------------------------------------------------------------------*/
FoamFile
{
    version     2.0;
    format      ascii;
    class       volScalarField;
    location    "0.09";
    object      i-C4H5;
}
// * * * * * * * * * * * * * * * * * * * * * * * * * * * * * * * * * * * * * //

dimensions      [0 0 0 0 0 0 0];

internalField   nonuniform List<scalar> 
2014
(
1.52324e-10
1.5293e-10
1.53511e-10
1.53812e-10
1.53928e-10
1.53994e-10
1.53977e-10
1.53985e-10
1.5396e-10
1.53962e-10
1.53946e-10
1.53948e-10
1.53937e-10
1.53939e-10
1.53933e-10
1.53935e-10
1.53931e-10
1.53933e-10
1.5393e-10
1.53932e-10
1.5393e-10
1.53931e-10
1.5393e-10
1.5393e-10
1.5393e-10
1.5393e-10
1.5393e-10
1.5393e-10
1.53931e-10
1.5393e-10
1.53932e-10
1.5393e-10
1.53933e-10
1.53931e-10
1.53935e-10
1.53933e-10
1.53939e-10
1.53937e-10
1.53948e-10
1.53946e-10
1.53962e-10
1.5396e-10
1.53985e-10
1.53977e-10
1.53994e-10
1.53928e-10
1.53812e-10
1.53511e-10
1.52929e-10
1.52324e-10
1.49411e-10
1.50003e-10
1.50567e-10
1.50859e-10
1.50971e-10
1.51035e-10
1.51017e-10
1.51025e-10
1.51e-10
1.51001e-10
1.50985e-10
1.50987e-10
1.50976e-10
1.50978e-10
1.50972e-10
1.50974e-10
1.5097e-10
1.50972e-10
1.50969e-10
1.50971e-10
1.50969e-10
1.5097e-10
1.50969e-10
1.50969e-10
1.50969e-10
1.50969e-10
1.50969e-10
1.50969e-10
1.5097e-10
1.50969e-10
1.50971e-10
1.50969e-10
1.50972e-10
1.5097e-10
1.50974e-10
1.50972e-10
1.50978e-10
1.50976e-10
1.50987e-10
1.50985e-10
1.51001e-10
1.51e-10
1.51025e-10
1.51017e-10
1.51035e-10
1.50971e-10
1.50859e-10
1.50567e-10
1.50003e-10
1.49411e-10
1.46623e-10
1.47205e-10
1.47751e-10
1.48033e-10
1.48141e-10
1.48203e-10
1.48185e-10
1.48192e-10
1.48167e-10
1.48168e-10
1.48152e-10
1.48153e-10
1.48143e-10
1.48144e-10
1.48138e-10
1.4814e-10
1.48136e-10
1.48138e-10
1.48135e-10
1.48137e-10
1.48135e-10
1.48136e-10
1.48135e-10
1.48135e-10
1.48135e-10
1.48135e-10
1.48135e-10
1.48135e-10
1.48136e-10
1.48135e-10
1.48137e-10
1.48135e-10
1.48138e-10
1.48136e-10
1.4814e-10
1.48138e-10
1.48144e-10
1.48143e-10
1.48153e-10
1.48152e-10
1.48168e-10
1.48167e-10
1.48192e-10
1.48185e-10
1.48203e-10
1.48141e-10
1.48032e-10
1.47751e-10
1.47205e-10
1.46623e-10
1.43948e-10
1.4452e-10
1.45047e-10
1.4532e-10
1.45425e-10
1.45484e-10
1.45466e-10
1.45472e-10
1.45448e-10
1.45448e-10
1.45432e-10
1.45432e-10
1.45422e-10
1.45424e-10
1.45418e-10
1.45419e-10
1.45415e-10
1.45417e-10
1.45415e-10
1.45416e-10
1.45414e-10
1.45415e-10
1.45414e-10
1.45415e-10
1.45414e-10
1.45414e-10
1.45415e-10
1.45414e-10
1.45415e-10
1.45414e-10
1.45416e-10
1.45415e-10
1.45417e-10
1.45415e-10
1.45419e-10
1.45418e-10
1.45424e-10
1.45423e-10
1.45432e-10
1.45432e-10
1.45448e-10
1.45448e-10
1.45472e-10
1.45466e-10
1.45484e-10
1.45425e-10
1.4532e-10
1.45047e-10
1.4452e-10
1.43948e-10
1.41374e-10
1.41936e-10
1.42447e-10
1.42709e-10
1.4281e-10
1.42867e-10
1.42849e-10
1.42854e-10
1.42829e-10
1.42829e-10
1.42813e-10
1.42813e-10
1.42804e-10
1.42805e-10
1.42799e-10
1.428e-10
1.42796e-10
1.42798e-10
1.42796e-10
1.42797e-10
1.42795e-10
1.42796e-10
1.42795e-10
1.42795e-10
1.42795e-10
1.42795e-10
1.42795e-10
1.42795e-10
1.42796e-10
1.42795e-10
1.42797e-10
1.42796e-10
1.42798e-10
1.42796e-10
1.428e-10
1.42799e-10
1.42805e-10
1.42804e-10
1.42813e-10
1.42813e-10
1.42829e-10
1.42829e-10
1.42854e-10
1.42849e-10
1.42867e-10
1.4281e-10
1.42709e-10
1.42446e-10
1.41936e-10
1.41374e-10
1.38891e-10
1.39444e-10
1.39937e-10
1.4019e-10
1.40287e-10
1.40342e-10
1.40323e-10
1.40327e-10
1.40303e-10
1.40302e-10
1.40286e-10
1.40286e-10
1.40276e-10
1.40277e-10
1.40271e-10
1.40273e-10
1.40269e-10
1.4027e-10
1.40268e-10
1.40269e-10
1.40268e-10
1.40268e-10
1.40267e-10
1.40268e-10
1.40267e-10
1.40267e-10
1.40268e-10
1.40267e-10
1.40268e-10
1.40268e-10
1.40269e-10
1.40268e-10
1.4027e-10
1.40269e-10
1.40273e-10
1.40271e-10
1.40277e-10
1.40276e-10
1.40286e-10
1.40286e-10
1.40302e-10
1.40303e-10
1.40327e-10
1.40323e-10
1.40342e-10
1.40287e-10
1.4019e-10
1.39937e-10
1.39444e-10
1.38891e-10
1.36492e-10
1.37036e-10
1.37512e-10
1.37755e-10
1.37847e-10
1.379e-10
1.37881e-10
1.37884e-10
1.3786e-10
1.37858e-10
1.37842e-10
1.37842e-10
1.37832e-10
1.37833e-10
1.37827e-10
1.37829e-10
1.37825e-10
1.37826e-10
1.37824e-10
1.37825e-10
1.37823e-10
1.37824e-10
1.37823e-10
1.37824e-10
1.37823e-10
1.37823e-10
1.37824e-10
1.37823e-10
1.37824e-10
1.37823e-10
1.37825e-10
1.37824e-10
1.37826e-10
1.37825e-10
1.37829e-10
1.37827e-10
1.37833e-10
1.37832e-10
1.37842e-10
1.37842e-10
1.37858e-10
1.3786e-10
1.37883e-10
1.37881e-10
1.37899e-10
1.37847e-10
1.37755e-10
1.37512e-10
1.37036e-10
1.36492e-10
1.34168e-10
1.34704e-10
1.35162e-10
1.35396e-10
1.35484e-10
1.35534e-10
1.35515e-10
1.35517e-10
1.35493e-10
1.35491e-10
1.35475e-10
1.35475e-10
1.35465e-10
1.35465e-10
1.35459e-10
1.35461e-10
1.35457e-10
1.35458e-10
1.35456e-10
1.35457e-10
1.35456e-10
1.35456e-10
1.35455e-10
1.35456e-10
1.35455e-10
1.35455e-10
1.35456e-10
1.35455e-10
1.35456e-10
1.35456e-10
1.35457e-10
1.35456e-10
1.35458e-10
1.35457e-10
1.35461e-10
1.3546e-10
1.35465e-10
1.35465e-10
1.35474e-10
1.35475e-10
1.35491e-10
1.35493e-10
1.35517e-10
1.35515e-10
1.35534e-10
1.35484e-10
1.35396e-10
1.35162e-10
1.34703e-10
1.34168e-10
1.31915e-10
1.32442e-10
1.32883e-10
1.33108e-10
1.33191e-10
1.33239e-10
1.33219e-10
1.3322e-10
1.33196e-10
1.33194e-10
1.33178e-10
1.33177e-10
1.33168e-10
1.33168e-10
1.33162e-10
1.33163e-10
1.3316e-10
1.33161e-10
1.33159e-10
1.3316e-10
1.33158e-10
1.33159e-10
1.33158e-10
1.33158e-10
1.33158e-10
1.33158e-10
1.33158e-10
1.33158e-10
1.33159e-10
1.33158e-10
1.3316e-10
1.33159e-10
1.33161e-10
1.3316e-10
1.33163e-10
1.33162e-10
1.33168e-10
1.33168e-10
1.33177e-10
1.33178e-10
1.33194e-10
1.33196e-10
1.3322e-10
1.33219e-10
1.33238e-10
1.33191e-10
1.33108e-10
1.32883e-10
1.32442e-10
1.31915e-10
1.29728e-10
1.30245e-10
1.30669e-10
1.30885e-10
1.30964e-10
1.31009e-10
1.30989e-10
1.30989e-10
1.30965e-10
1.30962e-10
1.30947e-10
1.30945e-10
1.30936e-10
1.30936e-10
1.3093e-10
1.30931e-10
1.30928e-10
1.30929e-10
1.30927e-10
1.30928e-10
1.30926e-10
1.30927e-10
1.30926e-10
1.30926e-10
1.30926e-10
1.30926e-10
1.30926e-10
1.30926e-10
1.30927e-10
1.30926e-10
1.30928e-10
1.30927e-10
1.30929e-10
1.30928e-10
1.30931e-10
1.3093e-10
1.30936e-10
1.30936e-10
1.30945e-10
1.30947e-10
1.30962e-10
1.30965e-10
1.30989e-10
1.30989e-10
1.31009e-10
1.30964e-10
1.30885e-10
1.30669e-10
1.30245e-10
1.29728e-10
1.27602e-10
1.28109e-10
1.28516e-10
1.28723e-10
1.28798e-10
1.2884e-10
1.28819e-10
1.28818e-10
1.28795e-10
1.28791e-10
1.28776e-10
1.28774e-10
1.28765e-10
1.28765e-10
1.28759e-10
1.2876e-10
1.28757e-10
1.28758e-10
1.28756e-10
1.28757e-10
1.28755e-10
1.28756e-10
1.28755e-10
1.28755e-10
1.28755e-10
1.28755e-10
1.28755e-10
1.28755e-10
1.28756e-10
1.28755e-10
1.28757e-10
1.28756e-10
1.28758e-10
1.28757e-10
1.2876e-10
1.28759e-10
1.28765e-10
1.28765e-10
1.28774e-10
1.28776e-10
1.28791e-10
1.28795e-10
1.28818e-10
1.28819e-10
1.2884e-10
1.28798e-10
1.28722e-10
1.28516e-10
1.28109e-10
1.27602e-10
1.25534e-10
1.26029e-10
1.2642e-10
1.26618e-10
1.26688e-10
1.26728e-10
1.26707e-10
1.26705e-10
1.26682e-10
1.26677e-10
1.26662e-10
1.26661e-10
1.26651e-10
1.26651e-10
1.26645e-10
1.26646e-10
1.26643e-10
1.26644e-10
1.26642e-10
1.26643e-10
1.26641e-10
1.26642e-10
1.26641e-10
1.26641e-10
1.26641e-10
1.26641e-10
1.26641e-10
1.26641e-10
1.26642e-10
1.26641e-10
1.26643e-10
1.26642e-10
1.26644e-10
1.26643e-10
1.26646e-10
1.26645e-10
1.26651e-10
1.26651e-10
1.26661e-10
1.26662e-10
1.26677e-10
1.26682e-10
1.26705e-10
1.26707e-10
1.26728e-10
1.26688e-10
1.26618e-10
1.2642e-10
1.26029e-10
1.25534e-10
1.2352e-10
1.24002e-10
1.24377e-10
1.24566e-10
1.24633e-10
1.24669e-10
1.24648e-10
1.24645e-10
1.24622e-10
1.24618e-10
1.24603e-10
1.246e-10
1.24591e-10
1.24591e-10
1.24585e-10
1.24586e-10
1.24582e-10
1.24584e-10
1.24581e-10
1.24582e-10
1.24581e-10
1.24581e-10
1.2458e-10
1.24581e-10
1.24581e-10
1.24581e-10
1.24581e-10
1.24581e-10
1.24581e-10
1.24581e-10
1.24582e-10
1.24581e-10
1.24584e-10
1.24582e-10
1.24586e-10
1.24585e-10
1.24591e-10
1.24591e-10
1.246e-10
1.24603e-10
1.24618e-10
1.24622e-10
1.24645e-10
1.24648e-10
1.24669e-10
1.24633e-10
1.24566e-10
1.24377e-10
1.24002e-10
1.2352e-10
1.21557e-10
1.22025e-10
1.22385e-10
1.22566e-10
1.22628e-10
1.22662e-10
1.2264e-10
1.22637e-10
1.22614e-10
1.22608e-10
1.22593e-10
1.22591e-10
1.22582e-10
1.22581e-10
1.22576e-10
1.22576e-10
1.22573e-10
1.22574e-10
1.22572e-10
1.22573e-10
1.22571e-10
1.22572e-10
1.22571e-10
1.22571e-10
1.22571e-10
1.22571e-10
1.22571e-10
1.22571e-10
1.22572e-10
1.22571e-10
1.22573e-10
1.22572e-10
1.22574e-10
1.22573e-10
1.22576e-10
1.22576e-10
1.22581e-10
1.22582e-10
1.22591e-10
1.22593e-10
1.22608e-10
1.22613e-10
1.22637e-10
1.2264e-10
1.22662e-10
1.22628e-10
1.22566e-10
1.22385e-10
1.22025e-10
1.21557e-10
1.19643e-10
1.20096e-10
1.20441e-10
1.20614e-10
1.20671e-10
1.20703e-10
1.2068e-10
1.20676e-10
1.20653e-10
1.20647e-10
1.20632e-10
1.2063e-10
1.20621e-10
1.2062e-10
1.20614e-10
1.20615e-10
1.20612e-10
1.20613e-10
1.2061e-10
1.20611e-10
1.2061e-10
1.2061e-10
1.2061e-10
1.2061e-10
1.2061e-10
1.2061e-10
1.2061e-10
1.2061e-10
1.2061e-10
1.2061e-10
1.20611e-10
1.2061e-10
1.20613e-10
1.20612e-10
1.20615e-10
1.20615e-10
1.2062e-10
1.20621e-10
1.2063e-10
1.20632e-10
1.20647e-10
1.20653e-10
1.20676e-10
1.2068e-10
1.20702e-10
1.20671e-10
1.20614e-10
1.2044e-10
1.20096e-10
1.19642e-10
1.17774e-10
1.18212e-10
1.18542e-10
1.18707e-10
1.1876e-10
1.18789e-10
1.18766e-10
1.18761e-10
1.18738e-10
1.18732e-10
1.18717e-10
1.18714e-10
1.18705e-10
1.18704e-10
1.18699e-10
1.18699e-10
1.18696e-10
1.18697e-10
1.18695e-10
1.18696e-10
1.18694e-10
1.18695e-10
1.18694e-10
1.18694e-10
1.18694e-10
1.18694e-10
1.18694e-10
1.18694e-10
1.18695e-10
1.18694e-10
1.18696e-10
1.18695e-10
1.18697e-10
1.18696e-10
1.18699e-10
1.18699e-10
1.18704e-10
1.18705e-10
1.18714e-10
1.18717e-10
1.18732e-10
1.18738e-10
1.18761e-10
1.18766e-10
1.18789e-10
1.1876e-10
1.18707e-10
1.18542e-10
1.18212e-10
1.17774e-10
1.15949e-10
1.16371e-10
1.16686e-10
1.16844e-10
1.16892e-10
1.16919e-10
1.16895e-10
1.16889e-10
1.16866e-10
1.1686e-10
1.16845e-10
1.16842e-10
1.16833e-10
1.16832e-10
1.16827e-10
1.16827e-10
1.16824e-10
1.16825e-10
1.16823e-10
1.16824e-10
1.16822e-10
1.16823e-10
1.16822e-10
1.16822e-10
1.16822e-10
1.16822e-10
1.16822e-10
1.16822e-10
1.16823e-10
1.16822e-10
1.16824e-10
1.16823e-10
1.16825e-10
1.16824e-10
1.16827e-10
1.16827e-10
1.16832e-10
1.16833e-10
1.16842e-10
1.16845e-10
1.1686e-10
1.16866e-10
1.16889e-10
1.16895e-10
1.16919e-10
1.16892e-10
1.16844e-10
1.16686e-10
1.16371e-10
1.15949e-10
1.14165e-10
1.14571e-10
1.14872e-10
1.15023e-10
1.15066e-10
1.1509e-10
1.15066e-10
1.15059e-10
1.15036e-10
1.1503e-10
1.15015e-10
1.15012e-10
1.15003e-10
1.15002e-10
1.14997e-10
1.14997e-10
1.14994e-10
1.14994e-10
1.14992e-10
1.14993e-10
1.14992e-10
1.14992e-10
1.14991e-10
1.14992e-10
1.14991e-10
1.14991e-10
1.14992e-10
1.14991e-10
1.14992e-10
1.14992e-10
1.14993e-10
1.14992e-10
1.14994e-10
1.14994e-10
1.14997e-10
1.14997e-10
1.15002e-10
1.15003e-10
1.15012e-10
1.15015e-10
1.1503e-10
1.15036e-10
1.15059e-10
1.15066e-10
1.1509e-10
1.15066e-10
1.15023e-10
1.14872e-10
1.14571e-10
1.14165e-10
1.1242e-10
1.1281e-10
1.13097e-10
1.13241e-10
1.1328e-10
1.13301e-10
1.13276e-10
1.13269e-10
1.13246e-10
1.13239e-10
1.13225e-10
1.13221e-10
1.13212e-10
1.13211e-10
1.13206e-10
1.13206e-10
1.13203e-10
1.13204e-10
1.13202e-10
1.13202e-10
1.13201e-10
1.13201e-10
1.13201e-10
1.13201e-10
1.13201e-10
1.13201e-10
1.13201e-10
1.13201e-10
1.13201e-10
1.13201e-10
1.13202e-10
1.13202e-10
1.13204e-10
1.13203e-10
1.13206e-10
1.13206e-10
1.13211e-10
1.13212e-10
1.13221e-10
1.13225e-10
1.13239e-10
1.13246e-10
1.13269e-10
1.13276e-10
1.13301e-10
1.1328e-10
1.13241e-10
1.13097e-10
1.1281e-10
1.1242e-10
1.10713e-10
1.11086e-10
1.11361e-10
1.11497e-10
1.11532e-10
1.1155e-10
1.11525e-10
1.11517e-10
1.11494e-10
1.11487e-10
1.11472e-10
1.11469e-10
1.1146e-10
1.11459e-10
1.11453e-10
1.11454e-10
1.1145e-10
1.11451e-10
1.11449e-10
1.1145e-10
1.11448e-10
1.11449e-10
1.11448e-10
1.11448e-10
1.11448e-10
1.11448e-10
1.11448e-10
1.11448e-10
1.11449e-10
1.11448e-10
1.1145e-10
1.11449e-10
1.11451e-10
1.1145e-10
1.11454e-10
1.11453e-10
1.11459e-10
1.1146e-10
1.11469e-10
1.11472e-10
1.11487e-10
1.11494e-10
1.11517e-10
1.11525e-10
1.1155e-10
1.11531e-10
1.11497e-10
1.11361e-10
1.11086e-10
1.10713e-10
1.09041e-10
1.09399e-10
1.09661e-10
1.09789e-10
1.0982e-10
1.09835e-10
1.0981e-10
1.09801e-10
1.09778e-10
1.0977e-10
1.09756e-10
1.09752e-10
1.09744e-10
1.09742e-10
1.09737e-10
1.09737e-10
1.09734e-10
1.09735e-10
1.09733e-10
1.09733e-10
1.09732e-10
1.09733e-10
1.09732e-10
1.09732e-10
1.09732e-10
1.09732e-10
1.09732e-10
1.09732e-10
1.09733e-10
1.09732e-10
1.09733e-10
1.09733e-10
1.09735e-10
1.09734e-10
1.09737e-10
1.09737e-10
1.09742e-10
1.09744e-10
1.09752e-10
1.09756e-10
1.0977e-10
1.09778e-10
1.09801e-10
1.0981e-10
1.09835e-10
1.09819e-10
1.09789e-10
1.09661e-10
1.09399e-10
1.09041e-10
1.07404e-10
1.07746e-10
1.07995e-10
1.08116e-10
1.08142e-10
1.08155e-10
1.08129e-10
1.0812e-10
1.08097e-10
1.08089e-10
1.08075e-10
1.08071e-10
1.08062e-10
1.08061e-10
1.08056e-10
1.08056e-10
1.08053e-10
1.08053e-10
1.08051e-10
1.08052e-10
1.08051e-10
1.08051e-10
1.08051e-10
1.08051e-10
1.08051e-10
1.08051e-10
1.08051e-10
1.08051e-10
1.08051e-10
1.08051e-10
1.08052e-10
1.08051e-10
1.08053e-10
1.08053e-10
1.08056e-10
1.08056e-10
1.08061e-10
1.08062e-10
1.08071e-10
1.08075e-10
1.08089e-10
1.08097e-10
1.0812e-10
1.08129e-10
1.08155e-10
1.08142e-10
1.08116e-10
1.07995e-10
1.07746e-10
1.07404e-10
1.05799e-10
1.06127e-10
1.06362e-10
1.06477e-10
1.06499e-10
1.06509e-10
1.06482e-10
1.06472e-10
1.0645e-10
1.06441e-10
1.06427e-10
1.06423e-10
1.06415e-10
1.06413e-10
1.06408e-10
1.06408e-10
1.06405e-10
1.06406e-10
1.06404e-10
1.06404e-10
1.06403e-10
1.06403e-10
1.06403e-10
1.06403e-10
1.06403e-10
1.06403e-10
1.06403e-10
1.06403e-10
1.06403e-10
1.06403e-10
1.06404e-10
1.06404e-10
1.06406e-10
1.06405e-10
1.06408e-10
1.06408e-10
1.06413e-10
1.06415e-10
1.06423e-10
1.06427e-10
1.06441e-10
1.0645e-10
1.06472e-10
1.06482e-10
1.06508e-10
1.06499e-10
1.06477e-10
1.06362e-10
1.06127e-10
1.05799e-10
1.04226e-10
1.0454e-10
1.04761e-10
1.04869e-10
1.04887e-10
1.04894e-10
1.04867e-10
1.04856e-10
1.04834e-10
1.04826e-10
1.04812e-10
1.04808e-10
1.04799e-10
1.04798e-10
1.04793e-10
1.04793e-10
1.0479e-10
1.0479e-10
1.04788e-10
1.04789e-10
1.04788e-10
1.04788e-10
1.04787e-10
1.04788e-10
1.04787e-10
1.04787e-10
1.04788e-10
1.04787e-10
1.04788e-10
1.04788e-10
1.04789e-10
1.04788e-10
1.0479e-10
1.0479e-10
1.04793e-10
1.04793e-10
1.04798e-10
1.04799e-10
1.04808e-10
1.04812e-10
1.04826e-10
1.04834e-10
1.04856e-10
1.04867e-10
1.04894e-10
1.04887e-10
1.04869e-10
1.04761e-10
1.0454e-10
1.04226e-10
1.02684e-10
1.02984e-10
1.03191e-10
1.03293e-10
1.03307e-10
1.03311e-10
1.03284e-10
1.03272e-10
1.0325e-10
1.03242e-10
1.03228e-10
1.03224e-10
1.03215e-10
1.03214e-10
1.03209e-10
1.03209e-10
1.03206e-10
1.03206e-10
1.03204e-10
1.03205e-10
1.03204e-10
1.03204e-10
1.03203e-10
1.03204e-10
1.03203e-10
1.03203e-10
1.03204e-10
1.03203e-10
1.03204e-10
1.03204e-10
1.03205e-10
1.03204e-10
1.03206e-10
1.03206e-10
1.03209e-10
1.03209e-10
1.03214e-10
1.03215e-10
1.03224e-10
1.03228e-10
1.03242e-10
1.0325e-10
1.03272e-10
1.03284e-10
1.03311e-10
1.03307e-10
1.03293e-10
1.03191e-10
1.02984e-10
1.02684e-10
1.01225e-10
1.01514e-10
1.01706e-10
1.01803e-10
1.01814e-10
1.01815e-10
1.01787e-10
1.01775e-10
1.01753e-10
1.01744e-10
1.01731e-10
1.01726e-10
1.01718e-10
1.01716e-10
1.01711e-10
1.01711e-10
1.01708e-10
1.01709e-10
1.01707e-10
1.01707e-10
1.01706e-10
1.01706e-10
1.01706e-10
1.01706e-10
1.01706e-10
1.01706e-10
1.01706e-10
1.01706e-10
1.01706e-10
1.01706e-10
1.01707e-10
1.01707e-10
1.01709e-10
1.01708e-10
1.01711e-10
1.01711e-10
1.01716e-10
1.01718e-10
1.01726e-10
1.01731e-10
1.01744e-10
1.01753e-10
1.01775e-10
1.01787e-10
1.01815e-10
1.01814e-10
1.01803e-10
1.01706e-10
1.01514e-10
1.01225e-10
9.97732e-11
1.00052e-10
1.00226e-10
1.00315e-10
1.00318e-10
1.00313e-10
1.00283e-10
1.0027e-10
1.00247e-10
1.00237e-10
1.00223e-10
1.00219e-10
1.0021e-10
1.00208e-10
1.00203e-10
1.00203e-10
1.002e-10
1.002e-10
1.00198e-10
1.00199e-10
1.00198e-10
1.00198e-10
1.00197e-10
1.00198e-10
1.00197e-10
1.00197e-10
1.00198e-10
1.00197e-10
1.00198e-10
1.00198e-10
1.00199e-10
1.00198e-10
1.002e-10
1.002e-10
1.00203e-10
1.00203e-10
1.00208e-10
1.0021e-10
1.00219e-10
1.00223e-10
1.00237e-10
1.00247e-10
1.0027e-10
1.00283e-10
1.00313e-10
1.00318e-10
1.00315e-10
1.00226e-10
1.00052e-10
9.97731e-11
9.83196e-11
9.85865e-11
9.87452e-11
9.88292e-11
9.88286e-11
9.882e-11
9.87893e-11
9.87752e-11
9.87527e-11
9.87429e-11
9.8729e-11
9.87242e-11
9.87158e-11
9.87139e-11
9.87089e-11
9.87086e-11
9.87056e-11
9.8706e-11
9.87042e-11
9.87046e-11
9.87035e-11
9.87038e-11
9.87032e-11
9.87034e-11
9.87032e-11
9.87032e-11
9.87034e-11
9.87032e-11
9.87038e-11
9.87035e-11
9.87046e-11
9.87042e-11
9.8706e-11
9.87056e-11
9.87087e-11
9.8709e-11
9.8714e-11
9.87158e-11
9.87242e-11
9.8729e-11
9.87429e-11
9.87527e-11
9.87751e-11
9.87893e-11
9.882e-11
9.88285e-11
9.88291e-11
9.87451e-11
9.85865e-11
9.83195e-11
9.68906e-11
9.71454e-11
9.72899e-11
9.73685e-11
9.73645e-11
9.73519e-11
9.73208e-11
9.73061e-11
9.72839e-11
9.7274e-11
9.72603e-11
9.72553e-11
9.72471e-11
9.72452e-11
9.72402e-11
9.72399e-11
9.72369e-11
9.72373e-11
9.72355e-11
9.72359e-11
9.72348e-11
9.72351e-11
9.72345e-11
9.72347e-11
9.72345e-11
9.72345e-11
9.72347e-11
9.72345e-11
9.72351e-11
9.72348e-11
9.72359e-11
9.72355e-11
9.72373e-11
9.72369e-11
9.72399e-11
9.72403e-11
9.72452e-11
9.72471e-11
9.72553e-11
9.72603e-11
9.7274e-11
9.72839e-11
9.73061e-11
9.73208e-11
9.73519e-11
9.73645e-11
9.73684e-11
9.72898e-11
9.71453e-11
9.68905e-11
9.5486e-11
9.57283e-11
9.58597e-11
9.59327e-11
9.59256e-11
9.59086e-11
9.58772e-11
9.5862e-11
9.58401e-11
9.583e-11
9.58165e-11
9.58115e-11
9.58034e-11
9.58014e-11
9.57966e-11
9.57962e-11
9.57933e-11
9.57936e-11
9.57918e-11
9.57923e-11
9.57911e-11
9.57915e-11
9.57908e-11
9.5791e-11
9.57908e-11
9.57908e-11
9.5791e-11
9.57908e-11
9.57915e-11
9.57911e-11
9.57923e-11
9.57918e-11
9.57936e-11
9.57933e-11
9.57962e-11
9.57966e-11
9.58014e-11
9.58034e-11
9.58115e-11
9.58165e-11
9.583e-11
9.58401e-11
9.5862e-11
9.58772e-11
9.59085e-11
9.59255e-11
9.59326e-11
9.58596e-11
9.57282e-11
9.54859e-11
9.41055e-11
9.43355e-11
9.44541e-11
9.45218e-11
9.45118e-11
9.44899e-11
9.44583e-11
9.44427e-11
9.44211e-11
9.44109e-11
9.43976e-11
9.43925e-11
9.43846e-11
9.43826e-11
9.43778e-11
9.43774e-11
9.43745e-11
9.43749e-11
9.43731e-11
9.43735e-11
9.43724e-11
9.43727e-11
9.43721e-11
9.43723e-11
9.43721e-11
9.43721e-11
9.43723e-11
9.43721e-11
9.43727e-11
9.43724e-11
9.43735e-11
9.43731e-11
9.43749e-11
9.43746e-11
9.43774e-11
9.43778e-11
9.43826e-11
9.43846e-11
9.43925e-11
9.43976e-11
9.44109e-11
9.44211e-11
9.44426e-11
9.44583e-11
9.44898e-11
9.45117e-11
9.45217e-11
9.44541e-11
9.43354e-11
9.41054e-11
9.27961e-11
9.30155e-11
9.31221e-11
9.31848e-11
9.3172e-11
9.3145e-11
9.31132e-11
9.30971e-11
9.30758e-11
9.30655e-11
9.30524e-11
9.30472e-11
9.30394e-11
9.30373e-11
9.30326e-11
9.30322e-11
9.30294e-11
9.30297e-11
9.30279e-11
9.30283e-11
9.30272e-11
9.30276e-11
9.3027e-11
9.30272e-11
9.3027e-11
9.3027e-11
9.30272e-11
9.3027e-11
9.30276e-11
9.30273e-11
9.30283e-11
9.30279e-11
9.30297e-11
9.30294e-11
9.30322e-11
9.30327e-11
9.30373e-11
9.30394e-11
9.30472e-11
9.30524e-11
9.30655e-11
9.30758e-11
9.30971e-11
9.31132e-11
9.3145e-11
9.31719e-11
9.31847e-11
9.3122e-11
9.30154e-11
9.2796e-11
9.15105e-11
9.17193e-11
9.18147e-11
9.18724e-11
9.18571e-11
9.18248e-11
9.17928e-11
9.17753e-11
9.17522e-11
9.17408e-11
9.17268e-11
9.17211e-11
9.17128e-11
9.17104e-11
9.17055e-11
9.17049e-11
9.1702e-11
9.17022e-11
9.17003e-11
9.17007e-11
9.16996e-11
9.16999e-11
9.16993e-11
9.16994e-11
9.16992e-11
9.16993e-11
9.16995e-11
9.16993e-11
9.16999e-11
9.16996e-11
9.17007e-11
9.17004e-11
9.17022e-11
9.1702e-11
9.1705e-11
9.17055e-11
9.17105e-11
9.17128e-11
9.17211e-11
9.17268e-11
9.17408e-11
9.17522e-11
9.17753e-11
9.17927e-11
9.18248e-11
9.1857e-11
9.18724e-11
9.18146e-11
9.17193e-11
9.15104e-11
9.02069e-11
9.04057e-11
9.04886e-11
9.05405e-11
9.05217e-11
9.04833e-11
9.04505e-11
9.0432e-11
9.04086e-11
9.03967e-11
9.03826e-11
9.03767e-11
9.03683e-11
9.03659e-11
9.03609e-11
9.03603e-11
9.03573e-11
9.03575e-11
9.03557e-11
9.0356e-11
9.03549e-11
9.03552e-11
9.03546e-11
9.03548e-11
9.03546e-11
9.03546e-11
9.03548e-11
9.03546e-11
9.03552e-11
9.03549e-11
9.0356e-11
9.03557e-11
9.03575e-11
9.03573e-11
9.03603e-11
9.0361e-11
9.03659e-11
9.03684e-11
9.03767e-11
9.03826e-11
9.03967e-11
9.04086e-11
9.0432e-11
9.04505e-11
9.04833e-11
9.05217e-11
9.05404e-11
9.04886e-11
9.04056e-11
9.02068e-11
8.89175e-11
8.91041e-11
8.91769e-11
8.92233e-11
8.92032e-11
8.92063e-11
8.91735e-11
8.91547e-11
8.91314e-11
8.91194e-11
8.91054e-11
8.90994e-11
8.90911e-11
8.90887e-11
8.90837e-11
8.90831e-11
8.90801e-11
8.90803e-11
8.90785e-11
8.90788e-11
8.90777e-11
8.9078e-11
8.90774e-11
8.90776e-11
8.90774e-11
8.90774e-11
8.90776e-11
8.90774e-11
8.9078e-11
8.90777e-11
8.90789e-11
8.90785e-11
8.90803e-11
8.90802e-11
8.90831e-11
8.90838e-11
8.90887e-11
8.90912e-11
8.90994e-11
8.91054e-11
8.91194e-11
8.91314e-11
8.91546e-11
8.91735e-11
8.92062e-11
8.92031e-11
8.92232e-11
8.91768e-11
8.9104e-11
8.89175e-11
8.76922e-11
8.78687e-11
8.7931e-11
8.79728e-11
8.79509e-11
8.79519e-11
8.79191e-11
8.78999e-11
8.78768e-11
8.78647e-11
8.78508e-11
8.78448e-11
8.78366e-11
8.78341e-11
8.78293e-11
8.78286e-11
8.78257e-11
8.78258e-11
8.7824e-11
8.78244e-11
8.78233e-11
8.78236e-11
8.78229e-11
8.78231e-11
8.78229e-11
8.78229e-11
8.78231e-11
8.7823e-11
8.78236e-11
8.78233e-11
8.78244e-11
8.7824e-11
8.78258e-11
8.78257e-11
8.78286e-11
8.78293e-11
8.78342e-11
8.78367e-11
8.78448e-11
8.78509e-11
8.78647e-11
8.78768e-11
8.78999e-11
8.79191e-11
8.79518e-11
8.79509e-11
8.79727e-11
8.7931e-11
8.78686e-11
8.76922e-11
8.64811e-11
8.66514e-11
8.67012e-11
8.67361e-11
8.67082e-11
8.67042e-11
8.66693e-11
8.66485e-11
8.66245e-11
8.66117e-11
8.65974e-11
8.65911e-11
8.65827e-11
8.658e-11
8.6575e-11
8.65742e-11
8.65712e-11
8.65713e-11
8.65695e-11
8.65698e-11
8.65687e-11
8.6569e-11
8.65684e-11
8.65686e-11
8.65684e-11
8.65684e-11
8.65686e-11
8.65684e-11
8.6569e-11
8.65687e-11
8.65699e-11
8.65695e-11
8.65714e-11
8.65713e-11
8.65743e-11
8.6575e-11
8.658e-11
8.65827e-11
8.65911e-11
8.65975e-11
8.66117e-11
8.66245e-11
8.66485e-11
8.66693e-11
8.67041e-11
8.67082e-11
8.6736e-11
8.67012e-11
8.66513e-11
8.6481e-11
8.52978e-11
8.54585e-11
8.54986e-11
8.55289e-11
8.54989e-11
8.54917e-11
8.54567e-11
8.54356e-11
8.54117e-11
8.53988e-11
8.53847e-11
8.53783e-11
8.53699e-11
8.53673e-11
8.53623e-11
8.53615e-11
8.53586e-11
8.53586e-11
8.53569e-11
8.53572e-11
8.53561e-11
8.53563e-11
8.53557e-11
8.53559e-11
8.53557e-11
8.53557e-11
8.53559e-11
8.53557e-11
8.53563e-11
8.53561e-11
8.53572e-11
8.53569e-11
8.53587e-11
8.53586e-11
8.53616e-11
8.53624e-11
8.53673e-11
8.537e-11
8.53783e-11
8.53847e-11
8.53989e-11
8.54118e-11
8.54356e-11
8.54567e-11
8.54917e-11
8.54988e-11
8.55288e-11
8.54985e-11
8.54585e-11
8.52977e-11
8.41345e-11
8.42859e-11
8.43165e-11
8.43425e-11
8.43104e-11
8.43004e-11
8.42654e-11
8.42439e-11
8.42203e-11
8.42073e-11
8.41933e-11
8.41869e-11
8.41786e-11
8.41759e-11
8.4171e-11
8.41703e-11
8.41673e-11
8.41674e-11
8.41656e-11
8.41659e-11
8.41649e-11
8.41651e-11
8.41645e-11
8.41647e-11
8.41645e-11
8.41645e-11
8.41647e-11
8.41645e-11
8.41651e-11
8.41649e-11
8.4166e-11
8.41657e-11
8.41675e-11
8.41674e-11
8.41703e-11
8.41711e-11
8.4176e-11
8.41787e-11
8.4187e-11
8.41934e-11
8.42074e-11
8.42203e-11
8.42439e-11
8.42654e-11
8.43004e-11
8.43104e-11
8.43425e-11
8.43165e-11
8.42858e-11
8.41344e-11
8.29954e-11
8.29957e-11
8.29946e-11
8.29949e-11
8.29943e-11
8.29944e-11
8.29943e-11
8.29943e-11
8.29945e-11
8.29943e-11
8.29949e-11
8.29946e-11
8.29957e-11
8.29954e-11
8.29972e-11
8.29971e-11
8.30001e-11
8.30009e-11
8.30057e-11
8.30084e-11
8.30165e-11
8.30229e-11
8.30367e-11
8.30497e-11
8.30731e-11
8.30948e-11
8.31298e-11
8.31424e-11
8.31766e-11
8.31547e-11
8.31329e-11
8.29908e-11
8.18455e-11
8.18452e-11
8.18463e-11
8.1846e-11
8.18477e-11
8.18477e-11
8.18505e-11
8.18513e-11
8.18561e-11
8.18588e-11
8.18668e-11
8.18732e-11
8.18869e-11
8.18998e-11
8.19229e-11
8.19448e-11
8.19797e-11
8.19946e-11
8.20309e-11
8.2013e-11
8.19996e-11
8.18666e-11
8.07577e-11
8.07707e-11
8.07934e-11
8.08153e-11
8.08502e-11
8.0867e-11
8.09055e-11
8.08913e-11
8.08859e-11
8.07617e-11
)
;

boundaryField
{
    fuel
    {
        type            fixedValue;
        value           nonuniform 0();
    }
    wall
    {
        type            zeroGradient;
    }
    outlet
    {
        type            zeroGradient;
    }
    frontAndBack
    {
        type            empty;
    }
    procBoundary0to1
    {
        type            processor;
        value           nonuniform List<scalar> 
50
(
1.55381e-10
1.56001e-10
1.56599e-10
1.5691e-10
1.57029e-10
1.57098e-10
1.5708e-10
1.5709e-10
1.57065e-10
1.57067e-10
1.57051e-10
1.57053e-10
1.57043e-10
1.57045e-10
1.57038e-10
1.57041e-10
1.57036e-10
1.57039e-10
1.57036e-10
1.57037e-10
1.57036e-10
1.57037e-10
1.57035e-10
1.57036e-10
1.57036e-10
1.57036e-10
1.57036e-10
1.57035e-10
1.57037e-10
1.57036e-10
1.57037e-10
1.57036e-10
1.57039e-10
1.57036e-10
1.57041e-10
1.57038e-10
1.57045e-10
1.57043e-10
1.57053e-10
1.57051e-10
1.57067e-10
1.57064e-10
1.5709e-10
1.5708e-10
1.57098e-10
1.57029e-10
1.5691e-10
1.56599e-10
1.56001e-10
1.55381e-10
)
;
    }
    procBoundary0to2
    {
        type            processor;
        value           nonuniform List<scalar> 
53
(
8.29909e-11
8.3133e-11
8.31548e-11
8.31766e-11
8.31424e-11
8.31298e-11
8.30948e-11
8.30731e-11
8.30497e-11
8.30367e-11
8.30229e-11
8.30165e-11
8.30083e-11
8.30056e-11
8.30008e-11
8.3e-11
8.29971e-11
8.29972e-11
8.29972e-11
8.1846e-11
8.18463e-11
8.18452e-11
8.18455e-11
8.18449e-11
8.18451e-11
8.18449e-11
8.18449e-11
8.18451e-11
8.18449e-11
8.18449e-11
8.07169e-11
8.07166e-11
8.07177e-11
8.07174e-11
8.07191e-11
8.07191e-11
8.07219e-11
8.07227e-11
8.07274e-11
8.07301e-11
8.0738e-11
8.07443e-11
8.07443e-11
7.96494e-11
7.96623e-11
7.96846e-11
7.97066e-11
7.97413e-11
7.97597e-11
7.98004e-11
7.97898e-11
7.97918e-11
7.96763e-11
)
;
    }
}


// ************************************************************************* //
