/*--------------------------------*- C++ -*----------------------------------*\
| =========                 |                                                 |
| \\      /  F ield         | OpenFOAM: The Open Source CFD Toolbox           |
|  \\    /   O peration     | Version:  dev                                   |
|   \\  /    A nd           | Web:      www.OpenFOAM.org                      |
|    \\/     M anipulation  |                                                 |
\*---------------------------------------------------------------------------*/
FoamFile
{
    version     2.0;
    format      ascii;
    class       volScalarField;
    location    "0.09";
    object      n-A1C2H2;
}
// * * * * * * * * * * * * * * * * * * * * * * * * * * * * * * * * * * * * * //

dimensions      [0 0 0 0 0 0 0];

internalField   nonuniform List<scalar> 
2014
(
5.22355e-11
5.25494e-11
5.28378e-11
5.29834e-11
5.30238e-11
5.30544e-11
5.3036e-11
5.30443e-11
5.30286e-11
5.30341e-11
5.30248e-11
5.30291e-11
5.30232e-11
5.30265e-11
5.30227e-11
5.30253e-11
5.30226e-11
5.30247e-11
5.3023e-11
5.30244e-11
5.30232e-11
5.3024e-11
5.30233e-11
5.30238e-11
5.30236e-11
5.30236e-11
5.30238e-11
5.30233e-11
5.3024e-11
5.30232e-11
5.30244e-11
5.3023e-11
5.30247e-11
5.30226e-11
5.30253e-11
5.30227e-11
5.30265e-11
5.30233e-11
5.30291e-11
5.30248e-11
5.30341e-11
5.30286e-11
5.30443e-11
5.3036e-11
5.30543e-11
5.30238e-11
5.29834e-11
5.28377e-11
5.25494e-11
5.22356e-11
4.99546e-11
5.02556e-11
5.05283e-11
5.06664e-11
5.07054e-11
5.07345e-11
5.07174e-11
5.07249e-11
5.07102e-11
5.07151e-11
5.07064e-11
5.07103e-11
5.07048e-11
5.07077e-11
5.07042e-11
5.07066e-11
5.07041e-11
5.07061e-11
5.07045e-11
5.07057e-11
5.07047e-11
5.07054e-11
5.07048e-11
5.07052e-11
5.0705e-11
5.0705e-11
5.07052e-11
5.07048e-11
5.07054e-11
5.07047e-11
5.07057e-11
5.07045e-11
5.07061e-11
5.07041e-11
5.07066e-11
5.07042e-11
5.07078e-11
5.07048e-11
5.07103e-11
5.07064e-11
5.07151e-11
5.07102e-11
5.07249e-11
5.07174e-11
5.07344e-11
5.07054e-11
5.06663e-11
5.05282e-11
5.02556e-11
4.99546e-11
4.78617e-11
4.81509e-11
4.84085e-11
4.85395e-11
4.85771e-11
4.86048e-11
4.85889e-11
4.85957e-11
4.85819e-11
4.85862e-11
4.85781e-11
4.85816e-11
4.85765e-11
4.85792e-11
4.85759e-11
4.85781e-11
4.85758e-11
4.85776e-11
4.85761e-11
4.85773e-11
4.85763e-11
4.8577e-11
4.85764e-11
4.85767e-11
4.85766e-11
4.85766e-11
4.85767e-11
4.85764e-11
4.8577e-11
4.85763e-11
4.85773e-11
4.85761e-11
4.85776e-11
4.85758e-11
4.85781e-11
4.85759e-11
4.85792e-11
4.85765e-11
4.85816e-11
4.85781e-11
4.85862e-11
4.85819e-11
4.85957e-11
4.85889e-11
4.86047e-11
4.85771e-11
4.85394e-11
4.84084e-11
4.81509e-11
4.78617e-11
4.59363e-11
4.6215e-11
4.64579e-11
4.65823e-11
4.66186e-11
4.66448e-11
4.663e-11
4.66362e-11
4.66233e-11
4.66271e-11
4.66195e-11
4.66227e-11
4.66178e-11
4.66203e-11
4.66172e-11
4.66193e-11
4.66171e-11
4.66188e-11
4.66174e-11
4.66185e-11
4.66176e-11
4.66182e-11
4.66177e-11
4.6618e-11
4.66179e-11
4.66179e-11
4.6618e-11
4.66177e-11
4.66182e-11
4.66176e-11
4.66185e-11
4.66174e-11
4.66188e-11
4.66171e-11
4.66193e-11
4.66172e-11
4.66203e-11
4.66178e-11
4.66226e-11
4.66195e-11
4.66271e-11
4.66233e-11
4.66362e-11
4.663e-11
4.66448e-11
4.66186e-11
4.65823e-11
4.64578e-11
4.6215e-11
4.59363e-11
4.41608e-11
4.44293e-11
4.46593e-11
4.47769e-11
4.48118e-11
4.48368e-11
4.4823e-11
4.48286e-11
4.48165e-11
4.48199e-11
4.48127e-11
4.48156e-11
4.4811e-11
4.48133e-11
4.48104e-11
4.48123e-11
4.48103e-11
4.48119e-11
4.48106e-11
4.48116e-11
4.48107e-11
4.48113e-11
4.48108e-11
4.48112e-11
4.4811e-11
4.4811e-11
4.48112e-11
4.48108e-11
4.48114e-11
4.48107e-11
4.48116e-11
4.48106e-11
4.48119e-11
4.48103e-11
4.48123e-11
4.48104e-11
4.48133e-11
4.4811e-11
4.48155e-11
4.48127e-11
4.48199e-11
4.48165e-11
4.48286e-11
4.4823e-11
4.48367e-11
4.48118e-11
4.47769e-11
4.46593e-11
4.44293e-11
4.41608e-11
4.25198e-11
4.27788e-11
4.29965e-11
4.31078e-11
4.31412e-11
4.3165e-11
4.31521e-11
4.31572e-11
4.31459e-11
4.31489e-11
4.31421e-11
4.31447e-11
4.31404e-11
4.31425e-11
4.31398e-11
4.31416e-11
4.31397e-11
4.31412e-11
4.314e-11
4.31409e-11
4.31401e-11
4.31407e-11
4.31402e-11
4.31405e-11
4.31404e-11
4.31404e-11
4.31405e-11
4.31402e-11
4.31407e-11
4.31401e-11
4.31409e-11
4.314e-11
4.31412e-11
4.31397e-11
4.31416e-11
4.31398e-11
4.31426e-11
4.31405e-11
4.31447e-11
4.31421e-11
4.31489e-11
4.31458e-11
4.31572e-11
4.31521e-11
4.31649e-11
4.31412e-11
4.31078e-11
4.29965e-11
4.27788e-11
4.25199e-11
4.09999e-11
4.12499e-11
4.14559e-11
4.15612e-11
4.15931e-11
4.16158e-11
4.16038e-11
4.16084e-11
4.15978e-11
4.16004e-11
4.15941e-11
4.15964e-11
4.15924e-11
4.15943e-11
4.15918e-11
4.15934e-11
4.15917e-11
4.15931e-11
4.15919e-11
4.15928e-11
4.15921e-11
4.15926e-11
4.15921e-11
4.15924e-11
4.15923e-11
4.15923e-11
4.15924e-11
4.15921e-11
4.15926e-11
4.15921e-11
4.15928e-11
4.15919e-11
4.15931e-11
4.15917e-11
4.15934e-11
4.15918e-11
4.15944e-11
4.15924e-11
4.15964e-11
4.15941e-11
4.16004e-11
4.15977e-11
4.16084e-11
4.16038e-11
4.16157e-11
4.15931e-11
4.15611e-11
4.14558e-11
4.12499e-11
4.09999e-11
3.95891e-11
3.98305e-11
4.00254e-11
4.0125e-11
4.01556e-11
4.01772e-11
4.0166e-11
4.01702e-11
4.01602e-11
4.01626e-11
4.01566e-11
4.01587e-11
4.01549e-11
4.01567e-11
4.01543e-11
4.01559e-11
4.01542e-11
4.01555e-11
4.01545e-11
4.01553e-11
4.01546e-11
4.01551e-11
4.01547e-11
4.01549e-11
4.01548e-11
4.01548e-11
4.01549e-11
4.01547e-11
4.01551e-11
4.01546e-11
4.01553e-11
4.01545e-11
4.01555e-11
4.01542e-11
4.01559e-11
4.01543e-11
4.01567e-11
4.0155e-11
4.01587e-11
4.01566e-11
4.01626e-11
4.01602e-11
4.01702e-11
4.0166e-11
4.01772e-11
4.01556e-11
4.0125e-11
4.00254e-11
3.98305e-11
3.95891e-11
3.82771e-11
3.85101e-11
3.86946e-11
3.87889e-11
3.88181e-11
3.88387e-11
3.88283e-11
3.88321e-11
3.88227e-11
3.88248e-11
3.88191e-11
3.8821e-11
3.88175e-11
3.88192e-11
3.88169e-11
3.88184e-11
3.88168e-11
3.88181e-11
3.88171e-11
3.88179e-11
3.88172e-11
3.88177e-11
3.88173e-11
3.88175e-11
3.88174e-11
3.88174e-11
3.88175e-11
3.88173e-11
3.88177e-11
3.88172e-11
3.88179e-11
3.88171e-11
3.88181e-11
3.88168e-11
3.88184e-11
3.88169e-11
3.88192e-11
3.88175e-11
3.8821e-11
3.88191e-11
3.88248e-11
3.88227e-11
3.88321e-11
3.88283e-11
3.88386e-11
3.88181e-11
3.87889e-11
3.86945e-11
3.85101e-11
3.82771e-11
3.70548e-11
3.72795e-11
3.74541e-11
3.75435e-11
3.75714e-11
3.7591e-11
3.75813e-11
3.75848e-11
3.75759e-11
3.75778e-11
3.75725e-11
3.75742e-11
3.75709e-11
3.75725e-11
3.75703e-11
3.75717e-11
3.75702e-11
3.75714e-11
3.75705e-11
3.75712e-11
3.75706e-11
3.75711e-11
3.75707e-11
3.75709e-11
3.75708e-11
3.75708e-11
3.75709e-11
3.75707e-11
3.75711e-11
3.75706e-11
3.75712e-11
3.75705e-11
3.75714e-11
3.75703e-11
3.75717e-11
3.75704e-11
3.75725e-11
3.75709e-11
3.75742e-11
3.75725e-11
3.75778e-11
3.75759e-11
3.75848e-11
3.75813e-11
3.7591e-11
3.75714e-11
3.75434e-11
3.74541e-11
3.72795e-11
3.70548e-11
3.59141e-11
3.61306e-11
3.6296e-11
3.63806e-11
3.64073e-11
3.6426e-11
3.6417e-11
3.64202e-11
3.64118e-11
3.64135e-11
3.64085e-11
3.64101e-11
3.6407e-11
3.64084e-11
3.64064e-11
3.64077e-11
3.64064e-11
3.64074e-11
3.64066e-11
3.64073e-11
3.64067e-11
3.64071e-11
3.64068e-11
3.6407e-11
3.64069e-11
3.64069e-11
3.6407e-11
3.64068e-11
3.64071e-11
3.64067e-11
3.64073e-11
3.64066e-11
3.64074e-11
3.64064e-11
3.64077e-11
3.64064e-11
3.64084e-11
3.6407e-11
3.64101e-11
3.64085e-11
3.64135e-11
3.64118e-11
3.64202e-11
3.6417e-11
3.64259e-11
3.64073e-11
3.63806e-11
3.6296e-11
3.61306e-11
3.59141e-11
3.48479e-11
3.50561e-11
3.5213e-11
3.52932e-11
3.53187e-11
3.53365e-11
3.53281e-11
3.53311e-11
3.53233e-11
3.53247e-11
3.532e-11
3.53215e-11
3.53186e-11
3.53199e-11
3.5318e-11
3.53192e-11
3.5318e-11
3.5319e-11
3.53182e-11
3.53189e-11
3.53183e-11
3.53187e-11
3.53184e-11
3.53186e-11
3.53185e-11
3.53185e-11
3.53186e-11
3.53184e-11
3.53187e-11
3.53183e-11
3.53189e-11
3.53182e-11
3.5319e-11
3.5318e-11
3.53192e-11
3.53181e-11
3.53199e-11
3.53186e-11
3.53215e-11
3.532e-11
3.53247e-11
3.53232e-11
3.53311e-11
3.53281e-11
3.53365e-11
3.53187e-11
3.52932e-11
3.5213e-11
3.50562e-11
3.48479e-11
3.38501e-11
3.40498e-11
3.41988e-11
3.42748e-11
3.42992e-11
3.43162e-11
3.43084e-11
3.43112e-11
3.43038e-11
3.43051e-11
3.43007e-11
3.43021e-11
3.42993e-11
3.43006e-11
3.42988e-11
3.43e-11
3.42988e-11
3.42998e-11
3.4299e-11
3.42997e-11
3.42991e-11
3.42995e-11
3.42992e-11
3.42994e-11
3.42993e-11
3.42993e-11
3.42994e-11
3.42992e-11
3.42995e-11
3.42991e-11
3.42997e-11
3.4299e-11
3.42998e-11
3.42988e-11
3.43e-11
3.42989e-11
3.43006e-11
3.42994e-11
3.43021e-11
3.43007e-11
3.43051e-11
3.43038e-11
3.43112e-11
3.43084e-11
3.43162e-11
3.42992e-11
3.42748e-11
3.41988e-11
3.40499e-11
3.38501e-11
3.29151e-11
3.31062e-11
3.32478e-11
3.332e-11
3.33433e-11
3.33595e-11
3.33523e-11
3.33548e-11
3.3348e-11
3.33492e-11
3.3345e-11
3.33463e-11
3.33437e-11
3.33449e-11
3.33433e-11
3.33443e-11
3.33432e-11
3.33442e-11
3.33434e-11
3.33441e-11
3.33436e-11
3.33439e-11
3.33436e-11
3.33438e-11
3.33438e-11
3.33438e-11
3.33438e-11
3.33437e-11
3.33439e-11
3.33436e-11
3.33441e-11
3.33434e-11
3.33442e-11
3.33432e-11
3.33443e-11
3.33433e-11
3.33449e-11
3.33437e-11
3.33463e-11
3.3345e-11
3.33492e-11
3.3348e-11
3.33548e-11
3.33523e-11
3.33594e-11
3.33433e-11
3.332e-11
3.32478e-11
3.31062e-11
3.29151e-11
3.20379e-11
3.22203e-11
3.23551e-11
3.24237e-11
3.24459e-11
3.24614e-11
3.24548e-11
3.24572e-11
3.24508e-11
3.24519e-11
3.2448e-11
3.24492e-11
3.24468e-11
3.24479e-11
3.24464e-11
3.24474e-11
3.24463e-11
3.24472e-11
3.24466e-11
3.24472e-11
3.24467e-11
3.2447e-11
3.24468e-11
3.2447e-11
3.24469e-11
3.24469e-11
3.2447e-11
3.24468e-11
3.24471e-11
3.24467e-11
3.24472e-11
3.24466e-11
3.24472e-11
3.24464e-11
3.24474e-11
3.24464e-11
3.24479e-11
3.24468e-11
3.24492e-11
3.2448e-11
3.24519e-11
3.24508e-11
3.24572e-11
3.24548e-11
3.24614e-11
3.24459e-11
3.24237e-11
3.23551e-11
3.22203e-11
3.20378e-11
3.1214e-11
3.13878e-11
3.15163e-11
3.15816e-11
3.16028e-11
3.16176e-11
3.16116e-11
3.16138e-11
3.16079e-11
3.16089e-11
3.16053e-11
3.16064e-11
3.16041e-11
3.16052e-11
3.16038e-11
3.16047e-11
3.16038e-11
3.16046e-11
3.1604e-11
3.16046e-11
3.16041e-11
3.16045e-11
3.16042e-11
3.16044e-11
3.16043e-11
3.16043e-11
3.16044e-11
3.16042e-11
3.16045e-11
3.16041e-11
3.16046e-11
3.1604e-11
3.16046e-11
3.16038e-11
3.16047e-11
3.16038e-11
3.16052e-11
3.16041e-11
3.16064e-11
3.16053e-11
3.16089e-11
3.16079e-11
3.16138e-11
3.16116e-11
3.16176e-11
3.16028e-11
3.15816e-11
3.15163e-11
3.13879e-11
3.1214e-11
3.04397e-11
3.0605e-11
3.07276e-11
3.07898e-11
3.081e-11
3.08243e-11
3.08187e-11
3.08209e-11
3.08154e-11
3.08163e-11
3.0813e-11
3.0814e-11
3.08119e-11
3.08129e-11
3.08116e-11
3.08125e-11
3.08116e-11
3.08124e-11
3.08119e-11
3.08124e-11
3.0812e-11
3.08123e-11
3.08121e-11
3.08123e-11
3.08122e-11
3.08122e-11
3.08123e-11
3.08121e-11
3.08123e-11
3.0812e-11
3.08124e-11
3.08119e-11
3.08124e-11
3.08116e-11
3.08125e-11
3.08116e-11
3.08129e-11
3.08119e-11
3.0814e-11
3.0813e-11
3.08163e-11
3.08154e-11
3.08209e-11
3.08187e-11
3.08242e-11
3.081e-11
3.07898e-11
3.07276e-11
3.06051e-11
3.04397e-11
2.97115e-11
2.98685e-11
2.99856e-11
3.00448e-11
3.00641e-11
3.00778e-11
3.00728e-11
3.0075e-11
3.00698e-11
3.00707e-11
3.00676e-11
3.00686e-11
3.00667e-11
3.00677e-11
3.00664e-11
3.00673e-11
3.00665e-11
3.00673e-11
3.00667e-11
3.00673e-11
3.00669e-11
3.00672e-11
3.0067e-11
3.00671e-11
3.00671e-11
3.00671e-11
3.00671e-11
3.0067e-11
3.00672e-11
3.00669e-11
3.00673e-11
3.00667e-11
3.00673e-11
3.00665e-11
3.00673e-11
3.00664e-11
3.00677e-11
3.00667e-11
3.00686e-11
3.00676e-11
3.00707e-11
3.00698e-11
3.0075e-11
3.00728e-11
3.00778e-11
3.00641e-11
3.00448e-11
2.99856e-11
2.98686e-11
2.97115e-11
2.90263e-11
2.91753e-11
2.92872e-11
2.93436e-11
2.93621e-11
2.93753e-11
2.93708e-11
2.93729e-11
2.93682e-11
2.93691e-11
2.93662e-11
2.93672e-11
2.93654e-11
2.93663e-11
2.93652e-11
2.93661e-11
2.93653e-11
2.93661e-11
2.93656e-11
2.93661e-11
2.93657e-11
2.9366e-11
2.93658e-11
2.9366e-11
2.93659e-11
2.93659e-11
2.9366e-11
2.93658e-11
2.9366e-11
2.93657e-11
2.93661e-11
2.93656e-11
2.93661e-11
2.93653e-11
2.93661e-11
2.93652e-11
2.93664e-11
2.93654e-11
2.93672e-11
2.93662e-11
2.93691e-11
2.93682e-11
2.93729e-11
2.93708e-11
2.93753e-11
2.93621e-11
2.93436e-11
2.92872e-11
2.91753e-11
2.90263e-11
2.83814e-11
2.85224e-11
2.86299e-11
2.86835e-11
2.87013e-11
2.8714e-11
2.871e-11
2.87121e-11
2.87078e-11
2.87087e-11
2.87061e-11
2.8707e-11
2.87054e-11
2.87063e-11
2.87052e-11
2.87061e-11
2.87054e-11
2.87061e-11
2.87056e-11
2.87061e-11
2.87058e-11
2.87061e-11
2.87059e-11
2.8706e-11
2.8706e-11
2.8706e-11
2.8706e-11
2.87059e-11
2.87061e-11
2.87058e-11
2.87061e-11
2.87056e-11
2.87061e-11
2.87054e-11
2.87061e-11
2.87052e-11
2.87063e-11
2.87054e-11
2.8707e-11
2.87061e-11
2.87087e-11
2.87078e-11
2.87121e-11
2.871e-11
2.8714e-11
2.87012e-11
2.86835e-11
2.86299e-11
2.85224e-11
2.83814e-11
2.77742e-11
2.79079e-11
2.8011e-11
2.8062e-11
2.80791e-11
2.80914e-11
2.8088e-11
2.80901e-11
2.80862e-11
2.80871e-11
2.80847e-11
2.80856e-11
2.80841e-11
2.8085e-11
2.8084e-11
2.80849e-11
2.80842e-11
2.80849e-11
2.80845e-11
2.8085e-11
2.80846e-11
2.80849e-11
2.80847e-11
2.80849e-11
2.80848e-11
2.80848e-11
2.80849e-11
2.80848e-11
2.80849e-11
2.80847e-11
2.8085e-11
2.80845e-11
2.80849e-11
2.80842e-11
2.80849e-11
2.80841e-11
2.8085e-11
2.80841e-11
2.80856e-11
2.80847e-11
2.80871e-11
2.80862e-11
2.80901e-11
2.8088e-11
2.80914e-11
2.80791e-11
2.8062e-11
2.8011e-11
2.79079e-11
2.77742e-11
2.72028e-11
2.73295e-11
2.74283e-11
2.74769e-11
2.74935e-11
2.75054e-11
2.75025e-11
2.75046e-11
2.75012e-11
2.75021e-11
2.74999e-11
2.75008e-11
2.74995e-11
2.75004e-11
2.74995e-11
2.75003e-11
2.74997e-11
2.75004e-11
2.75e-11
2.75005e-11
2.75002e-11
2.75005e-11
2.75003e-11
2.75004e-11
2.75004e-11
2.75004e-11
2.75004e-11
2.75003e-11
2.75005e-11
2.75002e-11
2.75005e-11
2.75e-11
2.75004e-11
2.74997e-11
2.75003e-11
2.74995e-11
2.75004e-11
2.74995e-11
2.75008e-11
2.74999e-11
2.75021e-11
2.75012e-11
2.75046e-11
2.75025e-11
2.75054e-11
2.74935e-11
2.74769e-11
2.74283e-11
2.73295e-11
2.72028e-11
2.66651e-11
2.67854e-11
2.68799e-11
2.69264e-11
2.69426e-11
2.69541e-11
2.69517e-11
2.69539e-11
2.69509e-11
2.69518e-11
2.69499e-11
2.69508e-11
2.69496e-11
2.69505e-11
2.69497e-11
2.69505e-11
2.695e-11
2.69506e-11
2.69503e-11
2.69507e-11
2.69504e-11
2.69507e-11
2.69506e-11
2.69507e-11
2.69506e-11
2.69506e-11
2.69507e-11
2.69506e-11
2.69507e-11
2.69505e-11
2.69507e-11
2.69503e-11
2.69506e-11
2.695e-11
2.69505e-11
2.69497e-11
2.69505e-11
2.69496e-11
2.69508e-11
2.69499e-11
2.69518e-11
2.69509e-11
2.69539e-11
2.69517e-11
2.69541e-11
2.69426e-11
2.69264e-11
2.68799e-11
2.67854e-11
2.66651e-11
2.61596e-11
2.62737e-11
2.63641e-11
2.64088e-11
2.64245e-11
2.64357e-11
2.64339e-11
2.64362e-11
2.64335e-11
2.64345e-11
2.64329e-11
2.64338e-11
2.64328e-11
2.64336e-11
2.64329e-11
2.64337e-11
2.64332e-11
2.64339e-11
2.64335e-11
2.6434e-11
2.64337e-11
2.6434e-11
2.64338e-11
2.6434e-11
2.64339e-11
2.64339e-11
2.6434e-11
2.64339e-11
2.6434e-11
2.64337e-11
2.6434e-11
2.64335e-11
2.64339e-11
2.64332e-11
2.64337e-11
2.64329e-11
2.64336e-11
2.64328e-11
2.64338e-11
2.64329e-11
2.64345e-11
2.64335e-11
2.64362e-11
2.64339e-11
2.64357e-11
2.64245e-11
2.64088e-11
2.63641e-11
2.62738e-11
2.61596e-11
2.56847e-11
2.57932e-11
2.58793e-11
2.59224e-11
2.59379e-11
2.59488e-11
2.59475e-11
2.59499e-11
2.59477e-11
2.59488e-11
2.59474e-11
2.59483e-11
2.59474e-11
2.59483e-11
2.59477e-11
2.59484e-11
2.5948e-11
2.59486e-11
2.59484e-11
2.59488e-11
2.59486e-11
2.59488e-11
2.59487e-11
2.59488e-11
2.59488e-11
2.59488e-11
2.59488e-11
2.59487e-11
2.59488e-11
2.59486e-11
2.59488e-11
2.59484e-11
2.59486e-11
2.5948e-11
2.59484e-11
2.59477e-11
2.59483e-11
2.59474e-11
2.59483e-11
2.59474e-11
2.59488e-11
2.59477e-11
2.59499e-11
2.59475e-11
2.59488e-11
2.59379e-11
2.59224e-11
2.58793e-11
2.57932e-11
2.56847e-11
2.52546e-11
2.53583e-11
2.54404e-11
2.54823e-11
2.54976e-11
2.55082e-11
2.55074e-11
2.551e-11
2.55081e-11
2.55093e-11
2.55081e-11
2.5509e-11
2.55083e-11
2.55091e-11
2.55086e-11
2.55094e-11
2.5509e-11
2.55096e-11
2.55094e-11
2.55098e-11
2.55096e-11
2.55098e-11
2.55097e-11
2.55099e-11
2.55098e-11
2.55098e-11
2.55099e-11
2.55097e-11
2.55098e-11
2.55096e-11
2.55098e-11
2.55094e-11
2.55096e-11
2.5509e-11
2.55094e-11
2.55087e-11
2.55091e-11
2.55083e-11
2.5509e-11
2.55081e-11
2.55093e-11
2.55081e-11
2.551e-11
2.55074e-11
2.55082e-11
2.54976e-11
2.54823e-11
2.54405e-11
2.53583e-11
2.52546e-11
2.48462e-11
2.49458e-11
2.50228e-11
2.50629e-11
2.50771e-11
2.50868e-11
2.5086e-11
2.50884e-11
2.50866e-11
2.50878e-11
2.50866e-11
2.50876e-11
2.50869e-11
2.50877e-11
2.50872e-11
2.50879e-11
2.50876e-11
2.50882e-11
2.5088e-11
2.50884e-11
2.50882e-11
2.50884e-11
2.50883e-11
2.50884e-11
2.50884e-11
2.50884e-11
2.50884e-11
2.50883e-11
2.50884e-11
2.50882e-11
2.50884e-11
2.5088e-11
2.50882e-11
2.50876e-11
2.5088e-11
2.50872e-11
2.50877e-11
2.50869e-11
2.50876e-11
2.50866e-11
2.50878e-11
2.50866e-11
2.50884e-11
2.5086e-11
2.50868e-11
2.50771e-11
2.50629e-11
2.50228e-11
2.49458e-11
2.48462e-11
2.44573e-11
2.45523e-11
2.46254e-11
2.46644e-11
2.46786e-11
2.4688e-11
2.46877e-11
2.46903e-11
2.46889e-11
2.46902e-11
2.46893e-11
2.46903e-11
2.46897e-11
2.46905e-11
2.46902e-11
2.46909e-11
2.46906e-11
2.46912e-11
2.4691e-11
2.46914e-11
2.46912e-11
2.46914e-11
2.46913e-11
2.46915e-11
2.46914e-11
2.46914e-11
2.46915e-11
2.46914e-11
2.46915e-11
2.46912e-11
2.46914e-11
2.4691e-11
2.46912e-11
2.46906e-11
2.46909e-11
2.46902e-11
2.46906e-11
2.46897e-11
2.46903e-11
2.46893e-11
2.46902e-11
2.46889e-11
2.46903e-11
2.46877e-11
2.4688e-11
2.46786e-11
2.46644e-11
2.46254e-11
2.45523e-11
2.44573e-11
2.40944e-11
2.4185e-11
2.42546e-11
2.42927e-11
2.43069e-11
2.43159e-11
2.43162e-11
2.4319e-11
2.43181e-11
2.43194e-11
2.43188e-11
2.43198e-11
2.43194e-11
2.43202e-11
2.432e-11
2.43207e-11
2.43205e-11
2.4321e-11
2.43209e-11
2.43212e-11
2.43211e-11
2.43213e-11
2.43212e-11
2.43214e-11
2.43213e-11
2.43213e-11
2.43214e-11
2.43212e-11
2.43213e-11
2.43211e-11
2.43212e-11
2.43209e-11
2.4321e-11
2.43205e-11
2.43207e-11
2.432e-11
2.43203e-11
2.43194e-11
2.43198e-11
2.43188e-11
2.43194e-11
2.43181e-11
2.4319e-11
2.43162e-11
2.43159e-11
2.43069e-11
2.42927e-11
2.42546e-11
2.4185e-11
2.40944e-11
2.37568e-11
2.3843e-11
2.39096e-11
2.39467e-11
2.39611e-11
2.39698e-11
2.39707e-11
2.39737e-11
2.39732e-11
2.39747e-11
2.39743e-11
2.39754e-11
2.39751e-11
2.3976e-11
2.39758e-11
2.39765e-11
2.39763e-11
2.39769e-11
2.39767e-11
2.39771e-11
2.3977e-11
2.39772e-11
2.39771e-11
2.39772e-11
2.39772e-11
2.39772e-11
2.39772e-11
2.39771e-11
2.39772e-11
2.3977e-11
2.39771e-11
2.39767e-11
2.39769e-11
2.39763e-11
2.39765e-11
2.39758e-11
2.3976e-11
2.39751e-11
2.39754e-11
2.39743e-11
2.39747e-11
2.39732e-11
2.39737e-11
2.39707e-11
2.39698e-11
2.39611e-11
2.39467e-11
2.39096e-11
2.3843e-11
2.37568e-11
2.34437e-11
2.35258e-11
2.35896e-11
2.36259e-11
2.36406e-11
2.36489e-11
2.36504e-11
2.36536e-11
2.36536e-11
2.36552e-11
2.3655e-11
2.36562e-11
2.3656e-11
2.36569e-11
2.36568e-11
2.36575e-11
2.36575e-11
2.3658e-11
2.36579e-11
2.36583e-11
2.36582e-11
2.36584e-11
2.36583e-11
2.36584e-11
2.36584e-11
2.36584e-11
2.36584e-11
2.36583e-11
2.36584e-11
2.36582e-11
2.36583e-11
2.36579e-11
2.3658e-11
2.36575e-11
2.36576e-11
2.36569e-11
2.36569e-11
2.36561e-11
2.36562e-11
2.3655e-11
2.36552e-11
2.36536e-11
2.36536e-11
2.36504e-11
2.36489e-11
2.36406e-11
2.36259e-11
2.35896e-11
2.35258e-11
2.34437e-11
2.31643e-11
2.32428e-11
2.33044e-11
2.33399e-11
2.33549e-11
2.33628e-11
2.33649e-11
2.33684e-11
2.33687e-11
2.33705e-11
2.33706e-11
2.33718e-11
2.33718e-11
2.33727e-11
2.33727e-11
2.33734e-11
2.33733e-11
2.33739e-11
2.33738e-11
2.33742e-11
2.33741e-11
2.33743e-11
2.33743e-11
2.33744e-11
2.33743e-11
2.33743e-11
2.33744e-11
2.33743e-11
2.33743e-11
2.33741e-11
2.33742e-11
2.33738e-11
2.33739e-11
2.33734e-11
2.33734e-11
2.33727e-11
2.33727e-11
2.33718e-11
2.33718e-11
2.33706e-11
2.33705e-11
2.33687e-11
2.33684e-11
2.33649e-11
2.33628e-11
2.33549e-11
2.33399e-11
2.33044e-11
2.32428e-11
2.31643e-11
2.2908e-11
2.2983e-11
2.30427e-11
2.30775e-11
2.30929e-11
2.31004e-11
2.31031e-11
2.31066e-11
2.3107e-11
2.31087e-11
2.31088e-11
2.311e-11
2.311e-11
2.31109e-11
2.31109e-11
2.31116e-11
2.31116e-11
2.31121e-11
2.31121e-11
2.31124e-11
2.31123e-11
2.31125e-11
2.31125e-11
2.31126e-11
2.31126e-11
2.31126e-11
2.31126e-11
2.31125e-11
2.31125e-11
2.31123e-11
2.31124e-11
2.31121e-11
2.31121e-11
2.31116e-11
2.31116e-11
2.31109e-11
2.31109e-11
2.311e-11
2.311e-11
2.31088e-11
2.31087e-11
2.3107e-11
2.31066e-11
2.31031e-11
2.31004e-11
2.30929e-11
2.30775e-11
2.30427e-11
2.2983e-11
2.2908e-11
2.26668e-11
2.27385e-11
2.27962e-11
2.28303e-11
2.28461e-11
2.2853e-11
2.28561e-11
2.28598e-11
2.28605e-11
2.28624e-11
2.28626e-11
2.28639e-11
2.2864e-11
2.28649e-11
2.2865e-11
2.28657e-11
2.28657e-11
2.28662e-11
2.28662e-11
2.28665e-11
2.28665e-11
2.28667e-11
2.28667e-11
2.28668e-11
2.28667e-11
2.28667e-11
2.28668e-11
2.28667e-11
2.28667e-11
2.28665e-11
2.28665e-11
2.28662e-11
2.28662e-11
2.28657e-11
2.28657e-11
2.2865e-11
2.28649e-11
2.2864e-11
2.28639e-11
2.28626e-11
2.28624e-11
2.28605e-11
2.28598e-11
2.28562e-11
2.2853e-11
2.28461e-11
2.28303e-11
2.27963e-11
2.27385e-11
2.26668e-11
2.24467e-11
2.25149e-11
2.25714e-11
2.26048e-11
2.26214e-11
2.26355e-11
2.26393e-11
2.26433e-11
2.26444e-11
2.26464e-11
2.26469e-11
2.26482e-11
2.26484e-11
2.26494e-11
2.26495e-11
2.26502e-11
2.26503e-11
2.26508e-11
2.26508e-11
2.26512e-11
2.26511e-11
2.26513e-11
2.26513e-11
2.26514e-11
2.26514e-11
2.26514e-11
2.26514e-11
2.26513e-11
2.26513e-11
2.26511e-11
2.26512e-11
2.26508e-11
2.26508e-11
2.26503e-11
2.26502e-11
2.26495e-11
2.26494e-11
2.26484e-11
2.26482e-11
2.26469e-11
2.26464e-11
2.26444e-11
2.26433e-11
2.26393e-11
2.26355e-11
2.26214e-11
2.26048e-11
2.25714e-11
2.25149e-11
2.24467e-11
2.22551e-11
2.23205e-11
2.23754e-11
2.24086e-11
2.24259e-11
2.24401e-11
2.24446e-11
2.24489e-11
2.24503e-11
2.24525e-11
2.24532e-11
2.24546e-11
2.24549e-11
2.24559e-11
2.24562e-11
2.24569e-11
2.2457e-11
2.24575e-11
2.24575e-11
2.24579e-11
2.24578e-11
2.2458e-11
2.2458e-11
2.24581e-11
2.24581e-11
2.24581e-11
2.24581e-11
2.2458e-11
2.2458e-11
2.24579e-11
2.24579e-11
2.24575e-11
2.24575e-11
2.2457e-11
2.24569e-11
2.24562e-11
2.24559e-11
2.2455e-11
2.24546e-11
2.24532e-11
2.24525e-11
2.24503e-11
2.24489e-11
2.24446e-11
2.24401e-11
2.24259e-11
2.24086e-11
2.23755e-11
2.23205e-11
2.22551e-11
2.20834e-11
2.21468e-11
2.22e-11
2.22327e-11
2.22503e-11
2.22642e-11
2.2269e-11
2.22734e-11
2.22751e-11
2.22774e-11
2.22782e-11
2.22796e-11
2.22801e-11
2.22811e-11
2.22814e-11
2.22821e-11
2.22823e-11
2.22828e-11
2.22828e-11
2.22831e-11
2.22831e-11
2.22833e-11
2.22833e-11
2.22834e-11
2.22834e-11
2.22834e-11
2.22834e-11
2.22833e-11
2.22833e-11
2.22832e-11
2.22831e-11
2.22828e-11
2.22828e-11
2.22823e-11
2.22821e-11
2.22814e-11
2.22811e-11
2.22801e-11
2.22796e-11
2.22782e-11
2.22774e-11
2.22751e-11
2.22734e-11
2.2269e-11
2.22642e-11
2.22503e-11
2.22327e-11
2.22e-11
2.21468e-11
2.20834e-11
2.19333e-11
2.19943e-11
2.20463e-11
2.20789e-11
2.20973e-11
2.21113e-11
2.21168e-11
2.21215e-11
2.21236e-11
2.2126e-11
2.2127e-11
2.21285e-11
2.21291e-11
2.21302e-11
2.21305e-11
2.21312e-11
2.21314e-11
2.21319e-11
2.2132e-11
2.21323e-11
2.21324e-11
2.21326e-11
2.21326e-11
2.21326e-11
2.21326e-11
2.21326e-11
2.21326e-11
2.21326e-11
2.21326e-11
2.21324e-11
2.21324e-11
2.2132e-11
2.21319e-11
2.21314e-11
2.21312e-11
2.21305e-11
2.21302e-11
2.21291e-11
2.21285e-11
2.2127e-11
2.2126e-11
2.21236e-11
2.21215e-11
2.21168e-11
2.21113e-11
2.20974e-11
2.2079e-11
2.20463e-11
2.19943e-11
2.19334e-11
2.18034e-11
2.18623e-11
2.1913e-11
2.19458e-11
2.19651e-11
2.19792e-11
2.19852e-11
2.19903e-11
2.19927e-11
2.19953e-11
2.19966e-11
2.19982e-11
2.19989e-11
2.2e-11
2.20004e-11
2.20011e-11
2.20014e-11
2.20019e-11
2.2002e-11
2.20023e-11
2.20023e-11
2.20025e-11
2.20025e-11
2.20026e-11
2.20026e-11
2.20026e-11
2.20026e-11
2.20025e-11
2.20025e-11
2.20023e-11
2.20023e-11
2.2002e-11
2.20019e-11
2.20014e-11
2.20011e-11
2.20004e-11
2.2e-11
2.19989e-11
2.19982e-11
2.19966e-11
2.19953e-11
2.19927e-11
2.19903e-11
2.19852e-11
2.19792e-11
2.19651e-11
2.19458e-11
2.1913e-11
2.18623e-11
2.18034e-11
2.18922e-11
2.18925e-11
2.18926e-11
2.18927e-11
2.18928e-11
2.18928e-11
2.18929e-11
2.18929e-11
2.18929e-11
2.18928e-11
2.18927e-11
2.18926e-11
2.18925e-11
2.18922e-11
2.1892e-11
2.18916e-11
2.18913e-11
2.18905e-11
2.189e-11
2.18889e-11
2.18881e-11
2.18864e-11
2.18849e-11
2.18822e-11
2.18794e-11
2.1874e-11
2.18673e-11
2.18531e-11
2.18328e-11
2.17999e-11
2.17502e-11
2.16932e-11
2.18028e-11
2.18026e-11
2.18026e-11
2.18023e-11
2.18021e-11
2.18016e-11
2.18012e-11
2.18005e-11
2.17999e-11
2.17988e-11
2.17978e-11
2.17961e-11
2.17944e-11
2.17915e-11
2.17883e-11
2.17825e-11
2.17752e-11
2.17609e-11
2.17396e-11
2.17064e-11
2.16575e-11
2.16024e-11
2.17232e-11
2.17201e-11
2.17166e-11
2.17105e-11
2.17025e-11
2.1688e-11
2.16656e-11
2.16323e-11
2.15838e-11
2.15304e-11
)
;

boundaryField
{
    fuel
    {
        type            fixedValue;
        value           nonuniform 0();
    }
    wall
    {
        type            zeroGradient;
    }
    outlet
    {
        type            zeroGradient;
    }
    frontAndBack
    {
        type            empty;
    }
    procBoundary0to1
    {
        type            processor;
        value           nonuniform List<scalar> 
50
(
5.47277e-11
5.50556e-11
5.53604e-11
5.55141e-11
5.55558e-11
5.5588e-11
5.55682e-11
5.55774e-11
5.55606e-11
5.55668e-11
5.55568e-11
5.55616e-11
5.55553e-11
5.55589e-11
5.55548e-11
5.55576e-11
5.55548e-11
5.55571e-11
5.55552e-11
5.55567e-11
5.55554e-11
5.55563e-11
5.55555e-11
5.5556e-11
5.55558e-11
5.55558e-11
5.5556e-11
5.55556e-11
5.55563e-11
5.55554e-11
5.55567e-11
5.55552e-11
5.55571e-11
5.55548e-11
5.55576e-11
5.55548e-11
5.55589e-11
5.55554e-11
5.55616e-11
5.55569e-11
5.55668e-11
5.55606e-11
5.55774e-11
5.55682e-11
5.5588e-11
5.55558e-11
5.55141e-11
5.53604e-11
5.50556e-11
5.47278e-11
)
;
    }
    procBoundary0to2
    {
        type            processor;
        value           nonuniform List<scalar> 
53
(
2.16932e-11
2.17501e-11
2.17998e-11
2.18328e-11
2.18531e-11
2.18673e-11
2.1874e-11
2.18794e-11
2.18822e-11
2.18849e-11
2.18864e-11
2.18881e-11
2.18889e-11
2.189e-11
2.18905e-11
2.18913e-11
2.18916e-11
2.1892e-11
2.1892e-11
2.18023e-11
2.18026e-11
2.18026e-11
2.18028e-11
2.18028e-11
2.18029e-11
2.18029e-11
2.18029e-11
2.18029e-11
2.18028e-11
2.18028e-11
2.17322e-11
2.17321e-11
2.1732e-11
2.17317e-11
2.17315e-11
2.1731e-11
2.17306e-11
2.17298e-11
2.17292e-11
2.1728e-11
2.17269e-11
2.17251e-11
2.17251e-11
2.16709e-11
2.16676e-11
2.16637e-11
2.16573e-11
2.16487e-11
2.16341e-11
2.16105e-11
2.15769e-11
2.15288e-11
2.14769e-11
)
;
    }
}


// ************************************************************************* //
