/*--------------------------------*- C++ -*----------------------------------*\
| =========                 |                                                 |
| \\      /  F ield         | OpenFOAM: The Open Source CFD Toolbox           |
|  \\    /   O peration     | Version:  dev                                   |
|   \\  /    A nd           | Web:      www.OpenFOAM.org                      |
|    \\/     M anipulation  |                                                 |
\*---------------------------------------------------------------------------*/
FoamFile
{
    version     2.0;
    format      ascii;
    class       volScalarField;
    location    "0.09";
    object      naphthyne;
}
// * * * * * * * * * * * * * * * * * * * * * * * * * * * * * * * * * * * * * //

dimensions      [0 0 0 0 0 0 0];

internalField   nonuniform List<scalar> 
250
(
1.00845e-09
1.0106e-09
1.00359e-09
1.01413e-09
1.01594e-09
1.05845e-09
1.14231e-09
1.58698e-09
3.73063e-09
1.20464e-08
9.8382e-10
9.85481e-10
9.8141e-10
9.88796e-10
9.92629e-10
1.02843e-09
1.10888e-09
1.52256e-09
3.5683e-09
1.25501e-08
1.29611e-08
4.0291e-09
1.49203e-09
1.07312e-09
9.9185e-10
9.75396e-10
9.67785e-10
9.64591e-10
9.63073e-10
9.66074e-10
9.7454e-10
9.75357e-10
9.74282e-10
9.78444e-10
9.84862e-10
1.01407e-09
1.09183e-09
1.47678e-09
3.42188e-09
1.28357e-08
1.12723e-08
3.57389e-09
1.44646e-09
1.07125e-09
9.95955e-10
9.79984e-10
9.72506e-10
9.7003e-10
9.68196e-10
9.71344e-10
9.80453e-10
9.80167e-10
9.82095e-10
9.83057e-10
9.92434e-10
1.0153e-09
1.09111e-09
1.44931e-09
3.29142e-09
1.2868e-08
9.73145e-09
3.20121e-09
1.42103e-09
1.08479e-09
1.01489e-09
9.99433e-10
9.9201e-10
9.90168e-10
9.88003e-10
9.91401e-10
1.00145e-09
9.99925e-10
1.00481e-09
1.00271e-09
1.01517e-09
1.03217e-09
1.10669e-09
1.4397e-09
3.17509e-09
1.26405e-08
8.3718e-09
2.93013e-09
1.41478e-09
1.1133e-09
1.04833e-09
1.03336e-09
1.02591e-09
1.02463e-09
1.02214e-09
1.02588e-09
1.03714e-09
1.03437e-09
1.0421e-09
1.03725e-09
1.0526e-09
1.06452e-09
1.13822e-09
1.44721e-09
3.06202e-09
1.21738e-08
7.11435e-09
2.70369e-09
1.42584e-09
1.15553e-09
1.09511e-09
1.08054e-09
1.07299e-09
1.07219e-09
1.06942e-09
1.07358e-09
1.08821e-09
1.0843e-09
1.09787e-09
1.08899e-09
1.10859e-09
1.1115e-09
1.18451e-09
1.47036e-09
2.97e-09
1.15096e-08
6.11403e-09
2.53616e-09
1.45118e-09
1.21031e-09
1.15258e-09
1.13827e-09
1.13058e-09
1.13012e-09
1.12717e-09
1.13177e-09
1.14804e-09
1.1436e-09
1.1597e-09
1.14936e-09
1.17119e-09
1.17063e-09
1.24283e-09
1.50642e-09
2.88674e-09
1.06239e-08
5.25095e-09
2.4051e-09
1.48658e-09
1.27022e-09
1.21605e-09
1.2018e-09
1.19399e-09
1.19367e-09
1.1907e-09
1.19572e-09
1.21335e-09
1.20922e-09
1.22697e-09
1.21653e-09
1.23984e-09
1.23751e-09
1.30833e-09
1.55384e-09
2.79943e-09
9.70836e-09
4.56038e-09
2.29369e-09
1.52331e-09
1.3297e-09
1.27869e-09
1.2643e-09
1.25646e-09
1.25602e-09
1.25325e-09
1.25859e-09
1.27718e-09
1.27437e-09
1.2926e-09
1.28379e-09
1.30732e-09
1.30541e-09
1.3738e-09
1.60207e-09
2.71762e-09
8.73452e-09
3.98089e-09
2.19952e-09
1.55367e-09
1.38054e-09
1.33236e-09
1.31767e-09
1.30994e-09
1.30912e-09
1.30679e-09
1.31231e-09
1.33131e-09
1.33089e-09
1.34827e-09
1.34285e-09
1.36504e-09
1.36589e-09
1.43052e-09
1.64e-09
2.6267e-09
7.68551e-09
3.50896e-09
2.10781e-09
1.56966e-09
1.41498e-09
1.36944e-09
1.35441e-09
1.34698e-09
1.34558e-09
1.34389e-09
1.34944e-09
1.36828e-09
1.37104e-09
1.38643e-09
1.38572e-09
1.40516e-09
1.41059e-09
1.47019e-09
1.66157e-09
2.52184e-09
6.74012e-09
3.11385e-09
2.01201e-09
1.56595e-09
1.42804e-09
1.38522e-09
1.36998e-09
1.36302e-09
1.361e-09
1.36003e-09
1.3655e-09
1.38375e-09
1.38993e-09
1.40271e-09
1.40717e-09
1.42309e-09
1.43375e-09
1.48747e-09
1.66128e-09
2.40079e-09
5.84972e-09
1.37818e-09
1.38736e-09
1.39767e-09
1.40669e-09
1.41924e-09
1.43439e-09
1.48202e-09
1.63844e-09
2.26598e-09
5.03979e-09
)
;

boundaryField
{
    fuel
    {
        type            fixedValue;
        value           nonuniform 0();
    }
    wall
    {
        type            zeroGradient;
    }
    outlet
    {
        type            zeroGradient;
    }
    frontAndBack
    {
        type            empty;
    }
    procBoundary0to1
    {
        type            processor;
        value           nonuniform List<scalar> 
21
(
2.77961e-09
1.91039e-09
1.54186e-09
1.41951e-09
1.37971e-09
1.36457e-09
1.35818e-09
1.35567e-09
1.35539e-09
1.36071e-09
1.36071e-09
1.35678e-09
1.36803e-09
1.37664e-09
1.38881e-09
1.39894e-09
1.41681e-09
1.45877e-09
1.59781e-09
2.1244e-09
4.32702e-09
)
;
    }
    procBoundary0to2
    {
        type            processor;
        value           nonuniform List<scalar> 
12
(
1.00009e-09
1.47461e-08
4.57947e-09
1.55845e-09
1.09055e-09
1.00259e-09
9.85737e-10
9.77928e-10
9.73898e-10
9.72672e-10
9.75627e-10
9.75627e-10
)
;
    }
    procBoundary0to3
    {
        type            processor;
        value           nonuniform List<scalar> 10(1.04889e-09 1.05108e-09 1.04124e-09 1.05478e-09 1.05532e-09 1.10458e-09 1.19244e-09 1.67056e-09 3.91504e-09 1.13833e-08);
    }
}


// ************************************************************************* //
