/*--------------------------------*- C++ -*----------------------------------*\
| =========                 |                                                 |
| \\      /  F ield         | OpenFOAM: The Open Source CFD Toolbox           |
|  \\    /   O peration     | Version:  dev                                   |
|   \\  /    A nd           | Web:      www.OpenFOAM.org                      |
|    \\/     M anipulation  |                                                 |
\*---------------------------------------------------------------------------*/
FoamFile
{
    version     2.0;
    format      ascii;
    class       volScalarField;
    location    "0.09";
    object      naphthyne;
}
// * * * * * * * * * * * * * * * * * * * * * * * * * * * * * * * * * * * * * //

dimensions      [0 0 0 0 0 0 0];

internalField   nonuniform List<scalar> 
2014
(
6.03699e-09
6.08334e-09
6.12586e-09
6.14736e-09
6.15346e-09
6.15795e-09
6.15532e-09
6.15649e-09
6.15422e-09
6.15499e-09
6.15365e-09
6.15426e-09
6.15342e-09
6.15388e-09
6.15333e-09
6.1537e-09
6.15332e-09
6.15363e-09
6.15338e-09
6.15358e-09
6.15341e-09
6.15353e-09
6.15343e-09
6.15349e-09
6.15346e-09
6.15346e-09
6.15349e-09
6.15343e-09
6.15353e-09
6.15341e-09
6.15358e-09
6.15338e-09
6.15363e-09
6.15332e-09
6.15371e-09
6.15334e-09
6.15388e-09
6.15342e-09
6.15426e-09
6.15366e-09
6.15499e-09
6.15422e-09
6.15649e-09
6.15532e-09
6.15794e-09
6.15346e-09
6.14735e-09
6.12585e-09
6.08334e-09
6.03699e-09
5.71473e-09
5.75882e-09
5.79875e-09
5.81898e-09
5.82483e-09
5.82906e-09
5.82663e-09
5.82769e-09
5.82558e-09
5.82626e-09
5.82501e-09
5.82556e-09
5.82478e-09
5.8252e-09
5.82469e-09
5.82503e-09
5.82468e-09
5.82496e-09
5.82473e-09
5.82491e-09
5.82476e-09
5.82487e-09
5.82478e-09
5.82483e-09
5.82481e-09
5.82481e-09
5.82483e-09
5.82478e-09
5.82487e-09
5.82476e-09
5.82491e-09
5.82473e-09
5.82496e-09
5.82468e-09
5.82503e-09
5.8247e-09
5.8252e-09
5.82478e-09
5.82556e-09
5.82502e-09
5.82626e-09
5.82558e-09
5.82769e-09
5.82663e-09
5.82905e-09
5.82482e-09
5.81898e-09
5.79875e-09
5.75882e-09
5.71474e-09
5.42011e-09
5.46213e-09
5.49957e-09
5.51861e-09
5.5242e-09
5.52819e-09
5.52595e-09
5.5269e-09
5.52494e-09
5.52554e-09
5.52438e-09
5.52488e-09
5.52415e-09
5.52453e-09
5.52406e-09
5.52437e-09
5.52405e-09
5.52431e-09
5.5241e-09
5.52426e-09
5.52412e-09
5.52422e-09
5.52413e-09
5.52419e-09
5.52416e-09
5.52416e-09
5.52419e-09
5.52414e-09
5.52422e-09
5.52412e-09
5.52426e-09
5.5241e-09
5.52431e-09
5.52405e-09
5.52437e-09
5.52406e-09
5.52453e-09
5.52415e-09
5.52487e-09
5.52438e-09
5.52554e-09
5.52494e-09
5.5269e-09
5.52595e-09
5.52819e-09
5.5242e-09
5.51861e-09
5.49956e-09
5.46213e-09
5.42011e-09
5.15024e-09
5.19038e-09
5.22541e-09
5.24336e-09
5.24869e-09
5.25246e-09
5.25038e-09
5.25124e-09
5.24941e-09
5.24995e-09
5.24887e-09
5.24931e-09
5.24863e-09
5.24898e-09
5.24855e-09
5.24883e-09
5.24853e-09
5.24877e-09
5.24858e-09
5.24873e-09
5.2486e-09
5.24869e-09
5.24861e-09
5.24866e-09
5.24864e-09
5.24864e-09
5.24866e-09
5.24862e-09
5.2487e-09
5.2486e-09
5.24873e-09
5.24858e-09
5.24877e-09
5.24853e-09
5.24884e-09
5.24855e-09
5.24898e-09
5.24863e-09
5.24931e-09
5.24887e-09
5.24995e-09
5.24941e-09
5.25124e-09
5.25038e-09
5.25245e-09
5.24868e-09
5.24336e-09
5.22541e-09
5.19038e-09
5.15024e-09
4.90257e-09
4.9409e-09
4.97383e-09
4.99066e-09
4.99572e-09
4.99929e-09
4.99737e-09
4.99814e-09
4.99644e-09
4.99691e-09
4.9959e-09
4.99631e-09
4.99567e-09
4.99599e-09
4.99559e-09
4.99585e-09
4.99557e-09
4.9958e-09
4.99562e-09
4.99576e-09
4.99564e-09
4.99573e-09
4.99565e-09
4.9957e-09
4.99568e-09
4.99568e-09
4.9957e-09
4.99565e-09
4.99573e-09
4.99564e-09
4.99576e-09
4.99562e-09
4.9958e-09
4.99558e-09
4.99586e-09
4.99559e-09
4.996e-09
4.99568e-09
4.9963e-09
4.99591e-09
4.99691e-09
4.99644e-09
4.99814e-09
4.99736e-09
4.99928e-09
4.99572e-09
4.99066e-09
4.97382e-09
4.9409e-09
4.90258e-09
4.67487e-09
4.71152e-09
4.74244e-09
4.75823e-09
4.76304e-09
4.76641e-09
4.76463e-09
4.76533e-09
4.76375e-09
4.76416e-09
4.76322e-09
4.76359e-09
4.763e-09
4.76329e-09
4.76291e-09
4.76316e-09
4.7629e-09
4.76311e-09
4.76294e-09
4.76308e-09
4.76296e-09
4.76304e-09
4.76297e-09
4.76302e-09
4.763e-09
4.763e-09
4.76302e-09
4.76297e-09
4.76304e-09
4.76296e-09
4.76308e-09
4.76294e-09
4.76311e-09
4.7629e-09
4.76316e-09
4.76292e-09
4.76329e-09
4.763e-09
4.76359e-09
4.76323e-09
4.76416e-09
4.76375e-09
4.76533e-09
4.76463e-09
4.7664e-09
4.76304e-09
4.75823e-09
4.74243e-09
4.71152e-09
4.67488e-09
4.46515e-09
4.50022e-09
4.52924e-09
4.54406e-09
4.54862e-09
4.55181e-09
4.55016e-09
4.5508e-09
4.54932e-09
4.54969e-09
4.54881e-09
4.54914e-09
4.54859e-09
4.54886e-09
4.54851e-09
4.54874e-09
4.5485e-09
4.54869e-09
4.54854e-09
4.54866e-09
4.54856e-09
4.54863e-09
4.54857e-09
4.54861e-09
4.54859e-09
4.54859e-09
4.54861e-09
4.54857e-09
4.54863e-09
4.54856e-09
4.54866e-09
4.54854e-09
4.54869e-09
4.5485e-09
4.54874e-09
4.54851e-09
4.54886e-09
4.54859e-09
4.54914e-09
4.54882e-09
4.54969e-09
4.54932e-09
4.5508e-09
4.55016e-09
4.5518e-09
4.54862e-09
4.54406e-09
4.52924e-09
4.50023e-09
4.46515e-09
4.27165e-09
4.30522e-09
4.33246e-09
4.34637e-09
4.35069e-09
4.3537e-09
4.35218e-09
4.35276e-09
4.35138e-09
4.35171e-09
4.35089e-09
4.35119e-09
4.35068e-09
4.35093e-09
4.3506e-09
4.35081e-09
4.35059e-09
4.35077e-09
4.35062e-09
4.35074e-09
4.35064e-09
4.35071e-09
4.35065e-09
4.35069e-09
4.35068e-09
4.35068e-09
4.35069e-09
4.35065e-09
4.35071e-09
4.35064e-09
4.35074e-09
4.35062e-09
4.35077e-09
4.35059e-09
4.35081e-09
4.3506e-09
4.35093e-09
4.35068e-09
4.35119e-09
4.3509e-09
4.35171e-09
4.35138e-09
4.35276e-09
4.35218e-09
4.3537e-09
4.35069e-09
4.34637e-09
4.33245e-09
4.30522e-09
4.27165e-09
4.09282e-09
4.12495e-09
4.15051e-09
4.16358e-09
4.16767e-09
4.17052e-09
4.16911e-09
4.16964e-09
4.16836e-09
4.16865e-09
4.16788e-09
4.16815e-09
4.16768e-09
4.16791e-09
4.1676e-09
4.1678e-09
4.16759e-09
4.16776e-09
4.16763e-09
4.16774e-09
4.16765e-09
4.16771e-09
4.16766e-09
4.16769e-09
4.16768e-09
4.16768e-09
4.16769e-09
4.16766e-09
4.16771e-09
4.16765e-09
4.16774e-09
4.16763e-09
4.16776e-09
4.16759e-09
4.1678e-09
4.1676e-09
4.16791e-09
4.16768e-09
4.16815e-09
4.16789e-09
4.16865e-09
4.16836e-09
4.16964e-09
4.16911e-09
4.17051e-09
4.16767e-09
4.16357e-09
4.15051e-09
4.12495e-09
4.09282e-09
3.92728e-09
3.95801e-09
3.98201e-09
3.99429e-09
3.99816e-09
4.00086e-09
3.99956e-09
4.00004e-09
3.99885e-09
3.99911e-09
3.99839e-09
3.99864e-09
3.9982e-09
3.99841e-09
3.99813e-09
3.99831e-09
3.99812e-09
3.99828e-09
3.99815e-09
3.99826e-09
3.99817e-09
3.99823e-09
3.99818e-09
3.99821e-09
3.9982e-09
3.9982e-09
3.99821e-09
3.99818e-09
3.99823e-09
3.99817e-09
3.99826e-09
3.99815e-09
3.99828e-09
3.99812e-09
3.99831e-09
3.99813e-09
3.99841e-09
3.9982e-09
3.99864e-09
3.9984e-09
3.99911e-09
3.99885e-09
4.00004e-09
3.99956e-09
4.00085e-09
3.99816e-09
3.99428e-09
3.98201e-09
3.95801e-09
3.92728e-09
3.77381e-09
3.80317e-09
3.82573e-09
3.83726e-09
3.84094e-09
3.84348e-09
3.84229e-09
3.84273e-09
3.84162e-09
3.84185e-09
3.84119e-09
3.84141e-09
3.841e-09
3.8412e-09
3.84094e-09
3.84111e-09
3.84093e-09
3.84108e-09
3.84096e-09
3.84106e-09
3.84098e-09
3.84104e-09
3.84099e-09
3.84102e-09
3.84101e-09
3.84101e-09
3.84102e-09
3.84099e-09
3.84104e-09
3.84098e-09
3.84106e-09
3.84096e-09
3.84108e-09
3.84093e-09
3.84111e-09
3.84094e-09
3.8412e-09
3.841e-09
3.84141e-09
3.84119e-09
3.84185e-09
3.84162e-09
3.84273e-09
3.84229e-09
3.84348e-09
3.84094e-09
3.83726e-09
3.82573e-09
3.80318e-09
3.77381e-09
3.63134e-09
3.65935e-09
3.68057e-09
3.69141e-09
3.6949e-09
3.69731e-09
3.69621e-09
3.69662e-09
3.69559e-09
3.6958e-09
3.69518e-09
3.69538e-09
3.695e-09
3.69518e-09
3.69494e-09
3.6951e-09
3.69494e-09
3.69508e-09
3.69497e-09
3.69506e-09
3.69499e-09
3.69504e-09
3.695e-09
3.69503e-09
3.69502e-09
3.69502e-09
3.69503e-09
3.695e-09
3.69504e-09
3.69499e-09
3.69506e-09
3.69497e-09
3.69508e-09
3.69494e-09
3.6951e-09
3.69494e-09
3.69519e-09
3.695e-09
3.69538e-09
3.69518e-09
3.6958e-09
3.69559e-09
3.69662e-09
3.69621e-09
3.69731e-09
3.6949e-09
3.69141e-09
3.68057e-09
3.65935e-09
3.63134e-09
3.49892e-09
3.52557e-09
3.54557e-09
3.55577e-09
3.55908e-09
3.56136e-09
3.56036e-09
3.56074e-09
3.55978e-09
3.55997e-09
3.55939e-09
3.55958e-09
3.55923e-09
3.5594e-09
3.55917e-09
3.55932e-09
3.55917e-09
3.5593e-09
3.5592e-09
3.55929e-09
3.55922e-09
3.55927e-09
3.55923e-09
3.55926e-09
3.55925e-09
3.55925e-09
3.55926e-09
3.55923e-09
3.55927e-09
3.55922e-09
3.55929e-09
3.5592e-09
3.5593e-09
3.55917e-09
3.55933e-09
3.55917e-09
3.5594e-09
3.55923e-09
3.55958e-09
3.5594e-09
3.55997e-09
3.55978e-09
3.56074e-09
3.56036e-09
3.56136e-09
3.55908e-09
3.55576e-09
3.54557e-09
3.52558e-09
3.49892e-09
3.37569e-09
3.401e-09
3.41987e-09
3.42947e-09
3.43262e-09
3.43478e-09
3.43386e-09
3.43422e-09
3.43333e-09
3.4335e-09
3.43297e-09
3.43315e-09
3.43282e-09
3.43298e-09
3.43277e-09
3.43291e-09
3.43277e-09
3.4329e-09
3.4328e-09
3.43289e-09
3.43282e-09
3.43287e-09
3.43283e-09
3.43286e-09
3.43285e-09
3.43285e-09
3.43286e-09
3.43284e-09
3.43287e-09
3.43282e-09
3.43289e-09
3.4328e-09
3.4329e-09
3.43277e-09
3.43292e-09
3.43277e-09
3.43298e-09
3.43282e-09
3.43315e-09
3.43297e-09
3.4335e-09
3.43333e-09
3.43422e-09
3.43386e-09
3.43478e-09
3.43261e-09
3.42947e-09
3.41986e-09
3.401e-09
3.37569e-09
3.2609e-09
3.28487e-09
3.30271e-09
3.31177e-09
3.31474e-09
3.31681e-09
3.31597e-09
3.31631e-09
3.31549e-09
3.31565e-09
3.31516e-09
3.31532e-09
3.31502e-09
3.31517e-09
3.31498e-09
3.31511e-09
3.31498e-09
3.3151e-09
3.31501e-09
3.31509e-09
3.31503e-09
3.31508e-09
3.31504e-09
3.31507e-09
3.31506e-09
3.31506e-09
3.31507e-09
3.31504e-09
3.31508e-09
3.31503e-09
3.31509e-09
3.31501e-09
3.3151e-09
3.31498e-09
3.31511e-09
3.31498e-09
3.31517e-09
3.31502e-09
3.31532e-09
3.31516e-09
3.31565e-09
3.31549e-09
3.31631e-09
3.31597e-09
3.3168e-09
3.31474e-09
3.31177e-09
3.3027e-09
3.28488e-09
3.2609e-09
3.15387e-09
3.17654e-09
3.19341e-09
3.20197e-09
3.20479e-09
3.20676e-09
3.20601e-09
3.20633e-09
3.20557e-09
3.20572e-09
3.20527e-09
3.20542e-09
3.20514e-09
3.20529e-09
3.20511e-09
3.20524e-09
3.20512e-09
3.20523e-09
3.20515e-09
3.20523e-09
3.20517e-09
3.20522e-09
3.20518e-09
3.20521e-09
3.2052e-09
3.2052e-09
3.20521e-09
3.20518e-09
3.20522e-09
3.20517e-09
3.20523e-09
3.20515e-09
3.20523e-09
3.20512e-09
3.20524e-09
3.20511e-09
3.20529e-09
3.20514e-09
3.20542e-09
3.20527e-09
3.20572e-09
3.20557e-09
3.20633e-09
3.20601e-09
3.20676e-09
3.20479e-09
3.20197e-09
3.19341e-09
3.17655e-09
3.15387e-09
3.054e-09
3.07541e-09
3.09139e-09
3.09948e-09
3.10216e-09
3.10404e-09
3.10336e-09
3.10367e-09
3.10298e-09
3.10313e-09
3.10271e-09
3.10286e-09
3.1026e-09
3.10274e-09
3.10257e-09
3.1027e-09
3.10259e-09
3.10269e-09
3.10262e-09
3.10269e-09
3.10264e-09
3.10268e-09
3.10265e-09
3.10267e-09
3.10267e-09
3.10267e-09
3.10267e-09
3.10265e-09
3.10268e-09
3.10264e-09
3.10269e-09
3.10262e-09
3.10269e-09
3.10259e-09
3.1027e-09
3.10257e-09
3.10274e-09
3.1026e-09
3.10286e-09
3.10271e-09
3.10313e-09
3.10298e-09
3.10367e-09
3.10336e-09
3.10404e-09
3.10216e-09
3.09948e-09
3.09139e-09
3.07541e-09
3.05399e-09
2.96075e-09
2.98094e-09
2.9961e-09
3.00376e-09
3.00631e-09
3.00811e-09
3.00751e-09
3.00781e-09
3.00718e-09
3.00732e-09
3.00694e-09
3.00708e-09
3.00685e-09
3.00698e-09
3.00683e-09
3.00695e-09
3.00685e-09
3.00695e-09
3.00688e-09
3.00695e-09
3.0069e-09
3.00694e-09
3.00691e-09
3.00694e-09
3.00693e-09
3.00693e-09
3.00694e-09
3.00691e-09
3.00694e-09
3.0069e-09
3.00695e-09
3.00688e-09
3.00695e-09
3.00685e-09
3.00695e-09
3.00683e-09
3.00698e-09
3.00685e-09
3.00708e-09
3.00694e-09
3.00732e-09
3.00718e-09
3.00781e-09
3.00751e-09
3.00811e-09
3.0063e-09
3.00376e-09
2.9961e-09
2.98095e-09
2.96075e-09
2.87366e-09
2.89268e-09
2.90708e-09
2.91433e-09
2.91676e-09
2.91849e-09
2.91797e-09
2.91827e-09
2.9177e-09
2.91783e-09
2.91749e-09
2.91762e-09
2.91741e-09
2.91754e-09
2.9174e-09
2.91752e-09
2.91742e-09
2.91752e-09
2.91746e-09
2.91753e-09
2.91748e-09
2.91752e-09
2.91749e-09
2.91752e-09
2.91751e-09
2.91751e-09
2.91752e-09
2.9175e-09
2.91752e-09
2.91748e-09
2.91753e-09
2.91746e-09
2.91752e-09
2.91743e-09
2.91752e-09
2.9174e-09
2.91754e-09
2.91741e-09
2.91762e-09
2.91749e-09
2.91783e-09
2.9177e-09
2.91827e-09
2.91797e-09
2.91849e-09
2.91676e-09
2.91433e-09
2.90708e-09
2.89268e-09
2.87365e-09
2.79228e-09
2.81017e-09
2.82392e-09
2.83077e-09
2.8331e-09
2.83476e-09
2.83431e-09
2.83461e-09
2.8341e-09
2.83424e-09
2.83393e-09
2.83406e-09
2.83387e-09
2.83399e-09
2.83387e-09
2.83398e-09
2.83389e-09
2.83399e-09
2.83393e-09
2.83399e-09
2.83395e-09
2.83399e-09
2.83397e-09
2.83399e-09
2.83398e-09
2.83398e-09
2.83399e-09
2.83397e-09
2.83399e-09
2.83395e-09
2.83399e-09
2.83393e-09
2.83399e-09
2.8339e-09
2.83398e-09
2.83387e-09
2.83399e-09
2.83387e-09
2.83406e-09
2.83393e-09
2.83424e-09
2.8341e-09
2.83461e-09
2.83431e-09
2.83476e-09
2.8331e-09
2.83077e-09
2.82392e-09
2.81018e-09
2.79228e-09
2.71626e-09
2.7331e-09
2.74622e-09
2.7527e-09
2.75493e-09
2.75654e-09
2.75616e-09
2.75646e-09
2.75601e-09
2.75615e-09
2.75587e-09
2.756e-09
2.75583e-09
2.75595e-09
2.75584e-09
2.75595e-09
2.75588e-09
2.75597e-09
2.75592e-09
2.75598e-09
2.75594e-09
2.75598e-09
2.75595e-09
2.75597e-09
2.75596e-09
2.75597e-09
2.75597e-09
2.75595e-09
2.75598e-09
2.75594e-09
2.75598e-09
2.75592e-09
2.75597e-09
2.75588e-09
2.75595e-09
2.75585e-09
2.75595e-09
2.75583e-09
2.756e-09
2.75587e-09
2.75615e-09
2.75601e-09
2.75646e-09
2.75616e-09
2.75654e-09
2.75493e-09
2.7527e-09
2.74622e-09
2.73311e-09
2.71626e-09
2.64526e-09
2.66112e-09
2.67362e-09
2.67977e-09
2.68193e-09
2.68348e-09
2.68318e-09
2.68349e-09
2.68309e-09
2.68324e-09
2.68299e-09
2.68312e-09
2.68297e-09
2.68309e-09
2.68299e-09
2.6831e-09
2.68303e-09
2.68312e-09
2.68307e-09
2.68313e-09
2.6831e-09
2.68313e-09
2.68311e-09
2.68313e-09
2.68312e-09
2.68312e-09
2.68313e-09
2.68311e-09
2.68313e-09
2.6831e-09
2.68313e-09
2.68307e-09
2.68312e-09
2.68303e-09
2.6831e-09
2.683e-09
2.68309e-09
2.68297e-09
2.68312e-09
2.68299e-09
2.68324e-09
2.68309e-09
2.68349e-09
2.68318e-09
2.68348e-09
2.68193e-09
2.67977e-09
2.67362e-09
2.66112e-09
2.64526e-09
2.57897e-09
2.59393e-09
2.60583e-09
2.61169e-09
2.61379e-09
2.61529e-09
2.61506e-09
2.61538e-09
2.61504e-09
2.61519e-09
2.61498e-09
2.61511e-09
2.61498e-09
2.6151e-09
2.61501e-09
2.61512e-09
2.61506e-09
2.61514e-09
2.6151e-09
2.61516e-09
2.61513e-09
2.61516e-09
2.61514e-09
2.61516e-09
2.61515e-09
2.61515e-09
2.61516e-09
2.61514e-09
2.61516e-09
2.61513e-09
2.61516e-09
2.6151e-09
2.61514e-09
2.61506e-09
2.61512e-09
2.61502e-09
2.6151e-09
2.61498e-09
2.61511e-09
2.61498e-09
2.61519e-09
2.61504e-09
2.61538e-09
2.61506e-09
2.61529e-09
2.61379e-09
2.61168e-09
2.60583e-09
2.59393e-09
2.57897e-09
2.51713e-09
2.53125e-09
2.54258e-09
2.54817e-09
2.55023e-09
2.55169e-09
2.55154e-09
2.55187e-09
2.55159e-09
2.55174e-09
2.55156e-09
2.5517e-09
2.55159e-09
2.5517e-09
2.55163e-09
2.55173e-09
2.55168e-09
2.55176e-09
2.55173e-09
2.55178e-09
2.55175e-09
2.55179e-09
2.55177e-09
2.55179e-09
2.55178e-09
2.55178e-09
2.55179e-09
2.55177e-09
2.55179e-09
2.55175e-09
2.55178e-09
2.55173e-09
2.55176e-09
2.55168e-09
2.55173e-09
2.55163e-09
2.5517e-09
2.55159e-09
2.5517e-09
2.55157e-09
2.55174e-09
2.55159e-09
2.55187e-09
2.55154e-09
2.55169e-09
2.55023e-09
2.54817e-09
2.54258e-09
2.53125e-09
2.51713e-09
2.45951e-09
2.47284e-09
2.48362e-09
2.48898e-09
2.49101e-09
2.49243e-09
2.49236e-09
2.4927e-09
2.49248e-09
2.49264e-09
2.4925e-09
2.49264e-09
2.49255e-09
2.49266e-09
2.4926e-09
2.4927e-09
2.49266e-09
2.49274e-09
2.49271e-09
2.49276e-09
2.49273e-09
2.49277e-09
2.49275e-09
2.49277e-09
2.49276e-09
2.49276e-09
2.49277e-09
2.49275e-09
2.49277e-09
2.49274e-09
2.49276e-09
2.49271e-09
2.49274e-09
2.49266e-09
2.4927e-09
2.4926e-09
2.49266e-09
2.49255e-09
2.49264e-09
2.4925e-09
2.49264e-09
2.49248e-09
2.4927e-09
2.49236e-09
2.49243e-09
2.49101e-09
2.48898e-09
2.48362e-09
2.47285e-09
2.45951e-09
2.40773e-09
2.42041e-09
2.43066e-09
2.43585e-09
2.43785e-09
2.43925e-09
2.43924e-09
2.4396e-09
2.43943e-09
2.43961e-09
2.4395e-09
2.43964e-09
2.43956e-09
2.43968e-09
2.43963e-09
2.43973e-09
2.43969e-09
2.43977e-09
2.43974e-09
2.43979e-09
2.43977e-09
2.4398e-09
2.43979e-09
2.43981e-09
2.4398e-09
2.4398e-09
2.43981e-09
2.43979e-09
2.4398e-09
2.43977e-09
2.4398e-09
2.43974e-09
2.43977e-09
2.43969e-09
2.43973e-09
2.43963e-09
2.43968e-09
2.43956e-09
2.43964e-09
2.4395e-09
2.43961e-09
2.43943e-09
2.4396e-09
2.43924e-09
2.43925e-09
2.43785e-09
2.43585e-09
2.43066e-09
2.42041e-09
2.40773e-09
2.35902e-09
2.37113e-09
2.38072e-09
2.38568e-09
2.38755e-09
2.38884e-09
2.38885e-09
2.3892e-09
2.38905e-09
2.38923e-09
2.38913e-09
2.38926e-09
2.3892e-09
2.38931e-09
2.38927e-09
2.38936e-09
2.38933e-09
2.38941e-09
2.38939e-09
2.38943e-09
2.38942e-09
2.38944e-09
2.38943e-09
2.38945e-09
2.38944e-09
2.38944e-09
2.38945e-09
2.38943e-09
2.38944e-09
2.38942e-09
2.38943e-09
2.38939e-09
2.38941e-09
2.38934e-09
2.38937e-09
2.38927e-09
2.38931e-09
2.3892e-09
2.38926e-09
2.38913e-09
2.38923e-09
2.38905e-09
2.3892e-09
2.38885e-09
2.38884e-09
2.38755e-09
2.38568e-09
2.38072e-09
2.37113e-09
2.35902e-09
2.31309e-09
2.32458e-09
2.33367e-09
2.33849e-09
2.34037e-09
2.34164e-09
2.34171e-09
2.34209e-09
2.342e-09
2.34219e-09
2.34212e-09
2.34226e-09
2.34222e-09
2.34233e-09
2.3423e-09
2.3424e-09
2.34237e-09
2.34244e-09
2.34243e-09
2.34247e-09
2.34246e-09
2.34249e-09
2.34248e-09
2.34249e-09
2.34249e-09
2.34249e-09
2.34249e-09
2.34248e-09
2.34249e-09
2.34246e-09
2.34247e-09
2.34243e-09
2.34244e-09
2.34237e-09
2.3424e-09
2.3423e-09
2.34233e-09
2.34222e-09
2.34226e-09
2.34212e-09
2.34219e-09
2.342e-09
2.34209e-09
2.34171e-09
2.34164e-09
2.34037e-09
2.33849e-09
2.33367e-09
2.32459e-09
2.31309e-09
2.27069e-09
2.2816e-09
2.29024e-09
2.29494e-09
2.29683e-09
2.29807e-09
2.29822e-09
2.29863e-09
2.29859e-09
2.29879e-09
2.29876e-09
2.29891e-09
2.29888e-09
2.299e-09
2.29898e-09
2.29907e-09
2.29906e-09
2.29913e-09
2.29911e-09
2.29916e-09
2.29915e-09
2.29918e-09
2.29917e-09
2.29918e-09
2.29918e-09
2.29918e-09
2.29918e-09
2.29917e-09
2.29918e-09
2.29915e-09
2.29916e-09
2.29912e-09
2.29913e-09
2.29906e-09
2.29907e-09
2.29898e-09
2.299e-09
2.29888e-09
2.29891e-09
2.29876e-09
2.29879e-09
2.29859e-09
2.29863e-09
2.29822e-09
2.29807e-09
2.29683e-09
2.29494e-09
2.29024e-09
2.2816e-09
2.27069e-09
2.23168e-09
2.24202e-09
2.25029e-09
2.25486e-09
2.25678e-09
2.258e-09
2.25823e-09
2.25867e-09
2.25869e-09
2.25891e-09
2.25891e-09
2.25906e-09
2.25906e-09
2.25918e-09
2.25917e-09
2.25926e-09
2.25926e-09
2.25932e-09
2.25931e-09
2.25936e-09
2.25935e-09
2.25938e-09
2.25937e-09
2.25938e-09
2.25938e-09
2.25938e-09
2.25938e-09
2.25937e-09
2.25938e-09
2.25935e-09
2.25936e-09
2.25932e-09
2.25932e-09
2.25926e-09
2.25926e-09
2.25917e-09
2.25918e-09
2.25906e-09
2.25906e-09
2.25891e-09
2.25891e-09
2.25869e-09
2.25867e-09
2.25823e-09
2.258e-09
2.25678e-09
2.25486e-09
2.2503e-09
2.24202e-09
2.23168e-09
2.19595e-09
2.20576e-09
2.21369e-09
2.21816e-09
2.22012e-09
2.22131e-09
2.22163e-09
2.22209e-09
2.22217e-09
2.22241e-09
2.22244e-09
2.22261e-09
2.22262e-09
2.22274e-09
2.22275e-09
2.22284e-09
2.22284e-09
2.22291e-09
2.2229e-09
2.22295e-09
2.22294e-09
2.22297e-09
2.22296e-09
2.22297e-09
2.22297e-09
2.22297e-09
2.22297e-09
2.22296e-09
2.22297e-09
2.22294e-09
2.22295e-09
2.2229e-09
2.22291e-09
2.22284e-09
2.22284e-09
2.22275e-09
2.22274e-09
2.22262e-09
2.22261e-09
2.22244e-09
2.22241e-09
2.22217e-09
2.22209e-09
2.22163e-09
2.22131e-09
2.22012e-09
2.21816e-09
2.21369e-09
2.20576e-09
2.19595e-09
2.16447e-09
2.17382e-09
2.18148e-09
2.18586e-09
2.18787e-09
2.18903e-09
2.18943e-09
2.18993e-09
2.19006e-09
2.19032e-09
2.19038e-09
2.19056e-09
2.19059e-09
2.19071e-09
2.19073e-09
2.19082e-09
2.19083e-09
2.1909e-09
2.1909e-09
2.19094e-09
2.19094e-09
2.19096e-09
2.19096e-09
2.19097e-09
2.19097e-09
2.19097e-09
2.19097e-09
2.19096e-09
2.19096e-09
2.19094e-09
2.19094e-09
2.1909e-09
2.1909e-09
2.19083e-09
2.19082e-09
2.19073e-09
2.19072e-09
2.19059e-09
2.19056e-09
2.19038e-09
2.19032e-09
2.19006e-09
2.18993e-09
2.18943e-09
2.18903e-09
2.18787e-09
2.18586e-09
2.18148e-09
2.17382e-09
2.16448e-09
2.13605e-09
2.14495e-09
2.1524e-09
2.15669e-09
2.15877e-09
2.1599e-09
2.16037e-09
2.1609e-09
2.16104e-09
2.1613e-09
2.16137e-09
2.16155e-09
2.16158e-09
2.16171e-09
2.16173e-09
2.16182e-09
2.16183e-09
2.1619e-09
2.1619e-09
2.16194e-09
2.16194e-09
2.16196e-09
2.16196e-09
2.16197e-09
2.16197e-09
2.16197e-09
2.16197e-09
2.16196e-09
2.16196e-09
2.16194e-09
2.16194e-09
2.1619e-09
2.1619e-09
2.16183e-09
2.16182e-09
2.16173e-09
2.16171e-09
2.16158e-09
2.16155e-09
2.16137e-09
2.1613e-09
2.16104e-09
2.1609e-09
2.16037e-09
2.1599e-09
2.15877e-09
2.15669e-09
2.1524e-09
2.14495e-09
2.13605e-09
2.10985e-09
2.11834e-09
2.12557e-09
2.12978e-09
2.13192e-09
2.13299e-09
2.13354e-09
2.13409e-09
2.13428e-09
2.13456e-09
2.13465e-09
2.13484e-09
2.13489e-09
2.13502e-09
2.13505e-09
2.13514e-09
2.13516e-09
2.13522e-09
2.13523e-09
2.13527e-09
2.13527e-09
2.13529e-09
2.13529e-09
2.1353e-09
2.1353e-09
2.1353e-09
2.1353e-09
2.13529e-09
2.13529e-09
2.13527e-09
2.13527e-09
2.13523e-09
2.13522e-09
2.13516e-09
2.13514e-09
2.13505e-09
2.13502e-09
2.13489e-09
2.13484e-09
2.13465e-09
2.13456e-09
2.13428e-09
2.13409e-09
2.13354e-09
2.13299e-09
2.13192e-09
2.12978e-09
2.12557e-09
2.11834e-09
2.10985e-09
2.0865e-09
2.09456e-09
2.10166e-09
2.1058e-09
2.10805e-09
2.10987e-09
2.11051e-09
2.1111e-09
2.11134e-09
2.11165e-09
2.11177e-09
2.11196e-09
2.11204e-09
2.11217e-09
2.11221e-09
2.1123e-09
2.11233e-09
2.11239e-09
2.1124e-09
2.11244e-09
2.11244e-09
2.11247e-09
2.11247e-09
2.11248e-09
2.11248e-09
2.11248e-09
2.11248e-09
2.11247e-09
2.11247e-09
2.11244e-09
2.11244e-09
2.1124e-09
2.11239e-09
2.11233e-09
2.1123e-09
2.11221e-09
2.11217e-09
2.11204e-09
2.11196e-09
2.11177e-09
2.11165e-09
2.11134e-09
2.1111e-09
2.11051e-09
2.10987e-09
2.10805e-09
2.1058e-09
2.10166e-09
2.09456e-09
2.0865e-09
2.06671e-09
2.07443e-09
2.08138e-09
2.0855e-09
2.08786e-09
2.08969e-09
2.09042e-09
2.09106e-09
2.09135e-09
2.09168e-09
2.09184e-09
2.09204e-09
2.09213e-09
2.09227e-09
2.09232e-09
2.09242e-09
2.09244e-09
2.09251e-09
2.09252e-09
2.09256e-09
2.09257e-09
2.09259e-09
2.09259e-09
2.0926e-09
2.0926e-09
2.0926e-09
2.0926e-09
2.09259e-09
2.09259e-09
2.09257e-09
2.09256e-09
2.09252e-09
2.09251e-09
2.09245e-09
2.09242e-09
2.09232e-09
2.09227e-09
2.09213e-09
2.09204e-09
2.09184e-09
2.09168e-09
2.09135e-09
2.09106e-09
2.09042e-09
2.08969e-09
2.08787e-09
2.0855e-09
2.08138e-09
2.07443e-09
2.06672e-09
2.04963e-09
2.05709e-09
2.06386e-09
2.06796e-09
2.07039e-09
2.07221e-09
2.073e-09
2.07367e-09
2.07401e-09
2.07436e-09
2.07454e-09
2.07475e-09
2.07485e-09
2.07499e-09
2.07506e-09
2.07515e-09
2.07519e-09
2.07525e-09
2.07527e-09
2.07531e-09
2.07531e-09
2.07534e-09
2.07534e-09
2.07535e-09
2.07535e-09
2.07535e-09
2.07535e-09
2.07534e-09
2.07534e-09
2.07531e-09
2.07531e-09
2.07527e-09
2.07525e-09
2.07519e-09
2.07515e-09
2.07506e-09
2.07499e-09
2.07485e-09
2.07475e-09
2.07454e-09
2.07436e-09
2.07401e-09
2.07367e-09
2.07301e-09
2.07221e-09
2.0704e-09
2.06796e-09
2.06387e-09
2.0571e-09
2.04963e-09
2.0354e-09
2.04258e-09
2.04925e-09
2.05336e-09
2.05593e-09
2.05777e-09
2.05865e-09
2.05937e-09
2.05976e-09
2.06014e-09
2.06034e-09
2.06057e-09
2.06069e-09
2.06084e-09
2.06091e-09
2.06101e-09
2.06105e-09
2.06111e-09
2.06113e-09
2.06117e-09
2.06118e-09
2.0612e-09
2.06121e-09
2.06122e-09
2.06122e-09
2.06122e-09
2.06122e-09
2.06121e-09
2.0612e-09
2.06118e-09
2.06117e-09
2.06113e-09
2.06111e-09
2.06105e-09
2.06101e-09
2.06091e-09
2.06084e-09
2.06069e-09
2.06057e-09
2.06034e-09
2.06014e-09
2.05976e-09
2.05937e-09
2.05865e-09
2.05777e-09
2.05593e-09
2.05336e-09
2.04925e-09
2.04258e-09
2.03541e-09
2.0239e-09
2.03084e-09
2.0374e-09
2.04156e-09
2.04427e-09
2.04614e-09
2.04712e-09
2.04789e-09
2.04833e-09
2.04873e-09
2.04897e-09
2.04921e-09
2.04935e-09
2.0495e-09
2.04959e-09
2.04968e-09
2.04973e-09
2.0498e-09
2.04982e-09
2.04986e-09
2.04987e-09
2.04989e-09
2.0499e-09
2.04991e-09
2.04991e-09
2.04991e-09
2.04991e-09
2.0499e-09
2.04989e-09
2.04987e-09
2.04986e-09
2.04982e-09
2.0498e-09
2.04973e-09
2.04968e-09
2.04959e-09
2.0495e-09
2.04935e-09
2.04921e-09
2.04897e-09
2.04873e-09
2.04833e-09
2.04789e-09
2.04712e-09
2.04614e-09
2.04427e-09
2.04156e-09
2.0374e-09
2.03084e-09
2.0239e-09
2.0413e-09
2.04134e-09
2.04136e-09
2.04138e-09
2.04138e-09
2.04139e-09
2.0414e-09
2.0414e-09
2.04139e-09
2.04138e-09
2.04138e-09
2.04136e-09
2.04134e-09
2.0413e-09
2.04127e-09
2.04121e-09
2.04115e-09
2.04105e-09
2.04096e-09
2.0408e-09
2.04064e-09
2.04039e-09
2.04012e-09
2.03969e-09
2.0392e-09
2.03838e-09
2.0373e-09
2.03539e-09
2.03252e-09
2.02831e-09
2.02182e-09
2.0151e-09
2.03563e-09
2.03561e-09
2.03559e-09
2.03555e-09
2.03552e-09
2.03545e-09
2.03539e-09
2.03529e-09
2.03518e-09
2.03502e-09
2.03484e-09
2.03458e-09
2.03428e-09
2.03382e-09
2.03327e-09
2.03239e-09
2.03122e-09
2.02926e-09
2.02623e-09
2.02196e-09
2.01549e-09
2.00897e-09
2.03118e-09
2.03069e-09
2.03008e-09
2.02915e-09
2.02788e-09
2.02587e-09
2.02265e-09
2.01831e-09
2.01184e-09
2.00549e-09
)
;

boundaryField
{
    fuel
    {
        type            fixedValue;
        value           nonuniform 0();
    }
    wall
    {
        type            zeroGradient;
    }
    outlet
    {
        type            zeroGradient;
    }
    frontAndBack
    {
        type            empty;
    }
    procBoundary0to1
    {
        type            processor;
        value           nonuniform List<scalar> 
50
(
6.39012e-09
6.43893e-09
6.48415e-09
6.507e-09
6.51337e-09
6.51813e-09
6.51529e-09
6.51658e-09
6.51414e-09
6.515e-09
6.51356e-09
6.51424e-09
6.51333e-09
6.51384e-09
6.51325e-09
6.51365e-09
6.51324e-09
6.51357e-09
6.51331e-09
6.51352e-09
6.51334e-09
6.51346e-09
6.51335e-09
6.51342e-09
6.51339e-09
6.51339e-09
6.51342e-09
6.51336e-09
6.51346e-09
6.51334e-09
6.51352e-09
6.51331e-09
6.51357e-09
6.51324e-09
6.51366e-09
6.51325e-09
6.51384e-09
6.51333e-09
6.51424e-09
6.51357e-09
6.515e-09
6.51414e-09
6.51658e-09
6.51529e-09
6.51812e-09
6.51337e-09
6.50699e-09
6.48415e-09
6.43893e-09
6.39012e-09
)
;
    }
    procBoundary0to2
    {
        type            processor;
        value           nonuniform List<scalar> 
53
(
2.0151e-09
2.02182e-09
2.02831e-09
2.03252e-09
2.03539e-09
2.0373e-09
2.03837e-09
2.0392e-09
2.03969e-09
2.04012e-09
2.04039e-09
2.04064e-09
2.0408e-09
2.04096e-09
2.04105e-09
2.04115e-09
2.04121e-09
2.04127e-09
2.04127e-09
2.03555e-09
2.03559e-09
2.03561e-09
2.03563e-09
2.03563e-09
2.03564e-09
2.03565e-09
2.03565e-09
2.03564e-09
2.03563e-09
2.03563e-09
2.03262e-09
2.0326e-09
2.03258e-09
2.03254e-09
2.0325e-09
2.03244e-09
2.03237e-09
2.03226e-09
2.03215e-09
2.03198e-09
2.03178e-09
2.0315e-09
2.0315e-09
2.03079e-09
2.03027e-09
2.02961e-09
2.02861e-09
2.02725e-09
2.02519e-09
2.02177e-09
2.01736e-09
2.01085e-09
2.00465e-09
)
;
    }
}


// ************************************************************************* //
