/*--------------------------------*- C++ -*----------------------------------*\
| =========                 |                                                 |
| \\      /  F ield         | OpenFOAM: The Open Source CFD Toolbox           |
|  \\    /   O peration     | Version:  dev                                   |
|   \\  /    A nd           | Web:      www.OpenFOAM.org                      |
|    \\/     M anipulation  |                                                 |
\*---------------------------------------------------------------------------*/
FoamFile
{
    version     2.0;
    format      ascii;
    class       volScalarField;
    location    "0.09";
    object      P2-;
}
// * * * * * * * * * * * * * * * * * * * * * * * * * * * * * * * * * * * * * //

dimensions      [0 0 0 0 0 0 0];

internalField   nonuniform List<scalar> 
250
(
3.98549e-12
3.98508e-12
3.97401e-12
3.98246e-12
3.9973e-12
4.06505e-12
4.48857e-12
6.47206e-12
2.16534e-11
3.53966e-11
3.73463e-12
3.73333e-12
3.72372e-12
3.73087e-12
3.74461e-12
3.80698e-12
4.18218e-12
5.86368e-12
1.7923e-11
3.02897e-11
1.53042e-11
1.13909e-11
5.06078e-12
3.99506e-12
3.63467e-12
3.55451e-12
3.54674e-12
3.52668e-12
3.54341e-12
3.53071e-12
3.53126e-12
3.52921e-12
3.52096e-12
3.52695e-12
3.53964e-12
3.59716e-12
3.92862e-12
5.35044e-12
1.49288e-11
2.56728e-11
1.4274e-11
9.6894e-12
4.72065e-12
3.78316e-12
3.46039e-12
3.3881e-12
3.38075e-12
3.36386e-12
3.37771e-12
3.36685e-12
3.36786e-12
3.36523e-12
3.3582e-12
3.36321e-12
3.37496e-12
3.42807e-12
3.72033e-12
4.9187e-12
1.23159e-11
2.15835e-11
1.32714e-11
8.39445e-12
4.43558e-12
3.60751e-12
3.31915e-12
3.2535e-12
3.24649e-12
3.23215e-12
3.24368e-12
3.2344e-12
3.23572e-12
3.23276e-12
3.22677e-12
3.23106e-12
3.24201e-12
3.29105e-12
3.54861e-12
4.55502e-12
1.01795e-11
1.80201e-11
1.23204e-11
7.49819e-12
4.18991e-12
3.45766e-12
3.20025e-12
3.14022e-12
3.13351e-12
3.12081e-12
3.13081e-12
3.12253e-12
3.12407e-12
3.12113e-12
3.11591e-12
3.11988e-12
3.1302e-12
3.1754e-12
3.4028e-12
4.24447e-12
8.6401e-12
1.49714e-11
1.14104e-11
6.7666e-12
3.96551e-12
3.32041e-12
3.09041e-12
3.03505e-12
3.02872e-12
3.01647e-12
3.02594e-12
3.01772e-12
3.01957e-12
3.01707e-12
3.01229e-12
3.01641e-12
3.02633e-12
3.06772e-12
3.26968e-12
3.96869e-12
7.34813e-12
1.23993e-11
1.05113e-11
6.138e-12
3.74329e-12
3.17964e-12
2.97399e-12
2.92248e-12
2.91665e-12
2.9036e-12
2.91362e-12
2.90437e-12
2.90669e-12
2.90511e-12
2.90042e-12
2.90523e-12
2.91491e-12
2.95228e-12
3.13087e-12
3.70773e-12
6.31779e-12
1.02525e-11
9.58475e-12
5.56082e-12
3.49732e-12
3.01929e-12
2.8309e-12
2.78139e-12
2.7764e-12
2.75985e-12
2.77266e-12
2.75998e-12
2.76326e-12
2.76329e-12
2.75795e-12
2.76431e-12
2.77426e-12
2.80847e-12
2.97244e-12
3.44104e-12
5.4452e-12
8.46494e-12
8.59713e-12
4.99378e-12
3.20731e-12
2.81945e-12
2.64892e-12
2.60315e-12
2.59921e-12
2.57914e-12
2.59489e-12
2.57861e-12
2.58291e-12
2.58474e-12
2.57873e-12
2.58671e-12
2.59674e-12
2.62678e-12
2.77675e-12
3.15059e-12
4.67992e-12
6.96704e-12
7.53294e-12
4.41e-12
2.88387e-12
2.57533e-12
2.41799e-12
2.3761e-12
2.37343e-12
2.34951e-12
2.36863e-12
2.34832e-12
2.35372e-12
2.35748e-12
2.35065e-12
2.36027e-12
2.37031e-12
2.39608e-12
2.53395e-12
2.82515e-12
3.9843e-12
5.6955e-12
6.39671e-12
3.7996e-12
2.51654e-12
2.28347e-12
2.13912e-12
2.1019e-12
2.10057e-12
2.07357e-12
2.09556e-12
2.07182e-12
2.07816e-12
2.08361e-12
2.07609e-12
2.08696e-12
2.09674e-12
2.11817e-12
2.24389e-12
2.4641e-12
3.33568e-12
4.60044e-12
5.24476e-12
3.1725e-12
2.12019e-12
1.95406e-12
1.82526e-12
1.79292e-12
1.79285e-12
1.76439e-12
1.788e-12
1.76227e-12
1.76918e-12
1.77577e-12
1.76795e-12
1.77933e-12
1.78848e-12
1.80566e-12
1.91773e-12
2.07856e-12
2.72702e-12
3.64929e-12
1.44756e-12
1.4546e-12
1.44697e-12
1.45798e-12
1.46616e-12
1.47941e-12
1.57591e-12
1.68876e-12
2.16425e-12
2.82604e-12
)
;

boundaryField
{
    fuel
    {
        type            fixedValue;
        value           nonuniform 0();
    }
    wall
    {
        type            zeroGradient;
    }
    outlet
    {
        type            zeroGradient;
    }
    frontAndBack
    {
        type            empty;
    }
    procBoundary0to1
    {
        type            processor;
        value           nonuniform List<scalar> 
21
(
4.12412e-12
2.55216e-12
1.71818e-12
1.60773e-12
1.49685e-12
1.46982e-12
1.47069e-12
1.44286e-12
1.46638e-12
1.44061e-12
1.44061e-12
1.13642e-12
1.1432e-12
1.13624e-12
1.14612e-12
1.15306e-12
1.16295e-12
1.24242e-12
1.31823e-12
1.65967e-12
2.12501e-12
)
;
    }
    procBoundary0to2
    {
        type            processor;
        value           nonuniform List<scalar> 
12
(
3.98801e-12
1.62971e-11
1.34715e-11
5.47265e-12
4.25186e-12
3.85062e-12
3.76147e-12
3.75304e-12
3.72954e-12
3.74949e-12
3.73518e-12
3.73518e-12
)
;
    }
    procBoundary0to3
    {
        type            processor;
        value           nonuniform List<scalar> 10(4.2913e-12 4.29191e-12 4.27928e-12 4.2891e-12 4.30506e-12 4.37879e-12 4.88795e-12 7.27021e-12 2.66192e-11 4.12104e-11);
    }
}


// ************************************************************************* //
