/*--------------------------------*- C++ -*----------------------------------*\
| =========                 |                                                 |
| \\      /  F ield         | OpenFOAM: The Open Source CFD Toolbox           |
|  \\    /   O peration     | Version:  dev                                   |
|   \\  /    A nd           | Web:      www.OpenFOAM.org                      |
|    \\/     M anipulation  |                                                 |
\*---------------------------------------------------------------------------*/
FoamFile
{
    version     2.0;
    format      ascii;
    class       volScalarField;
    location    "0.09";
    object      PC3H4;
}
// * * * * * * * * * * * * * * * * * * * * * * * * * * * * * * * * * * * * * //

dimensions      [0 0 0 0 0 0 0];

internalField   nonuniform List<scalar> 
2014
(
2.11921e-07
2.12403e-07
2.12844e-07
2.13068e-07
2.13147e-07
2.13195e-07
2.13177e-07
2.13185e-07
2.13165e-07
2.13168e-07
2.13156e-07
2.13159e-07
2.13152e-07
2.13154e-07
2.13149e-07
2.13152e-07
2.13149e-07
2.13151e-07
2.13149e-07
2.1315e-07
2.13149e-07
2.1315e-07
2.13149e-07
2.13149e-07
2.13149e-07
2.13149e-07
2.13149e-07
2.13149e-07
2.1315e-07
2.13149e-07
2.1315e-07
2.13149e-07
2.13151e-07
2.13149e-07
2.13152e-07
2.1315e-07
2.13154e-07
2.13152e-07
2.13159e-07
2.13156e-07
2.13168e-07
2.13165e-07
2.13185e-07
2.13177e-07
2.13195e-07
2.13147e-07
2.13068e-07
2.12844e-07
2.12403e-07
2.11921e-07
2.09416e-07
2.09896e-07
2.10332e-07
2.10553e-07
2.10632e-07
2.10679e-07
2.10661e-07
2.10668e-07
2.10648e-07
2.10651e-07
2.10639e-07
2.10642e-07
2.10635e-07
2.10637e-07
2.10633e-07
2.10635e-07
2.10632e-07
2.10634e-07
2.10632e-07
2.10633e-07
2.10632e-07
2.10633e-07
2.10632e-07
2.10632e-07
2.10632e-07
2.10632e-07
2.10632e-07
2.10632e-07
2.10633e-07
2.10632e-07
2.10633e-07
2.10632e-07
2.10634e-07
2.10632e-07
2.10635e-07
2.10633e-07
2.10637e-07
2.10635e-07
2.10642e-07
2.10639e-07
2.10651e-07
2.10648e-07
2.10668e-07
2.10661e-07
2.10679e-07
2.10631e-07
2.10553e-07
2.10331e-07
2.09896e-07
2.09416e-07
2.06973e-07
2.07452e-07
2.0788e-07
2.08098e-07
2.08176e-07
2.08223e-07
2.08205e-07
2.08212e-07
2.08192e-07
2.08195e-07
2.08183e-07
2.08186e-07
2.08178e-07
2.08181e-07
2.08176e-07
2.08178e-07
2.08175e-07
2.08177e-07
2.08175e-07
2.08177e-07
2.08175e-07
2.08176e-07
2.08175e-07
2.08176e-07
2.08175e-07
2.08175e-07
2.08176e-07
2.08175e-07
2.08176e-07
2.08175e-07
2.08177e-07
2.08175e-07
2.08177e-07
2.08175e-07
2.08178e-07
2.08176e-07
2.08181e-07
2.08178e-07
2.08186e-07
2.08183e-07
2.08195e-07
2.08192e-07
2.08212e-07
2.08205e-07
2.08223e-07
2.08176e-07
2.08098e-07
2.0788e-07
2.07452e-07
2.06973e-07
2.04591e-07
2.05068e-07
2.05488e-07
2.05703e-07
2.05779e-07
2.05825e-07
2.05808e-07
2.05814e-07
2.05795e-07
2.05797e-07
2.05785e-07
2.05788e-07
2.0578e-07
2.05783e-07
2.05778e-07
2.0578e-07
2.05777e-07
2.05779e-07
2.05777e-07
2.05779e-07
2.05777e-07
2.05778e-07
2.05777e-07
2.05778e-07
2.05777e-07
2.05777e-07
2.05778e-07
2.05777e-07
2.05778e-07
2.05777e-07
2.05779e-07
2.05777e-07
2.05779e-07
2.05777e-07
2.0578e-07
2.05778e-07
2.05783e-07
2.0578e-07
2.05788e-07
2.05785e-07
2.05797e-07
2.05795e-07
2.05814e-07
2.05808e-07
2.05825e-07
2.05779e-07
2.05703e-07
2.05488e-07
2.05068e-07
2.04591e-07
2.02267e-07
2.02742e-07
2.03155e-07
2.03365e-07
2.0344e-07
2.03485e-07
2.03468e-07
2.03474e-07
2.03455e-07
2.03457e-07
2.03445e-07
2.03447e-07
2.0344e-07
2.03442e-07
2.03438e-07
2.0344e-07
2.03437e-07
2.03439e-07
2.03437e-07
2.03438e-07
2.03437e-07
2.03438e-07
2.03437e-07
2.03437e-07
2.03437e-07
2.03437e-07
2.03437e-07
2.03437e-07
2.03438e-07
2.03437e-07
2.03438e-07
2.03437e-07
2.03439e-07
2.03437e-07
2.0344e-07
2.03438e-07
2.03442e-07
2.0344e-07
2.03447e-07
2.03445e-07
2.03457e-07
2.03455e-07
2.03474e-07
2.03468e-07
2.03485e-07
2.0344e-07
2.03365e-07
2.03155e-07
2.02742e-07
2.02267e-07
2.00001e-07
2.00475e-07
2.00879e-07
2.01084e-07
2.01158e-07
2.01202e-07
2.01185e-07
2.0119e-07
2.01171e-07
2.01173e-07
2.01161e-07
2.01163e-07
2.01156e-07
2.01158e-07
2.01154e-07
2.01156e-07
2.01153e-07
2.01155e-07
2.01153e-07
2.01154e-07
2.01153e-07
2.01154e-07
2.01153e-07
2.01153e-07
2.01153e-07
2.01153e-07
2.01153e-07
2.01153e-07
2.01154e-07
2.01153e-07
2.01154e-07
2.01153e-07
2.01155e-07
2.01153e-07
2.01156e-07
2.01154e-07
2.01158e-07
2.01156e-07
2.01163e-07
2.01161e-07
2.01173e-07
2.01171e-07
2.0119e-07
2.01185e-07
2.01202e-07
2.01158e-07
2.01084e-07
2.00879e-07
2.00475e-07
2.00001e-07
1.97792e-07
1.98263e-07
1.98658e-07
1.98858e-07
1.9893e-07
1.98973e-07
1.98957e-07
1.98961e-07
1.98943e-07
1.98944e-07
1.98933e-07
1.98935e-07
1.98928e-07
1.9893e-07
1.98925e-07
1.98927e-07
1.98924e-07
1.98926e-07
1.98924e-07
1.98926e-07
1.98924e-07
1.98925e-07
1.98924e-07
1.98925e-07
1.98925e-07
1.98925e-07
1.98925e-07
1.98924e-07
1.98925e-07
1.98924e-07
1.98926e-07
1.98924e-07
1.98926e-07
1.98924e-07
1.98927e-07
1.98925e-07
1.9893e-07
1.98928e-07
1.98935e-07
1.98933e-07
1.98944e-07
1.98943e-07
1.98961e-07
1.98957e-07
1.98973e-07
1.9893e-07
1.98858e-07
1.98658e-07
1.98263e-07
1.97792e-07
1.95639e-07
1.96107e-07
1.96492e-07
1.96687e-07
1.96757e-07
1.96799e-07
1.96783e-07
1.96787e-07
1.96769e-07
1.9677e-07
1.96759e-07
1.9676e-07
1.96753e-07
1.96755e-07
1.96751e-07
1.96753e-07
1.9675e-07
1.96752e-07
1.9675e-07
1.96751e-07
1.9675e-07
1.96751e-07
1.9675e-07
1.9675e-07
1.9675e-07
1.9675e-07
1.9675e-07
1.9675e-07
1.96751e-07
1.9675e-07
1.96751e-07
1.9675e-07
1.96752e-07
1.9675e-07
1.96753e-07
1.96751e-07
1.96755e-07
1.96753e-07
1.9676e-07
1.96759e-07
1.9677e-07
1.96769e-07
1.96787e-07
1.96783e-07
1.96799e-07
1.96757e-07
1.96687e-07
1.96492e-07
1.96107e-07
1.95639e-07
1.9354e-07
1.94004e-07
1.9438e-07
1.9457e-07
1.94637e-07
1.94678e-07
1.94662e-07
1.94666e-07
1.94648e-07
1.94649e-07
1.94638e-07
1.94639e-07
1.94632e-07
1.94634e-07
1.9463e-07
1.94632e-07
1.94629e-07
1.94631e-07
1.94629e-07
1.9463e-07
1.94629e-07
1.9463e-07
1.94629e-07
1.94629e-07
1.94629e-07
1.94629e-07
1.94629e-07
1.94629e-07
1.9463e-07
1.94629e-07
1.9463e-07
1.94629e-07
1.94631e-07
1.94629e-07
1.94632e-07
1.9463e-07
1.94634e-07
1.94632e-07
1.94639e-07
1.94638e-07
1.94649e-07
1.94648e-07
1.94666e-07
1.94662e-07
1.94678e-07
1.94637e-07
1.9457e-07
1.9438e-07
1.94004e-07
1.9354e-07
1.91495e-07
1.91955e-07
1.9232e-07
1.92505e-07
1.9257e-07
1.9261e-07
1.92594e-07
1.92598e-07
1.9258e-07
1.9258e-07
1.92569e-07
1.92571e-07
1.92564e-07
1.92566e-07
1.92562e-07
1.92563e-07
1.92561e-07
1.92562e-07
1.92561e-07
1.92562e-07
1.92561e-07
1.92561e-07
1.92561e-07
1.92561e-07
1.92561e-07
1.92561e-07
1.92561e-07
1.92561e-07
1.92561e-07
1.92561e-07
1.92562e-07
1.92561e-07
1.92562e-07
1.92561e-07
1.92563e-07
1.92562e-07
1.92566e-07
1.92564e-07
1.92571e-07
1.92569e-07
1.9258e-07
1.9258e-07
1.92598e-07
1.92594e-07
1.9261e-07
1.9257e-07
1.92504e-07
1.9232e-07
1.91955e-07
1.91495e-07
1.89503e-07
1.89957e-07
1.90312e-07
1.90491e-07
1.90555e-07
1.90594e-07
1.90578e-07
1.90581e-07
1.90563e-07
1.90564e-07
1.90553e-07
1.90554e-07
1.90548e-07
1.90549e-07
1.90545e-07
1.90547e-07
1.90544e-07
1.90546e-07
1.90544e-07
1.90545e-07
1.90544e-07
1.90545e-07
1.90544e-07
1.90545e-07
1.90544e-07
1.90544e-07
1.90545e-07
1.90544e-07
1.90545e-07
1.90544e-07
1.90545e-07
1.90544e-07
1.90546e-07
1.90544e-07
1.90547e-07
1.90545e-07
1.90549e-07
1.90548e-07
1.90554e-07
1.90553e-07
1.90564e-07
1.90563e-07
1.90581e-07
1.90578e-07
1.90594e-07
1.90555e-07
1.90491e-07
1.90312e-07
1.89957e-07
1.89503e-07
1.87563e-07
1.88011e-07
1.88355e-07
1.88529e-07
1.8859e-07
1.88628e-07
1.88612e-07
1.88615e-07
1.88598e-07
1.88598e-07
1.88588e-07
1.88589e-07
1.88582e-07
1.88584e-07
1.8858e-07
1.88581e-07
1.88579e-07
1.88581e-07
1.88579e-07
1.8858e-07
1.88579e-07
1.8858e-07
1.88579e-07
1.88579e-07
1.88579e-07
1.88579e-07
1.88579e-07
1.88579e-07
1.8858e-07
1.88579e-07
1.8858e-07
1.88579e-07
1.88581e-07
1.88579e-07
1.88581e-07
1.8858e-07
1.88584e-07
1.88582e-07
1.88589e-07
1.88588e-07
1.88598e-07
1.88598e-07
1.88615e-07
1.88612e-07
1.88628e-07
1.8859e-07
1.88529e-07
1.88355e-07
1.88011e-07
1.87563e-07
1.85675e-07
1.86114e-07
1.86449e-07
1.86617e-07
1.86677e-07
1.86713e-07
1.86697e-07
1.867e-07
1.86683e-07
1.86683e-07
1.86673e-07
1.86674e-07
1.86667e-07
1.86669e-07
1.86665e-07
1.86667e-07
1.86664e-07
1.86666e-07
1.86664e-07
1.86665e-07
1.86664e-07
1.86665e-07
1.86664e-07
1.86664e-07
1.86664e-07
1.86664e-07
1.86664e-07
1.86664e-07
1.86665e-07
1.86664e-07
1.86665e-07
1.86664e-07
1.86666e-07
1.86664e-07
1.86667e-07
1.86665e-07
1.86669e-07
1.86667e-07
1.86674e-07
1.86673e-07
1.86683e-07
1.86683e-07
1.867e-07
1.86697e-07
1.86713e-07
1.86677e-07
1.86617e-07
1.86449e-07
1.86114e-07
1.85675e-07
1.83838e-07
1.84267e-07
1.84592e-07
1.84755e-07
1.84812e-07
1.84847e-07
1.84832e-07
1.84835e-07
1.84818e-07
1.84818e-07
1.84808e-07
1.84809e-07
1.84802e-07
1.84804e-07
1.848e-07
1.84802e-07
1.84799e-07
1.84801e-07
1.84799e-07
1.848e-07
1.84799e-07
1.848e-07
1.84799e-07
1.848e-07
1.84799e-07
1.84799e-07
1.848e-07
1.84799e-07
1.848e-07
1.84799e-07
1.848e-07
1.84799e-07
1.84801e-07
1.84799e-07
1.84802e-07
1.848e-07
1.84804e-07
1.84802e-07
1.84809e-07
1.84808e-07
1.84818e-07
1.84818e-07
1.84835e-07
1.84832e-07
1.84847e-07
1.84812e-07
1.84755e-07
1.84592e-07
1.84267e-07
1.83838e-07
1.82051e-07
1.82469e-07
1.82785e-07
1.82943e-07
1.82997e-07
1.83031e-07
1.83016e-07
1.83018e-07
1.83002e-07
1.83002e-07
1.82992e-07
1.82993e-07
1.82987e-07
1.82988e-07
1.82984e-07
1.82986e-07
1.82983e-07
1.82985e-07
1.82983e-07
1.82985e-07
1.82984e-07
1.82984e-07
1.82984e-07
1.82984e-07
1.82984e-07
1.82984e-07
1.82984e-07
1.82984e-07
1.82984e-07
1.82984e-07
1.82985e-07
1.82983e-07
1.82985e-07
1.82983e-07
1.82986e-07
1.82984e-07
1.82988e-07
1.82987e-07
1.82993e-07
1.82992e-07
1.83002e-07
1.83002e-07
1.83018e-07
1.83016e-07
1.83031e-07
1.82997e-07
1.82943e-07
1.82785e-07
1.82469e-07
1.82051e-07
1.80314e-07
1.8072e-07
1.81026e-07
1.81179e-07
1.81231e-07
1.81264e-07
1.81249e-07
1.81251e-07
1.81235e-07
1.81235e-07
1.81225e-07
1.81226e-07
1.8122e-07
1.81221e-07
1.81217e-07
1.81219e-07
1.81217e-07
1.81218e-07
1.81217e-07
1.81218e-07
1.81217e-07
1.81217e-07
1.81217e-07
1.81217e-07
1.81217e-07
1.81217e-07
1.81217e-07
1.81217e-07
1.81217e-07
1.81217e-07
1.81218e-07
1.81217e-07
1.81218e-07
1.81217e-07
1.81219e-07
1.81217e-07
1.81221e-07
1.8122e-07
1.81226e-07
1.81225e-07
1.81235e-07
1.81235e-07
1.81251e-07
1.81249e-07
1.81264e-07
1.81231e-07
1.81179e-07
1.81026e-07
1.8072e-07
1.80313e-07
1.78624e-07
1.79018e-07
1.79315e-07
1.79463e-07
1.79513e-07
1.79544e-07
1.7953e-07
1.79532e-07
1.79517e-07
1.79516e-07
1.79506e-07
1.79507e-07
1.79501e-07
1.79502e-07
1.79499e-07
1.795e-07
1.79498e-07
1.795e-07
1.79498e-07
1.79499e-07
1.79498e-07
1.79499e-07
1.79498e-07
1.79499e-07
1.79498e-07
1.79498e-07
1.79499e-07
1.79498e-07
1.79499e-07
1.79498e-07
1.79499e-07
1.79498e-07
1.795e-07
1.79498e-07
1.795e-07
1.79499e-07
1.79502e-07
1.79501e-07
1.79507e-07
1.79506e-07
1.79516e-07
1.79517e-07
1.79532e-07
1.7953e-07
1.79544e-07
1.79513e-07
1.79463e-07
1.79315e-07
1.79018e-07
1.78624e-07
1.76983e-07
1.77364e-07
1.77652e-07
1.77795e-07
1.77842e-07
1.77873e-07
1.77859e-07
1.7786e-07
1.77845e-07
1.77845e-07
1.77836e-07
1.77836e-07
1.7783e-07
1.77832e-07
1.77828e-07
1.7783e-07
1.77828e-07
1.77829e-07
1.77828e-07
1.77829e-07
1.77828e-07
1.77828e-07
1.77828e-07
1.77828e-07
1.77828e-07
1.77828e-07
1.77828e-07
1.77828e-07
1.77828e-07
1.77828e-07
1.77829e-07
1.77828e-07
1.77829e-07
1.77828e-07
1.7783e-07
1.77828e-07
1.77832e-07
1.7783e-07
1.77836e-07
1.77836e-07
1.77845e-07
1.77845e-07
1.7786e-07
1.77859e-07
1.77873e-07
1.77842e-07
1.77795e-07
1.77651e-07
1.77364e-07
1.76983e-07
1.75389e-07
1.75756e-07
1.76035e-07
1.76174e-07
1.76219e-07
1.76248e-07
1.76235e-07
1.76236e-07
1.76222e-07
1.76221e-07
1.76212e-07
1.76212e-07
1.76207e-07
1.76208e-07
1.76205e-07
1.76206e-07
1.76204e-07
1.76206e-07
1.76204e-07
1.76205e-07
1.76204e-07
1.76205e-07
1.76204e-07
1.76205e-07
1.76205e-07
1.76205e-07
1.76205e-07
1.76204e-07
1.76205e-07
1.76204e-07
1.76205e-07
1.76204e-07
1.76206e-07
1.76204e-07
1.76206e-07
1.76205e-07
1.76208e-07
1.76207e-07
1.76212e-07
1.76212e-07
1.76221e-07
1.76222e-07
1.76236e-07
1.76235e-07
1.76248e-07
1.76219e-07
1.76174e-07
1.76035e-07
1.75756e-07
1.75389e-07
1.73841e-07
1.74195e-07
1.74466e-07
1.746e-07
1.74643e-07
1.7467e-07
1.74658e-07
1.74658e-07
1.74645e-07
1.74644e-07
1.74635e-07
1.74636e-07
1.74631e-07
1.74632e-07
1.74629e-07
1.7463e-07
1.74628e-07
1.74629e-07
1.74628e-07
1.74629e-07
1.74628e-07
1.74629e-07
1.74628e-07
1.74629e-07
1.74628e-07
1.74628e-07
1.74629e-07
1.74628e-07
1.74629e-07
1.74628e-07
1.74629e-07
1.74628e-07
1.74629e-07
1.74628e-07
1.7463e-07
1.74629e-07
1.74632e-07
1.74631e-07
1.74636e-07
1.74635e-07
1.74644e-07
1.74645e-07
1.74658e-07
1.74658e-07
1.7467e-07
1.74643e-07
1.746e-07
1.74466e-07
1.74195e-07
1.73841e-07
1.7234e-07
1.7268e-07
1.72943e-07
1.73072e-07
1.73113e-07
1.73139e-07
1.73127e-07
1.73127e-07
1.73114e-07
1.73113e-07
1.73105e-07
1.73106e-07
1.73101e-07
1.73102e-07
1.73099e-07
1.731e-07
1.73098e-07
1.73099e-07
1.73098e-07
1.73099e-07
1.73098e-07
1.73099e-07
1.73098e-07
1.73099e-07
1.73099e-07
1.73099e-07
1.73099e-07
1.73098e-07
1.73099e-07
1.73098e-07
1.73099e-07
1.73098e-07
1.73099e-07
1.73098e-07
1.731e-07
1.73099e-07
1.73102e-07
1.73101e-07
1.73106e-07
1.73105e-07
1.73113e-07
1.73114e-07
1.73127e-07
1.73127e-07
1.73139e-07
1.73113e-07
1.73072e-07
1.72943e-07
1.7268e-07
1.7234e-07
1.70883e-07
1.71211e-07
1.71466e-07
1.71589e-07
1.71628e-07
1.71654e-07
1.71642e-07
1.71642e-07
1.7163e-07
1.71629e-07
1.71621e-07
1.71622e-07
1.71617e-07
1.71618e-07
1.71615e-07
1.71616e-07
1.71614e-07
1.71616e-07
1.71615e-07
1.71615e-07
1.71615e-07
1.71615e-07
1.71615e-07
1.71615e-07
1.71615e-07
1.71615e-07
1.71615e-07
1.71615e-07
1.71615e-07
1.71615e-07
1.71615e-07
1.71615e-07
1.71616e-07
1.71614e-07
1.71616e-07
1.71615e-07
1.71618e-07
1.71617e-07
1.71622e-07
1.71621e-07
1.71629e-07
1.7163e-07
1.71642e-07
1.71642e-07
1.71654e-07
1.71628e-07
1.71589e-07
1.71466e-07
1.71211e-07
1.70883e-07
1.69472e-07
1.69788e-07
1.70033e-07
1.70152e-07
1.7019e-07
1.70214e-07
1.70202e-07
1.70203e-07
1.70191e-07
1.7019e-07
1.70183e-07
1.70183e-07
1.70178e-07
1.70179e-07
1.70177e-07
1.70178e-07
1.70176e-07
1.70178e-07
1.70176e-07
1.70177e-07
1.70177e-07
1.70177e-07
1.70177e-07
1.70177e-07
1.70177e-07
1.70177e-07
1.70177e-07
1.70177e-07
1.70177e-07
1.70177e-07
1.70177e-07
1.70176e-07
1.70178e-07
1.70176e-07
1.70178e-07
1.70177e-07
1.70179e-07
1.70178e-07
1.70183e-07
1.70183e-07
1.7019e-07
1.70191e-07
1.70203e-07
1.70202e-07
1.70214e-07
1.7019e-07
1.70152e-07
1.70033e-07
1.69788e-07
1.69472e-07
1.68105e-07
1.68409e-07
1.68645e-07
1.6876e-07
1.68796e-07
1.68818e-07
1.68808e-07
1.68808e-07
1.68797e-07
1.68796e-07
1.68789e-07
1.6879e-07
1.68785e-07
1.68786e-07
1.68784e-07
1.68785e-07
1.68783e-07
1.68785e-07
1.68783e-07
1.68784e-07
1.68784e-07
1.68784e-07
1.68784e-07
1.68784e-07
1.68784e-07
1.68784e-07
1.68784e-07
1.68784e-07
1.68784e-07
1.68784e-07
1.68784e-07
1.68783e-07
1.68785e-07
1.68783e-07
1.68785e-07
1.68784e-07
1.68786e-07
1.68785e-07
1.6879e-07
1.68789e-07
1.68796e-07
1.68797e-07
1.68808e-07
1.68808e-07
1.68818e-07
1.68796e-07
1.6876e-07
1.68645e-07
1.68409e-07
1.68105e-07
1.66782e-07
1.67075e-07
1.67301e-07
1.67412e-07
1.67446e-07
1.67468e-07
1.67458e-07
1.67458e-07
1.67448e-07
1.67447e-07
1.6744e-07
1.67441e-07
1.67437e-07
1.67438e-07
1.67435e-07
1.67436e-07
1.67435e-07
1.67436e-07
1.67435e-07
1.67436e-07
1.67435e-07
1.67436e-07
1.67435e-07
1.67436e-07
1.67436e-07
1.67436e-07
1.67436e-07
1.67435e-07
1.67436e-07
1.67435e-07
1.67436e-07
1.67435e-07
1.67436e-07
1.67435e-07
1.67436e-07
1.67435e-07
1.67438e-07
1.67437e-07
1.67441e-07
1.6744e-07
1.67447e-07
1.67448e-07
1.67458e-07
1.67458e-07
1.67468e-07
1.67446e-07
1.67412e-07
1.67301e-07
1.67075e-07
1.66782e-07
1.65546e-07
1.65829e-07
1.66045e-07
1.66154e-07
1.66187e-07
1.66207e-07
1.66197e-07
1.66198e-07
1.66188e-07
1.66187e-07
1.66181e-07
1.66182e-07
1.66178e-07
1.66179e-07
1.66176e-07
1.66178e-07
1.66176e-07
1.66177e-07
1.66176e-07
1.66177e-07
1.66177e-07
1.66177e-07
1.66177e-07
1.66177e-07
1.66177e-07
1.66177e-07
1.66177e-07
1.66177e-07
1.66177e-07
1.66177e-07
1.66177e-07
1.66176e-07
1.66177e-07
1.66176e-07
1.66178e-07
1.66176e-07
1.66179e-07
1.66178e-07
1.66182e-07
1.66181e-07
1.66187e-07
1.66188e-07
1.66198e-07
1.66197e-07
1.66207e-07
1.66187e-07
1.66154e-07
1.66045e-07
1.65829e-07
1.65546e-07
1.64336e-07
1.64611e-07
1.64813e-07
1.64917e-07
1.64946e-07
1.64963e-07
1.64952e-07
1.64952e-07
1.64942e-07
1.64941e-07
1.64935e-07
1.64935e-07
1.64931e-07
1.64932e-07
1.6493e-07
1.64931e-07
1.6493e-07
1.64931e-07
1.6493e-07
1.64931e-07
1.6493e-07
1.64931e-07
1.6493e-07
1.64931e-07
1.6493e-07
1.6493e-07
1.64931e-07
1.6493e-07
1.64931e-07
1.6493e-07
1.64931e-07
1.6493e-07
1.64931e-07
1.6493e-07
1.64931e-07
1.6493e-07
1.64932e-07
1.64931e-07
1.64935e-07
1.64935e-07
1.64941e-07
1.64942e-07
1.64952e-07
1.64952e-07
1.64963e-07
1.64946e-07
1.64917e-07
1.64813e-07
1.64611e-07
1.64336e-07
1.63147e-07
1.63412e-07
1.63604e-07
1.63705e-07
1.63732e-07
1.63747e-07
1.63738e-07
1.63738e-07
1.63728e-07
1.63728e-07
1.63722e-07
1.63722e-07
1.63718e-07
1.63719e-07
1.63717e-07
1.63718e-07
1.63717e-07
1.63718e-07
1.63717e-07
1.63718e-07
1.63717e-07
1.63718e-07
1.63717e-07
1.63718e-07
1.63718e-07
1.63718e-07
1.63718e-07
1.63717e-07
1.63718e-07
1.63717e-07
1.63718e-07
1.63717e-07
1.63718e-07
1.63717e-07
1.63718e-07
1.63717e-07
1.63719e-07
1.63718e-07
1.63722e-07
1.63722e-07
1.63728e-07
1.63728e-07
1.63738e-07
1.63738e-07
1.63747e-07
1.63732e-07
1.63704e-07
1.63604e-07
1.63412e-07
1.63147e-07
1.62e-07
1.62255e-07
1.62437e-07
1.62535e-07
1.62562e-07
1.62575e-07
1.62566e-07
1.62566e-07
1.62558e-07
1.62557e-07
1.62551e-07
1.62551e-07
1.62548e-07
1.62549e-07
1.62547e-07
1.62548e-07
1.62547e-07
1.62548e-07
1.62547e-07
1.62548e-07
1.62548e-07
1.62548e-07
1.62548e-07
1.62548e-07
1.62548e-07
1.62548e-07
1.62548e-07
1.62548e-07
1.62548e-07
1.62548e-07
1.62548e-07
1.62547e-07
1.62548e-07
1.62547e-07
1.62548e-07
1.62547e-07
1.62549e-07
1.62548e-07
1.62551e-07
1.62551e-07
1.62557e-07
1.62558e-07
1.62566e-07
1.62566e-07
1.62575e-07
1.62562e-07
1.62535e-07
1.62437e-07
1.62255e-07
1.62e-07
1.60895e-07
1.61139e-07
1.61312e-07
1.61407e-07
1.61433e-07
1.61445e-07
1.61437e-07
1.61437e-07
1.61429e-07
1.61428e-07
1.61423e-07
1.61424e-07
1.6142e-07
1.61421e-07
1.6142e-07
1.61421e-07
1.6142e-07
1.61421e-07
1.6142e-07
1.61421e-07
1.6142e-07
1.61421e-07
1.6142e-07
1.61421e-07
1.61421e-07
1.61421e-07
1.61421e-07
1.6142e-07
1.61421e-07
1.6142e-07
1.61421e-07
1.6142e-07
1.61421e-07
1.6142e-07
1.61421e-07
1.6142e-07
1.61421e-07
1.6142e-07
1.61424e-07
1.61423e-07
1.61428e-07
1.61429e-07
1.61437e-07
1.61437e-07
1.61445e-07
1.61433e-07
1.61407e-07
1.61312e-07
1.61139e-07
1.60895e-07
1.5983e-07
1.60064e-07
1.60229e-07
1.60321e-07
1.60346e-07
1.60356e-07
1.60349e-07
1.60349e-07
1.60342e-07
1.60341e-07
1.60337e-07
1.60337e-07
1.60334e-07
1.60335e-07
1.60334e-07
1.60335e-07
1.60334e-07
1.60335e-07
1.60334e-07
1.60335e-07
1.60335e-07
1.60335e-07
1.60335e-07
1.60335e-07
1.60335e-07
1.60335e-07
1.60335e-07
1.60335e-07
1.60335e-07
1.60335e-07
1.60335e-07
1.60334e-07
1.60335e-07
1.60334e-07
1.60335e-07
1.60334e-07
1.60335e-07
1.60334e-07
1.60337e-07
1.60337e-07
1.60341e-07
1.60342e-07
1.60349e-07
1.60348e-07
1.60356e-07
1.60346e-07
1.60321e-07
1.60229e-07
1.60064e-07
1.5983e-07
1.5884e-07
1.59065e-07
1.59222e-07
1.59311e-07
1.59336e-07
1.59343e-07
1.59337e-07
1.59337e-07
1.59331e-07
1.59331e-07
1.59326e-07
1.59327e-07
1.59324e-07
1.59325e-07
1.59324e-07
1.59325e-07
1.59324e-07
1.59325e-07
1.59325e-07
1.59325e-07
1.59325e-07
1.59325e-07
1.59325e-07
1.59325e-07
1.59325e-07
1.59325e-07
1.59325e-07
1.59325e-07
1.59325e-07
1.59325e-07
1.59325e-07
1.59325e-07
1.59325e-07
1.59324e-07
1.59325e-07
1.59324e-07
1.59325e-07
1.59324e-07
1.59327e-07
1.59326e-07
1.59331e-07
1.59331e-07
1.59337e-07
1.59337e-07
1.59343e-07
1.59336e-07
1.59311e-07
1.59222e-07
1.59065e-07
1.5884e-07
1.5789e-07
1.58106e-07
1.58256e-07
1.58342e-07
1.58367e-07
1.58372e-07
1.58366e-07
1.58366e-07
1.58359e-07
1.58358e-07
1.58354e-07
1.58354e-07
1.58351e-07
1.58352e-07
1.5835e-07
1.58352e-07
1.58351e-07
1.58352e-07
1.58351e-07
1.58352e-07
1.58351e-07
1.58352e-07
1.58351e-07
1.58352e-07
1.58352e-07
1.58352e-07
1.58352e-07
1.58351e-07
1.58352e-07
1.58351e-07
1.58352e-07
1.58351e-07
1.58352e-07
1.58351e-07
1.58352e-07
1.5835e-07
1.58352e-07
1.58351e-07
1.58354e-07
1.58354e-07
1.58358e-07
1.58359e-07
1.58366e-07
1.58366e-07
1.58372e-07
1.58367e-07
1.58342e-07
1.58256e-07
1.58106e-07
1.5789e-07
1.56952e-07
1.5716e-07
1.57303e-07
1.57385e-07
1.57409e-07
1.5741e-07
1.57405e-07
1.57405e-07
1.57398e-07
1.57397e-07
1.57393e-07
1.57393e-07
1.57391e-07
1.57391e-07
1.5739e-07
1.57391e-07
1.5739e-07
1.57391e-07
1.57391e-07
1.57391e-07
1.57391e-07
1.57391e-07
1.57391e-07
1.57391e-07
1.57391e-07
1.57391e-07
1.57391e-07
1.57391e-07
1.57391e-07
1.57391e-07
1.57391e-07
1.57391e-07
1.57391e-07
1.5739e-07
1.57391e-07
1.5739e-07
1.57391e-07
1.57391e-07
1.57393e-07
1.57393e-07
1.57397e-07
1.57398e-07
1.57405e-07
1.57405e-07
1.5741e-07
1.57409e-07
1.57385e-07
1.57303e-07
1.5716e-07
1.56952e-07
1.56049e-07
1.56247e-07
1.56384e-07
1.56464e-07
1.56488e-07
1.56516e-07
1.56512e-07
1.56512e-07
1.56506e-07
1.56505e-07
1.56501e-07
1.56502e-07
1.56499e-07
1.565e-07
1.56499e-07
1.565e-07
1.56499e-07
1.565e-07
1.56499e-07
1.565e-07
1.565e-07
1.565e-07
1.565e-07
1.565e-07
1.565e-07
1.565e-07
1.565e-07
1.565e-07
1.565e-07
1.565e-07
1.565e-07
1.56499e-07
1.565e-07
1.56499e-07
1.565e-07
1.56499e-07
1.565e-07
1.56499e-07
1.56502e-07
1.56501e-07
1.56505e-07
1.56506e-07
1.56512e-07
1.56511e-07
1.56516e-07
1.56488e-07
1.56464e-07
1.56384e-07
1.56247e-07
1.56049e-07
1.55212e-07
1.55402e-07
1.55532e-07
1.5561e-07
1.55635e-07
1.5566e-07
1.55657e-07
1.55658e-07
1.55652e-07
1.55652e-07
1.55648e-07
1.55649e-07
1.55646e-07
1.55647e-07
1.55646e-07
1.55647e-07
1.55646e-07
1.55647e-07
1.55647e-07
1.55648e-07
1.55647e-07
1.55648e-07
1.55648e-07
1.55648e-07
1.55648e-07
1.55648e-07
1.55648e-07
1.55648e-07
1.55648e-07
1.55647e-07
1.55648e-07
1.55647e-07
1.55647e-07
1.55646e-07
1.55647e-07
1.55646e-07
1.55647e-07
1.55646e-07
1.55649e-07
1.55648e-07
1.55652e-07
1.55652e-07
1.55658e-07
1.55657e-07
1.5566e-07
1.55635e-07
1.5561e-07
1.55532e-07
1.55402e-07
1.55212e-07
1.54407e-07
1.54591e-07
1.54713e-07
1.54788e-07
1.5481e-07
1.54834e-07
1.5483e-07
1.5483e-07
1.54824e-07
1.54824e-07
1.5482e-07
1.5482e-07
1.54818e-07
1.54819e-07
1.54818e-07
1.54819e-07
1.54818e-07
1.54819e-07
1.54819e-07
1.54819e-07
1.54819e-07
1.5482e-07
1.54819e-07
1.5482e-07
1.5482e-07
1.5482e-07
1.5482e-07
1.54819e-07
1.5482e-07
1.54819e-07
1.5482e-07
1.54819e-07
1.54819e-07
1.54818e-07
1.54819e-07
1.54818e-07
1.54819e-07
1.54818e-07
1.5482e-07
1.5482e-07
1.54824e-07
1.54824e-07
1.5483e-07
1.5483e-07
1.54834e-07
1.5481e-07
1.54788e-07
1.54713e-07
1.54591e-07
1.54407e-07
1.53643e-07
1.53819e-07
1.53935e-07
1.54007e-07
1.5403e-07
1.54052e-07
1.54049e-07
1.54049e-07
1.54044e-07
1.54044e-07
1.54041e-07
1.54041e-07
1.54039e-07
1.5404e-07
1.54039e-07
1.5404e-07
1.54039e-07
1.5404e-07
1.5404e-07
1.54041e-07
1.5404e-07
1.54041e-07
1.54041e-07
1.54041e-07
1.54041e-07
1.54041e-07
1.54041e-07
1.54041e-07
1.54041e-07
1.5404e-07
1.54041e-07
1.5404e-07
1.5404e-07
1.54039e-07
1.5404e-07
1.54039e-07
1.5404e-07
1.54039e-07
1.54041e-07
1.54041e-07
1.54044e-07
1.54044e-07
1.54049e-07
1.54049e-07
1.54052e-07
1.5403e-07
1.54007e-07
1.53935e-07
1.53819e-07
1.53643e-07
1.52913e-07
1.53082e-07
1.53192e-07
1.53262e-07
1.53285e-07
1.53306e-07
1.53304e-07
1.53305e-07
1.533e-07
1.533e-07
1.53297e-07
1.53297e-07
1.53296e-07
1.53297e-07
1.53296e-07
1.53297e-07
1.53296e-07
1.53297e-07
1.53297e-07
1.53297e-07
1.53297e-07
1.53297e-07
1.53297e-07
1.53298e-07
1.53297e-07
1.53297e-07
1.53298e-07
1.53297e-07
1.53297e-07
1.53297e-07
1.53297e-07
1.53297e-07
1.53297e-07
1.53296e-07
1.53297e-07
1.53296e-07
1.53297e-07
1.53296e-07
1.53297e-07
1.53297e-07
1.533e-07
1.533e-07
1.53305e-07
1.53304e-07
1.53306e-07
1.53285e-07
1.53262e-07
1.53192e-07
1.53082e-07
1.52913e-07
1.52588e-07
1.52589e-07
1.52588e-07
1.52589e-07
1.52589e-07
1.52589e-07
1.52589e-07
1.52589e-07
1.52589e-07
1.52589e-07
1.52589e-07
1.52588e-07
1.52589e-07
1.52588e-07
1.52588e-07
1.52587e-07
1.52588e-07
1.52587e-07
1.52588e-07
1.52587e-07
1.52588e-07
1.52588e-07
1.5259e-07
1.5259e-07
1.52594e-07
1.52593e-07
1.52595e-07
1.52575e-07
1.52552e-07
1.52483e-07
1.5238e-07
1.52218e-07
1.51913e-07
1.51913e-07
1.51913e-07
1.51912e-07
1.51913e-07
1.51912e-07
1.51912e-07
1.51911e-07
1.51912e-07
1.51911e-07
1.51912e-07
1.51912e-07
1.51914e-07
1.51914e-07
1.51917e-07
1.51916e-07
1.51917e-07
1.51899e-07
1.51875e-07
1.51808e-07
1.5171e-07
1.51555e-07
1.5127e-07
1.5127e-07
1.51273e-07
1.51271e-07
1.51272e-07
1.51254e-07
1.5123e-07
1.51165e-07
1.51072e-07
1.50924e-07
)
;

boundaryField
{
    fuel
    {
        type            fixedValue;
        value           nonuniform 0();
    }
    wall
    {
        type            zeroGradient;
    }
    outlet
    {
        type            zeroGradient;
    }
    frontAndBack
    {
        type            empty;
    }
    procBoundary0to1
    {
        type            processor;
        value           nonuniform List<scalar> 
50
(
2.1449e-07
2.14974e-07
2.15418e-07
2.15645e-07
2.15725e-07
2.15773e-07
2.15755e-07
2.15763e-07
2.15743e-07
2.15747e-07
2.15735e-07
2.15738e-07
2.1573e-07
2.15733e-07
2.15728e-07
2.15731e-07
2.15728e-07
2.1573e-07
2.15728e-07
2.15729e-07
2.15728e-07
2.15729e-07
2.15728e-07
2.15728e-07
2.15728e-07
2.15728e-07
2.15728e-07
2.15728e-07
2.15729e-07
2.15728e-07
2.15729e-07
2.15728e-07
2.1573e-07
2.15728e-07
2.15731e-07
2.15728e-07
2.15733e-07
2.1573e-07
2.15738e-07
2.15735e-07
2.15747e-07
2.15743e-07
2.15763e-07
2.15755e-07
2.15773e-07
2.15725e-07
2.15645e-07
2.15418e-07
2.14974e-07
2.1449e-07
)
;
    }
    procBoundary0to2
    {
        type            processor;
        value           nonuniform List<scalar> 
53
(
1.52218e-07
1.5238e-07
1.52483e-07
1.52552e-07
1.52575e-07
1.52595e-07
1.52593e-07
1.52594e-07
1.5259e-07
1.5259e-07
1.52588e-07
1.52588e-07
1.52587e-07
1.52588e-07
1.52587e-07
1.52588e-07
1.52587e-07
1.52588e-07
1.52588e-07
1.51912e-07
1.51913e-07
1.51913e-07
1.51913e-07
1.51913e-07
1.51913e-07
1.51913e-07
1.51913e-07
1.51913e-07
1.51913e-07
1.51913e-07
1.5127e-07
1.51269e-07
1.5127e-07
1.51269e-07
1.51269e-07
1.51268e-07
1.51269e-07
1.51268e-07
1.51268e-07
1.51267e-07
1.51268e-07
1.51268e-07
1.51268e-07
1.50656e-07
1.50656e-07
1.50658e-07
1.50657e-07
1.50657e-07
1.5064e-07
1.50615e-07
1.50552e-07
1.50465e-07
1.50323e-07
)
;
    }
}


// ************************************************************************* //
