/*--------------------------------*- C++ -*----------------------------------*\
| =========                 |                                                 |
| \\      /  F ield         | OpenFOAM: The Open Source CFD Toolbox           |
|  \\    /   O peration     | Version:  dev                                   |
|   \\  /    A nd           | Web:      www.OpenFOAM.org                      |
|    \\/     M anipulation  |                                                 |
\*---------------------------------------------------------------------------*/
FoamFile
{
    version     2.0;
    format      ascii;
    class       volScalarField;
    location    "0.09";
    object      T;
}
// * * * * * * * * * * * * * * * * * * * * * * * * * * * * * * * * * * * * * //

dimensions      [0 0 0 1 0 0 0];

internalField   nonuniform List<scalar> 
250
(
2008.63
2009.31
2008.21
2009.85
2008.42
2010.63
2007.87
2001.89
1981.73
1953.5
2001.09
2001.95
2000.69
2002.58
2000.9
2003.46
2000.72
1995.36
1976.32
1947.78
1818.13
1938.69
1981.94
1991.44
1992.96
1992.9
1992.92
1992.55
1992.77
1992.66
1992.39
1993.45
1992.01
1994.18
1992.23
1995.17
1992.44
1987.81
1969.93
1940.64
1829.23
1934.55
1973.74
1981.97
1983.15
1982.97
1983
1982.58
1982.83
1982.7
1982.37
1983.64
1982.01
1984.48
1982.25
1985.59
1982.87
1979.08
1962.5
1932.39
1837.68
1928.73
1964.11
1971.01
1971.83
1971.53
1971.57
1971.08
1971.37
1971.21
1970.82
1972.33
1970.49
1973.29
1970.78
1974.53
1971.81
1968.98
1953.91
1923.18
1843.23
1921.48
1952.78
1958.36
1958.77
1958.35
1958.41
1957.85
1958.17
1957.99
1957.54
1959.3
1957.26
1960.4
1957.63
1961.76
1959.03
1957.28
1943.18
1913
1845.74
1911.73
1939.5
1943.76
1943.75
1943.2
1943.28
1942.64
1943.01
1942.79
1941.86
1943.93
1941.04
1944.9
1941.55
1947.03
1944.29
1943.74
1931.57
1901.74
1844.74
1899.95
1923.98
1926.64
1926.49
1925.81
1925.92
1925.19
1925.61
1925.35
1924.3
1926.68
1923.48
1927.77
1924.09
1930.1
1927.31
1928.07
1918.06
1888.34
1839.91
1885.46
1905.63
1907.26
1906.72
1905.89
1906.03
1905.21
1905.68
1905.39
1904.22
1906.93
1903.36
1908.14
1904.06
1910.67
1907.81
1909.11
1900.94
1873.92
1831.18
1867.28
1884.65
1885.05
1884.1
1883.13
1883.32
1882.38
1882.92
1882.58
1881.28
1884.36
1880.38
1885.69
1881.14
1888.41
1885.44
1887.3
1882.24
1857.27
1817.92
1846.18
1860.43
1859.63
1858.3
1857.18
1857.41
1856.36
1856.97
1856.59
1855.14
1858.61
1854.19
1860.07
1854.99
1862.98
1859.87
1863.01
1860.37
1836.95
1800.14
1821.18
1832.59
1830.62
1828.94
1827.66
1827.95
1826.77
1827.45
1827.03
1825.44
1829.32
1824.41
1830.89
1825.25
1833.97
1830.71
1835.15
1834.88
1814.46
1777.27
1791.82
1800.69
1797.61
1795.61
1794.15
1794.51
1793.21
1793.97
1793.49
1791.76
1796.07
1790.63
1797.75
1791.5
1800.98
1797.52
1803.26
1805.3
1788.11
1753.66
1758.41
1752.43
1760.19
1753.33
1763.55
1759.87
1766.86
1771.11
1757.28
)
;

boundaryField
{
    fuel
    {
        type            fixedValue;
        value           nonuniform 0();
    }
    wall
    {
        type            fixedValue;
        value           nonuniform 0();
    }
    outlet
    {
        type            inletOutlet;
        inletValue      uniform 353;
        value           nonuniform List<scalar> 
25
(
1818.08
1829.23
1837.73
1843.31
1845.84
1844.84
1840.02
1831.28
1818.01
1800.22
1777.34
1953.52
1947.54
1940.22
1931.86
1922.6
1912.4
1901.17
1887.8
1873.48
1856.85
1836.64
1814.25
1787.96
1757.19
)
;
    }
    frontAndBack
    {
        type            empty;
    }
    procBoundary0to1
    {
        type            processor;
        value           nonuniform List<scalar> 
21
(
1748.86
1757.66
1764.27
1760.15
1757.86
1756.22
1756.66
1755.23
1756.07
1755.54
1755.54
1710.65
1715.85
1709.32
1717.71
1710.24
1721.18
1717.23
1725.44
1731.71
1721.35
)
;
    }
    procBoundary0to2
    {
        type            processor;
        value           nonuniform List<scalar> 
12
(
2008.76
1804.62
1941.43
1988.89
1999.62
2001.44
2001.5
2001.52
2001.19
2001.38
2001.29
2001.29
)
;
    }
    procBoundary0to3
    {
        type            processor;
        value           nonuniform List<scalar> 10(2015.17 2015.68 2014.73 2016.15 2014.94 2016.83 2014.05 2007.55 1986.26 1957.41);
    }
}


// ************************************************************************* //
