/*--------------------------------*- C++ -*----------------------------------*\
| =========                 |                                                 |
| \\      /  F ield         | OpenFOAM: The Open Source CFD Toolbox           |
|  \\    /   O peration     | Version:  dev                                   |
|   \\  /    A nd           | Web:      www.OpenFOAM.org                      |
|    \\/     M anipulation  |                                                 |
\*---------------------------------------------------------------------------*/
FoamFile
{
    version     2.0;
    format      ascii;
    class       volScalarField;
    location    "0.005";
    object      C5H4OH;
}
// * * * * * * * * * * * * * * * * * * * * * * * * * * * * * * * * * * * * * //

dimensions      [0 0 0 0 0 0 0];

internalField   nonuniform List<scalar> 
25
(
9.55767e-14
8.96748e-14
8.30141e-14
7.57597e-14
6.81732e-14
6.05613e-14
5.33039e-14
4.64148e-14
3.99702e-14
3.42958e-14
2.92876e-14
2.49402e-14
2.12143e-14
1.80584e-14
1.54056e-14
1.3189e-14
1.13282e-14
9.7919e-15
8.51425e-15
7.43211e-15
6.54031e-15
5.79008e-15
5.15666e-15
4.62009e-15
4.16423e-15
)
;

boundaryField
{
    wall
    {
        type            zeroGradient;
    }
    fuel
    {
        type            fixedValue;
        value           nonuniform 0();
    }
    outlet
    {
        type            inletOutlet;
        inletValue      nonuniform 0();
        value           nonuniform 0();
    }
    procBoundary2to1
    {
        type            processor;
        value           uniform 1.00493e-13;
    }
    procBoundary2to3
    {
        type            processor;
        value           uniform 3.7758e-15;
    }
}


// ************************************************************************* //
