/*--------------------------------*- C++ -*----------------------------------*\
| =========                 |                                                 |
| \\      /  F ield         | OpenFOAM: The Open Source CFD Toolbox           |
|  \\    /   O peration     | Version:  dev                                   |
|   \\  /    A nd           | Web:      www.OpenFOAM.org                      |
|    \\/     M anipulation  |                                                 |
\*---------------------------------------------------------------------------*/
FoamFile
{
    version     2.0;
    format      ascii;
    class       volScalarField;
    location    "0.005";
    object      C6H;
}
// * * * * * * * * * * * * * * * * * * * * * * * * * * * * * * * * * * * * * //

dimensions      [0 0 0 0 0 0 0];

internalField   nonuniform List<scalar> 
25
(
4.9118e-18
3.17884e-18
2.03394e-18
1.28159e-18
7.95414e-19
4.87709e-19
2.9859e-19
1.81091e-19
1.08201e-19
6.48986e-20
3.87766e-20
2.31086e-20
1.37481e-20
8.13331e-21
4.80036e-21
2.82377e-21
1.64807e-21
9.60004e-22
5.55923e-22
3.16583e-22
1.79748e-22
1.00853e-22
5.5836e-23
3.04646e-23
1.6368e-23
)
;

boundaryField
{
    wall
    {
        type            zeroGradient;
    }
    fuel
    {
        type            fixedValue;
        value           nonuniform 0();
    }
    outlet
    {
        type            inletOutlet;
        inletValue      nonuniform 0();
        value           nonuniform 0();
    }
    procBoundary2to1
    {
        type            processor;
        value           uniform 7.48677e-18;
    }
    procBoundary2to3
    {
        type            processor;
        value           uniform 8.65895e-24;
    }
}


// ************************************************************************* //
