/*--------------------------------*- C++ -*----------------------------------*\
| =========                 |                                                 |
| \\      /  F ield         | OpenFOAM: The Open Source CFD Toolbox           |
|  \\    /   O peration     | Version:  dev                                   |
|   \\  /    A nd           | Web:      www.OpenFOAM.org                      |
|    \\/     M anipulation  |                                                 |
\*---------------------------------------------------------------------------*/
FoamFile
{
    version     2.0;
    format      ascii;
    class       volScalarField;
    location    "0.005";
    object      O;
}
// * * * * * * * * * * * * * * * * * * * * * * * * * * * * * * * * * * * * * //

dimensions      [0 0 0 0 0 0 0];

internalField   nonuniform List<scalar> 
25
(
1.58398e-10
1.21132e-10
9.32315e-11
7.21829e-11
5.63493e-11
4.45129e-11
3.58007e-11
2.92174e-11
2.41668e-11
2.04025e-11
1.75132e-11
1.52812e-11
1.35475e-11
1.21989e-11
1.11631e-11
1.03846e-11
9.82139e-12
9.45696e-12
9.26871e-12
9.24235e-12
9.37007e-12
9.64213e-12
1.00508e-11
1.05885e-11
1.12471e-11
)
;

boundaryField
{
    wall
    {
        type            zeroGradient;
    }
    fuel
    {
        type            fixedValue;
        value           nonuniform 0();
    }
    outlet
    {
        type            inletOutlet;
        inletValue      nonuniform 0();
        value           nonuniform 0();
    }
    procBoundary2to1
    {
        type            processor;
        value           uniform 2.07879e-10;
    }
    procBoundary2to3
    {
        type            processor;
        value           uniform 1.20275e-11;
    }
}


// ************************************************************************* //
