/*--------------------------------*- C++ -*----------------------------------*\
| =========                 |                                                 |
| \\      /  F ield         | OpenFOAM: The Open Source CFD Toolbox           |
|  \\    /   O peration     | Version:  dev                                   |
|   \\  /    A nd           | Web:      www.OpenFOAM.org                      |
|    \\/     M anipulation  |                                                 |
\*---------------------------------------------------------------------------*/
FoamFile
{
    version     2.0;
    format      ascii;
    class       volScalarField;
    location    "0.005";
    object      P2-;
}
// * * * * * * * * * * * * * * * * * * * * * * * * * * * * * * * * * * * * * //

dimensions      [0 0 0 0 0 0 0];

internalField   nonuniform List<scalar> 
25
(
9.86881e-19
9.49814e-19
9.17781e-19
8.88805e-19
8.61244e-19
8.33683e-19
8.05276e-19
7.74448e-19
7.40039e-19
7.0284e-19
6.62166e-19
6.18263e-19
5.71536e-19
5.22737e-19
4.72734e-19
4.22526e-19
3.72633e-19
3.24818e-19
2.79634e-19
2.37101e-19
1.99026e-19
1.65041e-19
1.35279e-19
1.09685e-19
8.80644e-20
)
;

boundaryField
{
    wall
    {
        type            zeroGradient;
    }
    fuel
    {
        type            fixedValue;
        value           nonuniform 0();
    }
    outlet
    {
        type            inletOutlet;
        inletValue      nonuniform 0();
        value           nonuniform 0();
    }
    procBoundary2to1
    {
        type            processor;
        value           uniform 1.03069e-18;
    }
    procBoundary2to3
    {
        type            processor;
        value           uniform 7.00495e-20;
    }
}


// ************************************************************************* //
