/*--------------------------------*- C++ -*----------------------------------*\
| =========                 |                                                 |
| \\      /  F ield         | OpenFOAM: The Open Source CFD Toolbox           |
|  \\    /   O peration     | Version:  dev                                   |
|   \\  /    A nd           | Web:      www.OpenFOAM.org                      |
|    \\/     M anipulation  |                                                 |
\*---------------------------------------------------------------------------*/
FoamFile
{
    version     2.0;
    format      ascii;
    class       volScalarField;
    location    "0.105";
    object      A1-;
}
// * * * * * * * * * * * * * * * * * * * * * * * * * * * * * * * * * * * * * //

dimensions      [0 0 0 0 0 0 0];

internalField   nonuniform List<scalar> 
250
(
2.92878e-07
2.9393e-07
2.92548e-07
2.94665e-07
2.93928e-07
2.99461e-07
3.14689e-07
3.54149e-07
5.10694e-07
5.82253e-07
2.80365e-07
2.81329e-07
2.80023e-07
2.81992e-07
2.8132e-07
2.8646e-07
3.00412e-07
3.37102e-07
4.76203e-07
5.89226e-07
1.89221e-06
5.22234e-07
3.45642e-07
2.80316e-07
2.75493e-07
2.68865e-07
2.70092e-07
2.69081e-07
2.69892e-07
2.70034e-07
2.69215e-07
2.70102e-07
2.68867e-07
2.70698e-07
2.70086e-07
2.74828e-07
2.87596e-07
3.21524e-07
4.48592e-07
5.893e-07
1.59352e-06
4.71072e-07
3.27065e-07
2.69126e-07
2.64756e-07
2.58733e-07
2.59838e-07
2.58902e-07
2.59639e-07
2.59784e-07
2.59038e-07
2.59875e-07
2.58691e-07
2.60413e-07
2.5985e-07
2.64241e-07
2.75869e-07
3.07027e-07
4.22594e-07
5.83188e-07
1.33313e-06
4.25624e-07
3.09661e-07
2.58423e-07
2.5468e-07
2.4909e-07
2.5013e-07
2.49219e-07
2.49908e-07
2.50035e-07
2.49345e-07
2.50175e-07
2.49003e-07
2.50673e-07
2.50133e-07
2.54224e-07
2.64813e-07
2.93153e-07
3.99748e-07
5.7114e-07
1.12558e-06
3.835e-07
2.92983e-07
2.47629e-07
2.447e-07
2.3934e-07
2.4038e-07
2.39433e-07
2.40101e-07
2.40189e-07
2.39535e-07
2.40418e-07
2.39202e-07
2.40899e-07
2.40344e-07
2.44193e-07
2.53894e-07
2.79347e-07
3.77652e-07
5.52841e-07
9.40201e-07
3.44567e-07
2.76477e-07
2.36088e-07
2.34149e-07
2.28791e-07
2.29906e-07
2.28853e-07
2.29528e-07
2.29553e-07
2.28914e-07
2.29924e-07
2.28596e-07
2.30412e-07
2.29795e-07
2.33474e-07
2.42473e-07
2.64994e-07
3.55212e-07
5.27751e-07
7.61452e-07
3.07833e-07
2.5953e-07
2.22543e-07
2.22313e-07
2.16725e-07
2.17986e-07
2.16763e-07
2.17472e-07
2.17411e-07
2.16764e-07
2.17975e-07
2.16465e-07
2.18495e-07
2.17766e-07
2.21335e-07
2.29095e-07
2.48317e-07
3.31459e-07
4.95396e-07
6.42581e-07
2.72614e-07
2.41643e-07
2.0735e-07
2.08271e-07
2.02517e-07
2.03976e-07
2.02535e-07
2.03298e-07
2.03135e-07
2.02462e-07
2.03935e-07
2.02186e-07
2.04503e-07
2.03619e-07
2.07117e-07
2.14307e-07
2.30619e-07
3.05648e-07
4.55697e-07
5.14184e-07
2.37451e-07
2.19897e-07
1.89702e-07
1.91942e-07
1.8579e-07
1.87461e-07
1.85792e-07
1.86617e-07
1.86346e-07
1.85636e-07
1.87397e-07
1.85386e-07
1.88017e-07
1.86954e-07
1.90396e-07
1.97076e-07
2.0964e-07
2.77254e-07
4.09248e-07
4.18584e-07
2.04265e-07
1.97882e-07
1.69654e-07
1.7301e-07
1.66561e-07
1.68415e-07
1.66553e-07
1.67432e-07
1.67062e-07
1.66317e-07
1.68343e-07
1.66094e-07
1.69002e-07
1.6777e-07
1.71142e-07
1.77313e-07
1.87091e-07
2.4629e-07
3.57505e-07
3.34402e-07
1.72186e-07
1.73848e-07
1.47719e-07
1.51843e-07
1.45331e-07
1.4729e-07
1.45315e-07
1.4622e-07
1.45778e-07
1.45012e-07
1.47227e-07
1.44819e-07
1.47899e-07
1.46541e-07
1.49791e-07
1.55397e-07
1.62667e-07
2.13297e-07
3.02757e-07
2.61473e-07
1.4171e-07
1.48477e-07
1.24832e-07
1.29296e-07
1.2303e-07
1.24984e-07
1.23008e-07
1.239e-07
1.23422e-07
1.22661e-07
1.24947e-07
1.22496e-07
1.25599e-07
1.24184e-07
1.27226e-07
1.32184e-07
1.37313e-07
1.79391e-07
2.47866e-07
1.00452e-07
1.02675e-07
1.00314e-07
1.03271e-07
1.01884e-07
1.04622e-07
1.08855e-07
1.12263e-07
1.46086e-07
1.95811e-07
)
;

boundaryField
{
    fuel
    {
        type            fixedValue;
        value           nonuniform 0();
    }
    wall
    {
        type            zeroGradient;
    }
    outlet
    {
        type            zeroGradient;
    }
    frontAndBack
    {
        type            empty;
    }
    procBoundary0to1
    {
        type            processor;
        value           nonuniform List<scalar> 
21
(
2.00017e-07
1.13541e-07
1.22905e-07
1.02154e-07
1.06577e-07
1.00833e-07
1.02682e-07
1.00811e-07
1.0165e-07
1.01174e-07
1.01174e-07
7.95585e-08
8.15949e-08
7.94471e-08
8.21095e-08
8.0831e-08
8.31836e-08
8.66628e-08
8.87636e-08
1.14971e-07
1.49126e-07
)
;
    }
    procBoundary0to2
    {
        type            processor;
        value           nonuniform List<scalar> 
12
(
2.93887e-07
2.1859e-06
5.7777e-07
3.6583e-07
2.92455e-07
2.87369e-07
2.79965e-07
2.81371e-07
2.80239e-07
2.81155e-07
2.81272e-07
2.81272e-07
)
;
    }
    procBoundary0to3
    {
        type            processor;
        value           nonuniform List<scalar> 10(3.07069e-07 3.08208e-07 3.0676e-07 3.09011e-07 3.08221e-07 3.14122e-07 3.30694e-07 3.74181e-07 5.48018e-07 5.66467e-07);
    }
}


// ************************************************************************* //
