/*--------------------------------*- C++ -*----------------------------------*\
| =========                 |                                                 |
| \\      /  F ield         | OpenFOAM: The Open Source CFD Toolbox           |
|  \\    /   O peration     | Version:  dev                                   |
|   \\  /    A nd           | Web:      www.OpenFOAM.org                      |
|    \\/     M anipulation  |                                                 |
\*---------------------------------------------------------------------------*/
FoamFile
{
    version     2.0;
    format      ascii;
    class       volScalarField;
    location    "0.105";
    object      A1C2H3*;
}
// * * * * * * * * * * * * * * * * * * * * * * * * * * * * * * * * * * * * * //

dimensions      [0 0 0 0 0 0 0];

internalField   nonuniform List<scalar> 
250
(
6.62579e-12
6.6242e-12
6.62196e-12
6.61404e-12
6.62005e-12
6.70912e-12
7.19143e-12
9.44176e-12
2.28606e-11
9.47298e-11
6.45067e-12
6.44821e-12
6.44647e-12
6.43955e-12
6.44545e-12
6.52829e-12
6.96848e-12
8.98842e-12
2.0359e-11
7.15428e-11
2.22322e-11
1.51765e-11
8.20759e-12
6.86558e-12
6.44299e-12
6.35425e-12
6.3432e-12
6.34117e-12
6.35364e-12
6.34979e-12
6.34579e-12
6.34175e-12
6.34081e-12
6.33412e-12
6.34003e-12
6.41686e-12
6.81817e-12
8.62558e-12
1.8154e-11
5.68236e-11
2.02238e-11
1.36855e-11
7.99295e-12
6.77574e-12
6.39331e-12
6.31171e-12
6.30121e-12
6.30317e-12
6.31097e-12
6.31143e-12
6.30824e-12
6.30231e-12
6.3024e-12
6.2954e-12
6.30143e-12
6.37247e-12
6.73741e-12
8.34916e-12
1.6306e-11
4.59877e-11
1.86301e-11
1.25161e-11
7.8637e-12
6.75196e-12
6.40827e-12
6.33284e-12
6.32276e-12
6.329e-12
6.33228e-12
6.33731e-12
6.33454e-12
6.32662e-12
6.32792e-12
6.32026e-12
6.32651e-12
6.39201e-12
6.72323e-12
8.15701e-12
1.47671e-11
3.78344e-11
1.73792e-11
1.17583e-11
7.81195e-12
6.79001e-12
6.48325e-12
6.41303e-12
6.40325e-12
6.4137e-12
6.41279e-12
6.42235e-12
6.41971e-12
6.40989e-12
6.41248e-12
6.40402e-12
6.41058e-12
6.47075e-12
6.77112e-12
8.04274e-12
1.36309e-11
3.16225e-11
1.64092e-11
1.12192e-11
7.82738e-12
6.88337e-12
6.61155e-12
6.54553e-12
6.53596e-12
6.5502e-12
6.54562e-12
6.55936e-12
6.55667e-12
6.54518e-12
6.549e-12
6.5398e-12
6.54676e-12
6.60177e-12
6.87435e-12
7.99784e-12
1.26632e-11
2.66355e-11
1.56645e-11
1.08501e-11
7.89799e-12
7.02322e-12
6.78415e-12
6.72122e-12
6.71183e-12
6.72911e-12
6.72157e-12
6.73888e-12
6.73606e-12
6.72324e-12
6.72814e-12
6.71844e-12
6.72585e-12
6.77685e-12
7.0276e-12
8.01211e-12
1.19288e-11
2.29159e-11
1.50933e-11
1.061e-11
8.01339e-12
7.20081e-12
6.99375e-12
6.93628e-12
6.92682e-12
6.94678e-12
6.93697e-12
6.95738e-12
6.95403e-12
6.94011e-12
6.94597e-12
6.93538e-12
6.94302e-12
6.99101e-12
7.21089e-12
8.07417e-12
1.13514e-11
1.98658e-11
1.46504e-11
1.04659e-11
8.16128e-12
7.4112e-12
7.22371e-12
7.16988e-12
7.16066e-12
7.18221e-12
7.17067e-12
7.19357e-12
7.19009e-12
7.17548e-12
7.18212e-12
7.17159e-12
7.17967e-12
7.22463e-12
7.42181e-12
8.17622e-12
1.09073e-11
1.76021e-11
1.43035e-11
1.03963e-11
8.33364e-12
7.64488e-12
7.47944e-12
7.42987e-12
7.42089e-12
7.44444e-12
7.43074e-12
7.45677e-12
7.45294e-12
7.43744e-12
7.44516e-12
7.43441e-12
7.44288e-12
7.48503e-12
7.65991e-12
8.31472e-12
1.05829e-11
1.57831e-11
1.40401e-11
1.03992e-11
8.554e-12
7.92212e-12
7.77993e-12
7.73579e-12
7.72689e-12
7.7547e-12
7.73667e-12
7.7685e-12
7.76368e-12
7.74626e-12
7.75608e-12
7.74396e-12
7.75271e-12
7.79188e-12
7.94326e-12
8.50756e-12
1.03835e-11
1.44542e-11
1.38962e-11
1.05061e-11
8.87497e-12
8.29181e-12
8.17997e-12
8.14333e-12
8.13406e-12
8.17178e-12
8.14399e-12
8.18803e-12
8.18081e-12
8.15883e-12
8.17328e-12
8.15698e-12
8.16585e-12
8.20049e-12
8.32571e-12
8.8044e-12
1.03474e-11
1.35232e-11
8.83231e-12
8.80044e-12
8.82468e-12
8.79863e-12
8.80758e-12
8.83599e-12
8.92571e-12
9.31884e-12
1.05742e-11
1.30268e-11
)
;

boundaryField
{
    fuel
    {
        type            fixedValue;
        value           nonuniform 0();
    }
    wall
    {
        type            zeroGradient;
    }
    outlet
    {
        type            zeroGradient;
    }
    frontAndBack
    {
        type            empty;
    }
    procBoundary0to1
    {
        type            processor;
        value           nonuniform List<scalar> 
21
(
1.39519e-11
1.08068e-11
9.41534e-12
8.8657e-12
8.80295e-12
8.77567e-12
8.76563e-12
8.82392e-12
8.77582e-12
8.8446e-12
8.8446e-12
9.95538e-12
9.90507e-12
9.94771e-12
9.90315e-12
9.91292e-12
9.93122e-12
9.97356e-12
1.02706e-11
1.12702e-11
1.31118e-11
)
;
    }
    procBoundary0to2
    {
        type            processor;
        value           nonuniform List<scalar> 
12
(
6.6325e-12
2.48008e-11
1.69572e-11
8.51484e-12
7.02419e-12
6.56045e-12
6.46349e-12
6.45176e-12
6.44631e-12
6.46354e-12
6.45588e-12
6.45588e-12
)
;
    }
    procBoundary0to3
    {
        type            processor;
        value           nonuniform List<scalar> 10(6.8743e-12 6.87236e-12 6.86985e-12 6.86e-12 6.86629e-12 6.96176e-12 7.48829e-12 1.00546e-11 2.57042e-11 1.2394e-10);
    }
}


// ************************************************************************* //
