/*--------------------------------*- C++ -*----------------------------------*\
| =========                 |                                                 |
| \\      /  F ield         | OpenFOAM: The Open Source CFD Toolbox           |
|  \\    /   O peration     | Version:  dev                                   |
|   \\  /    A nd           | Web:      www.OpenFOAM.org                      |
|    \\/     M anipulation  |                                                 |
\*---------------------------------------------------------------------------*/
FoamFile
{
    version     2.0;
    format      ascii;
    class       volScalarField;
    location    "0.105";
    object      A2C2HA;
}
// * * * * * * * * * * * * * * * * * * * * * * * * * * * * * * * * * * * * * //

dimensions      [0 0 0 0 0 0 0];

internalField   nonuniform List<scalar> 
250
(
3.31319e-10
3.32239e-10
3.30821e-10
3.32949e-10
3.32564e-10
3.41346e-10
3.73155e-10
4.79645e-10
9.94706e-10
1.98543e-09
3.18462e-10
3.1908e-10
3.17947e-10
3.19632e-10
3.19434e-10
3.27458e-10
3.56825e-10
4.57707e-10
9.09645e-10
1.88056e-09
1.97194e-08
1.38839e-09
5.08754e-10
3.41589e-10
3.18487e-10
3.09437e-10
3.10049e-10
3.09529e-10
3.10423e-10
3.10938e-10
3.09929e-10
3.10168e-10
3.09399e-10
3.10529e-10
3.10573e-10
3.17753e-10
3.44857e-10
4.40964e-10
8.51359e-10
1.80866e-09
1.5738e-08
1.25211e-09
4.85795e-10
3.36251e-10
3.12612e-10
3.05622e-10
3.05636e-10
3.05629e-10
3.06262e-10
3.06917e-10
3.06114e-10
3.05871e-10
3.05567e-10
3.06003e-10
3.06357e-10
3.12657e-10
3.37505e-10
4.29635e-10
8.06553e-10
1.76503e-09
1.24263e-08
1.1428e-09
4.69002e-10
3.36391e-10
3.11903e-10
3.07122e-10
3.06469e-10
3.07061e-10
3.0742e-10
3.08242e-10
3.07661e-10
3.06809e-10
3.07092e-10
3.06668e-10
3.07415e-10
3.12741e-10
3.35368e-10
4.24225e-10
7.77343e-10
1.74492e-09
9.95137e-09
1.05512e-09
4.59044e-10
3.42864e-10
3.17185e-10
3.14815e-10
3.13407e-10
3.147e-10
3.1476e-10
3.15785e-10
3.15453e-10
3.13841e-10
3.14852e-10
3.13378e-10
3.14617e-10
3.18843e-10
3.39281e-10
4.25459e-10
7.5996e-10
1.74386e-09
7.92238e-09
9.883e-10
4.56753e-10
3.56636e-10
3.29435e-10
3.297e-10
3.27454e-10
3.29547e-10
3.29276e-10
3.30542e-10
3.30489e-10
3.27964e-10
3.29848e-10
3.27135e-10
3.28967e-10
3.32006e-10
3.50233e-10
4.342e-10
7.53692e-10
1.75766e-09
6.15582e-09
9.39919e-10
4.62932e-10
3.79726e-10
3.49563e-10
3.52639e-10
3.49504e-10
3.5246e-10
3.51837e-10
3.53373e-10
3.53623e-10
3.50065e-10
3.52929e-10
3.48844e-10
3.51348e-10
3.53198e-10
3.70599e-10
4.52737e-10
7.58229e-10
1.78177e-09
5.08989e-09
9.08529e-10
4.77935e-10
4.10131e-10
3.78707e-10
3.83919e-10
3.79923e-10
3.83723e-10
3.82754e-10
3.84566e-10
3.8512e-10
3.80502e-10
3.8436e-10
3.78894e-10
3.82095e-10
3.82847e-10
3.98326e-10
4.78538e-10
7.72853e-10
1.8106e-09
4.06379e-09
8.89448e-10
5.05165e-10
4.4798e-10
4.15342e-10
4.22722e-10
4.18026e-10
4.22521e-10
4.21262e-10
4.23312e-10
4.24132e-10
4.1858e-10
4.23296e-10
4.16642e-10
4.20462e-10
4.20264e-10
4.34065e-10
5.14004e-10
7.9597e-10
1.83706e-09
3.37352e-09
8.79682e-10
5.3713e-10
4.90834e-10
4.58092e-10
4.66714e-10
4.61627e-10
4.66515e-10
4.6508e-10
4.67282e-10
4.68277e-10
4.62112e-10
4.67361e-10
4.59955e-10
4.64189e-10
4.63311e-10
4.75848e-10
5.53121e-10
8.24406e-10
1.85272e-09
2.81987e-09
8.73633e-10
5.73504e-10
5.34714e-10
5.03351e-10
5.1198e-10
5.06941e-10
5.11793e-10
5.1035e-10
5.1257e-10
5.13606e-10
5.07322e-10
5.12609e-10
5.051e-10
5.09426e-10
5.08288e-10
5.20058e-10
5.93575e-10
8.53504e-10
1.84878e-09
2.37409e-09
8.66242e-10
6.09645e-10
5.74626e-10
5.46217e-10
5.53547e-10
5.49044e-10
5.53383e-10
5.5212e-10
5.54206e-10
5.55125e-10
5.49304e-10
5.54055e-10
5.47183e-10
5.51216e-10
5.50309e-10
5.61791e-10
6.30297e-10
8.7749e-10
1.81769e-09
5.87837e-10
5.83016e-10
5.86709e-10
5.81134e-10
5.84515e-10
5.84264e-10
5.95801e-10
6.58096e-10
8.90541e-10
1.75503e-09
)
;

boundaryField
{
    fuel
    {
        type            fixedValue;
        value           nonuniform 0();
    }
    wall
    {
        type            zeroGradient;
    }
    outlet
    {
        type            zeroGradient;
    }
    frontAndBack
    {
        type            empty;
    }
    procBoundary0to1
    {
        type            processor;
        value           nonuniform List<scalar> 
21
(
2.01475e-09
8.53077e-10
6.40169e-10
6.05589e-10
5.81461e-10
5.86408e-10
5.82868e-10
5.86282e-10
5.85369e-10
5.8718e-10
5.8718e-10
6.07965e-10
6.04497e-10
6.06799e-10
6.02934e-10
6.05419e-10
6.06061e-10
6.17773e-10
6.72939e-10
8.88183e-10
1.66078e-09
)
;
    }
    procBoundary0to2
    {
        type            processor;
        value           nonuniform List<scalar> 
12
(
3.32747e-10
2.36362e-08
1.54681e-09
5.37419e-10
3.51775e-10
3.28962e-10
3.17929e-10
3.19092e-10
3.18125e-10
3.19287e-10
3.19675e-10
3.19675e-10
)
;
    }
    procBoundary0to3
    {
        type            processor;
        value           nonuniform List<scalar> 10(3.48339e-10 3.49499e-10 3.47864e-10 3.50336e-10 3.49811e-10 3.59293e-10 3.93708e-10 5.08602e-10 1.09981e-09 2.12566e-09);
    }
}


// ************************************************************************* //
