/*--------------------------------*- C++ -*----------------------------------*\
| =========                 |                                                 |
| \\      /  F ield         | OpenFOAM: The Open Source CFD Toolbox           |
|  \\    /   O peration     | Version:  dev                                   |
|   \\  /    A nd           | Web:      www.OpenFOAM.org                      |
|    \\/     M anipulation  |                                                 |
\*---------------------------------------------------------------------------*/
FoamFile
{
    version     2.0;
    format      ascii;
    class       volScalarField;
    location    "0.105";
    object      A2C2HB*;
}
// * * * * * * * * * * * * * * * * * * * * * * * * * * * * * * * * * * * * * //

dimensions      [0 0 0 0 0 0 0];

internalField   nonuniform List<scalar> 
250
(
2.16918e-12
2.18646e-12
2.16539e-12
2.19737e-12
2.18733e-12
2.26589e-12
2.51171e-12
3.22795e-12
6.63763e-12
8.73677e-12
1.96475e-12
1.98054e-12
1.96108e-12
1.99044e-12
1.98142e-12
2.05245e-12
2.27045e-12
2.91421e-12
5.85269e-12
8.92117e-12
4.30844e-11
6.91969e-12
3.16307e-12
1.96635e-12
1.8852e-12
1.786e-12
1.80419e-12
1.78751e-12
1.79868e-12
1.79845e-12
1.78804e-12
1.80219e-12
1.78454e-12
1.81096e-12
1.80306e-12
1.86644e-12
2.05932e-12
2.6363e-12
5.25148e-12
8.94738e-12
3.48162e-11
5.87491e-12
2.81912e-12
1.79309e-12
1.72008e-12
1.63466e-12
1.64984e-12
1.63541e-12
1.64483e-12
1.64483e-12
1.63604e-12
1.64841e-12
1.63273e-12
1.65599e-12
1.64929e-12
1.70544e-12
1.87463e-12
2.38951e-12
4.7072e-12
8.82279e-12
2.79699e-11
4.99038e-12
2.51392e-12
1.64309e-12
1.57808e-12
1.50508e-12
1.51761e-12
1.50531e-12
1.51325e-12
1.51345e-12
1.50604e-12
1.51661e-12
1.50292e-12
1.52298e-12
1.51748e-12
1.56667e-12
1.71405e-12
2.17039e-12
4.25166e-12
8.55626e-12
2.27081e-11
4.21714e-12
2.24452e-12
1.51335e-12
1.45639e-12
1.39423e-12
1.40457e-12
1.39413e-12
1.40085e-12
1.40118e-12
1.39496e-12
1.40385e-12
1.392e-12
1.40907e-12
1.40467e-12
1.44723e-12
1.57506e-12
1.97569e-12
3.83836e-12
8.15483e-12
1.81505e-11
3.55233e-12
2.00753e-12
1.39981e-12
1.3512e-12
1.29786e-12
1.3066e-12
1.29757e-12
1.30334e-12
1.30371e-12
1.29844e-12
1.30604e-12
1.29565e-12
1.31027e-12
1.30671e-12
1.34329e-12
1.45417e-12
1.80178e-12
3.45398e-12
7.62766e-12
1.38951e-11
2.97746e-12
1.79842e-12
1.2918e-12
1.25708e-12
1.20995e-12
1.21786e-12
1.20959e-12
1.21473e-12
1.21498e-12
1.21037e-12
1.21734e-12
1.20775e-12
1.22086e-12
1.21767e-12
1.24924e-12
1.33946e-12
1.63166e-12
3.0894e-12
6.98734e-12
1.11624e-11
2.47967e-12
1.61215e-12
1.18989e-12
1.16513e-12
1.12298e-12
1.13089e-12
1.12263e-12
1.12748e-12
1.12739e-12
1.12315e-12
1.13034e-12
1.12069e-12
1.13347e-12
1.13007e-12
1.15772e-12
1.23484e-12
1.47916e-12
2.7381e-12
6.25144e-12
8.33415e-12
2.03228e-12
1.41911e-12
1.08255e-12
1.07005e-12
1.0293e-12
1.03792e-12
1.02899e-12
1.03387e-12
1.03325e-12
1.02908e-12
1.03733e-12
1.02681e-12
1.04036e-12
1.03619e-12
1.06097e-12
1.12703e-12
1.31919e-12
2.39365e-12
5.44411e-12
6.34044e-12
1.65253e-12
1.24705e-12
9.64642e-13
9.6401e-13
9.23429e-13
9.33126e-13
9.23181e-13
9.28267e-13
9.27008e-13
9.22725e-13
9.32532e-13
9.20667e-13
9.35665e-13
9.30336e-13
9.531e-13
1.00974e-12
1.15966e-12
2.05322e-12
4.59735e-12
4.6921e-12
1.31878e-12
1.07306e-12
8.35181e-13
8.44467e-13
8.04225e-13
8.14867e-13
8.04038e-13
8.09312e-13
8.07465e-13
8.03029e-13
8.14365e-13
8.01213e-13
8.17612e-13
8.11122e-13
8.32225e-13
8.80487e-13
9.92875e-13
1.71768e-12
3.74999e-12
3.36779e-12
1.02773e-12
8.9717e-13
6.98178e-13
7.14158e-13
6.75631e-13
6.86617e-13
6.75486e-13
6.80747e-13
6.78507e-13
6.74034e-13
6.86313e-13
6.7248e-13
6.89548e-13
6.82257e-13
7.01545e-13
7.41942e-13
8.22564e-13
1.39319e-12
2.94372e-12
5.43528e-13
5.55833e-13
5.42245e-13
5.58857e-13
5.51356e-13
5.68382e-13
6.01195e-13
6.56334e-13
1.09009e-12
2.21683e-12
)
;

boundaryField
{
    fuel
    {
        type            fixedValue;
        value           nonuniform 0();
    }
    wall
    {
        type            zeroGradient;
    }
    outlet
    {
        type            zeroGradient;
    }
    frontAndBack
    {
        type            empty;
    }
    procBoundary0to1
    {
        type            processor;
        value           nonuniform List<scalar> 
21
(
2.34467e-12
7.78841e-13
7.24533e-13
5.61174e-13
5.80418e-13
5.45304e-13
5.55914e-13
5.4521e-13
5.50191e-13
5.47808e-13
5.47808e-13
4.20308e-13
4.31691e-13
4.1929e-13
4.34313e-13
4.27257e-13
4.41554e-13
4.67215e-13
5.02991e-13
8.19754e-13
1.59768e-12
)
;
    }
    procBoundary0to2
    {
        type            processor;
        value           nonuniform List<scalar> 
12
(
2.18373e-12
5.16615e-11
8.10001e-12
3.54984e-12
2.16538e-12
2.07641e-12
1.96168e-12
1.98339e-12
1.96425e-12
1.97762e-12
1.97704e-12
1.97704e-12
)
;
    }
    procBoundary0to3
    {
        type            processor;
        value           nonuniform List<scalar> 10(2.40524e-12 2.42384e-12 2.40144e-12 2.43561e-12 2.42473e-12 2.51065e-12 2.78717e-12 3.60755e-12 7.53057e-12 8.37198e-12);
    }
}


// ************************************************************************* //
