/*--------------------------------*- C++ -*----------------------------------*\
| =========                 |                                                 |
| \\      /  F ield         | OpenFOAM: The Open Source CFD Toolbox           |
|  \\    /   O peration     | Version:  dev                                   |
|   \\  /    A nd           | Web:      www.OpenFOAM.org                      |
|    \\/     M anipulation  |                                                 |
\*---------------------------------------------------------------------------*/
FoamFile
{
    version     2.0;
    format      ascii;
    class       volScalarField;
    location    "0.105";
    object      C2O;
}
// * * * * * * * * * * * * * * * * * * * * * * * * * * * * * * * * * * * * * //

dimensions      [0 0 0 0 0 0 0];

internalField   nonuniform List<scalar> 
250
(
2.06637e-07
2.08436e-07
2.06493e-07
2.09506e-07
2.08138e-07
2.11707e-07
2.15669e-07
2.09649e-07
1.96777e-07
1.31914e-07
1.88368e-07
1.90234e-07
1.88223e-07
1.91299e-07
1.8992e-07
1.93492e-07
1.97534e-07
1.92758e-07
1.85758e-07
1.35886e-07
1.05331e-07
1.28939e-07
1.79488e-07
1.6814e-07
1.76746e-07
1.6992e-07
1.72151e-07
1.70153e-07
1.71085e-07
1.70705e-07
1.69923e-07
1.71842e-07
1.69781e-07
1.72889e-07
1.71511e-07
1.75051e-07
1.79181e-07
1.75443e-07
1.73939e-07
1.3594e-07
9.7173e-08
1.17212e-07
1.62765e-07
1.50154e-07
1.5823e-07
1.51464e-07
1.53656e-07
1.51652e-07
1.52556e-07
1.52154e-07
1.51411e-07
1.53362e-07
1.51277e-07
1.54377e-07
1.53012e-07
1.56488e-07
1.60673e-07
1.57815e-07
1.5982e-07
1.32198e-07
8.97533e-08
1.05649e-07
1.45835e-07
1.32262e-07
1.39721e-07
1.33113e-07
1.35236e-07
1.33259e-07
1.34128e-07
1.33712e-07
1.33007e-07
1.34963e-07
1.32884e-07
1.3593e-07
1.34592e-07
1.3796e-07
1.4216e-07
1.4006e-07
1.45226e-07
1.25132e-07
8.3096e-08
9.38439e-08
1.28824e-07
1.14691e-07
1.21445e-07
1.15107e-07
1.17125e-07
1.15215e-07
1.1604e-07
1.15619e-07
1.14955e-07
1.1688e-07
1.14845e-07
1.17783e-07
1.16492e-07
1.1969e-07
1.23866e-07
1.2243e-07
1.29743e-07
1.15381e-07
7.60692e-08
8.2106e-08
1.11957e-07
9.77409e-08
1.03704e-07
9.77441e-08
9.96231e-08
9.7819e-08
9.85884e-08
9.81756e-08
9.75585e-08
9.9411e-08
9.74619e-08
1.00234e-07
9.90093e-08
1.01967e-07
1.06096e-07
1.0526e-07
1.13739e-07
1.03695e-07
6.78574e-08
7.05573e-08
9.55585e-08
8.09654e-08
8.68575e-08
8.13596e-08
8.30655e-08
8.14076e-08
8.21094e-08
8.17167e-08
8.11536e-08
8.28904e-08
8.10705e-08
8.36195e-08
8.24838e-08
8.51222e-08
8.80918e-08
8.76305e-08
9.76613e-08
9.08592e-08
6.13619e-08
5.94042e-08
8.01158e-08
6.61594e-08
7.09494e-08
6.62897e-08
6.77951e-08
6.63177e-08
6.69412e-08
6.65805e-08
6.60784e-08
6.76584e-08
6.6008e-08
6.8284e-08
6.72585e-08
6.95271e-08
7.22646e-08
7.22746e-08
8.20434e-08
7.76283e-08
5.2955e-08
4.86497e-08
6.41326e-08
5.28795e-08
5.68449e-08
5.28319e-08
5.41173e-08
5.28451e-08
5.33826e-08
5.30635e-08
5.26277e-08
5.40178e-08
5.2569e-08
5.45359e-08
5.36383e-08
5.55327e-08
5.79559e-08
5.76481e-08
6.73347e-08
6.46825e-08
4.56568e-08
3.92257e-08
5.11326e-08
4.13538e-08
4.45105e-08
4.11972e-08
4.22558e-08
4.12002e-08
4.16485e-08
4.13776e-08
4.10103e-08
4.219e-08
4.0962e-08
4.26028e-08
4.18441e-08
4.33861e-08
4.5435e-08
4.53763e-08
5.3974e-08
5.25892e-08
3.83469e-08
3.09771e-08
3.9778e-08
3.16893e-08
3.40988e-08
3.14792e-08
3.23178e-08
3.14756e-08
3.18364e-08
3.16161e-08
3.13162e-08
3.22802e-08
3.1277e-08
3.25961e-08
3.1978e-08
3.31975e-08
3.48533e-08
3.49532e-08
4.22635e-08
4.1769e-08
3.13211e-08
2.40002e-08
3.02438e-08
2.38637e-08
2.56259e-08
2.36406e-08
2.42785e-08
2.36331e-08
2.3913e-08
2.37417e-08
2.35044e-08
2.42629e-08
2.34729e-08
2.44948e-08
2.40098e-08
2.49428e-08
2.62257e-08
2.64103e-08
3.23736e-08
3.2474e-08
1.74154e-08
1.79911e-08
1.73903e-08
1.81546e-08
1.77873e-08
1.84776e-08
1.94338e-08
1.96494e-08
2.43258e-08
2.47858e-08
)
;

boundaryField
{
    fuel
    {
        type            fixedValue;
        value           nonuniform 0();
    }
    wall
    {
        type            zeroGradient;
    }
    outlet
    {
        type            zeroGradient;
    }
    frontAndBack
    {
        type            empty;
    }
    procBoundary0to1
    {
        type            processor;
        value           nonuniform List<scalar> 
21
(
2.49103e-08
1.82966e-08
2.25588e-08
1.77311e-08
1.89754e-08
1.75232e-08
1.79927e-08
1.75148e-08
1.77251e-08
1.75969e-08
1.75969e-08
1.28035e-08
1.32264e-08
1.27838e-08
1.33372e-08
1.30684e-08
1.3563e-08
1.42535e-08
1.44634e-08
1.80026e-08
1.86372e-08
)
;
    }
    procBoundary0to2
    {
        type            processor;
        value           nonuniform List<scalar> 
12
(
2.07506e-07
1.13973e-07
1.40432e-07
1.96048e-07
1.86045e-07
1.95158e-07
1.88299e-07
1.90564e-07
1.88584e-07
1.89551e-07
1.8919e-07
1.8919e-07
)
;
    }
    procBoundary0to3
    {
        type            processor;
        value           nonuniform List<scalar> 10(2.24683e-07 2.26407e-07 2.2455e-07 2.27469e-07 2.26128e-07 2.29656e-07 2.33571e-07 2.27153e-07 2.04965e-07 1.24035e-07);
    }
}


// ************************************************************************* //
