/*--------------------------------*- C++ -*----------------------------------*\
| =========                 |                                                 |
| \\      /  F ield         | OpenFOAM: The Open Source CFD Toolbox           |
|  \\    /   O peration     | Version:  dev                                   |
|   \\  /    A nd           | Web:      www.OpenFOAM.org                      |
|    \\/     M anipulation  |                                                 |
\*---------------------------------------------------------------------------*/
FoamFile
{
    version     2.0;
    format      ascii;
    class       volScalarField;
    location    "0.105";
    object      C6H5O;
}
// * * * * * * * * * * * * * * * * * * * * * * * * * * * * * * * * * * * * * //

dimensions      [0 0 0 0 0 0 0];

internalField   nonuniform List<scalar> 
250
(
6.0473e-10
6.05883e-10
6.04e-10
6.06844e-10
6.06056e-10
6.16878e-10
6.51173e-10
7.55058e-10
1.19207e-09
1.64502e-09
5.8951e-10
5.90315e-10
5.88742e-10
5.91067e-10
5.90494e-10
6.00349e-10
6.31715e-10
7.29051e-10
1.11227e-09
1.61323e-09
8.62652e-09
1.34978e-09
7.64693e-10
6.08909e-10
5.88421e-10
5.77863e-10
5.78923e-10
5.78231e-10
5.79434e-10
5.80186e-10
5.78783e-10
5.79228e-10
5.77986e-10
5.7977e-10
5.79429e-10
5.8828e-10
6.16916e-10
7.08095e-10
1.05404e-09
1.58475e-09
6.89461e-09
1.23225e-09
7.37365e-10
5.99984e-10
5.79871e-10
5.71183e-10
5.7178e-10
5.71468e-10
5.72454e-10
5.73298e-10
5.72083e-10
5.72182e-10
5.71265e-10
5.72526e-10
5.72415e-10
5.80339e-10
6.06316e-10
6.91618e-10
1.00483e-09
1.55858e-09
5.47409e-09
1.13242e-09
7.14752e-10
5.94418e-10
5.74981e-10
5.67869e-10
5.68093e-10
5.68086e-10
5.68896e-10
5.69803e-10
5.68752e-10
5.68555e-10
5.67919e-10
5.68728e-10
5.68823e-10
5.75905e-10
5.99413e-10
6.78944e-10
9.67288e-10
1.5329e-09
4.4271e-09
1.0445e-09
6.96216e-10
5.91307e-10
5.72925e-10
5.67003e-10
5.6698e-10
5.67163e-10
5.67846e-10
5.68777e-10
5.6786e-10
5.6746e-10
5.67019e-10
5.67507e-10
5.67753e-10
5.74111e-10
5.95447e-10
6.69168e-10
9.36069e-10
1.50485e-09
3.57369e-09
9.67722e-10
6.80841e-10
5.89419e-10
5.72561e-10
5.67339e-10
5.67231e-10
5.67451e-10
5.68065e-10
5.68971e-10
5.6815e-10
5.67689e-10
5.67308e-10
5.6767e-10
5.67979e-10
5.73794e-10
5.9329e-10
6.6109e-10
9.08532e-10
1.471e-09
2.82675e-09
8.99306e-10
6.67425e-10
5.86884e-10
5.72416e-10
5.67316e-10
5.67311e-10
5.67389e-10
5.68001e-10
5.68822e-10
5.68049e-10
5.67711e-10
5.67215e-10
5.67696e-10
5.67953e-10
5.73424e-10
5.91042e-10
6.52208e-10
8.82169e-10
1.42792e-09
2.36918e-09
8.37076e-10
6.54555e-10
5.82332e-10
5.70659e-10
5.65165e-10
5.6546e-10
5.65206e-10
5.65888e-10
5.66562e-10
5.65784e-10
5.65776e-10
5.64967e-10
5.6584e-10
5.65908e-10
5.71209e-10
5.87385e-10
6.42237e-10
8.5458e-10
1.37263e-09
1.91406e-09
7.76692e-10
6.38123e-10
5.73978e-10
5.65561e-10
5.5914e-10
5.59907e-10
5.59156e-10
5.59972e-10
5.60442e-10
5.59605e-10
5.60126e-10
5.58816e-10
5.60334e-10
5.60079e-10
5.65367e-10
5.80427e-10
6.27872e-10
8.23433e-10
1.30322e-09
1.5968e-09
7.20433e-10
6.19853e-10
5.60431e-10
5.55488e-10
5.47806e-10
5.4916e-10
5.478e-10
5.48797e-10
5.4902e-10
5.4808e-10
5.49288e-10
5.47332e-10
5.49685e-10
5.48996e-10
5.54414e-10
5.68566e-10
6.09105e-10
7.86973e-10
1.2193e-09
1.33156e-09
6.65032e-10
5.96882e-10
5.40835e-10
5.39277e-10
5.30249e-10
5.32226e-10
5.30218e-10
5.31418e-10
5.31374e-10
5.30299e-10
5.32293e-10
5.29602e-10
5.32898e-10
5.31703e-10
5.37352e-10
5.507e-10
5.84492e-10
7.44139e-10
1.12226e-09
1.10883e-09
6.09354e-10
5.6816e-10
5.14694e-10
5.16211e-10
5.05922e-10
5.08499e-10
5.05854e-10
5.07262e-10
5.0695e-10
5.05704e-10
5.08556e-10
5.05067e-10
5.09373e-10
5.07618e-10
5.13572e-10
5.26163e-10
5.53516e-10
6.94635e-10
1.01479e-09
4.73375e-10
4.77194e-10
4.728e-10
4.78221e-10
4.75838e-10
4.82191e-10
4.941e-10
5.15464e-10
6.3837e-10
8.99857e-10
)
;

boundaryField
{
    fuel
    {
        type            fixedValue;
        value           nonuniform 0();
    }
    wall
    {
        type            zeroGradient;
    }
    outlet
    {
        type            zeroGradient;
    }
    frontAndBack
    {
        type            empty;
    }
    procBoundary0to1
    {
        type            processor;
        value           nonuniform List<scalar> 
21
(
9.22472e-10
5.51874e-10
5.32823e-10
4.811e-10
4.85429e-10
4.739e-10
4.77089e-10
4.73787e-10
4.75429e-10
4.74838e-10
4.74838e-10
4.31361e-10
4.36269e-10
4.3085e-10
4.37496e-10
4.34416e-10
4.41256e-10
4.52621e-10
4.68529e-10
5.74341e-10
7.78832e-10
)
;
    }
    procBoundary0to2
    {
        type            processor;
        value           nonuniform List<scalar> 
12
(
6.06569e-10
1.03519e-08
1.48145e-09
7.9732e-10
6.2183e-10
6.01242e-10
5.88554e-10
5.90156e-10
5.89022e-10
5.90495e-10
5.9112e-10
5.9112e-10
)
;
    }
    procBoundary0to3
    {
        type            processor;
        value           nonuniform List<scalar> 10(6.24816e-10 6.26283e-10 6.24138e-10 6.27436e-10 6.26472e-10 6.382e-10 6.7556e-10 7.88791e-10 1.28481e-09 1.67905e-09);
    }
}


// ************************************************************************* //
