/*--------------------------------*- C++ -*----------------------------------*\
| =========                 |                                                 |
| \\      /  F ield         | OpenFOAM: The Open Source CFD Toolbox           |
|  \\    /   O peration     | Version:  dev                                   |
|   \\  /    A nd           | Web:      www.OpenFOAM.org                      |
|    \\/     M anipulation  |                                                 |
\*---------------------------------------------------------------------------*/
FoamFile
{
    version     2.0;
    format      ascii;
    class       volScalarField;
    location    "0.105";
    object      CH;
}
// * * * * * * * * * * * * * * * * * * * * * * * * * * * * * * * * * * * * * //

dimensions      [0 0 0 0 0 0 0];

internalField   nonuniform List<scalar> 
50
(
1.6527e-05
2.1362e-05
2.08348e-05
1.84392e-05
1.54384e-05
1.24509e-05
9.8164e-06
7.63132e-06
5.88094e-06
4.52344e-06
3.48158e-06
2.69361e-06
2.08988e-06
1.62575e-06
1.26851e-06
9.91879e-07
7.76408e-07
6.09249e-07
4.77955e-07
3.74645e-07
2.93321e-07
2.28794e-07
1.78491e-07
1.38969e-07
1.08059e-07
8.39151e-08
6.501e-08
5.02435e-08
3.88873e-08
3.00288e-08
2.31539e-08
1.78891e-08
1.38056e-08
1.06401e-08
8.20002e-09
6.3197e-09
4.87102e-09
3.75502e-09
2.89532e-09
2.23305e-09
1.72284e-09
1.32975e-09
1.02685e-09
7.93428e-10
6.13511e-10
4.74803e-10
3.67826e-10
2.85269e-10
2.21478e-10
1.72067e-10
)
;

boundaryField
{
    wall
    {
        type            zeroGradient;
    }
    fuel
    {
        type            fixedValue;
        value           uniform 0;
    }
    outlet
    {
        type            inletOutlet;
        inletValue      nonuniform 0();
        value           nonuniform 0();
    }
    procBoundary0to1
    {
        type            processor;
        value           uniform 1.33947e-10;
    }
}


// ************************************************************************* //
