/*--------------------------------*- C++ -*----------------------------------*\
| =========                 |                                                 |
| \\      /  F ield         | OpenFOAM: The Open Source CFD Toolbox           |
|  \\    /   O peration     | Version:  dev                                   |
|   \\  /    A nd           | Web:      www.OpenFOAM.org                      |
|    \\/     M anipulation  |                                                 |
\*---------------------------------------------------------------------------*/
FoamFile
{
    version     2.0;
    format      ascii;
    class       volScalarField;
    location    "0.105";
    object      CH2OH;
}
// * * * * * * * * * * * * * * * * * * * * * * * * * * * * * * * * * * * * * //

dimensions      [0 0 0 0 0 0 0];

internalField   nonuniform List<scalar> 
50
(
1.59018e-06
2.03774e-06
1.97427e-06
1.74846e-06
1.47827e-06
1.21388e-06
9.80374e-07
7.83961e-07
6.2272e-07
4.93647e-07
3.90986e-07
3.1037e-07
2.46239e-07
1.9515e-07
1.54545e-07
1.22219e-07
9.64564e-08
7.61067e-08
5.99047e-08
4.70327e-08
3.68357e-08
2.87153e-08
2.23751e-08
1.73935e-08
1.35014e-08
1.04667e-08
8.09553e-09
6.24786e-09
4.83028e-09
3.72701e-09
2.87252e-09
2.21932e-09
1.71339e-09
1.32161e-09
1.01981e-09
7.87304e-10
6.08135e-10
4.70026e-10
3.63524e-10
2.81361e-10
2.17945e-10
1.68974e-10
1.3114e-10
1.01894e-10
7.92754e-11
6.17714e-11
4.82161e-11
3.77083e-11
2.955e-11
2.31978e-11
)
;

boundaryField
{
    wall
    {
        type            zeroGradient;
    }
    fuel
    {
        type            fixedValue;
        value           uniform 0;
    }
    outlet
    {
        type            inletOutlet;
        inletValue      nonuniform 0();
        value           nonuniform 0();
    }
    procBoundary0to1
    {
        type            processor;
        value           uniform 1.82715e-11;
    }
}


// ************************************************************************* //
