/*--------------------------------*- C++ -*----------------------------------*\
| =========                 |                                                 |
| \\      /  F ield         | OpenFOAM: The Open Source CFD Toolbox           |
|  \\    /   O peration     | Version:  dev                                   |
|   \\  /    A nd           | Web:      www.OpenFOAM.org                      |
|    \\/     M anipulation  |                                                 |
\*---------------------------------------------------------------------------*/
FoamFile
{
    version     2.0;
    format      ascii;
    class       volScalarField;
    location    "0.105";
    object      CH3;
}
// * * * * * * * * * * * * * * * * * * * * * * * * * * * * * * * * * * * * * //

dimensions      [0 0 0 0 0 0 0];

internalField   nonuniform List<scalar> 
250
(
7.915e-05
7.92368e-05
7.91651e-05
7.92571e-05
7.92653e-05
7.93193e-05
7.93395e-05
7.69903e-05
6.65619e-05
5.6404e-05
7.60293e-05
7.61267e-05
7.60443e-05
7.61563e-05
7.6168e-05
7.62397e-05
7.63166e-05
7.42762e-05
6.46342e-05
5.20866e-05
4.81797e-05
6.69057e-05
7.25147e-05
7.4228e-05
7.3219e-05
7.29878e-05
7.29779e-05
7.2618e-05
7.28905e-05
7.25817e-05
7.26304e-05
7.27384e-05
7.26444e-05
7.27762e-05
7.27915e-05
7.28813e-05
7.30298e-05
7.12891e-05
6.24346e-05
4.91113e-05
4.96407e-05
6.51523e-05
6.9204e-05
7.06845e-05
6.95508e-05
6.9312e-05
6.93028e-05
6.89078e-05
6.92063e-05
6.88638e-05
6.89237e-05
6.90428e-05
6.89367e-05
6.90881e-05
6.91066e-05
6.92144e-05
6.94394e-05
6.7984e-05
5.99572e-05
4.67057e-05
5.02857e-05
6.26916e-05
6.55209e-05
6.67975e-05
6.55495e-05
6.53043e-05
6.52964e-05
6.48671e-05
6.51927e-05
6.48158e-05
6.48868e-05
6.50177e-05
6.48991e-05
6.50696e-05
6.50905e-05
6.52157e-05
6.55218e-05
6.43521e-05
5.71166e-05
4.46272e-05
5.00371e-05
5.99484e-05
6.14527e-05
6.25497e-05
6.1204e-05
6.09539e-05
6.09478e-05
6.04865e-05
6.08393e-05
6.04288e-05
6.051e-05
6.06531e-05
6.05222e-05
6.07104e-05
6.07328e-05
6.08737e-05
6.12652e-05
6.03644e-05
5.41871e-05
4.26795e-05
4.88596e-05
5.66299e-05
5.70056e-05
5.79403e-05
5.65221e-05
5.62692e-05
5.6265e-05
5.57766e-05
5.61547e-05
5.57134e-05
5.58033e-05
5.59584e-05
5.58158e-05
5.60193e-05
5.6042e-05
5.61956e-05
5.66775e-05
5.60168e-05
5.06911e-05
4.05913e-05
4.6773e-05
5.27503e-05
5.22157e-05
5.29918e-05
5.1538e-05
5.12847e-05
5.12823e-05
5.07745e-05
5.11741e-05
5.07075e-05
5.08036e-05
5.09695e-05
5.08168e-05
5.10315e-05
5.10529e-05
5.1216e-05
5.15658e-05
5.13294e-05
4.69619e-05
3.83959e-05
4.38487e-05
4.83527e-05
4.69317e-05
4.77656e-05
4.61566e-05
4.58489e-05
4.58574e-05
4.53255e-05
4.5741e-05
4.5252e-05
4.53643e-05
4.55432e-05
4.53811e-05
4.56251e-05
4.56531e-05
4.58137e-05
4.63681e-05
4.63645e-05
4.28643e-05
3.57784e-05
4.02072e-05
4.35273e-05
4.13289e-05
4.22029e-05
4.07333e-05
4.04364e-05
4.04477e-05
3.99171e-05
4.03388e-05
3.98429e-05
3.99573e-05
4.01416e-05
3.99751e-05
4.02223e-05
4.02478e-05
4.04083e-05
4.0992e-05
4.10797e-05
3.846e-05
3.2946e-05
3.6011e-05
3.84095e-05
3.58961e-05
3.66865e-05
3.52641e-05
3.49872e-05
3.50012e-05
3.4485e-05
3.49026e-05
3.44122e-05
3.45257e-05
3.47109e-05
3.4544e-05
3.4788e-05
3.481e-05
3.49672e-05
3.55552e-05
3.57937e-05
3.38508e-05
2.96632e-05
3.14225e-05
3.31555e-05
3.05156e-05
3.12313e-05
2.98933e-05
2.96445e-05
2.96608e-05
2.91727e-05
2.95746e-05
2.91033e-05
2.92126e-05
2.93935e-05
2.92307e-05
2.94648e-05
2.94826e-05
2.9633e-05
3.01992e-05
3.05364e-05
2.91652e-05
2.62173e-05
2.67277e-05
2.79442e-05
2.53494e-05
2.59924e-05
2.47727e-05
2.45584e-05
2.45759e-05
2.41285e-05
2.45037e-05
2.40644e-05
2.41664e-05
2.43379e-05
2.41835e-05
2.44014e-05
2.44148e-05
2.45522e-05
2.50784e-05
2.54634e-05
2.45513e-05
2.26149e-05
1.95225e-05
1.96804e-05
1.95381e-05
1.97348e-05
1.9744e-05
1.98659e-05
2.03332e-05
2.07249e-05
2.01608e-05
1.8999e-05
)
;

boundaryField
{
    fuel
    {
        type            fixedValue;
        value           nonuniform 0();
    }
    wall
    {
        type            zeroGradient;
    }
    outlet
    {
        type            zeroGradient;
    }
    frontAndBack
    {
        type            empty;
    }
    procBoundary0to1
    {
        type            processor;
        value           nonuniform List<scalar> 
21
(
2.21148e-05
2.29578e-05
2.05499e-05
2.11139e-05
2.00486e-05
1.98675e-05
1.9885e-05
1.94877e-05
1.98272e-05
1.94305e-05
1.94305e-05
1.53857e-05
1.55274e-05
1.53994e-05
1.55722e-05
1.55778e-05
1.5681e-05
1.60803e-05
1.64458e-05
1.61287e-05
1.55194e-05
)
;
    }
    procBoundary0to2
    {
        type            processor;
        value           nonuniform List<scalar> 
12
(
7.91215e-05
4.60546e-05
6.80131e-05
7.5481e-05
7.74552e-05
7.65778e-05
7.63549e-05
7.63446e-05
7.60196e-05
7.62679e-05
7.59913e-05
7.59913e-05
)
;
    }
    procBoundary0to3
    {
        type            processor;
        value           nonuniform List<scalar> 10(8.20247e-05 8.20998e-05 8.20377e-05 8.21099e-05 8.21146e-05 8.21517e-05 8.21146e-05 7.97564e-05 6.83412e-05 6.12392e-05);
    }
}


// ************************************************************************* //
