/*--------------------------------*- C++ -*----------------------------------*\
| =========                 |                                                 |
| \\      /  F ield         | OpenFOAM: The Open Source CFD Toolbox           |
|  \\    /   O peration     | Version:  dev                                   |
|   \\  /    A nd           | Web:      www.OpenFOAM.org                      |
|    \\/     M anipulation  |                                                 |
\*---------------------------------------------------------------------------*/
FoamFile
{
    version     2.0;
    format      ascii;
    class       volScalarField;
    location    "0.105";
    object      l-C6H4;
}
// * * * * * * * * * * * * * * * * * * * * * * * * * * * * * * * * * * * * * //

dimensions      [0 0 0 0 0 0 0];

internalField   nonuniform List<scalar> 
250
(
3.27496e-08
3.27551e-08
3.27382e-08
3.27205e-08
3.27434e-08
3.30748e-08
3.48108e-08
4.19773e-08
7.26878e-08
1.07126e-07
3.17023e-08
3.17058e-08
3.16892e-08
3.16778e-08
3.17006e-08
3.20108e-08
3.35995e-08
4.00704e-08
6.69417e-08
9.92347e-08
6.74548e-08
5.66307e-08
3.72903e-08
3.29431e-08
3.1301e-08
3.09498e-08
3.09084e-08
3.08551e-08
3.09347e-08
3.08805e-08
3.08724e-08
3.08719e-08
3.08566e-08
3.08489e-08
3.0872e-08
3.11611e-08
3.26126e-08
3.84181e-08
6.15475e-08
9.24692e-08
6.40829e-08
5.23203e-08
3.60691e-08
3.213e-08
3.06262e-08
3.03025e-08
3.02634e-08
3.02192e-08
3.02856e-08
3.02417e-08
3.02379e-08
3.02327e-08
3.02192e-08
3.02135e-08
3.02373e-08
3.05056e-08
3.18272e-08
3.70029e-08
5.67444e-08
8.59028e-08
6.09928e-08
4.86317e-08
3.50717e-08
3.14936e-08
3.01244e-08
2.98244e-08
2.97875e-08
2.97523e-08
2.9807e-08
2.97732e-08
2.97727e-08
2.97628e-08
2.97515e-08
2.9747e-08
2.97716e-08
3.00197e-08
3.12207e-08
3.58151e-08
5.24949e-08
7.95528e-08
5.81953e-08
4.59798e-08
3.42666e-08
3.10071e-08
2.97666e-08
2.9487e-08
2.9452e-08
2.94251e-08
2.947e-08
2.94453e-08
2.9447e-08
2.94333e-08
2.94241e-08
2.94203e-08
2.94459e-08
2.96745e-08
3.07662e-08
3.4827e-08
4.91559e-08
7.35248e-08
5.56789e-08
4.38244e-08
3.36191e-08
3.06408e-08
2.95241e-08
2.92613e-08
2.9228e-08
2.92085e-08
2.92453e-08
2.92287e-08
2.92318e-08
2.9215e-08
2.92079e-08
2.92046e-08
2.92313e-08
2.94405e-08
3.04369e-08
3.40118e-08
4.61289e-08
6.767e-08
5.34265e-08
4.20659e-08
3.31048e-08
3.03713e-08
2.93768e-08
2.91275e-08
2.90958e-08
2.90839e-08
2.91132e-08
2.91047e-08
2.91082e-08
2.90888e-08
2.90839e-08
2.90804e-08
2.91079e-08
2.93016e-08
3.01971e-08
3.33504e-08
4.36855e-08
6.25829e-08
5.14299e-08
4.06366e-08
3.27048e-08
3.02024e-08
2.93197e-08
2.90864e-08
2.90564e-08
2.9055e-08
2.9075e-08
2.90775e-08
2.90803e-08
2.90575e-08
2.90558e-08
2.90505e-08
2.9079e-08
2.92586e-08
3.00687e-08
3.28466e-08
4.1677e-08
5.79022e-08
4.97219e-08
3.95242e-08
3.24867e-08
3.01754e-08
2.94158e-08
2.92035e-08
2.91748e-08
2.91925e-08
2.91968e-08
2.92189e-08
2.92182e-08
2.91886e-08
2.91931e-08
2.91811e-08
2.92098e-08
2.93749e-08
3.00986e-08
3.25417e-08
4.0147e-08
5.42235e-08
4.84256e-08
3.8808e-08
3.26174e-08
3.04289e-08
2.98126e-08
2.96274e-08
2.95993e-08
2.96537e-08
2.96275e-08
2.96875e-08
2.96787e-08
2.9635e-08
2.96521e-08
2.96243e-08
2.96532e-08
2.98019e-08
3.04312e-08
3.25921e-08
3.92231e-08
5.13759e-08
4.78108e-08
3.87122e-08
3.33804e-08
3.12338e-08
3.08134e-08
3.06645e-08
3.06354e-08
3.07582e-08
3.0674e-08
3.08055e-08
3.07809e-08
3.07089e-08
3.07508e-08
3.06909e-08
3.072e-08
3.08475e-08
3.13627e-08
3.32722e-08
3.9175e-08
4.98515e-08
4.8443e-08
3.96951e-08
3.53337e-08
3.31036e-08
3.29762e-08
3.28779e-08
3.28443e-08
3.30916e-08
3.28992e-08
3.31628e-08
3.31085e-08
3.29822e-08
3.30716e-08
3.2951e-08
3.29811e-08
3.30752e-08
3.34423e-08
3.51093e-08
4.0513e-08
5.00347e-08
3.77452e-08
3.75158e-08
3.76963e-08
3.74618e-08
3.7495e-08
3.75375e-08
3.76785e-08
3.90818e-08
4.4196e-08
5.28238e-08
)
;

boundaryField
{
    fuel
    {
        type            fixedValue;
        value           nonuniform 0();
    }
    wall
    {
        type            zeroGradient;
    }
    outlet
    {
        type            zeroGradient;
    }
    frontAndBack
    {
        type            empty;
    }
    procBoundary0to1
    {
        type            processor;
        value           nonuniform List<scalar> 
21
(
5.12687e-08
4.26159e-08
3.95064e-08
3.69892e-08
3.73378e-08
3.73111e-08
3.72679e-08
3.77405e-08
3.73469e-08
3.78544e-08
3.78544e-08
4.68557e-08
4.64216e-08
4.67859e-08
4.63287e-08
4.63724e-08
4.63202e-08
4.60851e-08
4.7118e-08
5.21507e-08
6.0038e-08
)
;
    }
    procBoundary0to2
    {
        type            processor;
        value           nonuniform List<scalar> 
12
(
3.27712e-08
7.12086e-08
6.14619e-08
3.87717e-08
3.39541e-08
3.21725e-08
3.17909e-08
3.17467e-08
3.1686e-08
3.17798e-08
3.17164e-08
3.17164e-08
)
;
    }
    procBoundary0to3
    {
        type            processor;
        value           nonuniform List<scalar> 10(3.4035e-08 3.40374e-08 3.40207e-08 3.39935e-08 3.4017e-08 3.43697e-08 3.62548e-08 4.44062e-08 7.88405e-08 1.14702e-07);
    }
}


// ************************************************************************* //
