/*--------------------------------*- C++ -*----------------------------------*\
| =========                 |                                                 |
| \\      /  F ield         | OpenFOAM: The Open Source CFD Toolbox           |
|  \\    /   O peration     | Version:  dev                                   |
|   \\  /    A nd           | Web:      www.OpenFOAM.org                      |
|    \\/     M anipulation  |                                                 |
\*---------------------------------------------------------------------------*/
FoamFile
{
    version     2.0;
    format      ascii;
    class       volScalarField;
    location    "0.105";
    object      p;
}
// * * * * * * * * * * * * * * * * * * * * * * * * * * * * * * * * * * * * * //

dimensions      [1 -1 -2 0 0 0 0];

internalField   nonuniform List<scalar> 
250
(
99999.8
100001
100002
100002
100003
100003
100003
100002
100001
100001
99999.8
100001
100002
100002
100003
100003
100003
100002
100001
100001
100002
99993.7
99999.6
99994.7
99997.1
99995.7
99996.7
99996.8
99997.8
99998.6
99999.8
100001
100002
100002
100003
100003
100003
100002
100001
100001
100002
99993.7
99999.6
99994.8
99997.1
99995.7
99996.7
99996.8
99997.8
99998.6
99999.8
100001
100002
100002
100003
100003
100003
100002
100001
100001
100002
99993.8
99999.5
99994.9
99997.1
99995.7
99996.7
99996.8
99997.8
99998.7
99999.8
100001
100002
100002
100003
100003
100003
100002
100001
100001
100002
99993.9
99999.5
99994.9
99997.1
99995.7
99996.7
99996.8
99997.8
99998.7
99999.8
100001
100002
100002
100003
100003
100003
100002
100001
100001
100003
99994
99999.5
99995
99997.1
99995.8
99996.7
99996.8
99997.8
99998.7
99999.8
100001
100002
100002
100003
100003
100003
100002
100001
100001
100003
99994.1
99999.4
99995.1
99997
99995.8
99996.7
99996.8
99997.8
99998.7
99999.8
100001
100002
100002
100003
100003
100003
100002
100001
100001
100003
99994.2
99999.4
99995.2
99997
99995.8
99996.7
99996.8
99997.8
99998.7
99999.8
100001
100002
100002
100003
100003
100003
100002
100001
100001
100003
99994.3
99999.3
99995.2
99997
99995.8
99996.7
99996.8
99997.8
99998.7
99999.8
100001
100002
100002
100003
100003
100003
100002
100001
100001
100003
99994.4
99999.3
99995.3
99997
99995.8
99996.7
99996.8
99997.8
99998.7
99999.8
100001
100002
100002
100003
100003
100003
100002
100001
100001
100003
99994.5
99999.2
99995.4
99997
99995.9
99996.7
99996.8
99997.8
99998.7
99999.8
100001
100002
100002
100003
100003
100003
100002
100001
100001
100003
99994.6
99999.2
99995.4
99997
99995.9
99996.7
99996.8
99997.8
99998.7
99999.9
100001
100002
100002
100003
100003
100003
100002
100001
100001
99999.9
100001
100002
100002
100003
100003
100003
100002
100001
100001
)
;

boundaryField
{
    fuel
    {
        type            zeroGradient;
    }
    wall
    {
        type            zeroGradient;
    }
    outlet
    {
        type            totalPressure;
        rho             none;
        psi             none;
        gamma           1;
        p0              uniform 100000;
        value           uniform 100000;
    }
    frontAndBack
    {
        type            empty;
    }
    procBoundary0to1
    {
        type            processor;
        value           nonuniform List<scalar> 
21
(
100003
99994.7
99999.1
99995.5
99997
99995.9
99996.7
99996.8
99997.8
99998.7
99998.7
99999.9
100001
100002
100003
100003
100003
100003
100002
100001
100001
)
;
    }
    procBoundary0to2
    {
        type            processor;
        value           nonuniform List<scalar> 
12
(
99998.6
100002
99993.6
99999.6
99994.6
99997.1
99995.6
99996.7
99996.8
99997.8
99998.6
99998.6
)
;
    }
    procBoundary0to3
    {
        type            processor;
        value           nonuniform List<scalar> 10(99999.8 100001 100002 100002 100003 100003 100003 100002 100001 100001);
    }
}


// ************************************************************************* //
