/*--------------------------------*- C++ -*----------------------------------*\
| =========                 |                                                 |
| \\      /  F ield         | OpenFOAM: The Open Source CFD Toolbox           |
|  \\    /   O peration     | Version:  dev                                   |
|   \\  /    A nd           | Web:      www.OpenFOAM.org                      |
|    \\/     M anipulation  |                                                 |
\*---------------------------------------------------------------------------*/
FoamFile
{
    version     2.0;
    format      ascii;
    class       volScalarField;
    location    "0.105";
    object      PC3H4;
}
// * * * * * * * * * * * * * * * * * * * * * * * * * * * * * * * * * * * * * //

dimensions      [0 0 0 0 0 0 0];

internalField   nonuniform List<scalar> 
250
(
1.27135e-07
1.27156e-07
1.27115e-07
1.27094e-07
1.27144e-07
1.27804e-07
1.31093e-07
1.42491e-07
1.779e-07
2.50572e-07
1.24831e-07
1.24849e-07
1.24807e-07
1.248e-07
1.2485e-07
1.25481e-07
1.28555e-07
1.3911e-07
1.7084e-07
2.30257e-07
1.72222e-07
1.59394e-07
1.34633e-07
1.27143e-07
1.23791e-07
1.23053e-07
1.22966e-07
1.22815e-07
1.23005e-07
1.22861e-07
1.22853e-07
1.22865e-07
1.22823e-07
1.22825e-07
1.22876e-07
1.23476e-07
1.26341e-07
1.36039e-07
1.64051e-07
2.14587e-07
1.68804e-07
1.54384e-07
1.32169e-07
1.25189e-07
1.22039e-07
1.21347e-07
1.21265e-07
1.21123e-07
1.21295e-07
1.21162e-07
1.21166e-07
1.2117e-07
1.21129e-07
1.21138e-07
1.21191e-07
1.21758e-07
1.24417e-07
1.33258e-07
1.57817e-07
2.00876e-07
1.65296e-07
1.49681e-07
1.2997e-07
1.23477e-07
1.20538e-07
1.19886e-07
1.19808e-07
1.19675e-07
1.19833e-07
1.19711e-07
1.19723e-07
1.19721e-07
1.19681e-07
1.19696e-07
1.19752e-07
1.20285e-07
1.22746e-07
1.30759e-07
1.52085e-07
1.88891e-07
1.61774e-07
1.45934e-07
1.27986e-07
1.21961e-07
1.19232e-07
1.18616e-07
1.18542e-07
1.18417e-07
1.18563e-07
1.1845e-07
1.18469e-07
1.18462e-07
1.18424e-07
1.18444e-07
1.18502e-07
1.19001e-07
1.21278e-07
1.28495e-07
1.4735e-07
1.78477e-07
1.58248e-07
1.42519e-07
1.26153e-07
1.20576e-07
1.18057e-07
1.17469e-07
1.174e-07
1.17279e-07
1.17418e-07
1.1731e-07
1.17335e-07
1.17326e-07
1.17288e-07
1.17315e-07
1.17376e-07
1.17839e-07
1.19952e-07
1.2641e-07
1.42777e-07
1.69009e-07
1.54694e-07
1.39335e-07
1.24396e-07
1.19246e-07
1.16935e-07
1.16369e-07
1.16304e-07
1.16182e-07
1.1632e-07
1.16213e-07
1.16242e-07
1.16234e-07
1.16196e-07
1.1623e-07
1.16293e-07
1.16729e-07
1.18633e-07
1.24436e-07
1.38729e-07
1.61034e-07
1.51063e-07
1.36271e-07
1.22557e-07
1.17899e-07
1.15736e-07
1.15184e-07
1.15125e-07
1.14994e-07
1.15137e-07
1.15023e-07
1.15059e-07
1.15058e-07
1.15016e-07
1.15065e-07
1.15132e-07
1.15543e-07
1.17321e-07
1.22493e-07
1.34907e-07
1.53578e-07
1.4728e-07
1.33212e-07
1.20562e-07
1.164e-07
1.1441e-07
1.13885e-07
1.13832e-07
1.13687e-07
1.13842e-07
1.13714e-07
1.13756e-07
1.13765e-07
1.13718e-07
1.1378e-07
1.13849e-07
1.1424e-07
1.15879e-07
1.20441e-07
1.31211e-07
1.47146e-07
1.43254e-07
1.3004e-07
1.1842e-07
1.14706e-07
1.12829e-07
1.12333e-07
1.12285e-07
1.12119e-07
1.12294e-07
1.12145e-07
1.12194e-07
1.12216e-07
1.12162e-07
1.12241e-07
1.12311e-07
1.12686e-07
1.142e-07
1.1825e-07
1.27529e-07
1.40961e-07
1.38854e-07
1.26628e-07
1.15935e-07
1.12673e-07
1.10882e-07
1.10417e-07
1.10376e-07
1.10183e-07
1.10384e-07
1.10205e-07
1.10263e-07
1.10304e-07
1.10238e-07
1.10337e-07
1.10409e-07
1.10772e-07
1.12171e-07
1.15768e-07
1.23739e-07
1.35239e-07
1.34034e-07
1.22847e-07
1.12994e-07
1.10185e-07
1.08456e-07
1.08024e-07
1.07991e-07
1.07763e-07
1.07998e-07
1.07781e-07
1.0785e-07
1.07914e-07
1.07832e-07
1.07956e-07
1.08027e-07
1.08376e-07
1.09684e-07
1.12877e-07
1.1971e-07
1.29597e-07
1.0484e-07
1.04931e-07
1.04831e-07
1.04982e-07
1.05051e-07
1.0539e-07
1.06614e-07
1.09455e-07
1.15306e-07
1.2385e-07
)
;

boundaryField
{
    fuel
    {
        type            fixedValue;
        value           nonuniform 0();
    }
    wall
    {
        type            zeroGradient;
    }
    outlet
    {
        type            zeroGradient;
    }
    frontAndBack
    {
        type            empty;
    }
    procBoundary0to1
    {
        type            processor;
        value           nonuniform List<scalar> 
21
(
1.28657e-07
1.18566e-07
1.09483e-07
1.07114e-07
1.05444e-07
1.05038e-07
1.05014e-07
1.04745e-07
1.05022e-07
1.04759e-07
1.04759e-07
1.01128e-07
1.0125e-07
1.01128e-07
1.01308e-07
1.01374e-07
1.017e-07
1.02853e-07
1.05384e-07
1.10391e-07
1.17825e-07
)
;
    }
    procBoundary0to2
    {
        type            processor;
        value           nonuniform List<scalar> 
12
(
1.27169e-07
1.75449e-07
1.64475e-07
1.37402e-07
1.29378e-07
1.25834e-07
1.25047e-07
1.24955e-07
1.24797e-07
1.25006e-07
1.24851e-07
1.24851e-07
)
;
    }
    procBoundary0to3
    {
        type            processor;
        value           nonuniform List<scalar> 10(1.29791e-07 1.29808e-07 1.29769e-07 1.2973e-07 1.2978e-07 1.30467e-07 1.33959e-07 1.46618e-07 1.85302e-07 2.70591e-07);
    }
}


// ************************************************************************* //
