/*--------------------------------*- C++ -*----------------------------------*\
| =========                 |                                                 |
| \\      /  F ield         | OpenFOAM: The Open Source CFD Toolbox           |
|  \\    /   O peration     | Version:  dev                                   |
|   \\  /    A nd           | Web:      www.OpenFOAM.org                      |
|    \\/     M anipulation  |                                                 |
\*---------------------------------------------------------------------------*/
FoamFile
{
    version     2.0;
    format      ascii;
    class       surfaceScalarField;
    location    "0.105";
    object      phi;
}
// * * * * * * * * * * * * * * * * * * * * * * * * * * * * * * * * * * * * * //

dimensions      [1 0 -1 0 0 0 0];

internalField   nonuniform List<scalar> 
466
(
1.96195e-07
6.15553e-06
3.51928e-07
6.17568e-06
5.11757e-07
6.09382e-06
6.63547e-07
6.21338e-06
8.19086e-07
6.21753e-06
9.70089e-07
6.16976e-06
1.12894e-06
7.06688e-06
1.2931e-06
6.2872e-06
1.5066e-06
9.20408e-06
6.80946e-06
2.01585e-07
5.99759e-06
3.62632e-07
6.02258e-06
5.27489e-07
5.93654e-06
6.84838e-07
6.06147e-06
8.46106e-07
6.06127e-06
1.00242e-06
6.01568e-06
1.1712e-06
6.90122e-06
1.34372e-06
6.11591e-06
1.56493e-06
8.97217e-06
6.6392e-06
-1.54341e-06
2.65196e-05
-1.55578e-06
8.62064e-07
-1.13103e-06
1.30922e-05
-1.01628e-06
3.96142e-06
-7.95545e-07
8.15212e-06
-6.44065e-07
5.15432e-06
-4.66453e-07
6.5597e-06
-3.04177e-07
5.57965e-06
-1.31976e-07
6.03447e-06
3.51833e-08
5.7403e-06
2.06995e-07
5.83461e-06
3.73319e-07
5.86424e-06
5.43161e-07
5.77441e-06
7.06056e-07
5.904e-06
8.72946e-07
5.89955e-06
1.03449e-06
5.85627e-06
1.21272e-06
6.7263e-06
1.39358e-06
5.93676e-06
1.62209e-06
8.73612e-06
6.47595e-06
-1.58837e-06
2.51928e-05
-1.60964e-06
8.85866e-07
-1.16722e-06
1.26645e-05
-1.05253e-06
3.84159e-06
-8.20876e-07
7.92802e-06
-6.66019e-07
4.99952e-06
-4.81183e-07
6.38123e-06
-3.14284e-07
5.41745e-06
-1.36626e-07
5.86483e-06
3.55018e-08
5.57612e-06
2.12409e-07
5.66666e-06
3.83981e-07
5.70067e-06
5.58775e-07
5.60747e-06
7.27201e-07
5.74096e-06
8.9962e-07
5.73246e-06
1.06631e-06
5.69155e-06
1.25348e-06
6.54261e-06
1.44263e-06
5.74971e-06
1.67824e-06
8.498e-06
6.31824e-06
-1.63385e-06
2.3883e-05
-1.66156e-06
9.11754e-07
-1.20339e-06
1.22229e-05
-1.08811e-06
3.72055e-06
-8.46013e-07
7.69456e-06
-6.87754e-07
4.84098e-06
-4.95817e-07
6.19605e-06
-3.24309e-07
5.25053e-06
-1.4124e-07
5.68993e-06
3.58525e-08
5.40696e-06
2.17818e-07
5.49377e-06
3.94618e-07
5.53189e-06
5.74348e-07
5.43575e-06
7.48289e-07
5.57236e-06
9.26161e-07
5.56009e-06
1.09796e-06
5.52147e-06
1.29355e-06
6.35065e-06
1.49056e-06
5.55508e-06
1.73328e-06
8.2548e-06
6.1641e-06
-1.68044e-06
2.25985e-05
-1.71192e-06
9.39137e-07
-1.23962e-06
1.17695e-05
-1.12319e-06
3.59765e-06
-8.71048e-07
7.45235e-06
-7.09358e-07
4.67867e-06
-5.10417e-07
6.00432e-06
-3.34307e-07
5.07889e-06
-1.45849e-07
5.50982e-06
3.62114e-08
5.23284e-06
2.23218e-07
5.31598e-06
4.05241e-07
5.3579e-06
5.89908e-07
5.25925e-06
7.69353e-07
5.3982e-06
9.52624e-07
5.38252e-06
1.1295e-06
5.34598e-06
1.333e-06
6.1509e-06
1.5372e-06
5.3534e-06
1.7874e-06
8.0061e-06
6.01117e-06
-1.72782e-06
2.1338e-05
-1.76105e-06
9.6523e-07
-1.27602e-06
1.1306e-05
-1.15796e-06
3.47171e-06
-8.96082e-07
7.20178e-06
-7.30927e-07
4.51249e-06
-5.2505e-07
5.80614e-06
-3.44335e-07
4.90251e-06
-1.50483e-07
5.32452e-06
3.65591e-08
5.05374e-06
2.28615e-07
5.13329e-06
4.15873e-07
5.17868e-06
6.05495e-07
5.07798e-06
7.90448e-07
5.21845e-06
9.79089e-07
5.1998e-06
1.16106e-06
5.1651e-06
1.37197e-06
5.94375e-06
1.5823e-06
5.14548e-06
1.84075e-06
7.75088e-06
5.85653e-06
-1.77613e-06
2.01051e-05
-1.8093e-06
9.87764e-07
-1.31282e-06
1.08346e-05
-1.19277e-06
3.34427e-06
-9.21229e-07
6.94268e-06
-7.5257e-07
4.34238e-06
-5.39795e-07
5.60159e-06
-3.54452e-07
4.72135e-06
-1.55174e-07
5.134e-06
3.68821e-08
4.86962e-06
2.3402e-07
4.94567e-06
4.26545e-07
4.99419e-06
6.2117e-07
4.8919e-06
8.1165e-07
5.03309e-06
1.00566e-06
5.01196e-06
1.19301e-06
4.97882e-06
1.41128e-06
5.73019e-06
1.62644e-06
4.93186e-06
1.89357e-06
7.48822e-06
5.69743e-06
-1.8256e-06
1.88996e-05
-1.85704e-06
1.00324e-06
-1.34987e-06
1.0358e-05
-1.22769e-06
3.21316e-06
-9.46718e-07
6.67522e-06
-7.74413e-07
4.16814e-06
-5.5474e-07
5.3907e-06
-3.64725e-07
4.53536e-06
-1.59953e-07
4.93822e-06
3.71705e-08
4.68044e-06
2.39453e-07
4.75307e-06
4.37305e-07
4.80437e-06
6.37007e-07
4.70097e-06
8.33059e-07
4.84205e-06
1.03248e-06
4.81899e-06
1.22507e-06
4.78755e-06
1.45003e-06
5.5101e-06
1.66924e-06
4.71348e-06
1.9461e-06
7.21659e-06
5.53139e-06
-1.8769e-06
1.77208e-05
-1.90594e-06
1.01991e-06
-1.38844e-06
9.86623e-06
-1.2629e-06
3.0776e-06
-9.72549e-07
6.39954e-06
-7.96604e-07
3.98973e-06
-5.69988e-07
5.17344e-06
-3.75233e-07
4.34442e-06
-1.64857e-07
4.73708e-06
3.74181e-08
4.4861e-06
2.44944e-07
4.55542e-06
4.48215e-07
4.6091e-06
6.53106e-07
4.50509e-06
8.54805e-07
4.64522e-06
1.05969e-06
4.62086e-06
1.25764e-06
4.591e-06
1.48936e-06
5.28349e-06
1.71179e-06
4.4923e-06
1.99871e-06
6.93525e-06
5.35623e-06
-1.92895e-06
1.65677e-05
-1.95431e-06
1.02714e-06
-1.42709e-06
9.36958e-06
-1.29877e-06
2.93819e-06
-9.99008e-07
6.11612e-06
-8.19326e-07
3.807e-06
-5.85659e-07
4.94974e-06
-3.86064e-07
4.14842e-06
-1.69924e-07
4.53041e-06
3.76213e-08
4.28647e-06
2.50531e-07
4.35259e-06
4.59357e-07
4.40822e-06
6.69588e-07
4.30415e-06
8.77049e-07
4.44245e-06
1.08753e-06
4.41748e-06
1.29097e-06
4.38865e-06
1.52899e-06
5.05084e-06
1.75398e-06
4.26778e-06
2.05182e-06
6.643e-06
5.17014e-06
-1.98277e-06
1.54404e-05
-2.00374e-06
1.0268e-06
-1.46694e-06
8.86752e-06
-1.33566e-06
2.79454e-06
-1.02634e-06
5.82513e-06
-8.42799e-07
3.61973e-06
-6.01896e-07
4.71946e-06
-3.97323e-07
3.9472e-06
-1.75199e-07
4.31802e-06
3.77794e-08
4.08136e-06
2.56267e-07
4.14441e-06
4.70834e-07
4.20153e-06
6.86609e-07
4.09798e-06
8.99993e-07
4.23354e-06
1.11624e-06
4.20866e-06
1.32536e-06
4.18011e-06
1.56968e-06
4.81217e-06
1.79673e-06
4.04042e-06
2.10596e-06
6.33913e-06
4.97163e-06
-2.03884e-06
-2.05487e-06
-1.50836e-06
-1.37399e-06
-1.05485e-06
-8.6729e-07
-6.18875e-07
-4.09143e-07
-1.80739e-07
3.78934e-08
2.62216e-07
3.93066e-06
4.82778e-07
3.98873e-06
7.04362e-07
3.88635e-06
9.23888e-07
4.0182e-06
1.14615e-06
3.99415e-06
1.36118e-06
3.96512e-06
1.61202e-06
4.56732e-06
1.84083e-06
3.81053e-06
2.16176e-06
6.02315e-06
4.75948e-06
2.68462e-07
4.95355e-07
7.23095e-07
9.49059e-07
1.17769e-06
1.3989e-06
1.65679e-06
1.8872e-06
2.21989e-06
)
;

boundaryField
{
    fuel
    {
        type            calculated;
        value           nonuniform 0();
    }
    wall
    {
        type            calculated;
        value           nonuniform 0();
    }
    outlet
    {
        type            calculated;
        value           nonuniform List<scalar> 
25
(
2.92685e-06
2.93605e-06
2.94854e-06
2.96529e-06
2.98547e-06
3.00919e-06
3.03668e-06
3.06892e-06
3.10389e-06
3.14312e-06
3.18725e-06
1.61778e-06
1.68504e-06
1.75015e-06
1.8135e-06
1.87558e-06
1.93713e-06
1.99903e-06
2.06146e-06
2.12465e-06
2.18883e-06
2.25426e-06
2.32131e-06
2.39048e-06
2.46244e-06
)
;
    }
    frontAndBack
    {
        type            empty;
        value           nonuniform 0();
    }
    procBoundary0to1
    {
        type            processor;
        value           nonuniform List<scalar> 
21
(
1.43374e-05
1.01909e-06
8.35985e-06
2.64635e-06
5.52642e-06
3.42766e-06
4.48239e-06
3.74061e-06
4.0997e-06
3.87062e-06
-3.79645e-08
3.71117e-06
3.76957e-06
3.66908e-06
3.79615e-06
3.77366e-06
3.74345e-06
4.31587e-06
3.57827e-06
5.69491e-06
4.53265e-06
)
;
    }
    procBoundary0to2
    {
        type            processor;
        value           nonuniform List<scalar> 
12
(
-3.47503e-08
-2.78405e-05
-8.45525e-07
-1.35039e-05
-4.08078e-06
-8.36627e-06
-5.30545e-06
-6.73126e-06
-5.73704e-06
-6.19869e-06
-3.49227e-08
-5.8994e-06
)
;
    }
    procBoundary0to3
    {
        type            processor;
        value           nonuniform List<scalar> 10(-6.30821e-06 -6.32336e-06 -6.24608e-06 -6.35964e-06 -6.36815e-06 -6.31842e-06 -7.22281e-06 -6.45067e-06 -9.43301e-06 -6.98772e-06);
    }
}


// ************************************************************************* //
