/*--------------------------------*- C++ -*----------------------------------*\
| =========                 |                                                 |
| \\      /  F ield         | OpenFOAM: The Open Source CFD Toolbox           |
|  \\    /   O peration     | Version:  dev                                   |
|   \\  /    A nd           | Web:      www.OpenFOAM.org                      |
|    \\/     M anipulation  |                                                 |
\*---------------------------------------------------------------------------*/
FoamFile
{
    version     2.0;
    format      ascii;
    class       volScalarField;
    location    "0.105";
    object      A2C2HB;
}
// * * * * * * * * * * * * * * * * * * * * * * * * * * * * * * * * * * * * * //

dimensions      [0 0 0 0 0 0 0];

internalField   nonuniform List<scalar> 
50
(
3.94104e-21
3.92787e-21
3.91778e-21
3.9111e-21
3.9079e-21
3.90838e-21
3.91261e-21
3.92064e-21
3.93244e-21
3.94802e-21
3.96716e-21
3.98959e-21
4.01477e-21
4.04261e-21
4.07267e-21
4.10451e-21
4.13763e-21
4.17148e-21
4.20567e-21
4.23908e-21
4.27138e-21
4.30188e-21
4.32991e-21
4.35475e-21
4.37567e-21
4.39164e-21
4.4018e-21
4.4055e-21
4.40188e-21
4.39007e-21
4.3692e-21
4.33834e-21
4.29651e-21
4.24261e-21
4.17588e-21
4.09559e-21
4.00034e-21
3.88898e-21
3.76025e-21
3.61276e-21
3.44494e-21
3.25488e-21
3.04082e-21
2.80018e-21
2.52982e-21
2.22592e-21
1.88384e-21
1.49753e-21
1.05242e-21
4.69493e-22
)
;

boundaryField
{
    wall
    {
        type            zeroGradient;
    }
    fuel
    {
        type            fixedValue;
        value           nonuniform 0();
    }
    outlet
    {
        type            inletOutlet;
        inletValue      uniform 0;
        value           uniform 0;
    }
    procBoundary3to2
    {
        type            processor;
        value           uniform 3.95146e-21;
    }
}


// ************************************************************************* //
