/*--------------------------------*- C++ -*----------------------------------*\
| =========                 |                                                 |
| \\      /  F ield         | OpenFOAM: The Open Source CFD Toolbox           |
|  \\    /   O peration     | Version:  dev                                   |
|   \\  /    A nd           | Web:      www.OpenFOAM.org                      |
|    \\/     M anipulation  |                                                 |
\*---------------------------------------------------------------------------*/
FoamFile
{
    version     2.0;
    format      ascii;
    class       volScalarField;
    location    "0.105";
    object      A2C2HB*;
}
// * * * * * * * * * * * * * * * * * * * * * * * * * * * * * * * * * * * * * //

dimensions      [0 0 0 0 0 0 0];

internalField   nonuniform List<scalar> 
250
(
1.54161e-09
1.54154e-09
1.54377e-09
1.542e-09
1.5417e-09
1.54348e-09
1.54467e-09
1.55143e-09
1.59308e-09
1.86188e-09
1.49957e-11
1.0177e-09
1.01735e-09
1.01828e-09
1.01799e-09
1.01782e-09
1.01835e-09
1.01928e-09
1.02696e-09
1.07716e-09
1.43179e-09
9.78726e-12
5.30284e-10
5.29751e-10
5.3053e-10
5.30513e-10
5.30375e-10
5.30724e-10
5.31192e-10
5.36817e-10
5.73579e-10
8.46434e-10
3.51047e-12
2.75471e-10
2.74628e-10
2.75647e-10
2.75661e-10
2.75554e-10
2.75817e-10
2.76036e-10
2.79742e-10
3.0485e-10
5.00979e-10
1.40957e-12
1.53382e-10
1.51811e-10
1.53554e-10
1.53548e-10
1.53461e-10
1.53664e-10
1.5373e-10
1.56031e-10
1.73419e-10
3.1969e-10
7.84459e-13
9.00222e-11
9.13191e-11
9.03608e-11
9.02824e-11
9.0175e-11
9.04366e-11
9.04217e-11
9.2896e-11
1.07788e-10
2.22518e-10
6.22611e-13
5.87563e-11
5.97731e-11
5.93183e-11
5.90875e-11
5.8947e-11
5.93559e-11
5.91105e-11
6.10733e-11
7.32012e-11
1.66287e-10
1.05081e-12
4.09285e-11
4.11255e-11
4.08867e-11
4.10189e-11
4.07979e-11
4.09258e-11
4.14227e-11
4.3178e-11
5.26115e-11
1.30338e-10
5.02628e-12
3.0012e-11
3.0437e-11
3.0341e-11
3.03473e-11
2.9959e-11
3.03691e-11
3.06856e-11
3.16312e-11
3.91139e-11
1.05127e-10
1.43844e-11
2.27333e-11
2.26134e-11
2.26219e-11
2.25963e-11
2.29162e-11
2.26493e-11
2.28741e-11
2.37213e-11
3.13133e-11
8.63811e-11
2.13565e-11
1.78854e-11
1.79798e-11
1.79379e-11
1.81758e-11
1.80054e-11
1.8182e-11
1.89311e-11
2.54336e-11
7.20705e-11
2.35782e-11
1.41068e-11
1.43257e-11
1.42618e-11
1.44557e-11
1.43521e-11
1.45159e-11
1.53431e-11
2.1013e-11
6.10273e-11
2.4099e-11
1.16227e-11
1.16401e-11
1.155e-11
1.17181e-11
1.16637e-11
1.18037e-11
1.25607e-11
1.76412e-11
5.14917e-11
2.43521e-11
9.77497e-12
9.63242e-12
9.50082e-12
9.67856e-12
9.65446e-12
9.77737e-12
1.04734e-11
1.53343e-11
4.45266e-11
2.47929e-11
8.18768e-12
8.09554e-12
8.1105e-12
8.12705e-12
8.11911e-12
8.22883e-12
8.86862e-12
1.33197e-11
3.88847e-11
2.54618e-11
6.94012e-12
6.89205e-12
6.89108e-12
6.92049e-12
6.9213e-12
7.0203e-12
7.60603e-12
1.15867e-11
3.4079e-11
2.6224e-11
5.93086e-12
5.92856e-12
5.91332e-12
5.96321e-12
5.96799e-12
6.05786e-12
6.59044e-12
1.03036e-11
2.96609e-11
2.68795e-11
5.19457e-12
5.13925e-12
5.21112e-12
5.18906e-12
5.19439e-12
5.27622e-12
5.75361e-12
9.20238e-12
2.62868e-11
2.7226e-11
4.58885e-12
4.5589e-12
4.5677e-12
4.54974e-12
4.55474e-12
4.6294e-12
5.04533e-12
8.14616e-12
2.31731e-11
2.70985e-11
4.05716e-12
4.02985e-12
4.02624e-12
4.01186e-12
4.01629e-12
4.08462e-12
4.50426e-12
7.21909e-12
2.02595e-11
2.64232e-11
3.57822e-12
3.56518e-12
3.56172e-12
3.55128e-12
3.55525e-12
3.61759e-12
4.02537e-12
6.39803e-12
1.7655e-11
2.52273e-11
3.16403e-12
3.15982e-12
3.15647e-12
3.14988e-12
3.15361e-12
3.20992e-12
3.56879e-12
5.66358e-12
1.52707e-11
2.36172e-11
2.84169e-12
2.84217e-12
2.83855e-12
2.83527e-12
2.83866e-12
2.89028e-12
3.20797e-12
5.00407e-12
1.32625e-11
2.17414e-11
2.53801e-12
2.54076e-12
2.53674e-12
2.53624e-12
2.53978e-12
2.58673e-12
2.87297e-12
4.40877e-12
1.15072e-11
1.9736e-11
)
;

boundaryField
{
    fuel
    {
        type            fixedValue;
        value           uniform 0;
    }
    wall
    {
        type            zeroGradient;
    }
    outlet
    {
        type            zeroGradient;
    }
    frontAndBack
    {
        type            empty;
    }
    procBoundary3to0
    {
        type            processor;
        value           nonuniform List<scalar> 10(2.28948e-12 2.29322e-12 2.28901e-12 2.29041e-12 2.29383e-12 2.33633e-12 2.58815e-12 3.86724e-12 9.98464e-12 1.77716e-11);
    }
    procBoundary3to2
    {
        type            processor;
        value           nonuniform List<scalar> 
25
(
1.54316e-09
1.01807e-09
5.30417e-10
2.75544e-10
1.53422e-10
9.00992e-11
5.88299e-11
4.09648e-11
3.01015e-11
2.28875e-11
1.79123e-11
1.79123e-11
1.43414e-11
1.175e-11
9.6395e-12
8.20447e-12
7.00678e-12
5.99911e-12
5.18636e-12
4.59164e-12
4.05219e-12
3.57925e-12
3.16714e-12
2.84511e-12
2.54066e-12
)
;
    }
}


// ************************************************************************* //
