/*--------------------------------*- C++ -*----------------------------------*\
| =========                 |                                                 |
| \\      /  F ield         | OpenFOAM: The Open Source CFD Toolbox           |
|  \\    /   O peration     | Version:  dev                                   |
|   \\  /    A nd           | Web:      www.OpenFOAM.org                      |
|    \\/     M anipulation  |                                                 |
\*---------------------------------------------------------------------------*/
FoamFile
{
    version     2.0;
    format      ascii;
    class       volScalarField;
    location    "0.105";
    object      c-C6H4;
}
// * * * * * * * * * * * * * * * * * * * * * * * * * * * * * * * * * * * * * //

dimensions      [0 0 0 0 0 0 0];

internalField   nonuniform List<scalar> 
250
(
4.43669e-06
4.43474e-06
4.44149e-06
4.43796e-06
4.43684e-06
4.44174e-06
4.44058e-06
4.43993e-06
4.42689e-06
4.26704e-06
1.9192e-07
6.76722e-06
6.7643e-06
6.76859e-06
6.76871e-06
6.76809e-06
6.76956e-06
6.76918e-06
6.78262e-06
6.85625e-06
7.06662e-06
5.35949e-07
7.70631e-06
7.69897e-06
7.70853e-06
7.70867e-06
7.70796e-06
7.70996e-06
7.71046e-06
7.73722e-06
7.89935e-06
8.3638e-06
8.59609e-07
7.63909e-06
7.62265e-06
7.64292e-06
7.64267e-06
7.64143e-06
7.64475e-06
7.64515e-06
7.68239e-06
7.92044e-06
8.48114e-06
1.12483e-06
6.91579e-06
6.88504e-06
6.92226e-06
6.92119e-06
6.91903e-06
6.92417e-06
6.92284e-06
6.96621e-06
7.26151e-06
7.86311e-06
1.31473e-06
5.8641e-06
5.90137e-06
5.87888e-06
5.87491e-06
5.87048e-06
5.8808e-06
5.87645e-06
5.94981e-06
6.33891e-06
6.99167e-06
1.41208e-06
4.88219e-06
4.92891e-06
4.91106e-06
4.89932e-06
4.89123e-06
4.91231e-06
4.89839e-06
4.98016e-06
5.41244e-06
6.14315e-06
1.36538e-06
4.01777e-06
4.03183e-06
4.01747e-06
4.02322e-06
4.00784e-06
4.01942e-06
4.04829e-06
4.14001e-06
4.54879e-06
5.4271e-06
1.04801e-06
3.31285e-06
3.34608e-06
3.33808e-06
3.33763e-06
3.30807e-06
3.33973e-06
3.36126e-06
3.41108e-06
3.77867e-06
4.85894e-06
5.65961e-07
2.74855e-06
2.73805e-06
2.73746e-06
2.73503e-06
2.76275e-06
2.73938e-06
2.75652e-06
2.80655e-06
3.24381e-06
4.4102e-06
3.17704e-07
2.32783e-06
2.33512e-06
2.33113e-06
2.35316e-06
2.33709e-06
2.35141e-06
2.39831e-06
2.79191e-06
4.04427e-06
2.26229e-07
1.97675e-06
1.99659e-06
1.99017e-06
2.00912e-06
1.99882e-06
2.01293e-06
2.07194e-06
2.42849e-06
3.73607e-06
1.98628e-07
1.7357e-06
1.73662e-06
1.72723e-06
1.74439e-06
1.73879e-06
1.75131e-06
1.80799e-06
2.14007e-06
3.44104e-06
1.97491e-07
1.55014e-06
1.5352e-06
1.52121e-06
1.53996e-06
1.53742e-06
1.54884e-06
1.60331e-06
1.93751e-06
3.20133e-06
2.10469e-07
1.38506e-06
1.37529e-06
1.37638e-06
1.37872e-06
1.3779e-06
1.38852e-06
1.44071e-06
1.757e-06
2.98622e-06
2.34321e-07
1.24998e-06
1.24488e-06
1.24431e-06
1.2482e-06
1.24835e-06
1.25834e-06
1.30805e-06
1.59846e-06
2.7836e-06
2.6904e-07
1.13571e-06
1.13571e-06
1.13367e-06
1.13996e-06
1.14056e-06
1.15003e-06
1.19696e-06
1.4784e-06
2.57783e-06
3.16046e-07
1.04848e-06
1.04205e-06
1.05057e-06
1.04827e-06
1.04894e-06
1.05794e-06
1.1015e-06
1.37301e-06
2.40559e-06
3.76969e-07
9.7356e-07
9.70057e-07
9.71029e-07
9.6904e-07
9.69655e-07
9.7823e-07
1.01734e-06
1.26963e-06
2.23225e-06
4.51524e-07
9.05149e-07
9.01791e-07
9.01275e-07
8.9955e-07
9.00089e-07
9.08271e-07
9.50601e-07
1.17681e-06
2.05638e-06
5.37755e-07
8.41368e-07
8.39733e-07
8.39262e-07
8.37903e-07
8.38381e-07
8.46155e-07
8.8971e-07
1.0928e-06
1.88726e-06
6.31816e-07
7.84572e-07
7.84026e-07
7.83572e-07
7.82627e-07
7.83076e-07
7.90382e-07
8.30241e-07
1.01613e-06
1.72209e-06
7.28004e-07
7.39231e-07
7.39276e-07
7.3878e-07
7.38232e-07
7.38642e-07
7.4558e-07
7.82145e-07
9.45981e-07
1.57517e-06
8.19623e-07
6.95844e-07
6.96169e-07
6.95609e-07
6.95417e-07
6.95859e-07
7.02414e-07
7.36761e-07
8.81454e-07
1.44053e-06
8.99665e-07
)
;

boundaryField
{
    fuel
    {
        type            fixedValue;
        value           uniform 0;
    }
    wall
    {
        type            zeroGradient;
    }
    outlet
    {
        type            zeroGradient;
    }
    frontAndBack
    {
        type            empty;
    }
    procBoundary3to0
    {
        type            processor;
        value           nonuniform List<scalar> 10(6.59566e-07 6.60008e-07 6.59407e-07 6.59484e-07 6.59927e-07 6.66078e-07 6.97425e-07 8.21504e-07 1.31868e-06 9.61838e-07);
    }
    procBoundary3to2
    {
        type            processor;
        value           nonuniform List<scalar> 
25
(
4.43977e-06
6.76848e-06
7.7075e-06
7.64035e-06
6.91714e-06
5.86689e-06
4.88567e-06
4.01973e-06
3.31907e-06
2.76024e-06
2.33048e-06
2.33048e-06
1.99904e-06
1.7478e-06
1.53595e-06
1.38668e-06
1.25724e-06
1.14354e-06
1.04749e-06
9.7398e-07
9.04582e-07
8.41573e-07
7.85052e-07
7.39754e-07
6.96258e-07
)
;
    }
}


// ************************************************************************* //
