/*--------------------------------*- C++ -*----------------------------------*\
| =========                 |                                                 |
| \\      /  F ield         | OpenFOAM: The Open Source CFD Toolbox           |
|  \\    /   O peration     | Version:  dev                                   |
|   \\  /    A nd           | Web:      www.OpenFOAM.org                      |
|    \\/     M anipulation  |                                                 |
\*---------------------------------------------------------------------------*/
FoamFile
{
    version     2.0;
    format      ascii;
    class       volScalarField;
    location    "0.105";
    object      CH2CO;
}
// * * * * * * * * * * * * * * * * * * * * * * * * * * * * * * * * * * * * * //

dimensions      [0 0 0 0 0 0 0];

internalField   nonuniform List<scalar> 
250
(
0.0012918
0.00129173
0.00129176
0.00129179
0.00129172
0.00129191
0.00129207
0.00129519
0.00132988
0.00178469
0.000137835
0.000285857
0.000285837
0.000285854
0.000285832
0.000285847
0.00028585
0.000285942
0.000286631
0.000293524
0.000385038
0.000317631
0.000130775
0.000130777
0.000130783
0.000130765
0.000130778
0.000130774
0.000130843
0.000131197
0.000133988
0.000168961
0.000438362
8.68212e-05
8.68338e-05
8.68352e-05
8.68182e-05
8.68288e-05
8.68276e-05
8.6893e-05
8.72025e-05
8.92128e-05
0.000114956
0.00049101
6.6012e-05
6.60312e-05
6.60291e-05
6.60129e-05
6.60188e-05
6.60236e-05
6.6084e-05
6.63865e-05
6.82677e-05
9.1106e-05
0.000492072
5.40418e-05
5.4063e-05
5.40585e-05
5.40441e-05
5.40395e-05
5.40544e-05
5.4098e-05
5.43778e-05
5.52175e-05
7.60203e-05
0.000464763
4.6602e-05
4.66322e-05
4.66269e-05
4.6603e-05
4.6562e-05
4.66334e-05
4.673e-05
4.70438e-05
4.78494e-05
6.50249e-05
0.000428562
4.20414e-05
4.20709e-05
4.20647e-05
4.20398e-05
4.1923e-05
4.20747e-05
4.21597e-05
4.24439e-05
4.27691e-05
5.5863e-05
0.000393836
3.87312e-05
3.87603e-05
3.8753e-05
3.8722e-05
3.88344e-05
3.87717e-05
3.88702e-05
3.92383e-05
3.96297e-05
4.94473e-05
0.00035662
3.6291e-05
3.63173e-05
3.63097e-05
3.62731e-05
3.63238e-05
3.63368e-05
3.64399e-05
3.68105e-05
3.71619e-05
4.43825e-05
0.000304329
3.43934e-05
3.43852e-05
3.43419e-05
3.43442e-05
3.44232e-05
3.45343e-05
3.49161e-05
3.52198e-05
4.03387e-05
0.000240113
3.27707e-05
3.2761e-05
3.27116e-05
3.28869e-05
3.28145e-05
3.29343e-05
3.33342e-05
3.36151e-05
3.66112e-05
0.000178622
3.13351e-05
3.13221e-05
3.12663e-05
3.14718e-05
3.13939e-05
3.15251e-05
3.19457e-05
3.22244e-05
3.37187e-05
0.000128357
3.0025e-05
3.00043e-05
2.99401e-05
3.016e-05
3.01002e-05
3.02443e-05
3.06848e-05
3.0977e-05
3.17757e-05
9.08846e-05
2.88053e-05
2.87682e-05
2.88611e-05
2.89493e-05
2.88995e-05
2.90567e-05
2.95144e-05
2.98291e-05
3.02277e-05
6.46593e-05
2.76553e-05
2.77455e-05
2.77448e-05
2.78154e-05
2.77722e-05
2.79418e-05
2.84123e-05
2.875e-05
2.89986e-05
4.72353e-05
2.65597e-05
2.67252e-05
2.66696e-05
2.67454e-05
2.6706e-05
2.68865e-05
2.73651e-05
2.77024e-05
2.80095e-05
3.62105e-05
2.56477e-05
2.57023e-05
2.56492e-05
2.57307e-05
2.56926e-05
2.58822e-05
2.63637e-05
2.67523e-05
2.71172e-05
2.95526e-05
2.46758e-05
2.47302e-05
2.46759e-05
2.47641e-05
2.47255e-05
2.4922e-05
2.54013e-05
2.58865e-05
2.63914e-05
2.56916e-05
2.37464e-05
2.38016e-05
2.37439e-05
2.38386e-05
2.37986e-05
2.39997e-05
2.44705e-05
2.50177e-05
2.57086e-05
2.35322e-05
2.28523e-05
2.29084e-05
2.28469e-05
2.29469e-05
2.29052e-05
2.31087e-05
2.35635e-05
2.41612e-05
2.50819e-05
2.23881e-05
2.19846e-05
2.20417e-05
2.1977e-05
2.20806e-05
2.20372e-05
2.22412e-05
2.26695e-05
2.33208e-05
2.44648e-05
2.18366e-05
2.12389e-05
2.12968e-05
2.12292e-05
2.13356e-05
2.12912e-05
2.14933e-05
2.19004e-05
2.24895e-05
2.38429e-05
2.15978e-05
2.04592e-05
2.0523e-05
2.04488e-05
2.05646e-05
2.05154e-05
2.07243e-05
2.11524e-05
2.1758e-05
2.32099e-05
2.14789e-05
)
;

boundaryField
{
    fuel
    {
        type            fixedValue;
        value           uniform 0;
    }
    wall
    {
        type            zeroGradient;
    }
    outlet
    {
        type            zeroGradient;
    }
    frontAndBack
    {
        type            empty;
    }
    procBoundary3to0
    {
        type            processor;
        value           nonuniform List<scalar> 10(1.97531e-05 1.98182e-05 1.97416e-05 1.98594e-05 1.98093e-05 2.00154e-05 2.04237e-05 2.09751e-05 2.25571e-05 2.13457e-05);
    }
    procBoundary3to2
    {
        type            processor;
        value           nonuniform List<scalar> 
25
(
0.00129165
0.000285844
0.000130792
8.68555e-05
6.60577e-05
5.40907e-05
4.66579e-05
4.2095e-05
3.87829e-05
3.63372e-05
3.43698e-05
3.43698e-05
3.2749e-05
3.13152e-05
3.0006e-05
2.87859e-05
2.7633e-05
2.65325e-05
2.54724e-05
2.45728e-05
2.37196e-05
2.2911e-05
2.20382e-05
2.12876e-05
2.05058e-05
)
;
    }
}


// ************************************************************************* //
