/*--------------------------------*- C++ -*----------------------------------*\
| =========                 |                                                 |
| \\      /  F ield         | OpenFOAM: The Open Source CFD Toolbox           |
|  \\    /   O peration     | Version:  dev                                   |
|   \\  /    A nd           | Web:      www.OpenFOAM.org                      |
|    \\/     M anipulation  |                                                 |
\*---------------------------------------------------------------------------*/
FoamFile
{
    version     2.0;
    format      ascii;
    class       volScalarField;
    location    "0.105";
    object      CH2O;
}
// * * * * * * * * * * * * * * * * * * * * * * * * * * * * * * * * * * * * * //

dimensions      [0 0 0 0 0 0 0];

internalField   nonuniform List<scalar> 
250
(
0.00033483
0.000334816
0.00033482
0.000334826
0.000334814
0.000334846
0.000334871
0.000335412
0.000341522
0.000425366
6.57895e-05
8.92356e-05
8.92299e-05
8.92357e-05
8.92278e-05
8.92364e-05
8.92297e-05
8.92524e-05
8.93709e-05
9.05783e-05
0.000107047
0.000137391
3.33548e-05
3.33552e-05
3.33578e-05
3.33517e-05
3.33594e-05
3.33519e-05
3.33679e-05
3.34186e-05
3.37889e-05
3.99477e-05
0.000178141
1.6572e-05
1.65753e-05
1.65759e-05
1.65719e-05
1.6577e-05
1.65721e-05
1.65827e-05
1.6613e-05
1.6742e-05
1.9926e-05
0.000191053
1.0248e-05
1.02521e-05
1.02517e-05
1.02491e-05
1.02521e-05
1.02495e-05
1.02559e-05
1.02758e-05
1.03478e-05
1.2003e-05
0.000184947
7.44457e-06
7.44825e-06
7.44757e-06
7.44589e-06
7.44673e-06
7.44599e-06
7.44742e-06
7.45711e-06
7.29738e-06
8.13045e-06
0.000169278
6.02234e-06
6.02713e-06
6.02649e-06
6.02349e-06
6.01866e-06
6.02687e-06
6.03692e-06
6.04903e-06
5.89572e-06
5.98733e-06
0.000150905
5.26927e-06
5.2736e-06
5.27298e-06
5.27019e-06
5.25446e-06
5.27379e-06
5.28078e-06
5.28448e-06
5.06307e-06
4.60703e-06
0.000132017
4.78446e-06
4.78851e-06
4.78791e-06
4.78457e-06
4.80123e-06
4.78976e-06
4.79764e-06
4.80949e-06
4.60171e-06
3.81891e-06
0.000109554
4.46275e-06
4.46636e-06
4.46591e-06
4.46208e-06
4.46978e-06
4.46863e-06
4.47632e-06
4.48496e-06
4.27277e-06
3.29209e-06
8.16419e-05
4.23372e-06
4.2334e-06
4.22892e-06
4.2302e-06
4.23721e-06
4.24534e-06
4.25263e-06
4.03628e-06
2.92973e-06
5.35287e-05
4.04926e-06
4.04902e-06
4.04391e-06
4.06373e-06
4.0544e-06
4.06317e-06
4.07066e-06
3.8556e-06
2.649e-06
3.13691e-05
3.89178e-06
3.89143e-06
3.8856e-06
3.90821e-06
3.89868e-06
3.9085e-06
3.9172e-06
3.70844e-06
2.47256e-06
1.66557e-05
3.74987e-06
3.74899e-06
3.74209e-06
3.76626e-06
3.75869e-06
3.76983e-06
3.78033e-06
3.58202e-06
2.38342e-06
8.14396e-06
3.61709e-06
3.6147e-06
3.62426e-06
3.63478e-06
3.62813e-06
3.64073e-06
3.65331e-06
3.46843e-06
2.33825e-06
3.81862e-06
3.48956e-06
3.50116e-06
3.50021e-06
3.5094e-06
3.50324e-06
3.51735e-06
3.53211e-06
3.36223e-06
2.3242e-06
1.88585e-06
3.3645e-06
3.38463e-06
3.37734e-06
3.38765e-06
3.38167e-06
3.39726e-06
3.41416e-06
3.25792e-06
2.3303e-06
1.14276e-06
3.25604e-06
3.26357e-06
3.25628e-06
3.26778e-06
3.26172e-06
3.27875e-06
3.29764e-06
3.16093e-06
2.3488e-06
9.30241e-07
3.13538e-06
3.14333e-06
3.13555e-06
3.14837e-06
3.14202e-06
3.16041e-06
3.18111e-06
3.06893e-06
2.36957e-06
9.38748e-07
3.01398e-06
3.02244e-06
3.01388e-06
3.02807e-06
3.02132e-06
3.04098e-06
3.06308e-06
2.97168e-06
2.38824e-06
1.0384e-06
2.89038e-06
2.89941e-06
2.88994e-06
2.90546e-06
2.89825e-06
2.9191e-06
2.94196e-06
2.86976e-06
2.39866e-06
1.17654e-06
2.76278e-06
2.77249e-06
2.7621e-06
2.77885e-06
2.77115e-06
2.79314e-06
2.81569e-06
2.76281e-06
2.39773e-06
1.32832e-06
2.64514e-06
2.6555e-06
2.64421e-06
2.66214e-06
2.65402e-06
2.67685e-06
2.6997e-06
2.64928e-06
2.3828e-06
1.4772e-06
2.51376e-06
2.52572e-06
2.51278e-06
2.5331e-06
2.52393e-06
2.54918e-06
2.57931e-06
2.54141e-06
2.35229e-06
1.6094e-06
)
;

boundaryField
{
    fuel
    {
        type            fixedValue;
        value           uniform 0;
    }
    wall
    {
        type            zeroGradient;
    }
    outlet
    {
        type            zeroGradient;
    }
    frontAndBack
    {
        type            empty;
    }
    procBoundary3to0
    {
        type            processor;
        value           nonuniform List<scalar> 10(2.38596e-06 2.39881e-06 2.38489e-06 2.40645e-06 2.39681e-06 2.42297e-06 2.45401e-06 2.41763e-06 2.30423e-06 1.71152e-06);
    }
    procBoundary3to2
    {
        type            processor;
        value           nonuniform List<scalar> 
25
(
0.000334804
8.92346e-05
3.33631e-05
1.65834e-05
1.02592e-05
7.45408e-06
6.03171e-06
5.2774e-06
4.7917e-06
4.4689e-06
4.23043e-06
4.23043e-06
4.04616e-06
3.88877e-06
3.74681e-06
3.61377e-06
3.48572e-06
3.35994e-06
3.23426e-06
3.12239e-06
3.01057e-06
2.89833e-06
2.76999e-06
2.65174e-06
2.52025e-06
)
;
    }
}


// ************************************************************************* //
