/*--------------------------------*- C++ -*----------------------------------*\
| =========                 |                                                 |
| \\      /  F ield         | OpenFOAM: The Open Source CFD Toolbox           |
|  \\    /   O peration     | Version:  dev                                   |
|   \\  /    A nd           | Web:      www.OpenFOAM.org                      |
|    \\/     M anipulation  |                                                 |
\*---------------------------------------------------------------------------*/
FoamFile
{
    version     2.0;
    format      ascii;
    class       volScalarField;
    location    "0.105";
    object      i-A1C2H2;
}
// * * * * * * * * * * * * * * * * * * * * * * * * * * * * * * * * * * * * * //

dimensions      [0 0 0 0 0 0 0];

internalField   nonuniform List<scalar> 
50
(
3.06536e-23
2.90228e-23
2.73543e-23
2.56913e-23
2.40338e-23
2.24218e-23
2.08636e-23
1.93771e-23
1.79788e-23
1.66743e-23
1.54852e-23
1.44228e-23
1.35006e-23
1.27094e-23
1.20496e-23
1.1518e-23
1.11094e-23
1.08163e-23
1.06295e-23
1.05413e-23
1.0537e-23
1.06011e-23
1.07144e-23
1.08533e-23
1.09915e-23
1.10978e-23
1.11354e-23
1.10668e-23
1.08544e-23
1.04674e-23
9.88885e-24
9.12072e-24
8.18712e-24
7.13155e-24
6.02353e-24
4.93591e-24
3.92386e-24
3.03171e-24
2.28328e-24
1.68218e-24
1.21768e-24
8.70021e-25
6.16804e-25
4.35298e-25
3.05645e-25
2.11653e-25
1.41131e-25
8.63783e-26
4.44655e-26
1.41324e-26
)
;

boundaryField
{
    wall
    {
        type            zeroGradient;
    }
    fuel
    {
        type            fixedValue;
        value           nonuniform 0();
    }
    outlet
    {
        type            inletOutlet;
        inletValue      uniform 0;
        value           uniform 0;
    }
    procBoundary3to2
    {
        type            processor;
        value           uniform 3.22088e-23;
    }
}


// ************************************************************************* //
