/*--------------------------------*- C++ -*----------------------------------*\
| =========                 |                                                 |
| \\      /  F ield         | OpenFOAM: The Open Source CFD Toolbox           |
|  \\    /   O peration     | Version:  dev                                   |
|   \\  /    A nd           | Web:      www.OpenFOAM.org                      |
|    \\/     M anipulation  |                                                 |
\*---------------------------------------------------------------------------*/
FoamFile
{
    version     2.0;
    format      ascii;
    class       volScalarField;
    location    "0.105";
    object      naphthyne;
}
// * * * * * * * * * * * * * * * * * * * * * * * * * * * * * * * * * * * * * //

dimensions      [0 0 0 0 0 0 0];

internalField   nonuniform List<scalar> 
250
(
7.7165e-08
7.71673e-08
7.71685e-08
7.71612e-08
7.71637e-08
7.71645e-08
7.71912e-08
7.73592e-08
7.86863e-08
8.60984e-08
2.09554e-09
7.63497e-08
7.63523e-08
7.63555e-08
7.63425e-08
7.63452e-08
7.63537e-08
7.6413e-08
7.68598e-08
8.08585e-08
1.20941e-07
4.70654e-09
5.90577e-08
5.90644e-08
5.90668e-08
5.90495e-08
5.90528e-08
5.90644e-08
5.9146e-08
5.9742e-08
6.50342e-08
1.24578e-07
6.64278e-09
4.42638e-08
4.4276e-08
4.42764e-08
4.42569e-08
4.42592e-08
4.42737e-08
4.43678e-08
4.50448e-08
5.0984e-08
1.21542e-07
7.78728e-09
3.27747e-08
3.27914e-08
3.2789e-08
3.27698e-08
3.27672e-08
3.27866e-08
3.28795e-08
3.35815e-08
3.97891e-08
1.14969e-07
8.25498e-09
2.41319e-08
2.41501e-08
2.41452e-08
2.41285e-08
2.4113e-08
2.41428e-08
2.42172e-08
2.48859e-08
3.0143e-08
1.06171e-07
8.28775e-09
1.76737e-08
1.77001e-08
1.76941e-08
1.76704e-08
1.76141e-08
1.77002e-08
1.78178e-08
1.84777e-08
2.34173e-08
9.62865e-08
8.15572e-09
1.32211e-08
1.3246e-08
1.32388e-08
1.32174e-08
1.30808e-08
1.32463e-08
1.33422e-08
1.39178e-08
1.79438e-08
8.43978e-08
8.13742e-09
9.83219e-09
9.85476e-09
9.84659e-09
9.82404e-09
9.92749e-09
9.85928e-09
9.95509e-09
1.055e-08
1.42353e-08
7.36509e-08
8.27963e-09
7.44068e-09
7.45846e-09
7.45052e-09
7.42863e-09
7.46537e-09
7.46604e-09
7.54994e-09
8.06576e-09
1.12419e-08
6.31928e-08
8.50438e-09
5.79216e-09
5.7844e-09
5.76262e-09
5.74686e-09
5.80293e-09
5.87812e-09
6.32435e-09
8.9879e-09
5.33049e-08
8.67071e-09
4.61651e-09
4.60851e-09
4.58702e-09
4.677e-09
4.63164e-09
4.69963e-09
5.08916e-09
7.29891e-09
4.27699e-08
8.68347e-09
3.76854e-09
3.75944e-09
3.73746e-09
3.82754e-09
3.78719e-09
3.85065e-09
4.19445e-09
6.02002e-09
3.37449e-08
8.55484e-09
3.14024e-09
3.12833e-09
3.10357e-09
3.18702e-09
3.16189e-09
3.2224e-09
3.52854e-09
5.03861e-09
2.72492e-08
8.33422e-09
2.66131e-09
2.64302e-09
2.67651e-09
2.70242e-09
2.68592e-09
2.74411e-09
3.01838e-09
4.27106e-09
2.17898e-08
8.09073e-09
2.28634e-09
2.30619e-09
2.3092e-09
2.32526e-09
2.31431e-09
2.37026e-09
2.61688e-09
3.65937e-09
1.73373e-08
7.89291e-09
1.98525e-09
2.02197e-09
2.01117e-09
2.02547e-09
2.01806e-09
2.07154e-09
2.29369e-09
3.15638e-09
1.37935e-08
7.76265e-09
1.77017e-09
1.77918e-09
1.77043e-09
1.78349e-09
1.77819e-09
1.82889e-09
2.02906e-09
2.76576e-09
1.07771e-08
7.67213e-09
1.57398e-09
1.58151e-09
1.57383e-09
1.58609e-09
1.58199e-09
1.6296e-09
1.80987e-09
2.45869e-09
8.60718e-09
7.58176e-09
1.41321e-09
1.41964e-09
1.41255e-09
1.42408e-09
1.42069e-09
1.46497e-09
1.62692e-09
2.19635e-09
6.9091e-09
7.44283e-09
1.28144e-09
1.28689e-09
1.28031e-09
1.29093e-09
1.28803e-09
1.3288e-09
1.4736e-09
1.97792e-09
5.6788e-09
7.22877e-09
1.17383e-09
1.17831e-09
1.17239e-09
1.18177e-09
1.17935e-09
1.2165e-09
1.34483e-09
1.79806e-09
4.75718e-09
6.93931e-09
1.09726e-09
1.1008e-09
1.09556e-09
1.10368e-09
1.10176e-09
1.1356e-09
1.2512e-09
1.65029e-09
4.06639e-09
6.59897e-09
1.03395e-09
1.03678e-09
1.03215e-09
1.03924e-09
1.03762e-09
1.06879e-09
1.17645e-09
1.54351e-09
3.54897e-09
6.24384e-09
)
;

boundaryField
{
    fuel
    {
        type            fixedValue;
        value           uniform 0;
    }
    wall
    {
        type            zeroGradient;
    }
    outlet
    {
        type            zeroGradient;
    }
    frontAndBack
    {
        type            empty;
    }
    procBoundary3to0
    {
        type            processor;
        value           nonuniform List<scalar> 10(9.91268e-10 9.92988e-10 9.8935e-10 9.94797e-10 9.93819e-10 1.02186e-09 1.11923e-09 1.45316e-09 3.16276e-09 5.90723e-09);
    }
    procBoundary3to2
    {
        type            processor;
        value           nonuniform List<scalar> 
25
(
7.71726e-08
7.63611e-08
5.90793e-08
4.42972e-08
3.28173e-08
2.41783e-08
1.77276e-08
1.32722e-08
9.87823e-09
7.47669e-09
5.77866e-09
5.77866e-09
4.60662e-09
3.76153e-09
3.13535e-09
2.6578e-09
2.28353e-09
1.98311e-09
1.73691e-09
1.55676e-09
1.40938e-09
1.2896e-09
1.1808e-09
1.1032e-09
1.03911e-09
)
;
    }
}


// ************************************************************************* //
