/*--------------------------------*- C++ -*----------------------------------*\
| =========                 |                                                 |
| \\      /  F ield         | OpenFOAM: The Open Source CFD Toolbox           |
|  \\    /   O peration     | Version:  dev                                   |
|   \\  /    A nd           | Web:      www.OpenFOAM.org                      |
|    \\/     M anipulation  |                                                 |
\*---------------------------------------------------------------------------*/
FoamFile
{
    version     2.0;
    format      ascii;
    class       volScalarField;
    location    "0.105";
    object      P2;
}
// * * * * * * * * * * * * * * * * * * * * * * * * * * * * * * * * * * * * * //

dimensions      [0 0 0 0 0 0 0];

internalField   nonuniform List<scalar> 
250
(
8.55026e-08
8.55156e-08
8.54869e-08
8.55227e-08
8.55073e-08
8.54819e-08
8.55518e-08
8.59545e-08
8.88096e-08
1.07822e-07
3.87687e-09
6.97786e-08
6.97544e-08
6.97763e-08
6.97932e-08
6.97856e-08
6.97861e-08
6.98641e-08
7.04356e-08
7.4403e-08
1.03378e-07
8.85676e-09
4.71917e-08
4.71332e-08
4.71977e-08
4.72062e-08
4.71974e-08
4.7214e-08
4.72812e-08
4.78594e-08
5.18975e-08
8.3297e-08
1.23111e-08
2.96702e-08
2.95588e-08
2.96797e-08
2.96847e-08
2.96749e-08
2.96962e-08
2.97457e-08
3.02384e-08
3.38113e-08
6.35581e-08
1.4517e-08
1.81173e-08
1.79117e-08
1.81306e-08
1.81319e-08
1.81219e-08
1.81429e-08
1.81715e-08
1.85385e-08
2.14478e-08
4.7979e-08
1.58022e-08
1.06263e-08
1.07933e-08
1.06636e-08
1.06548e-08
1.06412e-08
1.06728e-08
1.06848e-08
1.10747e-08
1.3647e-08
3.68489e-08
1.63861e-08
6.47642e-09
6.61553e-09
6.54467e-09
6.51507e-09
6.49747e-09
6.54914e-09
6.52468e-09
6.83033e-09
8.91212e-09
2.91878e-08
1.62213e-08
4.04588e-09
4.0705e-09
4.02965e-09
4.04969e-09
4.02309e-09
4.03425e-09
4.10703e-09
4.36277e-09
5.91869e-09
2.39212e-08
1.47498e-08
2.62539e-09
2.67524e-09
2.6553e-09
2.65834e-09
2.61223e-09
2.65816e-09
2.70245e-09
2.83378e-09
3.97943e-09
2.02085e-08
1.14005e-08
1.76889e-09
1.7532e-09
1.74737e-09
1.74641e-09
1.77978e-09
1.74975e-09
1.77843e-09
1.88294e-09
2.92571e-09
1.74684e-08
9.46642e-09
1.26127e-09
1.26479e-09
1.26222e-09
1.28421e-09
1.26673e-09
1.28727e-09
1.37158e-09
2.20273e-09
1.53287e-08
1.03867e-08
9.18915e-10
9.335e-10
9.29219e-10
9.44875e-10
9.35306e-10
9.52214e-10
1.03502e-09
1.71427e-09
1.35727e-08
1.33732e-08
7.19919e-10
7.194e-10
7.13395e-10
7.25388e-10
7.20849e-10
7.3422e-10
8.04783e-10
1.37794e-09
1.19065e-08
1.76839e-08
5.86885e-10
5.76133e-10
5.67477e-10
5.79159e-10
5.77378e-10
5.88451e-10
6.49882e-10
1.16678e-09
1.05619e-08
2.25691e-08
4.82631e-10
4.75915e-10
4.76721e-10
4.77618e-10
4.77189e-10
4.86682e-10
5.40939e-10
9.9554e-10
9.35786e-09
2.72509e-08
4.06461e-10
4.02829e-10
4.02632e-10
4.04168e-10
4.04401e-10
4.12738e-10
4.61082e-10
8.56608e-10
8.22798e-09
3.09305e-08
3.48341e-10
3.4757e-10
3.46565e-10
3.49192e-10
3.49695e-10
3.57136e-10
4.00399e-10
7.58109e-10
7.09555e-09
3.31001e-08
3.08041e-10
3.0451e-10
3.08303e-10
3.06934e-10
3.07464e-10
3.14178e-10
3.52792e-10
6.76859e-10
6.17576e-09
3.35812e-08
2.76521e-10
2.74431e-10
2.74977e-10
2.73758e-10
2.74245e-10
2.80348e-10
3.14394e-10
6.01715e-10
5.29251e-09
3.24891e-08
2.50389e-10
2.48555e-10
2.48511e-10
2.47419e-10
2.47844e-10
2.53431e-10
2.86649e-10
5.38207e-10
4.4549e-09
3.01531e-08
2.28486e-10
2.27434e-10
2.27415e-10
2.26477e-10
2.26846e-10
2.31976e-10
2.63701e-10
4.84483e-10
3.71661e-09
2.69986e-08
2.11357e-10
2.10777e-10
2.10785e-10
2.10002e-10
2.10329e-10
2.15036e-10
2.43675e-10
4.39109e-10
3.06708e-09
2.34447e-08
1.99899e-10
1.99548e-10
1.99568e-10
1.98911e-10
1.99203e-10
2.03588e-10
2.29747e-10
4.013e-10
2.55089e-09
1.98445e-08
1.91409e-10
1.91146e-10
1.91182e-10
1.90615e-10
1.90891e-10
1.94971e-10
2.1907e-10
3.70374e-10
2.13034e-09
1.64602e-08
)
;

boundaryField
{
    fuel
    {
        type            fixedValue;
        value           uniform 0;
    }
    wall
    {
        type            zeroGradient;
    }
    outlet
    {
        type            zeroGradient;
    }
    frontAndBack
    {
        type            empty;
    }
    procBoundary3to0
    {
        type            processor;
        value           nonuniform List<scalar> 10(1.8695e-10 1.86684e-10 1.8675e-10 1.8622e-10 1.86481e-10 1.90299e-10 2.12473e-10 3.45746e-10 1.79569e-09 1.34881e-08);
    }
    procBoundary3to2
    {
        type            processor;
        value           nonuniform List<scalar> 
25
(
8.54848e-08
6.97792e-08
4.71954e-08
2.96732e-08
1.8118e-08
1.06322e-08
6.4822e-09
4.04657e-09
2.63214e-09
1.7804e-09
1.2646e-09
1.2646e-09
9.37427e-10
7.29546e-10
5.77906e-10
4.83628e-10
4.10429e-10
3.52304e-10
3.07785e-10
2.76859e-10
2.50377e-10
2.28784e-10
2.11766e-10
2.00324e-10
1.91801e-10
)
;
    }
}


// ************************************************************************* //
