/*--------------------------------*- C++ -*----------------------------------*\
| =========                 |                                                 |
| \\      /  F ield         | OpenFOAM: The Open Source CFD Toolbox           |
|  \\    /   O peration     | Version:  dev                                   |
|   \\  /    A nd           | Web:      www.OpenFOAM.org                      |
|    \\/     M anipulation  |                                                 |
\*---------------------------------------------------------------------------*/
FoamFile
{
    version     2.0;
    format      ascii;
    class       volVectorField;
    location    "0.105";
    object      U;
}
// * * * * * * * * * * * * * * * * * * * * * * * * * * * * * * * * * * * * * //

dimensions      [0 1 -1 0 0 0 0];

internalField   nonuniform List<vector> 
250
(
(0 0.00544444 0.488916)
(0 -0.00300688 0.488947)
(0 -0.0123783 0.489027)
(0 -0.0180085 0.489217)
(0 -0.0310605 0.48875)
(0 -0.0286879 0.489374)
(0 -0.0546364 0.4885)
(0 -0.0251408 0.489748)
(0 -0.106561 0.486493)
(0 0.0253177 0.473787)
(0 -0.123735 0.123217)
(0 0.00939461 0.687411)
(0 -0.00624709 0.687391)
(0 -0.0234933 0.687721)
(0 -0.0339234 0.687989)
(0 -0.0573065 0.687211)
(0 -0.054527 0.688203)
(0 -0.0992344 0.687064)
(0 -0.0520436 0.688448)
(0 -0.187058 0.684653)
(0 0.0417077 0.658099)
(0 -0.227235 0.156172)
(0 0.0126598 0.733615)
(0 -0.00988634 0.733555)
(0 -0.0348057 0.734016)
(0 -0.0499823 0.734376)
(0 -0.0828038 0.734137)
(0 -0.0808195 0.735471)
(0 -0.141401 0.734017)
(0 -0.0824924 0.735503)
(0 -0.257337 0.731999)
(0 0.0447046 0.679416)
(0 -0.288862 0.180258)
(0 0.0150231 0.727487)
(0 -0.013226 0.727357)
(0 -0.0447064 0.727911)
(0 -0.06404 0.728246)
(0 -0.108146 0.727833)
(0 -0.10781 0.729239)
(0 -0.182334 0.727938)
(0 -0.116014 0.728747)
(0 -0.3206 0.727741)
(0 0.0367041 0.651818)
(0 -0.338211 0.200695)
(0 0.0172382 0.721915)
(0 -0.0171765 0.721648)
(0 -0.0560881 0.722364)
(0 -0.0801426 0.72252)
(0 -0.133357 0.722166)
(0 -0.135388 0.723484)
(0 -0.22234 0.722715)
(0 -0.15196 0.722265)
(0 -0.378439 0.725447)
(0 0.0180163 0.626748)
(0 -0.383929 0.221589)
(0 0.0190518 0.720163)
(0 -0.0212327 0.719705)
(0 -0.067609 0.72064)
(0 -0.0963738 0.720566)
(0 -0.158396 0.720357)
(0 -0.163387 0.721447)
(0 -0.26153 0.721439)
(0 -0.189741 0.719432)
(0 -0.431947 0.727927)
(0 -0.00824725 0.610345)
(0 -0.429879 0.248768)
(0 0.0205085 0.718057)
(0 -0.025342 0.71739)
(0 -0.0792189 0.718569)
(0 -0.112674 0.71826)
(0 -0.183227 0.718405)
(0 -0.191651 0.719135)
(0 -0.299961 0.720019)
(0 -0.228878 0.716357)
(0 -0.481905 0.730974)
(0 -0.0412456 0.597733)
(0 -0.478793 0.2969)
(0 0.0216583 0.714539)
(0 -0.0294549 0.713663)
(0 -0.0908609 0.715102)
(0 -0.128981 0.714468)
(0 -0.207802 0.715044)
(0 -0.220037 0.715403)
(0 -0.337666 0.717256)
(0 -0.268982 0.711972)
(0 -0.528979 0.733226)
(0 -0.0812069 0.588391)
(0 -0.530906 0.389678)
(0 0.022551 0.709994)
(0 -0.0335341 0.708893)
(0 -0.102475 0.710613)
(0 -0.145229 0.709573)
(0 -0.232086 0.710593)
(0 -0.248434 0.710604)
(0 -0.374667 0.713474)
(0 -0.309734 0.706686)
(0 -0.573778 0.734775)
(0 -0.129089 0.583186)
(0 -0.582122 0.523756)
(0 0.0232414 0.704708)
(0 -0.0375484 0.703402)
(0 -0.114013 0.705415)
(0 -0.161368 0.703993)
(0 -0.256036 0.705458)
(0 -0.276733 0.705068)
(0 -0.410978 0.708972)
(0 -0.350863 0.700852)
(0 -0.616841 0.735676)
(0 -0.184406 0.5815)
(0 -0.627824 0.648415)
(0 -0.0414755 0.697284)
(0 -0.12543 0.699592)
(0 -0.177353 0.697788)
(0 -0.279611 0.699714)
(0 -0.304838 0.698894)
(0 -0.446601 0.703813)
(0 -0.392134 0.694573)
(0 -0.658575 0.735789)
(0 -0.24443 0.581647)
(0 -0.668963 0.729721)
(0 -0.0452948 0.690553)
(0 -0.136681 0.693153)
(0 -0.193139 0.690966)
(0 -0.302781 0.693357)
(0 -0.332663 0.692103)
(0 -0.481534 0.697994)
(0 -0.43334 0.687876)
(0 -0.699272 0.734964)
(0 -0.306714 0.582448)
(0 -0.708529 0.775486)
(0 -0.0489831 0.683215)
(0 -0.147725 0.686104)
(0 -0.208681 0.683538)
(0 -0.325516 0.686388)
(0 -0.360132 0.684705)
(0 -0.515766 0.691513)
(0 -0.4743 0.68077)
(0 -0.73916 0.733124)
(0 -0.369818 0.583394)
(0 -0.748748 0.801262)
(0 -0.0525258 0.67528)
(0 -0.158527 0.678443)
(0 -0.223939 0.675506)
(0 -0.347788 0.678805)
(0 -0.387176 0.676704)
(0 -0.549283 0.684364)
(0 -0.514857 0.673247)
(0 -0.778419 0.730241)
(0 -0.433009 0.584268)
(0 -0.790876 0.816832)
(0 -0.0559081 0.666758)
(0 -0.169054 0.670172)
(0 -0.238877 0.666871)
(0 -0.369575 0.67061)
(0 -0.413734 0.668105)
(0 -0.582066 0.676542)
(0 -0.554873 0.66529)
(0 -0.817195 0.726299)
(0 -0.495897 0.584898)
(0 -0.835538 0.826379)
(0 -0.0591166 0.65765)
(0 -0.17928 0.661289)
(0 -0.253461 0.657641)
(0 -0.390853 0.661805)
(0 -0.439756 0.65891)
(0 -0.614095 0.668047)
(0 -0.594232 0.656875)
(0 -0.855605 0.721299)
(0 -0.558244 0.585118)
(0 -0.882971 0.831568)
(0 -0.0621381 0.647959)
(0 -0.189183 0.651795)
(0 -0.267664 0.647818)
(0 -0.411603 0.652388)
(0 -0.465198 0.649118)
(0 -0.645347 0.658873)
(0 -0.632832 0.647974)
(0 -0.893732 0.715252)
(0 -0.619899 0.584778)
(0 -0.933162 0.833356)
(0 -0.0649638 0.637689)
(0 -0.198747 0.641696)
(0 -0.281459 0.637398)
(0 -0.431807 0.642354)
(0 -0.490023 0.638728)
(0 -0.675798 0.649018)
(0 -0.670591 0.638554)
(0 -0.931631 0.708156)
(0 -0.68076 0.583748)
(0 -0.985911 0.832295)
(0 -0.0675875 0.626831)
(0 -0.20796 0.630988)
(0 -0.294828 0.626358)
(0 -0.451453 0.631696)
(0 -0.514202 0.627735)
(0 -0.705426 0.638498)
(0 -0.707435 0.628562)
(0 -0.969338 0.700002)
(0 -0.740745 0.581907)
(0 -1.0409 0.828708)
(0 -0.0700055 0.615348)
(0 -0.216815 0.61964)
(0 -0.307755 0.614687)
(0 -0.470527 0.620406)
(0 -0.537714 0.616133)
(0 -0.734232 0.627264)
(0 -0.743313 0.618009)
(0 -1.00682 0.690787)
(0 -0.799776 0.579168)
(0 -1.09773 0.822817)
(0 -0.0722187 0.603224)
(0 -0.225314 0.607636)
(0 -0.320232 0.602384)
(0 -0.48902 0.608477)
(0 -0.560541 0.603915)
(0 -0.762242 0.615346)
(0 -0.778224 0.606824)
(0 -1.04395 0.680503)
(0 -0.857766 0.575479)
(0 -1.15596 0.814783)
(0 -0.0742305 0.590478)
(0 -0.233459 0.595002)
(0 -0.332253 0.589465)
(0 -0.506922 0.595922)
(0 -0.582672 0.591089)
(0 -0.789457 0.602755)
(0 -0.812156 0.594973)
(0 -1.08064 0.669149)
(0 -0.914616 0.570763)
(0 -1.21515 0.804703)
(0 -0.0760479 0.577112)
(0 -0.241255 0.581743)
(0 -0.343814 0.575927)
(0 -0.524222 0.582735)
(0 -0.604093 0.577655)
(0 -0.815866 0.589489)
(0 -0.845082 0.58244)
(0 -1.11678 0.65672)
(0 -0.970209 0.564845)
(0 -1.27485 0.792645)
(0 -0.0776804 0.563105)
(0 -0.248709 0.567839)
(0 -0.354914 0.561752)
(0 -0.540909 0.568902)
(0 -0.624791 0.563588)
(0 -0.841452 0.575531)
(0 -0.876971 0.5692)
(0 -1.15225 0.643207)
(0 -1.02441 0.557678)
(0 -1.33466 0.778722)
)
;

boundaryField
{
    fuel
    {
        type            fixedValue;
        value           uniform (0 0 0.1055);
    }
    wall
    {
        type            slip;
    }
    outlet
    {
        type            pressureInletOutletVelocity;
        value           nonuniform List<vector> 
24
(
(0 -0.123735 0.123217)
(0 -0.227235 0.156172)
(0 -0.288862 0.180258)
(0 -0.338211 0.200695)
(0 -0.383929 0.221589)
(0 -0.429879 0.248768)
(0 -0.478793 0.2969)
(0 -0.530906 0.389678)
(0 -0.582122 0.523756)
(0 -0.627824 0.648415)
(0 -0.668963 0.729721)
(0 -0.708529 0.775486)
(0 -0.748748 0.801262)
(0 -0.790876 0.816832)
(0 -0.835538 0.826379)
(0 -0.882971 0.831568)
(0 -0.933162 0.833356)
(0 -0.985911 0.832295)
(0 -1.0409 0.828708)
(0 -1.09773 0.822817)
(0 -1.15596 0.814783)
(0 -1.21515 0.804703)
(0 -1.27485 0.792645)
(0 -1.33466 0.778722)
)
;
    }
    frontAndBack
    {
        type            empty;
    }
    procBoundary3to0
    {
        type            processor;
        value           nonuniform List<vector> 10((0 -0.0791396 0.548458) (0 -0.25583 0.553294) (0 -0.365552 0.546944) (0 -0.55697 0.554422) (0 -0.644752 0.548892) (0 -0.866189 0.560888) (0 -0.907789 0.555229) (0 -1.18695 0.628641) (0 -1.07707 0.549343) (0 -1.39419 0.763259));
    }
    procBoundary3to2
    {
        type            processor;
        value           nonuniform List<vector> 
25
(
(0 0.0126087 0.489087)
(0 0.0226673 0.68772)
(0 0.0320049 0.73403)
(0 0.0396924 0.727951)
(0 0.0481371 0.722403)
(0 0.0564386 0.720654)
(0 0.0646411 0.718544)
(0 0.0728063 0.715005)
(0 0.0809765 0.710422)
(0 0.0891764 0.705139)
(0 0.0237857 0.698747)
(0 0.0237857 0.698747)
(0 0.0242391 0.692207)
(0 0.0246593 0.685072)
(0 0.0250983 0.677291)
(0 0.0256032 0.668884)
(0 0.0262159 0.659871)
(0 0.0269686 0.650244)
(0 0.0278894 0.639989)
(0 0.0289919 0.629111)
(0 0.0302794 0.617577)
(0 0.0317485 0.60537)
(0 0.0333868 0.592521)
(0 0.0351732 0.579038)
(0 0.0370801 0.564904)
)
;
    }
}


// ************************************************************************* //
