/*--------------------------------*- C++ -*----------------------------------*\
| =========                 |                                                 |
| \\      /  F ield         | OpenFOAM: The Open Source CFD Toolbox           |
|  \\    /   O peration     | Version:  dev                                   |
|   \\  /    A nd           | Web:      www.OpenFOAM.org                      |
|    \\/     M anipulation  |                                                 |
\*---------------------------------------------------------------------------*/
FoamFile
{
    version     2.0;
    format      ascii;
    class       volVectorField;
    location    "0.105";
    object      U;
}
// * * * * * * * * * * * * * * * * * * * * * * * * * * * * * * * * * * * * * //

dimensions      [0 1 -1 0 0 0 0];

internalField   nonuniform List<vector> 
250
(
(0 -0.020603 0.516619)
(0 -0.0173691 0.51638)
(0 -0.038242 0.516648)
(0 -0.0526349 0.516289)
(0 -0.0626465 0.516668)
(0 -0.08085 0.516203)
(0 -0.0824668 0.516728)
(0 -0.106674 0.516353)
(0 -0.073054 0.514983)
(0 -0.128919 0.493728)
(0 -0.0316371 0.122596)
(0 -0.0374814 0.709857)
(0 -0.0330413 0.70985)
(0 -0.065295 0.710166)
(0 -0.0876547 0.709685)
(0 -0.102962 0.710444)
(0 -0.132898 0.70954)
(0 -0.1344 0.710521)
(0 -0.176418 0.710859)
(0 -0.114443 0.708552)
(0 -0.200314 0.686688)
(0 0.029389 0.144219)
(0 -0.0483116 0.736492)
(0 -0.0444119 0.736814)
(0 -0.0857953 0.73725)
(0 -0.114283 0.736997)
(0 -0.134833 0.738262)
(0 -0.174588 0.736857)
(0 -0.176396 0.738364)
(0 -0.233992 0.740312)
(0 -0.14637 0.736987)
(0 -0.255805 0.7301)
(0 0.108085 0.150897)
(0 -0.0541271 0.727458)
(0 -0.0517291 0.728372)
(0 -0.101158 0.728361)
(0 -0.136051 0.727659)
(0 -0.163112 0.72911)
(0 -0.211297 0.727473)
(0 -0.214477 0.729252)
(0 -0.285811 0.733872)
(0 -0.17604 0.729058)
(0 -0.306435 0.748851)
(0 0.160265 0.162247)
(0 -0.0578215 0.722544)
(0 -0.0578841 0.724308)
(0 -0.116021 0.72389)
(0 -0.155341 0.723161)
(0 -0.189741 0.72476)
(0 -0.244885 0.723113)
(0 -0.250888 0.724947)
(0 -0.334057 0.733165)
(0 -0.206604 0.726326)
(0 -0.35608 0.778358)
(0 0.185642 0.183179)
(0 -0.05936 0.720269)
(0 -0.0622796 0.723037)
(0 -0.129619 0.722163)
(0 -0.172616 0.721377)
(0 -0.215355 0.723057)
(0 -0.275902 0.72156)
(0 -0.286371 0.723255)
(0 -0.379363 0.735865)
(0 -0.239368 0.726481)
(0 -0.40629 0.813489)
(0 0.188798 0.213773)
(0 -0.05923 0.716944)
(0 -0.0652085 0.720882)
(0 -0.142128 0.719581)
(0 -0.188079 0.718797)
(0 -0.240163 0.72053)
(0 -0.304569 0.719311)
(0 -0.321183 0.720693)
(0 -0.421918 0.738323)
(0 -0.274885 0.725861)
(0 -0.457422 0.847898)
(0 0.17228 0.254504)
(0 -0.0578059 0.712242)
(0 -0.0669644 0.717347)
(0 -0.153729 0.715648)
(0 -0.201999 0.714867)
(0 -0.26427 0.716647)
(0 -0.331103 0.715819)
(0 -0.355464 0.716739)
(0 -0.46189 0.739848)
(0 -0.313385 0.723776)
(0 -0.509015 0.878147)
(0 0.135149 0.306075)
(0 -0.0553929 0.706705)
(0 -0.0678276 0.712896)
(0 -0.164576 0.710848)
(0 -0.214677 0.710032)
(0 -0.287746 0.711863)
(0 -0.35579 0.711527)
(0 -0.389333 0.711859)
(0 -0.49951 0.740751)
(0 -0.354898 0.720549)
(0 -0.56083 0.90308)
(0 0.0738546 0.364611)
(0 -0.0522343 0.700609)
(0 -0.0680642 0.707794)
(0 -0.174796 0.705464)
(0 -0.226418 0.70456)
(0 -0.310633 0.706486)
(0 -0.378966 0.706692)
(0 -0.422896 0.706345)
(0 -0.535066 0.741161)
(0 -0.399281 0.716384)
(0 -0.612344 0.921913)
(0 -0.0146934 0.423494)
(0 -0.0679027 0.702062)
(0 -0.184496 0.699533)
(0 -0.237509 0.698478)
(0 -0.332958 0.700579)
(0 -0.400999 0.701329)
(0 -0.456246 0.700245)
(0 -0.568896 0.740976)
(0 -0.446245 0.711319)
(0 -0.663184 0.93473)
(0 -0.114059 0.47446)
(0 -0.0675424 0.695681)
(0 -0.193763 0.693042)
(0 -0.248217 0.691769)
(0 -0.354739 0.694139)
(0 -0.422264 0.6954)
(0 -0.489468 0.693563)
(0 -0.601366 0.740065)
(0 -0.495448 0.705371)
(0 -0.712799 0.942605)
(0 -0.214669 0.51439)
(0 -0.0671499 0.688642)
(0 -0.202676 0.685987)
(0 -0.258753 0.684429)
(0 -0.376015 0.687168)
(0 -0.443112 0.688875)
(0 -0.522636 0.686328)
(0 -0.632849 0.738315)
(0 -0.546528 0.698587)
(0 -0.761219 0.946655)
(0 -0.321361 0.547124)
(0 -0.0668518 0.680944)
(0 -0.211302 0.678365)
(0 -0.269287 0.676459)
(0 -0.396827 0.679667)
(0 -0.463851 0.681731)
(0 -0.555682 0.678545)
(0 -0.663822 0.735654)
(0 -0.5991 0.691012)
(0 -0.808639 0.947456)
(0 -0.432021 0.573558)
(0 -0.0667499 0.672587)
(0 -0.219702 0.67017)
(0 -0.279946 0.667859)
(0 -0.417208 0.671625)
(0 -0.484719 0.673944)
(0 -0.588519 0.670218)
(0 -0.694718 0.732013)
(0 -0.652757 0.682687)
(0 -0.855373 0.945203)
(0 -0.544616 0.594094)
(0 -0.0669146 0.663568)
(0 -0.227926 0.661392)
(0 -0.29082 0.658633)
(0 -0.437187 0.663025)
(0 -0.50588 0.665496)
(0 -0.621067 0.66134)
(0 -0.725876 0.727331)
(0 -0.707093 0.673656)
(0 -0.901767 0.940164)
(0 -0.657237 0.609048)
(0 -0.0673885 0.653891)
(0 -0.236015 0.652022)
(0 -0.301959 0.648776)
(0 -0.456786 0.653848)
(0 -0.527412 0.656371)
(0 -0.653264 0.651895)
(0 -0.757504 0.721561)
(0 -0.761748 0.663983)
(0 -0.948159 0.932761)
(0 -0.768297 0.618888)
(0 -0.0681893 0.643552)
(0 -0.243999 0.642043)
(0 -0.313372 0.638283)
(0 -0.476022 0.644075)
(0 -0.549328 0.646557)
(0 -0.68505 0.641861)
(0 -0.789664 0.714658)
(0 -0.816434 0.653718)
(0 -0.994838 0.923081)
(0 -0.87655 0.624177)
(0 -0.0693132 0.632541)
(0 -0.2519 0.631439)
(0 -0.325039 0.627151)
(0 -0.494904 0.633686)
(0 -0.571578 0.636041)
(0 -0.716377 0.631217)
(0 -0.822246 0.706592)
(0 -0.870942 0.642834)
(0 -1.04199 0.911239)
(0 -0.981069 0.625506)
(0 -0.0707377 0.620852)
(0 -0.259726 0.620195)
(0 -0.336912 0.615374)
(0 -0.513433 0.622658)
(0 -0.594064 0.624812)
(0 -0.747191 0.619943)
(0 -0.854979 0.69741)
(0 -0.925165 0.631201)
(0 -1.08972 0.897663)
(0 -1.08117 0.623468)
(0 -0.0724278 0.608488)
(0 -0.267477 0.608301)
(0 -0.348925 0.602953)
(0 -0.5316 0.610976)
(0 -0.616671 0.612865)
(0 -0.777427 0.608029)
(0 -0.887827 0.686978)
(0 -0.978715 0.618906)
(0 -1.13799 0.882598)
(0 -1.17638 0.618636)
(0 -0.0743406 0.595465)
(0 -0.275141 0.595766)
(0 -0.360996 0.589907)
(0 -0.54939 0.598645)
(0 -0.639277 0.600217)
(0 -0.80701 0.595479)
(0 -0.920669 0.675347)
(0 -1.03122 0.605899)
(0 -1.18669 0.866189)
(0 -1.2664 0.611539)
(0 -0.0764251 0.581796)
(0 -0.282701 0.582584)
(0 -0.373037 0.576234)
(0 -0.566775 0.585653)
(0 -0.661752 0.586866)
(0 -0.835862 0.582282)
(0 -0.953325 0.662559)
(0 -1.0823 0.592108)
(0 -1.23566 0.84862)
(0 -1.35111 0.602643)
(0 -0.0786294 0.567469)
(0 -0.290128 0.568742)
(0 -0.384954 0.561927)
(0 -0.583719 0.57198)
(0 -0.683949 0.572806)
(0 -0.863905 0.56842)
(0 -0.985575 0.648625)
(0 -1.13165 0.577487)
(0 -1.28458 0.829995)
(0 -1.43053 0.592322)
)
;

boundaryField
{
    fuel
    {
        type            fixedValue;
        value           uniform (0 0 0.1055);
    }
    wall
    {
        type            slip;
    }
    outlet
    {
        type            pressureInletOutletVelocity;
        value           nonuniform List<vector> 
24
(
(0 -0.0316371 0.122596)
(0 0.029389 0)
(0 0.108085 0)
(0 0.160265 0)
(0 0.185642 0)
(0 0.188798 0)
(0 0.17228 0)
(0 0.135149 0)
(0 0.0738546 0)
(0 -0.0146934 0.423494)
(0 -0.114059 0.47446)
(0 -0.214669 0.51439)
(0 -0.321361 0.547124)
(0 -0.432021 0.573558)
(0 -0.544616 0.594094)
(0 -0.657237 0.609048)
(0 -0.768297 0.618888)
(0 -0.87655 0.624177)
(0 -0.981069 0.625506)
(0 -1.08117 0.623468)
(0 -1.17638 0.618636)
(0 -1.2664 0.611539)
(0 -1.35111 0.602643)
(0 -1.43053 0.592322)
)
;
    }
    frontAndBack
    {
        type            empty;
    }
    procBoundary3to0
    {
        type            processor;
        value           nonuniform List<vector> 10((0 -0.0808972 0.552494) (0 -0.297393 0.554242) (0 -0.396655 0.546996) (0 -0.600181 0.557623) (0 -0.70573 0.558047) (0 -0.891059 0.553886) (0 -1.01719 0.633547) (0 -1.17905 0.562024) (0 -1.33306 0.81036) (0 -1.50476 0.580891));
    }
    procBoundary3to2
    {
        type            processor;
        value           nonuniform List<vector> 
25
(
(0 0.0269259 0.516662)
(0 0.036322 0.711037)
(0 0.0441842 0.739296)
(0 0.0512134 0.732284)
(0 0.0598178 0.729873)
(0 0.0692235 0.730247)
(0 0.0793905 0.729754)
(0 0.0901614 0.727765)
(0 0.101335 0.724656)
(0 0.112718 0.720715)
(0 -0.0485252 0.694015)
(0 -0.0485252 0.694015)
(0 -0.044426 0.686858)
(0 -0.0400765 0.6792)
(0 -0.0355949 0.671042)
(0 -0.0310812 0.662323)
(0 -0.0266192 0.653053)
(0 -0.0222783 0.643224)
(0 -0.0181126 0.632834)
(0 -0.0141608 0.621882)
(0 -0.0104483 0.610351)
(0 -0.00698716 0.598206)
(0 -0.00378082 0.585434)
(0 -0.000817377 0.572039)
(0 0.00191573 0.558007)
)
;
    }
}


// ************************************************************************* //
