/*--------------------------------*- C++ -*----------------------------------*\
| =========                 |                                                 |
| \\      /  F ield         | OpenFOAM: The Open Source CFD Toolbox           |
|  \\    /   O peration     | Version:  dev                                   |
|   \\  /    A nd           | Web:      www.OpenFOAM.org                      |
|    \\/     M anipulation  |                                                 |
\*---------------------------------------------------------------------------*/
FoamFile
{
    version     2.0;
    format      ascii;
    class       volScalarField;
    location    "0.165";
    object      A1C2H;
}
// * * * * * * * * * * * * * * * * * * * * * * * * * * * * * * * * * * * * * //

dimensions      [0 0 0 0 0 0 0];

internalField   nonuniform List<scalar> 
250
(
4.898e-07
4.89673e-07
4.90387e-07
4.89935e-07
4.90351e-07
4.976e-07
5.34926e-07
7.19894e-07
1.85867e-06
5.46175e-06
4.81328e-07
4.81115e-07
4.81786e-07
4.81324e-07
4.81734e-07
4.88441e-07
5.22912e-07
6.90204e-07
1.66703e-06
4.75057e-06
1.83543e-06
1.16119e-06
6.27137e-07
5.19097e-07
4.87107e-07
4.80112e-07
4.79406e-07
4.796e-07
4.78644e-07
4.79069e-07
4.78625e-07
4.78324e-07
4.78975e-07
4.78452e-07
4.78866e-07
4.85056e-07
5.16914e-07
6.67898e-07
1.49808e-06
4.16429e-06
1.70933e-06
1.06093e-06
6.18424e-07
5.18015e-07
4.89128e-07
4.82713e-07
4.81937e-07
4.82563e-07
4.81289e-07
4.82157e-07
4.81681e-07
4.81296e-07
4.81942e-07
4.81316e-07
4.81746e-07
4.8744e-07
5.16865e-07
6.52865e-07
1.35682e-06
3.63337e-06
1.60875e-06
9.93437e-07
6.16872e-07
5.22789e-07
4.96924e-07
4.9101e-07
4.90142e-07
4.91257e-07
4.89628e-07
4.90965e-07
4.90435e-07
4.89981e-07
4.90623e-07
4.89867e-07
4.90322e-07
4.95539e-07
5.22715e-07
6.45068e-07
1.2402e-06
3.16349e-06
1.53218e-06
9.50773e-07
6.22038e-07
5.33292e-07
5.1032e-07
5.04828e-07
5.03852e-07
5.05475e-07
5.03477e-07
5.05287e-07
5.04689e-07
5.04195e-07
5.04819e-07
5.03923e-07
5.04411e-07
5.09176e-07
5.34286e-07
6.44178e-07
1.15519e-06
2.75829e-06
1.47661e-06
9.24178e-07
6.3325e-07
5.49184e-07
5.28908e-07
5.2376e-07
5.22667e-07
5.24775e-07
5.22425e-07
5.24678e-07
5.24008e-07
5.23521e-07
5.24093e-07
5.23065e-07
5.23596e-07
5.27945e-07
5.51168e-07
6.49625e-07
1.08486e-06
2.39656e-06
1.43806e-06
9.10673e-07
6.49536e-07
5.69832e-07
5.51935e-07
5.47083e-07
5.45878e-07
5.48397e-07
5.45745e-07
5.48377e-07
5.47639e-07
5.47218e-07
5.47687e-07
5.46561e-07
5.47142e-07
5.51138e-07
5.72629e-07
6.60563e-07
1.03342e-06
2.10985e-06
1.41189e-06
9.07021e-07
6.70468e-07
5.94244e-07
5.79038e-07
5.74917e-07
5.73608e-07
5.76523e-07
5.73527e-07
5.76531e-07
5.75674e-07
5.74163e-07
5.75721e-07
5.7445e-07
5.75041e-07
5.78857e-07
5.97541e-07
6.75778e-07
9.94809e-07
1.86239e-06
1.39314e-06
9.09915e-07
6.94115e-07
6.20933e-07
6.07332e-07
6.03536e-07
6.02155e-07
6.05223e-07
6.02112e-07
6.05264e-07
6.04376e-07
6.02856e-07
6.04406e-07
6.03131e-07
6.03771e-07
6.07396e-07
6.24419e-07
6.94819e-07
9.66303e-07
1.67032e-06
1.37686e-06
9.16049e-07
7.16794e-07
6.48166e-07
6.35779e-07
6.32251e-07
6.3083e-07
6.33886e-07
6.30795e-07
6.33942e-07
6.3306e-07
6.31599e-07
6.33082e-07
6.31862e-07
6.32545e-07
6.36017e-07
6.51541e-07
7.13985e-07
9.4502e-07
1.51049e-06
1.35855e-06
9.22407e-07
7.37804e-07
6.74182e-07
6.62668e-07
6.59385e-07
6.57959e-07
6.60853e-07
6.57908e-07
6.60908e-07
6.60066e-07
6.58711e-07
6.60087e-07
6.58974e-07
6.59689e-07
6.63032e-07
6.77186e-07
7.32394e-07
9.28373e-07
1.38475e-06
1.33497e-06
9.26489e-07
7.5565e-07
6.97394e-07
6.86633e-07
6.8354e-07
6.82144e-07
6.84767e-07
6.82064e-07
6.84811e-07
6.84034e-07
6.82815e-07
6.84055e-07
6.83087e-07
6.83815e-07
6.87033e-07
6.99917e-07
7.48557e-07
9.14185e-07
1.28248e-06
7.04135e-07
7.03064e-07
7.04154e-07
7.03348e-07
7.0407e-07
7.0714e-07
7.18823e-07
7.61493e-07
9.00916e-07
1.19831e-06
)
;

boundaryField
{
    fuel
    {
        type            fixedValue;
        value           nonuniform 0();
    }
    wall
    {
        type            zeroGradient;
    }
    outlet
    {
        type            zeroGradient;
    }
    frontAndBack
    {
        type            empty;
    }
    procBoundary0to1
    {
        type            processor;
        value           nonuniform List<scalar> 
21
(
1.30396e-06
9.2658e-07
7.69423e-07
7.16855e-07
7.06715e-07
7.03847e-07
7.02511e-07
7.04805e-07
7.02398e-07
7.04836e-07
7.04836e-07
7.20139e-07
7.19211e-07
7.20151e-07
7.19506e-07
7.20202e-07
7.23087e-07
7.33618e-07
7.70852e-07
8.87754e-07
1.12833e-06
)
;
    }
    procBoundary0to2
    {
        type            processor;
        value           nonuniform List<scalar> 
12
(
4.90262e-07
1.98554e-06
1.28306e-06
6.43259e-07
5.2605e-07
4.9091e-07
4.83251e-07
4.82591e-07
4.82432e-07
4.81745e-07
4.81766e-07
4.81766e-07
)
;
    }
    procBoundary0to3
    {
        type            processor;
        value           nonuniform List<scalar> 10(5.04072e-07 5.04021e-07 5.04811e-07 5.04307e-07 5.04742e-07 5.12565e-07 5.52898e-07 7.61399e-07 2.07062e-06 6.10358e-06);
    }
}


// ************************************************************************* //
