/*--------------------------------*- C++ -*----------------------------------*\
| =========                 |                                                 |
| \\      /  F ield         | OpenFOAM: The Open Source CFD Toolbox           |
|  \\    /   O peration     | Version:  dev                                   |
|   \\  /    A nd           | Web:      www.OpenFOAM.org                      |
|    \\/     M anipulation  |                                                 |
\*---------------------------------------------------------------------------*/
FoamFile
{
    version     2.0;
    format      ascii;
    class       volScalarField;
    location    "0.165";
    object      A2C2HB*;
}
// * * * * * * * * * * * * * * * * * * * * * * * * * * * * * * * * * * * * * //

dimensions      [0 0 0 0 0 0 0];

internalField   nonuniform List<scalar> 
250
(
2.23026e-12
2.25112e-12
2.23815e-12
2.26957e-12
2.25959e-12
2.33961e-12
2.59335e-12
3.32914e-12
6.8699e-12
8.34897e-12
2.01865e-12
2.03803e-12
2.02498e-12
2.05479e-12
2.04567e-12
2.11838e-12
2.34442e-12
3.00172e-12
6.03919e-12
8.5169e-12
1.62164e-11
7.23163e-12
3.03039e-12
2.07018e-12
1.89134e-12
1.8505e-12
1.84876e-12
1.84488e-12
1.84195e-12
1.84003e-12
1.83484e-12
1.85251e-12
1.83995e-12
1.86753e-12
1.85942e-12
1.92458e-12
2.1252e-12
2.71173e-12
5.335e-12
8.53707e-12
1.40226e-11
6.11681e-12
2.69196e-12
1.88144e-12
1.72645e-12
1.69053e-12
1.68862e-12
1.68465e-12
1.68261e-12
1.68099e-12
1.67598e-12
1.69178e-12
1.68013e-12
1.70502e-12
1.69805e-12
1.75593e-12
1.93237e-12
2.45433e-12
4.78526e-12
8.41849e-12
1.19862e-11
5.13282e-12
2.39359e-12
1.7173e-12
1.58426e-12
1.55284e-12
1.55085e-12
1.547e-12
1.54558e-12
1.54423e-12
1.53954e-12
1.55339e-12
1.54292e-12
1.5649e-12
1.5591e-12
1.61002e-12
1.76365e-12
2.22574e-12
4.30274e-12
8.16894e-12
1.01311e-11
4.35313e-12
2.13254e-12
1.57496e-12
1.46197e-12
1.43461e-12
1.4326e-12
1.42897e-12
1.42798e-12
1.42685e-12
1.42256e-12
1.43453e-12
1.42533e-12
1.44448e-12
1.43975e-12
1.48401e-12
1.61675e-12
2.02264e-12
3.87209e-12
7.79593e-12
8.28786e-12
3.63813e-12
1.90433e-12
1.45049e-12
1.35572e-12
1.33178e-12
1.32982e-12
1.32639e-12
1.32573e-12
1.32474e-12
1.32082e-12
1.33128e-12
1.32311e-12
1.33995e-12
1.33598e-12
1.37429e-12
1.48808e-12
1.84139e-12
3.47812e-12
7.3076e-12
6.77727e-12
3.05268e-12
1.70311e-12
1.33819e-12
1.25996e-12
1.23855e-12
1.23671e-12
1.23333e-12
1.23298e-12
1.23204e-12
1.22835e-12
1.23792e-12
1.23025e-12
1.2458e-12
1.24201e-12
1.27553e-12
1.37174e-12
1.66667e-12
3.10899e-12
6.71435e-12
5.38915e-12
2.54947e-12
1.52127e-12
1.23068e-12
1.16431e-12
1.14751e-12
1.14586e-12
1.14232e-12
1.14232e-12
1.1413e-12
1.13763e-12
1.14717e-12
1.13922e-12
1.15301e-12
1.15038e-12
1.17832e-12
1.26177e-12
1.50929e-12
2.75603e-12
6.03054e-12
4.24695e-12
2.10036e-12
1.34257e-12
1.1202e-12
1.06604e-12
1.05097e-12
1.04958e-12
1.04564e-12
1.04609e-12
1.04486e-12
1.04099e-12
1.05133e-12
1.04234e-12
1.05678e-12
1.05342e-12
1.07864e-12
1.14987e-12
1.34387e-12
2.41169e-12
5.27649e-12
3.27874e-12
1.71965e-12
1.17309e-12
1.00068e-12
9.56788e-13
9.43156e-13
9.42084e-13
9.37645e-13
9.38586e-13
9.37079e-13
9.32889e-13
9.44532e-13
9.34036e-13
9.49743e-13
9.453e-13
9.68514e-13
1.02952e-12
1.18113e-12
2.07222e-12
4.48014e-12
2.48529e-12
1.38367e-12
1.00246e-12
8.70015e-13
8.34814e-13
8.22473e-13
8.21755e-13
8.16883e-13
8.18282e-13
8.16523e-13
8.12036e-13
8.24961e-13
8.13003e-13
8.29946e-13
8.24363e-13
8.45848e-13
8.97925e-13
1.01154e-12
1.73768e-12
3.67666e-12
1.84459e-12
1.08899e-12
8.31845e-13
7.31178e-13
7.03396e-13
6.92388e-13
6.92017e-13
6.86961e-13
6.88693e-13
6.86785e-13
6.82185e-13
6.95813e-13
6.82982e-13
7.00469e-13
6.94028e-13
7.13597e-13
7.57401e-13
8.38635e-13
1.41358e-12
2.90527e-12
5.50876e-13
5.64293e-13
5.51508e-13
5.68466e-13
5.61687e-13
5.78907e-13
6.14756e-13
6.69887e-13
1.1098e-12
2.20324e-12
)
;

boundaryField
{
    fuel
    {
        type            fixedValue;
        value           nonuniform 0();
    }
    wall
    {
        type            zeroGradient;
    }
    outlet
    {
        type            zeroGradient;
    }
    frontAndBack
    {
        type            empty;
    }
    procBoundary0to1
    {
        type            processor;
        value           nonuniform List<scalar> 
21
(
1.33784e-12
8.34392e-13
6.66614e-13
5.91262e-13
5.69848e-13
5.60311e-13
5.60237e-13
5.55343e-13
5.57219e-13
5.55315e-13
5.55315e-13
4.26757e-13
4.39047e-13
4.27233e-13
4.4262e-13
4.36059e-13
4.50551e-13
4.78797e-13
5.14105e-13
8.37638e-13
1.59915e-12
)
;
    }
    procBoundary0to2
    {
        type            processor;
        value           nonuniform List<scalar> 
12
(
2.23523e-12
1.8544e-11
8.4906e-12
3.41108e-12
2.28595e-12
2.08137e-12
2.03522e-12
2.03374e-12
2.03025e-12
2.02608e-12
2.02383e-12
2.02383e-12
)
;
    }
    procBoundary0to3
    {
        type            processor;
        value           nonuniform List<scalar> 10(2.47335e-12 2.49546e-12 2.48323e-12 2.51548e-12 2.50484e-12 2.59199e-12 2.87575e-12 3.72435e-12 7.85451e-12 8.02579e-12);
    }
}


// ************************************************************************* //
