/*--------------------------------*- C++ -*----------------------------------*\
| =========                 |                                                 |
| \\      /  F ield         | OpenFOAM: The Open Source CFD Toolbox           |
|  \\    /   O peration     | Version:  dev                                   |
|   \\  /    A nd           | Web:      www.OpenFOAM.org                      |
|    \\/     M anipulation  |                                                 |
\*---------------------------------------------------------------------------*/
FoamFile
{
    version     2.0;
    format      ascii;
    class       volScalarField;
    location    "0.165";
    object      AC3H4;
}
// * * * * * * * * * * * * * * * * * * * * * * * * * * * * * * * * * * * * * //

dimensions      [0 0 0 0 0 0 0];

internalField   nonuniform List<scalar> 
50
(
1.46705e-05
5.81515e-06
2.32661e-06
1.03022e-06
5.14065e-07
2.86746e-07
1.72081e-07
1.07613e-07
6.88266e-08
4.42914e-08
2.84246e-08
1.82165e-08
1.16596e-08
7.4573e-09
4.79433e-09
3.08501e-09
1.99437e-09
1.28758e-09
8.31898e-10
5.40472e-10
3.50309e-10
2.26118e-10
1.45422e-10
9.36821e-11
5.98652e-11
3.8195e-11
2.42414e-11
1.52478e-11
9.53791e-12
5.97857e-12
3.71652e-12
2.29882e-12
1.41747e-12
8.71639e-13
5.34743e-13
3.27433e-13
2.00199e-13
1.22281e-13
7.46461e-14
4.55621e-14
2.78183e-14
1.69964e-14
1.03951e-14
6.36627e-15
3.90513e-15
2.39987e-15
1.47788e-15
9.1212e-16
5.64054e-16
3.48925e-16
)
;

boundaryField
{
    wall
    {
        type            zeroGradient;
    }
    fuel
    {
        type            fixedValue;
        value           uniform 0;
    }
    outlet
    {
        type            inletOutlet;
        inletValue      nonuniform 0();
        value           nonuniform 0();
    }
    procBoundary0to1
    {
        type            processor;
        value           uniform 2.16284e-16;
    }
}


// ************************************************************************* //
