/*--------------------------------*- C++ -*----------------------------------*\
| =========                 |                                                 |
| \\      /  F ield         | OpenFOAM: The Open Source CFD Toolbox           |
|  \\    /   O peration     | Version:  dev                                   |
|   \\  /    A nd           | Web:      www.OpenFOAM.org                      |
|    \\/     M anipulation  |                                                 |
\*---------------------------------------------------------------------------*/
FoamFile
{
    version     2.0;
    format      ascii;
    class       volScalarField;
    location    "0.165";
    object      C2O;
}
// * * * * * * * * * * * * * * * * * * * * * * * * * * * * * * * * * * * * * //

dimensions      [0 0 0 0 0 0 0];

internalField   nonuniform List<scalar> 
50
(
2.69194e-05
6.55892e-05
6.29564e-05
5.01216e-05
3.78443e-05
2.82615e-05
2.11798e-05
1.60597e-05
1.23766e-05
9.66263e-06
7.61438e-06
6.0544e-06
4.84714e-06
3.89981e-06
3.15589e-06
2.55899e-06
2.08029e-06
1.68902e-06
1.37039e-06
1.11331e-06
9.01852e-07
7.27831e-07
5.85448e-07
4.70656e-07
3.7631e-07
3.00252e-07
2.38663e-07
1.88635e-07
1.48554e-07
1.17022e-07
9.16979e-08
7.16157e-08
5.58026e-08
4.33895e-08
3.36742e-08
2.60914e-08
2.01882e-08
1.56031e-08
1.20489e-08
9.29873e-09
7.17361e-09
5.53329e-09
4.26818e-09
3.29297e-09
2.54145e-09
1.96238e-09
1.51617e-09
1.17217e-09
9.0663e-10
7.00958e-10
)
;

boundaryField
{
    wall
    {
        type            zeroGradient;
    }
    fuel
    {
        type            fixedValue;
        value           uniform 0;
    }
    outlet
    {
        type            inletOutlet;
        inletValue      nonuniform 0();
        value           nonuniform 0();
    }
    procBoundary0to1
    {
        type            processor;
        value           uniform 5.42901e-10;
    }
}


// ************************************************************************* //
