/*--------------------------------*- C++ -*----------------------------------*\
| =========                 |                                                 |
| \\      /  F ield         | OpenFOAM: The Open Source CFD Toolbox           |
|  \\    /   O peration     | Version:  dev                                   |
|   \\  /    A nd           | Web:      www.OpenFOAM.org                      |
|    \\/     M anipulation  |                                                 |
\*---------------------------------------------------------------------------*/
FoamFile
{
    version     2.0;
    format      ascii;
    class       volScalarField;
    location    "0.165";
    object      C6H5OH;
}
// * * * * * * * * * * * * * * * * * * * * * * * * * * * * * * * * * * * * * //

dimensions      [0 0 0 0 0 0 0];

internalField   nonuniform List<scalar> 
250
(
1.78582e-08
1.7884e-08
1.78841e-08
1.79296e-08
1.79227e-08
1.82135e-08
1.92284e-08
2.25359e-08
3.71667e-08
5.67149e-08
1.76132e-08
1.76258e-08
1.76351e-08
1.76632e-08
1.76648e-08
1.79266e-08
1.88622e-08
2.19813e-08
3.47831e-08
5.43799e-08
1.74094e-07
4.47957e-08
2.27604e-08
1.85969e-08
1.77209e-08
1.75486e-08
1.75398e-08
1.75528e-08
1.75263e-08
1.7539e-08
1.75361e-08
1.75337e-08
1.75546e-08
1.75621e-08
1.75737e-08
1.78041e-08
1.86635e-08
2.16168e-08
3.29509e-08
5.27345e-08
1.39567e-07
4.11238e-08
2.23521e-08
1.85993e-08
1.77868e-08
1.7633e-08
1.7623e-08
1.76397e-08
1.76135e-08
1.76288e-08
1.7629e-08
1.76101e-08
1.76446e-08
1.76289e-08
1.76518e-08
1.78507e-08
1.86337e-08
2.14392e-08
3.17399e-08
5.16395e-08
1.13973e-07
3.80733e-08
2.214e-08
1.87742e-08
1.80232e-08
1.7888e-08
1.78766e-08
1.78977e-08
1.78711e-08
1.7889e-08
1.78931e-08
1.78563e-08
1.7906e-08
1.78655e-08
1.79006e-08
1.80681e-08
1.87758e-08
2.14458e-08
3.09174e-08
5.09752e-08
9.49811e-08
3.58481e-08
2.21245e-08
1.91212e-08
1.84294e-08
1.83126e-08
1.82998e-08
1.83257e-08
1.82981e-08
1.83185e-08
1.83269e-08
1.82716e-08
1.83375e-08
1.82715e-08
1.83195e-08
1.84551e-08
1.90919e-08
2.16329e-08
3.04328e-08
5.0629e-08
7.93785e-08
3.39939e-08
2.23016e-08
1.96368e-08
1.90021e-08
1.8903e-08
1.88887e-08
1.89193e-08
1.88902e-08
1.89129e-08
1.89261e-08
1.88523e-08
1.89346e-08
1.88438e-08
1.89047e-08
1.9009e-08
1.95796e-08
2.19929e-08
3.02317e-08
5.04925e-08
6.8461e-08
3.26876e-08
2.26662e-08
2.03153e-08
1.97348e-08
1.96532e-08
1.96371e-08
1.96722e-08
1.96415e-08
1.96664e-08
1.96843e-08
1.95927e-08
1.96908e-08
1.95768e-08
1.96501e-08
1.97239e-08
2.02364e-08
2.25393e-08
3.02669e-08
5.04664e-08
5.97344e-08
3.1794e-08
2.32129e-08
2.11527e-08
2.06465e-08
2.05588e-08
2.05409e-08
2.05803e-08
2.05478e-08
2.05746e-08
2.05973e-08
2.04885e-08
2.0602e-08
2.04796e-08
2.05518e-08
2.06124e-08
2.10524e-08
2.32234e-08
3.05017e-08
5.04701e-08
5.3408e-08
3.12689e-08
2.39655e-08
2.21527e-08
2.16966e-08
2.16251e-08
2.16053e-08
2.1649e-08
2.16145e-08
2.16434e-08
2.16713e-08
2.15448e-08
2.16742e-08
2.15302e-08
2.16144e-08
2.16473e-08
2.20332e-08
2.41047e-08
3.09134e-08
5.04564e-08
4.86891e-08
3.11502e-08
2.49054e-08
2.33404e-08
2.2934e-08
2.28785e-08
2.28567e-08
2.29054e-08
2.28683e-08
2.28998e-08
2.29338e-08
2.27873e-08
2.29348e-08
2.27673e-08
2.28645e-08
2.28698e-08
2.32011e-08
2.51404e-08
3.15039e-08
5.04282e-08
4.53927e-08
3.14502e-08
2.61087e-08
2.47725e-08
2.44156e-08
2.43777e-08
2.43534e-08
2.44086e-08
2.43681e-08
2.44031e-08
2.4445e-08
2.42734e-08
2.44441e-08
2.42476e-08
2.43606e-08
2.43357e-08
2.46097e-08
2.64243e-08
3.2313e-08
5.04524e-08
4.33252e-08
3.22361e-08
2.76607e-08
2.65382e-08
2.62302e-08
2.62119e-08
2.61845e-08
2.62481e-08
2.6203e-08
2.62426e-08
2.62944e-08
2.6092e-08
2.62919e-08
2.60596e-08
2.61923e-08
2.61339e-08
2.63471e-08
2.80455e-08
3.34243e-08
5.06603e-08
2.85567e-08
2.83236e-08
2.85534e-08
2.82855e-08
2.84395e-08
2.83489e-08
2.85041e-08
3.00932e-08
3.49455e-08
5.12168e-08
)
;

boundaryField
{
    fuel
    {
        type            fixedValue;
        value           nonuniform 0();
    }
    wall
    {
        type            zeroGradient;
    }
    outlet
    {
        type            zeroGradient;
    }
    frontAndBack
    {
        type            empty;
    }
    procBoundary0to1
    {
        type            processor;
        value           nonuniform List<scalar> 
21
(
4.23999e-08
3.3577e-08
2.965e-08
2.87237e-08
2.84589e-08
2.84609e-08
2.84295e-08
2.85012e-08
2.84514e-08
2.84956e-08
2.84956e-08
3.1186e-08
3.09402e-08
3.11833e-08
3.0901e-08
3.10666e-08
3.09619e-08
3.10765e-08
3.25563e-08
3.69097e-08
5.20908e-08
)
;
    }
    procBoundary0to2
    {
        type            processor;
        value           nonuniform List<scalar> 
12
(
1.7865e-08
2.2185e-07
4.91561e-08
2.33624e-08
1.87654e-08
1.78243e-08
1.76337e-08
1.7626e-08
1.76362e-08
1.76084e-08
1.76184e-08
1.76184e-08
)
;
    }
    procBoundary0to3
    {
        type            processor;
        value           nonuniform List<scalar> 10(1.82707e-08 1.83073e-08 1.83013e-08 1.83601e-08 1.83466e-08 1.86634e-08 1.97596e-08 2.33333e-08 4.01767e-08 5.9959e-08);
    }
}


// ************************************************************************* //
