/*--------------------------------*- C++ -*----------------------------------*\
| =========                 |                                                 |
| \\      /  F ield         | OpenFOAM: The Open Source CFD Toolbox           |
|  \\    /   O peration     | Version:  dev                                   |
|   \\  /    A nd           | Web:      www.OpenFOAM.org                      |
|    \\/     M anipulation  |                                                 |
\*---------------------------------------------------------------------------*/
FoamFile
{
    version     2.0;
    format      ascii;
    class       volScalarField;
    location    "0.165";
    object      H;
}
// * * * * * * * * * * * * * * * * * * * * * * * * * * * * * * * * * * * * * //

dimensions      [0 0 0 0 0 0 0];

internalField   nonuniform List<scalar> 
250
(
2.11653e-05
2.11858e-05
2.11777e-05
2.12079e-05
2.1206e-05
2.11872e-05
2.09189e-05
1.93342e-05
1.41578e-05
8.14764e-06
2.02837e-05
2.0306e-05
2.02953e-05
2.03317e-05
2.0331e-05
2.03199e-05
2.00928e-05
1.86935e-05
1.39858e-05
8.10577e-06
1.08299e-05
1.58465e-05
1.85252e-05
1.95448e-05
1.94494e-05
1.94008e-05
1.94208e-05
1.93015e-05
1.93767e-05
1.92775e-05
1.92992e-05
1.93228e-05
1.93101e-05
1.93523e-05
1.93529e-05
1.93504e-05
1.91693e-05
1.79553e-05
1.37271e-05
8.1069e-06
1.11817e-05
1.54941e-05
1.76294e-05
1.85254e-05
1.83796e-05
1.83221e-05
1.83433e-05
1.82104e-05
1.82961e-05
1.8186e-05
1.82108e-05
1.82353e-05
1.82209e-05
1.82688e-05
1.82705e-05
1.82771e-05
1.81415e-05
1.71098e-05
1.33654e-05
8.12228e-06
1.13204e-05
1.49807e-05
1.66166e-05
1.73985e-05
1.72064e-05
1.71411e-05
1.71635e-05
1.70185e-05
1.7114e-05
1.69936e-05
1.70213e-05
1.70458e-05
1.70308e-05
1.70838e-05
1.70863e-05
1.71019e-05
1.70098e-05
1.61598e-05
1.28793e-05
8.12265e-06
1.1233e-05
1.43267e-05
1.54921e-05
1.61681e-05
1.59364e-05
1.58648e-05
1.58884e-05
1.57332e-05
1.58374e-05
1.5708e-05
1.57383e-05
1.57614e-05
1.57472e-05
1.58044e-05
1.58074e-05
1.58315e-05
1.57792e-05
1.5104e-05
1.23185e-05
8.0782e-06
1.09207e-05
1.35038e-05
1.42676e-05
1.48437e-05
1.4582e-05
1.4506e-05
1.45307e-05
1.43681e-05
1.44792e-05
1.43427e-05
1.43751e-05
1.43945e-05
1.43835e-05
1.44437e-05
1.44468e-05
1.44784e-05
1.446e-05
1.39492e-05
1.15961e-05
7.95129e-06
1.03977e-05
1.25308e-05
1.29627e-05
1.34414e-05
1.31621e-05
1.30842e-05
1.31097e-05
1.29432e-05
1.30588e-05
1.29179e-05
1.29517e-05
1.29636e-05
1.29598e-05
1.30213e-05
1.3024e-05
1.30616e-05
1.30686e-05
1.27099e-05
1.07858e-05
7.73077e-06
9.68932e-06
1.14295e-05
1.15492e-05
1.1984e-05
1.16603e-05
1.15629e-05
1.1589e-05
1.14183e-05
1.15415e-05
1.13949e-05
1.14326e-05
1.14931e-05
1.1439e-05
1.15045e-05
1.15088e-05
1.15468e-05
1.16275e-05
1.14087e-05
9.8658e-06
7.37599e-06
8.83075e-06
1.02311e-05
1.00776e-05
1.05024e-05
1.01789e-05
1.00837e-05
1.01097e-05
9.94307e-06
1.00654e-05
9.92069e-06
9.95829e-06
1.00145e-05
9.96434e-06
1.00281e-05
1.00317e-05
1.00717e-05
1.01681e-05
1.00024e-05
8.85656e-06
6.91475e-06
7.8646e-06
8.97513e-06
8.67417e-06
9.03118e-06
8.71783e-06
8.62805e-06
8.65354e-06
8.49502e-06
8.61343e-06
8.47411e-06
8.51058e-06
8.56219e-06
8.51607e-06
8.57678e-06
8.57949e-06
8.62005e-06
8.72475e-06
8.64836e-06
7.79017e-06
6.32094e-06
6.8321e-06
7.70291e-06
7.31028e-06
7.60808e-06
7.31367e-06
7.23231e-06
7.25665e-06
7.11016e-06
7.22149e-06
7.09114e-06
7.12547e-06
7.17195e-06
7.13024e-06
7.1865e-06
7.18823e-06
7.22789e-06
7.33382e-06
7.3221e-06
6.70195e-06
5.64934e-06
5.79046e-06
6.45793e-06
6.02387e-06
6.26858e-06
6.00337e-06
5.93117e-06
5.95373e-06
5.82247e-06
5.92399e-06
5.80568e-06
5.83698e-06
5.87792e-06
5.84098e-06
5.89158e-06
5.89239e-06
5.92972e-06
6.0308e-06
6.06141e-06
5.63047e-06
4.91582e-06
4.67354e-06
4.70868e-06
4.67676e-06
4.72083e-06
4.72087e-06
4.75477e-06
4.84636e-06
4.90039e-06
4.61345e-06
4.15819e-06
)
;

boundaryField
{
    fuel
    {
        type            fixedValue;
        value           nonuniform 0();
    }
    wall
    {
        type            zeroGradient;
    }
    outlet
    {
        type            zeroGradient;
    }
    frontAndBack
    {
        type            empty;
    }
    procBoundary0to1
    {
        type            processor;
        value           nonuniform List<scalar> 
21
(
4.78014e-06
5.28167e-06
4.84822e-06
5.04678e-06
4.8154e-06
4.7539e-06
4.77409e-06
4.66028e-06
4.74992e-06
4.64589e-06
4.64589e-06
3.65458e-06
3.68392e-06
3.65708e-06
3.69422e-06
3.69367e-06
3.72359e-06
3.80265e-06
3.86548e-06
3.68302e-06
3.41513e-06
)
;
    }
    procBoundary0to2
    {
        type            processor;
        value           nonuniform List<scalar> 
12
(
2.11498e-05
1.02944e-05
1.6002e-05
1.9304e-05
2.04571e-05
2.04139e-05
2.03751e-05
2.03939e-05
2.02889e-05
2.03534e-05
2.02652e-05
2.02652e-05
)
;
    }
    procBoundary0to3
    {
        type            processor;
        value           nonuniform List<scalar> 10(2.19474e-05 2.1966e-05 2.19607e-05 2.19848e-05 2.19815e-05 2.19566e-05 2.16456e-05 1.99511e-05 1.42708e-05 8.2364e-06);
    }
}


// ************************************************************************* //
