/*--------------------------------*- C++ -*----------------------------------*\
| =========                 |                                                 |
| \\      /  F ield         | OpenFOAM: The Open Source CFD Toolbox           |
|  \\    /   O peration     | Version:  dev                                   |
|   \\  /    A nd           | Web:      www.OpenFOAM.org                      |
|    \\/     M anipulation  |                                                 |
\*---------------------------------------------------------------------------*/
FoamFile
{
    version     2.0;
    format      ascii;
    class       volScalarField;
    location    "0.165";
    object      HO2;
}
// * * * * * * * * * * * * * * * * * * * * * * * * * * * * * * * * * * * * * //

dimensions      [0 0 0 0 0 0 0];

internalField   nonuniform List<scalar> 
250
(
3.09655e-11
3.10409e-11
3.10191e-11
3.1128e-11
3.11252e-11
3.11324e-11
3.06739e-11
3.82695e-11
7.37371e-10
3.03646e-08
2.76581e-11
2.77337e-11
2.77037e-11
2.78264e-11
2.78283e-11
2.7855e-11
2.75046e-11
3.27934e-11
5.2025e-10
1.92221e-08
3.73521e-10
3.35121e-11
2.32043e-11
2.54567e-11
2.4873e-11
2.4652e-11
2.47115e-11
2.43261e-11
2.45608e-11
2.42438e-11
2.43096e-11
2.43833e-11
2.43482e-11
2.448e-11
2.44857e-11
2.45312e-11
2.43009e-11
2.79505e-11
3.62278e-10
1.26466e-08
2.00698e-10
2.47836e-11
2.02955e-11
2.21738e-11
2.15255e-11
2.13062e-11
2.13629e-11
2.09758e-11
2.1218e-11
2.09007e-11
2.09695e-11
2.10388e-11
2.10018e-11
2.11379e-11
2.11462e-11
2.12078e-11
2.10861e-11
2.36153e-11
2.51539e-10
8.28613e-09
1.08395e-10
1.92592e-11
1.7392e-11
1.89122e-11
1.82336e-11
1.80218e-11
1.80757e-11
1.7698e-11
1.79401e-11
1.76301e-11
1.76996e-11
1.7762e-11
1.77263e-11
1.78617e-11
1.78713e-11
1.79449e-11
1.79142e-11
1.97284e-11
1.73312e-10
5.4033e-09
5.9581e-11
1.54865e-11
1.45476e-11
1.57412e-11
1.50682e-11
1.48701e-11
1.49205e-11
1.45637e-11
1.47977e-11
1.45034e-11
1.4571e-11
1.46238e-11
1.45929e-11
1.47226e-11
1.47322e-11
1.48126e-11
1.4851e-11
1.62279e-11
1.22795e-10
3.51499e-09
3.37812e-11
1.24503e-11
1.18334e-11
1.27381e-11
1.21057e-11
1.19271e-11
1.19734e-11
1.16482e-11
1.18658e-11
1.15957e-11
1.16589e-11
1.16991e-11
1.16767e-11
1.17959e-11
1.18044e-11
1.18861e-11
1.19688e-11
1.30738e-11
8.52177e-11
2.2261e-09
1.99793e-11
9.88363e-12
9.32953e-12
9.98165e-12
9.42149e-12
9.26803e-12
9.30907e-12
9.02452e-12
9.21859e-12
8.98002e-12
9.03653e-12
9.05878e-12
9.05108e-12
9.1554e-12
9.16196e-12
9.2398e-12
9.34002e-12
1.02736e-11
5.99155e-11
1.43277e-09
1.23989e-11
7.66349e-12
7.03172e-12
7.54289e-12
7.01974e-12
6.8679e-12
6.90304e-12
6.66082e-12
6.83271e-12
6.62665e-12
6.67882e-12
6.76178e-12
6.68855e-12
6.78082e-12
6.78821e-12
6.85237e-12
7.02745e-12
7.84509e-12
4.19976e-11
8.99927e-10
8.09058e-12
5.76161e-12
5.05317e-12
5.47547e-12
5.05293e-12
4.93266e-12
4.9615e-12
4.76817e-12
4.90806e-12
4.7416e-12
4.78422e-12
4.84783e-12
4.79167e-12
4.86528e-12
4.87045e-12
4.92397e-12
5.07946e-12
5.70912e-12
2.93752e-11
5.74753e-10
5.58783e-12
4.19072e-12
3.52259e-12
3.80509e-12
3.48152e-12
3.39187e-12
3.41449e-12
3.26813e-12
3.37604e-12
3.24847e-12
3.28139e-12
3.32812e-12
3.28675e-12
3.34257e-12
3.34578e-12
3.38803e-12
3.51571e-12
4.05015e-12
2.04622e-11
3.62163e-10
4.16656e-12
2.96293e-12
2.35056e-12
2.52663e-12
2.29242e-12
2.22984e-12
2.24668e-12
2.1421e-12
2.22063e-12
2.12835e-12
2.15231e-12
2.18498e-12
2.1559e-12
2.1959e-12
2.19763e-12
2.22897e-12
2.32632e-12
2.76433e-12
1.41832e-11
2.30601e-10
3.47984e-12
2.07382e-12
1.5091e-12
1.60438e-12
1.44619e-12
1.40446e-12
1.41639e-12
1.34604e-12
1.39981e-12
1.337e-12
1.35341e-12
1.37503e-12
1.35566e-12
1.38261e-12
1.38339e-12
1.40509e-12
1.47428e-12
1.81938e-12
9.76087e-12
1.46784e-10
8.23667e-13
8.37171e-13
8.24989e-13
8.42024e-13
8.4231e-13
8.56273e-13
9.02467e-13
1.16336e-12
6.64623e-12
9.29287e-11
)
;

boundaryField
{
    fuel
    {
        type            fixedValue;
        value           nonuniform 0();
    }
    wall
    {
        type            zeroGradient;
    }
    outlet
    {
        type            zeroGradient;
    }
    frontAndBack
    {
        type            empty;
    }
    procBoundary0to1
    {
        type            processor;
        value           nonuniform List<scalar> 
21
(
3.23549e-12
1.48149e-12
9.45698e-13
9.82245e-13
8.81299e-13
8.55193e-13
8.63159e-13
8.18684e-13
8.53246e-13
8.13105e-13
8.13105e-13
4.95476e-13
5.03461e-13
4.9621e-13
5.06359e-13
5.0645e-13
5.14844e-13
5.44187e-13
7.36125e-13
4.51015e-12
5.86855e-11
)
;
    }
    procBoundary0to2
    {
        type            processor;
        value           nonuniform List<scalar> 
12
(
3.09124e-11
7.26955e-10
4.73793e-11
2.60965e-11
2.87044e-11
2.82127e-11
2.79983e-11
2.80587e-11
2.76877e-11
2.79067e-11
2.75977e-11
2.75977e-11
)
;
    }
    procBoundary0to3
    {
        type            processor;
        value           nonuniform List<scalar> 10(3.41957e-11 3.4269e-11 3.42585e-11 3.43492e-11 3.43408e-11 3.43322e-11 3.3756e-11 4.5265e-11 1.02233e-09 4.54173e-08);
    }
}


// ************************************************************************* //
