/*--------------------------------*- C++ -*----------------------------------*\
| =========                 |                                                 |
| \\      /  F ield         | OpenFOAM: The Open Source CFD Toolbox           |
|  \\    /   O peration     | Version:  dev                                   |
|   \\  /    A nd           | Web:      www.OpenFOAM.org                      |
|    \\/     M anipulation  |                                                 |
\*---------------------------------------------------------------------------*/
FoamFile
{
    version     2.0;
    format      ascii;
    class       volScalarField;
    location    "0.165";
    object      i-A1C2H2;
}
// * * * * * * * * * * * * * * * * * * * * * * * * * * * * * * * * * * * * * //

dimensions      [0 0 0 0 0 0 0];

internalField   nonuniform List<scalar> 
250
(
1.10781e-11
1.10765e-11
1.10921e-11
1.10833e-11
1.10923e-11
1.12531e-11
1.20672e-11
1.60342e-11
4.03464e-11
1.77897e-10
1.08486e-11
1.08452e-11
1.08595e-11
1.0851e-11
1.08598e-11
1.10081e-11
1.17578e-11
1.53337e-11
3.59949e-11
1.36639e-10
3.88388e-11
2.51833e-11
1.39469e-11
1.16507e-11
1.09381e-11
1.07808e-11
1.07671e-11
1.07646e-11
1.07478e-11
1.07515e-11
1.0743e-11
1.07378e-11
1.07514e-11
1.07419e-11
1.07509e-11
1.08873e-11
1.1578e-11
1.47924e-11
3.21972e-11
1.09283e-10
3.58753e-11
2.29668e-11
1.36991e-11
1.15763e-11
1.09324e-11
1.07882e-11
1.07731e-11
1.0779e-11
1.07561e-11
1.07687e-11
1.07598e-11
1.07529e-11
1.07661e-11
1.07549e-11
1.07642e-11
1.08893e-11
1.15249e-11
1.44054e-11
2.90353e-11
8.87101e-11
3.35889e-11
2.14574e-11
1.36025e-11
1.16257e-11
1.10485e-11
1.09156e-11
1.08989e-11
1.09141e-11
1.08846e-11
1.09064e-11
1.08966e-11
1.08882e-11
1.09012e-11
1.08878e-11
1.08976e-11
1.10118e-11
1.15961e-11
1.41722e-11
2.64225e-11
7.30765e-11
3.18681e-11
2.0479e-11
1.36472e-11
1.17955e-11
1.1282e-11
1.1159e-11
1.11403e-11
1.11652e-11
1.11288e-11
1.11598e-11
1.11489e-11
1.11391e-11
1.1152e-11
1.11361e-11
1.11466e-11
1.12506e-11
1.17871e-11
1.4085e-11
2.45205e-11
6.11351e-11
3.06114e-11
1.98397e-11
1.38206e-11
1.20789e-11
1.16252e-11
1.15105e-11
1.14898e-11
1.15239e-11
1.14808e-11
1.15205e-11
1.15082e-11
1.14973e-11
1.15103e-11
1.1492e-11
1.15033e-11
1.15979e-11
1.20899e-11
1.4133e-11
2.29295e-11
5.14587e-11
2.9722e-11
1.94798e-11
1.41066e-11
1.24651e-11
1.2065e-11
1.1958e-11
1.19352e-11
1.19772e-11
1.19284e-11
1.19755e-11
1.1962e-11
1.19502e-11
1.19631e-11
1.1943e-11
1.19552e-11
1.20417e-11
1.24918e-11
1.43026e-11
2.17648e-11
4.43295e-11
2.91073e-11
1.93384e-11
1.44934e-11
1.29404e-11
1.25947e-11
1.2501e-11
1.24765e-11
1.25257e-11
1.24708e-11
1.2525e-11
1.25095e-11
1.24823e-11
1.25103e-11
1.2488e-11
1.25005e-11
1.25814e-11
1.29765e-11
1.45764e-11
2.08951e-11
3.85216e-11
2.86837e-11
1.9362e-11
1.4957e-11
1.34884e-11
1.31801e-11
1.30941e-11
1.30681e-11
1.31213e-11
1.30634e-11
1.31218e-11
1.31055e-11
1.30785e-11
1.31056e-11
1.3083e-11
1.30965e-11
1.31715e-11
1.35291e-11
1.49457e-11
2.02776e-11
3.42447e-11
2.83877e-11
1.95109e-11
1.54701e-11
1.41e-11
1.38241e-11
1.3746e-11
1.3719e-11
1.37751e-11
1.37147e-11
1.37766e-11
1.37595e-11
1.37326e-11
1.37592e-11
1.37364e-11
1.37508e-11
1.382e-11
1.4142e-11
1.53842e-11
1.98821e-11
3.087e-11
2.81864e-11
1.97695e-11
1.60575e-11
1.47839e-11
1.45382e-11
1.44693e-11
1.44411e-11
1.45007e-11
1.4437e-11
1.45034e-11
1.44851e-11
1.4458e-11
1.44844e-11
1.44611e-11
1.44762e-11
1.45391e-11
1.48263e-11
1.59116e-11
1.97015e-11
2.84307e-11
2.81069e-11
2.01603e-11
1.67641e-11
1.55802e-11
1.53706e-11
1.53119e-11
1.52823e-11
1.53486e-11
1.52781e-11
1.53529e-11
1.53323e-11
1.53036e-11
1.53308e-11
1.53058e-11
1.53214e-11
1.53762e-11
1.5628e-11
1.657e-11
1.9764e-11
2.67258e-11
1.6409e-11
1.63762e-11
1.64066e-11
1.63769e-11
1.63931e-11
1.64362e-11
1.66497e-11
1.74573e-11
2.01547e-11
2.57301e-11
)
;

boundaryField
{
    fuel
    {
        type            fixedValue;
        value           nonuniform 0();
    }
    wall
    {
        type            zeroGradient;
    }
    outlet
    {
        type            zeroGradient;
    }
    frontAndBack
    {
        type            empty;
    }
    procBoundary0to1
    {
        type            processor;
        value           nonuniform List<scalar> 
21
(
2.82416e-11
2.07642e-11
1.76945e-11
1.65877e-11
1.64236e-11
1.63796e-11
1.63472e-11
1.64276e-11
1.6343e-11
1.64344e-11
1.64344e-11
1.79151e-11
1.78738e-11
1.79113e-11
1.78721e-11
1.78891e-11
1.79153e-11
1.8084e-11
1.87598e-11
2.10465e-11
2.55287e-11
)
;
    }
    procBoundary0to2
    {
        type            processor;
        value           nonuniform List<scalar> 
12
(
1.10876e-11
4.25799e-11
2.78405e-11
1.43523e-11
1.18503e-11
1.10678e-11
1.08956e-11
1.08827e-11
1.08735e-11
1.08617e-11
1.08573e-11
1.08573e-11
)
;
    }
    procBoundary0to3
    {
        type            processor;
        value           nonuniform List<scalar> 10(1.14338e-11 1.14337e-11 1.14513e-11 1.14409e-11 1.14503e-11 1.16241e-11 1.25055e-11 1.70035e-11 4.52286e-11 2.27138e-10);
    }
}


// ************************************************************************* //
