/*--------------------------------*- C++ -*----------------------------------*\
| =========                 |                                                 |
| \\      /  F ield         | OpenFOAM: The Open Source CFD Toolbox           |
|  \\    /   O peration     | Version:  dev                                   |
|   \\  /    A nd           | Web:      www.OpenFOAM.org                      |
|    \\/     M anipulation  |                                                 |
\*---------------------------------------------------------------------------*/
FoamFile
{
    version     2.0;
    format      ascii;
    class       volScalarField;
    location    "0.165";
    object      i-C4H3;
}
// * * * * * * * * * * * * * * * * * * * * * * * * * * * * * * * * * * * * * //

dimensions      [0 0 0 0 0 0 0];

internalField   nonuniform List<scalar> 
250
(
4.16433e-07
4.16673e-07
4.169e-07
4.17105e-07
4.17263e-07
4.20428e-07
4.33179e-07
4.71959e-07
5.65239e-07
8.98594e-07
4.00429e-07
4.00651e-07
4.00814e-07
4.01098e-07
4.01267e-07
4.0422e-07
4.16075e-07
4.51917e-07
5.35412e-07
7.732e-07
5.45459e-07
5.17157e-07
4.3222e-07
4.07354e-07
3.91928e-07
3.88017e-07
3.8805e-07
3.86421e-07
3.87069e-07
3.85843e-07
3.8596e-07
3.86162e-07
3.86276e-07
3.86618e-07
3.868e-07
3.89545e-07
4.00595e-07
4.33415e-07
5.06934e-07
6.86003e-07
5.23637e-07
4.91105e-07
4.15988e-07
3.92835e-07
3.7851e-07
3.74859e-07
3.74892e-07
3.7327e-07
3.73936e-07
3.72754e-07
3.72905e-07
3.73082e-07
3.73163e-07
3.73544e-07
3.73741e-07
3.76284e-07
3.86532e-07
4.16296e-07
4.80594e-07
6.17826e-07
5.03396e-07
4.6856e-07
4.01026e-07
3.7959e-07
3.66404e-07
3.6299e-07
3.63022e-07
3.61429e-07
3.62103e-07
3.60966e-07
3.61145e-07
3.6129e-07
3.61354e-07
3.6176e-07
3.6197e-07
3.64321e-07
3.73775e-07
4.00644e-07
4.56058e-07
5.63984e-07
4.84204e-07
4.49019e-07
3.87277e-07
3.67528e-07
3.55499e-07
3.5231e-07
3.52339e-07
3.50794e-07
3.51466e-07
3.50377e-07
3.50576e-07
3.50672e-07
3.50745e-07
3.51165e-07
3.51386e-07
3.5355e-07
3.62222e-07
3.86336e-07
4.35795e-07
5.21024e-07
4.65784e-07
4.30774e-07
3.74723e-07
3.56573e-07
3.45716e-07
3.42746e-07
3.42772e-07
3.4129e-07
3.41949e-07
3.40914e-07
3.41122e-07
3.4114e-07
3.41261e-07
3.41684e-07
3.41911e-07
3.439e-07
3.51785e-07
3.73325e-07
4.16063e-07
4.84227e-07
4.48087e-07
4.13941e-07
3.6339e-07
3.46698e-07
3.37001e-07
3.34254e-07
3.34275e-07
3.32872e-07
3.33507e-07
3.32532e-07
3.32741e-07
3.32648e-07
3.32858e-07
3.33273e-07
3.33501e-07
3.35326e-07
3.42414e-07
3.61616e-07
3.99058e-07
4.55166e-07
4.31214e-07
3.98536e-07
3.52718e-07
3.37954e-07
3.28998e-07
3.26312e-07
3.2633e-07
3.24981e-07
3.25634e-07
3.24689e-07
3.24922e-07
3.25226e-07
3.25012e-07
3.25448e-07
3.25695e-07
3.27324e-07
3.34119e-07
3.51266e-07
3.83776e-07
4.29415e-07
4.1543e-07
3.84695e-07
3.43082e-07
3.30491e-07
3.22486e-07
3.20023e-07
3.20034e-07
3.1879e-07
3.19399e-07
3.18533e-07
3.18757e-07
3.19047e-07
3.18835e-07
3.19249e-07
3.19498e-07
3.20966e-07
3.27089e-07
3.41628e-07
3.70345e-07
4.08767e-07
4.01205e-07
3.72766e-07
3.35844e-07
3.24645e-07
3.1756e-07
3.15351e-07
3.15352e-07
3.14243e-07
3.14775e-07
3.14023e-07
3.14224e-07
3.14473e-07
3.14291e-07
3.14669e-07
3.14915e-07
3.16226e-07
3.21674e-07
3.34371e-07
3.59141e-07
3.91007e-07
3.89178e-07
3.63324e-07
3.31019e-07
3.21037e-07
3.14857e-07
3.12934e-07
3.12919e-07
3.11992e-07
3.12399e-07
3.11811e-07
3.11971e-07
3.12166e-07
3.12028e-07
3.12351e-07
3.12591e-07
3.13737e-07
3.18516e-07
3.29524e-07
3.50766e-07
3.77582e-07
3.80629e-07
3.57352e-07
3.29671e-07
3.20674e-07
3.15508e-07
3.13867e-07
3.13824e-07
3.13148e-07
3.13356e-07
3.13012e-07
3.13107e-07
3.13228e-07
3.13152e-07
3.13392e-07
3.13628e-07
3.14586e-07
3.18693e-07
3.28103e-07
3.46228e-07
3.68616e-07
3.19375e-07
3.19389e-07
3.19405e-07
3.19523e-07
3.19758e-07
3.2049e-07
3.23913e-07
3.31763e-07
3.47135e-07
3.65428e-07
)
;

boundaryField
{
    fuel
    {
        type            fixedValue;
        value           nonuniform 0();
    }
    wall
    {
        type            zeroGradient;
    }
    outlet
    {
        type            zeroGradient;
    }
    frontAndBack
    {
        type            empty;
    }
    procBoundary0to1
    {
        type            processor;
        value           nonuniform List<scalar> 
21
(
3.77134e-07
3.56406e-07
3.33522e-07
3.25266e-07
3.21191e-07
3.19878e-07
3.19789e-07
3.1946e-07
3.19365e-07
3.19378e-07
3.19378e-07
3.33446e-07
3.33311e-07
3.3346e-07
3.33403e-07
3.33647e-07
3.34103e-07
3.36808e-07
3.43074e-07
3.5599e-07
3.70283e-07
)
;
    }
    procBoundary0to2
    {
        type            processor;
        value           nonuniform List<scalar> 
12
(
4.16426e-07
5.69809e-07
5.42224e-07
4.49787e-07
4.23246e-07
4.06762e-07
4.02583e-07
4.02606e-07
4.0101e-07
4.0162e-07
4.0036e-07
4.0036e-07
)
;
    }
    procBoundary0to3
    {
        type            processor;
        value           nonuniform List<scalar> 10(4.3411e-07 4.34363e-07 4.34671e-07 4.34766e-07 4.34918e-07 4.38295e-07 4.51845e-07 4.9636e-07 5.9629e-07 1.04257e-06);
    }
}


// ************************************************************************* //
