/*--------------------------------*- C++ -*----------------------------------*\
| =========                 |                                                 |
| \\      /  F ield         | OpenFOAM: The Open Source CFD Toolbox           |
|  \\    /   O peration     | Version:  dev                                   |
|   \\  /    A nd           | Web:      www.OpenFOAM.org                      |
|    \\/     M anipulation  |                                                 |
\*---------------------------------------------------------------------------*/
FoamFile
{
    version     2.0;
    format      ascii;
    class       volScalarField;
    location    "0.165";
    object      i-C4H5;
}
// * * * * * * * * * * * * * * * * * * * * * * * * * * * * * * * * * * * * * //

dimensions      [0 0 0 0 0 0 0];

internalField   nonuniform List<scalar> 
250
(
7.41262e-11
7.45076e-11
7.42264e-11
7.482e-11
7.45781e-11
7.57214e-11
7.82595e-11
8.23675e-11
9.46384e-11
9.51736e-11
7.05678e-11
7.09481e-11
7.06531e-11
7.12491e-11
7.10118e-11
7.21062e-11
7.45044e-11
7.84564e-11
9.06063e-11
9.29661e-11
1.80952e-10
8.32847e-11
7.39019e-11
6.94277e-11
6.79913e-11
6.74815e-11
6.74751e-11
6.73895e-11
6.73535e-11
6.73136e-11
6.71951e-11
6.75721e-11
6.72677e-11
6.786e-11
6.76276e-11
6.8667e-11
7.09233e-11
7.46857e-11
8.64145e-11
9.09231e-11
1.42551e-10
7.81803e-11
7.02705e-11
6.61242e-11
6.4778e-11
6.42959e-11
6.42854e-11
6.41908e-11
6.41696e-11
6.41301e-11
6.40071e-11
6.43772e-11
6.40688e-11
6.46505e-11
6.44241e-11
6.54061e-11
6.75109e-11
7.10589e-11
8.25001e-11
8.86364e-11
1.17457e-10
7.34873e-11
6.6836e-11
6.30143e-11
6.17606e-11
6.13055e-11
6.12915e-11
6.11919e-11
6.11824e-11
6.11439e-11
6.10195e-11
6.13776e-11
6.10718e-11
6.16352e-11
6.14161e-11
6.23371e-11
6.4282e-11
6.76045e-11
7.85904e-11
8.59657e-11
1.00728e-10
6.96953e-11
6.36461e-11
6.01378e-11
5.89818e-11
5.85521e-11
5.85351e-11
5.84354e-11
5.84341e-11
5.83977e-11
5.82759e-11
5.86135e-11
5.83199e-11
5.8855e-11
5.86449e-11
5.94978e-11
6.12774e-11
6.43817e-11
7.47718e-11
8.29352e-11
8.82691e-11
6.61196e-11
6.07813e-11
5.75747e-11
5.65257e-11
5.61191e-11
5.60996e-11
5.60058e-11
5.60089e-11
5.59766e-11
5.58627e-11
5.61666e-11
5.58988e-11
5.6392e-11
5.61935e-11
5.69708e-11
5.85704e-11
6.14879e-11
7.11309e-11
7.96855e-11
8.03053e-11
6.33467e-11
5.83817e-11
5.54659e-11
5.45349e-11
5.41536e-11
5.41319e-11
5.40525e-11
5.40548e-11
5.40302e-11
5.39317e-11
5.41806e-11
5.39599e-11
5.43866e-11
5.42082e-11
5.48975e-11
5.62698e-11
5.88295e-11
6.7808e-11
7.64565e-11
7.4661e-11
6.13788e-11
5.66709e-11
5.40483e-11
5.31458e-11
5.29039e-11
5.28797e-11
5.28271e-11
5.28217e-11
5.28103e-11
5.27383e-11
5.28988e-11
5.27579e-11
5.30137e-11
5.29357e-11
5.34395e-11
5.4647e-11
5.70802e-11
6.50459e-11
7.35931e-11
7.15303e-11
6.0521e-11
5.59045e-11
5.37298e-11
5.29558e-11
5.27908e-11
5.27619e-11
5.27554e-11
5.27316e-11
5.27424e-11
5.27149e-11
5.27311e-11
5.27249e-11
5.27939e-11
5.27977e-11
5.31311e-11
5.40714e-11
5.62739e-11
6.31995e-11
7.15803e-11
7.08185e-11
6.1531e-11
5.69435e-11
5.52147e-11
5.46095e-11
5.45508e-11
5.45121e-11
5.45842e-11
5.45246e-11
5.45731e-11
5.46208e-11
5.43956e-11
5.46191e-11
5.43916e-11
5.4529e-11
5.46164e-11
5.52063e-11
5.73873e-11
6.28677e-11
7.11372e-11
7.3365e-11
6.55476e-11
6.09049e-11
5.9794e-11
5.94268e-11
5.95426e-11
5.94836e-11
5.96917e-11
5.95653e-11
5.96794e-11
5.98586e-11
5.92132e-11
5.98417e-11
5.91071e-11
5.94852e-11
5.91801e-11
5.92686e-11
6.15614e-11
6.50724e-11
7.3421e-11
8.09951e-11
7.48482e-11
7.00737e-11
6.99485e-11
6.99586e-11
7.03818e-11
7.02806e-11
7.07305e-11
7.04803e-11
7.07115e-11
7.11281e-11
6.97249e-11
7.10913e-11
6.94487e-11
7.02782e-11
6.93004e-11
6.86007e-11
7.11896e-11
7.17157e-11
8.04687e-11
9.3738e-11
9.09357e-11
9.36764e-11
9.03612e-11
9.20573e-11
8.98699e-11
8.78461e-11
9.10146e-11
8.65203e-11
9.61107e-11
)
;

boundaryField
{
    fuel
    {
        type            fixedValue;
        value           nonuniform 0();
    }
    wall
    {
        type            zeroGradient;
    }
    outlet
    {
        type            zeroGradient;
    }
    frontAndBack
    {
        type            empty;
    }
    procBoundary0to1
    {
        type            processor;
        value           nonuniform List<scalar> 
21
(
9.74449e-11
9.38865e-11
8.89305e-11
9.05659e-11
9.11968e-11
9.21986e-11
9.20056e-11
9.28948e-11
9.24127e-11
9.28593e-11
9.28593e-11
1.381e-10
1.32726e-10
1.38001e-10
1.31631e-10
1.34936e-10
1.30603e-10
1.26208e-10
1.3046e-10
1.16918e-10
1.27684e-10
)
;
    }
    procBoundary0to2
    {
        type            processor;
        value           nonuniform List<scalar> 
12
(
7.4231e-11
2.41478e-10
8.88762e-11
7.77142e-11
7.29103e-11
7.13889e-11
7.0849e-11
7.08472e-11
7.07747e-11
7.07204e-11
7.06799e-11
7.06799e-11
)
;
    }
    procBoundary0to3
    {
        type            processor;
        value           nonuniform List<scalar> 10(7.78894e-11 7.82683e-11 7.80079e-11 7.85886e-11 7.83464e-11 7.95277e-11 8.22024e-11 8.66954e-11 9.84158e-11 9.84353e-11);
    }
}


// ************************************************************************* //
