/*--------------------------------*- C++ -*----------------------------------*\
| =========                 |                                                 |
| \\      /  F ield         | OpenFOAM: The Open Source CFD Toolbox           |
|  \\    /   O peration     | Version:  dev                                   |
|   \\  /    A nd           | Web:      www.OpenFOAM.org                      |
|    \\/     M anipulation  |                                                 |
\*---------------------------------------------------------------------------*/
FoamFile
{
    version     2.0;
    format      ascii;
    class       volScalarField;
    location    "0.165";
    object      naphthyne;
}
// * * * * * * * * * * * * * * * * * * * * * * * * * * * * * * * * * * * * * //

dimensions      [0 0 0 0 0 0 0];

internalField   nonuniform List<scalar> 
250
(
1.0144e-09
1.01424e-09
1.0161e-09
1.01513e-09
1.01623e-09
1.03566e-09
1.13568e-09
1.64795e-09
5.17531e-09
1.59221e-08
9.84842e-10
9.84476e-10
9.86173e-10
9.8523e-10
9.86308e-10
1.00411e-09
1.09548e-09
1.55268e-09
4.52366e-09
1.39058e-08
5.07445e-09
2.95159e-09
1.36896e-09
1.08032e-09
9.93926e-10
9.75067e-10
9.73385e-10
9.72989e-10
9.71037e-10
9.71394e-10
9.70392e-10
9.69803e-10
9.71417e-10
9.70354e-10
9.71444e-10
9.87757e-10
1.07154e-09
1.47955e-09
3.95872e-09
1.21752e-08
4.63739e-09
2.62091e-09
1.3353e-09
1.06935e-09
9.91595e-10
9.7434e-10
9.7249e-10
9.73172e-10
9.70442e-10
9.71916e-10
9.70851e-10
9.70047e-10
9.71627e-10
9.70328e-10
9.71458e-10
9.86405e-10
1.06339e-09
1.42752e-09
3.49319e-09
1.05563e-08
4.28212e-09
2.39853e-09
1.32151e-09
1.07383e-09
1.00427e-09
9.88358e-10
9.86275e-10
9.88195e-10
9.84574e-10
9.87244e-10
9.86053e-10
9.85063e-10
9.86628e-10
9.85012e-10
9.86209e-10
9.99889e-10
1.07079e-09
1.39609e-09
3.11314e-09
9.08687e-09
4.00588e-09
2.25566e-09
1.3261e-09
1.0934e-09
1.0315e-09
1.0167e-09
1.01433e-09
1.01755e-09
1.01299e-09
1.01688e-09
1.01551e-09
1.0144e-09
1.01593e-09
1.01397e-09
1.01525e-09
1.02777e-09
1.09322e-09
1.38392e-09
2.8378e-09
7.79563e-09
3.79849e-09
2.16199e-09
1.34692e-09
1.12701e-09
1.07212e-09
1.05818e-09
1.05551e-09
1.05994e-09
1.05449e-09
1.05949e-09
1.05795e-09
1.05681e-09
1.05824e-09
1.05596e-09
1.05737e-09
1.06886e-09
1.12942e-09
1.38894e-09
2.60925e-09
6.62712e-09
3.64514e-09
2.1067e-09
1.38052e-09
1.17243e-09
1.12351e-09
1.11025e-09
1.1073e-09
1.11264e-09
1.10652e-09
1.11237e-09
1.11069e-09
1.10964e-09
1.11089e-09
1.10841e-09
1.10995e-09
1.12062e-09
1.17677e-09
1.408e-09
2.43909e-09
5.69222e-09
3.52789e-09
2.07796e-09
1.42345e-09
1.22563e-09
1.18276e-09
1.17102e-09
1.16785e-09
1.17379e-09
1.16712e-09
1.17354e-09
1.17167e-09
1.16832e-09
1.17187e-09
1.16921e-09
1.1708e-09
1.18112e-09
1.23073e-09
1.43619e-09
2.30538e-09
4.87873e-09
3.42718e-09
2.06323e-09
1.46756e-09
1.2802e-09
1.24034e-09
1.22907e-09
1.22582e-09
1.23146e-09
1.22504e-09
1.2312e-09
1.22943e-09
1.22625e-09
1.22961e-09
1.22721e-09
1.22894e-09
1.23896e-09
1.28477e-09
1.46856e-09
2.19685e-09
4.24137e-09
3.32375e-09
2.04953e-09
1.50113e-09
1.32827e-09
1.28987e-09
1.27882e-09
1.27566e-09
1.28023e-09
1.27471e-09
1.27989e-09
1.2784e-09
1.27567e-09
1.27859e-09
1.27672e-09
1.27856e-09
1.28845e-09
1.33105e-09
1.49382e-09
2.10201e-09
3.70299e-09
3.201e-09
2.02502e-09
1.51843e-09
1.36203e-09
1.32396e-09
1.31304e-09
1.31013e-09
1.31306e-09
1.30893e-09
1.31258e-09
1.31151e-09
1.30942e-09
1.31173e-09
1.3106e-09
1.3125e-09
1.32234e-09
1.36211e-09
1.50587e-09
2.0111e-09
3.26995e-09
3.05083e-09
1.98123e-09
1.51466e-09
1.37583e-09
1.3381e-09
1.32725e-09
1.32471e-09
1.32581e-09
1.32329e-09
1.32518e-09
1.32458e-09
1.32319e-09
1.32483e-09
1.3245e-09
1.32639e-09
1.33614e-09
1.37318e-09
1.4997e-09
1.91741e-09
2.90706e-09
1.31795e-09
1.31718e-09
1.3182e-09
1.31857e-09
1.32037e-09
1.32985e-09
1.36397e-09
1.47469e-09
1.81887e-09
2.59868e-09
)
;

boundaryField
{
    fuel
    {
        type            fixedValue;
        value           nonuniform 0();
    }
    wall
    {
        type            zeroGradient;
    }
    outlet
    {
        type            zeroGradient;
    }
    frontAndBack
    {
        type            empty;
    }
    procBoundary0to1
    {
        type            processor;
        value           nonuniform List<scalar> 
21
(
2.87226e-09
1.91533e-09
1.48986e-09
1.36889e-09
1.33193e-09
1.3215e-09
1.31935e-09
1.31887e-09
1.31781e-09
1.31814e-09
1.31814e-09
1.29652e-09
1.29616e-09
1.29675e-09
1.29757e-09
1.29923e-09
1.30818e-09
1.33903e-09
1.43506e-09
1.71823e-09
2.33571e-09
)
;
    }
    procBoundary0to2
    {
        type            processor;
        value           nonuniform List<scalar> 
12
(
1.01551e-09
5.58224e-09
3.35776e-09
1.42354e-09
1.10689e-09
1.01142e-09
9.90669e-10
9.89087e-10
9.87828e-10
9.86514e-10
9.85855e-10
9.85855e-10
)
;
    }
    procBoundary0to3
    {
        type            processor;
        value           nonuniform List<scalar> 10(1.05948e-09 1.05953e-09 1.06163e-09 1.06046e-09 1.06162e-09 1.08286e-09 1.19236e-09 1.78047e-09 5.90956e-09 1.76443e-08);
    }
}


// ************************************************************************* //
