/*--------------------------------*- C++ -*----------------------------------*\
| =========                 |                                                 |
| \\      /  F ield         | OpenFOAM: The Open Source CFD Toolbox           |
|  \\    /   O peration     | Version:  dev                                   |
|   \\  /    A nd           | Web:      www.OpenFOAM.org                      |
|    \\/     M anipulation  |                                                 |
\*---------------------------------------------------------------------------*/
FoamFile
{
    version     2.0;
    format      ascii;
    class       volScalarField;
    location    "0.03";
    object      A1C2H3;
}
// * * * * * * * * * * * * * * * * * * * * * * * * * * * * * * * * * * * * * //

dimensions      [0 0 0 0 0 0 0];

internalField   nonuniform List<scalar> 
250
(
6.66542e-08
6.67357e-08
6.67348e-08
6.66735e-08
6.67434e-08
6.66833e-08
6.69447e-08
6.72778e-08
7.14657e-08
1.13148e-07
5.71611e-07
3.44267e-08
3.44462e-08
3.44434e-08
3.44368e-08
3.44482e-08
3.44438e-08
3.45208e-08
3.47858e-08
3.7246e-08
6.24891e-08
1.31515e-06
2.01656e-08
2.0171e-08
2.01694e-08
2.01714e-08
2.01735e-08
2.01791e-08
2.0214e-08
2.04433e-08
2.23589e-08
4.41775e-08
1.77325e-06
1.30374e-08
1.30392e-08
1.30389e-08
1.30413e-08
1.30426e-08
1.30491e-08
1.30721e-08
1.32746e-08
1.49375e-08
3.68347e-08
2.07094e-06
8.90145e-09
8.90215e-09
8.9025e-09
8.90411e-09
8.9057e-09
8.91133e-09
8.92841e-09
9.09887e-09
1.05657e-08
3.29587e-08
2.30402e-06
6.28447e-09
6.28424e-09
6.28587e-09
6.2859e-09
6.28903e-09
6.29436e-09
6.31295e-09
6.5049e-09
7.93369e-09
3.10304e-08
2.52607e-06
4.72493e-09
4.72457e-09
4.72627e-09
4.72593e-09
4.72898e-09
4.73335e-09
4.74831e-09
4.91735e-09
6.26394e-09
2.99928e-08
2.77279e-06
3.61958e-09
3.61882e-09
3.62138e-09
3.62029e-09
3.62486e-09
3.63039e-09
3.65199e-09
3.85505e-09
5.08897e-09
2.92965e-08
3.07022e-06
2.89615e-09
2.89531e-09
2.8979e-09
2.89665e-09
2.90117e-09
2.90632e-09
2.92584e-09
3.07793e-09
4.19014e-09
2.86383e-08
3.39874e-06
2.31362e-09
2.31261e-09
2.31501e-09
2.31394e-09
2.31818e-09
2.32309e-09
2.34091e-09
2.47934e-09
3.60343e-09
2.76588e-08
3.56583e-06
1.94257e-09
1.94491e-09
1.94386e-09
1.94795e-09
1.95269e-09
1.96899e-09
2.09563e-09
3.10112e-09
2.58665e-08
3.3107e-06
1.64366e-09
1.64612e-09
1.64522e-09
1.64965e-09
1.65496e-09
1.67209e-09
1.8044e-09
2.70159e-09
2.3357e-08
2.62326e-06
1.41785e-09
1.42018e-09
1.41952e-09
1.42384e-09
1.42924e-09
1.44569e-09
1.56834e-09
2.4217e-09
2.04596e-08
1.81412e-06
1.24607e-09
1.2483e-09
1.2479e-09
1.25216e-09
1.25772e-09
1.27366e-09
1.38802e-09
2.17323e-09
1.76405e-08
1.15198e-06
1.11235e-09
1.11449e-09
1.11438e-09
1.11861e-09
1.12437e-09
1.13995e-09
1.247e-09
1.96125e-09
1.51473e-08
7.00407e-07
1.00604e-09
1.0081e-09
1.00829e-09
1.01254e-09
1.01853e-09
1.03386e-09
1.13429e-09
1.7812e-09
1.27336e-08
4.18834e-07
9.20099e-10
9.22093e-10
9.22618e-10
9.26892e-10
9.33143e-10
9.48322e-10
1.04262e-09
1.62633e-09
1.06268e-08
2.50356e-07
8.4992e-10
8.51849e-10
8.52724e-10
8.57042e-10
8.63579e-10
8.78706e-10
9.67215e-10
1.49267e-09
8.93069e-09
1.51192e-07
7.92498e-10
7.94366e-10
7.95592e-10
7.99967e-10
8.06829e-10
8.22013e-10
9.0498e-10
1.37735e-09
7.57622e-09
9.30458e-08
7.4592e-10
7.47727e-10
7.49265e-10
7.53735e-10
7.60979e-10
7.76351e-10
8.5397e-10
1.27836e-09
6.41891e-09
5.88216e-08
7.09026e-10
7.10773e-10
7.12524e-10
7.17197e-10
7.24867e-10
7.40613e-10
8.13035e-10
1.19466e-09
5.40703e-09
3.84641e-08
6.81221e-10
6.82909e-10
6.84753e-10
6.89794e-10
6.97976e-10
7.1433e-10
7.81661e-10
1.12586e-09
4.59248e-09
2.61374e-08
6.62421e-10
6.64058e-10
6.68378e-10
6.73927e-10
6.82696e-10
6.99793e-10
7.62961e-10
1.07191e-09
3.92471e-09
1.84821e-08
6.54376e-10
6.55974e-10
6.60804e-10
6.66844e-10
6.76219e-10
6.94244e-10
7.53767e-10
1.03294e-09
3.37161e-09
1.35606e-08
)
;

boundaryField
{
    fuel
    {
        type            fixedValue;
        value           uniform 0;
    }
    wall
    {
        type            zeroGradient;
    }
    outlet
    {
        type            zeroGradient;
    }
    frontAndBack
    {
        type            empty;
    }
    procBoundary3to0
    {
        type            processor;
        value           nonuniform List<scalar> 10(6.55793e-10 6.57346e-10 6.62935e-10 6.69664e-10 6.79937e-10 6.99334e-10 7.5531e-10 1.01319e-09 2.95068e-09 1.03162e-08);
    }
    procBoundary3to2
    {
        type            processor;
        value           nonuniform List<scalar> 
25
(
6.67079e-08
3.444e-08
2.017e-08
1.30399e-08
8.90331e-09
6.28636e-09
4.72663e-09
3.62178e-09
2.89825e-09
2.31535e-09
1.94363e-09
1.94363e-09
1.64447e-09
1.41854e-09
1.2467e-09
1.11292e-09
1.00655e-09
9.2056e-10
8.50326e-10
7.92853e-10
7.46229e-10
7.09295e-10
6.81458e-10
6.62641e-10
6.54612e-10
)
;
    }
}


// ************************************************************************* //
