/*--------------------------------*- C++ -*----------------------------------*\
| =========                 |                                                 |
| \\      /  F ield         | OpenFOAM: The Open Source CFD Toolbox           |
|  \\    /   O peration     | Version:  dev                                   |
|   \\  /    A nd           | Web:      www.OpenFOAM.org                      |
|    \\/     M anipulation  |                                                 |
\*---------------------------------------------------------------------------*/
FoamFile
{
    version     2.0;
    format      ascii;
    class       volScalarField;
    location    "0.03";
    object      A2C2HA*;
}
// * * * * * * * * * * * * * * * * * * * * * * * * * * * * * * * * * * * * * //

dimensions      [0 0 0 0 0 0 0];

internalField   nonuniform List<scalar> 
250
(
8.96468e-10
8.96955e-10
8.96483e-10
8.97298e-10
8.96512e-10
8.96684e-10
8.9699e-10
9.02064e-10
9.38183e-10
1.19943e-09
9.35238e-12
5.14838e-10
5.15041e-10
5.1486e-10
5.15154e-10
5.14913e-10
5.1507e-10
5.15476e-10
5.19928e-10
5.53914e-10
8.36338e-10
6.1603e-12
2.53835e-10
2.53906e-10
2.53858e-10
2.53954e-10
2.53905e-10
2.54007e-10
2.54265e-10
2.57361e-10
2.80983e-10
4.92936e-10
2.1411e-12
1.2938e-10
1.29404e-10
1.29402e-10
1.29427e-10
1.29437e-10
1.29495e-10
1.29652e-10
1.3172e-10
1.47746e-10
3.01114e-10
7.32459e-13
7.2112e-11
7.21202e-11
7.21298e-11
7.2131e-11
7.21524e-11
7.21849e-11
7.22749e-11
7.36116e-11
8.48556e-11
1.99816e-10
3.43127e-13
4.3019e-11
4.30165e-11
4.30368e-11
4.30211e-11
4.30541e-11
4.30788e-11
4.31787e-11
4.45217e-11
5.38242e-11
1.43782e-10
2.26086e-13
2.88207e-11
2.88173e-11
2.88347e-11
2.88185e-11
2.88451e-11
2.88595e-11
2.89208e-11
2.99122e-11
3.7475e-11
1.10188e-10
1.93719e-13
2.04148e-11
2.04088e-11
2.04295e-11
2.04104e-11
2.04429e-11
2.04643e-11
2.0567e-11
2.17041e-11
2.78366e-11
8.81774e-11
2.06481e-13
1.56131e-11
1.56069e-11
1.56255e-11
1.56074e-11
1.56359e-11
1.56537e-11
1.57376e-11
1.64869e-11
2.15119e-11
7.25723e-11
2.96772e-13
1.20989e-11
1.20911e-11
1.21069e-11
1.20912e-11
1.21151e-11
1.21309e-11
1.22015e-11
1.28457e-11
1.77922e-11
6.08828e-11
5.05729e-13
9.96456e-12
9.97909e-12
9.96415e-12
9.98542e-12
9.99983e-12
1.00601e-11
1.06282e-11
1.48276e-11
5.12382e-11
9.10003e-13
8.2804e-12
8.29484e-12
8.28103e-12
8.30263e-12
8.31968e-12
8.38321e-12
8.97907e-12
1.25653e-11
4.3764e-11
1.55349e-12
7.00765e-12
7.02084e-12
7.00834e-12
7.02785e-12
7.04472e-12
7.10306e-12
7.64295e-12
1.10061e-11
3.75579e-11
2.36173e-12
6.02752e-12
6.03969e-12
6.02834e-12
6.04614e-12
6.06305e-12
6.1171e-12
6.60967e-12
9.6278e-12
3.2345e-11
3.32476e-12
5.2497e-12
5.26102e-12
5.25069e-12
5.26703e-12
5.2841e-12
5.3345e-12
5.78545e-12
8.44875e-12
2.79606e-11
4.45006e-12
4.61576e-12
4.62638e-12
4.61692e-12
4.63198e-12
4.64927e-12
4.69651e-12
5.10989e-12
7.44227e-12
2.36602e-11
5.66071e-12
4.08681e-12
4.09683e-12
4.08806e-12
4.10196e-12
4.11951e-12
4.16399e-12
4.54282e-12
6.56973e-12
1.9887e-11
6.79231e-12
3.6363e-12
3.64581e-12
3.63745e-12
3.65029e-12
3.66817e-12
3.71025e-12
4.05694e-12
5.80745e-12
1.68774e-11
7.66134e-12
3.24577e-12
3.25486e-12
3.24638e-12
3.25837e-12
3.2767e-12
3.31673e-12
3.6332e-12
5.13656e-12
1.44514e-11
8.15164e-12
2.90215e-12
2.91088e-12
2.90141e-12
2.91294e-12
2.93188e-12
2.97026e-12
3.25804e-12
4.54273e-12
1.2338e-11
8.25594e-12
2.596e-12
2.60444e-12
2.59258e-12
2.6044e-12
2.62406e-12
2.66131e-12
2.92145e-12
4.01534e-12
1.04369e-11
8.04954e-12
2.32032e-12
2.32854e-12
2.31219e-12
2.32523e-12
2.34582e-12
2.38252e-12
2.6155e-12
3.54636e-12
8.84849e-12
7.63511e-12
2.06951e-12
2.07764e-12
2.08393e-12
2.09906e-12
2.12084e-12
2.15717e-12
2.36848e-12
3.12912e-12
7.48773e-12
7.09804e-12
1.86485e-12
1.873e-12
1.87571e-12
1.88997e-12
1.90967e-12
1.94229e-12
2.14145e-12
2.75555e-12
6.29964e-12
6.49083e-12
)
;

boundaryField
{
    fuel
    {
        type            fixedValue;
        value           uniform 0;
    }
    wall
    {
        type            zeroGradient;
    }
    outlet
    {
        type            zeroGradient;
    }
    frontAndBack
    {
        type            empty;
    }
    procBoundary3to0
    {
        type            processor;
        value           nonuniform List<scalar> 10(1.68001e-12 1.68823e-12 1.6896e-12 1.70544e-12 1.72625e-12 1.7589e-12 1.94023e-12 2.45804e-12 5.3329e-12 5.86622e-12);
    }
    procBoundary3to2
    {
        type            processor;
        value           nonuniform List<scalar> 
25
(
8.97002e-10
5.15056e-10
2.5393e-10
1.2943e-10
7.21425e-11
4.30419e-11
2.88374e-11
2.04319e-11
1.56276e-11
1.21089e-11
9.97285e-12
9.97285e-12
8.28565e-12
7.01185e-12
6.03118e-12
5.25293e-12
4.61861e-12
4.0893e-12
3.63845e-12
3.24761e-12
2.9037e-12
2.5973e-12
2.3214e-12
2.07043e-12
1.86573e-12
)
;
    }
}


// ************************************************************************* //
