/*--------------------------------*- C++ -*----------------------------------*\
| =========                 |                                                 |
| \\      /  F ield         | OpenFOAM: The Open Source CFD Toolbox           |
|  \\    /   O peration     | Version:  dev                                   |
|   \\  /    A nd           | Web:      www.OpenFOAM.org                      |
|    \\/     M anipulation  |                                                 |
\*---------------------------------------------------------------------------*/
FoamFile
{
    version     2.0;
    format      ascii;
    class       volScalarField;
    location    "0.03";
    object      C;
}
// * * * * * * * * * * * * * * * * * * * * * * * * * * * * * * * * * * * * * //

dimensions      [0 0 0 0 0 0 0];

internalField   nonuniform List<scalar> 
1989
(
5.90603e-12
5.9196e-12
5.93462e-12
5.94488e-12
5.95696e-12
5.96402e-12
5.97245e-12
5.97674e-12
5.98205e-12
5.9843e-12
5.98714e-12
5.988e-12
5.98907e-12
5.98908e-12
5.98883e-12
5.98839e-12
5.98696e-12
5.98583e-12
5.98274e-12
5.98034e-12
5.97493e-12
5.97057e-12
5.96209e-12
5.95506e-12
5.94306e-12
5.9329e-12
5.91802e-12
5.90494e-12
5.88854e-12
5.87299e-12
5.8634e-12
5.85412e-12
5.86679e-12
5.8801e-12
5.94124e-12
6.02208e-12
6.13348e-12
6.32985e-12
6.46105e-12
5.04659e-12
4.93951e-12
4.78507e-12
4.69719e-12
4.63444e-12
4.58617e-12
4.5765e-12
4.56641e-12
4.57441e-12
4.5822e-12
4.59413e-12
4.6073e-12
4.61791e-12
4.62977e-12
4.63782e-12
4.64734e-12
4.65287e-12
4.65953e-12
4.66289e-12
4.66709e-12
4.66885e-12
4.67109e-12
4.67176e-12
4.67261e-12
4.67262e-12
4.67242e-12
4.67207e-12
4.67094e-12
4.67006e-12
4.66762e-12
4.66574e-12
4.66147e-12
4.65805e-12
4.65136e-12
4.64585e-12
4.63638e-12
4.62841e-12
4.61666e-12
4.60643e-12
4.5935e-12
4.58129e-12
4.57386e-12
4.56638e-12
4.57683e-12
4.58691e-12
4.63547e-12
4.69903e-12
4.78729e-12
4.94319e-12
5.04941e-12
3.9248e-12
3.83876e-12
3.71702e-12
3.64805e-12
3.59906e-12
3.56102e-12
3.5538e-12
3.54555e-12
3.55199e-12
3.55798e-12
3.56729e-12
3.57774e-12
3.58596e-12
3.59526e-12
3.60153e-12
3.60899e-12
3.61329e-12
3.61851e-12
3.62112e-12
3.62441e-12
3.62578e-12
3.62755e-12
3.62806e-12
3.62873e-12
3.62874e-12
3.62858e-12
3.62831e-12
3.62743e-12
3.62674e-12
3.62483e-12
3.62336e-12
3.62001e-12
3.61735e-12
3.61211e-12
3.60782e-12
3.6004e-12
3.5942e-12
3.58498e-12
3.57705e-12
3.56692e-12
3.55738e-12
3.55167e-12
3.54565e-12
3.55418e-12
3.56172e-12
3.59998e-12
3.64963e-12
3.71889e-12
3.84165e-12
3.92712e-12
3.03857e-12
2.9668e-12
2.86692e-12
2.81132e-12
2.77162e-12
2.74128e-12
2.73551e-12
2.72865e-12
2.73354e-12
2.73808e-12
2.74538e-12
2.75337e-12
2.75979e-12
2.76699e-12
2.77183e-12
2.77762e-12
2.78091e-12
2.78495e-12
2.78694e-12
2.78947e-12
2.7905e-12
2.79185e-12
2.79222e-12
2.79272e-12
2.79271e-12
2.79259e-12
2.79239e-12
2.79171e-12
2.7912e-12
2.78973e-12
2.78863e-12
2.78605e-12
2.78403e-12
2.77996e-12
2.77667e-12
2.77092e-12
2.76614e-12
2.759e-12
2.75283e-12
2.74501e-12
2.73756e-12
2.7333e-12
2.72868e-12
2.73581e-12
2.74184e-12
2.77233e-12
2.8126e-12
2.86843e-12
2.96903e-12
3.04038e-12
2.34284e-12
2.28557e-12
2.20691e-12
2.16364e-12
2.13294e-12
2.1092e-12
2.10492e-12
2.09938e-12
2.10324e-12
2.10668e-12
2.11231e-12
2.11847e-12
2.12339e-12
2.12895e-12
2.13265e-12
2.13712e-12
2.13964e-12
2.14276e-12
2.14427e-12
2.14623e-12
2.14701e-12
2.14805e-12
2.14833e-12
2.14872e-12
2.1487e-12
2.14861e-12
2.14846e-12
2.14793e-12
2.14755e-12
2.14642e-12
2.14558e-12
2.14359e-12
2.14204e-12
2.13891e-12
2.13639e-12
2.13195e-12
2.12829e-12
2.12278e-12
2.11806e-12
2.11203e-12
2.10626e-12
2.10305e-12
2.09941e-12
2.10516e-12
2.10963e-12
2.13348e-12
2.16463e-12
2.20807e-12
2.28722e-12
2.34422e-12
1.79606e-12
1.75018e-12
1.6874e-12
1.65359e-12
1.63006e-12
1.61143e-12
1.60828e-12
1.60387e-12
1.60693e-12
1.60955e-12
1.61392e-12
1.61869e-12
1.62246e-12
1.62677e-12
1.62962e-12
1.63308e-12
1.63502e-12
1.63743e-12
1.6386e-12
1.64011e-12
1.64071e-12
1.64152e-12
1.64173e-12
1.64203e-12
1.64202e-12
1.64195e-12
1.64183e-12
1.64142e-12
1.64113e-12
1.64025e-12
1.63961e-12
1.63807e-12
1.63688e-12
1.63445e-12
1.63252e-12
1.62908e-12
1.62626e-12
1.62199e-12
1.61837e-12
1.61371e-12
1.60921e-12
1.60677e-12
1.60388e-12
1.60845e-12
1.61175e-12
1.63047e-12
1.65434e-12
1.68829e-12
1.75141e-12
1.79712e-12
1.36598e-12
1.33037e-12
1.28081e-12
1.255e-12
1.23742e-12
1.22309e-12
1.22079e-12
1.21736e-12
1.21972e-12
1.22168e-12
1.22499e-12
1.2286e-12
1.23144e-12
1.2347e-12
1.23685e-12
1.23946e-12
1.24092e-12
1.24274e-12
1.24361e-12
1.24476e-12
1.2452e-12
1.24581e-12
1.24597e-12
1.24619e-12
1.24618e-12
1.24613e-12
1.24604e-12
1.24573e-12
1.24552e-12
1.24486e-12
1.24438e-12
1.24321e-12
1.24232e-12
1.24049e-12
1.23903e-12
1.23643e-12
1.23431e-12
1.23108e-12
1.22836e-12
1.22484e-12
1.22141e-12
1.2196e-12
1.21736e-12
1.22091e-12
1.22333e-12
1.23772e-12
1.25555e-12
1.28148e-12
1.33126e-12
1.36677e-12
1.03457e-12
1.00749e-12
9.74179e-13
9.54514e-13
9.4139e-13
9.30293e-13
9.28645e-13
9.25935e-13
9.27761e-13
9.29204e-13
9.31707e-13
9.34421e-13
9.36544e-13
9.39007e-13
9.40613e-13
9.42583e-13
9.43669e-13
9.45043e-13
9.45691e-13
9.46552e-13
9.4688e-13
9.47337e-13
9.47448e-13
9.47618e-13
9.47608e-13
9.47566e-13
9.47503e-13
9.47274e-13
9.47117e-13
9.4662e-13
9.46267e-13
9.45388e-13
9.44727e-13
9.43344e-13
9.4226e-13
9.40299e-13
9.38711e-13
9.36271e-13
9.34234e-13
9.31588e-13
9.28989e-13
9.27656e-13
9.25927e-13
9.28725e-13
9.30461e-13
9.4161e-13
9.54918e-13
9.74663e-13
1.00813e-12
1.03514e-12
7.85873e-13
7.65145e-13
7.38617e-13
7.23277e-13
7.13354e-13
7.04693e-13
7.03562e-13
7.0145e-13
7.02944e-13
7.04084e-13
7.06062e-13
7.0818e-13
7.09845e-13
7.11784e-13
7.13047e-13
7.14603e-13
7.15463e-13
7.16554e-13
7.17073e-13
7.17761e-13
7.18029e-13
7.184e-13
7.18496e-13
7.18637e-13
7.18634e-13
7.18601e-13
7.18546e-13
7.18357e-13
7.18225e-13
7.17824e-13
7.17536e-13
7.16834e-13
7.16304e-13
7.15207e-13
7.14348e-13
7.128e-13
7.1155e-13
7.0963e-13
7.08031e-13
7.05958e-13
7.03915e-13
7.0286e-13
7.01441e-13
7.03624e-13
7.04825e-13
7.13532e-13
7.23594e-13
7.38988e-13
7.65621e-13
7.86285e-13
5.92608e-13
5.76818e-13
5.56483e-13
5.44874e-13
5.37543e-13
5.30981e-13
5.30184e-13
5.28567e-13
5.29708e-13
5.30551e-13
5.32032e-13
5.33609e-13
5.34849e-13
5.36299e-13
5.37239e-13
5.38401e-13
5.3904e-13
5.39855e-13
5.4024e-13
5.40754e-13
5.40952e-13
5.41229e-13
5.41299e-13
5.41405e-13
5.41402e-13
5.41377e-13
5.41337e-13
5.41196e-13
5.41098e-13
5.40799e-13
5.40586e-13
5.40061e-13
5.39668e-13
5.38848e-13
5.3821e-13
5.37053e-13
5.36123e-13
5.34688e-13
5.33496e-13
5.31946e-13
5.30426e-13
5.29642e-13
5.28556e-13
5.30226e-13
5.31075e-13
5.37674e-13
5.45104e-13
5.56752e-13
5.7716e-13
5.92899e-13
4.45738e-13
4.3366e-13
4.18327e-13
4.09521e-13
4.04134e-13
3.99201e-13
3.98643e-13
3.97414e-13
3.98279e-13
3.98897e-13
3.99998e-13
4.01164e-13
4.02081e-13
4.03157e-13
4.03851e-13
4.04713e-13
4.05183e-13
4.05787e-13
4.0607e-13
4.06451e-13
4.06596e-13
4.06801e-13
4.06852e-13
4.0693e-13
4.06927e-13
4.06909e-13
4.06879e-13
4.06775e-13
4.06704e-13
4.06482e-13
4.06326e-13
4.05937e-13
4.05648e-13
4.0504e-13
4.0457e-13
4.03712e-13
4.03026e-13
4.0196e-13
4.01077e-13
3.9993e-13
3.98805e-13
3.98227e-13
3.97403e-13
3.98671e-13
3.99268e-13
4.0423e-13
4.09687e-13
4.18522e-13
4.33902e-13
4.45944e-13
3.36448e-13
3.27181e-13
3.15597e-13
3.08859e-13
3.04907e-13
3.0117e-13
3.00794e-13
2.99844e-13
3.00503e-13
3.00951e-13
3.01768e-13
3.0263e-13
3.03305e-13
3.04104e-13
3.04613e-13
3.05252e-13
3.05597e-13
3.06045e-13
3.06251e-13
3.06533e-13
3.06638e-13
3.0679e-13
3.06826e-13
3.06884e-13
3.06882e-13
3.06868e-13
3.06846e-13
3.06769e-13
3.06718e-13
3.06554e-13
3.06441e-13
3.06152e-13
3.05941e-13
3.05491e-13
3.05146e-13
3.0451e-13
3.04006e-13
3.03215e-13
3.02563e-13
3.01715e-13
3.00884e-13
3.00463e-13
2.99834e-13
3.00812e-13
3.01217e-13
3.04976e-13
3.08978e-13
3.15739e-13
3.2735e-13
3.36595e-13
2.53958e-13
2.46489e-13
2.37698e-13
2.32302e-13
2.29354e-13
2.26495e-13
2.26233e-13
2.25494e-13
2.25998e-13
2.26325e-13
2.26937e-13
2.27576e-13
2.28079e-13
2.28676e-13
2.29055e-13
2.29532e-13
2.29787e-13
2.30121e-13
2.30272e-13
2.30482e-13
2.30558e-13
2.30671e-13
2.30696e-13
2.30738e-13
2.30736e-13
2.30725e-13
2.3071e-13
2.30652e-13
2.30616e-13
2.30494e-13
2.30412e-13
2.30197e-13
2.30042e-13
2.29706e-13
2.29451e-13
2.28976e-13
2.28601e-13
2.2801e-13
2.27524e-13
2.26892e-13
2.2627e-13
2.25963e-13
2.25482e-13
2.26242e-13
2.26526e-13
2.29403e-13
2.32387e-13
2.378e-13
2.46609e-13
2.54062e-13
1.90755e-13
1.84909e-13
1.78535e-13
1.7523e-13
1.73074e-13
1.70917e-13
1.70744e-13
1.70175e-13
1.70556e-13
1.7079e-13
1.71241e-13
1.7171e-13
1.72078e-13
1.72519e-13
1.72794e-13
1.73146e-13
1.73331e-13
1.73577e-13
1.73686e-13
1.7384e-13
1.73894e-13
1.73977e-13
1.73994e-13
1.74025e-13
1.74023e-13
1.74015e-13
1.74004e-13
1.73962e-13
1.73936e-13
1.73847e-13
1.73788e-13
1.7363e-13
1.73518e-13
1.73271e-13
1.73086e-13
1.72736e-13
1.72463e-13
1.72027e-13
1.7167e-13
1.71206e-13
1.70749e-13
1.70529e-13
1.70164e-13
1.70749e-13
1.70939e-13
1.7311e-13
1.75291e-13
1.78607e-13
1.85004e-13
1.90816e-13
1.44101e-13
1.39564e-13
1.34902e-13
1.32394e-13
1.30821e-13
1.29197e-13
1.29085e-13
1.28647e-13
1.28934e-13
1.291e-13
1.29432e-13
1.29774e-13
1.30042e-13
1.30366e-13
1.30566e-13
1.30824e-13
1.30957e-13
1.31137e-13
1.31215e-13
1.31328e-13
1.31366e-13
1.31426e-13
1.31438e-13
1.3146e-13
1.31458e-13
1.31452e-13
1.31445e-13
1.31414e-13
1.31396e-13
1.31331e-13
1.3129e-13
1.31174e-13
1.31094e-13
1.30912e-13
1.30779e-13
1.30522e-13
1.30324e-13
1.30004e-13
1.29744e-13
1.29404e-13
1.2907e-13
1.28913e-13
1.28638e-13
1.29088e-13
1.29212e-13
1.30846e-13
1.32437e-13
1.34953e-13
1.39614e-13
1.4416e-13
1.09085e-13
1.05607e-13
1.02188e-13
1.00282e-13
9.91359e-14
9.79163e-14
9.78448e-14
9.75078e-14
9.77231e-14
9.78396e-14
9.80827e-14
9.83317e-14
9.85262e-14
9.87628e-14
9.89068e-14
9.90954e-14
9.9191e-14
9.93224e-14
9.93779e-14
9.94598e-14
9.94865e-14
9.953e-14
9.95377e-14
9.95538e-14
9.9552e-14
9.95476e-14
9.95423e-14
9.95202e-14
9.95081e-14
9.94608e-14
9.94315e-14
9.93474e-14
9.92903e-14
9.9158e-14
9.90624e-14
9.88745e-14
9.87319e-14
9.84974e-14
9.83083e-14
9.80615e-14
9.78172e-14
9.77071e-14
9.75e-14
9.78455e-14
9.79261e-14
9.91537e-14
1.00313e-13
1.02226e-13
1.05631e-13
1.09135e-13
8.28187e-14
8.01926e-14
7.76031e-14
7.61252e-14
7.52742e-14
7.43454e-14
7.43037e-14
7.40442e-14
7.42131e-14
7.43004e-14
7.44866e-14
7.46749e-14
7.48221e-14
7.50019e-14
7.51108e-14
7.52544e-14
7.53268e-14
7.54271e-14
7.54692e-14
7.55319e-14
7.55522e-14
7.55856e-14
7.55916e-14
7.56042e-14
7.56029e-14
7.55995e-14
7.55953e-14
7.55782e-14
7.55688e-14
7.55325e-14
7.55101e-14
7.54457e-14
7.54024e-14
7.53014e-14
7.52291e-14
7.50859e-14
7.49781e-14
7.47999e-14
7.46565e-14
7.44697e-14
7.42834e-14
7.42007e-14
7.40379e-14
7.43038e-14
7.43525e-14
7.52878e-14
7.61481e-14
7.76333e-14
8.02023e-14
8.28593e-14
6.31215e-14
6.11549e-14
5.92073e-14
5.80845e-14
5.74607e-14
5.67605e-14
5.67365e-14
5.65368e-14
5.66648e-14
5.67268e-14
5.68651e-14
5.70031e-14
5.7111e-14
5.72437e-14
5.7323e-14
5.7429e-14
5.74815e-14
5.75555e-14
5.75857e-14
5.76318e-14
5.76463e-14
5.76708e-14
5.76748e-14
5.76841e-14
5.7683e-14
5.76805e-14
5.76775e-14
5.76649e-14
5.76583e-14
5.76316e-14
5.76156e-14
5.75682e-14
5.7537e-14
5.74626e-14
5.74101e-14
5.73044e-14
5.72258e-14
5.70942e-14
5.6989e-14
5.68519e-14
5.67141e-14
5.66553e-14
5.65317e-14
5.67361e-14
5.67653e-14
5.74704e-14
5.8101e-14
5.92305e-14
6.11529e-14
6.31572e-14
4.8345e-14
4.68602e-14
4.53885e-14
4.45376e-14
4.40791e-14
4.355e-14
4.35376e-14
4.33837e-14
4.34813e-14
4.35253e-14
4.36287e-14
4.37302e-14
4.38096e-14
4.39079e-14
4.39659e-14
4.40444e-14
4.40827e-14
4.41374e-14
4.41593e-14
4.41933e-14
4.42036e-14
4.42217e-14
4.42244e-14
4.42312e-14
4.42304e-14
4.42284e-14
4.42263e-14
4.4217e-14
4.42123e-14
4.41926e-14
4.41812e-14
4.41461e-14
4.41235e-14
4.40685e-14
4.40302e-14
4.39519e-14
4.38944e-14
4.37968e-14
4.37193e-14
4.36184e-14
4.35159e-14
4.34739e-14
4.33796e-14
4.3537e-14
4.35533e-14
4.40861e-14
4.45496e-14
4.54064e-14
4.68515e-14
4.83766e-14
3.72383e-14
3.6098e-14
3.49814e-14
3.43381e-14
3.39998e-14
3.35987e-14
3.35938e-14
3.3475e-14
3.35499e-14
3.35817e-14
3.36593e-14
3.37346e-14
3.37934e-14
3.38667e-14
3.39095e-14
3.3968e-14
3.39961e-14
3.40369e-14
3.40528e-14
3.40781e-14
3.40855e-14
3.40989e-14
3.41008e-14
3.41059e-14
3.41053e-14
3.41038e-14
3.41022e-14
3.40953e-14
3.4092e-14
3.40773e-14
3.4069e-14
3.40429e-14
3.40264e-14
3.39854e-14
3.39573e-14
3.38989e-14
3.38565e-14
3.37837e-14
3.37261e-14
3.36514e-14
3.35744e-14
3.35443e-14
3.34717e-14
3.35931e-14
3.3601e-14
3.4005e-14
3.43469e-14
3.4995e-14
3.60857e-14
3.72665e-14
2.88534e-14
2.79747e-14
2.71235e-14
2.66324e-14
2.63817e-14
2.60765e-14
2.60763e-14
2.59846e-14
2.60427e-14
2.60659e-14
2.61249e-14
2.61812e-14
2.62252e-14
2.62804e-14
2.63123e-14
2.63563e-14
2.63772e-14
2.64079e-14
2.64197e-14
2.64387e-14
2.64441e-14
2.64542e-14
2.64555e-14
2.64594e-14
2.64589e-14
2.64578e-14
2.64566e-14
2.64513e-14
2.64489e-14
2.64379e-14
2.64318e-14
2.64121e-14
2.63999e-14
2.6369e-14
2.63482e-14
2.63042e-14
2.62726e-14
2.62178e-14
2.61746e-14
2.61189e-14
2.60601e-14
2.60383e-14
2.59819e-14
2.60757e-14
2.60781e-14
2.63855e-14
2.66389e-14
2.71337e-14
2.79616e-14
2.88782e-14
2.25008e-14
2.18253e-14
2.11654e-14
2.07888e-14
2.06021e-14
2.0369e-14
2.03718e-14
2.03009e-14
2.03465e-14
2.03637e-14
2.04094e-14
2.04519e-14
2.04853e-14
2.05273e-14
2.05514e-14
2.05849e-14
2.06007e-14
2.06241e-14
2.06329e-14
2.06474e-14
2.06515e-14
2.06592e-14
2.06602e-14
2.06632e-14
2.06628e-14
2.0662e-14
2.0661e-14
2.0657e-14
2.06552e-14
2.06467e-14
2.06421e-14
2.06271e-14
2.06179e-14
2.05945e-14
2.05787e-14
2.05453e-14
2.05213e-14
2.04796e-14
2.04468e-14
2.04048e-14
2.03593e-14
2.03431e-14
2.02988e-14
2.03712e-14
2.03702e-14
2.0605e-14
2.07938e-14
2.11731e-14
2.18132e-14
2.25221e-14
1.75987e-14
1.70839e-14
1.66308e-14
1.63414e-14
1.62016e-14
1.60228e-14
1.60274e-14
1.59727e-14
1.60089e-14
1.60223e-14
1.60578e-14
1.60906e-14
1.61164e-14
1.61487e-14
1.61673e-14
1.61931e-14
1.62053e-14
1.62233e-14
1.62302e-14
1.62413e-14
1.62445e-14
1.62505e-14
1.62513e-14
1.62537e-14
1.62534e-14
1.62528e-14
1.6252e-14
1.62489e-14
1.62474e-14
1.62409e-14
1.62373e-14
1.62257e-14
1.62185e-14
1.62004e-14
1.61883e-14
1.61625e-14
1.6144e-14
1.61119e-14
1.60866e-14
1.60544e-14
1.60188e-14
1.60063e-14
1.59711e-14
1.6027e-14
1.60238e-14
1.62039e-14
1.63452e-14
1.66366e-14
1.70731e-14
1.76171e-14
1.3914e-14
1.35176e-14
1.31699e-14
1.29454e-14
1.28402e-14
1.27026e-14
1.27083e-14
1.26661e-14
1.26954e-14
1.27061e-14
1.27341e-14
1.27598e-14
1.278e-14
1.28053e-14
1.28199e-14
1.28401e-14
1.28498e-14
1.28639e-14
1.28693e-14
1.28781e-14
1.28807e-14
1.28855e-14
1.28862e-14
1.28881e-14
1.2888e-14
1.28874e-14
1.28868e-14
1.28843e-14
1.2883e-14
1.28779e-14
1.2875e-14
1.28658e-14
1.28602e-14
1.2846e-14
1.28364e-14
1.28162e-14
1.28017e-14
1.27766e-14
1.27567e-14
1.27314e-14
1.27034e-14
1.26934e-14
1.26649e-14
1.27081e-14
1.27035e-14
1.28421e-14
1.29486e-14
1.31743e-14
1.35108e-14
1.39275e-14
1.1072e-14
1.07617e-14
1.04943e-14
1.03199e-14
1.02398e-14
1.01343e-14
1.01401e-14
1.01081e-14
1.01319e-14
1.0141e-14
1.01635e-14
1.0184e-14
1.02002e-14
1.02203e-14
1.02321e-14
1.02481e-14
1.0256e-14
1.02672e-14
1.02717e-14
1.02788e-14
1.0281e-14
1.02848e-14
1.02855e-14
1.02871e-14
1.02871e-14
1.02867e-14
1.02861e-14
1.0284e-14
1.02829e-14
1.02787e-14
1.02763e-14
1.0269e-14
1.02643e-14
1.0253e-14
1.02452e-14
1.02291e-14
1.02174e-14
1.01975e-14
1.01816e-14
1.01613e-14
1.01389e-14
1.01304e-14
1.01072e-14
1.014e-14
1.01351e-14
1.02414e-14
1.03225e-14
1.04976e-14
1.07576e-14
1.10823e-14
8.90523e-15
8.65809e-15
8.45234e-15
8.31581e-15
8.2547e-15
8.17318e-15
8.17917e-15
8.15477e-15
8.17454e-15
8.1824e-15
8.20079e-15
8.21758e-15
8.23078e-15
8.24698e-15
8.25669e-15
8.26967e-15
8.27617e-15
8.28532e-15
8.28915e-15
8.29492e-15
8.29686e-15
8.30008e-15
8.30076e-15
8.3021e-15
8.30215e-15
8.30182e-15
8.3013e-15
8.29955e-15
8.29855e-15
8.29506e-15
8.29292e-15
8.28693e-15
8.28297e-15
8.27377e-15
8.26729e-15
8.25433e-15
8.24471e-15
8.22861e-15
8.21561e-15
8.1991e-15
8.1808e-15
8.17338e-15
8.15412e-15
8.17914e-15
8.17388e-15
8.25613e-15
8.31802e-15
8.45477e-15
8.65554e-15
8.91391e-15
7.2255e-15
7.02565e-15
6.86279e-15
6.75348e-15
6.70603e-15
6.64222e-15
6.64845e-15
6.62994e-15
6.64701e-15
6.65427e-15
6.66997e-15
6.68433e-15
6.69559e-15
6.70922e-15
6.71764e-15
6.7286e-15
6.73432e-15
6.7421e-15
6.74557e-15
6.75054e-15
6.75238e-15
6.75521e-15
6.75594e-15
6.75715e-15
6.75727e-15
6.75701e-15
6.7565e-15
6.75494e-15
6.75395e-15
6.75089e-15
6.74889e-15
6.74375e-15
6.74018e-15
6.73234e-15
6.72665e-15
6.71572e-15
6.70738e-15
6.69384e-15
6.68275e-15
6.66861e-15
6.65305e-15
6.64614e-15
6.62949e-15
6.64852e-15
6.64292e-15
6.70734e-15
6.75545e-15
6.86436e-15
7.02616e-15
7.23142e-15
5.90746e-15
5.74631e-15
5.61767e-15
5.53042e-15
5.4937e-15
5.44387e-15
5.45012e-15
5.43617e-15
5.45094e-15
5.45759e-15
5.47099e-15
5.48336e-15
5.49295e-15
5.50442e-15
5.51174e-15
5.52099e-15
5.52602e-15
5.53263e-15
5.53575e-15
5.54003e-15
5.54176e-15
5.54424e-15
5.545e-15
5.54608e-15
5.54624e-15
5.54604e-15
5.54555e-15
5.54416e-15
5.54319e-15
5.54053e-15
5.53866e-15
5.53426e-15
5.53104e-15
5.52438e-15
5.51937e-15
5.51015e-15
5.50292e-15
5.49152e-15
5.48207e-15
5.46989e-15
5.45665e-15
5.45029e-15
5.43588e-15
5.45028e-15
5.44458e-15
5.49493e-15
5.53221e-15
5.61945e-15
5.7466e-15
5.91297e-15
4.85627e-15
4.72477e-15
4.62258e-15
4.5523e-15
4.5238e-15
4.48472e-15
4.49097e-15
4.48053e-15
4.49354e-15
4.49974e-15
4.51145e-15
4.52219e-15
4.53057e-15
4.54038e-15
4.54687e-15
4.55481e-15
4.55932e-15
4.56504e-15
4.56792e-15
4.57167e-15
4.57332e-15
4.57553e-15
4.57631e-15
4.57729e-15
4.57749e-15
4.57733e-15
4.57686e-15
4.5756e-15
4.57464e-15
4.57227e-15
4.57051e-15
4.56666e-15
4.56371e-15
4.55795e-15
4.55346e-15
4.54554e-15
4.53914e-15
4.5294e-15
4.52115e-15
4.51054e-15
4.49901e-15
4.49307e-15
4.48037e-15
4.49121e-15
4.48544e-15
4.52497e-15
4.55396e-15
4.62444e-15
4.72683e-15
4.85963e-15
4.00092e-15
3.89272e-15
3.81121e-15
3.7542e-15
3.73211e-15
3.7014e-15
3.70761e-15
3.69989e-15
3.71151e-15
3.71733e-15
3.72769e-15
3.73719e-15
3.74459e-15
3.7531e-15
3.75893e-15
3.76584e-15
3.76994e-15
3.77495e-15
3.77763e-15
3.78096e-15
3.78255e-15
3.78455e-15
3.78533e-15
3.78624e-15
3.78647e-15
3.78634e-15
3.78587e-15
3.78472e-15
3.78378e-15
3.78165e-15
3.77996e-15
3.77657e-15
3.77383e-15
3.76877e-15
3.76469e-15
3.7578e-15
3.75207e-15
3.74362e-15
3.73634e-15
3.72693e-15
3.71677e-15
3.71117e-15
3.69983e-15
3.70792e-15
3.70212e-15
3.73323e-15
3.75577e-15
3.81308e-15
3.89575e-15
4.00303e-15
3.29079e-15
3.20124e-15
3.13627e-15
3.08987e-15
3.07286e-15
3.04874e-15
3.05488e-15
3.04925e-15
3.05972e-15
3.06519e-15
3.07442e-15
3.08292e-15
3.0895e-15
3.09693e-15
3.1022e-15
3.10826e-15
3.11202e-15
3.11644e-15
3.11894e-15
3.12192e-15
3.12344e-15
3.12526e-15
3.12605e-15
3.12689e-15
3.12713e-15
3.12703e-15
3.12657e-15
3.12551e-15
3.12459e-15
3.12266e-15
3.12106e-15
3.11803e-15
3.11549e-15
3.11101e-15
3.10728e-15
3.10124e-15
3.09606e-15
3.08868e-15
3.08222e-15
3.07378e-15
3.06476e-15
3.05949e-15
3.04928e-15
3.05523e-15
3.04947e-15
3.07394e-15
3.09136e-15
3.13809e-15
3.20475e-15
3.29215e-15
2.69117e-15
2.61669e-15
2.56532e-15
2.52761e-15
2.51467e-15
2.49583e-15
2.50182e-15
2.49782e-15
2.50727e-15
2.51238e-15
2.52064e-15
2.5282e-15
2.53409e-15
2.54059e-15
2.54535e-15
2.55068e-15
2.55411e-15
2.55803e-15
2.56036e-15
2.56302e-15
2.56446e-15
2.56611e-15
2.56689e-15
2.56767e-15
2.56792e-15
2.56783e-15
2.56739e-15
2.56642e-15
2.56553e-15
2.56379e-15
2.56227e-15
2.55957e-15
2.55721e-15
2.55325e-15
2.54984e-15
2.54453e-15
2.53985e-15
2.5334e-15
2.52764e-15
2.5201e-15
2.51206e-15
2.50713e-15
2.49792e-15
2.50221e-15
2.49656e-15
2.51571e-15
2.52901e-15
2.56705e-15
2.62036e-15
2.69208e-15
2.17804e-15
2.11813e-15
2.07704e-15
2.04661e-15
2.03696e-15
2.02241e-15
2.02813e-15
2.02542e-15
2.03388e-15
2.03861e-15
2.04594e-15
2.05269e-15
2.0579e-15
2.06356e-15
2.06784e-15
2.0725e-15
2.07562e-15
2.07907e-15
2.08122e-15
2.08359e-15
2.08494e-15
2.08643e-15
2.08718e-15
2.08789e-15
2.08815e-15
2.08807e-15
2.08765e-15
2.08677e-15
2.08592e-15
2.08436e-15
2.08294e-15
2.08054e-15
2.07837e-15
2.07489e-15
2.07179e-15
2.06715e-15
2.06294e-15
2.05732e-15
2.05217e-15
2.04556e-15
2.03837e-15
2.03382e-15
2.02557e-15
2.02854e-15
2.02312e-15
2.03795e-15
2.04793e-15
2.07867e-15
2.12131e-15
2.17911e-15
1.73816e-15
1.69055e-15
1.65811e-15
1.63385e-15
1.62684e-15
1.6158e-15
1.62115e-15
1.61944e-15
1.62694e-15
1.63124e-15
1.63769e-15
1.64362e-15
1.6482e-15
1.65309e-15
1.65689e-15
1.66093e-15
1.66373e-15
1.66674e-15
1.66869e-15
1.67077e-15
1.67203e-15
1.67335e-15
1.67406e-15
1.6747e-15
1.67495e-15
1.67488e-15
1.67449e-15
1.6737e-15
1.67291e-15
1.67152e-15
1.67022e-15
1.66812e-15
1.66615e-15
1.66312e-15
1.66033e-15
1.65631e-15
1.65257e-15
1.64772e-15
1.64318e-15
1.6374e-15
1.63107e-15
1.62693e-15
1.61962e-15
1.62157e-15
1.61648e-15
1.62777e-15
1.63507e-15
1.6596e-15
1.69314e-15
1.73943e-15
1.36291e-15
1.3257e-15
1.30052e-15
1.28155e-15
1.27663e-15
1.26848e-15
1.27334e-15
1.27242e-15
1.27895e-15
1.28279e-15
1.28837e-15
1.29354e-15
1.29749e-15
1.30165e-15
1.30497e-15
1.30843e-15
1.3109e-15
1.31349e-15
1.31523e-15
1.31704e-15
1.31817e-15
1.31933e-15
1.31998e-15
1.32056e-15
1.32079e-15
1.32073e-15
1.32038e-15
1.31968e-15
1.31896e-15
1.31775e-15
1.31657e-15
1.31475e-15
1.313e-15
1.31039e-15
1.30793e-15
1.3045e-15
1.30122e-15
1.2971e-15
1.29318e-15
1.28815e-15
1.28268e-15
1.27899e-15
1.27262e-15
1.27375e-15
1.26912e-15
1.27749e-15
1.28265e-15
1.30187e-15
1.32776e-15
1.36428e-15
1.04724e-15
1.01873e-15
9.99636e-16
9.85152e-16
9.81855e-16
9.76056e-16
9.80341e-16
9.80026e-16
9.85602e-16
9.88969e-16
9.9372e-16
9.98119e-16
1.00149e-15
1.00497e-15
1.00782e-15
1.01073e-15
1.01288e-15
1.01507e-15
1.0166e-15
1.01813e-15
1.01914e-15
1.02014e-15
1.02073e-15
1.02123e-15
1.02144e-15
1.02139e-15
1.02107e-15
1.02047e-15
1.01983e-15
1.01879e-15
1.01775e-15
1.0162e-15
1.01467e-15
1.01247e-15
1.01033e-15
1.00745e-15
1.00463e-15
1.00117e-15
9.97843e-16
9.93557e-16
9.88907e-16
9.85667e-16
9.8024e-16
9.8073e-16
9.76638e-16
9.82629e-16
9.86135e-16
1.00082e-15
1.02038e-15
1.0486e-15
7.88143e-16
7.66776e-16
7.52649e-16
7.41914e-16
7.39824e-16
7.35908e-16
7.39573e-16
7.39718e-16
7.44376e-16
7.47284e-16
7.51264e-16
7.54927e-16
7.57761e-16
7.60631e-16
7.63044e-16
7.6545e-16
7.67287e-16
7.69111e-16
7.70421e-16
7.71709e-16
7.72583e-16
7.73427e-16
7.73948e-16
7.74385e-16
7.74574e-16
7.74525e-16
7.74251e-16
7.73737e-16
7.73173e-16
7.72297e-16
7.71399e-16
7.70096e-16
7.6878e-16
7.66957e-16
7.65132e-16
7.62747e-16
7.60362e-16
7.57516e-16
7.54719e-16
7.5115e-16
7.47257e-16
7.44461e-16
7.39931e-16
7.39933e-16
7.36429e-16
7.40509e-16
7.42773e-16
7.5368e-16
7.68097e-16
7.89408e-16
5.84003e-16
5.68295e-16
5.58068e-16
5.50354e-16
5.49114e-16
5.46652e-16
5.49704e-16
5.50187e-16
5.54012e-16
5.56501e-16
5.59814e-16
5.62777e-16
5.65164e-16
5.67504e-16
5.69521e-16
5.7149e-16
5.7304e-16
5.74542e-16
5.75655e-16
5.76722e-16
5.77474e-16
5.78179e-16
5.78632e-16
5.79004e-16
5.79171e-16
5.79129e-16
5.78893e-16
5.7846e-16
5.77974e-16
5.77242e-16
5.76474e-16
5.75394e-16
5.74278e-16
5.72783e-16
5.71239e-16
5.69291e-16
5.67297e-16
5.64977e-16
5.62629e-16
5.59737e-16
5.56501e-16
5.54108e-16
5.50391e-16
5.50032e-16
5.47113e-16
5.49712e-16
5.51095e-16
5.58952e-16
5.6937e-16
5.85133e-16
4.35314e-16
4.2378e-16
4.16381e-16
4.10933e-16
4.10238e-16
4.08826e-16
4.11337e-16
4.12053e-16
4.1519e-16
4.17336e-16
4.20094e-16
4.22514e-16
4.24527e-16
4.26448e-16
4.28141e-16
4.29763e-16
4.31075e-16
4.32319e-16
4.33267e-16
4.34156e-16
4.34804e-16
4.35396e-16
4.35791e-16
4.36108e-16
4.36255e-16
4.36219e-16
4.36015e-16
4.35649e-16
4.35229e-16
4.34616e-16
4.33957e-16
4.33058e-16
4.32108e-16
4.30878e-16
4.2956e-16
4.27964e-16
4.26289e-16
4.24386e-16
4.2241e-16
4.20044e-16
4.17354e-16
4.15291e-16
4.12247e-16
4.11634e-16
4.09234e-16
4.10761e-16
4.11576e-16
4.17143e-16
4.24678e-16
4.36309e-16
3.48166e-16
3.39138e-16
3.33395e-16
3.29335e-16
3.28914e-16
3.28127e-16
3.30265e-16
3.31121e-16
3.33806e-16
3.35734e-16
3.38129e-16
3.40212e-16
3.41985e-16
3.4364e-16
3.45124e-16
3.46527e-16
3.47684e-16
3.48764e-16
3.49605e-16
3.50379e-16
3.50961e-16
3.51479e-16
3.51834e-16
3.52116e-16
3.52249e-16
3.52218e-16
3.52035e-16
3.51713e-16
3.51337e-16
3.50799e-16
3.50213e-16
3.49428e-16
3.48587e-16
3.47517e-16
3.46363e-16
3.44979e-16
3.43512e-16
3.4187e-16
3.40138e-16
3.38098e-16
3.35764e-16
3.33911e-16
3.31308e-16
3.30542e-16
3.28502e-16
3.29389e-16
3.29913e-16
3.3408e-16
3.39932e-16
3.49065e-16
)
;

boundaryField
{
    fuel
    {
        type            fixedValue;
        value           nonuniform 0();
    }
    wall
    {
        type            zeroGradient;
    }
    outlet
    {
        type            zeroGradient;
    }
    frontAndBack
    {
        type            empty;
    }
    procBoundary3to2
    {
        type            processor;
        value           nonuniform List<scalar> 
51
(
7.53436e-12
7.55167e-12
7.57052e-12
7.58345e-12
7.59861e-12
7.60752e-12
7.6181e-12
7.62352e-12
7.63018e-12
7.63302e-12
7.63657e-12
7.63766e-12
7.639e-12
7.63901e-12
7.6387e-12
7.63814e-12
7.63636e-12
7.63492e-12
7.63106e-12
7.62802e-12
7.62124e-12
7.61574e-12
7.6051e-12
7.59623e-12
7.58116e-12
7.56837e-12
7.54968e-12
7.53308e-12
7.51239e-12
7.49285e-12
7.48048e-12
7.46915e-12
7.48433e-12
7.50192e-12
7.57842e-12
7.68065e-12
7.82007e-12
8.06567e-12
8.22676e-12
6.45872e-12
6.32637e-12
6.1319e-12
6.02102e-12
5.94112e-12
5.88031e-12
5.86743e-12
5.85513e-12
5.86506e-12
5.87508e-12
5.8902e-12
5.8902e-12
)
;
    }
}


// ************************************************************************* //
