/*--------------------------------*- C++ -*----------------------------------*\
| =========                 |                                                 |
| \\      /  F ield         | OpenFOAM: The Open Source CFD Toolbox           |
|  \\    /   O peration     | Version:  dev                                   |
|   \\  /    A nd           | Web:      www.OpenFOAM.org                      |
|    \\/     M anipulation  |                                                 |
\*---------------------------------------------------------------------------*/
FoamFile
{
    version     2.0;
    format      ascii;
    class       volScalarField;
    location    "0.03";
    object      C2H;
}
// * * * * * * * * * * * * * * * * * * * * * * * * * * * * * * * * * * * * * //

dimensions      [0 0 0 0 0 0 0];

internalField   nonuniform List<scalar> 
250
(
1.11189e-05
1.1119e-05
1.1118e-05
1.11324e-05
1.11221e-05
1.11196e-05
1.11176e-05
1.11053e-05
1.09632e-05
7.83814e-06
2.1559e-09
1.01941e-05
1.01942e-05
1.01928e-05
1.01972e-05
1.01939e-05
1.01939e-05
1.01939e-05
1.01882e-05
1.00707e-05
7.65483e-06
3.34364e-09
6.96461e-06
6.96475e-06
6.96315e-06
6.96616e-06
6.96352e-06
6.96468e-06
6.96516e-06
6.96683e-06
6.86652e-06
5.06107e-06
2.73412e-09
4.67052e-06
4.67077e-06
4.6693e-06
4.67182e-06
4.66951e-06
4.67117e-06
4.67117e-06
4.68162e-06
4.58907e-06
3.23148e-06
1.95754e-09
3.32769e-06
3.32804e-06
3.32693e-06
3.32877e-06
3.32716e-06
3.32866e-06
3.32822e-06
3.35339e-06
3.2575e-06
2.21031e-06
1.44546e-09
2.56667e-06
2.56706e-06
2.56633e-06
2.56746e-06
2.5666e-06
2.5676e-06
2.56639e-06
2.55534e-06
2.4855e-06
1.57722e-06
1.12414e-09
2.12028e-06
2.12072e-06
2.12073e-06
2.12066e-06
2.1222e-06
2.1211e-06
2.12635e-06
2.12147e-06
2.04862e-06
1.28731e-06
1.03073e-09
1.82396e-06
1.82435e-06
1.82482e-06
1.82392e-06
1.82656e-06
1.82407e-06
1.83061e-06
1.83628e-06
1.7883e-06
1.13571e-06
1.19617e-09
1.6545e-06
1.65487e-06
1.65569e-06
1.65417e-06
1.65773e-06
1.65412e-06
1.66213e-06
1.66123e-06
1.60883e-06
1.0607e-06
2.28246e-09
1.53623e-06
1.53665e-06
1.53785e-06
1.53565e-06
1.54046e-06
1.53558e-06
1.54611e-06
1.54196e-06
1.48667e-06
1.01857e-06
7.74488e-09
1.43732e-06
1.43885e-06
1.43609e-06
1.44187e-06
1.43575e-06
1.44846e-06
1.4413e-06
1.40389e-06
1.00039e-06
2.67439e-08
1.35673e-06
1.35853e-06
1.3553e-06
1.36193e-06
1.35472e-06
1.36937e-06
1.35846e-06
1.32771e-06
9.90132e-07
7.71721e-08
1.28682e-06
1.28886e-06
1.28521e-06
1.29262e-06
1.28446e-06
1.3009e-06
1.28695e-06
1.26151e-06
9.80394e-07
1.72911e-07
1.22329e-06
1.22557e-06
1.22153e-06
1.22965e-06
1.22066e-06
1.23874e-06
1.22233e-06
1.20139e-06
9.66395e-07
3.15301e-07
1.16381e-06
1.1663e-06
1.16192e-06
1.17067e-06
1.16097e-06
1.18051e-06
1.16214e-06
1.14507e-06
9.42987e-07
4.86092e-07
1.10701e-06
1.1097e-06
1.105e-06
1.11432e-06
1.10401e-06
1.12484e-06
1.10491e-06
1.09126e-06
9.15277e-07
6.51422e-07
1.052e-06
1.05491e-06
1.0499e-06
1.05974e-06
1.04889e-06
1.07085e-06
1.04971e-06
1.03922e-06
8.76841e-07
7.76754e-07
9.98138e-07
1.0013e-06
9.95956e-07
1.00632e-06
9.94971e-07
1.01793e-06
9.95859e-07
9.88452e-07
8.3281e-07
8.4231e-07
9.44898e-07
9.48384e-07
9.42639e-07
9.53557e-07
9.41704e-07
9.65562e-07
9.42782e-07
9.38592e-07
7.87119e-07
8.47862e-07
8.91841e-07
8.95744e-07
8.89446e-07
9.01038e-07
8.8859e-07
9.13301e-07
8.89922e-07
8.89249e-07
7.46097e-07
8.07149e-07
8.38681e-07
8.43011e-07
8.3587e-07
8.48359e-07
8.35113e-07
8.60708e-07
8.36682e-07
8.40006e-07
7.0154e-07
7.38743e-07
7.85422e-07
7.89791e-07
7.81304e-07
7.951e-07
7.80656e-07
8.07346e-07
7.82303e-07
7.90433e-07
6.58883e-07
6.59231e-07
7.32039e-07
7.35522e-07
7.31346e-07
7.40726e-07
7.30852e-07
7.52703e-07
7.33136e-07
7.40112e-07
6.1726e-07
5.80106e-07
6.82444e-07
6.85787e-07
6.79902e-07
6.90948e-07
6.78593e-07
7.0263e-07
6.82063e-07
6.88325e-07
5.76515e-07
5.0767e-07
)
;

boundaryField
{
    fuel
    {
        type            fixedValue;
        value           uniform 0;
    }
    wall
    {
        type            zeroGradient;
    }
    outlet
    {
        type            zeroGradient;
    }
    frontAndBack
    {
        type            empty;
    }
    procBoundary3to0
    {
        type            processor;
        value           nonuniform List<scalar> 10(6.31492e-07 6.35137e-07 6.28297e-07 6.40271e-07 6.27028e-07 6.51585e-07 6.31401e-07 6.40343e-07 5.32214e-07 4.44308e-07);
    }
    procBoundary3to2
    {
        type            processor;
        value           nonuniform List<scalar> 
25
(
1.11222e-05
1.01938e-05
6.9633e-06
4.66945e-06
3.32719e-06
2.56668e-06
2.12122e-06
1.82527e-06
1.65613e-06
1.53833e-06
1.43696e-06
1.43696e-06
1.35639e-06
1.28649e-06
1.22299e-06
1.16354e-06
1.10676e-06
1.05178e-06
9.9794e-07
9.44725e-07
8.91693e-07
8.38559e-07
7.85327e-07
7.31973e-07
6.82384e-07
)
;
    }
}


// ************************************************************************* //
