/*--------------------------------*- C++ -*----------------------------------*\
| =========                 |                                                 |
| \\      /  F ield         | OpenFOAM: The Open Source CFD Toolbox           |
|  \\    /   O peration     | Version:  dev                                   |
|   \\  /    A nd           | Web:      www.OpenFOAM.org                      |
|    \\/     M anipulation  |                                                 |
\*---------------------------------------------------------------------------*/
FoamFile
{
    version     2.0;
    format      ascii;
    class       volScalarField;
    location    "0.03";
    object      C2O;
}
// * * * * * * * * * * * * * * * * * * * * * * * * * * * * * * * * * * * * * //

dimensions      [0 0 0 0 0 0 0];

internalField   nonuniform List<scalar> 
1989
(
1.47616e-08
1.47648e-08
1.47702e-08
1.47719e-08
1.47757e-08
1.4776e-08
1.4778e-08
1.47772e-08
1.47778e-08
1.47766e-08
1.47764e-08
1.47751e-08
1.47747e-08
1.4774e-08
1.47738e-08
1.47741e-08
1.47743e-08
1.47753e-08
1.47753e-08
1.47764e-08
1.47757e-08
1.47763e-08
1.47743e-08
1.47739e-08
1.47701e-08
1.47684e-08
1.47631e-08
1.476e-08
1.47549e-08
1.47512e-08
1.47521e-08
1.47532e-08
1.47727e-08
1.47915e-08
1.48494e-08
1.49212e-08
1.50167e-08
1.51764e-08
1.52853e-08
1.40644e-08
1.39612e-08
1.38148e-08
1.37272e-08
1.36622e-08
1.36087e-08
1.3592e-08
1.35736e-08
1.35728e-08
1.35717e-08
1.35747e-08
1.35798e-08
1.35825e-08
1.35871e-08
1.35884e-08
1.35916e-08
1.35917e-08
1.35933e-08
1.35924e-08
1.35929e-08
1.35916e-08
1.35913e-08
1.35901e-08
1.35896e-08
1.3589e-08
1.35888e-08
1.35891e-08
1.35893e-08
1.35903e-08
1.35904e-08
1.35915e-08
1.3591e-08
1.35918e-08
1.35901e-08
1.359e-08
1.35868e-08
1.35854e-08
1.35809e-08
1.35784e-08
1.3574e-08
1.3571e-08
1.35722e-08
1.35734e-08
1.3592e-08
1.36091e-08
1.36626e-08
1.37283e-08
1.38162e-08
1.39635e-08
1.40661e-08
1.29371e-08
1.284e-08
1.2705e-08
1.26245e-08
1.25651e-08
1.25157e-08
1.25006e-08
1.24832e-08
1.24823e-08
1.24809e-08
1.24833e-08
1.24876e-08
1.24897e-08
1.24937e-08
1.24946e-08
1.24974e-08
1.24972e-08
1.24985e-08
1.24976e-08
1.24978e-08
1.24965e-08
1.24962e-08
1.2495e-08
1.24946e-08
1.24939e-08
1.24938e-08
1.24941e-08
1.24943e-08
1.24953e-08
1.24955e-08
1.24966e-08
1.24963e-08
1.24971e-08
1.24957e-08
1.24959e-08
1.24931e-08
1.24922e-08
1.24882e-08
1.24863e-08
1.24825e-08
1.24801e-08
1.24817e-08
1.24829e-08
1.25005e-08
1.25159e-08
1.25654e-08
1.26255e-08
1.27061e-08
1.28418e-08
1.29385e-08
1.18942e-08
1.17989e-08
1.16686e-08
1.15922e-08
1.15356e-08
1.14892e-08
1.1475e-08
1.14582e-08
1.1457e-08
1.14553e-08
1.14574e-08
1.14608e-08
1.14626e-08
1.1466e-08
1.14666e-08
1.14689e-08
1.14685e-08
1.14696e-08
1.14685e-08
1.14686e-08
1.14673e-08
1.14669e-08
1.14657e-08
1.14652e-08
1.14646e-08
1.14645e-08
1.14648e-08
1.1465e-08
1.1466e-08
1.14663e-08
1.14675e-08
1.14673e-08
1.14683e-08
1.14672e-08
1.14675e-08
1.14651e-08
1.14645e-08
1.14612e-08
1.14595e-08
1.14564e-08
1.14544e-08
1.14563e-08
1.14577e-08
1.14748e-08
1.14893e-08
1.15358e-08
1.15931e-08
1.16696e-08
1.18005e-08
1.18954e-08
1.0929e-08
1.08393e-08
1.07179e-08
1.06477e-08
1.05961e-08
1.0553e-08
1.05402e-08
1.05242e-08
1.05231e-08
1.05212e-08
1.05229e-08
1.05257e-08
1.05271e-08
1.053e-08
1.05303e-08
1.05323e-08
1.05317e-08
1.05326e-08
1.05314e-08
1.05314e-08
1.05301e-08
1.05297e-08
1.05285e-08
1.0528e-08
1.05275e-08
1.05273e-08
1.05276e-08
1.05279e-08
1.05289e-08
1.05292e-08
1.05304e-08
1.05303e-08
1.05313e-08
1.05305e-08
1.0531e-08
1.0529e-08
1.05286e-08
1.05258e-08
1.05245e-08
1.05219e-08
1.05204e-08
1.05224e-08
1.05238e-08
1.054e-08
1.05531e-08
1.05962e-08
1.06484e-08
1.07188e-08
1.08406e-08
1.09301e-08
1.00283e-08
9.94291e-09
9.82754e-09
9.76215e-09
9.71514e-09
9.67485e-09
9.66325e-09
9.64818e-09
9.64716e-09
9.64522e-09
9.64668e-09
9.64915e-09
9.65025e-09
9.65281e-09
9.65299e-09
9.65472e-09
9.65411e-09
9.65479e-09
9.65367e-09
9.6536e-09
9.65233e-09
9.65187e-09
9.65078e-09
9.65031e-09
9.64977e-09
9.64963e-09
9.64994e-09
9.65021e-09
9.65114e-09
9.65147e-09
9.65263e-09
9.65261e-09
9.65366e-09
9.65292e-09
9.65348e-09
9.65174e-09
9.65156e-09
9.64902e-09
9.64802e-09
9.64578e-09
9.64444e-09
9.64654e-09
9.64773e-09
9.66302e-09
9.67484e-09
9.71524e-09
9.76279e-09
9.82832e-09
9.94399e-09
1.00293e-08
9.18051e-09
9.10101e-09
8.99206e-09
8.93205e-09
8.88996e-09
8.85267e-09
8.84221e-09
8.82813e-09
8.82714e-09
8.82513e-09
8.82628e-09
8.82832e-09
8.82913e-09
8.83129e-09
8.83128e-09
8.8327e-09
8.83201e-09
8.83251e-09
8.83138e-09
8.83122e-09
8.82999e-09
8.8295e-09
8.82846e-09
8.828e-09
8.82748e-09
8.82735e-09
8.82765e-09
8.82794e-09
8.82883e-09
8.82919e-09
8.83033e-09
8.83041e-09
8.83147e-09
8.83091e-09
8.83157e-09
8.83013e-09
8.83013e-09
8.82799e-09
8.82726e-09
8.82543e-09
8.82438e-09
8.82654e-09
8.82768e-09
8.84196e-09
8.85263e-09
8.89003e-09
8.93259e-09
8.99273e-09
9.10189e-09
9.18134e-09
8.39279e-09
8.31966e-09
8.23174e-09
8.17661e-09
8.13882e-09
8.10402e-09
8.09469e-09
8.08138e-09
8.08048e-09
8.07839e-09
8.0793e-09
8.08096e-09
8.08152e-09
8.08335e-09
8.08317e-09
8.08435e-09
8.08358e-09
8.08393e-09
8.08279e-09
8.08257e-09
8.08137e-09
8.08087e-09
8.07987e-09
8.07942e-09
8.07893e-09
8.07881e-09
8.0791e-09
8.07939e-09
8.08026e-09
8.08064e-09
8.08176e-09
8.0819e-09
8.08297e-09
8.08257e-09
8.0833e-09
8.08211e-09
8.08228e-09
8.08046e-09
8.07998e-09
8.07849e-09
8.07768e-09
8.0799e-09
8.08095e-09
8.09443e-09
8.10395e-09
8.13886e-09
8.17706e-09
8.2323e-09
8.3204e-09
8.39351e-09
7.67588e-09
7.60789e-09
7.52283e-09
7.47069e-09
7.43617e-09
7.40335e-09
7.39518e-09
7.3827e-09
7.3822e-09
7.38035e-09
7.38139e-09
7.38306e-09
7.38369e-09
7.38554e-09
7.38547e-09
7.3867e-09
7.38606e-09
7.38651e-09
7.38551e-09
7.38539e-09
7.38431e-09
7.38391e-09
7.38301e-09
7.38262e-09
7.38218e-09
7.38206e-09
7.38232e-09
7.38255e-09
7.38332e-09
7.38361e-09
7.3846e-09
7.38465e-09
7.38558e-09
7.38509e-09
7.38569e-09
7.38445e-09
7.38452e-09
7.38268e-09
7.38212e-09
7.3806e-09
7.37967e-09
7.38165e-09
7.38229e-09
7.39495e-09
7.40332e-09
7.43626e-09
7.47115e-09
7.52338e-09
7.60856e-09
7.6765e-09
6.99634e-09
6.93289e-09
6.85367e-09
6.80552e-09
6.77453e-09
6.74426e-09
6.73701e-09
6.72539e-09
6.72496e-09
6.72314e-09
6.72401e-09
6.72541e-09
6.72587e-09
6.72747e-09
6.72731e-09
6.72835e-09
6.72768e-09
6.72802e-09
6.72705e-09
6.72689e-09
6.72586e-09
6.72546e-09
6.72461e-09
6.72424e-09
6.72382e-09
6.72372e-09
6.72396e-09
6.72419e-09
6.72492e-09
6.72522e-09
6.72617e-09
6.72626e-09
6.72717e-09
6.72679e-09
6.72742e-09
6.72637e-09
6.72652e-09
6.72494e-09
6.72453e-09
6.72326e-09
6.72249e-09
6.72444e-09
6.72499e-09
6.73678e-09
6.74421e-09
6.77461e-09
6.80592e-09
6.85415e-09
6.93346e-09
6.99688e-09
6.36335e-09
6.30369e-09
6.23096e-09
6.1862e-09
6.15843e-09
6.13061e-09
6.1242e-09
6.11341e-09
6.11306e-09
6.11128e-09
6.11201e-09
6.11318e-09
6.11351e-09
6.11488e-09
6.11465e-09
6.11553e-09
6.11486e-09
6.11511e-09
6.11417e-09
6.11398e-09
6.113e-09
6.11261e-09
6.11181e-09
6.11146e-09
6.11107e-09
6.11097e-09
6.1112e-09
6.11142e-09
6.11211e-09
6.11241e-09
6.11332e-09
6.11344e-09
6.11432e-09
6.11403e-09
6.11468e-09
6.11379e-09
6.11401e-09
6.11265e-09
6.11237e-09
6.11131e-09
6.11068e-09
6.11258e-09
6.11304e-09
6.12397e-09
6.13055e-09
6.1585e-09
6.18655e-09
6.23139e-09
6.30416e-09
6.36384e-09
5.78427e-09
5.72807e-09
5.66128e-09
5.61936e-09
5.59453e-09
5.56881e-09
5.56324e-09
5.55315e-09
5.55291e-09
5.55116e-09
5.55177e-09
5.55275e-09
5.55297e-09
5.55415e-09
5.55386e-09
5.5546e-09
5.55392e-09
5.55411e-09
5.5532e-09
5.55299e-09
5.55207e-09
5.55168e-09
5.55093e-09
5.5506e-09
5.55024e-09
5.55015e-09
5.55036e-09
5.55058e-09
5.55123e-09
5.55153e-09
5.55238e-09
5.55253e-09
5.55339e-09
5.55316e-09
5.55382e-09
5.55306e-09
5.55335e-09
5.55217e-09
5.552e-09
5.55112e-09
5.5506e-09
5.55246e-09
5.5528e-09
5.56303e-09
5.56875e-09
5.5946e-09
5.61966e-09
5.66167e-09
5.72845e-09
5.78473e-09
5.24594e-09
5.19049e-09
5.12876e-09
5.08791e-09
5.0653e-09
5.04127e-09
5.03638e-09
5.02691e-09
5.02682e-09
5.02516e-09
5.02573e-09
5.02661e-09
5.0268e-09
5.02789e-09
5.0276e-09
5.02829e-09
5.02764e-09
5.02781e-09
5.02696e-09
5.02676e-09
5.0259e-09
5.02554e-09
5.02483e-09
5.02452e-09
5.02418e-09
5.0241e-09
5.0243e-09
5.0245e-09
5.02511e-09
5.02539e-09
5.02619e-09
5.02633e-09
5.02713e-09
5.02693e-09
5.02755e-09
5.02685e-09
5.02713e-09
5.02605e-09
5.02591e-09
5.0251e-09
5.02459e-09
5.02636e-09
5.02655e-09
5.03616e-09
5.0412e-09
5.06536e-09
5.08818e-09
5.12912e-09
5.19081e-09
5.24637e-09
4.73732e-09
4.68435e-09
4.62977e-09
4.59942e-09
4.57933e-09
4.55724e-09
4.55306e-09
4.54425e-09
4.54425e-09
4.54264e-09
4.54313e-09
4.54387e-09
4.54397e-09
4.54491e-09
4.54459e-09
4.54517e-09
4.54453e-09
4.54466e-09
4.54384e-09
4.54364e-09
4.54283e-09
4.54248e-09
4.54183e-09
4.54154e-09
4.54122e-09
4.54114e-09
4.54133e-09
4.54152e-09
4.54209e-09
4.54236e-09
4.54312e-09
4.54326e-09
4.54403e-09
4.54388e-09
4.54449e-09
4.5439e-09
4.54422e-09
4.54328e-09
4.54322e-09
4.54255e-09
4.54212e-09
4.54382e-09
4.54392e-09
4.55285e-09
4.55717e-09
4.57938e-09
4.59966e-09
4.6301e-09
4.68471e-09
4.73763e-09
4.27469e-09
4.22495e-09
4.17627e-09
4.14791e-09
4.13013e-09
4.10993e-09
4.10638e-09
4.09822e-09
4.0983e-09
4.09675e-09
4.09716e-09
4.09776e-09
4.09779e-09
4.0986e-09
4.09825e-09
4.09874e-09
4.09811e-09
4.09819e-09
4.09742e-09
4.09722e-09
4.09645e-09
4.09613e-09
4.09552e-09
4.09525e-09
4.09496e-09
4.09489e-09
4.09506e-09
4.09524e-09
4.09577e-09
4.09603e-09
4.09674e-09
4.09689e-09
4.09762e-09
4.09751e-09
4.09812e-09
4.09762e-09
4.09796e-09
4.09716e-09
4.09716e-09
4.09662e-09
4.09627e-09
4.0979e-09
4.09791e-09
4.10618e-09
4.10986e-09
4.13018e-09
4.14812e-09
4.17657e-09
4.22505e-09
4.27518e-09
3.84785e-09
3.80194e-09
3.75842e-09
3.73214e-09
3.71649e-09
3.6981e-09
3.69513e-09
3.6876e-09
3.68773e-09
3.68625e-09
3.68659e-09
3.68707e-09
3.68704e-09
3.68772e-09
3.68734e-09
3.68774e-09
3.68713e-09
3.68718e-09
3.68645e-09
3.68624e-09
3.68553e-09
3.68522e-09
3.68466e-09
3.68441e-09
3.68414e-09
3.68408e-09
3.68424e-09
3.68441e-09
3.6849e-09
3.68514e-09
3.68581e-09
3.68596e-09
3.68666e-09
3.68659e-09
3.68718e-09
3.68677e-09
3.68714e-09
3.68646e-09
3.68652e-09
3.68609e-09
3.68581e-09
3.68737e-09
3.68732e-09
3.69494e-09
3.69803e-09
3.71653e-09
3.73233e-09
3.75871e-09
3.80189e-09
3.84842e-09
3.45569e-09
3.41412e-09
3.37403e-09
3.34939e-09
3.3354e-09
3.31852e-09
3.31611e-09
3.30919e-09
3.3095e-09
3.30819e-09
3.30861e-09
3.30911e-09
3.30914e-09
3.30982e-09
3.30952e-09
3.30995e-09
3.30943e-09
3.30952e-09
3.30888e-09
3.30872e-09
3.3081e-09
3.30784e-09
3.30734e-09
3.30713e-09
3.30689e-09
3.30682e-09
3.30696e-09
3.3071e-09
3.30754e-09
3.30773e-09
3.30832e-09
3.30842e-09
3.30903e-09
3.30892e-09
3.30942e-09
3.30899e-09
3.30928e-09
3.3086e-09
3.3086e-09
3.30814e-09
3.30778e-09
3.30916e-09
3.30893e-09
3.31594e-09
3.31847e-09
3.33546e-09
3.34959e-09
3.37436e-09
3.41398e-09
3.45628e-09
3.09724e-09
3.06002e-09
3.02379e-09
3.00139e-09
2.98917e-09
2.97395e-09
2.97198e-09
2.96566e-09
2.96601e-09
2.96478e-09
2.96514e-09
2.96555e-09
2.96553e-09
2.96612e-09
2.96581e-09
2.96617e-09
2.96567e-09
2.96573e-09
2.96514e-09
2.96499e-09
2.96441e-09
2.96417e-09
2.96371e-09
2.96352e-09
2.96331e-09
2.96325e-09
2.96337e-09
2.9635e-09
2.9639e-09
2.96408e-09
2.96462e-09
2.96472e-09
2.96529e-09
2.96521e-09
2.96569e-09
2.96532e-09
2.96562e-09
2.96504e-09
2.96508e-09
2.96471e-09
2.96441e-09
2.9657e-09
2.96542e-09
2.97184e-09
2.97391e-09
2.98923e-09
3.00157e-09
3.02412e-09
3.05977e-09
3.09791e-09
2.77143e-09
2.73798e-09
2.7054e-09
2.68524e-09
2.67463e-09
2.66097e-09
2.6594e-09
2.65365e-09
2.65403e-09
2.65289e-09
2.6532e-09
2.65353e-09
2.65348e-09
2.65398e-09
2.65367e-09
2.65397e-09
2.6535e-09
2.65354e-09
2.65299e-09
2.65284e-09
2.65231e-09
2.65209e-09
2.65168e-09
2.6515e-09
2.65131e-09
2.65125e-09
2.65137e-09
2.65148e-09
2.65184e-09
2.65201e-09
2.6525e-09
2.65261e-09
2.65313e-09
2.65308e-09
2.65353e-09
2.65323e-09
2.65353e-09
2.65303e-09
2.6531e-09
2.65281e-09
2.65255e-09
2.65375e-09
2.65344e-09
2.65927e-09
2.66094e-09
2.67469e-09
2.68542e-09
2.70572e-09
2.73764e-09
2.77215e-09
2.4767e-09
2.44636e-09
2.41728e-09
2.39931e-09
2.39013e-09
2.37794e-09
2.37672e-09
2.37151e-09
2.37192e-09
2.37086e-09
2.37113e-09
2.3714e-09
2.37133e-09
2.37175e-09
2.37145e-09
2.3717e-09
2.37126e-09
2.37128e-09
2.37078e-09
2.37064e-09
2.37016e-09
2.36996e-09
2.36958e-09
2.36942e-09
2.36925e-09
2.3692e-09
2.3693e-09
2.36941e-09
2.36973e-09
2.36989e-09
2.37033e-09
2.37044e-09
2.37092e-09
2.37088e-09
2.37131e-09
2.37105e-09
2.37134e-09
2.37093e-09
2.37102e-09
2.37078e-09
2.37055e-09
2.37167e-09
2.37132e-09
2.3766e-09
2.37792e-09
2.3902e-09
2.39947e-09
2.41758e-09
2.44597e-09
2.47747e-09
2.21086e-09
2.18355e-09
2.15774e-09
2.14169e-09
2.1338e-09
2.12296e-09
2.12204e-09
2.11736e-09
2.11778e-09
2.11682e-09
2.11706e-09
2.11729e-09
2.1172e-09
2.11756e-09
2.11728e-09
2.11749e-09
2.11708e-09
2.11709e-09
2.11664e-09
2.1165e-09
2.11607e-09
2.11589e-09
2.11556e-09
2.11541e-09
2.11526e-09
2.11522e-09
2.1153e-09
2.1154e-09
2.11569e-09
2.11583e-09
2.11623e-09
2.11633e-09
2.11676e-09
2.11674e-09
2.11713e-09
2.11692e-09
2.11719e-09
2.11684e-09
2.11694e-09
2.11675e-09
2.11654e-09
2.11756e-09
2.11719e-09
2.12195e-09
2.12295e-09
2.13387e-09
2.14185e-09
2.15802e-09
2.18317e-09
2.21164e-09
1.9719e-09
1.94762e-09
1.92456e-09
1.91028e-09
1.90353e-09
1.89394e-09
1.89329e-09
1.88909e-09
1.88954e-09
1.88867e-09
1.88891e-09
1.8891e-09
1.88901e-09
1.88932e-09
1.88906e-09
1.88924e-09
1.88888e-09
1.88888e-09
1.88847e-09
1.88835e-09
1.88797e-09
1.88781e-09
1.88751e-09
1.88739e-09
1.88725e-09
1.88721e-09
1.88729e-09
1.88736e-09
1.88762e-09
1.88775e-09
1.88811e-09
1.88819e-09
1.88858e-09
1.88857e-09
1.88892e-09
1.88873e-09
1.88899e-09
1.88868e-09
1.88878e-09
1.88862e-09
1.88843e-09
1.88934e-09
1.88895e-09
1.89321e-09
1.89394e-09
1.90361e-09
1.91044e-09
1.92482e-09
1.94729e-09
1.97266e-09
1.75438e-09
1.73308e-09
1.71546e-09
1.70282e-09
1.69708e-09
1.68862e-09
1.6882e-09
1.68446e-09
1.68493e-09
1.68417e-09
1.6844e-09
1.68457e-09
1.6845e-09
1.68478e-09
1.68455e-09
1.68471e-09
1.68439e-09
1.68439e-09
1.68403e-09
1.68393e-09
1.68359e-09
1.68345e-09
1.68319e-09
1.68308e-09
1.68296e-09
1.68293e-09
1.68299e-09
1.68306e-09
1.68328e-09
1.68339e-09
1.6837e-09
1.68378e-09
1.68412e-09
1.6841e-09
1.68442e-09
1.68425e-09
1.68448e-09
1.6842e-09
1.68429e-09
1.68414e-09
1.68395e-09
1.68476e-09
1.68433e-09
1.68813e-09
1.68863e-09
1.69716e-09
1.70298e-09
1.7157e-09
1.7328e-09
1.75512e-09
1.56229e-09
1.54356e-09
1.52814e-09
1.51693e-09
1.51207e-09
1.50464e-09
1.50442e-09
1.5011e-09
1.50161e-09
1.50095e-09
1.50119e-09
1.50137e-09
1.50132e-09
1.50157e-09
1.50138e-09
1.50153e-09
1.50126e-09
1.50128e-09
1.50096e-09
1.50088e-09
1.50059e-09
1.50047e-09
1.50024e-09
1.50015e-09
1.50005e-09
1.50002e-09
1.50007e-09
1.50012e-09
1.50031e-09
1.5004e-09
1.50067e-09
1.50073e-09
1.50103e-09
1.501e-09
1.50127e-09
1.50111e-09
1.5013e-09
1.50105e-09
1.50111e-09
1.50097e-09
1.50076e-09
1.50146e-09
1.501e-09
1.50437e-09
1.50466e-09
1.51216e-09
1.5171e-09
1.52836e-09
1.54346e-09
1.5629e-09
1.38872e-09
1.37205e-09
1.35861e-09
1.34872e-09
1.34458e-09
1.33811e-09
1.33804e-09
1.33515e-09
1.33569e-09
1.33515e-09
1.33542e-09
1.33561e-09
1.33559e-09
1.33584e-09
1.3357e-09
1.33586e-09
1.33563e-09
1.33567e-09
1.33541e-09
1.33535e-09
1.3351e-09
1.33501e-09
1.33482e-09
1.33474e-09
1.33466e-09
1.33463e-09
1.33467e-09
1.33471e-09
1.33487e-09
1.33493e-09
1.33516e-09
1.3352e-09
1.33544e-09
1.3354e-09
1.33562e-09
1.33545e-09
1.3356e-09
1.33535e-09
1.33538e-09
1.33521e-09
1.33498e-09
1.33556e-09
1.33507e-09
1.33802e-09
1.33815e-09
1.34468e-09
1.34889e-09
1.35883e-09
1.37208e-09
1.38926e-09
1.2341e-09
1.21918e-09
1.20755e-09
1.19882e-09
1.19535e-09
1.18971e-09
1.18981e-09
1.18727e-09
1.18786e-09
1.18742e-09
1.18772e-09
1.18794e-09
1.18796e-09
1.18821e-09
1.18812e-09
1.18829e-09
1.18812e-09
1.18817e-09
1.18796e-09
1.18793e-09
1.18773e-09
1.18766e-09
1.1875e-09
1.18744e-09
1.18737e-09
1.18735e-09
1.18738e-09
1.1874e-09
1.18753e-09
1.18757e-09
1.18775e-09
1.18777e-09
1.18796e-09
1.1879e-09
1.18807e-09
1.1879e-09
1.18799e-09
1.18774e-09
1.18773e-09
1.18754e-09
1.18727e-09
1.18775e-09
1.18721e-09
1.18979e-09
1.18976e-09
1.19547e-09
1.199e-09
1.20776e-09
1.21928e-09
1.23462e-09
1.0947e-09
1.08125e-09
1.07091e-09
1.06306e-09
1.06011e-09
1.05515e-09
1.05541e-09
1.05321e-09
1.05387e-09
1.05357e-09
1.05395e-09
1.05423e-09
1.05432e-09
1.05461e-09
1.05459e-09
1.0548e-09
1.05469e-09
1.05479e-09
1.05464e-09
1.05465e-09
1.05449e-09
1.05446e-09
1.05434e-09
1.0543e-09
1.05424e-09
1.05422e-09
1.05424e-09
1.05424e-09
1.05434e-09
1.05435e-09
1.05448e-09
1.05446e-09
1.0546e-09
1.0545e-09
1.0546e-09
1.05439e-09
1.05441e-09
1.05412e-09
1.05404e-09
1.05378e-09
1.05344e-09
1.05378e-09
1.05317e-09
1.05542e-09
1.05522e-09
1.06024e-09
1.06325e-09
1.07109e-09
1.08153e-09
1.09511e-09
9.68548e-10
9.56624e-10
9.47587e-10
9.40643e-10
9.38197e-10
9.33899e-10
9.34284e-10
9.32395e-10
9.33106e-10
9.3291e-10
9.33332e-10
9.33652e-10
9.3379e-10
9.34101e-10
9.34137e-10
9.34366e-10
9.34317e-10
9.34436e-10
9.34339e-10
9.34374e-10
9.34263e-10
9.34252e-10
9.34161e-10
9.34138e-10
9.34096e-10
9.34075e-10
9.3408e-10
9.34069e-10
9.34138e-10
9.34128e-10
9.34222e-10
9.34175e-10
9.34262e-10
9.34134e-10
9.34181e-10
9.3395e-10
9.33919e-10
9.33612e-10
9.33486e-10
9.33188e-10
9.32801e-10
9.33033e-10
9.32365e-10
9.34306e-10
9.3398e-10
9.38337e-10
9.40844e-10
9.4781e-10
9.56868e-10
9.68996e-10
8.53963e-10
8.43362e-10
8.3549e-10
8.29349e-10
8.27339e-10
8.23628e-10
8.24126e-10
8.22518e-10
8.23277e-10
8.23185e-10
8.23658e-10
8.24019e-10
8.24207e-10
8.24541e-10
8.24631e-10
8.24885e-10
8.24888e-10
8.25034e-10
8.24985e-10
8.25048e-10
8.24977e-10
8.24991e-10
8.24927e-10
8.2492e-10
8.2489e-10
8.24871e-10
8.24867e-10
8.24842e-10
8.24883e-10
8.24851e-10
8.24908e-10
8.24834e-10
8.24875e-10
8.24721e-10
8.24715e-10
8.24461e-10
8.24376e-10
8.24047e-10
8.23872e-10
8.2353e-10
8.23094e-10
8.23221e-10
8.22504e-10
8.24162e-10
8.23722e-10
8.27489e-10
8.2956e-10
8.35738e-10
8.43729e-10
8.54297e-10
7.49461e-10
7.40028e-10
7.33193e-10
7.27771e-10
7.26139e-10
7.22955e-10
7.23548e-10
7.22197e-10
7.23001e-10
7.23007e-10
7.23527e-10
7.23932e-10
7.24168e-10
7.24526e-10
7.24668e-10
7.24946e-10
7.25e-10
7.25173e-10
7.25169e-10
7.25258e-10
7.25224e-10
7.2526e-10
7.25223e-10
7.25231e-10
7.25211e-10
7.25194e-10
7.2518e-10
7.25143e-10
7.2516e-10
7.25107e-10
7.25128e-10
7.2503e-10
7.25027e-10
7.24847e-10
7.24792e-10
7.24514e-10
7.24377e-10
7.24025e-10
7.23803e-10
7.23416e-10
7.22931e-10
7.2296e-10
7.22197e-10
7.23597e-10
7.2306e-10
7.26298e-10
7.27989e-10
7.33458e-10
7.40467e-10
7.49733e-10
6.53838e-10
6.45437e-10
6.39536e-10
6.34764e-10
6.3346e-10
6.30749e-10
6.3142e-10
6.30303e-10
6.31145e-10
6.3124e-10
6.31803e-10
6.32251e-10
6.32531e-10
6.3291e-10
6.331e-10
6.33402e-10
6.33502e-10
6.337e-10
6.33737e-10
6.3385e-10
6.33849e-10
6.33906e-10
6.33892e-10
6.33913e-10
6.33904e-10
6.33887e-10
6.33866e-10
6.33817e-10
6.33812e-10
6.3374e-10
6.33729e-10
6.33609e-10
6.33566e-10
6.33362e-10
6.33261e-10
6.32961e-10
6.32777e-10
6.32403e-10
6.32137e-10
6.31707e-10
6.31179e-10
6.31118e-10
6.30317e-10
6.31481e-10
6.30865e-10
6.33627e-10
6.34988e-10
6.3981e-10
6.45918e-10
6.54075e-10
5.66163e-10
5.58665e-10
5.53621e-10
5.49443e-10
5.48424e-10
5.46141e-10
5.46869e-10
5.45967e-10
5.46836e-10
5.4701e-10
5.47609e-10
5.48091e-10
5.4841e-10
5.48808e-10
5.4904e-10
5.49361e-10
5.49502e-10
5.49721e-10
5.49794e-10
5.49928e-10
5.49957e-10
5.50031e-10
5.50039e-10
5.5007e-10
5.5007e-10
5.50055e-10
5.50027e-10
5.49969e-10
5.49944e-10
5.49856e-10
5.49817e-10
5.49677e-10
5.49598e-10
5.49375e-10
5.49234e-10
5.48915e-10
5.48689e-10
5.48297e-10
5.47992e-10
5.47527e-10
5.46961e-10
5.46821e-10
5.45992e-10
5.46941e-10
5.46264e-10
5.48597e-10
5.49671e-10
5.539e-10
5.59165e-10
5.6638e-10
4.85657e-10
4.79178e-10
4.74817e-10
4.7119e-10
4.70416e-10
4.68521e-10
4.69286e-10
4.68579e-10
4.69462e-10
4.69703e-10
4.70326e-10
4.70837e-10
4.71187e-10
4.71596e-10
4.71864e-10
4.72199e-10
4.72375e-10
4.72609e-10
4.72714e-10
4.72864e-10
4.72918e-10
4.73006e-10
4.73032e-10
4.73074e-10
4.73081e-10
4.73067e-10
4.73033e-10
4.72967e-10
4.72926e-10
4.72826e-10
4.72762e-10
4.72606e-10
4.72498e-10
4.7226e-10
4.72084e-10
4.71752e-10
4.71491e-10
4.71087e-10
4.70747e-10
4.70261e-10
4.69666e-10
4.69458e-10
4.68614e-10
4.69366e-10
4.68649e-10
4.70593e-10
4.71419e-10
4.75095e-10
4.79636e-10
4.85907e-10
4.12047e-10
4.06492e-10
4.02764e-10
3.99651e-10
3.99086e-10
3.97544e-10
3.98325e-10
3.97795e-10
3.98675e-10
3.98971e-10
3.99608e-10
4.00134e-10
4.00507e-10
4.00922e-10
4.01216e-10
4.01558e-10
4.01762e-10
4.02007e-10
4.02137e-10
4.02298e-10
4.02374e-10
4.02473e-10
4.02513e-10
4.02562e-10
4.02576e-10
4.02563e-10
4.02524e-10
4.02453e-10
4.02399e-10
4.02289e-10
4.02205e-10
4.02039e-10
4.01906e-10
4.01659e-10
4.01457e-10
4.01118e-10
4.00829e-10
4.0042e-10
4.00056e-10
3.99555e-10
3.98945e-10
3.98681e-10
3.97838e-10
3.98411e-10
3.97676e-10
3.99265e-10
3.99878e-10
4.03038e-10
4.06898e-10
4.12331e-10
3.45219e-10
3.40503e-10
3.37363e-10
3.34734e-10
3.34345e-10
3.33124e-10
3.33898e-10
3.33528e-10
3.34389e-10
3.34726e-10
3.35361e-10
3.35896e-10
3.36281e-10
3.36693e-10
3.37005e-10
3.37347e-10
3.37571e-10
3.37821e-10
3.37969e-10
3.38138e-10
3.38229e-10
3.38335e-10
3.38388e-10
3.38443e-10
3.38462e-10
3.38449e-10
3.38407e-10
3.38333e-10
3.38268e-10
3.38153e-10
3.38054e-10
3.37881e-10
3.37731e-10
3.3748e-10
3.37258e-10
3.36919e-10
3.36612e-10
3.36206e-10
3.3583e-10
3.3532e-10
3.3471e-10
3.34403e-10
3.33577e-10
3.33987e-10
3.33257e-10
3.34521e-10
3.34957e-10
3.37629e-10
3.40863e-10
3.45523e-10
2.85324e-10
2.81369e-10
2.7877e-10
2.76595e-10
2.76348e-10
2.75418e-10
2.76163e-10
2.75938e-10
2.76763e-10
2.7713e-10
2.77753e-10
2.78279e-10
2.78669e-10
2.79071e-10
2.79392e-10
2.79728e-10
2.79964e-10
2.80213e-10
2.80374e-10
2.80545e-10
2.80648e-10
2.80758e-10
2.80819e-10
2.80877e-10
2.809e-10
2.80888e-10
2.80845e-10
2.80769e-10
2.80697e-10
2.80579e-10
2.8047e-10
2.80296e-10
2.80133e-10
2.79884e-10
2.7965e-10
2.79318e-10
2.79002e-10
2.78606e-10
2.78225e-10
2.77721e-10
2.77121e-10
2.76784e-10
2.75992e-10
2.76254e-10
2.75549e-10
2.76521e-10
2.7681e-10
2.79025e-10
2.81692e-10
2.85634e-10
2.32792e-10
2.2952e-10
2.27408e-10
2.25653e-10
2.25517e-10
2.24845e-10
2.25544e-10
2.25446e-10
2.26221e-10
2.26606e-10
2.27206e-10
2.27712e-10
2.281e-10
2.28486e-10
2.28808e-10
2.29132e-10
2.29373e-10
2.29616e-10
2.29784e-10
2.29953e-10
2.30063e-10
2.30174e-10
2.30241e-10
2.303e-10
2.30326e-10
2.30314e-10
2.30271e-10
2.30196e-10
2.3012e-10
2.30002e-10
2.29887e-10
2.29715e-10
2.29546e-10
2.29304e-10
2.29065e-10
2.28745e-10
2.28428e-10
2.28048e-10
2.2767e-10
2.27183e-10
2.26604e-10
2.26247e-10
2.25503e-10
2.25635e-10
2.24973e-10
2.25683e-10
2.25857e-10
2.2765e-10
2.29813e-10
2.33096e-10
1.88426e-10
1.85752e-10
1.8406e-10
1.82683e-10
1.82628e-10
1.82178e-10
1.82817e-10
1.82828e-10
1.83544e-10
1.83938e-10
1.8451e-10
1.84982e-10
1.85365e-10
1.8573e-10
1.86047e-10
1.86354e-10
1.86595e-10
1.86827e-10
1.86998e-10
1.87162e-10
1.87276e-10
1.87384e-10
1.87455e-10
1.87514e-10
1.87541e-10
1.87531e-10
1.87488e-10
1.87415e-10
1.87337e-10
1.87222e-10
1.87104e-10
1.86937e-10
1.86767e-10
1.86536e-10
1.86297e-10
1.85994e-10
1.85683e-10
1.85323e-10
1.8495e-10
1.84494e-10
1.83942e-10
1.83574e-10
1.82887e-10
1.82907e-10
1.82301e-10
1.82786e-10
1.82876e-10
1.84288e-10
1.8602e-10
1.88717e-10
1.53726e-10
1.51543e-10
1.50187e-10
1.49125e-10
1.49123e-10
1.48852e-10
1.49428e-10
1.49526e-10
1.50182e-10
1.50577e-10
1.51115e-10
1.51556e-10
1.51928e-10
1.52272e-10
1.52578e-10
1.52868e-10
1.53103e-10
1.53325e-10
1.53493e-10
1.53651e-10
1.53766e-10
1.53871e-10
1.53942e-10
1.54001e-10
1.54029e-10
1.54019e-10
1.53977e-10
1.53907e-10
1.53829e-10
1.53718e-10
1.53601e-10
1.53441e-10
1.53272e-10
1.53054e-10
1.52818e-10
1.52533e-10
1.52232e-10
1.51893e-10
1.51532e-10
1.51105e-10
1.50586e-10
1.50214e-10
1.49585e-10
1.49516e-10
1.4897e-10
1.49273e-10
1.49307e-10
1.50401e-10
1.51791e-10
1.54001e-10
1.31895e-10
1.30043e-10
1.28903e-10
1.28058e-10
1.28081e-10
1.27929e-10
1.28454e-10
1.2861e-10
1.29217e-10
1.29611e-10
1.30121e-10
1.30539e-10
1.30899e-10
1.31226e-10
1.31522e-10
1.31798e-10
1.32028e-10
1.3224e-10
1.32405e-10
1.32557e-10
1.32671e-10
1.32773e-10
1.32844e-10
1.32902e-10
1.32929e-10
1.32921e-10
1.3288e-10
1.32812e-10
1.32735e-10
1.32628e-10
1.32512e-10
1.32358e-10
1.32193e-10
1.31983e-10
1.31755e-10
1.31483e-10
1.31192e-10
1.3087e-10
1.30521e-10
1.30115e-10
1.29623e-10
1.29252e-10
1.28669e-10
1.2854e-10
1.28044e-10
1.28225e-10
1.28232e-10
1.29107e-10
1.30278e-10
1.32159e-10
)
;

boundaryField
{
    fuel
    {
        type            fixedValue;
        value           nonuniform 0();
    }
    wall
    {
        type            zeroGradient;
    }
    outlet
    {
        type            zeroGradient;
    }
    frontAndBack
    {
        type            empty;
    }
    procBoundary3to2
    {
        type            processor;
        value           nonuniform List<scalar> 
51
(
1.60411e-08
1.60451e-08
1.60512e-08
1.60534e-08
1.60578e-08
1.60584e-08
1.60607e-08
1.60601e-08
1.60609e-08
1.60597e-08
1.60596e-08
1.60583e-08
1.60579e-08
1.60572e-08
1.6057e-08
1.60573e-08
1.60574e-08
1.60584e-08
1.60583e-08
1.60594e-08
1.60584e-08
1.6059e-08
1.60565e-08
1.60559e-08
1.60515e-08
1.60493e-08
1.60433e-08
1.60395e-08
1.60335e-08
1.60291e-08
1.60295e-08
1.60305e-08
1.60509e-08
1.60717e-08
1.61343e-08
1.62127e-08
1.63161e-08
1.64891e-08
1.66046e-08
1.52844e-08
1.51748e-08
1.50162e-08
1.4921e-08
1.48499e-08
1.47922e-08
1.47736e-08
1.47544e-08
1.47536e-08
1.47529e-08
1.47565e-08
1.47565e-08
)
;
    }
}


// ************************************************************************* //
