/*--------------------------------*- C++ -*----------------------------------*\
| =========                 |                                                 |
| \\      /  F ield         | OpenFOAM: The Open Source CFD Toolbox           |
|  \\    /   O peration     | Version:  dev                                   |
|   \\  /    A nd           | Web:      www.OpenFOAM.org                      |
|    \\/     M anipulation  |                                                 |
\*---------------------------------------------------------------------------*/
FoamFile
{
    version     2.0;
    format      ascii;
    class       volScalarField;
    location    "0.03";
    object      CH;
}
// * * * * * * * * * * * * * * * * * * * * * * * * * * * * * * * * * * * * * //

dimensions      [0 0 0 0 0 0 0];

internalField   nonuniform List<scalar> 
250
(
3.54115e-06
3.54368e-06
3.54371e-06
3.54335e-06
3.54362e-06
3.54093e-06
3.54888e-06
3.53819e-06
3.49909e-06
3.19387e-06
1.77958e-09
1.96649e-06
1.96703e-06
1.9671e-06
1.9669e-06
1.96701e-06
1.96638e-06
1.96754e-06
1.96373e-06
1.93746e-06
1.77744e-06
1.42578e-09
8.39978e-07
8.40071e-07
8.4017e-07
8.40009e-07
8.40113e-07
8.3992e-07
8.39762e-07
8.38047e-07
8.20647e-07
7.44188e-07
6.7758e-10
3.38414e-07
3.38418e-07
3.38494e-07
3.38386e-07
3.38464e-07
3.38373e-07
3.38085e-07
3.37077e-07
3.26289e-07
2.95303e-07
2.95871e-10
1.46314e-07
1.46309e-07
1.46352e-07
1.46286e-07
1.46328e-07
1.46266e-07
1.46011e-07
1.44993e-07
1.37572e-07
1.25602e-07
1.41928e-10
7.05591e-08
7.05468e-08
7.05863e-08
7.05281e-08
7.05722e-08
7.05384e-08
7.04356e-08
7.0374e-08
6.6611e-08
6.08584e-08
8.07261e-11
4.2226e-08
4.22189e-08
4.22415e-08
4.22019e-08
4.22243e-08
4.21902e-08
4.20737e-08
4.17363e-08
3.8613e-08
3.39808e-08
5.46392e-11
2.93701e-08
2.93627e-08
2.9384e-08
2.93497e-08
2.93744e-08
2.93571e-08
2.93187e-08
2.93244e-08
2.61517e-08
2.13529e-08
4.25016e-11
2.35309e-08
2.35251e-08
2.35414e-08
2.35118e-08
2.35288e-08
2.35099e-08
2.34571e-08
2.31086e-08
1.98058e-08
1.46263e-08
3.93939e-11
2.00364e-08
2.00317e-08
2.00442e-08
2.0018e-08
2.00291e-08
2.00093e-08
1.99478e-08
1.95649e-08
1.6747e-08
1.06832e-08
7.20028e-11
1.8179e-08
1.81902e-08
1.81642e-08
1.81723e-08
1.81514e-08
1.80829e-08
1.76741e-08
1.46786e-08
8.08061e-09
2.73718e-10
1.68176e-08
1.68288e-08
1.68024e-08
1.681e-08
1.67909e-08
1.67247e-08
1.63701e-08
1.32682e-08
6.43637e-09
7.85997e-10
1.57897e-08
1.58005e-08
1.57729e-08
1.57783e-08
1.57586e-08
1.5688e-08
1.5327e-08
1.23558e-08
5.31747e-09
1.29491e-09
1.49435e-08
1.49542e-08
1.49251e-08
1.49284e-08
1.49082e-08
1.48343e-08
1.44788e-08
1.15768e-08
4.54985e-09
1.50811e-09
1.41889e-08
1.41999e-08
1.41686e-08
1.417e-08
1.41494e-08
1.40731e-08
1.3733e-08
1.09146e-08
4.03164e-09
1.49511e-09
1.34766e-08
1.3488e-08
1.34541e-08
1.34534e-08
1.34326e-08
1.33547e-08
1.30387e-08
1.03385e-08
3.64127e-09
1.37892e-09
1.2778e-08
1.279e-08
1.27527e-08
1.27498e-08
1.27292e-08
1.26506e-08
1.23659e-08
9.81524e-09
3.38669e-09
1.22257e-09
1.20753e-08
1.20881e-08
1.20464e-08
1.20414e-08
1.20213e-08
1.19429e-08
1.16954e-08
9.32165e-09
3.2434e-09
1.05895e-09
1.13568e-08
1.13706e-08
1.13228e-08
1.13161e-08
1.12971e-08
1.12198e-08
1.10138e-08
8.83974e-09
3.17154e-09
9.11739e-10
1.06144e-08
1.06293e-08
1.05724e-08
1.05654e-08
1.05479e-08
1.04728e-08
1.03108e-08
8.35483e-09
3.14013e-09
7.96341e-10
9.84218e-09
9.85835e-09
9.78777e-09
9.78249e-09
9.76749e-09
9.69569e-09
9.57765e-09
7.85472e-09
3.13264e-09
7.19056e-10
9.03592e-09
9.05353e-09
8.96226e-09
8.96138e-09
8.94963e-09
8.88256e-09
8.80577e-09
7.32946e-09
3.1334e-09
6.79286e-10
8.19186e-09
8.21117e-09
8.19133e-09
8.19726e-09
8.18952e-09
8.12654e-09
8.08846e-09
6.77173e-09
3.12681e-09
6.72651e-10
7.40733e-09
7.4284e-09
7.39042e-09
7.39119e-09
7.3741e-09
7.30148e-09
7.33244e-09
6.17281e-09
3.09857e-09
6.9313e-10
)
;

boundaryField
{
    fuel
    {
        type            fixedValue;
        value           uniform 0;
    }
    wall
    {
        type            zeroGradient;
    }
    outlet
    {
        type            zeroGradient;
    }
    frontAndBack
    {
        type            empty;
    }
    procBoundary3to0
    {
        type            processor;
        value           nonuniform List<scalar> 10(6.60611e-09 6.62882e-09 6.5812e-09 6.5861e-09 6.57164e-09 6.50257e-09 6.5679e-09 5.5995e-09 3.03609e-09 7.33815e-10);
    }
    procBoundary3to2
    {
        type            processor;
        value           nonuniform List<scalar> 
25
(
3.54367e-06
1.96711e-06
8.40169e-07
3.38492e-07
1.46351e-07
7.05836e-08
4.22397e-08
2.93837e-08
2.35413e-08
2.00445e-08
1.81834e-08
1.81834e-08
1.68217e-08
1.57935e-08
1.49471e-08
1.41923e-08
1.34798e-08
1.27809e-08
1.2078e-08
1.13593e-08
1.06166e-08
9.84404e-09
9.03745e-09
8.19302e-09
7.40827e-09
)
;
    }
}


// ************************************************************************* //
