/*--------------------------------*- C++ -*----------------------------------*\
| =========                 |                                                 |
| \\      /  F ield         | OpenFOAM: The Open Source CFD Toolbox           |
|  \\    /   O peration     | Version:  dev                                   |
|   \\  /    A nd           | Web:      www.OpenFOAM.org                      |
|    \\/     M anipulation  |                                                 |
\*---------------------------------------------------------------------------*/
FoamFile
{
    version     2.0;
    format      ascii;
    class       volScalarField;
    location    "0.03";
    object      CH2O;
}
// * * * * * * * * * * * * * * * * * * * * * * * * * * * * * * * * * * * * * //

dimensions      [0 0 0 0 0 0 0];

internalField   nonuniform List<scalar> 
25
(
5.18812e-06
6.25561e-06
7.43808e-06
8.71195e-06
1.00449e-05
1.13979e-05
1.27282e-05
1.39932e-05
1.51502e-05
1.61663e-05
1.70137e-05
1.76675e-05
1.81083e-05
1.8328e-05
1.8323e-05
1.80902e-05
1.76262e-05
1.69248e-05
1.59631e-05
1.46859e-05
1.3097e-05
1.12485e-05
9.04442e-06
6.41405e-06
3.27254e-06
)
;

boundaryField
{
    wall
    {
        type            zeroGradient;
    }
    fuel
    {
        type            fixedValue;
        value           nonuniform 0();
    }
    outlet
    {
        type            inletOutlet;
        inletValue      uniform 0;
        value           uniform 3.27254e-06;
    }
    procBoundary3to2
    {
        type            processor;
        value           uniform 4.2487e-06;
    }
}


// ************************************************************************* //
