/*--------------------------------*- C++ -*----------------------------------*\
| =========                 |                                                 |
| \\      /  F ield         | OpenFOAM: The Open Source CFD Toolbox           |
|  \\    /   O peration     | Version:  dev                                   |
|   \\  /    A nd           | Web:      www.OpenFOAM.org                      |
|    \\/     M anipulation  |                                                 |
\*---------------------------------------------------------------------------*/
FoamFile
{
    version     2.0;
    format      ascii;
    class       volScalarField;
    location    "0.03";
    object      HO2;
}
// * * * * * * * * * * * * * * * * * * * * * * * * * * * * * * * * * * * * * //

dimensions      [0 0 0 0 0 0 0];

internalField   nonuniform List<scalar> 
25
(
2.66751e-07
3.13774e-07
3.71602e-07
4.43747e-07
5.34949e-07
6.51274e-07
7.99742e-07
9.87201e-07
1.21759e-06
1.49034e-06
1.79694e-06
2.11874e-06
2.42984e-06
2.70519e-06
2.92329e-06
3.06815e-06
3.1306e-06
3.10735e-06
2.99716e-06
2.79642e-06
2.51124e-06
2.1603e-06
1.73435e-06
1.22668e-06
6.24649e-07
)
;

boundaryField
{
    wall
    {
        type            zeroGradient;
    }
    fuel
    {
        type            fixedValue;
        value           nonuniform 0();
    }
    outlet
    {
        type            inletOutlet;
        inletValue      uniform 0;
        value           uniform 6.24649e-07;
    }
    procBoundary3to2
    {
        type            processor;
        value           uniform 2.27939e-07;
    }
}


// ************************************************************************* //
