/*--------------------------------*- C++ -*----------------------------------*\
| =========                 |                                                 |
| \\      /  F ield         | OpenFOAM: The Open Source CFD Toolbox           |
|  \\    /   O peration     | Version:  dev                                   |
|   \\  /    A nd           | Web:      www.OpenFOAM.org                      |
|    \\/     M anipulation  |                                                 |
\*---------------------------------------------------------------------------*/
FoamFile
{
    version     2.0;
    format      ascii;
    class       volScalarField;
    location    "0.03";
    object      l-C6H4;
}
// * * * * * * * * * * * * * * * * * * * * * * * * * * * * * * * * * * * * * //

dimensions      [0 0 0 0 0 0 0];

internalField   nonuniform List<scalar> 
250
(
4.58448e-07
4.58452e-07
4.5845e-07
4.58334e-07
4.58471e-07
4.58452e-07
4.58594e-07
4.59132e-07
4.62165e-07
4.94385e-07
6.68352e-07
4.15813e-07
4.15821e-07
4.15801e-07
4.15766e-07
4.15836e-07
4.15845e-07
4.1611e-07
4.17231e-07
4.2253e-07
4.71317e-07
1.55782e-06
3.76532e-07
3.76546e-07
3.76511e-07
3.76526e-07
3.76559e-07
3.76613e-07
3.7696e-07
3.78869e-07
3.85939e-07
4.37217e-07
2.20823e-06
3.35829e-07
3.35851e-07
3.35802e-07
3.35857e-07
3.35859e-07
3.35971e-07
3.36352e-07
3.39341e-07
3.47493e-07
4.00578e-07
2.60524e-06
2.9051e-07
2.90542e-07
2.90487e-07
2.90564e-07
2.90551e-07
2.90718e-07
2.9108e-07
2.9568e-07
3.03657e-07
3.60712e-07
2.76829e-06
2.45846e-07
2.45888e-07
2.45839e-07
2.45911e-07
2.45906e-07
2.46107e-07
2.46386e-07
2.49282e-07
2.58335e-07
3.11373e-07
2.72971e-06
2.04985e-07
2.05042e-07
2.05049e-07
2.05036e-07
2.05244e-07
2.05294e-07
2.06238e-07
2.09977e-07
2.18278e-07
2.71718e-07
2.53832e-06
1.66566e-07
1.66623e-07
1.66676e-07
1.66585e-07
1.66909e-07
1.66834e-07
1.67955e-07
1.73393e-07
1.84913e-07
2.36404e-07
2.21268e-06
1.39271e-07
1.39328e-07
1.39418e-07
1.39259e-07
1.39684e-07
1.39499e-07
1.40791e-07
1.45607e-07
1.55609e-07
2.06462e-07
1.71559e-06
1.1791e-07
1.17974e-07
1.18114e-07
1.1787e-07
1.18459e-07
1.18126e-07
1.1976e-07
1.24259e-07
1.3285e-07
1.77807e-07
1.05928e-06
9.96409e-08
9.98137e-08
9.95161e-08
1.00197e-07
9.97325e-08
1.016e-07
1.05668e-07
1.16967e-07
1.57104e-07
4.91948e-07
8.56396e-08
8.58329e-08
8.55038e-08
8.62436e-08
8.5684e-08
8.77089e-08
9.11126e-08
1.03039e-07
1.40884e-07
2.05517e-07
7.48259e-08
7.50306e-08
7.46873e-08
7.54604e-08
7.48418e-08
7.69711e-08
7.98156e-08
9.21438e-08
1.28545e-07
1.07273e-07
6.63339e-08
6.6543e-08
6.61986e-08
6.6983e-08
6.63372e-08
6.85215e-08
7.09229e-08
8.3486e-08
1.19152e-07
8.02229e-08
5.95366e-08
5.9745e-08
5.94085e-08
6.01866e-08
5.95394e-08
6.17331e-08
6.37961e-08
7.64378e-08
1.11103e-07
7.79668e-08
5.39897e-08
5.4194e-08
5.38714e-08
5.46299e-08
5.40008e-08
5.6165e-08
5.79746e-08
7.05521e-08
1.05513e-07
8.5561e-08
4.9381e-08
4.95792e-08
4.92744e-08
5.00043e-08
4.94072e-08
5.1511e-08
5.31327e-08
6.55189e-08
1.00336e-07
9.81726e-08
4.54918e-08
4.56834e-08
4.53983e-08
4.60943e-08
4.55383e-08
4.75589e-08
4.90409e-08
6.11325e-08
9.58788e-08
1.14109e-07
4.21683e-08
4.23545e-08
4.20887e-08
4.27491e-08
4.2239e-08
4.41607e-08
4.55369e-08
5.72531e-08
9.20645e-08
1.3228e-07
3.93022e-08
3.94857e-08
3.92353e-08
3.98627e-08
3.93986e-08
4.12122e-08
4.25038e-08
5.37829e-08
8.89742e-08
1.51278e-07
3.68197e-08
3.70016e-08
3.6757e-08
3.73593e-08
3.69356e-08
3.86383e-08
3.98534e-08
5.06515e-08
8.57188e-08
1.69289e-07
3.46787e-08
3.48461e-08
3.45894e-08
3.51824e-08
3.47853e-08
3.63835e-08
3.75129e-08
4.7808e-08
8.25406e-08
1.84441e-07
3.28535e-08
3.29712e-08
3.29008e-08
3.32854e-08
3.31155e-08
3.44036e-08
3.56984e-08
4.52146e-08
7.92948e-08
1.95228e-07
3.14271e-08
3.15226e-08
3.14325e-08
3.18208e-08
3.16398e-08
3.28665e-08
3.40928e-08
4.28288e-08
7.5925e-08
2.00796e-07
)
;

boundaryField
{
    fuel
    {
        type            fixedValue;
        value           uniform 0;
    }
    wall
    {
        type            zeroGradient;
    }
    outlet
    {
        type            zeroGradient;
    }
    frontAndBack
    {
        type            empty;
    }
    procBoundary3to0
    {
        type            processor;
        value           nonuniform List<scalar> 10(3.02002e-08 3.02901e-08 3.02023e-08 3.05755e-08 3.04287e-08 3.1552e-08 3.27524e-08 4.08689e-08 7.19979e-08 2.00897e-07);
    }
    procBoundary3to2
    {
        type            processor;
        value           nonuniform List<scalar> 
25
(
4.58446e-07
4.15798e-07
3.76517e-07
3.35822e-07
2.90526e-07
2.45895e-07
2.05133e-07
1.66764e-07
1.39509e-07
1.18212e-07
9.95872e-08
9.95872e-08
8.55937e-08
7.47877e-08
6.63026e-08
5.95112e-08
5.39693e-08
4.93649e-08
4.54792e-08
4.21586e-08
3.92947e-08
3.68141e-08
3.46748e-08
3.28509e-08
3.14248e-08
)
;
    }
}


// ************************************************************************* //
