/*--------------------------------*- C++ -*----------------------------------*\
| =========                 |                                                 |
| \\      /  F ield         | OpenFOAM: The Open Source CFD Toolbox           |
|  \\    /   O peration     | Version:  dev                                   |
|   \\  /    A nd           | Web:      www.OpenFOAM.org                      |
|    \\/     M anipulation  |                                                 |
\*---------------------------------------------------------------------------*/
FoamFile
{
    version     2.0;
    format      ascii;
    class       volScalarField;
    location    "0.03";
    object      n-C4H5;
}
// * * * * * * * * * * * * * * * * * * * * * * * * * * * * * * * * * * * * * //

dimensions      [0 0 0 0 0 0 0];

internalField   nonuniform List<scalar> 
250
(
5.44006e-08
5.44165e-08
5.44021e-08
5.44362e-08
5.44042e-08
5.44108e-08
5.42918e-08
5.46477e-08
5.62107e-08
6.93832e-08
4.5741e-10
2.416e-08
2.41649e-08
2.41611e-08
2.41698e-08
2.41622e-08
2.41659e-08
2.41461e-08
2.42843e-08
2.50696e-08
3.17331e-08
1.17885e-09
9.52742e-09
9.52865e-09
9.52828e-09
9.5299e-09
9.52879e-09
9.53039e-09
9.52609e-09
9.58372e-09
9.92571e-09
1.31431e-08
1.8385e-09
3.68657e-09
3.6868e-09
3.68717e-09
3.68712e-09
3.68742e-09
3.68788e-09
3.68628e-09
3.71001e-09
3.85208e-09
5.52752e-09
2.23043e-09
1.52858e-09
1.52861e-09
1.52894e-09
1.52864e-09
1.52899e-09
1.52898e-09
1.5277e-09
1.53446e-09
1.58989e-09
2.58921e-09
2.46862e-09
6.89521e-10
6.89417e-10
6.89806e-10
6.89364e-10
6.89848e-10
6.89856e-10
6.89858e-10
7.00066e-10
7.4195e-10
1.40512e-09
2.83026e-09
3.77941e-10
3.77875e-10
3.7811e-10
3.77799e-10
3.78073e-10
3.77973e-10
3.77604e-10
3.81945e-10
4.07062e-10
8.76263e-10
4.02831e-09
2.36086e-10
2.36009e-10
2.36242e-10
2.35963e-10
2.36279e-10
2.36328e-10
2.36742e-10
2.4377e-10
2.5733e-10
6.09084e-10
7.84134e-09
1.70344e-10
1.7028e-10
1.70463e-10
1.70232e-10
1.70472e-10
1.70494e-10
1.70726e-10
1.73246e-10
1.80173e-10
4.63452e-10
1.8717e-08
1.29337e-10
1.29276e-10
1.29419e-10
1.29232e-10
1.29414e-10
1.2943e-10
1.29579e-10
1.31533e-10
1.42253e-10
3.77041e-10
3.05831e-08
1.06674e-10
1.06801e-10
1.06629e-10
1.06784e-10
1.06799e-10
1.06892e-10
1.08514e-10
1.15902e-10
3.11698e-10
3.62733e-08
8.96766e-11
8.98038e-11
8.9646e-11
8.98082e-11
8.98604e-11
9.00318e-11
9.23395e-11
9.75763e-11
2.56905e-10
3.38487e-08
7.70815e-11
7.71987e-11
7.70543e-11
7.72007e-11
7.72619e-11
7.74252e-11
7.95864e-11
8.56857e-11
2.04667e-10
2.49545e-08
6.73889e-11
6.74986e-11
6.73655e-11
6.75001e-11
6.75716e-11
6.77327e-11
6.98009e-11
7.56464e-11
1.59502e-10
1.55781e-08
5.96337e-11
5.97375e-11
5.96144e-11
5.97393e-11
5.98214e-11
5.99833e-11
6.19814e-11
6.73587e-11
1.25054e-10
8.78535e-09
5.32451e-11
5.3344e-11
5.32298e-11
5.3346e-11
5.34385e-11
5.36029e-11
5.55382e-11
6.04788e-11
9.78951e-11
4.64845e-09
4.7862e-11
4.79567e-11
4.78497e-11
4.79578e-11
4.80605e-11
4.82282e-11
5.00998e-11
5.46261e-11
7.89149e-11
2.36351e-09
4.32424e-11
4.33336e-11
4.3231e-11
4.33317e-11
4.34442e-11
4.36159e-11
4.54185e-11
4.95561e-11
6.63686e-11
1.18145e-09
3.92172e-11
3.93053e-11
3.92017e-11
3.92964e-11
3.94188e-11
3.95952e-11
4.1321e-11
4.50947e-11
5.79279e-11
5.94927e-10
3.56625e-11
3.57481e-11
3.56337e-11
3.5726e-11
3.58589e-11
3.6041e-11
3.76798e-11
4.11163e-11
5.15159e-11
3.09104e-10
3.24848e-11
3.25683e-11
3.24274e-11
3.2524e-11
3.26677e-11
3.28573e-11
3.43968e-11
3.75307e-11
4.62329e-11
1.69256e-10
2.96094e-11
2.96914e-11
2.95004e-11
2.96104e-11
2.97655e-11
2.99653e-11
3.13893e-11
3.42707e-11
4.19699e-11
9.93697e-11
2.69722e-11
2.70539e-11
2.71023e-11
2.72336e-11
2.74015e-11
2.76077e-11
2.89376e-11
3.12839e-11
3.82687e-11
6.33177e-11
2.47981e-11
2.48807e-11
2.48869e-11
2.50064e-11
2.5149e-11
2.53212e-11
2.66453e-11
2.85096e-11
3.48737e-11
4.39933e-11
)
;

boundaryField
{
    fuel
    {
        type            fixedValue;
        value           uniform 0;
    }
    wall
    {
        type            zeroGradient;
    }
    outlet
    {
        type            zeroGradient;
    }
    frontAndBack
    {
        type            empty;
    }
    procBoundary3to0
    {
        type            processor;
        value           nonuniform List<scalar> 10(2.27978e-11 2.28814e-11 2.28677e-11 2.30005e-11 2.31502e-11 2.33236e-11 2.45615e-11 2.61992e-11 3.18895e-11 3.33631e-11);
    }
    procBoundary3to2
    {
        type            processor;
        value           nonuniform List<scalar> 
25
(
5.44219e-08
2.41666e-08
9.52982e-09
3.6876e-09
1.52907e-09
6.89827e-10
3.78112e-10
2.36251e-10
1.7047e-10
1.29426e-10
1.06733e-10
1.06733e-10
8.97236e-11
7.71221e-11
6.74253e-11
5.96665e-11
5.32744e-11
4.78878e-11
4.32649e-11
3.92364e-11
3.56788e-11
3.24983e-11
2.96204e-11
2.69811e-11
2.48061e-11
)
;
    }
}


// ************************************************************************* //
