/*--------------------------------*- C++ -*----------------------------------*\
| =========                 |                                                 |
| \\      /  F ield         | OpenFOAM: The Open Source CFD Toolbox           |
|  \\    /   O peration     | Version:  dev                                   |
|   \\  /    A nd           | Web:      www.OpenFOAM.org                      |
|    \\/     M anipulation  |                                                 |
\*---------------------------------------------------------------------------*/
FoamFile
{
    version     2.0;
    format      ascii;
    class       volScalarField;
    location    "0.03";
    object      naphthyne;
}
// * * * * * * * * * * * * * * * * * * * * * * * * * * * * * * * * * * * * * //

dimensions      [0 0 0 0 0 0 0];

internalField   nonuniform List<scalar> 
250
(
7.77643e-08
7.77659e-08
7.7765e-08
7.7718e-08
7.77643e-08
7.7764e-08
7.78106e-08
7.80087e-08
7.9203e-08
9.24337e-08
3.83494e-09
6.61815e-08
6.61832e-08
6.61808e-08
6.61631e-08
6.61897e-08
6.61898e-08
6.62681e-08
6.66108e-08
6.86307e-08
9.54528e-08
7.05067e-09
5.12708e-08
5.12732e-08
5.12683e-08
5.12649e-08
5.1281e-08
5.12879e-08
5.13827e-08
5.18624e-08
5.42021e-08
8.45018e-08
7.72321e-09
3.93542e-08
3.93578e-08
3.93515e-08
3.9356e-08
3.93662e-08
3.93807e-08
3.94806e-08
4.01101e-08
4.24758e-08
7.16746e-08
6.94942e-09
3.00504e-08
3.00552e-08
3.00494e-08
3.00562e-08
3.00652e-08
3.00844e-08
3.01805e-08
3.10113e-08
3.31389e-08
5.93851e-08
5.71416e-09
2.28632e-08
2.28691e-08
2.28649e-08
2.28703e-08
2.28809e-08
2.29013e-08
2.29826e-08
2.34786e-08
2.55583e-08
4.61174e-08
4.53586e-09
1.72765e-08
1.72837e-08
1.72871e-08
1.72814e-08
1.73181e-08
1.73172e-08
1.74775e-08
1.8039e-08
1.97983e-08
3.66462e-08
3.61684e-09
1.26221e-08
1.26287e-08
1.26367e-08
1.26231e-08
1.26688e-08
1.26545e-08
1.28182e-08
1.35256e-08
1.54636e-08
2.90649e-08
2.98984e-09
9.60548e-09
9.61147e-09
9.62256e-09
9.60358e-09
9.65488e-09
9.63135e-09
9.79616e-09
1.03771e-08
1.19426e-08
2.32381e-08
2.645e-09
7.42225e-09
7.4284e-09
7.44309e-09
7.41795e-09
7.47995e-09
7.44514e-09
7.62669e-09
8.13028e-09
9.38101e-09
1.80726e-08
2.58116e-09
5.691e-09
5.70714e-09
5.67971e-09
5.74383e-09
5.70126e-09
5.88541e-09
6.30826e-09
7.69352e-09
1.4646e-08
2.74545e-09
4.46095e-09
4.47732e-09
4.44976e-09
4.51296e-09
4.46666e-09
4.64684e-09
4.97965e-09
6.29525e-09
1.21437e-08
3.09336e-09
3.57988e-09
3.59577e-09
3.5694e-09
3.62994e-09
3.58305e-09
3.75617e-09
4.01926e-09
5.26235e-09
1.0353e-08
3.57061e-09
2.93743e-09
2.95243e-09
2.92798e-09
2.98476e-09
2.93953e-09
3.10349e-09
3.31468e-09
4.48755e-09
9.07173e-09
4.13049e-09
2.45903e-09
2.47293e-09
2.45073e-09
2.50315e-09
2.46101e-09
2.61431e-09
2.78765e-09
3.8918e-09
8.04629e-09
4.79486e-09
2.09493e-09
2.10766e-09
2.08781e-09
2.13563e-09
2.09739e-09
2.23914e-09
2.38502e-09
3.42141e-09
7.38397e-09
5.66814e-09
1.81205e-09
1.82362e-09
1.80608e-09
1.84933e-09
1.81536e-09
1.94522e-09
2.07108e-09
3.0404e-09
6.81664e-09
6.89446e-09
1.58827e-09
1.59878e-09
1.58342e-09
1.6223e-09
1.59268e-09
1.71076e-09
1.82184e-09
2.72543e-09
6.36599e-09
8.60869e-09
1.40869e-09
1.41829e-09
1.4049e-09
1.43977e-09
1.41435e-09
1.52105e-09
1.62104e-09
2.46089e-09
6.01066e-09
1.08816e-08
1.26315e-09
1.27205e-09
1.26029e-09
1.29163e-09
1.2701e-09
1.36606e-09
1.45742e-09
2.23608e-09
5.74216e-09
1.367e-08
1.14475e-09
1.15308e-09
1.14242e-09
1.1709e-09
1.15272e-09
1.23877e-09
1.323e-09
2.04344e-09
5.47469e-09
1.67871e-08
1.04918e-09
1.05645e-09
1.04605e-09
1.07258e-09
1.05698e-09
1.1342e-09
1.21185e-09
1.87763e-09
5.224e-09
1.99194e-08
9.73668e-10
9.78434e-10
9.76424e-10
9.93003e-10
9.88108e-10
1.04871e-09
1.13167e-09
1.73479e-09
4.97488e-09
2.26946e-08
9.19807e-10
9.23339e-10
9.21184e-10
9.36788e-10
9.32725e-10
9.87746e-10
1.06663e-09
1.61148e-09
4.72069e-09
2.47756e-08
)
;

boundaryField
{
    fuel
    {
        type            fixedValue;
        value           uniform 0;
    }
    wall
    {
        type            zeroGradient;
    }
    outlet
    {
        type            zeroGradient;
    }
    frontAndBack
    {
        type            empty;
    }
    procBoundary3to0
    {
        type            processor;
        value           nonuniform List<scalar> 10(8.78753e-10 8.81731e-10 8.80324e-10 8.94316e-10 8.92841e-10 9.4112e-10 1.01827e-09 1.51742e-09 4.43021e-09 2.59397e-08);
    }
    procBoundary3to2
    {
        type            processor;
        value           nonuniform List<scalar> 
25
(
7.77566e-08
6.61785e-08
5.12691e-08
3.93549e-08
3.00554e-08
2.2873e-08
1.72979e-08
1.2647e-08
9.63224e-09
7.45273e-09
5.6861e-09
5.6861e-09
4.45713e-09
3.57694e-09
2.93519e-09
2.45734e-09
2.09366e-09
1.8111e-09
1.58758e-09
1.40819e-09
1.26278e-09
1.14449e-09
1.04901e-09
9.73556e-10
9.1972e-10
)
;
    }
}


// ************************************************************************* //
