/*--------------------------------*- C++ -*----------------------------------*\
| =========                 |                                                 |
| \\      /  F ield         | OpenFOAM: The Open Source CFD Toolbox           |
|  \\    /   O peration     | Version:  dev                                   |
|   \\  /    A nd           | Web:      www.OpenFOAM.org                      |
|    \\/     M anipulation  |                                                 |
\*---------------------------------------------------------------------------*/
FoamFile
{
    version     2.0;
    format      ascii;
    class       volScalarField;
    location    "0.03";
    object      P2;
}
// * * * * * * * * * * * * * * * * * * * * * * * * * * * * * * * * * * * * * //

dimensions      [0 0 0 0 0 0 0];

internalField   nonuniform List<scalar> 
250
(
8.40806e-08
8.41264e-08
8.40993e-08
8.41152e-08
8.41049e-08
8.41048e-08
8.41826e-08
8.4612e-08
8.81556e-08
1.15764e-07
3.34656e-09
6.75658e-08
6.75863e-08
6.75705e-08
6.7592e-08
6.75802e-08
6.76003e-08
6.7673e-08
6.82815e-08
7.31813e-08
1.16165e-07
7.19909e-09
4.55139e-08
4.55234e-08
4.55167e-08
4.55311e-08
4.55275e-08
4.55493e-08
4.56124e-08
4.62306e-08
5.12228e-08
9.98711e-08
9.73158e-09
2.86496e-08
2.86538e-08
2.86526e-08
2.86604e-08
2.86622e-08
2.868e-08
2.87294e-08
2.92631e-08
3.36994e-08
8.22039e-08
1.14113e-08
1.75538e-08
1.75557e-08
1.75567e-08
1.75604e-08
1.75641e-08
1.75767e-08
1.76105e-08
1.8013e-08
2.16505e-08
6.69877e-08
1.25701e-08
1.03625e-08
1.03619e-08
1.03661e-08
1.03649e-08
1.03721e-08
1.03822e-08
1.04166e-08
1.08255e-08
1.3961e-08
5.50724e-08
1.33924e-08
6.37814e-09
6.37745e-09
6.38096e-09
6.37926e-09
6.38492e-09
6.39122e-09
6.41206e-09
6.70709e-09
9.22642e-09
4.59556e-08
1.39489e-08
3.93465e-09
3.93335e-09
3.93777e-09
3.93506e-09
3.94242e-09
3.94987e-09
3.9801e-09
4.29686e-09
6.22845e-09
3.88971e-08
1.42239e-08
2.59486e-09
2.5937e-09
2.59738e-09
2.59493e-09
2.60094e-09
2.60664e-09
2.62918e-09
2.81619e-09
4.26327e-09
3.32816e-08
1.41002e-08
1.70741e-09
1.70644e-09
1.70921e-09
1.70745e-09
1.712e-09
1.71646e-09
1.73337e-09
1.87454e-09
3.17094e-09
2.8701e-08
1.33706e-08
1.23365e-09
1.23594e-09
1.23446e-09
1.23818e-09
1.24186e-09
1.25498e-09
1.36599e-09
2.37941e-09
2.46267e-08
1.2069e-08
9.10681e-10
9.12771e-10
9.11628e-10
9.15163e-10
9.18916e-10
9.31334e-10
1.03638e-09
1.84009e-09
2.12373e-08
1.07362e-08
7.00468e-10
7.02217e-10
7.0139e-10
7.04409e-10
7.07827e-10
7.18442e-10
8.05339e-10
1.50786e-09
1.82199e-08
9.95413e-09
5.5983e-10
5.61333e-10
5.6076e-10
5.63424e-10
5.66637e-10
5.75985e-10
6.49658e-10
1.24577e-09
1.55173e-08
9.79289e-09
4.61612e-10
4.62935e-10
4.62574e-10
4.64991e-10
4.6808e-10
4.76511e-10
5.4019e-10
1.04389e-09
1.31201e-08
9.97618e-09
3.90239e-10
3.91424e-10
3.91249e-10
3.93487e-10
3.96505e-10
4.04257e-10
4.60093e-10
8.86414e-10
1.06807e-08
1.01739e-08
3.3657e-10
3.37647e-10
3.37638e-10
3.39746e-10
3.42726e-10
3.49966e-10
3.99427e-10
7.60454e-10
8.51359e-09
1.01562e-08
2.95107e-10
2.96098e-10
2.96236e-10
2.98244e-10
3.01215e-10
3.08068e-10
3.52189e-10
6.58457e-10
6.80307e-09
9.82917e-09
2.62454e-10
2.63373e-10
2.63633e-10
2.65566e-10
2.68557e-10
2.75125e-10
3.14663e-10
5.7494e-10
5.46723e-09
9.20455e-09
2.36456e-10
2.37317e-10
2.37653e-10
2.39546e-10
2.42587e-10
2.48965e-10
2.84494e-10
5.0609e-10
4.3596e-09
8.3578e-09
2.15719e-10
2.1653e-10
2.16872e-10
2.18784e-10
2.21898e-10
2.28188e-10
2.60155e-10
4.49338e-10
3.42796e-09
7.38504e-09
1.99326e-10
2.00098e-10
2.00341e-10
2.02352e-10
2.05576e-10
2.11888e-10
2.40636e-10
4.02974e-10
2.71059e-09
6.37536e-09
1.8668e-10
1.87426e-10
1.88973e-10
1.91156e-10
1.94536e-10
2.00948e-10
2.27232e-10
3.65686e-10
2.14938e-09
5.3981e-09
1.78485e-10
1.7922e-10
1.80793e-10
1.83072e-10
1.86534e-10
1.93026e-10
2.17445e-10
3.36355e-10
1.7068e-09
4.50077e-09
)
;

boundaryField
{
    fuel
    {
        type            fixedValue;
        value           uniform 0;
    }
    wall
    {
        type            zeroGradient;
    }
    outlet
    {
        type            zeroGradient;
    }
    frontAndBack
    {
        type            empty;
    }
    procBoundary3to0
    {
        type            processor;
        value           nonuniform List<scalar> 10(1.73361e-10 1.74095e-10 1.75821e-10 1.78332e-10 1.82059e-10 1.88877e-10 2.11503e-10 3.16796e-10 1.38277e-09 3.71716e-09);
    }
    procBoundary3to2
    {
        type            processor;
        value           nonuniform List<scalar> 
25
(
8.41168e-08
6.75842e-08
4.5525e-08
2.86572e-08
1.75594e-08
1.03672e-08
6.38158e-09
3.93833e-09
2.59778e-09
1.70952e-09
1.23439e-09
1.23439e-09
9.11334e-10
7.01002e-10
5.60272e-10
4.61981e-10
3.90548e-10
3.36829e-10
2.95324e-10
2.62634e-10
2.36607e-10
2.15846e-10
1.99434e-10
1.86775e-10
1.78576e-10
)
;
    }
}


// ************************************************************************* //
