/*--------------------------------*- C++ -*----------------------------------*\
| =========                 |                                                 |
| \\      /  F ield         | OpenFOAM: The Open Source CFD Toolbox           |
|  \\    /   O peration     | Version:  dev                                   |
|   \\  /    A nd           | Web:      www.OpenFOAM.org                      |
|    \\/     M anipulation  |                                                 |
\*---------------------------------------------------------------------------*/
FoamFile
{
    version     2.0;
    format      ascii;
    class       surfaceScalarField;
    location    "0.03";
    object      phi;
}
// * * * * * * * * * * * * * * * * * * * * * * * * * * * * * * * * * * * * * //

dimensions      [1 0 -1 0 0 0 0];

internalField   nonuniform List<scalar> 
465
(
-3.08197e-10
8.17861e-06
8.94923e-09
8.1779e-06
2.28899e-08
8.17318e-06
2.88109e-08
8.18139e-06
4.11843e-08
8.1742e-06
5.42665e-08
8.17386e-06
5.63327e-08
8.18495e-06
5.44724e-08
8.18872e-06
5.49536e-08
8.18146e-06
-2.88909e-07
8.44918e-06
3.62046e-06
-1.0529e-10
8.16662e-06
1.49015e-08
8.16625e-06
3.48732e-08
8.15652e-06
4.62693e-08
8.17329e-06
6.76433e-08
8.156e-06
7.95964e-08
8.16515e-06
9.71596e-08
8.17066e-06
7.25983e-08
8.21651e-06
9.23455e-08
8.16062e-06
-5.26357e-07
8.98626e-06
1.94316e-06
2.56567e-10
8.1475e-06
2.13586e-08
8.14845e-06
4.69943e-08
8.13415e-06
6.47997e-08
8.15878e-06
9.34158e-08
8.1306e-06
1.06487e-07
8.15532e-06
1.37139e-07
8.14325e-06
9.25231e-08
8.26434e-06
1.33481e-07
8.11798e-06
-5.60109e-07
9.57351e-06
1.99005e-06
6.32514e-10
8.12132e-06
2.77936e-08
8.12432e-06
5.77768e-08
8.10716e-06
8.37125e-08
8.13589e-06
1.16628e-07
8.10064e-06
1.33528e-07
8.14141e-06
1.74509e-07
8.10525e-06
1.14682e-07
8.32715e-06
1.76279e-07
8.05368e-06
-5.18561e-07
1.01366e-05
2.91188e-06
1.18822e-09
8.08797e-06
3.47136e-08
8.09319e-06
6.92744e-08
8.07495e-06
1.02978e-07
8.10459e-06
1.39129e-07
8.06683e-06
1.62233e-07
8.12067e-06
2.08546e-07
8.06129e-06
1.4082e-07
8.39752e-06
2.17895e-07
7.97281e-06
-4.41662e-07
1.06469e-05
4.21077e-06
1.82852e-09
8.04742e-06
4.1664e-08
8.05496e-06
8.04623e-08
8.03775e-06
1.22204e-07
8.06448e-06
1.607e-07
8.02991e-06
1.91151e-07
8.09182e-06
2.39554e-07
8.01452e-06
1.71433e-07
8.4677e-06
2.5847e-07
7.88049e-06
-3.4581e-07
1.10936e-05
5.60352e-06
2.42383e-09
7.99896e-06
4.85302e-08
8.00884e-06
9.15404e-08
7.9947e-06
1.41329e-07
8.01467e-06
1.81668e-07
7.98952e-06
2.20562e-07
8.05289e-06
2.68519e-07
7.96648e-06
2.06725e-07
8.53326e-06
2.97633e-07
7.78363e-06
-2.38846e-07
1.14739e-05
6.92686e-06
2.87629e-09
7.94351e-06
5.52388e-08
7.95565e-06
1.02635e-07
7.94647e-06
1.60297e-07
7.95618e-06
2.02527e-07
7.94645e-06
2.50396e-07
8.00418e-06
2.96512e-07
7.91954e-06
2.46894e-07
8.58003e-06
3.3614e-07
7.68812e-06
-1.26328e-07
1.17883e-05
8.07193e-06
3.14005e-09
7.88143e-06
6.17626e-08
7.89571e-06
1.13848e-07
7.89306e-06
1.79109e-07
7.8896e-06
2.23701e-07
7.90049e-06
2.80664e-07
7.94584e-06
3.24605e-07
7.87415e-06
2.91571e-07
8.61161e-06
3.7538e-07
7.59826e-06
-1.88235e-08
1.20484e-05
8.92533e-06
3.2188e-09
6.80892e-08
7.82845e-06
1.25199e-07
7.83358e-06
1.97718e-07
7.81466e-06
2.45382e-07
7.85052e-06
3.1124e-07
7.87758e-06
3.53721e-07
7.82957e-06
3.40041e-07
8.62372e-06
4.1643e-07
7.51736e-06
1.33777e-07
1.22094e-05
9.38197e-06
7.42334e-08
7.75492e-06
1.36681e-07
7.76871e-06
2.16099e-07
7.73278e-06
2.67634e-07
7.79658e-06
3.41995e-07
7.80073e-06
3.84471e-07
7.78482e-06
3.91477e-07
8.6148e-06
4.60617e-07
7.44456e-06
2.83919e-07
1.22813e-05
9.21789e-06
8.02358e-08
7.67537e-06
1.48288e-07
7.69837e-06
2.34271e-07
7.64448e-06
2.90462e-07
7.73813e-06
3.72849e-07
7.71602e-06
4.17142e-07
7.73838e-06
4.44957e-07
8.58527e-06
5.08248e-07
7.37894e-06
4.11004e-07
1.22919e-05
8.55036e-06
8.61324e-08
7.59e-06
1.59995e-07
7.62251e-06
2.52241e-07
7.55022e-06
3.13786e-07
7.67462e-06
4.03712e-07
7.62407e-06
4.51684e-07
7.68854e-06
4.99595e-07
8.53602e-06
5.59328e-07
7.31841e-06
5.17359e-07
1.22669e-05
7.97564e-06
9.19537e-08
7.49896e-06
1.71767e-07
7.54106e-06
2.70019e-07
7.45031e-06
3.37488e-07
7.60553e-06
4.34504e-07
7.52542e-06
4.87834e-07
7.63368e-06
5.54598e-07
8.46842e-06
6.136e-07
7.26005e-06
6.21878e-07
1.22097e-05
7.48879e-06
9.77199e-08
7.40233e-06
1.83567e-07
7.45395e-06
2.87608e-07
7.34501e-06
3.61435e-07
7.53047e-06
4.6515e-07
7.4205e-06
5.25208e-07
7.57243e-06
6.093e-07
8.38403e-06
6.70498e-07
7.20074e-06
7.24742e-07
1.21273e-05
7.08708e-06
1.03441e-07
7.30019e-06
1.95357e-07
7.36115e-06
3.05008e-07
7.23447e-06
3.85493e-07
7.44911e-06
4.95581e-07
7.30962e-06
5.63384e-07
7.50375e-06
6.63179e-07
8.28448e-06
7.29281e-07
7.13751e-06
8.25402e-07
1.20206e-05
6.76712e-06
1.09119e-07
7.19258e-06
2.071e-07
7.26263e-06
3.22209e-07
7.1188e-06
4.0954e-07
7.36123e-06
5.25734e-07
7.19301e-06
6.01952e-07
7.42689e-06
7.15852e-07
8.17133e-06
7.8895e-07
7.06797e-06
9.22992e-07
1.18927e-05
6.52337e-06
1.14752e-07
7.07955e-06
2.18766e-07
7.15838e-06
3.39205e-07
6.99808e-06
4.33473e-07
7.26669e-06
5.55555e-07
7.07083e-06
6.40554e-07
7.34143e-06
7.6707e-07
8.04604e-06
8.4857e-07
6.99041e-06
1.01664e-06
1.17434e-05
6.3476e-06
1.20335e-07
6.96116e-06
2.30331e-07
7.04841e-06
3.55986e-07
6.87235e-06
4.57212e-07
7.16542e-06
5.85e-07
6.94322e-06
6.789e-07
7.24719e-06
8.16696e-07
7.9099e-06
9.07304e-07
6.90381e-06
1.10552e-06
1.1571e-05
6.22931e-06
1.25863e-07
6.83759e-06
2.41777e-07
6.93272e-06
3.72547e-07
6.74167e-06
4.80696e-07
7.0574e-06
6.1404e-07
6.81027e-06
7.16773e-07
7.14416e-06
8.64691e-07
7.76404e-06
9.64436e-07
6.80791e-06
1.18891e-06
1.13818e-05
6.15668e-06
1.31332e-07
6.709e-06
2.53093e-07
6.8113e-06
3.88889e-07
6.60605e-06
5.03888e-07
6.94261e-06
6.42661e-07
6.67206e-06
7.54028e-07
7.03249e-06
9.11086e-07
7.60941e-06
1.01968e-06
6.70274e-06
1.26659e-06
1.11651e-05
6.11766e-06
1.36736e-07
6.5752e-06
2.64277e-07
6.68413e-06
4.05019e-07
6.46554e-06
5.26769e-07
6.82111e-06
6.70861e-07
6.52865e-06
7.90581e-07
6.91241e-06
9.55968e-07
7.4468e-06
1.07272e-06
6.58884e-06
1.33855e-06
1.09363e-05
6.10108e-06
1.42076e-07
6.43477e-06
2.75314e-07
6.5512e-06
4.20923e-07
6.32016e-06
5.493e-07
6.69295e-06
6.98607e-07
6.3801e-06
8.26334e-07
6.78422e-06
9.9937e-07
7.27685e-06
1.1236e-06
6.46676e-06
1.4051e-06
1.06915e-05
6.09708e-06
1.47333e-07
2.86196e-07
4.36574e-07
5.71468e-07
7.25877e-07
8.61267e-07
1.04148e-06
1.17246e-06
1.46682e-06
)
;

boundaryField
{
    fuel
    {
        type            calculated;
        value           nonuniform List<scalar> 
11
(
-8.18324e-06
-8.18324e-06
-8.18324e-06
-8.18324e-06
-8.18324e-06
-8.18324e-06
-8.18322e-06
-8.18323e-06
-8.1832e-06
-8.18323e-06
-8.18316e-06
)
;
    }
    wall
    {
        type            calculated;
        value           nonuniform 0();
    }
    outlet
    {
        type            calculated;
        value           nonuniform List<scalar> 
24
(
-1.50553e-06
-3.24302e-06
-4.0111e-06
-4.24982e-06
-4.20008e-06
-3.97349e-06
-3.61604e-06
-3.13929e-06
-2.53053e-06
-1.75174e-06
-7.65398e-07
5.18827e-08
2.37912e-07
4.12285e-07
5.74329e-07
7.24306e-07
8.62821e-07
9.90405e-07
1.10748e-06
1.21446e-06
1.31191e-06
1.4006e-06
1.48153e-06
1.55582e-06
)
;
    }
    frontAndBack
    {
        type            empty;
        value           nonuniform 0();
    }
    procBoundary3to0
    {
        type            processor;
        value           nonuniform List<scalar> 10(6.28905e-06 6.41257e-06 6.17023e-06 6.55821e-06 6.22678e-06 6.6482e-06 7.10059e-06 6.33717e-06 1.04342e-05 6.09748e-06);
    }
    procBoundary3to2
    {
        type            processor;
        value           nonuniform List<scalar> 
25
(
8.86273e-09
1.54455e-08
2.2156e-08
2.85757e-08
3.45635e-08
4.03403e-08
4.60174e-08
5.175e-08
5.7631e-08
6.36633e-08
7.81215e-06
-3.14982e-09
-2.98564e-09
-2.77631e-09
-2.56158e-09
-2.36718e-09
-2.20663e-09
-2.08427e-09
-1.99865e-09
-1.94519e-09
-1.91811e-09
-1.91155e-09
-1.92015e-09
-1.93943e-09
-1.96539e-09
)
;
    }
}


// ************************************************************************* //
