/*--------------------------------*- C++ -*----------------------------------*\
| =========                 |                                                 |
| \\      /  F ield         | OpenFOAM: The Open Source CFD Toolbox           |
|  \\    /   O peration     | Version:  dev                                   |
|   \\  /    A nd           | Web:      www.OpenFOAM.org                      |
|    \\/     M anipulation  |                                                 |
\*---------------------------------------------------------------------------*/
FoamFile
{
    version     2.0;
    format      ascii;
    class       volVectorField;
    location    "0.05";
    object      U;
}
// * * * * * * * * * * * * * * * * * * * * * * * * * * * * * * * * * * * * * //

dimensions      [0 1 -1 0 0 0 0];

internalField   nonuniform List<vector> 
12
(
(-3.23112e-05 -2.24235e-11 0.100965)
(-3.11554e-05 -2.24942e-11 0.101898)
(-2.99738e-05 -2.26341e-11 0.102932)
(-2.87644e-05 -2.27696e-11 0.103907)
(-2.75374e-05 -2.29029e-11 0.104844)
(-2.62911e-05 -2.30531e-11 0.105768)
(-2.50269e-05 -2.32459e-11 0.106691)
(-2.37457e-05 -2.16582e-11 0.107643)
(-2.24493e-05 -2.00226e-11 0.108656)
(-2.11364e-05 -1.83993e-11 0.109731)
(-1.98007e-05 -1.67832e-11 0.110704)
(-1.84568e-05 -1.4997e-11 0.111512)
)
;

boundaryField
{
    front
    {
        type            wedge;
    }
    back
    {
        type            wedge;
    }
    wall
    {
        type            zeroGradient;
    }
    fuel
    {
        type            fixedValue;
        value           nonuniform 0();
    }
    outlet
    {
        type            pressureInletOutletVelocity;
        value           nonuniform 0();
    }
    axis
    {
        type            empty;
    }
    procBoundary6to5
    {
        type            processor;
        value           uniform (-3.3439e-05 -2.21302e-11 0.100225);
    }
    procBoundary6to7
    {
        type            processor;
        value           uniform (-1.70964e-05 -1.54195e-11 0.112272);
    }
}


// ************************************************************************* //
