/*--------------------------------*- C++ -*----------------------------------*\
| =========                 |                                                 |
| \\      /  F ield         | OpenFOAM: The Open Source CFD Toolbox           |
|  \\    /   O peration     | Version:  dev                                   |
|   \\  /    A nd           | Web:      www.OpenFOAM.org                      |
|    \\/     M anipulation  |                                                 |
\*---------------------------------------------------------------------------*/
FoamFile
{
    version     2.0;
    format      ascii;
    class       volScalarField;
    location    "0.025";
    object      moment.0.populationBalance;
}
// * * * * * * * * * * * * * * * * * * * * * * * * * * * * * * * * * * * * * //

dimensions      [0 -3 0 0 0 0 0];

internalField   nonuniform List<scalar> 
251
(
6.08107e+09
6.081e+09
6.08093e+09
6.08084e+09
6.08073e+09
6.08061e+09
6.08046e+09
6.08028e+09
6.08007e+09
6.07983e+09
6.07954e+09
6.0792e+09
6.07879e+09
6.07832e+09
6.07777e+09
6.07712e+09
6.07636e+09
6.07546e+09
6.07442e+09
6.07321e+09
6.0718e+09
6.07016e+09
6.06826e+09
6.06605e+09
6.0635e+09
6.06057e+09
6.05718e+09
6.0533e+09
6.04885e+09
6.04377e+09
6.03798e+09
6.0314e+09
6.02394e+09
6.01552e+09
6.00603e+09
5.99539e+09
5.98348e+09
5.97022e+09
5.9555e+09
5.93923e+09
5.92131e+09
5.90166e+09
5.88021e+09
5.85689e+09
5.83164e+09
5.80443e+09
5.77523e+09
5.74403e+09
5.71084e+09
5.67568e+09
5.63859e+09
5.59961e+09
5.55882e+09
5.51628e+09
5.4721e+09
5.42635e+09
5.37914e+09
5.33059e+09
5.28079e+09
5.22985e+09
5.1779e+09
5.12504e+09
5.07137e+09
5.01699e+09
4.96202e+09
4.90654e+09
4.85064e+09
4.7944e+09
4.73791e+09
4.68124e+09
4.62445e+09
4.56762e+09
4.51078e+09
4.45401e+09
4.39734e+09
4.34082e+09
4.28449e+09
4.22838e+09
4.17252e+09
4.11695e+09
4.06168e+09
4.00674e+09
3.95214e+09
3.89791e+09
3.84405e+09
3.79056e+09
3.73746e+09
3.68474e+09
3.63239e+09
3.58041e+09
3.52876e+09
3.47742e+09
3.42634e+09
3.37547e+09
3.32473e+09
3.27404e+09
3.22327e+09
3.1723e+09
3.12096e+09
3.06907e+09
3.01641e+09
2.96276e+09
2.90784e+09
2.85139e+09
2.79312e+09
2.73272e+09
2.6699e+09
2.60437e+09
2.53589e+09
2.46423e+09
2.38921e+09
2.31072e+09
2.22874e+09
2.14328e+09
2.0545e+09
1.9626e+09
1.86791e+09
1.77084e+09
1.67186e+09
1.57155e+09
1.47053e+09
1.36946e+09
1.26905e+09
1.16999e+09
1.07298e+09
9.78687e+08
8.87716e+08
8.00622e+08
7.17881e+08
6.39885e+08
5.66935e+08
4.99237e+08
4.36905e+08
3.79964e+08
3.28356e+08
2.81947e+08
2.40542e+08
2.03888e+08
1.71694e+08
1.43636e+08
1.19374e+08
9.85541e+07
8.08267e+07
6.58478e+07
5.32879e+07
4.28362e+07
3.42048e+07
2.71302e+07
2.13752e+07
1.67285e+07
1.30045e+07
1.00421e+07
7.70281e+06
5.86913e+06
4.44223e+06
3.33992e+06
2.4945e+06
1.85076e+06
1.36408e+06
998754
726467
524950
376853
268772
190443
134067
93769.5
65161.9
44991.2
30865.3
21039.4
14250.3
9590.7
6413.92
4262.38
2814.79
1847.2
1204.66
780.743
502.869
321.894
204.782
129.48
81.3682
50.8224
31.5512
19.4691
11.9413
7.28026
4.41203
2.65789
1.59166
0.947522
0.560741
0.329897
0.192951
0.112196
0.0648601
0.0372785
0.0213023
0.012103
0.00683701
0.00384021
0.0021447
0.001191
0.000657653
0.000361104
0.000197163
0.00010705
5.77993e-05
3.10343e-05
1.65712e-05
8.79964e-06
4.64713e-06
2.44074e-06
1.27492e-06
6.62332e-07
3.42224e-07
1.7587e-07
8.98941e-08
4.57019e-08
2.31105e-08
1.16242e-08
5.81572e-09
2.89427e-09
1.43277e-09
7.0554e-10
3.45607e-10
1.68408e-10
8.16335e-11
3.93635e-11
1.8881e-11
9.0078e-12
4.27342e-12
2.01491e-12
9.42996e-13
4.36779e-13
1.98856e-13
8.74716e-14
3.55224e-14
1.10882e-14
0
0
0
0
0
0
0
0
0
0
)
;

boundaryField
{
    wall
    {
        type            zeroGradient;
    }
    fuel
    {
        type            fixedValue;
        value           uniform 6.08112e+09;
    }
    outlet
    {
        type            inletOutlet;
        inletValue      nonuniform 0();
        value           nonuniform 0();
    }
    procBoundary0to1
    {
        type            processor;
        value           uniform 0;
    }
}


// ************************************************************************* //
