/*--------------------------------*- C++ -*----------------------------------*\
| =========                 |                                                 |
| \\      /  F ield         | OpenFOAM: The Open Source CFD Toolbox           |
|  \\    /   O peration     | Version:  dev                                   |
|   \\  /    A nd           | Web:      www.OpenFOAM.org                      |
|    \\/     M anipulation  |                                                 |
\*---------------------------------------------------------------------------*/
FoamFile
{
    version     2.0;
    format      ascii;
    class       volScalarField;
    location    "0.025";
    object      moment.2.populationBalance;
}
// * * * * * * * * * * * * * * * * * * * * * * * * * * * * * * * * * * * * * //

dimensions      [0 3 0 0 0 0 0];

internalField   nonuniform List<scalar> 
251
(
2.67112e+11
2.60176e+11
2.53407e+11
2.46803e+11
2.40359e+11
2.34072e+11
2.27939e+11
2.21956e+11
2.16121e+11
2.10429e+11
2.04878e+11
1.99465e+11
1.94186e+11
1.89039e+11
1.8402e+11
1.79127e+11
1.74357e+11
1.69707e+11
1.65175e+11
1.60757e+11
1.56451e+11
1.52255e+11
1.48166e+11
1.44181e+11
1.40299e+11
1.36516e+11
1.3283e+11
1.2924e+11
1.25743e+11
1.22336e+11
1.19018e+11
1.15787e+11
1.12639e+11
1.09574e+11
1.0659e+11
1.03684e+11
1.00854e+11
9.80994e+10
9.54174e+10
9.28065e+10
9.0265e+10
8.77911e+10
8.53831e+10
8.30394e+10
8.07585e+10
7.85387e+10
7.63786e+10
7.42766e+10
7.22312e+10
7.02411e+10
6.83048e+10
6.64209e+10
6.45882e+10
6.28053e+10
6.1071e+10
5.9384e+10
5.7743e+10
5.6147e+10
5.45947e+10
5.3085e+10
5.16168e+10
5.0189e+10
4.88006e+10
4.74505e+10
4.61378e+10
4.48614e+10
4.36204e+10
4.24138e+10
4.12408e+10
4.01004e+10
3.89919e+10
3.79142e+10
3.68667e+10
3.58485e+10
3.48588e+10
3.38969e+10
3.29619e+10
3.20533e+10
3.11702e+10
3.03119e+10
2.94778e+10
2.86673e+10
2.78796e+10
2.71141e+10
2.63702e+10
2.56473e+10
2.49447e+10
2.42618e+10
2.35981e+10
2.29528e+10
2.23254e+10
2.17151e+10
2.11213e+10
2.05431e+10
1.99799e+10
1.94308e+10
1.88948e+10
1.83709e+10
1.78581e+10
1.73551e+10
1.68607e+10
1.63735e+10
1.58922e+10
1.54151e+10
1.49409e+10
1.44679e+10
1.39948e+10
1.352e+10
1.30423e+10
1.25605e+10
1.20738e+10
1.15814e+10
1.10832e+10
1.05789e+10
1.00691e+10
9.55451e+09
9.03623e+09
8.5158e+09
7.99506e+09
7.47615e+09
6.96145e+09
6.45353e+09
5.95504e+09
5.46863e+09
4.99694e+09
4.54244e+09
4.10738e+09
3.69378e+09
3.3033e+09
2.93727e+09
2.59662e+09
2.28191e+09
1.99331e+09
1.7306e+09
1.49325e+09
1.28043e+09
1.09103e+09
9.23739e+08
7.771e+08
6.4953e+08
5.39387e+08
4.45007e+08
3.64742e+08
2.96994e+08
2.4024e+08
1.9305e+08
1.54106e+08
1.22204e+08
9.62653e+07
7.53301e+07
5.85573e+07
4.52178e+07
3.46859e+07
2.64311e+07
2.00078e+07
1.50455e+07
1.12394e+07
8.3409e+06
6.14925e+06
4.50376e+06
3.27701e+06
2.36885e+06
1.70123e+06
1.21383e+06
860456
606019
424070
294843
203682
139809
95354.5
64622.5
43518.2
29121.3
19364.8
12796.3
8403.09
5483.8
3556.5
2292.3
1468.38
934.826
591.506
371.991
232.52
144.461
89.2103
54.7597
33.4117
20.2646
12.2176
7.32241
4.36264
2.58394
1.52147
0.890633
0.518321
0.299897
0.172516
0.098668
0.0561079
0.0317235
0.0178343
0.00996911
0.00554105
0.00306247
0.00168308
0.000919805
0.00049987
0.000270145
0.000145185
7.75961e-05
4.1244e-05
2.18018e-05
1.14615e-05
5.99263e-06
3.11622e-06
1.61169e-06
8.29056e-07
4.24175e-07
2.1586e-07
1.09263e-07
5.50116e-08
2.75502e-08
1.37243e-08
6.80081e-09
3.35228e-09
1.64376e-09
8.01781e-10
3.89044e-10
1.87787e-10
9.01648e-11
4.30601e-11
2.04492e-11
9.65173e-12
4.52177e-12
2.09659e-12
9.55535e-13
4.20763e-13
1.71058e-13
5.34546e-14
0
0
0
0
0
0
0
0
0
0
)
;

boundaryField
{
    wall
    {
        type            zeroGradient;
    }
    fuel
    {
        type            fixedValue;
        value           uniform 2.7422e+11;
    }
    outlet
    {
        type            inletOutlet;
        inletValue      nonuniform 0();
        value           nonuniform 0();
    }
    procBoundary0to1
    {
        type            processor;
        value           uniform 0;
    }
}


// ************************************************************************* //
