/*--------------------------------*- C++ -*----------------------------------*\
| =========                 |                                                 |
| \\      /  F ield         | OpenFOAM: The Open Source CFD Toolbox           |
|  \\    /   O peration     | Version:  dev                                   |
|   \\  /    A nd           | Web:      www.OpenFOAM.org                      |
|    \\/     M anipulation  |                                                 |
\*---------------------------------------------------------------------------*/
FoamFile
{
    version     2.0;
    format      ascii;
    class       volScalarField;
    location    "0.025";
    object      moment.3.populationBalance;
}
// * * * * * * * * * * * * * * * * * * * * * * * * * * * * * * * * * * * * * //

dimensions      [0 6 0 0 0 0 0];

internalField   nonuniform List<scalar> 
251
(
8.66522e+12
8.43768e+12
8.21622e+12
8.00067e+12
7.79088e+12
7.58669e+12
7.38795e+12
7.19451e+12
7.00623e+12
6.82298e+12
6.64461e+12
6.47099e+12
6.302e+12
6.13751e+12
5.9774e+12
5.82155e+12
5.66984e+12
5.52217e+12
5.37842e+12
5.2385e+12
5.10228e+12
4.96968e+12
4.8406e+12
4.71494e+12
4.59261e+12
4.47352e+12
4.35758e+12
4.2447e+12
4.13481e+12
4.02782e+12
3.92365e+12
3.82223e+12
3.72349e+12
3.62734e+12
3.53372e+12
3.44257e+12
3.35381e+12
3.26739e+12
3.18323e+12
3.10127e+12
3.02147e+12
2.94375e+12
2.86807e+12
2.79437e+12
2.72259e+12
2.65268e+12
2.5846e+12
2.51829e+12
2.45371e+12
2.3908e+12
2.32953e+12
2.26986e+12
2.21173e+12
2.15511e+12
2.09995e+12
2.04622e+12
1.99388e+12
1.9429e+12
1.89322e+12
1.84483e+12
1.79769e+12
1.75176e+12
1.70701e+12
1.66341e+12
1.62092e+12
1.57953e+12
1.5392e+12
1.4999e+12
1.46161e+12
1.42429e+12
1.38792e+12
1.35249e+12
1.31795e+12
1.2843e+12
1.2515e+12
1.21954e+12
1.18838e+12
1.15802e+12
1.12842e+12
1.09958e+12
1.07146e+12
1.04406e+12
1.01734e+12
9.91303e+11
9.65917e+11
9.41168e+11
9.17037e+11
8.93507e+11
8.70558e+11
8.48174e+11
8.26333e+11
8.05016e+11
7.84201e+11
7.63864e+11
7.4398e+11
7.2452e+11
7.05455e+11
6.8675e+11
6.68369e+11
6.50272e+11
6.32414e+11
6.14749e+11
5.97227e+11
5.79796e+11
5.62403e+11
5.44995e+11
5.2752e+11
5.09929e+11
4.92176e+11
4.74224e+11
4.56041e+11
4.37609e+11
4.18917e+11
3.99972e+11
3.80789e+11
3.61402e+11
3.41857e+11
3.22214e+11
3.02546e+11
2.82936e+11
2.63476e+11
2.44267e+11
2.25408e+11
2.07003e+11
1.89152e+11
1.7195e+11
1.55482e+11
1.39825e+11
1.25044e+11
1.11187e+11
9.82916e+10
8.63779e+10
7.54525e+10
6.55077e+10
5.6523e+10
4.84668e+10
4.12972e+10
3.49649e+10
2.94143e+10
2.45856e+10
2.04165e+10
1.68441e+10
1.3806e+10
1.12417e+10
9.09354e+09
7.30739e+09
5.8333e+09
4.6258e+09
3.64398e+09
2.85155e+09
2.21667e+09
1.71173e+09
1.31307e+09
1.00059e+09
7.57444e+08
5.69597e+08
4.25514e+08
3.15787e+08
2.32817e+08
1.70521e+08
1.24077e+08
8.9694e+07
6.44167e+07
4.59626e+07
3.25828e+07
2.29487e+07
1.60591e+07
1.11657e+07
7.71368e+06
5.29486e+06
3.61139e+06
2.44754e+06
1.64827e+06
1.10301e+06
733491
484708
318306
207730
134726
86838.8
55627.7
35415.7
22409.6
14093.5
8809.63
5473.43
3380.13
2074.87
1266.01
767.868
462.962
277.474
165.321
97.9195
57.6578
33.7522
19.6431
11.3656
6.53815
3.73946
2.12649
1.20234
0.67594
0.377846
0.210018
0.116076
0.0637937
0.0348638
0.018947
0.0102396
0.00550315
0.00294126
0.00156335
0.000826401
0.000434453
0.000227154
0.000118122
6.10923e-05
3.14261e-05
1.60787e-05
8.18236e-06
4.1417e-06
2.08526e-06
1.04431e-06
5.20228e-07
2.57787e-07
1.27069e-07
6.23065e-08
3.03913e-08
1.47465e-08
7.11787e-09
3.41758e-09
1.63212e-09
7.75085e-10
3.65824e-10
1.71384e-10
7.94635e-11
3.62155e-11
1.5947e-11
6.48303e-12
2.02586e-12
0
0
0
0
0
0
0
0
0
0
)
;

boundaryField
{
    wall
    {
        type            zeroGradient;
    }
    fuel
    {
        type            fixedValue;
        value           uniform 8.899e+12;
    }
    outlet
    {
        type            inletOutlet;
        inletValue      nonuniform 0();
        value           nonuniform 0();
    }
    procBoundary0to1
    {
        type            processor;
        value           uniform 0;
    }
}


// ************************************************************************* //
