/*--------------------------------*- C++ -*----------------------------------*\
| =========                 |                                                 |
| \\      /  F ield         | OpenFOAM: The Open Source CFD Toolbox           |
|  \\    /   O peration     | Version:  dev                                   |
|   \\  /    A nd           | Web:      www.OpenFOAM.org                      |
|    \\/     M anipulation  |                                                 |
\*---------------------------------------------------------------------------*/
FoamFile
{
    version     2.0;
    format      ascii;
    class       volScalarField;
    location    "0.13";
    object      A1C2H3;
}
// * * * * * * * * * * * * * * * * * * * * * * * * * * * * * * * * * * * * * //

dimensions      [0 0 0 0 0 0 0];

internalField   nonuniform List<scalar> 
250
(
1.12341e-07
1.11996e-07
1.12246e-07
1.11989e-07
1.12253e-07
1.12279e-07
1.12306e-07
1.12731e-07
1.21148e-07
3.29813e-07
7.35702e-07
4.61204e-08
4.60035e-08
4.60834e-08
4.59948e-08
4.60549e-08
4.60607e-08
4.61135e-08
4.63831e-08
5.01466e-08
1.46642e-07
1.61799e-06
2.3671e-08
2.3649e-08
2.3667e-08
2.36411e-08
2.36577e-08
2.36592e-08
2.36943e-08
2.38907e-08
2.62901e-08
9.92459e-08
2.07027e-06
1.42627e-08
1.42622e-08
1.42647e-08
1.42563e-08
1.42623e-08
1.42628e-08
1.42912e-08
1.44595e-08
1.63233e-08
7.89759e-08
2.18619e-06
9.4537e-09
9.45792e-09
9.45611e-09
9.45402e-09
9.45603e-09
9.45692e-09
9.47812e-09
9.62678e-09
1.11814e-08
6.58225e-08
2.11398e-06
6.65165e-09
6.65822e-09
6.65703e-09
6.65459e-09
6.65738e-09
6.65839e-09
6.69287e-09
6.87846e-09
8.20995e-09
5.50322e-08
1.95125e-06
4.96951e-09
4.9758e-09
4.97419e-09
4.97328e-09
4.97388e-09
4.97676e-09
5.00766e-09
5.19311e-09
6.35291e-09
4.40649e-08
1.73801e-06
3.83598e-09
3.8417e-09
3.83969e-09
3.84027e-09
3.83759e-09
3.84349e-09
3.87203e-09
4.06693e-09
5.07225e-09
3.51808e-08
1.47832e-06
3.03456e-09
3.03875e-09
3.03893e-09
3.03539e-09
3.04108e-09
3.04117e-09
3.06588e-09
3.23989e-09
4.0967e-09
2.71262e-08
1.17666e-06
2.47078e-09
2.47389e-09
2.47429e-09
2.47085e-09
2.47536e-09
2.47676e-09
2.49876e-09
2.60214e-09
3.32113e-09
2.05022e-08
8.65635e-07
2.0554e-09
2.05694e-09
2.05116e-09
2.05913e-09
2.05943e-09
2.0903e-09
2.19821e-09
2.81176e-09
1.51963e-08
5.77176e-07
1.72307e-09
1.72545e-09
1.71782e-09
1.72796e-09
1.72722e-09
1.75781e-09
1.86639e-09
2.40623e-09
1.16704e-08
3.37799e-07
1.47623e-09
1.47942e-09
1.4689e-09
1.48255e-09
1.48034e-09
1.51107e-09
1.61437e-09
2.08623e-09
8.98107e-09
1.72435e-07
1.28906e-09
1.29293e-09
1.27805e-09
1.29673e-09
1.29303e-09
1.32397e-09
1.42118e-09
1.84111e-09
6.99449e-09
8.00392e-08
1.14416e-09
1.14854e-09
1.1475e-09
1.15298e-09
1.14793e-09
1.17891e-09
1.26977e-09
1.65021e-09
5.56654e-09
3.69542e-08
1.02993e-09
1.03453e-09
1.03205e-09
1.03939e-09
1.03346e-09
1.06415e-09
1.14876e-09
1.49889e-09
4.49402e-09
1.88993e-08
9.38657e-10
9.43214e-10
9.39675e-10
9.48239e-10
9.41894e-10
9.71917e-10
1.05058e-09
1.37705e-09
3.75289e-09
1.14221e-08
8.65235e-10
8.69513e-10
8.65172e-10
8.7447e-10
8.68139e-10
8.97073e-10
9.70186e-10
1.27749e-09
3.22476e-09
8.10623e-09
8.0627e-10
8.10059e-10
8.05056e-10
8.14752e-10
8.08805e-10
8.36234e-10
9.0443e-10
1.19481e-09
2.8487e-09
6.49244e-09
7.59532e-10
7.62642e-10
7.57024e-10
7.66926e-10
7.61671e-10
7.87185e-10
8.50765e-10
1.13463e-09
2.58149e-09
5.66718e-09
7.23618e-10
7.25868e-10
7.24415e-10
7.2966e-10
7.25341e-10
7.48541e-10
8.07655e-10
1.08421e-09
2.39285e-09
5.27111e-09
6.97795e-10
6.98967e-10
6.98329e-10
7.02172e-10
6.99086e-10
7.19577e-10
7.79139e-10
1.04168e-09
2.26189e-09
5.14581e-09
6.84061e-10
6.84142e-10
6.84448e-10
6.86756e-10
6.84975e-10
7.02753e-10
7.60219e-10
1.01422e-09
2.16276e-09
5.21082e-09
6.79398e-10
6.78827e-10
6.79769e-10
6.80105e-10
6.79906e-10
6.94624e-10
7.5027e-10
9.97196e-10
2.10145e-09
5.42577e-09
)
;

boundaryField
{
    fuel
    {
        type            fixedValue;
        value           uniform 0;
    }
    wall
    {
        type            zeroGradient;
    }
    outlet
    {
        type            zeroGradient;
    }
    frontAndBack
    {
        type            empty;
    }
    procBoundary3to0
    {
        type            processor;
        value           nonuniform List<scalar> 10(6.85605e-10 6.83699e-10 6.86007e-10 6.8404e-10 6.85707e-10 6.96937e-10 7.51385e-10 9.90844e-10 2.07231e-09 5.72464e-09);
    }
    procBoundary3to2
    {
        type            processor;
        value           nonuniform List<scalar> 
25
(
1.12421e-07
4.61197e-08
2.36763e-08
1.42688e-08
9.45954e-09
6.65805e-09
4.97531e-09
3.84109e-09
3.03847e-09
2.47372e-09
2.0531e-09
2.0531e-09
1.72172e-09
1.47577e-09
1.28928e-09
1.14484e-09
1.0309e-09
9.39807e-10
8.66476e-10
8.07546e-10
7.60797e-10
7.24825e-10
6.9889e-10
6.85e-10
6.80082e-10
)
;
    }
}


// ************************************************************************* //
