/*--------------------------------*- C++ -*----------------------------------*\
| =========                 |                                                 |
| \\      /  F ield         | OpenFOAM: The Open Source CFD Toolbox           |
|  \\    /   O peration     | Version:  dev                                   |
|   \\  /    A nd           | Web:      www.OpenFOAM.org                      |
|    \\/     M anipulation  |                                                 |
\*---------------------------------------------------------------------------*/
FoamFile
{
    version     2.0;
    format      ascii;
    class       volScalarField;
    location    "0.13";
    object      A2R5-;
}
// * * * * * * * * * * * * * * * * * * * * * * * * * * * * * * * * * * * * * //

dimensions      [0 0 0 0 0 0 0];

internalField   nonuniform List<scalar> 
250
(
2.22369e-08
2.22467e-08
2.22523e-08
2.22449e-08
2.22408e-08
2.22393e-08
2.22597e-08
2.24368e-08
2.36912e-08
3.07265e-08
8.05367e-10
2.727e-08
2.72662e-08
2.72775e-08
2.72752e-08
2.72708e-08
2.7281e-08
2.73184e-08
2.76063e-08
2.96446e-08
4.10441e-08
1.78553e-09
2.6664e-08
2.66521e-08
2.66731e-08
2.66692e-08
2.66652e-08
2.66805e-08
2.67238e-08
2.70704e-08
2.94573e-08
4.1909e-08
2.08645e-09
2.45963e-08
2.45852e-08
2.46158e-08
2.46084e-08
2.46059e-08
2.46233e-08
2.46692e-08
2.50455e-08
2.75601e-08
3.94938e-08
1.78101e-09
2.23076e-08
2.23285e-08
2.23594e-08
2.23479e-08
2.23479e-08
2.23658e-08
2.24131e-08
2.28013e-08
2.53279e-08
3.619e-08
1.22951e-09
2.02099e-08
2.01854e-08
2.01953e-08
2.01765e-08
2.01814e-08
2.02007e-08
2.02568e-08
2.07105e-08
2.32676e-08
3.29508e-08
7.50355e-10
1.8443e-08
1.84628e-08
1.84625e-08
1.84388e-08
1.84481e-08
1.84668e-08
1.85268e-08
1.89969e-08
2.15235e-08
3.0062e-08
4.5361e-10
1.6966e-08
1.70154e-08
1.7017e-08
1.69879e-08
1.70022e-08
1.70207e-08
1.70858e-08
1.75772e-08
2.00031e-08
2.75314e-08
3.16324e-10
1.56842e-08
1.5789e-08
1.57891e-08
1.57623e-08
1.57748e-08
1.5791e-08
1.58442e-08
1.62739e-08
1.85868e-08
2.52951e-08
3.24604e-10
1.45621e-08
1.45623e-08
1.45702e-08
1.45381e-08
1.4556e-08
1.45724e-08
1.46286e-08
1.5067e-08
1.74861e-08
2.32933e-08
4.64785e-10
1.35894e-08
1.36105e-08
1.3572e-08
1.35966e-08
1.36132e-08
1.36711e-08
1.41133e-08
1.6395e-08
2.14832e-08
7.10085e-10
1.25643e-08
1.26155e-08
1.25679e-08
1.26029e-08
1.26194e-08
1.26792e-08
1.31587e-08
1.53274e-08
1.98424e-08
1.05855e-09
1.17136e-08
1.16858e-08
1.16245e-08
1.16748e-08
1.16909e-08
1.17516e-08
1.2235e-08
1.44326e-08
1.83615e-08
1.44352e-09
1.08174e-08
1.0809e-08
1.07276e-08
1.0801e-08
1.0816e-08
1.08768e-08
1.13606e-08
1.35305e-08
1.70311e-08
1.82944e-09
9.97721e-09
9.97915e-09
9.98213e-09
9.97527e-09
9.98793e-09
1.00483e-08
1.05281e-08
1.25868e-08
1.58403e-08
2.21131e-09
9.18613e-09
9.19192e-09
9.19002e-09
9.19223e-09
9.20304e-09
9.26259e-09
9.73368e-09
1.17814e-08
1.4776e-08
2.58838e-09
8.439e-09
8.4454e-09
8.438e-09
8.44978e-09
8.45928e-09
8.51763e-09
8.97427e-09
1.09885e-08
1.37805e-08
2.949e-09
7.73299e-09
7.73849e-09
7.72434e-09
7.74673e-09
7.75545e-09
7.81236e-09
8.24717e-09
1.01495e-08
1.27751e-08
3.27079e-09
7.06653e-09
7.07033e-09
7.04746e-09
7.08229e-09
7.09063e-09
7.14595e-09
7.54931e-09
9.34271e-09
1.18351e-08
3.53121e-09
6.43837e-09
6.43988e-09
6.40494e-09
6.45568e-09
6.46372e-09
6.51743e-09
6.96122e-09
8.56959e-09
1.09487e-08
3.71671e-09
5.84689e-09
5.84558e-09
5.86703e-09
5.86582e-09
5.87312e-09
5.92448e-09
6.36169e-09
7.82955e-09
1.01348e-08
3.82846e-09
5.28933e-09
5.28392e-09
5.30513e-09
5.30893e-09
5.31601e-09
5.36325e-09
5.76703e-09
7.12262e-09
9.40375e-09
3.87926e-09
4.8225e-09
4.81194e-09
4.8357e-09
4.84229e-09
4.84925e-09
4.88836e-09
5.26241e-09
6.44969e-09
8.57733e-09
3.88652e-09
4.35814e-09
4.3729e-09
4.37074e-09
4.37885e-09
4.38649e-09
4.43825e-09
4.7918e-09
5.81003e-09
7.8601e-09
3.8693e-09
)
;

boundaryField
{
    fuel
    {
        type            fixedValue;
        value           uniform 0;
    }
    wall
    {
        type            zeroGradient;
    }
    outlet
    {
        type            zeroGradient;
    }
    frontAndBack
    {
        type            empty;
    }
    procBoundary3to0
    {
        type            processor;
        value           nonuniform List<scalar> 10(3.95252e-09 3.96539e-09 3.96411e-09 3.97275e-09 3.98054e-09 4.02495e-09 4.31403e-09 5.19989e-09 7.1599e-09 3.83831e-09);
    }
    procBoundary3to2
    {
        type            processor;
        value           nonuniform List<scalar> 
25
(
2.22372e-08
2.72737e-08
2.66672e-08
2.45976e-08
2.23086e-08
2.02252e-08
1.84673e-08
1.70063e-08
1.57728e-08
1.45495e-08
1.35523e-08
1.35523e-08
1.2635e-08
1.16657e-08
1.08565e-08
1.00019e-08
9.20025e-09
8.44618e-09
7.73524e-09
7.06498e-09
6.4338e-09
5.83997e-09
5.28063e-09
4.81266e-09
4.34668e-09
)
;
    }
}


// ************************************************************************* //
