/*--------------------------------*- C++ -*----------------------------------*\
| =========                 |                                                 |
| \\      /  F ield         | OpenFOAM: The Open Source CFD Toolbox           |
|  \\    /   O peration     | Version:  dev                                   |
|   \\  /    A nd           | Web:      www.OpenFOAM.org                      |
|    \\/     M anipulation  |                                                 |
\*---------------------------------------------------------------------------*/
FoamFile
{
    version     2.0;
    format      ascii;
    class       volScalarField;
    location    "0.13";
    object      CO;
}
// * * * * * * * * * * * * * * * * * * * * * * * * * * * * * * * * * * * * * //

dimensions      [0 0 0 0 0 0 0];

internalField   nonuniform List<scalar> 
250
(
0.133955
0.133955
0.133953
0.133952
0.133953
0.13395
0.133948
0.133907
0.133641
0.131764
0.00929173
0.156689
0.156691
0.156686
0.156687
0.156688
0.156685
0.156679
0.156617
0.156238
0.153754
0.0253832
0.163578
0.163584
0.163574
0.163576
0.163577
0.163572
0.163562
0.163475
0.162947
0.159733
0.0418452
0.166649
0.166653
0.166638
0.166641
0.166642
0.166636
0.166622
0.166505
0.165822
0.161905
0.057921
0.168522
0.168505
0.168489
0.168495
0.168495
0.168488
0.168468
0.168322
0.167486
0.162951
0.0731254
0.169932
0.169943
0.16994
0.169952
0.169949
0.169939
0.169909
0.169692
0.168668
0.163613
0.0871307
0.171105
0.171087
0.171089
0.171105
0.171099
0.171088
0.171051
0.170793
0.169618
0.164146
0.0997686
0.172149
0.172107
0.172107
0.172128
0.172119
0.172107
0.172062
0.171759
0.170484
0.164652
0.111035
0.173131
0.173042
0.173043
0.173063
0.173055
0.173044
0.173004
0.17272
0.171359
0.165178
0.121105
0.174053
0.17405
0.174044
0.17407
0.174058
0.174045
0.173998
0.173679
0.172089
0.165744
0.130273
0.174894
0.174876
0.174909
0.17489
0.174876
0.174824
0.174478
0.17286
0.16636
0.138589
0.175822
0.175776
0.175818
0.175789
0.175775
0.175717
0.175311
0.173654
0.167023
0.145663
0.176614
0.176642
0.176699
0.176655
0.17664
0.176577
0.176142
0.174341
0.167728
0.151185
0.177467
0.177476
0.177554
0.177486
0.177472
0.177404
0.176945
0.175054
0.168468
0.155373
0.178277
0.178277
0.178272
0.178283
0.17827
0.178199
0.177719
0.175819
0.169237
0.158607
0.179048
0.179043
0.179043
0.179046
0.179034
0.17896
0.178466
0.176482
0.170027
0.161196
0.17978
0.179774
0.179779
0.179773
0.179763
0.179686
0.179184
0.177144
0.170864
0.163344
0.180472
0.180468
0.18048
0.180463
0.180453
0.180374
0.179874
0.177854
0.171803
0.165185
0.181125
0.181122
0.181144
0.181114
0.181104
0.181024
0.180537
0.178543
0.172756
0.166803
0.181736
0.181736
0.18177
0.181724
0.181714
0.181632
0.18109
0.179207
0.173708
0.168257
0.182303
0.182307
0.182285
0.18229
0.182281
0.182199
0.181649
0.179843
0.174617
0.169584
0.182827
0.182836
0.182813
0.182814
0.182805
0.182725
0.182194
0.180449
0.175447
0.170813
0.183248
0.183263
0.183237
0.183235
0.183226
0.183152
0.182643
0.181018
0.176381
0.171964
0.183647
0.183639
0.183636
0.183633
0.183624
0.183538
0.183045
0.181548
0.17718
0.173045
)
;

boundaryField
{
    fuel
    {
        type            fixedValue;
        value           uniform 0;
    }
    wall
    {
        type            zeroGradient;
    }
    outlet
    {
        type            zeroGradient;
    }
    frontAndBack
    {
        type            empty;
    }
    procBoundary3to0
    {
        type            processor;
        value           nonuniform List<scalar> 10(0.183969 0.183963 0.183958 0.183956 0.183947 0.183866 0.183429 0.182039 0.177939 0.174057);
    }
    procBoundary3to2
    {
        type            processor;
        value           nonuniform List<scalar> 
25
(
0.133953
0.156688
0.163578
0.166649
0.168521
0.169921
0.171087
0.172117
0.173057
0.174063
0.174929
0.174929
0.175757
0.17666
0.177428
0.178252
0.179033
0.179771
0.180469
0.181126
0.18174
0.18231
0.182835
0.183257
0.183656
)
;
    }
}


// ************************************************************************* //
