/*--------------------------------*- C++ -*----------------------------------*\
| =========                 |                                                 |
| \\      /  F ield         | OpenFOAM: The Open Source CFD Toolbox           |
|  \\    /   O peration     | Version:  dev                                   |
|   \\  /    A nd           | Web:      www.OpenFOAM.org                      |
|    \\/     M anipulation  |                                                 |
\*---------------------------------------------------------------------------*/
FoamFile
{
    version     2.0;
    format      ascii;
    class       volScalarField;
    location    "0.13";
    object      CO;
}
// * * * * * * * * * * * * * * * * * * * * * * * * * * * * * * * * * * * * * //

dimensions      [0 0 0 0 0 0 0];

internalField   nonuniform List<scalar> 
250
(
0.134129
0.134133
0.13413
0.134132
0.134129
0.134129
0.134125
0.134097
0.133785
0.129266
0.0298106
0.156729
0.156727
0.156727
0.156728
0.156725
0.156727
0.156714
0.15667
0.156255
0.150917
0.0743166
0.16352
0.163515
0.163516
0.163516
0.163513
0.163515
0.163495
0.163427
0.162901
0.156899
0.110045
0.16654
0.166533
0.166533
0.166535
0.166531
0.166533
0.166504
0.166408
0.165778
0.159612
0.135161
0.168378
0.168369
0.168368
0.168372
0.168366
0.168368
0.168329
0.168201
0.16748
0.161504
0.151542
0.169814
0.169804
0.169799
0.169808
0.169799
0.1698
0.169738
0.169542
0.168746
0.163068
0.161802
0.17098
0.170968
0.170963
0.170975
0.170963
0.170963
0.170886
0.170638
0.169771
0.164605
0.168084
0.172028
0.172016
0.172009
0.172024
0.17201
0.172009
0.171916
0.171604
0.170674
0.165813
0.171854
0.17301
0.173001
0.172988
0.173015
0.172982
0.172991
0.172884
0.172545
0.171553
0.166988
0.174036
0.173925
0.173917
0.173901
0.173935
0.173894
0.173905
0.173783
0.173514
0.172454
0.168188
0.175188
0.174817
0.174795
0.174843
0.17478
0.1748
0.174636
0.174316
0.173205
0.169312
0.175688
0.175761
0.175733
0.175798
0.175712
0.175742
0.175554
0.175183
0.173972
0.170173
0.175773
0.176671
0.176637
0.176724
0.176608
0.176649
0.176437
0.176035
0.174749
0.170965
0.175595
0.177543
0.177503
0.177619
0.177466
0.177518
0.177285
0.17686
0.175502
0.171702
0.17526
0.178375
0.178329
0.178366
0.178283
0.178348
0.178095
0.177656
0.176231
0.172387
0.174852
0.179163
0.179114
0.179162
0.179061
0.179136
0.178866
0.178421
0.176936
0.173071
0.17443
0.179907
0.179855
0.179914
0.179797
0.17988
0.179598
0.179153
0.177619
0.173701
0.174037
0.180605
0.180553
0.180622
0.18049
0.180578
0.180288
0.179849
0.178281
0.1743
0.173699
0.181255
0.181204
0.181285
0.18114
0.181229
0.180936
0.180509
0.178926
0.174874
0.173433
0.181857
0.18181
0.181903
0.181744
0.181833
0.181542
0.181132
0.179477
0.175427
0.173243
0.182411
0.18237
0.182405
0.182303
0.182389
0.182105
0.181722
0.180021
0.175965
0.173133
0.182918
0.182885
0.182915
0.182818
0.182898
0.182626
0.182202
0.180578
0.17649
0.173105
0.183322
0.183299
0.183321
0.183231
0.183304
0.183047
0.182636
0.181045
0.177077
0.173163
0.183707
0.183662
0.183705
0.183621
0.18369
0.183442
0.183049
0.181486
0.177667
0.173307
)
;

boundaryField
{
    fuel
    {
        type            fixedValue;
        value           uniform 0;
    }
    wall
    {
        type            zeroGradient;
    }
    outlet
    {
        type            zeroGradient;
    }
    frontAndBack
    {
        type            empty;
    }
    procBoundary3to0
    {
        type            processor;
        value           nonuniform List<scalar> 10(0.184013 0.183974 0.184011 0.183938 0.183998 0.183769 0.18339 0.181924 0.178197 0.173539);
    }
    procBoundary3to2
    {
        type            processor;
        value           nonuniform List<scalar> 
25
(
0.134128
0.156726
0.163516
0.166534
0.16837
0.169805
0.17097
0.172018
0.173001
0.173916
0.174822
0.174822
0.175764
0.17667
0.177538
0.178367
0.179153
0.179895
0.18059
0.181238
0.181838
0.182391
0.182896
0.1833
0.183685
)
;
    }
}


// ************************************************************************* //
