/*--------------------------------*- C++ -*----------------------------------*\
| =========                 |                                                 |
| \\      /  F ield         | OpenFOAM: The Open Source CFD Toolbox           |
|  \\    /   O peration     | Version:  dev                                   |
|   \\  /    A nd           | Web:      www.OpenFOAM.org                      |
|    \\/     M anipulation  |                                                 |
\*---------------------------------------------------------------------------*/
FoamFile
{
    version     2.0;
    format      ascii;
    class       volScalarField;
    location    "0.13";
    object      i-C6H5;
}
// * * * * * * * * * * * * * * * * * * * * * * * * * * * * * * * * * * * * * //

dimensions      [0 0 0 0 0 0 0];

internalField   nonuniform List<scalar> 
250
(
2.50645e-09
2.53545e-09
2.53897e-09
2.5159e-09
2.51412e-09
2.51954e-09
2.50371e-09
2.51564e-09
2.52983e-09
2.715e-09
1.42102e-12
2.26566e-09
2.2708e-09
2.2722e-09
2.26756e-09
2.2672e-09
2.26846e-09
2.26535e-09
2.27045e-09
2.28634e-09
2.36416e-09
2.04436e-12
1.61941e-09
1.61981e-09
1.62117e-09
1.62001e-09
1.61992e-09
1.6205e-09
1.61965e-09
1.62399e-09
1.64359e-09
1.73671e-09
1.88372e-12
1.06485e-09
1.06475e-09
1.06648e-09
1.06601e-09
1.06603e-09
1.06638e-09
1.06597e-09
1.06941e-09
1.08858e-09
1.19449e-09
1.54486e-12
6.88723e-10
6.91706e-10
6.93178e-10
6.92876e-10
6.92954e-10
6.93145e-10
6.9278e-10
6.94543e-10
7.11061e-10
8.19887e-10
1.25481e-12
4.54271e-10
4.51224e-10
4.51067e-10
4.50564e-10
4.50812e-10
4.51046e-10
4.51343e-10
4.57169e-10
4.77387e-10
5.80832e-10
1.19374e-12
3.1325e-10
3.13381e-10
3.12574e-10
3.12075e-10
3.12382e-10
3.12526e-10
3.12899e-10
3.17951e-10
3.36823e-10
4.28893e-10
1.91849e-12
2.2736e-10
2.28621e-10
2.27999e-10
2.27462e-10
2.27853e-10
2.27952e-10
2.2847e-10
2.33456e-10
2.47748e-10
3.29043e-10
8.57201e-12
1.72531e-10
1.75416e-10
1.74843e-10
1.74568e-10
1.74753e-10
1.74741e-10
1.74742e-10
1.76604e-10
1.87038e-10
2.60473e-10
6.36125e-11
1.36765e-10
1.36234e-10
1.35984e-10
1.35691e-10
1.35917e-10
1.35908e-10
1.35998e-10
1.37801e-10
1.5171e-10
2.11594e-10
2.77658e-10
1.12752e-10
1.12805e-10
1.12477e-10
1.12743e-10
1.12744e-10
1.12879e-10
1.1455e-10
1.25398e-10
1.75719e-10
6.93463e-10
9.40214e-11
9.45685e-11
9.41903e-11
9.4513e-11
9.45318e-11
9.47052e-11
9.68123e-11
1.0577e-10
1.48712e-10
1.18334e-09
8.17952e-11
8.12976e-11
8.08174e-11
8.12448e-11
8.12782e-11
8.1471e-11
8.34667e-11
9.27876e-11
1.27683e-10
1.39952e-09
7.14362e-11
7.12381e-11
7.05762e-11
7.11986e-11
7.12393e-11
7.14413e-11
7.3342e-11
8.22306e-11
1.10818e-10
1.25047e-09
6.33664e-11
6.33178e-11
6.34245e-11
6.33009e-11
6.33368e-11
6.35422e-11
6.53547e-11
7.30963e-11
9.71795e-11
9.15339e-10
5.68445e-11
5.68536e-11
5.68949e-11
5.68593e-11
5.68921e-11
5.70976e-11
5.88258e-11
6.63979e-11
8.6219e-11
5.80221e-10
5.13876e-11
5.14125e-11
5.13997e-11
5.14399e-11
5.14715e-11
5.16755e-11
5.33115e-11
6.05954e-11
7.71082e-11
3.31102e-10
4.66901e-11
4.67136e-11
4.66495e-11
4.67613e-11
4.67936e-11
4.69954e-11
4.85181e-11
5.5087e-11
6.89754e-11
1.75967e-10
4.2556e-11
4.25709e-11
4.24509e-11
4.26381e-11
4.26722e-11
4.28716e-11
4.42421e-11
5.02277e-11
6.21743e-11
9.06491e-11
3.88551e-11
3.8858e-11
3.86664e-11
3.89449e-11
3.89805e-11
3.91777e-11
4.08167e-11
4.58766e-11
5.63395e-11
4.79113e-11
3.5496e-11
3.54844e-11
3.56017e-11
3.55939e-11
3.56279e-11
3.58193e-11
3.74621e-11
4.19244e-11
5.13857e-11
2.80749e-11
3.24053e-11
3.23735e-11
3.24835e-11
3.25069e-11
3.25416e-11
3.27178e-11
3.42298e-11
3.82925e-11
4.72087e-11
1.95489e-11
2.98426e-11
2.97849e-11
2.99055e-11
2.99457e-11
2.99811e-11
3.012e-11
3.15244e-11
3.49268e-11
4.27042e-11
1.62726e-11
2.73049e-11
2.73818e-11
2.73644e-11
2.74142e-11
2.74544e-11
2.76665e-11
2.90145e-11
3.17804e-11
3.89292e-11
1.53043e-11
)
;

boundaryField
{
    fuel
    {
        type            fixedValue;
        value           uniform 0;
    }
    wall
    {
        type            zeroGradient;
    }
    outlet
    {
        type            zeroGradient;
    }
    frontAndBack
    {
        type            empty;
    }
    procBoundary3to0
    {
        type            processor;
        value           nonuniform List<scalar> 10(2.50679e-11 2.51353e-11 2.51225e-11 2.51765e-11 2.52185e-11 2.53964e-11 2.64641e-11 2.87969e-11 3.53403e-11 1.52788e-11);
    }
    procBoundary3to2
    {
        type            processor;
        value           nonuniform List<scalar> 
25
(
2.51491e-09
2.26735e-09
1.61965e-09
1.06455e-09
6.88237e-10
4.54773e-10
3.13972e-10
2.28319e-10
1.74841e-10
1.35802e-10
1.12403e-10
1.12403e-10
9.53551e-11
8.13632e-11
7.19258e-11
6.36589e-11
5.70097e-11
5.14769e-11
4.67314e-11
4.25642e-11
3.88394e-11
3.54629e-11
3.23599e-11
2.97894e-11
2.72421e-11
)
;
    }
}


// ************************************************************************* //
