/*--------------------------------*- C++ -*----------------------------------*\
| =========                 |                                                 |
| \\      /  F ield         | OpenFOAM: The Open Source CFD Toolbox           |
|  \\    /   O peration     | Version:  dev                                   |
|   \\  /    A nd           | Web:      www.OpenFOAM.org                      |
|    \\/     M anipulation  |                                                 |
\*---------------------------------------------------------------------------*/
FoamFile
{
    version     2.0;
    format      ascii;
    class       volScalarField;
    location    "0.13";
    object      i-C6H5;
}
// * * * * * * * * * * * * * * * * * * * * * * * * * * * * * * * * * * * * * //

dimensions      [0 0 0 0 0 0 0];

internalField   nonuniform List<scalar> 
50
(
9.75862e-24
8.36986e-24
7.12907e-24
6.03127e-24
5.067e-24
4.22162e-24
3.48255e-24
2.85861e-24
2.32741e-24
1.87178e-24
1.49079e-24
1.18037e-24
9.22358e-25
7.11587e-25
5.44925e-25
4.12312e-25
3.06936e-25
2.26268e-25
1.63647e-25
1.16415e-25
8.19459e-26
5.67225e-26
3.85529e-26
2.56245e-26
1.67938e-26
1.07987e-26
6.81532e-27
4.22907e-27
2.56459e-27
1.53023e-27
9.12168e-28
5.41957e-28
3.23727e-28
1.96492e-28
1.21982e-28
7.87788e-29
5.26988e-29
3.67763e-29
2.64925e-29
1.95395e-29
1.46415e-29
1.10856e-29
8.46661e-30
6.54101e-30
5.13334e-30
4.05059e-30
2.98801e-30
1.69745e-30
7.04186e-31
2.13982e-31
)
;

boundaryField
{
    wall
    {
        type            zeroGradient;
    }
    fuel
    {
        type            fixedValue;
        value           nonuniform 0();
    }
    outlet
    {
        type            inletOutlet;
        inletValue      uniform 0;
        value           uniform 0;
    }
    procBoundary3to2
    {
        type            processor;
        value           uniform 1.13168e-23;
    }
}


// ************************************************************************* //
