/*--------------------------------*- C++ -*----------------------------------*\
| =========                 |                                                 |
| \\      /  F ield         | OpenFOAM: The Open Source CFD Toolbox           |
|  \\    /   O peration     | Version:  dev                                   |
|   \\  /    A nd           | Web:      www.OpenFOAM.org                      |
|    \\/     M anipulation  |                                                 |
\*---------------------------------------------------------------------------*/
FoamFile
{
    version     2.0;
    format      ascii;
    class       volScalarField;
    location    "0.13";
    object      naphthyne;
}
// * * * * * * * * * * * * * * * * * * * * * * * * * * * * * * * * * * * * * //

dimensions      [0 0 0 0 0 0 0];

internalField   nonuniform List<scalar> 
250
(
7.4435e-08
7.44156e-08
7.44219e-08
7.44602e-08
7.44558e-08
7.44447e-08
7.44756e-08
7.47689e-08
7.67238e-08
8.92334e-08
2.6019e-09
6.19902e-08
6.19744e-08
6.1999e-08
6.20046e-08
6.19959e-08
6.20108e-08
6.20613e-08
6.24925e-08
6.5475e-08
8.61032e-08
5.95853e-09
4.75997e-08
4.75705e-08
4.76186e-08
4.76159e-08
4.7607e-08
4.76285e-08
4.76897e-08
4.82014e-08
5.17417e-08
7.66777e-08
8.4834e-09
3.63587e-08
3.63318e-08
3.64051e-08
3.63977e-08
3.63909e-08
3.64142e-08
3.64792e-08
3.70276e-08
4.08521e-08
6.80679e-08
1.04052e-08
2.7676e-08
2.77446e-08
2.78144e-08
2.78028e-08
2.77999e-08
2.78213e-08
2.78855e-08
2.84254e-08
3.23125e-08
6.03916e-08
1.19288e-08
2.09452e-08
2.08589e-08
2.08623e-08
2.08382e-08
2.08448e-08
2.08677e-08
2.09504e-08
2.16375e-08
2.56417e-08
5.37019e-08
1.31909e-08
1.58737e-08
1.59021e-08
1.58746e-08
1.5846e-08
1.58588e-08
1.58778e-08
1.59609e-08
1.66287e-08
2.04965e-08
4.79965e-08
1.42656e-08
1.21104e-08
1.21927e-08
1.21694e-08
1.21362e-08
1.21557e-08
1.21716e-08
1.2257e-08
1.29104e-08
1.63942e-08
4.3175e-08
1.51717e-08
9.30885e-09
9.48485e-09
9.45979e-09
9.43952e-09
9.44935e-09
9.45801e-09
9.50953e-09
9.96311e-09
1.30007e-08
3.90754e-08
1.58758e-08
7.27788e-09
7.25474e-09
7.24489e-09
7.22353e-09
7.23623e-09
7.24363e-09
7.29306e-09
7.70199e-09
1.07445e-08
3.55288e-08
1.62684e-08
5.8316e-09
5.83873e-09
5.81546e-09
5.83098e-09
5.8378e-09
5.88471e-09
6.25312e-09
8.88688e-09
3.23781e-08
1.6127e-08
4.655e-09
4.69244e-09
4.66643e-09
4.68574e-09
4.69242e-09
4.73687e-09
5.10267e-09
7.40229e-09
2.9507e-08
1.53221e-08
3.88165e-09
3.85119e-09
3.81953e-09
3.84529e-09
3.85174e-09
3.89324e-09
4.22369e-09
6.38179e-09
2.684e-08
1.41731e-08
3.23316e-09
3.2212e-09
3.17942e-09
3.21662e-09
3.22253e-09
3.26102e-09
3.56007e-09
5.53028e-09
2.43296e-08
1.32047e-08
2.74188e-09
2.73902e-09
2.74573e-09
2.73617e-09
2.74092e-09
2.77648e-09
3.04724e-09
4.78287e-09
2.19544e-08
1.27259e-08
2.36102e-09
2.36152e-09
2.36512e-09
2.36017e-09
2.36402e-09
2.39682e-09
2.64189e-09
4.23587e-09
1.97118e-08
1.27658e-08
2.05885e-09
2.06018e-09
2.06111e-09
2.06006e-09
2.06327e-09
2.09351e-09
2.31447e-09
3.76632e-09
1.75222e-08
1.31595e-08
1.81474e-09
1.81591e-09
1.81433e-09
1.81678e-09
1.81955e-09
1.84743e-09
2.04497e-09
3.32821e-09
1.52687e-08
1.3663e-08
1.61512e-09
1.61577e-09
1.61154e-09
1.61743e-09
1.6199e-09
1.64566e-09
1.81952e-09
2.95361e-09
1.31833e-08
1.40568e-08
1.45082e-09
1.4508e-09
1.44331e-09
1.45315e-09
1.45539e-09
1.47925e-09
1.65249e-09
2.63273e-09
1.12956e-08
1.41984e-08
1.31541e-09
1.31464e-09
1.31999e-09
1.31774e-09
1.31962e-09
1.34168e-09
1.50226e-09
2.35792e-09
9.67645e-09
1.40323e-08
1.20415e-09
1.20243e-09
1.20748e-09
1.20625e-09
1.20792e-09
1.22807e-09
1.3711e-09
2.12324e-09
8.35392e-09
1.35625e-08
1.12426e-09
1.12147e-09
1.12678e-09
1.12606e-09
1.12756e-09
1.14549e-09
1.27407e-09
1.92407e-09
7.02779e-09
1.28308e-08
1.0579e-09
1.05856e-09
1.06002e-09
1.05946e-09
1.06092e-09
1.07981e-09
1.19674e-09
1.75738e-09
6.01869e-09
1.19073e-08
)
;

boundaryField
{
    fuel
    {
        type            fixedValue;
        value           uniform 0;
    }
    wall
    {
        type            zeroGradient;
    }
    outlet
    {
        type            zeroGradient;
    }
    frontAndBack
    {
        type            empty;
    }
    procBoundary3to0
    {
        type            processor;
        value           nonuniform List<scalar> 10(1.01217e-09 1.01235e-09 1.01395e-09 1.01329e-09 1.01465e-09 1.03177e-09 1.13226e-09 1.61954e-09 5.16604e-09 1.08632e-08);
    }
    procBoundary3to2
    {
        type            processor;
        value           nonuniform List<scalar> 
25
(
7.44404e-08
6.19936e-08
4.75997e-08
3.63502e-08
2.76642e-08
2.09706e-08
1.59133e-08
1.21707e-08
9.44986e-09
7.22775e-09
5.80265e-09
5.80265e-09
4.73694e-09
3.85275e-09
3.26325e-09
2.75985e-09
2.37116e-09
2.06446e-09
1.81763e-09
1.61628e-09
1.45087e-09
1.31477e-09
1.20316e-09
1.12316e-09
1.05674e-09
)
;
    }
}


// ************************************************************************* //
