/*--------------------------------*- C++ -*----------------------------------*\
| =========                 |                                                 |
| \\      /  F ield         | OpenFOAM: The Open Source CFD Toolbox           |
|  \\    /   O peration     | Version:  dev                                   |
|   \\  /    A nd           | Web:      www.OpenFOAM.org                      |
|    \\/     M anipulation  |                                                 |
\*---------------------------------------------------------------------------*/
FoamFile
{
    version     2.0;
    format      ascii;
    class       volScalarField;
    location    "0.13";
    object      naphthyne;
}
// * * * * * * * * * * * * * * * * * * * * * * * * * * * * * * * * * * * * * //

dimensions      [0 0 0 0 0 0 0];

internalField   nonuniform List<scalar> 
50
(
3.02559e-20
2.76954e-20
2.5138e-20
2.26214e-20
2.01757e-20
1.78166e-20
1.556e-20
1.34891e-20
1.15835e-20
9.8259e-21
8.25393e-21
6.89115e-21
5.69072e-21
4.6552e-21
3.79364e-21
3.07381e-21
2.4737e-21
1.99186e-21
1.59891e-21
1.28676e-21
1.04597e-21
8.58604e-22
7.13923e-22
6.02418e-22
5.18916e-22
4.55798e-22
4.08192e-22
3.72239e-22
3.44475e-22
3.22944e-22
3.06112e-22
2.92158e-22
2.80046e-22
2.69008e-22
2.58403e-22
2.48016e-22
2.37361e-22
2.26471e-22
2.15077e-22
2.03078e-22
1.9039e-22
1.76918e-22
1.62544e-22
1.47119e-22
1.30444e-22
1.12249e-22
9.21804e-23
6.98122e-23
4.46629e-23
1.59271e-23
)
;

boundaryField
{
    wall
    {
        type            zeroGradient;
    }
    fuel
    {
        type            fixedValue;
        value           nonuniform 0();
    }
    outlet
    {
        type            inletOutlet;
        inletValue      uniform 0;
        value           uniform 0;
    }
    procBoundary3to2
    {
        type            processor;
        value           uniform 3.27874e-20;
    }
}


// ************************************************************************* //
