/*--------------------------------*- C++ -*----------------------------------*\
| =========                 |                                                 |
| \\      /  F ield         | OpenFOAM: The Open Source CFD Toolbox           |
|  \\    /   O peration     | Version:  dev                                   |
|   \\  /    A nd           | Web:      www.OpenFOAM.org                      |
|    \\/     M anipulation  |                                                 |
\*---------------------------------------------------------------------------*/
FoamFile
{
    version     2.0;
    format      ascii;
    class       volScalarField;
    location    "0.065";
    object      A1C2H;
}
// * * * * * * * * * * * * * * * * * * * * * * * * * * * * * * * * * * * * * //

dimensions      [0 0 0 0 0 0 0];

internalField   nonuniform List<scalar> 
25
(
9.3327e-12
1.0368e-11
1.14237e-11
1.24847e-11
1.35382e-11
1.45736e-11
1.55823e-11
1.65571e-11
1.7492e-11
1.8382e-11
1.92241e-11
2.00117e-11
2.07435e-11
2.14162e-11
2.20267e-11
2.25771e-11
2.30549e-11
2.3461e-11
2.37924e-11
2.40391e-11
2.41956e-11
2.42541e-11
2.42052e-11
2.40395e-11
2.37527e-11
)
;

boundaryField
{
    wall
    {
        type            zeroGradient;
    }
    fuel
    {
        type            fixedValue;
        value           nonuniform 0();
    }
    outlet
    {
        type            inletOutlet;
        inletValue      nonuniform 0();
        value           nonuniform 0();
    }
    procBoundary1to0
    {
        type            processor;
        value           uniform 8.3357e-12;
    }
    procBoundary1to2
    {
        type            processor;
        value           uniform 2.33391e-11;
    }
}


// ************************************************************************* //
