/*--------------------------------*- C++ -*----------------------------------*\
| =========                 |                                                 |
| \\      /  F ield         | OpenFOAM: The Open Source CFD Toolbox           |
|  \\    /   O peration     | Version:  dev                                   |
|   \\  /    A nd           | Web:      www.OpenFOAM.org                      |
|    \\/     M anipulation  |                                                 |
\*---------------------------------------------------------------------------*/
FoamFile
{
    version     2.0;
    format      ascii;
    class       volScalarField;
    location    "0.065";
    object      A1C2H*;
}
// * * * * * * * * * * * * * * * * * * * * * * * * * * * * * * * * * * * * * //

dimensions      [0 0 0 0 0 0 0];

internalField   nonuniform List<scalar> 
25
(
4.95383e-17
3.77518e-17
2.89457e-17
2.23978e-17
1.75457e-17
1.39597e-17
1.13995e-17
9.53191e-18
8.19625e-18
7.27355e-18
6.67675e-18
6.34302e-18
6.22751e-18
6.29789e-18
6.52928e-18
6.91053e-18
7.42997e-18
8.07821e-18
8.82594e-18
9.70102e-18
1.07211e-17
1.19185e-17
1.32456e-17
1.48029e-17
1.66907e-17
)
;

boundaryField
{
    wall
    {
        type            zeroGradient;
    }
    fuel
    {
        type            fixedValue;
        value           nonuniform 0();
    }
    outlet
    {
        type            inletOutlet;
        inletValue      nonuniform 0();
        value           nonuniform 0();
    }
    procBoundary1to0
    {
        type            processor;
        value           uniform 6.56972e-17;
    }
    procBoundary1to2
    {
        type            processor;
        value           uniform 1.88417e-17;
    }
}


// ************************************************************************* //
