/*--------------------------------*- C++ -*----------------------------------*\
| =========                 |                                                 |
| \\      /  F ield         | OpenFOAM: The Open Source CFD Toolbox           |
|  \\    /   O peration     | Version:  dev                                   |
|   \\  /    A nd           | Web:      www.OpenFOAM.org                      |
|    \\/     M anipulation  |                                                 |
\*---------------------------------------------------------------------------*/
FoamFile
{
    version     2.0;
    format      ascii;
    class       volScalarField;
    location    "0.065";
    object      CH3OH;
}
// * * * * * * * * * * * * * * * * * * * * * * * * * * * * * * * * * * * * * //

dimensions      [0 0 0 0 0 0 0];

internalField   nonuniform List<scalar> 
25
(
1.42458e-10
1.12333e-10
9.07641e-11
7.50177e-11
6.3211e-11
5.40593e-11
4.69453e-11
4.10679e-11
3.6107e-11
3.18573e-11
2.81877e-11
2.50133e-11
2.22753e-11
1.9928e-11
1.79364e-11
1.62365e-11
1.48238e-11
1.36851e-11
1.28211e-11
1.21636e-11
1.1691e-11
1.13939e-11
1.12767e-11
1.13177e-11
1.15187e-11
)
;

boundaryField
{
    wall
    {
        type            zeroGradient;
    }
    fuel
    {
        type            fixedValue;
        value           nonuniform 0();
    }
    outlet
    {
        type            inletOutlet;
        inletValue      nonuniform 0();
        value           nonuniform 0();
    }
    procBoundary1to0
    {
        type            processor;
        value           uniform 1.85466e-10;
    }
    procBoundary1to2
    {
        type            processor;
        value           uniform 1.18603e-11;
    }
}


// ************************************************************************* //
