/*--------------------------------*- C++ -*----------------------------------*\
| =========                 |                                                 |
| \\      /  F ield         | OpenFOAM: The Open Source CFD Toolbox           |
|  \\    /   O peration     | Version:  dev                                   |
|   \\  /    A nd           | Web:      www.OpenFOAM.org                      |
|    \\/     M anipulation  |                                                 |
\*---------------------------------------------------------------------------*/
FoamFile
{
    version     2.0;
    format      ascii;
    class       volScalarField;
    location    "0.065";
    object      n-C6H7;
}
// * * * * * * * * * * * * * * * * * * * * * * * * * * * * * * * * * * * * * //

dimensions      [0 0 0 0 0 0 0];

internalField   nonuniform List<scalar> 
25
(
7.47767e-23
5.99849e-23
4.85793e-23
3.99194e-23
3.36108e-23
2.95836e-23
2.83439e-23
3.11237e-23
4.09839e-23
6.40983e-23
1.12205e-22
2.06606e-22
3.84222e-22
7.05812e-22
1.26567e-21
2.22747e-21
3.82344e-21
6.37024e-21
1.01426e-20
1.56986e-20
2.36659e-20
3.48162e-20
4.89809e-20
6.71331e-20
9.01831e-20
)
;

boundaryField
{
    wall
    {
        type            zeroGradient;
    }
    fuel
    {
        type            fixedValue;
        value           nonuniform 0();
    }
    outlet
    {
        type            inletOutlet;
        inletValue      nonuniform 0();
        value           nonuniform 0();
    }
    procBoundary1to0
    {
        type            processor;
        value           uniform 9.43201e-23;
    }
    procBoundary1to2
    {
        type            processor;
        value           uniform 1.17087e-19;
    }
}


// ************************************************************************* //
