/*--------------------------------*- C++ -*----------------------------------*\
| =========                 |                                                 |
| \\      /  F ield         | OpenFOAM: The Open Source CFD Toolbox           |
|  \\    /   O peration     | Version:  dev                                   |
|   \\  /    A nd           | Web:      www.OpenFOAM.org                      |
|    \\/     M anipulation  |                                                 |
\*---------------------------------------------------------------------------*/
FoamFile
{
    version     2.0;
    format      ascii;
    class       volScalarField;
    location    "0.125";
    object      OH;
}
// * * * * * * * * * * * * * * * * * * * * * * * * * * * * * * * * * * * * * //

dimensions      [0 0 0 0 0 0 0];

internalField   nonuniform List<scalar> 
13
(
6.2829e-09
4.59458e-09
3.33558e-09
2.40539e-09
1.72543e-09
1.23425e-09
8.83836e-10
6.36898e-10
4.64762e-10
3.45701e-10
2.63571e-10
2.06694e-10
1.66451e-10
)
;

boundaryField
{
    wall
    {
        type            zeroGradient;
    }
    fuel
    {
        type            fixedValue;
        value           nonuniform 0();
    }
    outlet
    {
        type            inletOutlet;
        inletValue      nonuniform 0();
        value           nonuniform 0();
    }
    procBoundary5to4
    {
        type            processor;
        value           uniform 8.51291e-09;
    }
    procBoundary5to6
    {
        type            processor;
        value           uniform 1.37812e-10;
    }
}


// ************************************************************************* //
