/*--------------------------------*- C++ -*----------------------------------*\
| =========                 |                                                 |
| \\      /  F ield         | OpenFOAM: The Open Source CFD Toolbox           |
|  \\    /   O peration     | Version:  dev                                   |
|   \\  /    A nd           | Web:      www.OpenFOAM.org                      |
|    \\/     M anipulation  |                                                 |
\*---------------------------------------------------------------------------*/
FoamFile
{
    version     2.0;
    format      ascii;
    class       volScalarField;
    location    "0.11";
    object      A2C2HB*;
}
// * * * * * * * * * * * * * * * * * * * * * * * * * * * * * * * * * * * * * //

dimensions      [0 0 0 0 0 0 0];

internalField   nonuniform List<scalar> 
250
(
2.28005e-12
2.28283e-12
2.28109e-12
2.28473e-12
2.28992e-12
2.32637e-12
2.58824e-12
3.88508e-12
1.07255e-11
1.21679e-11
2.05987e-12
2.06234e-12
2.06037e-12
2.06441e-12
2.06959e-12
2.10252e-12
2.33072e-12
3.41545e-12
9.07947e-12
1.10045e-11
8.9064e-12
5.43133e-12
2.74962e-12
2.15107e-12
1.95034e-12
1.88127e-12
1.89144e-12
1.86296e-12
1.87824e-12
1.86005e-12
1.86803e-12
1.87017e-12
1.86807e-12
1.87223e-12
1.87732e-12
1.90694e-12
2.105e-12
3.00319e-12
7.63824e-12
9.83061e-12
8.7638e-12
4.85613e-12
2.48334e-12
1.95116e-12
1.77452e-12
1.71366e-12
1.72235e-12
1.69686e-12
1.71082e-12
1.69475e-12
1.70189e-12
1.70368e-12
1.70156e-12
1.70562e-12
1.71052e-12
1.73706e-12
1.90793e-12
2.64384e-12
6.31196e-12
8.6661e-12
8.50031e-12
4.37076e-12
2.24697e-12
1.77611e-12
1.62243e-12
1.56926e-12
1.57653e-12
1.55424e-12
1.56667e-12
1.55278e-12
1.55906e-12
1.56051e-12
1.55847e-12
1.56226e-12
1.56689e-12
1.59054e-12
1.73686e-12
2.33355e-12
5.16686e-12
7.5287e-12
8.10737e-12
3.9346e-12
2.03705e-12
1.62386e-12
1.49124e-12
1.44546e-12
1.45141e-12
1.43227e-12
1.44317e-12
1.43133e-12
1.43677e-12
1.4379e-12
1.43601e-12
1.43945e-12
1.44376e-12
1.46473e-12
1.589e-12
2.06798e-12
4.3007e-12
6.44372e-12
7.59155e-12
3.53248e-12
1.84992e-12
1.49091e-12
1.37734e-12
1.3384e-12
1.34329e-12
1.32685e-12
1.33647e-12
1.32629e-12
1.33103e-12
1.33191e-12
1.33017e-12
1.33329e-12
1.33727e-12
1.35576e-12
1.46054e-12
1.84082e-12
3.5498e-12
5.43383e-12
6.96465e-12
3.15418e-12
1.67276e-12
1.37197e-12
1.27533e-12
1.24247e-12
1.24674e-12
1.23216e-12
1.24105e-12
1.23187e-12
1.23612e-12
1.23686e-12
1.23522e-12
1.23815e-12
1.24181e-12
1.25816e-12
1.3459e-12
1.64422e-12
2.94753e-12
4.51981e-12
6.24319e-12
2.79204e-12
1.51228e-12
1.25996e-12
1.17734e-12
1.14725e-12
1.15154e-12
1.13753e-12
1.14696e-12
1.13761e-12
1.14167e-12
1.14263e-12
1.14081e-12
1.1441e-12
1.14767e-12
1.16101e-12
1.2376e-12
1.46858e-12
2.44699e-12
3.71246e-12
5.44967e-12
2.43927e-12
1.34405e-12
1.14692e-12
1.07651e-12
1.04984e-12
1.05469e-12
1.04026e-12
1.0506e-12
1.04045e-12
1.0446e-12
1.04581e-12
1.04382e-12
1.04742e-12
1.05085e-12
1.06229e-12
1.12781e-12
1.30382e-12
2.02725e-12
3.01295e-12
4.61451e-12
2.09256e-12
1.18041e-12
1.0262e-12
9.6607e-13
9.41814e-13
9.47636e-13
9.32054e-13
9.43819e-13
9.32327e-13
9.36731e-13
9.38289e-13
9.36053e-13
9.40104e-13
9.43443e-13
9.53026e-13
1.00986e-12
1.14157e-12
1.6691e-12
2.41475e-12
3.77675e-12
1.75219e-12
1.01061e-12
8.94797e-13
8.43653e-13
8.21391e-13
8.28254e-13
8.11483e-13
8.2462e-13
8.11789e-13
8.16452e-13
8.18359e-13
8.15896e-13
8.20332e-13
8.23559e-13
8.31379e-13
8.80909e-13
9.77504e-13
1.35744e-12
1.90726e-12
2.97919e-12
1.42395e-12
8.37937e-13
7.54791e-13
7.11987e-13
6.91775e-13
6.99398e-13
6.82062e-13
6.95993e-13
6.82376e-13
6.87135e-13
6.89275e-13
6.86703e-13
6.91286e-13
6.9433e-13
7.00507e-13
7.43231e-13
8.12386e-13
1.08305e-12
1.47953e-12
5.56046e-13
5.5823e-13
5.55725e-13
5.60126e-13
5.62907e-13
5.67603e-13
6.03519e-13
6.51652e-13
8.42294e-13
1.12249e-12
)
;

boundaryField
{
    fuel
    {
        type            fixedValue;
        value           nonuniform 0();
    }
    wall
    {
        type            zeroGradient;
    }
    outlet
    {
        type            zeroGradient;
    }
    frontAndBack
    {
        type            empty;
    }
    procBoundary0to1
    {
        type            processor;
        value           nonuniform List<scalar> 
21
(
2.25565e-12
1.11708e-12
6.69555e-13
6.12829e-13
5.77954e-13
5.60191e-13
5.68001e-13
5.51155e-13
5.64957e-13
5.51451e-13
5.51451e-13
4.31731e-13
4.33775e-13
4.31506e-13
4.35419e-13
4.37881e-13
4.41306e-13
4.70345e-13
5.02811e-13
6.35066e-13
8.29281e-13
)
;
    }
    procBoundary0to2
    {
        type            processor;
        value           nonuniform List<scalar> 
12
(
2.27127e-12
8.87376e-12
6.07484e-12
3.04822e-12
2.37863e-12
2.15167e-12
2.07468e-12
2.08611e-12
2.05518e-12
2.07135e-12
2.05132e-12
2.05132e-12
)
;
    }
    procBoundary0to3
    {
        type            processor;
        value           nonuniform List<scalar> 10(2.53233e-12 2.53539e-12 2.53395e-12 2.53681e-12 2.54195e-12 2.58217e-12 2.90906e-12 4.4771e-12 1.26296e-11 1.33541e-11);
    }
}


// ************************************************************************* //
