/*--------------------------------*- C++ -*----------------------------------*\
| =========                 |                                                 |
| \\      /  F ield         | OpenFOAM: The Open Source CFD Toolbox           |
|  \\    /   O peration     | Version:  dev                                   |
|   \\  /    A nd           | Web:      www.OpenFOAM.org                      |
|    \\/     M anipulation  |                                                 |
\*---------------------------------------------------------------------------*/
FoamFile
{
    version     2.0;
    format      ascii;
    class       volScalarField;
    location    "0.11";
    object      C;
}
// * * * * * * * * * * * * * * * * * * * * * * * * * * * * * * * * * * * * * //

dimensions      [0 0 0 0 0 0 0];

internalField   nonuniform List<scalar> 
250
(
2.91103e-09
2.96487e-09
2.90056e-09
3.00436e-09
2.91332e-09
3.06576e-09
2.93785e-09
2.69151e-09
1.98855e-09
1.25612e-09
2.50049e-09
2.55427e-09
2.48986e-09
2.59251e-09
2.50404e-09
2.65439e-09
2.54195e-09
2.34934e-09
1.74733e-09
1.10381e-09
2.40206e-10
8.43497e-10
1.78906e-09
2.09099e-09
2.13891e-09
2.12741e-09
2.13027e-09
2.11605e-09
2.12679e-09
2.1202e-09
2.10081e-09
2.15364e-09
2.09044e-09
2.18999e-09
2.10525e-09
2.25073e-09
2.15395e-09
2.01084e-09
1.52269e-09
9.41154e-10
2.16309e-10
7.46828e-10
1.50941e-09
1.72903e-09
1.76013e-09
1.74642e-09
1.74882e-09
1.73481e-09
1.74431e-09
1.73872e-09
1.72009e-09
1.77078e-09
1.71037e-09
1.80456e-09
1.72506e-09
1.86224e-09
1.78134e-09
1.68168e-09
1.29492e-09
7.82002e-10
1.95723e-10
6.41245e-10
1.23871e-09
1.38989e-09
1.40677e-09
1.39205e-09
1.39408e-09
1.38077e-09
1.38907e-09
1.38434e-09
1.36695e-09
1.41411e-09
1.35818e-09
1.4447e-09
1.37205e-09
1.49732e-09
1.43224e-09
1.36863e-09
1.07326e-09
6.34973e-10
1.76585e-10
5.40337e-10
9.8439e-10
1.08159e-09
1.08704e-09
1.07254e-09
1.07427e-09
1.06213e-09
1.06924e-09
1.06524e-09
1.04963e-09
1.09187e-09
1.04203e-09
1.11879e-09
1.05447e-09
1.1644e-09
1.11489e-09
1.0789e-09
8.58612e-10
5.03864e-10
1.5491e-10
4.32842e-10
7.53753e-10
8.11539e-10
8.07989e-10
7.94864e-10
7.96349e-10
7.85786e-10
7.91681e-10
7.88349e-10
7.7497e-10
8.11164e-10
7.68664e-10
8.34081e-10
7.79239e-10
8.7107e-10
8.36929e-10
8.1956e-10
6.68831e-10
3.90433e-10
1.33113e-10
3.3504e-10
5.5317e-10
5.72777e-10
5.7455e-10
5.63691e-10
5.64962e-10
5.56235e-10
5.60931e-10
5.58228e-10
5.47351e-10
5.76821e-10
5.42353e-10
5.95706e-10
5.50832e-10
6.23459e-10
5.87181e-10
5.96359e-10
5.04909e-10
2.86915e-10
1.08798e-10
2.4679e-10
3.8756e-10
3.90735e-10
3.88777e-10
3.80502e-10
3.81564e-10
3.74761e-10
3.78318e-10
3.76216e-10
3.67874e-10
3.9055e-10
3.64106e-10
4.02461e-10
3.70475e-10
4.24395e-10
3.99976e-10
4.13597e-10
3.59959e-10
2.08552e-10
8.48398e-11
1.70641e-10
2.52144e-10
2.52449e-10
2.4911e-10
2.43211e-10
2.44061e-10
2.39083e-10
2.41628e-10
2.40078e-10
2.34075e-10
2.50483e-10
2.31397e-10
2.59021e-10
2.35895e-10
2.74272e-10
2.58121e-10
2.71842e-10
2.41369e-10
1.45574e-10
6.20159e-11
1.11557e-10
1.571e-10
1.53694e-10
1.50468e-10
1.46497e-10
1.47137e-10
1.43735e-10
1.45444e-10
1.44373e-10
1.40337e-10
1.51453e-10
1.38553e-10
1.57197e-10
1.41523e-10
1.67158e-10
1.56968e-10
1.68463e-10
1.5718e-10
9.42379e-11
4.22878e-11
6.8104e-11
9.18197e-11
8.77893e-11
8.53278e-11
8.28127e-11
8.32635e-11
8.11007e-11
8.21715e-11
8.14834e-11
7.89588e-11
8.59797e-11
7.78496e-11
8.9566e-11
7.96719e-11
9.564e-11
8.95445e-11
9.79868e-11
9.55709e-11
5.91714e-11
2.67068e-11
3.87159e-11
5.013e-11
4.68914e-11
4.52778e-11
4.37952e-11
4.40898e-11
4.28142e-11
4.34384e-11
4.30286e-11
4.15647e-11
4.56837e-11
4.09231e-11
4.77507e-11
4.1958e-11
5.11859e-11
4.77503e-11
5.32979e-11
5.41847e-11
3.49156e-11
2.04351e-11
2.26742e-11
2.00902e-11
2.37716e-11
2.06315e-11
2.55673e-11
2.37453e-11
2.70455e-11
2.85686e-11
1.92556e-11
)
;

boundaryField
{
    fuel
    {
        type            fixedValue;
        value           nonuniform 0();
    }
    wall
    {
        type            zeroGradient;
    }
    outlet
    {
        type            zeroGradient;
    }
    frontAndBack
    {
        type            empty;
    }
    procBoundary0to1
    {
        type            processor;
        value           nonuniform List<scalar> 
21
(
1.55526e-11
2.04469e-11
2.54951e-11
2.33739e-11
2.24326e-11
2.1627e-11
2.1806e-11
2.11084e-11
2.14464e-11
2.12204e-11
2.12204e-11
9.38037e-12
1.05075e-11
9.20801e-12
1.10445e-11
9.46761e-12
1.19105e-11
1.10003e-11
1.27916e-11
1.39738e-11
9.89296e-12
)
;
    }
    procBoundary0to2
    {
        type            processor;
        value           nonuniform List<scalar> 
12
(
2.93158e-09
2.7124e-10
9.31157e-10
2.07157e-09
2.46761e-09
2.5349e-09
2.52655e-09
2.52999e-09
2.51602e-09
2.52806e-09
2.52041e-09
2.52041e-09
)
;
    }
    procBoundary0to3
    {
        type            processor;
        value           nonuniform List<scalar> 10(3.32545e-09 3.37887e-09 3.31576e-09 3.41886e-09 3.32666e-09 3.47805e-09 3.3369e-09 3.06691e-09 2.1916e-09 1.3697e-09);
    }
}


// ************************************************************************* //
