/*--------------------------------*- C++ -*----------------------------------*\
| =========                 |                                                 |
| \\      /  F ield         | OpenFOAM: The Open Source CFD Toolbox           |
|  \\    /   O peration     | Version:  dev                                   |
|   \\  /    A nd           | Web:      www.OpenFOAM.org                      |
|    \\/     M anipulation  |                                                 |
\*---------------------------------------------------------------------------*/
FoamFile
{
    version     2.0;
    format      ascii;
    class       volScalarField;
    location    "0.11";
    object      CH;
}
// * * * * * * * * * * * * * * * * * * * * * * * * * * * * * * * * * * * * * //

dimensions      [0 0 0 0 0 0 0];

internalField   nonuniform List<scalar> 
250
(
6.58748e-09
6.69192e-09
6.56722e-09
6.76833e-09
6.59237e-09
6.88894e-09
6.64935e-09
6.19623e-09
4.84936e-09
3.3472e-09
5.77883e-09
5.88531e-09
5.75781e-09
5.96078e-09
5.78629e-09
6.0844e-09
5.86974e-09
5.51108e-09
4.34028e-09
3.0075e-09
7.64071e-10
2.30798e-09
4.35776e-09
4.96045e-09
5.05227e-09
5.02772e-09
5.03338e-09
5.00455e-09
5.0263e-09
5.01301e-09
4.97359e-09
5.08072e-09
4.95257e-09
5.15414e-09
4.98301e-09
5.27797e-09
5.08902e-09
4.81923e-09
3.85529e-09
2.63037e-09
7.01247e-10
2.07763e-09
3.76312e-09
4.21072e-09
4.27089e-09
4.24126e-09
4.24615e-09
4.21693e-09
4.23672e-09
4.22511e-09
4.18618e-09
4.29183e-09
4.16592e-09
4.36195e-09
4.19692e-09
4.48242e-09
4.3203e-09
4.13049e-09
3.35248e-09
2.24754e-09
6.47141e-10
1.82113e-09
3.17251e-09
3.48766e-09
3.52004e-09
3.48753e-09
3.49179e-09
3.46312e-09
3.48098e-09
3.47081e-09
3.4333e-09
3.53476e-09
3.41444e-09
3.60027e-09
3.44462e-09
3.71332e-09
3.57895e-09
3.45743e-09
2.85005e-09
1.88066e-09
5.95534e-10
1.56986e-09
2.6007e-09
2.80808e-09
2.81704e-09
2.78406e-09
2.78784e-09
2.76072e-09
2.77658e-09
2.76764e-09
2.73273e-09
2.82698e-09
2.71577e-09
2.88669e-09
2.74384e-09
2.98798e-09
2.8822e-09
2.8147e-09
2.34987e-09
1.54109e-09
5.3452e-10
1.29502e-09
2.0637e-09
2.18961e-09
2.17902e-09
2.14805e-09
2.15145e-09
2.12683e-09
2.14056e-09
2.13277e-09
2.10158e-09
2.18577e-09
2.0869e-09
2.23869e-09
2.11176e-09
2.32412e-09
2.24818e-09
2.21828e-09
1.89223e-09
1.23572e-09
4.70393e-10
1.03632e-09
1.57748e-09
1.61873e-09
1.62095e-09
1.59416e-09
1.59723e-09
1.5759e-09
1.58736e-09
1.58073e-09
1.55414e-09
1.62602e-09
1.54194e-09
1.67161e-09
1.56282e-09
1.73882e-09
1.65359e-09
1.68333e-09
1.48183e-09
9.45568e-10
3.95707e-10
7.93672e-10
1.15704e-09
1.16048e-09
1.15381e-09
1.13229e-09
1.13501e-09
1.11746e-09
1.12662e-09
1.12117e-09
1.09967e-09
1.15802e-09
1.08996e-09
1.18837e-09
1.1065e-09
1.24428e-09
1.18402e-09
1.2241e-09
1.10338e-09
7.15589e-10
3.18856e-10
5.7454e-10
7.94882e-10
7.92262e-10
7.82044e-10
7.65749e-10
7.68069e-10
7.54441e-10
7.61398e-10
7.57128e-10
7.40702e-10
7.85529e-10
7.33376e-10
8.08621e-10
7.45769e-10
8.49765e-10
8.07519e-10
8.48356e-10
7.778e-10
5.21925e-10
2.42253e-10
3.9529e-10
5.24703e-10
5.12397e-10
5.02301e-10
4.90581e-10
4.9246e-10
4.82511e-10
4.875e-10
4.84347e-10
4.72556e-10
5.04992e-10
4.67339e-10
5.21545e-10
4.76068e-10
5.50167e-10
5.2173e-10
5.57383e-10
5.33417e-10
3.55818e-10
1.72642e-10
2.55385e-10
3.26454e-10
3.12366e-10
3.04251e-10
2.96284e-10
2.97713e-10
2.90918e-10
2.94276e-10
2.92098e-10
2.84181e-10
3.06183e-10
2.80694e-10
3.1725e-10
2.86438e-10
3.35931e-10
3.1768e-10
3.45384e-10
3.43538e-10
2.35519e-10
1.14521e-10
1.54303e-10
1.90419e-10
1.78654e-10
1.72973e-10
1.67915e-10
1.68929e-10
1.64605e-10
1.66717e-10
1.65317e-10
1.60368e-10
1.7429e-10
1.58189e-10
1.81146e-10
1.617e-10
1.925e-10
1.81414e-10
2.0085e-10
2.07219e-10
1.47022e-10
8.45688e-11
9.27494e-11
8.33001e-11
9.66704e-11
8.5279e-11
1.03063e-10
9.67057e-11
1.09121e-10
1.16513e-10
8.59668e-11
)
;

boundaryField
{
    fuel
    {
        type            fixedValue;
        value           nonuniform 0();
    }
    wall
    {
        type            zeroGradient;
    }
    outlet
    {
        type            zeroGradient;
    }
    frontAndBack
    {
        type            empty;
    }
    procBoundary0to1
    {
        type            processor;
        value           nonuniform List<scalar> 
21
(
7.02831e-11
8.67865e-11
1.0363e-10
9.54459e-11
9.18913e-11
8.89222e-11
8.95951e-11
8.70357e-11
8.82734e-11
8.74375e-11
8.74375e-11
4.15142e-11
4.59607e-11
4.08281e-11
4.80236e-11
4.18504e-11
5.1338e-11
4.79156e-11
5.5144e-11
6.07534e-11
4.68141e-11
)
;
    }
    procBoundary0to2
    {
        type            processor;
        value           nonuniform List<scalar> 
12
(
6.62733e-09
8.48799e-10
2.51347e-09
4.94545e-09
5.72131e-09
5.84854e-09
5.8306e-09
5.83726e-09
5.80962e-09
5.83337e-09
5.81833e-09
5.81833e-09
)
;
    }
    procBoundary0to3
    {
        type            processor;
        value           nonuniform List<scalar> 10(7.38795e-09 7.48979e-09 7.36956e-09 7.5659e-09 7.39074e-09 7.68063e-09 7.42071e-09 6.93291e-09 5.27063e-09 3.58676e-09);
    }
}


// ************************************************************************* //
