/*--------------------------------*- C++ -*----------------------------------*\
| =========                 |                                                 |
| \\      /  F ield         | OpenFOAM: The Open Source CFD Toolbox           |
|  \\    /   O peration     | Version:  dev                                   |
|   \\  /    A nd           | Web:      www.OpenFOAM.org                      |
|    \\/     M anipulation  |                                                 |
\*---------------------------------------------------------------------------*/
FoamFile
{
    version     2.0;
    format      ascii;
    class       volScalarField;
    location    "0.11";
    object      CH2CO;
}
// * * * * * * * * * * * * * * * * * * * * * * * * * * * * * * * * * * * * * //

dimensions      [0 0 0 0 0 0 0];

internalField   nonuniform List<scalar> 
250
(
1.97513e-05
1.98354e-05
1.97275e-05
1.99049e-05
1.97455e-05
2.01195e-05
2.02707e-05
2.12056e-05
2.28882e-05
2.40759e-05
1.90689e-05
1.91527e-05
1.90425e-05
1.92196e-05
1.90637e-05
1.94282e-05
1.95642e-05
2.04551e-05
2.19944e-05
2.33593e-05
2.68972e-05
1.98217e-05
1.93295e-05
1.87415e-05
1.85098e-05
1.8426e-05
1.84283e-05
1.84129e-05
1.84391e-05
1.8432e-05
1.83946e-05
1.84792e-05
1.83664e-05
1.8544e-05
1.83905e-05
1.87463e-05
1.88675e-05
1.97111e-05
2.11689e-05
2.25381e-05
2.38634e-05
1.90126e-05
1.86216e-05
1.80625e-05
1.78407e-05
1.77576e-05
1.77591e-05
1.7742e-05
1.77668e-05
1.77621e-05
1.77229e-05
1.78095e-05
1.76937e-05
1.78727e-05
1.77202e-05
1.80684e-05
1.81759e-05
1.8969e-05
2.03163e-05
2.16437e-05
2.15347e-05
1.82089e-05
1.79108e-05
1.73828e-05
1.71697e-05
1.70874e-05
1.70882e-05
1.70692e-05
1.7093e-05
1.709e-05
1.70486e-05
1.7138e-05
1.7019e-05
1.72002e-05
1.70476e-05
1.7389e-05
1.74844e-05
1.82248e-05
1.94546e-05
2.07044e-05
1.97518e-05
1.748e-05
1.71936e-05
1.66981e-05
1.64917e-05
1.64103e-05
1.64107e-05
1.63896e-05
1.64127e-05
1.64106e-05
1.63672e-05
1.64599e-05
1.63375e-05
1.65219e-05
1.63678e-05
1.67024e-05
1.67889e-05
1.74743e-05
1.85617e-05
1.97396e-05
1.82048e-05
1.67008e-05
1.64667e-05
1.60054e-05
1.58021e-05
1.57223e-05
1.57226e-05
1.56991e-05
1.57219e-05
1.572e-05
1.56748e-05
1.5771e-05
1.56454e-05
1.58338e-05
1.5677e-05
1.60035e-05
1.60864e-05
1.6714e-05
1.76954e-05
1.87664e-05
1.70112e-05
1.59497e-05
1.57278e-05
1.52599e-05
1.50977e-05
1.50208e-05
1.50211e-05
1.49955e-05
1.5018e-05
1.50157e-05
1.49691e-05
1.50686e-05
1.49403e-05
1.51332e-05
1.49727e-05
1.52891e-05
1.53168e-05
1.59408e-05
1.68478e-05
1.77094e-05
1.59352e-05
1.51879e-05
1.49786e-05
1.4535e-05
1.4378e-05
1.43051e-05
1.43057e-05
1.42781e-05
1.43003e-05
1.42971e-05
1.42498e-05
1.43521e-05
1.42216e-05
1.44054e-05
1.42544e-05
1.45583e-05
1.45806e-05
1.51557e-05
1.59609e-05
1.67492e-05
1.49965e-05
1.43998e-05
1.41784e-05
1.37962e-05
1.36454e-05
1.35766e-05
1.35777e-05
1.35484e-05
1.35702e-05
1.35661e-05
1.35185e-05
1.36229e-05
1.34911e-05
1.36764e-05
1.35239e-05
1.38194e-05
1.38325e-05
1.43604e-05
1.50555e-05
1.57989e-05
1.41141e-05
1.36156e-05
1.34034e-05
1.30473e-05
1.2904e-05
1.28388e-05
1.28406e-05
1.28099e-05
1.28314e-05
1.2826e-05
1.27787e-05
1.28847e-05
1.27523e-05
1.29381e-05
1.27848e-05
1.30717e-05
1.30754e-05
1.3559e-05
1.42119e-05
1.48011e-05
1.32736e-05
1.28248e-05
1.26242e-05
1.22932e-05
1.21584e-05
1.20963e-05
1.20989e-05
1.20672e-05
1.20882e-05
1.20817e-05
1.20352e-05
1.2142e-05
1.20098e-05
1.21948e-05
1.20416e-05
1.23195e-05
1.23138e-05
1.27571e-05
1.33569e-05
1.38887e-05
1.2458e-05
1.20352e-05
1.18452e-05
1.15387e-05
1.14129e-05
1.13537e-05
1.13571e-05
1.13247e-05
1.13452e-05
1.13377e-05
1.12922e-05
1.13993e-05
1.12678e-05
1.14509e-05
1.12985e-05
1.15668e-05
1.1552e-05
1.19599e-05
1.25062e-05
1.29993e-05
1.0553e-05
1.06599e-05
1.05297e-05
1.07097e-05
1.05589e-05
1.0817e-05
1.07934e-05
1.11712e-05
1.16662e-05
1.21367e-05
)
;

boundaryField
{
    fuel
    {
        type            fixedValue;
        value           nonuniform 0();
    }
    wall
    {
        type            zeroGradient;
    }
    outlet
    {
        type            zeroGradient;
    }
    frontAndBack
    {
        type            empty;
    }
    procBoundary0to1
    {
        type            processor;
        value           nonuniform List<scalar> 
21
(
1.16607e-05
1.1251e-05
1.10704e-05
1.07871e-05
1.06705e-05
1.06141e-05
1.06187e-05
1.05857e-05
1.06058e-05
1.05972e-05
1.05972e-05
9.82084e-06
9.92666e-06
9.79859e-06
9.97373e-06
9.82611e-06
1.00718e-05
1.00415e-05
1.03916e-05
1.08409e-05
1.13013e-05
)
;
    }
    procBoundary0to2
    {
        type            processor;
        value           nonuniform List<scalar> 
12
(
1.97875e-05
3.09633e-05
2.06546e-05
2.00388e-05
1.94243e-05
1.91824e-05
1.90979e-05
1.91012e-05
1.90872e-05
1.91151e-05
1.91051e-05
1.91051e-05
)
;
    }
    procBoundary0to3
    {
        type            processor;
        value           nonuniform List<scalar> 10(2.0447e-05 2.0533e-05 2.04272e-05 2.06052e-05 2.04417e-05 2.08251e-05 2.09929e-05 2.20403e-05 2.36584e-05 2.464e-05);
    }
}


// ************************************************************************* //
