/*--------------------------------*- C++ -*----------------------------------*\
| =========                 |                                                 |
| \\      /  F ield         | OpenFOAM: The Open Source CFD Toolbox           |
|  \\    /   O peration     | Version:  dev                                   |
|   \\  /    A nd           | Web:      www.OpenFOAM.org                      |
|    \\/     M anipulation  |                                                 |
\*---------------------------------------------------------------------------*/
FoamFile
{
    version     2.0;
    format      ascii;
    class       volScalarField;
    location    "0.11";
    object      CH2O;
}
// * * * * * * * * * * * * * * * * * * * * * * * * * * * * * * * * * * * * * //

dimensions      [0 0 0 0 0 0 0];

internalField   nonuniform List<scalar> 
250
(
2.39391e-06
2.39667e-06
2.39425e-06
2.39876e-06
2.40095e-06
2.40271e-06
2.41887e-06
2.32423e-06
1.91579e-06
1.42653e-06
2.2604e-06
2.2634e-06
2.2607e-06
2.26573e-06
2.26821e-06
2.27037e-06
2.28992e-06
2.20942e-06
1.85428e-06
1.31324e-06
1.77949e-06
2.14204e-06
2.16424e-06
2.18845e-06
2.15709e-06
2.1293e-06
2.14001e-06
2.11606e-06
2.13119e-06
2.11485e-06
2.1207e-06
2.12394e-06
2.12095e-06
2.12647e-06
2.12922e-06
2.13178e-06
2.15476e-06
2.08757e-06
1.78599e-06
1.23896e-06
1.76447e-06
2.03545e-06
2.02433e-06
2.04383e-06
2.0114e-06
1.98343e-06
1.99452e-06
1.96933e-06
1.98558e-06
1.96826e-06
1.97446e-06
1.97793e-06
1.97467e-06
1.98064e-06
1.98364e-06
1.98657e-06
2.01274e-06
1.95792e-06
1.7032e-06
1.1872e-06
1.7155e-06
1.91754e-06
1.87662e-06
1.89197e-06
1.85886e-06
1.83096e-06
1.84243e-06
1.8162e-06
1.83345e-06
1.81525e-06
1.82175e-06
1.82541e-06
1.82192e-06
1.82827e-06
1.83146e-06
1.83473e-06
1.86362e-06
1.82015e-06
1.60709e-06
1.1457e-06
1.63496e-06
1.78526e-06
1.72188e-06
1.73334e-06
1.69985e-06
1.67246e-06
1.68425e-06
1.6573e-06
1.67535e-06
1.65643e-06
1.66315e-06
1.66696e-06
1.66329e-06
1.66992e-06
1.67324e-06
1.67682e-06
1.70772e-06
1.67444e-06
1.5092e-06
1.10545e-06
1.52758e-06
1.64002e-06
1.56168e-06
1.56892e-06
1.5355e-06
1.50919e-06
1.52118e-06
1.4939e-06
1.51248e-06
1.49309e-06
1.4999e-06
1.50381e-06
1.50003e-06
1.50682e-06
1.51018e-06
1.51404e-06
1.54601e-06
1.52159e-06
1.39532e-06
1.05951e-06
1.39907e-06
1.48421e-06
1.39032e-06
1.40048e-06
1.36774e-06
1.34318e-06
1.35521e-06
1.32811e-06
1.34683e-06
1.32731e-06
1.33409e-06
1.33799e-06
1.33422e-06
1.34099e-06
1.34428e-06
1.34847e-06
1.3802e-06
1.36326e-06
1.2745e-06
1.00353e-06
1.25558e-06
1.32132e-06
1.22464e-06
1.2306e-06
1.19813e-06
1.17137e-06
1.18331e-06
1.15664e-06
1.17607e-06
1.15623e-06
1.16284e-06
1.16704e-06
1.16302e-06
1.17028e-06
1.17373e-06
1.17598e-06
1.21274e-06
1.20197e-06
1.14486e-06
9.35245e-07
1.10341e-06
1.15506e-06
1.04976e-06
1.06257e-06
1.03208e-06
1.00757e-06
1.01909e-06
9.93739e-07
1.01252e-06
9.9335e-07
9.99639e-07
1.00368e-06
9.99834e-07
1.00677e-06
1.01002e-06
1.01226e-06
1.04719e-06
1.04105e-06
1.00944e-06
8.54644e-07
9.48892e-07
9.9029e-07
8.90052e-07
9.00243e-07
8.72373e-07
8.5042e-07
8.61274e-07
8.37777e-07
8.55456e-07
8.37424e-07
8.43259e-07
8.4703e-07
8.43457e-07
8.49891e-07
8.52868e-07
8.54991e-07
8.87258e-07
8.84414e-07
8.72143e-07
7.6374e-07
7.98308e-07
8.31579e-07
7.39417e-07
7.47504e-07
7.22819e-07
7.03614e-07
7.13579e-07
6.92399e-07
7.08581e-07
6.92094e-07
6.97368e-07
7.00784e-07
6.97559e-07
7.03342e-07
7.06001e-07
7.07908e-07
7.36819e-07
7.36153e-07
7.37401e-07
6.66161e-07
6.56924e-07
6.83305e-07
6.01551e-07
6.07912e-07
5.86854e-07
5.70429e-07
5.79361e-07
5.60797e-07
5.75193e-07
5.60557e-07
5.65197e-07
5.6819e-07
5.65373e-07
5.70395e-07
5.72714e-07
5.74352e-07
5.99417e-07
6.00038e-07
6.0969e-07
5.66545e-07
4.49163e-07
4.51695e-07
4.49318e-07
4.53523e-07
4.55511e-07
4.56855e-07
4.77871e-07
4.79081e-07
4.93056e-07
4.69841e-07
)
;

boundaryField
{
    fuel
    {
        type            fixedValue;
        value           nonuniform 0();
    }
    wall
    {
        type            zeroGradient;
    }
    outlet
    {
        type            zeroGradient;
    }
    frontAndBack
    {
        type            empty;
    }
    procBoundary0to1
    {
        type            processor;
        value           nonuniform List<scalar> 
21
(
5.29096e-07
5.49363e-07
4.7937e-07
4.84384e-07
4.67027e-07
4.53391e-07
4.61134e-07
4.45379e-07
4.57781e-07
4.45198e-07
4.45198e-07
3.50626e-07
3.52692e-07
3.50757e-07
3.54142e-07
3.55828e-07
3.56892e-07
3.7387e-07
3.7525e-07
3.90372e-07
3.80275e-07
)
;
    }
    procBoundary0to2
    {
        type            processor;
        value           nonuniform List<scalar> 
12
(
2.38898e-06
1.75242e-06
2.22553e-06
2.29593e-06
2.32616e-06
2.29583e-06
2.26861e-06
2.27885e-06
2.25635e-06
2.27025e-06
2.25499e-06
2.25499e-06
)
;
    }
    procBoundary0to3
    {
        type            processor;
        value           nonuniform List<scalar> 10(2.52181e-06 2.5243e-06 2.52214e-06 2.52612e-06 2.52802e-06 2.52937e-06 2.55379e-06 2.44502e-06 1.97557e-06 1.61166e-06);
    }
}


// ************************************************************************* //
