/*--------------------------------*- C++ -*----------------------------------*\
| =========                 |                                                 |
| \\      /  F ield         | OpenFOAM: The Open Source CFD Toolbox           |
|  \\    /   O peration     | Version:  dev                                   |
|   \\  /    A nd           | Web:      www.OpenFOAM.org                      |
|    \\/     M anipulation  |                                                 |
\*---------------------------------------------------------------------------*/
FoamFile
{
    version     2.0;
    format      ascii;
    class       volScalarField;
    location    "0.11";
    object      H;
}
// * * * * * * * * * * * * * * * * * * * * * * * * * * * * * * * * * * * * * //

dimensions      [0 0 0 0 0 0 0];

internalField   nonuniform List<scalar> 
250
(
2.11846e-05
2.12953e-05
2.11651e-05
2.1373e-05
2.11919e-05
2.14596e-05
2.10953e-05
2.01672e-05
1.75426e-05
1.42208e-05
2.02902e-05
2.0416e-05
2.02678e-05
2.0502e-05
2.03012e-05
2.06089e-05
2.02569e-05
1.94329e-05
1.69635e-05
1.36923e-05
8.05612e-06
1.36661e-05
1.79833e-05
1.91603e-05
1.93789e-05
1.9367e-05
1.93756e-05
1.93353e-05
1.93617e-05
1.93431e-05
1.92924e-05
1.94345e-05
1.92674e-05
1.95286e-05
1.93071e-05
1.96555e-05
1.9319e-05
1.8606e-05
1.63557e-05
1.3076e-05
8.04439e-06
1.32886e-05
1.71392e-05
1.81271e-05
1.83014e-05
1.82758e-05
1.82843e-05
1.82385e-05
1.82659e-05
1.82472e-05
1.81905e-05
1.83491e-05
1.8163e-05
1.84512e-05
1.82088e-05
1.85967e-05
1.82792e-05
1.76813e-05
1.56542e-05
1.24068e-05
8.02266e-06
1.27915e-05
1.61897e-05
1.69937e-05
1.71219e-05
1.7083e-05
1.70914e-05
1.70405e-05
1.70691e-05
1.705e-05
1.69873e-05
1.71619e-05
1.69577e-05
1.72716e-05
1.70088e-05
1.74328e-05
1.71384e-05
1.66563e-05
1.48639e-05
1.17056e-05
7.96337e-06
1.22228e-05
1.51355e-05
1.5766e-05
1.58462e-05
1.57953e-05
1.5804e-05
1.57482e-05
1.57782e-05
1.57586e-05
1.56903e-05
1.58793e-05
1.5659e-05
1.5996e-05
1.57144e-05
1.61676e-05
1.59027e-05
1.55317e-05
1.39627e-05
1.09801e-05
7.82434e-06
1.14942e-05
1.39825e-05
1.44568e-05
1.44853e-05
1.4425e-05
1.44342e-05
1.43744e-05
1.44055e-05
1.43853e-05
1.43126e-05
1.45131e-05
1.428e-05
1.46361e-05
1.43384e-05
1.48102e-05
1.45846e-05
1.43131e-05
1.30052e-05
1.02343e-05
7.6023e-06
1.06836e-05
1.27434e-05
1.30048e-05
1.30562e-05
1.29906e-05
1.30005e-05
1.29378e-05
1.29696e-05
1.29489e-05
1.28732e-05
1.30814e-05
1.28398e-05
1.32099e-05
1.28997e-05
1.33778e-05
1.30965e-05
1.3011e-05
1.19915e-05
9.3991e-06
7.25559e-06
9.77076e-06
1.1442e-05
1.15716e-05
1.15842e-05
1.15168e-05
1.15276e-05
1.14634e-05
1.14954e-05
1.14743e-05
1.13975e-05
1.16087e-05
1.13639e-05
1.17152e-05
1.14233e-05
1.18932e-05
1.1649e-05
1.16482e-05
1.08606e-05
8.60046e-06
6.80241e-06
8.75518e-06
1.00359e-05
1.01186e-05
1.01013e-05
1.00344e-05
1.0046e-05
9.98196e-06
1.00135e-05
9.99237e-06
9.91644e-06
1.01255e-05
9.88334e-06
1.023e-05
9.94095e-06
1.03997e-05
1.01832e-05
1.02507e-05
9.64638e-06
7.77003e-06
6.23461e-06
7.70098e-06
8.68009e-06
8.68092e-06
8.64304e-06
8.57786e-06
8.59025e-06
8.52801e-06
8.55829e-06
8.53772e-06
8.4647e-06
8.66643e-06
8.43292e-06
8.76626e-06
8.48725e-06
8.92432e-06
8.73343e-06
8.85208e-06
8.48049e-06
6.85864e-06
5.57762e-06
6.62299e-06
7.35223e-06
7.29529e-06
7.24578e-06
7.18359e-06
7.19644e-06
7.13768e-06
7.16603e-06
7.14651e-06
7.07831e-06
7.26784e-06
7.04861e-06
7.36007e-06
7.09831e-06
7.50334e-06
7.33653e-06
7.4888e-06
7.29016e-06
5.98919e-06
4.8593e-06
5.56244e-06
6.08955e-06
5.9974e-06
5.94355e-06
5.88593e-06
5.89895e-06
5.84505e-06
5.87088e-06
5.8529e-06
5.79112e-06
5.96417e-06
5.76411e-06
6.0464e-06
5.80813e-06
6.17221e-06
6.02828e-06
6.19753e-06
6.12428e-06
5.121e-06
4.63107e-06
4.78444e-06
4.60722e-06
4.85512e-06
4.6449e-06
4.9618e-06
4.83961e-06
5.01106e-06
5.02165e-06
4.27803e-06
)
;

boundaryField
{
    fuel
    {
        type            fixedValue;
        value           nonuniform 0();
    }
    wall
    {
        type            zeroGradient;
    }
    outlet
    {
        type            zeroGradient;
    }
    frontAndBack
    {
        type            empty;
    }
    procBoundary0to1
    {
        type            processor;
        value           nonuniform List<scalar> 
21
(
4.11597e-06
4.55665e-06
4.92597e-06
4.81786e-06
4.76518e-06
4.71364e-06
4.72656e-06
4.67849e-06
4.70138e-06
4.6853e-06
4.6853e-06
3.61702e-06
3.74897e-06
3.59658e-06
3.80747e-06
3.62778e-06
3.8945e-06
3.79312e-06
3.95454e-06
4.01436e-06
3.48635e-06
)
;
    }
    procBoundary0to2
    {
        type            processor;
        value           nonuniform List<scalar> 
12
(
2.12256e-05
8.08534e-06
1.3944e-05
1.87252e-05
2.00919e-05
2.03526e-05
2.03543e-05
2.03632e-05
2.03283e-05
2.03539e-05
2.03354e-05
2.03354e-05
)
;
    }
    procBoundary0to3
    {
        type            processor;
        value           nonuniform List<scalar> 10(2.19789e-05 2.2076e-05 2.19625e-05 2.21455e-05 2.1983e-05 2.22125e-05 2.18394e-05 2.08767e-05 1.79758e-05 1.46134e-05);
    }
}


// ************************************************************************* //
