/*--------------------------------*- C++ -*----------------------------------*\
| =========                 |                                                 |
| \\      /  F ield         | OpenFOAM: The Open Source CFD Toolbox           |
|  \\    /   O peration     | Version:  dev                                   |
|   \\  /    A nd           | Web:      www.OpenFOAM.org                      |
|    \\/     M anipulation  |                                                 |
\*---------------------------------------------------------------------------*/
FoamFile
{
    version     2.0;
    format      ascii;
    class       volScalarField;
    location    "0.11";
    object      HO2;
}
// * * * * * * * * * * * * * * * * * * * * * * * * * * * * * * * * * * * * * //

dimensions      [0 0 0 0 0 0 0];

internalField   nonuniform List<scalar> 
250
(
3.10383e-11
3.11213e-11
3.10527e-11
3.11796e-11
3.12265e-11
3.11456e-11
3.10096e-11
3.51693e-11
5.46266e-10
2.04032e-08
2.7724e-11
2.78097e-11
2.77371e-11
2.78717e-11
2.79246e-11
2.7868e-11
2.787e-11
3.02932e-11
3.74383e-10
1.27813e-08
5.35676e-11
2.17562e-11
2.32814e-11
2.53192e-11
2.50848e-11
2.45648e-11
2.48242e-11
2.42637e-11
2.46256e-11
2.42369e-11
2.4368e-11
2.44547e-11
2.43795e-11
2.45187e-11
2.4576e-11
2.4542e-11
2.46729e-11
2.59849e-11
2.55052e-10
7.98101e-09
3.14972e-11
1.88e-11
2.03422e-11
2.20261e-11
2.17241e-11
2.12149e-11
2.14676e-11
2.09112e-11
2.12762e-11
2.0888e-11
2.10198e-11
2.11055e-11
2.10297e-11
2.11696e-11
2.12292e-11
2.12151e-11
2.1455e-11
2.20935e-11
1.69635e-10
4.95703e-09
2.03451e-11
1.6281e-11
1.74091e-11
1.87605e-11
1.84135e-11
1.79287e-11
1.8171e-11
1.76326e-11
1.79911e-11
1.76126e-11
1.77413e-11
1.7824e-11
1.77498e-11
1.78863e-11
1.79458e-11
1.79483e-11
1.82688e-11
1.85403e-11
1.11717e-10
3.05773e-09
1.44663e-11
1.39125e-11
1.45482e-11
1.5593e-11
1.52234e-11
1.47781e-11
1.5005e-11
1.44996e-11
1.4841e-11
1.44823e-11
1.46039e-11
1.46815e-11
1.46111e-11
1.47401e-11
1.47969e-11
1.48124e-11
1.518e-11
1.52903e-11
7.62958e-11
1.87233e-09
1.11519e-11
1.16418e-11
1.18376e-11
1.26005e-11
1.22315e-11
1.18393e-11
1.20458e-11
1.15871e-11
1.19011e-11
1.15721e-11
1.1683e-11
1.17533e-11
1.1689e-11
1.18064e-11
1.18584e-11
1.18831e-11
1.22629e-11
1.23225e-11
5.14625e-11
1.1388e-09
9.17171e-12
9.49561e-12
9.24482e-12
9.86006e-12
9.51422e-12
9.1866e-12
9.36816e-12
8.96759e-12
9.24497e-12
8.95433e-12
9.0515e-12
9.1127e-12
9.05659e-12
9.15876e-12
9.20388e-12
9.23567e-12
9.59201e-12
9.65468e-12
3.51306e-11
6.89104e-10
8.02144e-12
7.5414e-12
7.04097e-12
7.44069e-12
7.12235e-12
6.80885e-12
6.96266e-12
6.62551e-12
6.87056e-12
6.61868e-12
6.69992e-12
6.75517e-12
6.70447e-12
6.79714e-12
6.83797e-12
6.84612e-12
7.23345e-12
7.31636e-12
2.39631e-11
4.15691e-10
7.53732e-12
5.84952e-12
5.06007e-12
5.39314e-12
5.12796e-12
4.88353e-12
5.00781e-12
4.73877e-12
4.93715e-12
4.73334e-12
4.79824e-12
4.84247e-12
4.80194e-12
4.8759e-12
4.90837e-12
4.91829e-12
5.2396e-12
5.33753e-12
1.62826e-11
2.50458e-10
7.69539e-12
4.48587e-12
3.55046e-12
3.74217e-12
3.5343e-12
3.35302e-12
3.4486e-12
3.24478e-12
3.39718e-12
3.24072e-12
3.28996e-12
3.32351e-12
3.29277e-12
3.34867e-12
3.37316e-12
3.38244e-12
3.63309e-12
3.73496e-12
1.0975e-11
1.50916e-10
8.49799e-12
3.48556e-12
2.39853e-12
2.48128e-12
2.32821e-12
2.20082e-12
2.27041e-12
2.12449e-12
2.23508e-12
2.12166e-12
2.157e-12
2.181e-12
2.159e-12
2.19877e-12
2.21626e-12
2.22369e-12
2.40691e-12
2.50286e-12
7.30494e-12
9.09499e-11
9.91221e-12
2.84996e-12
1.57627e-12
1.57475e-12
1.46881e-12
1.38404e-12
1.43196e-12
1.3335e-12
1.40907e-12
1.3317e-12
1.35562e-12
1.37174e-12
1.35693e-12
1.38347e-12
1.39529e-12
1.40057e-12
1.52575e-12
1.60813e-12
4.7823e-12
5.46945e-11
8.24482e-13
8.34638e-13
8.25288e-13
8.41877e-13
8.49463e-13
8.52843e-13
9.32845e-13
9.97888e-13
3.06669e-12
3.25653e-11
)
;

boundaryField
{
    fuel
    {
        type            fixedValue;
        value           nonuniform 0();
    }
    wall
    {
        type            zeroGradient;
    }
    outlet
    {
        type            zeroGradient;
    }
    frontAndBack
    {
        type            empty;
    }
    procBoundary0to1
    {
        type            processor;
        value           nonuniform List<scalar> 
21
(
1.13336e-11
2.48782e-12
1.02876e-12
9.64773e-13
8.95084e-13
8.41712e-13
8.72831e-13
8.103e-13
8.58827e-13
8.09256e-13
8.09256e-13
4.95653e-13
5.01687e-13
4.96112e-13
5.05889e-13
5.10566e-13
5.12542e-13
5.60673e-13
6.095e-13
1.9439e-12
1.92279e-11
)
;
    }
    procBoundary0to2
    {
        type            processor;
        value           nonuniform List<scalar> 
12
(
3.09189e-11
1.04012e-10
2.56022e-11
2.61786e-11
2.85868e-11
2.84314e-11
2.79181e-11
2.81777e-11
2.76281e-11
2.79767e-11
2.75972e-11
2.75972e-11
)
;
    }
    procBoundary0to3
    {
        type            processor;
        value           nonuniform List<scalar> 10(3.42748e-11 3.43535e-11 3.42898e-11 3.4406e-11 3.44455e-11 3.43396e-11 3.43463e-11 4.15361e-11 8.01891e-10 3.29326e-08);
    }
}


// ************************************************************************* //
