/*--------------------------------*- C++ -*----------------------------------*\
| =========                 |                                                 |
| \\      /  F ield         | OpenFOAM: The Open Source CFD Toolbox           |
|  \\    /   O peration     | Version:  dev                                   |
|   \\  /    A nd           | Web:      www.OpenFOAM.org                      |
|    \\/     M anipulation  |                                                 |
\*---------------------------------------------------------------------------*/
FoamFile
{
    version     2.0;
    format      ascii;
    class       volScalarField;
    location    "0.11";
    object      i-A1C2H2;
}
// * * * * * * * * * * * * * * * * * * * * * * * * * * * * * * * * * * * * * //

dimensions      [0 0 0 0 0 0 0];

internalField   nonuniform List<scalar> 
250
(
1.09142e-11
1.09354e-11
1.08967e-11
1.09672e-11
1.08992e-11
1.12297e-11
1.19376e-11
1.53411e-11
2.9725e-11
7.40996e-11
1.07204e-11
1.07252e-11
1.07009e-11
1.07446e-11
1.07022e-11
1.09794e-11
1.16513e-11
1.48527e-11
2.86533e-11
7.67996e-11
1.23512e-10
3.23764e-11
1.47285e-11
1.14433e-11
1.07533e-11
1.06194e-11
1.06137e-11
1.06312e-11
1.06467e-11
1.06551e-11
1.06469e-11
1.06354e-11
1.06267e-11
1.06425e-11
1.06261e-11
1.08501e-11
1.14902e-11
1.44927e-11
2.77639e-11
7.8456e-11
9.97715e-11
2.92808e-11
1.43697e-11
1.14168e-11
1.07786e-11
1.06571e-11
1.06499e-11
1.06713e-11
1.06837e-11
1.06969e-11
1.0692e-11
1.06643e-11
1.06721e-11
1.06593e-11
1.0669e-11
1.08406e-11
1.14524e-11
1.42583e-11
2.69149e-11
7.88661e-11
8.16503e-11
2.67099e-11
1.4156e-11
1.15097e-11
1.09211e-11
1.08116e-11
1.08028e-11
1.08282e-11
1.08375e-11
1.08551e-11
1.08535e-11
1.08097e-11
1.08344e-11
1.07933e-11
1.08286e-11
1.09499e-11
1.15353e-11
1.41466e-11
2.61203e-11
7.79624e-11
6.7989e-11
2.48195e-11
1.40819e-11
1.17177e-11
1.11767e-11
1.10785e-11
1.10681e-11
1.1097e-11
1.11038e-11
1.11248e-11
1.11265e-11
1.10675e-11
1.11086e-11
1.10403e-11
1.11001e-11
1.1175e-11
1.17349e-11
1.41531e-11
2.5342e-11
7.58015e-11
5.65677e-11
2.3219e-11
1.41376e-11
1.20324e-11
1.15378e-11
1.14494e-11
1.14374e-11
1.14694e-11
1.1474e-11
1.14978e-11
1.15025e-11
1.143e-11
1.1486e-11
1.13932e-11
1.1475e-11
1.15093e-11
1.20433e-11
1.42704e-11
2.46442e-11
7.25537e-11
4.83416e-11
2.20387e-11
1.43105e-11
1.24571e-11
1.19924e-11
1.19121e-11
1.18985e-11
1.19328e-11
1.19356e-11
1.19615e-11
1.19688e-11
1.1885e-11
1.19536e-11
1.18405e-11
1.19407e-11
1.19408e-11
1.24678e-11
1.44867e-11
2.40146e-11
6.80381e-11
4.16803e-11
2.11473e-11
1.45837e-11
1.29459e-11
1.25244e-11
1.24509e-11
1.24358e-11
1.24718e-11
1.24732e-11
1.25003e-11
1.25095e-11
1.24174e-11
1.24955e-11
1.23736e-11
1.24814e-11
1.24556e-11
1.29529e-11
1.47867e-11
2.3403e-11
6.34011e-11
3.66865e-11
2.04908e-11
1.49473e-11
1.34998e-11
1.31184e-11
1.30512e-11
1.30347e-11
1.30716e-11
1.30719e-11
1.30996e-11
1.31103e-11
1.30124e-11
1.30971e-11
1.29647e-11
1.30823e-11
1.30351e-11
1.35037e-11
1.51558e-11
2.28419e-11
5.84754e-11
3.2816e-11
2.00629e-11
1.53778e-11
1.41111e-11
1.37673e-11
1.37066e-11
1.36886e-11
1.37263e-11
1.37255e-11
1.37535e-11
1.37654e-11
1.36628e-11
1.37531e-11
1.36133e-11
1.37379e-11
1.3674e-11
1.41128e-11
1.55872e-11
2.2395e-11
5.31496e-11
2.99145e-11
1.98454e-11
1.58938e-11
1.47915e-11
1.44838e-11
1.44303e-11
1.44105e-11
1.44496e-11
1.44474e-11
1.44759e-11
1.44895e-11
1.43808e-11
1.44785e-11
1.43304e-11
1.44626e-11
1.43821e-11
1.4792e-11
1.60919e-11
2.20373e-11
4.84776e-11
2.7842e-11
1.98713e-11
1.65368e-11
1.55875e-11
1.53157e-11
1.52712e-11
1.52483e-11
1.52913e-11
1.52866e-11
1.53162e-11
1.53337e-11
1.52129e-11
1.53249e-11
1.5161e-11
1.53073e-11
1.52029e-11
1.55879e-11
1.67149e-11
2.18399e-11
4.42881e-11
1.64074e-11
1.62622e-11
1.64031e-11
1.6206e-11
1.63815e-11
1.62349e-11
1.66032e-11
1.7555e-11
2.1916e-11
4.08119e-11
)
;

boundaryField
{
    fuel
    {
        type            fixedValue;
        value           nonuniform 0();
    }
    wall
    {
        type            zeroGradient;
    }
    outlet
    {
        type            zeroGradient;
    }
    frontAndBack
    {
        type            empty;
    }
    procBoundary0to1
    {
        type            processor;
        value           nonuniform List<scalar> 
21
(
2.65603e-11
2.02271e-11
1.74039e-11
1.66015e-11
1.63678e-11
1.63357e-11
1.6307e-11
1.63588e-11
1.63492e-11
1.63821e-11
1.63821e-11
1.79119e-11
1.77209e-11
1.79162e-11
1.76547e-11
1.78874e-11
1.7664e-11
1.80318e-11
1.87955e-11
2.24553e-11
3.83009e-11
)
;
    }
    procBoundary0to2
    {
        type            processor;
        value           nonuniform List<scalar> 
12
(
1.09305e-11
1.55158e-10
3.6077e-11
1.52358e-11
1.15916e-11
1.08472e-11
1.07009e-11
1.06967e-11
1.07102e-11
1.07291e-11
1.07323e-11
1.07323e-11
)
;
    }
    procBoundary0to3
    {
        type            processor;
        value           nonuniform List<scalar> 10(1.12307e-11 1.12687e-11 1.12169e-11 1.1313e-11 1.12197e-11 1.16032e-11 1.23522e-11 1.60268e-11 3.07847e-11 7.06952e-11);
    }
}


// ************************************************************************* //
