/*--------------------------------*- C++ -*----------------------------------*\
| =========                 |                                                 |
| \\      /  F ield         | OpenFOAM: The Open Source CFD Toolbox           |
|  \\    /   O peration     | Version:  dev                                   |
|   \\  /    A nd           | Web:      www.OpenFOAM.org                      |
|    \\/     M anipulation  |                                                 |
\*---------------------------------------------------------------------------*/
FoamFile
{
    version     2.0;
    format      ascii;
    class       volScalarField;
    location    "0.11";
    object      i-C4H3;
}
// * * * * * * * * * * * * * * * * * * * * * * * * * * * * * * * * * * * * * //

dimensions      [0 0 0 0 0 0 0];

internalField   nonuniform List<scalar> 
50
(
8.90962e-06
5.57477e-06
3.21885e-06
1.81022e-06
1.00287e-06
5.51771e-07
3.03064e-07
1.66241e-07
9.16882e-08
5.12114e-08
2.88144e-08
1.63149e-08
9.31706e-09
5.3638e-09
3.10978e-09
1.82493e-09
1.07398e-09
6.38254e-10
3.80376e-10
2.27029e-10
1.36623e-10
8.19533e-11
4.9459e-11
2.98246e-11
1.80125e-11
1.0881e-11
6.54434e-12
3.92288e-12
2.3622e-12
1.41561e-12
8.45501e-13
5.07512e-13
3.04195e-13
1.81689e-13
1.08559e-13
6.49226e-14
3.88827e-14
2.33342e-14
1.40395e-14
8.47389e-15
5.13379e-15
3.12372e-15
1.91005e-15
1.17444e-15
7.26632e-16
4.5271e-16
2.84259e-16
1.80057e-16
1.15175e-16
7.44601e-17
)
;

boundaryField
{
    wall
    {
        type            zeroGradient;
    }
    fuel
    {
        type            fixedValue;
        value           uniform 0;
    }
    outlet
    {
        type            inletOutlet;
        inletValue      nonuniform 0();
        value           nonuniform 0();
    }
    procBoundary0to1
    {
        type            processor;
        value           uniform 4.86318e-17;
    }
}


// ************************************************************************* //
