/*--------------------------------*- C++ -*----------------------------------*\
| =========                 |                                                 |
| \\      /  F ield         | OpenFOAM: The Open Source CFD Toolbox           |
|  \\    /   O peration     | Version:  dev                                   |
|   \\  /    A nd           | Web:      www.OpenFOAM.org                      |
|    \\/     M anipulation  |                                                 |
\*---------------------------------------------------------------------------*/
FoamFile
{
    version     2.0;
    format      ascii;
    class       volScalarField;
    location    "0.11";
    object      N2;
}
// * * * * * * * * * * * * * * * * * * * * * * * * * * * * * * * * * * * * * //

dimensions      [0 0 0 0 0 0 0];

internalField   nonuniform List<scalar> 
250
(
2.7899e-07
3.16733e-07
3.96225e-07
7.22845e-07
2.52876e-06
1.20141e-05
6.19021e-05
0.000299192
0.00124972
0.0035208
3.9879e-07
4.27283e-07
5.05407e-07
8.35145e-07
2.64709e-06
1.19532e-05
5.97601e-05
0.000279862
0.0011342
0.00305711
0.00290539
0.00116632
0.000295301
6.5161e-05
1.36003e-05
3.24802e-06
1.15072e-06
7.08717e-07
5.00966e-07
4.50535e-07
5.38331e-07
5.55353e-07
6.31269e-07
9.61151e-07
2.76741e-06
1.18476e-05
5.74819e-05
0.000260908
0.00102668
0.00265898
0.00277949
0.00111025
0.000281504
6.31644e-05
1.35091e-05
3.43985e-06
1.34771e-06
9.05743e-07
6.89732e-07
6.39701e-07
7.04368e-07
7.08133e-07
7.79998e-07
1.10691e-06
2.8959e-06
1.17082e-05
5.51044e-05
0.000242484
0.000920828
0.002318
0.00264147
0.00105199
0.000266673
6.08132e-05
1.34502e-05
3.6481e-06
1.57466e-06
1.13447e-06
9.09845e-07
8.59143e-07
9.00534e-07
8.89147e-07
9.5483e-07
1.27548e-06
3.03585e-06
1.15419e-05
5.26557e-05
0.000224729
0.000822241
0.00202587
0.00249233
0.000989905
0.000251029
5.82426e-05
1.33446e-05
3.88113e-06
1.83857e-06
1.40256e-06
1.16842e-06
1.11637e-06
1.13055e-06
1.10195e-06
1.15908e-06
1.47e-06
3.19072e-06
1.1355e-05
5.01621e-05
0.000207759
0.000741658
0.00177544
0.00233359
0.000924445
0.000234841
5.54925e-05
1.32137e-05
4.14491e-06
2.14468e-06
1.71505e-06
1.47031e-06
1.416e-06
1.39862e-06
1.35057e-06
1.39649e-06
1.69406e-06
3.36453e-06
1.11518e-05
4.76497e-05
0.000191589
0.000665534
0.00156015
0.00216718
0.00085642
0.000217554
5.26078e-05
1.30767e-05
4.44571e-06
2.49856e-06
2.07711e-06
1.82063e-06
1.76286e-06
1.70935e-06
1.63941e-06
1.67121e-06
1.95168e-06
3.56185e-06
1.09491e-05
4.51316e-05
0.000176232
0.000598832
0.00137461
0.00199531
0.000786829
0.00020088
4.96427e-05
1.29499e-05
4.80283e-06
2.92088e-06
2.51007e-06
2.2377e-06
2.17634e-06
2.08032e-06
1.98412e-06
1.99878e-06
2.25624e-06
3.79403e-06
1.07889e-05
4.25879e-05
0.00016167
0.000538332
0.00121402
0.00182035
0.000716668
0.000183148
4.66476e-05
1.28513e-05
5.2006e-06
3.39199e-06
2.9911e-06
2.70463e-06
2.63658e-06
2.49397e-06
2.36999e-06
2.36391e-06
2.59621e-06
4.05458e-06
1.06444e-05
4.00834e-05
0.000147883
0.000483439
0.00107431
0.00164483
0.000647004
0.000166733
4.3682e-05
1.27967e-05
5.65658e-06
3.93111e-06
3.53924e-06
3.23836e-06
3.16119e-06
2.96625e-06
2.81122e-06
2.78081e-06
2.984e-06
4.35416e-06
1.05211e-05
3.76344e-05
0.000134875
0.000433548
0.000951993
0.0014718
0.000578802
0.000150807
4.07963e-05
1.28026e-05
6.17753e-06
4.54544e-06
4.15999e-06
3.84517e-06
3.75579e-06
3.50247e-06
3.31275e-06
3.25428e-06
3.42448e-06
4.69815e-06
1.04289e-05
3.52577e-05
0.00012267
0.000388071
0.000844155
0.00130382
0.000512954
0.000135549
3.80403e-05
1.28828e-05
6.77113e-06
5.24061e-06
4.85901e-06
4.53075e-06
4.42574e-06
4.10769e-06
3.87913e-06
3.78895e-06
3.92228e-06
5.09184e-06
1.03768e-05
3.2971e-05
0.000111187
0.000346567
0.000748381
4.78633e-06
4.51411e-06
4.38879e-06
4.48113e-06
5.53976e-06
1.03723e-05
3.07917e-05
0.000100398
0.000308598
0.000662685
)
;

boundaryField
{
    fuel
    {
        type            fixedValue;
        value           nonuniform 0();
    }
    wall
    {
        type            zeroGradient;
    }
    outlet
    {
        type            zeroGradient;
    }
    frontAndBack
    {
        type            empty;
    }
    procBoundary0to1
    {
        type            processor;
        value           nonuniform List<scalar> 
21
(
0.00114269
0.000450154
0.000121099
3.54753e-05
1.30368e-05
7.4573e-06
6.01356e-06
5.6487e-06
5.2972e-06
5.1779e-06
5.1779e-06
5.54062e-06
5.21943e-06
5.05538e-06
5.09985e-06
6.04023e-06
1.04198e-05
2.87177e-05
9.03009e-05
0.000273741
0.000585483
)
;
    }
    procBoundary0to2
    {
        type            processor;
        value           nonuniform List<scalar> 
12
(
1.56882e-07
0.00301905
0.00121517
0.000307859
6.68601e-05
1.36189e-05
3.06837e-06
9.80872e-07
5.39583e-07
3.4067e-07
2.88623e-07
2.88623e-07
)
;
    }
    procBoundary0to3
    {
        type            processor;
        value           nonuniform List<scalar> 10(1.78044e-07 2.23398e-07 3.03223e-07 6.24017e-07 2.41219e-06 1.20258e-05 6.40512e-05 0.000320874 0.00137629 0.00405575);
    }
}


// ************************************************************************* //
