/*--------------------------------*- C++ -*----------------------------------*\
| =========                 |                                                 |
| \\      /  F ield         | OpenFOAM: The Open Source CFD Toolbox           |
|  \\    /   O peration     | Version:  dev                                   |
|   \\  /    A nd           | Web:      www.OpenFOAM.org                      |
|    \\/     M anipulation  |                                                 |
\*---------------------------------------------------------------------------*/
FoamFile
{
    version     2.0;
    format      ascii;
    class       volScalarField;
    location    "0.11";
    object      naphthyne;
}
// * * * * * * * * * * * * * * * * * * * * * * * * * * * * * * * * * * * * * //

dimensions      [0 0 0 0 0 0 0];

internalField   nonuniform List<scalar> 
250
(
1.01499e-09
1.01401e-09
1.01466e-09
1.0137e-09
1.015e-09
1.0318e-09
1.13298e-09
1.62014e-09
5.17168e-09
1.08118e-08
9.85204e-10
9.83966e-10
9.84658e-10
9.83517e-10
9.84691e-10
1.00048e-09
1.09134e-09
1.52173e-09
4.47e-09
9.71005e-09
5.43119e-09
2.70781e-09
1.37813e-09
1.07852e-09
9.95157e-10
9.71993e-10
9.71814e-10
9.70274e-10
9.69405e-10
9.69509e-10
9.70707e-10
9.69196e-10
9.69968e-10
9.68561e-10
9.69614e-10
9.84531e-10
1.06621e-09
1.44727e-09
3.88941e-09
8.6026e-09
5.23677e-09
2.53126e-09
1.34975e-09
1.06769e-09
9.91747e-10
9.7164e-10
9.70478e-10
9.71041e-10
9.68886e-10
9.70588e-10
9.71256e-10
9.69454e-10
9.70345e-10
9.68605e-10
9.69536e-10
9.83695e-10
1.05712e-09
1.39541e-09
3.38882e-09
7.54125e-09
5.09e-09
2.41122e-09
1.3396e-09
1.07244e-09
1.00346e-09
9.86153e-10
9.83933e-10
9.86724e-10
9.83175e-10
9.86558e-10
9.86652e-10
9.8455e-10
9.85595e-10
9.8348e-10
9.84291e-10
9.97791e-10
1.06374e-09
1.36508e-09
2.98605e-09
6.56581e-09
4.97857e-09
2.33099e-09
1.34638e-09
1.09248e-09
1.02978e-09
1.01507e-09
1.01177e-09
1.01679e-09
1.01184e-09
1.01689e-09
1.01641e-09
1.01401e-09
1.01523e-09
1.01273e-09
1.01344e-09
1.02635e-09
1.08557e-09
1.35497e-09
2.70436e-09
5.70322e-09
4.88681e-09
2.28128e-09
1.36805e-09
1.12667e-09
1.06961e-09
1.05717e-09
1.05285e-09
1.05991e-09
1.05368e-09
1.06025e-09
1.05924e-09
1.05658e-09
1.05797e-09
1.05514e-09
1.05577e-09
1.06814e-09
1.12143e-09
1.36293e-09
2.48116e-09
4.96483e-09
4.79707e-09
2.25353e-09
1.40306e-09
1.17264e-09
1.1205e-09
1.10985e-09
1.10471e-09
1.11334e-09
1.10618e-09
1.1139e-09
1.11248e-09
1.10964e-09
1.11115e-09
1.1081e-09
1.10872e-09
1.12058e-09
1.16885e-09
1.38562e-09
2.31949e-09
4.35014e-09
4.69107e-09
2.23851e-09
1.44312e-09
1.22611e-09
1.17848e-09
1.17076e-09
1.16511e-09
1.17467e-09
1.16677e-09
1.17527e-09
1.17364e-09
1.17059e-09
1.17226e-09
1.16892e-09
1.16949e-09
1.1818e-09
1.22347e-09
1.41792e-09
2.19911e-09
3.84831e-09
4.55175e-09
2.22597e-09
1.48573e-09
1.28072e-09
1.23633e-09
1.22921e-09
1.2236e-09
1.2329e-09
1.22542e-09
1.23365e-09
1.23208e-09
1.22914e-09
1.2307e-09
1.2276e-09
1.22833e-09
1.24027e-09
1.27885e-09
1.45279e-09
2.1072e-09
3.44199e-09
4.36624e-09
2.205e-09
1.51697e-09
1.32861e-09
1.28657e-09
1.27925e-09
1.27425e-09
1.28217e-09
1.27602e-09
1.28305e-09
1.28182e-09
1.27918e-09
1.28048e-09
1.27792e-09
1.2789e-09
1.2904e-09
1.32714e-09
1.48197e-09
2.03101e-09
3.11078e-09
4.12954e-09
2.16603e-09
1.53187e-09
1.36198e-09
1.32173e-09
1.31365e-09
1.30976e-09
1.31542e-09
1.31129e-09
1.31641e-09
1.31573e-09
1.31353e-09
1.31445e-09
1.31264e-09
1.31393e-09
1.3249e-09
1.36067e-09
1.49763e-09
1.95902e-09
2.83453e-09
3.8462e-09
2.10316e-09
1.52585e-09
1.37552e-09
1.33695e-09
1.32799e-09
1.32546e-09
1.32852e-09
1.32668e-09
1.32959e-09
1.32954e-09
1.32786e-09
1.32835e-09
1.32736e-09
1.32894e-09
1.33924e-09
1.37427e-09
1.49445e-09
1.88302e-09
2.59628e-09
1.32355e-09
1.32234e-09
1.32244e-09
1.32215e-09
1.32394e-09
1.33345e-09
1.36728e-09
1.47182e-09
1.79961e-09
2.3845e-09
)
;

boundaryField
{
    fuel
    {
        type            fixedValue;
        value           nonuniform 0();
    }
    wall
    {
        type            zeroGradient;
    }
    outlet
    {
        type            zeroGradient;
    }
    frontAndBack
    {
        type            empty;
    }
    procBoundary0to1
    {
        type            processor;
        value           nonuniform List<scalar> 
21
(
3.52895e-09
2.016e-09
1.49901e-09
1.36835e-09
1.33189e-09
1.3224e-09
1.32115e-09
1.3219e-09
1.32213e-09
1.32306e-09
1.32306e-09
1.30264e-09
1.30175e-09
1.30161e-09
1.30178e-09
1.30365e-09
1.31224e-09
1.34393e-09
1.43416e-09
1.71074e-09
2.19418e-09
)
;
    }
    procBoundary0to2
    {
        type            processor;
        value           nonuniform List<scalar> 
12
(
1.01294e-09
5.67879e-09
2.93885e-09
1.42575e-09
1.1053e-09
1.01367e-09
9.87377e-10
9.88095e-10
9.84633e-10
9.84894e-10
9.83533e-10
9.83533e-10
)
;
    }
    procBoundary0to3
    {
        type            processor;
        value           nonuniform List<scalar> 10(1.06058e-09 1.05983e-09 1.06047e-09 1.05959e-09 1.06101e-09 1.07897e-09 1.19728e-09 1.75786e-09 6.02908e-09 1.18477e-08);
    }
}


// ************************************************************************* //
