/*--------------------------------*- C++ -*----------------------------------*\
| =========                 |                                                 |
| \\      /  F ield         | OpenFOAM: The Open Source CFD Toolbox           |
|  \\    /   O peration     | Version:  dev                                   |
|   \\  /    A nd           | Web:      www.OpenFOAM.org                      |
|    \\/     M anipulation  |                                                 |
\*---------------------------------------------------------------------------*/
FoamFile
{
    version     2.0;
    format      ascii;
    class       volScalarField;
    location    "0.11";
    object      O;
}
// * * * * * * * * * * * * * * * * * * * * * * * * * * * * * * * * * * * * * //

dimensions      [0 0 0 0 0 0 0];

internalField   nonuniform List<scalar> 
50
(
0.000151176
0.000168678
0.000140853
0.000111048
8.69539e-05
6.92157e-05
5.67179e-05
4.80833e-05
4.22418e-05
3.83554e-05
3.57603e-05
3.40508e-05
3.29582e-05
3.22891e-05
3.19093e-05
3.17263e-05
3.16702e-05
3.16945e-05
3.17651e-05
3.18581e-05
3.1954e-05
3.20423e-05
3.21119e-05
3.21573e-05
3.21738e-05
3.21583e-05
3.21084e-05
3.20227e-05
3.19023e-05
3.1745e-05
3.15518e-05
3.13271e-05
3.10688e-05
3.07773e-05
3.04565e-05
3.01082e-05
2.97345e-05
2.93374e-05
2.89189e-05
2.84811e-05
2.8026e-05
2.75555e-05
2.70714e-05
2.65756e-05
2.60697e-05
2.55554e-05
2.5034e-05
2.4507e-05
2.39756e-05
2.34412e-05
)
;

boundaryField
{
    wall
    {
        type            zeroGradient;
    }
    fuel
    {
        type            fixedValue;
        value           uniform 0;
    }
    outlet
    {
        type            inletOutlet;
        inletValue      nonuniform 0();
        value           nonuniform 0();
    }
    procBoundary0to1
    {
        type            processor;
        value           uniform 2.29051e-05;
    }
}


// ************************************************************************* //
