/*--------------------------------*- C++ -*----------------------------------*\
| =========                 |                                                 |
| \\      /  F ield         | OpenFOAM: The Open Source CFD Toolbox           |
|  \\    /   O peration     | Version:  dev                                   |
|   \\  /    A nd           | Web:      www.OpenFOAM.org                      |
|    \\/     M anipulation  |                                                 |
\*---------------------------------------------------------------------------*/
FoamFile
{
    version     2.0;
    format      ascii;
    class       volScalarField;
    location    "0.11";
    object      T;
}
// * * * * * * * * * * * * * * * * * * * * * * * * * * * * * * * * * * * * * //

dimensions      [0 0 0 1 0 0 0];

internalField   nonuniform List<scalar> 
250
(
2008.51
2009.41
2008.36
2010.03
2008.6
2010.82
2008.23
2001.87
1982.3
1953.66
2000.99
2002.04
2000.81
2002.75
2001.11
2003.72
2001.14
1995.38
1976.64
1948.31
1818.65
1938.94
1982.09
1991.52
1993.13
1992.96
1993.02
1992.67
1992.9
1992.74
1992.3
1993.53
1992.09
1994.34
1992.46
1995.5
1992.94
1987.86
1970.38
1941.42
1829.42
1934.65
1973.9
1982.06
1983.35
1983.05
1983.12
1982.71
1982.95
1982.79
1982.27
1983.7
1982.03
1984.62
1982.47
1985.99
1983.47
1979.13
1962.95
1933.3
1837.67
1928.7
1964.28
1971.13
1972.07
1971.63
1971.7
1971.21
1971.49
1971.3
1970.7
1972.37
1970.42
1973.41
1970.94
1974.99
1972.53
1968.99
1954.18
1924.15
1843.03
1921.35
1952.99
1958.51
1959.05
1958.47
1958.55
1957.98
1958.28
1958.08
1957.38
1959.31
1957.06
1960.49
1957.66
1962.26
1959.9
1957.22
1943.8
1913.94
1845.45
1911.5
1939.77
1943.97
1944.05
1943.33
1943.43
1942.76
1943.1
1942.87
1942.06
1944.29
1941.71
1945.62
1942.39
1947.55
1945.34
1943.54
1931.97
1902.58
1844.39
1899.61
1924.35
1926.57
1926.8
1925.95
1926.06
1925.29
1925.68
1925.42
1924.49
1927.03
1924.09
1928.54
1924.86
1930.61
1927.68
1927.66
1918.43
1889
1839.53
1885.04
1906.43
1907.23
1907.02
1906.03
1906.18
1905.29
1905.73
1905.42
1904.38
1907.26
1903.93
1908.7
1904.77
1911.11
1908.26
1909.31
1902.06
1874.49
1830.81
1867.1
1884.92
1885.03
1884.39
1883.26
1883.45
1882.43
1882.93
1882.58
1881.4
1884.66
1880.89
1886.26
1881.83
1888.85
1885.99
1888.13
1882.52
1857.78
1817.73
1845.95
1860.84
1859.63
1858.58
1857.3
1857.53
1856.39
1856.94
1856.54
1855.22
1858.9
1854.65
1860.64
1855.67
1863.43
1860.51
1863.77
1860.98
1837.45
1800.01
1820.88
1833.12
1830.64
1829.21
1827.76
1828.06
1826.77
1827.38
1826.94
1825.47
1829.59
1824.83
1831.48
1825.93
1834.44
1831.42
1835.84
1835.64
1814.85
1777.21
1791.49
1801.34
1797.65
1795.88
1794.25
1794.63
1793.18
1793.86
1793.36
1791.74
1796.33
1791.03
1798.35
1792.21
1801.47
1798.32
1803.89
1806.14
1788.41
1753.59
1758.68
1752.8
1760.82
1754.05
1764.06
1760.74
1767.45
1772.01
1757.51
)
;

boundaryField
{
    fuel
    {
        type            fixedValue;
        value           nonuniform 0();
    }
    wall
    {
        type            fixedValue;
        value           nonuniform 0();
    }
    outlet
    {
        type            inletOutlet;
        inletValue      uniform 353;
        value           nonuniform List<scalar> 
25
(
1818.61
1829.45
1837.69
1843.09
1845.52
1844.48
1839.62
1830.9
1817.79
1800.06
1777.25
1953.74
1948.13
1941.05
1932.81
1923.59
1913.36
1902.01
1888.45
1874.03
1857.39
1837.11
1814.61
1788.25
1757.41
)
;
    }
    frontAndBack
    {
        type            empty;
    }
    procBoundary0to1
    {
        type            processor;
        value           nonuniform List<scalar> 
21
(
1748.89
1757.32
1765
1760.2
1758.11
1756.31
1756.8
1755.17
1755.94
1755.37
1755.37
1710.55
1716.14
1709.66
1718.38
1710.97
1721.71
1718.19
1725.99
1732.67
1721.52
)
;
    }
    procBoundary0to2
    {
        type            processor;
        value           nonuniform List<scalar> 
12
(
2008.84
1805.49
1941.83
1989.05
1999.71
2001.59
2001.53
2001.6
2001.31
2001.52
2001.37
2001.37
)
;
    }
    procBoundary0to3
    {
        type            processor;
        value           nonuniform List<scalar> 10(2015.02 2015.79 2014.9 2016.33 2015.08 2016.95 2014.37 2007.88 1986.55 1957.08);
    }
}


// ************************************************************************* //
