/*--------------------------------*- C++ -*----------------------------------*\
| =========                 |                                                 |
| \\      /  F ield         | OpenFOAM: The Open Source CFD Toolbox           |
|  \\    /   O peration     | Version:  dev                                   |
|   \\  /    A nd           | Web:      www.OpenFOAM.org                      |
|    \\/     M anipulation  |                                                 |
\*---------------------------------------------------------------------------*/
FoamFile
{
    version     2.0;
    format      ascii;
    class       volVectorField;
    location    "0.11";
    object      U;
}
// * * * * * * * * * * * * * * * * * * * * * * * * * * * * * * * * * * * * * //

dimensions      [0 1 -1 0 0 0 0];

internalField   nonuniform List<vector> 
50
(
(9.98057e-15 -9.98057e-15 0.15909)
(2.52444e-14 -2.52444e-14 0.220813)
(4.03677e-14 -4.03677e-14 0.248038)
(5.52896e-14 -5.52896e-14 0.260051)
(6.05033e-14 -6.05033e-14 0.26708)
(6.56541e-14 -6.56541e-14 0.27238)
(7.15799e-14 -7.15799e-14 0.276715)
(7.73121e-14 -7.73121e-14 0.280514)
(8.30219e-14 -8.30219e-14 0.284032)
(8.88491e-14 -8.88491e-14 0.287478)
(9.407e-14 -9.407e-14 0.290958)
(1.0085e-13 -1.0085e-13 0.294553)
(1.0681e-13 -1.0681e-13 0.298298)
(1.05265e-13 -1.05265e-13 0.302206)
(1.02717e-13 -1.02717e-13 0.306264)
(1.01652e-13 -1.01652e-13 0.310446)
(9.98132e-14 -9.98132e-14 0.314716)
(9.80772e-14 -9.80772e-14 0.319033)
(9.60662e-14 -9.60662e-14 0.323346)
(9.39694e-14 -9.39694e-14 0.327619)
(9.17822e-14 -9.17822e-14 0.331837)
(8.95248e-14 -8.95248e-14 0.335984)
(8.72066e-14 -8.72066e-14 0.340054)
(8.48322e-14 -8.48322e-14 0.344042)
(8.24061e-14 -8.24061e-14 0.34795)
(7.99305e-14 -7.99305e-14 0.35179)
(7.74058e-14 -7.74058e-14 0.355568)
(7.48312e-14 -7.48312e-14 0.359289)
(7.22046e-14 -7.22046e-14 0.362963)
(6.95234e-14 -6.95234e-14 0.3666)
(6.67843e-14 -6.67843e-14 0.370208)
(6.39843e-14 -6.39843e-14 0.373797)
(6.11202e-14 -6.11202e-14 0.377377)
(5.81887e-14 -5.81887e-14 0.380946)
(5.5187e-14 -5.5187e-14 0.384503)
(5.21122e-14 -5.21122e-14 0.388049)
(4.89617e-14 -4.89617e-14 0.391588)
(4.57329e-14 -4.57329e-14 0.395119)
(4.24233e-14 -4.24233e-14 0.398646)
(3.90305e-14 -3.90305e-14 0.402165)
(3.55521e-14 -3.55521e-14 0.405682)
(3.19856e-14 -3.19856e-14 0.409188)
(2.83286e-14 -2.83286e-14 0.412694)
(2.45787e-14 -2.45787e-14 0.416189)
(2.07333e-14 -2.07333e-14 0.419647)
(1.67898e-14 -1.67898e-14 0.423184)
(1.27455e-14 -1.27455e-14 0.426614)
(8.59734e-15 -8.59734e-15 0.431255)
(4.34241e-15 -4.34241e-15 0.434332)
(-2.25278e-17 2.25278e-17 0.437058)
)
;

boundaryField
{
    wall
    {
        type            zeroGradient;
    }
    fuel
    {
        type            fixedValue;
        value           uniform (0 0 0.1055);
    }
    outlet
    {
        type            pressureInletOutletVelocity;
        value           nonuniform 0();
    }
    procBoundary0to1
    {
        type            processor;
        value           uniform (-4.50078e-15 4.50078e-15 0.440499);
    }
}


// ************************************************************************* //
