/*--------------------------------*- C++ -*----------------------------------*\
| =========                 |                                                 |
| \\      /  F ield         | OpenFOAM: The Open Source CFD Toolbox           |
|  \\    /   O peration     | Version:  dev                                   |
|   \\  /    A nd           | Web:      www.OpenFOAM.org                      |
|    \\/     M anipulation  |                                                 |
\*---------------------------------------------------------------------------*/
FoamFile
{
    version     2.0;
    format      ascii;
    class       volScalarField;
    location    "0.145";
    object      A1C2H-;
}
// * * * * * * * * * * * * * * * * * * * * * * * * * * * * * * * * * * * * * //

dimensions      [0 0 0 0 0 0 0];

internalField   nonuniform List<scalar> 
12
(
4.58603e-16
3.43286e-16
2.55997e-16
1.9053e-16
1.41957e-16
1.06341e-16
8.04718e-17
6.2032e-17
4.9047e-17
4.00906e-17
3.37856e-17
2.97989e-17
)
;

boundaryField
{
    wall
    {
        type            zeroGradient;
    }
    fuel
    {
        type            fixedValue;
        value           nonuniform 0();
    }
    outlet
    {
        type            inletOutlet;
        inletValue      nonuniform 0();
        value           nonuniform 0();
    }
    procBoundary6to5
    {
        type            processor;
        value           uniform 6.08051e-16;
    }
    procBoundary6to7
    {
        type            processor;
        value           uniform 2.72098e-17;
    }
}


// ************************************************************************* //
