/*--------------------------------*- C++ -*----------------------------------*\
| =========                 |                                                 |
| \\      /  F ield         | OpenFOAM: The Open Source CFD Toolbox           |
|  \\    /   O peration     | Version:  dev                                   |
|   \\  /    A nd           | Web:      www.OpenFOAM.org                      |
|    \\/     M anipulation  |                                                 |
\*---------------------------------------------------------------------------*/
FoamFile
{
    version     2.0;
    format      ascii;
    class       volScalarField;
    location    "0.135";
    object      A3C2H;
}
// * * * * * * * * * * * * * * * * * * * * * * * * * * * * * * * * * * * * * //

dimensions      [0 0 0 0 0 0 0];

internalField   nonuniform List<scalar> 
250
(
8.13325e-10
8.1347e-10
8.13574e-10
8.13503e-10
8.13745e-10
8.1391e-10
8.15028e-10
8.20265e-10
8.44632e-10
8.65771e-10
1.06911e-11
9.7105e-10
9.71289e-10
9.7139e-10
9.71206e-10
9.71497e-10
9.71581e-10
9.73986e-10
9.83373e-10
1.0273e-09
1.11867e-09
1.62293e-11
8.95189e-10
8.95408e-10
8.95549e-10
8.95154e-10
8.95628e-10
8.95358e-10
8.99167e-10
9.11412e-10
9.68929e-10
1.07419e-09
1.54061e-11
7.60766e-10
7.60897e-10
7.61147e-10
7.60394e-10
7.61318e-10
7.60432e-10
7.65826e-10
7.79594e-10
8.46624e-10
9.44597e-10
1.31179e-11
6.22891e-10
6.22891e-10
6.23216e-10
6.22026e-10
6.23741e-10
6.22149e-10
6.29105e-10
6.43131e-10
7.16271e-10
8.08594e-10
1.10683e-11
5.00149e-10
5.00024e-10
5.00083e-10
4.98494e-10
5.01671e-10
4.99567e-10
5.07518e-10
5.20852e-10
5.95325e-10
6.94273e-10
9.60063e-12
3.94168e-10
3.98121e-10
3.93411e-10
3.91114e-10
3.98143e-10
3.95389e-10
4.06022e-10
4.18845e-10
4.92822e-10
5.93966e-10
8.94647e-12
3.07506e-10
3.04347e-10
3.09056e-10
3.06843e-10
3.0636e-10
3.03205e-10
3.12829e-10
3.23077e-10
4.08951e-10
5.25431e-10
9.56791e-12
2.41274e-10
2.40007e-10
2.43198e-10
2.41088e-10
2.43046e-10
2.39423e-10
2.48559e-10
2.56733e-10
3.33717e-10
4.65993e-10
1.24141e-11
1.88475e-10
1.87744e-10
1.90127e-10
1.87847e-10
1.9113e-10
1.87054e-10
1.9691e-10
2.04615e-10
2.73604e-10
4.23596e-10
1.94548e-11
1.45917e-10
1.47603e-10
1.45433e-10
1.48834e-10
1.45097e-10
1.54427e-10
1.5998e-10
2.31009e-10
3.89184e-10
3.25642e-11
1.1496e-10
1.16257e-10
1.14191e-10
1.17192e-10
1.14094e-10
1.2271e-10
1.2678e-10
1.92892e-10
3.59824e-10
5.38866e-11
9.20777e-11
9.31295e-11
9.11146e-11
9.34463e-11
9.12644e-11
9.90199e-11
1.02148e-10
1.6276e-10
3.36406e-10
8.54642e-11
7.51119e-11
7.59858e-11
7.38899e-11
7.79063e-11
7.44211e-11
8.12525e-11
8.38144e-11
1.38951e-10
3.12865e-10
1.31366e-10
6.24406e-11
6.31781e-11
6.25025e-11
6.47669e-11
6.18754e-11
6.7826e-11
7.0063e-11
1.20025e-10
2.91331e-10
1.98261e-10
5.28721e-11
5.34949e-11
5.2864e-11
5.48023e-11
5.24186e-11
5.75722e-11
5.96292e-11
1.04829e-10
2.72758e-10
2.93632e-10
4.5546e-11
4.60719e-11
4.54844e-11
4.71449e-11
4.51835e-11
4.96395e-11
5.15964e-11
9.2463e-11
2.57202e-10
4.21444e-10
3.98486e-11
4.02925e-11
3.97408e-11
4.11695e-11
3.95539e-11
4.34118e-11
4.53081e-11
8.22329e-11
2.42116e-10
5.77334e-10
3.53443e-11
3.57188e-11
3.51861e-11
3.64317e-11
3.50935e-11
3.84453e-11
4.03013e-11
7.3606e-11
2.27299e-10
7.46485e-10
3.17244e-11
3.20398e-11
3.1499e-11
3.2616e-11
3.14913e-11
3.44204e-11
3.62542e-11
6.71635e-11
2.12337e-10
9.06271e-10
2.87687e-11
2.90332e-11
2.88117e-11
2.94969e-11
2.85222e-11
3.11054e-11
3.29175e-11
6.12361e-11
1.97445e-10
1.03293e-09
2.63168e-11
2.65339e-11
2.63427e-11
2.69019e-11
2.63082e-11
2.833e-11
3.04206e-11
5.58416e-11
1.81072e-10
1.10878e-09
2.4492e-11
2.46803e-11
2.45051e-11
2.49838e-11
2.44752e-11
2.62738e-11
2.83135e-11
5.1025e-11
1.64527e-10
1.12685e-09
2.28258e-11
2.29881e-11
2.28334e-11
2.32433e-11
2.28076e-11
2.44337e-11
2.63397e-11
4.6652e-11
1.48583e-10
1.09095e-09
)
;

boundaryField
{
    fuel
    {
        type            fixedValue;
        value           uniform 0;
    }
    wall
    {
        type            zeroGradient;
    }
    outlet
    {
        type            zeroGradient;
    }
    frontAndBack
    {
        type            empty;
    }
    procBoundary3to0
    {
        type            processor;
        value           nonuniform List<scalar> 10(2.15471e-11 2.16857e-11 2.15517e-11 2.18973e-11 2.1531e-11 2.2975e-11 2.47978e-11 4.31553e-11 1.31098e-10 1.01258e-09);
    }
    procBoundary3to2
    {
        type            processor;
        value           nonuniform List<scalar> 
25
(
8.1368e-10
9.71613e-10
8.9549e-10
7.60925e-10
6.22896e-10
4.99796e-10
3.93039e-10
3.07842e-10
2.41685e-10
1.88632e-10
1.4639e-10
1.4639e-10
1.15334e-10
9.23953e-11
7.53893e-11
6.2687e-11
5.30942e-11
4.57488e-11
4.00355e-11
3.55174e-11
3.18845e-11
2.89155e-11
2.6449e-11
2.46152e-11
2.29365e-11
)
;
    }
}


// ************************************************************************* //
