/*--------------------------------*- C++ -*----------------------------------*\
| =========                 |                                                 |
| \\      /  F ield         | OpenFOAM: The Open Source CFD Toolbox           |
|  \\    /   O peration     | Version:  dev                                   |
|   \\  /    A nd           | Web:      www.OpenFOAM.org                      |
|    \\/     M anipulation  |                                                 |
\*---------------------------------------------------------------------------*/
FoamFile
{
    version     2.0;
    format      ascii;
    class       volScalarField;
    location    "0.135";
    object      C2H;
}
// * * * * * * * * * * * * * * * * * * * * * * * * * * * * * * * * * * * * * //

dimensions      [0 0 0 0 0 0 0];

internalField   nonuniform List<scalar> 
50
(
2.29764e-16
2.08875e-16
1.89095e-16
1.70578e-16
1.53819e-16
1.38047e-16
1.23411e-16
1.10267e-16
9.7949e-17
8.66172e-17
7.62634e-17
6.70707e-17
5.85252e-17
5.09626e-17
4.40816e-17
3.79613e-17
3.2403e-17
2.7544e-17
2.31405e-17
1.92569e-17
1.59704e-17
1.31236e-17
1.06482e-17
8.56577e-18
6.80205e-18
5.33624e-18
4.12829e-18
3.14729e-18
2.34394e-18
1.71443e-18
1.23801e-18
8.73443e-19
6.00944e-19
4.02319e-19
2.57986e-19
1.61444e-19
9.53924e-20
5.46159e-20
2.97546e-20
1.54582e-20
7.90089e-21
4.46468e-21
3.4715e-21
3.93182e-21
5.31453e-21
7.3475e-21
9.84004e-21
1.24418e-20
1.40765e-20
1.25002e-20
)
;

boundaryField
{
    wall
    {
        type            zeroGradient;
    }
    fuel
    {
        type            fixedValue;
        value           nonuniform 0();
    }
    outlet
    {
        type            inletOutlet;
        inletValue      uniform 0;
        value           uniform 1.25002e-20;
    }
    procBoundary3to2
    {
        type            processor;
        value           uniform 2.52526e-16;
    }
}


// ************************************************************************* //
