/*--------------------------------*- C++ -*----------------------------------*\
| =========                 |                                                 |
| \\      /  F ield         | OpenFOAM: The Open Source CFD Toolbox           |
|  \\    /   O peration     | Version:  dev                                   |
|   \\  /    A nd           | Web:      www.OpenFOAM.org                      |
|    \\/     M anipulation  |                                                 |
\*---------------------------------------------------------------------------*/
FoamFile
{
    version     2.0;
    format      ascii;
    class       volScalarField;
    location    "0.135";
    object      C4H612;
}
// * * * * * * * * * * * * * * * * * * * * * * * * * * * * * * * * * * * * * //

dimensions      [0 0 0 0 0 0 0];

internalField   nonuniform List<scalar> 
50
(
2.12531e-25
2.09171e-25
2.05927e-25
2.02817e-25
1.99954e-25
1.97127e-25
1.94335e-25
1.91651e-25
1.88819e-25
1.85816e-25
1.8259e-25
1.7919e-25
1.75307e-25
1.71115e-25
1.66419e-25
1.61326e-25
1.55712e-25
1.49873e-25
1.43639e-25
1.37317e-25
1.31345e-25
1.25682e-25
1.20392e-25
1.15708e-25
1.11576e-25
1.07989e-25
1.04829e-25
1.01934e-25
9.90353e-26
9.59753e-26
9.26172e-26
8.87213e-26
8.42091e-26
7.90882e-26
7.33018e-26
6.73327e-26
6.105e-26
5.5087e-26
4.94134e-26
4.4097e-26
3.90795e-26
3.41941e-26
2.92312e-26
2.40544e-26
1.87367e-26
1.36247e-26
9.20857e-27
5.82175e-27
3.43681e-27
1.88316e-27
)
;

boundaryField
{
    wall
    {
        type            zeroGradient;
    }
    fuel
    {
        type            fixedValue;
        value           nonuniform 0();
    }
    outlet
    {
        type            inletOutlet;
        inletValue      uniform 0;
        value           uniform 1.88316e-27;
    }
    procBoundary3to2
    {
        type            processor;
        value           uniform 2.1621e-25;
    }
}


// ************************************************************************* //
