/*--------------------------------*- C++ -*----------------------------------*\
| =========                 |                                                 |
| \\      /  F ield         | OpenFOAM: The Open Source CFD Toolbox           |
|  \\    /   O peration     | Version:  dev                                   |
|   \\  /    A nd           | Web:      www.OpenFOAM.org                      |
|    \\/     M anipulation  |                                                 |
\*---------------------------------------------------------------------------*/
FoamFile
{
    version     2.0;
    format      ascii;
    class       volScalarField;
    location    "0.135";
    object      CO2;
}
// * * * * * * * * * * * * * * * * * * * * * * * * * * * * * * * * * * * * * //

dimensions      [0 0 0 0 0 0 0];

internalField   nonuniform List<scalar> 
250
(
0.038924
0.0389225
0.0389237
0.038923
0.0389238
0.038923
0.0389258
0.0389274
0.0389449
0.0386152
0.0174542
0.0463506
0.0463493
0.0463509
0.0463485
0.0463513
0.0463483
0.0463559
0.0463613
0.0464227
0.0462004
0.0327412
0.0485314
0.0485307
0.0485322
0.0485291
0.0485326
0.0485285
0.0485429
0.0485524
0.0486657
0.0485111
0.0395771
0.049249
0.0492488
0.0492504
0.0492463
0.0492508
0.0492453
0.0492685
0.0492831
0.0494555
0.0493326
0.0425089
0.0494532
0.0494534
0.0494552
0.0494495
0.049456
0.0494487
0.0494823
0.0495027
0.0497369
0.0496359
0.043661
0.0494395
0.0494405
0.0494414
0.0494334
0.0494446
0.049435
0.0494803
0.0495064
0.0498039
0.0497389
0.0441012
0.0493131
0.0493218
0.0493149
0.0493034
0.0493256
0.0493124
0.049373
0.0494053
0.0497666
0.049769
0.0442917
0.0491229
0.0491159
0.0491324
0.0491182
0.0491275
0.0491088
0.0491819
0.0492169
0.0496733
0.0497722
0.0444245
0.0489063
0.0489035
0.0489184
0.048901
0.0489212
0.0488965
0.0489827
0.0490188
0.0495305
0.0497691
0.0445784
0.04866
0.0486577
0.0486733
0.0486503
0.0486805
0.0486484
0.0487552
0.0487983
0.049363
0.0497589
0.0447787
0.0483856
0.0484014
0.0483734
0.0484102
0.0483741
0.0484971
0.0485378
0.0491999
0.049739
0.0450044
0.0481127
0.0481294
0.048096
0.048137
0.0480995
0.0482369
0.048276
0.0490049
0.0497064
0.045237
0.0478447
0.0478622
0.0478227
0.0478656
0.0478304
0.0479796
0.048018
0.0488039
0.0496624
0.0455046
0.0475853
0.0476037
0.0475565
0.047638
0.0475711
0.0477285
0.0477675
0.0486009
0.0495935
0.0458556
0.0473375
0.0473565
0.0473344
0.0473919
0.0473236
0.0474863
0.047527
0.0483979
0.0495043
0.0463151
0.0471035
0.0471225
0.0470991
0.0471579
0.04709
0.047255
0.0472986
0.0481966
0.0494023
0.046865
0.0468849
0.0469036
0.046879
0.0469379
0.046872
0.0470363
0.047084
0.0479983
0.0492951
0.0474552
0.0466834
0.0467012
0.0466757
0.0467335
0.046671
0.0468318
0.0468846
0.047804
0.0491714
0.0480274
0.0465006
0.0465171
0.0464906
0.0465464
0.0464885
0.0466429
0.0467025
0.0476152
0.0490335
0.0485341
0.0463381
0.0463529
0.0463251
0.0463785
0.0463258
0.0464715
0.0465397
0.0474582
0.048883
0.0489471
0.0461978
0.0462103
0.0461983
0.0462319
0.0461843
0.0463191
0.0463979
0.047301
0.0487282
0.0492576
0.0460814
0.046091
0.0460818
0.0461082
0.0460797
0.0461878
0.0462921
0.04715
0.0485579
0.0494699
0.0460018
0.0460089
0.0460022
0.0460223
0.0460004
0.0460943
0.046209
0.0470125
0.04839
0.0495974
0.0459435
0.0459475
0.0459442
0.0459569
0.0459429
0.0460208
0.0461445
0.0468905
0.0482347
0.0496558
)
;

boundaryField
{
    fuel
    {
        type            fixedValue;
        value           uniform 0;
    }
    wall
    {
        type            zeroGradient;
    }
    outlet
    {
        type            zeroGradient;
    }
    frontAndBack
    {
        type            empty;
    }
    procBoundary3to0
    {
        type            processor;
        value           nonuniform List<scalar> 10(0.0459183 0.045919 0.0459194 0.0459244 0.0459188 0.0459782 0.0461122 0.0468008 0.0480736 0.0496606);
    }
    procBoundary3to2
    {
        type            processor;
        value           nonuniform List<scalar> 
25
(
0.0389233
0.0463489
0.0485303
0.0492483
0.0494526
0.0494383
0.0493104
0.0491241
0.0489076
0.0486605
0.048388
0.048388
0.0481157
0.0478485
0.0475901
0.0473433
0.0471102
0.0468925
0.0466918
0.0465095
0.0463472
0.0462068
0.0460898
0.0460097
0.0459504
)
;
    }
}


// ************************************************************************* //
