/*--------------------------------*- C++ -*----------------------------------*\
| =========                 |                                                 |
| \\      /  F ield         | OpenFOAM: The Open Source CFD Toolbox           |
|  \\    /   O peration     | Version:  dev                                   |
|   \\  /    A nd           | Web:      www.OpenFOAM.org                      |
|    \\/     M anipulation  |                                                 |
\*---------------------------------------------------------------------------*/
FoamFile
{
    version     2.0;
    format      ascii;
    class       volScalarField;
    location    "0.135";
    object      HO2;
}
// * * * * * * * * * * * * * * * * * * * * * * * * * * * * * * * * * * * * * //

dimensions      [0 0 0 0 0 0 0];

internalField   nonuniform List<scalar> 
250
(
4.76791e-06
4.77469e-06
4.76215e-06
4.76227e-06
4.75558e-06
4.75639e-06
4.76427e-06
4.7834e-06
4.84302e-06
6.28989e-06
0.000152828
1.4493e-06
1.45075e-06
1.44831e-06
1.44878e-06
1.44716e-06
1.44791e-06
1.44923e-06
1.45412e-06
1.472e-06
2.17878e-06
0.000108395
4.57175e-07
4.57562e-07
4.56967e-07
4.57362e-07
4.56686e-07
4.57253e-07
4.57271e-07
4.59462e-07
4.64802e-07
7.36821e-07
3.0432e-05
1.56218e-07
1.56339e-07
1.5617e-07
1.56372e-07
1.56071e-07
1.56407e-07
1.56219e-07
1.57575e-07
1.58832e-07
2.56547e-07
7.2798e-06
5.83858e-08
5.8416e-08
5.83757e-08
5.84638e-08
5.83437e-08
5.85189e-08
5.83464e-08
5.92309e-08
5.93231e-08
9.66269e-08
1.85865e-06
2.37873e-08
2.37511e-08
2.37788e-08
2.38216e-08
2.38095e-08
2.39027e-08
2.37274e-08
2.42841e-08
2.39e-08
4.04833e-08
5.37679e-07
1.01792e-08
1.04527e-08
1.01412e-08
1.01295e-08
1.03473e-08
1.03684e-08
1.04114e-08
1.08103e-08
1.02921e-08
1.68171e-08
1.70311e-07
4.565e-09
4.41644e-09
4.58561e-09
4.57594e-09
4.38904e-09
4.4028e-09
4.39935e-09
4.60252e-09
4.69822e-09
8.0256e-09
5.56868e-08
2.12321e-09
2.07949e-09
2.15383e-09
2.14818e-09
2.08277e-09
2.08734e-09
2.07128e-09
2.18178e-09
2.09085e-09
3.64113e-09
1.80432e-08
9.96225e-10
9.85907e-10
1.02057e-09
1.01426e-09
1.00013e-09
9.9411e-10
9.95022e-10
1.07308e-09
9.49611e-10
1.77704e-09
5.73426e-09
4.7156e-10
4.85491e-10
4.81764e-10
4.82438e-10
4.7663e-10
4.77986e-10
5.13984e-10
4.85659e-10
8.88181e-10
1.81861e-09
2.44113e-10
2.49851e-10
2.4737e-10
2.50373e-10
2.4637e-10
2.48704e-10
2.63864e-10
2.51874e-10
4.47321e-10
6.02296e-10
1.42585e-10
1.45099e-10
1.43203e-10
1.44584e-10
1.43302e-10
1.45869e-10
1.51021e-10
1.45311e-10
2.43661e-10
2.31379e-10
9.65206e-11
9.77375e-11
9.57879e-11
1.00444e-10
9.65918e-11
9.89084e-11
9.93973e-11
9.58622e-11
1.35599e-10
1.25936e-10
7.48771e-11
7.55584e-11
7.54932e-11
7.70508e-11
7.47071e-11
7.66935e-11
7.50661e-11
7.2138e-11
8.38862e-11
1.01856e-10
6.39497e-11
6.44011e-11
6.41227e-11
6.53041e-11
6.3705e-11
6.54347e-11
6.28619e-11
6.00279e-11
6.04458e-11
1.008e-10
5.76886e-11
5.80427e-11
5.76685e-11
5.86699e-11
5.74243e-11
5.90059e-11
5.60096e-11
5.31864e-11
5.06584e-11
1.11393e-10
5.34228e-11
5.37402e-11
5.33039e-11
5.42404e-11
5.31492e-11
5.46767e-11
5.14881e-11
4.87552e-11
4.66289e-11
1.41745e-10
4.99688e-11
5.0278e-11
4.97804e-11
5.07206e-11
4.96789e-11
5.12213e-11
4.79513e-11
4.54308e-11
4.63951e-11
2.07895e-10
4.67966e-11
4.71109e-11
4.65335e-11
4.7528e-11
4.64752e-11
4.80814e-11
4.47967e-11
4.29552e-11
4.90987e-11
3.28443e-10
4.36618e-11
4.39869e-11
4.36656e-11
4.43943e-11
4.32834e-11
4.49946e-11
4.1728e-11
4.05536e-11
5.41979e-11
5.2075e-10
4.04419e-11
4.07758e-11
4.04233e-11
4.1177e-11
4.03325e-11
4.18258e-11
3.89365e-11
3.81613e-11
6.21185e-11
7.97064e-10
3.74448e-11
3.7799e-11
3.74087e-11
3.82052e-11
3.72978e-11
3.89086e-11
3.60688e-11
3.57638e-11
7.22746e-11
1.1604e-09
3.40505e-11
3.44292e-11
3.40058e-11
3.48583e-11
3.38803e-11
3.56836e-11
3.28132e-11
3.32938e-11
8.3741e-11
1.59358e-09
)
;

boundaryField
{
    fuel
    {
        type            fixedValue;
        value           uniform 0;
    }
    wall
    {
        type            zeroGradient;
    }
    outlet
    {
        type            zeroGradient;
    }
    frontAndBack
    {
        type            empty;
    }
    procBoundary3to0
    {
        type            processor;
        value           nonuniform List<scalar> 10(3.08183e-11 3.12121e-11 3.07652e-11 3.16443e-11 3.06336e-11 3.25263e-11 2.97243e-11 3.09589e-11 9.40513e-11 1.95103e-09);
    }
    procBoundary3to2
    {
        type            processor;
        value           nonuniform List<scalar> 
25
(
4.76101e-06
1.44683e-06
4.5693e-07
1.56261e-07
5.84307e-08
2.38069e-08
1.01534e-08
4.58034e-09
2.14212e-09
1.00948e-09
4.6946e-10
4.6946e-10
2.41893e-10
1.41387e-10
9.60062e-11
7.4709e-11
6.39387e-11
5.7746e-11
5.35111e-11
5.00731e-11
4.69104e-11
4.37812e-11
4.05633e-11
3.75726e-11
3.41801e-11
)
;
    }
}


// ************************************************************************* //
