/*--------------------------------*- C++ -*----------------------------------*\
| =========                 |                                                 |
| \\      /  F ield         | OpenFOAM: The Open Source CFD Toolbox           |
|  \\    /   O peration     | Version:  dev                                   |
|   \\  /    A nd           | Web:      www.OpenFOAM.org                      |
|    \\/     M anipulation  |                                                 |
\*---------------------------------------------------------------------------*/
FoamFile
{
    version     2.0;
    format      ascii;
    class       volScalarField;
    location    "0.135";
    object      l-C6H6;
}
// * * * * * * * * * * * * * * * * * * * * * * * * * * * * * * * * * * * * * //

dimensions      [0 0 0 0 0 0 0];

internalField   nonuniform List<scalar> 
50
(
2.61326e-22
2.28995e-22
1.99037e-22
1.71722e-22
1.4775e-22
1.25995e-22
1.06623e-22
9.00043e-23
7.52055e-23
6.23311e-23
5.1256e-23
4.20372e-23
3.40404e-23
2.74633e-23
2.19261e-23
1.73885e-23
1.36089e-23
1.05921e-23
8.10642e-24
6.12137e-24
4.60608e-24
3.4266e-24
2.50802e-24
1.81843e-24
1.29915e-24
9.16715e-25
6.38237e-25
4.38987e-25
2.95402e-25
1.96692e-25
1.3124e-25
8.72538e-26
5.82826e-26
3.95661e-26
2.73757e-26
1.99958e-26
1.53729e-26
1.27792e-26
1.14187e-26
1.08886e-26
1.09302e-26
1.13589e-26
1.20183e-26
1.27513e-26
1.33751e-26
1.36487e-26
1.32162e-26
1.15868e-26
8.56643e-27
5.17442e-27
)
;

boundaryField
{
    wall
    {
        type            zeroGradient;
    }
    fuel
    {
        type            fixedValue;
        value           nonuniform 0();
    }
    outlet
    {
        type            inletOutlet;
        inletValue      uniform 0;
        value           uniform 5.17442e-27;
    }
    procBoundary3to2
    {
        type            processor;
        value           uniform 2.97101e-22;
    }
}


// ************************************************************************* //
