/*--------------------------------*- C++ -*----------------------------------*\
| =========                 |                                                 |
| \\      /  F ield         | OpenFOAM: The Open Source CFD Toolbox           |
|  \\    /   O peration     | Version:  dev                                   |
|   \\  /    A nd           | Web:      www.OpenFOAM.org                      |
|    \\/     M anipulation  |                                                 |
\*---------------------------------------------------------------------------*/
FoamFile
{
    version     2.0;
    format      ascii;
    class       surfaceScalarField;
    location    "0.135";
    object      phi;
}
// * * * * * * * * * * * * * * * * * * * * * * * * * * * * * * * * * * * * * //

dimensions      [1 0 -1 0 0 0 0];

internalField   nonuniform List<scalar> 
49
(
6.10381e-05
6.13939e-05
6.17661e-05
6.21945e-05
6.25961e-05
6.30384e-05
6.35384e-05
6.40014e-05
6.45042e-05
6.50502e-05
6.56516e-05
6.6208e-05
6.68541e-05
6.74857e-05
6.81878e-05
6.88747e-05
6.96351e-05
7.03507e-05
7.11692e-05
7.21113e-05
7.30265e-05
7.39403e-05
7.50115e-05
7.61494e-05
7.72274e-05
7.84786e-05
7.98503e-05
8.13501e-05
8.34597e-05
8.47778e-05
8.64742e-05
8.84219e-05
9.05868e-05
9.28972e-05
9.57486e-05
9.8624e-05
0.000102186
0.000105974
0.00011024
0.000115162
0.000120892
0.000127597
0.000135455
0.000144644
0.000155308
0.000167689
0.000183115
0.000208156
0.000271568
)
;

boundaryField
{
    wall
    {
        type            calculated;
        value           nonuniform List<scalar> 
200
(
-3.29496e-19
-3.36241e-19
-3.41844e-19
-3.47426e-19
-3.51669e-19
-3.56238e-19
-3.61016e-19
-3.65992e-19
-3.71272e-19
-3.76842e-19
-3.82692e-19
-3.88791e-19
-3.95311e-19
-4.02099e-19
-4.09237e-19
-4.16707e-19
-4.24605e-19
-4.32849e-19
-4.41943e-19
-4.50286e-19
-4.57557e-19
-4.63774e-19
-4.70645e-19
-4.77769e-19
-4.85325e-19
-4.93344e-19
-5.01984e-19
-5.09869e-19
-5.15521e-19
-5.19886e-19
-5.24362e-19
-5.29152e-19
-5.34149e-19
-5.3931e-19
-5.4512e-19
-5.5067e-19
-5.55138e-19
-5.55629e-19
-5.53446e-19
-5.50393e-19
-5.45683e-19
-5.3944e-19
-5.31285e-19
-5.20549e-19
-5.04321e-19
-4.72758e-19
-4.2808e-19
-3.63155e-19
-2.80207e-19
-1.84767e-19
3.29496e-19
3.36241e-19
3.41844e-19
3.47426e-19
3.51669e-19
3.56238e-19
3.61016e-19
3.65992e-19
3.71272e-19
3.76842e-19
3.82692e-19
3.88791e-19
3.95311e-19
4.02099e-19
4.09237e-19
4.16707e-19
4.24605e-19
4.32849e-19
4.41943e-19
4.50286e-19
4.57557e-19
4.63774e-19
4.70645e-19
4.77769e-19
4.85325e-19
4.93344e-19
5.01984e-19
5.09869e-19
5.15521e-19
5.19886e-19
5.24362e-19
5.29152e-19
5.34149e-19
5.3931e-19
5.4512e-19
5.5067e-19
5.55138e-19
5.55629e-19
5.53446e-19
5.50393e-19
5.45683e-19
5.3944e-19
5.31285e-19
5.20549e-19
5.04321e-19
4.72758e-19
4.2808e-19
3.63155e-19
2.80207e-19
1.84767e-19
-3.29496e-19
-3.36241e-19
-3.41844e-19
-3.47426e-19
-3.51669e-19
-3.56238e-19
-3.61016e-19
-3.65992e-19
-3.71272e-19
-3.76842e-19
-3.82692e-19
-3.88791e-19
-3.95311e-19
-4.02099e-19
-4.09237e-19
-4.16707e-19
-4.24605e-19
-4.32849e-19
-4.41943e-19
-4.50286e-19
-4.57557e-19
-4.63774e-19
-4.70645e-19
-4.77769e-19
-4.85325e-19
-4.93344e-19
-5.01984e-19
-5.09869e-19
-5.15521e-19
-5.19886e-19
-5.24362e-19
-5.29152e-19
-5.34149e-19
-5.3931e-19
-5.4512e-19
-5.5067e-19
-5.55138e-19
-5.55629e-19
-5.53446e-19
-5.50393e-19
-5.45683e-19
-5.3944e-19
-5.31285e-19
-5.20549e-19
-5.04321e-19
-4.72758e-19
-4.2808e-19
-3.63155e-19
-2.80207e-19
-1.84767e-19
3.29496e-19
3.36241e-19
3.41844e-19
3.47426e-19
3.51669e-19
3.56238e-19
3.61016e-19
3.65992e-19
3.71272e-19
3.76842e-19
3.82692e-19
3.88791e-19
3.95311e-19
4.02099e-19
4.09237e-19
4.16707e-19
4.24605e-19
4.32849e-19
4.41943e-19
4.50286e-19
4.57557e-19
4.63774e-19
4.70645e-19
4.77769e-19
4.85325e-19
4.93344e-19
5.01984e-19
5.09869e-19
5.15521e-19
5.19886e-19
5.24362e-19
5.29152e-19
5.34149e-19
5.3931e-19
5.4512e-19
5.5067e-19
5.55138e-19
5.55629e-19
5.53446e-19
5.50393e-19
5.45683e-19
5.3944e-19
5.31285e-19
5.20549e-19
5.04321e-19
4.72758e-19
4.2808e-19
3.63155e-19
2.80207e-19
1.84767e-19
)
;
    }
    fuel
    {
        type            calculated;
        value           nonuniform 0();
    }
    outlet
    {
        type            calculated;
        value           uniform 0.000462007;
    }
    procBoundary3to2
    {
        type            processor;
        value           uniform -6.06827e-05;
    }
}


// ************************************************************************* //
