/*--------------------------------*- C++ -*----------------------------------*\
| =========                 |                                                 |
| \\      /  F ield         | OpenFOAM: The Open Source CFD Toolbox           |
|  \\    /   O peration     | Version:  dev                                   |
|   \\  /    A nd           | Web:      www.OpenFOAM.org                      |
|    \\/     M anipulation  |                                                 |
\*---------------------------------------------------------------------------*/
FoamFile
{
    version     2.0;
    format      ascii;
    class       volScalarField;
    location    "0.1";
    object      A2-2;
}
// * * * * * * * * * * * * * * * * * * * * * * * * * * * * * * * * * * * * * //

dimensions      [0 0 0 0 0 0 0];

internalField   nonuniform List<scalar> 
25
(
6.579e-15
7.1549e-15
8.13914e-15
8.64164e-15
8.03747e-15
6.66329e-15
5.18902e-15
4.01366e-15
3.18191e-15
2.62593e-15
2.2678e-15
2.04846e-15
1.93308e-15
1.90785e-15
1.97729e-15
2.16671e-15
2.52753e-15
3.14508e-15
4.14542e-15
5.69598e-15
7.99353e-15
1.1236e-14
1.55773e-14
2.10852e-14
2.77027e-14
)
;

boundaryField
{
    wall
    {
        type            zeroGradient;
    }
    fuel
    {
        type            fixedValue;
        value           uniform 0;
    }
    outlet
    {
        type            inletOutlet;
        inletValue      nonuniform 0();
        value           nonuniform 0();
    }
    procBoundary0to1
    {
        type            processor;
        value           uniform 3.52364e-14;
    }
}


// ************************************************************************* //
