/*--------------------------------*- C++ -*----------------------------------*\
| =========                 |                                                 |
| \\      /  F ield         | OpenFOAM: The Open Source CFD Toolbox           |
|  \\    /   O peration     | Version:  dev                                   |
|   \\  /    A nd           | Web:      www.OpenFOAM.org                      |
|    \\/     M anipulation  |                                                 |
\*---------------------------------------------------------------------------*/
FoamFile
{
    version     2.0;
    format      ascii;
    class       volScalarField;
    location    "0.1";
    object      A2-2;
}
// * * * * * * * * * * * * * * * * * * * * * * * * * * * * * * * * * * * * * //

dimensions      [0 0 0 0 0 0 0];

internalField   nonuniform List<scalar> 
25
(
4.0415e-11
1.12819e-11
2.99389e-12
7.96567e-13
2.11608e-13
5.89138e-14
1.75714e-14
6.16427e-15
2.79758e-15
1.61515e-15
1.11678e-15
8.44516e-16
6.69542e-16
5.42509e-16
4.43167e-16
3.62211e-16
2.94978e-16
2.38874e-16
1.92219e-16
1.53726e-16
1.2228e-16
9.68598e-17
7.65194e-17
6.03817e-17
4.76275e-17
)
;

boundaryField
{
    wall
    {
        type            zeroGradient;
    }
    fuel
    {
        type            fixedValue;
        value           uniform 0;
    }
    outlet
    {
        type            inletOutlet;
        inletValue      nonuniform 0();
        value           nonuniform 0();
    }
    procBoundary0to1
    {
        type            processor;
        value           uniform 3.77708e-17;
    }
}


// ************************************************************************* //
