/*--------------------------------*- C++ -*----------------------------------*\
| =========                 |                                                 |
| \\      /  F ield         | OpenFOAM: The Open Source CFD Toolbox           |
|  \\    /   O peration     | Version:  dev                                   |
|   \\  /    A nd           | Web:      www.OpenFOAM.org                      |
|    \\/     M anipulation  |                                                 |
\*---------------------------------------------------------------------------*/
FoamFile
{
    version     2.0;
    format      ascii;
    class       volScalarField;
    location    "0.1";
    object      A2C2H22;
}
// * * * * * * * * * * * * * * * * * * * * * * * * * * * * * * * * * * * * * //

dimensions      [0 0 0 0 0 0 0];

internalField   nonuniform List<scalar> 
25
(
2.62744e-14
6.87831e-15
1.84039e-15
5.06631e-16
1.41651e-16
4.20678e-17
1.32537e-17
4.62915e-18
1.86457e-18
8.48308e-19
4.39204e-19
2.4866e-19
1.52598e-19
9.97674e-20
6.83269e-20
4.82647e-20
3.47199e-20
2.5197e-20
1.83293e-20
1.33102e-20
9.62518e-21
6.92307e-21
4.95164e-21
3.52337e-21
2.49618e-21
)
;

boundaryField
{
    wall
    {
        type            zeroGradient;
    }
    fuel
    {
        type            fixedValue;
        value           uniform 0;
    }
    outlet
    {
        type            inletOutlet;
        inletValue      nonuniform 0();
        value           nonuniform 0();
    }
    procBoundary0to1
    {
        type            processor;
        value           uniform 1.77072e-21;
    }
}


// ************************************************************************* //
