/*--------------------------------*- C++ -*----------------------------------*\
| =========                 |                                                 |
| \\      /  F ield         | OpenFOAM: The Open Source CFD Toolbox           |
|  \\    /   O peration     | Version:  dev                                   |
|   \\  /    A nd           | Web:      www.OpenFOAM.org                      |
|    \\/     M anipulation  |                                                 |
\*---------------------------------------------------------------------------*/
FoamFile
{
    version     2.0;
    format      ascii;
    class       volScalarField;
    location    "0.1";
    object      i-C6H7;
}
// * * * * * * * * * * * * * * * * * * * * * * * * * * * * * * * * * * * * * //

dimensions      [0 0 0 0 0 0 0];

internalField   nonuniform List<scalar> 
25
(
4.28541e-16
1.27705e-15
1.73475e-15
1.81532e-15
1.59618e-15
1.22377e-15
8.47897e-16
5.52443e-16
3.46005e-16
2.0956e-16
1.29722e-16
7.89433e-17
5.10459e-17
3.44819e-17
2.43415e-17
1.80877e-17
1.42462e-17
1.19144e-17
1.05231e-17
9.70313e-18
9.20881e-18
8.87521e-18
8.59347e-18
8.29629e-18
7.94769e-18
)
;

boundaryField
{
    wall
    {
        type            zeroGradient;
    }
    fuel
    {
        type            fixedValue;
        value           uniform 0;
    }
    outlet
    {
        type            inletOutlet;
        inletValue      nonuniform 0();
        value           nonuniform 0();
    }
    procBoundary0to1
    {
        type            processor;
        value           uniform 7.53424e-18;
    }
}


// ************************************************************************* //
