/*--------------------------------*- C++ -*----------------------------------*\
| =========                 |                                                 |
| \\      /  F ield         | OpenFOAM: The Open Source CFD Toolbox           |
|  \\    /   O peration     | Version:  dev                                   |
|   \\  /    A nd           | Web:      www.OpenFOAM.org                      |
|    \\/     M anipulation  |                                                 |
\*---------------------------------------------------------------------------*/
FoamFile
{
    version     2.0;
    format      ascii;
    class       volScalarField;
    location    "0.08";
    object      A1-;
}
// * * * * * * * * * * * * * * * * * * * * * * * * * * * * * * * * * * * * * //

dimensions      [0 0 0 0 0 0 0];

internalField   nonuniform List<scalar> 
25
(
4.02928e-11
3.61719e-11
3.23538e-11
2.87976e-11
2.55033e-11
2.24836e-11
1.97776e-11
1.73098e-11
1.5046e-11
1.3052e-11
1.12666e-11
9.6773e-12
8.26696e-12
7.02019e-12
5.92969e-12
4.98205e-12
4.15756e-12
3.45671e-12
2.86179e-12
2.35292e-12
1.93435e-12
1.58712e-12
1.30139e-12
1.06795e-12
8.78474e-13
)
;

boundaryField
{
    wall
    {
        type            zeroGradient;
    }
    fuel
    {
        type            fixedValue;
        value           nonuniform 0();
    }
    outlet
    {
        type            inletOutlet;
        inletValue      nonuniform 0();
        value           nonuniform 0();
    }
    procBoundary2to1
    {
        type            processor;
        value           uniform 4.47122e-11;
    }
    procBoundary2to3
    {
        type            processor;
        value           uniform 7.24888e-13;
    }
}


// ************************************************************************* //
