/*--------------------------------*- C++ -*----------------------------------*\
| =========                 |                                                 |
| \\      /  F ield         | OpenFOAM: The Open Source CFD Toolbox           |
|  \\    /   O peration     | Version:  dev                                   |
|   \\  /    A nd           | Web:      www.OpenFOAM.org                      |
|    \\/     M anipulation  |                                                 |
\*---------------------------------------------------------------------------*/
FoamFile
{
    version     2.0;
    format      ascii;
    class       volScalarField;
    location    "0.08";
    object      A2C2HA*;
}
// * * * * * * * * * * * * * * * * * * * * * * * * * * * * * * * * * * * * * //

dimensions      [0 0 0 0 0 0 0];

internalField   nonuniform List<scalar> 
25
(
3.38443e-18
2.7426e-18
2.21202e-18
1.77268e-18
1.41223e-18
1.12048e-18
8.89967e-19
7.04677e-19
5.54915e-19
4.38568e-19
3.4639e-19
2.735e-19
2.1583e-19
1.70083e-19
1.33926e-19
1.05321e-19
8.24727e-20
6.44972e-20
5.02662e-20
3.88385e-20
2.99554e-20
2.29595e-20
1.74776e-20
1.3208e-20
9.90678e-21
)
;

boundaryField
{
    wall
    {
        type            zeroGradient;
    }
    fuel
    {
        type            fixedValue;
        value           nonuniform 0();
    }
    outlet
    {
        type            inletOutlet;
        inletValue      nonuniform 0();
        value           nonuniform 0();
    }
    procBoundary2to1
    {
        type            processor;
        value           uniform 4.15258e-18;
    }
    procBoundary2to3
    {
        type            processor;
        value           uniform 7.36928e-21;
    }
}


// ************************************************************************* //
