/*--------------------------------*- C++ -*----------------------------------*\
| =========                 |                                                 |
| \\      /  F ield         | OpenFOAM: The Open Source CFD Toolbox           |
|  \\    /   O peration     | Version:  dev                                   |
|   \\  /    A nd           | Web:      www.OpenFOAM.org                      |
|    \\/     M anipulation  |                                                 |
\*---------------------------------------------------------------------------*/
FoamFile
{
    version     2.0;
    format      ascii;
    class       volScalarField;
    location    "0.08";
    object      A2C2HB;
}
// * * * * * * * * * * * * * * * * * * * * * * * * * * * * * * * * * * * * * //

dimensions      [0 0 0 0 0 0 0];

internalField   nonuniform List<scalar> 
25
(
6.97321e-17
7.93135e-17
8.92404e-17
9.96584e-17
1.10024e-16
1.19721e-16
1.29136e-16
1.3816e-16
1.46734e-16
1.54847e-16
1.62523e-16
1.69823e-16
1.76831e-16
1.83648e-16
1.90381e-16
1.97134e-16
2.04e-16
2.11073e-16
2.18459e-16
2.26217e-16
2.3428e-16
2.42458e-16
2.50838e-16
2.59393e-16
2.68089e-16
)
;

boundaryField
{
    wall
    {
        type            zeroGradient;
    }
    fuel
    {
        type            fixedValue;
        value           nonuniform 0();
    }
    outlet
    {
        type            inletOutlet;
        inletValue      nonuniform 0();
        value           nonuniform 0();
    }
    procBoundary2to1
    {
        type            processor;
        value           uniform 6.05811e-17;
    }
    procBoundary2to3
    {
        type            processor;
        value           uniform 2.76791e-16;
    }
}


// ************************************************************************* //
