/*--------------------------------*- C++ -*----------------------------------*\
| =========                 |                                                 |
| \\      /  F ield         | OpenFOAM: The Open Source CFD Toolbox           |
|  \\    /   O peration     | Version:  dev                                   |
|   \\  /    A nd           | Web:      www.OpenFOAM.org                      |
|    \\/     M anipulation  |                                                 |
\*---------------------------------------------------------------------------*/
FoamFile
{
    version     2.0;
    format      ascii;
    class       volScalarField;
    location    "0.08";
    object      A2C2HA*;
}
// * * * * * * * * * * * * * * * * * * * * * * * * * * * * * * * * * * * * * //

dimensions      [0 0 0 0 0 0 0];

internalField   nonuniform List<scalar> 
25
(
2.41594e-18
2.56449e-18
2.70448e-18
2.83595e-18
2.95e-18
3.03988e-18
3.11025e-18
3.15955e-18
3.18671e-18
3.19104e-18
3.17227e-18
3.1305e-18
3.06624e-18
2.98035e-18
2.87403e-18
2.74876e-18
2.60625e-18
2.44824e-18
2.27638e-18
2.09316e-18
1.90186e-18
1.70964e-18
1.5169e-18
1.32647e-18
1.14137e-18
)
;

boundaryField
{
    wall
    {
        type            zeroGradient;
    }
    fuel
    {
        type            fixedValue;
        value           nonuniform 0();
    }
    outlet
    {
        type            inletOutlet;
        inletValue      nonuniform 0();
        value           nonuniform 0();
    }
    procBoundary2to1
    {
        type            processor;
        value           uniform 2.25982e-18;
    }
    procBoundary2to3
    {
        type            processor;
        value           uniform 9.61634e-19;
    }
}


// ************************************************************************* //
