/*--------------------------------*- C++ -*----------------------------------*\
| =========                 |                                                 |
| \\      /  F ield         | OpenFOAM: The Open Source CFD Toolbox           |
|  \\    /   O peration     | Version:  dev                                   |
|   \\  /    A nd           | Web:      www.OpenFOAM.org                      |
|    \\/     M anipulation  |                                                 |
\*---------------------------------------------------------------------------*/
FoamFile
{
    version     2.0;
    format      ascii;
    class       volScalarField;
    location    "0.08";
    object      C5H5O;
}
// * * * * * * * * * * * * * * * * * * * * * * * * * * * * * * * * * * * * * //

dimensions      [0 0 0 0 0 0 0];

internalField   nonuniform List<scalar> 
25
(
6.22419e-16
8.51909e-16
1.1602e-15
1.57609e-15
2.13454e-15
2.87723e-15
3.84211e-15
5.11845e-15
6.82028e-15
8.99754e-15
1.18242e-14
1.54643e-14
2.00986e-14
2.59407e-14
3.32124e-14
4.21285e-14
5.29715e-14
6.57271e-14
8.05638e-14
9.77961e-14
1.16824e-13
1.3777e-13
1.60371e-13
1.84288e-13
2.09119e-13
)
;

boundaryField
{
    wall
    {
        type            zeroGradient;
    }
    fuel
    {
        type            fixedValue;
        value           nonuniform 0();
    }
    outlet
    {
        type            inletOutlet;
        inletValue      nonuniform 0();
        value           nonuniform 0();
    }
    procBoundary2to1
    {
        type            processor;
        value           uniform 4.52616e-16;
    }
    procBoundary2to3
    {
        type            processor;
        value           uniform 2.34427e-13;
    }
}


// ************************************************************************* //
