/*--------------------------------*- C++ -*----------------------------------*\
| =========                 |                                                 |
| \\      /  F ield         | OpenFOAM: The Open Source CFD Toolbox           |
|  \\    /   O peration     | Version:  dev                                   |
|   \\  /    A nd           | Web:      www.OpenFOAM.org                      |
|    \\/     M anipulation  |                                                 |
\*---------------------------------------------------------------------------*/
FoamFile
{
    version     2.0;
    format      ascii;
    class       volScalarField;
    location    "0.08";
    object      H2C4O;
}
// * * * * * * * * * * * * * * * * * * * * * * * * * * * * * * * * * * * * * //

dimensions      [0 0 0 0 0 0 0];

internalField   nonuniform List<scalar> 
25
(
1.04224e-10
8.60684e-11
7.08694e-11
5.81333e-11
4.75621e-11
3.8907e-11
3.19929e-11
2.63731e-11
2.17803e-11
1.81786e-11
1.53039e-11
1.30203e-11
1.12092e-11
9.77211e-12
8.64534e-12
7.76616e-12
7.07872e-12
6.55276e-12
6.15038e-12
5.83973e-12
5.60837e-12
5.43325e-12
5.29964e-12
5.19532e-12
5.11019e-12
)
;

boundaryField
{
    wall
    {
        type            zeroGradient;
    }
    fuel
    {
        type            fixedValue;
        value           nonuniform 0();
    }
    outlet
    {
        type            inletOutlet;
        inletValue      nonuniform 0();
        value           nonuniform 0();
    }
    procBoundary2to1
    {
        type            processor;
        value           uniform 1.25613e-10;
    }
    procBoundary2to3
    {
        type            processor;
        value           uniform 5.03601e-12;
    }
}


// ************************************************************************* //
