/*--------------------------------*- C++ -*----------------------------------*\
| =========                 |                                                 |
| \\      /  F ield         | OpenFOAM: The Open Source CFD Toolbox           |
|  \\    /   O peration     | Version:  dev                                   |
|   \\  /    A nd           | Web:      www.OpenFOAM.org                      |
|    \\/     M anipulation  |                                                 |
\*---------------------------------------------------------------------------*/
FoamFile
{
    version     2.0;
    format      ascii;
    class       volScalarField;
    location    "0.08";
    object      H2O;
}
// * * * * * * * * * * * * * * * * * * * * * * * * * * * * * * * * * * * * * //

dimensions      [0 0 0 0 0 0 0];

internalField   nonuniform List<scalar> 
25
(
0.0402614
0.0398257
0.0393801
0.0389081
0.0384253
0.0379543
0.037472
0.0369798
0.0364782
0.0359674
0.0354478
0.0349196
0.0343832
0.0338392
0.0332879
0.0327299
0.0321651
0.0315924
0.0310079
0.0304092
0.0298012
0.029196
0.0285827
0.0279581
0.0273212
)
;

boundaryField
{
    wall
    {
        type            zeroGradient;
    }
    fuel
    {
        type            fixedValue;
        value           nonuniform 0();
    }
    outlet
    {
        type            inletOutlet;
        inletValue      nonuniform 0();
        value           nonuniform 0();
    }
    procBoundary2to1
    {
        type            processor;
        value           uniform 0.0406853;
    }
    procBoundary2to3
    {
        type            processor;
        value           uniform 0.0266584;
    }
}


// ************************************************************************* //
