/*--------------------------------*- C++ -*----------------------------------*\
| =========                 |                                                 |
| \\      /  F ield         | OpenFOAM: The Open Source CFD Toolbox           |
|  \\    /   O peration     | Version:  dev                                   |
|   \\  /    A nd           | Web:      www.OpenFOAM.org                      |
|    \\/     M anipulation  |                                                 |
\*---------------------------------------------------------------------------*/
FoamFile
{
    version     2.0;
    format      ascii;
    class       volScalarField;
    location    "0.08";
    object      P2-H;
}
// * * * * * * * * * * * * * * * * * * * * * * * * * * * * * * * * * * * * * //

dimensions      [0 0 0 0 0 0 0];

internalField   nonuniform List<scalar> 
25
(
1.97267e-22
2.07439e-22
2.18938e-22
2.31997e-22
2.46755e-22
2.63252e-22
2.81251e-22
3.01125e-22
3.23115e-22
3.46467e-22
3.7153e-22
3.9816e-22
4.26123e-22
4.55159e-22
4.85061e-22
5.15468e-22
5.46393e-22
5.7726e-22
6.08122e-22
6.3935e-22
6.70493e-22
7.02308e-22
7.35336e-22
7.70368e-22
8.08424e-22
)
;

boundaryField
{
    wall
    {
        type            zeroGradient;
    }
    fuel
    {
        type            fixedValue;
        value           nonuniform 0();
    }
    outlet
    {
        type            inletOutlet;
        inletValue      nonuniform 0();
        value           nonuniform 0();
    }
    procBoundary2to1
    {
        type            processor;
        value           uniform 1.88185e-22;
    }
    procBoundary2to3
    {
        type            processor;
        value           uniform 8.50884e-22;
    }
}


// ************************************************************************* //
