/*--------------------------------*- C++ -*----------------------------------*\
| =========                 |                                                 |
| \\      /  F ield         | OpenFOAM: The Open Source CFD Toolbox           |
|  \\    /   O peration     | Version:  dev                                   |
|   \\  /    A nd           | Web:      www.OpenFOAM.org                      |
|    \\/     M anipulation  |                                                 |
\*---------------------------------------------------------------------------*/
FoamFile
{
    version     2.0;
    format      ascii;
    class       volScalarField;
    location    "0.055";
    object      A1C2H*;
}
// * * * * * * * * * * * * * * * * * * * * * * * * * * * * * * * * * * * * * //

dimensions      [0 0 0 0 0 0 0];

internalField   nonuniform List<scalar> 
25
(
6.11363e-16
7.23859e-16
8.62391e-16
1.02895e-15
1.22563e-15
1.4548e-15
1.72028e-15
2.032e-15
2.39177e-15
2.80388e-15
3.27062e-15
3.79424e-15
4.37927e-15
5.03445e-15
5.77551e-15
6.63015e-15
7.64535e-15
8.89627e-15
1.04929e-14
1.25461e-14
1.52969e-14
1.92402e-14
2.46593e-14
3.1755e-14
4.09458e-14
)
;

boundaryField
{
    wall
    {
        type            zeroGradient;
    }
    fuel
    {
        type            fixedValue;
        value           nonuniform 0();
    }
    outlet
    {
        type            inletOutlet;
        inletValue      nonuniform 0();
        value           nonuniform 0();
    }
    procBoundary1to0
    {
        type            processor;
        value           uniform 5.23411e-16;
    }
    procBoundary1to2
    {
        type            processor;
        value           uniform 5.27509e-14;
    }
}


// ************************************************************************* //
