/*--------------------------------*- C++ -*----------------------------------*\
| =========                 |                                                 |
| \\      /  F ield         | OpenFOAM: The Open Source CFD Toolbox           |
|  \\    /   O peration     | Version:  dev                                   |
|   \\  /    A nd           | Web:      www.OpenFOAM.org                      |
|    \\/     M anipulation  |                                                 |
\*---------------------------------------------------------------------------*/
FoamFile
{
    version     2.0;
    format      ascii;
    class       volScalarField;
    location    "0.055";
    object      A1C2H-;
}
// * * * * * * * * * * * * * * * * * * * * * * * * * * * * * * * * * * * * * //

dimensions      [0 0 0 0 0 0 0];

internalField   nonuniform List<scalar> 
250
(
1.56554e-09
1.29632e-09
1.1508e-09
1.0678e-09
1.02264e-09
1.0087e-09
1.00881e-09
9.96901e-10
1.0065e-09
9.96667e-10
1.17149e-09
9.82814e-10
8.85439e-10
8.23951e-10
7.88769e-10
7.7765e-10
7.78252e-10
7.67908e-10
7.76369e-10
7.67659e-10
7.65125e-10
7.78335e-10
7.62469e-10
7.90085e-10
7.62225e-10
8.33497e-10
7.72688e-10
1.01261e-09
8.85124e-10
1.86877e-09
8.50161e-10
7.20638e-10
6.57056e-10
6.13077e-10
5.86592e-10
5.78135e-10
5.79003e-10
5.70466e-10
5.77548e-10
5.70239e-10
5.68171e-10
5.79142e-10
5.65993e-10
5.88554e-10
5.6562e-10
6.22596e-10
5.71689e-10
7.58301e-10
6.43932e-10
1.29666e-09
5.96139e-10
5.09514e-10
4.68911e-10
4.38676e-10
4.19699e-10
4.13451e-10
4.14406e-10
4.07697e-10
4.1334e-10
4.07514e-10
4.05899e-10
4.1457e-10
4.04187e-10
4.21713e-10
4.03771e-10
4.46988e-10
4.06665e-10
5.4552e-10
4.5233e-10
8.74693e-10
4.01384e-10
3.44601e-10
3.19867e-10
2.98355e-10
2.84835e-10
2.80386e-10
2.81231e-10
2.76153e-10
2.80508e-10
2.75957e-10
2.74787e-10
2.81328e-10
2.736e-10
2.86446e-10
2.73423e-10
3.04823e-10
2.76264e-10
3.74899e-10
3.0345e-10
5.70777e-10
2.56634e-10
2.21035e-10
2.06241e-10
1.92435e-10
1.8352e-10
1.80524e-10
1.81239e-10
1.7764e-10
1.80776e-10
1.77492e-10
1.76674e-10
1.81328e-10
1.75847e-10
1.84778e-10
1.75707e-10
1.97022e-10
1.77133e-10
2.43517e-10
1.93421e-10
3.56989e-10
1.52888e-10
1.31648e-10
1.23299e-10
1.14958e-10
1.09466e-10
1.07576e-10
1.08122e-10
1.05748e-10
1.07851e-10
1.05647e-10
1.05113e-10
1.08197e-10
1.04576e-10
1.10356e-10
1.04472e-10
1.17948e-10
1.0511e-10
1.46775e-10
1.14384e-10
2.07657e-10
8.23394e-11
7.0665e-11
6.63504e-11
6.175e-11
5.86957e-11
5.76125e-11
5.79796e-11
5.65695e-11
5.78398e-11
5.65082e-11
5.61944e-11
5.80365e-11
5.5878e-11
5.92537e-11
5.58072e-11
6.35043e-11
5.60487e-11
7.97126e-11
6.09143e-11
1.11014e-10
3.85559e-11
3.29968e-11
3.10673e-11
2.88844e-11
2.74416e-11
2.69118e-11
2.71155e-11
2.64082e-11
2.70549e-11
2.63777e-11
2.62219e-11
2.71502e-11
2.60639e-11
2.77309e-11
2.60244e-11
2.97523e-11
2.60997e-11
3.75485e-11
2.83216e-11
5.1758e-11
1.62791e-11
1.42062e-11
1.34917e-11
1.26877e-11
1.21589e-11
1.19627e-11
1.20396e-11
1.17765e-11
1.20192e-11
1.17636e-11
1.17074e-11
1.20514e-11
1.16507e-11
1.22572e-11
1.16411e-11
1.29807e-11
1.16816e-11
1.58502e-11
1.25319e-11
2.09711e-11
1.02396e-11
9.51934e-12
9.17395e-12
8.89871e-12
8.69077e-12
8.62753e-12
8.63911e-12
8.55671e-12
8.63368e-12
8.54572e-12
8.53208e-12
8.63512e-12
8.5218e-12
8.69098e-12
8.53684e-12
8.90444e-12
8.60776e-12
9.79181e-12
9.04997e-12
1.13635e-11
1.19943e-11
1.10984e-11
1.06335e-11
1.02841e-11
9.99871e-12
9.91324e-12
9.92981e-12
9.81208e-12
9.92901e-12
9.79078e-12
9.774e-12
9.92537e-12
9.76491e-12
9.99e-12
9.79271e-12
1.02468e-11
9.90158e-12
1.12929e-11
1.05222e-11
1.29779e-11
1.03681e-11
9.3066e-12
8.79576e-12
8.40444e-12
8.08408e-12
7.98538e-12
8.01132e-12
7.86945e-12
8.0155e-12
7.84333e-12
7.82372e-12
8.00954e-12
7.81496e-12
8.07567e-12
7.84917e-12
8.35042e-12
7.96909e-12
9.53819e-12
8.6467e-12
1.15192e-11
)
;

boundaryField
{
    fuel
    {
        type            fixedValue;
        value           nonuniform 0();
    }
    wall
    {
        type            zeroGradient;
    }
    outlet
    {
        type            zeroGradient;
    }
    frontAndBack
    {
        type            empty;
    }
    procBoundary1to0
    {
        type            processor;
        value           nonuniform List<scalar> 
21
(
2.03484e-09
1.65708e-09
1.4451e-09
1.33595e-09
1.28006e-09
1.26326e-09
1.26268e-09
1.24968e-09
1.26e-09
1.24954e-09
9.93692e-10
9.93692e-10
1.00887e-09
9.90546e-10
1.02288e-09
9.90463e-10
1.07573e-09
1.00683e-09
1.30362e-09
1.17834e-09
2.62862e-09
)
;
    }
}


// ************************************************************************* //
