/*--------------------------------*- C++ -*----------------------------------*\
| =========                 |                                                 |
| \\      /  F ield         | OpenFOAM: The Open Source CFD Toolbox           |
|  \\    /   O peration     | Version:  dev                                   |
|   \\  /    A nd           | Web:      www.OpenFOAM.org                      |
|    \\/     M anipulation  |                                                 |
\*---------------------------------------------------------------------------*/
FoamFile
{
    version     2.0;
    format      ascii;
    class       volScalarField;
    location    "0.055";
    object      A2;
}
// * * * * * * * * * * * * * * * * * * * * * * * * * * * * * * * * * * * * * //

dimensions      [0 0 0 0 0 0 0];

internalField   nonuniform List<scalar> 
25
(
2.83127e-15
3.69486e-15
4.86427e-15
6.42968e-15
8.50669e-15
1.1246e-14
1.48577e-14
1.97057e-14
2.61488e-14
3.47041e-14
4.60103e-14
6.08738e-14
8.03491e-14
1.05841e-13
1.3925e-13
1.83217e-13
2.41521e-13
3.19708e-13
4.25886e-13
5.69195e-13
7.69741e-13
1.07275e-12
1.52359e-12
2.18314e-12
3.1633e-12
)
;

boundaryField
{
    wall
    {
        type            zeroGradient;
    }
    fuel
    {
        type            fixedValue;
        value           nonuniform 0();
    }
    outlet
    {
        type            inletOutlet;
        inletValue      nonuniform 0();
        value           nonuniform 0();
    }
    procBoundary1to0
    {
        type            processor;
        value           uniform 2.20366e-15;
    }
    procBoundary1to2
    {
        type            processor;
        value           uniform 4.60967e-12;
    }
}


// ************************************************************************* //
