/*--------------------------------*- C++ -*----------------------------------*\
| =========                 |                                                 |
| \\      /  F ield         | OpenFOAM: The Open Source CFD Toolbox           |
|  \\    /   O peration     | Version:  dev                                   |
|   \\  /    A nd           | Web:      www.OpenFOAM.org                      |
|    \\/     M anipulation  |                                                 |
\*---------------------------------------------------------------------------*/
FoamFile
{
    version     2.0;
    format      ascii;
    class       volScalarField;
    location    "0.055";
    object      A4-;
}
// * * * * * * * * * * * * * * * * * * * * * * * * * * * * * * * * * * * * * //

dimensions      [0 0 0 0 0 0 0];

internalField   nonuniform List<scalar> 
25
(
3.85523e-15
4.67839e-15
5.68539e-15
6.88919e-15
8.30202e-15
9.93661e-15
1.1814e-14
1.39987e-14
1.64933e-14
1.93161e-14
2.24656e-14
2.59308e-14
2.97019e-14
3.37714e-14
3.81308e-14
4.27698e-14
4.76745e-14
5.28225e-14
5.81616e-14
6.34739e-14
6.87698e-14
7.43374e-14
7.9951e-14
8.53894e-14
9.06623e-14
)
;

boundaryField
{
    wall
    {
        type            zeroGradient;
    }
    fuel
    {
        type            fixedValue;
        value           nonuniform 0();
    }
    outlet
    {
        type            inletOutlet;
        inletValue      nonuniform 0();
        value           nonuniform 0();
    }
    procBoundary1to0
    {
        type            processor;
        value           uniform 3.20465e-15;
    }
    procBoundary1to2
    {
        type            processor;
        value           uniform 9.57259e-14;
    }
}


// ************************************************************************* //
