/*--------------------------------*- C++ -*----------------------------------*\
| =========                 |                                                 |
| \\      /  F ield         | OpenFOAM: The Open Source CFD Toolbox           |
|  \\    /   O peration     | Version:  dev                                   |
|   \\  /    A nd           | Web:      www.OpenFOAM.org                      |
|    \\/     M anipulation  |                                                 |
\*---------------------------------------------------------------------------*/
FoamFile
{
    version     2.0;
    format      ascii;
    class       volScalarField;
    location    "0.055";
    object      H2;
}
// * * * * * * * * * * * * * * * * * * * * * * * * * * * * * * * * * * * * * //

dimensions      [0 0 0 0 0 0 0];

internalField   nonuniform List<scalar> 
25
(
0.00944592
0.0094075
0.00936834
0.00932842
0.00928779
0.00924652
0.00920452
0.00916091
0.00911598
0.00906961
0.00902187
0.00897295
0.00892295
0.00887189
0.00881969
0.00876625
0.00871144
0.00865512
0.00859735
0.00853977
0.00848194
0.00842077
0.00835794
0.00829479
0.00823045
)
;

boundaryField
{
    wall
    {
        type            zeroGradient;
    }
    fuel
    {
        type            fixedValue;
        value           nonuniform 0();
    }
    outlet
    {
        type            inletOutlet;
        inletValue      nonuniform 0();
        value           nonuniform 0();
    }
    procBoundary1to0
    {
        type            processor;
        value           uniform 0.00948357;
    }
    procBoundary1to2
    {
        type            processor;
        value           uniform 0.00816497;
    }
}


// ************************************************************************* //
