/*--------------------------------*- C++ -*----------------------------------*\
| =========                 |                                                 |
| \\      /  F ield         | OpenFOAM: The Open Source CFD Toolbox           |
|  \\    /   O peration     | Version:  dev                                   |
|   \\  /    A nd           | Web:      www.OpenFOAM.org                      |
|    \\/     M anipulation  |                                                 |
\*---------------------------------------------------------------------------*/
FoamFile
{
    version     2.0;
    format      ascii;
    class       volScalarField;
    location    "0.055";
    object      P2;
}
// * * * * * * * * * * * * * * * * * * * * * * * * * * * * * * * * * * * * * //

dimensions      [0 0 0 0 0 0 0];

internalField   nonuniform List<scalar> 
250
(
9.94658e-10
6.19319e-10
4.71262e-10
4.31548e-10
4.22109e-10
4.19352e-10
4.18338e-10
4.19389e-10
4.18339e-10
4.19767e-10
9.01638e-10
6.06501e-10
4.82632e-10
4.47409e-10
4.38562e-10
4.35849e-10
4.34902e-10
4.35693e-10
4.34827e-10
4.36028e-10
4.36195e-10
4.3477e-10
4.36121e-10
4.33738e-10
4.3694e-10
4.33901e-10
4.50472e-10
4.74851e-10
6.13339e-10
1.63765e-09
8.24693e-10
5.91432e-10
4.88445e-10
4.57521e-10
4.49298e-10
4.46694e-10
4.45837e-10
4.46375e-10
4.45692e-10
4.46668e-10
4.4676e-10
4.45691e-10
4.46639e-10
4.45032e-10
4.47353e-10
4.46026e-10
4.59227e-10
4.83345e-10
5.92944e-10
1.32204e-09
7.59831e-10
5.74586e-10
4.89419e-10
4.62542e-10
4.55096e-10
4.52624e-10
4.51863e-10
4.52191e-10
4.5166e-10
4.52443e-10
4.52472e-10
4.51698e-10
4.5232e-10
4.51343e-10
4.52936e-10
4.52945e-10
4.63218e-10
4.86499e-10
5.72228e-10
1.0918e-09
7.04993e-10
5.57137e-10
4.8709e-10
4.64057e-10
4.57487e-10
4.55214e-10
4.54543e-10
4.5473e-10
4.54293e-10
4.5494e-10
4.54923e-10
4.54349e-10
4.54758e-10
4.54209e-10
4.55291e-10
4.56107e-10
4.64064e-10
4.85575e-10
5.52202e-10
9.2272e-10
6.5961e-10
5.41119e-10
4.83646e-10
4.64181e-10
4.58523e-10
4.56496e-10
4.55887e-10
4.56014e-10
4.55602e-10
4.56181e-10
4.5614e-10
4.55651e-10
4.5599e-10
4.5562e-10
4.56468e-10
4.57521e-10
4.63946e-10
4.82656e-10
5.34989e-10
7.9864e-10
6.24117e-10
5.287e-10
4.81624e-10
4.65424e-10
4.60682e-10
4.58931e-10
4.58353e-10
4.58488e-10
4.58038e-10
4.58608e-10
4.58561e-10
4.58057e-10
4.58448e-10
4.58053e-10
4.58902e-10
4.5971e-10
4.6528e-10
4.80372e-10
5.22339e-10
7.07064e-10
5.99269e-10
5.2193e-10
4.83328e-10
4.70004e-10
4.66097e-10
4.6462e-10
4.64043e-10
4.64219e-10
4.637e-10
4.64283e-10
4.6424e-10
4.6367e-10
4.64179e-10
4.63648e-10
4.64637e-10
4.64944e-10
4.70112e-10
4.81333e-10
5.15907e-10
6.44762e-10
5.85125e-10
5.21745e-10
4.89928e-10
4.78989e-10
4.75737e-10
4.7449e-10
4.73901e-10
4.74093e-10
4.73527e-10
4.74087e-10
4.74045e-10
4.73438e-10
4.74039e-10
4.73404e-10
4.74521e-10
4.7439e-10
4.79272e-10
4.87187e-10
5.16163e-10
6.05346e-10
5.79896e-10
5.26998e-10
5.00507e-10
4.91385e-10
4.88542e-10
4.87444e-10
4.86852e-10
4.86981e-10
4.86444e-10
4.86894e-10
4.86839e-10
4.86296e-10
4.86874e-10
4.86298e-10
4.87387e-10
4.87167e-10
4.91556e-10
4.97481e-10
5.21589e-10
5.83977e-10
5.79174e-10
5.33868e-10
5.11459e-10
5.03658e-10
5.00961e-10
4.9992e-10
4.99354e-10
4.99328e-10
4.98914e-10
4.99154e-10
4.99067e-10
4.98717e-10
4.99121e-10
4.98814e-10
4.99659e-10
4.99794e-10
5.03346e-10
5.0884e-10
5.28256e-10
5.74095e-10
5.76744e-10
5.36899e-10
5.17636e-10
5.1078e-10
5.08175e-10
5.0715e-10
5.06627e-10
5.06437e-10
5.06161e-10
5.06189e-10
5.06068e-10
5.05932e-10
5.06126e-10
5.06128e-10
5.06668e-10
5.07277e-10
5.09943e-10
5.15675e-10
5.31069e-10
5.67213e-10
5.7186e-10
5.3569e-10
5.18583e-10
5.1243e-10
5.09982e-10
5.08991e-10
5.08492e-10
5.08231e-10
5.08011e-10
5.07939e-10
5.07803e-10
5.07759e-10
5.07867e-10
5.08001e-10
5.08401e-10
5.09182e-10
5.11377e-10
5.16875e-10
5.30009e-10
5.60214e-10
)
;

boundaryField
{
    fuel
    {
        type            fixedValue;
        value           nonuniform 0();
    }
    wall
    {
        type            zeroGradient;
    }
    outlet
    {
        type            zeroGradient;
    }
    frontAndBack
    {
        type            empty;
    }
    procBoundary1to0
    {
        type            processor;
        value           nonuniform List<scalar> 
21
(
1.11031e-09
6.30333e-10
4.54507e-10
4.10115e-10
4.00091e-10
3.97332e-10
3.96285e-10
3.97567e-10
3.96365e-10
3.97985e-10
4.20011e-10
4.20011e-10
4.1822e-10
4.19988e-10
4.16789e-10
4.20907e-10
4.1602e-10
4.36076e-10
4.607e-10
6.32843e-10
2.07483e-09
)
;
    }
}


// ************************************************************************* //
