/*--------------------------------*- C++ -*----------------------------------*\
| =========                 |                                                 |
| \\      /  F ield         | OpenFOAM: The Open Source CFD Toolbox           |
|  \\    /   O peration     | Version:  dev                                   |
|   \\  /    A nd           | Web:      www.OpenFOAM.org                      |
|    \\/     M anipulation  |                                                 |
\*---------------------------------------------------------------------------*/
FoamFile
{
    version     2.0;
    format      ascii;
    class       volScalarField;
    location    "0.055";
    object      P2;
}
// * * * * * * * * * * * * * * * * * * * * * * * * * * * * * * * * * * * * * //

dimensions      [0 0 0 0 0 0 0];

internalField   nonuniform List<scalar> 
2000
(
1.49791e-08
1.49585e-08
1.49504e-08
1.49421e-08
1.4942e-08
1.49393e-08
1.49403e-08
1.4939e-08
1.49399e-08
1.49392e-08
1.49398e-08
1.49393e-08
1.49398e-08
1.49395e-08
1.49398e-08
1.49395e-08
1.49397e-08
1.49396e-08
1.49397e-08
1.49396e-08
1.49397e-08
1.49396e-08
1.49397e-08
1.49397e-08
1.49397e-08
1.49397e-08
1.49397e-08
1.49397e-08
1.49396e-08
1.49397e-08
1.49396e-08
1.49397e-08
1.49396e-08
1.49397e-08
1.49395e-08
1.49398e-08
1.49394e-08
1.49398e-08
1.49393e-08
1.49398e-08
1.49392e-08
1.49399e-08
1.4939e-08
1.49403e-08
1.49393e-08
1.4942e-08
1.49421e-08
1.49504e-08
1.49585e-08
1.49791e-08
2.98294e-08
2.97841e-08
2.97626e-08
2.97435e-08
2.9743e-08
2.9737e-08
2.97392e-08
2.97364e-08
2.97384e-08
2.97368e-08
2.97382e-08
2.97371e-08
2.97381e-08
2.97374e-08
2.9738e-08
2.97375e-08
2.9738e-08
2.97376e-08
2.97379e-08
2.97377e-08
2.97379e-08
2.97378e-08
2.97379e-08
2.97378e-08
2.97378e-08
2.97378e-08
2.97378e-08
2.97379e-08
2.97378e-08
2.97379e-08
2.97377e-08
2.97379e-08
2.97376e-08
2.9738e-08
2.97375e-08
2.9738e-08
2.97374e-08
2.97381e-08
2.97371e-08
2.97382e-08
2.97368e-08
2.97384e-08
2.97364e-08
2.97392e-08
2.9737e-08
2.9743e-08
2.97436e-08
2.97626e-08
2.97841e-08
2.98294e-08
4.85188e-08
4.84571e-08
4.8432e-08
4.84056e-08
4.8404e-08
4.83958e-08
4.83984e-08
4.83948e-08
4.83973e-08
4.83952e-08
4.8397e-08
4.83956e-08
4.83969e-08
4.8396e-08
4.83968e-08
4.83962e-08
4.83968e-08
4.83963e-08
4.83967e-08
4.83964e-08
4.83967e-08
4.83965e-08
4.83967e-08
4.83966e-08
4.83966e-08
4.83966e-08
4.83966e-08
4.83967e-08
4.83965e-08
4.83967e-08
4.83964e-08
4.83967e-08
4.83963e-08
4.83968e-08
4.83962e-08
4.83968e-08
4.8396e-08
4.83968e-08
4.83956e-08
4.8397e-08
4.83952e-08
4.83972e-08
4.83948e-08
4.83984e-08
4.83958e-08
4.8404e-08
4.84056e-08
4.8432e-08
4.84571e-08
4.85188e-08
6.86516e-08
6.85605e-08
6.85162e-08
6.84734e-08
6.84669e-08
6.84555e-08
6.84577e-08
6.84535e-08
6.84562e-08
6.84539e-08
6.84559e-08
6.84544e-08
6.84559e-08
6.84549e-08
6.84559e-08
6.84552e-08
6.84559e-08
6.84554e-08
6.84558e-08
6.84555e-08
6.84558e-08
6.84556e-08
6.84558e-08
6.84557e-08
6.84557e-08
6.84557e-08
6.84557e-08
6.84558e-08
6.84556e-08
6.84558e-08
6.84555e-08
6.84558e-08
6.84554e-08
6.84559e-08
6.84552e-08
6.84559e-08
6.84549e-08
6.84558e-08
6.84544e-08
6.84559e-08
6.84538e-08
6.84561e-08
6.84534e-08
6.84577e-08
6.84555e-08
6.84669e-08
6.84734e-08
6.85162e-08
6.85605e-08
6.86516e-08
8.25851e-08
8.2462e-08
8.23951e-08
8.23329e-08
8.23191e-08
8.23048e-08
8.23057e-08
8.23012e-08
8.23037e-08
8.23016e-08
8.23036e-08
8.23022e-08
8.23037e-08
8.23028e-08
8.23038e-08
8.23032e-08
8.23039e-08
8.23033e-08
8.23038e-08
8.23035e-08
8.23038e-08
8.23036e-08
8.23038e-08
8.23037e-08
8.23038e-08
8.23038e-08
8.23037e-08
8.23038e-08
8.23036e-08
8.23038e-08
8.23035e-08
8.23038e-08
8.23033e-08
8.23039e-08
8.23031e-08
8.23038e-08
8.23028e-08
8.23037e-08
8.23022e-08
8.23036e-08
8.23015e-08
8.23037e-08
8.23012e-08
8.23057e-08
8.23047e-08
8.23191e-08
8.23329e-08
8.23951e-08
8.2462e-08
8.25851e-08
8.90509e-08
8.89066e-08
8.8829e-08
8.87525e-08
8.87314e-08
8.87154e-08
8.87143e-08
8.87104e-08
8.87121e-08
8.87106e-08
8.87121e-08
8.87112e-08
8.87124e-08
8.87118e-08
8.87126e-08
8.87122e-08
8.87128e-08
8.87124e-08
8.87127e-08
8.87125e-08
8.87127e-08
8.87127e-08
8.87128e-08
8.87127e-08
8.87128e-08
8.87128e-08
8.87127e-08
8.87128e-08
8.87126e-08
8.87127e-08
8.87125e-08
8.87127e-08
8.87124e-08
8.87128e-08
8.87122e-08
8.87126e-08
8.87118e-08
8.87124e-08
8.87112e-08
8.87121e-08
8.87105e-08
8.8712e-08
8.87104e-08
8.87143e-08
8.87154e-08
8.87313e-08
8.87525e-08
8.8829e-08
8.89066e-08
8.90508e-08
8.95713e-08
8.94208e-08
8.93479e-08
8.92647e-08
8.92375e-08
8.92216e-08
8.92179e-08
8.92153e-08
8.92155e-08
8.92151e-08
8.92158e-08
8.92156e-08
8.92163e-08
8.92162e-08
8.92167e-08
8.92166e-08
8.92169e-08
8.92167e-08
8.92169e-08
8.92168e-08
8.9217e-08
8.9217e-08
8.92171e-08
8.9217e-08
8.9217e-08
8.9217e-08
8.9217e-08
8.92171e-08
8.9217e-08
8.9217e-08
8.92168e-08
8.92169e-08
8.92167e-08
8.92169e-08
8.92166e-08
8.92167e-08
8.92162e-08
8.92163e-08
8.92156e-08
8.92158e-08
8.92151e-08
8.92155e-08
8.92153e-08
8.92179e-08
8.92216e-08
8.92375e-08
8.92648e-08
8.93479e-08
8.94208e-08
8.95713e-08
8.59859e-08
8.58426e-08
8.57871e-08
8.57048e-08
8.56731e-08
8.56587e-08
8.56521e-08
8.56513e-08
8.56497e-08
8.56507e-08
8.56503e-08
8.56511e-08
8.5651e-08
8.56515e-08
8.56515e-08
8.56518e-08
8.56518e-08
8.56519e-08
8.56518e-08
8.5652e-08
8.56519e-08
8.56521e-08
8.56521e-08
8.56521e-08
8.56521e-08
8.56521e-08
8.56521e-08
8.56521e-08
8.56521e-08
8.56519e-08
8.5652e-08
8.56518e-08
8.56519e-08
8.56518e-08
8.56518e-08
8.56515e-08
8.56515e-08
8.56509e-08
8.5651e-08
8.56502e-08
8.56507e-08
8.56497e-08
8.56513e-08
8.56521e-08
8.56587e-08
8.5673e-08
8.57048e-08
8.57871e-08
8.58425e-08
8.59858e-08
7.98779e-08
7.97518e-08
7.97219e-08
7.96462e-08
7.96119e-08
7.95999e-08
7.95905e-08
7.95917e-08
7.95882e-08
7.95906e-08
7.9589e-08
7.95908e-08
7.95899e-08
7.95911e-08
7.95905e-08
7.95913e-08
7.95909e-08
7.95914e-08
7.9591e-08
7.95913e-08
7.95912e-08
7.95914e-08
7.95913e-08
7.95914e-08
7.95914e-08
7.95914e-08
7.95914e-08
7.95913e-08
7.95914e-08
7.95912e-08
7.95913e-08
7.9591e-08
7.95913e-08
7.95908e-08
7.95913e-08
7.95905e-08
7.95911e-08
7.95898e-08
7.95907e-08
7.95889e-08
7.95906e-08
7.95881e-08
7.95916e-08
7.95905e-08
7.95999e-08
7.96118e-08
7.96462e-08
7.97219e-08
7.97517e-08
7.98779e-08
7.24712e-08
7.23684e-08
7.23673e-08
7.23021e-08
7.22668e-08
7.22578e-08
7.22459e-08
7.2249e-08
7.22437e-08
7.22475e-08
7.22447e-08
7.22475e-08
7.22458e-08
7.22476e-08
7.22465e-08
7.22478e-08
7.22469e-08
7.22477e-08
7.22472e-08
7.22477e-08
7.22474e-08
7.22477e-08
7.22475e-08
7.22477e-08
7.22476e-08
7.22476e-08
7.22477e-08
7.22475e-08
7.22477e-08
7.22473e-08
7.22477e-08
7.22471e-08
7.22477e-08
7.22469e-08
7.22477e-08
7.22465e-08
7.22476e-08
7.22458e-08
7.22474e-08
7.22447e-08
7.22475e-08
7.22436e-08
7.2249e-08
7.22459e-08
7.22578e-08
7.22668e-08
7.23021e-08
7.23673e-08
7.23683e-08
7.24712e-08
6.46261e-08
6.45493e-08
6.45766e-08
6.45238e-08
6.44889e-08
6.44829e-08
6.44691e-08
6.44739e-08
6.44669e-08
6.4472e-08
6.44681e-08
6.44717e-08
6.44693e-08
6.44717e-08
6.44702e-08
6.44718e-08
6.44706e-08
6.44717e-08
6.44709e-08
6.44716e-08
6.44711e-08
6.44716e-08
6.44713e-08
6.44715e-08
6.44714e-08
6.44714e-08
6.44715e-08
6.44713e-08
6.44715e-08
6.44711e-08
6.44716e-08
6.44709e-08
6.44717e-08
6.44706e-08
6.44718e-08
6.44701e-08
6.44717e-08
6.44693e-08
6.44717e-08
6.44681e-08
6.4472e-08
6.44669e-08
6.44738e-08
6.4469e-08
6.44829e-08
6.44889e-08
6.45238e-08
6.45766e-08
6.45493e-08
6.46261e-08
5.65952e-08
5.65413e-08
5.6587e-08
5.65453e-08
5.65119e-08
5.65081e-08
5.64933e-08
5.64991e-08
5.64913e-08
5.6497e-08
5.64925e-08
5.64966e-08
5.64938e-08
5.64965e-08
5.64947e-08
5.64965e-08
5.64951e-08
5.64964e-08
5.64955e-08
5.64962e-08
5.64957e-08
5.64962e-08
5.64959e-08
5.64961e-08
5.6496e-08
5.6496e-08
5.64961e-08
5.64959e-08
5.64962e-08
5.64957e-08
5.64962e-08
5.64955e-08
5.64964e-08
5.64951e-08
5.64965e-08
5.64946e-08
5.64964e-08
5.64938e-08
5.64966e-08
5.64925e-08
5.6497e-08
5.64912e-08
5.64991e-08
5.64933e-08
5.65081e-08
5.65118e-08
5.65453e-08
5.65869e-08
5.65413e-08
5.65951e-08
4.93419e-08
4.93126e-08
4.93786e-08
4.93492e-08
4.93178e-08
4.93165e-08
4.93008e-08
4.93076e-08
4.92989e-08
4.93053e-08
4.93002e-08
4.93048e-08
4.93016e-08
4.93045e-08
4.93024e-08
4.93045e-08
4.93029e-08
4.93043e-08
4.93033e-08
4.93041e-08
4.93035e-08
4.93041e-08
4.93037e-08
4.9304e-08
4.93039e-08
4.93039e-08
4.9304e-08
4.93037e-08
4.93041e-08
4.93035e-08
4.93041e-08
4.93033e-08
4.93043e-08
4.93029e-08
4.93044e-08
4.93024e-08
4.93045e-08
4.93015e-08
4.93047e-08
4.93002e-08
4.93053e-08
4.92988e-08
4.93076e-08
4.93007e-08
4.93165e-08
4.93177e-08
4.93491e-08
4.93786e-08
4.93126e-08
4.93418e-08
4.27053e-08
4.26689e-08
4.27252e-08
4.26992e-08
4.26743e-08
4.26726e-08
4.26595e-08
4.2665e-08
4.26577e-08
4.26629e-08
4.26587e-08
4.26624e-08
4.26598e-08
4.26622e-08
4.26605e-08
4.26622e-08
4.26609e-08
4.26621e-08
4.26612e-08
4.26619e-08
4.26614e-08
4.26619e-08
4.26616e-08
4.26618e-08
4.26617e-08
4.26617e-08
4.26618e-08
4.26616e-08
4.26619e-08
4.26614e-08
4.26619e-08
4.26612e-08
4.26621e-08
4.26609e-08
4.26622e-08
4.26605e-08
4.26622e-08
4.26598e-08
4.26624e-08
4.26587e-08
4.26629e-08
4.26576e-08
4.26649e-08
4.26595e-08
4.26725e-08
4.26743e-08
4.26991e-08
4.27251e-08
4.26688e-08
4.27053e-08
3.66014e-08
3.658e-08
3.66403e-08
3.66217e-08
3.65996e-08
3.65989e-08
3.65863e-08
3.65917e-08
3.65845e-08
3.65897e-08
3.65856e-08
3.65892e-08
3.65866e-08
3.6589e-08
3.65873e-08
3.65889e-08
3.65876e-08
3.65888e-08
3.6588e-08
3.65887e-08
3.65882e-08
3.65886e-08
3.65883e-08
3.65885e-08
3.65884e-08
3.65884e-08
3.65885e-08
3.65883e-08
3.65886e-08
3.65882e-08
3.65886e-08
3.65879e-08
3.65888e-08
3.65876e-08
3.65889e-08
3.65873e-08
3.65889e-08
3.65866e-08
3.65892e-08
3.65856e-08
3.65897e-08
3.65845e-08
3.65917e-08
3.65862e-08
3.65988e-08
3.65995e-08
3.66216e-08
3.66402e-08
3.658e-08
3.66014e-08
3.14488e-08
3.14421e-08
3.15077e-08
3.14964e-08
3.14771e-08
3.14775e-08
3.14653e-08
3.14708e-08
3.14637e-08
3.14688e-08
3.14647e-08
3.14683e-08
3.14657e-08
3.1468e-08
3.14663e-08
3.14679e-08
3.14666e-08
3.14678e-08
3.1467e-08
3.14677e-08
3.14672e-08
3.14676e-08
3.14673e-08
3.14675e-08
3.14674e-08
3.14674e-08
3.14675e-08
3.14673e-08
3.14676e-08
3.14672e-08
3.14676e-08
3.14669e-08
3.14678e-08
3.14666e-08
3.14679e-08
3.14663e-08
3.1468e-08
3.14656e-08
3.14682e-08
3.14646e-08
3.14687e-08
3.14636e-08
3.14708e-08
3.14652e-08
3.14775e-08
3.1477e-08
3.14964e-08
3.15077e-08
3.14421e-08
3.14487e-08
2.6827e-08
2.68399e-08
2.69161e-08
2.69163e-08
2.69016e-08
2.69039e-08
2.68921e-08
2.68978e-08
2.68906e-08
2.68956e-08
2.68914e-08
2.6895e-08
2.68923e-08
2.68946e-08
2.68929e-08
2.68945e-08
2.68932e-08
2.68943e-08
2.68935e-08
2.68942e-08
2.68937e-08
2.68941e-08
2.68938e-08
2.6894e-08
2.68939e-08
2.68939e-08
2.6894e-08
2.68938e-08
2.68941e-08
2.68937e-08
2.68942e-08
2.68935e-08
2.68943e-08
2.68932e-08
2.68945e-08
2.68929e-08
2.68946e-08
2.68923e-08
2.68949e-08
2.68914e-08
2.68956e-08
2.68905e-08
2.68977e-08
2.68921e-08
2.69038e-08
2.69016e-08
2.69163e-08
2.69161e-08
2.68399e-08
2.68269e-08
2.29861e-08
2.30092e-08
2.30851e-08
2.30899e-08
2.30776e-08
2.30805e-08
2.30695e-08
2.30749e-08
2.3068e-08
2.30728e-08
2.30688e-08
2.30721e-08
2.30696e-08
2.30718e-08
2.30701e-08
2.30716e-08
2.30704e-08
2.30715e-08
2.30707e-08
2.30714e-08
2.30709e-08
2.30713e-08
2.3071e-08
2.30712e-08
2.30711e-08
2.30711e-08
2.30712e-08
2.3071e-08
2.30713e-08
2.30709e-08
2.30714e-08
2.30707e-08
2.30715e-08
2.30704e-08
2.30716e-08
2.30701e-08
2.30717e-08
2.30696e-08
2.30721e-08
2.30688e-08
2.30727e-08
2.3068e-08
2.30748e-08
2.30695e-08
2.30804e-08
2.30776e-08
2.30898e-08
2.30851e-08
2.30092e-08
2.29861e-08
1.95814e-08
1.96204e-08
1.97038e-08
1.97166e-08
1.97061e-08
1.97103e-08
1.96991e-08
1.97049e-08
1.96978e-08
1.97027e-08
1.96986e-08
1.97021e-08
1.96994e-08
1.97017e-08
1.96999e-08
1.97015e-08
1.97002e-08
1.97014e-08
1.97005e-08
1.97012e-08
1.97007e-08
1.97011e-08
1.97008e-08
1.9701e-08
1.9701e-08
1.9701e-08
1.9701e-08
1.97008e-08
1.97011e-08
1.97007e-08
1.97012e-08
1.97005e-08
1.97014e-08
1.97002e-08
1.97015e-08
1.96999e-08
1.97016e-08
1.96994e-08
1.9702e-08
1.96986e-08
1.97027e-08
1.96977e-08
1.97049e-08
1.96991e-08
1.97102e-08
1.9706e-08
1.97165e-08
1.97038e-08
1.96204e-08
1.95814e-08
1.66787e-08
1.67234e-08
1.68006e-08
1.68148e-08
1.68062e-08
1.68103e-08
1.68002e-08
1.68054e-08
1.6799e-08
1.68034e-08
1.67997e-08
1.68028e-08
1.68004e-08
1.68025e-08
1.68009e-08
1.68023e-08
1.68011e-08
1.68022e-08
1.68014e-08
1.68021e-08
1.68016e-08
1.6802e-08
1.68017e-08
1.68019e-08
1.68018e-08
1.68018e-08
1.68019e-08
1.68017e-08
1.6802e-08
1.68016e-08
1.68021e-08
1.68014e-08
1.68022e-08
1.68011e-08
1.68023e-08
1.68009e-08
1.68024e-08
1.68004e-08
1.68028e-08
1.67996e-08
1.68034e-08
1.67989e-08
1.68054e-08
1.68002e-08
1.68102e-08
1.68061e-08
1.68148e-08
1.68006e-08
1.67234e-08
1.66787e-08
1.43051e-08
1.43566e-08
1.44296e-08
1.44455e-08
1.44384e-08
1.44426e-08
1.44333e-08
1.44382e-08
1.44322e-08
1.44363e-08
1.44328e-08
1.44357e-08
1.44335e-08
1.44354e-08
1.4434e-08
1.44353e-08
1.44342e-08
1.44352e-08
1.44345e-08
1.44351e-08
1.44346e-08
1.4435e-08
1.44347e-08
1.44349e-08
1.44348e-08
1.44348e-08
1.44349e-08
1.44347e-08
1.4435e-08
1.44346e-08
1.4435e-08
1.44345e-08
1.44352e-08
1.44342e-08
1.44353e-08
1.44339e-08
1.44354e-08
1.44335e-08
1.44357e-08
1.44328e-08
1.44363e-08
1.44321e-08
1.44381e-08
1.44333e-08
1.44426e-08
1.44384e-08
1.44454e-08
1.44296e-08
1.43566e-08
1.43051e-08
1.22973e-08
1.23554e-08
1.2424e-08
1.24409e-08
1.24352e-08
1.24393e-08
1.24308e-08
1.24353e-08
1.24298e-08
1.24336e-08
1.24304e-08
1.24331e-08
1.2431e-08
1.24328e-08
1.24314e-08
1.24326e-08
1.24316e-08
1.24326e-08
1.24319e-08
1.24324e-08
1.2432e-08
1.24324e-08
1.24321e-08
1.24323e-08
1.24322e-08
1.24322e-08
1.24323e-08
1.24321e-08
1.24324e-08
1.2432e-08
1.24324e-08
1.24319e-08
1.24325e-08
1.24316e-08
1.24326e-08
1.24314e-08
1.24327e-08
1.2431e-08
1.2433e-08
1.24304e-08
1.24336e-08
1.24298e-08
1.24353e-08
1.24308e-08
1.24393e-08
1.24352e-08
1.24409e-08
1.2424e-08
1.23554e-08
1.22973e-08
1.06022e-08
1.06181e-08
1.06759e-08
1.06916e-08
1.06882e-08
1.0692e-08
1.0685e-08
1.06886e-08
1.06839e-08
1.0687e-08
1.06842e-08
1.06864e-08
1.06847e-08
1.06861e-08
1.0685e-08
1.0686e-08
1.06851e-08
1.06859e-08
1.06853e-08
1.06858e-08
1.06854e-08
1.06857e-08
1.06855e-08
1.06856e-08
1.06856e-08
1.06856e-08
1.06856e-08
1.06855e-08
1.06857e-08
1.06854e-08
1.06858e-08
1.06853e-08
1.06859e-08
1.06851e-08
1.0686e-08
1.06849e-08
1.06861e-08
1.06847e-08
1.06864e-08
1.06842e-08
1.0687e-08
1.06839e-08
1.06886e-08
1.0685e-08
1.0692e-08
1.06882e-08
1.06916e-08
1.06759e-08
1.06181e-08
1.06022e-08
9.1734e-09
9.19252e-09
9.24544e-09
9.2611e-09
9.25867e-09
9.26235e-09
9.25596e-09
9.2593e-09
9.25499e-09
9.25777e-09
9.25528e-09
9.25725e-09
9.25565e-09
9.25694e-09
9.25591e-09
9.25682e-09
9.25604e-09
9.25674e-09
9.25623e-09
9.25664e-09
9.25633e-09
9.25657e-09
9.25638e-09
9.25651e-09
9.25646e-09
9.25646e-09
9.25651e-09
9.25638e-09
9.25657e-09
9.25633e-09
9.25664e-09
9.25623e-09
9.25673e-09
9.25604e-09
9.25682e-09
9.2559e-09
9.25693e-09
9.25564e-09
9.25722e-09
9.25527e-09
9.25775e-09
9.25497e-09
9.25927e-09
9.25595e-09
9.26232e-09
9.25864e-09
9.26109e-09
9.24542e-09
9.19251e-09
9.17339e-09
7.9243e-09
7.94623e-09
7.99664e-09
8.01352e-09
8.01232e-09
8.01611e-09
8.01028e-09
8.01334e-09
8.00934e-09
8.01186e-09
8.00955e-09
8.01135e-09
8.00987e-09
8.01105e-09
8.01009e-09
8.01093e-09
8.01021e-09
8.01085e-09
8.01039e-09
8.01076e-09
8.01047e-09
8.0107e-09
8.01052e-09
8.01064e-09
8.01059e-09
8.01059e-09
8.01064e-09
8.01052e-09
8.01069e-09
8.01047e-09
8.01076e-09
8.01038e-09
8.01085e-09
8.0102e-09
8.01092e-09
8.01008e-09
8.01104e-09
8.00986e-09
8.01133e-09
8.00955e-09
8.01184e-09
8.00932e-09
8.01331e-09
8.01027e-09
8.01608e-09
8.01229e-09
8.0135e-09
7.99662e-09
7.94621e-09
7.92429e-09
6.87055e-09
6.89307e-09
6.93811e-09
6.95412e-09
6.95351e-09
6.957e-09
6.95184e-09
6.95453e-09
6.95098e-09
6.95319e-09
6.95114e-09
6.95273e-09
6.95142e-09
6.95246e-09
6.95161e-09
6.95235e-09
6.95171e-09
6.95229e-09
6.95187e-09
6.95221e-09
6.95195e-09
6.95215e-09
6.95199e-09
6.9521e-09
6.95206e-09
6.95206e-09
6.9521e-09
6.95199e-09
6.95215e-09
6.95195e-09
6.9522e-09
6.95186e-09
6.95228e-09
6.95171e-09
6.95235e-09
6.9516e-09
6.95245e-09
6.95141e-09
6.9527e-09
6.95114e-09
6.95317e-09
6.95096e-09
6.9545e-09
6.95182e-09
6.95697e-09
6.95348e-09
6.95411e-09
6.93809e-09
6.89305e-09
6.87054e-09
5.98086e-09
6.00349e-09
6.04366e-09
6.05871e-09
6.05855e-09
6.06176e-09
6.0572e-09
6.05955e-09
6.05641e-09
6.05834e-09
6.05654e-09
6.05793e-09
6.05677e-09
6.05769e-09
6.05694e-09
6.05759e-09
6.05703e-09
6.05754e-09
6.05717e-09
6.05747e-09
6.05724e-09
6.05741e-09
6.05728e-09
6.05737e-09
6.05733e-09
6.05733e-09
6.05737e-09
6.05728e-09
6.05741e-09
6.05724e-09
6.05746e-09
6.05716e-09
6.05753e-09
6.05703e-09
6.05759e-09
6.05693e-09
6.05768e-09
6.05676e-09
6.0579e-09
6.05653e-09
6.05833e-09
6.05639e-09
6.05953e-09
6.05718e-09
6.06173e-09
6.05853e-09
6.05869e-09
6.04364e-09
6.00347e-09
5.98085e-09
5.22876e-09
5.25109e-09
5.28692e-09
5.30095e-09
5.30115e-09
5.30408e-09
5.30006e-09
5.30212e-09
5.29934e-09
5.30102e-09
5.29943e-09
5.30065e-09
5.29963e-09
5.30044e-09
5.29978e-09
5.30035e-09
5.29986e-09
5.30031e-09
5.29998e-09
5.30025e-09
5.30005e-09
5.3002e-09
5.30008e-09
5.30016e-09
5.30013e-09
5.30013e-09
5.30016e-09
5.30008e-09
5.3002e-09
5.30005e-09
5.30024e-09
5.29998e-09
5.3003e-09
5.29985e-09
5.30035e-09
5.29977e-09
5.30043e-09
5.29962e-09
5.30063e-09
5.29942e-09
5.30101e-09
5.29932e-09
5.3021e-09
5.30004e-09
5.30406e-09
5.30113e-09
5.30094e-09
5.2869e-09
5.25108e-09
5.22875e-09
4.59191e-09
4.61364e-09
4.64562e-09
4.65863e-09
4.65909e-09
4.66178e-09
4.65822e-09
4.66002e-09
4.65756e-09
4.65903e-09
4.65763e-09
4.65869e-09
4.6578e-09
4.65851e-09
4.65793e-09
4.65843e-09
4.658e-09
4.65839e-09
4.65811e-09
4.65834e-09
4.65816e-09
4.6583e-09
4.65819e-09
4.65827e-09
4.65824e-09
4.65824e-09
4.65827e-09
4.65819e-09
4.6583e-09
4.65816e-09
4.65834e-09
4.6581e-09
4.65839e-09
4.65799e-09
4.65843e-09
4.65792e-09
4.6585e-09
4.65779e-09
4.65868e-09
4.65762e-09
4.65902e-09
4.65754e-09
4.66e-09
4.65821e-09
4.66175e-09
4.65907e-09
4.65861e-09
4.64561e-09
4.61363e-09
4.5919e-09
4.05154e-09
4.07247e-09
4.10105e-09
4.11304e-09
4.11371e-09
4.11616e-09
4.11303e-09
4.1146e-09
4.11242e-09
4.1137e-09
4.11247e-09
4.1134e-09
4.11261e-09
4.11323e-09
4.11272e-09
4.11317e-09
4.11278e-09
4.11313e-09
4.11288e-09
4.11309e-09
4.11293e-09
4.11305e-09
4.11296e-09
4.11302e-09
4.113e-09
4.113e-09
4.11302e-09
4.11296e-09
4.11305e-09
4.11293e-09
4.11309e-09
4.11288e-09
4.11313e-09
4.11278e-09
4.11316e-09
4.11271e-09
4.11323e-09
4.1126e-09
4.11338e-09
4.11246e-09
4.11369e-09
4.11241e-09
4.11458e-09
4.11301e-09
4.11614e-09
4.11369e-09
4.11303e-09
4.10104e-09
4.07246e-09
4.05153e-09
3.59193e-09
3.61195e-09
3.63752e-09
3.64855e-09
3.64936e-09
3.6516e-09
3.64883e-09
3.6502e-09
3.64828e-09
3.64939e-09
3.6483e-09
3.64912e-09
3.64842e-09
3.64897e-09
3.64852e-09
3.64891e-09
3.64858e-09
3.64888e-09
3.64866e-09
3.64885e-09
3.64871e-09
3.64882e-09
3.64873e-09
3.64879e-09
3.64877e-09
3.64877e-09
3.64879e-09
3.64873e-09
3.64881e-09
3.64871e-09
3.64884e-09
3.64866e-09
3.64888e-09
3.64857e-09
3.64891e-09
3.64851e-09
3.64896e-09
3.64842e-09
3.6491e-09
3.64829e-09
3.64938e-09
3.64826e-09
3.65018e-09
3.64881e-09
3.65158e-09
3.64934e-09
3.64853e-09
3.6375e-09
3.61194e-09
3.59192e-09
3.19998e-09
3.219e-09
3.24191e-09
3.25204e-09
3.25296e-09
3.255e-09
3.25255e-09
3.25374e-09
3.25204e-09
3.25301e-09
3.25205e-09
3.25277e-09
3.25216e-09
3.25264e-09
3.25224e-09
3.25259e-09
3.25229e-09
3.25256e-09
3.25237e-09
3.25253e-09
3.25241e-09
3.2525e-09
3.25243e-09
3.25248e-09
3.25246e-09
3.25246e-09
3.25248e-09
3.25243e-09
3.2525e-09
3.25241e-09
3.25253e-09
3.25237e-09
3.25256e-09
3.25229e-09
3.25258e-09
3.25224e-09
3.25263e-09
3.25215e-09
3.25275e-09
3.25205e-09
3.253e-09
3.25203e-09
3.25373e-09
3.25254e-09
3.25498e-09
3.25294e-09
3.25203e-09
3.2419e-09
3.21899e-09
3.19997e-09
2.86474e-09
2.88274e-09
2.9033e-09
2.91259e-09
2.91357e-09
2.91544e-09
2.91327e-09
2.91431e-09
2.91281e-09
2.91365e-09
2.9128e-09
2.91343e-09
2.91289e-09
2.91332e-09
2.91297e-09
2.91327e-09
2.91301e-09
2.91325e-09
2.91308e-09
2.91323e-09
2.91312e-09
2.9132e-09
2.91314e-09
2.91318e-09
2.91316e-09
2.91316e-09
2.91318e-09
2.91314e-09
2.9132e-09
2.91312e-09
2.91322e-09
2.91308e-09
2.91325e-09
2.91301e-09
2.91327e-09
2.91296e-09
2.91331e-09
2.91289e-09
2.91342e-09
2.9128e-09
2.91364e-09
2.91279e-09
2.9143e-09
2.91326e-09
2.91542e-09
2.91356e-09
2.91258e-09
2.90328e-09
2.88273e-09
2.86474e-09
2.57711e-09
2.59406e-09
2.61256e-09
2.62108e-09
2.6221e-09
2.62381e-09
2.62189e-09
2.6228e-09
2.62146e-09
2.6222e-09
2.62145e-09
2.622e-09
2.62153e-09
2.6219e-09
2.62159e-09
2.62186e-09
2.62163e-09
2.62185e-09
2.6217e-09
2.62182e-09
2.62173e-09
2.6218e-09
2.62174e-09
2.62178e-09
2.62177e-09
2.62177e-09
2.62178e-09
2.62174e-09
2.6218e-09
2.62173e-09
2.62182e-09
2.62169e-09
2.62184e-09
2.62163e-09
2.62186e-09
2.62159e-09
2.62189e-09
2.62152e-09
2.62199e-09
2.62145e-09
2.62219e-09
2.62145e-09
2.62279e-09
2.62188e-09
2.62379e-09
2.62209e-09
2.62107e-09
2.61255e-09
2.59405e-09
2.5771e-09
2.3295e-09
2.34542e-09
2.3621e-09
2.36992e-09
2.37095e-09
2.37251e-09
2.37081e-09
2.37161e-09
2.37043e-09
2.37107e-09
2.3704e-09
2.37089e-09
2.37047e-09
2.3708e-09
2.37053e-09
2.37077e-09
2.37056e-09
2.37075e-09
2.37062e-09
2.37074e-09
2.37065e-09
2.37072e-09
2.37066e-09
2.3707e-09
2.37069e-09
2.37069e-09
2.3707e-09
2.37066e-09
2.37072e-09
2.37065e-09
2.37073e-09
2.37062e-09
2.37075e-09
2.37056e-09
2.37076e-09
2.37052e-09
2.37079e-09
2.37046e-09
2.37088e-09
2.3704e-09
2.37106e-09
2.37041e-09
2.3716e-09
2.3708e-09
2.3725e-09
2.37094e-09
2.3699e-09
2.36209e-09
2.34541e-09
2.32949e-09
2.1156e-09
2.1305e-09
2.14559e-09
2.15277e-09
2.1538e-09
2.15524e-09
2.15372e-09
2.15442e-09
2.15337e-09
2.15393e-09
2.15334e-09
2.15377e-09
2.1534e-09
2.15369e-09
2.15345e-09
2.15366e-09
2.15348e-09
2.15365e-09
2.15353e-09
2.15364e-09
2.15356e-09
2.15362e-09
2.15357e-09
2.15361e-09
2.15359e-09
2.15359e-09
2.15361e-09
2.15357e-09
2.15362e-09
2.15356e-09
2.15363e-09
2.15353e-09
2.15365e-09
2.15348e-09
2.15366e-09
2.15344e-09
2.15369e-09
2.15339e-09
2.15376e-09
2.15334e-09
2.15392e-09
2.15336e-09
2.15441e-09
2.15371e-09
2.15522e-09
2.15379e-09
2.15276e-09
2.14558e-09
2.13049e-09
2.11559e-09
1.93016e-09
1.94406e-09
1.95777e-09
1.96436e-09
1.96538e-09
1.9667e-09
1.96535e-09
1.96597e-09
1.96503e-09
1.96552e-09
1.965e-09
1.96537e-09
1.96504e-09
1.9653e-09
1.96509e-09
1.96528e-09
1.96512e-09
1.96527e-09
1.96517e-09
1.96526e-09
1.96519e-09
1.96524e-09
1.9652e-09
1.96523e-09
1.96522e-09
1.96522e-09
1.96523e-09
1.9652e-09
1.96524e-09
1.96519e-09
1.96526e-09
1.96516e-09
1.96527e-09
1.96512e-09
1.96528e-09
1.96508e-09
1.9653e-09
1.96504e-09
1.96536e-09
1.96499e-09
1.96551e-09
1.96502e-09
1.96596e-09
1.96534e-09
1.96668e-09
1.96537e-09
1.96435e-09
1.95775e-09
1.94405e-09
1.93016e-09
1.76881e-09
1.78172e-09
1.79422e-09
1.80029e-09
1.80129e-09
1.8025e-09
1.8013e-09
1.80184e-09
1.801e-09
1.80143e-09
1.80097e-09
1.8013e-09
1.80101e-09
1.80124e-09
1.80105e-09
1.80122e-09
1.80108e-09
1.80122e-09
1.80112e-09
1.80121e-09
1.80115e-09
1.80119e-09
1.80116e-09
1.80118e-09
1.80117e-09
1.80117e-09
1.80118e-09
1.80116e-09
1.80119e-09
1.80114e-09
1.8012e-09
1.80112e-09
1.80121e-09
1.80108e-09
1.80122e-09
1.80105e-09
1.80124e-09
1.801e-09
1.80129e-09
1.80096e-09
1.80142e-09
1.80099e-09
1.80183e-09
1.80129e-09
1.80248e-09
1.80127e-09
1.80027e-09
1.79421e-09
1.78171e-09
1.7688e-09
1.62786e-09
1.63987e-09
1.6513e-09
1.65688e-09
1.65785e-09
1.65897e-09
1.6579e-09
1.65838e-09
1.65763e-09
1.658e-09
1.65759e-09
1.65789e-09
1.65763e-09
1.65784e-09
1.65767e-09
1.65782e-09
1.65769e-09
1.65782e-09
1.65773e-09
1.65781e-09
1.65775e-09
1.6578e-09
1.65776e-09
1.65779e-09
1.65778e-09
1.65778e-09
1.65779e-09
1.65776e-09
1.6578e-09
1.65775e-09
1.65781e-09
1.65773e-09
1.65781e-09
1.65769e-09
1.65782e-09
1.65766e-09
1.65783e-09
1.65762e-09
1.65788e-09
1.65759e-09
1.658e-09
1.65762e-09
1.65837e-09
1.65789e-09
1.65896e-09
1.65784e-09
1.65687e-09
1.65128e-09
1.63986e-09
1.62786e-09
1.50427e-09
1.51547e-09
1.52592e-09
1.53107e-09
1.53201e-09
1.53304e-09
1.53209e-09
1.53251e-09
1.53184e-09
1.53217e-09
1.5318e-09
1.53206e-09
1.53183e-09
1.53202e-09
1.53187e-09
1.53201e-09
1.53189e-09
1.532e-09
1.53193e-09
1.532e-09
1.53195e-09
1.53199e-09
1.53196e-09
1.53198e-09
1.53197e-09
1.53197e-09
1.53198e-09
1.53196e-09
1.53199e-09
1.53195e-09
1.532e-09
1.53193e-09
1.532e-09
1.53189e-09
1.532e-09
1.53186e-09
1.53201e-09
1.53183e-09
1.53206e-09
1.5318e-09
1.53216e-09
1.53183e-09
1.5325e-09
1.53208e-09
1.53303e-09
1.532e-09
1.53105e-09
1.52591e-09
1.51546e-09
1.50427e-09
)
;

boundaryField
{
    fuel
    {
        type            fixedValue;
        value           uniform 0;
    }
    wall
    {
        type            zeroGradient;
    }
    outlet
    {
        type            zeroGradient;
    }
    frontAndBack
    {
        type            empty;
    }
    procBoundary1to0
    {
        type            processor;
        value           nonuniform List<scalar> 
50
(
1.39549e-09
1.40595e-09
1.41553e-09
1.42028e-09
1.42119e-09
1.42214e-09
1.42129e-09
1.42166e-09
1.42106e-09
1.42136e-09
1.42103e-09
1.42126e-09
1.42106e-09
1.42122e-09
1.42109e-09
1.42121e-09
1.42111e-09
1.42121e-09
1.42115e-09
1.42121e-09
1.42117e-09
1.4212e-09
1.42117e-09
1.42119e-09
1.42119e-09
1.42119e-09
1.42119e-09
1.42117e-09
1.4212e-09
1.42116e-09
1.42121e-09
1.42115e-09
1.42121e-09
1.42111e-09
1.42121e-09
1.42109e-09
1.42122e-09
1.42105e-09
1.42126e-09
1.42102e-09
1.42135e-09
1.42105e-09
1.42166e-09
1.42128e-09
1.42213e-09
1.42118e-09
1.42027e-09
1.41552e-09
1.40594e-09
1.39549e-09
)
;
    }
}


// ************************************************************************* //
