/*--------------------------------*- C++ -*----------------------------------*\
| =========                 |                                                 |
| \\      /  F ield         | OpenFOAM: The Open Source CFD Toolbox           |
|  \\    /   O peration     | Version:  dev                                   |
|   \\  /    A nd           | Web:      www.OpenFOAM.org                      |
|    \\/     M anipulation  |                                                 |
\*---------------------------------------------------------------------------*/
FoamFile
{
    version     2.0;
    format      ascii;
    class       volScalarField;
    location    "0.035";
    object      C2H;
}
// * * * * * * * * * * * * * * * * * * * * * * * * * * * * * * * * * * * * * //

dimensions      [0 0 0 0 0 0 0];

internalField   nonuniform List<scalar> 
12
(
7.25756e-12
4.39272e-12
2.67169e-12
1.64195e-12
1.02249e-12
6.44453e-13
4.09291e-13
2.60473e-13
1.64487e-13
1.03528e-13
6.46648e-14
4.01376e-14
)
;

boundaryField
{
    wall
    {
        type            zeroGradient;
    }
    fuel
    {
        type            fixedValue;
        value           nonuniform 0();
    }
    outlet
    {
        type            inletOutlet;
        inletValue      nonuniform 0();
        value           nonuniform 0();
    }
    procBoundary4to3
    {
        type            processor;
        value           uniform 1.19016e-11;
    }
    procBoundary4to5
    {
        type            processor;
        value           uniform 2.48187e-14;
    }
}


// ************************************************************************* //
