/*--------------------------------*- C++ -*----------------------------------*\
| =========                 |                                                 |
| \\      /  F ield         | OpenFOAM: The Open Source CFD Toolbox           |
|  \\    /   O peration     | Version:  dev                                   |
|   \\  /    A nd           | Web:      www.OpenFOAM.org                      |
|    \\/     M anipulation  |                                                 |
\*---------------------------------------------------------------------------*/
FoamFile
{
    version     2.0;
    format      ascii;
    class       volScalarField;
    location    "0.0235";
    object      moment.3.populationBalance;
}
// * * * * * * * * * * * * * * * * * * * * * * * * * * * * * * * * * * * * * //

dimensions      [0 6 0 0 0 0 0];

internalField   nonuniform List<scalar> 
251
(
8.66522e+12
8.43768e+12
8.21622e+12
8.00067e+12
7.79088e+12
7.58669e+12
7.38795e+12
7.19451e+12
7.00623e+12
6.82298e+12
6.64461e+12
6.47099e+12
6.302e+12
6.13751e+12
5.9774e+12
5.82155e+12
5.66984e+12
5.52217e+12
5.37842e+12
5.2385e+12
5.10228e+12
4.96968e+12
4.8406e+12
4.71494e+12
4.59261e+12
4.47352e+12
4.35758e+12
4.2447e+12
4.13481e+12
4.02782e+12
3.92365e+12
3.82223e+12
3.72349e+12
3.62734e+12
3.53373e+12
3.44257e+12
3.35381e+12
3.26739e+12
3.18323e+12
3.10128e+12
3.02147e+12
2.94375e+12
2.86807e+12
2.79437e+12
2.72259e+12
2.65268e+12
2.5846e+12
2.51829e+12
2.45371e+12
2.3908e+12
2.32953e+12
2.26986e+12
2.21173e+12
2.15511e+12
2.09995e+12
2.04622e+12
1.99388e+12
1.9429e+12
1.89322e+12
1.84483e+12
1.79769e+12
1.75176e+12
1.70701e+12
1.66341e+12
1.62092e+12
1.57953e+12
1.5392e+12
1.4999e+12
1.46161e+12
1.42429e+12
1.38792e+12
1.35249e+12
1.31795e+12
1.2843e+12
1.2515e+12
1.21953e+12
1.18837e+12
1.158e+12
1.1284e+12
1.09954e+12
1.07141e+12
1.04398e+12
1.01722e+12
9.91126e+11
9.6566e+11
9.408e+11
9.16517e+11
8.92781e+11
8.69558e+11
8.46809e+11
8.24495e+11
8.02568e+11
7.80977e+11
7.59667e+11
7.38577e+11
7.17643e+11
6.96797e+11
6.75968e+11
6.55085e+11
6.3408e+11
6.12885e+11
5.91441e+11
5.69696e+11
5.47609e+11
5.25153e+11
5.02318e+11
4.79112e+11
4.5556e+11
4.31709e+11
4.07624e+11
3.83391e+11
3.59111e+11
3.34901e+11
3.10888e+11
2.87208e+11
2.63999e+11
2.414e+11
2.19543e+11
1.98552e+11
1.78539e+11
1.59599e+11
1.41811e+11
1.25232e+11
1.099e+11
9.58321e+10
8.30266e+10
7.14625e+10
6.1103e+10
5.18968e+10
4.37811e+10
3.66841e+10
3.05278e+10
2.52303e+10
2.07082e+10
1.68789e+10
1.36621e+10
1.09813e+10
8.76495e+09
6.94695e+09
5.46748e+09
4.27294e+09
3.31597e+09
2.55529e+09
1.95531e+09
1.48573e+09
1.12102e+09
8.39936e+08
6.24939e+08
4.61736e+08
3.38782e+08
2.46845e+08
1.78613e+08
1.28349e+08
9.15946e+07
6.49164e+07
4.56934e+07
3.19431e+07
2.21785e+07
1.52943e+07
1.04755e+07
7.12662e+06
4.81571e+06
3.23234e+06
2.15507e+06
1.42727e+06
938989
613669
398416
256968
164654
104815
66290.2
41653.7
26004.6
16130.5
9941.68
6088.25
3704.75
2240.1
1345.96
803.633
476.824
281.153
164.749
95.9413
55.5269
31.9393
18.2592
10.3749
5.85921
3.28896
1.83506
1.01772
0.561043
0.307445
0.167476
0.0906894
0.0488194
0.0261257
0.0138993
0.00735151
0.00386569
0.00202095
0.00105043
0.000542845
0.000278925
0.000142498
7.23859e-05
3.65618e-05
1.83628e-05
9.17056e-06
4.55416e-06
2.24898e-06
1.10441e-06
5.39336e-07
2.61923e-07
1.26498e-07
6.07571e-08
2.90213e-08
1.37863e-08
6.51303e-09
3.05988e-09
1.42941e-09
6.63746e-10
3.06138e-10
1.40004e-10
6.32202e-11
2.79032e-11
1.17383e-11
4.33529e-12
9.76772e-13
0
0
0
0
0
0
0
0
0
0
0
0
0
0
0
0
0
0
0
0
)
;

boundaryField
{
    wall
    {
        type            zeroGradient;
    }
    fuel
    {
        type            fixedValue;
        value           uniform 8.899e+12;
    }
    outlet
    {
        type            inletOutlet;
        inletValue      nonuniform 0();
        value           nonuniform 0();
    }
    procBoundary0to1
    {
        type            processor;
        value           uniform 0;
    }
}


// ************************************************************************* //
