/*--------------------------------*- C++ -*----------------------------------*\
| =========                 |                                                 |
| \\      /  F ield         | OpenFOAM: The Open Source CFD Toolbox           |
|  \\    /   O peration     | Version:  dev                                   |
|   \\  /    A nd           | Web:      www.OpenFOAM.org                      |
|    \\/     M anipulation  |                                                 |
\*---------------------------------------------------------------------------*/
FoamFile
{
    version     2.0;
    format      ascii;
    class       volScalarField;
    location    "0.055";
    object      A1C2H-;
}
// * * * * * * * * * * * * * * * * * * * * * * * * * * * * * * * * * * * * * //

dimensions      [0 0 0 0 0 0 0];

internalField   nonuniform List<scalar> 
25
(
4.56438e-14
5.94958e-14
7.61908e-14
9.57756e-14
1.181e-13
1.42834e-13
1.69604e-13
1.98476e-13
2.27678e-13
2.56797e-13
2.85224e-13
3.12395e-13
3.37704e-13
3.6053e-13
3.80727e-13
3.97151e-13
4.09578e-13
4.17643e-13
4.21225e-13
4.20318e-13
4.14822e-13
4.05112e-13
3.91409e-13
3.74108e-13
3.52316e-13
)
;

boundaryField
{
    wall
    {
        type            zeroGradient;
    }
    fuel
    {
        type            fixedValue;
        value           nonuniform 0();
    }
    outlet
    {
        type            inletOutlet;
        inletValue      nonuniform 0();
        value           nonuniform 0();
    }
    procBoundary2to1
    {
        type            processor;
        value           uniform 3.45549e-14;
    }
    procBoundary2to3
    {
        type            processor;
        value           uniform 3.27983e-13;
    }
}


// ************************************************************************* //
