/*--------------------------------*- C++ -*----------------------------------*\
| =========                 |                                                 |
| \\      /  F ield         | OpenFOAM: The Open Source CFD Toolbox           |
|  \\    /   O peration     | Version:  dev                                   |
|   \\  /    A nd           | Web:      www.OpenFOAM.org                      |
|    \\/     M anipulation  |                                                 |
\*---------------------------------------------------------------------------*/
FoamFile
{
    version     2.0;
    format      ascii;
    class       volScalarField;
    location    "0.055";
    object      A1C2H-;
}
// * * * * * * * * * * * * * * * * * * * * * * * * * * * * * * * * * * * * * //

dimensions      [0 0 0 0 0 0 0];

internalField   nonuniform List<scalar> 
250
(
5.17162e-09
8.16606e-07
7.55016e-07
7.44054e-07
7.42851e-07
7.43514e-07
7.42549e-07
7.42474e-07
7.42606e-07
3.88462e-09
8.20611e-07
6.37895e-07
6.15737e-07
6.13056e-07
6.13075e-07
6.12962e-07
6.12719e-07
6.12762e-07
1.68817e-09
6.3425e-07
4.28074e-07
4.04655e-07
4.01967e-07
4.01647e-07
4.01717e-07
4.01603e-07
4.01648e-07
8.09961e-10
4.61579e-07
2.72013e-07
2.51583e-07
2.49244e-07
2.48925e-07
2.49028e-07
2.48917e-07
2.48983e-07
4.41246e-10
3.36007e-07
1.74572e-07
1.58058e-07
1.56225e-07
1.56016e-07
1.56107e-07
1.56008e-07
1.56079e-07
2.7177e-10
2.50053e-07
1.16591e-07
1.0145e-07
9.92211e-08
9.8975e-08
9.90628e-08
9.89298e-08
9.90217e-08
1.94418e-10
1.8909e-07
8.18921e-08
6.94156e-08
6.76123e-08
6.74906e-08
6.75559e-08
6.74531e-08
6.75302e-08
2.19941e-10
1.47646e-07
6.05029e-08
5.00911e-08
4.79111e-08
4.75306e-08
4.75741e-08
4.74527e-08
4.75396e-08
2.77652e-10
1.1783e-07
4.65937e-08
3.734e-08
3.60204e-08
3.56914e-08
3.57211e-08
3.56164e-08
3.56935e-08
3.66208e-10
9.58014e-08
3.6291e-08
2.83916e-08
2.72308e-08
2.69742e-08
2.69905e-08
2.69034e-08
2.69679e-08
5.61527e-10
7.91679e-08
2.90655e-08
2.3049e-08
2.19934e-08
2.17826e-08
2.17915e-08
2.17125e-08
2.17716e-08
2.17484e-08
9.00052e-10
6.63929e-08
2.44213e-08
1.89758e-08
1.79135e-08
1.77116e-08
1.77139e-08
1.7643e-08
1.76958e-08
1.7671e-08
1.36031e-09
5.53316e-08
2.04605e-08
1.59181e-08
1.49543e-08
1.47723e-08
1.47701e-08
1.47047e-08
1.47529e-08
1.4728e-08
1.94613e-09
4.54722e-08
1.7709e-08
1.36231e-08
1.27425e-08
1.25742e-08
1.25689e-08
1.25074e-08
1.25522e-08
1.25271e-08
2.64602e-09
3.86071e-08
1.52482e-08
1.18407e-08
1.10326e-08
1.08744e-08
1.08671e-08
1.08083e-08
1.08506e-08
1.08253e-08
3.38562e-09
3.29123e-08
1.32524e-08
1.04136e-08
9.66959e-09
9.51936e-09
9.51091e-09
9.45411e-09
9.49452e-09
9.46893e-09
4.10017e-09
2.8126e-08
1.1596e-08
9.24082e-09
8.55423e-09
8.41085e-09
8.40177e-09
8.34675e-09
8.38547e-09
8.3598e-09
4.76228e-09
2.41198e-08
1.0344e-08
8.25645e-09
7.62185e-09
7.48483e-09
7.47552e-09
7.42235e-09
7.4594e-09
7.43392e-09
5.37117e-09
2.05484e-08
9.21819e-09
7.41578e-09
6.82935e-09
6.69869e-09
6.68944e-09
6.63842e-09
6.67363e-09
6.6487e-09
5.93429e-09
1.77048e-08
8.20148e-09
6.6888e-09
6.14719e-09
6.0232e-09
6.0142e-09
5.96578e-09
5.99889e-09
5.97491e-09
6.44133e-09
1.48377e-08
7.33671e-09
6.05465e-09
5.55426e-09
5.43742e-09
5.42882e-09
5.38356e-09
5.41419e-09
5.39161e-09
6.87889e-09
1.27623e-08
6.59999e-09
5.49784e-09
5.03426e-09
4.9251e-09
4.917e-09
4.87552e-09
4.90322e-09
4.8825e-09
7.2161e-09
1.10445e-08
5.96603e-09
5.00576e-09
4.62694e-09
4.52568e-09
4.51789e-09
4.47968e-09
4.50502e-09
4.48595e-09
7.42692e-09
9.6278e-09
5.41483e-09
4.62185e-09
4.26372e-09
4.16691e-09
4.16048e-09
4.12167e-09
4.14749e-09
4.12729e-09
7.49988e-09
8.4614e-09
4.98302e-09
4.25419e-09
3.9545e-09
3.86491e-09
3.85894e-09
3.8231e-09
3.84682e-09
3.82811e-09
7.44401e-09
7.49822e-09
4.57833e-09
3.95489e-09
3.6819e-09
3.60166e-09
3.5962e-09
3.56319e-09
3.58494e-09
3.56762e-09
)
;

boundaryField
{
    fuel
    {
        type            fixedValue;
        value           uniform 0;
    }
    wall
    {
        type            zeroGradient;
    }
    outlet
    {
        type            zeroGradient;
    }
    frontAndBack
    {
        type            empty;
    }
    procBoundary2to0
    {
        type            processor;
        value           nonuniform List<scalar> 
12
(
3.83187e-09
7.26893e-09
6.65227e-09
4.24224e-09
3.69e-09
3.44417e-09
3.37078e-09
3.36575e-09
3.33537e-09
3.35535e-09
3.57162e-09
3.33929e-09
)
;
    }
    procBoundary2to3
    {
        type            processor;
        value           nonuniform List<scalar> 
25
(
7.43578e-07
6.13076e-07
4.01685e-07
2.48955e-07
1.56041e-07
9.8981e-08
6.74967e-08
4.75046e-08
3.56626e-08
2.6943e-08
2.6943e-08
2.17297e-08
1.76585e-08
1.4719e-08
1.2521e-08
1.08214e-08
9.46701e-09
8.3595e-09
7.43492e-09
6.65071e-09
5.97767e-09
5.39487e-09
4.88605e-09
4.48957e-09
4.13111e-09
)
;
    }
}


// ************************************************************************* //
