/*--------------------------------*- C++ -*----------------------------------*\
| =========                 |                                                 |
| \\      /  F ield         | OpenFOAM: The Open Source CFD Toolbox           |
|  \\    /   O peration     | Version:  dev                                   |
|   \\  /    A nd           | Web:      www.OpenFOAM.org                      |
|    \\/     M anipulation  |                                                 |
\*---------------------------------------------------------------------------*/
FoamFile
{
    version     2.0;
    format      ascii;
    class       volScalarField;
    location    "0.055";
    object      A1C2H3*;
}
// * * * * * * * * * * * * * * * * * * * * * * * * * * * * * * * * * * * * * //

dimensions      [0 0 0 0 0 0 0];

internalField   nonuniform List<scalar> 
250
(
1.81385e-10
8.7726e-09
4.94483e-09
4.6732e-09
4.63006e-09
4.6021e-09
4.63583e-09
4.64154e-09
4.63757e-09
1.63339e-10
4.00679e-09
2.15091e-09
2.00872e-09
1.99188e-09
1.98602e-09
1.99247e-09
1.99321e-09
1.99251e-09
8.82655e-11
2.1363e-09
9.96164e-10
9.12009e-10
9.02716e-10
9.0082e-10
9.02223e-10
9.0231e-10
9.02216e-10
5.00139e-11
1.31054e-09
4.9742e-10
4.43638e-10
4.37909e-10
4.37054e-10
4.37454e-10
4.37359e-10
4.37412e-10
3.11722e-11
8.85722e-10
2.69749e-10
2.34046e-10
2.30444e-10
2.30045e-10
2.30201e-10
2.30101e-10
2.30178e-10
2.28739e-11
6.46892e-10
1.63423e-10
1.34839e-10
1.31196e-10
1.30811e-10
1.30913e-10
1.3076e-10
1.30868e-10
2.42379e-11
4.91162e-10
1.09775e-10
8.7478e-11
8.47355e-11
8.45534e-11
8.46167e-11
8.45085e-11
8.45935e-11
4.321e-11
3.89758e-10
8.00171e-11
6.18133e-11
5.87447e-11
5.82583e-11
5.82949e-11
5.81637e-11
5.82603e-11
8.64257e-11
3.16878e-10
6.17641e-11
4.59146e-11
4.39897e-11
4.35742e-11
4.35965e-11
4.34851e-11
4.35698e-11
1.77268e-10
2.61402e-10
4.86253e-11
3.51319e-11
3.34498e-11
3.31239e-11
3.31326e-11
3.30405e-11
3.3111e-11
3.52597e-10
2.17513e-10
3.94922e-11
2.87972e-11
2.72706e-11
2.69998e-11
2.70014e-11
2.69175e-11
2.69823e-11
2.69555e-11
5.16572e-10
1.81934e-10
3.36138e-11
2.4005e-11
2.24948e-11
2.22348e-11
2.22299e-11
2.21543e-11
2.22123e-11
2.21863e-11
5.71029e-10
1.49575e-10
2.85597e-11
2.04167e-11
1.90407e-11
1.88038e-11
1.87943e-11
1.87243e-11
1.87774e-11
1.87516e-11
5.24631e-10
1.19801e-10
2.50124e-11
1.77231e-11
1.64598e-11
1.62385e-11
1.6226e-11
1.61597e-11
1.62093e-11
1.61833e-11
4.17192e-10
9.86927e-11
2.18084e-11
1.56282e-11
1.44632e-11
1.42534e-11
1.42389e-11
1.41753e-11
1.42222e-11
1.41959e-11
2.95263e-10
8.1244e-11
1.91853e-11
1.39488e-11
1.28711e-11
1.26704e-11
1.26547e-11
1.25931e-11
1.26379e-11
1.26114e-11
1.94438e-10
6.69125e-11
1.69927e-11
1.25685e-11
1.15695e-11
1.13767e-11
1.13603e-11
1.13007e-11
1.13435e-11
1.1317e-11
1.25773e-10
5.53436e-11
1.53303e-11
1.14121e-11
1.0485e-11
1.02995e-11
1.02829e-11
1.02254e-11
1.02662e-11
1.02401e-11
8.38617e-11
4.54874e-11
1.38354e-11
1.04292e-11
9.56906e-12
9.39105e-12
9.37446e-12
9.31963e-12
9.35803e-12
9.333e-12
5.93907e-11
3.80215e-11
1.2492e-11
9.58687e-12
8.78929e-12
8.61914e-12
8.60281e-12
8.5514e-12
8.58693e-12
8.56351e-12
4.50395e-11
3.09215e-11
1.13618e-11
8.86289e-12
8.12311e-12
7.96152e-12
7.94555e-12
7.8985e-12
7.9305e-12
7.90942e-12
3.63295e-11
2.60266e-11
1.04185e-11
8.24164e-12
7.55435e-12
7.40211e-12
7.38656e-12
7.34494e-12
7.3726e-12
7.35468e-12
3.07353e-11
2.21723e-11
9.6316e-12
7.71181e-12
7.12971e-12
6.98715e-12
6.97176e-12
6.93523e-12
6.95902e-12
6.94419e-12
2.68922e-11
1.9154e-11
8.97834e-12
7.32329e-12
6.776e-12
6.63974e-12
6.62553e-12
6.59055e-12
6.61302e-12
6.5988e-12
2.40752e-11
1.68047e-11
8.50337e-12
6.98099e-12
6.50577e-12
6.37884e-12
6.36481e-12
6.33541e-12
6.35358e-12
6.34297e-12
2.19062e-11
1.49883e-11
8.10154e-12
6.73954e-12
6.3053e-12
6.1897e-12
6.17569e-12
6.15235e-12
6.16583e-12
6.15927e-12
)
;

boundaryField
{
    fuel
    {
        type            fixedValue;
        value           uniform 0;
    }
    wall
    {
        type            zeroGradient;
    }
    outlet
    {
        type            zeroGradient;
    }
    frontAndBack
    {
        type            empty;
    }
    procBoundary2to0
    {
        type            processor;
        value           nonuniform List<scalar> 
12
(
6.34632e-12
2.01988e-11
1.35142e-11
7.81877e-12
6.56956e-12
6.17563e-12
6.06948e-12
6.05531e-12
6.03835e-12
6.04686e-12
6.16221e-12
6.04468e-12
)
;
    }
    procBoundary2to3
    {
        type            processor;
        value           nonuniform List<scalar> 
25
(
4.60372e-09
1.98508e-09
9.00695e-10
4.37056e-10
2.30067e-10
1.30808e-10
8.45551e-11
5.82224e-11
4.3537e-11
3.30834e-11
3.30834e-11
2.69378e-11
2.21726e-11
1.87414e-11
1.61761e-11
1.41912e-11
1.26089e-11
1.13163e-11
1.02409e-11
9.33495e-12
8.5663e-12
7.91274e-12
7.35824e-12
6.94771e-12
6.60244e-12
)
;
    }
}


// ************************************************************************* //
