/*--------------------------------*- C++ -*----------------------------------*\
| =========                 |                                                 |
| \\      /  F ield         | OpenFOAM: The Open Source CFD Toolbox           |
|  \\    /   O peration     | Version:  dev                                   |
|   \\  /    A nd           | Web:      www.OpenFOAM.org                      |
|    \\/     M anipulation  |                                                 |
\*---------------------------------------------------------------------------*/
FoamFile
{
    version     2.0;
    format      ascii;
    class       volScalarField;
    location    "0.055";
    object      A1C2H3;
}
// * * * * * * * * * * * * * * * * * * * * * * * * * * * * * * * * * * * * * //

dimensions      [0 0 0 0 0 0 0];

internalField   nonuniform List<scalar> 
250
(
5.2976e-07
1.90437e-07
9.31257e-08
8.64074e-08
8.55692e-08
8.52847e-08
8.55942e-08
8.56213e-08
8.56318e-08
1.21479e-06
9.47916e-08
4.35604e-08
3.99852e-08
3.96117e-08
3.95753e-08
3.96295e-08
3.96022e-08
3.96041e-08
1.69681e-06
6.61343e-08
2.46957e-08
2.21319e-08
2.18612e-08
2.18357e-08
2.18443e-08
2.18405e-08
2.18399e-08
2.02147e-06
5.73254e-08
1.60921e-08
1.38819e-08
1.36578e-08
1.36364e-08
1.36374e-08
1.3636e-08
1.36365e-08
2.22022e-06
5.32831e-08
1.13158e-08
9.37467e-09
9.18505e-09
9.16872e-09
9.16855e-09
9.16711e-09
9.16859e-09
2.34102e-06
5.05993e-08
8.52321e-09
6.67238e-09
6.46661e-09
6.44785e-09
6.44847e-09
6.44423e-09
6.44761e-09
2.43409e-06
4.77629e-08
6.74412e-09
5.03878e-09
4.85311e-09
4.83986e-09
4.84037e-09
4.83654e-09
4.83994e-09
2.53437e-06
4.54587e-08
5.51792e-09
3.94831e-09
3.73803e-09
3.70824e-09
3.70841e-09
3.70243e-09
3.70712e-09
2.61603e-06
4.28738e-08
4.61413e-09
3.14905e-09
2.99271e-09
2.96491e-09
2.96481e-09
2.95909e-09
2.96368e-09
2.57817e-06
3.96743e-08
3.85809e-09
2.53451e-09
2.39092e-09
2.36716e-09
2.3666e-09
2.36148e-09
2.36561e-09
2.32833e-06
3.57799e-08
3.26982e-09
2.14349e-09
2.00962e-09
1.98875e-09
1.98791e-09
1.98302e-09
1.98699e-09
1.98576e-09
1.87557e-06
3.13614e-08
2.86e-09
1.83123e-09
1.69893e-09
1.67841e-09
1.67726e-09
1.67274e-09
1.67638e-09
1.67496e-09
1.34474e-06
2.63385e-08
2.4853e-09
1.58911e-09
1.46671e-09
1.44758e-09
1.44619e-09
1.44194e-09
1.44532e-09
1.44387e-09
8.64224e-07
2.10683e-08
2.21043e-09
1.40356e-09
1.28994e-09
1.27182e-09
1.27025e-09
1.26622e-09
1.26937e-09
1.26791e-09
5.03756e-07
1.70314e-08
1.95504e-09
1.25771e-09
1.15206e-09
1.13471e-09
1.13302e-09
1.12916e-09
1.13213e-09
1.13067e-09
2.73447e-07
1.36258e-08
1.74182e-09
1.14049e-09
1.0421e-09
1.02538e-09
1.02361e-09
1.01991e-09
1.02272e-09
1.02128e-09
1.43666e-07
1.08562e-08
1.5617e-09
1.04454e-09
9.52837e-10
9.3668e-10
9.34863e-10
9.31343e-10
9.33973e-10
9.32588e-10
7.63102e-08
8.67527e-09
1.42484e-09
9.65068e-10
8.79565e-10
8.63945e-10
8.62103e-10
8.58799e-10
8.6123e-10
8.59941e-10
4.25653e-08
6.87825e-09
1.30253e-09
8.98885e-10
8.19224e-10
8.04152e-10
8.023e-10
7.99277e-10
8.01466e-10
8.0033e-10
2.55197e-08
5.56819e-09
1.19443e-09
8.44011e-10
7.69867e-10
7.55383e-10
7.53525e-10
7.50873e-10
7.52756e-10
7.51846e-10
1.65439e-08
4.37816e-09
1.10608e-09
7.99287e-10
7.30313e-10
7.16481e-10
7.14615e-10
7.12445e-10
7.1394e-10
7.13345e-10
1.15325e-08
3.59308e-09
1.03622e-09
7.64125e-10
6.99997e-10
6.86896e-10
6.85011e-10
6.83461e-10
6.84464e-10
6.8429e-10
8.54862e-09
3.00287e-09
9.82991e-10
7.38455e-10
6.81646e-10
6.693e-10
6.67371e-10
6.66477e-10
6.66969e-10
6.67257e-10
6.66485e-09
2.56355e-09
9.45479e-10
7.24976e-10
6.72152e-10
6.6052e-10
6.58554e-10
6.58357e-10
6.58295e-10
6.59092e-10
5.42066e-09
2.24123e-09
9.26351e-10
7.20845e-10
6.72729e-10
6.6196e-10
6.59896e-10
6.60658e-10
6.59837e-10
6.61351e-10
4.57393e-09
2.00987e-09
9.21746e-10
7.28215e-10
6.84356e-10
6.74449e-10
6.72231e-10
6.74186e-10
6.72412e-10
6.7484e-10
)
;

boundaryField
{
    fuel
    {
        type            fixedValue;
        value           uniform 0;
    }
    wall
    {
        type            zeroGradient;
    }
    outlet
    {
        type            zeroGradient;
    }
    frontAndBack
    {
        type            empty;
    }
    procBoundary2to0
    {
        type            processor;
        value           nonuniform List<scalar> 
12
(
6.61257e-10
4.00041e-09
1.84382e-09
9.33991e-10
7.48326e-10
7.0862e-10
6.99745e-10
6.97311e-10
7.00742e-10
6.97776e-10
6.74674e-10
7.01361e-10
)
;
    }
    procBoundary2to3
    {
        type            processor;
        value           nonuniform List<scalar> 
25
(
8.52912e-08
3.95156e-08
2.18226e-08
1.36323e-08
9.16676e-09
6.44594e-09
4.8385e-09
3.70537e-09
2.96204e-09
2.36431e-09
2.36431e-09
1.98441e-09
1.67403e-09
1.44318e-09
1.26741e-09
1.13033e-09
1.02108e-09
9.32501e-10
8.59949e-10
8.00409e-10
7.5197e-10
7.13486e-10
6.84419e-10
6.67343e-10
6.59092e-10
)
;
    }
}


// ************************************************************************* //
