/*--------------------------------*- C++ -*----------------------------------*\
| =========                 |                                                 |
| \\      /  F ield         | OpenFOAM: The Open Source CFD Toolbox           |
|  \\    /   O peration     | Version:  dev                                   |
|   \\  /    A nd           | Web:      www.OpenFOAM.org                      |
|    \\/     M anipulation  |                                                 |
\*---------------------------------------------------------------------------*/
FoamFile
{
    version     2.0;
    format      ascii;
    class       volScalarField;
    location    "0.055";
    object      A3C2H2;
}
// * * * * * * * * * * * * * * * * * * * * * * * * * * * * * * * * * * * * * //

dimensions      [0 0 0 0 0 0 0];

internalField   nonuniform List<scalar> 
25
(
5.90756e-21
6.2499e-21
6.59024e-21
6.93123e-21
7.27524e-21
7.62487e-21
7.98423e-21
8.36443e-21
8.75389e-21
9.15882e-21
9.58196e-21
1.00255e-20
1.04901e-20
1.09738e-20
1.14843e-20
1.20019e-20
1.25271e-20
1.30492e-20
1.35589e-20
1.40461e-20
1.45133e-20
1.49154e-20
1.52539e-20
1.55173e-20
1.56933e-20
)
;

boundaryField
{
    wall
    {
        type            zeroGradient;
    }
    fuel
    {
        type            fixedValue;
        value           nonuniform 0();
    }
    outlet
    {
        type            inletOutlet;
        inletValue      nonuniform 0();
        value           nonuniform 0();
    }
    procBoundary2to1
    {
        type            processor;
        value           uniform 5.5647e-21;
    }
    procBoundary2to3
    {
        type            processor;
        value           uniform 1.57467e-20;
    }
}


// ************************************************************************* //
