/*--------------------------------*- C++ -*----------------------------------*\
| =========                 |                                                 |
| \\      /  F ield         | OpenFOAM: The Open Source CFD Toolbox           |
|  \\    /   O peration     | Version:  dev                                   |
|   \\  /    A nd           | Web:      www.OpenFOAM.org                      |
|    \\/     M anipulation  |                                                 |
\*---------------------------------------------------------------------------*/
FoamFile
{
    version     2.0;
    format      ascii;
    class       volScalarField;
    location    "0.055";
    object      AC3H4;
}
// * * * * * * * * * * * * * * * * * * * * * * * * * * * * * * * * * * * * * //

dimensions      [0 0 0 0 0 0 0];

internalField   nonuniform List<scalar> 
250
(
6.94182e-06
6.487e-06
4.42865e-06
4.25044e-06
4.23384e-06
4.23683e-06
4.23071e-06
4.22777e-06
4.23209e-06
1.82623e-05
3.43214e-06
2.47403e-06
2.38731e-06
2.37818e-06
2.37755e-06
2.37623e-06
2.37635e-06
2.37735e-06
2.79314e-05
2.4358e-06
1.78792e-06
1.72605e-06
1.71882e-06
1.71806e-06
1.71776e-06
1.71776e-06
1.71804e-06
3.46152e-05
2.14729e-06
1.56888e-06
1.51088e-06
1.50339e-06
1.50249e-06
1.5024e-06
1.5023e-06
1.50244e-06
3.81673e-05
2.05891e-06
1.49375e-06
1.43301e-06
1.42446e-06
1.42336e-06
1.42332e-06
1.42312e-06
1.42328e-06
3.91641e-05
2.01192e-06
1.45598e-06
1.38942e-06
1.37857e-06
1.3771e-06
1.37711e-06
1.37672e-06
1.37699e-06
3.84107e-05
1.9633e-06
1.42483e-06
1.35425e-06
1.3417e-06
1.33995e-06
1.33998e-06
1.33945e-06
1.33982e-06
3.66184e-05
1.91942e-06
1.39292e-06
1.31932e-06
1.3035e-06
1.30054e-06
1.30057e-06
1.29978e-06
1.30032e-06
3.42978e-05
1.87056e-06
1.3588e-06
1.28158e-06
1.26615e-06
1.26276e-06
1.26278e-06
1.26182e-06
1.26248e-06
3.14836e-05
1.81484e-06
1.31914e-06
1.24025e-06
1.22313e-06
1.2194e-06
1.21938e-06
1.21826e-06
1.21903e-06
2.77353e-05
1.75218e-06
1.2784e-06
1.20477e-06
1.18618e-06
1.18218e-06
1.18211e-06
1.18084e-06
1.18172e-06
1.18132e-06
2.28989e-05
1.68391e-06
1.24267e-06
1.16706e-06
1.14577e-06
1.1412e-06
1.14107e-06
1.13965e-06
1.14064e-06
1.14011e-06
1.75679e-05
1.60545e-06
1.20238e-06
1.12901e-06
1.10633e-06
1.10144e-06
1.10124e-06
1.09967e-06
1.10076e-06
1.10014e-06
1.24479e-05
1.5185e-06
1.16724e-06
1.09214e-06
1.06826e-06
1.06306e-06
1.06279e-06
1.06108e-06
1.06227e-06
1.06155e-06
8.12654e-06
1.44689e-06
1.12854e-06
1.05651e-06
1.03166e-06
1.02617e-06
1.02584e-06
1.02399e-06
1.02527e-06
1.02446e-06
5.00629e-06
1.38044e-06
1.09093e-06
1.02218e-06
9.96606e-07
9.9085e-07
9.90459e-07
9.8848e-07
9.89848e-07
9.88958e-07
3.06536e-06
1.32002e-06
1.05437e-06
9.89232e-07
9.6315e-07
9.57159e-07
9.5672e-07
9.54627e-07
9.56068e-07
9.55103e-07
1.99643e-06
1.26595e-06
1.02281e-06
9.57718e-07
9.31343e-07
9.25156e-07
9.24677e-07
9.22495e-07
9.2399e-07
9.22964e-07
1.46276e-06
1.21406e-06
9.90859e-07
9.27683e-07
9.01226e-07
8.94892e-07
8.94382e-07
8.92143e-07
8.93668e-07
8.92602e-07
1.21725e-06
1.16909e-06
9.58778e-07
8.99181e-07
8.72829e-07
8.66406e-07
8.65873e-07
8.63617e-07
8.65142e-07
8.64061e-07
1.11133e-06
1.11921e-06
9.28783e-07
8.7227e-07
8.46158e-07
8.39714e-07
8.39166e-07
8.3694e-07
8.3843e-07
8.37364e-07
1.06702e-06
1.07936e-06
9.00927e-07
8.46982e-07
8.21187e-07
8.14793e-07
8.14236e-07
8.12095e-07
8.13508e-07
8.12492e-07
1.04692e-06
1.04265e-06
8.75078e-07
8.23317e-07
8.0061e-07
7.94358e-07
7.93789e-07
7.9174e-07
7.93081e-07
7.9212e-07
1.03465e-06
1.00885e-06
8.51114e-07
8.04032e-07
7.81505e-07
7.75247e-07
7.74725e-07
7.72572e-07
7.73984e-07
7.72935e-07
1.02371e-06
9.77826e-07
8.31386e-07
7.84885e-07
7.64752e-07
7.58686e-07
7.5817e-07
7.56126e-07
7.57454e-07
7.56468e-07
1.01198e-06
9.4939e-07
8.12139e-07
7.68927e-07
7.49714e-07
7.44005e-07
7.43499e-07
7.41577e-07
7.42813e-07
7.41898e-07
)
;

boundaryField
{
    fuel
    {
        type            fixedValue;
        value           uniform 0;
    }
    wall
    {
        type            zeroGradient;
    }
    outlet
    {
        type            zeroGradient;
    }
    frontAndBack
    {
        type            empty;
    }
    procBoundary2to0
    {
        type            processor;
        value           nonuniform List<scalar> 
12
(
7.56684e-07
9.98401e-07
9.21715e-07
7.95716e-07
7.54658e-07
7.36554e-07
7.31109e-07
7.30611e-07
7.28822e-07
7.29961e-07
7.42144e-07
7.29121e-07
)
;
    }
    procBoundary2to3
    {
        type            processor;
        value           nonuniform List<scalar> 
25
(
4.23626e-06
2.37822e-06
1.7182e-06
1.50243e-06
1.4232e-06
1.37685e-06
1.33964e-06
1.30006e-06
1.26217e-06
1.21869e-06
1.21869e-06
1.18111e-06
1.13995e-06
1.10001e-06
1.06146e-06
1.02441e-06
9.88945e-07
9.55133e-07
9.23037e-07
8.92713e-07
8.64207e-07
8.37538e-07
8.12686e-07
7.92321e-07
7.73147e-07
)
;
    }
}


// ************************************************************************* //
