/*--------------------------------*- C++ -*----------------------------------*\
| =========                 |                                                 |
| \\      /  F ield         | OpenFOAM: The Open Source CFD Toolbox           |
|  \\    /   O peration     | Version:  dev                                   |
|   \\  /    A nd           | Web:      www.OpenFOAM.org                      |
|    \\/     M anipulation  |                                                 |
\*---------------------------------------------------------------------------*/
FoamFile
{
    version     2.0;
    format      ascii;
    class       volScalarField;
    location    "0.055";
    object      AC3H4;
}
// * * * * * * * * * * * * * * * * * * * * * * * * * * * * * * * * * * * * * //

dimensions      [0 0 0 0 0 0 0];

internalField   nonuniform List<scalar> 
250
(
2.97304e-06
2.47372e-05
2.0284e-05
1.9766e-05
1.96902e-05
1.96758e-05
1.96758e-05
1.9674e-05
1.96739e-05
7.24844e-06
4.407e-06
3.695e-06
3.60658e-06
3.59325e-06
3.5912e-06
3.59082e-06
3.59077e-06
3.59077e-06
1.10629e-05
2.20324e-06
1.92174e-06
1.87802e-06
1.87145e-06
1.8704e-06
1.8702e-06
1.87023e-06
1.87023e-06
1.45527e-05
1.851e-06
1.63669e-06
1.59506e-06
1.58874e-06
1.58769e-06
1.58751e-06
1.58753e-06
1.58754e-06
1.78455e-05
1.75806e-06
1.55115e-06
1.50437e-06
1.49725e-06
1.49604e-06
1.49582e-06
1.49583e-06
1.49585e-06
2.11896e-05
1.71676e-06
1.49351e-06
1.44548e-06
1.43738e-06
1.43594e-06
1.43568e-06
1.43568e-06
1.43571e-06
2.52257e-05
1.69314e-06
1.44713e-06
1.38923e-06
1.37892e-06
1.37703e-06
1.37669e-06
1.37668e-06
1.37672e-06
3.14427e-05
1.68082e-06
1.3983e-06
1.33949e-06
1.32764e-06
1.32538e-06
1.32501e-06
1.32496e-06
1.32503e-06
4.20309e-05
1.68037e-06
1.35327e-06
1.28662e-06
1.27454e-06
1.27226e-06
1.27192e-06
1.27182e-06
1.27193e-06
5.57901e-05
1.68745e-06
1.31245e-06
1.23704e-06
1.22324e-06
1.22062e-06
1.22025e-06
1.2201e-06
1.22026e-06
6.38096e-05
1.68842e-06
1.27085e-06
1.1908e-06
1.17555e-06
1.1726e-06
1.17221e-06
1.17202e-06
1.17221e-06
1.17207e-06
6.21884e-05
1.67371e-06
1.23199e-06
1.1477e-06
1.13119e-06
1.12795e-06
1.12754e-06
1.12729e-06
1.12754e-06
1.12743e-06
5.36786e-05
1.63959e-06
1.19532e-06
1.10745e-06
1.08985e-06
1.08634e-06
1.08592e-06
1.08562e-06
1.08591e-06
1.08582e-06
4.22324e-05
1.59488e-06
1.16038e-06
1.06977e-06
1.05123e-06
1.04747e-06
1.04704e-06
1.04669e-06
1.04702e-06
1.04694e-06
3.08344e-05
1.54249e-06
1.12681e-06
1.0344e-06
1.01505e-06
1.01108e-06
1.01063e-06
1.01023e-06
1.01062e-06
1.01054e-06
2.11594e-05
1.48613e-06
1.09432e-06
1.00112e-06
9.81126e-07
9.76967e-07
9.76507e-07
9.76053e-07
9.76484e-07
9.76391e-07
1.39349e-05
1.42469e-06
1.06278e-06
9.69763e-07
9.49292e-07
9.44985e-07
9.44505e-07
9.43993e-07
9.44479e-07
9.44351e-07
9.01599e-06
1.37073e-06
1.03217e-06
9.40197e-07
9.19437e-07
9.15018e-07
9.14517e-07
9.13918e-07
9.14488e-07
9.14278e-07
5.88665e-06
1.31579e-06
1.00248e-06
9.1233e-07
8.91474e-07
8.86986e-07
8.86462e-07
8.85701e-07
8.8643e-07
8.86052e-07
3.99192e-06
1.26094e-06
9.73802e-07
8.86094e-07
8.65339e-07
8.60827e-07
8.60277e-07
8.59207e-07
8.60244e-07
8.59556e-07
2.87814e-06
1.20853e-06
9.46234e-07
8.61436e-07
8.40973e-07
8.36483e-07
8.35913e-07
8.3428e-07
8.35883e-07
8.3466e-07
2.22717e-06
1.15832e-06
9.19874e-07
8.38284e-07
8.18287e-07
8.13883e-07
8.13308e-07
8.13628e-07
8.13283e-07
8.14102e-07
1.83843e-06
1.11009e-06
8.94804e-07
8.19107e-07
7.99747e-07
7.95399e-07
7.94828e-07
7.94839e-07
7.94801e-07
7.95357e-07
1.59473e-06
1.06911e-06
8.70975e-07
8.00154e-07
7.81282e-07
7.7705e-07
7.76456e-07
7.76233e-07
7.76424e-07
7.76759e-07
1.43082e-06
1.03097e-06
8.48296e-07
7.84055e-07
7.66028e-07
7.6192e-07
7.61317e-07
7.60966e-07
7.61283e-07
7.61481e-07
1.31161e-06
9.94897e-07
8.29371e-07
7.69517e-07
7.52433e-07
7.48472e-07
7.47864e-07
7.47446e-07
7.47825e-07
7.47926e-07
)
;

boundaryField
{
    fuel
    {
        type            fixedValue;
        value           uniform 0;
    }
    wall
    {
        type            zeroGradient;
    }
    outlet
    {
        type            zeroGradient;
    }
    frontAndBack
    {
        type            empty;
    }
    procBoundary2to0
    {
        type            processor;
        value           nonuniform List<scalar> 
12
(
7.61201e-07
1.21914e-06
9.59378e-07
8.11814e-07
7.56479e-07
7.40384e-07
7.36584e-07
7.35974e-07
7.35534e-07
7.35929e-07
7.4766e-07
7.35972e-07
)
;
    }
    procBoundary2to3
    {
        type            processor;
        value           nonuniform List<scalar> 
25
(
1.96744e-05
3.59078e-06
1.87027e-06
1.58758e-06
1.49588e-06
1.43574e-06
1.37676e-06
1.32506e-06
1.2719e-06
1.22016e-06
1.22016e-06
1.17187e-06
1.12716e-06
1.0855e-06
1.04659e-06
1.01015e-06
9.75979e-07
9.43919e-07
9.13832e-07
8.85604e-07
8.59125e-07
8.3428e-07
8.13744e-07
7.9499e-07
7.7645e-07
)
;
    }
}


// ************************************************************************* //
