/*--------------------------------*- C++ -*----------------------------------*\
| =========                 |                                                 |
| \\      /  F ield         | OpenFOAM: The Open Source CFD Toolbox           |
|  \\    /   O peration     | Version:  dev                                   |
|   \\  /    A nd           | Web:      www.OpenFOAM.org                      |
|    \\/     M anipulation  |                                                 |
\*---------------------------------------------------------------------------*/
FoamFile
{
    version     2.0;
    format      ascii;
    class       volScalarField;
    location    "0.055";
    object      C5H2;
}
// * * * * * * * * * * * * * * * * * * * * * * * * * * * * * * * * * * * * * //

dimensions      [0 0 0 0 0 0 0];

internalField   nonuniform List<scalar> 
250
(
1.0633e-08
2.34143e-05
2.77832e-05
2.81407e-05
2.81773e-05
2.81992e-05
2.81748e-05
2.81762e-05
2.81746e-05
9.58938e-09
2.08953e-05
2.13516e-05
2.12761e-05
2.1261e-05
2.12462e-05
2.12451e-05
2.1255e-05
2.1257e-05
4.72565e-09
1.28778e-05
1.21447e-05
1.19772e-05
1.19518e-05
1.1942e-05
1.19457e-05
1.19446e-05
1.19469e-05
3.18486e-09
7.70852e-06
6.80279e-06
6.65442e-06
6.63015e-06
6.62321e-06
6.62718e-06
6.62388e-06
6.62614e-06
2.22671e-09
4.83309e-06
4.04512e-06
3.93969e-06
3.92243e-06
3.91853e-06
3.9216e-06
3.9187e-06
3.92063e-06
1.63211e-09
3.21809e-06
2.60188e-06
2.48879e-06
2.45841e-06
2.45336e-06
2.45596e-06
2.45252e-06
2.45472e-06
1.28777e-09
2.23713e-06
1.81252e-06
1.73284e-06
1.71008e-06
1.70779e-06
1.70968e-06
1.70709e-06
1.70886e-06
1.63564e-09
1.64716e-06
1.35931e-06
1.3049e-06
1.27216e-06
1.26458e-06
1.26588e-06
1.26297e-06
1.26492e-06
2.42494e-09
1.26402e-06
1.08213e-06
1.03648e-06
1.01977e-06
1.0131e-06
1.01405e-06
1.01147e-06
1.01325e-06
3.96416e-09
1.00462e-06
8.8695e-07
8.53452e-07
8.37941e-07
8.32512e-07
8.33135e-07
8.30842e-07
8.32425e-07
6.35305e-09
8.235e-07
7.53829e-07
7.4375e-07
7.28639e-07
7.23926e-07
7.2437e-07
7.22147e-07
7.23694e-07
7.23049e-07
9.7988e-09
6.94659e-07
6.6861e-07
6.57187e-07
6.39908e-07
6.35096e-07
6.35374e-07
6.33204e-07
6.34708e-07
6.3394e-07
1.51764e-08
5.92044e-07
5.94659e-07
5.8787e-07
5.70775e-07
5.66131e-07
5.66285e-07
5.64119e-07
5.65613e-07
5.64756e-07
2.36641e-08
5.07979e-07
5.41469e-07
5.31285e-07
5.14247e-07
5.09672e-07
5.09732e-07
5.0754e-07
5.09045e-07
5.08109e-07
3.61386e-08
4.53324e-07
4.91276e-07
4.83134e-07
4.66146e-07
4.61596e-07
4.61586e-07
4.59353e-07
4.60881e-07
4.59872e-07
5.22545e-08
4.11046e-07
4.47923e-07
4.40958e-07
4.24064e-07
4.19524e-07
4.19463e-07
4.17186e-07
4.18739e-07
4.17663e-07
7.07322e-08
3.77698e-07
4.09431e-07
4.03283e-07
3.86553e-07
3.82025e-07
3.81929e-07
3.79615e-07
3.81189e-07
3.80056e-07
8.97192e-08
3.51076e-07
3.78332e-07
3.6918e-07
3.52689e-07
3.4819e-07
3.48071e-07
3.45735e-07
3.4732e-07
3.46142e-07
1.07432e-07
3.27778e-07
3.48357e-07
3.38005e-07
3.21837e-07
3.17395e-07
3.17265e-07
3.14927e-07
3.1651e-07
3.15302e-07
1.22714e-07
3.08865e-07
3.19272e-07
3.09304e-07
2.93521e-07
2.89171e-07
2.89039e-07
2.86725e-07
2.88288e-07
2.87068e-07
1.35114e-07
2.88647e-07
2.92657e-07
2.82725e-07
2.67341e-07
2.63123e-07
2.62997e-07
2.60738e-07
2.62259e-07
2.61046e-07
1.44845e-07
2.72339e-07
2.68132e-07
2.57956e-07
2.42923e-07
2.38877e-07
2.38763e-07
2.36593e-07
2.38047e-07
2.36863e-07
1.52208e-07
2.56747e-07
2.45254e-07
2.34695e-07
2.22663e-07
2.18835e-07
2.18728e-07
2.16635e-07
2.1804e-07
2.16882e-07
1.57459e-07
2.415e-07
2.23667e-07
2.1548e-07
2.03409e-07
1.99612e-07
1.99574e-07
1.97337e-07
1.98857e-07
1.97562e-07
1.60707e-07
2.26406e-07
2.05409e-07
1.95779e-07
1.85905e-07
1.8231e-07
1.82294e-07
1.80122e-07
1.81606e-07
1.80324e-07
1.61999e-07
2.11336e-07
1.86829e-07
1.78705e-07
1.69375e-07
1.66138e-07
1.66152e-07
1.64046e-07
1.65495e-07
1.64228e-07
)
;

boundaryField
{
    fuel
    {
        type            fixedValue;
        value           uniform 0;
    }
    wall
    {
        type            zeroGradient;
    }
    outlet
    {
        type            zeroGradient;
    }
    frontAndBack
    {
        type            empty;
    }
    procBoundary2to0
    {
        type            processor;
        value           nonuniform List<scalar> 
12
(
1.80547e-07
1.6057e-07
1.95115e-07
1.70235e-07
1.62609e-07
1.53972e-07
1.50963e-07
1.51e-07
1.4897e-07
1.50381e-07
1.64475e-07
1.49133e-07
)
;
    }
    procBoundary2to3
    {
        type            processor;
        value           nonuniform List<scalar> 
25
(
2.82016e-05
2.12616e-05
1.19463e-05
6.62503e-06
3.91968e-06
2.45381e-06
1.70811e-06
1.26412e-06
1.01251e-06
8.3178e-07
8.3178e-07
7.22553e-07
6.336e-07
5.64517e-07
5.07949e-07
4.59779e-07
4.17631e-07
3.80077e-07
3.4621e-07
3.15411e-07
2.87209e-07
2.61214e-07
2.3705e-07
2.17077e-07
1.97776e-07
)
;
    }
}


// ************************************************************************* //
