/*--------------------------------*- C++ -*----------------------------------*\
| =========                 |                                                 |
| \\      /  F ield         | OpenFOAM: The Open Source CFD Toolbox           |
|  \\    /   O peration     | Version:  dev                                   |
|   \\  /    A nd           | Web:      www.OpenFOAM.org                      |
|    \\/     M anipulation  |                                                 |
\*---------------------------------------------------------------------------*/
FoamFile
{
    version     2.0;
    format      ascii;
    class       volScalarField;
    location    "0.055";
    object      CH2CO;
}
// * * * * * * * * * * * * * * * * * * * * * * * * * * * * * * * * * * * * * //

dimensions      [0 0 0 0 0 0 0];

internalField   nonuniform List<scalar> 
250
(
9.11017e-05
0.000471216
0.000343215
0.000332157
0.000331061
0.000330937
0.000330896
0.000330692
0.000330962
0.00023098
0.000242099
0.000193528
0.00018905
0.000188522
0.000188566
0.000188567
0.000188408
0.000188475
0.000343499
0.00015593
0.000128113
0.000125444
0.000125093
0.000125057
0.000125073
0.000125024
0.000125051
0.000414554
0.000116798
9.36476e-05
9.15665e-05
9.12691e-05
9.12185e-05
9.12402e-05
9.121e-05
9.12292e-05
0.000446736
9.47764e-05
7.26874e-05
7.10356e-05
7.07887e-05
7.07472e-05
7.07696e-05
7.07431e-05
7.07613e-05
0.000451708
8.00693e-05
5.92514e-05
5.75142e-05
5.71129e-05
5.70501e-05
5.70752e-05
5.70373e-05
5.70619e-05
0.000443187
6.87059e-05
5.04809e-05
4.90946e-05
4.87469e-05
4.87074e-05
4.87293e-05
4.86951e-05
4.87185e-05
0.000432401
6.03096e-05
4.47e-05
4.36283e-05
4.31134e-05
4.29928e-05
4.30101e-05
4.29659e-05
4.29955e-05
0.000423719
5.37204e-05
4.0758e-05
3.97992e-05
3.94875e-05
3.93718e-05
3.93857e-05
3.93419e-05
3.9372e-05
0.000406477
4.84027e-05
3.7697e-05
3.69142e-05
3.65942e-05
3.64891e-05
3.64991e-05
3.64554e-05
3.64854e-05
0.000365142
4.40133e-05
3.54036e-05
3.50204e-05
3.46836e-05
3.45835e-05
3.4591e-05
3.45451e-05
3.45769e-05
3.45619e-05
0.000301382
4.03614e-05
3.37973e-05
3.33763e-05
3.29703e-05
3.286e-05
3.28648e-05
3.28163e-05
3.28498e-05
3.28317e-05
0.000232569
3.70283e-05
3.22672e-05
3.19315e-05
3.15028e-05
3.13887e-05
3.13911e-05
3.13393e-05
3.1375e-05
3.13539e-05
0.000171949
3.3981e-05
3.10727e-05
3.06482e-05
3.01958e-05
3.00765e-05
3.00769e-05
3.00212e-05
3.00595e-05
3.00354e-05
0.000124134
3.1825e-05
2.98551e-05
2.9472e-05
2.89972e-05
2.8872e-05
2.88707e-05
2.88108e-05
2.88519e-05
2.88246e-05
8.90277e-05
3.0057e-05
2.87292e-05
2.83725e-05
2.78775e-05
2.7746e-05
2.77434e-05
2.76791e-05
2.7723e-05
2.76925e-05
6.44716e-05
2.86114e-05
2.76667e-05
2.73319e-05
2.6819e-05
2.66814e-05
2.66777e-05
2.6609e-05
2.66558e-05
2.66221e-05
4.79284e-05
2.7436e-05
2.67614e-05
2.63387e-05
2.58105e-05
2.56671e-05
2.56626e-05
2.55899e-05
2.56393e-05
2.56026e-05
3.71509e-05
2.64023e-05
2.5845e-05
2.53846e-05
2.48437e-05
2.46954e-05
2.46904e-05
2.4614e-05
2.46658e-05
2.46264e-05
3.03381e-05
2.55661e-05
2.4914e-05
2.44633e-05
2.39119e-05
2.37596e-05
2.37543e-05
2.36751e-05
2.37287e-05
2.3687e-05
2.61211e-05
2.46808e-05
2.40228e-05
2.35694e-05
2.30082e-05
2.28532e-05
2.2848e-05
2.27668e-05
2.28215e-05
2.27781e-05
2.35363e-05
2.39702e-05
2.31646e-05
2.26974e-05
2.2125e-05
2.19689e-05
2.19639e-05
2.18821e-05
2.19369e-05
2.18925e-05
2.19547e-05
2.32938e-05
2.23288e-05
2.18406e-05
2.13594e-05
2.12048e-05
2.12e-05
2.11175e-05
2.11728e-05
2.11274e-05
2.0985e-05
2.26329e-05
2.15059e-05
2.11018e-05
2.05991e-05
2.04386e-05
2.04363e-05
2.0344e-05
2.04067e-05
2.03536e-05
2.03733e-05
2.19756e-05
2.07805e-05
2.03095e-05
1.98771e-05
1.97183e-05
1.97168e-05
1.96231e-05
1.9687e-05
1.96321e-05
1.99461e-05
2.13114e-05
2.00095e-05
1.95924e-05
1.91645e-05
1.90147e-05
1.90142e-05
1.89194e-05
1.89845e-05
1.89279e-05
)
;

boundaryField
{
    fuel
    {
        type            fixedValue;
        value           uniform 0;
    }
    wall
    {
        type            zeroGradient;
    }
    outlet
    {
        type            zeroGradient;
    }
    frontAndBack
    {
        type            empty;
    }
    procBoundary2to0
    {
        type            processor;
        value           nonuniform List<scalar> 
12
(
1.96422e-05
1.95759e-05
2.05889e-05
1.92907e-05
1.88849e-05
1.84697e-05
1.83236e-05
1.8324e-05
1.82283e-05
1.82947e-05
1.89391e-05
1.82363e-05
)
;
    }
    procBoundary2to3
    {
        type            processor;
        value           nonuniform List<scalar> 
25
(
0.000330917
0.000188489
0.000125052
9.12241e-05
7.07538e-05
5.70521e-05
4.87087e-05
4.29831e-05
3.93588e-05
3.6472e-05
3.6472e-05
3.45535e-05
3.28252e-05
3.13489e-05
3.00318e-05
2.88224e-05
2.76919e-05
2.6623e-05
2.5605e-05
2.46302e-05
2.36921e-05
2.27844e-05
2.18998e-05
2.11354e-05
2.03629e-05
)
;
    }
}


// ************************************************************************* //
