/*--------------------------------*- C++ -*----------------------------------*\
| =========                 |                                                 |
| \\      /  F ield         | OpenFOAM: The Open Source CFD Toolbox           |
|  \\    /   O peration     | Version:  dev                                   |
|   \\  /    A nd           | Web:      www.OpenFOAM.org                      |
|    \\/     M anipulation  |                                                 |
\*---------------------------------------------------------------------------*/
FoamFile
{
    version     2.0;
    format      ascii;
    class       volScalarField;
    location    "0.055";
    object      CH3OH;
}
// * * * * * * * * * * * * * * * * * * * * * * * * * * * * * * * * * * * * * //

dimensions      [0 0 0 0 0 0 0];

internalField   nonuniform List<scalar> 
25
(
3.42762e-09
3.76482e-09
4.11039e-09
4.46224e-09
4.81751e-09
5.1729e-09
5.52588e-09
5.87957e-09
6.21815e-09
6.54195e-09
6.84797e-09
7.13344e-09
7.39538e-09
7.63031e-09
7.83909e-09
8.01238e-09
8.15107e-09
8.25263e-09
8.31563e-09
8.33886e-09
8.31946e-09
8.25923e-09
8.15826e-09
8.0173e-09
7.82505e-09
)
;

boundaryField
{
    wall
    {
        type            zeroGradient;
    }
    fuel
    {
        type            fixedValue;
        value           nonuniform 0();
    }
    outlet
    {
        type            inletOutlet;
        inletValue      nonuniform 0();
        value           nonuniform 0();
    }
    procBoundary2to1
    {
        type            processor;
        value           uniform 3.10231e-09;
    }
    procBoundary2to3
    {
        type            processor;
        value           uniform 7.59863e-09;
    }
}


// ************************************************************************* //
