/*--------------------------------*- C++ -*----------------------------------*\
| =========                 |                                                 |
| \\      /  F ield         | OpenFOAM: The Open Source CFD Toolbox           |
|  \\    /   O peration     | Version:  dev                                   |
|   \\  /    A nd           | Web:      www.OpenFOAM.org                      |
|    \\/     M anipulation  |                                                 |
\*---------------------------------------------------------------------------*/
FoamFile
{
    version     2.0;
    format      ascii;
    class       volScalarField;
    location    "0.055";
    object      CO;
}
// * * * * * * * * * * * * * * * * * * * * * * * * * * * * * * * * * * * * * //

dimensions      [0 0 0 0 0 0 0];

internalField   nonuniform List<scalar> 
250
(
0.00861013
0.133496
0.135428
0.135708
0.13575
0.135757
0.135757
0.135758
0.135758
0.0230861
0.155534
0.15757
0.15791
0.157962
0.15797
0.157972
0.157971
0.157972
0.0376007
0.160795
0.163365
0.16384
0.163912
0.163923
0.163925
0.163925
0.163926
0.0517219
0.1627
0.165883
0.166519
0.166615
0.16663
0.166634
0.166633
0.166634
0.0652227
0.163697
0.167441
0.168254
0.168375
0.168395
0.1684
0.168399
0.1684
0.0779682
0.164406
0.168743
0.169608
0.169754
0.169779
0.169785
0.169785
0.169785
0.0899932
0.164993
0.169746
0.170843
0.171039
0.171075
0.171082
0.171082
0.171082
0.101749
0.165551
0.170737
0.171876
0.172109
0.172153
0.172161
0.172162
0.172161
0.114336
0.166116
0.171625
0.172946
0.17319
0.173235
0.173242
0.173244
0.173243
0.127316
0.166701
0.172426
0.173947
0.174231
0.174284
0.174292
0.174295
0.174293
0.137411
0.167304
0.17325
0.174888
0.175208
0.175269
0.175277
0.175282
0.175278
0.175281
0.144226
0.167919
0.174028
0.175776
0.176128
0.176197
0.176206
0.176211
0.176206
0.176208
0.148953
0.168615
0.174771
0.176617
0.176997
0.177073
0.177082
0.177088
0.177082
0.177084
0.152487
0.169273
0.175486
0.177413
0.177819
0.1779
0.17791
0.177917
0.17791
0.177912
0.155332
0.16995
0.176179
0.178167
0.178595
0.178682
0.178692
0.1787
0.178692
0.178694
0.157769
0.17066
0.176852
0.178881
0.179328
0.17942
0.17943
0.17944
0.179431
0.179433
0.159912
0.171468
0.17751
0.179557
0.180019
0.180116
0.180126
0.180137
0.180127
0.180129
0.161844
0.172208
0.17815
0.180197
0.18067
0.180769
0.18078
0.180793
0.180781
0.180785
0.163622
0.173014
0.178772
0.180801
0.181279
0.181381
0.181393
0.181409
0.181393
0.181401
0.16528
0.173868
0.179374
0.181368
0.181848
0.181951
0.181963
0.181986
0.181964
0.181979
0.166839
0.174726
0.179952
0.1819
0.182376
0.182479
0.182492
0.182527
0.182492
0.182518
0.168309
0.175582
0.180504
0.182394
0.182862
0.182964
0.182977
0.182969
0.182977
0.182958
0.169697
0.176432
0.181025
0.182797
0.183252
0.183352
0.183365
0.183364
0.183366
0.183352
0.171006
0.177172
0.181515
0.183187
0.183631
0.183729
0.183742
0.183746
0.183742
0.183734
0.17224
0.177873
0.181972
0.183505
0.18393
0.184024
0.184038
0.184044
0.184038
0.184032
0.173403
0.178542
0.18234
0.183776
0.184179
0.184269
0.184283
0.18429
0.184283
0.184278
)
;

boundaryField
{
    fuel
    {
        type            fixedValue;
        value           uniform 0;
    }
    wall
    {
        type            zeroGradient;
    }
    outlet
    {
        type            zeroGradient;
    }
    frontAndBack
    {
        type            empty;
    }
    procBoundary2to0
    {
        type            processor;
        value           nonuniform List<scalar> 
12
(
0.184037
0.17449
0.179203
0.182666
0.183999
0.184377
0.184463
0.184477
0.184483
0.184477
0.184284
0.184473
)
;
    }
    procBoundary2to3
    {
        type            processor;
        value           nonuniform List<scalar> 
25
(
0.135758
0.157972
0.163925
0.166634
0.1684
0.169785
0.171082
0.172161
0.173243
0.174295
0.174295
0.175285
0.176214
0.177091
0.177919
0.178702
0.179442
0.180139
0.180795
0.181411
0.181988
0.182527
0.182966
0.18336
0.18374
)
;
    }
}


// ************************************************************************* //
