/*--------------------------------*- C++ -*----------------------------------*\
| =========                 |                                                 |
| \\      /  F ield         | OpenFOAM: The Open Source CFD Toolbox           |
|  \\    /   O peration     | Version:  dev                                   |
|   \\  /    A nd           | Web:      www.OpenFOAM.org                      |
|    \\/     M anipulation  |                                                 |
\*---------------------------------------------------------------------------*/
FoamFile
{
    version     2.0;
    format      ascii;
    class       volScalarField;
    location    "0.055";
    object      H2O2;
}
// * * * * * * * * * * * * * * * * * * * * * * * * * * * * * * * * * * * * * //

dimensions      [0 0 0 0 0 0 0];

internalField   nonuniform List<scalar> 
1997
(
3.67996e-11
3.68416e-11
3.6786e-11
3.67523e-11
3.66815e-11
3.66365e-11
3.65874e-11
3.65543e-11
3.65252e-11
3.65067e-11
3.64954e-11
3.64856e-11
3.64755e-11
3.64704e-11
3.64644e-11
3.6462e-11
3.64585e-11
3.64575e-11
3.58244e-11
3.58609e-11
3.57987e-11
3.57609e-11
3.56871e-11
3.56402e-11
3.559e-11
3.5556e-11
3.55267e-11
3.55081e-11
3.54959e-11
3.54861e-11
3.5476e-11
3.54708e-11
3.54648e-11
3.54624e-11
3.54589e-11
3.54579e-11
3.54558e-11
3.54554e-11
3.54541e-11
3.5454e-11
3.54534e-11
3.54533e-11
3.54531e-11
3.54531e-11
3.54533e-11
3.54534e-11
3.48385e-11
3.48694e-11
3.48007e-11
3.47587e-11
3.46824e-11
3.46335e-11
3.45822e-11
3.45475e-11
3.4518e-11
3.44992e-11
3.44863e-11
3.44765e-11
3.44664e-11
3.44611e-11
3.44551e-11
3.44527e-11
3.44492e-11
3.44482e-11
3.4446e-11
3.44456e-11
3.44444e-11
3.44443e-11
3.44436e-11
3.44436e-11
3.44434e-11
3.44434e-11
3.44436e-11
3.44436e-11
3.44442e-11
3.44443e-11
3.44456e-11
3.4446e-11
3.44481e-11
3.44491e-11
3.44527e-11
3.44551e-11
3.44611e-11
3.44664e-11
3.44765e-11
3.44863e-11
3.38423e-11
3.38676e-11
3.37926e-11
3.37466e-11
3.36681e-11
3.36173e-11
3.35649e-11
3.35295e-11
3.34998e-11
3.34809e-11
3.34673e-11
3.34575e-11
3.34474e-11
3.34421e-11
3.34362e-11
3.34337e-11
3.34302e-11
3.34291e-11
3.3427e-11
3.34266e-11
3.34254e-11
3.34253e-11
3.34246e-11
3.34246e-11
3.34244e-11
3.34244e-11
3.34246e-11
3.34246e-11
3.34252e-11
3.34253e-11
3.34266e-11
3.3427e-11
3.34291e-11
3.34301e-11
3.34337e-11
3.34362e-11
3.34422e-11
3.34474e-11
3.34575e-11
3.34673e-11
3.34811e-11
3.35e-11
3.35296e-11
3.3565e-11
3.36174e-11
3.36686e-11
3.37462e-11
3.37924e-11
3.38673e-11
3.38421e-11
3.28369e-11
3.28565e-11
3.27755e-11
3.27254e-11
3.26449e-11
3.25923e-11
3.25389e-11
3.25029e-11
3.24731e-11
3.2454e-11
3.24399e-11
3.24301e-11
3.242e-11
3.24147e-11
3.24087e-11
3.24063e-11
3.24027e-11
3.24017e-11
3.23996e-11
3.23992e-11
3.23979e-11
3.23978e-11
3.23972e-11
3.23972e-11
3.2397e-11
3.2397e-11
3.23972e-11
3.23972e-11
3.23978e-11
3.23979e-11
3.23992e-11
3.23996e-11
3.24017e-11
3.24027e-11
3.24063e-11
3.24088e-11
3.24148e-11
3.24201e-11
3.24301e-11
3.24399e-11
3.24543e-11
3.24733e-11
3.2503e-11
3.2539e-11
3.25924e-11
3.26456e-11
3.2725e-11
3.27751e-11
3.28561e-11
3.28365e-11
3.18115e-11
3.18286e-11
3.17411e-11
3.16864e-11
3.1602e-11
3.15463e-11
3.14902e-11
3.14527e-11
3.14222e-11
3.14025e-11
3.13877e-11
3.13777e-11
3.13675e-11
3.13622e-11
3.1356e-11
3.13535e-11
3.13499e-11
3.13489e-11
3.13467e-11
3.13463e-11
3.1345e-11
3.13449e-11
3.13443e-11
3.13443e-11
3.13441e-11
3.13441e-11
3.13443e-11
3.13443e-11
3.13449e-11
3.1345e-11
3.13463e-11
3.13467e-11
3.13489e-11
3.135e-11
3.13536e-11
3.13561e-11
3.13622e-11
3.13676e-11
3.13778e-11
3.13877e-11
3.14029e-11
3.14224e-11
3.14529e-11
3.14903e-11
3.15464e-11
3.1603e-11
3.16856e-11
3.17407e-11
3.1828e-11
3.18111e-11
3.07898e-11
3.08014e-11
3.07083e-11
3.06501e-11
3.05635e-11
3.05064e-11
3.04493e-11
3.04113e-11
3.03808e-11
3.0361e-11
3.03457e-11
3.03358e-11
3.03256e-11
3.03203e-11
3.03142e-11
3.03117e-11
3.03081e-11
3.0307e-11
3.03049e-11
3.03045e-11
3.03032e-11
3.03031e-11
3.03025e-11
3.03025e-11
3.03022e-11
3.03022e-11
3.03025e-11
3.03024e-11
3.03031e-11
3.03032e-11
3.03045e-11
3.03049e-11
3.03071e-11
3.03081e-11
3.03117e-11
3.03143e-11
3.03204e-11
3.03257e-11
3.03359e-11
3.03457e-11
3.03614e-11
3.0381e-11
3.04115e-11
3.04495e-11
3.05066e-11
3.05648e-11
3.0649e-11
3.07078e-11
3.08006e-11
3.07892e-11
2.9762e-11
2.97681e-11
2.96697e-11
2.96084e-11
2.95195e-11
2.94614e-11
2.94033e-11
2.93648e-11
2.93344e-11
2.93145e-11
2.92989e-11
2.9289e-11
2.92789e-11
2.92736e-11
2.92675e-11
2.9265e-11
2.92614e-11
2.92604e-11
2.92583e-11
2.92579e-11
2.92566e-11
2.92565e-11
2.92558e-11
2.92559e-11
2.92556e-11
2.92556e-11
2.92558e-11
2.92558e-11
2.92565e-11
2.92566e-11
2.92579e-11
2.92583e-11
2.92605e-11
2.92615e-11
2.92651e-11
2.92676e-11
2.92737e-11
2.9279e-11
2.92891e-11
2.92989e-11
2.9315e-11
2.93347e-11
2.93651e-11
2.94035e-11
2.94616e-11
2.95213e-11
2.96069e-11
2.96691e-11
2.97673e-11
2.97613e-11
2.87293e-11
2.87301e-11
2.86266e-11
2.85623e-11
2.84717e-11
2.84126e-11
2.83535e-11
2.83147e-11
2.82844e-11
2.82643e-11
2.82486e-11
2.82387e-11
2.82287e-11
2.82234e-11
2.82174e-11
2.82149e-11
2.82114e-11
2.82103e-11
2.82082e-11
2.82078e-11
2.82065e-11
2.82064e-11
2.82058e-11
2.82058e-11
2.82056e-11
2.82056e-11
2.82058e-11
2.82058e-11
2.82064e-11
2.82065e-11
2.82078e-11
2.82082e-11
2.82104e-11
2.82114e-11
2.8215e-11
2.82175e-11
2.82236e-11
2.82288e-11
2.82389e-11
2.82485e-11
2.82649e-11
2.82847e-11
2.83149e-11
2.83537e-11
2.84127e-11
2.84736e-11
2.85606e-11
2.86259e-11
2.87291e-11
2.87286e-11
2.76882e-11
2.76886e-11
2.75804e-11
2.75131e-11
2.74214e-11
2.73613e-11
2.73014e-11
2.72622e-11
2.72321e-11
2.7212e-11
2.71961e-11
2.71862e-11
2.7176e-11
2.71708e-11
2.71646e-11
2.71622e-11
2.71585e-11
2.71575e-11
2.71553e-11
2.71549e-11
2.71535e-11
2.71534e-11
2.71528e-11
2.71529e-11
2.71526e-11
2.71526e-11
2.71529e-11
2.71528e-11
2.71534e-11
2.71535e-11
2.71549e-11
2.71553e-11
2.71575e-11
2.71585e-11
2.71622e-11
2.71647e-11
2.71709e-11
2.71762e-11
2.71864e-11
2.7196e-11
2.72125e-11
2.72324e-11
2.72625e-11
2.73016e-11
2.73615e-11
2.74233e-11
2.75114e-11
2.75797e-11
2.76876e-11
2.76875e-11
2.66167e-11
2.66111e-11
2.64993e-11
2.64286e-11
2.63371e-11
2.6276e-11
2.62153e-11
2.6176e-11
2.61463e-11
2.61262e-11
2.61102e-11
2.61005e-11
2.60904e-11
2.60852e-11
2.60791e-11
2.60767e-11
2.6073e-11
2.60721e-11
2.60699e-11
2.60695e-11
2.6068e-11
2.6068e-11
2.60674e-11
2.60675e-11
2.60673e-11
2.60673e-11
2.60675e-11
2.60674e-11
2.6068e-11
2.6068e-11
2.60695e-11
2.60699e-11
2.60721e-11
2.60731e-11
2.60768e-11
2.60792e-11
2.60853e-11
2.60905e-11
2.61006e-11
2.61102e-11
2.61266e-11
2.61466e-11
2.61763e-11
2.62155e-11
2.62761e-11
2.63386e-11
2.64272e-11
2.64985e-11
2.661e-11
2.66159e-11
2.55761e-11
2.55658e-11
2.545e-11
2.53766e-11
2.52851e-11
2.52231e-11
2.51618e-11
2.51223e-11
2.50929e-11
2.50729e-11
2.5057e-11
2.50473e-11
2.50374e-11
2.50322e-11
2.50262e-11
2.50238e-11
2.50202e-11
2.50192e-11
2.50171e-11
2.50166e-11
2.50152e-11
2.50152e-11
2.50147e-11
2.50147e-11
2.50145e-11
2.50145e-11
2.50147e-11
2.50146e-11
2.50151e-11
2.50152e-11
2.50167e-11
2.50171e-11
2.50193e-11
2.50202e-11
2.50239e-11
2.50263e-11
2.50323e-11
2.50375e-11
2.50474e-11
2.50569e-11
2.50733e-11
2.50933e-11
2.51226e-11
2.5162e-11
2.52232e-11
2.52863e-11
2.53755e-11
2.54492e-11
2.55646e-11
2.55753e-11
2.45194e-11
2.45064e-11
2.43863e-11
2.43097e-11
2.42172e-11
2.41534e-11
2.40905e-11
2.40501e-11
2.40208e-11
2.40005e-11
2.39845e-11
2.39747e-11
2.39648e-11
2.39597e-11
2.39536e-11
2.39513e-11
2.39476e-11
2.39467e-11
2.39445e-11
2.39441e-11
2.39426e-11
2.39425e-11
2.3942e-11
2.39421e-11
2.39419e-11
2.39419e-11
2.39421e-11
2.3942e-11
2.39425e-11
2.39426e-11
2.39441e-11
2.39445e-11
2.39467e-11
2.39477e-11
2.39513e-11
2.39537e-11
2.39598e-11
2.3965e-11
2.39749e-11
2.39845e-11
2.40007e-11
2.40212e-11
2.40504e-11
2.40907e-11
2.41535e-11
2.4218e-11
2.43089e-11
2.43855e-11
2.45052e-11
2.45186e-11
2.34827e-11
2.34654e-11
2.33422e-11
2.32634e-11
2.31711e-11
2.31069e-11
2.30439e-11
2.30031e-11
2.29744e-11
2.29542e-11
2.29384e-11
2.29287e-11
2.2919e-11
2.29139e-11
2.2908e-11
2.29056e-11
2.29021e-11
2.29011e-11
2.28989e-11
2.28985e-11
2.2897e-11
2.2897e-11
2.28965e-11
2.28966e-11
2.28964e-11
2.28964e-11
2.28966e-11
2.28965e-11
2.2897e-11
2.2897e-11
2.28985e-11
2.28989e-11
2.29011e-11
2.29021e-11
2.29057e-11
2.29081e-11
2.29141e-11
2.29191e-11
2.29288e-11
2.29384e-11
2.29543e-11
2.29749e-11
2.30035e-11
2.30441e-11
2.3107e-11
2.31717e-11
2.32628e-11
2.33415e-11
2.34642e-11
2.34818e-11
2.24355e-11
2.24141e-11
2.22856e-11
2.22033e-11
2.21096e-11
2.20441e-11
2.198e-11
2.19381e-11
2.19096e-11
2.18892e-11
2.18735e-11
2.18638e-11
2.18541e-11
2.18491e-11
2.18431e-11
2.18408e-11
2.18372e-11
2.18363e-11
2.18341e-11
2.18337e-11
2.18321e-11
2.18321e-11
2.18317e-11
2.18318e-11
2.18316e-11
2.18316e-11
2.18318e-11
2.18317e-11
2.18321e-11
2.18321e-11
2.18337e-11
2.18341e-11
2.18363e-11
2.18373e-11
2.18409e-11
2.18432e-11
2.18492e-11
2.18542e-11
2.18639e-11
2.18735e-11
2.18893e-11
2.19102e-11
2.19385e-11
2.19801e-11
2.20441e-11
2.211e-11
2.22028e-11
2.2285e-11
2.24128e-11
2.24346e-11
2.13782e-11
2.13523e-11
2.12223e-11
2.11382e-11
2.10453e-11
2.098e-11
2.09162e-11
2.08743e-11
2.08464e-11
2.08262e-11
2.08109e-11
2.08013e-11
2.07919e-11
2.0787e-11
2.07811e-11
2.07789e-11
2.07753e-11
2.07744e-11
2.07723e-11
2.07718e-11
2.07703e-11
2.07702e-11
2.07699e-11
2.077e-11
2.07698e-11
2.07698e-11
2.077e-11
2.07699e-11
2.07702e-11
2.07703e-11
2.07718e-11
2.07723e-11
2.07744e-11
2.07754e-11
2.07789e-11
2.07812e-11
2.07871e-11
2.0792e-11
2.08014e-11
2.08109e-11
2.08263e-11
2.08469e-11
2.08747e-11
2.09163e-11
2.098e-11
2.10456e-11
2.11378e-11
2.12217e-11
2.1351e-11
2.13773e-11
2.03288e-11
2.02985e-11
2.01677e-11
2.00821e-11
1.99903e-11
1.99257e-11
1.98622e-11
1.98203e-11
1.97932e-11
1.97732e-11
1.97583e-11
1.97489e-11
1.97397e-11
1.97349e-11
1.97292e-11
1.9727e-11
1.97236e-11
1.97227e-11
1.97206e-11
1.97201e-11
1.97185e-11
1.97185e-11
1.97183e-11
1.97184e-11
1.97182e-11
1.97182e-11
1.97184e-11
1.97183e-11
1.97185e-11
1.97185e-11
1.97201e-11
1.97206e-11
1.97227e-11
1.97236e-11
1.97271e-11
1.97293e-11
1.9735e-11
1.97398e-11
1.9749e-11
1.97584e-11
1.97734e-11
1.97937e-11
1.98207e-11
1.98622e-11
1.99256e-11
1.99905e-11
2.00818e-11
2.01671e-11
2.02973e-11
2.03279e-11
1.92895e-11
1.92553e-11
1.91241e-11
1.90373e-11
1.8947e-11
1.88831e-11
1.88205e-11
1.87785e-11
1.87523e-11
1.87325e-11
1.87181e-11
1.87089e-11
1.87e-11
1.86953e-11
1.86898e-11
1.86876e-11
1.86843e-11
1.86834e-11
1.86813e-11
1.86809e-11
1.86793e-11
1.86793e-11
1.86791e-11
1.86792e-11
1.8679e-11
1.8679e-11
1.86792e-11
1.86791e-11
1.86792e-11
1.86793e-11
1.86809e-11
1.86813e-11
1.86834e-11
1.86843e-11
1.86877e-11
1.86899e-11
1.86954e-11
1.87001e-11
1.8709e-11
1.87181e-11
1.87327e-11
1.87526e-11
1.87788e-11
1.88205e-11
1.8883e-11
1.89471e-11
1.90371e-11
1.91237e-11
1.9254e-11
1.92886e-11
1.82928e-11
1.82555e-11
1.81241e-11
1.80364e-11
1.79474e-11
1.78842e-11
1.78229e-11
1.77805e-11
1.77551e-11
1.77356e-11
1.77217e-11
1.77127e-11
1.77041e-11
1.76995e-11
1.76941e-11
1.7692e-11
1.76888e-11
1.76879e-11
1.76859e-11
1.76854e-11
1.76838e-11
1.76838e-11
1.76837e-11
1.76839e-11
1.76837e-11
1.76837e-11
1.76839e-11
1.76837e-11
1.76838e-11
1.76838e-11
1.76854e-11
1.76859e-11
1.76879e-11
1.76888e-11
1.76921e-11
1.76942e-11
1.76996e-11
1.77042e-11
1.77128e-11
1.77217e-11
1.77358e-11
1.77554e-11
1.77808e-11
1.78229e-11
1.78842e-11
1.79474e-11
1.80361e-11
1.81237e-11
1.82543e-11
1.82919e-11
1.72974e-11
1.7259e-11
1.7127e-11
1.70519e-11
1.69645e-11
1.69024e-11
1.68425e-11
1.67997e-11
1.67752e-11
1.6756e-11
1.67426e-11
1.67339e-11
1.67255e-11
1.67211e-11
1.67159e-11
1.67139e-11
1.67107e-11
1.67099e-11
1.67079e-11
1.67074e-11
1.67058e-11
1.67058e-11
1.67058e-11
1.67059e-11
1.67057e-11
1.67057e-11
1.67059e-11
1.67057e-11
1.67058e-11
1.67057e-11
1.67074e-11
1.67079e-11
1.67099e-11
1.67107e-11
1.67139e-11
1.67159e-11
1.67212e-11
1.67256e-11
1.67339e-11
1.67426e-11
1.67562e-11
1.67755e-11
1.68e-11
1.68425e-11
1.69024e-11
1.69645e-11
1.70517e-11
1.71266e-11
1.72579e-11
1.72965e-11
1.63327e-11
1.6292e-11
1.61607e-11
1.60815e-11
1.59909e-11
1.59274e-11
1.58664e-11
1.58216e-11
1.57973e-11
1.57779e-11
1.57647e-11
1.5756e-11
1.57478e-11
1.57435e-11
1.57383e-11
1.57363e-11
1.57331e-11
1.57323e-11
1.57304e-11
1.57299e-11
1.57282e-11
1.57282e-11
1.57283e-11
1.57284e-11
1.57283e-11
1.57283e-11
1.57284e-11
1.57282e-11
1.57282e-11
1.57282e-11
1.57299e-11
1.57304e-11
1.57323e-11
1.57332e-11
1.57363e-11
1.57384e-11
1.57435e-11
1.57479e-11
1.57561e-11
1.57647e-11
1.57781e-11
1.57976e-11
1.58219e-11
1.58664e-11
1.59274e-11
1.59909e-11
1.60813e-11
1.61604e-11
1.6291e-11
1.63318e-11
1.53873e-11
1.53447e-11
1.52147e-11
1.5136e-11
1.50471e-11
1.49851e-11
1.4926e-11
1.48805e-11
1.48571e-11
1.4838e-11
1.48254e-11
1.4817e-11
1.48091e-11
1.4805e-11
1.48e-11
1.4798e-11
1.4795e-11
1.47942e-11
1.47923e-11
1.47918e-11
1.47901e-11
1.47901e-11
1.47902e-11
1.47904e-11
1.47903e-11
1.47903e-11
1.47904e-11
1.47902e-11
1.47901e-11
1.47901e-11
1.47918e-11
1.47923e-11
1.47942e-11
1.4795e-11
1.47981e-11
1.48e-11
1.4805e-11
1.48092e-11
1.48171e-11
1.48255e-11
1.48382e-11
1.48574e-11
1.48807e-11
1.4926e-11
1.4985e-11
1.50471e-11
1.51358e-11
1.52143e-11
1.53438e-11
1.53865e-11
1.44507e-11
1.44072e-11
1.42778e-11
1.41997e-11
1.41116e-11
1.40505e-11
1.39938e-11
1.39626e-11
1.39403e-11
1.39216e-11
1.39096e-11
1.39016e-11
1.3894e-11
1.389e-11
1.38852e-11
1.38833e-11
1.38804e-11
1.38796e-11
1.38778e-11
1.38773e-11
1.38755e-11
1.38756e-11
1.38758e-11
1.3876e-11
1.38759e-11
1.38759e-11
1.3876e-11
1.38758e-11
1.38756e-11
1.38755e-11
1.38773e-11
1.38778e-11
1.38796e-11
1.38804e-11
1.38833e-11
1.38852e-11
1.38901e-11
1.38941e-11
1.39016e-11
1.39097e-11
1.39217e-11
1.39406e-11
1.39628e-11
1.39938e-11
1.40504e-11
1.41116e-11
1.41994e-11
1.42775e-11
1.44063e-11
1.44499e-11
1.35496e-11
1.35049e-11
1.33777e-11
1.33011e-11
1.32149e-11
1.31558e-11
1.31015e-11
1.30689e-11
1.30467e-11
1.30304e-11
1.30192e-11
1.30115e-11
1.30043e-11
1.30004e-11
1.29958e-11
1.29941e-11
1.29912e-11
1.29905e-11
1.29887e-11
1.29882e-11
1.29864e-11
1.29865e-11
1.29868e-11
1.29871e-11
1.29869e-11
1.29869e-11
1.2987e-11
1.29868e-11
1.29865e-11
1.29864e-11
1.29882e-11
1.29887e-11
1.29905e-11
1.29912e-11
1.29941e-11
1.29958e-11
1.30005e-11
1.30043e-11
1.30115e-11
1.30192e-11
1.30306e-11
1.30469e-11
1.3069e-11
1.31015e-11
1.31557e-11
1.32149e-11
1.33009e-11
1.33774e-11
1.35041e-11
1.35489e-11
1.26739e-11
1.26286e-11
1.25038e-11
1.24289e-11
1.23454e-11
1.22882e-11
1.22351e-11
1.22033e-11
1.21822e-11
1.2166e-11
1.21549e-11
1.21473e-11
1.21401e-11
1.21363e-11
1.21317e-11
1.21299e-11
1.21271e-11
1.21264e-11
1.21247e-11
1.21241e-11
1.21221e-11
1.21222e-11
1.21228e-11
1.2123e-11
1.21229e-11
1.21229e-11
1.2123e-11
1.21227e-11
1.21221e-11
1.21221e-11
1.21241e-11
1.21247e-11
1.21264e-11
1.21271e-11
1.213e-11
1.21317e-11
1.21363e-11
1.21402e-11
1.21473e-11
1.2155e-11
1.21661e-11
1.21825e-11
1.22034e-11
1.22351e-11
1.22882e-11
1.23454e-11
1.24287e-11
1.25036e-11
1.26278e-11
1.26733e-11
1.18106e-11
1.17635e-11
1.16401e-11
1.15661e-11
1.14853e-11
1.14294e-11
1.13922e-11
1.13667e-11
1.13466e-11
1.13311e-11
1.13207e-11
1.13134e-11
1.13066e-11
1.13029e-11
1.12985e-11
1.12969e-11
1.12942e-11
1.12935e-11
1.12918e-11
1.12913e-11
1.12892e-11
1.12893e-11
1.129e-11
1.12903e-11
1.12901e-11
1.12901e-11
1.12903e-11
1.129e-11
1.12892e-11
1.12891e-11
1.12913e-11
1.12918e-11
1.12935e-11
1.12942e-11
1.12969e-11
1.12985e-11
1.1303e-11
1.13066e-11
1.13134e-11
1.13207e-11
1.13311e-11
1.13469e-11
1.13667e-11
1.13922e-11
1.14294e-11
1.14852e-11
1.15659e-11
1.16399e-11
1.17628e-11
1.181e-11
1.09903e-11
1.0943e-11
1.08233e-11
1.07512e-11
1.0674e-11
1.06205e-11
1.05844e-11
1.05589e-11
1.05391e-11
1.05235e-11
1.05132e-11
1.0506e-11
1.04993e-11
1.04956e-11
1.04913e-11
1.04896e-11
1.0487e-11
1.04863e-11
1.04846e-11
1.04841e-11
1.04818e-11
1.04819e-11
1.04828e-11
1.04831e-11
1.0483e-11
1.0483e-11
1.04831e-11
1.04828e-11
1.04819e-11
1.04818e-11
1.04841e-11
1.04846e-11
1.04863e-11
1.0487e-11
1.04897e-11
1.04913e-11
1.04957e-11
1.04993e-11
1.05061e-11
1.05133e-11
1.05236e-11
1.05394e-11
1.0559e-11
1.05844e-11
1.06205e-11
1.0674e-11
1.0751e-11
1.08231e-11
1.09424e-11
1.09898e-11
1.01896e-11
1.01403e-11
1.00218e-11
9.9505e-12
9.87586e-12
9.82413e-12
9.78974e-12
9.76449e-12
9.74547e-12
9.73052e-12
9.72075e-12
9.71383e-12
9.70736e-12
9.70386e-12
9.69967e-12
9.69812e-12
9.69559e-12
9.69499e-12
9.69339e-12
9.69282e-12
9.69043e-12
9.69054e-12
9.69164e-12
9.69195e-12
9.69183e-12
9.69182e-12
9.69194e-12
9.69163e-12
9.69052e-12
9.69041e-12
9.6928e-12
9.69337e-12
9.69498e-12
9.69559e-12
9.69813e-12
9.69969e-12
9.7039e-12
9.7074e-12
9.71385e-12
9.72081e-12
9.73055e-12
9.74581e-12
9.76451e-12
9.78973e-12
9.8241e-12
9.87582e-12
9.95035e-12
1.00217e-11
1.01397e-11
1.01891e-11
9.43141e-12
9.38252e-12
9.26818e-12
9.19938e-12
9.12844e-12
9.07952e-12
9.04737e-12
9.02247e-12
9.00456e-12
8.9905e-12
8.98128e-12
8.97475e-12
8.96863e-12
8.9653e-12
8.96134e-12
8.95989e-12
8.95749e-12
8.95693e-12
8.95541e-12
8.95484e-12
8.95233e-12
8.95244e-12
8.95375e-12
8.95406e-12
8.95395e-12
8.95394e-12
8.95405e-12
8.95373e-12
8.95243e-12
8.95231e-12
8.95482e-12
8.95539e-12
8.95692e-12
8.95748e-12
8.95989e-12
8.96136e-12
8.96533e-12
8.96866e-12
8.97477e-12
8.98135e-12
8.99048e-12
9.00492e-12
9.02248e-12
9.04735e-12
9.07949e-12
9.1284e-12
9.19924e-12
9.26807e-12
9.38201e-12
9.43092e-12
8.70629e-12
8.6581e-12
8.54818e-12
8.48269e-12
8.41418e-12
8.36615e-12
8.33511e-12
8.31007e-12
8.29275e-12
8.27922e-12
8.27031e-12
8.26401e-12
8.25801e-12
8.25478e-12
8.25094e-12
8.24956e-12
8.24724e-12
8.24671e-12
8.24524e-12
8.24467e-12
8.24191e-12
8.24203e-12
8.24363e-12
8.24396e-12
8.24385e-12
8.24384e-12
8.24395e-12
8.24361e-12
8.24201e-12
8.24188e-12
8.24465e-12
8.24522e-12
8.2467e-12
8.24723e-12
8.24956e-12
8.25096e-12
8.2548e-12
8.25804e-12
8.26402e-12
8.27036e-12
8.27914e-12
8.29317e-12
8.31007e-12
8.33507e-12
8.36612e-12
8.41414e-12
8.48257e-12
8.54807e-12
8.65765e-12
8.70585e-12
8.0152e-12
7.96804e-12
7.86269e-12
7.80055e-12
7.73585e-12
7.69031e-12
7.66145e-12
7.63727e-12
7.62103e-12
7.60837e-12
7.60002e-12
7.59412e-12
7.58841e-12
7.58537e-12
7.58176e-12
7.58047e-12
7.57829e-12
7.5778e-12
7.57641e-12
7.57585e-12
7.57291e-12
7.57304e-12
7.57489e-12
7.57522e-12
7.57512e-12
7.57511e-12
7.57521e-12
7.57487e-12
7.57302e-12
7.57289e-12
7.57583e-12
7.57639e-12
7.57779e-12
7.57828e-12
7.58047e-12
7.58177e-12
7.58539e-12
7.58843e-12
7.59413e-12
7.60007e-12
7.60829e-12
7.62144e-12
7.63724e-12
7.66141e-12
7.69028e-12
7.7358e-12
7.80045e-12
7.86258e-12
7.96765e-12
8.0148e-12
7.35635e-12
7.30823e-12
7.20415e-12
7.14372e-12
7.0818e-12
7.03792e-12
7.01076e-12
6.98732e-12
6.97189e-12
6.9599e-12
6.95201e-12
6.94643e-12
6.94093e-12
6.93803e-12
6.93461e-12
6.93339e-12
6.93133e-12
6.93088e-12
6.92956e-12
6.929e-12
6.92581e-12
6.92594e-12
6.92811e-12
6.92844e-12
6.92835e-12
6.92834e-12
6.92843e-12
6.92809e-12
6.92592e-12
6.92579e-12
6.92898e-12
6.92954e-12
6.93086e-12
6.93132e-12
6.93339e-12
6.93462e-12
6.93805e-12
6.94095e-12
6.94644e-12
6.95206e-12
6.95986e-12
6.97223e-12
6.98727e-12
7.01073e-12
7.03789e-12
7.08174e-12
7.14363e-12
7.20406e-12
7.30788e-12
7.35598e-12
6.7352e-12
6.68869e-12
6.58912e-12
6.53205e-12
6.47435e-12
6.43296e-12
6.40782e-12
6.38567e-12
6.37115e-12
6.36001e-12
6.35266e-12
6.34749e-12
6.34223e-12
6.33951e-12
6.33633e-12
6.3352e-12
6.33328e-12
6.33287e-12
6.33164e-12
6.3311e-12
6.32765e-12
6.32778e-12
6.33028e-12
6.3306e-12
6.33052e-12
6.33051e-12
6.3306e-12
6.33027e-12
6.32777e-12
6.32763e-12
6.33108e-12
6.33162e-12
6.33285e-12
6.33327e-12
6.3352e-12
6.33634e-12
6.33953e-12
6.34225e-12
6.34749e-12
6.35271e-12
6.36003e-12
6.37139e-12
6.38559e-12
6.4078e-12
6.43293e-12
6.47429e-12
6.53197e-12
6.58903e-12
6.68838e-12
6.73486e-12
6.1496e-12
6.10505e-12
6.00995e-12
5.95628e-12
5.90291e-12
5.86319e-12
5.83929e-12
5.81801e-12
5.80405e-12
5.79349e-12
5.78648e-12
5.78159e-12
5.77637e-12
5.77379e-12
5.77078e-12
5.76973e-12
5.7679e-12
5.76753e-12
5.76636e-12
5.76585e-12
5.76198e-12
5.76211e-12
5.76508e-12
5.7654e-12
5.76531e-12
5.76531e-12
5.76539e-12
5.76507e-12
5.76209e-12
5.76195e-12
5.76583e-12
5.76634e-12
5.76751e-12
5.76789e-12
5.76973e-12
5.77078e-12
5.7738e-12
5.77639e-12
5.78158e-12
5.78652e-12
5.79356e-12
5.80423e-12
5.81789e-12
5.83929e-12
5.86315e-12
5.90284e-12
5.95622e-12
6.00987e-12
6.10478e-12
6.1493e-12
5.59143e-12
5.54839e-12
5.46655e-12
5.41637e-12
5.36731e-12
5.33021e-12
5.30797e-12
5.28816e-12
5.2751e-12
5.26537e-12
5.25885e-12
5.25431e-12
5.24926e-12
5.24686e-12
5.24408e-12
5.24312e-12
5.24143e-12
5.24109e-12
5.24002e-12
5.23956e-12
5.2353e-12
5.23542e-12
5.23884e-12
5.23913e-12
5.23905e-12
5.23905e-12
5.23912e-12
5.23883e-12
5.23541e-12
5.23528e-12
5.23954e-12
5.24e-12
5.24108e-12
5.24142e-12
5.24312e-12
5.24408e-12
5.24686e-12
5.24927e-12
5.2543e-12
5.25887e-12
5.26546e-12
5.27525e-12
5.28805e-12
5.30795e-12
5.33017e-12
5.36724e-12
5.41631e-12
5.46647e-12
5.54816e-12
5.59115e-12
5.07649e-12
5.03584e-12
4.95841e-12
4.91043e-12
4.86459e-12
4.82944e-12
4.80851e-12
4.78975e-12
4.77752e-12
4.76837e-12
4.76222e-12
4.75796e-12
4.75296e-12
4.75076e-12
4.74817e-12
4.7473e-12
4.74572e-12
4.74542e-12
4.74442e-12
4.74405e-12
4.73966e-12
4.73976e-12
4.74336e-12
4.7436e-12
4.74352e-12
4.74352e-12
4.74359e-12
4.74335e-12
4.73974e-12
4.73964e-12
4.74403e-12
4.7444e-12
4.7454e-12
4.74571e-12
4.74729e-12
4.74817e-12
4.75075e-12
4.75297e-12
4.75794e-12
4.76224e-12
4.76845e-12
4.77769e-12
4.78965e-12
4.80849e-12
4.8294e-12
4.86454e-12
4.91037e-12
4.95834e-12
5.03563e-12
5.07625e-12
4.59654e-12
4.55806e-12
4.48579e-12
4.44108e-12
4.39924e-12
4.36662e-12
4.34732e-12
4.32987e-12
4.31859e-12
4.31022e-12
4.30452e-12
4.30058e-12
4.29563e-12
4.29363e-12
4.29125e-12
4.29047e-12
4.28902e-12
4.28875e-12
4.28783e-12
4.28755e-12
4.2827e-12
4.28278e-12
4.28689e-12
4.28708e-12
4.28701e-12
4.287e-12
4.28708e-12
4.28688e-12
4.28276e-12
4.28268e-12
4.28753e-12
4.28781e-12
4.28873e-12
4.289e-12
4.29046e-12
4.29126e-12
4.29362e-12
4.29563e-12
4.30056e-12
4.30453e-12
4.31028e-12
4.31878e-12
4.32976e-12
4.34727e-12
4.36657e-12
4.39919e-12
4.44102e-12
4.4857e-12
4.55789e-12
4.59632e-12
4.14723e-12
4.10984e-12
4.04183e-12
3.99971e-12
3.96131e-12
3.93093e-12
3.91305e-12
3.89678e-12
3.88643e-12
3.87866e-12
3.87336e-12
3.86971e-12
3.8647e-12
3.86288e-12
3.86069e-12
3.85998e-12
3.85864e-12
3.8584e-12
3.85755e-12
3.85739e-12
3.85954e-12
3.85959e-12
3.85675e-12
3.85687e-12
3.8568e-12
3.8568e-12
3.85686e-12
3.85674e-12
3.85958e-12
3.85953e-12
3.85738e-12
3.85754e-12
3.85839e-12
3.85863e-12
3.85998e-12
3.86069e-12
3.86286e-12
3.8647e-12
3.86968e-12
3.87337e-12
3.8787e-12
3.88657e-12
3.8967e-12
3.91299e-12
3.93088e-12
3.96126e-12
3.99965e-12
4.04169e-12
4.10973e-12
4.14702e-12
3.73484e-12
3.69962e-12
3.63673e-12
3.59777e-12
3.56297e-12
3.53501e-12
3.5186e-12
3.50367e-12
3.49425e-12
3.48709e-12
3.48223e-12
3.47889e-12
3.47381e-12
3.47218e-12
3.47018e-12
3.46955e-12
3.46832e-12
3.46811e-12
3.46733e-12
3.46726e-12
3.46918e-12
3.4692e-12
3.46664e-12
3.46671e-12
3.46664e-12
3.46664e-12
3.46671e-12
3.46663e-12
3.46918e-12
3.46917e-12
3.46724e-12
3.46731e-12
3.4681e-12
3.46831e-12
3.46955e-12
3.47019e-12
3.47216e-12
3.4738e-12
3.47886e-12
3.48223e-12
3.48712e-12
3.49433e-12
3.50361e-12
3.51853e-12
3.53495e-12
3.56292e-12
3.5977e-12
3.63647e-12
3.69964e-12
3.73466e-12
3.35385e-12
3.32184e-12
3.2639e-12
3.22806e-12
3.19661e-12
3.17104e-12
3.15605e-12
3.14247e-12
3.13388e-12
3.12727e-12
3.12284e-12
3.11982e-12
3.11463e-12
3.1132e-12
3.11137e-12
3.11081e-12
3.10968e-12
3.1095e-12
3.10877e-12
3.10877e-12
3.11043e-12
3.11041e-12
3.10818e-12
3.10821e-12
3.10815e-12
3.10815e-12
3.10821e-12
3.10817e-12
3.1104e-12
3.11041e-12
3.10876e-12
3.10876e-12
3.10948e-12
3.10967e-12
3.11081e-12
3.11137e-12
3.11316e-12
3.11462e-12
3.11979e-12
3.12283e-12
3.12731e-12
3.13392e-12
3.14242e-12
3.15598e-12
3.17097e-12
3.19655e-12
3.22798e-12
3.26375e-12
3.32176e-12
3.35367e-12
3.00495e-12
2.97525e-12
2.92076e-12
2.88691e-12
2.85785e-12
2.83408e-12
2.82019e-12
2.80769e-12
2.79973e-12
2.79353e-12
2.78942e-12
2.78669e-12
2.78577e-12
2.78455e-12
2.78288e-12
2.78239e-12
2.78135e-12
2.78119e-12
2.78052e-12
2.78056e-12
2.78197e-12
2.78192e-12
2.78001e-12
2.78002e-12
2.77996e-12
2.77995e-12
2.78001e-12
2.78e-12
2.78191e-12
2.78195e-12
2.78055e-12
2.7805e-12
2.78118e-12
2.78134e-12
2.78239e-12
2.78288e-12
2.7845e-12
2.78576e-12
2.78666e-12
2.7894e-12
2.79357e-12
2.79974e-12
2.80764e-12
2.82011e-12
2.83402e-12
2.8578e-12
2.88683e-12
2.92064e-12
2.97515e-12
3.0048e-12
2.68583e-12
2.65849e-12
2.60838e-12
2.57746e-12
2.55129e-12
2.52973e-12
2.51712e-12
2.50586e-12
2.49864e-12
2.49291e-12
2.48916e-12
)
;

boundaryField
{
    fuel
    {
        type            fixedValue;
        value           nonuniform 0();
    }
    wall
    {
        type            zeroGradient;
    }
    outlet
    {
        type            zeroGradient;
    }
    frontAndBack
    {
        type            empty;
    }
    procBoundary2to0
    {
        type            processor;
        value           nonuniform List<scalar> 
53
(
3.77633e-11
3.78109e-11
3.7762e-11
3.77324e-11
3.76649e-11
3.76217e-11
3.75739e-11
3.75416e-11
3.75128e-11
3.74945e-11
3.74841e-11
3.74743e-11
3.74643e-11
3.74591e-11
3.74532e-11
3.74508e-11
3.74474e-11
3.74464e-11
3.64554e-11
3.64554e-11
3.64551e-11
3.64538e-11
3.64537e-11
3.64531e-11
3.6453e-11
3.64528e-11
3.64528e-11
3.6453e-11
3.6453e-11
3.5454e-11
3.5454e-11
3.54541e-11
3.54554e-11
3.54557e-11
3.54578e-11
3.54589e-11
3.54624e-11
3.54648e-11
3.54708e-11
3.54761e-11
3.54861e-11
3.54959e-11
3.44994e-11
3.44994e-11
3.45181e-11
3.45476e-11
3.45823e-11
3.46336e-11
3.46829e-11
3.47585e-11
3.48006e-11
3.48693e-11
3.48384e-11
)
;
    }
    procBoundary2to3
    {
        type            processor;
        value           nonuniform List<scalar> 
51
(
2.48677e-12
2.48587e-12
2.48482e-12
2.48333e-12
2.4829e-12
2.48196e-12
2.48182e-12
2.48121e-12
2.48128e-12
2.48246e-12
2.4824e-12
2.48077e-12
2.48076e-12
2.4807e-12
2.4807e-12
2.48076e-12
2.48077e-12
2.48238e-12
2.48244e-12
2.48127e-12
2.4812e-12
2.48181e-12
2.48195e-12
2.4829e-12
2.48333e-12
2.48478e-12
2.48586e-12
2.48674e-12
2.48917e-12
2.49305e-12
2.4987e-12
2.50586e-12
2.51709e-12
2.52971e-12
2.55126e-12
2.5774e-12
2.6083e-12
2.65842e-12
2.68571e-12
2.39501e-12
2.36996e-12
2.3242e-12
2.29596e-12
2.27248e-12
2.25306e-12
2.24163e-12
2.23159e-12
2.22509e-12
2.21985e-12
2.48677e-12
2.21631e-12
)
;
    }
}


// ************************************************************************* //
