/*--------------------------------*- C++ -*----------------------------------*\
| =========                 |                                                 |
| \\      /  F ield         | OpenFOAM: The Open Source CFD Toolbox           |
|  \\    /   O peration     | Version:  dev                                   |
|   \\  /    A nd           | Web:      www.OpenFOAM.org                      |
|    \\/     M anipulation  |                                                 |
\*---------------------------------------------------------------------------*/
FoamFile
{
    version     2.0;
    format      ascii;
    class       volScalarField;
    location    "0.055";
    object      n-A1C2H2;
}
// * * * * * * * * * * * * * * * * * * * * * * * * * * * * * * * * * * * * * //

dimensions      [0 0 0 0 0 0 0];

internalField   nonuniform List<scalar> 
1997
(
2.16714e-11
2.17268e-11
2.17741e-11
2.18074e-11
2.1828e-11
2.1841e-11
2.18486e-11
2.18546e-11
2.18579e-11
2.18614e-11
2.18649e-11
2.18669e-11
2.18681e-11
2.18694e-11
2.18701e-11
2.1871e-11
2.18715e-11
2.18721e-11
2.15791e-11
2.16326e-11
2.16792e-11
2.17125e-11
2.17339e-11
2.17473e-11
2.17556e-11
2.1762e-11
2.17657e-11
2.17693e-11
2.17729e-11
2.1775e-11
2.17763e-11
2.17777e-11
2.17785e-11
2.17794e-11
2.17799e-11
2.17805e-11
2.17807e-11
2.17811e-11
2.17813e-11
2.17815e-11
2.17816e-11
2.17817e-11
2.17817e-11
2.17817e-11
2.17816e-11
2.17815e-11
2.15056e-11
2.15572e-11
2.16034e-11
2.16368e-11
2.16589e-11
2.16728e-11
2.16818e-11
2.16885e-11
2.16926e-11
2.16965e-11
2.17001e-11
2.17023e-11
2.17037e-11
2.17051e-11
2.1706e-11
2.17069e-11
2.17075e-11
2.17081e-11
2.17084e-11
2.17087e-11
2.17089e-11
2.17091e-11
2.17092e-11
2.17093e-11
2.17093e-11
2.17093e-11
2.17093e-11
2.17092e-11
2.1709e-11
2.17088e-11
2.17086e-11
2.17082e-11
2.17079e-11
2.17073e-11
2.17067e-11
2.17058e-11
2.17049e-11
2.17034e-11
2.1702e-11
2.16998e-11
2.14503e-11
2.15003e-11
2.15462e-11
2.15798e-11
2.16025e-11
2.16169e-11
2.16266e-11
2.16337e-11
2.16381e-11
2.16422e-11
2.16459e-11
2.16483e-11
2.16498e-11
2.16512e-11
2.16522e-11
2.16531e-11
2.16537e-11
2.16543e-11
2.16546e-11
2.1655e-11
2.16552e-11
2.16554e-11
2.16555e-11
2.16556e-11
2.16556e-11
2.16556e-11
2.16556e-11
2.16554e-11
2.16553e-11
2.16551e-11
2.16549e-11
2.16545e-11
2.16541e-11
2.16535e-11
2.16529e-11
2.16519e-11
2.1651e-11
2.16495e-11
2.1648e-11
2.16456e-11
2.16418e-11
2.16377e-11
2.16333e-11
2.16261e-11
2.16165e-11
2.16018e-11
2.15794e-11
2.15455e-11
2.14999e-11
2.14501e-11
2.14128e-11
2.14612e-11
2.15071e-11
2.15408e-11
2.15642e-11
2.15792e-11
2.15895e-11
2.1597e-11
2.16018e-11
2.16061e-11
2.16099e-11
2.16123e-11
2.16139e-11
2.16154e-11
2.16164e-11
2.16174e-11
2.1618e-11
2.16186e-11
2.16189e-11
2.16193e-11
2.16195e-11
2.16197e-11
2.16198e-11
2.16199e-11
2.16199e-11
2.16199e-11
2.16199e-11
2.16198e-11
2.16196e-11
2.16194e-11
2.16192e-11
2.16188e-11
2.16184e-11
2.16178e-11
2.16171e-11
2.16162e-11
2.16151e-11
2.16136e-11
2.1612e-11
2.16096e-11
2.16056e-11
2.16013e-11
2.15966e-11
2.15891e-11
2.15787e-11
2.15635e-11
2.15405e-11
2.15064e-11
2.14609e-11
2.14126e-11
2.13923e-11
2.14394e-11
2.14853e-11
2.15191e-11
2.15431e-11
2.15585e-11
2.15696e-11
2.15774e-11
2.15825e-11
2.15869e-11
2.15908e-11
2.15933e-11
2.1595e-11
2.15966e-11
2.15976e-11
2.15986e-11
2.15993e-11
2.15999e-11
2.16002e-11
2.16006e-11
2.16008e-11
2.16011e-11
2.16011e-11
2.16012e-11
2.16013e-11
2.16013e-11
2.16012e-11
2.16011e-11
2.1601e-11
2.16008e-11
2.16005e-11
2.16001e-11
2.15997e-11
2.15991e-11
2.15984e-11
2.15974e-11
2.15963e-11
2.15948e-11
2.1593e-11
2.15905e-11
2.15865e-11
2.1582e-11
2.15769e-11
2.15691e-11
2.15581e-11
2.15424e-11
2.15188e-11
2.14846e-11
2.1439e-11
2.1392e-11
2.13889e-11
2.14347e-11
2.14807e-11
2.15147e-11
2.15394e-11
2.15553e-11
2.1567e-11
2.15752e-11
2.15806e-11
2.15852e-11
2.15892e-11
2.15918e-11
2.15936e-11
2.15951e-11
2.15963e-11
2.15973e-11
2.15979e-11
2.15986e-11
2.1599e-11
2.15993e-11
2.15996e-11
2.15998e-11
2.15999e-11
2.16e-11
2.16e-11
2.16e-11
2.16e-11
2.15998e-11
2.15997e-11
2.15995e-11
2.15992e-11
2.15988e-11
2.15984e-11
2.15977e-11
2.1597e-11
2.1596e-11
2.15949e-11
2.15933e-11
2.15914e-11
2.15889e-11
2.15847e-11
2.15801e-11
2.15747e-11
2.15665e-11
2.15548e-11
2.15386e-11
2.15145e-11
2.148e-11
2.14342e-11
2.13885e-11
2.14016e-11
2.14462e-11
2.14925e-11
2.15266e-11
2.15521e-11
2.15684e-11
2.15808e-11
2.15894e-11
2.1595e-11
2.15998e-11
2.16039e-11
2.16065e-11
2.16084e-11
2.161e-11
2.16112e-11
2.16122e-11
2.16129e-11
2.16136e-11
2.1614e-11
2.16143e-11
2.16146e-11
2.16148e-11
2.16149e-11
2.1615e-11
2.1615e-11
2.1615e-11
2.1615e-11
2.16149e-11
2.16147e-11
2.16145e-11
2.16142e-11
2.16138e-11
2.16134e-11
2.16127e-11
2.1612e-11
2.1611e-11
2.16097e-11
2.16081e-11
2.16062e-11
2.16036e-11
2.15993e-11
2.15945e-11
2.15889e-11
2.15803e-11
2.15679e-11
2.15512e-11
2.15265e-11
2.14918e-11
2.14458e-11
2.14012e-11
2.14297e-11
2.14734e-11
2.15199e-11
2.15542e-11
2.15804e-11
2.15971e-11
2.16102e-11
2.16191e-11
2.16249e-11
2.16299e-11
2.16341e-11
2.16368e-11
2.16388e-11
2.16404e-11
2.16416e-11
2.16426e-11
2.16434e-11
2.1644e-11
2.16445e-11
2.16448e-11
2.16451e-11
2.16453e-11
2.16454e-11
2.16455e-11
2.16456e-11
2.16456e-11
2.16455e-11
2.16454e-11
2.16453e-11
2.1645e-11
2.16447e-11
2.16443e-11
2.16438e-11
2.16432e-11
2.16424e-11
2.16414e-11
2.16401e-11
2.16385e-11
2.16365e-11
2.16338e-11
2.16294e-11
2.16244e-11
2.16186e-11
2.16097e-11
2.15966e-11
2.15794e-11
2.15542e-11
2.15192e-11
2.14728e-11
2.14293e-11
2.14725e-11
2.15151e-11
2.1562e-11
2.15966e-11
2.16232e-11
2.16404e-11
2.16541e-11
2.16633e-11
2.16694e-11
2.16745e-11
2.16788e-11
2.16815e-11
2.16836e-11
2.16853e-11
2.16866e-11
2.16876e-11
2.16884e-11
2.1689e-11
2.16895e-11
2.16899e-11
2.16902e-11
2.16904e-11
2.16905e-11
2.16905e-11
2.16906e-11
2.16906e-11
2.16905e-11
2.16904e-11
2.16903e-11
2.16901e-11
2.16897e-11
2.16893e-11
2.16888e-11
2.16882e-11
2.16874e-11
2.16863e-11
2.1685e-11
2.16833e-11
2.16812e-11
2.16785e-11
2.1674e-11
2.16689e-11
2.16628e-11
2.16537e-11
2.16399e-11
2.16223e-11
2.15965e-11
2.15613e-11
2.15146e-11
2.14721e-11
2.15303e-11
2.1572e-11
2.16192e-11
2.16541e-11
2.16811e-11
2.16987e-11
2.17131e-11
2.17226e-11
2.17289e-11
2.17341e-11
2.17384e-11
2.17412e-11
2.17434e-11
2.17451e-11
2.17464e-11
2.17474e-11
2.17483e-11
2.17489e-11
2.17494e-11
2.17498e-11
2.17501e-11
2.17503e-11
2.17504e-11
2.17505e-11
2.17505e-11
2.17505e-11
2.17505e-11
2.17504e-11
2.17502e-11
2.175e-11
2.17496e-11
2.17493e-11
2.17487e-11
2.17481e-11
2.17472e-11
2.17462e-11
2.17448e-11
2.17431e-11
2.17409e-11
2.17381e-11
2.17336e-11
2.17284e-11
2.17221e-11
2.17126e-11
2.16983e-11
2.16802e-11
2.16539e-11
2.16185e-11
2.15715e-11
2.15298e-11
2.15996e-11
2.16406e-11
2.16881e-11
2.17233e-11
2.17505e-11
2.17686e-11
2.17835e-11
2.17933e-11
2.17997e-11
2.18051e-11
2.18094e-11
2.18123e-11
2.18145e-11
2.18162e-11
2.18176e-11
2.18186e-11
2.18195e-11
2.18201e-11
2.18206e-11
2.1821e-11
2.18213e-11
2.18215e-11
2.18216e-11
2.18217e-11
2.18217e-11
2.18217e-11
2.18217e-11
2.18216e-11
2.18214e-11
2.18212e-11
2.18209e-11
2.18205e-11
2.18199e-11
2.18193e-11
2.18184e-11
2.18173e-11
2.18159e-11
2.18142e-11
2.18119e-11
2.18091e-11
2.18046e-11
2.17992e-11
2.17927e-11
2.1783e-11
2.17681e-11
2.17497e-11
2.1723e-11
2.16874e-11
2.164e-11
2.15992e-11
2.16821e-11
2.17223e-11
2.17701e-11
2.18055e-11
2.1833e-11
2.18515e-11
2.1867e-11
2.1877e-11
2.18836e-11
2.18891e-11
2.18935e-11
2.18964e-11
2.18987e-11
2.19004e-11
2.19018e-11
2.19028e-11
2.19037e-11
2.19043e-11
2.19049e-11
2.19053e-11
2.19056e-11
2.19058e-11
2.19059e-11
2.1906e-11
2.1906e-11
2.1906e-11
2.1906e-11
2.19059e-11
2.19057e-11
2.19055e-11
2.19051e-11
2.19047e-11
2.19042e-11
2.19035e-11
2.19026e-11
2.19016e-11
2.19001e-11
2.18984e-11
2.18961e-11
2.18931e-11
2.18887e-11
2.18831e-11
2.18765e-11
2.18665e-11
2.1851e-11
2.18323e-11
2.18051e-11
2.17694e-11
2.17217e-11
2.16816e-11
2.17743e-11
2.18139e-11
2.18619e-11
2.18974e-11
2.19251e-11
2.19438e-11
2.19596e-11
2.19699e-11
2.19766e-11
2.19821e-11
2.19865e-11
2.19894e-11
2.19918e-11
2.19935e-11
2.1995e-11
2.1996e-11
2.19969e-11
2.19975e-11
2.1998e-11
2.19984e-11
2.19988e-11
2.1999e-11
2.19991e-11
2.19992e-11
2.19992e-11
2.19992e-11
2.19991e-11
2.19991e-11
2.19989e-11
2.19987e-11
2.19983e-11
2.19979e-11
2.19973e-11
2.19967e-11
2.19958e-11
2.19947e-11
2.19932e-11
2.19915e-11
2.19891e-11
2.19862e-11
2.19817e-11
2.1976e-11
2.19694e-11
2.19591e-11
2.19433e-11
2.19244e-11
2.18969e-11
2.18611e-11
2.18132e-11
2.17738e-11
2.18772e-11
2.19161e-11
2.19645e-11
2.2e-11
2.2028e-11
2.2047e-11
2.20631e-11
2.20737e-11
2.20805e-11
2.20861e-11
2.20904e-11
2.20934e-11
2.20958e-11
2.20975e-11
2.2099e-11
2.21001e-11
2.2101e-11
2.21016e-11
2.21022e-11
2.21025e-11
2.2103e-11
2.21031e-11
2.21032e-11
2.21033e-11
2.21033e-11
2.21033e-11
2.21033e-11
2.21032e-11
2.21031e-11
2.21029e-11
2.21024e-11
2.2102e-11
2.21014e-11
2.21008e-11
2.20998e-11
2.20988e-11
2.20973e-11
2.20955e-11
2.20931e-11
2.20901e-11
2.20857e-11
2.20799e-11
2.20732e-11
2.20627e-11
2.20465e-11
2.20274e-11
2.19996e-11
2.19637e-11
2.19155e-11
2.18767e-11
2.19897e-11
2.2028e-11
2.20762e-11
2.21117e-11
2.21397e-11
2.21588e-11
2.2175e-11
2.21858e-11
2.21925e-11
2.21982e-11
2.22025e-11
2.22055e-11
2.22079e-11
2.22096e-11
2.22111e-11
2.22121e-11
2.22131e-11
2.22137e-11
2.22142e-11
2.22146e-11
2.22151e-11
2.22152e-11
2.22153e-11
2.22154e-11
2.22154e-11
2.22154e-11
2.22153e-11
2.22153e-11
2.22152e-11
2.2215e-11
2.22145e-11
2.22141e-11
2.22135e-11
2.22129e-11
2.22119e-11
2.22108e-11
2.22093e-11
2.22076e-11
2.22051e-11
2.22021e-11
2.21977e-11
2.21919e-11
2.21852e-11
2.21746e-11
2.21583e-11
2.21391e-11
2.21112e-11
2.20754e-11
2.20273e-11
2.19891e-11
2.2109e-11
2.21468e-11
2.21948e-11
2.223e-11
2.2258e-11
2.2277e-11
2.22934e-11
2.23042e-11
2.23109e-11
2.23166e-11
2.23208e-11
2.23238e-11
2.23262e-11
2.23279e-11
2.23294e-11
2.23304e-11
2.23314e-11
2.2332e-11
2.23326e-11
2.2333e-11
2.23334e-11
2.23336e-11
2.23336e-11
2.23337e-11
2.23337e-11
2.23337e-11
2.23337e-11
2.23336e-11
2.23335e-11
2.23333e-11
2.23328e-11
2.23324e-11
2.23318e-11
2.23312e-11
2.23302e-11
2.23292e-11
2.23276e-11
2.23259e-11
2.23235e-11
2.23204e-11
2.23161e-11
2.23103e-11
2.23036e-11
2.22929e-11
2.22765e-11
2.22574e-11
2.22295e-11
2.2194e-11
2.21461e-11
2.21084e-11
2.22342e-11
2.22714e-11
2.23191e-11
2.2354e-11
2.23818e-11
2.24007e-11
2.2417e-11
2.24278e-11
2.24344e-11
2.24401e-11
2.24442e-11
2.24472e-11
2.24496e-11
2.24513e-11
2.24529e-11
2.24539e-11
2.24548e-11
2.24554e-11
2.2456e-11
2.24564e-11
2.24569e-11
2.2457e-11
2.24571e-11
2.24571e-11
2.24572e-11
2.24572e-11
2.24571e-11
2.2457e-11
2.2457e-11
2.24568e-11
2.24563e-11
2.24558e-11
2.24552e-11
2.24546e-11
2.24536e-11
2.24526e-11
2.24511e-11
2.24493e-11
2.24469e-11
2.24439e-11
2.24397e-11
2.24339e-11
2.24272e-11
2.24165e-11
2.24002e-11
2.23812e-11
2.23534e-11
2.23182e-11
2.22707e-11
2.22336e-11
2.23609e-11
2.23975e-11
2.24446e-11
2.24793e-11
2.25069e-11
2.25257e-11
2.25416e-11
2.25524e-11
2.2559e-11
2.25646e-11
2.25687e-11
2.25716e-11
2.2574e-11
2.25757e-11
2.25772e-11
2.25782e-11
2.25792e-11
2.25798e-11
2.25803e-11
2.25807e-11
2.25813e-11
2.25814e-11
2.25814e-11
2.25815e-11
2.25815e-11
2.25815e-11
2.25814e-11
2.25814e-11
2.25814e-11
2.25812e-11
2.25806e-11
2.25802e-11
2.25796e-11
2.2579e-11
2.2578e-11
2.2577e-11
2.25754e-11
2.25737e-11
2.25713e-11
2.25683e-11
2.25642e-11
2.25585e-11
2.25518e-11
2.25411e-11
2.25252e-11
2.25064e-11
2.24788e-11
2.24438e-11
2.23968e-11
2.23603e-11
2.24921e-11
2.25279e-11
2.25745e-11
2.26075e-11
2.26347e-11
2.26531e-11
2.26686e-11
2.26793e-11
2.26858e-11
2.26914e-11
2.26953e-11
2.26982e-11
2.27005e-11
2.27022e-11
2.27037e-11
2.27047e-11
2.27056e-11
2.27062e-11
2.27068e-11
2.27072e-11
2.27077e-11
2.27079e-11
2.27079e-11
2.27079e-11
2.2708e-11
2.2708e-11
2.27079e-11
2.27078e-11
2.27078e-11
2.27077e-11
2.27071e-11
2.27067e-11
2.2706e-11
2.27054e-11
2.27045e-11
2.27035e-11
2.27019e-11
2.27002e-11
2.26979e-11
2.26949e-11
2.26909e-11
2.26852e-11
2.26787e-11
2.26681e-11
2.26526e-11
2.26341e-11
2.26069e-11
2.25737e-11
2.25272e-11
2.24915e-11
2.26234e-11
2.26586e-11
2.27043e-11
2.27372e-11
2.27644e-11
2.27827e-11
2.27979e-11
2.28085e-11
2.28149e-11
2.28204e-11
2.28242e-11
2.28271e-11
2.28295e-11
2.28311e-11
2.28326e-11
2.28336e-11
2.28345e-11
2.28351e-11
2.28357e-11
2.28361e-11
2.28366e-11
2.28368e-11
2.28367e-11
2.28368e-11
2.28368e-11
2.28368e-11
2.28368e-11
2.28367e-11
2.28367e-11
2.28365e-11
2.2836e-11
2.28355e-11
2.28349e-11
2.28343e-11
2.28333e-11
2.28323e-11
2.28308e-11
2.28291e-11
2.28268e-11
2.28239e-11
2.282e-11
2.28144e-11
2.28079e-11
2.27974e-11
2.27822e-11
2.27639e-11
2.27366e-11
2.27035e-11
2.26579e-11
2.26228e-11
2.27548e-11
2.27892e-11
2.28339e-11
2.28661e-11
2.28926e-11
2.29103e-11
2.29247e-11
2.29353e-11
2.29416e-11
2.2947e-11
2.29506e-11
2.29535e-11
2.29557e-11
2.29574e-11
2.29588e-11
2.29598e-11
2.29607e-11
2.29613e-11
2.29618e-11
2.29623e-11
2.29628e-11
2.2963e-11
2.29629e-11
2.29629e-11
2.2963e-11
2.2963e-11
2.29629e-11
2.29629e-11
2.29629e-11
2.29628e-11
2.29621e-11
2.29617e-11
2.29611e-11
2.29605e-11
2.29596e-11
2.29586e-11
2.29571e-11
2.29554e-11
2.29531e-11
2.29502e-11
2.29465e-11
2.2941e-11
2.29348e-11
2.29242e-11
2.29098e-11
2.2892e-11
2.28655e-11
2.28331e-11
2.27885e-11
2.27541e-11
2.2886e-11
2.29197e-11
2.29632e-11
2.29945e-11
2.30204e-11
2.30376e-11
2.30511e-11
2.30603e-11
2.30663e-11
2.30716e-11
2.30751e-11
2.30779e-11
2.30801e-11
2.30817e-11
2.30831e-11
2.30841e-11
2.30849e-11
2.30855e-11
2.30861e-11
2.30865e-11
2.30871e-11
2.30873e-11
2.30871e-11
2.30871e-11
2.30872e-11
2.30872e-11
2.30871e-11
2.30871e-11
2.30872e-11
2.3087e-11
2.30864e-11
2.30859e-11
2.30853e-11
2.30847e-11
2.30838e-11
2.30828e-11
2.30814e-11
2.30798e-11
2.30775e-11
2.30747e-11
2.30712e-11
2.30658e-11
2.30597e-11
2.30506e-11
2.30371e-11
2.30198e-11
2.2994e-11
2.29624e-11
2.29189e-11
2.28853e-11
2.30133e-11
2.30462e-11
2.30883e-11
2.31186e-11
2.31436e-11
2.31602e-11
2.31729e-11
2.31821e-11
2.31881e-11
2.3193e-11
2.31964e-11
2.3199e-11
2.32012e-11
2.32027e-11
2.32041e-11
2.3205e-11
2.32059e-11
2.32064e-11
2.3207e-11
2.32074e-11
2.32081e-11
2.32082e-11
2.3208e-11
2.32081e-11
2.32081e-11
2.32081e-11
2.3208e-11
2.3208e-11
2.32082e-11
2.3208e-11
2.32073e-11
2.32069e-11
2.32063e-11
2.32057e-11
2.32048e-11
2.32039e-11
2.32025e-11
2.32009e-11
2.31987e-11
2.3196e-11
2.31926e-11
2.31875e-11
2.31816e-11
2.31724e-11
2.31597e-11
2.31431e-11
2.3118e-11
2.30875e-11
2.30454e-11
2.30126e-11
2.31367e-11
2.31687e-11
2.32093e-11
2.32385e-11
2.32624e-11
2.32784e-11
2.32906e-11
2.32996e-11
2.33053e-11
2.33101e-11
2.33133e-11
2.33159e-11
2.3318e-11
2.33196e-11
2.33209e-11
2.33218e-11
2.33227e-11
2.33232e-11
2.33237e-11
2.33241e-11
2.33249e-11
2.3325e-11
2.33248e-11
2.33248e-11
2.33248e-11
2.33248e-11
2.33247e-11
2.33247e-11
2.33249e-11
2.33248e-11
2.3324e-11
2.33236e-11
2.3323e-11
2.33224e-11
2.33216e-11
2.33207e-11
2.33193e-11
2.33177e-11
2.33156e-11
2.33129e-11
2.33097e-11
2.33047e-11
2.3299e-11
2.32901e-11
2.32779e-11
2.32619e-11
2.32379e-11
2.32085e-11
2.31679e-11
2.3136e-11
2.32565e-11
2.32876e-11
2.33266e-11
2.33548e-11
2.33774e-11
2.33928e-11
2.3403e-11
2.34117e-11
2.34172e-11
2.34218e-11
2.34248e-11
2.34273e-11
2.34293e-11
2.34308e-11
2.34321e-11
2.34329e-11
2.34337e-11
2.34343e-11
2.34348e-11
2.34352e-11
2.34359e-11
2.34361e-11
2.34358e-11
2.34358e-11
2.34358e-11
2.34358e-11
2.34358e-11
2.34358e-11
2.3436e-11
2.34358e-11
2.34351e-11
2.34346e-11
2.34341e-11
2.34335e-11
2.34327e-11
2.34318e-11
2.34305e-11
2.3429e-11
2.34269e-11
2.34244e-11
2.34213e-11
2.34166e-11
2.34111e-11
2.34025e-11
2.33923e-11
2.33769e-11
2.33542e-11
2.33258e-11
2.32869e-11
2.32558e-11
2.33691e-11
2.33992e-11
2.34362e-11
2.34632e-11
2.34844e-11
2.34991e-11
2.35091e-11
2.35175e-11
2.35228e-11
2.35272e-11
2.35301e-11
2.35325e-11
2.35345e-11
2.35359e-11
2.35371e-11
2.3538e-11
2.35387e-11
2.35392e-11
2.35397e-11
2.35402e-11
2.35409e-11
2.35411e-11
2.35407e-11
2.35407e-11
2.35408e-11
2.35408e-11
2.35407e-11
2.35407e-11
2.3541e-11
2.35408e-11
2.354e-11
2.35396e-11
2.35391e-11
2.35385e-11
2.35377e-11
2.35369e-11
2.35356e-11
2.35342e-11
2.35321e-11
2.35297e-11
2.35267e-11
2.35222e-11
2.3517e-11
2.35086e-11
2.34985e-11
2.34839e-11
2.34625e-11
2.34354e-11
2.33984e-11
2.33683e-11
2.34764e-11
2.35056e-11
2.35407e-11
2.35665e-11
2.35864e-11
2.36003e-11
2.361e-11
2.36178e-11
2.36229e-11
2.3627e-11
2.36297e-11
2.36319e-11
2.36339e-11
2.36353e-11
2.36364e-11
2.36372e-11
2.36379e-11
2.36384e-11
2.36389e-11
2.36393e-11
2.36401e-11
2.36402e-11
2.36398e-11
2.36398e-11
2.36399e-11
2.36399e-11
2.36398e-11
2.36398e-11
2.36402e-11
2.364e-11
2.36392e-11
2.36387e-11
2.36382e-11
2.36377e-11
2.3637e-11
2.36361e-11
2.3635e-11
2.36336e-11
2.36316e-11
2.36293e-11
2.36265e-11
2.36223e-11
2.36173e-11
2.36095e-11
2.35997e-11
2.35858e-11
2.35658e-11
2.354e-11
2.35049e-11
2.34757e-11
2.35767e-11
2.36047e-11
2.36377e-11
2.36621e-11
2.36806e-11
2.36936e-11
2.37028e-11
2.37102e-11
2.37149e-11
2.37187e-11
2.37212e-11
2.37234e-11
2.37252e-11
2.37266e-11
2.37276e-11
2.37284e-11
2.37291e-11
2.37296e-11
2.373e-11
2.37304e-11
2.37312e-11
2.37313e-11
2.37309e-11
2.37309e-11
2.3731e-11
2.3731e-11
2.37309e-11
2.37309e-11
2.37313e-11
2.37311e-11
2.37303e-11
2.37298e-11
2.37294e-11
2.37289e-11
2.37282e-11
2.37274e-11
2.37263e-11
2.37249e-11
2.3723e-11
2.37208e-11
2.37182e-11
2.37143e-11
2.37096e-11
2.37023e-11
2.36931e-11
2.368e-11
2.36615e-11
2.36369e-11
2.3604e-11
2.35759e-11
2.36709e-11
2.3698e-11
2.37288e-11
2.37519e-11
2.37689e-11
2.37812e-11
2.37899e-11
2.37967e-11
2.38013e-11
2.38048e-11
2.38072e-11
2.38092e-11
2.3811e-11
2.38123e-11
2.38133e-11
2.3814e-11
2.38146e-11
2.38151e-11
2.38155e-11
2.38159e-11
2.38166e-11
2.38168e-11
2.38164e-11
2.38164e-11
2.38164e-11
2.38164e-11
2.38164e-11
2.38163e-11
2.38167e-11
2.38165e-11
2.38157e-11
2.38153e-11
2.38149e-11
2.38144e-11
2.38138e-11
2.3813e-11
2.3812e-11
2.38107e-11
2.38088e-11
2.38068e-11
2.38043e-11
2.38007e-11
2.37962e-11
2.37893e-11
2.37806e-11
2.37683e-11
2.37512e-11
2.37281e-11
2.36972e-11
2.36702e-11
2.37596e-11
2.37855e-11
2.38142e-11
2.3836e-11
2.38514e-11
2.38629e-11
2.3871e-11
2.38773e-11
2.38816e-11
2.38848e-11
2.38871e-11
2.3889e-11
2.38908e-11
2.3892e-11
2.38929e-11
2.38936e-11
2.38942e-11
2.38946e-11
2.3895e-11
2.38953e-11
2.3896e-11
2.38962e-11
2.38958e-11
2.38959e-11
2.38959e-11
2.38959e-11
2.38958e-11
2.38958e-11
2.38961e-11
2.38959e-11
2.38952e-11
2.38948e-11
2.38944e-11
2.38939e-11
2.38934e-11
2.38926e-11
2.38917e-11
2.38905e-11
2.38887e-11
2.38867e-11
2.38843e-11
2.3881e-11
2.38768e-11
2.38705e-11
2.38623e-11
2.38508e-11
2.38353e-11
2.38134e-11
2.37848e-11
2.37588e-11
2.38437e-11
2.38686e-11
2.38951e-11
2.39157e-11
2.39296e-11
2.39404e-11
2.3948e-11
2.39538e-11
2.39578e-11
2.39609e-11
2.3963e-11
2.39647e-11
2.39666e-11
2.39677e-11
2.39685e-11
2.39692e-11
2.39697e-11
2.39701e-11
2.39704e-11
2.39707e-11
2.39713e-11
2.39715e-11
2.39713e-11
2.39713e-11
2.39713e-11
2.39713e-11
2.39713e-11
2.39712e-11
2.39714e-11
2.39712e-11
2.39706e-11
2.39703e-11
2.39699e-11
2.39695e-11
2.39689e-11
2.39682e-11
2.39674e-11
2.39663e-11
2.39644e-11
2.39626e-11
2.39603e-11
2.39573e-11
2.39533e-11
2.39474e-11
2.39398e-11
2.3929e-11
2.39151e-11
2.38944e-11
2.38678e-11
2.38429e-11
2.39244e-11
2.39483e-11
2.39727e-11
2.39923e-11
2.40048e-11
2.40148e-11
2.40219e-11
2.40273e-11
2.40311e-11
2.4034e-11
2.4036e-11
2.40376e-11
2.40394e-11
2.40405e-11
2.40412e-11
2.40418e-11
2.40423e-11
2.40427e-11
2.4043e-11
2.40433e-11
2.40436e-11
2.40439e-11
2.40438e-11
2.40439e-11
2.40439e-11
2.40439e-11
2.40438e-11
2.40437e-11
2.40438e-11
2.40436e-11
2.40431e-11
2.40429e-11
2.40425e-11
2.40421e-11
2.40416e-11
2.40409e-11
2.40402e-11
2.40391e-11
2.40373e-11
2.40356e-11
2.40334e-11
2.40306e-11
2.40268e-11
2.40214e-11
2.40143e-11
2.40042e-11
2.39917e-11
2.3972e-11
2.39475e-11
2.39236e-11
2.40037e-11
2.40268e-11
2.40499e-11
2.40688e-11
2.408e-11
2.40895e-11
2.40961e-11
2.41012e-11
2.41047e-11
2.41075e-11
2.41094e-11
2.41109e-11
2.41127e-11
2.41137e-11
2.41143e-11
2.41149e-11
2.41154e-11
2.41158e-11
2.4116e-11
2.41162e-11
2.41163e-11
2.41165e-11
2.41167e-11
2.41169e-11
2.41169e-11
2.41169e-11
2.41168e-11
2.41167e-11
2.41164e-11
2.41162e-11
2.41161e-11
2.41159e-11
2.41156e-11
2.41151e-11
2.41147e-11
2.41141e-11
2.41134e-11
2.41124e-11
2.41106e-11
2.4109e-11
2.41069e-11
2.41042e-11
2.41006e-11
2.40955e-11
2.40889e-11
2.40794e-11
2.40681e-11
2.40492e-11
2.40261e-11
2.4003e-11
2.40846e-11
2.41072e-11
2.41295e-11
2.41478e-11
2.4158e-11
2.41669e-11
2.41732e-11
2.4178e-11
2.41813e-11
2.4184e-11
2.41859e-11
2.41873e-11
2.4189e-11
2.41899e-11
2.41905e-11
2.41911e-11
2.41915e-11
2.41919e-11
2.41921e-11
2.41923e-11
2.41919e-11
2.41922e-11
2.41928e-11
2.41929e-11
2.4193e-11
2.4193e-11
2.41929e-11
2.41927e-11
2.41921e-11
2.41918e-11
2.41921e-11
2.4192e-11
2.41917e-11
2.41913e-11
2.41908e-11
2.41903e-11
2.41897e-11
2.41888e-11
2.4187e-11
2.41854e-11
2.41834e-11
2.41808e-11
2.41774e-11
2.41726e-11
2.41663e-11
2.41574e-11
2.41471e-11
2.41288e-11
2.41064e-11
2.40838e-11
2.41702e-11
2.41926e-11
2.42149e-11
2.4233e-11
2.42424e-11
2.4251e-11
2.4257e-11
2.42616e-11
2.42647e-11
2.42675e-11
2.42693e-11
2.42706e-11
2.42723e-11
2.42731e-11
2.42737e-11
2.42742e-11
2.42746e-11
2.4275e-11
2.42752e-11
2.42753e-11
2.42746e-11
2.42749e-11
2.42758e-11
2.4276e-11
2.4276e-11
2.4276e-11
2.4276e-11
2.42758e-11
2.42748e-11
2.42745e-11
2.42752e-11
2.42751e-11
2.42748e-11
2.42744e-11
2.4274e-11
2.42734e-11
2.42729e-11
2.4272e-11
2.42704e-11
2.42688e-11
2.42669e-11
2.42642e-11
2.4261e-11
2.42564e-11
2.42504e-11
2.42417e-11
2.42323e-11
2.42142e-11
2.41918e-11
2.41695e-11
2.42656e-11
2.4288e-11
2.43104e-11
2.43285e-11
2.43374e-11
2.43459e-11
2.43517e-11
2.43562e-11
2.43592e-11
2.43621e-11
2.43639e-11
2.43651e-11
2.43667e-11
2.43674e-11
2.4368e-11
2.43685e-11
2.43689e-11
2.43692e-11
2.43695e-11
2.43695e-11
2.43691e-11
2.43693e-11
2.437e-11
2.43702e-11
2.43703e-11
2.43703e-11
2.43702e-11
2.437e-11
2.43693e-11
2.4369e-11
2.43694e-11
2.43693e-11
2.4369e-11
2.43687e-11
2.43682e-11
2.43677e-11
2.43672e-11
2.43664e-11
2.43649e-11
2.43634e-11
2.43614e-11
2.43586e-11
2.43555e-11
2.43511e-11
2.43453e-11
2.43367e-11
2.43279e-11
2.43097e-11
2.42872e-11
2.42648e-11
2.43758e-11
2.43988e-11
2.44218e-11
2.44404e-11
2.44491e-11
2.44579e-11
2.44635e-11
2.44681e-11
2.4471e-11
2.44741e-11
2.4476e-11
2.44772e-11
2.44785e-11
2.44792e-11
2.44798e-11
2.44802e-11
2.44807e-11
2.4481e-11
2.44813e-11
2.44813e-11
2.44813e-11
2.44816e-11
2.44818e-11
2.4482e-11
2.44821e-11
2.44821e-11
2.4482e-11
2.44818e-11
2.44815e-11
2.44812e-11
2.44812e-11
2.44811e-11
2.44808e-11
2.44805e-11
2.448e-11
2.44795e-11
2.4479e-11
2.44783e-11
2.44769e-11
2.44755e-11
2.44735e-11
2.44705e-11
2.44674e-11
2.44629e-11
2.44572e-11
2.44484e-11
2.44397e-11
2.44211e-11
2.4398e-11
2.4375e-11
2.45068e-11
2.45309e-11
2.4555e-11
2.45747e-11
2.45835e-11
2.45928e-11
2.45984e-11
2.46032e-11
2.46061e-11
2.46096e-11
2.46116e-11
2.46127e-11
2.46139e-11
2.46145e-11
2.46151e-11
2.46156e-11
2.4616e-11
2.46163e-11
2.46166e-11
2.46167e-11
2.46177e-11
2.4618e-11
2.46172e-11
2.46174e-11
2.46175e-11
2.46175e-11
2.46174e-11
2.46172e-11
2.4618e-11
2.46176e-11
2.46166e-11
2.46165e-11
2.46162e-11
2.46158e-11
2.46153e-11
2.46149e-11
2.46143e-11
2.46136e-11
2.46125e-11
2.46111e-11
2.46089e-11
2.46055e-11
2.46025e-11
2.45978e-11
2.45921e-11
2.45828e-11
2.4574e-11
2.45544e-11
2.453e-11
2.45061e-11
2.46667e-11
2.46923e-11
2.47185e-11
2.47395e-11
2.47487e-11
2.4759e-11
2.47647e-11
2.47698e-11
2.47726e-11
2.47766e-11
2.47788e-11
2.47799e-11
2.47815e-11
2.4782e-11
2.47827e-11
2.47832e-11
2.47836e-11
2.47839e-11
2.47843e-11
2.47844e-11
2.4786e-11
2.47863e-11
2.47849e-11
2.47851e-11
2.47851e-11
2.47851e-11
2.4785e-11
2.47849e-11
2.47862e-11
2.47859e-11
2.47843e-11
2.47842e-11
2.47838e-11
2.47834e-11
2.47829e-11
2.47825e-11
2.47818e-11
2.47812e-11
2.47797e-11
2.47783e-11
2.47758e-11
2.47721e-11
2.47691e-11
2.4764e-11
2.47583e-11
2.47481e-11
2.47388e-11
2.47179e-11
2.46915e-11
2.46659e-11
2.48632e-11
2.48914e-11
2.49206e-11
2.49438e-11
2.4954e-11
2.49657e-11
2.49715e-11
2.49773e-11
2.49801e-11
2.49845e-11
2.49871e-11
2.49884e-11
2.49895e-11
2.49901e-11
2.49908e-11
2.49912e-11
2.49918e-11
2.49921e-11
2.49924e-11
2.49926e-11
2.49945e-11
2.49948e-11
2.49931e-11
2.49932e-11
2.49933e-11
2.49933e-11
2.49932e-11
2.4993e-11
2.49947e-11
2.49944e-11
2.49925e-11
2.49923e-11
2.49919e-11
2.49916e-11
2.4991e-11
2.49906e-11
2.49899e-11
2.49892e-11
2.49882e-11
2.49867e-11
2.49838e-11
2.49796e-11
2.49767e-11
2.49708e-11
2.4965e-11
2.49534e-11
2.49432e-11
2.49201e-11
2.48906e-11
2.48625e-11
2.51057e-11
2.51372e-11
2.51699e-11
2.51956e-11
2.52067e-11
2.52201e-11
2.52261e-11
2.52327e-11
2.52354e-11
2.52402e-11
2.52433e-11
)
;

boundaryField
{
    fuel
    {
        type            fixedValue;
        value           nonuniform 0();
    }
    wall
    {
        type            zeroGradient;
    }
    outlet
    {
        type            zeroGradient;
    }
    frontAndBack
    {
        type            empty;
    }
    procBoundary2to0
    {
        type            processor;
        value           nonuniform List<scalar> 
53
(
2.17829e-11
2.18404e-11
2.18885e-11
2.19219e-11
2.19418e-11
2.19544e-11
2.19613e-11
2.19669e-11
2.19698e-11
2.1973e-11
2.19765e-11
2.19785e-11
2.19795e-11
2.19808e-11
2.19814e-11
2.19823e-11
2.19827e-11
2.19833e-11
2.18723e-11
2.18723e-11
2.18727e-11
2.18728e-11
2.18731e-11
2.18731e-11
2.18732e-11
2.18732e-11
2.18732e-11
2.18732e-11
2.18731e-11
2.17814e-11
2.17814e-11
2.17812e-11
2.17811e-11
2.17807e-11
2.17804e-11
2.17797e-11
2.17792e-11
2.17783e-11
2.17775e-11
2.17761e-11
2.17748e-11
2.17726e-11
2.16961e-11
2.16961e-11
2.16922e-11
2.16881e-11
2.16813e-11
2.16724e-11
2.16583e-11
2.16364e-11
2.16027e-11
2.15569e-11
2.15054e-11
)
;
    }
    procBoundary2to3
    {
        type            processor;
        value           nonuniform List<scalar> 
51
(
2.5245e-11
2.52472e-11
2.52479e-11
2.52486e-11
2.5249e-11
2.52496e-11
2.52499e-11
2.52502e-11
2.52505e-11
2.52526e-11
2.52528e-11
2.52509e-11
2.5251e-11
2.52511e-11
2.52511e-11
2.5251e-11
2.52509e-11
2.52527e-11
2.52525e-11
2.52503e-11
2.52501e-11
2.52497e-11
2.52494e-11
2.52488e-11
2.52484e-11
2.52476e-11
2.52469e-11
2.52448e-11
2.52432e-11
2.52397e-11
2.52351e-11
2.52324e-11
2.52258e-11
2.52199e-11
2.52065e-11
2.51954e-11
2.51698e-11
2.51368e-11
2.51054e-11
2.54041e-11
2.54397e-11
2.54769e-11
2.55057e-11
2.5518e-11
2.55337e-11
2.55399e-11
2.55476e-11
2.55501e-11
2.5555e-11
2.5245e-11
2.55591e-11
)
;
    }
}


// ************************************************************************* //
