/*--------------------------------*- C++ -*----------------------------------*\
| =========                 |                                                 |
| \\      /  F ield         | OpenFOAM: The Open Source CFD Toolbox           |
|  \\    /   O peration     | Version:  dev                                   |
|   \\  /    A nd           | Web:      www.OpenFOAM.org                      |
|    \\/     M anipulation  |                                                 |
\*---------------------------------------------------------------------------*/
FoamFile
{
    version     2.0;
    format      ascii;
    class       surfaceScalarField;
    location    "0.055";
    object      phi;
}
// * * * * * * * * * * * * * * * * * * * * * * * * * * * * * * * * * * * * * //

dimensions      [1 0 -1 0 0 0 0];

internalField   nonuniform List<scalar> 
11
(
1.39839e-05
1.45186e-05
1.50673e-05
1.56295e-05
1.62048e-05
1.67928e-05
1.73936e-05
1.80075e-05
1.8635e-05
1.92774e-05
1.99362e-05
)
;

boundaryField
{
    wall
    {
        type            calculated;
        value           nonuniform List<scalar> 
48
(
2.20795e-19
2.20138e-19
2.194e-19
2.18581e-19
2.17681e-19
2.16701e-19
2.15642e-19
2.14504e-19
2.1329e-19
2.12001e-19
2.10637e-19
2.09199e-19
-2.20795e-19
-2.20138e-19
-2.194e-19
-2.18581e-19
-2.17681e-19
-2.16701e-19
-2.15642e-19
-2.14504e-19
-2.1329e-19
-2.12001e-19
-2.10637e-19
-2.09199e-19
2.20795e-19
2.20138e-19
2.194e-19
2.18581e-19
2.17681e-19
2.16701e-19
2.15642e-19
2.14504e-19
2.1329e-19
2.12001e-19
2.10637e-19
2.09199e-19
-2.20795e-19
-2.20138e-19
-2.194e-19
-2.18581e-19
-2.17681e-19
-2.16701e-19
-2.15642e-19
-2.14504e-19
-2.1329e-19
-2.12001e-19
-2.10637e-19
-2.09199e-19
)
;
    }
    fuel
    {
        type            calculated;
        value           nonuniform 0();
    }
    outlet
    {
        type            calculated;
        value           nonuniform 0();
    }
    procBoundary2to1
    {
        type            processor;
        value           uniform -1.34641e-05;
    }
    procBoundary2to3
    {
        type            processor;
        value           uniform 2.06147e-05;
    }
}


// ************************************************************************* //
