/*--------------------------------*- C++ -*----------------------------------*\
| =========                 |                                                 |
| \\      /  F ield         | OpenFOAM: The Open Source CFD Toolbox           |
|  \\    /   O peration     | Version:  dev                                   |
|   \\  /    A nd           | Web:      www.OpenFOAM.org                      |
|    \\/     M anipulation  |                                                 |
\*---------------------------------------------------------------------------*/
FoamFile
{
    version     2.0;
    format      ascii;
    class       volVectorField;
    location    "0.055";
    object      U;
}
// * * * * * * * * * * * * * * * * * * * * * * * * * * * * * * * * * * * * * //

dimensions      [0 1 -1 0 0 0 0];

internalField   nonuniform List<vector> 
12
(
(4.11871e-13 -4.11871e-13 0.0579102)
(4.0462e-13 -4.0462e-13 0.0592712)
(3.97302e-13 -3.97302e-13 0.0606149)
(3.89925e-13 -3.89925e-13 0.0619401)
(3.82495e-13 -3.82495e-13 0.0632741)
(3.75019e-13 -3.75019e-13 0.0645924)
(3.67505e-13 -3.67505e-13 0.0659049)
(3.59961e-13 -3.59961e-13 0.067197)
(3.52394e-13 -3.52394e-13 0.0684804)
(3.44811e-13 -3.44811e-13 0.0697444)
(3.37218e-13 -3.37218e-13 0.0710045)
(3.29621e-13 -3.29621e-13 0.0722756)
)
;

boundaryField
{
    wall
    {
        type            zeroGradient;
    }
    fuel
    {
        type            fixedValue;
        value           nonuniform 0();
    }
    outlet
    {
        type            pressureInletOutletVelocity;
        value           nonuniform 0();
    }
    procBoundary2to1
    {
        type            processor;
        value           uniform (4.1905e-13 -4.1905e-13 0.0565753);
    }
    procBoundary2to3
    {
        type            processor;
        value           uniform (3.22027e-13 -3.22027e-13 0.0735427);
    }
}


// ************************************************************************* //
