/*--------------------------------*- C++ -*----------------------------------*\
| =========                 |                                                 |
| \\      /  F ield         | OpenFOAM: The Open Source CFD Toolbox           |
|  \\    /   O peration     | Version:  dev                                   |
|   \\  /    A nd           | Web:      www.OpenFOAM.org                      |
|    \\/     M anipulation  |                                                 |
\*---------------------------------------------------------------------------*/
FoamFile
{
    version     2.0;
    format      ascii;
    class       volScalarField;
    location    "0.04";
    object      C5H6;
}
// * * * * * * * * * * * * * * * * * * * * * * * * * * * * * * * * * * * * * //

dimensions      [0 0 0 0 0 0 0];

internalField   nonuniform List<scalar> 
13
(
1.91822e-10
1.78572e-10
1.65037e-10
1.51285e-10
1.37367e-10
1.23271e-10
1.08749e-10
9.43452e-11
7.88851e-11
6.34138e-11
4.61334e-11
2.93182e-11
1.64282e-11
)
;

boundaryField
{
    front
    {
        type            wedge;
    }
    back
    {
        type            wedge;
    }
    wall
    {
        type            zeroGradient;
    }
    fuel
    {
        type            fixedValue;
        value           nonuniform 0();
    }
    outlet
    {
        type            inletOutlet;
        inletValue      uniform 0;
        value           uniform 1.64282e-11;
    }
    axis
    {
        type            empty;
    }
    procBoundary7to6
    {
        type            processor;
        value           uniform 2.0476e-10;
    }
}


// ************************************************************************* //
