/*--------------------------------*- C++ -*----------------------------------*\
| =========                 |                                                 |
| \\      /  F ield         | OpenFOAM: The Open Source CFD Toolbox           |
|  \\    /   O peration     | Version:  dev                                   |
|   \\  /    A nd           | Web:      www.OpenFOAM.org                      |
|    \\/     M anipulation  |                                                 |
\*---------------------------------------------------------------------------*/
FoamFile
{
    version     2.0;
    format      ascii;
    class       volScalarField;
    location    "0.035";
    object      A1C2H-;
}
// * * * * * * * * * * * * * * * * * * * * * * * * * * * * * * * * * * * * * //

dimensions      [0 0 0 0 0 0 0];

internalField   nonuniform List<scalar> 
250
(
7.42277e-07
7.41969e-07
7.41618e-07
7.41803e-07
7.41482e-07
7.41721e-07
7.41964e-07
7.42949e-07
7.5298e-07
8.03155e-07
6.02029e-09
6.14181e-07
6.14197e-07
6.144e-07
6.14081e-07
6.14142e-07
6.14306e-07
6.14394e-07
6.17133e-07
6.3663e-07
7.79755e-07
4.96075e-09
4.02701e-07
4.02736e-07
4.0283e-07
4.0265e-07
4.02801e-07
4.0278e-07
4.0298e-07
4.05712e-07
4.26253e-07
5.86783e-07
2.28141e-09
2.49541e-07
2.49551e-07
2.49625e-07
2.49486e-07
2.49647e-07
2.49576e-07
2.4975e-07
2.52109e-07
2.70021e-07
4.18124e-07
9.8449e-10
1.56344e-07
1.56339e-07
1.56401e-07
1.56287e-07
1.56425e-07
1.56349e-07
1.56425e-07
1.58236e-07
1.7278e-07
3.00202e-07
5.01779e-10
9.92347e-08
9.92086e-08
9.92881e-08
9.91698e-08
9.93022e-08
9.92533e-08
9.92958e-08
1.01684e-07
1.15175e-07
2.22089e-07
3.2652e-10
6.76515e-08
6.76264e-08
6.769e-08
6.75941e-08
6.76972e-08
6.76567e-08
6.74607e-08
6.95472e-08
8.09645e-08
1.69935e-07
2.72173e-10
4.76704e-08
4.76412e-08
4.77121e-08
4.76166e-08
4.7718e-08
4.77186e-08
4.81959e-08
5.01712e-08
5.88402e-08
1.33965e-07
2.91988e-10
3.57877e-08
3.57615e-08
3.58222e-08
3.57403e-08
3.58252e-08
3.58332e-08
3.61461e-08
3.73414e-08
4.54586e-08
1.08188e-07
3.77028e-10
2.70367e-08
2.70143e-08
2.70621e-08
2.69974e-08
2.70642e-08
2.708e-08
2.72996e-08
2.83826e-08
3.57139e-08
8.90294e-08
5.57518e-10
2.18033e-08
2.18448e-08
2.17883e-08
2.18458e-08
2.18663e-08
2.20327e-08
2.30306e-08
2.86687e-08
7.43599e-08
9.92925e-10
1.77173e-08
1.77513e-08
1.77047e-08
1.77526e-08
1.77775e-08
1.79206e-08
1.89389e-08
2.4163e-08
6.28606e-08
1.73946e-09
1.47668e-08
1.4795e-08
1.47561e-08
1.4797e-08
1.48251e-08
1.49466e-08
1.58792e-08
2.05082e-08
5.36486e-08
2.65909e-09
1.25599e-08
1.25836e-08
1.25508e-08
1.25865e-08
1.26172e-08
1.27245e-08
1.35818e-08
1.75621e-08
4.59073e-08
3.63308e-09
1.08531e-08
1.08732e-08
1.08451e-08
1.08774e-08
1.091e-08
1.10081e-08
1.17977e-08
1.52103e-08
3.84378e-08
4.59589e-09
9.49259e-09
9.50991e-09
9.48565e-09
9.51546e-09
9.5494e-09
9.64109e-09
1.03695e-08
1.32918e-08
3.3032e-08
5.48408e-09
8.38015e-09
8.39529e-09
8.37414e-09
8.40226e-09
8.43704e-09
8.52355e-09
9.19655e-09
1.16955e-08
2.8442e-08
6.22232e-09
7.45196e-09
7.46534e-09
7.44681e-09
7.47371e-09
7.50881e-09
7.5907e-09
8.21251e-09
1.03471e-08
2.45e-08
6.77587e-09
6.66557e-09
6.67751e-09
6.66124e-09
6.68722e-09
6.72215e-09
6.79919e-09
7.3734e-09
9.19553e-09
2.1091e-08
7.1576e-09
5.99192e-09
6.00265e-09
5.98812e-09
6.01356e-09
6.0479e-09
6.11882e-09
6.64913e-09
8.20484e-09
1.81382e-08
7.40888e-09
5.41021e-09
5.41991e-09
5.40536e-09
5.43186e-09
5.46532e-09
5.52724e-09
6.01841e-09
7.34847e-09
1.55901e-08
7.57071e-09
4.90477e-09
4.91353e-09
4.89157e-09
4.92649e-09
4.95867e-09
5.00676e-09
5.46545e-09
6.60578e-09
1.34086e-08
7.66377e-09
4.46247e-09
4.47045e-09
4.47316e-09
4.48451e-09
4.51506e-09
4.59629e-09
4.97758e-09
5.95948e-09
1.15589e-08
7.6863e-09
4.11554e-09
4.12307e-09
4.11938e-09
4.13795e-09
4.16731e-09
4.23769e-09
4.59652e-09
5.39341e-09
1.00042e-08
7.62564e-09
)
;

boundaryField
{
    fuel
    {
        type            fixedValue;
        value           uniform 0;
    }
    wall
    {
        type            zeroGradient;
    }
    outlet
    {
        type            zeroGradient;
    }
    frontAndBack
    {
        type            empty;
    }
    procBoundary3to0
    {
        type            processor;
        value           nonuniform List<scalar> 10(3.81392e-09 3.82114e-09 3.81664e-09 3.83685e-09 3.865e-09 3.9279e-09 4.237e-09 4.94801e-09 8.71519e-09 7.47465e-09);
    }
    procBoundary3to2
    {
        type            processor;
        value           nonuniform List<scalar> 
25
(
7.41934e-07
6.1447e-07
4.02855e-07
2.49638e-07
1.56409e-07
9.92856e-08
6.76885e-08
4.77067e-08
3.58192e-08
2.70625e-08
2.1823e-08
2.1823e-08
1.77299e-08
1.4775e-08
1.25648e-08
1.08552e-08
9.4924e-09
8.37819e-09
7.44863e-09
6.66123e-09
5.98678e-09
5.40377e-09
4.89178e-09
4.46415e-09
4.11193e-09
)
;
    }
}


// ************************************************************************* //
