/*--------------------------------*- C++ -*----------------------------------*\
| =========                 |                                                 |
| \\      /  F ield         | OpenFOAM: The Open Source CFD Toolbox           |
|  \\    /   O peration     | Version:  dev                                   |
|   \\  /    A nd           | Web:      www.OpenFOAM.org                      |
|    \\/     M anipulation  |                                                 |
\*---------------------------------------------------------------------------*/
FoamFile
{
    version     2.0;
    format      ascii;
    class       volScalarField;
    location    "0.035";
    object      A3C2H;
}
// * * * * * * * * * * * * * * * * * * * * * * * * * * * * * * * * * * * * * //

dimensions      [0 0 0 0 0 0 0];

internalField   nonuniform List<scalar> 
25
(
4.26827e-14
3.99363e-14
3.72944e-14
3.48959e-14
3.27786e-14
3.09904e-14
2.95569e-14
2.84803e-14
2.77392e-14
2.72905e-14
2.70719e-14
2.7006e-14
2.7006e-14
2.69815e-14
2.68448e-14
2.6515e-14
2.59197e-14
2.49948e-14
2.36823e-14
2.19256e-14
1.96634e-14
1.68222e-14
1.33122e-14
9.07824e-15
4.57509e-15
)
;

boundaryField
{
    wall
    {
        type            zeroGradient;
    }
    fuel
    {
        type            fixedValue;
        value           nonuniform 0();
    }
    outlet
    {
        type            inletOutlet;
        inletValue      uniform 0;
        value           uniform 4.57509e-15;
    }
    procBoundary3to2
    {
        type            processor;
        value           uniform 4.54696e-14;
    }
}


// ************************************************************************* //
