/*--------------------------------*- C++ -*----------------------------------*\
| =========                 |                                                 |
| \\      /  F ield         | OpenFOAM: The Open Source CFD Toolbox           |
|  \\    /   O peration     | Version:  dev                                   |
|   \\  /    A nd           | Web:      www.OpenFOAM.org                      |
|    \\/     M anipulation  |                                                 |
\*---------------------------------------------------------------------------*/
FoamFile
{
    version     2.0;
    format      ascii;
    class       volScalarField;
    location    "0.035";
    object      A3C2H;
}
// * * * * * * * * * * * * * * * * * * * * * * * * * * * * * * * * * * * * * //

dimensions      [0 0 0 0 0 0 0];

internalField   nonuniform List<scalar> 
250
(
6.50241e-10
6.50169e-10
6.50208e-10
6.50134e-10
6.50405e-10
6.50064e-10
6.5203e-10
6.53872e-10
6.90414e-10
7.79817e-10
5.02102e-11
9.86331e-10
9.86191e-10
9.86284e-10
9.86108e-10
9.86761e-10
9.85947e-10
9.90426e-10
9.95287e-10
1.08182e-09
1.33662e-09
1.22119e-10
9.17768e-10
9.17599e-10
9.17753e-10
9.17489e-10
9.18542e-10
9.17158e-10
9.24149e-10
9.28906e-10
1.05132e-09
1.37666e-09
1.93621e-10
7.53656e-10
7.53483e-10
7.53693e-10
7.53357e-10
7.54758e-10
7.52841e-10
7.61883e-10
7.6497e-10
9.09447e-10
1.25087e-09
3.7033e-10
5.8881e-10
5.88649e-10
5.88897e-10
5.8851e-10
5.90146e-10
5.87848e-10
5.98142e-10
5.99215e-10
7.54747e-10
1.09117e-09
3.93599e-10
4.51303e-10
4.51163e-10
4.51431e-10
4.51017e-10
4.52762e-10
4.50267e-10
4.61003e-10
4.60177e-10
5.95033e-10
9.43059e-10
4.20979e-10
3.33901e-10
3.33788e-10
3.34024e-10
3.33673e-10
3.35276e-10
3.33017e-10
3.43284e-10
3.42833e-10
4.82294e-10
8.08867e-10
5.24625e-10
2.55064e-10
2.54967e-10
2.55192e-10
2.5486e-10
2.56387e-10
2.54246e-10
2.63871e-10
2.62427e-10
3.81893e-10
7.01421e-10
7.53861e-10
1.93043e-10
1.92989e-10
1.93198e-10
1.92903e-10
1.94279e-10
1.92379e-10
2.01466e-10
2.01053e-10
3.01842e-10
6.2209e-10
1.13512e-09
1.47323e-10
1.47288e-10
1.47454e-10
1.4723e-10
1.48338e-10
1.46869e-10
1.5439e-10
1.54613e-10
2.40072e-10
5.57936e-10
1.6408e-09
1.14365e-10
1.14498e-10
1.14325e-10
1.15205e-10
1.14089e-10
1.20203e-10
1.21056e-10
1.96504e-10
5.00943e-10
2.17583e-09
9.0538e-11
9.06466e-11
9.05095e-11
9.12101e-11
9.03697e-11
9.53372e-11
9.67876e-11
1.6378e-10
4.51396e-10
2.61084e-09
7.31597e-11
7.32495e-11
7.31379e-11
7.36992e-11
7.30706e-11
7.71335e-11
7.90853e-11
1.38488e-10
4.06888e-10
2.84296e-09
6.03356e-11
6.0411e-11
6.03179e-11
6.0772e-11
6.0304e-11
6.36596e-11
6.59941e-11
1.19014e-10
3.65851e-10
2.83911e-09
5.0733e-11
5.07975e-11
5.07177e-11
5.10895e-11
5.0743e-11
5.35459e-11
5.6149e-11
1.03637e-10
3.29222e-10
2.63662e-09
4.34248e-11
4.34806e-11
4.3411e-11
4.37194e-11
4.34644e-11
4.58341e-11
4.86072e-11
9.12633e-11
2.95225e-10
2.31172e-09
3.77677e-11
3.78167e-11
3.7755e-11
3.8014e-11
3.78285e-11
3.98556e-11
4.27182e-11
8.11295e-11
2.64887e-10
1.94323e-09
3.33141e-11
3.33576e-11
3.33024e-11
3.35226e-11
3.33901e-11
3.51426e-11
3.80314e-11
7.26937e-11
2.36533e-10
1.58974e-09
2.97505e-11
2.97892e-11
2.97397e-11
2.99286e-11
2.98372e-11
3.13654e-11
3.42326e-11
6.55661e-11
2.10521e-10
1.28364e-09
2.68545e-11
2.68891e-11
2.68449e-11
2.70077e-11
2.69492e-11
2.82886e-11
3.11009e-11
5.94568e-11
1.87264e-10
1.03579e-09
2.44668e-11
2.44972e-11
2.44586e-11
2.4598e-11
2.45683e-11
2.57404e-11
2.84793e-11
5.41483e-11
1.66512e-10
8.46409e-10
2.24696e-11
2.24954e-11
2.24636e-11
2.25792e-11
2.25787e-11
2.3589e-11
2.62548e-11
4.94778e-11
1.48723e-10
6.72116e-10
2.09719e-11
2.09959e-11
2.09666e-11
2.10741e-11
2.10803e-11
2.20067e-11
2.45252e-11
4.53131e-11
1.32424e-10
5.60032e-10
1.96179e-11
1.96409e-11
1.96141e-11
1.97103e-11
1.97297e-11
2.05648e-11
2.29578e-11
4.15322e-11
1.17671e-10
4.7571e-10
)
;

boundaryField
{
    fuel
    {
        type            fixedValue;
        value           uniform 0;
    }
    wall
    {
        type            zeroGradient;
    }
    outlet
    {
        type            zeroGradient;
    }
    frontAndBack
    {
        type            empty;
    }
    procBoundary3to0
    {
        type            processor;
        value           nonuniform List<scalar> 10(1.85547e-11 1.85759e-11 1.85527e-11 1.86405e-11 1.86687e-11 1.94274e-11 2.16798e-11 3.80088e-11 1.0447e-10 4.13025e-10);
    }
    procBoundary3to2
    {
        type            processor;
        value           nonuniform List<scalar> 
25
(
6.50269e-10
9.86379e-10
9.17809e-10
7.5369e-10
5.88843e-10
4.51341e-10
3.3393e-10
2.55092e-10
1.93098e-10
1.47371e-10
1.14388e-10
1.14388e-10
9.05567e-11
7.31748e-11
6.03477e-11
5.07427e-11
4.34326e-11
3.77741e-11
3.33195e-11
2.9755e-11
2.68585e-11
2.44702e-11
2.24724e-11
2.09745e-11
1.96202e-11
)
;
    }
}


// ************************************************************************* //
