/*--------------------------------*- C++ -*----------------------------------*\
| =========                 |                                                 |
| \\      /  F ield         | OpenFOAM: The Open Source CFD Toolbox           |
|  \\    /   O peration     | Version:  dev                                   |
|   \\  /    A nd           | Web:      www.OpenFOAM.org                      |
|    \\/     M anipulation  |                                                 |
\*---------------------------------------------------------------------------*/
FoamFile
{
    version     2.0;
    format      ascii;
    class       volScalarField;
    location    "0.035";
    object      A4-;
}
// * * * * * * * * * * * * * * * * * * * * * * * * * * * * * * * * * * * * * //

dimensions      [0 0 0 0 0 0 0];

internalField   nonuniform List<scalar> 
250
(
1.37913e-09
1.37919e-09
1.37856e-09
1.37872e-09
1.37874e-09
1.37913e-09
1.38106e-09
1.39999e-09
1.56859e-09
2.75337e-09
2.44208e-11
2.29775e-09
2.2983e-09
2.29807e-09
2.29773e-09
2.29842e-09
2.29917e-09
2.30267e-09
2.34287e-09
2.69053e-09
5.1487e-09
3.39707e-11
2.74152e-09
2.74205e-09
2.74187e-09
2.74141e-09
2.74251e-09
2.743e-09
2.74876e-09
2.80646e-09
3.29829e-09
6.56887e-09
2.81379e-11
2.87891e-09
2.87928e-09
2.8794e-09
2.87863e-09
2.88008e-09
2.88062e-09
2.88796e-09
2.95864e-09
3.54205e-09
7.06794e-09
2.21741e-11
2.85601e-09
2.8562e-09
2.85668e-09
2.85557e-09
2.85735e-09
2.85799e-09
2.86635e-09
2.94612e-09
3.57521e-09
6.94736e-09
1.84108e-11
2.75837e-09
2.75836e-09
2.75927e-09
2.75776e-09
2.75991e-09
2.76076e-09
2.76993e-09
2.85915e-09
3.50607e-09
6.50592e-09
1.62016e-11
2.64586e-09
2.64574e-09
2.64692e-09
2.64515e-09
2.64754e-09
2.64861e-09
2.65758e-09
2.75267e-09
3.39496e-09
5.94386e-09
1.5053e-11
2.52438e-09
2.52411e-09
2.52568e-09
2.52354e-09
2.52633e-09
2.52791e-09
2.54268e-09
2.64307e-09
3.2605e-09
5.36906e-09
1.52317e-11
2.41195e-09
2.41159e-09
2.41335e-09
2.41101e-09
2.41402e-09
2.41592e-09
2.43068e-09
2.52818e-09
3.12761e-09
4.83165e-09
1.76796e-11
2.28633e-09
2.2859e-09
2.28777e-09
2.28531e-09
2.28847e-09
2.29079e-09
2.30579e-09
2.40591e-09
2.97813e-09
4.35081e-09
2.53792e-11
2.17792e-09
2.17991e-09
2.1773e-09
2.18063e-09
2.18332e-09
2.1984e-09
2.30029e-09
2.81923e-09
3.93119e-09
4.4582e-11
2.05744e-09
2.05947e-09
2.05679e-09
2.06024e-09
2.06337e-09
2.07893e-09
2.18565e-09
2.67846e-09
3.57043e-09
7.74589e-11
1.93783e-09
1.93988e-09
1.93715e-09
1.94071e-09
1.94429e-09
1.95991e-09
2.06748e-09
2.52575e-09
3.26187e-09
1.19679e-10
1.81931e-09
1.82136e-09
1.8186e-09
1.82228e-09
1.82631e-09
1.84188e-09
1.94961e-09
2.3673e-09
2.98951e-09
1.68378e-10
1.70229e-09
1.70432e-09
1.70155e-09
1.70536e-09
1.70982e-09
1.72534e-09
1.83244e-09
2.21071e-09
2.71496e-09
2.22208e-10
1.58725e-09
1.58927e-09
1.5865e-09
1.59044e-09
1.5953e-09
1.61072e-09
1.71654e-09
2.05769e-09
2.50945e-09
2.78726e-10
1.47471e-09
1.47671e-09
1.47397e-09
1.47804e-09
1.48325e-09
1.49846e-09
1.6025e-09
1.90932e-09
2.32837e-09
3.3413e-10
1.36517e-09
1.36714e-09
1.36445e-09
1.36864e-09
1.37415e-09
1.38901e-09
1.49082e-09
1.76636e-09
2.16548e-09
3.86187e-10
1.25908e-09
1.26104e-09
1.2584e-09
1.26272e-09
1.26845e-09
1.28275e-09
1.38192e-09
1.62935e-09
2.01589e-09
4.35237e-10
1.15684e-09
1.15878e-09
1.15617e-09
1.16064e-09
1.1665e-09
1.17988e-09
1.27618e-09
1.49858e-09
1.87609e-09
4.83526e-10
1.05873e-09
1.06064e-09
1.05776e-09
1.06268e-09
1.06861e-09
1.08039e-09
1.17387e-09
1.37417e-09
1.74386e-09
5.33535e-10
9.64853e-10
9.66738e-10
9.62155e-10
9.68969e-10
9.74865e-10
9.84024e-10
1.07515e-09
1.25602e-09
1.61797e-09
5.86339e-10
8.75074e-10
8.76938e-10
8.77185e-10
8.79395e-10
8.85149e-10
9.01056e-10
9.79975e-10
1.14379e-09
1.4978e-09
6.40748e-10
7.98579e-10
8.00468e-10
7.99307e-10
8.03094e-10
8.0874e-10
8.22435e-10
8.99193e-10
1.03681e-09
1.38306e-09
6.93483e-10
)
;

boundaryField
{
    fuel
    {
        type            fixedValue;
        value           uniform 0;
    }
    wall
    {
        type            zeroGradient;
    }
    outlet
    {
        type            zeroGradient;
    }
    frontAndBack
    {
        type            empty;
    }
    procBoundary3to0
    {
        type            processor;
        value           nonuniform List<scalar> 10(7.26697e-10 7.28625e-10 7.27265e-10 7.31432e-10 7.36916e-10 7.49008e-10 8.16758e-10 9.45484e-10 1.27406e-09 7.40179e-10);
    }
    procBoundary3to2
    {
        type            processor;
        value           nonuniform List<scalar> 
25
(
1.37923e-09
2.2987e-09
2.7426e-09
2.88013e-09
2.85732e-09
2.75978e-09
2.64736e-09
2.52606e-09
2.41379e-09
2.28835e-09
2.17826e-09
2.17826e-09
2.05768e-09
1.93794e-09
1.81927e-09
1.70209e-09
1.58689e-09
1.47419e-09
1.36449e-09
1.25827e-09
1.15589e-09
1.05751e-09
9.62282e-10
8.7543e-10
7.978e-10
)
;
    }
}


// ************************************************************************* //
