/*--------------------------------*- C++ -*----------------------------------*\
| =========                 |                                                 |
| \\      /  F ield         | OpenFOAM: The Open Source CFD Toolbox           |
|  \\    /   O peration     | Version:  dev                                   |
|   \\  /    A nd           | Web:      www.OpenFOAM.org                      |
|    \\/     M anipulation  |                                                 |
\*---------------------------------------------------------------------------*/
FoamFile
{
    version     2.0;
    format      ascii;
    class       volScalarField;
    location    "0.035";
    object      c-C6H4;
}
// * * * * * * * * * * * * * * * * * * * * * * * * * * * * * * * * * * * * * //

dimensions      [0 0 0 0 0 0 0];

internalField   nonuniform List<scalar> 
1989
(
1.66058e-07
1.65981e-07
1.65942e-07
1.65886e-07
1.65863e-07
1.65822e-07
1.65807e-07
1.65777e-07
1.65766e-07
1.65745e-07
1.65737e-07
1.65724e-07
1.65719e-07
1.65714e-07
1.65713e-07
1.65717e-07
1.65721e-07
1.65733e-07
1.6574e-07
1.6576e-07
1.6577e-07
1.658e-07
1.65814e-07
1.65855e-07
1.65877e-07
1.65933e-07
1.65972e-07
1.66047e-07
1.66131e-07
1.66246e-07
1.66395e-07
1.66593e-07
1.66972e-07
1.67359e-07
1.68077e-07
1.68935e-07
1.69931e-07
1.71561e-07
1.72547e-07
1.60776e-07
1.59886e-07
1.58425e-07
1.57532e-07
1.56764e-07
1.56125e-07
1.55783e-07
1.55444e-07
1.55268e-07
1.55133e-07
1.55029e-07
1.54959e-07
1.5489e-07
1.54853e-07
1.54801e-07
1.5478e-07
1.54742e-07
1.54728e-07
1.547e-07
1.54689e-07
1.5467e-07
1.54662e-07
1.5465e-07
1.54645e-07
1.54641e-07
1.5464e-07
1.54644e-07
1.54647e-07
1.54658e-07
1.54665e-07
1.54684e-07
1.54694e-07
1.54721e-07
1.54735e-07
1.54773e-07
1.54794e-07
1.54845e-07
1.54881e-07
1.5495e-07
1.55026e-07
1.5513e-07
1.55265e-07
1.55441e-07
1.5578e-07
1.56122e-07
1.56761e-07
1.5753e-07
1.58423e-07
1.59884e-07
1.60774e-07
1.50352e-07
1.49561e-07
1.48273e-07
1.47487e-07
1.46803e-07
1.46244e-07
1.45946e-07
1.45646e-07
1.45491e-07
1.45369e-07
1.45277e-07
1.45213e-07
1.4515e-07
1.45116e-07
1.45068e-07
1.45048e-07
1.45013e-07
1.44999e-07
1.44973e-07
1.44963e-07
1.44944e-07
1.44937e-07
1.44926e-07
1.44922e-07
1.44917e-07
1.44917e-07
1.4492e-07
1.44923e-07
1.44934e-07
1.4494e-07
1.44958e-07
1.44968e-07
1.44993e-07
1.45006e-07
1.45041e-07
1.45061e-07
1.45108e-07
1.45142e-07
1.45204e-07
1.45273e-07
1.45366e-07
1.45488e-07
1.45643e-07
1.45943e-07
1.46242e-07
1.46801e-07
1.47485e-07
1.48271e-07
1.4956e-07
1.5035e-07
1.4129e-07
1.40602e-07
1.39485e-07
1.38803e-07
1.3821e-07
1.37727e-07
1.37469e-07
1.37207e-07
1.37072e-07
1.36963e-07
1.36881e-07
1.36823e-07
1.36766e-07
1.36734e-07
1.36691e-07
1.36671e-07
1.36639e-07
1.36625e-07
1.36601e-07
1.36591e-07
1.36574e-07
1.36567e-07
1.36556e-07
1.36552e-07
1.36548e-07
1.36548e-07
1.36551e-07
1.36554e-07
1.36564e-07
1.3657e-07
1.36587e-07
1.36596e-07
1.3662e-07
1.36633e-07
1.36665e-07
1.36685e-07
1.36727e-07
1.36759e-07
1.36815e-07
1.36878e-07
1.3696e-07
1.37069e-07
1.37204e-07
1.37466e-07
1.37724e-07
1.38207e-07
1.38801e-07
1.39483e-07
1.40601e-07
1.41288e-07
1.33573e-07
1.33005e-07
1.32055e-07
1.31476e-07
1.30973e-07
1.30562e-07
1.30342e-07
1.30117e-07
1.3e-07
1.29904e-07
1.29832e-07
1.29779e-07
1.29727e-07
1.29697e-07
1.29658e-07
1.29639e-07
1.29609e-07
1.29595e-07
1.29573e-07
1.29563e-07
1.29547e-07
1.2954e-07
1.29531e-07
1.29527e-07
1.29523e-07
1.29523e-07
1.29526e-07
1.29529e-07
1.29538e-07
1.29544e-07
1.2956e-07
1.29569e-07
1.29591e-07
1.29604e-07
1.29634e-07
1.29653e-07
1.29692e-07
1.29721e-07
1.29772e-07
1.29829e-07
1.29902e-07
1.29998e-07
1.30115e-07
1.30339e-07
1.3056e-07
1.30971e-07
1.31474e-07
1.32054e-07
1.33004e-07
1.33571e-07
1.27214e-07
1.26752e-07
1.25964e-07
1.25484e-07
1.25069e-07
1.24726e-07
1.2454e-07
1.24352e-07
1.24251e-07
1.24167e-07
1.24103e-07
1.24055e-07
1.24009e-07
1.23981e-07
1.23945e-07
1.23926e-07
1.23898e-07
1.23884e-07
1.23864e-07
1.23854e-07
1.23839e-07
1.23832e-07
1.23823e-07
1.23819e-07
1.23816e-07
1.23816e-07
1.23818e-07
1.23822e-07
1.2383e-07
1.23837e-07
1.23851e-07
1.23861e-07
1.23881e-07
1.23894e-07
1.23921e-07
1.2394e-07
1.23975e-07
1.24004e-07
1.24049e-07
1.241e-07
1.24165e-07
1.24249e-07
1.2435e-07
1.24538e-07
1.24724e-07
1.25067e-07
1.25482e-07
1.25962e-07
1.2675e-07
1.27213e-07
1.22109e-07
1.21737e-07
1.21098e-07
1.20714e-07
1.20378e-07
1.20101e-07
1.19947e-07
1.19792e-07
1.19705e-07
1.19634e-07
1.19577e-07
1.19534e-07
1.19493e-07
1.19465e-07
1.19433e-07
1.19413e-07
1.19389e-07
1.19374e-07
1.19355e-07
1.19345e-07
1.19332e-07
1.19324e-07
1.19316e-07
1.19312e-07
1.19309e-07
1.19309e-07
1.19311e-07
1.19315e-07
1.19322e-07
1.19329e-07
1.19342e-07
1.19353e-07
1.19371e-07
1.19385e-07
1.1941e-07
1.19429e-07
1.19461e-07
1.19488e-07
1.19529e-07
1.19575e-07
1.19632e-07
1.19704e-07
1.19791e-07
1.19945e-07
1.201e-07
1.20377e-07
1.20713e-07
1.21097e-07
1.21735e-07
1.22108e-07
1.18241e-07
1.17968e-07
1.17487e-07
1.17194e-07
1.16933e-07
1.16722e-07
1.16595e-07
1.16474e-07
1.164e-07
1.1634e-07
1.1629e-07
1.16251e-07
1.16214e-07
1.16187e-07
1.16158e-07
1.16138e-07
1.16115e-07
1.161e-07
1.16083e-07
1.16072e-07
1.1606e-07
1.16052e-07
1.16044e-07
1.1604e-07
1.16038e-07
1.16037e-07
1.1604e-07
1.16043e-07
1.16051e-07
1.16058e-07
1.1607e-07
1.16081e-07
1.16098e-07
1.16112e-07
1.16135e-07
1.16154e-07
1.16183e-07
1.1621e-07
1.16246e-07
1.16288e-07
1.16338e-07
1.16399e-07
1.16473e-07
1.16594e-07
1.16721e-07
1.16932e-07
1.17193e-07
1.17486e-07
1.17967e-07
1.18239e-07
1.15601e-07
1.15421e-07
1.15086e-07
1.14878e-07
1.14684e-07
1.14533e-07
1.14431e-07
1.1434e-07
1.14276e-07
1.14226e-07
1.14183e-07
1.14147e-07
1.14114e-07
1.14088e-07
1.14061e-07
1.14041e-07
1.1402e-07
1.14004e-07
1.13988e-07
1.13976e-07
1.13965e-07
1.13957e-07
1.1395e-07
1.13946e-07
1.13943e-07
1.13943e-07
1.13945e-07
1.13949e-07
1.13956e-07
1.13963e-07
1.13975e-07
1.13986e-07
1.14002e-07
1.14017e-07
1.14038e-07
1.14058e-07
1.14084e-07
1.1411e-07
1.14143e-07
1.14181e-07
1.14225e-07
1.14276e-07
1.14339e-07
1.1443e-07
1.14532e-07
1.14683e-07
1.14878e-07
1.15086e-07
1.15421e-07
1.15599e-07
1.14106e-07
1.14016e-07
1.13812e-07
1.13681e-07
1.13545e-07
1.13449e-07
1.13368e-07
1.13305e-07
1.1325e-07
1.13209e-07
1.13171e-07
1.13138e-07
1.13108e-07
1.13082e-07
1.13057e-07
1.13037e-07
1.13017e-07
1.13001e-07
1.12986e-07
1.12973e-07
1.12963e-07
1.12954e-07
1.12948e-07
1.12943e-07
1.12941e-07
1.12941e-07
1.12943e-07
1.12947e-07
1.12953e-07
1.12961e-07
1.12972e-07
1.12984e-07
1.12999e-07
1.13015e-07
1.13034e-07
1.13054e-07
1.13079e-07
1.13105e-07
1.13135e-07
1.13169e-07
1.13208e-07
1.1325e-07
1.13304e-07
1.13368e-07
1.13449e-07
1.13545e-07
1.13681e-07
1.13812e-07
1.14015e-07
1.14105e-07
1.13668e-07
1.1366e-07
1.13572e-07
1.13511e-07
1.13426e-07
1.13379e-07
1.13315e-07
1.13276e-07
1.13229e-07
1.13196e-07
1.13162e-07
1.13131e-07
1.13104e-07
1.13078e-07
1.13055e-07
1.13033e-07
1.13015e-07
1.12998e-07
1.12984e-07
1.12971e-07
1.1296e-07
1.12952e-07
1.12946e-07
1.12941e-07
1.12939e-07
1.12939e-07
1.12941e-07
1.12945e-07
1.12951e-07
1.1296e-07
1.1297e-07
1.12982e-07
1.12996e-07
1.13013e-07
1.13031e-07
1.13052e-07
1.13075e-07
1.13101e-07
1.13128e-07
1.1316e-07
1.13195e-07
1.13228e-07
1.13275e-07
1.13315e-07
1.13379e-07
1.13426e-07
1.13511e-07
1.13572e-07
1.1366e-07
1.13666e-07
1.14179e-07
1.14246e-07
1.14257e-07
1.14257e-07
1.14213e-07
1.14209e-07
1.14159e-07
1.14141e-07
1.14099e-07
1.14073e-07
1.14042e-07
1.14013e-07
1.13988e-07
1.13962e-07
1.1394e-07
1.13918e-07
1.139e-07
1.13882e-07
1.13869e-07
1.13855e-07
1.13845e-07
1.13836e-07
1.1383e-07
1.13826e-07
1.13824e-07
1.13824e-07
1.13826e-07
1.1383e-07
1.13836e-07
1.13845e-07
1.13854e-07
1.13868e-07
1.13881e-07
1.13899e-07
1.13916e-07
1.13938e-07
1.13959e-07
1.13985e-07
1.1401e-07
1.1404e-07
1.14073e-07
1.14099e-07
1.1414e-07
1.14159e-07
1.14209e-07
1.14213e-07
1.14257e-07
1.14257e-07
1.14246e-07
1.14178e-07
1.15534e-07
1.15666e-07
1.15763e-07
1.15814e-07
1.15804e-07
1.15837e-07
1.15798e-07
1.15798e-07
1.1576e-07
1.1574e-07
1.15711e-07
1.15684e-07
1.1566e-07
1.15633e-07
1.15613e-07
1.15589e-07
1.15573e-07
1.15554e-07
1.1554e-07
1.15526e-07
1.15517e-07
1.15507e-07
1.15501e-07
1.15497e-07
1.15495e-07
1.15495e-07
1.15497e-07
1.15501e-07
1.15507e-07
1.15516e-07
1.15525e-07
1.15539e-07
1.15552e-07
1.15571e-07
1.15587e-07
1.1561e-07
1.1563e-07
1.15657e-07
1.15681e-07
1.15709e-07
1.15739e-07
1.1576e-07
1.15797e-07
1.15798e-07
1.15837e-07
1.15804e-07
1.15814e-07
1.15763e-07
1.15666e-07
1.15533e-07
1.17628e-07
1.17817e-07
1.17983e-07
1.18077e-07
1.18095e-07
1.18162e-07
1.18131e-07
1.18148e-07
1.18114e-07
1.18099e-07
1.18072e-07
1.18046e-07
1.18023e-07
1.17996e-07
1.17976e-07
1.17952e-07
1.17936e-07
1.17916e-07
1.17903e-07
1.17888e-07
1.17879e-07
1.17869e-07
1.17864e-07
1.17859e-07
1.17857e-07
1.17857e-07
1.17859e-07
1.17863e-07
1.17869e-07
1.17879e-07
1.17888e-07
1.17902e-07
1.17915e-07
1.17934e-07
1.1795e-07
1.17974e-07
1.17993e-07
1.18021e-07
1.18043e-07
1.18071e-07
1.18098e-07
1.18114e-07
1.18148e-07
1.18132e-07
1.18162e-07
1.18095e-07
1.18077e-07
1.17983e-07
1.17817e-07
1.17626e-07
1.20356e-07
1.2059e-07
1.20813e-07
1.20942e-07
1.2098e-07
1.21072e-07
1.21046e-07
1.21075e-07
1.21043e-07
1.21031e-07
1.21005e-07
1.20979e-07
1.20957e-07
1.20929e-07
1.2091e-07
1.20885e-07
1.20869e-07
1.20848e-07
1.20836e-07
1.2082e-07
1.20811e-07
1.208e-07
1.20795e-07
1.2079e-07
1.20788e-07
1.20788e-07
1.20789e-07
1.20795e-07
1.208e-07
1.2081e-07
1.20819e-07
1.20835e-07
1.20847e-07
1.20867e-07
1.20883e-07
1.20908e-07
1.20927e-07
1.20955e-07
1.20977e-07
1.21004e-07
1.2103e-07
1.21042e-07
1.21075e-07
1.21047e-07
1.21072e-07
1.2098e-07
1.20942e-07
1.20813e-07
1.2059e-07
1.20354e-07
1.23614e-07
1.23879e-07
1.24147e-07
1.24303e-07
1.24354e-07
1.24466e-07
1.24443e-07
1.24481e-07
1.24449e-07
1.2444e-07
1.24414e-07
1.24388e-07
1.24367e-07
1.24338e-07
1.24319e-07
1.24293e-07
1.24277e-07
1.24255e-07
1.24242e-07
1.24226e-07
1.24216e-07
1.24206e-07
1.242e-07
1.24195e-07
1.24193e-07
1.24193e-07
1.24195e-07
1.242e-07
1.24205e-07
1.24216e-07
1.24225e-07
1.24241e-07
1.24254e-07
1.24275e-07
1.24291e-07
1.24316e-07
1.24335e-07
1.24364e-07
1.24385e-07
1.24412e-07
1.24439e-07
1.24448e-07
1.24481e-07
1.24443e-07
1.24466e-07
1.24354e-07
1.24303e-07
1.24147e-07
1.23879e-07
1.23612e-07
1.27364e-07
1.27651e-07
1.27951e-07
1.28123e-07
1.28183e-07
1.28306e-07
1.28284e-07
1.28328e-07
1.28295e-07
1.28287e-07
1.28261e-07
1.28235e-07
1.28213e-07
1.28183e-07
1.28164e-07
1.28137e-07
1.2812e-07
1.28098e-07
1.28085e-07
1.28068e-07
1.28058e-07
1.28047e-07
1.28041e-07
1.28035e-07
1.28033e-07
1.28033e-07
1.28035e-07
1.28041e-07
1.28046e-07
1.28057e-07
1.28067e-07
1.28083e-07
1.28096e-07
1.28118e-07
1.28135e-07
1.28161e-07
1.2818e-07
1.2821e-07
1.28232e-07
1.28259e-07
1.28286e-07
1.28294e-07
1.28327e-07
1.28284e-07
1.28306e-07
1.28183e-07
1.28123e-07
1.27951e-07
1.27651e-07
1.27362e-07
1.31375e-07
1.31676e-07
1.31993e-07
1.32178e-07
1.32242e-07
1.32373e-07
1.3235e-07
1.32398e-07
1.32364e-07
1.32357e-07
1.3233e-07
1.32303e-07
1.32281e-07
1.3225e-07
1.3223e-07
1.32202e-07
1.32185e-07
1.32162e-07
1.32148e-07
1.32131e-07
1.32121e-07
1.32109e-07
1.32103e-07
1.32097e-07
1.32095e-07
1.32095e-07
1.32097e-07
1.32103e-07
1.32109e-07
1.3212e-07
1.3213e-07
1.32147e-07
1.32161e-07
1.32183e-07
1.322e-07
1.32227e-07
1.32247e-07
1.32277e-07
1.323e-07
1.32327e-07
1.32355e-07
1.32363e-07
1.32397e-07
1.32349e-07
1.32373e-07
1.32241e-07
1.32178e-07
1.31993e-07
1.31675e-07
1.31373e-07
1.35617e-07
1.35926e-07
1.36248e-07
1.3644e-07
1.36503e-07
1.36638e-07
1.36612e-07
1.36662e-07
1.36626e-07
1.36619e-07
1.36591e-07
1.36563e-07
1.3654e-07
1.36508e-07
1.36488e-07
1.36459e-07
1.36441e-07
1.36418e-07
1.36403e-07
1.36385e-07
1.36375e-07
1.36363e-07
1.36357e-07
1.36351e-07
1.36348e-07
1.36348e-07
1.3635e-07
1.36356e-07
1.36362e-07
1.36374e-07
1.36384e-07
1.36402e-07
1.36416e-07
1.36439e-07
1.36456e-07
1.36485e-07
1.36505e-07
1.36536e-07
1.36559e-07
1.36588e-07
1.36616e-07
1.36624e-07
1.36661e-07
1.36611e-07
1.36637e-07
1.36502e-07
1.36439e-07
1.36247e-07
1.35924e-07
1.35615e-07
1.40002e-07
1.40313e-07
1.40629e-07
1.40822e-07
1.40881e-07
1.41015e-07
1.40986e-07
1.41035e-07
1.40997e-07
1.40989e-07
1.4096e-07
1.40931e-07
1.40907e-07
1.40874e-07
1.40853e-07
1.40823e-07
1.40805e-07
1.40781e-07
1.40766e-07
1.40747e-07
1.40736e-07
1.40724e-07
1.40717e-07
1.40711e-07
1.40709e-07
1.40709e-07
1.40711e-07
1.40717e-07
1.40723e-07
1.40735e-07
1.40746e-07
1.40764e-07
1.40779e-07
1.40803e-07
1.4082e-07
1.4085e-07
1.4087e-07
1.40903e-07
1.40927e-07
1.40956e-07
1.40986e-07
1.40995e-07
1.41034e-07
1.40984e-07
1.41014e-07
1.40879e-07
1.4082e-07
1.40628e-07
1.40311e-07
1.4e-07
1.44447e-07
1.44754e-07
1.45056e-07
1.45243e-07
1.45294e-07
1.45424e-07
1.4539e-07
1.45438e-07
1.45397e-07
1.45387e-07
1.45357e-07
1.45326e-07
1.45301e-07
1.45268e-07
1.45246e-07
1.45215e-07
1.45196e-07
1.45171e-07
1.45156e-07
1.45136e-07
1.45125e-07
1.45112e-07
1.45105e-07
1.45099e-07
1.45097e-07
1.45096e-07
1.45098e-07
1.45105e-07
1.45111e-07
1.45124e-07
1.45135e-07
1.45154e-07
1.45169e-07
1.45193e-07
1.45212e-07
1.45242e-07
1.45264e-07
1.45297e-07
1.45322e-07
1.45353e-07
1.45384e-07
1.45395e-07
1.45435e-07
1.45389e-07
1.45422e-07
1.45293e-07
1.45241e-07
1.45054e-07
1.44752e-07
1.44445e-07
1.4887e-07
1.49173e-07
1.49461e-07
1.49643e-07
1.49689e-07
1.49813e-07
1.49775e-07
1.4982e-07
1.49777e-07
1.49765e-07
1.49733e-07
1.49701e-07
1.49675e-07
1.4964e-07
1.49617e-07
1.49586e-07
1.49566e-07
1.4954e-07
1.49524e-07
1.49505e-07
1.49493e-07
1.4948e-07
1.49472e-07
1.49466e-07
1.49463e-07
1.49463e-07
1.49465e-07
1.49471e-07
1.49478e-07
1.49491e-07
1.49503e-07
1.49522e-07
1.49538e-07
1.49563e-07
1.49582e-07
1.49613e-07
1.49636e-07
1.4967e-07
1.49696e-07
1.49728e-07
1.49761e-07
1.49774e-07
1.49817e-07
1.49773e-07
1.4981e-07
1.49686e-07
1.49641e-07
1.49459e-07
1.4917e-07
1.48867e-07
1.5319e-07
1.53471e-07
1.53731e-07
1.53898e-07
1.53931e-07
1.54043e-07
1.54001e-07
1.54039e-07
1.53994e-07
1.53979e-07
1.53945e-07
1.53912e-07
1.53884e-07
1.53849e-07
1.53825e-07
1.53793e-07
1.53772e-07
1.53746e-07
1.53729e-07
1.53709e-07
1.53697e-07
1.53683e-07
1.53675e-07
1.53669e-07
1.53666e-07
1.53666e-07
1.53668e-07
1.53674e-07
1.53682e-07
1.53695e-07
1.53707e-07
1.53727e-07
1.53743e-07
1.53769e-07
1.53789e-07
1.5382e-07
1.53844e-07
1.53879e-07
1.53906e-07
1.5394e-07
1.53975e-07
1.5399e-07
1.54036e-07
1.53998e-07
1.54041e-07
1.53929e-07
1.53895e-07
1.53728e-07
1.53469e-07
1.53187e-07
1.57319e-07
1.57566e-07
1.57794e-07
1.5794e-07
1.5796e-07
1.58057e-07
1.58009e-07
1.5804e-07
1.57992e-07
1.57974e-07
1.57938e-07
1.57903e-07
1.57874e-07
1.57839e-07
1.57813e-07
1.57781e-07
1.57759e-07
1.57732e-07
1.57714e-07
1.57694e-07
1.57681e-07
1.57667e-07
1.57659e-07
1.57652e-07
1.57649e-07
1.57649e-07
1.57651e-07
1.57658e-07
1.57666e-07
1.57679e-07
1.57692e-07
1.57711e-07
1.57729e-07
1.57755e-07
1.57776e-07
1.57808e-07
1.57833e-07
1.57868e-07
1.57897e-07
1.57933e-07
1.57969e-07
1.57988e-07
1.58036e-07
1.58006e-07
1.58054e-07
1.57957e-07
1.57937e-07
1.57791e-07
1.57563e-07
1.57315e-07
1.61176e-07
1.61388e-07
1.61579e-07
1.61701e-07
1.61708e-07
1.61785e-07
1.61734e-07
1.61755e-07
1.61705e-07
1.61683e-07
1.61646e-07
1.61609e-07
1.61579e-07
1.61542e-07
1.61515e-07
1.61483e-07
1.6146e-07
1.61433e-07
1.61414e-07
1.61394e-07
1.6138e-07
1.61366e-07
1.61357e-07
1.6135e-07
1.61347e-07
1.61347e-07
1.61349e-07
1.61356e-07
1.61364e-07
1.61378e-07
1.61391e-07
1.61411e-07
1.61429e-07
1.61455e-07
1.61478e-07
1.6151e-07
1.61536e-07
1.61572e-07
1.61603e-07
1.6164e-07
1.61677e-07
1.617e-07
1.6175e-07
1.6173e-07
1.61782e-07
1.61704e-07
1.61698e-07
1.61575e-07
1.61385e-07
1.61172e-07
1.64631e-07
1.64799e-07
1.64947e-07
1.6504e-07
1.6503e-07
1.65086e-07
1.65031e-07
1.6504e-07
1.64989e-07
1.64963e-07
1.64924e-07
1.64885e-07
1.64854e-07
1.64817e-07
1.64788e-07
1.64756e-07
1.64732e-07
1.64705e-07
1.64685e-07
1.64664e-07
1.6465e-07
1.64636e-07
1.64627e-07
1.64619e-07
1.64616e-07
1.64616e-07
1.64618e-07
1.64625e-07
1.64634e-07
1.64647e-07
1.64661e-07
1.64681e-07
1.647e-07
1.64727e-07
1.6475e-07
1.64782e-07
1.6481e-07
1.64847e-07
1.64878e-07
1.64917e-07
1.64956e-07
1.64983e-07
1.65035e-07
1.65026e-07
1.65082e-07
1.65026e-07
1.65036e-07
1.64943e-07
1.64796e-07
1.64627e-07
1.67601e-07
1.67723e-07
1.67824e-07
1.67884e-07
1.67859e-07
1.67891e-07
1.67831e-07
1.67829e-07
1.67776e-07
1.67745e-07
1.67705e-07
1.67665e-07
1.67632e-07
1.67594e-07
1.67565e-07
1.67532e-07
1.67507e-07
1.6748e-07
1.67459e-07
1.67439e-07
1.67423e-07
1.67409e-07
1.674e-07
1.67392e-07
1.67389e-07
1.67388e-07
1.67391e-07
1.67398e-07
1.67407e-07
1.6742e-07
1.67435e-07
1.67455e-07
1.67475e-07
1.67501e-07
1.67526e-07
1.67558e-07
1.67587e-07
1.67624e-07
1.67657e-07
1.67697e-07
1.67738e-07
1.67769e-07
1.67823e-07
1.67826e-07
1.67886e-07
1.67854e-07
1.67879e-07
1.67819e-07
1.67719e-07
1.67597e-07
1.7e-07
1.70072e-07
1.70126e-07
1.70152e-07
1.70112e-07
1.70119e-07
1.70057e-07
1.70041e-07
1.69987e-07
1.69952e-07
1.69911e-07
1.69869e-07
1.69835e-07
1.69797e-07
1.69766e-07
1.69734e-07
1.69707e-07
1.6968e-07
1.69659e-07
1.69638e-07
1.69623e-07
1.69608e-07
1.69598e-07
1.69591e-07
1.69587e-07
1.69587e-07
1.6959e-07
1.69596e-07
1.69606e-07
1.69619e-07
1.69634e-07
1.69655e-07
1.69675e-07
1.69702e-07
1.69727e-07
1.69759e-07
1.6979e-07
1.69827e-07
1.69861e-07
1.69903e-07
1.69945e-07
1.6998e-07
1.70035e-07
1.70051e-07
1.70113e-07
1.70107e-07
1.70147e-07
1.70121e-07
1.70068e-07
1.69995e-07
1.71765e-07
1.71788e-07
1.71799e-07
1.71792e-07
1.71743e-07
1.71728e-07
1.71667e-07
1.71638e-07
1.71585e-07
1.71546e-07
1.71503e-07
1.71461e-07
1.71425e-07
1.71388e-07
1.71356e-07
1.71323e-07
1.71296e-07
1.71269e-07
1.71247e-07
1.71226e-07
1.7121e-07
1.71196e-07
1.71185e-07
1.71178e-07
1.71174e-07
1.71173e-07
1.71176e-07
1.71183e-07
1.71193e-07
1.71207e-07
1.71222e-07
1.71242e-07
1.71264e-07
1.7129e-07
1.71316e-07
1.71348e-07
1.7138e-07
1.71417e-07
1.71452e-07
1.71495e-07
1.71538e-07
1.71578e-07
1.71631e-07
1.7166e-07
1.71722e-07
1.71737e-07
1.71786e-07
1.71794e-07
1.71783e-07
1.7176e-07
1.72879e-07
1.72857e-07
1.7283e-07
1.72792e-07
1.72732e-07
1.72696e-07
1.72634e-07
1.72594e-07
1.72541e-07
1.72498e-07
1.72455e-07
1.72411e-07
1.72374e-07
1.72337e-07
1.72304e-07
1.72272e-07
1.72244e-07
1.72217e-07
1.72195e-07
1.72174e-07
1.72157e-07
1.72142e-07
1.72132e-07
1.72124e-07
1.7212e-07
1.7212e-07
1.72123e-07
1.7213e-07
1.72139e-07
1.72153e-07
1.72169e-07
1.72189e-07
1.72211e-07
1.72237e-07
1.72264e-07
1.72296e-07
1.72329e-07
1.72366e-07
1.72402e-07
1.72446e-07
1.72489e-07
1.72533e-07
1.72586e-07
1.72627e-07
1.72689e-07
1.72726e-07
1.72786e-07
1.72824e-07
1.72852e-07
1.72873e-07
1.73378e-07
1.7332e-07
1.73262e-07
1.73199e-07
1.73131e-07
1.73077e-07
1.73016e-07
1.72966e-07
1.72914e-07
1.72867e-07
1.72824e-07
1.7278e-07
1.72742e-07
1.72705e-07
1.72671e-07
1.72639e-07
1.72611e-07
1.72584e-07
1.72561e-07
1.7254e-07
1.72523e-07
1.72509e-07
1.72498e-07
1.7249e-07
1.72486e-07
1.72485e-07
1.72488e-07
1.72495e-07
1.72505e-07
1.72519e-07
1.72536e-07
1.72556e-07
1.72578e-07
1.72604e-07
1.72632e-07
1.72663e-07
1.72696e-07
1.72733e-07
1.7277e-07
1.72815e-07
1.72858e-07
1.72905e-07
1.72958e-07
1.73008e-07
1.7307e-07
1.73125e-07
1.73192e-07
1.73256e-07
1.73315e-07
1.73373e-07
1.73356e-07
1.73272e-07
1.7319e-07
1.73108e-07
1.73036e-07
1.7297e-07
1.72909e-07
1.72852e-07
1.72801e-07
1.72752e-07
1.72709e-07
1.72664e-07
1.72626e-07
1.72589e-07
1.72555e-07
1.72523e-07
1.72494e-07
1.72468e-07
1.72444e-07
1.72424e-07
1.72406e-07
1.72392e-07
1.7238e-07
1.72373e-07
1.72368e-07
1.72368e-07
1.72371e-07
1.72378e-07
1.72388e-07
1.72402e-07
1.72419e-07
1.72438e-07
1.72461e-07
1.72487e-07
1.72515e-07
1.72546e-07
1.7258e-07
1.72617e-07
1.72655e-07
1.72699e-07
1.72743e-07
1.72792e-07
1.72843e-07
1.72901e-07
1.72962e-07
1.73029e-07
1.73102e-07
1.73184e-07
1.73266e-07
1.7335e-07
1.72942e-07
1.7284e-07
1.72745e-07
1.72651e-07
1.72576e-07
1.72502e-07
1.72443e-07
1.7238e-07
1.7233e-07
1.7228e-07
1.72236e-07
1.72192e-07
1.72154e-07
1.72117e-07
1.72082e-07
1.72051e-07
1.72021e-07
1.71995e-07
1.71972e-07
1.71951e-07
1.71933e-07
1.71919e-07
1.71907e-07
1.71899e-07
1.71895e-07
1.71895e-07
1.71898e-07
1.71905e-07
1.71915e-07
1.71929e-07
1.71946e-07
1.71966e-07
1.71988e-07
1.72014e-07
1.72043e-07
1.72074e-07
1.72108e-07
1.72144e-07
1.72183e-07
1.72227e-07
1.72271e-07
1.72321e-07
1.72371e-07
1.72434e-07
1.72494e-07
1.72569e-07
1.72644e-07
1.72738e-07
1.72834e-07
1.72936e-07
1.72276e-07
1.72165e-07
1.72061e-07
1.71961e-07
1.71885e-07
1.71807e-07
1.71749e-07
1.71684e-07
1.71635e-07
1.71584e-07
1.7154e-07
1.71496e-07
1.71458e-07
1.71421e-07
1.71386e-07
1.71354e-07
1.71325e-07
1.71299e-07
1.71275e-07
1.71255e-07
1.71237e-07
1.71222e-07
1.71211e-07
1.71203e-07
1.71198e-07
1.71198e-07
1.71201e-07
1.71208e-07
1.71219e-07
1.71232e-07
1.71249e-07
1.71269e-07
1.71292e-07
1.71318e-07
1.71346e-07
1.71377e-07
1.71411e-07
1.71448e-07
1.71486e-07
1.7153e-07
1.71574e-07
1.71625e-07
1.71675e-07
1.7174e-07
1.71798e-07
1.71878e-07
1.71953e-07
1.72055e-07
1.72158e-07
1.7227e-07
1.71483e-07
1.71367e-07
1.7126e-07
1.71157e-07
1.71082e-07
1.71001e-07
1.70944e-07
1.70879e-07
1.7083e-07
1.70779e-07
1.70735e-07
1.70692e-07
1.70653e-07
1.70616e-07
1.70582e-07
1.7055e-07
1.70521e-07
1.70494e-07
1.70471e-07
1.7045e-07
1.70432e-07
1.70417e-07
1.70406e-07
1.70398e-07
1.70394e-07
1.70393e-07
1.70396e-07
1.70403e-07
1.70414e-07
1.70427e-07
1.70445e-07
1.70464e-07
1.70488e-07
1.70513e-07
1.70542e-07
1.70573e-07
1.70607e-07
1.70643e-07
1.70682e-07
1.70725e-07
1.70769e-07
1.7082e-07
1.70869e-07
1.70935e-07
1.70993e-07
1.71074e-07
1.7115e-07
1.71253e-07
1.7136e-07
1.71477e-07
1.70659e-07
1.70541e-07
1.70434e-07
1.70331e-07
1.70256e-07
1.70176e-07
1.70119e-07
1.70053e-07
1.70005e-07
1.69954e-07
1.69911e-07
1.69868e-07
1.69829e-07
1.69792e-07
1.69758e-07
1.69726e-07
1.69697e-07
1.6967e-07
1.69647e-07
1.69626e-07
1.69608e-07
1.69593e-07
1.69582e-07
1.69574e-07
1.69569e-07
1.69568e-07
1.69572e-07
1.69579e-07
1.69589e-07
1.69603e-07
1.6962e-07
1.6964e-07
1.69663e-07
1.69689e-07
1.69718e-07
1.69749e-07
1.69783e-07
1.69819e-07
1.69858e-07
1.699e-07
1.69944e-07
1.69995e-07
1.70044e-07
1.7011e-07
1.70167e-07
1.70248e-07
1.70323e-07
1.70427e-07
1.70535e-07
1.70653e-07
1.69874e-07
1.69756e-07
1.69649e-07
1.69547e-07
1.69472e-07
1.69393e-07
1.69336e-07
1.69272e-07
1.69224e-07
1.69173e-07
1.6913e-07
1.69087e-07
1.69048e-07
1.69011e-07
1.68977e-07
1.68945e-07
1.68916e-07
1.6889e-07
1.68866e-07
1.68845e-07
1.68827e-07
1.68813e-07
1.68801e-07
1.68793e-07
1.68788e-07
1.68788e-07
1.68791e-07
1.68798e-07
1.68809e-07
1.68823e-07
1.6884e-07
1.6886e-07
1.68883e-07
1.68909e-07
1.68937e-07
1.68968e-07
1.69002e-07
1.69038e-07
1.69077e-07
1.6912e-07
1.69163e-07
1.69214e-07
1.69262e-07
1.69327e-07
1.69385e-07
1.69464e-07
1.6954e-07
1.69642e-07
1.69749e-07
1.69868e-07
1.69177e-07
1.6906e-07
1.68954e-07
1.68854e-07
1.6878e-07
1.68702e-07
1.68645e-07
1.68581e-07
1.68533e-07
1.68483e-07
1.6844e-07
1.68397e-07
1.68358e-07
1.68322e-07
1.68287e-07
1.68256e-07
1.68227e-07
1.682e-07
1.68177e-07
1.68156e-07
1.68138e-07
1.68123e-07
1.68111e-07
1.68103e-07
1.68099e-07
1.68098e-07
1.68101e-07
1.68108e-07
1.68119e-07
1.68133e-07
1.6815e-07
1.6817e-07
1.68193e-07
1.68219e-07
1.68248e-07
1.68279e-07
1.68312e-07
1.68349e-07
1.68387e-07
1.68429e-07
1.68473e-07
1.68523e-07
1.68572e-07
1.68636e-07
1.68694e-07
1.68771e-07
1.68847e-07
1.68947e-07
1.69053e-07
1.69171e-07
1.68618e-07
1.68502e-07
1.68397e-07
1.68299e-07
1.68224e-07
1.68149e-07
1.68091e-07
1.68029e-07
1.6798e-07
1.67931e-07
1.67887e-07
1.67845e-07
1.67806e-07
1.67769e-07
1.67735e-07
1.67704e-07
1.67675e-07
1.67648e-07
1.67624e-07
1.67604e-07
1.67585e-07
1.67571e-07
1.67559e-07
1.67551e-07
1.67546e-07
1.67545e-07
1.67549e-07
1.67556e-07
1.67567e-07
1.67581e-07
1.67598e-07
1.67618e-07
1.67641e-07
1.67667e-07
1.67695e-07
1.67726e-07
1.6776e-07
1.67797e-07
1.67835e-07
1.67877e-07
1.6792e-07
1.6797e-07
1.68019e-07
1.68082e-07
1.6814e-07
1.68216e-07
1.68292e-07
1.6839e-07
1.68495e-07
1.68612e-07
1.68266e-07
1.6815e-07
1.68046e-07
1.6795e-07
1.67876e-07
1.67801e-07
1.67743e-07
1.67681e-07
1.67633e-07
1.67584e-07
1.6754e-07
1.67498e-07
1.67459e-07
1.67423e-07
1.67389e-07
1.67357e-07
1.67328e-07
1.67301e-07
1.67278e-07
1.67257e-07
1.67239e-07
1.67224e-07
1.67212e-07
1.67204e-07
1.67199e-07
1.67198e-07
1.67202e-07
1.67209e-07
1.6722e-07
1.67234e-07
1.67251e-07
1.67271e-07
1.67294e-07
1.6732e-07
1.67349e-07
1.6738e-07
1.67414e-07
1.6745e-07
1.67488e-07
1.6753e-07
1.67574e-07
1.67623e-07
1.67672e-07
1.67734e-07
1.67793e-07
1.67868e-07
1.67943e-07
1.6804e-07
1.68144e-07
1.6826e-07
)
;

boundaryField
{
    fuel
    {
        type            fixedValue;
        value           nonuniform 0();
    }
    wall
    {
        type            zeroGradient;
    }
    outlet
    {
        type            zeroGradient;
    }
    frontAndBack
    {
        type            empty;
    }
    procBoundary3to2
    {
        type            processor;
        value           nonuniform List<scalar> 
51
(
1.78496e-07
1.78412e-07
1.7837e-07
1.78309e-07
1.78285e-07
1.7824e-07
1.78225e-07
1.78192e-07
1.78181e-07
1.78158e-07
1.7815e-07
1.78136e-07
1.78131e-07
1.78125e-07
1.78124e-07
1.78129e-07
1.78132e-07
1.78145e-07
1.78152e-07
1.78175e-07
1.78185e-07
1.78217e-07
1.78232e-07
1.78276e-07
1.783e-07
1.7836e-07
1.78402e-07
1.78484e-07
1.78576e-07
1.78704e-07
1.78865e-07
1.79087e-07
1.79506e-07
1.7994e-07
1.80734e-07
1.81682e-07
1.8278e-07
1.84709e-07
1.85779e-07
1.72559e-07
1.71571e-07
1.69942e-07
1.68946e-07
1.68088e-07
1.67371e-07
1.66983e-07
1.66604e-07
1.66405e-07
1.66257e-07
1.66142e-07
1.66142e-07
)
;
    }
}


// ************************************************************************* //
