/*--------------------------------*- C++ -*----------------------------------*\
| =========                 |                                                 |
| \\      /  F ield         | OpenFOAM: The Open Source CFD Toolbox           |
|  \\    /   O peration     | Version:  dev                                   |
|   \\  /    A nd           | Web:      www.OpenFOAM.org                      |
|    \\/     M anipulation  |                                                 |
\*---------------------------------------------------------------------------*/
FoamFile
{
    version     2.0;
    format      ascii;
    class       volScalarField;
    location    "0.035";
    object      C5H4OH;
}
// * * * * * * * * * * * * * * * * * * * * * * * * * * * * * * * * * * * * * //

dimensions      [0 0 0 0 0 0 0];

internalField   nonuniform List<scalar> 
25
(
2.46839e-11
2.51791e-11
2.53546e-11
2.5214e-11
2.47657e-11
2.40315e-11
2.30492e-11
2.18723e-11
2.05673e-11
1.92087e-11
1.78728e-11
1.66307e-11
1.55398e-11
1.46326e-11
1.39114e-11
1.33427e-11
1.28629e-11
1.23901e-11
1.18394e-11
1.11314e-11
1.01917e-11
8.9429e-12
7.29486e-12
5.15912e-12
2.69835e-12
)
;

boundaryField
{
    wall
    {
        type            zeroGradient;
    }
    fuel
    {
        type            fixedValue;
        value           nonuniform 0();
    }
    outlet
    {
        type            inletOutlet;
        inletValue      uniform 0;
        value           uniform 2.69835e-12;
    }
    procBoundary3to2
    {
        type            processor;
        value           uniform 2.38785e-11;
    }
}


// ************************************************************************* //
