/*--------------------------------*- C++ -*----------------------------------*\
| =========                 |                                                 |
| \\      /  F ield         | OpenFOAM: The Open Source CFD Toolbox           |
|  \\    /   O peration     | Version:  dev                                   |
|   \\  /    A nd           | Web:      www.OpenFOAM.org                      |
|    \\/     M anipulation  |                                                 |
\*---------------------------------------------------------------------------*/
FoamFile
{
    version     2.0;
    format      ascii;
    class       volScalarField;
    location    "0.035";
    object      C6H3;
}
// * * * * * * * * * * * * * * * * * * * * * * * * * * * * * * * * * * * * * //

dimensions      [0 0 0 0 0 0 0];

internalField   nonuniform List<scalar> 
250
(
1.73772e-07
1.73722e-07
1.73557e-07
1.73682e-07
1.73572e-07
1.73655e-07
1.73712e-07
1.73884e-07
1.76258e-07
1.9007e-07
9.26095e-11
1.0075e-07
1.00747e-07
1.00623e-07
1.00733e-07
1.0072e-07
1.00745e-07
1.00772e-07
1.00973e-07
1.03598e-07
1.22242e-07
7.14831e-11
5.2487e-08
5.24863e-08
5.24672e-08
5.24794e-08
5.24893e-08
5.2489e-08
5.25149e-08
5.27553e-08
5.47203e-08
7.04281e-08
3.95774e-11
2.88737e-08
2.88719e-08
2.88746e-08
2.88673e-08
2.88812e-08
2.88748e-08
2.88943e-08
2.90997e-08
3.05483e-08
4.31694e-08
2.57399e-11
1.76456e-08
1.76435e-08
1.76494e-08
1.76396e-08
1.76523e-08
1.76457e-08
1.76552e-08
1.78113e-08
1.89047e-08
2.91931e-08
2.70072e-11
1.17418e-08
1.17384e-08
1.17467e-08
1.17353e-08
1.17481e-08
1.17443e-08
1.17519e-08
1.19713e-08
1.30021e-08
2.1507e-08
6.81612e-11
8.7191e-09
8.7162e-09
8.72317e-09
8.71325e-09
8.72403e-09
8.72103e-09
8.70745e-09
8.90679e-09
9.78872e-09
1.68654e-08
3.76268e-10
6.85879e-09
6.85559e-09
6.86346e-09
6.85307e-09
6.86434e-09
6.86526e-09
6.91454e-09
7.11395e-09
7.79109e-09
1.37985e-08
2.48551e-09
5.73505e-09
5.73211e-09
5.73931e-09
5.72969e-09
5.74001e-09
5.74184e-09
5.77703e-09
5.91377e-09
6.58269e-09
1.16202e-08
1.19991e-08
4.86033e-09
4.85772e-09
4.86399e-09
4.85553e-09
4.86468e-09
4.86761e-09
4.8955e-09
5.03226e-09
5.67127e-09
9.98759e-09
3.20095e-08
4.29215e-09
4.29806e-09
4.29001e-09
4.29865e-09
4.30243e-09
4.32623e-09
4.46348e-09
4.96828e-09
8.70985e-09
5.41875e-08
3.79691e-09
3.80226e-09
3.79491e-09
3.80291e-09
3.80758e-09
3.83034e-09
3.98106e-09
4.48221e-09
7.66799e-09
6.41649e-08
3.39391e-09
3.39876e-09
3.39204e-09
3.39952e-09
3.40502e-09
3.42626e-09
3.57578e-09
4.04951e-09
6.78892e-09
5.61412e-08
3.05505e-09
3.05947e-09
3.0533e-09
3.0604e-09
3.06664e-09
3.08685e-09
3.23431e-09
3.6661e-09
6.01947e-09
4.00211e-08
2.76353e-09
2.76756e-09
2.76189e-09
2.76873e-09
2.7756e-09
2.79515e-09
2.9395e-09
3.33206e-09
5.26505e-09
2.57914e-08
2.50885e-09
2.51254e-09
2.50733e-09
2.51399e-09
2.52138e-09
2.54046e-09
2.68078e-09
3.03701e-09
4.70895e-09
1.6282e-08
2.28414e-09
2.28754e-09
2.28275e-09
2.2893e-09
2.29709e-09
2.31571e-09
2.45128e-09
2.77383e-09
4.23156e-09
1.05788e-08
2.08466e-09
2.0878e-09
2.08341e-09
2.08988e-09
2.09794e-09
2.11605e-09
2.24623e-09
2.53772e-09
3.81661e-09
7.23945e-09
1.90694e-09
1.90984e-09
1.90583e-09
1.91223e-09
1.92043e-09
1.93784e-09
2.06217e-09
2.32522e-09
3.45164e-09
5.25357e-09
1.74824e-09
1.75093e-09
1.74722e-09
1.75362e-09
1.76182e-09
1.77809e-09
1.89645e-09
2.13371e-09
3.1279e-09
4.0387e-09
1.60626e-09
1.60876e-09
1.60493e-09
1.61171e-09
1.61983e-09
1.63403e-09
1.74686e-09
1.96102e-09
2.83953e-09
3.27343e-09
1.47889e-09
1.48121e-09
1.4753e-09
1.48442e-09
1.49234e-09
1.50304e-09
1.61146e-09
1.80521e-09
2.5826e-09
2.77677e-09
1.36409e-09
1.36625e-09
1.3668e-09
1.36974e-09
1.37735e-09
1.39744e-09
1.48849e-09
1.6644e-09
2.35414e-09
2.44281e-09
1.27246e-09
1.27452e-09
1.27329e-09
1.27821e-09
1.28559e-09
1.30303e-09
1.39078e-09
1.53656e-09
2.15164e-09
2.2075e-09
)
;

boundaryField
{
    fuel
    {
        type            fixedValue;
        value           uniform 0;
    }
    wall
    {
        type            zeroGradient;
    }
    outlet
    {
        type            zeroGradient;
    }
    frontAndBack
    {
        type            empty;
    }
    procBoundary3to0
    {
        type            processor;
        value           nonuniform List<scalar> 10(1.19116e-09 1.19316e-09 1.19162e-09 1.19704e-09 1.20416e-09 1.21974e-09 1.29598e-09 1.43333e-09 1.97333e-09 2.03247e-09);
    }
    procBoundary3to2
    {
        type            processor;
        value           nonuniform List<scalar> 
25
(
1.73677e-07
1.00644e-07
5.24713e-08
2.88754e-08
1.76496e-08
1.17461e-08
8.72274e-09
6.86284e-09
5.73908e-09
4.86431e-09
4.29452e-09
4.29452e-09
3.79853e-09
3.39498e-09
3.05563e-09
2.76366e-09
2.50857e-09
2.28352e-09
2.08375e-09
1.90579e-09
1.74688e-09
1.60456e-09
1.47548e-09
1.36445e-09
1.27141e-09
)
;
    }
}


// ************************************************************************* //
