/*--------------------------------*- C++ -*----------------------------------*\
| =========                 |                                                 |
| \\      /  F ield         | OpenFOAM: The Open Source CFD Toolbox           |
|  \\    /   O peration     | Version:  dev                                   |
|   \\  /    A nd           | Web:      www.OpenFOAM.org                      |
|    \\/     M anipulation  |                                                 |
\*---------------------------------------------------------------------------*/
FoamFile
{
    version     2.0;
    format      ascii;
    class       volScalarField;
    location    "0.035";
    object      C6H5O;
}
// * * * * * * * * * * * * * * * * * * * * * * * * * * * * * * * * * * * * * //

dimensions      [0 0 0 0 0 0 0];

internalField   nonuniform List<scalar> 
1989
(
5.37443e-10
5.37256e-10
5.37144e-10
5.37001e-10
5.36929e-10
5.36821e-10
5.3677e-10
5.36689e-10
5.36651e-10
5.36593e-10
5.36567e-10
5.36531e-10
5.36516e-10
5.36503e-10
5.36501e-10
5.36512e-10
5.36524e-10
5.36558e-10
5.36582e-10
5.36638e-10
5.36674e-10
5.36753e-10
5.36803e-10
5.3691e-10
5.36982e-10
5.37124e-10
5.37234e-10
5.3742e-10
5.37629e-10
5.37897e-10
5.38246e-10
5.38681e-10
5.3948e-10
5.40283e-10
5.41723e-10
5.43431e-10
5.45373e-10
5.48481e-10
5.50384e-10
5.27474e-10
5.25446e-10
5.22203e-10
5.20179e-10
5.18423e-10
5.16942e-10
5.16141e-10
5.15327e-10
5.14898e-10
5.14545e-10
5.14282e-10
5.14103e-10
5.13918e-10
5.13811e-10
5.1367e-10
5.13602e-10
5.13496e-10
5.13448e-10
5.13368e-10
5.13333e-10
5.13276e-10
5.13252e-10
5.13216e-10
5.13202e-10
5.13188e-10
5.13187e-10
5.13197e-10
5.13209e-10
5.13242e-10
5.13264e-10
5.13319e-10
5.13353e-10
5.13431e-10
5.13478e-10
5.13583e-10
5.1365e-10
5.1379e-10
5.13896e-10
5.1408e-10
5.14284e-10
5.14549e-10
5.14903e-10
5.15331e-10
5.16147e-10
5.16949e-10
5.18432e-10
5.20189e-10
5.22214e-10
5.25459e-10
5.27487e-10
5.03539e-10
5.01392e-10
4.98036e-10
4.95948e-10
4.94149e-10
4.92637e-10
4.91843e-10
4.91016e-10
4.90596e-10
4.9024e-10
4.89983e-10
4.89803e-10
4.89622e-10
4.8952e-10
4.89382e-10
4.89318e-10
4.89214e-10
4.89169e-10
4.89091e-10
4.89059e-10
4.89003e-10
4.8898e-10
4.88945e-10
4.88931e-10
4.88918e-10
4.88916e-10
4.88927e-10
4.88937e-10
4.8897e-10
4.88991e-10
4.89045e-10
4.89076e-10
4.89152e-10
4.89196e-10
4.89299e-10
4.89362e-10
4.89499e-10
4.89599e-10
4.8978e-10
4.89979e-10
4.90239e-10
4.90596e-10
4.91015e-10
4.91845e-10
4.9264e-10
4.94154e-10
4.95955e-10
4.98043e-10
5.01401e-10
5.03549e-10
4.78677e-10
4.76422e-10
4.72978e-10
4.70839e-10
4.6903e-10
4.67489e-10
4.66709e-10
4.65874e-10
4.65467e-10
4.6511e-10
4.6486e-10
4.64683e-10
4.64506e-10
4.6441e-10
4.64274e-10
4.64215e-10
4.64113e-10
4.64072e-10
4.63997e-10
4.63966e-10
4.63912e-10
4.6389e-10
4.63856e-10
4.63843e-10
4.6383e-10
4.63828e-10
4.63839e-10
4.63848e-10
4.6388e-10
4.63899e-10
4.63952e-10
4.63981e-10
4.64055e-10
4.64095e-10
4.64196e-10
4.64254e-10
4.64388e-10
4.64483e-10
4.6466e-10
4.64853e-10
4.65106e-10
4.65465e-10
4.65872e-10
4.66709e-10
4.67491e-10
4.69033e-10
4.70843e-10
4.72983e-10
4.7643e-10
4.78685e-10
4.53013e-10
4.50723e-10
4.4722e-10
4.45053e-10
4.43265e-10
4.41702e-10
4.40944e-10
4.40108e-10
4.39716e-10
4.3936e-10
4.39119e-10
4.38946e-10
4.38775e-10
4.38685e-10
4.38553e-10
4.38499e-10
4.384e-10
4.38363e-10
4.38289e-10
4.38261e-10
4.38208e-10
4.38188e-10
4.38155e-10
4.38143e-10
4.3813e-10
4.38128e-10
4.38138e-10
4.38147e-10
4.38178e-10
4.38196e-10
4.38247e-10
4.38273e-10
4.38345e-10
4.38381e-10
4.38479e-10
4.38533e-10
4.38663e-10
4.38753e-10
4.38924e-10
4.3911e-10
4.39355e-10
4.39713e-10
4.40104e-10
4.40943e-10
4.41703e-10
4.43267e-10
4.45056e-10
4.47224e-10
4.50729e-10
4.53022e-10
4.26902e-10
4.24555e-10
4.21031e-10
4.18861e-10
4.17122e-10
4.15551e-10
4.14823e-10
4.13994e-10
4.13621e-10
4.13269e-10
4.13038e-10
4.12872e-10
4.12707e-10
4.12622e-10
4.12495e-10
4.12445e-10
4.1235e-10
4.12316e-10
4.12245e-10
4.1222e-10
4.12169e-10
4.1215e-10
4.12118e-10
4.12107e-10
4.12094e-10
4.12092e-10
4.12102e-10
4.1211e-10
4.1214e-10
4.12156e-10
4.12205e-10
4.12229e-10
4.12299e-10
4.12332e-10
4.12426e-10
4.12475e-10
4.12601e-10
4.12684e-10
4.1285e-10
4.13027e-10
4.13262e-10
4.13615e-10
4.13988e-10
4.1482e-10
4.15551e-10
4.17123e-10
4.18864e-10
4.21035e-10
4.24561e-10
4.2691e-10
4.00323e-10
3.97875e-10
3.94338e-10
3.92185e-10
3.905e-10
3.88938e-10
3.88241e-10
3.87425e-10
3.87071e-10
3.86728e-10
3.86507e-10
3.86349e-10
3.86192e-10
3.86113e-10
3.85992e-10
3.85946e-10
3.85855e-10
3.85824e-10
3.85756e-10
3.85733e-10
3.85685e-10
3.85668e-10
3.85636e-10
3.85626e-10
3.85614e-10
3.85612e-10
3.85621e-10
3.85629e-10
3.85657e-10
3.85672e-10
3.85719e-10
3.8574e-10
3.85807e-10
3.85837e-10
3.85927e-10
3.85972e-10
3.86092e-10
3.8617e-10
3.86328e-10
3.86496e-10
3.8672e-10
3.87065e-10
3.87419e-10
3.88237e-10
3.88937e-10
3.905e-10
3.92187e-10
3.9434e-10
3.97879e-10
4.00329e-10
3.73648e-10
3.71191e-10
3.67779e-10
3.65681e-10
3.64082e-10
3.62566e-10
3.61912e-10
3.61127e-10
3.60797e-10
3.60467e-10
3.6026e-10
3.60111e-10
3.59962e-10
3.59889e-10
3.59774e-10
3.59733e-10
3.59646e-10
3.59619e-10
3.59554e-10
3.59534e-10
3.59487e-10
3.59472e-10
3.59442e-10
3.59433e-10
3.59421e-10
3.59419e-10
3.59428e-10
3.59435e-10
3.59462e-10
3.59475e-10
3.5952e-10
3.59539e-10
3.59602e-10
3.59629e-10
3.59714e-10
3.59755e-10
3.59869e-10
3.59941e-10
3.6009e-10
3.60247e-10
3.60458e-10
3.6079e-10
3.6112e-10
3.61908e-10
3.62565e-10
3.64082e-10
3.65683e-10
3.6778e-10
3.71194e-10
3.73654e-10
3.47545e-10
3.45105e-10
3.41866e-10
3.39852e-10
3.38353e-10
3.36902e-10
3.36296e-10
3.35549e-10
3.35245e-10
3.34932e-10
3.34739e-10
3.346e-10
3.3446e-10
3.34393e-10
3.34286e-10
3.34248e-10
3.34167e-10
3.34141e-10
3.34081e-10
3.34062e-10
3.34019e-10
3.34004e-10
3.33976e-10
3.33968e-10
3.33957e-10
3.33955e-10
3.33963e-10
3.33969e-10
3.33995e-10
3.34007e-10
3.34049e-10
3.34066e-10
3.34126e-10
3.3415e-10
3.3423e-10
3.34267e-10
3.34374e-10
3.3444e-10
3.3458e-10
3.34726e-10
3.34922e-10
3.35237e-10
3.35542e-10
3.36291e-10
3.369e-10
3.38352e-10
3.39852e-10
3.41867e-10
3.45107e-10
3.47551e-10
3.22366e-10
3.19969e-10
3.1694e-10
3.15038e-10
3.13652e-10
3.12283e-10
3.11728e-10
3.11027e-10
3.1075e-10
3.10456e-10
3.10278e-10
3.1015e-10
3.1002e-10
3.09959e-10
3.09859e-10
3.09824e-10
3.09749e-10
3.09726e-10
3.09669e-10
3.09652e-10
3.09612e-10
3.09598e-10
3.09572e-10
3.09564e-10
3.09554e-10
3.09552e-10
3.0956e-10
3.09565e-10
3.09589e-10
3.096e-10
3.0964e-10
3.09656e-10
3.09711e-10
3.09733e-10
3.09808e-10
3.09842e-10
3.09941e-10
3.10002e-10
3.10132e-10
3.10266e-10
3.10447e-10
3.10742e-10
3.1102e-10
3.11724e-10
3.1228e-10
3.1365e-10
3.15038e-10
3.16941e-10
3.19971e-10
3.22372e-10
2.98412e-10
2.96125e-10
2.93314e-10
2.9155e-10
2.90284e-10
2.89012e-10
2.88511e-10
2.87861e-10
2.87611e-10
2.87339e-10
2.87177e-10
2.87059e-10
2.8694e-10
2.86884e-10
2.86791e-10
2.8676e-10
2.8669e-10
2.86669e-10
2.86616e-10
2.86601e-10
2.86563e-10
2.86551e-10
2.86526e-10
2.86519e-10
2.86509e-10
2.86508e-10
2.86515e-10
2.8652e-10
2.86542e-10
2.86552e-10
2.86589e-10
2.86604e-10
2.86655e-10
2.86675e-10
2.86744e-10
2.86775e-10
2.86867e-10
2.86922e-10
2.87042e-10
2.87165e-10
2.8733e-10
2.87604e-10
2.87854e-10
2.88506e-10
2.89009e-10
2.90282e-10
2.9155e-10
2.93314e-10
2.96126e-10
2.98417e-10
2.76341e-10
2.74199e-10
2.71625e-10
2.69992e-10
2.68849e-10
2.67675e-10
2.67229e-10
2.6663e-10
2.66408e-10
2.66157e-10
2.6601e-10
2.65902e-10
2.65793e-10
2.65742e-10
2.65657e-10
2.65628e-10
2.65563e-10
2.65544e-10
2.65495e-10
2.65481e-10
2.65446e-10
2.65435e-10
2.65412e-10
2.65405e-10
2.65396e-10
2.65395e-10
2.65401e-10
2.65406e-10
2.65427e-10
2.65436e-10
2.6547e-10
2.65484e-10
2.65531e-10
2.6555e-10
2.65614e-10
2.65642e-10
2.65726e-10
2.65777e-10
2.65887e-10
2.65998e-10
2.66148e-10
2.66401e-10
2.66624e-10
2.67225e-10
2.67672e-10
2.68847e-10
2.69992e-10
2.71625e-10
2.74199e-10
2.76347e-10
2.55985e-10
2.54006e-10
2.51673e-10
2.50183e-10
2.49161e-10
2.4809e-10
2.47698e-10
2.47152e-10
2.46955e-10
2.46727e-10
2.46594e-10
2.46496e-10
2.46397e-10
2.4635e-10
2.46272e-10
2.46246e-10
2.46186e-10
2.46168e-10
2.46123e-10
2.4611e-10
2.46078e-10
2.46067e-10
2.46046e-10
2.4604e-10
2.46032e-10
2.4603e-10
2.46037e-10
2.46041e-10
2.4606e-10
2.46069e-10
2.461e-10
2.46113e-10
2.46157e-10
2.46174e-10
2.46233e-10
2.46258e-10
2.46336e-10
2.46382e-10
2.46482e-10
2.46583e-10
2.46718e-10
2.46949e-10
2.47146e-10
2.47694e-10
2.48088e-10
2.4916e-10
2.50183e-10
2.51672e-10
2.54006e-10
2.55991e-10
2.37466e-10
2.35635e-10
2.33554e-10
2.32204e-10
2.31298e-10
2.30311e-10
2.29959e-10
2.29451e-10
2.29274e-10
2.29062e-10
2.2894e-10
2.2885e-10
2.28758e-10
2.28715e-10
2.28642e-10
2.28617e-10
2.28562e-10
2.28545e-10
2.28503e-10
2.2849e-10
2.2846e-10
2.2845e-10
2.2843e-10
2.28424e-10
2.28416e-10
2.28415e-10
2.28421e-10
2.28425e-10
2.28443e-10
2.28452e-10
2.28481e-10
2.28493e-10
2.28534e-10
2.2855e-10
2.28605e-10
2.28629e-10
2.28701e-10
2.28744e-10
2.28837e-10
2.28929e-10
2.29053e-10
2.29267e-10
2.29445e-10
2.29954e-10
2.30308e-10
2.31296e-10
2.32204e-10
2.33553e-10
2.35634e-10
2.37472e-10
2.20762e-10
2.19097e-10
2.17238e-10
2.16024e-10
2.15223e-10
2.14333e-10
2.14025e-10
2.13567e-10
2.13411e-10
2.13218e-10
2.13109e-10
2.13027e-10
2.12943e-10
2.12904e-10
2.12837e-10
2.12814e-10
2.12763e-10
2.12747e-10
2.12708e-10
2.12696e-10
2.12668e-10
2.12659e-10
2.12641e-10
2.12635e-10
2.12628e-10
2.12627e-10
2.12632e-10
2.12636e-10
2.12653e-10
2.12661e-10
2.12688e-10
2.12699e-10
2.12737e-10
2.12752e-10
2.12803e-10
2.12825e-10
2.12892e-10
2.12931e-10
2.13015e-10
2.13099e-10
2.1321e-10
2.13404e-10
2.13561e-10
2.14021e-10
2.1433e-10
2.15222e-10
2.16023e-10
2.17237e-10
2.19096e-10
2.20767e-10
2.05756e-10
2.04265e-10
2.02591e-10
2.015e-10
2.00793e-10
1.99989e-10
1.9972e-10
1.99305e-10
1.99167e-10
1.98993e-10
1.98894e-10
1.98819e-10
1.98743e-10
1.98706e-10
1.98645e-10
1.98623e-10
1.98576e-10
1.98561e-10
1.98526e-10
1.98514e-10
1.98488e-10
1.98479e-10
1.98462e-10
1.98457e-10
1.9845e-10
1.98449e-10
1.98454e-10
1.98458e-10
1.98474e-10
1.98481e-10
1.98506e-10
1.98517e-10
1.98552e-10
1.98567e-10
1.98613e-10
1.98635e-10
1.98695e-10
1.98731e-10
1.98808e-10
1.98884e-10
1.98985e-10
1.99161e-10
1.99299e-10
1.99716e-10
1.99986e-10
2.00792e-10
2.015e-10
2.0259e-10
2.04264e-10
2.05762e-10
1.91995e-10
1.9066e-10
1.89143e-10
1.8817e-10
1.87543e-10
1.86822e-10
1.86586e-10
1.86211e-10
1.8609e-10
1.85932e-10
1.85843e-10
1.85775e-10
1.85706e-10
1.85672e-10
1.85616e-10
1.85596e-10
1.85553e-10
1.85538e-10
1.85506e-10
1.85495e-10
1.85471e-10
1.85462e-10
1.85447e-10
1.85442e-10
1.85436e-10
1.85435e-10
1.85439e-10
1.85443e-10
1.85457e-10
1.85465e-10
1.85488e-10
1.85498e-10
1.8553e-10
1.85544e-10
1.85587e-10
1.85607e-10
1.85662e-10
1.85695e-10
1.85765e-10
1.85834e-10
1.85925e-10
1.86084e-10
1.86206e-10
1.86582e-10
1.8682e-10
1.87542e-10
1.8817e-10
1.89143e-10
1.90659e-10
1.92e-10
1.79648e-10
1.78434e-10
1.7705e-10
1.76158e-10
1.75597e-10
1.74934e-10
1.74726e-10
1.7438e-10
1.74273e-10
1.74127e-10
1.74046e-10
1.73983e-10
1.73919e-10
1.73888e-10
1.73836e-10
1.73817e-10
1.73777e-10
1.73763e-10
1.73732e-10
1.73722e-10
1.737e-10
1.73691e-10
1.73677e-10
1.73672e-10
1.73666e-10
1.73666e-10
1.7367e-10
1.73674e-10
1.73687e-10
1.73694e-10
1.73715e-10
1.73725e-10
1.73755e-10
1.73769e-10
1.73809e-10
1.73827e-10
1.73879e-10
1.7391e-10
1.73974e-10
1.74038e-10
1.7412e-10
1.74267e-10
1.74376e-10
1.74723e-10
1.74932e-10
1.75595e-10
1.76157e-10
1.77049e-10
1.78433e-10
1.79652e-10
1.68146e-10
1.67013e-10
1.65745e-10
1.64911e-10
1.64403e-10
1.63786e-10
1.63602e-10
1.63278e-10
1.63182e-10
1.63046e-10
1.62972e-10
1.62914e-10
1.62854e-10
1.62825e-10
1.62777e-10
1.62759e-10
1.62721e-10
1.62708e-10
1.62679e-10
1.62669e-10
1.62648e-10
1.62641e-10
1.62627e-10
1.62622e-10
1.62617e-10
1.62616e-10
1.6262e-10
1.62624e-10
1.62636e-10
1.62643e-10
1.62663e-10
1.62673e-10
1.62701e-10
1.62713e-10
1.62751e-10
1.62768e-10
1.62817e-10
1.62845e-10
1.62905e-10
1.62964e-10
1.6304e-10
1.63177e-10
1.63273e-10
1.63599e-10
1.63783e-10
1.64402e-10
1.6491e-10
1.65744e-10
1.67012e-10
1.68149e-10
1.57157e-10
1.56079e-10
1.54904e-10
1.54114e-10
1.53651e-10
1.53068e-10
1.52905e-10
1.52597e-10
1.52513e-10
1.52384e-10
1.52316e-10
1.52262e-10
1.52206e-10
1.52179e-10
1.52133e-10
1.52116e-10
1.52081e-10
1.52069e-10
1.52041e-10
1.52032e-10
1.52012e-10
1.52005e-10
1.51992e-10
1.51987e-10
1.51982e-10
1.51982e-10
1.51985e-10
1.51989e-10
1.52001e-10
1.52007e-10
1.52026e-10
1.52035e-10
1.52062e-10
1.52074e-10
1.52109e-10
1.52125e-10
1.52171e-10
1.52197e-10
1.52253e-10
1.52308e-10
1.52378e-10
1.52507e-10
1.52593e-10
1.52902e-10
1.53065e-10
1.53649e-10
1.54113e-10
1.54903e-10
1.56078e-10
1.5716e-10
1.46414e-10
1.45369e-10
1.44274e-10
1.43521e-10
1.43096e-10
1.42541e-10
1.42399e-10
1.42103e-10
1.42028e-10
1.41906e-10
1.41844e-10
1.41793e-10
1.4174e-10
1.41715e-10
1.41672e-10
1.41656e-10
1.41622e-10
1.41611e-10
1.41585e-10
1.41576e-10
1.41557e-10
1.41551e-10
1.41538e-10
1.41534e-10
1.41529e-10
1.41528e-10
1.41532e-10
1.41535e-10
1.41547e-10
1.41553e-10
1.41571e-10
1.41579e-10
1.41605e-10
1.41616e-10
1.41649e-10
1.41664e-10
1.41707e-10
1.41732e-10
1.41785e-10
1.41836e-10
1.419e-10
1.42023e-10
1.42098e-10
1.42395e-10
1.42538e-10
1.43094e-10
1.4352e-10
1.44273e-10
1.45368e-10
1.46416e-10
1.35751e-10
1.34713e-10
1.33672e-10
1.32938e-10
1.32542e-10
1.32006e-10
1.3188e-10
1.31593e-10
1.31528e-10
1.31411e-10
1.31353e-10
1.31305e-10
1.31255e-10
1.31232e-10
1.31191e-10
1.31177e-10
1.31145e-10
1.31134e-10
1.3111e-10
1.31102e-10
1.31083e-10
1.31077e-10
1.31065e-10
1.31061e-10
1.31057e-10
1.31056e-10
1.3106e-10
1.31062e-10
1.31073e-10
1.31079e-10
1.31096e-10
1.31104e-10
1.31128e-10
1.31138e-10
1.3117e-10
1.31184e-10
1.31225e-10
1.31247e-10
1.31297e-10
1.31345e-10
1.31404e-10
1.31522e-10
1.31588e-10
1.31877e-10
1.32003e-10
1.3254e-10
1.32936e-10
1.3367e-10
1.34712e-10
1.35752e-10
1.25113e-10
1.24116e-10
1.23153e-10
1.22453e-10
1.22094e-10
1.21586e-10
1.21479e-10
1.21204e-10
1.21147e-10
1.21037e-10
1.20984e-10
1.20938e-10
1.20892e-10
1.20871e-10
1.20832e-10
1.20819e-10
1.20788e-10
1.20779e-10
1.20755e-10
1.20747e-10
1.2073e-10
1.20724e-10
1.20713e-10
1.20709e-10
1.20705e-10
1.20704e-10
1.20708e-10
1.2071e-10
1.20721e-10
1.20726e-10
1.20743e-10
1.2075e-10
1.20773e-10
1.20782e-10
1.20813e-10
1.20825e-10
1.20864e-10
1.20885e-10
1.20931e-10
1.20977e-10
1.2103e-10
1.21142e-10
1.21199e-10
1.21475e-10
1.21583e-10
1.22092e-10
1.22451e-10
1.23152e-10
1.24115e-10
1.25114e-10
1.14588e-10
1.13662e-10
1.12776e-10
1.12118e-10
1.11799e-10
1.11324e-10
1.11234e-10
1.10974e-10
1.10927e-10
1.10823e-10
1.10775e-10
1.10733e-10
1.10689e-10
1.1067e-10
1.10633e-10
1.10621e-10
1.10592e-10
1.10582e-10
1.1056e-10
1.10553e-10
1.10537e-10
1.10531e-10
1.1052e-10
1.10516e-10
1.10512e-10
1.10511e-10
1.10515e-10
1.10518e-10
1.10527e-10
1.10533e-10
1.10548e-10
1.10555e-10
1.10577e-10
1.10586e-10
1.10615e-10
1.10627e-10
1.10663e-10
1.10683e-10
1.10726e-10
1.10768e-10
1.10817e-10
1.10922e-10
1.1097e-10
1.11231e-10
1.11321e-10
1.11796e-10
1.12116e-10
1.12774e-10
1.13661e-10
1.14588e-10
1.04328e-10
1.03475e-10
1.02673e-10
1.02066e-10
1.01785e-10
1.0135e-10
1.01276e-10
1.01034e-10
1.00994e-10
1.00898e-10
1.00854e-10
1.00814e-10
1.00774e-10
1.00755e-10
1.00721e-10
1.00709e-10
1.00682e-10
1.00673e-10
1.00652e-10
1.00644e-10
1.00629e-10
1.00623e-10
1.00613e-10
1.0061e-10
1.00606e-10
1.00605e-10
1.00608e-10
1.00611e-10
1.0062e-10
1.00626e-10
1.00641e-10
1.00647e-10
1.00668e-10
1.00677e-10
1.00704e-10
1.00715e-10
1.0075e-10
1.00768e-10
1.00808e-10
1.00848e-10
1.00892e-10
1.00989e-10
1.0103e-10
1.01272e-10
1.01347e-10
1.01783e-10
1.02064e-10
1.02671e-10
1.03474e-10
1.04328e-10
9.46644e-11
9.39011e-11
9.32005e-11
9.2658e-11
9.24191e-11
9.20315e-11
9.1972e-11
9.1753e-11
9.17196e-11
9.16315e-11
9.15922e-11
9.15548e-11
9.15178e-11
9.14995e-11
9.14673e-11
9.14554e-11
9.14296e-11
9.14205e-11
9.14007e-11
9.13932e-11
9.13786e-11
9.13728e-11
9.13633e-11
9.13597e-11
9.13558e-11
9.13553e-11
9.13585e-11
9.13614e-11
9.13703e-11
9.13756e-11
9.13898e-11
9.13969e-11
9.14164e-11
9.14252e-11
9.14507e-11
9.14623e-11
9.14943e-11
9.15124e-11
9.15494e-11
9.15868e-11
9.16266e-11
9.17153e-11
9.17493e-11
9.19689e-11
9.20288e-11
9.2417e-11
9.26563e-11
9.3199e-11
9.38989e-11
9.46644e-11
8.58118e-11
8.51435e-11
8.45529e-11
8.40819e-11
8.38852e-11
8.35498e-11
8.35031e-11
8.33095e-11
8.32812e-11
8.32021e-11
8.31663e-11
8.31311e-11
8.30969e-11
8.30787e-11
8.30485e-11
8.30361e-11
8.30119e-11
8.30022e-11
8.29834e-11
8.29755e-11
8.29617e-11
8.29556e-11
8.29466e-11
8.29429e-11
8.29392e-11
8.29389e-11
8.29419e-11
8.29451e-11
8.29536e-11
8.29593e-11
8.29727e-11
8.29802e-11
8.29987e-11
8.30081e-11
8.30321e-11
8.30443e-11
8.30742e-11
8.30923e-11
8.31264e-11
8.31617e-11
8.31978e-11
8.32776e-11
8.33064e-11
8.35005e-11
8.35476e-11
8.38835e-11
8.40805e-11
8.45513e-11
8.5141e-11
8.58117e-11
7.79961e-11
7.74339e-11
7.69502e-11
7.65533e-11
7.63963e-11
7.61163e-11
7.60796e-11
7.59134e-11
7.58886e-11
7.58186e-11
7.57857e-11
7.57526e-11
7.57207e-11
7.5702e-11
7.56737e-11
7.56603e-11
7.56374e-11
7.56268e-11
7.56089e-11
7.56003e-11
7.55871e-11
7.55806e-11
7.5572e-11
7.55681e-11
7.55646e-11
7.55643e-11
7.55673e-11
7.55708e-11
7.5579e-11
7.55852e-11
7.5598e-11
7.56063e-11
7.56239e-11
7.56343e-11
7.5657e-11
7.56702e-11
7.56983e-11
7.57168e-11
7.57487e-11
7.5782e-11
7.58152e-11
7.58858e-11
7.59111e-11
7.60778e-11
7.61148e-11
7.63953e-11
7.6552e-11
7.69484e-11
7.74313e-11
7.79956e-11
7.13898e-11
7.09414e-11
7.05548e-11
7.0228e-11
7.00915e-11
6.98542e-11
6.98184e-11
6.96757e-11
6.96501e-11
6.95872e-11
6.95555e-11
6.95223e-11
6.9492e-11
6.94724e-11
6.94454e-11
6.94307e-11
6.94087e-11
6.93969e-11
6.93796e-11
6.93701e-11
6.93574e-11
6.93503e-11
6.93419e-11
6.93377e-11
6.93343e-11
6.93341e-11
6.93372e-11
6.93411e-11
6.93491e-11
6.9356e-11
6.93685e-11
6.93777e-11
6.93947e-11
6.94063e-11
6.94281e-11
6.94427e-11
6.94694e-11
6.94889e-11
6.9519e-11
6.95519e-11
6.95837e-11
6.96468e-11
6.96727e-11
6.98154e-11
6.98513e-11
7.00886e-11
7.02256e-11
7.05527e-11
7.09388e-11
7.13887e-11
6.60948e-11
6.57497e-11
6.54522e-11
6.51943e-11
6.5087e-11
6.48999e-11
6.48673e-11
6.47504e-11
6.47245e-11
6.46691e-11
6.46383e-11
6.4606e-11
6.45768e-11
6.45559e-11
6.45297e-11
6.45133e-11
6.44918e-11
6.44785e-11
6.44616e-11
6.4451e-11
6.44384e-11
6.44306e-11
6.44223e-11
6.44177e-11
6.44144e-11
6.44142e-11
6.44174e-11
6.44218e-11
6.44299e-11
6.44375e-11
6.44499e-11
6.44603e-11
6.4477e-11
6.44901e-11
6.45114e-11
6.45276e-11
6.45536e-11
6.45744e-11
6.46034e-11
6.46356e-11
6.46664e-11
6.4722e-11
6.47481e-11
6.48651e-11
6.48976e-11
6.50847e-11
6.51919e-11
6.54499e-11
6.57471e-11
6.60929e-11
6.21174e-11
6.18613e-11
6.16408e-11
6.14452e-11
6.13601e-11
6.12158e-11
6.11832e-11
6.10885e-11
6.10604e-11
6.10109e-11
6.098e-11
6.09476e-11
6.09188e-11
6.08961e-11
6.08702e-11
6.08518e-11
6.08304e-11
6.08155e-11
6.07985e-11
6.07867e-11
6.0774e-11
6.07654e-11
6.0757e-11
6.07519e-11
6.07485e-11
6.07485e-11
6.07518e-11
6.07568e-11
6.07651e-11
6.07736e-11
6.07862e-11
6.07978e-11
6.08146e-11
6.08294e-11
6.08506e-11
6.08688e-11
6.08945e-11
6.0917e-11
6.09457e-11
6.09779e-11
6.10089e-11
6.10585e-11
6.10867e-11
6.11814e-11
6.12139e-11
6.1358e-11
6.14429e-11
6.16383e-11
6.18584e-11
6.21148e-11
5.93744e-11
5.91928e-11
5.90332e-11
5.88893e-11
5.88195e-11
5.87094e-11
5.86744e-11
5.85976e-11
5.85661e-11
5.85208e-11
5.84886e-11
5.84559e-11
5.84264e-11
5.84017e-11
5.83754e-11
5.83551e-11
5.83333e-11
5.83166e-11
5.82992e-11
5.8286e-11
5.8273e-11
5.82634e-11
5.82548e-11
5.82491e-11
5.82456e-11
5.82456e-11
5.82492e-11
5.82549e-11
5.82635e-11
5.8273e-11
5.8286e-11
5.82991e-11
5.83163e-11
5.83328e-11
5.83544e-11
5.83746e-11
5.84007e-11
5.84252e-11
5.84545e-11
5.84871e-11
5.85193e-11
5.85646e-11
5.85961e-11
5.86728e-11
5.87076e-11
5.88175e-11
5.88869e-11
5.90304e-11
5.91895e-11
5.9371e-11
5.77121e-11
5.75871e-11
5.7473e-11
5.73685e-11
5.7308e-11
5.72234e-11
5.71843e-11
5.71208e-11
5.70852e-11
5.70424e-11
5.70081e-11
5.69745e-11
5.69438e-11
5.69168e-11
5.68897e-11
5.68672e-11
5.68446e-11
5.68261e-11
5.6808e-11
5.67934e-11
5.67797e-11
5.67691e-11
5.676e-11
5.67538e-11
5.67501e-11
5.67502e-11
5.67541e-11
5.67604e-11
5.67696e-11
5.67802e-11
5.67938e-11
5.68083e-11
5.68263e-11
5.68446e-11
5.6867e-11
5.68894e-11
5.69163e-11
5.69431e-11
5.69736e-11
5.70071e-11
5.70413e-11
5.7084e-11
5.71195e-11
5.71828e-11
5.72216e-11
5.73059e-11
5.73659e-11
5.74698e-11
5.75832e-11
5.77079e-11
5.69301e-11
5.68451e-11
5.67622e-11
5.66855e-11
5.66295e-11
5.65621e-11
5.65182e-11
5.64637e-11
5.64236e-11
5.63818e-11
5.6345e-11
5.63098e-11
5.62773e-11
5.62481e-11
5.62196e-11
5.61949e-11
5.61711e-11
5.61508e-11
5.61317e-11
5.61157e-11
5.61012e-11
5.60896e-11
5.60799e-11
5.60731e-11
5.60691e-11
5.60693e-11
5.60736e-11
5.60806e-11
5.60904e-11
5.61021e-11
5.61165e-11
5.61325e-11
5.61515e-11
5.61717e-11
5.61952e-11
5.62198e-11
5.6248e-11
5.62771e-11
5.63093e-11
5.63443e-11
5.63809e-11
5.64226e-11
5.64624e-11
5.65167e-11
5.65602e-11
5.66271e-11
5.66825e-11
5.67584e-11
5.68406e-11
5.6925e-11
5.68149e-11
5.67559e-11
5.66924e-11
5.66334e-11
5.65785e-11
5.65216e-11
5.64727e-11
5.64232e-11
5.63788e-11
5.63366e-11
5.6297e-11
5.626e-11
5.62254e-11
5.61938e-11
5.61637e-11
5.61368e-11
5.61116e-11
5.60895e-11
5.60692e-11
5.60518e-11
5.60363e-11
5.60237e-11
5.60134e-11
5.60059e-11
5.60015e-11
5.60018e-11
5.60065e-11
5.60143e-11
5.60248e-11
5.60375e-11
5.60529e-11
5.60703e-11
5.60905e-11
5.61125e-11
5.61375e-11
5.61642e-11
5.61941e-11
5.62255e-11
5.62597e-11
5.62965e-11
5.63359e-11
5.63779e-11
5.6422e-11
5.6471e-11
5.65194e-11
5.65757e-11
5.66299e-11
5.6688e-11
5.67507e-11
5.68088e-11
5.7164e-11
5.71204e-11
5.70673e-11
5.70182e-11
5.69623e-11
5.69105e-11
5.6857e-11
5.68096e-11
5.67611e-11
5.67175e-11
5.6675e-11
5.66359e-11
5.65991e-11
5.65651e-11
5.65331e-11
5.65042e-11
5.64775e-11
5.64536e-11
5.64321e-11
5.64132e-11
5.63968e-11
5.63832e-11
5.63721e-11
5.6364e-11
5.63593e-11
5.63596e-11
5.63648e-11
5.63732e-11
5.63845e-11
5.63983e-11
5.64147e-11
5.64335e-11
5.6455e-11
5.64787e-11
5.65052e-11
5.6534e-11
5.65657e-11
5.65993e-11
5.66359e-11
5.66747e-11
5.67169e-11
5.67601e-11
5.68082e-11
5.68552e-11
5.69081e-11
5.6959e-11
5.70141e-11
5.70623e-11
5.71142e-11
5.71568e-11
5.77959e-11
5.77599e-11
5.77114e-11
5.76663e-11
5.76083e-11
5.7558e-11
5.75005e-11
5.74528e-11
5.74007e-11
5.73552e-11
5.73099e-11
5.72686e-11
5.72295e-11
5.71933e-11
5.71595e-11
5.71286e-11
5.71003e-11
5.70749e-11
5.7052e-11
5.70319e-11
5.70144e-11
5.69998e-11
5.6988e-11
5.69794e-11
5.69743e-11
5.69746e-11
5.69802e-11
5.69893e-11
5.70014e-11
5.70162e-11
5.70336e-11
5.70537e-11
5.70765e-11
5.71018e-11
5.71299e-11
5.71605e-11
5.71941e-11
5.72299e-11
5.72687e-11
5.73097e-11
5.73545e-11
5.73996e-11
5.74513e-11
5.74983e-11
5.75551e-11
5.76046e-11
5.76616e-11
5.77056e-11
5.77528e-11
5.77876e-11
5.85435e-11
5.85099e-11
5.84623e-11
5.84174e-11
5.8357e-11
5.83057e-11
5.82449e-11
5.81957e-11
5.81405e-11
5.80928e-11
5.80451e-11
5.80017e-11
5.79605e-11
5.79223e-11
5.78868e-11
5.78542e-11
5.78244e-11
5.77976e-11
5.77735e-11
5.77523e-11
5.77339e-11
5.77184e-11
5.77059e-11
5.76967e-11
5.76913e-11
5.76917e-11
5.76977e-11
5.77074e-11
5.77201e-11
5.77357e-11
5.77542e-11
5.77754e-11
5.77994e-11
5.7826e-11
5.78556e-11
5.78879e-11
5.79232e-11
5.79611e-11
5.80019e-11
5.80449e-11
5.80921e-11
5.81393e-11
5.81939e-11
5.82425e-11
5.83024e-11
5.83528e-11
5.8412e-11
5.84557e-11
5.85019e-11
5.85342e-11
5.92397e-11
5.92054e-11
5.91569e-11
5.911e-11
5.90476e-11
5.8994e-11
5.89311e-11
5.88797e-11
5.88223e-11
5.87726e-11
5.87229e-11
5.86778e-11
5.8635e-11
5.85948e-11
5.85581e-11
5.85242e-11
5.84932e-11
5.84652e-11
5.84401e-11
5.8418e-11
5.83988e-11
5.83827e-11
5.83697e-11
5.836e-11
5.83543e-11
5.83548e-11
5.83611e-11
5.83712e-11
5.83845e-11
5.84008e-11
5.84201e-11
5.84421e-11
5.84671e-11
5.84949e-11
5.85257e-11
5.85593e-11
5.85958e-11
5.86355e-11
5.86779e-11
5.87226e-11
5.87718e-11
5.88209e-11
5.88777e-11
5.89283e-11
5.89903e-11
5.90429e-11
5.9104e-11
5.91496e-11
5.91966e-11
5.92293e-11
5.96993e-11
5.96636e-11
5.96141e-11
5.95649e-11
5.95015e-11
5.94459e-11
5.93819e-11
5.93287e-11
5.92701e-11
5.9219e-11
5.91682e-11
5.9122e-11
5.9078e-11
5.90372e-11
5.89994e-11
5.89646e-11
5.89329e-11
5.89042e-11
5.88785e-11
5.88559e-11
5.88362e-11
5.88197e-11
5.88064e-11
5.87964e-11
5.87906e-11
5.87911e-11
5.87975e-11
5.88079e-11
5.88216e-11
5.88383e-11
5.8858e-11
5.88806e-11
5.89061e-11
5.89346e-11
5.89661e-11
5.90005e-11
5.90381e-11
5.90784e-11
5.9122e-11
5.91677e-11
5.9218e-11
5.92684e-11
5.93264e-11
5.93787e-11
5.94418e-11
5.94963e-11
5.95585e-11
5.96062e-11
5.96541e-11
5.96882e-11
)
;

boundaryField
{
    fuel
    {
        type            fixedValue;
        value           nonuniform 0();
    }
    wall
    {
        type            zeroGradient;
    }
    outlet
    {
        type            zeroGradient;
    }
    frontAndBack
    {
        type            empty;
    }
    procBoundary3to2
    {
        type            processor;
        value           nonuniform List<scalar> 
51
(
5.59778e-10
5.59588e-10
5.59473e-10
5.59328e-10
5.59252e-10
5.59142e-10
5.59088e-10
5.59006e-10
5.58966e-10
5.58908e-10
5.5888e-10
5.58843e-10
5.58828e-10
5.58815e-10
5.58813e-10
5.58824e-10
5.58837e-10
5.58871e-10
5.58896e-10
5.58953e-10
5.58992e-10
5.59072e-10
5.59125e-10
5.59233e-10
5.59309e-10
5.59452e-10
5.59566e-10
5.59754e-10
5.59967e-10
5.60238e-10
5.60581e-10
5.6102e-10
5.618e-10
5.62599e-10
5.63989e-10
5.65641e-10
5.67495e-10
5.70658e-10
5.7242e-10
5.50397e-10
5.48493e-10
5.45389e-10
5.43446e-10
5.41741e-10
5.40301e-10
5.39499e-10
5.38701e-10
5.38265e-10
5.37917e-10
5.37649e-10
5.37649e-10
)
;
    }
}


// ************************************************************************* //
