/*--------------------------------*- C++ -*----------------------------------*\
| =========                 |                                                 |
| \\      /  F ield         | OpenFOAM: The Open Source CFD Toolbox           |
|  \\    /   O peration     | Version:  dev                                   |
|   \\  /    A nd           | Web:      www.OpenFOAM.org                      |
|    \\/     M anipulation  |                                                 |
\*---------------------------------------------------------------------------*/
FoamFile
{
    version     2.0;
    format      ascii;
    class       volScalarField;
    location    "0.035";
    object      CH2;
}
// * * * * * * * * * * * * * * * * * * * * * * * * * * * * * * * * * * * * * //

dimensions      [0 0 0 0 0 0 0];

internalField   nonuniform List<scalar> 
1989
(
1.15905e-08
1.1583e-08
1.15814e-08
1.15765e-08
1.1577e-08
1.15738e-08
1.15748e-08
1.15725e-08
1.15733e-08
1.15717e-08
1.15721e-08
1.15711e-08
1.15712e-08
1.15707e-08
1.15706e-08
1.15708e-08
1.15705e-08
1.15714e-08
1.15708e-08
1.15723e-08
1.15715e-08
1.15736e-08
1.15726e-08
1.15758e-08
1.15753e-08
1.15802e-08
1.15817e-08
1.15892e-08
1.15971e-08
1.16103e-08
1.16294e-08
1.16556e-08
1.1713e-08
1.17711e-08
1.18862e-08
1.20255e-08
1.21908e-08
1.24666e-08
1.26385e-08
1.06742e-08
1.05217e-08
1.02808e-08
1.01364e-08
1.00156e-08
9.91582e-09
9.86673e-09
9.81709e-09
9.79506e-09
9.77817e-09
9.76698e-09
9.76043e-09
9.75392e-09
9.75266e-09
9.74846e-09
9.74893e-09
9.74615e-09
9.74699e-09
9.74505e-09
9.74573e-09
9.74436e-09
9.74473e-09
9.7438e-09
9.74388e-09
9.74347e-09
9.74336e-09
9.74357e-09
9.7433e-09
9.74407e-09
9.74358e-09
9.74487e-09
9.74413e-09
9.74601e-09
9.74513e-09
9.74789e-09
9.74741e-09
9.75159e-09
9.75281e-09
9.75927e-09
9.76601e-09
9.77719e-09
9.79408e-09
9.81609e-09
9.86586e-09
9.91505e-09
1.00149e-08
1.01359e-08
1.02803e-08
1.05214e-08
1.0674e-08
8.95854e-09
8.82401e-09
8.61483e-09
8.48986e-09
8.38531e-09
8.29959e-09
8.25836e-09
8.21553e-09
8.19716e-09
8.1824e-09
8.17295e-09
8.16736e-09
8.16181e-09
8.16079e-09
8.15718e-09
8.15763e-09
8.15523e-09
8.15598e-09
8.1543e-09
8.1549e-09
8.15372e-09
8.15404e-09
8.15324e-09
8.15332e-09
8.15296e-09
8.15286e-09
8.15305e-09
8.15282e-09
8.15348e-09
8.15305e-09
8.15417e-09
8.15351e-09
8.15514e-09
8.15435e-09
8.15674e-09
8.15628e-09
8.15987e-09
8.16085e-09
8.16637e-09
8.17206e-09
8.18149e-09
8.19625e-09
8.21461e-09
8.25755e-09
8.29888e-09
8.38467e-09
8.48937e-09
8.61441e-09
8.82373e-09
8.9583e-09
7.46968e-09
7.3517e-09
7.17128e-09
7.06368e-09
6.97473e-09
6.90114e-09
6.86678e-09
6.83007e-09
6.81486e-09
6.80206e-09
6.79415e-09
6.78942e-09
6.78472e-09
6.78391e-09
6.78082e-09
6.78125e-09
6.77919e-09
6.77986e-09
6.77842e-09
6.77895e-09
6.77793e-09
6.77822e-09
6.77752e-09
6.77759e-09
6.77729e-09
6.7772e-09
6.77737e-09
6.77716e-09
6.77774e-09
6.77736e-09
6.77832e-09
6.77775e-09
6.77914e-09
6.77844e-09
6.78049e-09
6.78006e-09
6.78312e-09
6.78391e-09
6.78858e-09
6.79336e-09
6.80126e-09
6.81405e-09
6.82924e-09
6.86605e-09
6.9005e-09
6.97416e-09
7.06322e-09
7.17089e-09
7.35142e-09
7.46942e-09
6.18346e-09
6.08335e-09
5.92867e-09
5.83679e-09
5.76224e-09
5.69917e-09
5.67079e-09
5.63953e-09
5.62703e-09
5.61603e-09
5.60945e-09
5.60548e-09
5.60153e-09
5.6009e-09
5.59828e-09
5.59868e-09
5.59692e-09
5.59751e-09
5.59628e-09
5.59675e-09
5.59588e-09
5.59613e-09
5.59554e-09
5.5956e-09
5.59534e-09
5.59527e-09
5.59541e-09
5.59523e-09
5.59573e-09
5.59539e-09
5.59622e-09
5.59571e-09
5.59691e-09
5.59629e-09
5.59804e-09
5.59763e-09
5.60024e-09
5.60085e-09
5.60477e-09
5.60876e-09
5.61533e-09
5.62632e-09
5.6388e-09
5.67015e-09
5.69861e-09
5.76174e-09
5.83638e-09
5.92831e-09
6.08309e-09
6.1833e-09
5.08474e-09
4.99855e-09
4.86682e-09
4.78897e-09
4.72736e-09
4.67352e-09
4.6503e-09
4.62384e-09
4.61367e-09
4.60429e-09
4.59885e-09
4.59557e-09
4.59226e-09
4.59178e-09
4.58957e-09
4.58994e-09
4.58845e-09
4.58896e-09
4.58792e-09
4.58833e-09
4.58759e-09
4.58781e-09
4.58731e-09
4.58736e-09
4.58714e-09
4.58708e-09
4.58721e-09
4.58705e-09
4.58747e-09
4.58718e-09
4.58788e-09
4.58745e-09
4.58846e-09
4.58792e-09
4.5894e-09
4.58903e-09
4.59122e-09
4.59169e-09
4.59497e-09
4.59826e-09
4.60369e-09
4.61306e-09
4.62321e-09
4.64975e-09
4.67303e-09
4.72692e-09
4.78861e-09
4.8665e-09
4.99832e-09
5.08459e-09
4.14121e-09
4.0651e-09
3.95272e-09
3.8872e-09
3.8364e-09
3.79082e-09
3.77185e-09
3.74961e-09
3.74135e-09
3.73345e-09
3.72898e-09
3.72629e-09
3.72355e-09
3.72318e-09
3.72135e-09
3.72168e-09
3.72043e-09
3.72088e-09
3.72001e-09
3.72036e-09
3.71975e-09
3.71993e-09
3.71951e-09
3.71956e-09
3.71937e-09
3.71933e-09
3.71943e-09
3.7193e-09
3.71965e-09
3.7194e-09
3.71999e-09
3.71961e-09
3.72046e-09
3.71999e-09
3.72123e-09
3.72089e-09
3.72272e-09
3.72307e-09
3.72579e-09
3.72849e-09
3.73294e-09
3.74084e-09
3.74908e-09
3.77138e-09
3.7904e-09
3.83602e-09
3.88689e-09
3.95243e-09
4.06486e-09
4.14104e-09
3.33829e-09
3.27329e-09
3.18077e-09
3.12638e-09
3.08524e-09
3.04742e-09
3.03219e-09
3.01385e-09
3.00726e-09
3.0007e-09
2.99711e-09
2.99492e-09
2.9927e-09
2.99242e-09
2.99091e-09
2.9912e-09
2.99018e-09
2.99056e-09
2.98984e-09
2.99014e-09
2.98963e-09
2.98979e-09
2.98944e-09
2.98948e-09
2.98933e-09
2.98929e-09
2.98938e-09
2.98927e-09
2.98956e-09
2.98935e-09
2.98983e-09
2.98952e-09
2.99021e-09
2.98982e-09
2.99083e-09
2.99054e-09
2.99203e-09
2.9923e-09
2.99451e-09
2.99669e-09
3.00028e-09
3.00683e-09
3.01341e-09
3.03179e-09
3.04707e-09
3.08492e-09
3.12612e-09
3.18053e-09
3.27309e-09
3.33815e-09
2.66812e-09
2.61281e-09
2.53757e-09
2.49276e-09
2.45972e-09
2.42862e-09
2.41651e-09
2.4015e-09
2.3963e-09
2.39091e-09
2.38804e-09
2.38629e-09
2.38449e-09
2.38429e-09
2.38307e-09
2.38331e-09
2.38248e-09
2.3828e-09
2.38222e-09
2.38246e-09
2.38205e-09
2.38218e-09
2.3819e-09
2.38193e-09
2.3818e-09
2.38177e-09
2.38184e-09
2.38175e-09
2.38199e-09
2.38182e-09
2.38221e-09
2.38195e-09
2.38252e-09
2.38219e-09
2.38301e-09
2.38276e-09
2.38397e-09
2.38417e-09
2.38596e-09
2.3877e-09
2.39057e-09
2.39594e-09
2.40114e-09
2.41619e-09
2.42833e-09
2.45946e-09
2.49254e-09
2.53736e-09
2.61264e-09
2.668e-09
2.11282e-09
2.06593e-09
2.00537e-09
1.96888e-09
1.94258e-09
1.91726e-09
1.90774e-09
1.89557e-09
1.8915e-09
1.88713e-09
1.88485e-09
1.88346e-09
1.88203e-09
1.88188e-09
1.8809e-09
1.88111e-09
1.88044e-09
1.8807e-09
1.88023e-09
1.88044e-09
1.8801e-09
1.88021e-09
1.87998e-09
1.88001e-09
1.87991e-09
1.87988e-09
1.87994e-09
1.87986e-09
1.88006e-09
1.87991e-09
1.88023e-09
1.88002e-09
1.88048e-09
1.8802e-09
1.88087e-09
1.88065e-09
1.88163e-09
1.88177e-09
1.8832e-09
1.88457e-09
1.88684e-09
1.89121e-09
1.89527e-09
1.90747e-09
1.91702e-09
1.94237e-09
1.9687e-09
2.0052e-09
2.06578e-09
2.11272e-09
1.65572e-09
1.61688e-09
1.56832e-09
1.53902e-09
1.5183e-09
1.49791e-09
1.49051e-09
1.48075e-09
1.4776e-09
1.47409e-09
1.47231e-09
1.47122e-09
1.47009e-09
1.46999e-09
1.46921e-09
1.46938e-09
1.46885e-09
1.46907e-09
1.46869e-09
1.46886e-09
1.46859e-09
1.46868e-09
1.4685e-09
1.46852e-09
1.46844e-09
1.46842e-09
1.46846e-09
1.4684e-09
1.46856e-09
1.46844e-09
1.4687e-09
1.46852e-09
1.46889e-09
1.46866e-09
1.46919e-09
1.46901e-09
1.46978e-09
1.46989e-09
1.47101e-09
1.47209e-09
1.47387e-09
1.47737e-09
1.48051e-09
1.4903e-09
1.49772e-09
1.51812e-09
1.53888e-09
1.56817e-09
1.61676e-09
1.65565e-09
1.28864e-09
1.2569e-09
1.21825e-09
1.19465e-09
1.17843e-09
1.16205e-09
1.15638e-09
1.14856e-09
1.14616e-09
1.14335e-09
1.14197e-09
1.14112e-09
1.14023e-09
1.14016e-09
1.13954e-09
1.13969e-09
1.13927e-09
1.13945e-09
1.13915e-09
1.13928e-09
1.13907e-09
1.13914e-09
1.139e-09
1.13902e-09
1.13895e-09
1.13893e-09
1.13897e-09
1.13892e-09
1.13905e-09
1.13895e-09
1.13916e-09
1.13901e-09
1.1393e-09
1.13912e-09
1.13954e-09
1.13939e-09
1.14e-09
1.14007e-09
1.14096e-09
1.14179e-09
1.14317e-09
1.14598e-09
1.14837e-09
1.15621e-09
1.1619e-09
1.17829e-09
1.19453e-09
1.21813e-09
1.25679e-09
1.28859e-09
9.91788e-10
9.66194e-10
9.35708e-10
9.16948e-10
9.04403e-10
8.9139e-10
8.87118e-10
8.80919e-10
8.79124e-10
8.76905e-10
8.75843e-10
8.75195e-10
8.74502e-10
8.7446e-10
8.73973e-10
8.74101e-10
8.73764e-10
8.73913e-10
8.73675e-10
8.73789e-10
8.73619e-10
8.73679e-10
8.73563e-10
8.7358e-10
8.73527e-10
8.73514e-10
8.73545e-10
8.73506e-10
8.73604e-10
8.73526e-10
8.73687e-10
8.73569e-10
8.73801e-10
8.73648e-10
8.73983e-10
8.73852e-10
8.74336e-10
8.74374e-10
8.75067e-10
8.75708e-10
8.76764e-10
8.78981e-10
8.80772e-10
8.86985e-10
8.91272e-10
9.0429e-10
9.1685e-10
9.35608e-10
9.66098e-10
9.91759e-10
7.54286e-10
7.3367e-10
7.10073e-10
6.95307e-10
6.85716e-10
6.75307e-10
6.72025e-10
6.67016e-10
6.6565e-10
6.63865e-10
6.63035e-10
6.62523e-10
6.61971e-10
6.61943e-10
6.61552e-10
6.61657e-10
6.61384e-10
6.61504e-10
6.6131e-10
6.61401e-10
6.61262e-10
6.61309e-10
6.61214e-10
6.61226e-10
6.61183e-10
6.61172e-10
6.61197e-10
6.61167e-10
6.61248e-10
6.61187e-10
6.61318e-10
6.61224e-10
6.61413e-10
6.6129e-10
6.61561e-10
6.61454e-10
6.61843e-10
6.61867e-10
6.62418e-10
6.62918e-10
6.63741e-10
6.65527e-10
6.66891e-10
6.7191e-10
6.75204e-10
6.85626e-10
6.95229e-10
7.09992e-10
7.33586e-10
7.5427e-10
5.66189e-10
5.49972e-10
5.31835e-10
5.20378e-10
5.13143e-10
5.05058e-10
5.02647e-10
4.98756e-10
4.9776e-10
4.96379e-10
4.95758e-10
4.95373e-10
4.94952e-10
4.94938e-10
4.94636e-10
4.94723e-10
4.94512e-10
4.94607e-10
4.94457e-10
4.94529e-10
4.94422e-10
4.94459e-10
4.94385e-10
4.94395e-10
4.94362e-10
4.94353e-10
4.94373e-10
4.9435e-10
4.94412e-10
4.94364e-10
4.94466e-10
4.94391e-10
4.94537e-10
4.9444e-10
4.94649e-10
4.94562e-10
4.94861e-10
4.94873e-10
4.95293e-10
4.95668e-10
4.96284e-10
4.97665e-10
4.98659e-10
5.02558e-10
5.04978e-10
5.13073e-10
5.20317e-10
5.31771e-10
5.49902e-10
5.66181e-10
4.19049e-10
4.06644e-10
3.9278e-10
3.84028e-10
3.78649e-10
3.72452e-10
3.70712e-10
3.67726e-10
3.67014e-10
3.6596e-10
3.65502e-10
3.65216e-10
3.64899e-10
3.64894e-10
3.64665e-10
3.64734e-10
3.64573e-10
3.64648e-10
3.64533e-10
3.6459e-10
3.64508e-10
3.64537e-10
3.6448e-10
3.64488e-10
3.64462e-10
3.64456e-10
3.64471e-10
3.64453e-10
3.64501e-10
3.64464e-10
3.64542e-10
3.64483e-10
3.64595e-10
3.64518e-10
3.64679e-10
3.64608e-10
3.64836e-10
3.64839e-10
3.65156e-10
3.65433e-10
3.65888e-10
3.66942e-10
3.67653e-10
3.70644e-10
3.7239e-10
3.78595e-10
3.8398e-10
3.92729e-10
4.06587e-10
4.19044e-10
3.03644e-10
2.94383e-10
2.83985e-10
2.7751e-10
2.73596e-10
2.69003e-10
2.6777e-10
2.65549e-10
2.65052e-10
2.64274e-10
2.63947e-10
2.63742e-10
2.63513e-10
2.63514e-10
2.63346e-10
2.63401e-10
2.63283e-10
2.63341e-10
2.63257e-10
2.633e-10
2.6324e-10
2.63263e-10
2.63221e-10
2.63228e-10
2.63209e-10
2.63204e-10
2.63216e-10
2.63202e-10
2.63237e-10
2.63208e-10
2.63265e-10
2.63221e-10
2.63302e-10
2.63243e-10
2.6336e-10
2.63305e-10
2.63471e-10
2.63469e-10
2.63699e-10
2.63899e-10
2.64224e-10
2.65002e-10
2.65498e-10
2.67723e-10
2.6896e-10
2.73558e-10
2.77477e-10
2.83947e-10
2.94345e-10
3.03641e-10
2.17355e-10
2.10529e-10
2.0285e-10
1.98061e-10
1.95251e-10
1.91853e-10
1.90999e-10
1.8935e-10
1.8901e-10
1.88436e-10
1.88205e-10
1.88057e-10
1.87891e-10
1.87894e-10
1.87771e-10
1.87814e-10
1.87727e-10
1.87771e-10
1.87709e-10
1.87741e-10
1.87697e-10
1.87714e-10
1.87684e-10
1.87689e-10
1.87674e-10
1.87671e-10
1.87679e-10
1.87669e-10
1.87695e-10
1.87674e-10
1.87716e-10
1.87682e-10
1.87743e-10
1.87698e-10
1.87784e-10
1.87741e-10
1.87864e-10
1.87859e-10
1.88026e-10
1.8817e-10
1.884e-10
1.88974e-10
1.89313e-10
1.90965e-10
1.91821e-10
1.95223e-10
1.98036e-10
2.02822e-10
2.10501e-10
2.17352e-10
1.52767e-10
1.47785e-10
1.42271e-10
1.38777e-10
1.368e-10
1.34332e-10
1.33756e-10
1.32552e-10
1.32327e-10
1.31911e-10
1.3175e-10
1.31646e-10
1.31527e-10
1.31531e-10
1.31443e-10
1.31475e-10
1.31412e-10
1.31444e-10
1.314e-10
1.31424e-10
1.31392e-10
1.31404e-10
1.31382e-10
1.31386e-10
1.31375e-10
1.31373e-10
1.31379e-10
1.31372e-10
1.31391e-10
1.31375e-10
1.31406e-10
1.31381e-10
1.31425e-10
1.31391e-10
1.31454e-10
1.31421e-10
1.3151e-10
1.31504e-10
1.31623e-10
1.31725e-10
1.31885e-10
1.32301e-10
1.32526e-10
1.33731e-10
1.34309e-10
1.36779e-10
1.38759e-10
1.42251e-10
1.47765e-10
1.52764e-10
1.05268e-10
1.0169e-10
9.78199e-11
9.53269e-11
9.39655e-11
9.22111e-11
9.18323e-11
9.09719e-11
9.08263e-11
9.0531e-11
9.04214e-11
9.03495e-11
9.02662e-11
9.02709e-11
9.0208e-11
9.02317e-11
9.01868e-11
9.02106e-11
9.01786e-11
9.0196e-11
9.01731e-11
9.01822e-11
9.01664e-11
9.01691e-11
9.01616e-11
9.01599e-11
9.01645e-11
9.01592e-11
9.01729e-11
9.01615e-11
9.01835e-11
9.01654e-11
9.01968e-11
9.01726e-11
9.02172e-11
9.01933e-11
9.02558e-11
9.02507e-11
9.03338e-11
9.0404e-11
9.05129e-11
9.08082e-11
9.09536e-11
9.18151e-11
9.21952e-11
9.39509e-11
9.53138e-11
9.78059e-11
1.01676e-10
1.05265e-10
7.10228e-11
6.84962e-11
6.58518e-11
6.41184e-11
6.32047e-11
6.19866e-11
6.17454e-11
6.11439e-11
6.10532e-11
6.08482e-11
6.07754e-11
6.07265e-11
6.06695e-11
6.06736e-11
6.06299e-11
6.06468e-11
6.06156e-11
6.06323e-11
6.061e-11
6.06222e-11
6.06061e-11
6.06125e-11
6.06014e-11
6.06033e-11
6.0598e-11
6.05969e-11
6.06001e-11
6.05965e-11
6.06062e-11
6.05983e-11
6.06137e-11
6.0601e-11
6.0623e-11
6.06059e-11
6.06371e-11
6.062e-11
6.06634e-11
6.06591e-11
6.0716e-11
6.07636e-11
6.08359e-11
6.10409e-11
6.11315e-11
6.17337e-11
6.19757e-11
6.31946e-11
6.41093e-11
6.58421e-11
6.84868e-11
7.10194e-11
4.68781e-11
4.5096e-11
4.33033e-11
4.21068e-11
4.14985e-11
4.06641e-11
4.05123e-11
4.0098e-11
4.00426e-11
3.99024e-11
3.98549e-11
3.98222e-11
3.97838e-11
3.97871e-11
3.97574e-11
3.97693e-11
3.97479e-11
3.97595e-11
3.97442e-11
3.97526e-11
3.97416e-11
3.9746e-11
3.97383e-11
3.97396e-11
3.9736e-11
3.97352e-11
3.97375e-11
3.97351e-11
3.97417e-11
3.97364e-11
3.9747e-11
3.97383e-11
3.97533e-11
3.97415e-11
3.97628e-11
3.97509e-11
3.97804e-11
3.9777e-11
3.98151e-11
3.98471e-11
3.98942e-11
4.00343e-11
4.00897e-11
4.05044e-11
4.06567e-11
4.14916e-11
4.21005e-11
4.32967e-11
4.50898e-11
4.68753e-11
3.02588e-11
2.90616e-11
2.79034e-11
2.71097e-11
2.67221e-11
2.61717e-11
2.6081e-11
2.58053e-11
2.57732e-11
2.56804e-11
2.56503e-11
2.56288e-11
2.56037e-11
2.56059e-11
2.55862e-11
2.5594e-11
2.55797e-11
2.55873e-11
2.5577e-11
2.55824e-11
2.5575e-11
2.55778e-11
2.55726e-11
2.55734e-11
2.55709e-11
2.55704e-11
2.5572e-11
2.55705e-11
2.55751e-11
2.55717e-11
2.55788e-11
2.55732e-11
2.55833e-11
2.55756e-11
2.55899e-11
2.5582e-11
2.56017e-11
2.55993e-11
2.56244e-11
2.56453e-11
2.56751e-11
2.57679e-11
2.58e-11
2.60759e-11
2.61669e-11
2.67175e-11
2.71055e-11
2.78991e-11
2.90576e-11
3.02565e-11
1.91365e-11
1.83703e-11
1.76382e-11
1.71274e-11
1.6888e-11
1.65354e-11
1.64833e-11
1.63048e-11
1.62869e-11
1.6227e-11
1.62083e-11
1.61943e-11
1.61782e-11
1.61795e-11
1.61666e-11
1.61714e-11
1.6162e-11
1.61666e-11
1.61598e-11
1.61631e-11
1.61582e-11
1.61598e-11
1.61564e-11
1.61568e-11
1.61551e-11
1.61548e-11
1.6156e-11
1.61551e-11
1.61582e-11
1.61562e-11
1.6161e-11
1.61576e-11
1.61643e-11
1.61595e-11
1.61689e-11
1.61641e-11
1.61769e-11
1.61756e-11
1.61917e-11
1.62053e-11
1.62238e-11
1.62837e-11
1.63016e-11
1.64801e-11
1.65324e-11
1.68851e-11
1.71247e-11
1.76353e-11
1.83676e-11
1.91348e-11
1.18981e-11
1.14187e-11
1.09683e-11
1.06491e-11
1.05045e-11
1.02857e-11
1.02559e-11
1.01439e-11
1.01338e-11
1.0096e-11
1.00845e-11
1.00754e-11
1.00651e-11
1.00656e-11
1.00573e-11
1.00599e-11
1.00538e-11
1.00564e-11
1.00519e-11
1.00537e-11
1.00504e-11
1.00513e-11
1.0049e-11
1.00491e-11
1.0048e-11
1.00479e-11
1.00487e-11
1.00483e-11
1.00504e-11
1.00493e-11
1.00525e-11
1.00506e-11
1.00551e-11
1.00524e-11
1.00586e-11
1.00559e-11
1.00642e-11
1.00637e-11
1.00739e-11
1.00827e-11
1.00942e-11
1.01319e-11
1.0142e-11
1.0254e-11
1.02839e-11
1.05027e-11
1.06475e-11
1.09665e-11
1.14169e-11
1.18969e-11
7.37416e-12
7.08404e-12
6.8167e-12
6.62366e-12
6.53921e-12
6.40718e-12
6.39072e-12
6.32215e-12
6.31644e-12
6.29305e-12
6.28584e-12
6.27986e-12
6.27329e-12
6.27313e-12
6.26769e-12
6.26892e-12
6.26485e-12
6.2661e-12
6.26309e-12
6.26389e-12
6.26168e-12
6.26198e-12
6.26043e-12
6.26037e-12
6.25963e-12
6.25955e-12
6.26013e-12
6.26007e-12
6.26152e-12
6.26113e-12
6.2633e-12
6.26245e-12
6.26543e-12
6.26416e-12
6.26824e-12
6.267e-12
6.27241e-12
6.27256e-12
6.27909e-12
6.28493e-12
6.29204e-12
6.31539e-12
6.32108e-12
6.38964e-12
6.4061e-12
6.53814e-12
6.62262e-12
6.81562e-12
7.08263e-12
7.37333e-12
4.6284e-12
4.45608e-12
4.30249e-12
4.18872e-12
4.14047e-12
4.06279e-12
4.05358e-12
4.01247e-12
4.00895e-12
3.99454e-12
3.98984e-12
3.98571e-12
3.98137e-12
3.98076e-12
3.97709e-12
3.97736e-12
3.97456e-12
3.97491e-12
3.97281e-12
3.97297e-12
3.9714e-12
3.97134e-12
3.97024e-12
3.97005e-12
3.96953e-12
3.9695e-12
3.96996e-12
3.97009e-12
3.97116e-12
3.97118e-12
3.97273e-12
3.97255e-12
3.97465e-12
3.97429e-12
3.97709e-12
3.97682e-12
3.98047e-12
3.98108e-12
3.9854e-12
3.98943e-12
3.99406e-12
4.00844e-12
4.01193e-12
4.05302e-12
4.0622e-12
4.13986e-12
4.18808e-12
4.30171e-12
4.45505e-12
4.62778e-12
3.01622e-12
2.91638e-12
2.82964e-12
2.76373e-12
2.73647e-12
2.69167e-12
2.68619e-12
2.66183e-12
2.6593e-12
2.65031e-12
2.64699e-12
2.64395e-12
2.64089e-12
2.63995e-12
2.63731e-12
2.63696e-12
2.63489e-12
2.63467e-12
2.63309e-12
2.63284e-12
2.63164e-12
2.63135e-12
2.6305e-12
2.63023e-12
2.62984e-12
2.62983e-12
2.63022e-12
2.63049e-12
2.63133e-12
2.63162e-12
2.63282e-12
2.63307e-12
2.63465e-12
2.63488e-12
2.63694e-12
2.6373e-12
2.63993e-12
2.64086e-12
2.64391e-12
2.6469e-12
2.65017e-12
2.65914e-12
2.66164e-12
2.68596e-12
2.69139e-12
2.73615e-12
2.7633e-12
2.82905e-12
2.91559e-12
3.01566e-12
2.10174e-12
2.04535e-12
1.99616e-12
1.95783e-12
1.94066e-12
1.91374e-12
1.9094e-12
1.89447e-12
1.89203e-12
1.88601e-12
1.8833e-12
1.88068e-12
1.87829e-12
1.87711e-12
1.87503e-12
1.87427e-12
1.87261e-12
1.87203e-12
1.87072e-12
1.87021e-12
1.86921e-12
1.86876e-12
1.86805e-12
1.86772e-12
1.86739e-12
1.86741e-12
1.86776e-12
1.86812e-12
1.86884e-12
1.86931e-12
1.87032e-12
1.87084e-12
1.87215e-12
1.87274e-12
1.87441e-12
1.87516e-12
1.87724e-12
1.87842e-12
1.88078e-12
1.88332e-12
1.88596e-12
1.89192e-12
1.8943e-12
1.90915e-12
1.91342e-12
1.94025e-12
1.95741e-12
1.99566e-12
2.04471e-12
2.10118e-12
1.60359e-12
1.57136e-12
1.54292e-12
1.52028e-12
1.5095e-12
1.49336e-12
1.48983e-12
1.48046e-12
1.47809e-12
1.47379e-12
1.47141e-12
1.46911e-12
1.46705e-12
1.4657e-12
1.46388e-12
1.46287e-12
1.4614e-12
1.46058e-12
1.45941e-12
1.45872e-12
1.45782e-12
1.45727e-12
1.45662e-12
1.45624e-12
1.45594e-12
1.45597e-12
1.45631e-12
1.45673e-12
1.45741e-12
1.45798e-12
1.45891e-12
1.4596e-12
1.46079e-12
1.46161e-12
1.46309e-12
1.4641e-12
1.46591e-12
1.46726e-12
1.4693e-12
1.47155e-12
1.47388e-12
1.47811e-12
1.48043e-12
1.48971e-12
1.49317e-12
1.50921e-12
1.51992e-12
1.54246e-12
1.57079e-12
1.60301e-12
1.34615e-12
1.32674e-12
1.30928e-12
1.29516e-12
1.28761e-12
1.27718e-12
1.2739e-12
1.26749e-12
1.26503e-12
1.26162e-12
1.25934e-12
1.25715e-12
1.25522e-12
1.25373e-12
1.25202e-12
1.25084e-12
1.24944e-12
1.24847e-12
1.24734e-12
1.24654e-12
1.24567e-12
1.24505e-12
1.24442e-12
1.24401e-12
1.24372e-12
1.24376e-12
1.2441e-12
1.24456e-12
1.24522e-12
1.24587e-12
1.24678e-12
1.24758e-12
1.24873e-12
1.2497e-12
1.25111e-12
1.25229e-12
1.254e-12
1.25548e-12
1.25739e-12
1.25953e-12
1.26176e-12
1.26512e-12
1.26751e-12
1.27385e-12
1.27704e-12
1.28737e-12
1.29482e-12
1.30885e-12
1.32618e-12
1.34553e-12
1.22411e-12
1.21127e-12
1.19924e-12
1.18944e-12
1.18342e-12
1.17582e-12
1.17257e-12
1.16761e-12
1.16504e-12
1.16202e-12
1.15973e-12
1.15758e-12
1.15565e-12
1.15406e-12
1.15237e-12
1.15106e-12
1.14967e-12
1.14859e-12
1.14746e-12
1.14659e-12
1.14571e-12
1.14504e-12
1.14441e-12
1.14397e-12
1.14368e-12
1.14372e-12
1.14407e-12
1.14456e-12
1.14523e-12
1.14594e-12
1.14685e-12
1.14774e-12
1.14888e-12
1.14996e-12
1.15136e-12
1.15267e-12
1.15435e-12
1.15594e-12
1.15784e-12
1.15996e-12
1.1622e-12
1.16516e-12
1.16766e-12
1.17254e-12
1.1757e-12
1.1832e-12
1.18911e-12
1.1988e-12
1.21071e-12
1.22346e-12
1.17757e-12
1.16781e-12
1.15829e-12
1.15051e-12
1.14513e-12
1.13884e-12
1.13553e-12
1.13121e-12
1.12851e-12
1.12564e-12
1.12328e-12
1.12111e-12
1.11913e-12
1.11744e-12
1.11572e-12
1.11432e-12
1.1129e-12
1.11175e-12
1.11059e-12
1.10966e-12
1.10875e-12
1.10804e-12
1.10739e-12
1.10693e-12
1.10663e-12
1.10667e-12
1.10704e-12
1.10756e-12
1.10825e-12
1.109e-12
1.10993e-12
1.11088e-12
1.11205e-12
1.11321e-12
1.11464e-12
1.11604e-12
1.11775e-12
1.11943e-12
1.12138e-12
1.12352e-12
1.12582e-12
1.12864e-12
1.13126e-12
1.1355e-12
1.13872e-12
1.1449e-12
1.15017e-12
1.15782e-12
1.16722e-12
1.17687e-12
1.17589e-12
1.16748e-12
1.15902e-12
1.15211e-12
1.14694e-12
1.1412e-12
1.13777e-12
1.13368e-12
1.13085e-12
1.12798e-12
1.12553e-12
1.12329e-12
1.12123e-12
1.11945e-12
1.11766e-12
1.11618e-12
1.1147e-12
1.11347e-12
1.11227e-12
1.11128e-12
1.11034e-12
1.10959e-12
1.10892e-12
1.10843e-12
1.10812e-12
1.10817e-12
1.10855e-12
1.10909e-12
1.10981e-12
1.1106e-12
1.11157e-12
1.11258e-12
1.11379e-12
1.11502e-12
1.11651e-12
1.11799e-12
1.11977e-12
1.12154e-12
1.12357e-12
1.12577e-12
1.12817e-12
1.13098e-12
1.13373e-12
1.13773e-12
1.14107e-12
1.1467e-12
1.15175e-12
1.15852e-12
1.16685e-12
1.17514e-12
1.20818e-12
1.20033e-12
1.19228e-12
1.18574e-12
1.18053e-12
1.17502e-12
1.17138e-12
1.16734e-12
1.16434e-12
1.16138e-12
1.1588e-12
1.15646e-12
1.15428e-12
1.15238e-12
1.1505e-12
1.14891e-12
1.14735e-12
1.14604e-12
1.14477e-12
1.14372e-12
1.14273e-12
1.14193e-12
1.14122e-12
1.1407e-12
1.14038e-12
1.14042e-12
1.14083e-12
1.1414e-12
1.14216e-12
1.143e-12
1.14402e-12
1.14509e-12
1.14638e-12
1.14769e-12
1.14925e-12
1.15083e-12
1.1527e-12
1.15459e-12
1.15674e-12
1.15904e-12
1.16157e-12
1.16447e-12
1.16739e-12
1.17134e-12
1.17487e-12
1.18026e-12
1.18535e-12
1.19174e-12
1.19965e-12
1.20736e-12
1.27858e-12
1.27098e-12
1.26304e-12
1.25668e-12
1.25123e-12
1.24581e-12
1.24185e-12
1.23776e-12
1.23449e-12
1.23138e-12
1.22859e-12
1.22609e-12
1.22373e-12
1.22167e-12
1.21965e-12
1.21792e-12
1.21624e-12
1.21482e-12
1.21345e-12
1.21231e-12
1.21124e-12
1.21037e-12
1.20961e-12
1.20905e-12
1.2087e-12
1.20875e-12
1.20918e-12
1.20981e-12
1.21062e-12
1.21153e-12
1.21262e-12
1.21379e-12
1.21517e-12
1.2166e-12
1.21828e-12
1.22e-12
1.22201e-12
1.22406e-12
1.22638e-12
1.22884e-12
1.23157e-12
1.23461e-12
1.23779e-12
1.24179e-12
1.24564e-12
1.25093e-12
1.25624e-12
1.26245e-12
1.27023e-12
1.27767e-12
1.41221e-12
1.40477e-12
1.39674e-12
1.39053e-12
1.38458e-12
1.3792e-12
1.37464e-12
1.37044e-12
1.36672e-12
1.36335e-12
1.36023e-12
1.35745e-12
1.35482e-12
1.35249e-12
1.35024e-12
1.34829e-12
1.34641e-12
1.34481e-12
1.34328e-12
1.34199e-12
1.3408e-12
1.33982e-12
1.33898e-12
1.33835e-12
1.33796e-12
1.33802e-12
1.3385e-12
1.3392e-12
1.3401e-12
1.34112e-12
1.34234e-12
1.34365e-12
1.34519e-12
1.3468e-12
1.34867e-12
1.35062e-12
1.35285e-12
1.35516e-12
1.35776e-12
1.36049e-12
1.36355e-12
1.36684e-12
1.37047e-12
1.37456e-12
1.37899e-12
1.38423e-12
1.39002e-12
1.39606e-12
1.40391e-12
1.41117e-12
1.69228e-12
1.68502e-12
1.67653e-12
1.67056e-12
1.66348e-12
1.65808e-12
1.65231e-12
1.64789e-12
1.64325e-12
1.63938e-12
1.63558e-12
1.63227e-12
1.6291e-12
1.62626e-12
1.62356e-12
1.62119e-12
1.61893e-12
1.61697e-12
1.61514e-12
1.61357e-12
1.61214e-12
1.61096e-12
1.60994e-12
1.60919e-12
1.60872e-12
1.60879e-12
1.60936e-12
1.61021e-12
1.61129e-12
1.61252e-12
1.61399e-12
1.61558e-12
1.61742e-12
1.61939e-12
1.62164e-12
1.624e-12
1.62668e-12
1.62949e-12
1.63262e-12
1.63588e-12
1.6396e-12
1.64337e-12
1.6479e-12
1.65219e-12
1.6578e-12
1.66304e-12
1.66992e-12
1.67569e-12
1.68396e-12
1.691e-12
2.36358e-12
2.35566e-12
2.34511e-12
2.3388e-12
2.32893e-12
2.32278e-12
2.31429e-12
2.309e-12
2.30226e-12
2.29714e-12
2.29177e-12
2.28722e-12
2.28278e-12
2.27878e-12
2.27504e-12
2.2717e-12
2.26855e-12
2.2658e-12
2.26324e-12
2.26104e-12
2.25904e-12
2.25738e-12
2.25597e-12
2.25491e-12
2.25425e-12
2.25436e-12
2.25516e-12
2.25633e-12
2.25784e-12
2.25956e-12
2.2616e-12
2.26384e-12
2.26641e-12
2.26917e-12
2.2723e-12
2.27562e-12
2.27935e-12
2.28329e-12
2.28767e-12
2.29215e-12
2.29741e-12
2.3024e-12
2.30898e-12
2.31409e-12
2.32237e-12
2.32827e-12
2.33788e-12
2.3439e-12
2.35414e-12
2.36175e-12
3.93223e-12
3.91841e-12
3.9002e-12
3.88931e-12
3.87275e-12
3.8624e-12
3.84831e-12
3.83938e-12
3.82826e-12
3.81976e-12
3.81087e-12
3.80333e-12
3.79594e-12
3.78941e-12
3.78315e-12
3.77763e-12
3.77241e-12
3.76785e-12
3.76361e-12
3.75997e-12
3.75665e-12
3.75391e-12
3.75156e-12
3.74981e-12
3.74872e-12
3.74889e-12
3.75021e-12
3.75215e-12
3.75464e-12
3.75749e-12
3.76087e-12
3.76455e-12
3.76882e-12
3.77337e-12
3.77857e-12
3.78405e-12
3.79026e-12
3.79672e-12
3.80401e-12
3.81142e-12
3.82012e-12
3.82841e-12
3.83927e-12
3.84789e-12
3.86163e-12
3.87158e-12
3.88771e-12
3.89812e-12
3.91581e-12
3.9291e-12
)
;

boundaryField
{
    fuel
    {
        type            fixedValue;
        value           nonuniform 0();
    }
    wall
    {
        type            zeroGradient;
    }
    outlet
    {
        type            zeroGradient;
    }
    frontAndBack
    {
        type            empty;
    }
    procBoundary3to2
    {
        type            processor;
        value           nonuniform List<scalar> 
51
(
1.36808e-08
1.36719e-08
1.367e-08
1.36644e-08
1.36649e-08
1.36613e-08
1.36623e-08
1.36597e-08
1.36606e-08
1.36588e-08
1.36592e-08
1.3658e-08
1.36581e-08
1.36576e-08
1.36574e-08
1.36577e-08
1.36573e-08
1.36584e-08
1.36577e-08
1.36594e-08
1.36585e-08
1.3661e-08
1.36599e-08
1.36635e-08
1.3663e-08
1.36686e-08
1.36704e-08
1.36792e-08
1.36884e-08
1.37039e-08
1.37255e-08
1.37566e-08
1.38223e-08
1.38904e-08
1.40221e-08
1.41819e-08
1.43699e-08
1.47062e-08
1.48977e-08
1.26398e-08
1.24677e-08
1.21922e-08
1.20269e-08
1.18878e-08
1.17727e-08
1.17147e-08
1.16574e-08
1.16312e-08
1.1612e-08
1.15987e-08
1.15987e-08
)
;
    }
}


// ************************************************************************* //
