/*--------------------------------*- C++ -*----------------------------------*\
| =========                 |                                                 |
| \\      /  F ield         | OpenFOAM: The Open Source CFD Toolbox           |
|  \\    /   O peration     | Version:  dev                                   |
|   \\  /    A nd           | Web:      www.OpenFOAM.org                      |
|    \\/     M anipulation  |                                                 |
\*---------------------------------------------------------------------------*/
FoamFile
{
    version     2.0;
    format      ascii;
    class       volScalarField;
    location    "0.035";
    object      CH2(S);
}
// * * * * * * * * * * * * * * * * * * * * * * * * * * * * * * * * * * * * * //

dimensions      [0 0 0 0 0 0 0];

internalField   nonuniform List<scalar> 
250
(
2.21808e-06
2.21653e-06
2.21863e-06
2.21737e-06
2.21843e-06
2.21783e-06
2.21723e-06
2.2162e-06
2.19878e-06
2.04893e-06
9.96127e-10
1.31499e-06
1.31466e-06
1.31536e-06
1.31474e-06
1.31519e-06
1.31546e-06
1.3147e-06
1.31392e-06
1.30139e-06
1.21592e-06
7.122e-10
6.60833e-07
6.60729e-07
6.60987e-07
6.60689e-07
6.60985e-07
6.60852e-07
6.60668e-07
6.59853e-07
6.49862e-07
5.94173e-07
3.34026e-10
3.33143e-07
3.3309e-07
3.33242e-07
3.33043e-07
3.33256e-07
3.33082e-07
3.32992e-07
3.32242e-07
3.23791e-07
2.8822e-07
1.60813e-10
1.84805e-07
1.84773e-07
1.84868e-07
1.84732e-07
1.84878e-07
1.84735e-07
1.846e-07
1.83664e-07
1.75998e-07
1.51027e-07
9.25216e-11
1.14364e-07
1.1433e-07
1.14418e-07
1.14301e-07
1.14422e-07
1.1433e-07
1.14221e-07
1.14196e-07
1.08752e-07
8.79439e-08
6.56914e-11
8.26341e-08
8.26099e-08
8.26699e-08
8.25863e-08
8.26708e-08
8.25961e-08
8.22876e-08
8.20918e-08
7.66897e-08
5.66978e-08
5.6511e-11
6.5812e-08
6.57893e-08
6.58474e-08
6.57714e-08
6.58491e-08
6.58108e-08
6.6012e-08
6.58056e-08
5.94863e-08
3.97951e-08
5.81686e-11
5.71047e-08
5.70865e-08
5.71341e-08
5.70706e-08
5.71347e-08
5.71037e-08
5.71645e-08
5.64935e-08
5.04856e-08
2.9895e-08
8.32406e-11
5.13574e-08
5.13433e-08
5.13821e-08
5.13297e-08
5.13828e-08
5.1359e-08
5.13496e-08
5.06757e-08
4.46677e-08
2.37215e-08
2.00169e-10
4.80786e-08
4.81143e-08
4.80657e-08
4.81149e-08
4.80958e-08
4.80505e-08
4.73724e-08
4.07859e-08
1.97092e-08
5.15876e-10
4.54931e-08
4.55261e-08
4.54808e-08
4.55274e-08
4.55134e-08
4.54536e-08
4.48433e-08
3.83866e-08
1.70497e-08
9.70812e-10
4.3471e-08
4.3503e-08
4.3459e-08
4.35052e-08
4.34961e-08
4.34247e-08
4.28273e-08
3.645e-08
1.52895e-08
1.33882e-09
4.17369e-08
4.17688e-08
4.1725e-08
4.17724e-08
4.17685e-08
4.16914e-08
4.1125e-08
3.48478e-08
1.413e-08
1.57501e-09
4.01408e-08
4.01736e-08
4.0129e-08
4.0179e-08
4.01806e-08
4.01013e-08
3.95841e-08
3.34967e-08
1.33335e-08
1.74164e-09
3.85978e-08
3.86322e-08
3.8586e-08
3.86399e-08
3.86473e-08
3.85685e-08
3.81171e-08
3.22983e-08
1.29832e-08
1.87397e-09
3.70567e-08
3.70932e-08
3.7045e-08
3.71037e-08
3.71173e-08
3.70409e-08
3.66697e-08
3.11852e-08
1.28859e-08
1.98816e-09
3.54838e-08
3.55231e-08
3.54725e-08
3.5537e-08
3.5557e-08
3.54834e-08
3.52056e-08
3.01075e-08
1.29755e-08
2.10584e-09
3.38549e-08
3.38977e-08
3.38442e-08
3.39153e-08
3.39418e-08
3.38694e-08
3.36975e-08
2.90247e-08
1.31952e-08
2.25579e-09
3.21508e-08
3.21974e-08
3.21397e-08
3.22193e-08
3.22523e-08
3.21754e-08
3.21226e-08
2.79019e-08
1.3491e-08
2.46819e-09
3.03544e-08
3.04054e-08
3.03363e-08
3.04321e-08
3.04714e-08
3.03776e-08
3.04605e-08
2.67077e-08
1.38095e-08
2.76873e-09
2.84501e-08
2.85058e-08
2.83919e-08
2.85378e-08
2.8583e-08
2.84507e-08
2.86923e-08
2.5414e-08
1.40975e-08
3.1726e-09
2.64194e-08
2.64805e-08
2.64705e-08
2.6519e-08
2.65689e-08
2.66078e-08
2.67983e-08
2.39956e-08
1.43037e-08
3.67923e-09
2.44886e-08
2.45555e-08
2.45078e-08
2.45996e-08
2.46547e-08
2.46628e-08
2.50077e-08
2.24298e-08
1.43862e-08
4.27219e-09
)
;

boundaryField
{
    fuel
    {
        type            fixedValue;
        value           uniform 0;
    }
    wall
    {
        type            zeroGradient;
    }
    outlet
    {
        type            zeroGradient;
    }
    frontAndBack
    {
        type            empty;
    }
    procBoundary3to0
    {
        type            processor;
        value           nonuniform List<scalar> 10(2.24647e-08 2.25379e-08 2.24797e-08 2.25881e-08 2.26477e-08 2.26397e-08 2.29667e-08 2.08805e-08 1.42924e-08 4.9028e-09);
    }
    procBoundary3to2
    {
        type            processor;
        value           nonuniform List<scalar> 
25
(
2.21655e-06
1.31491e-06
6.60868e-07
3.33202e-07
1.8485e-07
1.14401e-07
8.26597e-08
6.58378e-08
5.71289e-08
5.13814e-08
4.80904e-08
4.80904e-08
4.55013e-08
4.34762e-08
4.17392e-08
4.01404e-08
3.85946e-08
3.70506e-08
3.54749e-08
3.38432e-08
3.21357e-08
3.03325e-08
2.8396e-08
2.64299e-08
2.4471e-08
)
;
    }
}


// ************************************************************************* //
