/*--------------------------------*- C++ -*----------------------------------*\
| =========                 |                                                 |
| \\      /  F ield         | OpenFOAM: The Open Source CFD Toolbox           |
|  \\    /   O peration     | Version:  dev                                   |
|   \\  /    A nd           | Web:      www.OpenFOAM.org                      |
|    \\/     M anipulation  |                                                 |
\*---------------------------------------------------------------------------*/
FoamFile
{
    version     2.0;
    format      ascii;
    class       volScalarField;
    location    "0.035";
    object      CH2(S);
}
// * * * * * * * * * * * * * * * * * * * * * * * * * * * * * * * * * * * * * //

dimensions      [0 0 0 0 0 0 0];

internalField   nonuniform List<scalar> 
1989
(
3.19877e-10
3.19641e-10
3.19596e-10
3.19446e-10
3.19464e-10
3.19365e-10
3.19397e-10
3.19329e-10
3.19354e-10
3.19306e-10
3.1932e-10
3.19288e-10
3.19291e-10
3.19277e-10
3.19273e-10
3.1928e-10
3.1927e-10
3.19297e-10
3.19278e-10
3.19323e-10
3.19295e-10
3.19361e-10
3.19328e-10
3.19426e-10
3.19408e-10
3.19557e-10
3.19601e-10
3.19835e-10
3.2008e-10
3.20491e-10
3.21087e-10
3.2191e-10
3.23707e-10
3.25535e-10
3.29153e-10
3.33543e-10
3.38752e-10
3.47481e-10
3.52916e-10
2.91406e-10
2.86696e-10
2.79249e-10
2.74803e-10
2.71085e-10
2.68021e-10
2.66512e-10
2.64991e-10
2.64316e-10
2.63803e-10
2.63461e-10
2.63263e-10
2.63066e-10
2.63029e-10
2.62903e-10
2.6292e-10
2.62836e-10
2.62864e-10
2.62806e-10
2.62828e-10
2.62788e-10
2.628e-10
2.62772e-10
2.62775e-10
2.62763e-10
2.62759e-10
2.62766e-10
2.62757e-10
2.6278e-10
2.62764e-10
2.62802e-10
2.62778e-10
2.62834e-10
2.62805e-10
2.62888e-10
2.62871e-10
2.62997e-10
2.63032e-10
2.63228e-10
2.63432e-10
2.63772e-10
2.64286e-10
2.6496e-10
2.66485e-10
2.67997e-10
2.71063e-10
2.74788e-10
2.79235e-10
2.86688e-10
2.91398e-10
2.38946e-10
2.34891e-10
2.28579e-10
2.24823e-10
2.21679e-10
2.1911e-10
2.17872e-10
2.16592e-10
2.16042e-10
2.15604e-10
2.15323e-10
2.15158e-10
2.14994e-10
2.14965e-10
2.14859e-10
2.14875e-10
2.14805e-10
2.14829e-10
2.1478e-10
2.14799e-10
2.14765e-10
2.14775e-10
2.14752e-10
2.14755e-10
2.14744e-10
2.14741e-10
2.14747e-10
2.14739e-10
2.14759e-10
2.14745e-10
2.14777e-10
2.14757e-10
2.14804e-10
2.14779e-10
2.14848e-10
2.14833e-10
2.14938e-10
2.14966e-10
2.15129e-10
2.15297e-10
2.15577e-10
2.16015e-10
2.16565e-10
2.17849e-10
2.19089e-10
2.2166e-10
2.24809e-10
2.28567e-10
2.34883e-10
2.38939e-10
1.94527e-10
1.91058e-10
1.85747e-10
1.82592e-10
1.79981e-10
1.7783e-10
1.76824e-10
1.75753e-10
1.75309e-10
1.74938e-10
1.74709e-10
1.74573e-10
1.74437e-10
1.74416e-10
1.74327e-10
1.74341e-10
1.74282e-10
1.74303e-10
1.74263e-10
1.74279e-10
1.7425e-10
1.74259e-10
1.7424e-10
1.74242e-10
1.74234e-10
1.74231e-10
1.74236e-10
1.74229e-10
1.74246e-10
1.74234e-10
1.74261e-10
1.74243e-10
1.74283e-10
1.74261e-10
1.74319e-10
1.74305e-10
1.74393e-10
1.74414e-10
1.74549e-10
1.74686e-10
1.74916e-10
1.75286e-10
1.75729e-10
1.76803e-10
1.77812e-10
1.79965e-10
1.82579e-10
1.85736e-10
1.9105e-10
1.9452e-10
1.57113e-10
1.54244e-10
1.49804e-10
1.47178e-10
1.45044e-10
1.43247e-10
1.42437e-10
1.41548e-10
1.41193e-10
1.40882e-10
1.40696e-10
1.40585e-10
1.40474e-10
1.40457e-10
1.40384e-10
1.40397e-10
1.40348e-10
1.40366e-10
1.40332e-10
1.40346e-10
1.40322e-10
1.4033e-10
1.40314e-10
1.40316e-10
1.40309e-10
1.40307e-10
1.40311e-10
1.40305e-10
1.40319e-10
1.40309e-10
1.40331e-10
1.40316e-10
1.40349e-10
1.4033e-10
1.40379e-10
1.40366e-10
1.40439e-10
1.40455e-10
1.40565e-10
1.40677e-10
1.40863e-10
1.41173e-10
1.41528e-10
1.42419e-10
1.43231e-10
1.4503e-10
1.47167e-10
1.49794e-10
1.54236e-10
1.57108e-10
1.25976e-10
1.2357e-10
1.19886e-10
1.17718e-10
1.15999e-10
1.14505e-10
1.13859e-10
1.13127e-10
1.12845e-10
1.12587e-10
1.12437e-10
1.12348e-10
1.12257e-10
1.12245e-10
1.12185e-10
1.12196e-10
1.12156e-10
1.12171e-10
1.12143e-10
1.12155e-10
1.12136e-10
1.12142e-10
1.12129e-10
1.12131e-10
1.12125e-10
1.12123e-10
1.12126e-10
1.12122e-10
1.12133e-10
1.12124e-10
1.12143e-10
1.1213e-10
1.12158e-10
1.12142e-10
1.12182e-10
1.1217e-10
1.1223e-10
1.12241e-10
1.12331e-10
1.12421e-10
1.1257e-10
1.12828e-10
1.13109e-10
1.13844e-10
1.14492e-10
1.15987e-10
1.17708e-10
1.19878e-10
1.23564e-10
1.25972e-10
9.99443e-11
9.7877e-11
9.48177e-11
9.30423e-11
9.16627e-11
9.04322e-11
8.99186e-11
8.93194e-11
8.90968e-11
8.88851e-11
8.87656e-11
8.86941e-11
8.86214e-11
8.86124e-11
8.85639e-11
8.85738e-11
8.85412e-11
8.85542e-11
8.85314e-11
8.85416e-11
8.85255e-11
8.8531e-11
8.852e-11
8.85217e-11
8.85167e-11
8.85154e-11
8.85181e-11
8.85143e-11
8.85234e-11
8.85163e-11
8.85315e-11
8.85207e-11
8.85429e-11
8.85294e-11
8.85618e-11
8.85518e-11
8.86e-11
8.86085e-11
8.86809e-11
8.87526e-11
8.88717e-11
8.90831e-11
8.93053e-11
8.99061e-11
9.04211e-11
9.16529e-11
9.30341e-11
9.48102e-11
9.78709e-11
9.99398e-11
7.83981e-11
7.66816e-11
7.42317e-11
7.27986e-11
7.17122e-11
7.07195e-11
7.03185e-11
6.98382e-11
6.96654e-11
6.94949e-11
6.94012e-11
6.93449e-11
6.92874e-11
6.9281e-11
6.92424e-11
6.92508e-11
6.92247e-11
6.92354e-11
6.92173e-11
6.92256e-11
6.92127e-11
6.92173e-11
6.92085e-11
6.92098e-11
6.92059e-11
6.92048e-11
6.9207e-11
6.92039e-11
6.92112e-11
6.92054e-11
6.92175e-11
6.92087e-11
6.92264e-11
6.92154e-11
6.92412e-11
6.92327e-11
6.9271e-11
6.92772e-11
6.93343e-11
6.93906e-11
6.9484e-11
6.96543e-11
6.98267e-11
7.03083e-11
7.07105e-11
7.17041e-11
7.27919e-11
7.42254e-11
7.66765e-11
7.83944e-11
6.09222e-11
5.95029e-11
5.75668e-11
5.64198e-11
5.55721e-11
5.4779e-11
5.44694e-11
5.40877e-11
5.39551e-11
5.3819e-11
5.37463e-11
5.37026e-11
5.36576e-11
5.3653e-11
5.36226e-11
5.36296e-11
5.36091e-11
5.36178e-11
5.36034e-11
5.36102e-11
5.36e-11
5.36037e-11
5.35967e-11
5.35978e-11
5.35947e-11
5.35939e-11
5.35956e-11
5.35931e-11
5.35989e-11
5.35942e-11
5.36038e-11
5.35967e-11
5.36107e-11
5.36017e-11
5.36221e-11
5.3615e-11
5.36451e-11
5.36494e-11
5.36942e-11
5.37378e-11
5.38103e-11
5.39462e-11
5.40785e-11
5.44612e-11
5.47717e-11
5.55655e-11
5.64143e-11
5.75616e-11
5.94987e-11
6.09192e-11
4.68624e-11
4.56939e-11
4.41813e-11
4.32748e-11
4.26198e-11
4.1993e-11
4.17568e-11
4.14564e-11
4.13558e-11
4.12486e-11
4.11927e-11
4.11591e-11
4.11242e-11
4.11211e-11
4.10975e-11
4.11033e-11
4.10872e-11
4.10942e-11
4.1083e-11
4.10884e-11
4.10805e-11
4.10834e-11
4.1078e-11
4.10789e-11
4.10764e-11
4.10757e-11
4.10771e-11
4.10751e-11
4.10797e-11
4.10759e-11
4.10834e-11
4.10777e-11
4.10886e-11
4.10814e-11
4.10973e-11
4.10915e-11
4.1115e-11
4.11179e-11
4.11526e-11
4.1186e-11
4.12416e-11
4.13488e-11
4.14491e-11
4.17503e-11
4.19872e-11
4.26146e-11
4.32703e-11
4.4177e-11
4.56904e-11
4.686e-11
3.56351e-11
3.46959e-11
3.35197e-11
3.2814e-11
3.23135e-11
3.18244e-11
3.16462e-11
3.14127e-11
3.13374e-11
3.12539e-11
3.12115e-11
3.1186e-11
3.11594e-11
3.11573e-11
3.11391e-11
3.11438e-11
3.11315e-11
3.11371e-11
3.11284e-11
3.11327e-11
3.11266e-11
3.11289e-11
3.11247e-11
3.11254e-11
3.11235e-11
3.1123e-11
3.1124e-11
3.11225e-11
3.1126e-11
3.1123e-11
3.11288e-11
3.11243e-11
3.11327e-11
3.1127e-11
3.11393e-11
3.11345e-11
3.11525e-11
3.11545e-11
3.1181e-11
3.12063e-11
3.12485e-11
3.13319e-11
3.1407e-11
3.16412e-11
3.18198e-11
3.23093e-11
3.28105e-11
3.35162e-11
3.4693e-11
3.56334e-11
2.68955e-11
2.61511e-11
2.52438e-11
2.4693e-11
2.43136e-11
2.39326e-11
2.38004e-11
2.36191e-11
2.35635e-11
2.34988e-11
2.34669e-11
2.34477e-11
2.34274e-11
2.34262e-11
2.34122e-11
2.34161e-11
2.34065e-11
2.3411e-11
2.34043e-11
2.34078e-11
2.3403e-11
2.34049e-11
2.34016e-11
2.34022e-11
2.34007e-11
2.34003e-11
2.34011e-11
2.33999e-11
2.34027e-11
2.34003e-11
2.34048e-11
2.34012e-11
2.34077e-11
2.34031e-11
2.34126e-11
2.34086e-11
2.34225e-11
2.34236e-11
2.34439e-11
2.34629e-11
2.34946e-11
2.35593e-11
2.36147e-11
2.37965e-11
2.39291e-11
2.43103e-11
2.46902e-11
2.5241e-11
2.61486e-11
2.68944e-11
2.00503e-11
1.94689e-11
1.8776e-11
1.83521e-11
1.80679e-11
1.77751e-11
1.76786e-11
1.75396e-11
1.74993e-11
1.74499e-11
1.74263e-11
1.7412e-11
1.73968e-11
1.73961e-11
1.73855e-11
1.73887e-11
1.73814e-11
1.7385e-11
1.73799e-11
1.73826e-11
1.7379e-11
1.73805e-11
1.7378e-11
1.73784e-11
1.73773e-11
1.7377e-11
1.73776e-11
1.73767e-11
1.73788e-11
1.73769e-11
1.73803e-11
1.73775e-11
1.73825e-11
1.73788e-11
1.7386e-11
1.73828e-11
1.73934e-11
1.73939e-11
1.74092e-11
1.74233e-11
1.74467e-11
1.74962e-11
1.75363e-11
1.76756e-11
1.77724e-11
1.80654e-11
1.83499e-11
1.87737e-11
1.94667e-11
2.00497e-11
1.47511e-11
1.42979e-11
1.37793e-11
1.34567e-11
1.32466e-11
1.30202e-11
1.29486e-11
1.284e-11
1.28104e-11
1.27719e-11
1.27541e-11
1.27433e-11
1.27315e-11
1.27312e-11
1.27229e-11
1.27254e-11
1.27197e-11
1.27225e-11
1.27185e-11
1.27206e-11
1.27177e-11
1.27189e-11
1.27169e-11
1.27172e-11
1.27163e-11
1.27161e-11
1.27166e-11
1.27159e-11
1.27175e-11
1.27161e-11
1.27188e-11
1.27166e-11
1.27205e-11
1.27177e-11
1.27234e-11
1.27208e-11
1.2729e-11
1.27293e-11
1.2741e-11
1.27516e-11
1.27693e-11
1.28077e-11
1.28373e-11
1.29461e-11
1.30179e-11
1.32447e-11
1.3455e-11
1.37775e-11
1.42961e-11
1.47507e-11
1.06947e-11
1.03502e-11
9.9653e-12
9.72357e-12
9.57062e-12
9.40075e-12
9.34995e-12
9.26856e-12
9.24773e-12
9.219e-12
9.20614e-12
9.19827e-12
9.18964e-12
9.18954e-12
9.1834e-12
9.18539e-12
9.18112e-12
9.18327e-12
9.18027e-12
9.1819e-12
9.17975e-12
9.18062e-12
9.17914e-12
9.17941e-12
9.17873e-12
9.17855e-12
9.17894e-12
9.17839e-12
9.17964e-12
9.17853e-12
9.18057e-12
9.17888e-12
9.18182e-12
9.17961e-12
9.18385e-12
9.18184e-12
9.18793e-12
9.18798e-12
9.1966e-12
9.20426e-12
9.21702e-12
9.24574e-12
9.26654e-12
9.3481e-12
9.39907e-12
9.56915e-12
9.7223e-12
9.96397e-12
1.03487e-11
1.06945e-11
7.63186e-12
7.37752e-12
7.09395e-12
6.91588e-12
6.80627e-12
6.68073e-12
6.64541e-12
6.58521e-12
6.57087e-12
6.54973e-12
6.5406e-12
6.53498e-12
6.52872e-12
6.52877e-12
6.52427e-12
6.52581e-12
6.52267e-12
6.52431e-12
6.52209e-12
6.52332e-12
6.52174e-12
6.52239e-12
6.52131e-12
6.52151e-12
6.52101e-12
6.52088e-12
6.52117e-12
6.52076e-12
6.52168e-12
6.52085e-12
6.52235e-12
6.52108e-12
6.52325e-12
6.52157e-12
6.52469e-12
6.52313e-12
6.5276e-12
6.52751e-12
6.53376e-12
6.53922e-12
6.54828e-12
6.56941e-12
6.58374e-12
6.64405e-12
6.6795e-12
6.80518e-12
6.91492e-12
7.09292e-12
7.37638e-12
7.63177e-12
5.31698e-12
5.13425e-12
4.92968e-12
4.803e-12
4.72632e-12
4.63685e-12
4.61279e-12
4.56972e-12
4.56011e-12
4.54511e-12
4.53887e-12
4.535e-12
4.53065e-12
4.53077e-12
4.52763e-12
4.52879e-12
4.52659e-12
4.5278e-12
4.52625e-12
4.52716e-12
4.52605e-12
4.52654e-12
4.52577e-12
4.52593e-12
4.52557e-12
4.52548e-12
4.52568e-12
4.52538e-12
4.52603e-12
4.52542e-12
4.52647e-12
4.52553e-12
4.52705e-12
4.52582e-12
4.528e-12
4.52683e-12
4.52995e-12
4.52981e-12
4.53415e-12
4.53793e-12
4.54413e-12
4.55913e-12
4.56873e-12
4.61187e-12
4.63601e-12
4.72558e-12
4.80235e-12
4.92896e-12
5.13352e-12
5.31692e-12
3.65207e-12
3.52272e-12
3.37761e-12
3.28767e-12
3.23484e-12
3.17128e-12
3.15531e-12
3.12462e-12
3.11833e-12
3.10771e-12
3.10347e-12
3.10081e-12
3.09778e-12
3.09793e-12
3.09572e-12
3.09658e-12
3.09503e-12
3.09591e-12
3.09481e-12
3.09547e-12
3.09469e-12
3.09504e-12
3.0945e-12
3.09462e-12
3.09436e-12
3.0943e-12
3.09444e-12
3.09423e-12
3.09469e-12
3.09425e-12
3.09499e-12
3.09431e-12
3.09539e-12
3.09449e-12
3.09603e-12
3.09516e-12
3.09736e-12
3.09719e-12
3.10022e-12
3.10281e-12
3.10703e-12
3.11764e-12
3.12392e-12
3.15467e-12
3.1707e-12
3.23431e-12
3.2872e-12
3.37709e-12
3.5222e-12
3.65202e-12
2.45569e-12
2.36528e-12
2.26543e-12
2.20258e-12
2.16699e-12
2.1228e-12
2.11248e-12
2.09105e-12
2.08706e-12
2.0797e-12
2.07688e-12
2.07509e-12
2.07303e-12
2.07317e-12
2.07164e-12
2.07227e-12
2.0712e-12
2.07183e-12
2.07107e-12
2.07153e-12
2.07099e-12
2.07124e-12
2.07087e-12
2.07095e-12
2.07077e-12
2.07073e-12
2.07083e-12
2.07068e-12
2.071e-12
2.07069e-12
2.07121e-12
2.07072e-12
2.07147e-12
2.07083e-12
2.0719e-12
2.07126e-12
2.07278e-12
2.07263e-12
2.07469e-12
2.07643e-12
2.07923e-12
2.08659e-12
2.09058e-12
2.11204e-12
2.1224e-12
2.16663e-12
2.20226e-12
2.26507e-12
2.36492e-12
2.45564e-12
1.613e-12
1.55097e-12
1.48404e-12
1.44121e-12
1.41783e-12
1.38784e-12
1.38138e-12
1.36674e-12
1.3643e-12
1.35931e-12
1.35749e-12
1.35632e-12
1.35494e-12
1.35507e-12
1.35403e-12
1.35448e-12
1.35375e-12
1.35419e-12
1.35367e-12
1.354e-12
1.35363e-12
1.3538e-12
1.35355e-12
1.3536e-12
1.35348e-12
1.35345e-12
1.35352e-12
1.35342e-12
1.35364e-12
1.35343e-12
1.35378e-12
1.35344e-12
1.35395e-12
1.3535e-12
1.35423e-12
1.35378e-12
1.35481e-12
1.35467e-12
1.35605e-12
1.35719e-12
1.359e-12
1.36399e-12
1.36643e-12
1.38108e-12
1.38757e-12
1.41759e-12
1.44099e-12
1.48381e-12
1.55074e-12
1.61295e-12
1.03271e-12
9.91031e-13
9.47494e-13
9.19154e-13
9.04236e-13
8.84422e-13
8.80521e-13
8.70789e-13
8.6935e-13
8.66062e-13
8.64917e-13
8.64162e-13
8.6327e-13
8.63369e-13
8.62691e-13
8.62995e-13
8.62513e-13
8.62809e-13
8.62468e-13
8.62685e-13
8.6244e-13
8.62558e-13
8.62389e-13
8.62427e-13
8.62347e-13
8.62328e-13
8.62375e-13
8.62308e-13
8.62453e-13
8.62311e-13
8.62544e-13
8.6232e-13
8.62655e-13
8.62353e-13
8.62833e-13
8.62527e-13
8.63201e-13
8.63098e-13
8.63988e-13
8.64724e-13
8.65861e-13
8.69149e-13
8.70588e-13
8.80331e-13
8.84246e-13
9.04074e-13
9.19009e-13
9.47342e-13
9.90884e-13
1.03266e-12
6.43201e-13
6.15338e-13
5.87365e-13
5.68829e-13
5.59433e-13
5.46578e-13
5.44263e-13
5.37916e-13
5.37093e-13
5.34967e-13
5.34265e-13
5.3379e-13
5.33226e-13
5.33301e-13
5.32867e-13
5.33071e-13
5.32761e-13
5.32957e-13
5.32737e-13
5.3288e-13
5.32722e-13
5.328e-13
5.3269e-13
5.32716e-13
5.32664e-13
5.32651e-13
5.32683e-13
5.32639e-13
5.32733e-13
5.3264e-13
5.32791e-13
5.32643e-13
5.32859e-13
5.3266e-13
5.32968e-13
5.32763e-13
5.33195e-13
5.33118e-13
5.3368e-13
5.34143e-13
5.3484e-13
5.36965e-13
5.37789e-13
5.44142e-13
5.46465e-13
5.59329e-13
5.68735e-13
5.87267e-13
6.15246e-13
6.43165e-13
3.88921e-13
3.71244e-13
3.54193e-13
3.4259e-13
3.36954e-13
3.28956e-13
3.27664e-13
3.23682e-13
3.2324e-13
3.21917e-13
3.21502e-13
3.21213e-13
3.20868e-13
3.20919e-13
3.20649e-13
3.20779e-13
3.20585e-13
3.20709e-13
3.20571e-13
3.2066e-13
3.20561e-13
3.20609e-13
3.20541e-13
3.20556e-13
3.20523e-13
3.20516e-13
3.20536e-13
3.20509e-13
3.20569e-13
3.20512e-13
3.20606e-13
3.20514e-13
3.20649e-13
3.20524e-13
3.20717e-13
3.20587e-13
3.20855e-13
3.20802e-13
3.21147e-13
3.21429e-13
3.21839e-13
3.23163e-13
3.23605e-13
3.2759e-13
3.28887e-13
3.36889e-13
3.42532e-13
3.54133e-13
3.71189e-13
3.88893e-13
2.28196e-13
2.17567e-13
2.07455e-13
2.00447e-13
1.9719e-13
1.92385e-13
1.91699e-13
1.89283e-13
1.89061e-13
1.88263e-13
1.88026e-13
1.87854e-13
1.87649e-13
1.87682e-13
1.87519e-13
1.87597e-13
1.8748e-13
1.87554e-13
1.8747e-13
1.87523e-13
1.87463e-13
1.87491e-13
1.87449e-13
1.87458e-13
1.87438e-13
1.87434e-13
1.87446e-13
1.87431e-13
1.87468e-13
1.87434e-13
1.87492e-13
1.87437e-13
1.87519e-13
1.87444e-13
1.87562e-13
1.87483e-13
1.87644e-13
1.87612e-13
1.87816e-13
1.87984e-13
1.88218e-13
1.89015e-13
1.89239e-13
1.91656e-13
1.92345e-13
1.97152e-13
2.00412e-13
2.07419e-13
2.17534e-13
2.28178e-13
1.29846e-13
1.2364e-13
1.17841e-13
1.13758e-13
1.11932e-13
1.09154e-13
1.08798e-13
1.07387e-13
1.07278e-13
1.06813e-13
1.06682e-13
1.06581e-13
1.06463e-13
1.06481e-13
1.06386e-13
1.0643e-13
1.06361e-13
1.06403e-13
1.06353e-13
1.06383e-13
1.06347e-13
1.06362e-13
1.06337e-13
1.06342e-13
1.0633e-13
1.06327e-13
1.06335e-13
1.06327e-13
1.06349e-13
1.06331e-13
1.06366e-13
1.06335e-13
1.06384e-13
1.06342e-13
1.06411e-13
1.06366e-13
1.06461e-13
1.06443e-13
1.0656e-13
1.06658e-13
1.06788e-13
1.07253e-13
1.07362e-13
1.08774e-13
1.09131e-13
1.1191e-13
1.13738e-13
1.17821e-13
1.23619e-13
1.29836e-13
7.22792e-14
6.87956e-14
6.56076e-14
6.33186e-14
6.23396e-14
6.07892e-14
6.06164e-14
5.98187e-14
5.9769e-14
5.95063e-14
5.94349e-14
5.9377e-14
5.93102e-14
5.93188e-14
5.92641e-14
5.92875e-14
5.92473e-14
5.92693e-14
5.92402e-14
5.92554e-14
5.92344e-14
5.92422e-14
5.92275e-14
5.92294e-14
5.92223e-14
5.9221e-14
5.9226e-14
5.92222e-14
5.92355e-14
5.92264e-14
5.92467e-14
5.92308e-14
5.92595e-14
5.92372e-14
5.92774e-14
5.92539e-14
5.93083e-14
5.92997e-14
5.93661e-14
5.94226e-14
5.94931e-14
5.97557e-14
5.98056e-14
6.06037e-14
6.0777e-14
6.2328e-14
6.3308e-14
6.5597e-14
6.87817e-14
7.22729e-14
3.96357e-14
3.77302e-14
3.60462e-14
3.4805e-14
3.42987e-14
3.34623e-14
3.33823e-14
3.2945e-14
3.29231e-14
3.27782e-14
3.27396e-14
3.27062e-14
3.26687e-14
3.26716e-14
3.26402e-14
3.26512e-14
3.26279e-14
3.26384e-14
3.26213e-14
3.26283e-14
3.26159e-14
3.26192e-14
3.26105e-14
3.26109e-14
3.26068e-14
3.26061e-14
3.26093e-14
3.2608e-14
3.2616e-14
3.26121e-14
3.26242e-14
3.26169e-14
3.26337e-14
3.26231e-14
3.26464e-14
3.26354e-14
3.26666e-14
3.26637e-14
3.2701e-14
3.27337e-14
3.27718e-14
3.29166e-14
3.29387e-14
3.33761e-14
3.34563e-14
3.4293e-14
3.47996e-14
3.60399e-14
3.77214e-14
3.96322e-14
2.17019e-14
2.06916e-14
1.98253e-14
1.91688e-14
1.89161e-14
1.84787e-14
1.84435e-14
1.82099e-14
1.82003e-14
1.81218e-14
1.81006e-14
1.80812e-14
1.80599e-14
1.80595e-14
1.80413e-14
1.80454e-14
1.80316e-14
1.80357e-14
1.80255e-14
1.8028e-14
1.80205e-14
1.80213e-14
1.8016e-14
1.80157e-14
1.80131e-14
1.80129e-14
1.8015e-14
1.80149e-14
1.802e-14
1.80189e-14
1.80263e-14
1.80236e-14
1.80338e-14
1.80296e-14
1.80434e-14
1.80393e-14
1.80574e-14
1.80578e-14
1.80791e-14
1.80982e-14
1.81192e-14
1.81978e-14
1.82075e-14
1.84411e-14
1.84763e-14
1.89139e-14
1.9166e-14
1.98214e-14
2.06862e-14
2.16994e-14
1.20853e-14
1.15669e-14
1.11247e-14
1.07797e-14
1.06422e-14
1.04068e-14
1.0386e-14
1.02593e-14
1.02522e-14
1.02081e-14
1.01951e-14
1.01818e-14
1.0169e-14
1.0167e-14
1.0156e-14
1.01566e-14
1.01481e-14
1.01489e-14
1.01425e-14
1.01427e-14
1.01379e-14
1.01376e-14
1.01342e-14
1.01335e-14
1.01319e-14
1.01318e-14
1.01333e-14
1.01338e-14
1.01371e-14
1.01374e-14
1.01422e-14
1.01419e-14
1.01483e-14
1.01475e-14
1.0156e-14
1.01554e-14
1.01664e-14
1.01684e-14
1.0181e-14
1.01938e-14
1.02064e-14
1.02503e-14
1.02572e-14
1.03836e-14
1.04043e-14
1.06393e-14
1.07773e-14
1.11222e-14
1.15636e-14
1.20833e-14
6.99164e-15
6.7259e-15
6.50021e-15
6.31893e-15
6.24875e-15
6.12586e-15
6.11496e-15
6.0469e-15
6.04219e-15
6.01737e-15
6.00914e-15
6.00052e-15
5.9925e-15
5.98989e-15
5.98282e-15
5.98178e-15
5.97622e-15
5.97553e-15
5.97124e-15
5.97046e-15
5.96723e-15
5.96637e-15
5.96408e-15
5.9633e-15
5.96222e-15
5.96222e-15
5.9633e-15
5.96408e-15
5.96637e-15
5.96725e-15
5.9705e-15
5.97125e-15
5.97554e-15
5.97623e-15
5.98181e-15
5.98285e-15
5.98989e-15
5.9925e-15
6.00044e-15
6.00882e-15
6.01685e-15
6.04151e-15
6.04608e-15
6.11391e-15
6.12461e-15
6.24724e-15
6.31735e-15
6.4985e-15
6.72377e-15
6.98992e-15
4.27012e-15
4.13037e-15
4.01268e-15
3.91508e-15
3.87795e-15
3.81163e-15
3.8052e-15
3.76717e-15
3.76356e-15
3.74878e-15
3.74315e-15
3.73713e-15
3.7317e-15
3.7291e-15
3.72427e-15
3.72268e-15
3.71881e-15
3.71758e-15
3.71455e-15
3.71344e-15
3.71114e-15
3.71016e-15
3.70853e-15
3.70778e-15
3.70702e-15
3.70705e-15
3.70787e-15
3.70865e-15
3.71033e-15
3.71135e-15
3.71368e-15
3.71479e-15
3.71782e-15
3.71906e-15
3.72294e-15
3.72453e-15
3.72935e-15
3.73194e-15
3.73731e-15
3.7432e-15
3.74871e-15
3.76337e-15
3.76687e-15
3.80473e-15
3.81099e-15
3.87709e-15
3.91406e-15
4.01146e-15
4.12889e-15
4.26869e-15
2.75919e-15
2.68244e-15
2.61764e-15
2.56229e-15
2.54138e-15
2.50344e-15
2.49924e-15
2.47664e-15
2.47378e-15
2.46438e-15
2.46031e-15
2.45597e-15
2.4521e-15
2.44979e-15
2.44634e-15
2.44473e-15
2.44193e-15
2.44065e-15
2.43843e-15
2.43733e-15
2.43564e-15
2.43473e-15
2.43353e-15
2.43288e-15
2.43233e-15
2.43237e-15
2.43299e-15
2.43369e-15
2.43494e-15
2.43589e-15
2.43761e-15
2.43872e-15
2.44094e-15
2.44223e-15
2.44504e-15
2.44665e-15
2.45009e-15
2.45238e-15
2.45621e-15
2.46048e-15
2.46445e-15
2.47376e-15
2.47653e-15
2.49901e-15
2.50306e-15
2.54085e-15
2.56159e-15
2.61675e-15
2.68134e-15
2.75803e-15
1.8602e-15
1.81505e-15
1.77694e-15
1.74336e-15
1.73078e-15
1.70753e-15
1.70468e-15
1.69033e-15
1.68814e-15
1.68183e-15
1.67886e-15
1.67569e-15
1.67287e-15
1.67098e-15
1.66848e-15
1.66708e-15
1.66504e-15
1.66391e-15
1.66229e-15
1.66134e-15
1.66009e-15
1.65934e-15
1.65845e-15
1.65793e-15
1.65752e-15
1.65755e-15
1.65803e-15
1.65859e-15
1.65952e-15
1.66031e-15
1.66159e-15
1.66254e-15
1.66418e-15
1.66531e-15
1.66736e-15
1.66875e-15
1.67124e-15
1.67312e-15
1.6759e-15
1.67903e-15
1.68193e-15
1.68817e-15
1.69029e-15
1.70454e-15
1.70729e-15
1.73041e-15
1.74286e-15
1.77629e-15
1.81423e-15
1.85928e-15
1.27773e-15
1.24946e-15
1.22578e-15
1.20422e-15
1.19629e-15
1.18129e-15
1.17938e-15
1.16984e-15
1.16826e-15
1.16391e-15
1.16178e-15
1.15949e-15
1.15746e-15
1.15601e-15
1.15421e-15
1.15311e-15
1.15164e-15
1.15075e-15
1.14957e-15
1.14883e-15
1.14792e-15
1.14734e-15
1.1467e-15
1.1463e-15
1.146e-15
1.14603e-15
1.14638e-15
1.14681e-15
1.14749e-15
1.1481e-15
1.14902e-15
1.14977e-15
1.15095e-15
1.15185e-15
1.15332e-15
1.15442e-15
1.15621e-15
1.15765e-15
1.15965e-15
1.16191e-15
1.16399e-15
1.16829e-15
1.16982e-15
1.17929e-15
1.18111e-15
1.19603e-15
1.20385e-15
1.2253e-15
1.24886e-15
1.27704e-15
8.73004e-16
8.54743e-16
8.39682e-16
8.25515e-16
8.20458e-16
8.10615e-16
8.09385e-16
8.02979e-16
8.01909e-16
7.9893e-16
7.97467e-16
7.95857e-16
7.94447e-16
7.93396e-16
7.9215e-16
7.91345e-16
7.90319e-16
7.89666e-16
7.88845e-16
7.88307e-16
7.87674e-16
7.87253e-16
7.86804e-16
7.8652e-16
7.86311e-16
7.86333e-16
7.86576e-16
7.86886e-16
7.87357e-16
7.87798e-16
7.88443e-16
7.88986e-16
7.89812e-16
7.90467e-16
7.91493e-16
7.92296e-16
7.93535e-16
7.94578e-16
7.95969e-16
7.97556e-16
7.98985e-16
8.0193e-16
8.02961e-16
8.09317e-16
8.10491e-16
8.20269e-16
8.25257e-16
8.39339e-16
8.54313e-16
8.72497e-16
5.83089e-16
5.7138e-16
5.61933e-16
5.52777e-16
5.49601e-16
5.43287e-16
5.42522e-16
5.38341e-16
5.37662e-16
5.35695e-16
5.34745e-16
5.33669e-16
5.32743e-16
5.32029e-16
5.3121e-16
5.30661e-16
5.29986e-16
5.29541e-16
5.28999e-16
5.28634e-16
5.28216e-16
5.27932e-16
5.27635e-16
5.27445e-16
5.27307e-16
5.27322e-16
5.27482e-16
5.2769e-16
5.28001e-16
5.28297e-16
5.28722e-16
5.2909e-16
5.29634e-16
5.3008e-16
5.30756e-16
5.31304e-16
5.32117e-16
5.32825e-16
5.33739e-16
5.34799e-16
5.35727e-16
5.37671e-16
5.38325e-16
5.42474e-16
5.43201e-16
5.49472e-16
5.52602e-16
5.61703e-16
5.7109e-16
5.82745e-16
3.79418e-16
3.72199e-16
3.66509e-16
3.60884e-16
3.58943e-16
3.55114e-16
3.54636e-16
3.52071e-16
3.51659e-16
3.50442e-16
3.49865e-16
3.49194e-16
3.48627e-16
3.48176e-16
3.47676e-16
3.47329e-16
3.46915e-16
3.46635e-16
3.46302e-16
3.46074e-16
3.45817e-16
3.4564e-16
3.45458e-16
3.4534e-16
3.45255e-16
3.45264e-16
3.45362e-16
3.4549e-16
3.45681e-16
3.45865e-16
3.46126e-16
3.46356e-16
3.4669e-16
3.4697e-16
3.47384e-16
3.47729e-16
3.48226e-16
3.48672e-16
3.49232e-16
3.49893e-16
3.50458e-16
3.51662e-16
3.52058e-16
3.54604e-16
3.55059e-16
3.58862e-16
3.60775e-16
3.66365e-16
3.72018e-16
3.79203e-16
2.47436e-16
2.43224e-16
2.39946e-16
2.36742e-16
2.35557e-16
2.33417e-16
2.33079e-16
2.3164e-16
2.31381e-16
2.30687e-16
2.30352e-16
2.29962e-16
2.29638e-16
2.29371e-16
2.29086e-16
2.28882e-16
2.28645e-16
2.28481e-16
2.2829e-16
2.28157e-16
2.2801e-16
2.27907e-16
2.27802e-16
2.27735e-16
2.27686e-16
2.27691e-16
2.27747e-16
2.2782e-16
2.27929e-16
2.28035e-16
2.28185e-16
2.28319e-16
2.28509e-16
2.28674e-16
2.2891e-16
2.29113e-16
2.29396e-16
2.2966e-16
2.2998e-16
2.30364e-16
2.30692e-16
2.3138e-16
2.31631e-16
2.33059e-16
2.33385e-16
2.35511e-16
2.36679e-16
2.39865e-16
2.43122e-16
2.47313e-16
1.71669e-16
1.69287e-16
1.67402e-16
1.65692e-16
1.6492e-16
1.6381e-16
1.6352e-16
1.62781e-16
1.62592e-16
1.6222e-16
1.62021e-16
1.61803e-16
1.61619e-16
1.61464e-16
1.61304e-16
1.61186e-16
1.61053e-16
1.60958e-16
1.6085e-16
1.60774e-16
1.60691e-16
1.60633e-16
1.60573e-16
1.60535e-16
1.60508e-16
1.6051e-16
1.60542e-16
1.60582e-16
1.60644e-16
1.60703e-16
1.60788e-16
1.60864e-16
1.60971e-16
1.61066e-16
1.61199e-16
1.61316e-16
1.61474e-16
1.61627e-16
1.61809e-16
1.62025e-16
1.6222e-16
1.6259e-16
1.62775e-16
1.63509e-16
1.63793e-16
1.64895e-16
1.65659e-16
1.67359e-16
1.69233e-16
1.71603e-16
1.24763e-16
1.23421e-16
1.22305e-16
1.21427e-16
1.20895e-16
1.20347e-16
1.20094e-16
1.19737e-16
1.19589e-16
1.19394e-16
1.19269e-16
1.19146e-16
1.19037e-16
1.18946e-16
1.18853e-16
1.18783e-16
1.18706e-16
1.18649e-16
1.18587e-16
1.18542e-16
1.18493e-16
1.18459e-16
1.18425e-16
1.18403e-16
1.18387e-16
1.18388e-16
1.18406e-16
1.18429e-16
1.18465e-16
1.18499e-16
1.18548e-16
1.18593e-16
1.18655e-16
1.18711e-16
1.18788e-16
1.18858e-16
1.1895e-16
1.19039e-16
1.19147e-16
1.19268e-16
1.19393e-16
1.19587e-16
1.19734e-16
1.20089e-16
1.20339e-16
1.20884e-16
1.21411e-16
1.22284e-16
1.23394e-16
1.2473e-16
)
;

boundaryField
{
    fuel
    {
        type            fixedValue;
        value           nonuniform 0();
    }
    wall
    {
        type            zeroGradient;
    }
    outlet
    {
        type            zeroGradient;
    }
    frontAndBack
    {
        type            empty;
    }
    procBoundary3to2
    {
        type            processor;
        value           nonuniform List<scalar> 
51
(
3.86066e-10
3.85786e-10
3.85729e-10
3.85552e-10
3.85571e-10
3.85455e-10
3.85491e-10
3.85411e-10
3.8544e-10
3.85384e-10
3.85399e-10
3.85361e-10
3.85365e-10
3.85348e-10
3.85343e-10
3.85352e-10
3.8534e-10
3.85371e-10
3.8535e-10
3.85403e-10
3.85371e-10
3.85449e-10
3.85411e-10
3.85526e-10
3.85508e-10
3.85683e-10
3.85739e-10
3.86016e-10
3.8631e-10
3.86802e-10
3.87493e-10
3.88488e-10
3.90596e-10
3.92789e-10
3.9702e-10
4.02172e-10
4.0823e-10
4.19118e-10
4.25311e-10
3.52957e-10
3.47518e-10
3.38796e-10
3.33589e-10
3.29204e-10
3.25587e-10
3.23761e-10
3.21966e-10
3.21142e-10
3.20543e-10
3.20131e-10
3.20131e-10
)
;
    }
}


// ************************************************************************* //
