/*--------------------------------*- C++ -*----------------------------------*\
| =========                 |                                                 |
| \\      /  F ield         | OpenFOAM: The Open Source CFD Toolbox           |
|  \\    /   O peration     | Version:  dev                                   |
|   \\  /    A nd           | Web:      www.OpenFOAM.org                      |
|    \\/     M anipulation  |                                                 |
\*---------------------------------------------------------------------------*/
FoamFile
{
    version     2.0;
    format      ascii;
    class       volScalarField;
    location    "0.035";
    object      H;
}
// * * * * * * * * * * * * * * * * * * * * * * * * * * * * * * * * * * * * * //

dimensions      [0 0 0 0 0 0 0];

internalField   nonuniform List<scalar> 
25
(
1.4244e-06
1.25254e-06
1.0906e-06
9.41823e-07
8.04316e-07
6.78027e-07
5.62921e-07
4.58978e-07
3.66235e-07
2.84795e-07
2.14799e-07
1.56325e-07
1.09223e-07
7.29191e-08
4.63106e-08
2.78749e-08
1.59025e-08
8.67091e-09
4.60286e-09
2.43942e-09
1.32032e-09
7.34278e-10
4.11526e-10
2.20202e-10
9.98764e-11
)
;

boundaryField
{
    wall
    {
        type            zeroGradient;
    }
    fuel
    {
        type            fixedValue;
        value           nonuniform 0();
    }
    outlet
    {
        type            inletOutlet;
        inletValue      uniform 0;
        value           uniform 9.98764e-11;
    }
    procBoundary3to2
    {
        type            processor;
        value           uniform 1.60742e-06;
    }
}


// ************************************************************************* //
