/*--------------------------------*- C++ -*----------------------------------*\
| =========                 |                                                 |
| \\      /  F ield         | OpenFOAM: The Open Source CFD Toolbox           |
|  \\    /   O peration     | Version:  dev                                   |
|   \\  /    A nd           | Web:      www.OpenFOAM.org                      |
|    \\/     M anipulation  |                                                 |
\*---------------------------------------------------------------------------*/
FoamFile
{
    version     2.0;
    format      ascii;
    class       volScalarField;
    location    "0.035";
    object      H2;
}
// * * * * * * * * * * * * * * * * * * * * * * * * * * * * * * * * * * * * * //

dimensions      [0 0 0 0 0 0 0];

internalField   nonuniform List<scalar> 
250
(
0.00582482
0.00582475
0.00582485
0.00582482
0.00582481
0.00582477
0.00582463
0.00582302
0.00581035
0.00571251
0.000609785
0.00696741
0.00696737
0.00696739
0.00696746
0.00696731
0.0069673
0.006967
0.00696359
0.00693796
0.00675059
0.00168636
0.00744841
0.00744841
0.00744829
0.00744851
0.00744823
0.00744829
0.00744778
0.00744239
0.00740502
0.00714399
0.00279714
0.00771753
0.00771757
0.00771737
0.0077177
0.00771729
0.00771739
0.00771673
0.00770941
0.007662
0.007346
0.00384995
0.00789492
0.00789501
0.00789474
0.00789517
0.00789464
0.00789476
0.00789409
0.00788494
0.00782929
0.00747372
0.0047783
0.00803388
0.00803405
0.00803362
0.00803424
0.00803352
0.00803358
0.00803282
0.00801866
0.00795128
0.00756856
0.00555074
0.00813892
0.00813912
0.00813862
0.00813934
0.00813852
0.00813854
0.00813841
0.00812147
0.00804753
0.00764823
0.00616682
0.00823232
0.00823259
0.0082319
0.00823283
0.00823178
0.00823155
0.00822746
0.00820724
0.00813325
0.00772108
0.00664475
0.00830981
0.00831011
0.00830934
0.00831038
0.00830922
0.00830886
0.00830506
0.00828665
0.00820434
0.00779122
0.00701049
0.00838977
0.00839007
0.00838926
0.00839036
0.00838914
0.0083886
0.00838483
0.00836398
0.00827548
0.00786071
0.00729207
0.00845441
0.00845355
0.00845472
0.00845342
0.00845273
0.00844895
0.00842601
0.00834487
0.00793037
0.00751516
0.00852223
0.00852136
0.00852256
0.00852122
0.00852031
0.00851624
0.00848918
0.00840233
0.00800031
0.0076991
0.00858635
0.00858548
0.00858669
0.00858531
0.00858417
0.00857996
0.00855081
0.00846177
0.00807063
0.00785558
0.00864732
0.00864645
0.00864766
0.00864623
0.00864486
0.00864048
0.00860947
0.00852142
0.00814328
0.00799071
0.00870546
0.00870461
0.00870581
0.00870432
0.00870271
0.00869814
0.00866555
0.00857912
0.00822787
0.00810812
0.00876099
0.00876016
0.00876133
0.00875977
0.00875794
0.00875314
0.00871927
0.00863491
0.00829976
0.00821004
0.00881402
0.0088132
0.00881435
0.00881271
0.00881065
0.00880565
0.00877075
0.00868883
0.00837013
0.00829863
0.00886457
0.00886377
0.00886488
0.00886316
0.00886089
0.0088557
0.00882006
0.00874081
0.00843876
0.00837602
0.00891264
0.00891186
0.00891293
0.00891112
0.00890867
0.00890336
0.00886723
0.0087908
0.00850542
0.00844429
0.00895822
0.00895746
0.0089585
0.00895658
0.00895397
0.00894868
0.00891227
0.00883868
0.00856981
0.00850531
0.00900127
0.00900053
0.00900166
0.00899951
0.00899678
0.0089918
0.00895516
0.00888435
0.00863151
0.00856064
0.0090418
0.00904109
0.00904292
0.00903992
0.00903709
0.0090329
0.00899589
0.00892773
0.0086901
0.00861147
0.00907985
0.00907918
0.00907891
0.00907783
0.00907496
0.00906746
0.00903447
0.00896875
0.00874523
0.00865867
0.00911131
0.00911066
0.00911097
0.00910917
0.00910624
0.00909932
0.00906629
0.00900745
0.00879659
0.0087028
)
;

boundaryField
{
    fuel
    {
        type            fixedValue;
        value           uniform 0;
    }
    wall
    {
        type            zeroGradient;
    }
    outlet
    {
        type            zeroGradient;
    }
    frontAndBack
    {
        type            empty;
    }
    procBoundary3to0
    {
        type            processor;
        value           nonuniform List<scalar> 10(0.00913982 0.0091392 0.00913955 0.00913755 0.00913459 0.00912803 0.00909783 0.00903971 0.00884388 0.00874417);
    }
    procBoundary3to2
    {
        type            processor;
        value           nonuniform List<scalar> 
25
(
0.00582475
0.00696735
0.00744828
0.00771736
0.00789473
0.00803363
0.00813863
0.00823192
0.00830933
0.00838919
0.00845413
0.00845413
0.008522
0.00858618
0.00864722
0.00870545
0.00876107
0.00881418
0.00886481
0.00891297
0.00895862
0.0090018
0.00904292
0.00907974
0.0091117
)
;
    }
}


// ************************************************************************* //
