/*--------------------------------*- C++ -*----------------------------------*\
| =========                 |                                                 |
| \\      /  F ield         | OpenFOAM: The Open Source CFD Toolbox           |
|  \\    /   O peration     | Version:  dev                                   |
|   \\  /    A nd           | Web:      www.OpenFOAM.org                      |
|    \\/     M anipulation  |                                                 |
\*---------------------------------------------------------------------------*/
FoamFile
{
    version     2.0;
    format      ascii;
    class       volScalarField;
    location    "0.035";
    object      H2C4O;
}
// * * * * * * * * * * * * * * * * * * * * * * * * * * * * * * * * * * * * * //

dimensions      [0 0 0 0 0 0 0];

internalField   nonuniform List<scalar> 
25
(
2.98013e-09
2.69269e-09
2.43922e-09
2.23262e-09
2.0765e-09
1.97607e-09
1.9351e-09
1.9554e-09
2.03625e-09
2.17366e-09
2.35974e-09
2.58244e-09
2.82592e-09
3.07164e-09
3.29987e-09
3.49109e-09
3.62693e-09
3.69039e-09
3.66548e-09
3.53647e-09
3.28693e-09
2.89861e-09
2.3515e-09
1.63419e-09
8.33367e-10
)
;

boundaryField
{
    wall
    {
        type            zeroGradient;
    }
    fuel
    {
        type            fixedValue;
        value           nonuniform 0();
    }
    outlet
    {
        type            inletOutlet;
        inletValue      uniform 0;
        value           uniform 8.33367e-10;
    }
    procBoundary3to2
    {
        type            processor;
        value           uniform 3.2959e-09;
    }
}


// ************************************************************************* //
