/*--------------------------------*- C++ -*----------------------------------*\
| =========                 |                                                 |
| \\      /  F ield         | OpenFOAM: The Open Source CFD Toolbox           |
|  \\    /   O peration     | Version:  dev                                   |
|   \\  /    A nd           | Web:      www.OpenFOAM.org                      |
|    \\/     M anipulation  |                                                 |
\*---------------------------------------------------------------------------*/
FoamFile
{
    version     2.0;
    format      ascii;
    class       volScalarField;
    location    "0.035";
    object      H2O2;
}
// * * * * * * * * * * * * * * * * * * * * * * * * * * * * * * * * * * * * * //

dimensions      [0 0 0 0 0 0 0];

internalField   nonuniform List<scalar> 
1989
(
2.43296e-12
2.43177e-12
2.43149e-12
2.43073e-12
2.43076e-12
2.43025e-12
2.43035e-12
2.42999e-12
2.43006e-12
2.4298e-12
2.42983e-12
2.42965e-12
2.42964e-12
2.42956e-12
2.42955e-12
2.4296e-12
2.42958e-12
2.42974e-12
2.42969e-12
2.42995e-12
2.42986e-12
2.43022e-12
2.43012e-12
2.43062e-12
2.4306e-12
2.43136e-12
2.43163e-12
2.43279e-12
2.43402e-12
2.43603e-12
2.43875e-12
2.4427e-12
2.45093e-12
2.45951e-12
2.47566e-12
2.49555e-12
2.51814e-12
2.55649e-12
2.57925e-12
2.31979e-12
2.299e-12
2.26448e-12
2.24404e-12
2.2261e-12
2.21161e-12
2.20404e-12
2.19662e-12
2.19312e-12
2.19058e-12
2.18873e-12
2.18743e-12
2.18635e-12
2.18608e-12
2.18537e-12
2.18538e-12
2.1849e-12
2.18498e-12
2.18463e-12
2.18469e-12
2.18444e-12
2.18446e-12
2.18428e-12
2.18427e-12
2.18419e-12
2.18418e-12
2.18423e-12
2.18422e-12
2.18438e-12
2.18435e-12
2.18459e-12
2.18453e-12
2.18487e-12
2.18479e-12
2.18527e-12
2.18527e-12
2.18597e-12
2.18623e-12
2.18729e-12
2.18842e-12
2.19022e-12
2.19272e-12
2.19621e-12
2.20363e-12
2.21121e-12
2.2257e-12
2.24367e-12
2.26411e-12
2.29867e-12
2.31945e-12
2.08747e-12
2.0686e-12
2.03763e-12
2.0193e-12
2.00309e-12
1.99021e-12
1.98353e-12
1.97688e-12
1.97378e-12
1.97145e-12
1.96977e-12
1.96858e-12
1.96758e-12
1.96731e-12
1.96666e-12
1.96664e-12
1.96619e-12
1.96623e-12
1.96591e-12
1.96594e-12
1.9657e-12
1.9657e-12
1.96553e-12
1.96551e-12
1.96543e-12
1.96542e-12
1.96548e-12
1.96548e-12
1.96564e-12
1.96563e-12
1.96586e-12
1.96583e-12
1.96615e-12
1.9661e-12
1.96656e-12
1.96658e-12
1.96723e-12
1.96749e-12
1.96846e-12
1.96949e-12
1.97111e-12
1.97341e-12
1.97649e-12
1.98315e-12
1.98983e-12
2.00271e-12
2.01894e-12
2.03727e-12
2.06827e-12
2.08714e-12
1.88129e-12
1.86428e-12
1.83664e-12
1.82029e-12
1.80587e-12
1.79441e-12
1.78855e-12
1.7826e-12
1.77987e-12
1.77772e-12
1.77619e-12
1.77508e-12
1.77416e-12
1.77389e-12
1.77328e-12
1.77323e-12
1.7728e-12
1.77281e-12
1.7725e-12
1.7725e-12
1.77227e-12
1.77225e-12
1.77209e-12
1.77206e-12
1.77198e-12
1.77197e-12
1.77203e-12
1.77205e-12
1.77221e-12
1.77221e-12
1.77245e-12
1.77244e-12
1.77275e-12
1.77274e-12
1.77317e-12
1.77322e-12
1.77383e-12
1.7741e-12
1.77499e-12
1.77594e-12
1.7774e-12
1.77952e-12
1.78223e-12
1.78818e-12
1.79404e-12
1.80551e-12
1.81994e-12
1.8363e-12
1.86394e-12
1.88095e-12
1.69959e-12
1.68481e-12
1.66029e-12
1.64582e-12
1.63318e-12
1.62299e-12
1.61787e-12
1.61258e-12
1.61016e-12
1.60818e-12
1.60679e-12
1.60574e-12
1.60489e-12
1.60461e-12
1.60402e-12
1.60395e-12
1.60353e-12
1.60351e-12
1.6032e-12
1.60318e-12
1.60294e-12
1.60291e-12
1.60274e-12
1.6027e-12
1.60263e-12
1.60262e-12
1.60269e-12
1.60272e-12
1.60288e-12
1.60291e-12
1.60314e-12
1.60316e-12
1.60347e-12
1.60349e-12
1.60391e-12
1.60399e-12
1.60457e-12
1.60485e-12
1.60568e-12
1.60656e-12
1.60789e-12
1.60983e-12
1.61222e-12
1.61752e-12
1.62264e-12
1.63283e-12
1.64547e-12
1.65995e-12
1.68447e-12
1.69926e-12
1.54208e-12
1.52908e-12
1.50751e-12
1.49483e-12
1.48391e-12
1.47489e-12
1.47043e-12
1.46574e-12
1.46359e-12
1.46177e-12
1.46049e-12
1.4595e-12
1.4587e-12
1.4584e-12
1.45783e-12
1.45772e-12
1.45731e-12
1.45725e-12
1.45694e-12
1.45689e-12
1.45665e-12
1.4566e-12
1.45643e-12
1.45638e-12
1.45631e-12
1.4563e-12
1.45637e-12
1.45642e-12
1.45658e-12
1.45664e-12
1.45687e-12
1.45692e-12
1.45723e-12
1.45729e-12
1.45771e-12
1.45782e-12
1.45839e-12
1.45868e-12
1.45947e-12
1.46029e-12
1.4615e-12
1.46328e-12
1.4654e-12
1.47008e-12
1.47454e-12
1.48356e-12
1.49449e-12
1.50716e-12
1.52875e-12
1.54174e-12
1.40584e-12
1.39418e-12
1.37524e-12
1.36428e-12
1.35488e-12
1.34699e-12
1.34309e-12
1.33897e-12
1.33704e-12
1.33536e-12
1.33416e-12
1.33322e-12
1.33245e-12
1.33212e-12
1.33157e-12
1.33141e-12
1.331e-12
1.3309e-12
1.33059e-12
1.3305e-12
1.33026e-12
1.33018e-12
1.33001e-12
1.32994e-12
1.32986e-12
1.32986e-12
1.32994e-12
1.33e-12
1.33018e-12
1.33026e-12
1.3305e-12
1.33059e-12
1.33091e-12
1.33101e-12
1.33142e-12
1.33159e-12
1.33214e-12
1.33246e-12
1.33321e-12
1.334e-12
1.33512e-12
1.33675e-12
1.33864e-12
1.34276e-12
1.34665e-12
1.35453e-12
1.36393e-12
1.37489e-12
1.39383e-12
1.40548e-12
1.29087e-12
1.28089e-12
1.26502e-12
1.25575e-12
1.24782e-12
1.24111e-12
1.23773e-12
1.23418e-12
1.23244e-12
1.23091e-12
1.22978e-12
1.22886e-12
1.22812e-12
1.22775e-12
1.22721e-12
1.22699e-12
1.22658e-12
1.22642e-12
1.2261e-12
1.22597e-12
1.22572e-12
1.22561e-12
1.22543e-12
1.22535e-12
1.22527e-12
1.22527e-12
1.22535e-12
1.22544e-12
1.22562e-12
1.22574e-12
1.22599e-12
1.22613e-12
1.22645e-12
1.22661e-12
1.22703e-12
1.22725e-12
1.22779e-12
1.22816e-12
1.22888e-12
1.22965e-12
1.2307e-12
1.23218e-12
1.23388e-12
1.23741e-12
1.24078e-12
1.24749e-12
1.25541e-12
1.26467e-12
1.28054e-12
1.2905e-12
1.19868e-12
1.19038e-12
1.17752e-12
1.1699e-12
1.16334e-12
1.15777e-12
1.15485e-12
1.15184e-12
1.15025e-12
1.14885e-12
1.14776e-12
1.14685e-12
1.14612e-12
1.14569e-12
1.14514e-12
1.14486e-12
1.14443e-12
1.14422e-12
1.14388e-12
1.1437e-12
1.14343e-12
1.14329e-12
1.14309e-12
1.14299e-12
1.14291e-12
1.14291e-12
1.14301e-12
1.14312e-12
1.14332e-12
1.14347e-12
1.14375e-12
1.14393e-12
1.14428e-12
1.1445e-12
1.14493e-12
1.14522e-12
1.14577e-12
1.14619e-12
1.1469e-12
1.14766e-12
1.14866e-12
1.15001e-12
1.15156e-12
1.15455e-12
1.15746e-12
1.163e-12
1.16956e-12
1.17716e-12
1.19002e-12
1.19829e-12
1.12965e-12
1.1231e-12
1.11321e-12
1.10727e-12
1.10199e-12
1.09758e-12
1.09505e-12
1.09257e-12
1.09109e-12
1.08979e-12
1.08873e-12
1.08781e-12
1.08707e-12
1.08657e-12
1.086e-12
1.08564e-12
1.08518e-12
1.0849e-12
1.08453e-12
1.08429e-12
1.084e-12
1.08381e-12
1.08361e-12
1.08348e-12
1.08339e-12
1.08339e-12
1.0835e-12
1.08365e-12
1.08387e-12
1.08407e-12
1.08437e-12
1.08461e-12
1.08499e-12
1.08528e-12
1.08574e-12
1.08611e-12
1.08668e-12
1.08718e-12
1.08789e-12
1.08867e-12
1.08964e-12
1.09088e-12
1.09231e-12
1.09476e-12
1.09727e-12
1.10166e-12
1.10693e-12
1.11285e-12
1.12273e-12
1.12924e-12
1.08515e-12
1.08071e-12
1.07378e-12
1.06963e-12
1.06558e-12
1.06238e-12
1.06019e-12
1.05825e-12
1.05684e-12
1.05564e-12
1.05457e-12
1.05362e-12
1.05285e-12
1.05226e-12
1.05165e-12
1.05119e-12
1.05069e-12
1.05032e-12
1.04991e-12
1.04961e-12
1.04929e-12
1.04905e-12
1.04881e-12
1.04865e-12
1.04855e-12
1.04856e-12
1.04869e-12
1.04887e-12
1.04912e-12
1.04938e-12
1.04971e-12
1.05003e-12
1.05045e-12
1.05083e-12
1.05133e-12
1.0518e-12
1.05241e-12
1.053e-12
1.05374e-12
1.05455e-12
1.05553e-12
1.05666e-12
1.05801e-12
1.05993e-12
1.06208e-12
1.06526e-12
1.06928e-12
1.07341e-12
1.08032e-12
1.08472e-12
1.06895e-12
1.06698e-12
1.06327e-12
1.06105e-12
1.05826e-12
1.05639e-12
1.0545e-12
1.05314e-12
1.05175e-12
1.05065e-12
1.04954e-12
1.04852e-12
1.04771e-12
1.04699e-12
1.04633e-12
1.04574e-12
1.04519e-12
1.04471e-12
1.04425e-12
1.04386e-12
1.04349e-12
1.04319e-12
1.04293e-12
1.04273e-12
1.04261e-12
1.04263e-12
1.04278e-12
1.043e-12
1.04329e-12
1.04362e-12
1.044e-12
1.04441e-12
1.04488e-12
1.04537e-12
1.04593e-12
1.04652e-12
1.04719e-12
1.0479e-12
1.0487e-12
1.04958e-12
1.05058e-12
1.05161e-12
1.05293e-12
1.05426e-12
1.05611e-12
1.05794e-12
1.06069e-12
1.06289e-12
1.06656e-12
1.06848e-12
1.08677e-12
1.08803e-12
1.08821e-12
1.08844e-12
1.08706e-12
1.08689e-12
1.08527e-12
1.08464e-12
1.08322e-12
1.08223e-12
1.08105e-12
1.07993e-12
1.07904e-12
1.07816e-12
1.07741e-12
1.07666e-12
1.07603e-12
1.07541e-12
1.07488e-12
1.07437e-12
1.07395e-12
1.07356e-12
1.07325e-12
1.073e-12
1.07287e-12
1.07289e-12
1.07307e-12
1.07336e-12
1.0737e-12
1.07412e-12
1.07456e-12
1.07509e-12
1.07563e-12
1.07627e-12
1.07691e-12
1.07767e-12
1.07842e-12
1.0793e-12
1.08017e-12
1.08115e-12
1.08222e-12
1.08312e-12
1.08447e-12
1.08504e-12
1.08662e-12
1.08675e-12
1.08807e-12
1.08781e-12
1.08759e-12
1.08626e-12
1.15217e-12
1.15817e-12
1.16372e-12
1.16748e-12
1.16795e-12
1.17034e-12
1.16902e-12
1.16956e-12
1.16805e-12
1.16727e-12
1.16599e-12
1.16473e-12
1.16373e-12
1.16262e-12
1.16177e-12
1.16078e-12
1.16005e-12
1.15922e-12
1.1586e-12
1.15793e-12
1.15743e-12
1.15692e-12
1.15656e-12
1.15624e-12
1.15608e-12
1.15611e-12
1.15633e-12
1.15671e-12
1.15711e-12
1.15766e-12
1.15819e-12
1.15889e-12
1.15953e-12
1.16038e-12
1.16112e-12
1.16212e-12
1.16297e-12
1.16409e-12
1.16506e-12
1.16617e-12
1.16734e-12
1.16803e-12
1.16945e-12
1.16884e-12
1.1701e-12
1.16765e-12
1.16711e-12
1.1633e-12
1.15769e-12
1.1516e-12
1.29345e-12
1.30719e-12
1.32128e-12
1.33087e-12
1.33414e-12
1.3407e-12
1.33968e-12
1.34215e-12
1.34044e-12
1.34002e-12
1.33856e-12
1.33708e-12
1.33595e-12
1.33446e-12
1.33347e-12
1.33212e-12
1.33125e-12
1.3301e-12
1.32935e-12
1.32843e-12
1.32782e-12
1.32714e-12
1.32669e-12
1.32627e-12
1.32608e-12
1.32613e-12
1.32641e-12
1.3269e-12
1.32741e-12
1.32815e-12
1.3288e-12
1.32976e-12
1.33053e-12
1.3317e-12
1.33259e-12
1.33396e-12
1.33496e-12
1.33644e-12
1.33755e-12
1.33888e-12
1.34021e-12
1.34052e-12
1.34213e-12
1.33957e-12
1.34051e-12
1.33386e-12
1.33051e-12
1.32084e-12
1.30667e-12
1.2928e-12
1.56903e-12
1.59645e-12
1.62555e-12
1.64559e-12
1.65358e-12
1.66769e-12
1.66708e-12
1.67314e-12
1.67103e-12
1.67134e-12
1.66962e-12
1.66781e-12
1.66648e-12
1.66438e-12
1.6632e-12
1.66123e-12
1.66016e-12
1.65848e-12
1.65755e-12
1.65622e-12
1.65546e-12
1.65448e-12
1.65392e-12
1.65334e-12
1.65309e-12
1.65317e-12
1.65354e-12
1.65424e-12
1.65489e-12
1.65595e-12
1.65677e-12
1.65815e-12
1.65912e-12
1.66082e-12
1.66192e-12
1.6639e-12
1.6651e-12
1.6672e-12
1.6685e-12
1.67016e-12
1.67174e-12
1.6713e-12
1.67328e-12
1.6671e-12
1.6676e-12
1.65336e-12
1.64524e-12
1.6251e-12
1.59588e-12
1.56827e-12
2.10452e-12
2.15793e-12
2.21429e-12
2.2535e-12
2.26991e-12
2.29772e-12
2.29768e-12
2.31041e-12
2.30749e-12
2.30918e-12
2.30697e-12
2.30457e-12
2.30291e-12
2.29974e-12
2.29822e-12
2.29516e-12
2.29376e-12
2.29116e-12
2.28991e-12
2.28787e-12
2.28684e-12
2.28537e-12
2.28462e-12
2.28374e-12
2.28342e-12
2.28354e-12
2.28407e-12
2.28512e-12
2.28601e-12
2.28761e-12
2.28873e-12
2.29086e-12
2.29216e-12
2.2948e-12
2.29624e-12
2.29932e-12
2.30086e-12
2.30403e-12
2.30565e-12
2.30789e-12
2.30994e-12
2.30808e-12
2.31083e-12
2.29793e-12
2.29779e-12
2.26979e-12
2.25319e-12
2.21383e-12
2.15726e-12
2.10359e-12
3.10198e-12
3.20193e-12
3.30557e-12
3.37944e-12
3.40999e-12
3.46251e-12
3.46292e-12
3.48775e-12
3.48317e-12
3.48742e-12
3.48435e-12
3.48094e-12
3.47876e-12
3.47371e-12
3.47166e-12
3.46672e-12
3.46477e-12
3.46057e-12
3.45882e-12
3.45554e-12
3.45409e-12
3.45175e-12
3.4507e-12
3.44934e-12
3.4489e-12
3.44909e-12
3.44987e-12
3.45152e-12
3.45281e-12
3.45535e-12
3.45695e-12
3.46036e-12
3.4622e-12
3.46648e-12
3.46846e-12
3.47344e-12
3.47552e-12
3.48057e-12
3.48272e-12
3.48595e-12
3.48884e-12
3.48435e-12
3.48868e-12
3.46359e-12
3.46292e-12
3.41011e-12
3.37925e-12
3.30513e-12
3.20118e-12
3.10077e-12
4.94039e-12
5.12127e-12
5.30265e-12
5.43526e-12
5.48834e-12
5.58206e-12
5.58223e-12
5.62734e-12
5.61941e-12
5.62781e-12
5.62302e-12
5.61775e-12
5.61455e-12
5.60622e-12
5.60318e-12
5.59497e-12
5.59204e-12
5.58507e-12
5.58243e-12
5.57702e-12
5.57481e-12
5.57099e-12
5.56941e-12
5.56722e-12
5.56656e-12
5.5669e-12
5.56812e-12
5.5708e-12
5.57278e-12
5.57693e-12
5.57937e-12
5.58499e-12
5.58778e-12
5.59487e-12
5.59786e-12
5.60612e-12
5.60921e-12
5.61754e-12
5.6207e-12
5.62578e-12
5.63034e-12
5.62161e-12
5.62917e-12
5.58366e-12
5.58308e-12
5.48887e-12
5.43528e-12
5.30224e-12
5.1204e-12
4.93871e-12
8.18312e-12
8.49307e-12
8.79338e-12
9.01664e-12
9.10227e-12
9.25894e-12
9.2568e-12
9.3329e-12
9.31855e-12
9.33285e-12
9.3247e-12
9.31601e-12
9.31079e-12
9.29697e-12
9.29203e-12
9.27842e-12
9.27369e-12
9.26218e-12
9.25791e-12
9.24902e-12
9.24548e-12
9.23922e-12
9.2367e-12
9.23313e-12
9.2321e-12
9.23266e-12
9.23463e-12
9.239e-12
9.24217e-12
9.24897e-12
9.2529e-12
9.26214e-12
9.26664e-12
9.27834e-12
9.28317e-12
9.29684e-12
9.30186e-12
9.31566e-12
9.32086e-12
9.32933e-12
9.33718e-12
9.3224e-12
9.33619e-12
9.25946e-12
9.26094e-12
9.10347e-12
9.01701e-12
8.79301e-12
8.49199e-12
8.18068e-12
1.35754e-11
1.40729e-11
1.45371e-11
1.4887e-11
1.50143e-11
1.52577e-11
1.52489e-11
1.53675e-11
1.53418e-11
1.53631e-11
1.53488e-11
1.53342e-11
1.53251e-11
1.53026e-11
1.52942e-11
1.52722e-11
1.52643e-11
1.52457e-11
1.52387e-11
1.52244e-11
1.52186e-11
1.52085e-11
1.52044e-11
1.51987e-11
1.5197e-11
1.51979e-11
1.52011e-11
1.52081e-11
1.52133e-11
1.52241e-11
1.52306e-11
1.52454e-11
1.52529e-11
1.52717e-11
1.52798e-11
1.53018e-11
1.53104e-11
1.53328e-11
1.53419e-11
1.53563e-11
1.53702e-11
1.53481e-11
1.53729e-11
1.52534e-11
1.52611e-11
1.50165e-11
1.48878e-11
1.45367e-11
1.40714e-11
1.35717e-11
2.19441e-11
2.26985e-11
2.33845e-11
2.39061e-11
2.40864e-11
2.4443e-11
2.44224e-11
2.45956e-11
2.45522e-11
2.45811e-11
2.45566e-11
2.45322e-11
2.45164e-11
2.44811e-11
2.44666e-11
2.44324e-11
2.44191e-11
2.43903e-11
2.43787e-11
2.43565e-11
2.4347e-11
2.43314e-11
2.43247e-11
2.43158e-11
2.43131e-11
2.43145e-11
2.43195e-11
2.43304e-11
2.43387e-11
2.43556e-11
2.43661e-11
2.4389e-11
2.44013e-11
2.44305e-11
2.4444e-11
2.44783e-11
2.4493e-11
2.45282e-11
2.4544e-11
2.4568e-11
2.4592e-11
2.45621e-11
2.46041e-11
2.44295e-11
2.44485e-11
2.409e-11
2.39076e-11
2.3384e-11
2.26964e-11
2.19385e-11
3.40171e-11
3.50433e-11
3.59522e-11
3.66533e-11
3.68769e-11
3.73483e-11
3.73042e-11
3.75318e-11
3.7462e-11
3.74945e-11
3.7454e-11
3.7415e-11
3.73882e-11
3.73357e-11
3.73116e-11
3.72614e-11
3.72397e-11
3.71976e-11
3.7179e-11
3.71465e-11
3.71315e-11
3.71085e-11
3.70979e-11
3.70848e-11
3.70805e-11
3.70825e-11
3.70902e-11
3.71063e-11
3.71191e-11
3.71439e-11
3.71603e-11
3.7194e-11
3.72135e-11
3.72562e-11
3.72782e-11
3.73285e-11
3.73529e-11
3.74053e-11
3.74319e-11
3.74704e-11
3.75102e-11
3.74762e-11
3.75442e-11
3.73144e-11
3.73562e-11
3.68819e-11
3.66553e-11
3.59512e-11
3.50399e-11
3.40087e-11
5.01758e-11
5.14588e-11
5.25894e-11
5.34634e-11
5.37169e-11
5.42942e-11
5.42154e-11
5.44912e-11
5.43863e-11
5.44162e-11
5.43534e-11
5.4294e-11
5.42514e-11
5.41772e-11
5.41392e-11
5.40691e-11
5.40356e-11
5.39771e-11
5.39486e-11
5.39035e-11
5.38807e-11
5.38485e-11
5.38326e-11
5.38141e-11
5.38075e-11
5.38104e-11
5.38216e-11
5.38441e-11
5.38632e-11
5.38977e-11
5.39224e-11
5.39693e-11
5.39989e-11
5.40582e-11
5.40922e-11
5.41624e-11
5.42007e-11
5.42748e-11
5.43172e-11
5.43758e-11
5.44377e-11
5.44057e-11
5.45081e-11
5.42293e-11
5.43048e-11
5.37236e-11
5.34656e-11
5.25874e-11
5.14536e-11
5.01636e-11
7.03621e-11
7.18952e-11
7.3216e-11
7.42377e-11
7.45071e-11
7.51651e-11
7.50449e-11
7.53537e-11
7.52073e-11
7.52264e-11
7.5135e-11
7.50498e-11
7.4986e-11
7.48862e-11
7.48296e-11
7.47366e-11
7.46875e-11
7.461e-11
7.45688e-11
7.45089e-11
7.44761e-11
7.44333e-11
7.44105e-11
7.43856e-11
7.43762e-11
7.438e-11
7.43956e-11
7.44257e-11
7.44526e-11
7.44986e-11
7.45339e-11
7.4596e-11
7.46388e-11
7.47172e-11
7.47669e-11
7.48601e-11
7.4917e-11
7.50166e-11
7.508e-11
7.51643e-11
7.52542e-11
7.52324e-11
7.53754e-11
7.50627e-11
7.51784e-11
7.4515e-11
7.42397e-11
7.32124e-11
7.18879e-11
7.03447e-11
9.3733e-11
9.54469e-11
9.68751e-11
9.7986e-11
9.82389e-11
9.89353e-11
9.87626e-11
9.90809e-11
9.88869e-11
9.88851e-11
9.87598e-11
9.86437e-11
9.85543e-11
9.84262e-11
9.83471e-11
9.82295e-11
9.81616e-11
9.80638e-11
9.80074e-11
9.79316e-11
9.78871e-11
9.78326e-11
9.78017e-11
9.77698e-11
9.77571e-11
9.77619e-11
9.77825e-11
9.78209e-11
9.78569e-11
9.79153e-11
9.79629e-11
9.80414e-11
9.80998e-11
9.81988e-11
9.82673e-11
9.83853e-11
9.84646e-11
9.85923e-11
9.86813e-11
9.87961e-11
9.89195e-11
9.89178e-11
9.91075e-11
9.87841e-11
9.8951e-11
9.82476e-11
9.79872e-11
9.6869e-11
9.54373e-11
9.37093e-11
1.19302e-10
1.21135e-10
1.22592e-10
1.23736e-10
1.23948e-10
1.24638e-10
1.24408e-10
1.24711e-10
1.24467e-10
1.24435e-10
1.24272e-10
1.24122e-10
1.24003e-10
1.23846e-10
1.23741e-10
1.23598e-10
1.23509e-10
1.23391e-10
1.23318e-10
1.23226e-10
1.23168e-10
1.23102e-10
1.23062e-10
1.23023e-10
1.23006e-10
1.23012e-10
1.23038e-10
1.23085e-10
1.23131e-10
1.23202e-10
1.23263e-10
1.23359e-10
1.23434e-10
1.23554e-10
1.23644e-10
1.23787e-10
1.23892e-10
1.24049e-10
1.24167e-10
1.24316e-10
1.24476e-10
1.24503e-10
1.24742e-10
1.24433e-10
1.24655e-10
1.23957e-10
1.23736e-10
1.22584e-10
1.21122e-10
1.19272e-10
1.45869e-10
1.47732e-10
1.49163e-10
1.50294e-10
1.50448e-10
1.51087e-10
1.50801e-10
1.51064e-10
1.50771e-10
1.507e-10
1.50498e-10
1.50311e-10
1.50161e-10
1.49974e-10
1.49843e-10
1.49675e-10
1.49564e-10
1.49425e-10
1.49334e-10
1.49226e-10
1.49155e-10
1.49076e-10
1.49027e-10
1.48981e-10
1.48961e-10
1.48968e-10
1.48999e-10
1.49054e-10
1.49111e-10
1.49194e-10
1.4927e-10
1.49382e-10
1.49475e-10
1.49616e-10
1.49728e-10
1.49896e-10
1.50028e-10
1.50214e-10
1.50363e-10
1.50547e-10
1.50746e-10
1.50811e-10
1.51098e-10
1.50827e-10
1.51105e-10
1.50455e-10
1.50293e-10
1.49154e-10
1.47714e-10
1.45833e-10
1.72339e-10
1.74142e-10
1.75518e-10
1.7661e-10
1.7676e-10
1.77371e-10
1.77056e-10
1.7728e-10
1.7695e-10
1.76844e-10
1.76606e-10
1.76389e-10
1.76207e-10
1.75993e-10
1.75834e-10
1.75643e-10
1.75509e-10
1.75351e-10
1.75242e-10
1.75119e-10
1.75034e-10
1.74944e-10
1.74886e-10
1.74833e-10
1.74809e-10
1.74817e-10
1.74853e-10
1.74917e-10
1.74984e-10
1.75079e-10
1.75169e-10
1.75296e-10
1.75408e-10
1.75568e-10
1.75703e-10
1.75894e-10
1.76054e-10
1.76267e-10
1.76448e-10
1.76664e-10
1.76898e-10
1.77e-10
1.77324e-10
1.77092e-10
1.77398e-10
1.76777e-10
1.76613e-10
1.75506e-10
1.74119e-10
1.72298e-10
1.97889e-10
1.99603e-10
2.00889e-10
2.01902e-10
2.01984e-10
2.02501e-10
2.02139e-10
2.02299e-10
2.01928e-10
2.01777e-10
2.01503e-10
2.01251e-10
2.01038e-10
2.00798e-10
2.00612e-10
2.004e-10
2.00244e-10
2.00069e-10
1.99942e-10
1.99805e-10
1.99708e-10
1.99608e-10
1.99541e-10
1.99482e-10
1.99454e-10
1.99462e-10
1.99504e-10
1.99575e-10
1.99652e-10
1.99758e-10
1.99861e-10
2.00003e-10
2.00132e-10
2.00309e-10
2.00466e-10
2.00679e-10
2.00865e-10
2.01105e-10
2.01315e-10
2.01566e-10
2.01836e-10
2.0198e-10
2.02345e-10
2.02176e-10
2.02528e-10
2.01999e-10
2.01904e-10
2.00875e-10
1.99575e-10
1.97841e-10
2.22082e-10
2.23699e-10
2.24875e-10
2.25791e-10
2.25808e-10
2.2623e-10
2.25828e-10
2.25924e-10
2.25515e-10
2.25323e-10
2.25015e-10
2.24732e-10
2.2449e-10
2.24226e-10
2.24014e-10
2.23782e-10
2.23606e-10
2.23415e-10
2.23272e-10
2.23123e-10
2.23013e-10
2.22904e-10
2.22829e-10
2.22764e-10
2.22732e-10
2.22742e-10
2.22789e-10
2.22866e-10
2.22952e-10
2.23068e-10
2.23184e-10
2.23338e-10
2.23484e-10
2.23677e-10
2.23855e-10
2.24087e-10
2.24299e-10
2.24562e-10
2.24802e-10
2.25082e-10
2.25386e-10
2.25571e-10
2.25972e-10
2.25867e-10
2.26257e-10
2.25823e-10
2.2579e-10
2.24858e-10
2.23666e-10
2.22029e-10
2.44819e-10
2.46323e-10
2.47391e-10
2.48206e-10
2.48167e-10
2.48496e-10
2.48061e-10
2.48093e-10
2.47652e-10
2.47421e-10
2.4708e-10
2.46772e-10
2.465e-10
2.46214e-10
2.45979e-10
2.45729e-10
2.45533e-10
2.45328e-10
2.4517e-10
2.45009e-10
2.44888e-10
2.44771e-10
2.44688e-10
2.44618e-10
2.44584e-10
2.44594e-10
2.44645e-10
2.44729e-10
2.44822e-10
2.44948e-10
2.45075e-10
2.45241e-10
2.45402e-10
2.4561e-10
2.45807e-10
2.46057e-10
2.46292e-10
2.46577e-10
2.46846e-10
2.47152e-10
2.47487e-10
2.47712e-10
2.48144e-10
2.48101e-10
2.48524e-10
2.48181e-10
2.48204e-10
2.47371e-10
2.46284e-10
2.44761e-10
2.66184e-10
2.67582e-10
2.68545e-10
2.69265e-10
2.69175e-10
2.69417e-10
2.68953e-10
2.68925e-10
2.68455e-10
2.68186e-10
2.67815e-10
2.67484e-10
2.67184e-10
2.66878e-10
2.6662e-10
2.66354e-10
2.6614e-10
2.65922e-10
2.6575e-10
2.65578e-10
2.65447e-10
2.65322e-10
2.65232e-10
2.65157e-10
2.6512e-10
2.65132e-10
2.65187e-10
2.65276e-10
2.65377e-10
2.6551e-10
2.65649e-10
2.65825e-10
2.66001e-10
2.66222e-10
2.66437e-10
2.66703e-10
2.66961e-10
2.67266e-10
2.67562e-10
2.67891e-10
2.68256e-10
2.68517e-10
2.68978e-10
2.68995e-10
2.69446e-10
2.69188e-10
2.69261e-10
2.68522e-10
2.6754e-10
2.66121e-10
2.86335e-10
2.87636e-10
2.88497e-10
2.89126e-10
2.88991e-10
2.89151e-10
2.88662e-10
2.88576e-10
2.88079e-10
2.87775e-10
2.87376e-10
2.87023e-10
2.86697e-10
2.86372e-10
2.86093e-10
2.85812e-10
2.85581e-10
2.8535e-10
2.85165e-10
2.84984e-10
2.84842e-10
2.84711e-10
2.84614e-10
2.84535e-10
2.84496e-10
2.84508e-10
2.84566e-10
2.84661e-10
2.84769e-10
2.8491e-10
2.85058e-10
2.85245e-10
2.85434e-10
2.85667e-10
2.85899e-10
2.86181e-10
2.86459e-10
2.86783e-10
2.87106e-10
2.87456e-10
2.87849e-10
2.88144e-10
2.88631e-10
2.88706e-10
2.8918e-10
2.89004e-10
2.89121e-10
2.88471e-10
2.87589e-10
2.86266e-10
3.05362e-10
3.0657e-10
3.07335e-10
3.07876e-10
3.077e-10
3.07782e-10
3.07271e-10
3.07128e-10
3.06607e-10
3.0627e-10
3.05844e-10
3.0547e-10
3.0512e-10
3.04777e-10
3.04478e-10
3.04183e-10
3.03936e-10
3.03693e-10
3.03496e-10
3.03306e-10
3.03155e-10
3.03017e-10
3.02914e-10
3.02831e-10
3.02789e-10
3.02802e-10
3.02864e-10
3.02963e-10
3.03078e-10
3.03226e-10
3.03384e-10
3.03579e-10
3.03781e-10
3.04026e-10
3.04274e-10
3.0457e-10
3.04868e-10
3.05209e-10
3.05557e-10
3.05927e-10
3.06346e-10
3.06675e-10
3.07186e-10
3.07315e-10
3.07811e-10
3.07713e-10
3.07869e-10
3.07306e-10
3.06519e-10
3.05287e-10
3.23201e-10
3.24321e-10
3.24993e-10
3.25447e-10
3.25235e-10
3.25239e-10
3.2471e-10
3.24512e-10
3.23969e-10
3.23599e-10
3.2315e-10
3.22756e-10
3.22382e-10
3.22023e-10
3.21706e-10
3.21397e-10
3.21135e-10
3.20882e-10
3.20672e-10
3.20474e-10
3.20314e-10
3.2017e-10
3.20062e-10
3.19975e-10
3.19931e-10
3.19944e-10
3.2001e-10
3.20113e-10
3.20234e-10
3.20388e-10
3.20555e-10
3.20759e-10
3.20973e-10
3.21228e-10
3.21492e-10
3.21801e-10
3.22118e-10
3.22475e-10
3.22845e-10
3.23235e-10
3.23678e-10
3.24038e-10
3.2457e-10
3.24755e-10
3.25268e-10
3.25246e-10
3.25438e-10
3.24961e-10
3.24265e-10
3.2312e-10
3.39588e-10
3.40622e-10
3.41207e-10
3.41574e-10
3.41329e-10
3.41259e-10
3.40715e-10
3.40463e-10
3.39901e-10
3.39501e-10
3.3903e-10
3.38617e-10
3.38223e-10
3.37848e-10
3.37513e-10
3.37192e-10
3.36916e-10
3.36653e-10
3.36433e-10
3.36227e-10
3.3606e-10
3.3591e-10
3.35797e-10
3.35707e-10
3.3566e-10
3.35674e-10
3.35743e-10
3.3585e-10
3.35976e-10
3.36137e-10
3.36312e-10
3.36523e-10
3.36748e-10
3.37013e-10
3.37291e-10
3.37612e-10
3.37946e-10
3.38318e-10
3.38709e-10
3.39118e-10
3.39581e-10
3.39972e-10
3.40522e-10
3.40761e-10
3.41288e-10
3.41339e-10
3.41562e-10
3.41171e-10
3.40561e-10
3.39501e-10
3.5402e-10
3.5497e-10
3.55476e-10
3.55759e-10
3.55488e-10
3.55346e-10
3.54793e-10
3.54489e-10
3.53912e-10
3.53484e-10
3.52994e-10
3.52564e-10
3.52152e-10
3.51762e-10
3.51413e-10
3.51082e-10
3.50793e-10
3.50522e-10
3.50292e-10
3.50079e-10
3.49905e-10
3.4975e-10
3.49632e-10
3.4954e-10
3.49491e-10
3.49506e-10
3.49576e-10
3.49687e-10
3.49819e-10
3.49984e-10
3.50166e-10
3.50385e-10
3.50619e-10
3.50893e-10
3.51182e-10
3.51514e-10
3.51862e-10
3.52249e-10
3.52658e-10
3.53083e-10
3.53565e-10
3.53984e-10
3.54548e-10
3.54838e-10
3.55374e-10
3.55496e-10
3.55745e-10
3.55437e-10
3.54904e-10
3.53926e-10
3.65658e-10
3.66534e-10
3.66976e-10
3.67181e-10
3.6689e-10
3.66686e-10
3.66128e-10
3.65778e-10
3.65191e-10
3.64738e-10
3.64234e-10
3.6379e-10
3.63364e-10
3.6296e-10
3.62601e-10
3.62261e-10
3.61962e-10
3.61684e-10
3.61446e-10
3.61228e-10
3.61048e-10
3.6089e-10
3.60768e-10
3.60673e-10
3.60623e-10
3.60638e-10
3.60711e-10
3.60825e-10
3.6096e-10
3.6113e-10
3.61317e-10
3.61541e-10
3.61783e-10
3.62064e-10
3.62363e-10
3.62703e-10
3.63062e-10
3.63463e-10
3.63885e-10
3.64324e-10
3.6482e-10
3.65262e-10
3.65837e-10
3.66172e-10
3.66713e-10
3.66896e-10
3.67164e-10
3.66932e-10
3.66463e-10
3.65558e-10
3.73045e-10
3.73867e-10
3.74266e-10
3.74416e-10
3.74113e-10
3.73865e-10
3.73306e-10
3.72924e-10
3.72331e-10
3.71862e-10
3.71349e-10
3.70895e-10
3.70459e-10
3.70052e-10
3.69682e-10
3.69337e-10
3.69032e-10
3.68749e-10
3.68507e-10
3.68285e-10
3.68102e-10
3.6794e-10
3.67817e-10
3.6772e-10
3.67669e-10
3.67684e-10
3.67758e-10
3.67874e-10
3.68012e-10
3.68184e-10
3.68375e-10
3.68602e-10
3.68849e-10
3.69134e-10
3.69439e-10
3.69785e-10
3.70153e-10
3.70558e-10
3.7099e-10
3.71438e-10
3.71943e-10
3.72401e-10
3.72981e-10
3.73348e-10
3.73889e-10
3.74116e-10
3.74395e-10
3.74219e-10
3.73792e-10
3.7294e-10
)
;

boundaryField
{
    fuel
    {
        type            fixedValue;
        value           nonuniform 0();
    }
    wall
    {
        type            zeroGradient;
    }
    outlet
    {
        type            zeroGradient;
    }
    frontAndBack
    {
        type            empty;
    }
    procBoundary3to2
    {
        type            processor;
        value           nonuniform List<scalar> 
51
(
2.70652e-12
2.70522e-12
2.70492e-12
2.7041e-12
2.70414e-12
2.70359e-12
2.70372e-12
2.70333e-12
2.70343e-12
2.70315e-12
2.7032e-12
2.703e-12
2.703e-12
2.70292e-12
2.7029e-12
2.70295e-12
2.70292e-12
2.70309e-12
2.70303e-12
2.70329e-12
2.70319e-12
2.70356e-12
2.70344e-12
2.70398e-12
2.70394e-12
2.70476e-12
2.70506e-12
2.70633e-12
2.70769e-12
2.70992e-12
2.71287e-12
2.71735e-12
2.72646e-12
2.73612e-12
2.75398e-12
2.77597e-12
2.80082e-12
2.84623e-12
2.87085e-12
2.57963e-12
2.55685e-12
2.51854e-12
2.49595e-12
2.47609e-12
2.45994e-12
2.45136e-12
2.44314e-12
2.43916e-12
2.43641e-12
2.43436e-12
2.43436e-12
)
;
    }
}


// ************************************************************************* //
