/*--------------------------------*- C++ -*----------------------------------*\
| =========                 |                                                 |
| \\      /  F ield         | OpenFOAM: The Open Source CFD Toolbox           |
|  \\    /   O peration     | Version:  dev                                   |
|   \\  /    A nd           | Web:      www.OpenFOAM.org                      |
|    \\/     M anipulation  |                                                 |
\*---------------------------------------------------------------------------*/
FoamFile
{
    version     2.0;
    format      ascii;
    class       volScalarField;
    location    "0.035";
    object      HCCO;
}
// * * * * * * * * * * * * * * * * * * * * * * * * * * * * * * * * * * * * * //

dimensions      [0 0 0 0 0 0 0];

internalField   nonuniform List<scalar> 
250
(
8.28153e-05
8.27921e-05
8.28987e-05
8.28405e-05
8.2901e-05
8.28672e-05
8.28515e-05
8.30261e-05
8.38924e-05
9.18341e-05
4.47045e-08
4.34027e-05
4.33977e-05
4.34562e-05
4.34046e-05
4.34223e-05
4.34215e-05
4.34136e-05
4.35297e-05
4.3952e-05
4.81681e-05
2.84145e-08
2.17414e-05
2.17396e-05
2.17546e-05
2.17395e-05
2.17488e-05
2.17456e-05
2.17461e-05
2.17958e-05
2.20068e-05
2.43702e-05
1.37659e-08
1.13154e-05
1.13142e-05
1.13201e-05
1.1313e-05
1.13195e-05
1.13154e-05
1.13169e-05
1.13422e-05
1.14352e-05
1.30979e-05
7.42366e-09
6.42785e-06
6.4269e-06
6.43017e-06
6.42568e-06
6.43039e-06
6.42678e-06
6.42582e-06
6.43205e-06
6.44779e-06
7.76743e-06
5.14816e-09
3.98449e-06
3.98331e-06
3.9864e-06
3.98237e-06
3.98656e-06
3.98427e-06
3.98357e-06
4.01461e-06
4.04718e-06
5.09798e-06
5.43325e-09
2.82999e-06
2.8291e-06
2.83127e-06
2.82828e-06
2.83135e-06
2.82945e-06
2.82113e-06
2.84278e-06
2.84259e-06
3.63297e-06
1.28192e-08
2.19593e-06
2.19506e-06
2.19724e-06
2.19441e-06
2.19737e-06
2.19672e-06
2.20768e-06
2.22749e-06
2.17216e-06
2.74892e-06
6.1827e-08
1.85921e-06
1.85848e-06
1.86031e-06
1.85789e-06
1.86039e-06
1.85997e-06
1.86564e-06
1.8669e-06
1.8135e-06
2.17127e-06
2.85237e-07
1.63093e-06
1.63034e-06
1.63184e-06
1.62982e-06
1.63193e-06
1.63178e-06
1.63489e-06
1.6362e-06
1.57748e-06
1.77028e-06
8.17323e-07
1.49702e-06
1.49841e-06
1.49652e-06
1.49849e-06
1.49854e-06
1.5004e-06
1.502e-06
1.41653e-06
1.48006e-06
1.56731e-06
1.38811e-06
1.38939e-06
1.38764e-06
1.38948e-06
1.38975e-06
1.39124e-06
1.39626e-06
1.31449e-06
1.26415e-06
2.13085e-06
1.3014e-06
1.3026e-06
1.30095e-06
1.30273e-06
1.30322e-06
1.30438e-06
1.31019e-06
1.22934e-06
1.10085e-06
2.24124e-06
1.22729e-06
1.22844e-06
1.22684e-06
1.22862e-06
1.22932e-06
1.23034e-06
1.23723e-06
1.15657e-06
9.73607e-07
2.05263e-06
1.16075e-06
1.16188e-06
1.16031e-06
1.16212e-06
1.16303e-06
1.16402e-06
1.1722e-06
1.09385e-06
8.62317e-07
1.75565e-06
1.09906e-06
1.10018e-06
1.09863e-06
1.1005e-06
1.10161e-06
1.10265e-06
1.11224e-06
1.03789e-06
7.88895e-07
1.44185e-06
1.04065e-06
1.04178e-06
1.04024e-06
1.0422e-06
1.0435e-06
1.04461e-06
1.05569e-06
9.86579e-07
7.33181e-07
1.15313e-06
9.84555e-07
9.85701e-07
9.84164e-07
9.86227e-07
9.87708e-07
9.88878e-07
1.00149e-06
9.38479e-07
6.91175e-07
9.11122e-07
9.30098e-07
9.31274e-07
9.29733e-07
9.31914e-07
9.33554e-07
9.34717e-07
9.48911e-07
8.9254e-07
6.59522e-07
7.23444e-07
8.76754e-07
8.77969e-07
8.76392e-07
8.78731e-07
8.80505e-07
8.81479e-07
8.97345e-07
8.47924e-07
6.35292e-07
5.87418e-07
8.2406e-07
8.25322e-07
8.2352e-07
8.26208e-07
8.28096e-07
8.28512e-07
8.46283e-07
8.03925e-07
6.15906e-07
4.94476e-07
7.71553e-07
7.72871e-07
7.69968e-07
7.73889e-07
7.75858e-07
7.75107e-07
7.95236e-07
7.59915e-07
5.99132e-07
4.33786e-07
7.18699e-07
7.20085e-07
7.19967e-07
7.2126e-07
7.23267e-07
7.26953e-07
7.43698e-07
7.15309e-07
5.83106e-07
3.9499e-07
6.71097e-07
6.7257e-07
6.71521e-07
6.73871e-07
6.75934e-07
6.78681e-07
6.9767e-07
6.69533e-07
5.66454e-07
3.70192e-07
)
;

boundaryField
{
    fuel
    {
        type            fixedValue;
        value           uniform 0;
    }
    wall
    {
        type            zeroGradient;
    }
    outlet
    {
        type            zeroGradient;
    }
    frontAndBack
    {
        type            empty;
    }
    procBoundary3to0
    {
        type            processor;
        value           nonuniform List<scalar> 10(6.23406e-07 6.24981e-07 6.23698e-07 6.26415e-07 6.28512e-07 6.30676e-07 6.47598e-07 6.27216e-07 5.47871e-07 3.55083e-07);
    }
    procBoundary3to2
    {
        type            processor;
        value           nonuniform List<scalar> 
25
(
8.28057e-05
4.34393e-05
2.17507e-05
1.13189e-05
6.42972e-06
3.98589e-06
2.83097e-06
2.19693e-06
1.86014e-06
1.63184e-06
1.49754e-06
1.49754e-06
1.38847e-06
1.30164e-06
1.22741e-06
1.16076e-06
1.09896e-06
1.04046e-06
9.84268e-07
9.29723e-07
8.76287e-07
8.23417e-07
7.70088e-07
7.1893e-07
6.70626e-07
)
;
    }
}


// ************************************************************************* //
