/*--------------------------------*- C++ -*----------------------------------*\
| =========                 |                                                 |
| \\      /  F ield         | OpenFOAM: The Open Source CFD Toolbox           |
|  \\    /   O peration     | Version:  dev                                   |
|   \\  /    A nd           | Web:      www.OpenFOAM.org                      |
|    \\/     M anipulation  |                                                 |
\*---------------------------------------------------------------------------*/
FoamFile
{
    version     2.0;
    format      ascii;
    class       volScalarField;
    location    "0.035";
    object      i-A1C2H2;
}
// * * * * * * * * * * * * * * * * * * * * * * * * * * * * * * * * * * * * * //

dimensions      [0 0 0 0 0 0 0];

internalField   nonuniform List<scalar> 
250
(
1.12874e-08
1.1287e-08
1.12873e-08
1.12868e-08
1.12882e-08
1.12869e-08
1.12956e-08
1.13174e-08
1.1535e-08
1.24413e-08
3.04153e-09
3.4169e-09
3.41664e-09
3.41702e-09
3.41649e-09
3.41808e-09
3.41618e-09
3.42575e-09
3.43018e-09
3.58657e-09
4.04263e-09
2.07256e-08
1.25796e-09
1.2578e-09
1.25815e-09
1.25763e-09
1.25924e-09
1.25707e-09
1.26568e-09
1.26454e-09
1.37545e-09
1.62631e-09
7.43451e-09
5.90958e-10
5.90854e-10
5.91138e-10
5.90688e-10
5.92142e-10
5.90047e-10
5.97486e-10
5.94732e-10
6.79759e-10
8.43364e-10
3.22637e-09
3.2405e-10
3.23978e-10
3.24199e-10
3.23836e-10
3.25054e-10
3.23236e-10
3.29465e-10
3.26344e-10
3.96899e-10
5.11727e-10
1.30492e-09
1.98713e-10
1.98661e-10
1.98833e-10
1.98547e-10
1.99542e-10
1.98031e-10
2.03165e-10
2.00059e-10
2.43585e-10
3.49737e-10
6.71977e-10
1.27256e-10
1.27218e-10
1.27334e-10
1.27146e-10
1.27872e-10
1.26785e-10
1.30832e-10
1.28925e-10
1.71445e-10
2.57164e-10
4.56195e-10
9.03544e-11
9.03224e-11
9.04146e-11
9.02677e-11
9.08602e-11
8.99825e-11
9.33225e-11
9.15513e-11
1.23782e-10
2.04532e-10
3.94959e-10
6.62137e-11
6.61956e-11
6.62699e-11
6.61576e-11
6.66313e-11
6.59449e-11
6.88252e-11
6.78257e-11
9.30604e-11
1.74504e-10
4.16089e-10
5.05638e-11
5.05499e-11
5.06036e-11
5.05265e-11
5.08785e-11
5.03915e-11
5.26244e-11
5.20708e-11
7.261e-11
1.54761e-10
4.90458e-10
4.01849e-11
4.02259e-11
4.01698e-11
4.04367e-11
4.0087e-11
4.18342e-11
4.16166e-11
5.95329e-11
1.39855e-10
5.9565e-10
3.30451e-11
3.30779e-11
3.30347e-11
3.32426e-11
3.2988e-11
3.43859e-11
3.4433e-11
5.02973e-11
1.28326e-10
7.09689e-10
2.79477e-11
2.79751e-11
2.79399e-11
2.81068e-11
2.79185e-11
2.90664e-11
2.93146e-11
4.34459e-11
1.18615e-10
8.13008e-10
2.41779e-11
2.42016e-11
2.41715e-11
2.43095e-11
2.41679e-11
2.51343e-11
2.55298e-11
3.82889e-11
1.09763e-10
8.91759e-10
2.1294e-11
2.13153e-11
2.12884e-11
2.14055e-11
2.12976e-11
2.21289e-11
2.2629e-11
3.42357e-11
1.01655e-10
9.39008e-10
1.90198e-11
1.90391e-11
1.90146e-11
1.91161e-11
1.90329e-11
1.97606e-11
2.0333e-11
3.09389e-11
9.37231e-11
9.53364e-10
1.71804e-11
1.71981e-11
1.71754e-11
1.72646e-11
1.72004e-11
1.78456e-11
1.84659e-11
2.81798e-11
8.61743e-11
9.3687e-10
1.56634e-11
1.56797e-11
1.56587e-11
1.57378e-11
1.56886e-11
1.62651e-11
1.69154e-11
2.5819e-11
7.86178e-11
8.93663e-10
1.43954e-11
1.44102e-11
1.43909e-11
1.44613e-11
1.44245e-11
1.49414e-11
1.5609e-11
2.37672e-11
7.12453e-11
8.29394e-10
1.33272e-11
1.33404e-11
1.33232e-11
1.33854e-11
1.33595e-11
1.3822e-11
1.44987e-11
2.19648e-11
6.43022e-11
7.50809e-10
1.24251e-11
1.24364e-11
1.24217e-11
1.24756e-11
1.24605e-11
1.28699e-11
1.35525e-11
2.03719e-11
5.78513e-11
6.66608e-10
1.16648e-11
1.16738e-11
1.16625e-11
1.17068e-11
1.17039e-11
1.20565e-11
1.27489e-11
1.89619e-11
5.21647e-11
5.60303e-10
1.11117e-11
1.11191e-11
1.11099e-11
1.11501e-11
1.11512e-11
1.14737e-11
1.21447e-11
1.77141e-11
4.68881e-11
4.75746e-10
1.06334e-11
1.06393e-11
1.06325e-11
1.06667e-11
1.06752e-11
1.09618e-11
1.1624e-11
1.66063e-11
4.21037e-11
4.00758e-10
)
;

boundaryField
{
    fuel
    {
        type            fixedValue;
        value           uniform 0;
    }
    wall
    {
        type            zeroGradient;
    }
    outlet
    {
        type            zeroGradient;
    }
    frontAndBack
    {
        type            empty;
    }
    procBoundary3to0
    {
        type            processor;
        value           nonuniform List<scalar> 10(1.03004e-11 1.03043e-11 1.03007e-11 1.03294e-11 1.03443e-11 1.05983e-11 1.12455e-11 1.56113e-11 3.78589e-11 3.38623e-10);
    }
    procBoundary3to2
    {
        type            processor;
        value           nonuniform List<scalar> 
25
(
1.12876e-08
3.41687e-09
1.25798e-09
5.90997e-10
3.24089e-10
1.98746e-10
1.27274e-10
9.03661e-11
6.62305e-11
5.05747e-11
4.01956e-11
4.01956e-11
3.30532e-11
2.7954e-11
2.41829e-11
2.1298e-11
1.9023e-11
1.7183e-11
1.56656e-11
1.43972e-11
1.33287e-11
1.24263e-11
1.16658e-11
1.11125e-11
1.0634e-11
)
;
    }
}


// ************************************************************************* //
