/*--------------------------------*- C++ -*----------------------------------*\
| =========                 |                                                 |
| \\      /  F ield         | OpenFOAM: The Open Source CFD Toolbox           |
|  \\    /   O peration     | Version:  dev                                   |
|   \\  /    A nd           | Web:      www.OpenFOAM.org                      |
|    \\/     M anipulation  |                                                 |
\*---------------------------------------------------------------------------*/
FoamFile
{
    version     2.0;
    format      ascii;
    class       volScalarField;
    location    "0.035";
    object      O;
}
// * * * * * * * * * * * * * * * * * * * * * * * * * * * * * * * * * * * * * //

dimensions      [0 0 0 0 0 0 0];

internalField   nonuniform List<scalar> 
1989
(
5.53913e-10
5.53515e-10
5.53461e-10
5.53216e-10
5.53274e-10
5.53118e-10
5.53195e-10
5.53088e-10
5.53149e-10
5.53074e-10
5.53109e-10
5.53056e-10
5.53067e-10
5.53043e-10
5.53035e-10
5.53047e-10
5.53024e-10
5.53066e-10
5.53023e-10
5.53094e-10
5.53029e-10
5.53132e-10
5.53052e-10
5.53208e-10
5.5315e-10
5.53394e-10
5.53445e-10
5.5384e-10
5.54251e-10
5.54965e-10
5.56008e-10
5.57471e-10
5.60703e-10
5.64003e-10
5.70544e-10
5.78514e-10
5.87952e-10
6.03856e-10
6.13715e-10
5.02683e-10
4.94237e-10
4.80824e-10
4.72856e-10
4.66176e-10
4.60697e-10
4.58e-10
4.55295e-10
4.54106e-10
4.53216e-10
4.52627e-10
4.52288e-10
4.51957e-10
4.51916e-10
4.5171e-10
4.51761e-10
4.51629e-10
4.51695e-10
4.51605e-10
4.51657e-10
4.51593e-10
4.51623e-10
4.51578e-10
4.51588e-10
4.51567e-10
4.51561e-10
4.51571e-10
4.51551e-10
4.51588e-10
4.51551e-10
4.51611e-10
4.51556e-10
4.51643e-10
4.51575e-10
4.51706e-10
4.51656e-10
4.5186e-10
4.519e-10
4.52228e-10
4.52566e-10
4.53152e-10
4.54042e-10
4.5523e-10
4.57941e-10
4.60644e-10
4.66127e-10
4.72818e-10
4.8079e-10
4.94213e-10
5.02661e-10
4.09068e-10
4.01878e-10
3.90635e-10
3.83974e-10
3.78383e-10
3.73838e-10
3.71648e-10
3.69394e-10
3.68435e-10
3.67682e-10
3.67202e-10
3.66921e-10
3.66648e-10
3.66617e-10
3.66446e-10
3.6649e-10
3.66379e-10
3.66435e-10
3.6636e-10
3.66403e-10
3.6635e-10
3.66374e-10
3.66337e-10
3.66345e-10
3.66327e-10
3.66322e-10
3.66331e-10
3.66315e-10
3.66345e-10
3.66315e-10
3.66365e-10
3.66319e-10
3.66393e-10
3.66335e-10
3.66445e-10
3.66401e-10
3.66571e-10
3.66601e-10
3.66872e-10
3.67149e-10
3.67627e-10
3.68379e-10
3.69337e-10
3.71597e-10
3.73791e-10
3.78341e-10
3.8394e-10
3.90605e-10
4.01855e-10
4.09048e-10
3.30704e-10
3.24621e-10
3.15262e-10
3.09724e-10
3.05126e-10
3.01361e-10
2.99598e-10
2.97732e-10
2.96965e-10
2.96333e-10
2.95943e-10
2.95714e-10
2.9549e-10
2.95466e-10
2.95324e-10
2.95362e-10
2.9527e-10
2.95317e-10
2.95254e-10
2.9529e-10
2.95246e-10
2.95266e-10
2.95235e-10
2.95241e-10
2.95227e-10
2.95223e-10
2.9523e-10
2.95217e-10
2.95243e-10
2.95217e-10
2.9526e-10
2.95221e-10
2.95282e-10
2.95234e-10
2.95326e-10
2.95288e-10
2.95429e-10
2.95451e-10
2.95674e-10
2.95899e-10
2.96286e-10
2.96917e-10
2.97682e-10
2.99553e-10
3.0132e-10
3.0509e-10
3.09694e-10
3.15235e-10
3.246e-10
3.30684e-10
2.65439e-10
2.60463e-10
2.5272e-10
2.48157e-10
2.44433e-10
2.4132e-10
2.39913e-10
2.38379e-10
2.3777e-10
2.37244e-10
2.3693e-10
2.36744e-10
2.36561e-10
2.36544e-10
2.36427e-10
2.36459e-10
2.36383e-10
2.36422e-10
2.36369e-10
2.364e-10
2.36362e-10
2.36379e-10
2.36353e-10
2.36358e-10
2.36346e-10
2.36343e-10
2.36349e-10
2.36339e-10
2.3636e-10
2.36339e-10
2.36375e-10
2.36343e-10
2.36394e-10
2.36354e-10
2.3643e-10
2.36398e-10
2.36514e-10
2.3653e-10
2.36711e-10
2.36893e-10
2.37205e-10
2.37729e-10
2.38337e-10
2.39875e-10
2.41286e-10
2.44402e-10
2.48131e-10
2.52696e-10
2.60444e-10
2.65425e-10
2.11719e-10
2.07592e-10
2.01229e-10
1.97498e-10
1.94526e-10
1.91961e-10
1.90849e-10
1.89596e-10
1.89116e-10
1.88682e-10
1.88431e-10
1.88282e-10
1.88134e-10
1.88121e-10
1.88025e-10
1.88052e-10
1.87989e-10
1.88021e-10
1.87978e-10
1.88003e-10
1.87972e-10
1.87985e-10
1.87964e-10
1.87968e-10
1.87958e-10
1.87955e-10
1.87961e-10
1.87952e-10
1.8797e-10
1.87953e-10
1.87983e-10
1.87956e-10
1.87999e-10
1.87966e-10
1.88029e-10
1.88002e-10
1.88097e-10
1.88109e-10
1.88256e-10
1.88401e-10
1.8865e-10
1.89082e-10
1.8956e-10
1.90817e-10
1.91932e-10
1.945e-10
1.97475e-10
2.01208e-10
2.07575e-10
2.11706e-10
1.67283e-10
1.63771e-10
1.58535e-10
1.55509e-10
1.53144e-10
1.5105e-10
1.50172e-10
1.49156e-10
1.48779e-10
1.48425e-10
1.48225e-10
1.48106e-10
1.47987e-10
1.47978e-10
1.479e-10
1.47922e-10
1.47871e-10
1.47897e-10
1.47861e-10
1.47881e-10
1.47856e-10
1.47867e-10
1.47849e-10
1.47852e-10
1.47844e-10
1.47842e-10
1.47847e-10
1.4784e-10
1.47855e-10
1.47841e-10
1.47865e-10
1.47844e-10
1.47879e-10
1.47852e-10
1.47904e-10
1.47881e-10
1.47959e-10
1.47967e-10
1.48085e-10
1.48201e-10
1.48399e-10
1.48752e-10
1.49127e-10
1.50146e-10
1.51026e-10
1.53121e-10
1.55489e-10
1.58517e-10
1.63755e-10
1.6727e-10
1.30875e-10
1.27986e-10
1.23829e-10
1.21407e-10
1.19559e-10
1.17884e-10
1.17203e-10
1.16394e-10
1.16103e-10
1.15819e-10
1.15662e-10
1.15568e-10
1.15474e-10
1.15467e-10
1.15405e-10
1.15423e-10
1.15381e-10
1.15402e-10
1.15373e-10
1.15389e-10
1.15368e-10
1.15377e-10
1.15362e-10
1.15365e-10
1.15358e-10
1.15356e-10
1.1536e-10
1.15355e-10
1.15367e-10
1.15357e-10
1.15376e-10
1.1536e-10
1.15388e-10
1.15367e-10
1.15408e-10
1.15391e-10
1.15452e-10
1.15459e-10
1.15552e-10
1.15643e-10
1.15798e-10
1.16081e-10
1.16371e-10
1.17181e-10
1.17864e-10
1.19541e-10
1.21391e-10
1.23813e-10
1.27973e-10
1.30864e-10
1.0163e-10
9.9261e-11
9.60019e-11
9.40785e-11
9.26467e-11
9.13179e-11
9.07948e-11
9.01563e-11
8.99333e-11
8.97071e-11
8.95852e-11
8.95115e-11
8.94376e-11
8.94319e-11
8.93828e-11
8.93963e-11
8.93634e-11
8.93793e-11
8.93562e-11
8.93683e-11
8.93517e-11
8.93582e-11
8.93465e-11
8.93481e-11
8.93427e-11
8.93414e-11
8.93447e-11
8.93409e-11
8.93509e-11
8.93428e-11
8.93587e-11
8.93461e-11
8.93687e-11
8.93524e-11
8.93853e-11
8.93718e-11
8.94206e-11
8.94259e-11
8.94992e-11
8.95704e-11
8.96905e-11
8.99156e-11
9.01376e-11
9.07775e-11
9.1302e-11
9.26318e-11
9.40653e-11
9.59891e-11
9.92497e-11
1.01621e-10
7.83138e-11
7.63769e-11
7.3849e-11
7.23391e-11
7.12392e-11
7.01955e-11
6.97974e-11
6.92975e-11
6.91281e-11
6.89497e-11
6.88555e-11
6.87981e-11
6.87403e-11
6.87356e-11
6.86969e-11
6.87071e-11
6.86808e-11
6.86928e-11
6.86743e-11
6.86834e-11
6.867e-11
6.86748e-11
6.86653e-11
6.86664e-11
6.8662e-11
6.8661e-11
6.86638e-11
6.86611e-11
6.86693e-11
6.86633e-11
6.86762e-11
6.86667e-11
6.86849e-11
6.86726e-11
6.86988e-11
6.86885e-11
6.87272e-11
6.87315e-11
6.87888e-11
6.88441e-11
6.89368e-11
6.91142e-11
6.92828e-11
6.97837e-11
7.01828e-11
7.12272e-11
7.23283e-11
7.38383e-11
7.63674e-11
7.83057e-11
5.98461e-11
5.82984e-11
5.63446e-11
5.51758e-11
5.43388e-11
5.35282e-11
5.32281e-11
5.28406e-11
5.2713e-11
5.25736e-11
5.25013e-11
5.24568e-11
5.24119e-11
5.24079e-11
5.23774e-11
5.23848e-11
5.2364e-11
5.23728e-11
5.2358e-11
5.23647e-11
5.23539e-11
5.23572e-11
5.23495e-11
5.23501e-11
5.23466e-11
5.23458e-11
5.23482e-11
5.23464e-11
5.23531e-11
5.23489e-11
5.23593e-11
5.23524e-11
5.2367e-11
5.23579e-11
5.23788e-11
5.23713e-11
5.24017e-11
5.24055e-11
5.245e-11
5.24927e-11
5.25637e-11
5.27022e-11
5.28292e-11
5.32174e-11
5.35181e-11
5.43291e-11
5.5167e-11
5.63358e-11
5.82905e-11
5.98395e-11
4.55732e-11
4.43521e-11
4.28519e-11
4.1943e-11
4.13099e-11
4.06803e-11
4.0457e-11
4.01563e-11
4.0061e-11
3.99521e-11
3.98967e-11
3.98622e-11
3.98271e-11
3.98237e-11
3.97994e-11
3.98047e-11
3.97879e-11
3.97944e-11
3.97823e-11
3.97871e-11
3.97783e-11
3.97805e-11
3.97743e-11
3.97745e-11
3.97716e-11
3.97711e-11
3.97731e-11
3.9772e-11
3.97776e-11
3.97747e-11
3.97832e-11
3.97783e-11
3.97901e-11
3.97836e-11
3.98004e-11
3.97951e-11
3.98192e-11
3.98224e-11
3.98573e-11
3.98904e-11
3.99447e-11
4.00528e-11
4.01475e-11
4.04486e-11
4.06725e-11
4.13022e-11
4.19359e-11
4.28446e-11
4.43451e-11
4.5568e-11
3.44581e-11
3.35071e-11
3.23645e-11
3.16662e-11
3.11919e-11
3.07082e-11
3.05438e-11
3.03128e-11
3.02423e-11
3.01581e-11
3.01158e-11
3.00891e-11
3.00618e-11
3.00587e-11
3.00395e-11
3.0043e-11
3.00296e-11
3.0034e-11
3.00242e-11
3.00275e-11
3.00203e-11
3.00217e-11
3.00166e-11
3.00165e-11
3.00141e-11
3.00137e-11
3.00155e-11
3.0015e-11
3.00196e-11
3.00177e-11
3.00247e-11
3.00214e-11
3.00311e-11
3.00266e-11
3.00401e-11
3.00365e-11
3.00557e-11
3.00586e-11
3.00858e-11
3.01113e-11
3.01526e-11
3.02362e-11
3.03062e-11
3.05374e-11
3.07021e-11
3.11858e-11
3.16605e-11
3.23585e-11
3.3501e-11
3.44541e-11
2.58876e-11
2.51469e-11
2.42921e-11
2.37601e-11
2.34083e-11
2.30334e-11
2.29099e-11
2.27285e-11
2.26752e-11
2.26086e-11
2.25754e-11
2.2554e-11
2.2532e-11
2.2529e-11
2.25132e-11
2.25153e-11
2.25041e-11
2.25068e-11
2.24986e-11
2.25006e-11
2.24945e-11
2.24951e-11
2.24907e-11
2.24904e-11
2.24884e-11
2.24881e-11
2.24897e-11
2.24896e-11
2.24936e-11
2.24926e-11
2.24986e-11
2.24966e-11
2.25047e-11
2.25019e-11
2.25132e-11
2.25111e-11
2.25268e-11
2.25297e-11
2.25516e-11
2.25718e-11
2.26041e-11
2.26702e-11
2.27231e-11
2.29046e-11
2.30283e-11
2.34035e-11
2.37555e-11
2.42872e-11
2.51417e-11
2.58844e-11
1.93393e-11
1.87751e-11
1.81392e-11
1.77389e-11
1.74806e-11
1.71976e-11
1.7108e-11
1.69705e-11
1.69313e-11
1.68802e-11
1.6855e-11
1.68382e-11
1.6821e-11
1.6818e-11
1.68055e-11
1.68064e-11
1.67973e-11
1.67988e-11
1.67921e-11
1.67931e-11
1.6788e-11
1.67881e-11
1.67845e-11
1.6784e-11
1.67823e-11
1.67821e-11
1.67835e-11
1.67838e-11
1.67871e-11
1.67868e-11
1.67918e-11
1.67908e-11
1.67975e-11
1.67959e-11
1.68051e-11
1.68042e-11
1.68167e-11
1.68196e-11
1.68366e-11
1.68524e-11
1.6877e-11
1.69277e-11
1.69665e-11
1.7104e-11
1.71937e-11
1.74768e-11
1.77352e-11
1.81352e-11
1.87707e-11
1.93367e-11
1.43905e-11
1.39719e-11
1.35003e-11
1.32028e-11
1.30152e-11
1.28037e-11
1.27393e-11
1.26358e-11
1.26071e-11
1.25681e-11
1.25488e-11
1.25356e-11
1.2522e-11
1.25191e-11
1.2509e-11
1.25091e-11
1.25016e-11
1.25022e-11
1.24966e-11
1.24969e-11
1.24927e-11
1.24924e-11
1.24894e-11
1.24887e-11
1.24874e-11
1.24872e-11
1.24885e-11
1.24889e-11
1.24918e-11
1.2492e-11
1.24961e-11
1.24959e-11
1.25014e-11
1.25009e-11
1.25083e-11
1.25083e-11
1.25184e-11
1.25212e-11
1.25347e-11
1.25471e-11
1.25659e-11
1.26045e-11
1.26329e-11
1.27363e-11
1.28007e-11
1.30123e-11
1.31999e-11
1.3497e-11
1.39682e-11
1.43883e-11
1.06333e-11
1.03298e-11
9.98535e-12
9.77064e-12
9.6365e-12
9.48285e-12
9.43682e-12
9.3608e-12
9.33974e-12
9.31055e-12
9.29589e-12
9.28553e-12
9.27499e-12
9.27214e-12
9.26413e-12
9.26347e-12
9.25746e-12
9.25729e-12
9.25275e-12
9.25245e-12
9.24901e-12
9.24839e-12
9.24592e-12
9.24522e-12
9.24407e-12
9.24402e-12
9.2451e-12
9.24571e-12
9.24813e-12
9.24866e-12
9.2521e-12
9.25243e-12
9.25699e-12
9.25717e-12
9.2632e-12
9.26388e-12
9.27188e-12
9.27469e-12
9.28514e-12
9.29495e-12
9.3092e-12
9.33807e-12
9.35884e-12
9.43476e-12
9.48072e-12
9.63431e-12
9.76839e-12
9.98276e-12
1.0327e-11
1.06314e-11
7.90742e-12
7.68936e-12
7.44027e-12
7.28445e-12
7.18902e-12
7.07689e-12
7.04411e-12
6.98789e-12
6.97231e-12
6.95017e-12
6.9388e-12
6.93047e-12
6.92206e-12
6.91924e-12
6.91271e-12
6.91156e-12
6.90658e-12
6.90588e-12
6.90207e-12
6.90138e-12
6.89846e-12
6.89765e-12
6.89556e-12
6.89481e-12
6.89384e-12
6.89382e-12
6.89479e-12
6.89551e-12
6.89759e-12
6.89837e-12
6.90131e-12
6.90204e-12
6.90588e-12
6.90659e-12
6.9116e-12
6.91276e-12
6.91929e-12
6.92208e-12
6.93041e-12
6.93832e-12
6.94935e-12
6.97121e-12
6.98655e-12
7.04264e-12
7.07531e-12
7.18733e-12
7.28266e-12
7.43817e-12
7.68701e-12
7.90565e-12
5.92056e-12
5.76465e-12
5.5883e-12
5.47588e-12
5.40854e-12
5.32748e-12
5.3041e-12
5.26276e-12
5.25106e-12
5.23424e-12
5.2253e-12
5.21848e-12
5.21168e-12
5.20892e-12
5.20352e-12
5.20204e-12
5.19786e-12
5.19679e-12
5.19355e-12
5.19259e-12
5.1901e-12
5.18916e-12
5.18737e-12
5.18661e-12
5.18577e-12
5.18579e-12
5.18665e-12
5.18744e-12
5.18925e-12
5.19019e-12
5.19272e-12
5.19372e-12
5.19699e-12
5.19808e-12
5.20229e-12
5.20379e-12
5.20918e-12
5.21192e-12
5.21865e-12
5.22514e-12
5.2338e-12
5.25039e-12
5.26186e-12
5.30307e-12
5.32632e-12
5.40724e-12
5.47446e-12
5.58661e-12
5.76273e-12
5.91894e-12
4.49167e-12
4.38115e-12
4.258e-12
4.17786e-12
4.13061e-12
4.0725e-12
4.05568e-12
4.02538e-12
4.01641e-12
4.00355e-12
3.99639e-12
3.9907e-12
3.98512e-12
3.98242e-12
3.97791e-12
3.9762e-12
3.97265e-12
3.97134e-12
3.96855e-12
3.96743e-12
3.96527e-12
3.96426e-12
3.9627e-12
3.96194e-12
3.96122e-12
3.96125e-12
3.96203e-12
3.96284e-12
3.96444e-12
3.96548e-12
3.96768e-12
3.96885e-12
3.97167e-12
3.973e-12
3.97659e-12
3.9783e-12
3.98282e-12
3.9855e-12
3.99103e-12
3.99645e-12
4.00338e-12
4.01604e-12
4.02481e-12
4.05496e-12
4.07165e-12
4.12961e-12
4.17672e-12
4.25663e-12
4.37958e-12
4.49019e-12
3.47986e-12
3.40214e-12
3.31733e-12
3.26092e-12
3.22785e-12
3.18648e-12
3.17416e-12
3.152e-12
3.1449e-12
3.13497e-12
3.1291e-12
3.12426e-12
3.1196e-12
3.11697e-12
3.11313e-12
3.11129e-12
3.10822e-12
3.10677e-12
3.10433e-12
3.1031e-12
3.10121e-12
3.10016e-12
3.0988e-12
3.09804e-12
3.09741e-12
3.09746e-12
3.09817e-12
3.09899e-12
3.10041e-12
3.1015e-12
3.10344e-12
3.10471e-12
3.10718e-12
3.10866e-12
3.11176e-12
3.11361e-12
3.11745e-12
3.12007e-12
3.12468e-12
3.12931e-12
3.13499e-12
3.14474e-12
3.15166e-12
3.17368e-12
3.18586e-12
3.22707e-12
3.26e-12
3.3162e-12
3.40083e-12
3.47851e-12
2.77753e-12
2.7223e-12
2.66357e-12
2.62359e-12
2.60001e-12
2.57039e-12
2.56099e-12
2.54463e-12
2.53877e-12
2.53095e-12
2.526e-12
2.52177e-12
2.5178e-12
2.51524e-12
2.5119e-12
2.51e-12
2.50731e-12
2.50577e-12
2.50361e-12
2.50233e-12
2.50065e-12
2.49959e-12
2.49837e-12
2.49764e-12
2.49708e-12
2.49713e-12
2.49778e-12
2.49859e-12
2.49987e-12
2.50098e-12
2.50271e-12
2.50404e-12
2.50623e-12
2.50779e-12
2.51051e-12
2.51243e-12
2.51577e-12
2.51831e-12
2.52225e-12
2.5263e-12
2.53109e-12
2.53876e-12
2.54445e-12
2.56067e-12
2.56994e-12
2.5994e-12
2.62283e-12
2.66262e-12
2.72119e-12
2.77628e-12
2.30367e-12
2.26582e-12
2.22628e-12
2.1985e-12
2.18168e-12
2.1607e-12
2.15327e-12
2.1412e-12
2.13618e-12
2.1299e-12
2.1256e-12
2.12182e-12
2.11834e-12
2.11585e-12
2.11289e-12
2.11094e-12
2.10852e-12
2.10693e-12
2.10498e-12
2.10366e-12
2.10214e-12
2.10108e-12
2.09998e-12
2.09926e-12
2.09875e-12
2.0988e-12
2.09941e-12
2.10021e-12
2.10139e-12
2.1025e-12
2.10408e-12
2.10544e-12
2.10742e-12
2.10904e-12
2.11148e-12
2.11343e-12
2.1164e-12
2.11888e-12
2.12233e-12
2.12596e-12
2.13013e-12
2.13626e-12
2.14114e-12
2.15308e-12
2.16036e-12
2.18119e-12
2.19785e-12
2.22545e-12
2.26485e-12
2.30253e-12
2.0003e-12
1.97542e-12
1.94884e-12
1.92976e-12
1.91749e-12
1.90262e-12
1.89642e-12
1.88742e-12
1.8829e-12
1.87772e-12
1.87385e-12
1.87037e-12
1.86724e-12
1.86478e-12
1.86207e-12
1.86009e-12
1.85786e-12
1.85623e-12
1.85443e-12
1.85309e-12
1.85167e-12
1.85061e-12
1.84959e-12
1.84888e-12
1.84841e-12
1.84847e-12
1.84904e-12
1.84984e-12
1.85094e-12
1.85205e-12
1.85352e-12
1.85491e-12
1.85674e-12
1.8584e-12
1.86064e-12
1.86264e-12
1.86534e-12
1.86779e-12
1.8709e-12
1.87425e-12
1.878e-12
1.88306e-12
1.88744e-12
1.89631e-12
1.90237e-12
1.91709e-12
1.92921e-12
1.9481e-12
1.97452e-12
1.99925e-12
1.82629e-12
1.8104e-12
1.79272e-12
1.77984e-12
1.77048e-12
1.75993e-12
1.75438e-12
1.74759e-12
1.74329e-12
1.73886e-12
1.73523e-12
1.73193e-12
1.72901e-12
1.72654e-12
1.724e-12
1.72196e-12
1.71985e-12
1.71817e-12
1.71645e-12
1.71508e-12
1.71373e-12
1.71265e-12
1.71168e-12
1.71097e-12
1.71052e-12
1.71059e-12
1.71114e-12
1.71194e-12
1.713e-12
1.71413e-12
1.71553e-12
1.71695e-12
1.7187e-12
1.72041e-12
1.72253e-12
1.72458e-12
1.72712e-12
1.72958e-12
1.73248e-12
1.73567e-12
1.73919e-12
1.7435e-12
1.74767e-12
1.75432e-12
1.75973e-12
1.77014e-12
1.77933e-12
1.79204e-12
1.80956e-12
1.82528e-12
1.75577e-12
1.74625e-12
1.73472e-12
1.72627e-12
1.71874e-12
1.71117e-12
1.70586e-12
1.70062e-12
1.69633e-12
1.69237e-12
1.68883e-12
1.68558e-12
1.68276e-12
1.68022e-12
1.67774e-12
1.67562e-12
1.67356e-12
1.6718e-12
1.67011e-12
1.66868e-12
1.66735e-12
1.66624e-12
1.66528e-12
1.66456e-12
1.66412e-12
1.66419e-12
1.66474e-12
1.66556e-12
1.6666e-12
1.66777e-12
1.66916e-12
1.67063e-12
1.67235e-12
1.67413e-12
1.67622e-12
1.67835e-12
1.68083e-12
1.68335e-12
1.68615e-12
1.68931e-12
1.69275e-12
1.69659e-12
1.70074e-12
1.70585e-12
1.71101e-12
1.71842e-12
1.72579e-12
1.73407e-12
1.74543e-12
1.75476e-12
1.77064e-12
1.76549e-12
1.75814e-12
1.75282e-12
1.74625e-12
1.7407e-12
1.73529e-12
1.73108e-12
1.72661e-12
1.72289e-12
1.71929e-12
1.71597e-12
1.71312e-12
1.71046e-12
1.70795e-12
1.7057e-12
1.7036e-12
1.70173e-12
1.70001e-12
1.6985e-12
1.69714e-12
1.69598e-12
1.69499e-12
1.69424e-12
1.69379e-12
1.69386e-12
1.69444e-12
1.69529e-12
1.69636e-12
1.69759e-12
1.69901e-12
1.70057e-12
1.70232e-12
1.70421e-12
1.70633e-12
1.70859e-12
1.7111e-12
1.71375e-12
1.71658e-12
1.7198e-12
1.72331e-12
1.7269e-12
1.73124e-12
1.7353e-12
1.74056e-12
1.74595e-12
1.75234e-12
1.75748e-12
1.76466e-12
1.7696e-12
1.86004e-12
1.85778e-12
1.85305e-12
1.84984e-12
1.84357e-12
1.83923e-12
1.83342e-12
1.82983e-12
1.82499e-12
1.8213e-12
1.81749e-12
1.81398e-12
1.81099e-12
1.80813e-12
1.80549e-12
1.80306e-12
1.80085e-12
1.79882e-12
1.79701e-12
1.79538e-12
1.79394e-12
1.79269e-12
1.79165e-12
1.79085e-12
1.79037e-12
1.79045e-12
1.79106e-12
1.79198e-12
1.79311e-12
1.79443e-12
1.79593e-12
1.79761e-12
1.79946e-12
1.80151e-12
1.80373e-12
1.80618e-12
1.80882e-12
1.81167e-12
1.81463e-12
1.81804e-12
1.82175e-12
1.82531e-12
1.83e-12
1.83345e-12
1.8391e-12
1.84325e-12
1.84935e-12
1.85236e-12
1.8569e-12
1.85895e-12
2.01667e-12
2.01605e-12
2.01258e-12
2.01056e-12
2.00428e-12
2.00069e-12
1.99435e-12
1.99105e-12
1.98574e-12
1.98192e-12
1.97777e-12
1.974e-12
1.97077e-12
1.96763e-12
1.96477e-12
1.96209e-12
1.95969e-12
1.95746e-12
1.95549e-12
1.9537e-12
1.95214e-12
1.95077e-12
1.94964e-12
1.94875e-12
1.94824e-12
1.94833e-12
1.94899e-12
1.95e-12
1.95123e-12
1.95268e-12
1.95431e-12
1.95615e-12
1.95816e-12
1.96041e-12
1.96283e-12
1.96551e-12
1.96838e-12
1.9715e-12
1.97471e-12
1.97839e-12
1.98243e-12
1.98613e-12
1.99129e-12
1.99442e-12
2.00058e-12
2.00398e-12
2.01004e-12
2.01183e-12
2.01507e-12
2.01548e-12
2.2348e-12
2.23458e-12
2.23116e-12
2.22941e-12
2.22237e-12
2.21865e-12
2.21147e-12
2.20801e-12
2.20204e-12
2.19785e-12
2.19324e-12
2.18905e-12
2.18545e-12
2.18197e-12
2.17879e-12
2.1758e-12
2.17314e-12
2.17066e-12
2.16847e-12
2.16648e-12
2.16475e-12
2.16322e-12
2.16197e-12
2.16099e-12
2.16041e-12
2.16051e-12
2.16125e-12
2.16237e-12
2.16373e-12
2.16535e-12
2.16715e-12
2.1692e-12
2.17143e-12
2.17393e-12
2.17661e-12
2.1796e-12
2.18278e-12
2.18625e-12
2.18982e-12
2.1939e-12
2.19841e-12
2.20245e-12
2.20826e-12
2.21154e-12
2.21851e-12
2.22201e-12
2.22881e-12
2.23031e-12
2.23347e-12
2.23346e-12
2.51014e-12
2.5092e-12
2.50477e-12
2.50248e-12
2.4943e-12
2.48992e-12
2.48176e-12
2.47779e-12
2.47103e-12
2.4663e-12
2.46109e-12
2.45641e-12
2.45233e-12
2.44842e-12
2.44482e-12
2.44147e-12
2.43846e-12
2.43569e-12
2.43322e-12
2.43098e-12
2.42903e-12
2.42732e-12
2.42591e-12
2.42481e-12
2.42416e-12
2.42427e-12
2.42511e-12
2.42636e-12
2.42789e-12
2.4297e-12
2.43174e-12
2.43403e-12
2.43654e-12
2.43935e-12
2.44237e-12
2.44572e-12
2.44931e-12
2.45321e-12
2.45724e-12
2.46183e-12
2.46691e-12
2.47148e-12
2.47806e-12
2.48182e-12
2.48975e-12
2.49388e-12
2.50179e-12
2.50379e-12
2.50793e-12
2.5086e-12
2.84393e-12
2.84146e-12
2.83518e-12
2.83173e-12
2.8221e-12
2.81661e-12
2.8073e-12
2.80252e-12
2.79485e-12
2.78941e-12
2.78345e-12
2.77821e-12
2.77351e-12
2.76908e-12
2.76497e-12
2.76119e-12
2.75776e-12
2.75463e-12
2.75181e-12
2.74928e-12
2.74706e-12
2.74513e-12
2.74352e-12
2.74227e-12
2.74153e-12
2.74166e-12
2.74261e-12
2.74403e-12
2.74577e-12
2.74781e-12
2.75012e-12
2.75271e-12
2.75558e-12
2.75874e-12
2.76219e-12
2.76597e-12
2.77007e-12
2.77447e-12
2.77911e-12
2.78427e-12
2.79008e-12
2.79534e-12
2.8028e-12
2.80735e-12
2.8164e-12
2.8216e-12
2.83093e-12
2.83404e-12
2.83998e-12
2.84215e-12
3.24939e-12
3.24493e-12
3.23624e-12
3.23131e-12
3.21989e-12
3.21303e-12
3.20234e-12
3.19653e-12
3.18775e-12
3.18143e-12
3.17457e-12
3.16863e-12
3.16315e-12
3.1581e-12
3.15336e-12
3.14905e-12
3.14509e-12
3.14152e-12
3.13827e-12
3.13539e-12
3.13283e-12
3.13063e-12
3.12878e-12
3.12735e-12
3.12649e-12
3.12664e-12
3.12773e-12
3.12935e-12
3.13135e-12
3.13368e-12
3.13634e-12
3.13929e-12
3.14258e-12
3.14618e-12
3.15015e-12
3.15446e-12
3.15919e-12
3.16422e-12
3.16962e-12
3.17547e-12
3.18216e-12
3.18828e-12
3.19682e-12
3.20236e-12
3.21276e-12
3.21929e-12
3.23035e-12
3.2349e-12
3.24319e-12
3.24728e-12
3.76043e-12
3.75387e-12
3.74245e-12
3.73592e-12
3.72232e-12
3.71396e-12
3.70149e-12
3.69448e-12
3.68429e-12
3.67688e-12
3.66888e-12
3.66203e-12
3.65558e-12
3.64971e-12
3.64417e-12
3.63917e-12
3.63455e-12
3.63041e-12
3.62663e-12
3.62328e-12
3.6203e-12
3.61774e-12
3.61559e-12
3.61394e-12
3.61293e-12
3.61311e-12
3.61438e-12
3.61625e-12
3.61857e-12
3.62127e-12
3.62436e-12
3.62777e-12
3.63161e-12
3.63578e-12
3.64042e-12
3.64541e-12
3.65093e-12
3.65677e-12
3.66312e-12
3.66986e-12
3.67768e-12
3.68485e-12
3.69478e-12
3.70147e-12
3.7136e-12
3.72158e-12
3.73476e-12
3.74083e-12
3.75179e-12
3.75791e-12
4.44309e-12
4.43443e-12
4.41993e-12
4.41182e-12
4.3954e-12
4.38543e-12
4.3705e-12
4.36211e-12
4.34997e-12
4.34116e-12
4.33163e-12
4.32354e-12
4.31581e-12
4.30883e-12
4.30222e-12
4.29629e-12
4.29077e-12
4.28585e-12
4.28134e-12
4.27737e-12
4.27382e-12
4.27079e-12
4.26823e-12
4.26627e-12
4.26507e-12
4.26527e-12
4.26678e-12
4.269e-12
4.27176e-12
4.27495e-12
4.27863e-12
4.28267e-12
4.28725e-12
4.29219e-12
4.29772e-12
4.30364e-12
4.31023e-12
4.31715e-12
4.32478e-12
4.33274e-12
4.34205e-12
4.35059e-12
4.36241e-12
4.37043e-12
4.38495e-12
4.39446e-12
4.41038e-12
4.41795e-12
4.43189e-12
4.44001e-12
5.41779e-12
5.40685e-12
5.38856e-12
5.37874e-12
5.35836e-12
5.34651e-12
5.328e-12
5.31784e-12
5.30289e-12
5.29214e-12
5.28042e-12
5.27054e-12
5.26099e-12
5.25242e-12
5.24428e-12
5.237e-12
5.23021e-12
5.22417e-12
5.21862e-12
5.21375e-12
5.20938e-12
5.20568e-12
5.20254e-12
5.20013e-12
5.19865e-12
5.1989e-12
5.20075e-12
5.20346e-12
5.20684e-12
5.21075e-12
5.21525e-12
5.22021e-12
5.22583e-12
5.2319e-12
5.23869e-12
5.24596e-12
5.25405e-12
5.26256e-12
5.27198e-12
5.28168e-12
5.29314e-12
5.30357e-12
5.31813e-12
5.32784e-12
5.34585e-12
5.35713e-12
5.3769e-12
5.38605e-12
5.40365e-12
5.41391e-12
6.92816e-12
6.91423e-12
6.89052e-12
6.87855e-12
6.85208e-12
6.8377e-12
6.81355e-12
6.80087e-12
6.78154e-12
6.76786e-12
6.75276e-12
6.74012e-12
6.72779e-12
6.71675e-12
6.70628e-12
6.6969e-12
6.68816e-12
6.68039e-12
6.67325e-12
6.66699e-12
6.66137e-12
6.65661e-12
6.65258e-12
6.64949e-12
6.64759e-12
6.64791e-12
6.65028e-12
6.65375e-12
6.65808e-12
6.66308e-12
6.66887e-12
6.67523e-12
6.68245e-12
6.69025e-12
6.69899e-12
6.70834e-12
6.71875e-12
6.72969e-12
6.74186e-12
6.75426e-12
6.76903e-12
6.7823e-12
6.80115e-12
6.81325e-12
6.83675e-12
6.85041e-12
6.87609e-12
6.8872e-12
6.91001e-12
6.92304e-12
9.5732e-12
9.55416e-12
9.52095e-12
9.50538e-12
9.46824e-12
9.44953e-12
9.41554e-12
9.39857e-12
9.37161e-12
9.35289e-12
9.33193e-12
9.31453e-12
9.29741e-12
9.28207e-12
9.26758e-12
9.25459e-12
9.24247e-12
9.23171e-12
9.22181e-12
9.21316e-12
9.20538e-12
9.19881e-12
9.19322e-12
9.18896e-12
9.18633e-12
9.18677e-12
9.19004e-12
9.19481e-12
9.20079e-12
9.20768e-12
9.21568e-12
9.22447e-12
9.23446e-12
9.24525e-12
9.25736e-12
9.2703e-12
9.28469e-12
9.29986e-12
9.31676e-12
9.33384e-12
9.35434e-12
9.3725e-12
9.39879e-12
9.41498e-12
9.44808e-12
9.46579e-12
9.50182e-12
9.5162e-12
9.54815e-12
9.56592e-12
1.48671e-11
1.48321e-11
1.4776e-11
1.47483e-11
1.46897e-11
1.46591e-11
1.46065e-11
1.45789e-11
1.45375e-11
1.45081e-11
1.44757e-11
1.44488e-11
1.44223e-11
1.43984e-11
1.4376e-11
1.43559e-11
1.43371e-11
1.43205e-11
1.43051e-11
1.42918e-11
1.42797e-11
1.42696e-11
1.42609e-11
1.42544e-11
1.42503e-11
1.42509e-11
1.4256e-11
1.42633e-11
1.42726e-11
1.42831e-11
1.42955e-11
1.43091e-11
1.43246e-11
1.43412e-11
1.436e-11
1.43799e-11
1.44022e-11
1.44258e-11
1.4452e-11
1.44784e-11
1.45101e-11
1.45385e-11
1.4579e-11
1.46054e-11
1.46566e-11
1.46856e-11
1.47425e-11
1.47684e-11
1.48224e-11
1.48555e-11
2.52918e-11
2.51991e-11
2.50831e-11
2.50088e-11
2.49076e-11
2.48392e-11
2.47548e-11
2.46967e-11
2.46298e-11
2.45767e-11
2.45227e-11
2.44764e-11
2.44313e-11
2.43913e-11
2.43531e-11
2.43194e-11
2.42874e-11
2.42595e-11
2.42334e-11
2.4211e-11
2.41905e-11
2.41734e-11
2.41587e-11
2.41477e-11
2.41407e-11
2.41418e-11
2.41503e-11
2.41626e-11
2.41782e-11
2.4196e-11
2.4217e-11
2.42397e-11
2.42659e-11
2.42938e-11
2.43257e-11
2.43592e-11
2.43971e-11
2.44366e-11
2.44811e-11
2.45265e-11
2.45793e-11
2.4631e-11
2.46961e-11
2.47522e-11
2.48342e-11
2.49e-11
2.49983e-11
2.50695e-11
2.51821e-11
2.52713e-11
)
;

boundaryField
{
    fuel
    {
        type            fixedValue;
        value           nonuniform 0();
    }
    wall
    {
        type            zeroGradient;
    }
    outlet
    {
        type            zeroGradient;
    }
    frontAndBack
    {
        type            empty;
    }
    procBoundary3to2
    {
        type            processor;
        value           nonuniform List<scalar> 
51
(
6.74094e-10
6.73616e-10
6.73547e-10
6.73255e-10
6.7332e-10
6.73135e-10
6.73225e-10
6.73099e-10
6.7317e-10
6.73081e-10
6.73122e-10
6.7306e-10
6.73073e-10
6.73044e-10
6.73035e-10
6.73049e-10
6.73021e-10
6.73071e-10
6.7302e-10
6.73104e-10
6.73028e-10
6.73149e-10
6.73057e-10
6.73241e-10
6.73176e-10
6.73467e-10
6.73534e-10
6.74007e-10
6.74503e-10
6.75369e-10
6.76588e-10
6.78379e-10
6.82208e-10
6.86211e-10
6.93945e-10
7.03396e-10
7.14495e-10
7.34557e-10
7.45922e-10
6.13792e-10
6.03925e-10
5.88036e-10
5.786e-10
5.70641e-10
5.64102e-10
5.60804e-10
5.57577e-10
5.56111e-10
5.55064e-10
5.54346e-10
5.54346e-10
)
;
    }
}


// ************************************************************************* //
