/*--------------------------------*- C++ -*----------------------------------*\
| =========                 |                                                 |
| \\      /  F ield         | OpenFOAM: The Open Source CFD Toolbox           |
|  \\    /   O peration     | Version:  dev                                   |
|   \\  /    A nd           | Web:      www.OpenFOAM.org                      |
|    \\/     M anipulation  |                                                 |
\*---------------------------------------------------------------------------*/
FoamFile
{
    version     2.0;
    format      ascii;
    class       volScalarField;
    location    "0.035";
    object      P2;
}
// * * * * * * * * * * * * * * * * * * * * * * * * * * * * * * * * * * * * * //

dimensions      [0 0 0 0 0 0 0];

internalField   nonuniform List<scalar> 
250
(
8.64698e-08
8.64935e-08
8.65432e-08
8.6507e-08
8.6529e-08
8.6524e-08
8.65551e-08
8.70541e-08
9.09764e-08
1.25199e-07
3.23442e-09
7.14587e-08
7.14787e-08
7.15125e-08
7.14689e-08
7.1484e-08
7.14888e-08
7.15393e-08
7.22431e-08
7.79877e-08
1.35119e-07
6.83106e-09
4.85329e-08
4.85477e-08
4.8556e-08
4.85361e-08
4.85522e-08
4.85573e-08
4.86082e-08
4.92967e-08
5.52672e-08
1.22644e-07
9.18053e-09
3.04701e-08
3.04779e-08
3.04818e-08
3.04686e-08
3.04851e-08
3.04849e-08
3.05276e-08
3.11179e-08
3.64655e-08
1.05704e-07
1.07605e-08
1.85539e-08
1.85569e-08
1.85603e-08
1.85498e-08
1.85639e-08
1.85605e-08
1.85858e-08
1.90391e-08
2.34433e-08
8.98307e-08
1.17875e-08
1.09027e-08
1.09013e-08
1.09084e-08
1.08965e-08
1.09104e-08
1.09083e-08
1.09249e-08
1.13919e-08
1.51273e-08
7.65701e-08
1.24263e-08
6.66808e-09
6.66609e-09
6.6717e-09
6.66242e-09
6.67253e-09
6.67013e-09
6.65165e-09
7.02142e-09
9.99946e-09
6.56914e-08
1.28281e-08
4.10568e-09
4.10294e-09
4.10958e-09
4.10048e-09
4.11012e-09
4.11185e-09
4.17419e-09
4.48227e-09
6.68556e-09
5.65737e-08
1.30496e-08
2.69941e-09
2.69704e-09
2.70232e-09
2.69514e-09
2.70248e-09
2.70434e-09
2.74267e-09
2.92334e-09
4.74764e-09
4.86858e-08
1.29846e-08
1.77273e-09
1.77097e-09
1.77467e-09
1.76965e-09
1.77472e-09
1.7768e-09
1.8013e-09
1.94273e-09
3.41854e-09
4.1679e-08
1.24352e-08
1.27996e-09
1.28288e-09
1.27891e-09
1.28284e-09
1.28495e-09
1.30204e-09
1.41795e-09
2.52524e-09
3.53695e-08
1.13906e-08
9.40337e-10
9.42486e-10
9.39555e-10
9.42468e-10
9.44605e-10
9.57891e-10
1.06126e-09
1.99285e-09
2.96824e-08
1.01791e-08
7.22799e-10
7.24403e-10
7.22199e-10
7.24433e-10
7.26559e-10
7.36989e-10
8.23336e-10
1.59089e-09
2.45927e-08
9.16297e-09
5.77122e-10
5.7834e-10
5.76651e-10
5.7843e-10
5.80528e-10
5.89163e-10
6.62589e-10
1.28745e-09
1.99718e-08
8.43101e-09
4.75158e-10
4.76098e-10
4.74779e-10
4.76254e-10
4.78316e-10
4.85798e-10
5.49101e-10
1.05843e-09
1.53437e-08
7.89581e-09
4.00835e-10
4.01572e-10
4.00526e-10
4.01797e-10
4.03817e-10
4.10508e-10
4.65694e-10
8.82502e-10
1.20076e-08
7.45087e-09
3.44765e-10
3.4535e-10
3.44512e-10
3.45641e-10
3.47613e-10
3.5371e-10
4.02262e-10
7.44203e-10
9.28166e-09
6.99566e-09
3.01321e-10
3.01787e-10
3.01114e-10
3.02142e-10
3.04058e-10
3.09685e-10
3.52676e-10
6.33784e-10
7.0972e-09
6.47781e-09
2.67036e-10
2.67406e-10
2.6687e-10
2.67819e-10
2.69673e-10
2.74904e-10
3.1315e-10
5.44839e-10
5.38032e-09
5.88984e-09
2.39717e-10
2.40005e-10
2.3958e-10
2.4047e-10
2.42255e-10
2.47113e-10
2.81278e-10
4.72964e-10
4.05676e-09
5.25255e-09
2.17938e-10
2.18152e-10
2.17782e-10
2.18662e-10
2.2038e-10
2.24824e-10
2.55497e-10
4.14996e-10
3.05559e-09
4.59821e-09
2.00759e-10
2.00903e-10
2.00364e-10
2.01459e-10
2.03103e-10
2.07023e-10
2.34775e-10
3.68569e-10
2.31161e-09
3.95926e-09
1.87564e-10
1.87637e-10
1.87889e-10
1.88244e-10
1.89813e-10
1.94695e-10
2.18438e-10
3.31852e-10
1.76719e-09
3.36296e-09
1.7908e-10
1.7909e-10
1.79206e-10
1.79741e-10
1.81261e-10
1.85836e-10
2.07604e-10
3.03387e-10
1.37378e-09
2.82925e-09
)
;

boundaryField
{
    fuel
    {
        type            fixedValue;
        value           uniform 0;
    }
    wall
    {
        type            zeroGradient;
    }
    outlet
    {
        type            zeroGradient;
    }
    frontAndBack
    {
        type            empty;
    }
    procBoundary3to0
    {
        type            processor;
        value           nonuniform List<scalar> 10(1.73868e-10 1.73811e-10 1.73973e-10 1.74511e-10 1.75994e-10 1.80404e-10 1.99778e-10 2.84493e-10 1.09369e-09 2.3722e-09);
    }
    procBoundary3to2
    {
        type            processor;
        value           nonuniform List<scalar> 
25
(
8.65006e-08
7.15091e-08
4.85599e-08
3.0486e-08
1.85634e-08
1.09093e-08
6.67223e-09
4.10925e-09
2.70207e-09
1.77461e-09
1.28124e-09
1.28124e-09
9.41234e-10
7.23389e-10
5.77479e-10
4.75341e-10
4.0089e-10
3.44727e-10
3.01217e-10
2.66887e-10
2.39537e-10
2.17718e-10
2.00349e-10
1.87598e-10
1.78965e-10
)
;
    }
}


// ************************************************************************* //
