/*--------------------------------*- C++ -*----------------------------------*\
| =========                 |                                                 |
| \\      /  F ield         | OpenFOAM: The Open Source CFD Toolbox           |
|  \\    /   O peration     | Version:  dev                                   |
|   \\  /    A nd           | Web:      www.OpenFOAM.org                      |
|    \\/     M anipulation  |                                                 |
\*---------------------------------------------------------------------------*/
FoamFile
{
    version     2.0;
    format      ascii;
    class       volScalarField;
    location    "0.035";
    object      T;
}
// * * * * * * * * * * * * * * * * * * * * * * * * * * * * * * * * * * * * * //

dimensions      [0 0 0 1 0 0 0];

internalField   nonuniform List<scalar> 
250
(
1764
1764
1764
1764
1764
1763.97
1764.03
1763.49
1761.58
1744.56
482.451
1981.66
1981.66
1981.66
1981.66
1981.66
1981.64
1981.65
1981.18
1978.74
1962.86
858.804
2033.82
2033.82
2033.81
2033.82
2033.82
2033.79
2033.8
2033.18
2030.16
2012.51
1798.44
2049.83
2049.83
2049.82
2049.83
2049.83
2049.81
2049.79
2048.99
2045.22
2024.98
2113.29
2055.54
2055.54
2055.53
2055.54
2055.54
2055.51
2055.47
2054.48
2049.87
2025.82
2187.52
2057.54
2057.54
2057.54
2057.54
2057.54
2057.51
2057.45
2056.25
2050.83
2022.16
2191.1
2057.95
2057.95
2057.95
2057.95
2057.96
2057.92
2057.84
2056.39
2050.27
2016.12
2173.18
2057.6
2057.61
2057.61
2057.61
2057.62
2057.57
2057.48
2055.79
2048.9
2009.24
2147.63
2056.8
2056.81
2056.82
2056.81
2056.83
2056.76
2056.68
2054.75
2047.07
2002.55
2118.03
2055.74
2055.75
2055.75
2055.74
2055.77
2055.68
2055.6
2053.4
2044.9
1996.1
2085.53
2054.51
2054.52
2054.5
2054.54
2054.43
2054.34
2051.89
2042.7
1989.86
2051.21
2053.12
2053.14
2053.12
2053.17
2053.04
2052.96
2050.25
2040.44
1984.14
2016.29
2051.61
2051.63
2051.6
2051.66
2051.52
2051.44
2048.51
2038.12
1978.99
1981.95
2049.95
2049.98
2049.94
2050.02
2049.86
2049.8
2046.64
2035.78
1974.45
1949.17
2048.13
2048.16
2048.12
2048.21
2048.03
2047.99
2044.64
2033.4
1970.64
1918.78
2046.11
2046.15
2046.09
2046.2
2046
2046.01
2042.47
2030.98
1967.38
1891.45
2043.84
2043.89
2043.82
2043.95
2043.73
2043.79
2040.09
2028.5
1964.72
1867.71
2041.28
2041.34
2041.25
2041.41
2041.16
2041.3
2037.46
2025.93
1962.48
1847.93
2038.35
2038.43
2038.33
2038.51
2038.24
2038.46
2034.51
2023.24
1960.59
1832.33
2034.99
2035.09
2034.96
2035.18
2034.89
2035.2
2031.17
2020.34
1958.97
1820.93
2031.11
2031.22
2031.08
2031.33
2031.01
2031.43
2027.37
2017.18
1957.49
1813.64
2026.6
2026.73
2026.56
2026.85
2026.52
2027.02
2023
2013.64
1956.03
1809.5
2021.79
2021.96
2021.75
2022.1
2021.73
2022.41
2018.32
2009.59
1954.35
1808.97
2015.91
2016.12
2015.87
2016.27
2015.87
2016.74
2012.68
2004.85
1952.27
1810.83
)
;

boundaryField
{
    fuel
    {
        type            fixedValue;
        value           uniform 353;
    }
    wall
    {
        type            fixedValue;
        value           nonuniform 0();
    }
    outlet
    {
        type            inletOutlet;
        inletValue      uniform 353;
        value           nonuniform List<scalar> 
24
(
480.744
847.126
1782.85
2104.01
2181.44
2186.45
2169.61
2144.81
2115.55
2083.15
2048.84
2013.94
1979.65
1946.97
1916.73
1889.56
1866.01
1846.43
1831.04
1819.86
1812.76
1808.81
1808.46
1810.47
)
;
    }
    frontAndBack
    {
        type            empty;
    }
    procBoundary3to0
    {
        type            processor;
        value           nonuniform List<scalar> 10(2009.46 2009.71 2009.41 2009.89 2009.43 2010.53 2006.41 1999.21 1949.65 1814.33);
    }
    procBoundary3to2
    {
        type            processor;
        value           nonuniform List<scalar> 
25
(
1764.01
1981.67
2033.83
2049.84
2055.55
2057.55
2057.96
2057.62
2056.83
2055.77
2054.49
2054.49
2053.11
2051.6
2049.95
2048.13
2046.1
2043.84
2041.28
2038.36
2035
2031.12
2026.61
2021.81
2015.93
)
;
    }
}


// ************************************************************************* //
