/*--------------------------------*- C++ -*----------------------------------*\
| =========                 |                                                 |
| \\      /  F ield         | OpenFOAM: The Open Source CFD Toolbox           |
|  \\    /   O peration     | Version:  dev                                   |
|   \\  /    A nd           | Web:      www.OpenFOAM.org                      |
|    \\/     M anipulation  |                                                 |
\*---------------------------------------------------------------------------*/
FoamFile
{
    version     2.0;
    format      ascii;
    class       volScalarField;
    location    "0.045";
    object      A1-;
}
// * * * * * * * * * * * * * * * * * * * * * * * * * * * * * * * * * * * * * //

dimensions      [0 0 0 0 0 0 0];

internalField   nonuniform List<scalar> 
250
(
2.39215e-07
1.20632e-07
1.1972e-07
9.68959e-08
1.04577e-07
9.46255e-08
9.96451e-08
9.49694e-08
9.75612e-08
9.57659e-08
1.73847e-07
9.31665e-08
9.57793e-08
7.63727e-08
8.34299e-08
7.46273e-08
7.91272e-08
7.49553e-08
7.72829e-08
7.56671e-08
7.56072e-08
7.71085e-08
7.53507e-08
7.80127e-08
7.64912e-08
7.9483e-08
8.18277e-08
8.56469e-08
1.10782e-07
1.53316e-07
1.23299e-07
6.98616e-08
7.40529e-08
5.82004e-08
6.42949e-08
5.69035e-08
6.07247e-08
5.71943e-08
5.91761e-08
5.7799e-08
5.77383e-08
5.90296e-08
5.75228e-08
5.97824e-08
5.84626e-08
6.09418e-08
6.27214e-08
6.53624e-08
8.36077e-08
1.10525e-07
8.52751e-08
5.07545e-08
5.52452e-08
4.28221e-08
4.77997e-08
4.18931e-08
4.49779e-08
4.21355e-08
4.37411e-08
4.26253e-08
4.2567e-08
4.36262e-08
4.2394e-08
4.42235e-08
4.31341e-08
4.50976e-08
4.63908e-08
4.81685e-08
6.09471e-08
7.70445e-08
5.73861e-08
3.55838e-08
3.96434e-08
3.03125e-08
3.4172e-08
2.96734e-08
3.20464e-08
2.98646e-08
3.11052e-08
3.02439e-08
3.01906e-08
3.10211e-08
3.00578e-08
3.14729e-08
3.06151e-08
3.21028e-08
3.30003e-08
3.41679e-08
4.28026e-08
5.19123e-08
3.73932e-08
2.38994e-08
2.71869e-08
2.04978e-08
2.33349e-08
2.00786e-08
2.18139e-08
2.02218e-08
2.11337e-08
2.05018e-08
2.04561e-08
2.10763e-08
2.03584e-08
2.1401e-08
2.07581e-08
2.18329e-08
2.24243e-08
2.31724e-08
2.87866e-08
3.31861e-08
2.29939e-08
1.52023e-08
1.76225e-08
1.31003e-08
1.50563e-08
1.2842e-08
1.40343e-08
1.29427e-08
1.35729e-08
1.31375e-08
1.31012e-08
1.35369e-08
1.30333e-08
1.37556e-08
1.33028e-08
1.4034e-08
1.43992e-08
1.48626e-08
1.83431e-08
2.03942e-08
1.34461e-08
9.06405e-09
1.06599e-08
7.85651e-09
9.08474e-09
7.71046e-09
8.45724e-09
7.77454e-09
8.17169e-09
7.89814e-09
7.87238e-09
8.1513e-09
7.82926e-09
8.28583e-09
7.99523e-09
8.45008e-09
8.65582e-09
8.92634e-09
1.09329e-08
1.1773e-08
7.40494e-09
5.21444e-09
6.10432e-09
4.61094e-09
5.26263e-09
4.53675e-09
4.93081e-09
4.56922e-09
4.77973e-09
4.63434e-09
4.61878e-09
4.7701e-09
4.59622e-09
4.84148e-09
4.68397e-09
4.92686e-09
5.02635e-09
5.16797e-09
6.17731e-09
6.46157e-09
4.45483e-09
3.60686e-09
3.97348e-09
3.36717e-09
3.61369e-09
3.32841e-09
3.47483e-09
3.33529e-09
3.41344e-09
3.35705e-09
3.34872e-09
3.41082e-09
3.34179e-09
3.44207e-09
3.37915e-09
3.48308e-09
3.51966e-09
3.58758e-09
3.97083e-09
4.04266e-09
4.44502e-09
4.0137e-09
4.22285e-09
3.83801e-09
3.9855e-09
3.79975e-09
3.89025e-09
3.79921e-09
3.84932e-09
3.81123e-09
3.80097e-09
3.85186e-09
3.79721e-09
3.87633e-09
3.82665e-09
3.91359e-09
3.9294e-09
4.00159e-09
4.19703e-09
4.22752e-09
5.33261e-09
4.38721e-09
4.83671e-09
4.05478e-09
4.38638e-09
4.00582e-09
4.21389e-09
4.01878e-09
4.13682e-09
4.05476e-09
4.03459e-09
4.14429e-09
4.02033e-09
4.18588e-09
4.0728e-09
4.24088e-09
4.26072e-09
4.39917e-09
4.81482e-09
4.90917e-09
3.83677e-09
2.92036e-09
3.32514e-09
2.64166e-09
2.92171e-09
2.6049e-09
2.77943e-09
2.61628e-09
2.71671e-09
2.6482e-09
2.62745e-09
2.72877e-09
2.61312e-09
2.76327e-09
2.65614e-09
2.80789e-09
2.81121e-09
2.94902e-09
3.31608e-09
3.45811e-09
)
;

boundaryField
{
    fuel
    {
        type            fixedValue;
        value           nonuniform 0();
    }
    wall
    {
        type            zeroGradient;
    }
    outlet
    {
        type            zeroGradient;
    }
    frontAndBack
    {
        type            empty;
    }
    procBoundary1to0
    {
        type            processor;
        value           nonuniform List<scalar> 
21
(
3.21379e-07
1.51871e-07
1.4484e-07
1.18934e-07
1.26743e-07
1.16073e-07
1.21362e-07
1.16404e-07
1.19133e-07
1.1725e-07
9.57097e-08
9.57097e-08
9.73687e-08
9.54191e-08
9.84016e-08
9.67386e-08
1.00184e-07
1.03145e-07
1.08512e-07
1.41929e-07
2.05598e-07
)
;
    }
}


// ************************************************************************* //
