/*--------------------------------*- C++ -*----------------------------------*\
| =========                 |                                                 |
| \\      /  F ield         | OpenFOAM: The Open Source CFD Toolbox           |
|  \\    /   O peration     | Version:  dev                                   |
|   \\  /    A nd           | Web:      www.OpenFOAM.org                      |
|    \\/     M anipulation  |                                                 |
\*---------------------------------------------------------------------------*/
FoamFile
{
    version     2.0;
    format      ascii;
    class       volScalarField;
    location    "0.045";
    object      A1C2H*;
}
// * * * * * * * * * * * * * * * * * * * * * * * * * * * * * * * * * * * * * //

dimensions      [0 0 0 0 0 0 0];

internalField   nonuniform List<scalar> 
25
(
3.80522e-15
4.55863e-15
5.44614e-15
6.47868e-15
7.66792e-15
9.02601e-15
1.05917e-14
1.2372e-14
1.43876e-14
1.66883e-14
1.93616e-14
2.25608e-14
2.65499e-14
3.17675e-14
3.87419e-14
4.86078e-14
6.29255e-14
8.40565e-14
1.14479e-13
1.56833e-13
2.15614e-13
2.94914e-13
3.98743e-13
5.30541e-13
6.96485e-13
)
;

boundaryField
{
    wall
    {
        type            zeroGradient;
    }
    fuel
    {
        type            fixedValue;
        value           nonuniform 0();
    }
    outlet
    {
        type            inletOutlet;
        inletValue      nonuniform 0();
        value           nonuniform 0();
    }
    procBoundary1to0
    {
        type            processor;
        value           uniform 3.17564e-15;
    }
    procBoundary1to2
    {
        type            processor;
        value           uniform 8.89708e-13;
    }
}


// ************************************************************************* //
