/*--------------------------------*- C++ -*----------------------------------*\
| =========                 |                                                 |
| \\      /  F ield         | OpenFOAM: The Open Source CFD Toolbox           |
|  \\    /   O peration     | Version:  dev                                   |
|   \\  /    A nd           | Web:      www.OpenFOAM.org                      |
|    \\/     M anipulation  |                                                 |
\*---------------------------------------------------------------------------*/
FoamFile
{
    version     2.0;
    format      ascii;
    class       volScalarField;
    location    "0.045";
    object      A2C2HA;
}
// * * * * * * * * * * * * * * * * * * * * * * * * * * * * * * * * * * * * * //

dimensions      [0 0 0 0 0 0 0];

internalField   nonuniform List<scalar> 
250
(
9.84369e-10
6.98539e-10
5.54331e-10
5.07758e-10
4.97866e-10
4.93537e-10
4.92477e-10
4.93054e-10
4.91541e-10
4.92869e-10
9.3118e-10
6.88143e-10
5.61811e-10
5.20311e-10
5.09588e-10
5.05407e-10
5.04196e-10
5.04279e-10
5.03257e-10
5.03986e-10
5.03968e-10
5.03498e-10
5.04298e-10
5.04383e-10
5.05458e-10
5.09632e-10
5.20036e-10
5.59719e-10
6.82867e-10
9.27735e-10
8.75423e-10
6.67959e-10
5.57174e-10
5.20772e-10
5.09351e-10
5.05406e-10
5.04086e-10
5.03688e-10
5.03181e-10
5.03293e-10
5.03283e-10
5.0328e-10
5.03707e-10
5.04154e-10
5.05383e-10
5.09237e-10
5.2015e-10
5.55158e-10
6.6175e-10
8.66633e-10
8.15326e-10
6.37928e-10
5.41113e-10
5.09672e-10
4.97967e-10
4.94334e-10
4.92962e-10
4.92173e-10
4.92112e-10
4.9169e-10
4.91689e-10
4.92089e-10
4.92194e-10
4.9293e-10
4.94252e-10
4.97735e-10
5.08785e-10
5.39253e-10
6.31184e-10
8.0311e-10
7.51746e-10
6.00122e-10
5.16188e-10
4.89398e-10
4.77971e-10
4.74695e-10
4.73332e-10
4.72288e-10
4.72538e-10
4.71732e-10
4.71738e-10
4.72425e-10
4.72309e-10
4.7323e-10
4.74575e-10
4.7767e-10
4.88367e-10
5.14528e-10
5.93272e-10
7.37718e-10
6.87378e-10
5.58053e-10
4.86119e-10
4.63534e-10
4.52934e-10
4.50029e-10
4.4872e-10
4.47567e-10
4.47966e-10
4.46951e-10
4.46961e-10
4.47805e-10
4.47585e-10
4.48581e-10
4.49891e-10
4.52612e-10
4.62482e-10
4.84668e-10
5.51158e-10
6.72787e-10
6.25752e-10
5.15769e-10
4.54941e-10
4.36037e-10
4.26674e-10
4.24125e-10
4.22898e-10
4.21755e-10
4.22156e-10
4.21085e-10
4.21099e-10
4.21979e-10
4.21767e-10
4.22747e-10
4.23984e-10
4.26368e-10
4.35066e-10
4.53688e-10
5.09425e-10
6.11521e-10
5.70253e-10
4.76989e-10
4.26232e-10
4.10466e-10
4.02541e-10
4.00305e-10
3.99165e-10
3.98108e-10
3.98403e-10
3.97385e-10
3.97399e-10
3.98234e-10
3.98112e-10
3.99021e-10
4.0017e-10
4.02269e-10
4.09637e-10
4.2515e-10
4.71397e-10
5.5699e-10
5.23341e-10
4.44401e-10
4.02496e-10
3.89355e-10
3.82845e-10
3.80866e-10
3.79802e-10
3.78854e-10
3.78993e-10
3.78071e-10
3.78085e-10
3.78841e-10
3.78846e-10
3.79668e-10
3.8074e-10
3.8261e-10
3.88687e-10
4.01556e-10
4.3964e-10
5.11399e-10
4.86032e-10
4.19205e-10
3.84796e-10
3.73826e-10
3.68525e-10
3.66743e-10
3.65732e-10
3.64871e-10
3.6486e-10
3.64017e-10
3.64033e-10
3.64721e-10
3.64851e-10
3.65604e-10
3.66622e-10
3.68315e-10
3.73299e-10
3.83976e-10
4.15258e-10
4.75579e-10
4.57942e-10
4.01144e-10
3.72825e-10
3.63622e-10
3.59231e-10
3.5759e-10
3.56608e-10
3.55788e-10
3.55672e-10
3.54857e-10
3.54876e-10
3.55535e-10
3.55758e-10
3.56474e-10
3.57469e-10
3.5903e-10
3.63196e-10
3.72106e-10
3.97929e-10
4.49003e-10
4.37958e-10
3.89017e-10
3.65323e-10
3.57489e-10
3.53695e-10
3.52149e-10
3.51175e-10
3.50355e-10
3.50188e-10
3.4935e-10
3.49373e-10
3.50043e-10
3.50317e-10
3.51025e-10
3.52027e-10
3.5349e-10
3.5712e-10
3.64688e-10
3.86402e-10
4.30405e-10
4.25524e-10
3.81715e-10
3.60985e-10
3.54031e-10
3.50581e-10
3.4909e-10
3.48118e-10
3.47284e-10
3.47097e-10
3.46224e-10
3.46252e-10
3.46942e-10
3.47242e-10
3.47947e-10
3.48973e-10
3.50372e-10
3.53691e-10
3.60408e-10
3.7951e-10
4.18982e-10
)
;

boundaryField
{
    fuel
    {
        type            fixedValue;
        value           nonuniform 0();
    }
    wall
    {
        type            zeroGradient;
    }
    outlet
    {
        type            zeroGradient;
    }
    frontAndBack
    {
        type            empty;
    }
    procBoundary1to0
    {
        type            processor;
        value           nonuniform List<scalar> 
21
(
1.03971e-09
7.01554e-10
5.36211e-10
4.84699e-10
4.75415e-10
4.71022e-10
4.70129e-10
4.71122e-10
4.69237e-10
4.71043e-10
4.92843e-10
4.92843e-10
4.91919e-10
4.93073e-10
4.92782e-10
4.93665e-10
4.98078e-10
5.07846e-10
5.52258e-10
6.94455e-10
9.88397e-10
)
;
    }
}


// ************************************************************************* //
