/*--------------------------------*- C++ -*----------------------------------*\
| =========                 |                                                 |
| \\      /  F ield         | OpenFOAM: The Open Source CFD Toolbox           |
|  \\    /   O peration     | Version:  dev                                   |
|   \\  /    A nd           | Web:      www.OpenFOAM.org                      |
|    \\/     M anipulation  |                                                 |
\*---------------------------------------------------------------------------*/
FoamFile
{
    version     2.0;
    format      ascii;
    class       volScalarField;
    location    "0.045";
    object      A2C2HA*;
}
// * * * * * * * * * * * * * * * * * * * * * * * * * * * * * * * * * * * * * //

dimensions      [0 0 0 0 0 0 0];

internalField   nonuniform List<scalar> 
25
(
5.03045e-16
6.09372e-16
7.35079e-16
8.82172e-16
1.05262e-15
1.24826e-15
1.47436e-15
1.73074e-15
2.01742e-15
2.33528e-15
2.68454e-15
3.06457e-15
3.4736e-15
3.90847e-15
4.35353e-15
4.81227e-15
5.27906e-15
5.7485e-15
6.19943e-15
6.61446e-15
6.99186e-15
7.32053e-15
7.59132e-15
7.7977e-15
7.93918e-15
)
;

boundaryField
{
    wall
    {
        type            zeroGradient;
    }
    fuel
    {
        type            fixedValue;
        value           nonuniform 0();
    }
    outlet
    {
        type            inletOutlet;
        inletValue      nonuniform 0();
        value           nonuniform 0();
    }
    procBoundary1to0
    {
        type            processor;
        value           uniform 4.14112e-16;
    }
    procBoundary1to2
    {
        type            processor;
        value           uniform 8.00786e-15;
    }
}


// ************************************************************************* //
