/*--------------------------------*- C++ -*----------------------------------*\
| =========                 |                                                 |
| \\      /  F ield         | OpenFOAM: The Open Source CFD Toolbox           |
|  \\    /   O peration     | Version:  dev                                   |
|   \\  /    A nd           | Web:      www.OpenFOAM.org                      |
|    \\/     M anipulation  |                                                 |
\*---------------------------------------------------------------------------*/
FoamFile
{
    version     2.0;
    format      ascii;
    class       volScalarField;
    location    "0.045";
    object      C6H5O;
}
// * * * * * * * * * * * * * * * * * * * * * * * * * * * * * * * * * * * * * //

dimensions      [0 0 0 0 0 0 0];

internalField   nonuniform List<scalar> 
25
(
5.79274e-17
9.70847e-17
1.71381e-16
3.12002e-16
5.77811e-16
1.07773e-15
2.02465e-15
3.78296e-15
6.98298e-15
1.26993e-14
2.26945e-14
3.97652e-14
6.8191e-14
1.14272e-13
1.85166e-13
2.93321e-13
4.5438e-13
6.89905e-13
1.01842e-12
1.45582e-12
2.03271e-12
2.77083e-12
3.68845e-12
4.79809e-12
6.13544e-12
)
;

boundaryField
{
    wall
    {
        type            zeroGradient;
    }
    fuel
    {
        type            fixedValue;
        value           nonuniform 0();
    }
    outlet
    {
        type            inletOutlet;
        inletValue      nonuniform 0();
        value           nonuniform 0();
    }
    procBoundary1to0
    {
        type            processor;
        value           uniform 3.77696e-17;
    }
    procBoundary1to2
    {
        type            processor;
        value           uniform 7.63668e-12;
    }
}


// ************************************************************************* //
