/*--------------------------------*- C++ -*----------------------------------*\
| =========                 |                                                 |
| \\      /  F ield         | OpenFOAM: The Open Source CFD Toolbox           |
|  \\    /   O peration     | Version:  dev                                   |
|   \\  /    A nd           | Web:      www.OpenFOAM.org                      |
|    \\/     M anipulation  |                                                 |
\*---------------------------------------------------------------------------*/
FoamFile
{
    version     2.0;
    format      ascii;
    class       volScalarField;
    location    "0.045";
    object      CH2O;
}
// * * * * * * * * * * * * * * * * * * * * * * * * * * * * * * * * * * * * * //

dimensions      [0 0 0 0 0 0 0];

internalField   nonuniform List<scalar> 
2000
(
0.00106552
0.00106488
0.00106521
0.00106536
0.00106531
0.00106537
0.00106532
0.00106537
0.00106533
0.00106536
0.00106533
0.00106536
0.00106534
0.00106535
0.00106534
0.00106535
0.00106534
0.00106535
0.00106534
0.00106535
0.00106534
0.00106535
0.00106535
0.00106535
0.00106535
0.00106535
0.00106535
0.00106535
0.00106535
0.00106534
0.00106535
0.00106534
0.00106535
0.00106534
0.00106535
0.00106534
0.00106535
0.00106534
0.00106536
0.00106534
0.00106536
0.00106533
0.00106537
0.00106532
0.00106537
0.00106531
0.00106536
0.00106521
0.00106488
0.00106552
0.0013622
0.00136133
0.00136042
0.00136002
0.0013598
0.00135979
0.00135974
0.00135976
0.00135974
0.00135976
0.00135975
0.00135976
0.00135975
0.00135976
0.00135975
0.00135976
0.00135975
0.00135976
0.00135975
0.00135976
0.00135975
0.00135976
0.00135975
0.00135976
0.00135976
0.00135976
0.00135976
0.00135975
0.00135976
0.00135975
0.00135976
0.00135975
0.00135976
0.00135975
0.00135976
0.00135975
0.00135976
0.00135975
0.00135976
0.00135975
0.00135976
0.00135974
0.00135976
0.00135974
0.00135979
0.0013598
0.00136002
0.00136042
0.00136133
0.0013622
0.000782773
0.000782313
0.000781695
0.0007814
0.000781228
0.000781225
0.00078118
0.000781203
0.000781183
0.0007812
0.000781187
0.000781199
0.00078119
0.000781198
0.000781192
0.000781198
0.000781194
0.000781197
0.000781194
0.000781196
0.000781194
0.000781196
0.000781195
0.000781196
0.000781195
0.000781195
0.000781196
0.000781195
0.000781196
0.000781194
0.000781196
0.000781194
0.000781197
0.000781194
0.000781198
0.000781192
0.000781199
0.00078119
0.000781199
0.000781187
0.000781201
0.000781183
0.000781203
0.00078118
0.000781225
0.000781228
0.0007814
0.000781695
0.000782313
0.000782773
0.000424537
0.00042444
0.000424259
0.000424146
0.000424038
0.000424056
0.000424016
0.000424041
0.000424019
0.000424038
0.000424023
0.000424036
0.000424026
0.000424034
0.000424028
0.000424033
0.000424029
0.000424032
0.000424029
0.000424032
0.00042403
0.000424031
0.00042403
0.000424031
0.00042403
0.00042403
0.000424031
0.00042403
0.000424031
0.00042403
0.000424032
0.000424029
0.000424032
0.000424029
0.000424033
0.000424028
0.000424034
0.000424026
0.000424036
0.000424023
0.000424038
0.000424019
0.000424041
0.000424016
0.000424056
0.000424038
0.000424146
0.000424259
0.000424441
0.000424537
0.000241009
0.000241058
0.000241084
0.00024106
0.000240995
0.000241017
0.000240986
0.000241008
0.000240989
0.000241005
0.000240992
0.000241003
0.000240994
0.000241001
0.000240995
0.000241
0.000240996
0.000240999
0.000240997
0.000240999
0.000240997
0.000240998
0.000240997
0.000240998
0.000240998
0.000240998
0.000240998
0.000240997
0.000240998
0.000240997
0.000240999
0.000240997
0.000240999
0.000240996
0.000241
0.000240995
0.000241001
0.000240994
0.000241003
0.000240992
0.000241005
0.000240989
0.000241008
0.000240986
0.000241017
0.000240995
0.00024106
0.000241084
0.000241058
0.000241009
0.000145175
0.000145263
0.000145362
0.000145374
0.000145334
0.000145355
0.000145331
0.000145349
0.000145333
0.000145346
0.000145335
0.000145344
0.000145337
0.000145343
0.000145338
0.000145342
0.000145339
0.000145341
0.000145339
0.000145341
0.00014534
0.000145341
0.00014534
0.00014534
0.00014534
0.00014534
0.00014534
0.00014534
0.000145341
0.00014534
0.000145341
0.000145339
0.000145341
0.000145339
0.000145342
0.000145338
0.000145343
0.000145337
0.000145344
0.000145335
0.000145346
0.000145333
0.000145349
0.000145331
0.000145355
0.000145334
0.000145374
0.000145362
0.000145263
0.000145175
9.25333e-05
9.26231e-05
9.27407e-05
9.27647e-05
9.27396e-05
9.27576e-05
9.27394e-05
9.27533e-05
9.2741e-05
9.27509e-05
9.27427e-05
9.27495e-05
9.2744e-05
9.27483e-05
9.27447e-05
9.27477e-05
9.27451e-05
9.27473e-05
9.27456e-05
9.27469e-05
9.27459e-05
9.27466e-05
9.2746e-05
9.27464e-05
9.27462e-05
9.27462e-05
9.27464e-05
9.2746e-05
9.27466e-05
9.27459e-05
9.27469e-05
9.27456e-05
9.27473e-05
9.27451e-05
9.27477e-05
9.27447e-05
9.27483e-05
9.2744e-05
9.27495e-05
9.27427e-05
9.27509e-05
9.2741e-05
9.27533e-05
9.27394e-05
9.27576e-05
9.27396e-05
9.27647e-05
9.27407e-05
9.26231e-05
9.25333e-05
6.21084e-05
6.21891e-05
6.23035e-05
6.23308e-05
6.2315e-05
6.23297e-05
6.23159e-05
6.23267e-05
6.23171e-05
6.23248e-05
6.23184e-05
6.23236e-05
6.23193e-05
6.23227e-05
6.23199e-05
6.23222e-05
6.23201e-05
6.23218e-05
6.23206e-05
6.23215e-05
6.23207e-05
6.23213e-05
6.23209e-05
6.23211e-05
6.2321e-05
6.2321e-05
6.23211e-05
6.23209e-05
6.23213e-05
6.23207e-05
6.23215e-05
6.23206e-05
6.23218e-05
6.23202e-05
6.23222e-05
6.23199e-05
6.23227e-05
6.23193e-05
6.23236e-05
6.23184e-05
6.23248e-05
6.23171e-05
6.23267e-05
6.23159e-05
6.23297e-05
6.2315e-05
6.23308e-05
6.23035e-05
6.21891e-05
6.21084e-05
4.36771e-05
4.37472e-05
4.38515e-05
4.38787e-05
4.38687e-05
4.38808e-05
4.38701e-05
4.38786e-05
4.3871e-05
4.3877e-05
4.38719e-05
4.38761e-05
4.38726e-05
4.38753e-05
4.38731e-05
4.38749e-05
4.38733e-05
4.38746e-05
4.38736e-05
4.38744e-05
4.38738e-05
4.38742e-05
4.38738e-05
4.38741e-05
4.3874e-05
4.3874e-05
4.38741e-05
4.38738e-05
4.38742e-05
4.38738e-05
4.38744e-05
4.38736e-05
4.38746e-05
4.38733e-05
4.38749e-05
4.38731e-05
4.38753e-05
4.38727e-05
4.38761e-05
4.38719e-05
4.3877e-05
4.3871e-05
4.38786e-05
4.38701e-05
4.38808e-05
4.38687e-05
4.38787e-05
4.38515e-05
4.37472e-05
4.36771e-05
3.20595e-05
3.21206e-05
3.22139e-05
3.22399e-05
3.22336e-05
3.22438e-05
3.22352e-05
3.22421e-05
3.22359e-05
3.22408e-05
3.22367e-05
3.224e-05
3.22372e-05
3.22394e-05
3.22376e-05
3.2239e-05
3.22377e-05
3.22388e-05
3.2238e-05
3.22386e-05
3.22381e-05
3.22385e-05
3.22382e-05
3.22383e-05
3.22383e-05
3.22383e-05
3.22383e-05
3.22382e-05
3.22385e-05
3.22381e-05
3.22386e-05
3.2238e-05
3.22388e-05
3.22377e-05
3.2239e-05
3.22375e-05
3.22394e-05
3.22372e-05
3.224e-05
3.22367e-05
3.22408e-05
3.22359e-05
3.22421e-05
3.22352e-05
3.22437e-05
3.22336e-05
3.22399e-05
3.22139e-05
3.21206e-05
3.20595e-05
2.44581e-05
2.45123e-05
2.45961e-05
2.46206e-05
2.46168e-05
2.46255e-05
2.46186e-05
2.46243e-05
2.46191e-05
2.46231e-05
2.46197e-05
2.46224e-05
2.46201e-05
2.46219e-05
2.46204e-05
2.46216e-05
2.46205e-05
2.46214e-05
2.46207e-05
2.46212e-05
2.46208e-05
2.46211e-05
2.46209e-05
2.4621e-05
2.4621e-05
2.4621e-05
2.4621e-05
2.46209e-05
2.46211e-05
2.46208e-05
2.46212e-05
2.46207e-05
2.46214e-05
2.46205e-05
2.46216e-05
2.46204e-05
2.46219e-05
2.46201e-05
2.46224e-05
2.46197e-05
2.46231e-05
2.46191e-05
2.46243e-05
2.46186e-05
2.46255e-05
2.46168e-05
2.46206e-05
2.45961e-05
2.45123e-05
2.44581e-05
1.91201e-05
1.91665e-05
1.92371e-05
1.92589e-05
1.92568e-05
1.92639e-05
1.92584e-05
1.9263e-05
1.92588e-05
1.9262e-05
1.92593e-05
1.92615e-05
1.92596e-05
1.9261e-05
1.92598e-05
1.92608e-05
1.92599e-05
1.92606e-05
1.92601e-05
1.92605e-05
1.92602e-05
1.92604e-05
1.92602e-05
1.92603e-05
1.92603e-05
1.92603e-05
1.92603e-05
1.92602e-05
1.92604e-05
1.92602e-05
1.92605e-05
1.92601e-05
1.92606e-05
1.92599e-05
1.92608e-05
1.92598e-05
1.9261e-05
1.92596e-05
1.92615e-05
1.92593e-05
1.9262e-05
1.92588e-05
1.9263e-05
1.92584e-05
1.92639e-05
1.92568e-05
1.92589e-05
1.92371e-05
1.91665e-05
1.91201e-05
1.55285e-05
1.55716e-05
1.56358e-05
1.56565e-05
1.56554e-05
1.56618e-05
1.5657e-05
1.5661e-05
1.56573e-05
1.56601e-05
1.56577e-05
1.56596e-05
1.5658e-05
1.56592e-05
1.56581e-05
1.5659e-05
1.56582e-05
1.56589e-05
1.56584e-05
1.56587e-05
1.56584e-05
1.56586e-05
1.56585e-05
1.56586e-05
1.56585e-05
1.56585e-05
1.56586e-05
1.56585e-05
1.56587e-05
1.56584e-05
1.56587e-05
1.56584e-05
1.56589e-05
1.56582e-05
1.5659e-05
1.56581e-05
1.56592e-05
1.5658e-05
1.56596e-05
1.56577e-05
1.56601e-05
1.56573e-05
1.5661e-05
1.5657e-05
1.56617e-05
1.56554e-05
1.56565e-05
1.56358e-05
1.55716e-05
1.55285e-05
1.29414e-05
1.29712e-05
1.30206e-05
1.30374e-05
1.30384e-05
1.30432e-05
1.30402e-05
1.30429e-05
1.30404e-05
1.30422e-05
1.30406e-05
1.30419e-05
1.30407e-05
1.30416e-05
1.30408e-05
1.30414e-05
1.30409e-05
1.30413e-05
1.3041e-05
1.30412e-05
1.3041e-05
1.30412e-05
1.3041e-05
1.30411e-05
1.30411e-05
1.30411e-05
1.30411e-05
1.3041e-05
1.30412e-05
1.3041e-05
1.30412e-05
1.3041e-05
1.30413e-05
1.30409e-05
1.30414e-05
1.30408e-05
1.30416e-05
1.30407e-05
1.30419e-05
1.30406e-05
1.30423e-05
1.30404e-05
1.30429e-05
1.30402e-05
1.30432e-05
1.30384e-05
1.30374e-05
1.30206e-05
1.29712e-05
1.29414e-05
1.09849e-05
1.10114e-05
1.1054e-05
1.10691e-05
1.10705e-05
1.10747e-05
1.10722e-05
1.10744e-05
1.10724e-05
1.10739e-05
1.10725e-05
1.10736e-05
1.10726e-05
1.10733e-05
1.10727e-05
1.10732e-05
1.10727e-05
1.10731e-05
1.10728e-05
1.1073e-05
1.10728e-05
1.1073e-05
1.10728e-05
1.10729e-05
1.10729e-05
1.10729e-05
1.10729e-05
1.10728e-05
1.1073e-05
1.10728e-05
1.1073e-05
1.10728e-05
1.10731e-05
1.10727e-05
1.10732e-05
1.10727e-05
1.10733e-05
1.10726e-05
1.10735e-05
1.10725e-05
1.10739e-05
1.10723e-05
1.10744e-05
1.10722e-05
1.10746e-05
1.10705e-05
1.10691e-05
1.1054e-05
1.10114e-05
1.09849e-05
9.57404e-06
9.59864e-06
9.63676e-06
9.65085e-06
9.65259e-06
9.65628e-06
9.65421e-06
9.65614e-06
9.65432e-06
9.65564e-06
9.65444e-06
9.65534e-06
9.65453e-06
9.6551e-06
9.65459e-06
9.65499e-06
9.6546e-06
9.65492e-06
9.65468e-06
9.65485e-06
9.65471e-06
9.65481e-06
9.65471e-06
9.65477e-06
9.65475e-06
9.65475e-06
9.65477e-06
9.65471e-06
9.65481e-06
9.65471e-06
9.65485e-06
9.65468e-06
9.65491e-06
9.6546e-06
9.65499e-06
9.65458e-06
9.65511e-06
9.65454e-06
9.65534e-06
9.65444e-06
9.65564e-06
9.65432e-06
9.65614e-06
9.65421e-06
9.65627e-06
9.65258e-06
9.65085e-06
9.63675e-06
9.59864e-06
9.57404e-06
8.46271e-06
8.48719e-06
8.52322e-06
8.53758e-06
8.54e-06
8.54356e-06
8.54179e-06
8.54349e-06
8.54185e-06
8.54299e-06
8.54191e-06
8.5427e-06
8.54197e-06
8.54247e-06
8.542e-06
8.54235e-06
8.54201e-06
8.54228e-06
8.54207e-06
8.54223e-06
8.54209e-06
8.54218e-06
8.5421e-06
8.54215e-06
8.54213e-06
8.54213e-06
8.54215e-06
8.5421e-06
8.54218e-06
8.54209e-06
8.54223e-06
8.54207e-06
8.54228e-06
8.54201e-06
8.54235e-06
8.542e-06
8.54247e-06
8.54197e-06
8.54269e-06
8.54191e-06
8.543e-06
8.54185e-06
8.54349e-06
8.54178e-06
8.54355e-06
8.54e-06
8.53758e-06
8.52322e-06
8.4872e-06
8.46271e-06
7.63066e-06
7.65376e-06
7.68632e-06
7.69976e-06
7.70237e-06
7.70561e-06
7.70412e-06
7.7056e-06
7.70416e-06
7.70514e-06
7.7042e-06
7.70487e-06
7.70423e-06
7.70466e-06
7.70425e-06
7.70455e-06
7.70425e-06
7.70449e-06
7.70431e-06
7.70444e-06
7.70432e-06
7.7044e-06
7.70433e-06
7.70437e-06
7.70435e-06
7.70435e-06
7.70437e-06
7.70433e-06
7.7044e-06
7.70432e-06
7.70444e-06
7.7043e-06
7.70449e-06
7.70425e-06
7.70455e-06
7.70425e-06
7.70466e-06
7.70423e-06
7.70486e-06
7.7042e-06
7.70515e-06
7.70416e-06
7.7056e-06
7.70412e-06
7.70561e-06
7.70237e-06
7.69976e-06
7.68632e-06
7.65377e-06
7.63066e-06
6.95324e-06
6.97664e-06
7.00798e-06
7.02147e-06
7.0241e-06
7.02728e-06
7.02583e-06
7.02725e-06
7.02585e-06
7.0268e-06
7.02588e-06
7.02653e-06
7.02591e-06
7.02632e-06
7.02592e-06
7.02622e-06
7.02593e-06
7.02616e-06
7.02598e-06
7.02611e-06
7.026e-06
7.02607e-06
7.026e-06
7.02604e-06
7.02603e-06
7.02603e-06
7.02604e-06
7.026e-06
7.02607e-06
7.026e-06
7.02611e-06
7.02598e-06
7.02616e-06
7.02593e-06
7.02622e-06
7.02592e-06
7.02632e-06
7.02591e-06
7.02652e-06
7.02588e-06
7.0268e-06
7.02585e-06
7.02725e-06
7.02583e-06
7.02727e-06
7.0241e-06
7.02147e-06
7.00797e-06
6.97664e-06
6.95324e-06
6.41315e-06
6.4355e-06
6.46366e-06
6.47621e-06
6.47893e-06
6.48181e-06
6.4806e-06
6.48183e-06
6.48061e-06
6.48141e-06
6.48061e-06
6.48116e-06
6.48062e-06
6.48097e-06
6.48063e-06
6.48088e-06
6.48062e-06
6.48083e-06
6.48067e-06
6.48078e-06
6.48068e-06
6.48075e-06
6.48069e-06
6.48072e-06
6.48071e-06
6.48071e-06
6.48072e-06
6.48069e-06
6.48075e-06
6.48068e-06
6.48078e-06
6.48067e-06
6.48082e-06
6.48063e-06
6.48088e-06
6.48062e-06
6.48097e-06
6.48062e-06
6.48115e-06
6.48061e-06
6.48141e-06
6.48061e-06
6.48182e-06
6.4806e-06
6.48181e-06
6.47893e-06
6.47621e-06
6.46365e-06
6.4355e-06
6.41315e-06
5.99345e-06
6.01548e-06
6.04144e-06
6.05337e-06
6.05616e-06
6.05886e-06
6.05781e-06
6.0589e-06
6.0578e-06
6.05851e-06
6.05779e-06
6.05827e-06
6.05779e-06
6.05809e-06
6.05778e-06
6.058e-06
6.05778e-06
6.05796e-06
6.05782e-06
6.05792e-06
6.05783e-06
6.05788e-06
6.05783e-06
6.05786e-06
6.05785e-06
6.05785e-06
6.05786e-06
6.05783e-06
6.05788e-06
6.05783e-06
6.05792e-06
6.05782e-06
6.05796e-06
6.05778e-06
6.05801e-06
6.05778e-06
6.05809e-06
6.05779e-06
6.05827e-06
6.05779e-06
6.05851e-06
6.0578e-06
6.0589e-06
6.05781e-06
6.05885e-06
6.05616e-06
6.05337e-06
6.04144e-06
6.01548e-06
5.99345e-06
5.65167e-06
5.67374e-06
5.69786e-06
5.70926e-06
5.71209e-06
5.71463e-06
5.71371e-06
5.71469e-06
5.71369e-06
5.71432e-06
5.71366e-06
5.71409e-06
5.71365e-06
5.71392e-06
5.71364e-06
5.71384e-06
5.71363e-06
5.71379e-06
5.71366e-06
5.71376e-06
5.71367e-06
5.71372e-06
5.71367e-06
5.7137e-06
5.71369e-06
5.71369e-06
5.7137e-06
5.71367e-06
5.71372e-06
5.71367e-06
5.71375e-06
5.71366e-06
5.71379e-06
5.71363e-06
5.71384e-06
5.71364e-06
5.71392e-06
5.71365e-06
5.71409e-06
5.71366e-06
5.71432e-06
5.71369e-06
5.71469e-06
5.71371e-06
5.71463e-06
5.71209e-06
5.70926e-06
5.69786e-06
5.67374e-06
5.65167e-06
5.37067e-06
5.38515e-06
5.40664e-06
5.41726e-06
5.42032e-06
5.42269e-06
5.422e-06
5.42281e-06
5.42195e-06
5.42244e-06
5.42187e-06
5.42221e-06
5.42183e-06
5.42204e-06
5.4218e-06
5.42195e-06
5.42178e-06
5.42191e-06
5.4218e-06
5.42187e-06
5.4218e-06
5.42185e-06
5.4218e-06
5.42183e-06
5.42182e-06
5.42181e-06
5.42183e-06
5.4218e-06
5.42185e-06
5.4218e-06
5.42187e-06
5.4218e-06
5.42191e-06
5.42178e-06
5.42195e-06
5.42179e-06
5.42204e-06
5.42183e-06
5.4222e-06
5.42187e-06
5.42244e-06
5.42195e-06
5.42281e-06
5.422e-06
5.42268e-06
5.42031e-06
5.41726e-06
5.40664e-06
5.38515e-06
5.37067e-06
5.13749e-06
5.15199e-06
5.17209e-06
5.18227e-06
5.18534e-06
5.18759e-06
5.187e-06
5.18773e-06
5.18694e-06
5.18737e-06
5.18685e-06
5.18714e-06
5.18679e-06
5.18698e-06
5.18675e-06
5.18689e-06
5.18673e-06
5.18685e-06
5.18675e-06
5.18682e-06
5.18676e-06
5.18679e-06
5.18675e-06
5.18677e-06
5.18676e-06
5.18676e-06
5.18677e-06
5.18675e-06
5.18679e-06
5.18676e-06
5.18682e-06
5.18675e-06
5.18685e-06
5.18673e-06
5.1869e-06
5.18675e-06
5.18698e-06
5.18679e-06
5.18714e-06
5.18685e-06
5.18737e-06
5.18694e-06
5.18773e-06
5.187e-06
5.18759e-06
5.18533e-06
5.18227e-06
5.17209e-06
5.15199e-06
5.13749e-06
4.93493e-06
4.94943e-06
4.96866e-06
4.97867e-06
4.98182e-06
4.98402e-06
4.98349e-06
4.98416e-06
4.98342e-06
4.9838e-06
4.9833e-06
4.98356e-06
4.98323e-06
4.9834e-06
4.98319e-06
4.98332e-06
4.98316e-06
4.98327e-06
4.98318e-06
4.98324e-06
4.98318e-06
4.98321e-06
4.98318e-06
4.9832e-06
4.98319e-06
4.98319e-06
4.9832e-06
4.98318e-06
4.98321e-06
4.98318e-06
4.98324e-06
4.98318e-06
4.98327e-06
4.98316e-06
4.98332e-06
4.98319e-06
4.9834e-06
4.98323e-06
4.98356e-06
4.9833e-06
4.9838e-06
4.98342e-06
4.98416e-06
4.98349e-06
4.98402e-06
4.98181e-06
4.97866e-06
4.96865e-06
4.94943e-06
4.93493e-06
4.76342e-06
4.77769e-06
4.7957e-06
4.80528e-06
4.80842e-06
4.81052e-06
4.81007e-06
4.81067e-06
4.80998e-06
4.81031e-06
4.80985e-06
4.81008e-06
4.80977e-06
4.80992e-06
4.80972e-06
4.80984e-06
4.8097e-06
4.80979e-06
4.80971e-06
4.80976e-06
4.80971e-06
4.80974e-06
4.8097e-06
4.80972e-06
4.80971e-06
4.80971e-06
4.80972e-06
4.8097e-06
4.80974e-06
4.80971e-06
4.80976e-06
4.80971e-06
4.80979e-06
4.8097e-06
4.80984e-06
4.80972e-06
4.80992e-06
4.80977e-06
4.81008e-06
4.80986e-06
4.81031e-06
4.80998e-06
4.81067e-06
4.81007e-06
4.81052e-06
4.80841e-06
4.80527e-06
4.79569e-06
4.77769e-06
4.76342e-06
4.6167e-06
4.63076e-06
4.64772e-06
4.65691e-06
4.66004e-06
4.66205e-06
4.66166e-06
4.6622e-06
4.66157e-06
4.66185e-06
4.66142e-06
4.66162e-06
4.66133e-06
4.66146e-06
4.66128e-06
4.66138e-06
4.66125e-06
4.66133e-06
4.66126e-06
4.66131e-06
4.66125e-06
4.66128e-06
4.66125e-06
4.66126e-06
4.66126e-06
4.66126e-06
4.66126e-06
4.66125e-06
4.66128e-06
4.66125e-06
4.6613e-06
4.66125e-06
4.66133e-06
4.66125e-06
4.66138e-06
4.66128e-06
4.66146e-06
4.66133e-06
4.66161e-06
4.66142e-06
4.66185e-06
4.66157e-06
4.6622e-06
4.66166e-06
4.66204e-06
4.66003e-06
4.65691e-06
4.64772e-06
4.63076e-06
4.6167e-06
4.48991e-06
4.50375e-06
4.51982e-06
4.52864e-06
4.53175e-06
4.53369e-06
4.53336e-06
4.53384e-06
4.53325e-06
4.53349e-06
4.53309e-06
4.53326e-06
4.53299e-06
4.5331e-06
4.53293e-06
4.53302e-06
4.5329e-06
4.53298e-06
4.5329e-06
4.53295e-06
4.5329e-06
4.53292e-06
4.53289e-06
4.53291e-06
4.5329e-06
4.5329e-06
4.53291e-06
4.53289e-06
4.53292e-06
4.5329e-06
4.53295e-06
4.5329e-06
4.53297e-06
4.5329e-06
4.53302e-06
4.53293e-06
4.5331e-06
4.53299e-06
4.53325e-06
4.53309e-06
4.53349e-06
4.53325e-06
4.53384e-06
4.53335e-06
4.53368e-06
4.53175e-06
4.52864e-06
4.51982e-06
4.50375e-06
4.4899e-06
4.37919e-06
4.3928e-06
4.40813e-06
4.41661e-06
4.41969e-06
4.42156e-06
4.42127e-06
4.42171e-06
4.42115e-06
4.42136e-06
4.42098e-06
4.42112e-06
4.42087e-06
4.42097e-06
4.42081e-06
4.42088e-06
4.42077e-06
4.42084e-06
4.42077e-06
4.42081e-06
4.42077e-06
4.42079e-06
4.42076e-06
4.42077e-06
4.42077e-06
4.42077e-06
4.42077e-06
4.42076e-06
4.42079e-06
4.42077e-06
4.42081e-06
4.42077e-06
4.42084e-06
4.42077e-06
4.42088e-06
4.4208e-06
4.42096e-06
4.42087e-06
4.42112e-06
4.42098e-06
4.42136e-06
4.42115e-06
4.42171e-06
4.42127e-06
4.42155e-06
4.41969e-06
4.41661e-06
4.40813e-06
4.3928e-06
4.37919e-06
4.2815e-06
4.29488e-06
4.30958e-06
4.31773e-06
4.32079e-06
4.32259e-06
4.32234e-06
4.32273e-06
4.32221e-06
4.32238e-06
4.32202e-06
4.32214e-06
4.3219e-06
4.32198e-06
4.32183e-06
4.3219e-06
4.32179e-06
4.32186e-06
4.32179e-06
4.32183e-06
4.32179e-06
4.32181e-06
4.32178e-06
4.32179e-06
4.32178e-06
4.32178e-06
4.32179e-06
4.32178e-06
4.32181e-06
4.32179e-06
4.32183e-06
4.32179e-06
4.32185e-06
4.32179e-06
4.3219e-06
4.32183e-06
4.32198e-06
4.3219e-06
4.32214e-06
4.32202e-06
4.32238e-06
4.32221e-06
4.32273e-06
4.32234e-06
4.32258e-06
4.32078e-06
4.31773e-06
4.30957e-06
4.29488e-06
4.2815e-06
4.19442e-06
4.20757e-06
4.22171e-06
4.22957e-06
4.23259e-06
4.23433e-06
4.23411e-06
4.23447e-06
4.23397e-06
4.23411e-06
4.23377e-06
4.23386e-06
4.23364e-06
4.23371e-06
4.23356e-06
4.23362e-06
4.23352e-06
4.23358e-06
4.23352e-06
4.23355e-06
4.23351e-06
4.23353e-06
4.2335e-06
4.23351e-06
4.23351e-06
4.23351e-06
4.23351e-06
4.2335e-06
4.23353e-06
4.23351e-06
4.23355e-06
4.23351e-06
4.23357e-06
4.23352e-06
4.23362e-06
4.23356e-06
4.2337e-06
4.23364e-06
4.23386e-06
4.23377e-06
4.23411e-06
4.23396e-06
4.23447e-06
4.23411e-06
4.23433e-06
4.23258e-06
4.22957e-06
4.22171e-06
4.20757e-06
4.19442e-06
4.11601e-06
4.12893e-06
4.14257e-06
4.15016e-06
4.15313e-06
4.15483e-06
4.15463e-06
4.15495e-06
4.15447e-06
4.15459e-06
4.15426e-06
4.15434e-06
4.15412e-06
4.15417e-06
4.15403e-06
4.15409e-06
4.15399e-06
4.15404e-06
4.15398e-06
4.15402e-06
4.15398e-06
4.15399e-06
4.15397e-06
4.15398e-06
4.15397e-06
4.15397e-06
4.15398e-06
4.15397e-06
4.15399e-06
4.15398e-06
4.15401e-06
4.15398e-06
4.15404e-06
4.15399e-06
4.15409e-06
4.15403e-06
4.15417e-06
4.15412e-06
4.15433e-06
4.15425e-06
4.15458e-06
4.15447e-06
4.15495e-06
4.15463e-06
4.15482e-06
4.15313e-06
4.15016e-06
4.14257e-06
4.12893e-06
4.11601e-06
4.04472e-06
4.05739e-06
4.0706e-06
4.07793e-06
4.08086e-06
4.0825e-06
4.08233e-06
4.08262e-06
4.08215e-06
4.08224e-06
4.08192e-06
4.08198e-06
4.08177e-06
4.08182e-06
4.08168e-06
4.08173e-06
4.08164e-06
4.08168e-06
4.08163e-06
4.08166e-06
4.08162e-06
4.08163e-06
4.08161e-06
4.08162e-06
4.08161e-06
4.08161e-06
4.08162e-06
4.08161e-06
4.08163e-06
4.08162e-06
4.08165e-06
4.08163e-06
4.08168e-06
4.08164e-06
4.08173e-06
4.08168e-06
4.08182e-06
4.08177e-06
4.08198e-06
4.08192e-06
4.08224e-06
4.08215e-06
4.08261e-06
4.08232e-06
4.0825e-06
4.08086e-06
4.07793e-06
4.0706e-06
4.05739e-06
4.04471e-06
3.97928e-06
3.99171e-06
4.00453e-06
4.01162e-06
4.0145e-06
4.01609e-06
4.01593e-06
4.01619e-06
4.01573e-06
4.0158e-06
4.01549e-06
4.01554e-06
4.01533e-06
4.01537e-06
4.01524e-06
4.01528e-06
4.01519e-06
4.01523e-06
4.01518e-06
4.0152e-06
4.01517e-06
4.01518e-06
4.01516e-06
4.01517e-06
4.01516e-06
4.01516e-06
4.01517e-06
4.01516e-06
4.01518e-06
4.01517e-06
4.0152e-06
4.01517e-06
4.01523e-06
4.01519e-06
4.01527e-06
4.01524e-06
4.01537e-06
4.01533e-06
4.01554e-06
4.01549e-06
4.0158e-06
4.01573e-06
4.01618e-06
4.01593e-06
4.01609e-06
4.01449e-06
4.01162e-06
4.00453e-06
3.99171e-06
3.97928e-06
3.91869e-06
3.93087e-06
3.94333e-06
3.9502e-06
3.95302e-06
3.95457e-06
3.95441e-06
3.95464e-06
3.9542e-06
3.95425e-06
3.95394e-06
3.95398e-06
3.95377e-06
3.9538e-06
3.95367e-06
3.95371e-06
3.95362e-06
3.95366e-06
3.95361e-06
3.95363e-06
3.9536e-06
3.95361e-06
3.95359e-06
3.95359e-06
3.95359e-06
3.95359e-06
3.95359e-06
3.95359e-06
3.95361e-06
3.95359e-06
3.95363e-06
3.95361e-06
3.95366e-06
3.95362e-06
3.95371e-06
3.95367e-06
3.9538e-06
3.95377e-06
3.95397e-06
3.95394e-06
3.95425e-06
3.9542e-06
3.95464e-06
3.95441e-06
3.95457e-06
3.95302e-06
3.9502e-06
3.94333e-06
3.93087e-06
3.91869e-06
3.86213e-06
3.87405e-06
3.88619e-06
3.89284e-06
3.8956e-06
3.89711e-06
3.89695e-06
3.89716e-06
3.89672e-06
3.89675e-06
3.89644e-06
3.89647e-06
3.89627e-06
3.89629e-06
3.89616e-06
3.89619e-06
3.8961e-06
3.89614e-06
3.89609e-06
3.89611e-06
3.89608e-06
3.89609e-06
3.89607e-06
3.89607e-06
3.89607e-06
3.89607e-06
3.89607e-06
3.89607e-06
3.89609e-06
3.89608e-06
3.89611e-06
3.89609e-06
3.89614e-06
3.8961e-06
3.89619e-06
3.89616e-06
3.89629e-06
3.89626e-06
3.89646e-06
3.89644e-06
3.89674e-06
3.89671e-06
3.89715e-06
3.89695e-06
3.8971e-06
3.8956e-06
3.89284e-06
3.88618e-06
3.87405e-06
3.86213e-06
3.80894e-06
3.82057e-06
3.83241e-06
3.83887e-06
3.84156e-06
3.84302e-06
3.84287e-06
3.84305e-06
3.84261e-06
3.84262e-06
3.84232e-06
3.84233e-06
3.84213e-06
3.84215e-06
3.84202e-06
3.84205e-06
3.84196e-06
3.842e-06
3.84195e-06
3.84196e-06
3.84193e-06
3.84194e-06
3.84192e-06
3.84193e-06
3.84192e-06
3.84192e-06
3.84193e-06
3.84192e-06
3.84194e-06
3.84193e-06
3.84196e-06
3.84194e-06
3.84199e-06
3.84196e-06
3.84204e-06
3.84202e-06
3.84215e-06
3.84213e-06
3.84233e-06
3.84232e-06
3.84262e-06
3.84261e-06
3.84304e-06
3.84286e-06
3.84302e-06
3.84156e-06
3.83886e-06
3.83241e-06
3.82057e-06
3.80893e-06
3.75857e-06
3.76989e-06
3.78147e-06
3.78773e-06
3.79035e-06
3.79177e-06
3.79161e-06
3.79176e-06
3.79133e-06
3.79132e-06
3.79102e-06
3.79102e-06
3.79083e-06
3.79083e-06
3.79071e-06
3.79073e-06
3.79065e-06
3.79067e-06
3.79063e-06
3.79064e-06
3.79061e-06
3.79062e-06
3.7906e-06
3.79061e-06
3.7906e-06
3.7906e-06
3.79061e-06
3.7906e-06
3.79062e-06
3.79061e-06
3.79064e-06
3.79062e-06
3.79067e-06
3.79064e-06
3.79073e-06
3.79071e-06
3.79083e-06
3.79082e-06
3.79102e-06
3.79102e-06
3.79132e-06
3.79132e-06
3.79176e-06
3.7916e-06
3.79176e-06
3.79035e-06
3.78772e-06
3.78146e-06
3.76989e-06
3.75856e-06
3.71054e-06
3.72159e-06
3.73289e-06
3.73897e-06
3.74152e-06
3.74289e-06
3.74272e-06
3.74285e-06
3.74242e-06
3.7424e-06
3.7421e-06
3.74209e-06
3.74189e-06
3.74189e-06
3.74177e-06
3.74178e-06
3.7417e-06
3.74173e-06
3.74168e-06
3.74169e-06
3.74166e-06
3.74167e-06
3.74165e-06
3.74166e-06
3.74165e-06
3.74165e-06
3.74166e-06
3.74165e-06
3.74167e-06
3.74166e-06
3.74169e-06
3.74168e-06
3.74172e-06
3.7417e-06
3.74178e-06
3.74176e-06
3.74189e-06
3.74189e-06
3.74209e-06
3.74209e-06
3.7424e-06
3.74242e-06
3.74285e-06
3.74272e-06
3.74288e-06
3.74151e-06
3.73896e-06
3.73289e-06
3.72158e-06
3.71054e-06
3.66451e-06
3.6753e-06
3.68633e-06
3.69222e-06
3.69469e-06
3.69602e-06
3.69584e-06
3.69595e-06
3.69551e-06
3.69548e-06
3.69517e-06
3.69516e-06
3.69496e-06
3.69495e-06
3.69483e-06
3.69484e-06
3.69476e-06
3.69478e-06
3.69473e-06
3.69475e-06
3.69471e-06
3.69472e-06
3.6947e-06
3.69471e-06
3.6947e-06
3.6947e-06
3.69471e-06
3.6947e-06
3.69472e-06
3.69471e-06
3.69474e-06
3.69473e-06
3.69478e-06
3.69475e-06
3.69484e-06
3.69482e-06
3.69495e-06
3.69495e-06
3.69515e-06
3.69517e-06
3.69547e-06
3.69551e-06
3.69595e-06
3.69584e-06
3.69601e-06
3.69469e-06
3.69221e-06
3.68633e-06
3.6753e-06
3.6645e-06
)
;

boundaryField
{
    fuel
    {
        type            fixedValue;
        value           uniform 0;
    }
    wall
    {
        type            zeroGradient;
    }
    outlet
    {
        type            zeroGradient;
    }
    frontAndBack
    {
        type            empty;
    }
    procBoundary1to0
    {
        type            processor;
        value           nonuniform List<scalar> 
50
(
3.62015e-06
3.63072e-06
3.64147e-06
3.64717e-06
3.64957e-06
3.65085e-06
3.65066e-06
3.65074e-06
3.6503e-06
3.65025e-06
3.64995e-06
3.64992e-06
3.64972e-06
3.64971e-06
3.64958e-06
3.64959e-06
3.64951e-06
3.64953e-06
3.64948e-06
3.64949e-06
3.64946e-06
3.64947e-06
3.64945e-06
3.64946e-06
3.64945e-06
3.64945e-06
3.64946e-06
3.64945e-06
3.64947e-06
3.64946e-06
3.64949e-06
3.64948e-06
3.64953e-06
3.64951e-06
3.64959e-06
3.64958e-06
3.6497e-06
3.64971e-06
3.64992e-06
3.64995e-06
3.65025e-06
3.6503e-06
3.65074e-06
3.65065e-06
3.65084e-06
3.64957e-06
3.64717e-06
3.64146e-06
3.63072e-06
3.62015e-06
)
;
    }
}


// ************************************************************************* //
