/*--------------------------------*- C++ -*----------------------------------*\
| =========                 |                                                 |
| \\      /  F ield         | OpenFOAM: The Open Source CFD Toolbox           |
|  \\    /   O peration     | Version:  dev                                   |
|   \\  /    A nd           | Web:      www.OpenFOAM.org                      |
|    \\/     M anipulation  |                                                 |
\*---------------------------------------------------------------------------*/
FoamFile
{
    version     2.0;
    format      ascii;
    class       volScalarField;
    location    "0.045";
    object      CO2;
}
// * * * * * * * * * * * * * * * * * * * * * * * * * * * * * * * * * * * * * //

dimensions      [0 0 0 0 0 0 0];

internalField   nonuniform List<scalar> 
250
(
0.0483905
0.0476938
0.0473388
0.047257
0.0471628
0.0471966
0.0471672
0.0471887
0.0471759
0.0471838
0.048298
0.0476872
0.0473946
0.0473104
0.0472367
0.0472566
0.0472358
0.0472497
0.0472409
0.0472456
0.0472457
0.0472407
0.0472476
0.0472381
0.0472482
0.047249
0.0472866
0.0474082
0.0476802
0.048145
0.0481946
0.0476582
0.0474214
0.047332
0.0472777
0.047284
0.0472715
0.0472779
0.0472732
0.0472745
0.0472743
0.0472724
0.0472761
0.0472715
0.0472784
0.0472826
0.0473172
0.0474226
0.0476644
0.0480652
0.0480779
0.0476063
0.047418
0.0473232
0.047286
0.0472801
0.047275
0.0472747
0.0472736
0.0472717
0.0472713
0.0472722
0.047273
0.0472728
0.0472769
0.0472843
0.0473161
0.0474073
0.047623
0.0479665
0.0479475
0.0475328
0.0473858
0.047287
0.047264
0.0472482
0.0472491
0.0472433
0.047245
0.0472404
0.0472397
0.0472431
0.0472415
0.0472451
0.0472467
0.0472569
0.0472859
0.0473649
0.0475569
0.0478504
0.0478046
0.0474413
0.0473279
0.047228
0.047216
0.047193
0.0471981
0.0471882
0.0471921
0.0471852
0.0471841
0.0471897
0.0471862
0.0471929
0.0471925
0.0472049
0.0472309
0.0472995
0.0474693
0.0477151
0.0476472
0.0473363
0.0472494
0.0471519
0.0471473
0.0471201
0.0471278
0.0471151
0.0471203
0.0471115
0.0471101
0.0471174
0.0471126
0.0471216
0.0471198
0.0471338
0.0471568
0.0472165
0.047365
0.0475726
0.0474884
0.047223
0.0471562
0.0470644
0.047064
0.0470354
0.0470439
0.0470299
0.0470355
0.0470254
0.0470236
0.0470322
0.0470267
0.0470371
0.0470346
0.0470494
0.0470694
0.0471218
0.0472495
0.0474242
0.0473296
0.047107
0.0470546
0.0469712
0.0469725
0.0469445
0.0469525
0.0469383
0.0469437
0.0469326
0.0469305
0.04694
0.0469343
0.0469454
0.0469426
0.0469578
0.046975
0.0470212
0.047129
0.0472754
0.0471768
0.0469937
0.0469511
0.046878
0.0468787
0.046853
0.0468595
0.046846
0.0468506
0.0468389
0.0468364
0.0468465
0.046841
0.0468523
0.0468497
0.0468648
0.0468794
0.0469205
0.0470098
0.0471323
0.0470368
0.046889
0.0468523
0.0467901
0.0467889
0.0467666
0.0467708
0.0467586
0.0467621
0.0467499
0.0467472
0.0467575
0.0467526
0.0467637
0.0467615
0.0467763
0.0467886
0.0468257
0.0468983
0.0470013
0.0469187
0.0468001
0.0467662
0.0467146
0.0467106
0.046692
0.0466937
0.0466831
0.0466854
0.0466729
0.04667
0.0466805
0.0466762
0.0466868
0.0466852
0.0466995
0.0467099
0.0467441
0.0468028
0.0468908
0.0468382
0.0467396
0.0467063
0.046663
0.0466562
0.0466409
0.0466404
0.0466313
0.0466324
0.04662
0.0466169
0.0466273
0.0466237
0.0466337
0.0466327
0.0466465
0.0466556
0.0466881
0.0467371
0.0468157
)
;

boundaryField
{
    fuel
    {
        type            fixedValue;
        value           nonuniform 0();
    }
    wall
    {
        type            zeroGradient;
    }
    outlet
    {
        type            zeroGradient;
    }
    frontAndBack
    {
        type            empty;
    }
    procBoundary1to0
    {
        type            processor;
        value           nonuniform List<scalar> 
21
(
0.0484757
0.0476807
0.0472577
0.0471731
0.0470585
0.047105
0.0470675
0.0470961
0.0470795
0.0470905
0.0471841
0.0471841
0.0471763
0.0471863
0.047172
0.0471852
0.0471828
0.0472236
0.0473637
0.0476713
0.0482066
)
;
    }
}


// ************************************************************************* //
