/*--------------------------------*- C++ -*----------------------------------*\
| =========                 |                                                 |
| \\      /  F ield         | OpenFOAM: The Open Source CFD Toolbox           |
|  \\    /   O peration     | Version:  dev                                   |
|   \\  /    A nd           | Web:      www.OpenFOAM.org                      |
|    \\/     M anipulation  |                                                 |
\*---------------------------------------------------------------------------*/
FoamFile
{
    version     2.0;
    format      ascii;
    class       volScalarField;
    location    "0.045";
    object      H2O2;
}
// * * * * * * * * * * * * * * * * * * * * * * * * * * * * * * * * * * * * * //

dimensions      [0 0 0 0 0 0 0];

internalField   nonuniform List<scalar> 
250
(
4.72026e-12
4.94249e-12
4.83663e-12
4.9424e-12
4.6173e-12
4.60171e-12
4.57589e-12
4.50213e-12
4.58333e-12
4.50045e-12
3.48631e-12
3.59037e-12
3.45242e-12
3.52081e-12
3.27778e-12
3.2668e-12
3.2485e-12
3.19349e-12
3.25506e-12
3.19219e-12
3.19283e-12
3.24002e-12
3.19391e-12
3.23478e-12
3.25793e-12
3.25664e-12
3.46829e-12
3.44956e-12
3.51527e-12
3.51718e-12
2.51497e-12
2.54514e-12
2.41194e-12
2.45632e-12
2.28095e-12
2.27356e-12
2.26098e-12
2.22124e-12
2.26647e-12
2.22028e-12
2.22081e-12
2.2555e-12
2.22164e-12
2.25117e-12
2.26726e-12
2.26603e-12
2.41839e-12
2.41107e-12
2.49133e-12
2.53571e-12
1.77831e-12
1.76787e-12
1.65595e-12
1.68487e-12
1.56209e-12
1.55731e-12
1.54886e-12
1.52093e-12
1.55328e-12
1.52022e-12
1.52066e-12
1.54549e-12
1.52128e-12
1.54203e-12
1.55298e-12
1.55183e-12
1.65845e-12
1.65612e-12
1.73152e-12
1.79514e-12
1.23928e-12
1.20848e-12
1.12128e-12
1.14013e-12
1.05614e-12
1.05315e-12
1.04757e-12
1.02834e-12
1.05105e-12
1.02783e-12
1.02818e-12
1.04561e-12
1.02864e-12
1.0429e-12
1.05023e-12
1.04922e-12
1.12217e-12
1.12186e-12
1.18522e-12
1.25444e-12
8.57388e-13
8.15759e-13
7.50061e-13
7.62215e-13
7.0571e-13
7.03901e-13
7.00256e-13
6.87232e-13
7.02944e-13
6.86862e-13
6.87134e-13
6.99202e-13
6.87478e-13
6.97107e-13
7.01965e-13
7.01126e-13
7.50199e-13
7.50694e-13
7.98562e-13
8.71207e-13
5.97615e-13
5.45954e-13
4.95984e-13
5.03375e-13
4.66031e-13
4.64975e-13
4.62615e-13
4.5396e-13
4.64653e-13
4.53693e-13
4.53902e-13
4.62114e-13
4.54155e-13
4.60525e-13
4.63707e-13
4.63043e-13
4.95464e-13
4.96421e-13
5.34324e-13
6.09e-13
4.45837e-13
3.72033e-13
3.30052e-13
3.33296e-13
3.09701e-13
3.09096e-13
3.07619e-13
3.0215e-13
3.09055e-13
3.01954e-13
3.02111e-13
3.07407e-13
3.0229e-13
3.06286e-13
3.083e-13
3.07823e-13
3.28287e-13
3.29923e-13
3.62603e-13
4.48524e-13
4.37812e-13
2.95634e-13
2.45965e-13
2.43828e-13
2.30068e-13
2.29611e-13
2.28718e-13
2.25544e-13
2.29564e-13
2.25353e-13
2.25485e-13
2.28562e-13
2.2563e-13
2.27905e-13
2.29144e-13
2.28912e-13
2.40875e-13
2.44474e-13
2.8219e-13
4.08191e-13
6.00782e-13
3.13073e-13
2.31589e-13
2.22418e-13
2.1324e-13
2.12603e-13
2.11918e-13
2.09799e-13
2.1245e-13
2.09484e-13
2.09648e-13
2.11708e-13
2.09869e-13
2.11312e-13
2.12292e-13
2.1237e-13
2.20471e-13
2.28157e-13
2.87426e-13
5.00654e-13
7.79359e-13
3.51696e-13
2.38895e-13
2.24464e-13
2.16823e-13
2.15919e-13
2.15283e-13
2.13461e-13
2.15738e-13
2.12998e-13
2.13214e-13
2.15036e-13
2.13542e-13
2.14717e-13
2.15669e-13
2.16041e-13
2.22907e-13
2.34265e-13
3.15386e-13
6.14111e-13
8.62558e-13
3.68149e-13
2.42926e-13
2.2639e-13
2.19948e-13
2.1885e-13
2.18299e-13
2.16632e-13
2.18701e-13
2.16083e-13
2.1633e-13
2.18031e-13
2.16722e-13
2.17761e-13
2.18648e-13
2.19247e-13
2.25137e-13
2.38131e-13
3.28824e-13
6.70893e-13
8.95455e-13
3.72835e-13
2.44399e-13
2.27309e-13
2.2174e-13
2.20529e-13
2.20064e-13
2.18486e-13
2.20425e-13
2.17901e-13
2.1816e-13
2.19785e-13
2.18579e-13
2.19546e-13
2.20365e-13
2.21101e-13
2.26267e-13
2.39795e-13
3.3377e-13
6.96906e-13
)
;

boundaryField
{
    fuel
    {
        type            fixedValue;
        value           nonuniform 0();
    }
    wall
    {
        type            zeroGradient;
    }
    outlet
    {
        type            zeroGradient;
    }
    frontAndBack
    {
        type            empty;
    }
    procBoundary1to0
    {
        type            processor;
        value           nonuniform List<scalar> 
21
(
6.25123e-12
6.61177e-12
6.60862e-12
6.76926e-12
6.35292e-12
6.3317e-12
6.29679e-12
6.20156e-12
6.30474e-12
6.19949e-12
4.50108e-12
4.50108e-12
4.56324e-12
4.5024e-12
4.55716e-12
4.58917e-12
4.58813e-12
4.87072e-12
4.83063e-12
4.8393e-12
4.78691e-12
)
;
    }
}


// ************************************************************************* //
