/*--------------------------------*- C++ -*----------------------------------*\
| =========                 |                                                 |
| \\      /  F ield         | OpenFOAM: The Open Source CFD Toolbox           |
|  \\    /   O peration     | Version:  dev                                   |
|   \\  /    A nd           | Web:      www.OpenFOAM.org                      |
|    \\/     M anipulation  |                                                 |
\*---------------------------------------------------------------------------*/
FoamFile
{
    version     2.0;
    format      ascii;
    class       volScalarField;
    location    "0.045";
    object      i-A1C2H2;
}
// * * * * * * * * * * * * * * * * * * * * * * * * * * * * * * * * * * * * * //

dimensions      [0 0 0 0 0 0 0];

internalField   nonuniform List<scalar> 
250
(
4.27868e-11
2.03837e-11
1.65548e-11
1.58781e-11
1.52939e-11
1.54942e-11
1.5283e-11
1.54217e-11
1.53177e-11
1.53794e-11
3.86006e-11
2.09949e-11
1.76301e-11
1.72249e-11
1.65739e-11
1.68666e-11
1.65926e-11
1.67788e-11
1.66379e-11
1.67186e-11
1.67235e-11
1.66344e-11
1.6749e-11
1.66189e-11
1.67466e-11
1.67041e-11
1.69316e-11
1.78572e-11
2.13599e-11
3.42318e-11
3.61945e-11
2.24324e-11
1.93329e-11
1.93039e-11
1.8506e-11
1.89638e-11
1.85772e-11
1.88506e-11
1.8645e-11
1.87608e-11
1.87681e-11
1.86387e-11
1.88064e-11
1.86151e-11
1.87909e-11
1.86911e-11
1.88848e-11
1.97019e-11
2.26063e-11
3.39452e-11
3.58147e-11
2.51867e-11
2.2138e-11
2.26373e-11
2.15819e-11
2.23044e-11
2.17345e-11
2.215e-11
2.18398e-11
2.20134e-11
2.20239e-11
2.18308e-11
2.20825e-11
2.17946e-11
2.20468e-11
2.18621e-11
2.20177e-11
2.27363e-11
2.50108e-11
3.51438e-11
3.80436e-11
3.00707e-11
2.6838e-11
2.80709e-11
2.66085e-11
2.7727e-11
2.68759e-11
2.75077e-11
2.7037e-11
2.72989e-11
2.7313e-11
2.70254e-11
2.74028e-11
2.69726e-11
2.73398e-11
2.70371e-11
2.71496e-11
2.77809e-11
2.93646e-11
3.86448e-11
4.40813e-11
3.8525e-11
3.48159e-11
3.70899e-11
3.49935e-11
3.67057e-11
3.54202e-11
3.63827e-11
3.56628e-11
3.60605e-11
3.60778e-11
3.56497e-11
3.62166e-11
3.55764e-11
3.61164e-11
3.56501e-11
3.57107e-11
3.62694e-11
3.70419e-11
4.59473e-11
5.66914e-11
5.34612e-11
4.8807e-11
5.26959e-11
4.95494e-11
5.22212e-11
5.02176e-11
5.17224e-11
5.05895e-11
5.12107e-11
5.12299e-11
5.05773e-11
5.14505e-11
5.04765e-11
5.12941e-11
5.05817e-11
5.05687e-11
5.10712e-11
5.07626e-11
5.96689e-11
8.15727e-11
8.15768e-11
7.50992e-11
8.1767e-11
7.67508e-11
8.11023e-11
7.78228e-11
8.02846e-11
7.84161e-11
7.94313e-11
7.94504e-11
7.84084e-11
7.98185e-11
7.82691e-11
7.95701e-11
7.84518e-11
7.83191e-11
7.87784e-11
7.67768e-11
8.63527e-11
1.34693e-10
1.39598e-10
1.29788e-10
1.41203e-10
1.32899e-10
1.40108e-10
1.34586e-10
1.3869e-10
1.35523e-10
1.37211e-10
1.37215e-10
1.35523e-10
1.37858e-10
1.3536e-10
1.37491e-10
1.3576e-10
1.35434e-10
1.35903e-10
1.31052e-10
1.42225e-10
2.58538e-10
2.68055e-10
2.54402e-10
2.69732e-10
2.5795e-10
2.67471e-10
2.59574e-10
2.65086e-10
2.60517e-10
2.62759e-10
2.62611e-10
2.60524e-10
2.6365e-10
2.60654e-10
2.63509e-10
2.61863e-10
2.61426e-10
2.62618e-10
2.5486e-10
2.69152e-10
5.22487e-10
4.96006e-10
4.98894e-10
4.80478e-10
4.83785e-10
4.75081e-10
4.76878e-10
4.72793e-10
4.73596e-10
4.71802e-10
4.70608e-10
4.73718e-10
4.7119e-10
4.76231e-10
4.74064e-10
4.80648e-10
4.81597e-10
4.89161e-10
4.98712e-10
5.20289e-10
7.32742e-10
6.22873e-10
6.61774e-10
5.82939e-10
6.11471e-10
5.74595e-10
5.92032e-10
5.73199e-10
5.82963e-10
5.7491e-10
5.71925e-10
5.83897e-10
5.71286e-10
5.89496e-10
5.77972e-10
5.9772e-10
5.99031e-10
6.18486e-10
6.62071e-10
6.94006e-10
7.51333e-10
6.40117e-10
6.73292e-10
5.97908e-10
6.1991e-10
5.8773e-10
6.01545e-10
5.84846e-10
5.93357e-10
5.85706e-10
5.81367e-10
5.95836e-10
5.80674e-10
6.02001e-10
5.87523e-10
6.12066e-10
6.08943e-10
6.38193e-10
6.7686e-10
7.19321e-10
)
;

boundaryField
{
    fuel
    {
        type            fixedValue;
        value           nonuniform 0();
    }
    wall
    {
        type            zeroGradient;
    }
    outlet
    {
        type            zeroGradient;
    }
    frontAndBack
    {
        type            empty;
    }
    procBoundary1to0
    {
        type            processor;
        value           nonuniform List<scalar> 
21
(
4.8705e-11
2.03024e-11
1.58278e-11
1.49399e-11
1.43705e-11
1.45257e-11
1.43448e-11
1.44621e-11
1.4377e-11
1.44305e-11
1.53827e-11
1.53827e-11
1.5317e-11
1.54005e-11
1.53055e-11
1.54051e-11
1.53989e-11
1.56562e-11
1.67001e-11
2.07888e-11
3.54794e-11
)
;
    }
}


// ************************************************************************* //
