/*--------------------------------*- C++ -*----------------------------------*\
| =========                 |                                                 |
| \\      /  F ield         | OpenFOAM: The Open Source CFD Toolbox           |
|  \\    /   O peration     | Version:  dev                                   |
|   \\  /    A nd           | Web:      www.OpenFOAM.org                      |
|    \\/     M anipulation  |                                                 |
\*---------------------------------------------------------------------------*/
FoamFile
{
    version     2.0;
    format      ascii;
    class       volScalarField;
    location    "0.045";
    object      n-C4H5;
}
// * * * * * * * * * * * * * * * * * * * * * * * * * * * * * * * * * * * * * //

dimensions      [0 0 0 0 0 0 0];

internalField   nonuniform List<scalar> 
250
(
1.765e-11
1.69407e-11
1.47632e-11
1.65682e-11
1.51242e-11
1.64878e-11
1.56215e-11
1.63535e-11
1.58942e-11
1.61926e-11
2.11913e-11
2.28819e-11
1.95826e-11
2.34276e-11
2.08492e-11
2.34146e-11
2.18135e-11
2.31748e-11
2.2317e-11
2.28706e-11
2.29189e-11
2.23315e-11
2.30407e-11
2.20953e-11
2.27419e-11
2.18792e-11
2.16557e-11
2.17184e-11
2.0138e-11
2.19737e-11
2.87599e-11
3.4137e-11
2.90687e-11
3.61761e-11
3.17914e-11
3.62552e-11
3.34785e-11
3.58412e-11
3.43403e-11
3.53012e-11
3.5389e-11
3.436e-11
3.56064e-11
3.3964e-11
3.50947e-11
3.35894e-11
3.31353e-11
3.29277e-11
2.93081e-11
3.08961e-11
4.3364e-11
5.45917e-11
4.69311e-11
5.90383e-11
5.19213e-11
5.92424e-11
5.46711e-11
5.85549e-11
5.60627e-11
5.76456e-11
5.7797e-11
5.60856e-11
5.81666e-11
5.54625e-11
5.73467e-11
5.48797e-11
5.4103e-11
5.34274e-11
4.66103e-11
4.75481e-11
7.02754e-11
9.05937e-11
7.94313e-11
9.87846e-11
8.77503e-11
9.91514e-11
9.19668e-11
9.80534e-11
9.41014e-11
9.65921e-11
9.6832e-11
9.41327e-11
9.74306e-11
9.32095e-11
9.61879e-11
9.23845e-11
9.11553e-11
8.97331e-11
7.80504e-11
7.74294e-11
1.18666e-10
1.52915e-10
1.37172e-10
1.66907e-10
1.50245e-10
1.67491e-10
1.56466e-10
1.65771e-10
1.5965e-10
1.63481e-10
1.63829e-10
1.59718e-10
1.6477e-10
1.58406e-10
1.6294e-10
1.57323e-10
1.55414e-10
1.52869e-10
1.33826e-10
1.31525e-10
2.08895e-10
2.63318e-10
2.40827e-10
2.86975e-10
2.61258e-10
2.87899e-10
2.70564e-10
2.85142e-10
2.75428e-10
2.81475e-10
2.81954e-10
2.75618e-10
2.83453e-10
2.7373e-10
2.80687e-10
2.72343e-10
2.69243e-10
2.64961e-10
2.33903e-10
2.2638e-10
3.81655e-10
4.7676e-10
4.41538e-10
5.18834e-10
4.75684e-10
5.20405e-10
4.90823e-10
5.15648e-10
4.98941e-10
5.09311e-10
5.09991e-10
4.99454e-10
5.12556e-10
4.965e-10
5.07961e-10
4.94616e-10
4.89086e-10
4.81677e-10
4.2789e-10
4.10878e-10
7.74709e-10
9.58197e-10
8.94293e-10
1.04031e-09
9.58607e-10
1.04321e-09
9.86554e-10
1.03409e-09
1.00191e-09
1.02186e-09
1.02294e-09
1.00325e-09
1.02784e-09
9.98001e-10
1.01916e-09
9.95164e-10
9.84094e-10
9.70048e-10
8.66461e-10
8.29317e-10
1.88143e-09
2.27476e-09
2.14593e-09
2.44688e-09
2.27818e-09
2.45163e-09
2.33399e-09
2.43247e-09
2.36558e-09
2.40693e-09
2.40846e-09
2.36931e-09
2.41858e-09
2.35952e-09
2.40114e-09
2.35594e-09
2.33127e-09
2.30404e-09
2.0834e-09
1.99615e-09
5.59078e-09
6.24239e-09
6.10436e-09
6.49293e-09
6.26606e-09
6.48753e-09
6.32581e-09
6.45655e-09
6.36528e-09
6.41999e-09
6.41493e-09
6.37765e-09
6.42883e-09
6.37263e-09
6.41183e-09
6.38532e-09
6.33592e-09
6.32454e-09
5.95921e-09
5.76919e-09
1.62132e-08
1.55527e-08
1.62466e-08
1.53374e-08
1.56823e-08
1.52616e-08
1.54546e-08
1.52563e-08
1.53706e-08
1.52868e-08
1.52336e-08
1.54154e-08
1.52162e-08
1.54855e-08
1.52878e-08
1.56002e-08
1.55301e-08
1.57912e-08
1.59814e-08
1.58365e-08
3.95977e-08
3.40183e-08
3.71256e-08
3.23937e-08
3.42755e-08
3.21345e-08
3.3269e-08
3.21906e-08
3.28599e-08
3.24068e-08
3.21879e-08
3.30427e-08
3.20693e-08
3.33182e-08
3.23776e-08
3.37118e-08
3.3487e-08
3.47297e-08
3.67086e-08
3.74587e-08
)
;

boundaryField
{
    fuel
    {
        type            fixedValue;
        value           nonuniform 0();
    }
    wall
    {
        type            zeroGradient;
    }
    outlet
    {
        type            zeroGradient;
    }
    frontAndBack
    {
        type            empty;
    }
    procBoundary1to0
    {
        type            processor;
        value           nonuniform List<scalar> 
21
(
1.65132e-11
1.40207e-11
1.25391e-11
1.30561e-11
1.23156e-11
1.29291e-11
1.25127e-11
1.28573e-11
1.26387e-11
1.27817e-11
1.62184e-11
1.62184e-11
1.59025e-11
1.62826e-11
1.57726e-11
1.61225e-11
1.56697e-11
1.56021e-11
1.5826e-11
1.55433e-11
1.75262e-11
)
;
    }
}


// ************************************************************************* //
