/*--------------------------------*- C++ -*----------------------------------*\
| =========                 |                                                 |
| \\      /  F ield         | OpenFOAM: The Open Source CFD Toolbox           |
|  \\    /   O peration     | Version:  dev                                   |
|   \\  /    A nd           | Web:      www.OpenFOAM.org                      |
|    \\/     M anipulation  |                                                 |
\*---------------------------------------------------------------------------*/
FoamFile
{
    version     2.0;
    format      ascii;
    class       volScalarField;
    location    "0.045";
    object      O;
}
// * * * * * * * * * * * * * * * * * * * * * * * * * * * * * * * * * * * * * //

dimensions      [0 0 0 0 0 0 0];

internalField   nonuniform List<scalar> 
250
(
1.53045e-09
1.88087e-09
1.84594e-09
1.91913e-09
1.72943e-09
1.7217e-09
1.70717e-09
1.66436e-09
1.7123e-09
1.66313e-09
9.37938e-10
1.09682e-09
1.03934e-09
1.07572e-09
9.60501e-10
9.55951e-10
9.47655e-10
9.21983e-10
9.51281e-10
9.21244e-10
9.21554e-10
9.44095e-10
9.22198e-10
9.41237e-10
9.51793e-10
9.50686e-10
1.05035e-09
1.03876e-09
1.05894e-09
9.1256e-10
5.3212e-10
5.95196e-10
5.46334e-10
5.63504e-10
4.98746e-10
4.963e-10
4.91887e-10
4.77589e-10
4.94236e-10
4.77171e-10
4.77368e-10
4.90186e-10
4.77748e-10
4.88356e-10
4.94023e-10
4.93425e-10
5.49276e-10
5.46472e-10
5.73604e-10
5.17361e-10
2.77478e-10
2.98334e-10
2.66127e-10
2.73773e-10
2.4028e-10
2.39083e-10
2.3691e-10
2.29559e-10
2.38301e-10
2.29339e-10
2.29456e-10
2.36193e-10
2.29666e-10
2.35116e-10
2.37941e-10
2.37622e-10
2.66464e-10
2.66426e-10
2.87223e-10
2.69807e-10
1.31592e-10
1.36555e-10
1.18688e-10
1.21864e-10
1.06064e-10
1.05536e-10
1.04554e-10
1.01099e-10
1.05303e-10
1.00992e-10
1.01056e-10
1.04298e-10
1.01162e-10
1.0372e-10
1.05012e-10
1.04853e-10
1.18439e-10
1.18931e-10
1.31445e-10
1.27999e-10
5.57494e-11
5.59934e-11
4.7487e-11
4.86927e-11
4.20049e-11
4.1799e-11
4.13982e-11
3.99394e-11
4.17585e-11
3.98928e-11
3.99232e-11
4.13274e-11
3.99722e-11
4.10499e-11
4.15829e-11
4.15105e-11
4.72503e-11
4.76307e-11
5.35634e-11
5.42326e-11
2.04675e-11
1.99154e-11
1.64793e-11
1.6883e-11
1.44173e-11
1.43487e-11
1.42054e-11
1.36688e-11
1.43558e-11
1.36511e-11
1.36636e-11
1.41944e-11
1.36832e-11
1.40786e-11
1.42707e-11
1.42422e-11
1.63525e-11
1.65467e-11
1.90053e-11
1.99079e-11
6.19839e-12
5.83268e-12
4.70161e-12
4.81426e-12
4.062e-12
4.04348e-12
4.00094e-12
3.83772e-12
4.05255e-12
3.83229e-12
3.83644e-12
4.00251e-12
3.8428e-12
3.96279e-12
4.02009e-12
4.01097e-12
4.65216e-12
4.72647e-12
5.55032e-12
6.02495e-12
1.44779e-12
1.30742e-12
1.02438e-12
1.04826e-12
8.72753e-13
8.68996e-13
8.59372e-13
8.21406e-13
8.72735e-13
8.20198e-13
8.2122e-13
8.60899e-13
8.22739e-13
8.50617e-13
8.63602e-13
8.61457e-13
1.01016e-12
1.03107e-12
1.23941e-12
1.40428e-12
2.55719e-13
2.12359e-13
1.60431e-13
1.63556e-13
1.34667e-13
1.34109e-13
1.32587e-13
1.26343e-13
1.34977e-13
1.26166e-13
1.26337e-13
1.3301e-13
1.2658e-13
1.31172e-13
1.33224e-13
1.32906e-13
1.57197e-13
1.61533e-13
1.99863e-13
2.44923e-13
5.0722e-14
2.89927e-14
1.89157e-14
1.86461e-14
1.53248e-14
1.52538e-14
1.50872e-14
1.43749e-14
1.53736e-14
1.43549e-14
1.43753e-14
1.51477e-14
1.44031e-14
1.49281e-14
1.51525e-14
1.51316e-14
1.78986e-14
1.88612e-14
2.61278e-14
4.38747e-14
3.12624e-14
9.37337e-15
3.49707e-15
2.81129e-15
2.40712e-15
2.39135e-15
2.37081e-15
2.29379e-15
2.4036e-15
2.28792e-15
2.29229e-15
2.37695e-15
2.29761e-15
2.35198e-15
2.38047e-15
2.38359e-15
2.71629e-15
3.26822e-15
7.24196e-15
2.22518e-14
4.12785e-14
1.04008e-14
2.83195e-15
1.90218e-15
1.67112e-15
1.65836e-15
1.64436e-15
1.60953e-15
1.66311e-15
1.60219e-15
1.60691e-15
1.64777e-15
1.61252e-15
1.63347e-15
1.65384e-15
1.6575e-15
1.84758e-15
2.51962e-15
7.50261e-15
2.73434e-14
)
;

boundaryField
{
    fuel
    {
        type            fixedValue;
        value           nonuniform 0();
    }
    wall
    {
        type            zeroGradient;
    }
    outlet
    {
        type            zeroGradient;
    }
    frontAndBack
    {
        type            empty;
    }
    procBoundary1to0
    {
        type            processor;
        value           nonuniform List<scalar> 
21
(
2.31946e-09
3.01139e-09
3.07672e-09
3.21473e-09
2.92615e-09
2.91402e-09
2.89051e-09
2.82401e-09
2.89713e-09
2.82216e-09
1.66348e-09
1.66348e-09
1.70034e-09
1.66448e-09
1.69623e-09
1.71429e-09
1.7125e-09
1.87608e-09
1.84366e-09
1.81673e-09
1.48858e-09
)
;
    }
}


// ************************************************************************* //
