/*--------------------------------*- C++ -*----------------------------------*\
| =========                 |                                                 |
| \\      /  F ield         | OpenFOAM: The Open Source CFD Toolbox           |
|  \\    /   O peration     | Version:  dev                                   |
|   \\  /    A nd           | Web:      www.OpenFOAM.org                      |
|    \\/     M anipulation  |                                                 |
\*---------------------------------------------------------------------------*/
FoamFile
{
    version     2.0;
    format      ascii;
    class       volScalarField;
    location    "0.045";
    object      O;
}
// * * * * * * * * * * * * * * * * * * * * * * * * * * * * * * * * * * * * * //

dimensions      [0 0 0 0 0 0 0];

internalField   nonuniform List<scalar> 
25
(
7.52814e-06
6.79634e-06
6.11938e-06
5.49512e-06
4.92129e-06
4.3956e-06
3.90799e-06
3.4618e-06
3.05692e-06
2.69052e-06
2.35985e-06
2.06225e-06
1.79518e-06
1.55619e-06
1.34799e-06
1.16319e-06
9.98943e-07
8.52122e-07
7.24048e-07
6.14498e-07
5.19127e-07
4.36586e-07
3.65556e-07
3.04781e-07
2.51869e-07
)
;

boundaryField
{
    wall
    {
        type            zeroGradient;
    }
    fuel
    {
        type            fixedValue;
        value           nonuniform 0();
    }
    outlet
    {
        type            inletOutlet;
        inletValue      nonuniform 0();
        value           nonuniform 0();
    }
    procBoundary1to0
    {
        type            processor;
        value           uniform 8.31667e-06;
    }
    procBoundary1to2
    {
        type            processor;
        value           uniform 2.07999e-07;
    }
}


// ************************************************************************* //
