/*--------------------------------*- C++ -*----------------------------------*\
| =========                 |                                                 |
| \\      /  F ield         | OpenFOAM: The Open Source CFD Toolbox           |
|  \\    /   O peration     | Version:  dev                                   |
|   \\  /    A nd           | Web:      www.OpenFOAM.org                      |
|    \\/     M anipulation  |                                                 |
\*---------------------------------------------------------------------------*/
FoamFile
{
    version     2.0;
    format      ascii;
    class       volScalarField;
    location    "0.2";
    object      A1;
}
// * * * * * * * * * * * * * * * * * * * * * * * * * * * * * * * * * * * * * //

dimensions      [0 0 0 0 0 0 0];

internalField   nonuniform List<scalar> 
250
(
2.30963e-05
1.86373e-05
1.67096e-05
1.58931e-05
1.58573e-05
1.58203e-05
1.58101e-05
1.58745e-05
1.58152e-05
1.58851e-05
2.33585e-05
1.91748e-05
1.73978e-05
1.66526e-05
1.66175e-05
1.65841e-05
1.6574e-05
1.66332e-05
1.65774e-05
1.66436e-05
1.66317e-05
1.65966e-05
1.66292e-05
1.6589e-05
1.66164e-05
1.65891e-05
1.68035e-05
1.7209e-05
1.93978e-05
2.52168e-05
2.35526e-05
1.96612e-05
1.80293e-05
1.73568e-05
1.73217e-05
1.72925e-05
1.72825e-05
1.73362e-05
1.72845e-05
1.73463e-05
1.73351e-05
1.73025e-05
1.73324e-05
1.72963e-05
1.73216e-05
1.72984e-05
1.74875e-05
1.78363e-05
1.9669e-05
2.42277e-05
2.36654e-05
2.0089e-05
1.86041e-05
1.80044e-05
1.79693e-05
1.79451e-05
1.79353e-05
1.79837e-05
1.7936e-05
1.79935e-05
1.79828e-05
1.79528e-05
1.79799e-05
1.79478e-05
1.79709e-05
1.79507e-05
1.81161e-05
1.84158e-05
1.99394e-05
2.35e-05
2.36978e-05
2.04596e-05
1.91266e-05
1.86043e-05
1.8575e-05
1.85453e-05
1.8536e-05
1.85791e-05
1.85355e-05
1.85886e-05
1.85785e-05
1.8551e-05
1.85752e-05
1.85471e-05
1.85679e-05
1.85595e-05
1.87024e-05
1.89501e-05
2.02107e-05
2.29816e-05
2.36604e-05
2.07794e-05
1.9603e-05
1.91512e-05
1.91237e-05
1.90983e-05
1.90895e-05
1.91276e-05
1.9088e-05
1.91368e-05
1.91273e-05
1.91021e-05
1.91237e-05
1.90992e-05
1.91177e-05
1.91118e-05
1.92342e-05
1.94434e-05
2.04781e-05
2.26311e-05
2.35703e-05
2.1058e-05
2.00406e-05
1.96563e-05
1.96313e-05
1.96098e-05
1.96017e-05
1.96351e-05
1.95993e-05
1.9644e-05
1.9635e-05
1.96121e-05
1.9631e-05
1.96099e-05
1.96262e-05
1.96223e-05
1.9726e-05
1.99013e-05
2.07457e-05
2.24162e-05
2.3449e-05
2.13071e-05
2.04476e-05
2.01264e-05
2.01043e-05
2.00863e-05
2.00789e-05
2.01079e-05
2.00759e-05
2.01164e-05
2.01081e-05
2.00872e-05
2.01037e-05
2.00858e-05
2.00998e-05
2.00974e-05
2.01843e-05
2.03304e-05
2.10156e-05
2.23119e-05
2.33211e-05
2.15397e-05
2.08317e-05
2.05684e-05
2.05488e-05
2.05339e-05
2.05272e-05
2.05518e-05
2.05237e-05
2.05599e-05
2.05524e-05
2.05335e-05
2.05475e-05
2.05327e-05
2.05445e-05
2.05433e-05
2.06155e-05
2.0737e-05
2.12904e-05
2.22996e-05
2.32098e-05
2.17661e-05
2.11967e-05
2.0985e-05
2.09668e-05
2.09544e-05
2.09484e-05
2.09688e-05
2.09446e-05
2.09763e-05
2.09697e-05
2.09529e-05
2.09645e-05
2.09526e-05
2.09623e-05
2.09624e-05
2.10218e-05
2.11241e-05
2.15696e-05
2.23629e-05
2.31306e-05
2.19868e-05
2.15356e-05
2.13685e-05
2.13498e-05
2.13393e-05
2.13339e-05
2.13498e-05
2.13301e-05
2.13566e-05
2.13511e-05
2.13366e-05
2.13456e-05
2.13368e-05
2.13443e-05
2.13463e-05
2.13948e-05
2.14845e-05
2.1843e-05
2.24808e-05
2.30837e-05
2.21837e-05
2.1824e-05
2.16926e-05
2.16716e-05
2.16625e-05
2.16574e-05
2.16691e-05
2.1654e-05
2.16751e-05
2.16708e-05
2.16587e-05
2.16651e-05
2.16593e-05
2.16647e-05
2.1669e-05
2.17086e-05
2.1792e-05
2.20841e-05
2.26184e-05
2.30678e-05
2.23269e-05
2.2024e-05
2.19158e-05
2.1892e-05
2.18837e-05
2.18789e-05
2.18873e-05
2.18758e-05
2.18926e-05
2.18893e-05
2.18791e-05
2.18835e-05
2.188e-05
2.18838e-05
2.18903e-05
2.19239e-05
2.20057e-05
2.22559e-05
2.27334e-05
)
;

boundaryField
{
    fuel
    {
        type            fixedValue;
        value           nonuniform 0();
    }
    wall
    {
        type            zeroGradient;
    }
    outlet
    {
        type            zeroGradient;
    }
    frontAndBack
    {
        type            empty;
    }
    procBoundary1to0
    {
        type            processor;
        value           nonuniform List<scalar> 
21
(
2.27948e-05
1.8067e-05
1.59722e-05
1.50867e-05
1.50478e-05
1.50075e-05
1.49974e-05
1.50664e-05
1.50042e-05
1.50771e-05
1.58728e-05
1.58728e-05
1.58351e-05
1.58702e-05
1.58261e-05
1.58554e-05
1.58241e-05
1.60643e-05
1.65362e-05
1.91309e-05
2.65368e-05
)
;
    }
}


// ************************************************************************* //
