/*--------------------------------*- C++ -*----------------------------------*\
| =========                 |                                                 |
| \\      /  F ield         | OpenFOAM: The Open Source CFD Toolbox           |
|  \\    /   O peration     | Version:  dev                                   |
|   \\  /    A nd           | Web:      www.OpenFOAM.org                      |
|    \\/     M anipulation  |                                                 |
\*---------------------------------------------------------------------------*/
FoamFile
{
    version     2.0;
    format      ascii;
    class       volScalarField;
    location    "0.2";
    object      A1C2H*;
}
// * * * * * * * * * * * * * * * * * * * * * * * * * * * * * * * * * * * * * //

dimensions      [0 0 0 0 0 0 0];

internalField   nonuniform List<scalar> 
250
(
1.47266e-09
1.22607e-09
9.54552e-10
9.29815e-10
8.64486e-10
8.53935e-10
8.52112e-10
8.36597e-10
8.47927e-10
8.33019e-10
1.12134e-09
9.39687e-10
7.31435e-10
7.18848e-10
6.66316e-10
6.58169e-10
6.5674e-10
6.43625e-10
6.53642e-10
6.40675e-10
6.42789e-10
6.49301e-10
6.43416e-10
6.52761e-10
6.49093e-10
6.70105e-10
6.73323e-10
7.70678e-10
7.77643e-10
1.11697e-09
8.20841e-10
6.93595e-10
5.39915e-10
5.35297e-10
4.94862e-10
4.88706e-10
4.87641e-10
4.77085e-10
4.85477e-10
4.74756e-10
4.76503e-10
4.81904e-10
4.76914e-10
4.84618e-10
4.81403e-10
4.9829e-10
4.99187e-10
5.73061e-10
5.6745e-10
7.95248e-10
5.76033e-10
4.91609e-10
3.82811e-10
3.8292e-10
3.5321e-10
3.48522e-10
3.47764e-10
3.3966e-10
3.46351e-10
3.37894e-10
3.39273e-10
3.43543e-10
3.39527e-10
3.45562e-10
3.42907e-10
3.56061e-10
3.55674e-10
4.09319e-10
3.99173e-10
5.48304e-10
3.85535e-10
3.32735e-10
2.59046e-10
2.60532e-10
2.38996e-10
2.37137e-10
2.36623e-10
2.30694e-10
2.35778e-10
2.29412e-10
2.30454e-10
2.33668e-10
2.30597e-10
2.35091e-10
2.33014e-10
2.41331e-10
2.40426e-10
2.79087e-10
2.67726e-10
3.63666e-10
2.43604e-10
2.12712e-10
1.65313e-10
1.67606e-10
1.53182e-10
1.52039e-10
1.51702e-10
1.47602e-10
1.51257e-10
1.46717e-10
1.47466e-10
1.49755e-10
1.47537e-10
1.50697e-10
1.49168e-10
1.54868e-10
1.53867e-10
1.79582e-10
1.70296e-10
2.294e-10
1.4263e-10
1.25962e-10
9.74447e-11
9.96106e-11
9.05875e-11
8.99443e-11
8.97326e-11
8.71005e-11
8.95438e-11
8.6531e-11
8.70329e-11
8.85492e-11
8.70606e-11
8.91246e-11
8.80804e-11
9.16987e-11
9.08646e-11
1.06874e-10
1.0026e-10
1.34907e-10
7.49125e-11
6.68526e-11
5.12797e-11
5.28755e-11
4.77676e-11
4.74511e-11
4.73258e-11
4.58085e-11
4.72782e-11
4.54783e-11
4.57811e-11
4.66855e-11
4.57865e-11
4.69997e-11
4.63576e-11
4.84419e-11
4.78463e-11
5.68957e-11
5.27799e-11
7.1528e-11
3.34408e-11
3.01361e-11
2.28408e-11
2.37705e-11
2.13004e-11
2.11742e-11
2.11083e-11
2.03675e-11
2.11168e-11
2.0205e-11
2.03598e-11
2.08176e-11
2.03569e-11
2.09626e-11
2.06269e-11
2.16552e-11
2.13025e-11
2.56882e-11
2.3534e-11
3.2361e-11
1.17872e-11
1.07288e-11
8.05021e-12
8.45022e-12
7.51692e-12
7.48005e-12
7.45222e-12
7.17132e-12
7.46763e-12
7.109e-12
7.17059e-12
7.3504e-12
7.16728e-12
7.40231e-12
7.26624e-12
7.66275e-12
7.50542e-12
9.16852e-12
8.30144e-12
1.15793e-11
2.95015e-12
2.70127e-12
2.00254e-12
2.11738e-12
1.86836e-12
1.8613e-12
1.85282e-12
1.77782e-12
1.86039e-12
1.76083e-12
1.77826e-12
1.82791e-12
1.77689e-12
1.84092e-12
1.80248e-12
1.91019e-12
1.86327e-12
2.30822e-12
2.07108e-12
2.93585e-12
4.02191e-13
3.68724e-13
2.72834e-13
2.89118e-13
2.54617e-13
2.53946e-13
2.52623e-13
2.42254e-13
2.54079e-13
2.3984e-13
2.42384e-13
2.49451e-13
2.42142e-13
2.51171e-13
2.4557e-13
2.60821e-13
2.53689e-13
3.15883e-13
2.82669e-13
4.03344e-13
3.60355e-14
3.31603e-14
2.54177e-14
2.67159e-14
2.38881e-14
2.38369e-14
2.37214e-14
2.28611e-14
2.38536e-14
2.26546e-14
2.2874e-14
2.3466e-14
2.28515e-14
2.36077e-14
2.31319e-14
2.44104e-14
2.3799e-14
2.89155e-14
2.62289e-14
3.60115e-14
)
;

boundaryField
{
    fuel
    {
        type            fixedValue;
        value           nonuniform 0();
    }
    wall
    {
        type            zeroGradient;
    }
    outlet
    {
        type            zeroGradient;
    }
    frontAndBack
    {
        type            empty;
    }
    procBoundary1to0
    {
        type            processor;
        value           nonuniform List<scalar> 
21
(
1.86287e-09
1.54368e-09
1.20192e-09
1.16015e-09
1.08215e-09
1.06898e-09
1.06675e-09
1.04934e-09
1.06139e-09
1.04519e-09
8.35414e-10
8.35414e-10
8.42903e-10
8.3631e-10
8.47117e-10
8.43098e-10
8.68412e-10
8.74953e-10
9.994e-10
1.03009e-09
1.52747e-09
)
;
    }
}


// ************************************************************************* //
