/*--------------------------------*- C++ -*----------------------------------*\
| =========                 |                                                 |
| \\      /  F ield         | OpenFOAM: The Open Source CFD Toolbox           |
|  \\    /   O peration     | Version:  dev                                   |
|   \\  /    A nd           | Web:      www.OpenFOAM.org                      |
|    \\/     M anipulation  |                                                 |
\*---------------------------------------------------------------------------*/
FoamFile
{
    version     2.0;
    format      ascii;
    class       volScalarField;
    location    "0.2";
    object      A2C2HA*;
}
// * * * * * * * * * * * * * * * * * * * * * * * * * * * * * * * * * * * * * //

dimensions      [0 0 0 0 0 0 0];

internalField   nonuniform List<scalar> 
250
(
9.58783e-13
7.13252e-13
5.24611e-13
4.98433e-13
4.62697e-13
4.56681e-13
4.55524e-13
4.48107e-13
4.53434e-13
4.46364e-13
7.29943e-13
5.49918e-13
4.04663e-13
3.89547e-13
3.59726e-13
3.54975e-13
3.54059e-13
3.47305e-13
3.52457e-13
3.45784e-13
3.46851e-13
3.50178e-13
3.47126e-13
3.52032e-13
3.5015e-13
3.61768e-13
3.65417e-13
4.25869e-13
4.58866e-13
7.90463e-13
5.28344e-13
4.03112e-13
2.96126e-13
2.88593e-13
2.65141e-13
2.6152e-13
2.60841e-13
2.55163e-13
2.5971e-13
2.53922e-13
2.54854e-13
2.57746e-13
2.55026e-13
2.59241e-13
2.57489e-13
2.67093e-13
2.68673e-13
3.14616e-13
3.28259e-13
5.39884e-13
3.62053e-13
2.79706e-13
2.04993e-13
2.02114e-13
1.84898e-13
1.82178e-13
1.81707e-13
1.77302e-13
1.80983e-13
1.76359e-13
1.77108e-13
1.79421e-13
1.77204e-13
1.80532e-13
1.79059e-13
1.86544e-13
1.86938e-13
2.19897e-13
2.23701e-13
3.54519e-13
2.33893e-13
1.82942e-13
1.33809e-13
1.32859e-13
1.20699e-13
1.19653e-13
1.19348e-13
1.1619e-13
1.18935e-13
1.15522e-13
1.16079e-13
1.17785e-13
1.16124e-13
1.18547e-13
1.17416e-13
1.2202e-13
1.21874e-13
1.44848e-13
1.43864e-13
2.22309e-13
1.41502e-13
1.12073e-13
8.18788e-14
8.2054e-14
7.42745e-14
7.36584e-14
7.34705e-14
7.13776e-14
7.32687e-14
7.09378e-14
7.13221e-14
7.24851e-14
7.13368e-14
7.2967e-14
7.21695e-14
7.51853e-14
7.48622e-14
8.93992e-14
8.73573e-14
1.31961e-13
7.91339e-14
6.35083e-14
4.63607e-14
4.68792e-14
4.22775e-14
4.19469e-14
4.18366e-14
4.05609e-14
4.17599e-14
4.02928e-14
4.05372e-14
4.1268e-14
4.05378e-14
4.15465e-14
4.10313e-14
4.28432e-14
4.25396e-14
5.1058e-14
4.91995e-14
7.30747e-14
3.98545e-14
3.24517e-14
2.36462e-14
2.41344e-14
2.16641e-14
2.15079e-14
2.14469e-14
2.07447e-14
2.1432e-14
2.05962e-14
2.0737e-14
2.11528e-14
2.07327e-14
2.12973e-14
2.09964e-14
2.19875e-14
2.17609e-14
2.62976e-14
2.4997e-14
3.6754e-14
1.72154e-14
1.42515e-14
1.03475e-14
1.06676e-14
9.51834e-15
9.45748e-15
9.42707e-15
9.09417e-15
9.4337e-15
9.02311e-15
9.093e-15
9.29715e-15
9.08875e-15
9.36154e-15
9.20968e-15
9.68086e-15
9.54272e-15
1.16417e-14
1.09035e-14
1.59866e-14
5.94257e-15
5.01471e-15
3.63635e-15
3.78495e-15
3.35861e-15
3.34081e-15
3.32832e-15
3.20325e-15
3.33606e-15
3.17619e-15
3.20374e-15
3.28316e-15
3.20127e-15
3.30586e-15
3.24516e-15
3.42386e-15
3.36052e-15
4.13631e-15
3.81969e-15
5.59273e-15
1.47329e-15
1.26444e-15
9.12606e-16
9.58e-16
8.44096e-16
8.40586e-16
8.36801e-16
8.03078e-16
8.40407e-16
7.95608e-16
8.03491e-16
8.25626e-16
8.02638e-16
8.31333e-16
8.14094e-16
8.62776e-16
8.43302e-16
1.04983e-15
9.58406e-16
1.40859e-15
1.96798e-16
1.70614e-16
1.23402e-16
1.29999e-16
1.14303e-16
1.13958e-16
1.13371e-16
1.08709e-16
1.14057e-16
1.07644e-16
1.08799e-16
1.11948e-16
1.08662e-16
1.12694e-16
1.10197e-16
1.17044e-16
1.14077e-16
1.42634e-16
1.29617e-16
1.9059e-16
1.51577e-17
1.32438e-17
9.96622e-18
1.04121e-17
9.30636e-18
9.28281e-18
9.23902e-18
8.90548e-18
9.29325e-18
8.82689e-18
8.9134e-18
9.1402e-18
8.90266e-18
9.19267e-18
9.01056e-18
9.50377e-18
9.28664e-18
1.13051e-17
1.04165e-17
1.46651e-17
)
;

boundaryField
{
    fuel
    {
        type            fixedValue;
        value           nonuniform 0();
    }
    wall
    {
        type            zeroGradient;
    }
    outlet
    {
        type            zeroGradient;
    }
    frontAndBack
    {
        type            empty;
    }
    procBoundary1to0
    {
        type            processor;
        value           nonuniform List<scalar> 
21
(
1.2033e-12
8.84609e-13
6.47935e-13
6.07148e-13
5.66205e-13
5.58895e-13
5.57507e-13
5.49957e-13
5.54961e-13
5.4807e-13
4.47464e-13
4.47464e-13
4.5099e-13
4.47861e-13
4.53137e-13
4.51283e-13
4.64598e-13
4.7122e-13
5.47929e-13
6.13117e-13
1.121e-12
)
;
    }
}


// ************************************************************************* //
