/*--------------------------------*- C++ -*----------------------------------*\
| =========                 |                                                 |
| \\      /  F ield         | OpenFOAM: The Open Source CFD Toolbox           |
|  \\    /   O peration     | Version:  dev                                   |
|   \\  /    A nd           | Web:      www.OpenFOAM.org                      |
|    \\/     M anipulation  |                                                 |
\*---------------------------------------------------------------------------*/
FoamFile
{
    version     2.0;
    format      ascii;
    class       volScalarField;
    location    "0.2";
    object      A2R5-;
}
// * * * * * * * * * * * * * * * * * * * * * * * * * * * * * * * * * * * * * //

dimensions      [0 0 0 0 0 0 0];

internalField   nonuniform List<scalar> 
250
(
1.06484e-09
8.84775e-10
6.48698e-10
6.17719e-10
5.65233e-10
5.5664e-10
5.55225e-10
5.43768e-10
5.52052e-10
5.41067e-10
7.93982e-10
6.59684e-10
4.85855e-10
4.66913e-10
4.27241e-10
4.20869e-10
4.19806e-10
4.10715e-10
4.17575e-10
4.08615e-10
4.10102e-10
4.1459e-10
4.10615e-10
4.16967e-10
4.14623e-10
4.29363e-10
4.34821e-10
5.15477e-10
5.39305e-10
7.44353e-10
5.72088e-10
4.77363e-10
3.53833e-10
3.43265e-10
3.14201e-10
3.09559e-10
3.08794e-10
3.01805e-10
3.07289e-10
3.00218e-10
3.0139e-10
3.04935e-10
3.01723e-10
3.06723e-10
3.04765e-10
3.16054e-10
3.18973e-10
3.76574e-10
3.8737e-10
5.33545e-10
3.97942e-10
3.34712e-10
2.50022e-10
2.44948e-10
2.24352e-10
2.20941e-10
2.20412e-10
2.15204e-10
2.19446e-10
2.14036e-10
2.14935e-10
2.17651e-10
2.15143e-10
2.18946e-10
2.17374e-10
2.25878e-10
2.27202e-10
2.67069e-10
2.70572e-10
3.70452e-10
2.66364e-10
2.26477e-10
1.7051e-10
1.68172e-10
1.53629e-10
1.52152e-10
1.51799e-10
1.48042e-10
1.51219e-10
1.47207e-10
1.47876e-10
1.49891e-10
1.47998e-10
1.50794e-10
1.49576e-10
1.54898e-10
1.55322e-10
1.82937e-10
1.82088e-10
2.48352e-10
1.70183e-10
1.46535e-10
1.11059e-10
1.1057e-10
1.00901e-10
9.99876e-11
9.97573e-11
9.71515e-11
9.94425e-11
9.65738e-11
9.70553e-11
9.84948e-11
9.71219e-11
9.90966e-11
9.81914e-11
1.01842e-10
1.01797e-10
1.19828e-10
1.17648e-10
1.59505e-10
1.02128e-10
8.91162e-11
6.78033e-11
6.81559e-11
6.20388e-11
6.15144e-11
6.1368e-11
5.9657e-11
6.12238e-11
5.92774e-11
5.96062e-11
6.05825e-11
5.96382e-11
6.09598e-11
6.03224e-11
6.26868e-11
6.24673e-11
7.37019e-11
7.13905e-11
9.65639e-11
5.59547e-11
4.9471e-11
3.76277e-11
3.82037e-11
3.46216e-11
3.4352e-11
3.42629e-11
3.32309e-11
3.42169e-11
3.30009e-11
3.32076e-11
3.38177e-11
3.32195e-11
3.4034e-11
3.36204e-11
3.50413e-11
3.47946e-11
4.13028e-11
3.94492e-11
5.35462e-11
2.67528e-11
2.3949e-11
1.81373e-11
1.86056e-11
1.676e-11
1.66433e-11
1.65938e-11
1.60516e-11
1.65923e-11
1.593e-11
1.60432e-11
1.63758e-11
1.60453e-11
1.64837e-11
1.62492e-11
1.70019e-11
1.68111e-11
2.01469e-11
1.89573e-11
2.59756e-11
1.05793e-11
9.58196e-12
7.23257e-12
7.48728e-12
6.70934e-12
6.66972e-12
6.64663e-12
6.41561e-12
6.65541e-12
6.36332e-12
6.41355e-12
6.5605e-12
6.41268e-12
6.6042e-12
6.49672e-12
6.82266e-12
6.71689e-12
8.12231e-12
7.54023e-12
1.04255e-11
3.30998e-12
3.02123e-12
2.27669e-12
2.3715e-12
2.11722e-12
2.10701e-12
2.09855e-12
2.02262e-12
2.1044e-12
2.00516e-12
2.02243e-12
2.07232e-12
2.02164e-12
2.08601e-12
2.04847e-12
2.15756e-12
2.1166e-12
2.57672e-12
2.37164e-12
3.29894e-12
8.59262e-13
7.87974e-13
6.0517e-13
6.28743e-13
5.65485e-13
5.63117e-13
5.60859e-13
5.41729e-13
5.6277e-13
5.37206e-13
5.41787e-13
5.54484e-13
5.4156e-13
5.5778e-13
5.48279e-13
5.75483e-13
5.65393e-13
6.78831e-13
6.301e-13
8.56205e-13
3.89647e-13
3.57414e-13
2.86214e-13
2.93206e-13
2.68717e-13
2.6708e-13
2.66394e-13
2.58083e-13
2.67315e-13
2.55966e-13
2.58415e-13
2.63262e-13
2.58522e-13
2.64391e-13
2.61666e-13
2.70459e-13
2.70394e-13
3.08331e-13
3.0106e-13
3.74966e-13
)
;

boundaryField
{
    fuel
    {
        type            fixedValue;
        value           nonuniform 0();
    }
    wall
    {
        type            zeroGradient;
    }
    outlet
    {
        type            zeroGradient;
    }
    frontAndBack
    {
        type            empty;
    }
    procBoundary1to0
    {
        type            processor;
        value           nonuniform List<scalar> 
21
(
1.37988e-09
1.15231e-09
8.429e-10
7.95621e-10
7.28227e-10
7.16984e-10
7.15167e-10
7.01212e-10
7.10831e-10
6.97836e-10
5.42849e-10
5.42849e-10
5.48369e-10
5.43606e-10
5.51435e-10
5.48678e-10
5.6757e-10
5.7659e-10
6.86999e-10
7.30928e-10
1.00782e-09
)
;
    }
}


// ************************************************************************* //
