/*--------------------------------*- C++ -*----------------------------------*\
| =========                 |                                                 |
| \\      /  F ield         | OpenFOAM: The Open Source CFD Toolbox           |
|  \\    /   O peration     | Version:  dev                                   |
|   \\  /    A nd           | Web:      www.OpenFOAM.org                      |
|    \\/     M anipulation  |                                                 |
\*---------------------------------------------------------------------------*/
FoamFile
{
    version     2.0;
    format      ascii;
    class       volScalarField;
    location    "0.2";
    object      C;
}
// * * * * * * * * * * * * * * * * * * * * * * * * * * * * * * * * * * * * * //

dimensions      [0 0 0 0 0 0 0];

internalField   nonuniform List<scalar> 
50
(
2.149e-10
1.67144e-10
1.30287e-10
1.0178e-10
7.96831e-11
6.25221e-11
4.91689e-11
3.87597e-11
3.06305e-11
2.42699e-11
1.92835e-11
1.53663e-11
1.22825e-11
9.84931e-12
7.92494e-12
6.39931e-12
5.18681e-12
4.22071e-12
3.44893e-12
2.83074e-12
2.33421e-12
1.93425e-12
1.61112e-12
1.34925e-12
1.13632e-12
9.62585e-13
8.20304e-13
7.03326e-13
6.06752e-13
5.26675e-13
4.59968e-13
4.04131e-13
3.57155e-13
3.17428e-13
2.8365e-13
2.5477e-13
2.2994e-13
2.0847e-13
1.898e-13
1.73475e-13
1.59123e-13
1.4644e-13
1.35301e-13
1.25297e-13
1.16266e-13
1.08124e-13
1.00757e-13
9.40641e-14
8.79608e-14
8.23696e-14
)
;

boundaryField
{
    wall
    {
        type            zeroGradient;
    }
    fuel
    {
        type            fixedValue;
        value           nonuniform 0();
    }
    outlet
    {
        type            inletOutlet;
        inletValue      nonuniform 0();
        value           nonuniform 0();
    }
    procBoundary1to0
    {
        type            processor;
        value           uniform 2.77099e-10;
    }
    procBoundary1to2
    {
        type            processor;
        value           uniform 7.72776e-14;
    }
}


// ************************************************************************* //
