/*--------------------------------*- C++ -*----------------------------------*\
| =========                 |                                                 |
| \\      /  F ield         | OpenFOAM: The Open Source CFD Toolbox           |
|  \\    /   O peration     | Version:  dev                                   |
|   \\  /    A nd           | Web:      www.OpenFOAM.org                      |
|    \\/     M anipulation  |                                                 |
\*---------------------------------------------------------------------------*/
FoamFile
{
    version     2.0;
    format      ascii;
    class       volScalarField;
    location    "0.2";
    object      C6H5OH;
}
// * * * * * * * * * * * * * * * * * * * * * * * * * * * * * * * * * * * * * //

dimensions      [0 0 0 0 0 0 0];

internalField   nonuniform List<scalar> 
250
(
4.71372e-08
3.40064e-08
2.94275e-08
2.88645e-08
2.83706e-08
2.85094e-08
2.84329e-08
2.85394e-08
2.84689e-08
2.85359e-08
4.59494e-08
3.58838e-08
3.18283e-08
3.14772e-08
3.09958e-08
3.11581e-08
3.10738e-08
3.1186e-08
3.11105e-08
3.11819e-08
3.12159e-08
3.10207e-08
3.11903e-08
3.10105e-08
3.10615e-08
3.10843e-08
3.10788e-08
3.25415e-08
3.5789e-08
4.50337e-08
4.57394e-08
3.79906e-08
3.44804e-08
3.42116e-08
3.37561e-08
3.3906e-08
3.38231e-08
3.39229e-08
3.38526e-08
3.3918e-08
3.39469e-08
3.37736e-08
3.39257e-08
3.37727e-08
3.38193e-08
3.38513e-08
3.38608e-08
3.52211e-08
3.82961e-08
4.71344e-08
4.5949e-08
3.98227e-08
3.69106e-08
3.65664e-08
3.61588e-08
3.62567e-08
3.61872e-08
3.62546e-08
3.62016e-08
3.62493e-08
3.62657e-08
3.61489e-08
3.62542e-08
3.61589e-08
3.6196e-08
3.62515e-08
3.63385e-08
3.75505e-08
4.06056e-08
4.89071e-08
4.59445e-08
4.09142e-08
3.85967e-08
3.81104e-08
3.77738e-08
3.77768e-08
3.77278e-08
3.7755e-08
3.7725e-08
3.77499e-08
3.77514e-08
3.77043e-08
3.77506e-08
3.77216e-08
3.77475e-08
3.78304e-08
3.80267e-08
3.90461e-08
4.21218e-08
4.97108e-08
4.53441e-08
4.11201e-08
3.93248e-08
3.87124e-08
3.84426e-08
3.83925e-08
3.83621e-08
3.83579e-08
3.83467e-08
3.83533e-08
3.83439e-08
3.83503e-08
3.83507e-08
3.83697e-08
3.83866e-08
3.84807e-08
3.87424e-08
3.95841e-08
4.25569e-08
4.92712e-08
4.42154e-08
4.07149e-08
3.93119e-08
3.86808e-08
3.84644e-08
3.83914e-08
3.83718e-08
3.8353e-08
3.83514e-08
3.83485e-08
3.8335e-08
3.83656e-08
3.83449e-08
3.83839e-08
3.83954e-08
3.84867e-08
3.87553e-08
3.94456e-08
4.21211e-08
4.7866e-08
4.2915e-08
4.01025e-08
3.89747e-08
3.84138e-08
3.82345e-08
3.81634e-08
3.81473e-08
3.81267e-08
3.8127e-08
3.81218e-08
3.81094e-08
3.81413e-08
3.81192e-08
3.81579e-08
3.81669e-08
3.82478e-08
3.84805e-08
3.90497e-08
4.12937e-08
4.60593e-08
4.17707e-08
3.95658e-08
3.86375e-08
3.81793e-08
3.80264e-08
3.79671e-08
3.79509e-08
3.7934e-08
3.79329e-08
3.79282e-08
3.79189e-08
3.79432e-08
3.79275e-08
3.79582e-08
3.79665e-08
3.80351e-08
3.82192e-08
3.86889e-08
4.04739e-08
4.43155e-08
4.09123e-08
3.9192e-08
3.84213e-08
3.80565e-08
3.79253e-08
3.78773e-08
3.78608e-08
3.78473e-08
3.7845e-08
3.78406e-08
3.78343e-08
3.78514e-08
3.78418e-08
3.78651e-08
3.78731e-08
3.79307e-08
3.8073e-08
3.84568e-08
3.983e-08
4.2842e-08
4.03079e-08
3.89462e-08
3.83048e-08
3.80113e-08
3.78993e-08
3.7859e-08
3.78431e-08
3.78314e-08
3.78289e-08
3.78239e-08
3.78198e-08
3.78328e-08
3.78268e-08
3.78451e-08
3.7853e-08
3.79016e-08
3.80135e-08
3.83232e-08
3.93593e-08
4.16621e-08
3.9887e-08
3.87759e-08
3.82348e-08
3.79925e-08
3.78965e-08
3.78613e-08
3.78464e-08
3.78356e-08
3.78334e-08
3.78276e-08
3.78252e-08
3.78358e-08
3.78318e-08
3.78468e-08
3.78547e-08
3.7896e-08
3.79869e-08
3.82377e-08
3.90168e-08
4.076e-08
3.96302e-08
3.86685e-08
3.81904e-08
3.79802e-08
3.78948e-08
3.78628e-08
3.78487e-08
3.78385e-08
3.78366e-08
3.78302e-08
3.78288e-08
3.78379e-08
3.78352e-08
3.7848e-08
3.7856e-08
3.78924e-08
3.79705e-08
3.81837e-08
3.88001e-08
4.01854e-08
)
;

boundaryField
{
    fuel
    {
        type            fixedValue;
        value           nonuniform 0();
    }
    wall
    {
        type            zeroGradient;
    }
    outlet
    {
        type            zeroGradient;
    }
    frontAndBack
    {
        type            empty;
    }
    procBoundary1to0
    {
        type            processor;
        value           nonuniform List<scalar> 
21
(
4.97375e-08
3.26412e-08
2.74805e-08
2.66497e-08
2.61419e-08
2.62438e-08
2.61775e-08
2.62705e-08
2.6209e-08
2.62673e-08
2.85682e-08
2.85682e-08
2.83831e-08
2.85435e-08
2.83689e-08
2.84184e-08
2.84483e-08
2.84861e-08
3.00185e-08
3.35723e-08
4.31347e-08
)
;
    }
}


// ************************************************************************* //
