/*--------------------------------*- C++ -*----------------------------------*\
| =========                 |                                                 |
| \\      /  F ield         | OpenFOAM: The Open Source CFD Toolbox           |
|  \\    /   O peration     | Version:  dev                                   |
|   \\  /    A nd           | Web:      www.OpenFOAM.org                      |
|    \\/     M anipulation  |                                                 |
\*---------------------------------------------------------------------------*/
FoamFile
{
    version     2.0;
    format      ascii;
    class       volScalarField;
    location    "0.2";
    object      HCCO;
}
// * * * * * * * * * * * * * * * * * * * * * * * * * * * * * * * * * * * * * //

dimensions      [0 0 0 0 0 0 0];

internalField   nonuniform List<scalar> 
50
(
1.67299e-10
1.31254e-10
1.03249e-10
8.14266e-11
6.43749e-11
5.1018e-11
4.05309e-11
3.22786e-11
2.57709e-11
2.06277e-11
1.65539e-11
1.33198e-11
1.07464e-11
8.69374e-12
7.05249e-12
5.73697e-12
4.67994e-12
3.82853e-12
3.14108e-12
2.58467e-12
2.13325e-12
1.76614e-12
1.46686e-12
1.22232e-12
1.022e-12
8.57505e-13
7.22094e-13
6.10337e-13
5.17861e-13
4.41136e-13
3.77305e-13
3.24054e-13
2.79502e-13
2.42121e-13
2.10665e-13
1.84115e-13
1.61637e-13
1.42549e-13
1.26287e-13
1.12389e-13
1.00475e-13
9.02282e-14
8.14862e-14
7.38723e-14
6.72164e-14
6.141e-14
5.63277e-14
5.18632e-14
4.7927e-14
4.44441e-14
)
;

boundaryField
{
    wall
    {
        type            zeroGradient;
    }
    fuel
    {
        type            fixedValue;
        value           nonuniform 0();
    }
    outlet
    {
        type            inletOutlet;
        inletValue      nonuniform 0();
        value           nonuniform 0();
    }
    procBoundary1to0
    {
        type            processor;
        value           uniform 2.1382e-10;
    }
    procBoundary1to2
    {
        type            processor;
        value           uniform 4.1358e-14;
    }
}


// ************************************************************************* //
