/*--------------------------------*- C++ -*----------------------------------*\
| =========                 |                                                 |
| \\      /  F ield         | OpenFOAM: The Open Source CFD Toolbox           |
|  \\    /   O peration     | Version:  dev                                   |
|   \\  /    A nd           | Web:      www.OpenFOAM.org                      |
|    \\/     M anipulation  |                                                 |
\*---------------------------------------------------------------------------*/
FoamFile
{
    version     2.0;
    format      ascii;
    class       volScalarField;
    location    "0.2";
    object      i-A1C2H2;
}
// * * * * * * * * * * * * * * * * * * * * * * * * * * * * * * * * * * * * * //

dimensions      [0 0 0 0 0 0 0];

internalField   nonuniform List<scalar> 
50
(
6.12642e-20
5.4294e-20
4.81316e-20
4.2682e-20
3.78623e-20
3.35998e-20
2.98302e-20
2.64968e-20
2.35488e-20
2.09412e-20
1.86342e-20
1.65924e-20
1.47845e-20
1.3183e-20
1.17635e-20
1.05047e-20
9.38784e-21
8.39633e-21
7.51562e-21
6.73288e-21
6.03681e-21
5.41745e-21
4.866e-21
4.37469e-21
3.93668e-21
3.5459e-21
3.197e-21
2.88527e-21
2.60653e-21
2.35708e-21
2.13366e-21
1.93339e-21
1.75372e-21
1.59239e-21
1.44739e-21
1.31697e-21
1.19954e-21
1.09372e-21
9.98279e-22
9.12119e-22
8.34279e-22
7.63919e-22
7.00999e-22
6.43678e-22
5.91385e-22
5.43906e-22
5.00767e-22
4.61536e-22
4.25826e-22
3.93304e-22
)
;

boundaryField
{
    wall
    {
        type            zeroGradient;
    }
    fuel
    {
        type            fixedValue;
        value           nonuniform 0();
    }
    outlet
    {
        type            inletOutlet;
        inletValue      nonuniform 0();
        value           nonuniform 0();
    }
    procBoundary1to0
    {
        type            processor;
        value           uniform 6.92427e-20;
    }
    procBoundary1to2
    {
        type            processor;
        value           uniform 3.63512e-22;
    }
}


// ************************************************************************* //
