/*--------------------------------*- C++ -*----------------------------------*\
| =========                 |                                                 |
| \\      /  F ield         | OpenFOAM: The Open Source CFD Toolbox           |
|  \\    /   O peration     | Version:  dev                                   |
|   \\  /    A nd           | Web:      www.OpenFOAM.org                      |
|    \\/     M anipulation  |                                                 |
\*---------------------------------------------------------------------------*/
FoamFile
{
    version     2.0;
    format      ascii;
    class       volScalarField;
    location    "0.2";
    object      p;
}
// * * * * * * * * * * * * * * * * * * * * * * * * * * * * * * * * * * * * * //

dimensions      [1 -1 -2 0 0 0 0];

internalField   nonuniform List<scalar> 
250
(
100001
99995.2
99995.6
99992.4
99991.5
99989.7
99988.7
99987.6
99986.9
99986.5
100001
99995.3
99995.6
99992.4
99991.5
99989.7
99988.7
99987.6
99986.9
99986.5
99986.4
99986.6
99987.1
99988
99989.2
99990.7
99992.4
99994.3
99996.4
99998.8
100001
99995.3
99995.5
99992.5
99991.5
99989.7
99988.6
99987.6
99986.9
99986.5
99986.4
99986.6
99987.1
99988
99989.2
99990.7
99992.4
99994.3
99996.4
99998.8
100001
99995.3
99995.5
99992.5
99991.5
99989.7
99988.6
99987.6
99986.9
99986.4
99986.4
99986.6
99987.1
99988
99989.2
99990.7
99992.4
99994.3
99996.4
99998.8
100001
99995.4
99995.5
99992.5
99991.5
99989.7
99988.6
99987.6
99986.9
99986.4
99986.3
99986.6
99987.1
99988
99989.2
99990.6
99992.4
99994.3
99996.5
99998.8
100001
99995.4
99995.5
99992.5
99991.5
99989.7
99988.6
99987.6
99986.9
99986.4
99986.3
99986.5
99987.1
99988
99989.2
99990.6
99992.4
99994.3
99996.5
99998.8
100001
99995.4
99995.5
99992.5
99991.5
99989.7
99988.6
99987.6
99986.9
99986.4
99986.3
99986.5
99987.1
99988
99989.2
99990.6
99992.4
99994.3
99996.5
99998.9
100001
99995.5
99995.5
99992.5
99991.5
99989.7
99988.6
99987.6
99986.9
99986.4
99986.3
99986.5
99987.1
99988
99989.2
99990.6
99992.4
99994.3
99996.5
99998.9
100001
99995.5
99995.4
99992.5
99991.4
99989.7
99988.6
99987.6
99986.9
99986.4
99986.3
99986.5
99987.1
99988
99989.2
99990.6
99992.4
99994.3
99996.5
99998.9
100001
99995.5
99995.4
99992.5
99991.4
99989.7
99988.6
99987.6
99986.9
99986.4
99986.3
99986.5
99987.1
99988
99989.2
99990.6
99992.4
99994.3
99996.5
99998.9
100001
99995.5
99995.4
99992.6
99991.4
99989.7
99988.6
99987.6
99986.9
99986.4
99986.3
99986.5
99987.1
99988
99989.2
99990.6
99992.4
99994.3
99996.5
99998.9
100001
99995.5
99995.4
99992.6
99991.4
99989.7
99988.6
99987.6
99986.9
99986.4
99986.3
99986.5
99987.1
99988
99989.2
99990.6
99992.4
99994.3
99996.5
99998.9
100001
99995.5
99995.4
99992.6
99991.4
99989.7
99988.6
99987.6
99986.9
99986.4
99986.3
99986.5
99987.1
99988
99989.2
99990.6
99992.4
99994.3
99996.5
99998.9
)
;

boundaryField
{
    fuel
    {
        type            zeroGradient;
    }
    wall
    {
        type            zeroGradient;
    }
    outlet
    {
        type            totalPressure;
        rho             none;
        psi             none;
        gamma           1;
        p0              uniform 100000;
        value           uniform 100000;
    }
    frontAndBack
    {
        type            empty;
    }
    procBoundary1to0
    {
        type            processor;
        value           nonuniform List<scalar> 
21
(
100001
99995.2
99995.6
99992.4
99991.5
99989.7
99988.7
99987.6
99986.9
99986.5
99986.4
99986.4
99986.6
99987.1
99988
99989.2
99990.7
99992.4
99994.3
99996.4
99998.8
)
;
    }
}


// ************************************************************************* //
