/*--------------------------------*- C++ -*----------------------------------*\
| =========                 |                                                 |
| \\      /  F ield         | OpenFOAM: The Open Source CFD Toolbox           |
|  \\    /   O peration     | Version:  dev                                   |
|   \\  /    A nd           | Web:      www.OpenFOAM.org                      |
|    \\/     M anipulation  |                                                 |
\*---------------------------------------------------------------------------*/
FoamFile
{
    version     2.0;
    format      ascii;
    class       volScalarField;
    location    "0.2";
    object      p;
}
// * * * * * * * * * * * * * * * * * * * * * * * * * * * * * * * * * * * * * //

dimensions      [1 -1 -2 0 0 0 0];

internalField   nonuniform List<scalar> 
50
(
99959.5
99959.6
99959.7
99959.9
99960
99960.1
99960.2
99960.4
99960.5
99960.6
99960.8
99960.9
99961.1
99961.2
99961.4
99961.5
99961.7
99961.8
99962
99962.1
99962.3
99962.4
99962.6
99962.8
99962.9
99963.1
99963.3
99963.5
99963.6
99963.8
99964
99964.2
99964.4
99964.5
99964.7
99964.9
99965.1
99965.3
99965.5
99965.7
99965.9
99966.1
99966.3
99966.5
99966.7
99966.9
99967.1
99967.4
99967.6
99967.8
)
;

boundaryField
{
    wall
    {
        type            zeroGradient;
    }
    fuel
    {
        type            zeroGradient;
    }
    outlet
    {
        type            totalPressure;
        rho             none;
        psi             none;
        gamma           1;
        p0              nonuniform 0();
        value           nonuniform 0();
    }
    procBoundary1to0
    {
        type            processor;
        value           uniform 99959.4;
    }
    procBoundary1to2
    {
        type            processor;
        value           uniform 99968;
    }
}


// ************************************************************************* //
