/*--------------------------------*- C++ -*----------------------------------*\
| =========                 |                                                 |
| \\      /  F ield         | OpenFOAM: The Open Source CFD Toolbox           |
|  \\    /   O peration     | Version:  dev                                   |
|   \\  /    A nd           | Web:      www.OpenFOAM.org                      |
|    \\/     M anipulation  |                                                 |
\*---------------------------------------------------------------------------*/
FoamFile
{
    version     2.0;
    format      ascii;
    class       volScalarField;
    location    "0.2";
    object      P2-H;
}
// * * * * * * * * * * * * * * * * * * * * * * * * * * * * * * * * * * * * * //

dimensions      [0 0 0 0 0 0 0];

internalField   nonuniform List<scalar> 
250
(
1.68271e-16
1.15514e-16
8.76899e-17
8.1399e-17
7.79838e-17
7.72707e-17
7.71259e-17
7.67252e-17
7.69414e-17
7.66157e-17
1.47828e-16
1.04123e-16
8.03561e-17
7.55387e-17
7.23055e-17
7.16792e-17
7.15486e-17
7.10779e-17
7.13737e-17
7.09651e-17
7.10269e-17
7.12266e-17
7.1046e-17
7.1389e-17
7.13102e-17
7.2388e-17
7.36465e-17
8.15029e-17
9.48229e-17
1.6387e-16
1.27688e-16
9.23579e-17
7.24511e-17
6.8901e-17
6.59422e-17
6.5397e-17
6.52835e-17
6.47825e-17
6.51246e-17
6.46725e-17
6.47413e-17
6.49664e-17
6.47532e-17
6.51265e-17
6.50163e-17
6.60721e-17
6.69662e-17
7.3668e-17
8.2522e-17
1.29997e-16
1.08841e-16
8.09545e-17
6.46152e-17
6.21107e-17
5.9494e-17
5.90033e-17
5.89079e-17
5.84087e-17
5.87681e-17
5.83058e-17
5.83761e-17
5.86086e-17
5.83816e-17
5.87583e-17
5.86312e-17
5.96411e-17
6.02558e-17
6.58469e-17
7.15574e-17
1.04187e-16
9.20607e-17
7.052e-17
5.73429e-17
5.55829e-17
5.32618e-17
5.29584e-17
5.28808e-17
5.24038e-17
5.27604e-17
5.23099e-17
5.23788e-17
5.26058e-17
5.23789e-17
5.27408e-17
5.26079e-17
5.34223e-17
5.38265e-17
5.85355e-17
6.19912e-17
8.45816e-17
7.77621e-17
6.14315e-17
5.09462e-17
4.97961e-17
4.7804e-17
4.75635e-17
4.75016e-17
4.70565e-17
4.73996e-17
4.69714e-17
4.70378e-17
4.72526e-17
4.70338e-17
4.73716e-17
4.72403e-17
4.79486e-17
4.82086e-17
5.20679e-17
5.40959e-17
6.97904e-17
6.60445e-17
5.38671e-17
4.55977e-17
4.49006e-17
4.32015e-17
4.30097e-17
4.29609e-17
4.25507e-17
4.28755e-17
4.24735e-17
4.25372e-17
4.27369e-17
4.25304e-17
4.28404e-17
4.27151e-17
4.33183e-17
4.3485e-17
4.66346e-17
4.77346e-17
5.87554e-17
5.69552e-17
4.80197e-17
4.15772e-17
4.11954e-17
3.97714e-17
3.96168e-17
3.95796e-17
3.92125e-17
3.95075e-17
3.91441e-17
3.92034e-17
3.93808e-17
3.9195e-17
3.94687e-17
3.93569e-17
3.98557e-17
3.99661e-17
4.24968e-17
4.30282e-17
5.08248e-17
5.16187e-17
4.51519e-17
4.05033e-17
4.02283e-17
3.92169e-17
3.90884e-17
3.90687e-17
3.88049e-17
3.89961e-17
3.87593e-17
3.87995e-17
3.89081e-17
3.87914e-17
3.8972e-17
3.89132e-17
3.92254e-17
3.93592e-17
4.10751e-17
4.14673e-17
4.66141e-17
5.93055e-17
5.44435e-17
5.30146e-17
5.21497e-17
5.2412e-17
5.22687e-17
5.2314e-17
5.24453e-17
5.21638e-17
5.24933e-17
5.24423e-17
5.22453e-17
5.24452e-17
5.22402e-17
5.24436e-17
5.20812e-17
5.26071e-17
5.1977e-17
5.35673e-17
5.43864e-17
1.46389e-16
1.40595e-16
1.48146e-16
1.43948e-16
1.48628e-16
1.48098e-16
1.48472e-16
1.49853e-16
1.4786e-16
1.502e-16
1.49868e-16
1.48495e-16
1.49964e-16
1.48277e-16
1.49663e-16
1.46628e-16
1.49435e-16
1.40152e-16
1.48676e-16
1.36115e-16
8.89403e-16
8.5942e-16
8.81916e-16
8.62221e-16
8.78002e-16
8.73292e-16
8.75696e-16
8.77969e-16
8.72854e-16
8.78422e-16
8.78488e-16
8.73556e-16
8.79457e-16
8.72821e-16
8.79894e-16
8.66205e-16
8.83956e-16
8.44298e-16
8.92033e-16
8.35958e-16
1.39921e-14
1.33583e-14
1.30775e-14
1.28903e-14
1.28608e-14
1.27721e-14
1.28038e-14
1.27257e-14
1.2784e-14
1.27025e-14
1.27431e-14
1.27334e-14
1.27616e-14
1.27322e-14
1.28083e-14
1.26997e-14
1.29734e-14
1.27388e-14
1.33936e-14
1.31092e-14
)
;

boundaryField
{
    fuel
    {
        type            fixedValue;
        value           nonuniform 0();
    }
    wall
    {
        type            zeroGradient;
    }
    outlet
    {
        type            zeroGradient;
    }
    frontAndBack
    {
        type            empty;
    }
    procBoundary1to0
    {
        type            processor;
        value           nonuniform List<scalar> 
21
(
1.88038e-16
1.25844e-16
9.38019e-17
8.58852e-17
8.23833e-17
8.15923e-17
8.14361e-17
8.11456e-17
8.12517e-17
8.10456e-17
7.66606e-17
7.66606e-17
7.68152e-17
7.66861e-17
7.6971e-17
7.69332e-17
7.80002e-17
7.96818e-17
8.87802e-17
1.08082e-16
2.08572e-16
)
;
    }
}


// ************************************************************************* //
