/*--------------------------------*- C++ -*----------------------------------*\
| =========                 |                                                 |
| \\      /  F ield         | OpenFOAM: The Open Source CFD Toolbox           |
|  \\    /   O peration     | Version:  dev                                   |
|   \\  /    A nd           | Web:      www.OpenFOAM.org                      |
|    \\/     M anipulation  |                                                 |
\*---------------------------------------------------------------------------*/
FoamFile
{
    version     2.0;
    format      ascii;
    class       volScalarField;
    location    "0.17";
    object      OH;
}
// * * * * * * * * * * * * * * * * * * * * * * * * * * * * * * * * * * * * * //

dimensions      [0 0 0 0 0 0 0];

internalField   nonuniform List<scalar> 
13
(
7.77215e-09
5.70134e-09
4.13772e-09
2.97015e-09
2.10805e-09
1.47908e-09
1.02597e-09
7.03893e-10
4.78111e-10
3.22072e-10
2.15766e-10
1.44355e-10
9.70128e-11
)
;

boundaryField
{
    wall
    {
        type            zeroGradient;
    }
    fuel
    {
        type            fixedValue;
        value           nonuniform 0();
    }
    outlet
    {
        type            inletOutlet;
        inletValue      nonuniform 0();
        value           nonuniform 0();
    }
    procBoundary5to4
    {
        type            processor;
        value           uniform 1.04956e-08;
    }
    procBoundary5to6
    {
        type            processor;
        value           uniform 6.60313e-11;
    }
}


// ************************************************************************* //
