/*--------------------------------*- C++ -*----------------------------------*\
| =========                 |                                                 |
| \\      /  F ield         | OpenFOAM: The Open Source CFD Toolbox           |
|  \\    /   O peration     | Version:  dev                                   |
|   \\  /    A nd           | Web:      www.OpenFOAM.org                      |
|    \\/     M anipulation  |                                                 |
\*---------------------------------------------------------------------------*/
FoamFile
{
    version     2.0;
    format      ascii;
    class       volScalarField;
    location    "0.075";
    object      A1C2H-;
}
// * * * * * * * * * * * * * * * * * * * * * * * * * * * * * * * * * * * * * //

dimensions      [0 0 0 0 0 0 0];

internalField   nonuniform List<scalar> 
2000
(
3.67589e-08
3.67886e-08
3.68484e-08
3.68692e-08
3.68722e-08
3.68759e-08
3.68739e-08
3.68757e-08
3.6874e-08
3.68753e-08
3.68741e-08
3.6875e-08
3.68742e-08
3.68748e-08
3.68743e-08
3.68747e-08
3.68743e-08
3.68747e-08
3.68744e-08
3.68746e-08
3.68745e-08
3.68746e-08
3.68745e-08
3.68745e-08
3.68745e-08
3.68745e-08
3.68745e-08
3.68745e-08
3.68746e-08
3.68745e-08
3.68746e-08
3.68744e-08
3.68747e-08
3.68743e-08
3.68747e-08
3.68743e-08
3.68748e-08
3.68742e-08
3.6875e-08
3.68741e-08
3.68753e-08
3.6874e-08
3.68757e-08
3.68739e-08
3.68759e-08
3.68722e-08
3.68692e-08
3.68484e-08
3.67886e-08
3.67589e-08
1.23707e-07
1.23854e-07
1.24077e-07
1.24155e-07
1.24167e-07
1.24181e-07
1.24174e-07
1.24181e-07
1.24174e-07
1.24179e-07
1.24175e-07
1.24178e-07
1.24175e-07
1.24177e-07
1.24175e-07
1.24177e-07
1.24176e-07
1.24177e-07
1.24176e-07
1.24177e-07
1.24176e-07
1.24176e-07
1.24176e-07
1.24176e-07
1.24176e-07
1.24176e-07
1.24176e-07
1.24176e-07
1.24176e-07
1.24176e-07
1.24177e-07
1.24176e-07
1.24177e-07
1.24176e-07
1.24177e-07
1.24175e-07
1.24177e-07
1.24175e-07
1.24178e-07
1.24175e-07
1.24179e-07
1.24174e-07
1.24181e-07
1.24174e-07
1.24181e-07
1.24167e-07
1.24155e-07
1.24077e-07
1.23854e-07
1.23707e-07
2.72086e-07
2.72436e-07
2.72919e-07
2.73093e-07
2.73106e-07
2.73143e-07
2.7312e-07
2.7314e-07
2.73122e-07
2.73136e-07
2.73124e-07
2.73133e-07
2.73125e-07
2.73131e-07
2.73126e-07
2.7313e-07
2.73126e-07
2.7313e-07
2.73128e-07
2.73129e-07
2.73128e-07
2.73129e-07
2.73128e-07
2.73129e-07
2.73128e-07
2.73128e-07
2.73129e-07
2.73128e-07
2.73129e-07
2.73128e-07
2.73129e-07
2.73127e-07
2.7313e-07
2.73126e-07
2.7313e-07
2.73126e-07
2.73131e-07
2.73125e-07
2.73133e-07
2.73124e-07
2.73136e-07
2.73122e-07
2.7314e-07
2.7312e-07
2.73143e-07
2.73106e-07
2.73093e-07
2.72919e-07
2.72436e-07
2.72086e-07
4.36214e-07
4.36765e-07
4.375e-07
4.37753e-07
4.37744e-07
4.37809e-07
4.37762e-07
4.37801e-07
4.37765e-07
4.37793e-07
4.37769e-07
4.37788e-07
4.37772e-07
4.37784e-07
4.37774e-07
4.37783e-07
4.37775e-07
4.37782e-07
4.37777e-07
4.37781e-07
4.37778e-07
4.3778e-07
4.37778e-07
4.37779e-07
4.37779e-07
4.37779e-07
4.37779e-07
4.37778e-07
4.3778e-07
4.37778e-07
4.37781e-07
4.37777e-07
4.37782e-07
4.37775e-07
4.37783e-07
4.37774e-07
4.37784e-07
4.37772e-07
4.37788e-07
4.37769e-07
4.37793e-07
4.37765e-07
4.37801e-07
4.37762e-07
4.37809e-07
4.37745e-07
4.37753e-07
4.375e-07
4.36765e-07
4.36214e-07
5.44274e-07
5.44897e-07
5.4576e-07
5.46024e-07
5.4598e-07
5.46061e-07
5.45991e-07
5.46045e-07
5.45995e-07
5.46033e-07
5.46e-07
5.46027e-07
5.46005e-07
5.46022e-07
5.46008e-07
5.4602e-07
5.46009e-07
5.46018e-07
5.46012e-07
5.46017e-07
5.46013e-07
5.46016e-07
5.46013e-07
5.46015e-07
5.46014e-07
5.46014e-07
5.46015e-07
5.46013e-07
5.46016e-07
5.46013e-07
5.46017e-07
5.46012e-07
5.46018e-07
5.46009e-07
5.4602e-07
5.46008e-07
5.46022e-07
5.46005e-07
5.46027e-07
5.46e-07
5.46033e-07
5.45994e-07
5.46045e-07
5.45991e-07
5.46061e-07
5.4598e-07
5.46024e-07
5.4576e-07
5.44897e-07
5.44274e-07
5.80854e-07
5.81484e-07
5.82428e-07
5.8268e-07
5.82607e-07
5.82695e-07
5.82609e-07
5.82673e-07
5.82612e-07
5.82659e-07
5.82619e-07
5.82651e-07
5.82625e-07
5.82646e-07
5.82629e-07
5.82643e-07
5.8263e-07
5.82641e-07
5.82633e-07
5.82639e-07
5.82635e-07
5.82638e-07
5.82635e-07
5.82637e-07
5.82636e-07
5.82636e-07
5.82637e-07
5.82635e-07
5.82638e-07
5.82635e-07
5.82639e-07
5.82633e-07
5.82641e-07
5.8263e-07
5.82643e-07
5.82629e-07
5.82646e-07
5.82625e-07
5.82651e-07
5.82619e-07
5.82659e-07
5.82612e-07
5.82673e-07
5.82609e-07
5.82695e-07
5.82607e-07
5.8268e-07
5.82428e-07
5.81484e-07
5.80854e-07
5.65823e-07
5.66453e-07
5.67476e-07
5.67723e-07
5.67635e-07
5.67728e-07
5.67631e-07
5.67701e-07
5.67633e-07
5.67685e-07
5.67641e-07
5.67677e-07
5.67647e-07
5.6767e-07
5.67652e-07
5.67667e-07
5.67654e-07
5.67665e-07
5.67657e-07
5.67663e-07
5.67658e-07
5.67662e-07
5.67659e-07
5.67661e-07
5.6766e-07
5.6766e-07
5.67661e-07
5.67659e-07
5.67662e-07
5.67658e-07
5.67663e-07
5.67657e-07
5.67665e-07
5.67654e-07
5.67668e-07
5.67651e-07
5.67671e-07
5.67647e-07
5.67676e-07
5.67641e-07
5.67685e-07
5.67633e-07
5.67701e-07
5.67631e-07
5.67727e-07
5.67635e-07
5.67723e-07
5.67476e-07
5.66453e-07
5.65823e-07
5.22122e-07
5.22759e-07
5.23861e-07
5.24117e-07
5.24025e-07
5.24121e-07
5.24018e-07
5.24092e-07
5.2402e-07
5.24074e-07
5.24028e-07
5.24066e-07
5.24035e-07
5.24059e-07
5.24039e-07
5.24056e-07
5.24041e-07
5.24054e-07
5.24044e-07
5.24052e-07
5.24046e-07
5.2405e-07
5.24047e-07
5.24049e-07
5.24048e-07
5.24048e-07
5.24049e-07
5.24047e-07
5.2405e-07
5.24046e-07
5.24052e-07
5.24044e-07
5.24054e-07
5.24041e-07
5.24056e-07
5.24039e-07
5.24059e-07
5.24035e-07
5.24066e-07
5.24028e-07
5.24075e-07
5.2402e-07
5.24092e-07
5.24018e-07
5.24121e-07
5.24025e-07
5.24117e-07
5.23861e-07
5.22759e-07
5.22122e-07
4.66262e-07
4.66914e-07
4.68081e-07
4.68354e-07
4.68267e-07
4.68366e-07
4.68261e-07
4.68336e-07
4.68262e-07
4.68318e-07
4.6827e-07
4.68308e-07
4.68276e-07
4.68302e-07
4.68281e-07
4.68298e-07
4.68283e-07
4.68296e-07
4.68286e-07
4.68294e-07
4.68288e-07
4.68292e-07
4.68289e-07
4.68291e-07
4.6829e-07
4.6829e-07
4.68291e-07
4.68289e-07
4.68292e-07
4.68288e-07
4.68294e-07
4.68286e-07
4.68296e-07
4.68283e-07
4.68298e-07
4.68281e-07
4.68302e-07
4.68277e-07
4.68308e-07
4.6827e-07
4.68318e-07
4.68262e-07
4.68336e-07
4.68261e-07
4.68366e-07
4.68267e-07
4.68354e-07
4.68081e-07
4.66914e-07
4.66262e-07
4.08491e-07
4.0916e-07
4.10372e-07
4.10665e-07
4.10588e-07
4.10689e-07
4.10584e-07
4.10659e-07
4.10584e-07
4.1064e-07
4.10592e-07
4.10631e-07
4.10599e-07
4.10624e-07
4.10603e-07
4.1062e-07
4.10605e-07
4.10618e-07
4.10608e-07
4.10616e-07
4.1061e-07
4.10614e-07
4.10611e-07
4.10613e-07
4.10612e-07
4.10612e-07
4.10613e-07
4.10611e-07
4.10614e-07
4.1061e-07
4.10616e-07
4.10608e-07
4.10618e-07
4.10605e-07
4.10621e-07
4.10603e-07
4.10624e-07
4.10599e-07
4.10631e-07
4.10592e-07
4.1064e-07
4.10584e-07
4.10659e-07
4.10584e-07
4.10689e-07
4.10588e-07
4.10665e-07
4.10372e-07
4.0916e-07
4.08491e-07
3.54096e-07
3.54781e-07
3.56014e-07
3.56326e-07
3.56262e-07
3.56363e-07
3.5626e-07
3.56334e-07
3.5626e-07
3.56315e-07
3.56267e-07
3.56306e-07
3.56274e-07
3.56299e-07
3.56278e-07
3.56295e-07
3.5628e-07
3.56293e-07
3.56284e-07
3.56291e-07
3.56285e-07
3.56289e-07
3.56286e-07
3.56288e-07
3.56287e-07
3.56287e-07
3.56288e-07
3.56286e-07
3.56289e-07
3.56285e-07
3.56291e-07
3.56283e-07
3.56293e-07
3.5628e-07
3.56295e-07
3.56278e-07
3.56299e-07
3.56274e-07
3.56306e-07
3.56268e-07
3.56315e-07
3.5626e-07
3.56334e-07
3.5626e-07
3.56363e-07
3.56262e-07
3.56326e-07
3.56014e-07
3.54781e-07
3.54096e-07
3.03506e-07
3.04176e-07
3.05359e-07
3.0567e-07
3.0562e-07
3.05716e-07
3.0562e-07
3.05689e-07
3.05619e-07
3.05671e-07
3.05626e-07
3.05662e-07
3.05632e-07
3.05655e-07
3.05636e-07
3.05652e-07
3.05638e-07
3.05649e-07
3.05641e-07
3.05647e-07
3.05642e-07
3.05646e-07
3.05643e-07
3.05645e-07
3.05644e-07
3.05644e-07
3.05645e-07
3.05643e-07
3.05646e-07
3.05642e-07
3.05647e-07
3.05641e-07
3.05649e-07
3.05638e-07
3.05652e-07
3.05636e-07
3.05655e-07
3.05632e-07
3.05661e-07
3.05626e-07
3.05671e-07
3.05619e-07
3.05689e-07
3.0562e-07
3.05716e-07
3.0562e-07
3.0567e-07
3.05359e-07
3.04176e-07
3.03506e-07
2.61304e-07
2.61983e-07
2.63143e-07
2.63464e-07
2.63426e-07
2.6352e-07
2.63428e-07
2.63494e-07
2.63427e-07
2.63476e-07
2.63433e-07
2.63467e-07
2.63438e-07
2.63461e-07
2.63442e-07
2.63457e-07
2.63444e-07
2.63455e-07
2.63447e-07
2.63453e-07
2.63448e-07
2.63452e-07
2.63449e-07
2.63451e-07
2.6345e-07
2.6345e-07
2.63451e-07
2.63449e-07
2.63452e-07
2.63448e-07
2.63453e-07
2.63447e-07
2.63455e-07
2.63444e-07
2.63458e-07
2.63442e-07
2.63461e-07
2.63438e-07
2.63467e-07
2.63433e-07
2.63476e-07
2.63427e-07
2.63494e-07
2.63428e-07
2.6352e-07
2.63426e-07
2.63464e-07
2.63143e-07
2.61983e-07
2.61304e-07
2.25191e-07
2.25715e-07
2.26702e-07
2.26985e-07
2.26979e-07
2.27057e-07
2.26986e-07
2.27038e-07
2.26984e-07
2.27023e-07
2.26988e-07
2.27015e-07
2.26992e-07
2.27009e-07
2.26995e-07
2.27007e-07
2.26996e-07
2.27005e-07
2.26998e-07
2.27003e-07
2.26999e-07
2.27002e-07
2.27e-07
2.27001e-07
2.27e-07
2.27e-07
2.27001e-07
2.27e-07
2.27002e-07
2.26999e-07
2.27003e-07
2.26998e-07
2.27005e-07
2.26996e-07
2.27007e-07
2.26995e-07
2.27009e-07
2.26992e-07
2.27015e-07
2.26988e-07
2.27023e-07
2.26984e-07
2.27038e-07
2.26986e-07
2.27057e-07
2.26979e-07
2.26985e-07
2.26702e-07
2.25715e-07
2.25191e-07
1.93788e-07
1.94289e-07
1.9519e-07
1.9546e-07
1.95463e-07
1.95534e-07
1.95471e-07
1.95517e-07
1.95468e-07
1.95503e-07
1.95472e-07
1.95495e-07
1.95475e-07
1.9549e-07
1.95477e-07
1.95488e-07
1.95478e-07
1.95486e-07
1.9548e-07
1.95485e-07
1.95481e-07
1.95484e-07
1.95482e-07
1.95483e-07
1.95482e-07
1.95482e-07
1.95483e-07
1.95482e-07
1.95484e-07
1.95481e-07
1.95485e-07
1.9548e-07
1.95486e-07
1.95478e-07
1.95488e-07
1.95477e-07
1.9549e-07
1.95475e-07
1.95495e-07
1.95472e-07
1.95503e-07
1.95468e-07
1.95517e-07
1.95471e-07
1.95534e-07
1.95463e-07
1.9546e-07
1.9519e-07
1.94289e-07
1.93788e-07
1.68437e-07
1.68927e-07
1.69769e-07
1.70032e-07
1.70042e-07
1.70109e-07
1.70051e-07
1.70093e-07
1.70049e-07
1.7008e-07
1.70051e-07
1.70073e-07
1.70054e-07
1.70068e-07
1.70056e-07
1.70066e-07
1.70057e-07
1.70064e-07
1.70059e-07
1.70063e-07
1.7006e-07
1.70062e-07
1.7006e-07
1.70061e-07
1.70061e-07
1.70061e-07
1.70061e-07
1.7006e-07
1.70062e-07
1.7006e-07
1.70063e-07
1.70059e-07
1.70064e-07
1.70057e-07
1.70066e-07
1.70056e-07
1.70068e-07
1.70054e-07
1.70073e-07
1.70051e-07
1.7008e-07
1.70048e-07
1.70093e-07
1.70051e-07
1.70109e-07
1.70042e-07
1.70032e-07
1.69769e-07
1.68927e-07
1.68437e-07
1.46469e-07
1.46981e-07
1.47799e-07
1.48078e-07
1.48103e-07
1.4817e-07
1.48117e-07
1.48157e-07
1.48114e-07
1.48143e-07
1.48116e-07
1.48136e-07
1.48118e-07
1.48131e-07
1.4812e-07
1.48129e-07
1.4812e-07
1.48127e-07
1.48122e-07
1.48126e-07
1.48123e-07
1.48125e-07
1.48123e-07
1.48124e-07
1.48124e-07
1.48124e-07
1.48124e-07
1.48123e-07
1.48125e-07
1.48123e-07
1.48126e-07
1.48122e-07
1.48127e-07
1.4812e-07
1.48129e-07
1.4812e-07
1.48131e-07
1.48118e-07
1.48136e-07
1.48116e-07
1.48143e-07
1.48114e-07
1.48157e-07
1.48118e-07
1.4817e-07
1.48103e-07
1.48078e-07
1.47799e-07
1.46981e-07
1.46469e-07
1.2865e-07
1.29152e-07
1.29908e-07
1.30177e-07
1.30207e-07
1.3027e-07
1.30222e-07
1.30257e-07
1.30218e-07
1.30244e-07
1.3022e-07
1.30238e-07
1.30221e-07
1.30233e-07
1.30223e-07
1.30231e-07
1.30223e-07
1.3023e-07
1.30225e-07
1.30229e-07
1.30226e-07
1.30228e-07
1.30226e-07
1.30227e-07
1.30227e-07
1.30227e-07
1.30227e-07
1.30226e-07
1.30228e-07
1.30226e-07
1.30229e-07
1.30225e-07
1.3023e-07
1.30223e-07
1.30231e-07
1.30223e-07
1.30233e-07
1.30221e-07
1.30238e-07
1.3022e-07
1.30244e-07
1.30218e-07
1.30257e-07
1.30222e-07
1.30269e-07
1.30207e-07
1.30177e-07
1.29908e-07
1.29152e-07
1.2865e-07
1.1309e-07
1.13616e-07
1.14356e-07
1.14633e-07
1.14664e-07
1.14728e-07
1.1468e-07
1.14715e-07
1.14677e-07
1.14702e-07
1.14678e-07
1.14696e-07
1.1468e-07
1.14691e-07
1.14681e-07
1.14689e-07
1.14682e-07
1.14688e-07
1.14683e-07
1.14687e-07
1.14684e-07
1.14686e-07
1.14684e-07
1.14685e-07
1.14685e-07
1.14685e-07
1.14685e-07
1.14684e-07
1.14686e-07
1.14684e-07
1.14687e-07
1.14683e-07
1.14688e-07
1.14682e-07
1.14689e-07
1.14681e-07
1.14691e-07
1.1468e-07
1.14696e-07
1.14678e-07
1.14702e-07
1.14676e-07
1.14715e-07
1.1468e-07
1.14728e-07
1.14664e-07
1.14633e-07
1.14356e-07
1.13616e-07
1.1309e-07
9.99018e-08
1.00414e-07
1.01085e-07
1.01344e-07
1.01377e-07
1.01435e-07
1.01393e-07
1.01424e-07
1.01389e-07
1.01412e-07
1.0139e-07
1.01406e-07
1.01391e-07
1.01402e-07
1.01392e-07
1.014e-07
1.01393e-07
1.01399e-07
1.01394e-07
1.01398e-07
1.01395e-07
1.01397e-07
1.01395e-07
1.01396e-07
1.01396e-07
1.01396e-07
1.01396e-07
1.01395e-07
1.01397e-07
1.01395e-07
1.01398e-07
1.01394e-07
1.01399e-07
1.01393e-07
1.014e-07
1.01392e-07
1.01402e-07
1.01391e-07
1.01406e-07
1.0139e-07
1.01412e-07
1.01389e-07
1.01424e-07
1.01393e-07
1.01435e-07
1.01377e-07
1.01344e-07
1.01085e-07
1.00414e-07
9.99018e-08
8.9091e-08
8.96033e-08
9.02229e-08
9.04701e-08
9.05051e-08
9.05594e-08
9.05204e-08
9.05489e-08
9.05165e-08
9.05374e-08
9.05171e-08
9.05316e-08
9.05184e-08
9.05279e-08
9.05193e-08
9.05261e-08
9.05198e-08
9.05249e-08
9.0521e-08
9.05241e-08
9.05215e-08
9.05233e-08
9.05218e-08
9.05227e-08
9.05223e-08
9.05223e-08
9.05227e-08
9.05218e-08
9.05233e-08
9.05215e-08
9.0524e-08
9.0521e-08
9.05249e-08
9.05198e-08
9.05261e-08
9.05193e-08
9.05279e-08
9.05184e-08
9.05316e-08
9.05172e-08
9.05374e-08
9.05165e-08
9.05489e-08
9.05204e-08
9.05593e-08
9.0505e-08
9.04701e-08
9.02229e-08
8.96033e-08
8.90911e-08
7.98544e-08
8.03717e-08
8.09455e-08
8.11811e-08
8.12168e-08
8.12679e-08
8.1232e-08
8.12582e-08
8.12281e-08
8.12472e-08
8.12284e-08
8.12418e-08
8.12295e-08
8.12382e-08
8.12303e-08
8.12365e-08
8.12307e-08
8.12355e-08
8.12319e-08
8.12347e-08
8.12323e-08
8.12339e-08
8.12326e-08
8.12334e-08
8.12331e-08
8.12331e-08
8.12334e-08
8.12326e-08
8.1234e-08
8.12323e-08
8.12347e-08
8.12318e-08
8.12355e-08
8.12307e-08
8.12366e-08
8.12303e-08
8.12383e-08
8.12295e-08
8.12417e-08
8.12285e-08
8.12472e-08
8.1228e-08
8.12582e-08
8.1232e-08
8.12678e-08
8.12168e-08
8.11811e-08
8.09455e-08
8.03717e-08
7.98544e-08
7.19251e-08
7.22196e-08
7.27224e-08
7.29385e-08
7.29799e-08
7.3027e-08
7.2997e-08
7.3019e-08
7.29927e-08
7.30084e-08
7.29919e-08
7.30029e-08
7.29921e-08
7.29994e-08
7.29924e-08
7.29976e-08
7.29926e-08
7.29966e-08
7.29935e-08
7.29959e-08
7.29938e-08
7.29952e-08
7.2994e-08
7.29948e-08
7.29944e-08
7.29944e-08
7.29948e-08
7.2994e-08
7.29952e-08
7.29938e-08
7.29959e-08
7.29935e-08
7.29966e-08
7.29926e-08
7.29977e-08
7.29924e-08
7.29994e-08
7.29921e-08
7.30028e-08
7.2992e-08
7.30084e-08
7.29926e-08
7.3019e-08
7.2997e-08
7.30269e-08
7.29799e-08
7.29385e-08
7.27224e-08
7.22195e-08
7.19251e-08
6.50895e-08
6.53813e-08
6.58453e-08
6.60501e-08
6.60915e-08
6.61358e-08
6.61083e-08
6.61284e-08
6.61039e-08
6.61182e-08
6.6103e-08
6.6113e-08
6.6103e-08
6.61097e-08
6.61032e-08
6.6108e-08
6.61033e-08
6.61071e-08
6.61041e-08
6.61063e-08
6.61045e-08
6.61057e-08
6.61046e-08
6.61053e-08
6.6105e-08
6.6105e-08
6.61053e-08
6.61046e-08
6.61057e-08
6.61045e-08
6.61063e-08
6.61041e-08
6.6107e-08
6.61034e-08
6.6108e-08
6.61032e-08
6.61097e-08
6.6103e-08
6.61129e-08
6.61031e-08
6.61182e-08
6.61039e-08
6.61284e-08
6.61083e-08
6.61357e-08
6.60915e-08
6.605e-08
6.58453e-08
6.53813e-08
6.50895e-08
5.89446e-08
5.92364e-08
5.96753e-08
5.98764e-08
5.99197e-08
5.99628e-08
5.99371e-08
5.99557e-08
5.99325e-08
5.99456e-08
5.99313e-08
5.99404e-08
5.99311e-08
5.99372e-08
5.99311e-08
5.99356e-08
5.99312e-08
5.99347e-08
5.99319e-08
5.9934e-08
5.99322e-08
5.99334e-08
5.99323e-08
5.9933e-08
5.99327e-08
5.99327e-08
5.9933e-08
5.99323e-08
5.99334e-08
5.99322e-08
5.9934e-08
5.99319e-08
5.99346e-08
5.99312e-08
5.99356e-08
5.99311e-08
5.99372e-08
5.99311e-08
5.99404e-08
5.99313e-08
5.99457e-08
5.99325e-08
5.99557e-08
5.99371e-08
5.99628e-08
5.99197e-08
5.98763e-08
5.96753e-08
5.92364e-08
5.89446e-08
5.35931e-08
5.38762e-08
5.42777e-08
5.44662e-08
5.45087e-08
5.45489e-08
5.45255e-08
5.45422e-08
5.4521e-08
5.45327e-08
5.45195e-08
5.45277e-08
5.45192e-08
5.45247e-08
5.45191e-08
5.45231e-08
5.45191e-08
5.45223e-08
5.45198e-08
5.45217e-08
5.452e-08
5.45211e-08
5.45201e-08
5.45207e-08
5.45205e-08
5.45205e-08
5.45207e-08
5.45202e-08
5.45211e-08
5.452e-08
5.45216e-08
5.45198e-08
5.45223e-08
5.45192e-08
5.45232e-08
5.45191e-08
5.45247e-08
5.45192e-08
5.45277e-08
5.45196e-08
5.45327e-08
5.4521e-08
5.45422e-08
5.45255e-08
5.45488e-08
5.45087e-08
5.44662e-08
5.42777e-08
5.38761e-08
5.35931e-08
4.89126e-08
4.91871e-08
4.9555e-08
4.97316e-08
4.9773e-08
4.98104e-08
4.97892e-08
4.98042e-08
4.97847e-08
4.97951e-08
4.97831e-08
4.97904e-08
4.97826e-08
4.97875e-08
4.97825e-08
4.97861e-08
4.97824e-08
4.97853e-08
4.9783e-08
4.97847e-08
4.97832e-08
4.97842e-08
4.97833e-08
4.97839e-08
4.97836e-08
4.97836e-08
4.97839e-08
4.97833e-08
4.97842e-08
4.97832e-08
4.97847e-08
4.9783e-08
4.97853e-08
4.97825e-08
4.97861e-08
4.97825e-08
4.97875e-08
4.97826e-08
4.97904e-08
4.97831e-08
4.97951e-08
4.97847e-08
4.98042e-08
4.97892e-08
4.98103e-08
4.9773e-08
4.97315e-08
4.9555e-08
4.91871e-08
4.89126e-08
4.48034e-08
4.50687e-08
4.54067e-08
4.55719e-08
4.56121e-08
4.5647e-08
4.56277e-08
4.56412e-08
4.56233e-08
4.56325e-08
4.56215e-08
4.56281e-08
4.56209e-08
4.56253e-08
4.56207e-08
4.5624e-08
4.56206e-08
4.56232e-08
4.56211e-08
4.56227e-08
4.56213e-08
4.56222e-08
4.56214e-08
4.56219e-08
4.56217e-08
4.56217e-08
4.56219e-08
4.56214e-08
4.56222e-08
4.56213e-08
4.56227e-08
4.56211e-08
4.56232e-08
4.56207e-08
4.5624e-08
4.56207e-08
4.56254e-08
4.56209e-08
4.5628e-08
4.56215e-08
4.56326e-08
4.56233e-08
4.56412e-08
4.56277e-08
4.5647e-08
4.56121e-08
4.55718e-08
4.54067e-08
4.50687e-08
4.48034e-08
4.11826e-08
4.14381e-08
4.17497e-08
4.1904e-08
4.1943e-08
4.19756e-08
4.19579e-08
4.19701e-08
4.19536e-08
4.19618e-08
4.19517e-08
4.19575e-08
4.1951e-08
4.1955e-08
4.19507e-08
4.19537e-08
4.19506e-08
4.1953e-08
4.1951e-08
4.19525e-08
4.19512e-08
4.1952e-08
4.19513e-08
4.19517e-08
4.19515e-08
4.19515e-08
4.19517e-08
4.19513e-08
4.1952e-08
4.19512e-08
4.19525e-08
4.1951e-08
4.1953e-08
4.19506e-08
4.19537e-08
4.19507e-08
4.1955e-08
4.1951e-08
4.19575e-08
4.19517e-08
4.19618e-08
4.19536e-08
4.197e-08
4.19579e-08
4.19755e-08
4.1943e-08
4.1904e-08
4.17497e-08
4.14381e-08
4.11826e-08
3.79812e-08
3.82268e-08
3.85147e-08
3.86588e-08
3.86965e-08
3.87269e-08
3.87108e-08
3.87217e-08
3.87065e-08
3.87138e-08
3.87045e-08
3.87097e-08
3.87037e-08
3.87072e-08
3.87033e-08
3.8706e-08
3.87032e-08
3.87054e-08
3.87036e-08
3.87049e-08
3.87037e-08
3.87045e-08
3.87038e-08
3.87042e-08
3.8704e-08
3.8704e-08
3.87042e-08
3.87038e-08
3.87045e-08
3.87037e-08
3.87049e-08
3.87036e-08
3.87053e-08
3.87032e-08
3.8706e-08
3.87033e-08
3.87073e-08
3.87037e-08
3.87097e-08
3.87045e-08
3.87138e-08
3.87065e-08
3.87217e-08
3.87108e-08
3.87268e-08
3.86964e-08
3.86588e-08
3.85147e-08
3.82268e-08
3.79812e-08
3.51416e-08
3.53772e-08
3.56438e-08
3.57783e-08
3.58146e-08
3.58431e-08
3.58283e-08
3.58381e-08
3.58241e-08
3.58306e-08
3.58219e-08
3.58266e-08
3.5821e-08
3.58243e-08
3.58207e-08
3.58231e-08
3.58205e-08
3.58225e-08
3.58209e-08
3.5822e-08
3.5821e-08
3.58217e-08
3.5821e-08
3.58214e-08
3.58212e-08
3.58212e-08
3.58214e-08
3.5821e-08
3.58217e-08
3.5821e-08
3.5822e-08
3.58208e-08
3.58225e-08
3.58205e-08
3.58231e-08
3.58207e-08
3.58243e-08
3.5821e-08
3.58266e-08
3.5822e-08
3.58306e-08
3.58241e-08
3.58381e-08
3.58283e-08
3.5843e-08
3.58145e-08
3.57783e-08
3.56438e-08
3.53772e-08
3.51416e-08
3.26152e-08
3.28408e-08
3.30881e-08
3.32137e-08
3.32485e-08
3.32752e-08
3.32616e-08
3.32704e-08
3.32575e-08
3.32632e-08
3.32553e-08
3.32594e-08
3.32543e-08
3.32572e-08
3.32539e-08
3.32561e-08
3.32537e-08
3.32555e-08
3.3254e-08
3.32551e-08
3.32541e-08
3.32547e-08
3.32542e-08
3.32545e-08
3.32543e-08
3.32543e-08
3.32545e-08
3.32542e-08
3.32547e-08
3.32541e-08
3.32551e-08
3.3254e-08
3.32555e-08
3.32537e-08
3.32561e-08
3.32539e-08
3.32572e-08
3.32543e-08
3.32594e-08
3.32553e-08
3.32633e-08
3.32575e-08
3.32704e-08
3.32617e-08
3.32751e-08
3.32485e-08
3.32137e-08
3.3088e-08
3.28408e-08
3.26152e-08
3.03607e-08
3.05765e-08
3.08062e-08
3.09236e-08
3.0957e-08
3.0982e-08
3.09695e-08
3.09774e-08
3.09654e-08
3.09705e-08
3.09632e-08
3.09669e-08
3.09621e-08
3.09647e-08
3.09616e-08
3.09636e-08
3.09615e-08
3.09631e-08
3.09617e-08
3.09627e-08
3.09618e-08
3.09624e-08
3.09618e-08
3.09622e-08
3.0962e-08
3.0962e-08
3.09622e-08
3.09618e-08
3.09624e-08
3.09618e-08
3.09627e-08
3.09617e-08
3.09631e-08
3.09615e-08
3.09636e-08
3.09616e-08
3.09647e-08
3.09621e-08
3.09668e-08
3.09632e-08
3.09705e-08
3.09654e-08
3.09774e-08
3.09695e-08
3.09819e-08
3.0957e-08
3.09236e-08
3.08062e-08
3.05765e-08
3.03607e-08
2.83432e-08
2.85493e-08
2.8763e-08
2.88728e-08
2.89047e-08
2.89282e-08
2.89167e-08
2.89238e-08
2.89127e-08
2.89171e-08
2.89103e-08
2.89136e-08
2.89092e-08
2.89115e-08
2.89087e-08
2.89105e-08
2.89085e-08
2.891e-08
2.89087e-08
2.89096e-08
2.89088e-08
2.89093e-08
2.89088e-08
2.89091e-08
2.8909e-08
2.8909e-08
2.89091e-08
2.89088e-08
2.89093e-08
2.89088e-08
2.89096e-08
2.89087e-08
2.891e-08
2.89085e-08
2.89105e-08
2.89087e-08
2.89115e-08
2.89092e-08
2.89136e-08
2.89103e-08
2.89171e-08
2.89127e-08
2.89238e-08
2.89167e-08
2.89281e-08
2.89047e-08
2.88728e-08
2.8763e-08
2.85493e-08
2.83432e-08
2.65326e-08
2.67292e-08
2.69284e-08
2.70311e-08
2.70616e-08
2.70836e-08
2.7073e-08
2.70793e-08
2.7069e-08
2.7073e-08
2.70666e-08
2.70695e-08
2.70655e-08
2.70676e-08
2.70649e-08
2.70666e-08
2.70647e-08
2.70661e-08
2.70649e-08
2.70657e-08
2.70649e-08
2.70654e-08
2.7065e-08
2.70652e-08
2.70651e-08
2.70651e-08
2.70652e-08
2.7065e-08
2.70654e-08
2.7065e-08
2.70657e-08
2.70649e-08
2.7066e-08
2.70647e-08
2.70666e-08
2.70649e-08
2.70676e-08
2.70655e-08
2.70695e-08
2.70666e-08
2.7073e-08
2.7069e-08
2.70793e-08
2.7073e-08
2.70835e-08
2.70616e-08
2.70311e-08
2.69284e-08
2.67292e-08
2.65326e-08
2.49033e-08
2.50904e-08
2.52764e-08
2.53727e-08
2.54017e-08
2.54223e-08
2.54126e-08
2.54182e-08
2.54086e-08
2.54121e-08
2.54062e-08
2.54088e-08
2.5405e-08
2.54068e-08
2.54044e-08
2.54059e-08
2.54042e-08
2.54054e-08
2.54043e-08
2.54051e-08
2.54044e-08
2.54048e-08
2.54044e-08
2.54046e-08
2.54045e-08
2.54045e-08
2.54046e-08
2.54044e-08
2.54048e-08
2.54044e-08
2.54051e-08
2.54043e-08
2.54054e-08
2.54042e-08
2.54059e-08
2.54044e-08
2.54069e-08
2.5405e-08
2.54088e-08
2.54062e-08
2.54121e-08
2.54086e-08
2.54182e-08
2.54126e-08
2.54223e-08
2.54017e-08
2.53727e-08
2.52764e-08
2.50904e-08
2.49033e-08
2.34331e-08
2.36109e-08
2.37849e-08
2.38751e-08
2.39028e-08
2.39221e-08
2.3913e-08
2.39181e-08
2.39092e-08
2.39122e-08
2.39067e-08
2.39089e-08
2.39054e-08
2.39071e-08
2.39048e-08
2.39062e-08
2.39046e-08
2.39057e-08
2.39047e-08
2.39054e-08
2.39048e-08
2.39052e-08
2.39048e-08
2.3905e-08
2.39049e-08
2.39049e-08
2.3905e-08
2.39048e-08
2.39052e-08
2.39048e-08
2.39054e-08
2.39047e-08
2.39057e-08
2.39046e-08
2.39062e-08
2.39048e-08
2.39071e-08
2.39054e-08
2.39089e-08
2.39067e-08
2.39122e-08
2.39092e-08
2.39181e-08
2.3913e-08
2.39221e-08
2.39028e-08
2.38751e-08
2.37849e-08
2.36109e-08
2.34331e-08
2.21029e-08
2.22714e-08
2.24345e-08
2.25192e-08
2.25454e-08
2.25636e-08
2.25552e-08
2.25597e-08
2.25513e-08
2.25539e-08
2.25488e-08
2.25508e-08
2.25475e-08
2.2549e-08
2.25469e-08
2.25481e-08
2.25466e-08
2.25477e-08
2.25467e-08
2.25474e-08
2.25468e-08
2.25472e-08
2.25468e-08
2.2547e-08
2.25469e-08
2.25469e-08
2.2547e-08
2.25468e-08
2.25472e-08
2.25468e-08
2.25474e-08
2.25467e-08
2.25477e-08
2.25467e-08
2.25481e-08
2.25469e-08
2.2549e-08
2.25475e-08
2.25508e-08
2.25488e-08
2.25539e-08
2.25513e-08
2.25597e-08
2.25552e-08
2.25635e-08
2.25454e-08
2.25191e-08
2.24345e-08
2.22714e-08
2.21029e-08
2.08961e-08
2.10553e-08
2.12086e-08
2.1288e-08
2.1313e-08
2.133e-08
2.13222e-08
2.13262e-08
2.13184e-08
2.13206e-08
2.13158e-08
2.13176e-08
2.13145e-08
2.13159e-08
2.13139e-08
2.1315e-08
2.13136e-08
2.13146e-08
2.13137e-08
2.13143e-08
2.13137e-08
2.13141e-08
2.13137e-08
2.13139e-08
2.13138e-08
2.13138e-08
2.13139e-08
2.13137e-08
2.13141e-08
2.13137e-08
2.13143e-08
2.13137e-08
2.13146e-08
2.13136e-08
2.1315e-08
2.13139e-08
2.13159e-08
2.13145e-08
2.13176e-08
2.13158e-08
2.13206e-08
2.13184e-08
2.13262e-08
2.13222e-08
2.133e-08
2.1313e-08
2.1288e-08
2.12086e-08
2.10553e-08
2.08961e-08
1.97979e-08
1.99485e-08
2.00927e-08
2.01672e-08
2.01909e-08
2.02069e-08
2.01996e-08
2.02031e-08
2.01958e-08
2.01978e-08
2.01932e-08
2.01948e-08
2.01919e-08
2.01931e-08
2.01913e-08
2.01923e-08
2.0191e-08
2.01918e-08
2.0191e-08
2.01916e-08
2.01911e-08
2.01914e-08
2.01911e-08
2.01912e-08
2.01912e-08
2.01912e-08
2.01912e-08
2.01911e-08
2.01914e-08
2.01911e-08
2.01916e-08
2.0191e-08
2.01918e-08
2.0191e-08
2.01923e-08
2.01913e-08
2.01931e-08
2.01919e-08
2.01948e-08
2.01932e-08
2.01978e-08
2.01958e-08
2.02031e-08
2.01996e-08
2.02068e-08
2.01909e-08
2.01672e-08
2.00926e-08
1.99485e-08
1.97979e-08
)
;

boundaryField
{
    fuel
    {
        type            fixedValue;
        value           uniform 0;
    }
    wall
    {
        type            zeroGradient;
    }
    outlet
    {
        type            zeroGradient;
    }
    frontAndBack
    {
        type            empty;
    }
    procBoundary1to0
    {
        type            processor;
        value           nonuniform List<scalar> 
50
(
1.87958e-08
1.89387e-08
1.90741e-08
1.91441e-08
1.91666e-08
1.91816e-08
1.91747e-08
1.91779e-08
1.9171e-08
1.91727e-08
1.91684e-08
1.91698e-08
1.9167e-08
1.91681e-08
1.91664e-08
1.91673e-08
1.91661e-08
1.91669e-08
1.91662e-08
1.91667e-08
1.91662e-08
1.91665e-08
1.91662e-08
1.91663e-08
1.91662e-08
1.91662e-08
1.91663e-08
1.91662e-08
1.91665e-08
1.91662e-08
1.91667e-08
1.91662e-08
1.91669e-08
1.91661e-08
1.91673e-08
1.91664e-08
1.91681e-08
1.91671e-08
1.91697e-08
1.91684e-08
1.91727e-08
1.9171e-08
1.91779e-08
1.91747e-08
1.91815e-08
1.91666e-08
1.91441e-08
1.90741e-08
1.89387e-08
1.87958e-08
)
;
    }
}


// ************************************************************************* //
