/*--------------------------------*- C++ -*----------------------------------*\
| =========                 |                                                 |
| \\      /  F ield         | OpenFOAM: The Open Source CFD Toolbox           |
|  \\    /   O peration     | Version:  dev                                   |
|   \\  /    A nd           | Web:      www.OpenFOAM.org                      |
|    \\/     M anipulation  |                                                 |
\*---------------------------------------------------------------------------*/
FoamFile
{
    version     2.0;
    format      ascii;
    class       volScalarField;
    location    "0.075";
    object      A2R5-;
}
// * * * * * * * * * * * * * * * * * * * * * * * * * * * * * * * * * * * * * //

dimensions      [0 0 0 0 0 0 0];

internalField   nonuniform List<scalar> 
2000
(
1.70827e-09
1.70461e-09
1.70309e-09
1.70189e-09
1.70172e-09
1.70135e-09
1.70143e-09
1.70127e-09
1.70137e-09
1.70128e-09
1.70135e-09
1.70129e-09
1.70135e-09
1.70131e-09
1.70134e-09
1.70132e-09
1.70134e-09
1.70132e-09
1.70134e-09
1.70133e-09
1.70134e-09
1.70133e-09
1.70134e-09
1.70134e-09
1.70134e-09
1.70134e-09
1.70134e-09
1.70134e-09
1.70133e-09
1.70134e-09
1.70133e-09
1.70134e-09
1.70132e-09
1.70134e-09
1.70132e-09
1.70134e-09
1.70131e-09
1.70135e-09
1.7013e-09
1.70135e-09
1.70128e-09
1.70137e-09
1.70127e-09
1.70143e-09
1.70135e-09
1.70172e-09
1.70189e-09
1.70309e-09
1.70461e-09
1.70827e-09
4.13099e-09
4.12625e-09
4.12438e-09
4.12229e-09
4.12203e-09
4.12128e-09
4.12143e-09
4.12111e-09
4.12129e-09
4.12112e-09
4.12126e-09
4.12114e-09
4.12124e-09
4.12117e-09
4.12124e-09
4.12119e-09
4.12124e-09
4.1212e-09
4.12123e-09
4.12121e-09
4.12123e-09
4.12122e-09
4.12123e-09
4.12123e-09
4.12123e-09
4.12123e-09
4.12123e-09
4.12123e-09
4.12122e-09
4.12123e-09
4.12121e-09
4.12123e-09
4.12121e-09
4.12124e-09
4.12119e-09
4.12124e-09
4.12117e-09
4.12124e-09
4.12114e-09
4.12126e-09
4.12112e-09
4.12129e-09
4.12111e-09
4.12143e-09
4.12128e-09
4.12203e-09
4.12229e-09
4.12438e-09
4.12625e-09
4.13099e-09
8.43731e-09
8.4284e-09
8.42392e-09
8.41951e-09
8.41862e-09
8.41722e-09
8.41736e-09
8.41682e-09
8.41709e-09
8.41681e-09
8.41703e-09
8.41685e-09
8.41702e-09
8.41691e-09
8.41702e-09
8.41694e-09
8.41702e-09
8.41696e-09
8.41701e-09
8.41698e-09
8.41701e-09
8.41699e-09
8.41701e-09
8.417e-09
8.41701e-09
8.41701e-09
8.417e-09
8.41701e-09
8.41699e-09
8.41701e-09
8.41698e-09
8.41701e-09
8.41696e-09
8.41702e-09
8.41694e-09
8.41702e-09
8.41691e-09
8.41702e-09
8.41685e-09
8.41703e-09
8.41681e-09
8.41709e-09
8.41682e-09
8.41736e-09
8.41722e-09
8.41862e-09
8.41951e-09
8.42393e-09
8.4284e-09
8.43731e-09
1.3293e-08
1.32798e-08
1.32722e-08
1.32651e-08
1.32631e-08
1.32611e-08
1.3261e-08
1.32604e-08
1.32606e-08
1.32603e-08
1.32605e-08
1.32604e-08
1.32605e-08
1.32604e-08
1.32605e-08
1.32605e-08
1.32606e-08
1.32605e-08
1.32605e-08
1.32605e-08
1.32606e-08
1.32605e-08
1.32606e-08
1.32605e-08
1.32606e-08
1.32606e-08
1.32605e-08
1.32606e-08
1.32605e-08
1.32606e-08
1.32605e-08
1.32605e-08
1.32605e-08
1.32606e-08
1.32605e-08
1.32605e-08
1.32604e-08
1.32605e-08
1.32604e-08
1.32605e-08
1.32603e-08
1.32606e-08
1.32604e-08
1.3261e-08
1.32611e-08
1.32631e-08
1.32651e-08
1.32722e-08
1.32798e-08
1.3293e-08
1.75084e-08
1.74914e-08
1.74809e-08
1.7471e-08
1.74677e-08
1.74652e-08
1.74648e-08
1.74641e-08
1.74642e-08
1.7464e-08
1.74642e-08
1.7464e-08
1.74642e-08
1.74641e-08
1.74642e-08
1.74641e-08
1.74642e-08
1.74642e-08
1.74642e-08
1.74642e-08
1.74642e-08
1.74642e-08
1.74642e-08
1.74642e-08
1.74642e-08
1.74642e-08
1.74642e-08
1.74642e-08
1.74642e-08
1.74642e-08
1.74642e-08
1.74642e-08
1.74642e-08
1.74642e-08
1.74641e-08
1.74642e-08
1.74641e-08
1.74642e-08
1.7464e-08
1.74642e-08
1.7464e-08
1.74642e-08
1.74641e-08
1.74648e-08
1.74652e-08
1.74677e-08
1.7471e-08
1.74809e-08
1.74913e-08
1.75084e-08
2.05458e-08
2.05269e-08
2.05156e-08
2.05041e-08
2.04995e-08
2.04968e-08
2.04959e-08
2.04953e-08
2.04953e-08
2.04951e-08
2.04952e-08
2.04952e-08
2.04953e-08
2.04952e-08
2.04953e-08
2.04953e-08
2.04953e-08
2.04953e-08
2.04953e-08
2.04953e-08
2.04953e-08
2.04953e-08
2.04954e-08
2.04954e-08
2.04954e-08
2.04954e-08
2.04954e-08
2.04954e-08
2.04953e-08
2.04953e-08
2.04953e-08
2.04953e-08
2.04953e-08
2.04953e-08
2.04953e-08
2.04953e-08
2.04952e-08
2.04953e-08
2.04952e-08
2.04952e-08
2.04951e-08
2.04953e-08
2.04953e-08
2.04959e-08
2.04968e-08
2.04995e-08
2.05041e-08
2.05156e-08
2.05269e-08
2.05458e-08
2.24545e-08
2.24363e-08
2.24267e-08
2.24149e-08
2.24095e-08
2.24069e-08
2.24056e-08
2.24052e-08
2.24048e-08
2.24049e-08
2.24048e-08
2.24049e-08
2.24049e-08
2.24049e-08
2.24049e-08
2.24049e-08
2.24049e-08
2.2405e-08
2.2405e-08
2.2405e-08
2.2405e-08
2.2405e-08
2.2405e-08
2.2405e-08
2.2405e-08
2.2405e-08
2.2405e-08
2.2405e-08
2.2405e-08
2.2405e-08
2.2405e-08
2.2405e-08
2.2405e-08
2.24049e-08
2.24049e-08
2.24049e-08
2.24049e-08
2.24049e-08
2.24049e-08
2.24048e-08
2.24049e-08
2.24048e-08
2.24052e-08
2.24056e-08
2.24069e-08
2.24095e-08
2.24149e-08
2.24267e-08
2.24363e-08
2.24545e-08
2.3484e-08
2.34686e-08
2.34632e-08
2.34524e-08
2.34466e-08
2.34442e-08
2.34425e-08
2.34423e-08
2.34417e-08
2.34419e-08
2.34417e-08
2.34419e-08
2.34417e-08
2.34419e-08
2.34418e-08
2.34419e-08
2.34419e-08
2.34419e-08
2.34419e-08
2.34419e-08
2.34419e-08
2.34419e-08
2.34419e-08
2.34419e-08
2.34419e-08
2.34419e-08
2.34419e-08
2.34419e-08
2.34419e-08
2.34419e-08
2.34419e-08
2.34419e-08
2.34419e-08
2.34419e-08
2.34419e-08
2.34418e-08
2.34419e-08
2.34417e-08
2.34419e-08
2.34417e-08
2.34419e-08
2.34417e-08
2.34423e-08
2.34425e-08
2.34442e-08
2.34466e-08
2.34524e-08
2.34632e-08
2.34686e-08
2.3484e-08
2.38778e-08
2.38667e-08
2.38669e-08
2.38582e-08
2.38523e-08
2.38504e-08
2.38482e-08
2.38484e-08
2.38474e-08
2.38479e-08
2.38474e-08
2.38478e-08
2.38475e-08
2.38478e-08
2.38476e-08
2.38478e-08
2.38476e-08
2.38478e-08
2.38477e-08
2.38478e-08
2.38477e-08
2.38478e-08
2.38477e-08
2.38478e-08
2.38477e-08
2.38477e-08
2.38478e-08
2.38477e-08
2.38478e-08
2.38477e-08
2.38478e-08
2.38477e-08
2.38478e-08
2.38476e-08
2.38478e-08
2.38476e-08
2.38478e-08
2.38475e-08
2.38478e-08
2.38474e-08
2.38479e-08
2.38474e-08
2.38484e-08
2.38482e-08
2.38504e-08
2.38523e-08
2.38582e-08
2.38669e-08
2.38667e-08
2.38778e-08
2.38505e-08
2.38446e-08
2.38514e-08
2.38454e-08
2.38398e-08
2.38385e-08
2.38359e-08
2.38364e-08
2.38351e-08
2.38357e-08
2.38351e-08
2.38356e-08
2.38352e-08
2.38355e-08
2.38353e-08
2.38355e-08
2.38353e-08
2.38355e-08
2.38354e-08
2.38355e-08
2.38354e-08
2.38355e-08
2.38354e-08
2.38355e-08
2.38354e-08
2.38354e-08
2.38355e-08
2.38354e-08
2.38355e-08
2.38354e-08
2.38355e-08
2.38354e-08
2.38355e-08
2.38353e-08
2.38355e-08
2.38353e-08
2.38355e-08
2.38352e-08
2.38356e-08
2.38351e-08
2.38357e-08
2.38351e-08
2.38364e-08
2.38359e-08
2.38385e-08
2.38398e-08
2.38454e-08
2.38514e-08
2.38446e-08
2.38505e-08
2.35416e-08
2.35415e-08
2.35551e-08
2.35522e-08
2.35471e-08
2.35465e-08
2.35436e-08
2.35443e-08
2.35427e-08
2.35436e-08
2.35427e-08
2.35433e-08
2.35428e-08
2.35432e-08
2.35429e-08
2.35432e-08
2.3543e-08
2.35432e-08
2.3543e-08
2.35432e-08
2.35431e-08
2.35431e-08
2.35431e-08
2.35431e-08
2.35431e-08
2.35431e-08
2.35431e-08
2.35431e-08
2.35431e-08
2.35431e-08
2.35432e-08
2.3543e-08
2.35432e-08
2.3543e-08
2.35432e-08
2.35429e-08
2.35432e-08
2.35428e-08
2.35433e-08
2.35427e-08
2.35436e-08
2.35427e-08
2.35443e-08
2.35436e-08
2.35464e-08
2.35471e-08
2.35522e-08
2.35551e-08
2.35415e-08
2.35416e-08
2.30344e-08
2.304e-08
2.306e-08
2.30603e-08
2.30559e-08
2.30559e-08
2.30528e-08
2.30537e-08
2.30519e-08
2.30529e-08
2.30519e-08
2.30526e-08
2.3052e-08
2.30525e-08
2.30521e-08
2.30524e-08
2.30521e-08
2.30524e-08
2.30522e-08
2.30524e-08
2.30523e-08
2.30523e-08
2.30523e-08
2.30523e-08
2.30523e-08
2.30523e-08
2.30523e-08
2.30523e-08
2.30523e-08
2.30523e-08
2.30524e-08
2.30522e-08
2.30524e-08
2.30521e-08
2.30524e-08
2.30521e-08
2.30525e-08
2.3052e-08
2.30526e-08
2.30519e-08
2.30529e-08
2.30519e-08
2.30537e-08
2.30528e-08
2.30559e-08
2.30559e-08
2.30603e-08
2.306e-08
2.304e-08
2.30344e-08
2.2447e-08
2.24581e-08
2.24843e-08
2.24878e-08
2.24842e-08
2.24848e-08
2.24815e-08
2.24827e-08
2.24807e-08
2.24818e-08
2.24806e-08
2.24814e-08
2.24807e-08
2.24813e-08
2.24808e-08
2.24812e-08
2.24808e-08
2.24811e-08
2.24809e-08
2.24811e-08
2.2481e-08
2.24811e-08
2.2481e-08
2.2481e-08
2.2481e-08
2.2481e-08
2.2481e-08
2.2481e-08
2.24811e-08
2.2481e-08
2.24811e-08
2.24809e-08
2.24811e-08
2.24808e-08
2.24812e-08
2.24808e-08
2.24813e-08
2.24807e-08
2.24814e-08
2.24806e-08
2.24818e-08
2.24807e-08
2.24827e-08
2.24816e-08
2.24848e-08
2.24842e-08
2.24878e-08
2.24843e-08
2.24581e-08
2.2447e-08
2.18077e-08
2.18212e-08
2.18503e-08
2.18561e-08
2.18539e-08
2.18548e-08
2.18518e-08
2.18528e-08
2.18509e-08
2.18519e-08
2.18507e-08
2.18515e-08
2.18508e-08
2.18513e-08
2.18509e-08
2.18512e-08
2.18509e-08
2.18512e-08
2.1851e-08
2.18511e-08
2.1851e-08
2.18511e-08
2.1851e-08
2.18511e-08
2.18511e-08
2.18511e-08
2.18511e-08
2.1851e-08
2.18511e-08
2.1851e-08
2.18511e-08
2.1851e-08
2.18512e-08
2.18509e-08
2.18512e-08
2.18509e-08
2.18513e-08
2.18508e-08
2.18515e-08
2.18507e-08
2.18519e-08
2.18508e-08
2.18528e-08
2.18518e-08
2.18548e-08
2.18539e-08
2.18561e-08
2.18503e-08
2.18212e-08
2.18077e-08
2.11323e-08
2.11504e-08
2.11835e-08
2.1192e-08
2.11908e-08
2.11921e-08
2.1189e-08
2.11902e-08
2.11881e-08
2.11892e-08
2.1188e-08
2.11888e-08
2.1188e-08
2.11885e-08
2.11881e-08
2.11884e-08
2.11881e-08
2.11884e-08
2.11882e-08
2.11883e-08
2.11882e-08
2.11883e-08
2.11882e-08
2.11883e-08
2.11882e-08
2.11882e-08
2.11883e-08
2.11882e-08
2.11883e-08
2.11882e-08
2.11883e-08
2.11882e-08
2.11884e-08
2.11881e-08
2.11884e-08
2.11881e-08
2.11885e-08
2.1188e-08
2.11888e-08
2.1188e-08
2.11892e-08
2.11881e-08
2.11902e-08
2.1189e-08
2.11921e-08
2.11908e-08
2.1192e-08
2.11835e-08
2.11504e-08
2.11323e-08
2.04906e-08
2.05131e-08
2.05499e-08
2.05609e-08
2.05607e-08
2.05625e-08
2.05594e-08
2.05606e-08
2.05584e-08
2.05595e-08
2.05583e-08
2.05591e-08
2.05583e-08
2.05588e-08
2.05583e-08
2.05587e-08
2.05583e-08
2.05586e-08
2.05584e-08
2.05586e-08
2.05584e-08
2.05585e-08
2.05585e-08
2.05585e-08
2.05585e-08
2.05585e-08
2.05585e-08
2.05585e-08
2.05585e-08
2.05584e-08
2.05586e-08
2.05584e-08
2.05586e-08
2.05583e-08
2.05587e-08
2.05583e-08
2.05588e-08
2.05583e-08
2.05591e-08
2.05583e-08
2.05595e-08
2.05584e-08
2.05606e-08
2.05594e-08
2.05625e-08
2.05607e-08
2.05609e-08
2.05499e-08
2.05131e-08
2.04906e-08
1.98479e-08
1.98756e-08
1.99169e-08
1.9931e-08
1.99321e-08
1.99344e-08
1.99314e-08
1.99326e-08
1.99304e-08
1.99315e-08
1.99301e-08
1.9931e-08
1.99301e-08
1.99307e-08
1.99301e-08
1.99305e-08
1.99301e-08
1.99305e-08
1.99302e-08
1.99304e-08
1.99303e-08
1.99304e-08
1.99303e-08
1.99303e-08
1.99303e-08
1.99303e-08
1.99303e-08
1.99303e-08
1.99304e-08
1.99303e-08
1.99304e-08
1.99302e-08
1.99305e-08
1.99302e-08
1.99305e-08
1.99301e-08
1.99307e-08
1.99301e-08
1.9931e-08
1.99301e-08
1.99315e-08
1.99304e-08
1.99326e-08
1.99314e-08
1.99344e-08
1.99321e-08
1.9931e-08
1.99169e-08
1.98756e-08
1.98479e-08
1.92546e-08
1.92863e-08
1.93302e-08
1.93464e-08
1.93484e-08
1.93511e-08
1.93481e-08
1.93494e-08
1.93471e-08
1.93482e-08
1.93468e-08
1.93476e-08
1.93467e-08
1.93473e-08
1.93467e-08
1.93472e-08
1.93468e-08
1.93471e-08
1.93468e-08
1.9347e-08
1.93469e-08
1.9347e-08
1.93469e-08
1.93469e-08
1.93469e-08
1.93469e-08
1.93469e-08
1.93469e-08
1.9347e-08
1.93469e-08
1.9347e-08
1.93468e-08
1.93471e-08
1.93468e-08
1.93472e-08
1.93467e-08
1.93473e-08
1.93467e-08
1.93476e-08
1.93468e-08
1.93482e-08
1.93471e-08
1.93494e-08
1.93481e-08
1.93511e-08
1.93484e-08
1.93464e-08
1.93302e-08
1.92863e-08
1.92546e-08
1.86705e-08
1.87073e-08
1.87551e-08
1.8774e-08
1.87768e-08
1.87801e-08
1.8777e-08
1.87784e-08
1.87759e-08
1.87771e-08
1.87756e-08
1.87765e-08
1.87755e-08
1.87761e-08
1.87755e-08
1.87759e-08
1.87755e-08
1.87759e-08
1.87756e-08
1.87758e-08
1.87756e-08
1.87757e-08
1.87756e-08
1.87757e-08
1.87757e-08
1.87757e-08
1.87757e-08
1.87756e-08
1.87757e-08
1.87756e-08
1.87758e-08
1.87756e-08
1.87759e-08
1.87755e-08
1.87759e-08
1.87755e-08
1.87761e-08
1.87755e-08
1.87765e-08
1.87756e-08
1.87771e-08
1.87759e-08
1.87784e-08
1.8777e-08
1.878e-08
1.87768e-08
1.8774e-08
1.87551e-08
1.87073e-08
1.86705e-08
1.81169e-08
1.81571e-08
1.82063e-08
1.82267e-08
1.82303e-08
1.82338e-08
1.82308e-08
1.82322e-08
1.82297e-08
1.82308e-08
1.82294e-08
1.82302e-08
1.82292e-08
1.82298e-08
1.82292e-08
1.82296e-08
1.82292e-08
1.82295e-08
1.82293e-08
1.82295e-08
1.82293e-08
1.82294e-08
1.82293e-08
1.82294e-08
1.82294e-08
1.82294e-08
1.82294e-08
1.82293e-08
1.82294e-08
1.82293e-08
1.82295e-08
1.82293e-08
1.82295e-08
1.82292e-08
1.82296e-08
1.82292e-08
1.82298e-08
1.82293e-08
1.82302e-08
1.82294e-08
1.82308e-08
1.82297e-08
1.82322e-08
1.82308e-08
1.82338e-08
1.82303e-08
1.82267e-08
1.82063e-08
1.81571e-08
1.81169e-08
1.7613e-08
1.76568e-08
1.77074e-08
1.77293e-08
1.77337e-08
1.77375e-08
1.77345e-08
1.77359e-08
1.77334e-08
1.77345e-08
1.7733e-08
1.77338e-08
1.77329e-08
1.77334e-08
1.77328e-08
1.77332e-08
1.77328e-08
1.77331e-08
1.77329e-08
1.77331e-08
1.77329e-08
1.7733e-08
1.77329e-08
1.7733e-08
1.77329e-08
1.77329e-08
1.7733e-08
1.77329e-08
1.7733e-08
1.77329e-08
1.77331e-08
1.77329e-08
1.77331e-08
1.77328e-08
1.77332e-08
1.77328e-08
1.77334e-08
1.77329e-08
1.77338e-08
1.7733e-08
1.77345e-08
1.77334e-08
1.77359e-08
1.77345e-08
1.77375e-08
1.77337e-08
1.77293e-08
1.77074e-08
1.76568e-08
1.7613e-08
1.71371e-08
1.71845e-08
1.72363e-08
1.72595e-08
1.72645e-08
1.72686e-08
1.72657e-08
1.72671e-08
1.72646e-08
1.72656e-08
1.72641e-08
1.72649e-08
1.72639e-08
1.72645e-08
1.72638e-08
1.72643e-08
1.72638e-08
1.72642e-08
1.72639e-08
1.72641e-08
1.72639e-08
1.7264e-08
1.72639e-08
1.7264e-08
1.72639e-08
1.72639e-08
1.7264e-08
1.72639e-08
1.7264e-08
1.72639e-08
1.72641e-08
1.72639e-08
1.72642e-08
1.72638e-08
1.72643e-08
1.72638e-08
1.72645e-08
1.72639e-08
1.72649e-08
1.72641e-08
1.72656e-08
1.72646e-08
1.72671e-08
1.72657e-08
1.72686e-08
1.72645e-08
1.72595e-08
1.72363e-08
1.71845e-08
1.71371e-08
1.6687e-08
1.67246e-08
1.67757e-08
1.67997e-08
1.68057e-08
1.68099e-08
1.68073e-08
1.68085e-08
1.68061e-08
1.6807e-08
1.68055e-08
1.68062e-08
1.68052e-08
1.68057e-08
1.68051e-08
1.68055e-08
1.68051e-08
1.68054e-08
1.68051e-08
1.68053e-08
1.68052e-08
1.68053e-08
1.68052e-08
1.68052e-08
1.68052e-08
1.68052e-08
1.68052e-08
1.68052e-08
1.68053e-08
1.68052e-08
1.68053e-08
1.68051e-08
1.68054e-08
1.68051e-08
1.68055e-08
1.68051e-08
1.68057e-08
1.68053e-08
1.68062e-08
1.68055e-08
1.6807e-08
1.68061e-08
1.68085e-08
1.68073e-08
1.68099e-08
1.68057e-08
1.67997e-08
1.67757e-08
1.67246e-08
1.6687e-08
1.62602e-08
1.63003e-08
1.63521e-08
1.6377e-08
1.63836e-08
1.6388e-08
1.63855e-08
1.63867e-08
1.63842e-08
1.63851e-08
1.63836e-08
1.63843e-08
1.63833e-08
1.63838e-08
1.63832e-08
1.63835e-08
1.63831e-08
1.63834e-08
1.63832e-08
1.63833e-08
1.63832e-08
1.63833e-08
1.63832e-08
1.63832e-08
1.63832e-08
1.63832e-08
1.63832e-08
1.63832e-08
1.63833e-08
1.63832e-08
1.63833e-08
1.63832e-08
1.63834e-08
1.63831e-08
1.63835e-08
1.63832e-08
1.63838e-08
1.63833e-08
1.63843e-08
1.63836e-08
1.63851e-08
1.63842e-08
1.63867e-08
1.63855e-08
1.6388e-08
1.63836e-08
1.6377e-08
1.63521e-08
1.63003e-08
1.62602e-08
1.58386e-08
1.58815e-08
1.59346e-08
1.59608e-08
1.59681e-08
1.59728e-08
1.59703e-08
1.59715e-08
1.59689e-08
1.59698e-08
1.59683e-08
1.59689e-08
1.59679e-08
1.59684e-08
1.59678e-08
1.59681e-08
1.59677e-08
1.5968e-08
1.59678e-08
1.59679e-08
1.59678e-08
1.59679e-08
1.59678e-08
1.59678e-08
1.59678e-08
1.59678e-08
1.59678e-08
1.59678e-08
1.59679e-08
1.59678e-08
1.59679e-08
1.59678e-08
1.5968e-08
1.59677e-08
1.59681e-08
1.59678e-08
1.59684e-08
1.59679e-08
1.59689e-08
1.59683e-08
1.59698e-08
1.59689e-08
1.59715e-08
1.59703e-08
1.59728e-08
1.59681e-08
1.59608e-08
1.59346e-08
1.58815e-08
1.58386e-08
1.54358e-08
1.54805e-08
1.55337e-08
1.55605e-08
1.55683e-08
1.55731e-08
1.55706e-08
1.55718e-08
1.55693e-08
1.55701e-08
1.55685e-08
1.55691e-08
1.55682e-08
1.55686e-08
1.5568e-08
1.55683e-08
1.55679e-08
1.55682e-08
1.55679e-08
1.55681e-08
1.55679e-08
1.55681e-08
1.5568e-08
1.5568e-08
1.5568e-08
1.5568e-08
1.5568e-08
1.5568e-08
1.55681e-08
1.5568e-08
1.55681e-08
1.55679e-08
1.55682e-08
1.55679e-08
1.55683e-08
1.5568e-08
1.55686e-08
1.55682e-08
1.55691e-08
1.55685e-08
1.55701e-08
1.55693e-08
1.55718e-08
1.55706e-08
1.55731e-08
1.55683e-08
1.55605e-08
1.55337e-08
1.54805e-08
1.54358e-08
1.50495e-08
1.5096e-08
1.51492e-08
1.51765e-08
1.51846e-08
1.51896e-08
1.51871e-08
1.51883e-08
1.51857e-08
1.51865e-08
1.51849e-08
1.51855e-08
1.51845e-08
1.51849e-08
1.51843e-08
1.51847e-08
1.51842e-08
1.51845e-08
1.51843e-08
1.51844e-08
1.51843e-08
1.51844e-08
1.51843e-08
1.51843e-08
1.51843e-08
1.51843e-08
1.51843e-08
1.51843e-08
1.51844e-08
1.51843e-08
1.51844e-08
1.51843e-08
1.51845e-08
1.51842e-08
1.51847e-08
1.51843e-08
1.51849e-08
1.51845e-08
1.51855e-08
1.51849e-08
1.51865e-08
1.51857e-08
1.51882e-08
1.51871e-08
1.51895e-08
1.51846e-08
1.51765e-08
1.51492e-08
1.5096e-08
1.50495e-08
1.46781e-08
1.47262e-08
1.47793e-08
1.48069e-08
1.48153e-08
1.48204e-08
1.4818e-08
1.48191e-08
1.48166e-08
1.48172e-08
1.48157e-08
1.48162e-08
1.48153e-08
1.48157e-08
1.4815e-08
1.48154e-08
1.48149e-08
1.48152e-08
1.4815e-08
1.48151e-08
1.4815e-08
1.48151e-08
1.4815e-08
1.4815e-08
1.4815e-08
1.4815e-08
1.4815e-08
1.4815e-08
1.48151e-08
1.4815e-08
1.48151e-08
1.4815e-08
1.48152e-08
1.4815e-08
1.48154e-08
1.4815e-08
1.48157e-08
1.48153e-08
1.48162e-08
1.48157e-08
1.48172e-08
1.48166e-08
1.48191e-08
1.4818e-08
1.48204e-08
1.48153e-08
1.48069e-08
1.47793e-08
1.47262e-08
1.46781e-08
1.43201e-08
1.43695e-08
1.44225e-08
1.44502e-08
1.4459e-08
1.44641e-08
1.44618e-08
1.44628e-08
1.44603e-08
1.44609e-08
1.44594e-08
1.44599e-08
1.44589e-08
1.44593e-08
1.44586e-08
1.4459e-08
1.44585e-08
1.44588e-08
1.44585e-08
1.44587e-08
1.44585e-08
1.44586e-08
1.44585e-08
1.44586e-08
1.44586e-08
1.44586e-08
1.44586e-08
1.44585e-08
1.44586e-08
1.44585e-08
1.44587e-08
1.44585e-08
1.44588e-08
1.44585e-08
1.4459e-08
1.44586e-08
1.44593e-08
1.44589e-08
1.44599e-08
1.44594e-08
1.44609e-08
1.44603e-08
1.44628e-08
1.44618e-08
1.44641e-08
1.4459e-08
1.44502e-08
1.44225e-08
1.43695e-08
1.43201e-08
1.39741e-08
1.40246e-08
1.40775e-08
1.41053e-08
1.41143e-08
1.41195e-08
1.41172e-08
1.41181e-08
1.41156e-08
1.41162e-08
1.41146e-08
1.41151e-08
1.41141e-08
1.41144e-08
1.41138e-08
1.41141e-08
1.41137e-08
1.4114e-08
1.41137e-08
1.41139e-08
1.41137e-08
1.41138e-08
1.41137e-08
1.41138e-08
1.41137e-08
1.41137e-08
1.41138e-08
1.41137e-08
1.41138e-08
1.41137e-08
1.41139e-08
1.41137e-08
1.4114e-08
1.41137e-08
1.41141e-08
1.41138e-08
1.41145e-08
1.41141e-08
1.41151e-08
1.41146e-08
1.41162e-08
1.41156e-08
1.41181e-08
1.41172e-08
1.41194e-08
1.41143e-08
1.41053e-08
1.40775e-08
1.40246e-08
1.39741e-08
1.36391e-08
1.36904e-08
1.37432e-08
1.37709e-08
1.37801e-08
1.37853e-08
1.37831e-08
1.37839e-08
1.37814e-08
1.37819e-08
1.37804e-08
1.37808e-08
1.37798e-08
1.37802e-08
1.37795e-08
1.37798e-08
1.37794e-08
1.37797e-08
1.37794e-08
1.37796e-08
1.37794e-08
1.37795e-08
1.37794e-08
1.37794e-08
1.37794e-08
1.37794e-08
1.37794e-08
1.37794e-08
1.37795e-08
1.37794e-08
1.37796e-08
1.37794e-08
1.37797e-08
1.37794e-08
1.37798e-08
1.37795e-08
1.37802e-08
1.37798e-08
1.37808e-08
1.37804e-08
1.37819e-08
1.37814e-08
1.37839e-08
1.37831e-08
1.37853e-08
1.37801e-08
1.37709e-08
1.37432e-08
1.36904e-08
1.36391e-08
1.3314e-08
1.33661e-08
1.34186e-08
1.34462e-08
1.34555e-08
1.34608e-08
1.34585e-08
1.34594e-08
1.34569e-08
1.34573e-08
1.34557e-08
1.34561e-08
1.34551e-08
1.34554e-08
1.34548e-08
1.34551e-08
1.34547e-08
1.34549e-08
1.34547e-08
1.34548e-08
1.34547e-08
1.34548e-08
1.34547e-08
1.34547e-08
1.34547e-08
1.34547e-08
1.34547e-08
1.34547e-08
1.34548e-08
1.34547e-08
1.34548e-08
1.34547e-08
1.34549e-08
1.34547e-08
1.34551e-08
1.34548e-08
1.34554e-08
1.34551e-08
1.34561e-08
1.34557e-08
1.34573e-08
1.34569e-08
1.34594e-08
1.34585e-08
1.34608e-08
1.34555e-08
1.34462e-08
1.34186e-08
1.33661e-08
1.3314e-08
1.29982e-08
1.30508e-08
1.3103e-08
1.31305e-08
1.31398e-08
1.31451e-08
1.31429e-08
1.31436e-08
1.31411e-08
1.31415e-08
1.31399e-08
1.31403e-08
1.31393e-08
1.31396e-08
1.3139e-08
1.31392e-08
1.31388e-08
1.3139e-08
1.31388e-08
1.31389e-08
1.31388e-08
1.31389e-08
1.31388e-08
1.31388e-08
1.31388e-08
1.31388e-08
1.31388e-08
1.31388e-08
1.31389e-08
1.31388e-08
1.31389e-08
1.31388e-08
1.3139e-08
1.31388e-08
1.31392e-08
1.3139e-08
1.31396e-08
1.31393e-08
1.31403e-08
1.31399e-08
1.31415e-08
1.31411e-08
1.31436e-08
1.31429e-08
1.31451e-08
1.31398e-08
1.31305e-08
1.3103e-08
1.30508e-08
1.29982e-08
1.2691e-08
1.27439e-08
1.27957e-08
1.28229e-08
1.28323e-08
1.28376e-08
1.28354e-08
1.2836e-08
1.28335e-08
1.28338e-08
1.28323e-08
1.28326e-08
1.28316e-08
1.28319e-08
1.28313e-08
1.28315e-08
1.28311e-08
1.28313e-08
1.28311e-08
1.28312e-08
1.28311e-08
1.28312e-08
1.28311e-08
1.28311e-08
1.28311e-08
1.28311e-08
1.28311e-08
1.28311e-08
1.28312e-08
1.28311e-08
1.28312e-08
1.28311e-08
1.28313e-08
1.28311e-08
1.28315e-08
1.28313e-08
1.28319e-08
1.28316e-08
1.28326e-08
1.28323e-08
1.28338e-08
1.28335e-08
1.2836e-08
1.28354e-08
1.28375e-08
1.28323e-08
1.28229e-08
1.27957e-08
1.27439e-08
1.2691e-08
1.23918e-08
1.24449e-08
1.24961e-08
1.25231e-08
1.25325e-08
1.25377e-08
1.25355e-08
1.25361e-08
1.25336e-08
1.25339e-08
1.25323e-08
1.25326e-08
1.25316e-08
1.25318e-08
1.25312e-08
1.25315e-08
1.25311e-08
1.25313e-08
1.2531e-08
1.25312e-08
1.2531e-08
1.25311e-08
1.2531e-08
1.2531e-08
1.2531e-08
1.2531e-08
1.2531e-08
1.2531e-08
1.25311e-08
1.2531e-08
1.25312e-08
1.2531e-08
1.25313e-08
1.25311e-08
1.25315e-08
1.25312e-08
1.25318e-08
1.25316e-08
1.25326e-08
1.25323e-08
1.25339e-08
1.25336e-08
1.25361e-08
1.25355e-08
1.25377e-08
1.25325e-08
1.25231e-08
1.24961e-08
1.24449e-08
1.23918e-08
1.21001e-08
1.21532e-08
1.22039e-08
1.22306e-08
1.22399e-08
1.22451e-08
1.22429e-08
1.22434e-08
1.22409e-08
1.22411e-08
1.22395e-08
1.22398e-08
1.22388e-08
1.2239e-08
1.22384e-08
1.22386e-08
1.22382e-08
1.22384e-08
1.22382e-08
1.22383e-08
1.22382e-08
1.22382e-08
1.22381e-08
1.22382e-08
1.22382e-08
1.22382e-08
1.22382e-08
1.22381e-08
1.22382e-08
1.22382e-08
1.22383e-08
1.22382e-08
1.22384e-08
1.22382e-08
1.22386e-08
1.22384e-08
1.2239e-08
1.22388e-08
1.22398e-08
1.22395e-08
1.22411e-08
1.22409e-08
1.22434e-08
1.22429e-08
1.22451e-08
1.22399e-08
1.22306e-08
1.22039e-08
1.21532e-08
1.21001e-08
1.18157e-08
1.18685e-08
1.19186e-08
1.1945e-08
1.19542e-08
1.19592e-08
1.1957e-08
1.19575e-08
1.1955e-08
1.19551e-08
1.19536e-08
1.19538e-08
1.19528e-08
1.1953e-08
1.19524e-08
1.19526e-08
1.19522e-08
1.19524e-08
1.19521e-08
1.19523e-08
1.19521e-08
1.19522e-08
1.19521e-08
1.19521e-08
1.19521e-08
1.19521e-08
1.19521e-08
1.19521e-08
1.19522e-08
1.19521e-08
1.19523e-08
1.19521e-08
1.19524e-08
1.19522e-08
1.19526e-08
1.19524e-08
1.1953e-08
1.19528e-08
1.19538e-08
1.19536e-08
1.19551e-08
1.1955e-08
1.19575e-08
1.1957e-08
1.19592e-08
1.19542e-08
1.19449e-08
1.19186e-08
1.18685e-08
1.18157e-08
1.1538e-08
1.15904e-08
1.164e-08
1.16659e-08
1.16749e-08
1.16799e-08
1.16777e-08
1.16781e-08
1.16756e-08
1.16757e-08
1.16741e-08
1.16743e-08
1.16733e-08
1.16735e-08
1.16729e-08
1.16731e-08
1.16727e-08
1.16729e-08
1.16726e-08
1.16727e-08
1.16726e-08
1.16727e-08
1.16726e-08
1.16726e-08
1.16726e-08
1.16726e-08
1.16726e-08
1.16726e-08
1.16727e-08
1.16726e-08
1.16727e-08
1.16726e-08
1.16729e-08
1.16727e-08
1.16731e-08
1.16729e-08
1.16735e-08
1.16733e-08
1.16743e-08
1.16741e-08
1.16757e-08
1.16756e-08
1.16781e-08
1.16777e-08
1.16799e-08
1.16749e-08
1.16659e-08
1.16399e-08
1.15904e-08
1.1538e-08
1.1267e-08
1.13187e-08
1.13676e-08
1.1393e-08
1.1402e-08
1.14069e-08
1.14046e-08
1.1405e-08
1.14024e-08
1.14025e-08
1.14009e-08
1.1401e-08
1.14e-08
1.14002e-08
1.13996e-08
1.13998e-08
1.13994e-08
1.13995e-08
1.13993e-08
1.13994e-08
1.13993e-08
1.13993e-08
1.13992e-08
1.13993e-08
1.13993e-08
1.13993e-08
1.13993e-08
1.13992e-08
1.13993e-08
1.13993e-08
1.13994e-08
1.13993e-08
1.13995e-08
1.13994e-08
1.13998e-08
1.13996e-08
1.14002e-08
1.14e-08
1.1401e-08
1.14009e-08
1.14025e-08
1.14024e-08
1.1405e-08
1.14046e-08
1.14068e-08
1.1402e-08
1.1393e-08
1.13676e-08
1.13187e-08
1.1267e-08
1.10021e-08
1.10531e-08
1.11013e-08
1.11262e-08
1.1135e-08
1.11398e-08
1.11375e-08
1.11378e-08
1.11352e-08
1.11352e-08
1.11336e-08
1.11337e-08
1.11327e-08
1.11329e-08
1.11323e-08
1.11324e-08
1.1132e-08
1.11322e-08
1.1132e-08
1.11321e-08
1.11319e-08
1.1132e-08
1.11319e-08
1.1132e-08
1.11319e-08
1.11319e-08
1.1132e-08
1.11319e-08
1.1132e-08
1.11319e-08
1.11321e-08
1.1132e-08
1.11322e-08
1.1132e-08
1.11324e-08
1.11323e-08
1.11329e-08
1.11327e-08
1.11337e-08
1.11336e-08
1.11352e-08
1.11352e-08
1.11378e-08
1.11375e-08
1.11398e-08
1.1135e-08
1.11262e-08
1.11013e-08
1.10531e-08
1.10021e-08
)
;

boundaryField
{
    fuel
    {
        type            fixedValue;
        value           uniform 0;
    }
    wall
    {
        type            zeroGradient;
    }
    outlet
    {
        type            zeroGradient;
    }
    frontAndBack
    {
        type            empty;
    }
    procBoundary1to0
    {
        type            processor;
        value           nonuniform List<scalar> 
50
(
1.07432e-08
1.07936e-08
1.08408e-08
1.08653e-08
1.08738e-08
1.08785e-08
1.08762e-08
1.08763e-08
1.08738e-08
1.08737e-08
1.08721e-08
1.08722e-08
1.08712e-08
1.08713e-08
1.08707e-08
1.08709e-08
1.08705e-08
1.08707e-08
1.08704e-08
1.08705e-08
1.08704e-08
1.08705e-08
1.08704e-08
1.08704e-08
1.08704e-08
1.08704e-08
1.08704e-08
1.08704e-08
1.08705e-08
1.08704e-08
1.08705e-08
1.08704e-08
1.08707e-08
1.08705e-08
1.08709e-08
1.08707e-08
1.08713e-08
1.08712e-08
1.08722e-08
1.08722e-08
1.08737e-08
1.08738e-08
1.08763e-08
1.08762e-08
1.08784e-08
1.08738e-08
1.08653e-08
1.08408e-08
1.07936e-08
1.07432e-08
)
;
    }
}


// ************************************************************************* //
