/*--------------------------------*- C++ -*----------------------------------*\
| =========                 |                                                 |
| \\      /  F ield         | OpenFOAM: The Open Source CFD Toolbox           |
|  \\    /   O peration     | Version:  dev                                   |
|   \\  /    A nd           | Web:      www.OpenFOAM.org                      |
|    \\/     M anipulation  |                                                 |
\*---------------------------------------------------------------------------*/
FoamFile
{
    version     2.0;
    format      ascii;
    class       volScalarField;
    location    "0.075";
    object      A2R5;
}
// * * * * * * * * * * * * * * * * * * * * * * * * * * * * * * * * * * * * * //

dimensions      [0 0 0 0 0 0 0];

internalField   nonuniform List<scalar> 
250
(
1.02764e-07
7.99682e-08
6.43648e-08
5.87138e-08
5.70366e-08
5.66125e-08
5.65027e-08
5.64913e-08
5.64964e-08
5.65293e-08
9.63998e-08
7.68287e-08
6.36038e-08
5.87287e-08
5.72363e-08
5.68473e-08
5.67439e-08
5.67315e-08
5.67369e-08
5.67653e-08
5.67562e-08
5.67218e-08
5.67241e-08
5.67045e-08
5.68211e-08
5.71358e-08
5.85872e-08
6.42824e-08
7.49477e-08
1.16901e-07
9.08142e-08
7.4062e-08
6.28959e-08
5.87078e-08
5.73854e-08
5.70305e-08
5.69346e-08
5.69207e-08
5.69272e-08
5.69508e-08
5.69428e-08
5.69133e-08
5.69125e-08
5.69003e-08
5.70027e-08
5.72942e-08
5.85563e-08
6.3434e-08
7.2423e-08
1.06685e-07
8.59071e-08
7.16131e-08
6.22204e-08
5.86389e-08
5.74741e-08
5.71524e-08
5.70647e-08
5.70493e-08
5.70572e-08
5.70762e-08
5.7069e-08
5.7045e-08
5.70406e-08
5.70363e-08
5.71235e-08
5.73959e-08
5.84796e-08
6.26329e-08
7.01492e-08
9.78503e-08
8.15924e-08
6.94224e-08
6.15673e-08
5.85188e-08
5.75025e-08
5.72128e-08
5.71336e-08
5.71173e-08
5.71264e-08
5.71412e-08
5.71347e-08
5.7116e-08
5.71083e-08
5.71112e-08
5.71836e-08
5.74381e-08
5.83563e-08
6.18687e-08
6.81071e-08
9.02815e-08
7.77989e-08
6.74858e-08
6.09352e-08
5.83567e-08
5.7476e-08
5.72179e-08
5.71473e-08
5.71307e-08
5.71409e-08
5.71521e-08
5.71463e-08
5.71322e-08
5.7122e-08
5.71306e-08
5.71898e-08
5.74247e-08
5.81968e-08
6.11394e-08
6.62822e-08
8.38616e-08
7.44661e-08
6.57634e-08
6.03285e-08
5.81605e-08
5.74053e-08
5.71777e-08
5.71157e-08
5.70994e-08
5.71103e-08
5.71186e-08
5.71134e-08
5.71032e-08
5.70915e-08
5.71037e-08
5.71519e-08
5.73654e-08
5.80095e-08
6.04488e-08
6.46626e-08
7.8362e-08
7.15453e-08
6.42366e-08
5.97504e-08
5.79453e-08
5.73021e-08
5.71039e-08
5.705e-08
5.70347e-08
5.70458e-08
5.7052e-08
5.70475e-08
5.70402e-08
5.70279e-08
5.7042e-08
5.70812e-08
5.72716e-08
5.78057e-08
5.98033e-08
6.32395e-08
7.38523e-08
6.90004e-08
6.28936e-08
5.92125e-08
5.77206e-08
5.71791e-08
5.70086e-08
5.69622e-08
5.69485e-08
5.69594e-08
5.6964e-08
5.69602e-08
5.69551e-08
5.69431e-08
5.69572e-08
5.69898e-08
5.71558e-08
5.75973e-08
5.92116e-08
6.20052e-08
7.01396e-08
6.68119e-08
6.17309e-08
5.87249e-08
5.75009e-08
5.70493e-08
5.69043e-08
5.68647e-08
5.68529e-08
5.68632e-08
5.68669e-08
5.68638e-08
5.68601e-08
5.68491e-08
5.68619e-08
5.68896e-08
5.70313e-08
5.73963e-08
5.8684e-08
6.09563e-08
6.71325e-08
6.4983e-08
6.07559e-08
5.8302e-08
5.73012e-08
5.69263e-08
5.68037e-08
5.677e-08
5.67602e-08
5.67697e-08
5.67729e-08
5.67704e-08
5.67675e-08
5.6758e-08
5.67686e-08
5.67931e-08
5.69117e-08
5.72157e-08
5.82338e-08
6.00955e-08
6.47678e-08
6.35527e-08
5.99935e-08
5.79641e-08
5.71377e-08
5.68238e-08
5.67194e-08
5.66903e-08
5.66825e-08
5.66912e-08
5.66941e-08
5.66921e-08
5.66895e-08
5.66817e-08
5.66898e-08
5.67123e-08
5.68113e-08
5.70696e-08
5.78797e-08
5.94378e-08
6.30219e-08
6.2637e-08
5.95065e-08
5.77461e-08
5.70315e-08
5.67569e-08
5.66647e-08
5.66385e-08
5.6632e-08
5.66401e-08
5.66429e-08
5.66414e-08
5.66389e-08
5.66322e-08
5.66384e-08
5.66599e-08
5.67455e-08
5.69756e-08
5.76538e-08
5.90268e-08
6.19538e-08
)
;

boundaryField
{
    fuel
    {
        type            fixedValue;
        value           nonuniform 0();
    }
    wall
    {
        type            zeroGradient;
    }
    outlet
    {
        type            zeroGradient;
    }
    frontAndBack
    {
        type            empty;
    }
    procBoundary1to0
    {
        type            processor;
        value           nonuniform List<scalar> 
21
(
1.1002e-07
8.35496e-08
6.5212e-08
5.86871e-08
5.68078e-08
5.63478e-08
5.62327e-08
5.62214e-08
5.62274e-08
5.62641e-08
5.65187e-08
5.65187e-08
5.64806e-08
5.64845e-08
5.64603e-08
5.65877e-08
5.69345e-08
5.85802e-08
6.51985e-08
7.77499e-08
1.28607e-07
)
;
    }
}


// ************************************************************************* //
