/*--------------------------------*- C++ -*----------------------------------*\
| =========                 |                                                 |
| \\      /  F ield         | OpenFOAM: The Open Source CFD Toolbox           |
|  \\    /   O peration     | Version:  dev                                   |
|   \\  /    A nd           | Web:      www.OpenFOAM.org                      |
|    \\/     M anipulation  |                                                 |
\*---------------------------------------------------------------------------*/
FoamFile
{
    version     2.0;
    format      ascii;
    class       volScalarField;
    location    "0.075";
    object      A2R5-;
}
// * * * * * * * * * * * * * * * * * * * * * * * * * * * * * * * * * * * * * //

dimensions      [0 0 0 0 0 0 0];

internalField   nonuniform List<scalar> 
250
(
1.21363e-09
9.23251e-10
6.47659e-10
5.86778e-10
5.5989e-10
5.30456e-10
5.44485e-10
5.21157e-10
5.38606e-10
5.22968e-10
8.73643e-10
6.8043e-10
4.84847e-10
4.43723e-10
4.24419e-10
4.01465e-10
4.13102e-10
3.94124e-10
4.08508e-10
3.956e-10
3.99763e-10
4.02797e-10
3.99654e-10
4.04865e-10
4.07783e-10
4.11434e-10
4.49258e-10
4.68701e-10
6.20778e-10
7.40331e-10
6.10072e-10
4.87381e-10
3.53111e-10
3.26342e-10
3.12879e-10
2.95493e-10
3.04828e-10
2.8989e-10
3.0135e-10
2.91057e-10
2.94375e-10
2.96807e-10
2.94314e-10
2.98308e-10
3.00537e-10
3.02958e-10
3.3096e-10
3.423e-10
4.50745e-10
5.36993e-10
4.13154e-10
3.38853e-10
2.49655e-10
2.32951e-10
2.23771e-10
2.10983e-10
2.18232e-10
2.06841e-10
2.15679e-10
2.07739e-10
2.10295e-10
2.12176e-10
2.10268e-10
2.13221e-10
2.14882e-10
2.16407e-10
2.36611e-10
2.42499e-10
3.17144e-10
3.76036e-10
2.70592e-10
2.27826e-10
1.70477e-10
1.59763e-10
1.54431e-10
1.45311e-10
1.50757e-10
1.42344e-10
1.48943e-10
1.43017e-10
1.44923e-10
1.46326e-10
1.44917e-10
1.47022e-10
1.48228e-10
1.4913e-10
1.62726e-10
1.65786e-10
2.15317e-10
2.53354e-10
1.68598e-10
1.46854e-10
1.11302e-10
1.05017e-10
1.01759e-10
9.54854e-11
9.9425e-11
9.34401e-11
9.81859e-11
9.39291e-11
9.52961e-11
9.63016e-11
9.53024e-11
9.67397e-11
9.75908e-11
9.80801e-11
1.07191e-10
1.08261e-10
1.39778e-10
1.62883e-10
9.98224e-11
8.92638e-11
6.82198e-11
6.47224e-11
6.28462e-11
5.87451e-11
6.1448e-11
5.74065e-11
6.0647e-11
5.77463e-11
5.86764e-11
5.9358e-11
5.86885e-11
5.96132e-11
6.01888e-11
6.042e-11
6.62245e-11
6.6301e-11
8.53023e-11
9.83787e-11
5.43564e-11
4.97252e-11
3.80947e-11
3.62957e-11
3.53029e-11
3.28266e-11
3.45348e-11
3.20184e-11
3.40589e-11
3.22374e-11
3.28204e-11
3.32446e-11
3.28332e-11
3.33773e-11
3.37402e-11
3.38244e-11
3.72466e-11
3.69546e-11
4.75484e-11
5.42898e-11
2.60128e-11
2.42757e-11
1.85345e-11
1.77183e-11
1.72555e-11
1.59447e-11
1.68874e-11
1.55168e-11
1.66407e-11
1.56408e-11
1.59601e-11
1.61898e-11
1.597e-11
1.62478e-11
1.64504e-11
1.64652e-11
1.82422e-11
1.79339e-11
2.31534e-11
2.61897e-11
1.03759e-11
9.84432e-12
7.48342e-12
7.17541e-12
6.99592e-12
6.42986e-12
6.85189e-12
6.24441e-12
6.74788e-12
6.30153e-12
6.44367e-12
6.54454e-12
6.4494e-12
6.56436e-12
6.65725e-12
6.65154e-12
7.40883e-12
7.22474e-12
9.34984e-12
1.04809e-11
3.30102e-12
3.16156e-12
2.39503e-12
2.30044e-12
2.24492e-12
2.05524e-12
2.20085e-12
1.99264e-12
2.16693e-12
2.01297e-12
2.06175e-12
2.09616e-12
2.06425e-12
2.10107e-12
2.13418e-12
2.12884e-12
2.38043e-12
2.3085e-12
2.99056e-12
3.3323e-12
8.73312e-13
8.3658e-13
6.45026e-13
6.20185e-13
6.06781e-13
5.57964e-13
5.9586e-13
5.41713e-13
5.87296e-13
5.47091e-13
5.59746e-13
5.68814e-13
5.60541e-13
5.6979e-13
5.78607e-13
5.76926e-13
6.40937e-13
6.22635e-13
7.93506e-13
8.79959e-13
3.90744e-13
3.67024e-13
3.00591e-13
2.84384e-13
2.82444e-13
2.60486e-13
2.7705e-13
2.5418e-13
2.73157e-13
2.56572e-13
2.61596e-13
2.65862e-13
2.62037e-13
2.66311e-13
2.69541e-13
2.69484e-13
2.94208e-13
2.88886e-13
3.55341e-13
3.9273e-13
)
;

boundaryField
{
    fuel
    {
        type            fixedValue;
        value           nonuniform 0();
    }
    wall
    {
        type            zeroGradient;
    }
    outlet
    {
        type            zeroGradient;
    }
    frontAndBack
    {
        type            empty;
    }
    procBoundary1to0
    {
        type            processor;
        value           nonuniform List<scalar> 
21
(
1.6355e-09
1.2183e-09
8.42573e-10
7.55508e-10
7.19214e-10
6.82479e-10
6.98872e-10
6.7111e-10
6.91571e-10
6.73273e-10
5.28004e-10
5.28004e-10
5.31647e-10
5.27825e-10
5.34388e-10
5.38108e-10
5.43369e-10
5.93043e-10
6.23933e-10
8.30074e-10
9.86714e-10
)
;
    }
}


// ************************************************************************* //
