/*--------------------------------*- C++ -*----------------------------------*\
| =========                 |                                                 |
| \\      /  F ield         | OpenFOAM: The Open Source CFD Toolbox           |
|  \\    /   O peration     | Version:  dev                                   |
|   \\  /    A nd           | Web:      www.OpenFOAM.org                      |
|    \\/     M anipulation  |                                                 |
\*---------------------------------------------------------------------------*/
FoamFile
{
    version     2.0;
    format      ascii;
    class       volScalarField;
    location    "0.075";
    object      C2O;
}
// * * * * * * * * * * * * * * * * * * * * * * * * * * * * * * * * * * * * * //

dimensions      [0 0 0 0 0 0 0];

internalField   nonuniform List<scalar> 
250
(
2.06659e-08
2.00522e-08
1.97423e-08
1.85977e-08
1.78943e-08
1.75931e-08
1.7625e-08
1.73578e-08
1.75768e-08
1.73602e-08
1.60433e-08
1.5037e-08
1.45571e-08
1.36546e-08
1.31365e-08
1.29098e-08
1.29369e-08
1.27407e-08
1.29035e-08
1.27432e-08
1.26792e-08
1.29585e-08
1.26125e-08
1.32102e-08
1.25814e-08
1.40989e-08
1.26954e-08
1.71313e-08
1.34923e-08
2.07314e-08
1.22235e-08
1.11537e-08
1.0653e-08
9.97302e-09
9.60137e-09
9.43316e-09
9.45513e-09
9.31429e-09
9.43277e-09
9.31654e-09
9.27146e-09
9.47116e-09
9.22331e-09
9.64422e-09
9.20243e-09
1.02601e-08
9.30039e-09
1.24233e-08
1.00371e-08
1.56845e-08
9.15692e-09
8.19719e-09
7.75156e-09
7.25796e-09
6.99726e-09
6.87028e-09
6.88786e-09
6.78771e-09
6.87318e-09
6.78953e-09
6.75812e-09
6.89954e-09
6.72388e-09
7.01695e-09
6.70996e-09
7.43963e-09
6.79138e-09
8.94401e-09
7.40308e-09
1.16268e-08
6.73368e-09
5.93836e-09
5.58987e-09
5.2184e-09
5.03275e-09
4.9649e-09
4.9791e-09
4.90789e-09
4.96958e-09
4.90927e-09
4.88741e-09
4.98769e-09
4.86314e-09
5.06712e-09
4.8536e-09
5.3384e-09
4.89644e-09
6.38615e-09
5.39126e-09
8.44897e-09
4.83728e-09
4.22863e-09
3.96601e-09
3.70648e-09
3.58016e-09
3.53163e-09
3.543e-09
3.49276e-09
3.53694e-09
3.49381e-09
3.4787e-09
3.54937e-09
3.46161e-09
3.60276e-09
3.45487e-09
3.78419e-09
3.48562e-09
4.49401e-09
3.85027e-09
6.00206e-09
3.38429e-09
2.944e-09
2.75674e-09
2.58139e-09
2.49869e-09
2.46514e-09
2.47378e-09
2.43965e-09
2.4701e-09
2.44048e-09
2.43039e-09
2.47843e-09
2.41872e-09
2.51313e-09
2.41401e-09
2.63114e-09
2.43514e-09
3.09746e-09
2.692e-09
4.12048e-09
2.32796e-09
2.02654e-09
1.89801e-09
1.78523e-09
1.73381e-09
1.71188e-09
1.71781e-09
1.69625e-09
1.71575e-09
1.6969e-09
1.69063e-09
1.72096e-09
1.68318e-09
1.74204e-09
1.68019e-09
1.81441e-09
1.6949e-09
2.10479e-09
1.86949e-09
2.77599e-09
1.62485e-09
1.42716e-09
1.33981e-09
1.27041e-09
1.23988e-09
1.22642e-09
1.22989e-09
1.21752e-09
1.22889e-09
1.21797e-09
1.21446e-09
1.23179e-09
1.21017e-09
1.24338e-09
1.20869e-09
1.28443e-09
1.21982e-09
1.45412e-09
1.33709e-09
1.87346e-09
1.20878e-09
1.08027e-09
1.01899e-09
9.77076e-10
9.58968e-10
9.51095e-10
9.5265e-10
9.46247e-10
9.52309e-10
9.46466e-10
9.44765e-10
9.5362e-10
9.42643e-10
9.59217e-10
9.42401e-10
9.80685e-10
9.51849e-10
1.07505e-09
1.0327e-09
1.33084e-09
9.98184e-10
9.11269e-10
8.65388e-10
8.39284e-10
8.27636e-10
8.23036e-10
8.23317e-10
8.20257e-10
8.23367e-10
8.20222e-10
8.19567e-10
8.23692e-10
8.18776e-10
8.25952e-10
8.19409e-10
8.36572e-10
8.2813e-10
8.88878e-10
8.87445e-10
1.04821e-09
9.13383e-10
8.48587e-10
8.11283e-10
7.93092e-10
7.8416e-10
7.81142e-10
7.80756e-10
7.79123e-10
7.81037e-10
7.7884e-10
7.78681e-10
7.80831e-10
7.78578e-10
7.81585e-10
7.79725e-10
7.87283e-10
7.88062e-10
8.19712e-10
8.35622e-10
9.28179e-10
8.84791e-10
8.30305e-10
7.97497e-10
7.82761e-10
7.74845e-10
7.72456e-10
7.71802e-10
7.70629e-10
7.72208e-10
7.7017e-10
7.70206e-10
7.7177e-10
7.70391e-10
7.71988e-10
7.71748e-10
7.75869e-10
7.79777e-10
8.00245e-10
8.21384e-10
8.85195e-10
)
;

boundaryField
{
    fuel
    {
        type            fixedValue;
        value           nonuniform 0();
    }
    wall
    {
        type            zeroGradient;
    }
    outlet
    {
        type            zeroGradient;
    }
    frontAndBack
    {
        type            empty;
    }
    procBoundary1to0
    {
        type            processor;
        value           nonuniform List<scalar> 
21
(
2.60415e-08
2.63377e-08
2.64597e-08
2.50808e-08
2.41617e-08
2.37702e-08
2.38068e-08
2.34539e-08
2.3739e-08
2.34563e-08
1.72708e-08
1.72708e-08
1.76556e-08
1.71789e-08
1.80157e-08
1.71317e-08
1.92732e-08
1.7254e-08
2.33823e-08
1.79767e-08
2.68113e-08
)
;
    }
}


// ************************************************************************* //
