/*--------------------------------*- C++ -*----------------------------------*\
| =========                 |                                                 |
| \\      /  F ield         | OpenFOAM: The Open Source CFD Toolbox           |
|  \\    /   O peration     | Version:  dev                                   |
|   \\  /    A nd           | Web:      www.OpenFOAM.org                      |
|    \\/     M anipulation  |                                                 |
\*---------------------------------------------------------------------------*/
FoamFile
{
    version     2.0;
    format      ascii;
    class       volScalarField;
    location    "0.075";
    object      C5H6;
}
// * * * * * * * * * * * * * * * * * * * * * * * * * * * * * * * * * * * * * //

dimensions      [0 0 0 0 0 0 0];

internalField   nonuniform List<scalar> 
250
(
5.30669e-07
4.02856e-07
3.24041e-07
3.07636e-07
3.06434e-07
3.07466e-07
3.06652e-07
3.09382e-07
3.07203e-07
3.09725e-07
5.87838e-07
4.68825e-07
3.90966e-07
3.7615e-07
3.75896e-07
3.77619e-07
3.76511e-07
3.80082e-07
3.7717e-07
3.8046e-07
3.81507e-07
3.76163e-07
3.82381e-07
3.71773e-07
3.83399e-07
3.60421e-07
3.92069e-07
3.59025e-07
4.86842e-07
6.40808e-07
6.72258e-07
5.59896e-07
4.82057e-07
4.68724e-07
4.6939e-07
4.71939e-07
4.70453e-07
4.74981e-07
4.7122e-07
4.75397e-07
4.76728e-07
4.69973e-07
4.7788e-07
4.64631e-07
4.79153e-07
4.50456e-07
4.88498e-07
4.4233e-07
5.83239e-07
6.98258e-07
7.87307e-07
6.79299e-07
6.01069e-07
5.88596e-07
5.89755e-07
5.93156e-07
5.91269e-07
5.96633e-07
5.92111e-07
5.97082e-07
5.98649e-07
5.90665e-07
6.00039e-07
5.84576e-07
6.01557e-07
5.68109e-07
6.11507e-07
5.54335e-07
7.06379e-07
7.88624e-07
9.29169e-07
8.23707e-07
7.44571e-07
7.33496e-07
7.34827e-07
7.36441e-07
7.34251e-07
7.39968e-07
7.35097e-07
7.40438e-07
7.42088e-07
7.33582e-07
7.43563e-07
7.2732e-07
7.45233e-07
7.11607e-07
7.57339e-07
6.94739e-07
8.49916e-07
9.11809e-07
1.08278e-06
9.76905e-07
8.98877e-07
8.86294e-07
8.86355e-07
8.87804e-07
8.85543e-07
8.90922e-07
8.86315e-07
8.914e-07
8.92928e-07
8.8491e-07
8.94275e-07
8.79213e-07
8.95932e-07
8.65242e-07
9.08024e-07
8.52174e-07
9.98446e-07
1.05635e-06
1.2269e-06
1.12065e-06
1.04581e-06
1.03128e-06
1.02966e-06
1.03056e-06
1.02846e-06
1.03297e-06
1.02911e-06
1.03345e-06
1.03471e-06
1.02795e-06
1.03578e-06
1.02332e-06
1.03728e-06
1.01255e-06
1.04885e-06
1.00729e-06
1.13467e-06
1.20207e-06
1.34595e-06
1.24187e-06
1.17253e-06
1.15669e-06
1.15358e-06
1.15384e-06
1.15204e-06
1.15551e-06
1.15258e-06
1.15598e-06
1.15692e-06
1.1517e-06
1.15766e-06
1.14826e-06
1.15893e-06
1.14095e-06
1.16955e-06
1.14381e-06
1.24824e-06
1.3238e-06
1.43456e-06
1.33592e-06
1.27387e-06
1.25764e-06
1.25349e-06
1.25319e-06
1.25175e-06
1.25417e-06
1.25218e-06
1.25463e-06
1.25527e-06
1.25158e-06
1.25569e-06
1.24923e-06
1.25671e-06
1.24501e-06
1.2661e-06
1.25426e-06
1.33592e-06
1.41486e-06
1.49176e-06
1.40108e-06
1.34719e-06
1.33135e-06
1.32659e-06
1.32583e-06
1.32478e-06
1.32623e-06
1.32513e-06
1.32667e-06
1.32706e-06
1.32478e-06
1.32719e-06
1.32336e-06
1.32796e-06
1.32167e-06
1.33599e-06
1.33531e-06
1.39629e-06
1.47415e-06
1.51761e-06
1.43633e-06
1.39062e-06
1.37579e-06
1.3709e-06
1.36981e-06
1.36912e-06
1.3698e-06
1.36941e-06
1.37022e-06
1.3704e-06
1.36925e-06
1.37031e-06
1.36853e-06
1.37086e-06
1.36866e-06
1.37756e-06
1.38455e-06
1.42864e-06
1.50176e-06
1.51714e-06
1.44567e-06
1.40726e-06
1.39399e-06
1.38944e-06
1.38823e-06
1.38779e-06
1.38805e-06
1.38805e-06
1.38845e-06
1.38853e-06
1.38801e-06
1.38831e-06
1.38769e-06
1.3887e-06
1.3887e-06
1.39426e-06
1.40439e-06
1.43719e-06
1.50184e-06
1.5069e-06
1.44305e-06
1.40971e-06
1.39789e-06
1.39384e-06
1.39266e-06
1.39233e-06
1.39246e-06
1.39256e-06
1.39285e-06
1.39289e-06
1.39259e-06
1.39264e-06
1.39241e-06
1.39292e-06
1.39363e-06
1.39774e-06
1.40792e-06
1.43506e-06
1.49121e-06
)
;

boundaryField
{
    fuel
    {
        type            fixedValue;
        value           nonuniform 0();
    }
    wall
    {
        type            zeroGradient;
    }
    outlet
    {
        type            zeroGradient;
    }
    frontAndBack
    {
        type            empty;
    }
    procBoundary1to0
    {
        type            processor;
        value           nonuniform List<scalar> 
21
(
4.95485e-07
3.56429e-07
2.75405e-07
2.57487e-07
2.5545e-07
2.55962e-07
2.55355e-07
2.57431e-07
2.55815e-07
2.57743e-07
3.10523e-07
3.10523e-07
3.06407e-07
3.11161e-07
3.0289e-07
3.1198e-07
2.94103e-07
3.2009e-07
2.98849e-07
4.15526e-07
6.11419e-07
)
;
    }
}


// ************************************************************************* //
