/*--------------------------------*- C++ -*----------------------------------*\
| =========                 |                                                 |
| \\      /  F ield         | OpenFOAM: The Open Source CFD Toolbox           |
|  \\    /   O peration     | Version:  dev                                   |
|   \\  /    A nd           | Web:      www.OpenFOAM.org                      |
|    \\/     M anipulation  |                                                 |
\*---------------------------------------------------------------------------*/
FoamFile
{
    version     2.0;
    format      ascii;
    class       volScalarField;
    location    "0.075";
    object      CH2CO;
}
// * * * * * * * * * * * * * * * * * * * * * * * * * * * * * * * * * * * * * //

dimensions      [0 0 0 0 0 0 0];

internalField   nonuniform List<scalar> 
250
(
1.16111e-05
1.12355e-05
1.10086e-05
1.07555e-05
1.06115e-05
1.05569e-05
1.05575e-05
1.05163e-05
1.05502e-05
1.0518e-05
1.08332e-05
1.04561e-05
1.02402e-05
1.00079e-05
9.87539e-06
9.82334e-06
9.82502e-06
9.78482e-06
9.81827e-06
9.78599e-06
9.77332e-06
9.82772e-06
9.75961e-06
9.87629e-06
9.75774e-06
1.00552e-05
9.81381e-06
1.06885e-05
1.01353e-05
1.18949e-05
1.00665e-05
9.69027e-06
9.48321e-06
9.27211e-06
9.15142e-06
9.10182e-06
9.10432e-06
9.06587e-06
9.09829e-06
9.0666e-06
9.05494e-06
9.10676e-06
9.0423e-06
9.15092e-06
9.04115e-06
9.31375e-06
9.09305e-06
9.88716e-06
9.39675e-06
1.09844e-05
9.31843e-06
8.9496e-06
8.75051e-06
8.56237e-06
8.45487e-06
8.40772e-06
8.41065e-06
8.37514e-06
8.40549e-06
8.37544e-06
8.3651e-06
8.41272e-06
8.35392e-06
8.45137e-06
8.35363e-06
8.59551e-06
8.40268e-06
9.10347e-06
8.68802e-06
1.01013e-05
8.60838e-06
8.25262e-06
8.06769e-06
7.89571e-06
7.80058e-06
7.76871e-06
7.77154e-06
7.74042e-06
7.76737e-06
7.74028e-06
7.73164e-06
7.77308e-06
7.72234e-06
7.80507e-06
7.72306e-06
7.91965e-06
7.76078e-06
8.36123e-06
8.034e-06
9.25705e-06
7.96883e-06
7.64316e-06
7.4713e-06
7.32648e-06
7.24729e-06
7.22032e-06
7.22237e-06
7.19691e-06
7.21924e-06
7.1963e-06
7.18965e-06
7.2232e-06
7.18262e-06
7.24777e-06
7.18454e-06
7.33744e-06
7.22027e-06
7.69837e-06
7.46788e-06
8.48046e-06
7.43608e-06
7.1511e-06
6.99587e-06
6.87884e-06
6.81532e-06
6.79355e-06
6.79429e-06
6.77501e-06
6.7921e-06
6.77386e-06
6.76929e-06
6.79426e-06
6.76472e-06
6.81147e-06
6.76795e-06
6.87696e-06
6.80206e-06
7.15534e-06
7.01994e-06
7.79872e-06
7.03537e-06
6.79581e-06
6.65913e-06
6.56801e-06
6.51814e-06
6.5012e-06
6.50044e-06
6.48685e-06
6.49903e-06
6.48509e-06
6.48242e-06
6.49955e-06
6.48018e-06
6.51041e-06
6.48465e-06
6.55512e-06
6.51721e-06
6.75844e-06
6.70399e-06
7.27185e-06
6.76751e-06
6.57091e-06
6.45286e-06
6.38298e-06
6.34383e-06
6.33078e-06
6.32873e-06
6.31952e-06
6.32787e-06
6.31712e-06
6.31591e-06
6.32712e-06
6.31559e-06
6.33334e-06
6.32102e-06
6.36261e-06
6.35179e-06
6.50625e-06
6.50925e-06
6.90223e-06
6.60689e-06
6.44578e-06
6.34492e-06
6.29077e-06
6.25935e-06
6.24901e-06
6.24615e-06
6.23974e-06
6.24563e-06
6.23675e-06
6.23649e-06
6.24407e-06
6.23755e-06
6.24747e-06
6.24349e-06
6.26693e-06
6.27205e-06
6.36887e-06
6.40403e-06
6.6702e-06
6.51413e-06
6.37982e-06
6.29388e-06
6.25062e-06
6.22466e-06
6.21602e-06
6.21284e-06
6.20794e-06
6.2125e-06
6.20446e-06
6.20473e-06
6.21054e-06
6.20665e-06
6.21253e-06
6.21268e-06
6.2266e-06
6.2387e-06
6.30206e-06
6.34979e-06
6.53369e-06
6.44932e-06
6.33427e-06
6.26055e-06
6.22475e-06
6.20294e-06
6.19536e-06
6.19218e-06
6.18814e-06
6.19194e-06
6.18433e-06
6.18488e-06
6.18985e-06
6.18729e-06
6.1912e-06
6.19312e-06
6.20238e-06
6.21657e-06
6.26121e-06
6.31128e-06
6.4448e-06
6.41519e-06
6.31234e-06
6.24674e-06
6.21552e-06
6.19632e-06
6.18938e-06
6.18627e-06
6.18267e-06
6.18608e-06
6.17868e-06
6.17937e-06
6.18396e-06
6.18206e-06
6.18504e-06
6.18768e-06
6.19476e-06
6.20931e-06
6.2441e-06
6.29349e-06
6.39866e-06
)
;

boundaryField
{
    fuel
    {
        type            fixedValue;
        value           nonuniform 0();
    }
    wall
    {
        type            zeroGradient;
    }
    outlet
    {
        type            zeroGradient;
    }
    frontAndBack
    {
        type            empty;
    }
    procBoundary1to0
    {
        type            processor;
        value           nonuniform List<scalar> 
21
(
1.24003e-05
1.20229e-05
1.1784e-05
1.1509e-05
1.13536e-05
1.12962e-05
1.12957e-05
1.12541e-05
1.12879e-05
1.12563e-05
1.05043e-05
1.05043e-05
1.05606e-05
1.04896e-05
1.06133e-05
1.04867e-05
1.08073e-05
1.05482e-05
1.14988e-05
1.08906e-05
1.28398e-05
)
;
    }
}


// ************************************************************************* //
