/*--------------------------------*- C++ -*----------------------------------*\
| =========                 |                                                 |
| \\      /  F ield         | OpenFOAM: The Open Source CFD Toolbox           |
|  \\    /   O peration     | Version:  dev                                   |
|   \\  /    A nd           | Web:      www.OpenFOAM.org                      |
|    \\/     M anipulation  |                                                 |
\*---------------------------------------------------------------------------*/
FoamFile
{
    version     2.0;
    format      ascii;
    class       volScalarField;
    location    "0.075";
    object      CH2CO;
}
// * * * * * * * * * * * * * * * * * * * * * * * * * * * * * * * * * * * * * //

dimensions      [0 0 0 0 0 0 0];

internalField   nonuniform List<scalar> 
2000
(
0.00215264
0.00215338
0.00215418
0.00215451
0.00215438
0.00215453
0.00215441
0.00215451
0.00215443
0.00215449
0.00215444
0.00215448
0.00215444
0.00215447
0.00215445
0.00215447
0.00215445
0.00215447
0.00215446
0.00215447
0.00215446
0.00215446
0.00215446
0.00215446
0.00215446
0.00215446
0.00215446
0.00215446
0.00215446
0.00215446
0.00215447
0.00215446
0.00215447
0.00215445
0.00215447
0.00215445
0.00215447
0.00215444
0.00215448
0.00215444
0.00215449
0.00215442
0.00215451
0.00215441
0.00215453
0.00215438
0.00215451
0.00215418
0.00215338
0.00215264
0.00423076
0.0042312
0.00423095
0.00423079
0.00423034
0.0042305
0.00423029
0.00423044
0.00423031
0.00423041
0.00423033
0.0042304
0.00423035
0.00423039
0.00423036
0.00423039
0.00423036
0.00423038
0.00423037
0.00423038
0.00423037
0.00423038
0.00423037
0.00423038
0.00423037
0.00423037
0.00423038
0.00423037
0.00423038
0.00423037
0.00423038
0.00423037
0.00423038
0.00423036
0.00423039
0.00423036
0.00423039
0.00423035
0.0042304
0.00423033
0.00423041
0.00423031
0.00423044
0.00423029
0.0042305
0.00423034
0.00423079
0.00423095
0.0042312
0.00423076
0.00293972
0.00293868
0.00293677
0.00293581
0.00293521
0.00293521
0.00293504
0.00293513
0.00293505
0.00293512
0.00293507
0.00293512
0.00293508
0.00293511
0.00293509
0.00293511
0.00293509
0.00293511
0.0029351
0.00293511
0.0029351
0.0029351
0.0029351
0.0029351
0.0029351
0.0029351
0.0029351
0.0029351
0.0029351
0.0029351
0.00293511
0.0029351
0.00293511
0.0029351
0.00293511
0.00293509
0.00293511
0.00293508
0.00293512
0.00293507
0.00293512
0.00293505
0.00293513
0.00293504
0.00293521
0.00293521
0.00293581
0.00293677
0.00293868
0.00293972
0.00162859
0.00162793
0.00162679
0.00162613
0.0016257
0.00162571
0.00162558
0.00162565
0.00162559
0.00162564
0.0016256
0.00162564
0.00162561
0.00162563
0.00162561
0.00162563
0.00162562
0.00162563
0.00162562
0.00162563
0.00162562
0.00162562
0.00162562
0.00162562
0.00162562
0.00162562
0.00162562
0.00162562
0.00162562
0.00162562
0.00162563
0.00162562
0.00162563
0.00162562
0.00162563
0.00162561
0.00162563
0.00162561
0.00162564
0.0016256
0.00162564
0.00162559
0.00162565
0.00162558
0.00162571
0.0016257
0.00162613
0.00162679
0.00162793
0.00162859
0.000888207
0.000887989
0.000887613
0.000887298
0.00088704
0.000887068
0.000886977
0.000887033
0.000886982
0.000887023
0.000886991
0.00088702
0.000886998
0.000887017
0.000887002
0.000887015
0.000887004
0.000887012
0.000887006
0.000887011
0.000887007
0.00088701
0.000887008
0.000887009
0.000887008
0.000887009
0.000887009
0.000887008
0.00088701
0.000887007
0.000887011
0.000887006
0.000887012
0.000887004
0.000887015
0.000887002
0.000887017
0.000886998
0.00088702
0.000886991
0.000887023
0.000886982
0.000887033
0.000886977
0.000887068
0.00088704
0.000887298
0.000887613
0.000887989
0.000888206
0.000513079
0.000513068
0.000513054
0.000512929
0.00051278
0.000512811
0.000512748
0.000512789
0.000512752
0.000512782
0.000512758
0.000512779
0.000512762
0.000512776
0.000512765
0.000512775
0.000512767
0.000512773
0.000512768
0.000512772
0.000512769
0.000512771
0.00051277
0.000512771
0.00051277
0.00051277
0.000512771
0.00051277
0.000512771
0.000512769
0.000512772
0.000512768
0.000512773
0.000512767
0.000512775
0.000512765
0.000512776
0.000512762
0.000512779
0.000512758
0.000512782
0.000512752
0.000512789
0.000512748
0.000512811
0.00051278
0.000512929
0.000513054
0.000513068
0.000513079
0.000322932
0.000322992
0.000323111
0.000323072
0.000322986
0.000323013
0.00032297
0.000322999
0.000322972
0.000322994
0.000322976
0.000322991
0.000322979
0.000322989
0.000322981
0.000322988
0.000322982
0.000322987
0.000322983
0.000322986
0.000322984
0.000322985
0.000322984
0.000322985
0.000322985
0.000322985
0.000322985
0.000322984
0.000322985
0.000322984
0.000322986
0.000322983
0.000322987
0.000322982
0.000322988
0.000322981
0.000322989
0.000322979
0.000322991
0.000322976
0.000322994
0.000322972
0.000322999
0.00032297
0.000323013
0.000322986
0.000323072
0.000323111
0.000322992
0.000322932
0.000222941
0.00022302
0.000223178
0.000223179
0.000223127
0.00022315
0.000223119
0.000223141
0.00022312
0.000223136
0.000223123
0.000223134
0.000223125
0.000223133
0.000223127
0.000223132
0.000223127
0.000223131
0.000223128
0.00022313
0.000223129
0.00022313
0.000223129
0.00022313
0.000223129
0.000223129
0.00022313
0.000223129
0.00022313
0.000223129
0.00022313
0.000223128
0.000223131
0.000223128
0.000223132
0.000223127
0.000223133
0.000223125
0.000223134
0.000223123
0.000223136
0.00022312
0.000223141
0.000223119
0.00022315
0.000223127
0.000223179
0.000223178
0.00022302
0.000222941
0.000167278
0.000167362
0.000167529
0.000167549
0.000167517
0.000167537
0.000167513
0.00016753
0.000167514
0.000167526
0.000167516
0.000167525
0.000167518
0.000167523
0.000167519
0.000167523
0.000167519
0.000167522
0.00016752
0.000167522
0.00016752
0.000167521
0.00016752
0.000167521
0.000167521
0.000167521
0.000167521
0.00016752
0.000167521
0.00016752
0.000167522
0.00016752
0.000167522
0.000167519
0.000167523
0.000167519
0.000167523
0.000167518
0.000167525
0.000167516
0.000167526
0.000167514
0.00016753
0.000167513
0.000167537
0.000167517
0.000167549
0.000167529
0.000167362
0.000167278
0.000133969
0.000134057
0.000134227
0.000134259
0.000134239
0.000134256
0.000134237
0.000134251
0.000134238
0.000134248
0.000134239
0.000134246
0.00013424
0.000134245
0.000134241
0.000134244
0.000134242
0.000134244
0.000134242
0.000134243
0.000134242
0.000134243
0.000134243
0.000134243
0.000134243
0.000134243
0.000134243
0.000134243
0.000134243
0.000134242
0.000134243
0.000134242
0.000134244
0.000134242
0.000134244
0.000134241
0.000134245
0.00013424
0.000134246
0.000134239
0.000134248
0.000134238
0.000134251
0.000134237
0.000134256
0.000134239
0.000134259
0.000134227
0.000134057
0.000133968
0.000112503
0.000112599
0.000112773
0.000112813
0.0001128
0.000112817
0.0001128
0.000112813
0.000112801
0.00011281
0.000112802
0.000112808
0.000112803
0.000112807
0.000112804
0.000112807
0.000112804
0.000112806
0.000112805
0.000112806
0.000112805
0.000112806
0.000112805
0.000112805
0.000112805
0.000112805
0.000112805
0.000112805
0.000112806
0.000112805
0.000112806
0.000112805
0.000112806
0.000112804
0.000112807
0.000112804
0.000112807
0.000112803
0.000112808
0.000112802
0.00011281
0.000112801
0.000112813
0.0001128
0.000112817
0.0001128
0.000112813
0.000112773
0.000112599
0.000112503
9.70899e-05
9.71872e-05
9.7354e-05
9.73977e-05
9.73895e-05
9.7405e-05
9.73906e-05
9.74014e-05
9.73908e-05
9.73987e-05
9.73918e-05
9.73973e-05
9.73927e-05
9.73962e-05
9.73933e-05
9.73957e-05
9.73936e-05
9.73953e-05
9.7394e-05
9.7395e-05
9.73942e-05
9.73948e-05
9.73943e-05
9.73946e-05
9.73945e-05
9.73945e-05
9.73946e-05
9.73943e-05
9.73948e-05
9.73942e-05
9.7395e-05
9.7394e-05
9.73953e-05
9.73936e-05
9.73957e-05
9.73933e-05
9.73963e-05
9.73927e-05
9.73973e-05
9.73919e-05
9.73987e-05
9.73908e-05
9.74014e-05
9.73906e-05
9.74049e-05
9.73895e-05
9.73976e-05
9.7354e-05
9.71872e-05
9.70899e-05
8.61507e-05
8.62586e-05
8.64324e-05
8.64826e-05
8.64776e-05
8.64935e-05
8.64796e-05
8.64902e-05
8.64797e-05
8.64874e-05
8.64807e-05
8.6486e-05
8.64815e-05
8.64849e-05
8.6482e-05
8.64844e-05
8.64823e-05
8.6484e-05
8.64827e-05
8.64837e-05
8.64829e-05
8.64835e-05
8.6483e-05
8.64833e-05
8.64832e-05
8.64832e-05
8.64833e-05
8.6483e-05
8.64835e-05
8.64829e-05
8.64837e-05
8.64827e-05
8.6484e-05
8.64823e-05
8.64844e-05
8.6482e-05
8.64849e-05
8.64815e-05
8.6486e-05
8.64807e-05
8.64874e-05
8.64797e-05
8.64902e-05
8.64796e-05
8.64934e-05
8.64776e-05
8.64826e-05
8.64324e-05
8.62586e-05
8.61507e-05
7.76683e-05
7.77503e-05
7.78992e-05
7.79456e-05
7.79479e-05
7.79611e-05
7.79514e-05
7.79592e-05
7.79513e-05
7.79569e-05
7.79518e-05
7.79557e-05
7.79523e-05
7.79548e-05
7.79526e-05
7.79544e-05
7.79528e-05
7.79541e-05
7.79531e-05
7.79538e-05
7.79532e-05
7.79536e-05
7.79533e-05
7.79535e-05
7.79534e-05
7.79534e-05
7.79535e-05
7.79533e-05
7.79536e-05
7.79532e-05
7.79538e-05
7.79531e-05
7.79541e-05
7.79528e-05
7.79544e-05
7.79526e-05
7.79548e-05
7.79523e-05
7.79557e-05
7.79518e-05
7.7957e-05
7.79513e-05
7.79592e-05
7.79514e-05
7.79611e-05
7.79479e-05
7.79456e-05
7.78992e-05
7.77503e-05
7.76683e-05
7.06915e-05
7.07772e-05
7.09221e-05
7.09705e-05
7.09747e-05
7.09876e-05
7.09787e-05
7.0986e-05
7.09786e-05
7.09838e-05
7.0979e-05
7.09825e-05
7.09794e-05
7.09817e-05
7.09796e-05
7.09813e-05
7.09798e-05
7.0981e-05
7.098e-05
7.09807e-05
7.09802e-05
7.09806e-05
7.09802e-05
7.09804e-05
7.09803e-05
7.09803e-05
7.09804e-05
7.09802e-05
7.09806e-05
7.09802e-05
7.09807e-05
7.098e-05
7.0981e-05
7.09798e-05
7.09813e-05
7.09796e-05
7.09817e-05
7.09794e-05
7.09825e-05
7.0979e-05
7.09838e-05
7.09786e-05
7.0986e-05
7.09787e-05
7.09876e-05
7.09747e-05
7.09705e-05
7.09221e-05
7.07772e-05
7.06915e-05
6.52076e-05
6.52986e-05
6.54435e-05
6.54944e-05
6.55004e-05
6.55134e-05
6.55049e-05
6.5512e-05
6.55048e-05
6.55098e-05
6.55051e-05
6.55085e-05
6.55055e-05
6.55077e-05
6.55057e-05
6.55072e-05
6.55058e-05
6.5507e-05
6.55061e-05
6.55068e-05
6.55062e-05
6.55066e-05
6.55062e-05
6.55064e-05
6.55064e-05
6.55064e-05
6.55064e-05
6.55062e-05
6.55066e-05
6.55062e-05
6.55068e-05
6.55061e-05
6.5507e-05
6.55058e-05
6.55073e-05
6.55057e-05
6.55077e-05
6.55055e-05
6.55085e-05
6.55051e-05
6.55098e-05
6.55048e-05
6.5512e-05
6.5505e-05
6.55134e-05
6.55004e-05
6.54944e-05
6.54435e-05
6.52986e-05
6.52076e-05
6.05081e-05
6.06104e-05
6.07619e-05
6.08201e-05
6.08297e-05
6.08437e-05
6.08357e-05
6.08426e-05
6.08354e-05
6.08402e-05
6.08355e-05
6.08389e-05
6.08358e-05
6.08379e-05
6.08359e-05
6.08375e-05
6.0836e-05
6.08372e-05
6.08363e-05
6.0837e-05
6.08364e-05
6.08368e-05
6.08364e-05
6.08366e-05
6.08365e-05
6.08365e-05
6.08366e-05
6.08364e-05
6.08368e-05
6.08364e-05
6.0837e-05
6.08363e-05
6.08372e-05
6.0836e-05
6.08375e-05
6.08359e-05
6.08379e-05
6.08358e-05
6.08388e-05
6.08356e-05
6.08402e-05
6.08354e-05
6.08426e-05
6.08357e-05
6.08437e-05
6.08297e-05
6.08201e-05
6.07619e-05
6.06104e-05
6.05081e-05
5.67041e-05
5.68101e-05
5.69587e-05
5.70181e-05
5.70293e-05
5.70432e-05
5.70358e-05
5.70423e-05
5.70354e-05
5.70399e-05
5.70355e-05
5.70385e-05
5.70356e-05
5.70376e-05
5.70357e-05
5.70372e-05
5.70358e-05
5.70369e-05
5.70361e-05
5.70367e-05
5.70361e-05
5.70365e-05
5.70362e-05
5.70364e-05
5.70363e-05
5.70363e-05
5.70364e-05
5.70362e-05
5.70365e-05
5.70361e-05
5.70367e-05
5.7036e-05
5.70369e-05
5.70358e-05
5.70372e-05
5.70357e-05
5.70376e-05
5.70356e-05
5.70385e-05
5.70355e-05
5.70399e-05
5.70354e-05
5.70423e-05
5.70358e-05
5.70432e-05
5.70293e-05
5.70181e-05
5.69586e-05
5.68101e-05
5.67041e-05
5.33768e-05
5.34938e-05
5.3648e-05
5.37126e-05
5.37248e-05
5.37395e-05
5.37317e-05
5.37385e-05
5.37313e-05
5.3736e-05
5.37313e-05
5.37346e-05
5.37315e-05
5.37336e-05
5.37317e-05
5.37332e-05
5.37317e-05
5.37329e-05
5.3732e-05
5.37326e-05
5.37321e-05
5.37325e-05
5.37321e-05
5.37323e-05
5.37322e-05
5.37322e-05
5.37323e-05
5.37321e-05
5.37325e-05
5.37321e-05
5.37326e-05
5.3732e-05
5.37329e-05
5.37317e-05
5.37332e-05
5.37316e-05
5.37336e-05
5.37315e-05
5.37346e-05
5.37314e-05
5.3736e-05
5.37313e-05
5.37385e-05
5.37317e-05
5.37395e-05
5.37248e-05
5.37126e-05
5.3648e-05
5.34938e-05
5.33768e-05
5.05473e-05
5.0667e-05
5.08144e-05
5.08784e-05
5.08917e-05
5.0906e-05
5.08989e-05
5.09052e-05
5.08985e-05
5.09027e-05
5.08984e-05
5.09013e-05
5.08985e-05
5.09004e-05
5.08986e-05
5.09e-05
5.08986e-05
5.08997e-05
5.08989e-05
5.08995e-05
5.0899e-05
5.08993e-05
5.0899e-05
5.08992e-05
5.08991e-05
5.08991e-05
5.08992e-05
5.0899e-05
5.08993e-05
5.0899e-05
5.08995e-05
5.08989e-05
5.08997e-05
5.08986e-05
5.09e-05
5.08986e-05
5.09004e-05
5.08985e-05
5.09013e-05
5.08984e-05
5.09027e-05
5.08985e-05
5.09052e-05
5.08989e-05
5.09059e-05
5.08917e-05
5.08784e-05
5.08144e-05
5.0667e-05
5.05473e-05
4.82208e-05
4.83457e-05
4.84889e-05
4.85531e-05
4.85675e-05
4.85815e-05
4.8575e-05
4.85809e-05
4.85745e-05
4.85785e-05
4.85744e-05
4.85771e-05
4.85744e-05
4.85762e-05
4.85745e-05
4.85757e-05
4.85745e-05
4.85755e-05
4.85747e-05
4.85753e-05
4.85748e-05
4.85751e-05
4.85748e-05
4.8575e-05
4.85749e-05
4.85749e-05
4.8575e-05
4.85748e-05
4.85751e-05
4.85748e-05
4.85753e-05
4.85747e-05
4.85755e-05
4.85745e-05
4.85757e-05
4.85744e-05
4.85762e-05
4.85744e-05
4.85771e-05
4.85744e-05
4.85785e-05
4.85745e-05
4.85809e-05
4.8575e-05
4.85815e-05
4.85675e-05
4.85531e-05
4.84889e-05
4.83457e-05
4.82208e-05
4.62292e-05
4.63602e-05
4.64994e-05
4.65636e-05
4.65789e-05
4.65927e-05
4.65867e-05
4.65922e-05
4.65861e-05
4.65898e-05
4.65859e-05
4.65885e-05
4.65859e-05
4.65876e-05
4.65859e-05
4.65871e-05
4.65859e-05
4.65869e-05
4.65861e-05
4.65867e-05
4.65862e-05
4.65865e-05
4.65862e-05
4.65864e-05
4.65863e-05
4.65863e-05
4.65864e-05
4.65862e-05
4.65865e-05
4.65862e-05
4.65867e-05
4.65861e-05
4.65869e-05
4.65859e-05
4.65871e-05
4.65859e-05
4.65876e-05
4.65859e-05
4.65885e-05
4.65859e-05
4.65898e-05
4.65861e-05
4.65922e-05
4.65867e-05
4.65927e-05
4.65789e-05
4.65636e-05
4.64994e-05
4.63602e-05
4.62292e-05
4.45174e-05
4.4605e-05
4.47341e-05
4.47964e-05
4.48136e-05
4.48271e-05
4.48221e-05
4.48269e-05
4.48214e-05
4.48245e-05
4.48209e-05
4.4823e-05
4.48207e-05
4.48221e-05
4.48206e-05
4.48216e-05
4.48206e-05
4.48214e-05
4.48207e-05
4.48212e-05
4.48207e-05
4.4821e-05
4.48208e-05
4.48209e-05
4.48208e-05
4.48208e-05
4.48209e-05
4.48208e-05
4.4821e-05
4.48207e-05
4.48212e-05
4.48207e-05
4.48214e-05
4.48206e-05
4.48216e-05
4.48206e-05
4.48221e-05
4.48207e-05
4.4823e-05
4.48209e-05
4.48245e-05
4.48214e-05
4.48269e-05
4.48221e-05
4.4827e-05
4.48136e-05
4.47964e-05
4.47341e-05
4.4605e-05
4.45174e-05
4.30397e-05
4.31306e-05
4.32557e-05
4.33176e-05
4.33354e-05
4.33487e-05
4.33442e-05
4.33487e-05
4.33434e-05
4.33462e-05
4.33428e-05
4.33448e-05
4.33425e-05
4.33438e-05
4.33424e-05
4.33434e-05
4.33423e-05
4.33431e-05
4.33425e-05
4.33429e-05
4.33425e-05
4.33428e-05
4.33425e-05
4.33427e-05
4.33426e-05
4.33426e-05
4.33427e-05
4.33425e-05
4.33428e-05
4.33425e-05
4.33429e-05
4.33425e-05
4.33431e-05
4.33423e-05
4.33434e-05
4.33424e-05
4.33438e-05
4.33425e-05
4.33448e-05
4.33428e-05
4.33462e-05
4.33434e-05
4.33486e-05
4.33442e-05
4.33487e-05
4.33354e-05
4.33176e-05
4.32557e-05
4.31306e-05
4.30397e-05
4.17078e-05
4.18025e-05
4.1926e-05
4.19889e-05
4.20078e-05
4.20212e-05
4.2017e-05
4.20212e-05
4.20161e-05
4.20187e-05
4.20154e-05
4.20172e-05
4.2015e-05
4.20163e-05
4.20149e-05
4.20158e-05
4.20148e-05
4.20155e-05
4.20149e-05
4.20153e-05
4.20149e-05
4.20152e-05
4.20149e-05
4.20151e-05
4.2015e-05
4.2015e-05
4.20151e-05
4.20149e-05
4.20152e-05
4.20149e-05
4.20153e-05
4.20149e-05
4.20155e-05
4.20148e-05
4.20158e-05
4.20149e-05
4.20163e-05
4.2015e-05
4.20172e-05
4.20154e-05
4.20187e-05
4.20161e-05
4.20212e-05
4.2017e-05
4.20212e-05
4.20078e-05
4.19889e-05
4.1926e-05
4.18025e-05
4.17078e-05
4.0542e-05
4.0638e-05
4.0757e-05
4.08188e-05
4.08382e-05
4.08513e-05
4.08475e-05
4.08514e-05
4.08465e-05
4.08489e-05
4.08457e-05
4.08474e-05
4.08453e-05
4.08464e-05
4.08451e-05
4.08459e-05
4.0845e-05
4.08457e-05
4.08451e-05
4.08455e-05
4.08451e-05
4.08453e-05
4.08451e-05
4.08452e-05
4.08452e-05
4.08452e-05
4.08452e-05
4.08451e-05
4.08453e-05
4.08451e-05
4.08455e-05
4.08451e-05
4.08457e-05
4.0845e-05
4.08459e-05
4.08451e-05
4.08464e-05
4.08453e-05
4.08474e-05
4.08457e-05
4.08489e-05
4.08465e-05
4.08514e-05
4.08475e-05
4.08513e-05
4.08382e-05
4.08188e-05
4.0757e-05
4.0638e-05
4.0542e-05
3.95134e-05
3.96108e-05
3.97256e-05
3.97863e-05
3.9806e-05
3.98189e-05
3.98154e-05
3.9819e-05
3.98144e-05
3.98165e-05
3.98135e-05
3.9815e-05
3.9813e-05
3.9814e-05
3.98128e-05
3.98135e-05
3.98126e-05
3.98133e-05
3.98127e-05
3.98131e-05
3.98127e-05
3.9813e-05
3.98127e-05
3.98129e-05
3.98128e-05
3.98128e-05
3.98129e-05
3.98127e-05
3.9813e-05
3.98127e-05
3.98131e-05
3.98127e-05
3.98133e-05
3.98126e-05
3.98135e-05
3.98128e-05
3.9814e-05
3.9813e-05
3.9815e-05
3.98135e-05
3.98165e-05
3.98144e-05
3.9819e-05
3.98154e-05
3.98188e-05
3.9806e-05
3.97863e-05
3.97256e-05
3.96108e-05
3.95134e-05
3.85987e-05
3.8697e-05
3.88082e-05
3.88677e-05
3.88876e-05
3.89003e-05
3.88971e-05
3.89005e-05
3.88961e-05
3.88979e-05
3.88951e-05
3.88964e-05
3.88945e-05
3.88954e-05
3.88942e-05
3.88949e-05
3.88941e-05
3.88947e-05
3.88942e-05
3.88945e-05
3.88942e-05
3.88944e-05
3.88942e-05
3.88943e-05
3.88942e-05
3.88942e-05
3.88943e-05
3.88942e-05
3.88944e-05
3.88942e-05
3.88945e-05
3.88942e-05
3.88947e-05
3.88941e-05
3.8895e-05
3.88942e-05
3.88954e-05
3.88945e-05
3.88964e-05
3.88951e-05
3.88979e-05
3.88961e-05
3.89005e-05
3.88971e-05
3.89003e-05
3.88876e-05
3.88677e-05
3.88082e-05
3.8697e-05
3.85987e-05
3.77782e-05
3.78771e-05
3.79852e-05
3.80435e-05
3.80636e-05
3.8076e-05
3.80731e-05
3.80762e-05
3.8072e-05
3.80737e-05
3.80709e-05
3.80721e-05
3.80703e-05
3.80711e-05
3.807e-05
3.80706e-05
3.80698e-05
3.80704e-05
3.80699e-05
3.80702e-05
3.80699e-05
3.80701e-05
3.80699e-05
3.807e-05
3.80699e-05
3.80699e-05
3.807e-05
3.80699e-05
3.80701e-05
3.80699e-05
3.80702e-05
3.80699e-05
3.80704e-05
3.80698e-05
3.80706e-05
3.807e-05
3.80711e-05
3.80703e-05
3.80721e-05
3.80709e-05
3.80737e-05
3.8072e-05
3.80762e-05
3.80731e-05
3.8076e-05
3.80636e-05
3.80435e-05
3.79852e-05
3.78771e-05
3.77782e-05
3.70359e-05
3.71351e-05
3.72405e-05
3.72975e-05
3.73177e-05
3.73299e-05
3.73272e-05
3.73301e-05
3.7326e-05
3.73275e-05
3.73249e-05
3.73259e-05
3.73242e-05
3.73249e-05
3.73238e-05
3.73244e-05
3.73237e-05
3.73242e-05
3.73237e-05
3.7324e-05
3.73237e-05
3.73239e-05
3.73237e-05
3.73238e-05
3.73237e-05
3.73237e-05
3.73238e-05
3.73237e-05
3.73239e-05
3.73237e-05
3.7324e-05
3.73237e-05
3.73242e-05
3.73237e-05
3.73244e-05
3.73238e-05
3.73249e-05
3.73242e-05
3.73259e-05
3.73249e-05
3.73275e-05
3.7326e-05
3.73301e-05
3.73272e-05
3.73299e-05
3.73177e-05
3.72974e-05
3.72405e-05
3.71351e-05
3.70359e-05
3.63583e-05
3.64576e-05
3.65606e-05
3.66163e-05
3.66366e-05
3.66486e-05
3.66461e-05
3.66488e-05
3.66449e-05
3.66462e-05
3.66436e-05
3.66445e-05
3.66429e-05
3.66435e-05
3.66425e-05
3.6643e-05
3.66423e-05
3.66428e-05
3.66423e-05
3.66426e-05
3.66423e-05
3.66425e-05
3.66423e-05
3.66424e-05
3.66423e-05
3.66423e-05
3.66424e-05
3.66423e-05
3.66425e-05
3.66423e-05
3.66426e-05
3.66423e-05
3.66428e-05
3.66423e-05
3.6643e-05
3.66425e-05
3.66435e-05
3.66429e-05
3.66445e-05
3.66436e-05
3.66462e-05
3.66449e-05
3.66488e-05
3.66461e-05
3.66486e-05
3.66366e-05
3.66163e-05
3.65606e-05
3.64576e-05
3.63583e-05
3.57347e-05
3.58339e-05
3.59347e-05
3.59892e-05
3.60094e-05
3.60213e-05
3.60189e-05
3.60214e-05
3.60176e-05
3.60187e-05
3.60162e-05
3.60171e-05
3.60154e-05
3.6016e-05
3.6015e-05
3.60155e-05
3.60148e-05
3.60153e-05
3.60148e-05
3.60151e-05
3.60148e-05
3.6015e-05
3.60148e-05
3.60149e-05
3.60148e-05
3.60148e-05
3.60149e-05
3.60148e-05
3.6015e-05
3.60148e-05
3.60151e-05
3.60148e-05
3.60153e-05
3.60148e-05
3.60155e-05
3.6015e-05
3.6016e-05
3.60154e-05
3.6017e-05
3.60162e-05
3.60187e-05
3.60176e-05
3.60214e-05
3.60189e-05
3.60212e-05
3.60094e-05
3.59892e-05
3.59347e-05
3.58339e-05
3.57347e-05
3.51562e-05
3.52549e-05
3.53537e-05
3.54071e-05
3.54273e-05
3.54389e-05
3.54367e-05
3.5439e-05
3.54352e-05
3.54362e-05
3.54338e-05
3.54345e-05
3.54329e-05
3.54335e-05
3.54325e-05
3.5433e-05
3.54323e-05
3.54327e-05
3.54323e-05
3.54325e-05
3.54322e-05
3.54324e-05
3.54322e-05
3.54323e-05
3.54323e-05
3.54323e-05
3.54323e-05
3.54322e-05
3.54324e-05
3.54322e-05
3.54325e-05
3.54323e-05
3.54327e-05
3.54323e-05
3.5433e-05
3.54325e-05
3.54335e-05
3.54329e-05
3.54345e-05
3.54338e-05
3.54362e-05
3.54352e-05
3.5439e-05
3.54367e-05
3.54389e-05
3.54272e-05
3.54071e-05
3.53537e-05
3.52549e-05
3.51562e-05
3.46153e-05
3.47136e-05
3.48105e-05
3.48627e-05
3.48827e-05
3.48942e-05
3.48921e-05
3.48942e-05
3.48905e-05
3.48914e-05
3.4889e-05
3.48896e-05
3.48881e-05
3.48886e-05
3.48876e-05
3.4888e-05
3.48874e-05
3.48878e-05
3.48873e-05
3.48876e-05
3.48873e-05
3.48875e-05
3.48873e-05
3.48874e-05
3.48873e-05
3.48873e-05
3.48874e-05
3.48873e-05
3.48875e-05
3.48873e-05
3.48876e-05
3.48873e-05
3.48878e-05
3.48874e-05
3.4888e-05
3.48876e-05
3.48886e-05
3.48881e-05
3.48896e-05
3.4889e-05
3.48914e-05
3.48905e-05
3.48942e-05
3.48921e-05
3.48942e-05
3.48827e-05
3.48627e-05
3.48105e-05
3.47136e-05
3.46153e-05
3.41063e-05
3.42039e-05
3.4299e-05
3.43501e-05
3.43699e-05
3.43812e-05
3.43791e-05
3.43811e-05
3.43775e-05
3.43782e-05
3.43758e-05
3.43764e-05
3.43749e-05
3.43753e-05
3.43744e-05
3.43748e-05
3.43741e-05
3.43745e-05
3.43741e-05
3.43743e-05
3.43741e-05
3.43742e-05
3.4374e-05
3.43741e-05
3.43741e-05
3.43741e-05
3.43741e-05
3.4374e-05
3.43742e-05
3.43741e-05
3.43743e-05
3.43741e-05
3.43745e-05
3.43741e-05
3.43748e-05
3.43744e-05
3.43753e-05
3.43749e-05
3.43764e-05
3.43758e-05
3.43782e-05
3.43775e-05
3.43811e-05
3.43791e-05
3.43811e-05
3.43699e-05
3.43501e-05
3.4299e-05
3.42039e-05
3.41063e-05
3.36243e-05
3.37209e-05
3.38144e-05
3.38643e-05
3.38839e-05
3.3895e-05
3.3893e-05
3.38948e-05
3.38912e-05
3.38919e-05
3.38895e-05
3.389e-05
3.38885e-05
3.38889e-05
3.3888e-05
3.38883e-05
3.38877e-05
3.38881e-05
3.38877e-05
3.38879e-05
3.38876e-05
3.38878e-05
3.38876e-05
3.38877e-05
3.38876e-05
3.38876e-05
3.38877e-05
3.38876e-05
3.38878e-05
3.38876e-05
3.38879e-05
3.38877e-05
3.38881e-05
3.38877e-05
3.38883e-05
3.3888e-05
3.38889e-05
3.38885e-05
3.389e-05
3.38895e-05
3.38919e-05
3.38912e-05
3.38948e-05
3.3893e-05
3.3895e-05
3.38839e-05
3.38643e-05
3.38144e-05
3.37209e-05
3.36243e-05
3.31654e-05
3.32607e-05
3.33527e-05
3.34015e-05
3.34209e-05
3.34317e-05
3.34297e-05
3.34314e-05
3.34278e-05
3.34284e-05
3.3426e-05
3.34265e-05
3.3425e-05
3.34253e-05
3.34244e-05
3.34247e-05
3.34241e-05
3.34245e-05
3.34241e-05
3.34243e-05
3.3424e-05
3.34241e-05
3.3424e-05
3.34241e-05
3.3424e-05
3.3424e-05
3.34241e-05
3.3424e-05
3.34242e-05
3.3424e-05
3.34243e-05
3.34241e-05
3.34245e-05
3.34241e-05
3.34247e-05
3.34244e-05
3.34253e-05
3.3425e-05
3.34265e-05
3.3426e-05
3.34284e-05
3.34278e-05
3.34314e-05
3.34297e-05
3.34317e-05
3.34208e-05
3.34015e-05
3.33527e-05
3.32607e-05
3.31654e-05
3.27263e-05
3.28202e-05
3.29106e-05
3.29584e-05
3.29774e-05
3.2988e-05
3.2986e-05
3.29876e-05
3.29841e-05
3.29845e-05
3.29822e-05
3.29825e-05
3.2981e-05
3.29814e-05
3.29804e-05
3.29808e-05
3.29801e-05
3.29805e-05
3.29801e-05
3.29803e-05
3.298e-05
3.29802e-05
3.298e-05
3.29801e-05
3.298e-05
3.298e-05
3.29801e-05
3.298e-05
3.29802e-05
3.298e-05
3.29803e-05
3.29801e-05
3.29805e-05
3.29801e-05
3.29808e-05
3.29804e-05
3.29814e-05
3.2981e-05
3.29825e-05
3.29822e-05
3.29845e-05
3.29841e-05
3.29876e-05
3.2986e-05
3.2988e-05
3.29774e-05
3.29584e-05
3.29106e-05
3.28202e-05
3.27263e-05
3.23044e-05
3.23965e-05
3.24856e-05
3.25323e-05
3.2551e-05
3.25613e-05
3.25594e-05
3.25607e-05
3.25573e-05
3.25576e-05
3.25553e-05
3.25556e-05
3.25541e-05
3.25544e-05
3.25535e-05
3.25538e-05
3.25532e-05
3.25535e-05
3.25531e-05
3.25533e-05
3.2553e-05
3.25532e-05
3.2553e-05
3.25531e-05
3.2553e-05
3.2553e-05
3.25531e-05
3.2553e-05
3.25532e-05
3.2553e-05
3.25533e-05
3.25531e-05
3.25535e-05
3.25532e-05
3.25538e-05
3.25535e-05
3.25544e-05
3.25541e-05
3.25556e-05
3.25553e-05
3.25576e-05
3.25573e-05
3.25607e-05
3.25594e-05
3.25613e-05
3.2551e-05
3.25323e-05
3.24856e-05
3.23965e-05
3.23044e-05
3.18975e-05
3.19879e-05
3.20755e-05
3.21211e-05
3.21394e-05
3.21495e-05
3.21475e-05
3.21487e-05
3.21453e-05
3.21455e-05
3.21432e-05
3.21434e-05
3.2142e-05
3.21422e-05
3.21413e-05
3.21416e-05
3.2141e-05
3.21413e-05
3.21409e-05
3.21411e-05
3.21408e-05
3.2141e-05
3.21408e-05
3.21409e-05
3.21408e-05
3.21408e-05
3.21409e-05
3.21408e-05
3.2141e-05
3.21408e-05
3.21411e-05
3.21409e-05
3.21413e-05
3.2141e-05
3.21416e-05
3.21413e-05
3.21422e-05
3.2142e-05
3.21434e-05
3.21432e-05
3.21455e-05
3.21453e-05
3.21487e-05
3.21475e-05
3.21495e-05
3.21394e-05
3.21211e-05
3.20755e-05
3.19879e-05
3.18975e-05
)
;

boundaryField
{
    fuel
    {
        type            fixedValue;
        value           uniform 0;
    }
    wall
    {
        type            zeroGradient;
    }
    outlet
    {
        type            zeroGradient;
    }
    frontAndBack
    {
        type            empty;
    }
    procBoundary1to0
    {
        type            processor;
        value           nonuniform List<scalar> 
50
(
3.15036e-05
3.15926e-05
3.16786e-05
3.1723e-05
3.17409e-05
3.17507e-05
3.17487e-05
3.17498e-05
3.17464e-05
3.17465e-05
3.17442e-05
3.17443e-05
3.17429e-05
3.17431e-05
3.17422e-05
3.17425e-05
3.17419e-05
3.17422e-05
3.17418e-05
3.1742e-05
3.17417e-05
3.17418e-05
3.17417e-05
3.17418e-05
3.17417e-05
3.17417e-05
3.17418e-05
3.17417e-05
3.17418e-05
3.17417e-05
3.1742e-05
3.17418e-05
3.17421e-05
3.17419e-05
3.17425e-05
3.17422e-05
3.17431e-05
3.17429e-05
3.17443e-05
3.17442e-05
3.17465e-05
3.17463e-05
3.17498e-05
3.17487e-05
3.17507e-05
3.17409e-05
3.1723e-05
3.16785e-05
3.15926e-05
3.15036e-05
)
;
    }
}


// ************************************************************************* //
