/*--------------------------------*- C++ -*----------------------------------*\
| =========                 |                                                 |
| \\      /  F ield         | OpenFOAM: The Open Source CFD Toolbox           |
|  \\    /   O peration     | Version:  dev                                   |
|   \\  /    A nd           | Web:      www.OpenFOAM.org                      |
|    \\/     M anipulation  |                                                 |
\*---------------------------------------------------------------------------*/
FoamFile
{
    version     2.0;
    format      ascii;
    class       volScalarField;
    location    "0.075";
    object      CH2OH;
}
// * * * * * * * * * * * * * * * * * * * * * * * * * * * * * * * * * * * * * //

dimensions      [0 0 0 0 0 0 0];

internalField   nonuniform List<scalar> 
250
(
7.55756e-10
8.52434e-10
9.27531e-10
8.93635e-10
8.61598e-10
8.46289e-10
8.49285e-10
8.32285e-10
8.46155e-10
8.32088e-10
5.37945e-10
5.81629e-10
6.22449e-10
5.95678e-10
5.73164e-10
5.62201e-10
5.64578e-10
5.52519e-10
5.62478e-10
5.52422e-10
5.48586e-10
5.66048e-10
5.44696e-10
5.82072e-10
5.41948e-10
6.35278e-10
5.37342e-10
7.8424e-10
5.06024e-10
7.48803e-10
3.68942e-10
3.84944e-10
4.05885e-10
3.86667e-10
3.71574e-10
3.63949e-10
3.65723e-10
3.57528e-10
3.64378e-10
3.57479e-10
3.5493e-10
3.6672e-10
3.52308e-10
3.77185e-10
3.50537e-10
4.12145e-10
3.48041e-10
5.12942e-10
3.33665e-10
5.17099e-10
2.45254e-10
2.48751e-10
2.58791e-10
2.46107e-10
2.3645e-10
2.31145e-10
2.32396e-10
2.2704e-10
2.31572e-10
2.2701e-10
2.25389e-10
2.33028e-10
2.23708e-10
2.39569e-10
2.22639e-10
2.61696e-10
2.21552e-10
3.26445e-10
2.15558e-10
3.44201e-10
1.59521e-10
1.57925e-10
1.62867e-10
1.53961e-10
1.47748e-10
1.45488e-10
1.46328e-10
1.42947e-10
1.45843e-10
1.42921e-10
1.41932e-10
1.46703e-10
1.40902e-10
1.50628e-10
1.40301e-10
1.63214e-10
1.3902e-10
2.03807e-10
1.3786e-10
2.22365e-10
1.03106e-10
1.00637e-10
1.02775e-10
9.73659e-11
9.36073e-11
9.22452e-11
9.2779e-11
9.07074e-11
9.25031e-11
9.06785e-11
9.00973e-11
9.29849e-11
8.94939e-11
9.52555e-11
8.91872e-11
1.02498e-10
8.85395e-11
1.26564e-10
8.87279e-11
1.41213e-10
6.78274e-11
6.57736e-11
6.66326e-11
6.34591e-11
6.12136e-11
6.04075e-11
6.07285e-11
5.94829e-11
6.05748e-11
5.94492e-11
5.91177e-11
6.08297e-11
5.87799e-11
6.21085e-11
5.8647e-11
6.61752e-11
5.83603e-11
7.999e-11
5.89009e-11
8.91569e-11
4.6903e-11
4.55126e-11
4.58329e-11
4.39987e-11
4.26337e-11
4.21556e-11
4.234e-11
4.15857e-11
4.22535e-11
4.15465e-11
4.13596e-11
4.23802e-11
4.11779e-11
4.30983e-11
4.11404e-11
4.53773e-11
4.10449e-11
5.32168e-11
4.15646e-11
5.87521e-11
3.52514e-11
3.44123e-11
3.45405e-11
3.34599e-11
3.2584e-11
3.22894e-11
3.23925e-11
3.19134e-11
3.23411e-11
3.18682e-11
3.1761e-11
3.23987e-11
3.16668e-11
3.28178e-11
3.16788e-11
3.41451e-11
3.16757e-11
3.87179e-11
3.20659e-11
4.18716e-11
3.01389e-11
2.9753e-11
2.98422e-11
2.92014e-11
2.85858e-11
2.83983e-11
2.84481e-11
2.81224e-11
2.84153e-11
2.80673e-11
2.80067e-11
2.84307e-11
2.79672e-11
2.86878e-11
2.80137e-11
2.95057e-11
2.80661e-11
3.23234e-11
2.8307e-11
3.3977e-11
3.20047e-11
3.18551e-11
3.183e-11
3.1392e-11
3.08123e-11
3.06725e-11
3.06778e-11
3.04052e-11
3.06602e-11
3.03191e-11
3.02888e-11
3.06334e-11
3.02973e-11
3.0804e-11
3.04016e-11
3.13835e-11
3.05598e-11
3.34508e-11
3.08493e-11
3.4378e-11
3.96412e-11
3.90905e-11
3.85965e-11
3.80836e-11
3.72719e-11
3.71088e-11
3.70665e-11
3.67402e-11
3.70762e-11
3.65805e-11
3.65734e-11
3.69859e-11
3.66383e-11
3.71088e-11
3.68511e-11
3.76361e-11
3.72512e-11
3.97864e-11
3.80758e-11
4.11857e-11
4.2758e-11
4.19216e-11
4.10893e-11
4.05854e-11
3.96753e-11
3.95116e-11
3.94167e-11
3.90928e-11
3.94535e-11
3.8874e-11
3.88949e-11
3.93134e-11
3.90037e-11
3.9379e-11
3.92843e-11
3.97812e-11
3.98535e-11
4.16141e-11
4.1011e-11
4.30777e-11
)
;

boundaryField
{
    fuel
    {
        type            fixedValue;
        value           nonuniform 0();
    }
    wall
    {
        type            zeroGradient;
    }
    outlet
    {
        type            zeroGradient;
    }
    frontAndBack
    {
        type            empty;
    }
    procBoundary1to0
    {
        type            processor;
        value           nonuniform List<scalar> 
21
(
1.01941e-09
1.20624e-09
1.33777e-09
1.29935e-09
1.25636e-09
1.23577e-09
1.23937e-09
1.21646e-09
1.23489e-09
1.21614e-09
8.26501e-10
8.26501e-10
8.51429e-10
8.20901e-10
8.75055e-10
8.16728e-10
9.52941e-10
8.08876e-10
1.16121e-09
7.46768e-10
1.04249e-09
)
;
    }
}


// ************************************************************************* //
