/*--------------------------------*- C++ -*----------------------------------*\
| =========                 |                                                 |
| \\      /  F ield         | OpenFOAM: The Open Source CFD Toolbox           |
|  \\    /   O peration     | Version:  dev                                   |
|   \\  /    A nd           | Web:      www.OpenFOAM.org                      |
|    \\/     M anipulation  |                                                 |
\*---------------------------------------------------------------------------*/
FoamFile
{
    version     2.0;
    format      ascii;
    class       volScalarField;
    location    "0.075";
    object      H2C4O;
}
// * * * * * * * * * * * * * * * * * * * * * * * * * * * * * * * * * * * * * //

dimensions      [0 0 0 0 0 0 0];

internalField   nonuniform List<scalar> 
2000
(
1.80654e-05
1.80797e-05
1.81106e-05
1.81239e-05
1.81251e-05
1.81281e-05
1.81267e-05
1.81281e-05
1.81269e-05
1.81279e-05
1.8127e-05
1.81277e-05
1.81271e-05
1.81275e-05
1.81271e-05
1.81274e-05
1.81272e-05
1.81274e-05
1.81272e-05
1.81274e-05
1.81273e-05
1.81273e-05
1.81273e-05
1.81273e-05
1.81273e-05
1.81273e-05
1.81273e-05
1.81273e-05
1.81273e-05
1.81273e-05
1.81274e-05
1.81272e-05
1.81274e-05
1.81272e-05
1.81274e-05
1.81271e-05
1.81275e-05
1.81271e-05
1.81277e-05
1.8127e-05
1.81279e-05
1.81269e-05
1.81281e-05
1.81267e-05
1.81281e-05
1.81251e-05
1.81239e-05
1.81106e-05
1.80797e-05
1.80654e-05
1.65757e-05
1.65774e-05
1.6583e-05
1.65849e-05
1.65838e-05
1.65848e-05
1.65839e-05
1.65846e-05
1.65839e-05
1.65844e-05
1.6584e-05
1.65843e-05
1.65841e-05
1.65843e-05
1.65841e-05
1.65842e-05
1.65841e-05
1.65842e-05
1.65841e-05
1.65842e-05
1.65842e-05
1.65842e-05
1.65842e-05
1.65842e-05
1.65842e-05
1.65842e-05
1.65842e-05
1.65842e-05
1.65842e-05
1.65842e-05
1.65842e-05
1.65841e-05
1.65842e-05
1.65841e-05
1.65842e-05
1.65841e-05
1.65843e-05
1.65841e-05
1.65843e-05
1.6584e-05
1.65844e-05
1.65839e-05
1.65846e-05
1.65839e-05
1.65848e-05
1.65838e-05
1.65849e-05
1.6583e-05
1.65774e-05
1.65757e-05
1.49171e-05
1.49259e-05
1.49364e-05
1.49403e-05
1.49394e-05
1.49408e-05
1.49397e-05
1.49406e-05
1.49398e-05
1.49404e-05
1.49399e-05
1.49403e-05
1.49399e-05
1.49402e-05
1.494e-05
1.49402e-05
1.494e-05
1.49402e-05
1.494e-05
1.49401e-05
1.49401e-05
1.49401e-05
1.49401e-05
1.49401e-05
1.49401e-05
1.49401e-05
1.49401e-05
1.49401e-05
1.49401e-05
1.49401e-05
1.49401e-05
1.494e-05
1.49401e-05
1.494e-05
1.49402e-05
1.494e-05
1.49402e-05
1.49399e-05
1.49403e-05
1.49399e-05
1.49404e-05
1.49398e-05
1.49406e-05
1.49397e-05
1.49408e-05
1.49394e-05
1.49403e-05
1.49364e-05
1.49259e-05
1.49171e-05
1.37447e-05
1.37538e-05
1.37639e-05
1.37673e-05
1.37662e-05
1.37676e-05
1.37664e-05
1.37673e-05
1.37665e-05
1.37672e-05
1.37666e-05
1.37671e-05
1.37667e-05
1.3767e-05
1.37667e-05
1.37669e-05
1.37667e-05
1.37669e-05
1.37668e-05
1.37669e-05
1.37668e-05
1.37669e-05
1.37668e-05
1.37668e-05
1.37668e-05
1.37668e-05
1.37668e-05
1.37668e-05
1.37669e-05
1.37668e-05
1.37669e-05
1.37668e-05
1.37669e-05
1.37668e-05
1.37669e-05
1.37667e-05
1.3767e-05
1.37667e-05
1.37671e-05
1.37666e-05
1.37672e-05
1.37665e-05
1.37673e-05
1.37664e-05
1.37676e-05
1.37662e-05
1.37673e-05
1.37639e-05
1.37538e-05
1.37447e-05
1.21581e-05
1.21659e-05
1.21753e-05
1.2178e-05
1.21768e-05
1.2178e-05
1.21769e-05
1.21777e-05
1.21769e-05
1.21775e-05
1.2177e-05
1.21775e-05
1.21771e-05
1.21774e-05
1.21771e-05
1.21773e-05
1.21772e-05
1.21773e-05
1.21772e-05
1.21773e-05
1.21772e-05
1.21773e-05
1.21772e-05
1.21773e-05
1.21772e-05
1.21772e-05
1.21773e-05
1.21772e-05
1.21773e-05
1.21772e-05
1.21773e-05
1.21772e-05
1.21773e-05
1.21772e-05
1.21773e-05
1.21771e-05
1.21774e-05
1.21771e-05
1.21774e-05
1.2177e-05
1.21775e-05
1.21769e-05
1.21777e-05
1.21769e-05
1.2178e-05
1.21768e-05
1.2178e-05
1.21753e-05
1.21659e-05
1.21581e-05
1.06154e-05
1.06223e-05
1.06317e-05
1.06341e-05
1.06331e-05
1.06341e-05
1.06331e-05
1.06339e-05
1.06331e-05
1.06337e-05
1.06332e-05
1.06336e-05
1.06333e-05
1.06335e-05
1.06333e-05
1.06335e-05
1.06334e-05
1.06335e-05
1.06334e-05
1.06335e-05
1.06334e-05
1.06334e-05
1.06334e-05
1.06334e-05
1.06334e-05
1.06334e-05
1.06334e-05
1.06334e-05
1.06334e-05
1.06334e-05
1.06335e-05
1.06334e-05
1.06335e-05
1.06334e-05
1.06335e-05
1.06333e-05
1.06335e-05
1.06333e-05
1.06336e-05
1.06332e-05
1.06337e-05
1.06331e-05
1.06339e-05
1.06331e-05
1.06341e-05
1.06331e-05
1.06341e-05
1.06317e-05
1.06223e-05
1.06154e-05
9.34826e-06
9.35486e-06
9.36458e-06
9.36711e-06
9.36629e-06
9.36729e-06
9.36633e-06
9.36704e-06
9.36635e-06
9.36687e-06
9.36642e-06
9.36678e-06
9.36648e-06
9.36671e-06
9.36652e-06
9.36668e-06
9.36654e-06
9.36666e-06
9.36657e-06
9.36664e-06
9.36658e-06
9.36662e-06
9.36659e-06
9.36661e-06
9.3666e-06
9.3666e-06
9.36661e-06
9.36659e-06
9.36662e-06
9.36658e-06
9.36664e-06
9.36657e-06
9.36666e-06
9.36654e-06
9.36668e-06
9.36652e-06
9.36671e-06
9.36648e-06
9.36678e-06
9.36642e-06
9.36687e-06
9.36635e-06
9.36704e-06
9.36633e-06
9.36729e-06
9.36629e-06
9.36711e-06
9.36458e-06
9.35486e-06
9.34826e-06
8.37089e-06
8.37751e-06
8.38774e-06
8.39054e-06
8.38998e-06
8.39094e-06
8.39005e-06
8.39071e-06
8.39006e-06
8.39054e-06
8.39012e-06
8.39045e-06
8.39017e-06
8.39038e-06
8.3902e-06
8.39035e-06
8.39022e-06
8.39033e-06
8.39025e-06
8.39031e-06
8.39026e-06
8.3903e-06
8.39027e-06
8.39029e-06
8.39028e-06
8.39028e-06
8.39029e-06
8.39027e-06
8.3903e-06
8.39026e-06
8.39031e-06
8.39025e-06
8.39033e-06
8.39022e-06
8.39035e-06
8.3902e-06
8.39039e-06
8.39017e-06
8.39045e-06
8.39012e-06
8.39054e-06
8.39006e-06
8.3907e-06
8.39005e-06
8.39094e-06
8.38998e-06
8.39054e-06
8.38774e-06
8.37751e-06
8.37089e-06
7.62753e-06
7.63442e-06
7.64522e-06
7.64838e-06
7.64808e-06
7.64904e-06
7.6482e-06
7.64882e-06
7.6482e-06
7.64865e-06
7.64825e-06
7.64856e-06
7.64829e-06
7.6485e-06
7.64832e-06
7.64846e-06
7.64834e-06
7.64844e-06
7.64836e-06
7.64843e-06
7.64838e-06
7.64841e-06
7.64838e-06
7.6484e-06
7.64839e-06
7.64839e-06
7.6484e-06
7.64838e-06
7.64841e-06
7.64838e-06
7.64842e-06
7.64836e-06
7.64844e-06
7.64834e-06
7.64846e-06
7.64832e-06
7.6485e-06
7.64829e-06
7.64856e-06
7.64825e-06
7.64865e-06
7.6482e-06
7.64882e-06
7.6482e-06
7.64904e-06
7.64808e-06
7.64838e-06
7.64522e-06
7.63442e-06
7.62753e-06
7.05838e-06
7.06572e-06
7.07716e-06
7.08073e-06
7.08068e-06
7.08165e-06
7.08086e-06
7.08145e-06
7.08084e-06
7.08127e-06
7.08088e-06
7.08118e-06
7.08092e-06
7.08111e-06
7.08095e-06
7.08108e-06
7.08096e-06
7.08106e-06
7.08098e-06
7.08104e-06
7.08099e-06
7.08103e-06
7.081e-06
7.08102e-06
7.08101e-06
7.08101e-06
7.08102e-06
7.081e-06
7.08103e-06
7.081e-06
7.08104e-06
7.08098e-06
7.08106e-06
7.08096e-06
7.08108e-06
7.08094e-06
7.08111e-06
7.08092e-06
7.08118e-06
7.08088e-06
7.08127e-06
7.08084e-06
7.08145e-06
7.08086e-06
7.08165e-06
7.08068e-06
7.08073e-06
7.07716e-06
7.06572e-06
7.05838e-06
6.61303e-06
6.62096e-06
6.63306e-06
6.63709e-06
6.63726e-06
6.63827e-06
6.6375e-06
6.63808e-06
6.63747e-06
6.63789e-06
6.6375e-06
6.6378e-06
6.63754e-06
6.63773e-06
6.63756e-06
6.6377e-06
6.63758e-06
6.63768e-06
6.6376e-06
6.63766e-06
6.63761e-06
6.63765e-06
6.63762e-06
6.63764e-06
6.63763e-06
6.63763e-06
6.63764e-06
6.63762e-06
6.63765e-06
6.63761e-06
6.63766e-06
6.6376e-06
6.63768e-06
6.63758e-06
6.6377e-06
6.63756e-06
6.63773e-06
6.63754e-06
6.6378e-06
6.6375e-06
6.63789e-06
6.63747e-06
6.63808e-06
6.6375e-06
6.63827e-06
6.63726e-06
6.63709e-06
6.63306e-06
6.62096e-06
6.61303e-06
6.24101e-06
6.24946e-06
6.26192e-06
6.26631e-06
6.2667e-06
6.26774e-06
6.26701e-06
6.26756e-06
6.26697e-06
6.26737e-06
6.26699e-06
6.26727e-06
6.26702e-06
6.2672e-06
6.26704e-06
6.26717e-06
6.26705e-06
6.26715e-06
6.26707e-06
6.26713e-06
6.26708e-06
6.26712e-06
6.26709e-06
6.26711e-06
6.2671e-06
6.2671e-06
6.26711e-06
6.26709e-06
6.26712e-06
6.26708e-06
6.26713e-06
6.26707e-06
6.26715e-06
6.26705e-06
6.26717e-06
6.26704e-06
6.2672e-06
6.26702e-06
6.26727e-06
6.26699e-06
6.26737e-06
6.26697e-06
6.26756e-06
6.26701e-06
6.26773e-06
6.2667e-06
6.26631e-06
6.26192e-06
6.24946e-06
6.24101e-06
5.94488e-06
5.95407e-06
5.96718e-06
5.97203e-06
5.97261e-06
5.97371e-06
5.97299e-06
5.97355e-06
5.97294e-06
5.97334e-06
5.97295e-06
5.97323e-06
5.97298e-06
5.97316e-06
5.973e-06
5.97313e-06
5.97301e-06
5.97311e-06
5.97303e-06
5.97309e-06
5.97304e-06
5.97308e-06
5.97305e-06
5.97307e-06
5.97306e-06
5.97306e-06
5.97307e-06
5.97305e-06
5.97308e-06
5.97304e-06
5.97309e-06
5.97303e-06
5.97311e-06
5.97301e-06
5.97313e-06
5.973e-06
5.97316e-06
5.97298e-06
5.97323e-06
5.97296e-06
5.97334e-06
5.97294e-06
5.97355e-06
5.97299e-06
5.97371e-06
5.97261e-06
5.97203e-06
5.96718e-06
5.95407e-06
5.94488e-06
5.69238e-06
5.70125e-06
5.71403e-06
5.71904e-06
5.71997e-06
5.72103e-06
5.72043e-06
5.72091e-06
5.72037e-06
5.72071e-06
5.72036e-06
5.7206e-06
5.72038e-06
5.72053e-06
5.72039e-06
5.7205e-06
5.72039e-06
5.72048e-06
5.72041e-06
5.72046e-06
5.72042e-06
5.72045e-06
5.72042e-06
5.72044e-06
5.72043e-06
5.72043e-06
5.72044e-06
5.72042e-06
5.72045e-06
5.72042e-06
5.72046e-06
5.72041e-06
5.72048e-06
5.72039e-06
5.7205e-06
5.72039e-06
5.72053e-06
5.72038e-06
5.7206e-06
5.72037e-06
5.72071e-06
5.72037e-06
5.72091e-06
5.72043e-06
5.72103e-06
5.71996e-06
5.71904e-06
5.71403e-06
5.70125e-06
5.69239e-06
5.46628e-06
5.47576e-06
5.48885e-06
5.4942e-06
5.49532e-06
5.49642e-06
5.49586e-06
5.49632e-06
5.49578e-06
5.49611e-06
5.49577e-06
5.496e-06
5.49577e-06
5.49593e-06
5.49578e-06
5.49589e-06
5.49579e-06
5.49587e-06
5.49581e-06
5.49585e-06
5.49581e-06
5.49584e-06
5.49582e-06
5.49583e-06
5.49582e-06
5.49582e-06
5.49583e-06
5.49582e-06
5.49584e-06
5.49581e-06
5.49585e-06
5.49581e-06
5.49587e-06
5.49579e-06
5.49589e-06
5.49578e-06
5.49593e-06
5.49577e-06
5.496e-06
5.49577e-06
5.49611e-06
5.49578e-06
5.49632e-06
5.49586e-06
5.49642e-06
5.49532e-06
5.4942e-06
5.48885e-06
5.47576e-06
5.46628e-06
5.27361e-06
5.28379e-06
5.29732e-06
5.30304e-06
5.30434e-06
5.3055e-06
5.30494e-06
5.3054e-06
5.30486e-06
5.30518e-06
5.30484e-06
5.30506e-06
5.30484e-06
5.30499e-06
5.30484e-06
5.30495e-06
5.30484e-06
5.30493e-06
5.30486e-06
5.30491e-06
5.30487e-06
5.3049e-06
5.30487e-06
5.30489e-06
5.30488e-06
5.30488e-06
5.30489e-06
5.30487e-06
5.3049e-06
5.30487e-06
5.30491e-06
5.30486e-06
5.30493e-06
5.30485e-06
5.30495e-06
5.30484e-06
5.30499e-06
5.30484e-06
5.30506e-06
5.30484e-06
5.30518e-06
5.30486e-06
5.3054e-06
5.30494e-06
5.3055e-06
5.30434e-06
5.30304e-06
5.29732e-06
5.28379e-06
5.27361e-06
5.09425e-06
5.10541e-06
5.11965e-06
5.12594e-06
5.12749e-06
5.12874e-06
5.1282e-06
5.12866e-06
5.1281e-06
5.12842e-06
5.12807e-06
5.12829e-06
5.12806e-06
5.12821e-06
5.12806e-06
5.12817e-06
5.12806e-06
5.12815e-06
5.12808e-06
5.12813e-06
5.12809e-06
5.12812e-06
5.12809e-06
5.12811e-06
5.1281e-06
5.1281e-06
5.12811e-06
5.12809e-06
5.12812e-06
5.12809e-06
5.12813e-06
5.12808e-06
5.12815e-06
5.12806e-06
5.12817e-06
5.12806e-06
5.12821e-06
5.12806e-06
5.12829e-06
5.12807e-06
5.12842e-06
5.1281e-06
5.12866e-06
5.1282e-06
5.12874e-06
5.12749e-06
5.12594e-06
5.11965e-06
5.10541e-06
5.09425e-06
4.93606e-06
4.94792e-06
4.96249e-06
4.9691e-06
4.97082e-06
4.97213e-06
4.97159e-06
4.97205e-06
4.97149e-06
4.9718e-06
4.97144e-06
4.97167e-06
4.97143e-06
4.97158e-06
4.97143e-06
4.97154e-06
4.97143e-06
4.97152e-06
4.97145e-06
4.9715e-06
4.97145e-06
4.97148e-06
4.97146e-06
4.97147e-06
4.97147e-06
4.97147e-06
4.97147e-06
4.97146e-06
4.97148e-06
4.97146e-06
4.9715e-06
4.97145e-06
4.97151e-06
4.97143e-06
4.97154e-06
4.97143e-06
4.97158e-06
4.97143e-06
4.97166e-06
4.97145e-06
4.9718e-06
4.97149e-06
4.97205e-06
4.97159e-06
4.97212e-06
4.97082e-06
4.9691e-06
4.96249e-06
4.94792e-06
4.93606e-06
4.78459e-06
4.79751e-06
4.81279e-06
4.8199e-06
4.82176e-06
4.82316e-06
4.8226e-06
4.82309e-06
4.82249e-06
4.82282e-06
4.82244e-06
4.82267e-06
4.82242e-06
4.82258e-06
4.82242e-06
4.82253e-06
4.82242e-06
4.82251e-06
4.82244e-06
4.82249e-06
4.82244e-06
4.82247e-06
4.82245e-06
4.82246e-06
4.82246e-06
4.82246e-06
4.82246e-06
4.82245e-06
4.82247e-06
4.82244e-06
4.82249e-06
4.82244e-06
4.82251e-06
4.82242e-06
4.82253e-06
4.82242e-06
4.82258e-06
4.82242e-06
4.82267e-06
4.82244e-06
4.82282e-06
4.82249e-06
4.82309e-06
4.8226e-06
4.82316e-06
4.82176e-06
4.8199e-06
4.81279e-06
4.7975e-06
4.78459e-06
4.64315e-06
4.65673e-06
4.67212e-06
4.67945e-06
4.68146e-06
4.68289e-06
4.68235e-06
4.68283e-06
4.68223e-06
4.68255e-06
4.68217e-06
4.68239e-06
4.68215e-06
4.6823e-06
4.68214e-06
4.68225e-06
4.68214e-06
4.68223e-06
4.68216e-06
4.68221e-06
4.68216e-06
4.68219e-06
4.68217e-06
4.68218e-06
4.68218e-06
4.68218e-06
4.68218e-06
4.68217e-06
4.68219e-06
4.68216e-06
4.68221e-06
4.68216e-06
4.68223e-06
4.68214e-06
4.68225e-06
4.68214e-06
4.6823e-06
4.68215e-06
4.68239e-06
4.68217e-06
4.68255e-06
4.68223e-06
4.68282e-06
4.68235e-06
4.68289e-06
4.68145e-06
4.67945e-06
4.67212e-06
4.65673e-06
4.64315e-06
4.51523e-06
4.52956e-06
4.54512e-06
4.55269e-06
4.55483e-06
4.55631e-06
4.55577e-06
4.55625e-06
4.55565e-06
4.55596e-06
4.55558e-06
4.5558e-06
4.55555e-06
4.5557e-06
4.55554e-06
4.55565e-06
4.55554e-06
4.55563e-06
4.55556e-06
4.55561e-06
4.55556e-06
4.55559e-06
4.55556e-06
4.55558e-06
4.55557e-06
4.55557e-06
4.55558e-06
4.55556e-06
4.55559e-06
4.55556e-06
4.55561e-06
4.55556e-06
4.55563e-06
4.55554e-06
4.55565e-06
4.55554e-06
4.5557e-06
4.55555e-06
4.5558e-06
4.55558e-06
4.55596e-06
4.55565e-06
4.55625e-06
4.55577e-06
4.55631e-06
4.55483e-06
4.55269e-06
4.54512e-06
4.52956e-06
4.51523e-06
4.39456e-06
4.40963e-06
4.42533e-06
4.43311e-06
4.43537e-06
4.4369e-06
4.43637e-06
4.43684e-06
4.43623e-06
4.43654e-06
4.43615e-06
4.43637e-06
4.43612e-06
4.43627e-06
4.43611e-06
4.43622e-06
4.4361e-06
4.43619e-06
4.43612e-06
4.43617e-06
4.43613e-06
4.43616e-06
4.43613e-06
4.43615e-06
4.43614e-06
4.43614e-06
4.43615e-06
4.43613e-06
4.43616e-06
4.43613e-06
4.43617e-06
4.43612e-06
4.43619e-06
4.4361e-06
4.43622e-06
4.43611e-06
4.43627e-06
4.43612e-06
4.43637e-06
4.43615e-06
4.43654e-06
4.43623e-06
4.43684e-06
4.43637e-06
4.43689e-06
4.43537e-06
4.43311e-06
4.42533e-06
4.40963e-06
4.39456e-06
4.2802e-06
4.29264e-06
4.30804e-06
4.31589e-06
4.31834e-06
4.3199e-06
4.31942e-06
4.31986e-06
4.31927e-06
4.31954e-06
4.31917e-06
4.31936e-06
4.31912e-06
4.31925e-06
4.3191e-06
4.3192e-06
4.31909e-06
4.31917e-06
4.31911e-06
4.31915e-06
4.31911e-06
4.31914e-06
4.31911e-06
4.31913e-06
4.31912e-06
4.31912e-06
4.31913e-06
4.31911e-06
4.31914e-06
4.31911e-06
4.31915e-06
4.3191e-06
4.31917e-06
4.31909e-06
4.3192e-06
4.3191e-06
4.31926e-06
4.31912e-06
4.31936e-06
4.31917e-06
4.31954e-06
4.31927e-06
4.31986e-06
4.31942e-06
4.31989e-06
4.31834e-06
4.31589e-06
4.30804e-06
4.29264e-06
4.2802e-06
4.17144e-06
4.18438e-06
4.19983e-06
4.20782e-06
4.21037e-06
4.21196e-06
4.21149e-06
4.21193e-06
4.21133e-06
4.2116e-06
4.21122e-06
4.21141e-06
4.21117e-06
4.2113e-06
4.21114e-06
4.21124e-06
4.21113e-06
4.21122e-06
4.21115e-06
4.2112e-06
4.21115e-06
4.21118e-06
4.21115e-06
4.21117e-06
4.21116e-06
4.21116e-06
4.21117e-06
4.21115e-06
4.21118e-06
4.21115e-06
4.2112e-06
4.21115e-06
4.21121e-06
4.21113e-06
4.21124e-06
4.21114e-06
4.2113e-06
4.21117e-06
4.21141e-06
4.21122e-06
4.2116e-06
4.21133e-06
4.21193e-06
4.21149e-06
4.21196e-06
4.21037e-06
4.20782e-06
4.19983e-06
4.18438e-06
4.17144e-06
4.06364e-06
4.07714e-06
4.09281e-06
4.10104e-06
4.10372e-06
4.10537e-06
4.1049e-06
4.10533e-06
4.10473e-06
4.10498e-06
4.1046e-06
4.10479e-06
4.10454e-06
4.10467e-06
4.10451e-06
4.10461e-06
4.1045e-06
4.10458e-06
4.10451e-06
4.10456e-06
4.10452e-06
4.10454e-06
4.10452e-06
4.10453e-06
4.10452e-06
4.10452e-06
4.10453e-06
4.10452e-06
4.10454e-06
4.10452e-06
4.10456e-06
4.10451e-06
4.10458e-06
4.1045e-06
4.10461e-06
4.10451e-06
4.10467e-06
4.10454e-06
4.10479e-06
4.1046e-06
4.10498e-06
4.10473e-06
4.10533e-06
4.1049e-06
4.10536e-06
4.10372e-06
4.10104e-06
4.09281e-06
4.07714e-06
4.06364e-06
3.96034e-06
3.97421e-06
3.98978e-06
3.99806e-06
4.00081e-06
4.00248e-06
4.00202e-06
4.00244e-06
4.00184e-06
4.00208e-06
4.0017e-06
4.00188e-06
4.00164e-06
4.00176e-06
4.0016e-06
4.0017e-06
4.00159e-06
4.00167e-06
4.0016e-06
4.00165e-06
4.0016e-06
4.00163e-06
4.0016e-06
4.00162e-06
4.00161e-06
4.00161e-06
4.00162e-06
4.0016e-06
4.00163e-06
4.00161e-06
4.00165e-06
4.0016e-06
4.00167e-06
4.00159e-06
4.0017e-06
4.00161e-06
4.00176e-06
4.00164e-06
4.00188e-06
4.00171e-06
4.00209e-06
4.00184e-06
4.00244e-06
4.00202e-06
4.00247e-06
4.00081e-06
3.99806e-06
3.98978e-06
3.97421e-06
3.96034e-06
3.86114e-06
3.87535e-06
3.89079e-06
3.89909e-06
3.9019e-06
3.90358e-06
3.90314e-06
3.90354e-06
3.90295e-06
3.90318e-06
3.9028e-06
3.90297e-06
3.90272e-06
3.90284e-06
3.90269e-06
3.90278e-06
3.90267e-06
3.90275e-06
3.90268e-06
3.90273e-06
3.90268e-06
3.90271e-06
3.90268e-06
3.9027e-06
3.90269e-06
3.90269e-06
3.9027e-06
3.90268e-06
3.90271e-06
3.90268e-06
3.90273e-06
3.90268e-06
3.90275e-06
3.90267e-06
3.90278e-06
3.90269e-06
3.90284e-06
3.90272e-06
3.90297e-06
3.9028e-06
3.90318e-06
3.90294e-06
3.90354e-06
3.90314e-06
3.90357e-06
3.9019e-06
3.89909e-06
3.89079e-06
3.87535e-06
3.86114e-06
3.76575e-06
3.78023e-06
3.79554e-06
3.80382e-06
3.80668e-06
3.80836e-06
3.80793e-06
3.80832e-06
3.80773e-06
3.80795e-06
3.80757e-06
3.80773e-06
3.80749e-06
3.8076e-06
3.80745e-06
3.80754e-06
3.80743e-06
3.80751e-06
3.80744e-06
3.80749e-06
3.80744e-06
3.80747e-06
3.80744e-06
3.80746e-06
3.80745e-06
3.80745e-06
3.80746e-06
3.80744e-06
3.80747e-06
3.80744e-06
3.80749e-06
3.80744e-06
3.80751e-06
3.80743e-06
3.80754e-06
3.80745e-06
3.8076e-06
3.80749e-06
3.80773e-06
3.80757e-06
3.80795e-06
3.80773e-06
3.80832e-06
3.80793e-06
3.80835e-06
3.80668e-06
3.80382e-06
3.79554e-06
3.78023e-06
3.76575e-06
3.67389e-06
3.68858e-06
3.70376e-06
3.71198e-06
3.71487e-06
3.71656e-06
3.71614e-06
3.71652e-06
3.71593e-06
3.71613e-06
3.71576e-06
3.71591e-06
3.71567e-06
3.71578e-06
3.71563e-06
3.71572e-06
3.71561e-06
3.71569e-06
3.71562e-06
3.71566e-06
3.71562e-06
3.71565e-06
3.71562e-06
3.71563e-06
3.71563e-06
3.71563e-06
3.71563e-06
3.71562e-06
3.71565e-06
3.71562e-06
3.71566e-06
3.71562e-06
3.71568e-06
3.71561e-06
3.71572e-06
3.71563e-06
3.71578e-06
3.71567e-06
3.71591e-06
3.71576e-06
3.71614e-06
3.71593e-06
3.71652e-06
3.71614e-06
3.71656e-06
3.71487e-06
3.71198e-06
3.70376e-06
3.68858e-06
3.67389e-06
3.58534e-06
3.60019e-06
3.61523e-06
3.62337e-06
3.62628e-06
3.62796e-06
3.62756e-06
3.62792e-06
3.62733e-06
3.62752e-06
3.62715e-06
3.6273e-06
3.62706e-06
3.62716e-06
3.62701e-06
3.6271e-06
3.62699e-06
3.62706e-06
3.627e-06
3.62704e-06
3.627e-06
3.62702e-06
3.627e-06
3.62701e-06
3.62701e-06
3.62701e-06
3.62701e-06
3.627e-06
3.62702e-06
3.627e-06
3.62704e-06
3.627e-06
3.62706e-06
3.62699e-06
3.6271e-06
3.62701e-06
3.62716e-06
3.62706e-06
3.6273e-06
3.62716e-06
3.62752e-06
3.62733e-06
3.62792e-06
3.62756e-06
3.62796e-06
3.62628e-06
3.62337e-06
3.61523e-06
3.60019e-06
3.58534e-06
3.49992e-06
3.51486e-06
3.52975e-06
3.53778e-06
3.5407e-06
3.54238e-06
3.54198e-06
3.54233e-06
3.54175e-06
3.54193e-06
3.54156e-06
3.5417e-06
3.54146e-06
3.54156e-06
3.54141e-06
3.54149e-06
3.54139e-06
3.54146e-06
3.54139e-06
3.54144e-06
3.54139e-06
3.54142e-06
3.54139e-06
3.5414e-06
3.5414e-06
3.5414e-06
3.5414e-06
3.54139e-06
3.54142e-06
3.54139e-06
3.54143e-06
3.54139e-06
3.54146e-06
3.54139e-06
3.54149e-06
3.54141e-06
3.54156e-06
3.54146e-06
3.54169e-06
3.54156e-06
3.54193e-06
3.54175e-06
3.54233e-06
3.54198e-06
3.54238e-06
3.5407e-06
3.53778e-06
3.52974e-06
3.51486e-06
3.49992e-06
3.41745e-06
3.43243e-06
3.44715e-06
3.45507e-06
3.45798e-06
3.45965e-06
3.45926e-06
3.45959e-06
3.45902e-06
3.45918e-06
3.45882e-06
3.45894e-06
3.45871e-06
3.45881e-06
3.45866e-06
3.45873e-06
3.45863e-06
3.4587e-06
3.45864e-06
3.45868e-06
3.45864e-06
3.45866e-06
3.45864e-06
3.45865e-06
3.45864e-06
3.45864e-06
3.45865e-06
3.45864e-06
3.45866e-06
3.45864e-06
3.45868e-06
3.45864e-06
3.4587e-06
3.45863e-06
3.45874e-06
3.45866e-06
3.45881e-06
3.45871e-06
3.45894e-06
3.45882e-06
3.45918e-06
3.45902e-06
3.45959e-06
3.45926e-06
3.45965e-06
3.45798e-06
3.45506e-06
3.44715e-06
3.43243e-06
3.41745e-06
3.33778e-06
3.35276e-06
3.36729e-06
3.37507e-06
3.37798e-06
3.37963e-06
3.37925e-06
3.37956e-06
3.379e-06
3.37915e-06
3.37879e-06
3.3789e-06
3.37867e-06
3.37876e-06
3.37862e-06
3.37869e-06
3.37859e-06
3.37866e-06
3.37859e-06
3.37863e-06
3.37859e-06
3.37862e-06
3.37859e-06
3.3786e-06
3.3786e-06
3.3786e-06
3.3786e-06
3.37859e-06
3.37862e-06
3.37859e-06
3.37863e-06
3.37859e-06
3.37866e-06
3.37859e-06
3.37869e-06
3.37862e-06
3.37876e-06
3.37867e-06
3.3789e-06
3.37879e-06
3.37915e-06
3.379e-06
3.37956e-06
3.37925e-06
3.37963e-06
3.37798e-06
3.37507e-06
3.36729e-06
3.35276e-06
3.33778e-06
3.26079e-06
3.27571e-06
3.29004e-06
3.29768e-06
3.30056e-06
3.3022e-06
3.30182e-06
3.30212e-06
3.30156e-06
3.30169e-06
3.30134e-06
3.30145e-06
3.30122e-06
3.3013e-06
3.30116e-06
3.30123e-06
3.30113e-06
3.30119e-06
3.30113e-06
3.30117e-06
3.30113e-06
3.30115e-06
3.30113e-06
3.30114e-06
3.30113e-06
3.30113e-06
3.30114e-06
3.30113e-06
3.30115e-06
3.30113e-06
3.30117e-06
3.30113e-06
3.30119e-06
3.30113e-06
3.30123e-06
3.30116e-06
3.3013e-06
3.30122e-06
3.30144e-06
3.30134e-06
3.30169e-06
3.30156e-06
3.30212e-06
3.30182e-06
3.30219e-06
3.30056e-06
3.29768e-06
3.29003e-06
3.27571e-06
3.26079e-06
3.18635e-06
3.20117e-06
3.21527e-06
3.22277e-06
3.22561e-06
3.22723e-06
3.22686e-06
3.22714e-06
3.22658e-06
3.22671e-06
3.22635e-06
3.22645e-06
3.22623e-06
3.22631e-06
3.22616e-06
3.22623e-06
3.22614e-06
3.2262e-06
3.22614e-06
3.22618e-06
3.22614e-06
3.22616e-06
3.22613e-06
3.22615e-06
3.22614e-06
3.22614e-06
3.22615e-06
3.22613e-06
3.22616e-06
3.22614e-06
3.22618e-06
3.22614e-06
3.2262e-06
3.22614e-06
3.22623e-06
3.22616e-06
3.22631e-06
3.22623e-06
3.22645e-06
3.22636e-06
3.22671e-06
3.22658e-06
3.22714e-06
3.22685e-06
3.22722e-06
3.22561e-06
3.22277e-06
3.21527e-06
3.20117e-06
3.18635e-06
3.11435e-06
3.12902e-06
3.14289e-06
3.15023e-06
3.15303e-06
3.15462e-06
3.15425e-06
3.15452e-06
3.15397e-06
3.15408e-06
3.15373e-06
3.15383e-06
3.1536e-06
3.15368e-06
3.15354e-06
3.1536e-06
3.15351e-06
3.15357e-06
3.15351e-06
3.15354e-06
3.1535e-06
3.15352e-06
3.1535e-06
3.15351e-06
3.15351e-06
3.15351e-06
3.15351e-06
3.1535e-06
3.15353e-06
3.1535e-06
3.15354e-06
3.15351e-06
3.15356e-06
3.15351e-06
3.1536e-06
3.15354e-06
3.15368e-06
3.1536e-06
3.15383e-06
3.15374e-06
3.15408e-06
3.15397e-06
3.15452e-06
3.15425e-06
3.15462e-06
3.15303e-06
3.15023e-06
3.14289e-06
3.12902e-06
3.11435e-06
3.04469e-06
3.05916e-06
3.0728e-06
3.07997e-06
3.08273e-06
3.08429e-06
3.08392e-06
3.08417e-06
3.08363e-06
3.08373e-06
3.08338e-06
3.08346e-06
3.08324e-06
3.08331e-06
3.08317e-06
3.08324e-06
3.08314e-06
3.0832e-06
3.08314e-06
3.08318e-06
3.08314e-06
3.08316e-06
3.08314e-06
3.08315e-06
3.08314e-06
3.08314e-06
3.08315e-06
3.08314e-06
3.08316e-06
3.08314e-06
3.08318e-06
3.08314e-06
3.0832e-06
3.08314e-06
3.08324e-06
3.08317e-06
3.08331e-06
3.08324e-06
3.08346e-06
3.08338e-06
3.08373e-06
3.08363e-06
3.08417e-06
3.08392e-06
3.08428e-06
3.08272e-06
3.07997e-06
3.0728e-06
3.05916e-06
3.0447e-06
2.97729e-06
2.99149e-06
3.0049e-06
3.0119e-06
3.0146e-06
3.01613e-06
3.01576e-06
3.016e-06
3.01546e-06
3.01555e-06
3.01521e-06
3.01528e-06
3.01506e-06
3.01513e-06
3.01499e-06
3.01505e-06
3.01496e-06
3.01501e-06
3.01496e-06
3.01499e-06
3.01495e-06
3.01497e-06
3.01495e-06
3.01496e-06
3.01496e-06
3.01496e-06
3.01496e-06
3.01495e-06
3.01497e-06
3.01495e-06
3.01499e-06
3.01496e-06
3.01501e-06
3.01496e-06
3.01505e-06
3.01499e-06
3.01513e-06
3.01506e-06
3.01528e-06
3.01521e-06
3.01555e-06
3.01546e-06
3.016e-06
3.01576e-06
3.01612e-06
3.0146e-06
3.0119e-06
3.00489e-06
2.99149e-06
2.97729e-06
2.91205e-06
2.92594e-06
2.9391e-06
2.94593e-06
2.94857e-06
2.95006e-06
2.9497e-06
2.94992e-06
2.94939e-06
2.94946e-06
2.94913e-06
2.94919e-06
2.94898e-06
2.94904e-06
2.9489e-06
2.94896e-06
2.94887e-06
2.94892e-06
2.94887e-06
2.9489e-06
2.94886e-06
2.94888e-06
2.94886e-06
2.94887e-06
2.94886e-06
2.94886e-06
2.94887e-06
2.94886e-06
2.94888e-06
2.94886e-06
2.9489e-06
2.94887e-06
2.94892e-06
2.94887e-06
2.94896e-06
2.9489e-06
2.94904e-06
2.94898e-06
2.94919e-06
2.94913e-06
2.94947e-06
2.94939e-06
2.94992e-06
2.9497e-06
2.95006e-06
2.94857e-06
2.94593e-06
2.9391e-06
2.92594e-06
2.91205e-06
2.84886e-06
2.86244e-06
2.87534e-06
2.88199e-06
2.88456e-06
2.88602e-06
2.88566e-06
2.88586e-06
2.88534e-06
2.8854e-06
2.88506e-06
2.88512e-06
2.88491e-06
2.88497e-06
2.88483e-06
2.88489e-06
2.8848e-06
2.88485e-06
2.88479e-06
2.88483e-06
2.88479e-06
2.88481e-06
2.88479e-06
2.8848e-06
2.88479e-06
2.88479e-06
2.8848e-06
2.88479e-06
2.88481e-06
2.88479e-06
2.88483e-06
2.88479e-06
2.88485e-06
2.8848e-06
2.88489e-06
2.88483e-06
2.88497e-06
2.88491e-06
2.88512e-06
2.88506e-06
2.8854e-06
2.88534e-06
2.88586e-06
2.88566e-06
2.88602e-06
2.88456e-06
2.88199e-06
2.87534e-06
2.86244e-06
2.84886e-06
)
;

boundaryField
{
    fuel
    {
        type            fixedValue;
        value           uniform 0;
    }
    wall
    {
        type            zeroGradient;
    }
    outlet
    {
        type            zeroGradient;
    }
    frontAndBack
    {
        type            empty;
    }
    procBoundary1to0
    {
        type            processor;
        value           nonuniform List<scalar> 
50
(
2.78764e-06
2.80094e-06
2.81353e-06
2.82e-06
2.8225e-06
2.82392e-06
2.82356e-06
2.82374e-06
2.82323e-06
2.82328e-06
2.82295e-06
2.823e-06
2.82279e-06
2.82284e-06
2.82271e-06
2.82276e-06
2.82267e-06
2.82272e-06
2.82267e-06
2.8227e-06
2.82266e-06
2.82268e-06
2.82266e-06
2.82267e-06
2.82266e-06
2.82266e-06
2.82267e-06
2.82266e-06
2.82268e-06
2.82266e-06
2.8227e-06
2.82267e-06
2.82272e-06
2.82267e-06
2.82276e-06
2.82271e-06
2.82284e-06
2.82279e-06
2.823e-06
2.82295e-06
2.82328e-06
2.82323e-06
2.82374e-06
2.82356e-06
2.82392e-06
2.8225e-06
2.82e-06
2.81353e-06
2.80094e-06
2.78764e-06
)
;
    }
}


// ************************************************************************* //
