/*--------------------------------*- C++ -*----------------------------------*\
| =========                 |                                                 |
| \\      /  F ield         | OpenFOAM: The Open Source CFD Toolbox           |
|  \\    /   O peration     | Version:  dev                                   |
|   \\  /    A nd           | Web:      www.OpenFOAM.org                      |
|    \\/     M anipulation  |                                                 |
\*---------------------------------------------------------------------------*/
FoamFile
{
    version     2.0;
    format      ascii;
    class       volScalarField;
    location    "0.075";
    object      HCO;
}
// * * * * * * * * * * * * * * * * * * * * * * * * * * * * * * * * * * * * * //

dimensions      [0 0 0 0 0 0 0];

internalField   nonuniform List<scalar> 
250
(
1.85384e-08
2.09504e-08
2.02919e-08
2.05086e-08
2.03522e-08
1.98043e-08
2.01427e-08
1.9619e-08
2.00051e-08
1.9651e-08
1.628e-08
1.82479e-08
1.76166e-08
1.77887e-08
1.76557e-08
1.7188e-08
1.7483e-08
1.70289e-08
1.73672e-08
1.70567e-08
1.71593e-08
1.72359e-08
1.71611e-08
1.72868e-08
1.73358e-08
1.73441e-08
1.79467e-08
1.75259e-08
1.81819e-08
1.71662e-08
1.4318e-08
1.59196e-08
1.53472e-08
1.54854e-08
1.53749e-08
1.49774e-08
1.52329e-08
1.48426e-08
1.51358e-08
1.48664e-08
1.49557e-08
1.50219e-08
1.49571e-08
1.5064e-08
1.51056e-08
1.51105e-08
1.562e-08
1.52653e-08
1.58635e-08
1.50884e-08
1.26667e-08
1.39697e-08
1.34697e-08
1.35849e-08
1.34917e-08
1.31544e-08
1.3375e-08
1.30406e-08
1.32934e-08
1.30609e-08
1.31381e-08
1.31951e-08
1.31392e-08
1.32299e-08
1.32651e-08
1.32679e-08
1.36992e-08
1.33948e-08
1.39191e-08
1.33095e-08
1.13232e-08
1.23852e-08
1.1956e-08
1.20298e-08
1.19754e-08
1.16873e-08
1.18789e-08
1.15907e-08
1.18096e-08
1.16079e-08
1.1675e-08
1.17245e-08
1.16761e-08
1.17536e-08
1.17835e-08
1.17849e-08
1.2134e-08
1.18865e-08
1.23371e-08
1.18411e-08
1.02356e-08
1.11382e-08
1.07682e-08
1.08237e-08
1.07843e-08
1.05333e-08
1.0703e-08
1.04496e-08
1.06429e-08
1.04646e-08
1.0524e-08
1.05679e-08
1.05251e-08
1.05926e-08
1.06186e-08
1.06192e-08
1.09172e-08
1.07013e-08
1.10899e-08
1.06725e-08
9.42711e-09
1.01858e-08
9.85296e-09
9.89212e-09
9.86348e-09
9.63663e-09
9.79288e-09
9.56147e-09
9.73891e-09
9.5751e-09
9.62968e-09
9.67032e-09
9.63099e-09
9.69183e-09
9.71541e-09
9.71546e-09
9.97898e-09
9.78527e-09
1.01333e-08
9.77478e-09
8.82156e-09
9.46425e-09
9.13896e-09
9.16265e-09
9.14123e-09
8.92528e-09
9.0773e-09
8.85416e-09
9.0267e-09
8.86766e-09
8.92053e-09
8.96031e-09
8.92224e-09
8.97947e-09
9.00245e-09
9.00175e-09
9.24762e-09
9.06652e-09
9.4011e-09
9.09135e-09
8.35252e-09
8.90408e-09
8.56441e-09
8.57465e-09
8.55863e-09
8.34524e-09
8.49908e-09
8.27547e-09
8.45018e-09
8.28964e-09
8.34269e-09
8.38318e-09
8.345e-09
8.4004e-09
8.42405e-09
8.42204e-09
8.66102e-09
8.48487e-09
8.82435e-09
8.55498e-09
8.11908e-09
8.60164e-09
8.26694e-09
8.26674e-09
8.25886e-09
8.05012e-09
8.20318e-09
7.98284e-09
8.15606e-09
7.99714e-09
8.04901e-09
8.09034e-09
8.05206e-09
8.10582e-09
8.12913e-09
8.1263e-09
8.354e-09
8.18203e-09
8.51003e-09
8.2625e-09
8.61941e-09
9.02851e-09
8.66127e-09
8.6267e-09
8.63003e-09
8.3944e-09
8.5693e-09
8.3215e-09
8.51818e-09
8.33919e-09
8.39546e-09
8.44604e-09
8.40057e-09
8.46054e-09
8.48643e-09
8.48426e-09
8.72889e-09
8.55485e-09
8.92378e-09
8.70635e-09
1.08253e-08
1.11043e-08
1.06596e-08
1.05385e-08
1.05722e-08
1.0264e-08
1.049e-08
1.01787e-08
1.04253e-08
1.02023e-08
1.02667e-08
1.03413e-08
1.02765e-08
1.03564e-08
1.03846e-08
1.03889e-08
1.068e-08
1.0499e-08
1.09855e-08
1.08339e-08
2.63674e-08
2.62412e-08
2.52392e-08
2.4645e-08
2.48513e-08
2.39779e-08
2.46111e-08
2.37769e-08
2.44357e-08
2.38506e-08
2.40068e-08
2.42287e-08
2.40393e-08
2.42608e-08
2.43217e-08
2.43543e-08
2.50643e-08
2.472e-08
2.60409e-08
2.60666e-08
)
;

boundaryField
{
    fuel
    {
        type            fixedValue;
        value           nonuniform 0();
    }
    wall
    {
        type            zeroGradient;
    }
    outlet
    {
        type            zeroGradient;
    }
    frontAndBack
    {
        type            empty;
    }
    procBoundary1to0
    {
        type            processor;
        value           nonuniform List<scalar> 
21
(
2.10829e-08
2.40129e-08
2.33673e-08
2.36459e-08
2.34632e-08
2.28307e-08
2.32128e-08
2.26183e-08
2.30514e-08
2.26542e-08
1.97673e-08
1.97673e-08
1.98551e-08
1.97699e-08
1.99163e-08
1.99735e-08
1.99862e-08
2.06929e-08
2.01892e-08
2.08608e-08
1.94998e-08
)
;
    }
}


// ************************************************************************* //
