/*--------------------------------*- C++ -*----------------------------------*\
| =========                 |                                                 |
| \\      /  F ield         | OpenFOAM: The Open Source CFD Toolbox           |
|  \\    /   O peration     | Version:  dev                                   |
|   \\  /    A nd           | Web:      www.OpenFOAM.org                      |
|    \\/     M anipulation  |                                                 |
\*---------------------------------------------------------------------------*/
FoamFile
{
    version     2.0;
    format      ascii;
    class       volScalarField;
    location    "0.075";
    object      l-C6H4;
}
// * * * * * * * * * * * * * * * * * * * * * * * * * * * * * * * * * * * * * //

dimensions      [0 0 0 0 0 0 0];

internalField   nonuniform List<scalar> 
25
(
6.16803e-17
3.50194e-17
2.3845e-17
2.17877e-17
2.71746e-17
4.18796e-17
7.18461e-17
1.29223e-16
2.36583e-16
4.34168e-16
7.91492e-16
1.42498e-15
2.52335e-15
4.38182e-15
7.4449e-15
1.23548e-14
1.99989e-14
3.17836e-14
4.91491e-14
7.38524e-14
1.07863e-13
1.53145e-13
2.11406e-13
2.83797e-13
3.70559e-13
)
;

boundaryField
{
    wall
    {
        type            zeroGradient;
    }
    fuel
    {
        type            fixedValue;
        value           nonuniform 0();
    }
    outlet
    {
        type            inletOutlet;
        inletValue      nonuniform 0();
        value           nonuniform 0();
    }
    procBoundary1to0
    {
        type            processor;
        value           uniform 1.18461e-16;
    }
    procBoundary1to2
    {
        type            processor;
        value           uniform 4.68e-13;
    }
}


// ************************************************************************* //
