/*--------------------------------*- C++ -*----------------------------------*\
| =========                 |                                                 |
| \\      /  F ield         | OpenFOAM: The Open Source CFD Toolbox           |
|  \\    /   O peration     | Version:  dev                                   |
|   \\  /    A nd           | Web:      www.OpenFOAM.org                      |
|    \\/     M anipulation  |                                                 |
\*---------------------------------------------------------------------------*/
FoamFile
{
    version     2.0;
    format      ascii;
    class       volScalarField;
    location    "0.075";
    object      O;
}
// * * * * * * * * * * * * * * * * * * * * * * * * * * * * * * * * * * * * * //

dimensions      [0 0 0 0 0 0 0];

internalField   nonuniform List<scalar> 
25
(
9.70088e-06
8.88122e-06
8.115e-06
7.40118e-06
6.7383e-06
6.12452e-06
5.55773e-06
5.03561e-06
4.55592e-06
4.11616e-06
3.71376e-06
3.34619e-06
3.01101e-06
2.70587e-06
2.42856e-06
2.17702e-06
1.94931e-06
1.73947e-06
1.54937e-06
1.37805e-06
1.22385e-06
1.08524e-06
9.60779e-07
8.49139e-07
7.49078e-07
)
;

boundaryField
{
    wall
    {
        type            zeroGradient;
    }
    fuel
    {
        type            fixedValue;
        value           nonuniform 0();
    }
    outlet
    {
        type            inletOutlet;
        inletValue      nonuniform 0();
        value           nonuniform 0();
    }
    procBoundary1to0
    {
        type            processor;
        value           uniform 1.05746e-05;
    }
    procBoundary1to2
    {
        type            processor;
        value           uniform 6.6168e-07;
    }
}


// ************************************************************************* //
