/*--------------------------------*- C++ -*----------------------------------*\
| =========                 |                                                 |
| \\      /  F ield         | OpenFOAM: The Open Source CFD Toolbox           |
|  \\    /   O peration     | Version:  dev                                   |
|   \\  /    A nd           | Web:      www.OpenFOAM.org                      |
|    \\/     M anipulation  |                                                 |
\*---------------------------------------------------------------------------*/
FoamFile
{
    version     2.0;
    format      ascii;
    class       volScalarField;
    location    "0.075";
    object      O2;
}
// * * * * * * * * * * * * * * * * * * * * * * * * * * * * * * * * * * * * * //

dimensions      [0 0 0 0 0 0 0];

internalField   nonuniform List<scalar> 
2000
(
0.135388
0.135376
0.135355
0.135346
0.135342
0.135342
0.135341
0.135341
0.135341
0.135341
0.135341
0.135341
0.135341
0.135341
0.135341
0.135341
0.135341
0.135341
0.135341
0.135341
0.135341
0.135341
0.135341
0.135341
0.135341
0.135341
0.135341
0.135341
0.135341
0.135341
0.135341
0.135341
0.135341
0.135341
0.135341
0.135341
0.135341
0.135341
0.135341
0.135341
0.135341
0.135341
0.135341
0.135341
0.135342
0.135342
0.135346
0.135355
0.135376
0.135388
0.078431
0.0784198
0.0783929
0.0783816
0.0783741
0.0783744
0.0783722
0.0783735
0.0783724
0.0783733
0.0783726
0.0783732
0.0783728
0.0783732
0.0783728
0.0783731
0.0783729
0.0783731
0.0783729
0.078373
0.0783729
0.078373
0.078373
0.078373
0.078373
0.078373
0.078373
0.078373
0.078373
0.0783729
0.078373
0.0783729
0.0783731
0.0783729
0.0783731
0.0783728
0.0783732
0.0783727
0.0783732
0.0783726
0.0783733
0.0783724
0.0783735
0.0783722
0.0783744
0.0783741
0.0783816
0.0783929
0.0784198
0.078431
0.0447883
0.0447852
0.0447707
0.0447636
0.0447571
0.0447581
0.0447558
0.0447572
0.044756
0.044757
0.0447562
0.0447569
0.0447563
0.0447568
0.0447564
0.0447568
0.0447565
0.0447567
0.0447565
0.0447567
0.0447566
0.0447566
0.0447566
0.0447566
0.0447566
0.0447566
0.0447566
0.0447566
0.0447566
0.0447566
0.0447567
0.0447565
0.0447567
0.0447565
0.0447568
0.0447564
0.0447568
0.0447563
0.0447569
0.0447562
0.044757
0.044756
0.0447572
0.0447558
0.0447581
0.0447571
0.0447636
0.0447707
0.0447852
0.0447883
0.0257472
0.0257468
0.0257405
0.0257359
0.025731
0.0257319
0.02573
0.0257313
0.0257302
0.0257311
0.0257304
0.025731
0.0257305
0.0257309
0.0257306
0.0257309
0.0257306
0.0257308
0.0257307
0.0257308
0.0257307
0.0257308
0.0257307
0.0257307
0.0257307
0.0257307
0.0257307
0.0257307
0.0257307
0.0257307
0.0257308
0.0257307
0.0257308
0.0257306
0.0257309
0.0257306
0.0257309
0.0257305
0.025731
0.0257304
0.0257311
0.0257302
0.0257313
0.02573
0.025732
0.025731
0.0257359
0.0257405
0.0257468
0.0257472
0.0150015
0.0150022
0.0150009
0.0149983
0.0149948
0.0149956
0.0149941
0.0149951
0.0149942
0.014995
0.0149944
0.0149949
0.0149945
0.0149948
0.0149946
0.0149948
0.0149946
0.0149947
0.0149946
0.0149947
0.0149946
0.0149947
0.0149947
0.0149947
0.0149947
0.0149947
0.0149947
0.0149947
0.0149947
0.0149946
0.0149947
0.0149946
0.0149947
0.0149946
0.0149948
0.0149946
0.0149948
0.0149945
0.0149949
0.0149944
0.014995
0.0149942
0.0149951
0.0149941
0.0149956
0.0149948
0.0149983
0.0150009
0.0150022
0.0150015
0.0089606
0.00896167
0.00896303
0.00896159
0.00895921
0.00895987
0.00895877
0.00895952
0.00895885
0.00895939
0.00895896
0.00895933
0.00895903
0.00895928
0.00895908
0.00895925
0.00895911
0.00895922
0.00895913
0.0089592
0.00895915
0.00895919
0.00895916
0.00895918
0.00895917
0.00895917
0.00895918
0.00895916
0.00895919
0.00895915
0.0089592
0.00895913
0.00895922
0.00895911
0.00895925
0.00895908
0.00895928
0.00895903
0.00895933
0.00895896
0.00895939
0.00895885
0.00895952
0.00895877
0.00895988
0.00895921
0.00896159
0.00896303
0.00896168
0.0089606
0.00551829
0.00551937
0.00552172
0.00552099
0.00551937
0.00551989
0.00551908
0.00551964
0.00551913
0.00551954
0.00551921
0.00551949
0.00551927
0.00551945
0.00551931
0.00551943
0.00551933
0.00551941
0.00551934
0.0055194
0.00551935
0.00551939
0.00551936
0.00551938
0.00551937
0.00551937
0.00551938
0.00551936
0.00551939
0.00551935
0.0055194
0.00551934
0.00551941
0.00551933
0.00551943
0.00551931
0.00551945
0.00551927
0.00551949
0.00551921
0.00551954
0.00551913
0.00551964
0.00551908
0.00551989
0.00551938
0.00552099
0.00552172
0.00551937
0.00551829
0.0035078
0.00350875
0.0035113
0.00351097
0.00350987
0.00351026
0.00350967
0.00351008
0.0035097
0.00351
0.00350976
0.00350997
0.0035098
0.00350994
0.00350983
0.00350992
0.00350984
0.0035099
0.00350986
0.00350989
0.00350986
0.00350989
0.00350987
0.00350988
0.00350987
0.00350987
0.00350988
0.00350987
0.00350989
0.00350986
0.00350989
0.00350986
0.0035099
0.00350984
0.00350992
0.00350983
0.00350994
0.0035098
0.00350997
0.00350976
0.00351001
0.0035097
0.00351008
0.00350967
0.00351026
0.00350987
0.00351097
0.0035113
0.00350875
0.0035078
0.00229864
0.00229947
0.00230189
0.00230179
0.00230102
0.00230133
0.00230088
0.00230119
0.0023009
0.00230113
0.00230094
0.0023011
0.00230098
0.00230108
0.002301
0.00230107
0.00230101
0.00230106
0.00230102
0.00230105
0.00230102
0.00230104
0.00230103
0.00230104
0.00230103
0.00230103
0.00230104
0.00230103
0.00230104
0.00230102
0.00230105
0.00230102
0.00230106
0.00230101
0.00230107
0.002301
0.00230108
0.00230098
0.0023011
0.00230094
0.00230113
0.0023009
0.00230119
0.00230088
0.00230133
0.00230102
0.00230179
0.00230189
0.00229947
0.00229864
0.00154843
0.00154916
0.00155135
0.00155139
0.00155084
0.00155109
0.00155074
0.00155098
0.00155076
0.00155094
0.00155079
0.00155091
0.00155081
0.0015509
0.00155083
0.00155089
0.00155084
0.00155088
0.00155085
0.00155087
0.00155085
0.00155087
0.00155086
0.00155086
0.00155086
0.00155086
0.00155086
0.00155086
0.00155087
0.00155085
0.00155087
0.00155085
0.00155088
0.00155084
0.00155089
0.00155083
0.0015509
0.00155081
0.00155091
0.00155079
0.00155094
0.00155076
0.00155098
0.00155074
0.00155109
0.00155084
0.00155139
0.00155135
0.00154916
0.00154843
0.00106981
0.00107051
0.0010725
0.00107262
0.00107222
0.00107243
0.00107215
0.00107235
0.00107216
0.00107231
0.00107219
0.00107229
0.00107221
0.00107227
0.00107222
0.00107226
0.00107223
0.00107226
0.00107223
0.00107225
0.00107224
0.00107225
0.00107224
0.00107225
0.00107224
0.00107224
0.00107225
0.00107224
0.00107225
0.00107224
0.00107225
0.00107223
0.00107226
0.00107223
0.00107226
0.00107222
0.00107227
0.00107221
0.00107229
0.00107219
0.00107231
0.00107216
0.00107235
0.00107215
0.00107243
0.00107222
0.00107262
0.0010725
0.00107051
0.00106981
0.000744452
0.000745002
0.000746545
0.000746655
0.000746358
0.000746509
0.000746296
0.000746444
0.000746303
0.000746414
0.000746323
0.000746399
0.000746338
0.000746387
0.000746348
0.000746381
0.000746353
0.000746376
0.000746358
0.000746372
0.000746361
0.000746369
0.000746363
0.000746367
0.000746365
0.000746365
0.000746367
0.000746363
0.000746369
0.000746361
0.000746372
0.000746358
0.000746376
0.000746353
0.000746381
0.000746347
0.000746388
0.000746338
0.000746399
0.000746323
0.000746414
0.000746303
0.000746444
0.000746296
0.000746509
0.000746358
0.000746655
0.000746546
0.000745002
0.000744453
0.000533447
0.00053406
0.000535496
0.00053566
0.000535421
0.000535557
0.000535372
0.000535501
0.000535377
0.000535474
0.000535394
0.000535461
0.000535407
0.000535451
0.000535416
0.000535445
0.00053542
0.000535441
0.000535425
0.000535438
0.000535428
0.000535435
0.00053543
0.000535433
0.000535432
0.000535432
0.000535433
0.00053543
0.000535435
0.000535428
0.000535438
0.000535425
0.000535441
0.00053542
0.000535445
0.000535416
0.000535451
0.000535407
0.000535461
0.000535394
0.000535474
0.000535377
0.000535501
0.000535372
0.000535557
0.000535421
0.000535659
0.000535496
0.00053406
0.000533447
0.000387614
0.000387695
0.000388528
0.000388576
0.000388458
0.000388531
0.000388428
0.000388501
0.00038843
0.000388485
0.000388439
0.000388477
0.000388446
0.000388471
0.000388451
0.000388467
0.000388453
0.000388465
0.000388456
0.000388463
0.000388457
0.000388461
0.000388458
0.00038846
0.000388459
0.000388459
0.00038846
0.000388458
0.000388461
0.000388457
0.000388463
0.000388456
0.000388465
0.000388453
0.000388467
0.000388451
0.000388471
0.000388446
0.000388477
0.000388439
0.000388485
0.00038843
0.000388501
0.000388428
0.000388531
0.000388458
0.000388576
0.000388528
0.000387695
0.000387614
0.000282354
0.000282422
0.000283065
0.0002831
0.000283007
0.000283062
0.000282981
0.000283037
0.000282982
0.000283024
0.000282989
0.000283018
0.000282995
0.000283014
0.000282998
0.000283011
0.000283
0.000283009
0.000283002
0.000283008
0.000283003
0.000283006
0.000283004
0.000283006
0.000283005
0.000283005
0.000283006
0.000283004
0.000283006
0.000283003
0.000283007
0.000283002
0.000283009
0.000283
0.000283011
0.000282998
0.000283014
0.000282995
0.000283018
0.000282989
0.000283024
0.000282982
0.000283037
0.000282981
0.000283062
0.000283007
0.0002831
0.000283065
0.000282422
0.000282355
0.00021011
0.000210193
0.000210736
0.000210775
0.000210699
0.000210745
0.000210677
0.000210725
0.000210678
0.000210714
0.000210684
0.000210709
0.000210689
0.000210705
0.000210692
0.000210703
0.000210694
0.000210701
0.000210695
0.0002107
0.000210696
0.000210699
0.000210697
0.000210698
0.000210698
0.000210698
0.000210698
0.000210697
0.000210699
0.000210696
0.0002107
0.000210695
0.000210701
0.000210694
0.000210703
0.000210692
0.000210705
0.000210689
0.000210709
0.000210684
0.000210714
0.000210678
0.000210725
0.000210677
0.000210745
0.000210699
0.000210775
0.000210736
0.000210193
0.00021011
0.000156201
0.00015636
0.000156897
0.000156991
0.000156951
0.000156999
0.000156942
0.000156983
0.000156941
0.000156972
0.000156946
0.000156967
0.000156949
0.000156963
0.000156951
0.000156961
0.000156952
0.000156959
0.000156954
0.000156958
0.000156955
0.000156957
0.000156955
0.000156956
0.000156956
0.000156956
0.000156956
0.000156955
0.000156957
0.000156955
0.000156958
0.000156954
0.000156959
0.000156952
0.000156961
0.000156951
0.000156963
0.000156949
0.000156966
0.000156946
0.000156972
0.000156941
0.000156983
0.000156942
0.000156999
0.000156951
0.000156991
0.000156897
0.00015636
0.000156201
0.000118097
0.000118251
0.000118696
0.000118779
0.00011875
0.00011879
0.000118743
0.000118777
0.000118742
0.000118767
0.000118746
0.000118763
0.000118749
0.00011876
0.00011875
0.000118758
0.000118751
0.000118757
0.000118753
0.000118756
0.000118753
0.000118755
0.000118754
0.000118755
0.000118754
0.000118754
0.000118755
0.000118754
0.000118755
0.000118753
0.000118756
0.000118753
0.000118757
0.000118751
0.000118758
0.00011875
0.00011876
0.000118749
0.000118763
0.000118746
0.000118768
0.000118742
0.000118776
0.000118743
0.00011879
0.00011875
0.000118779
0.000118696
0.000118251
0.000118097
8.89641e-05
8.91721e-05
8.9616e-05
8.97254e-05
8.96999e-05
8.97412e-05
8.96948e-05
8.9728e-05
8.96943e-05
8.97191e-05
8.96979e-05
8.97149e-05
8.97008e-05
8.97118e-05
8.97027e-05
8.97103e-05
8.97036e-05
8.97092e-05
8.9705e-05
8.97083e-05
8.97056e-05
8.97075e-05
8.9706e-05
8.9707e-05
8.97065e-05
8.97066e-05
8.9707e-05
8.9706e-05
8.97075e-05
8.97056e-05
8.97082e-05
8.9705e-05
8.97092e-05
8.97037e-05
8.97103e-05
8.97026e-05
8.97119e-05
8.97008e-05
8.97148e-05
8.96979e-05
8.97192e-05
8.96942e-05
8.97279e-05
8.96948e-05
8.97411e-05
8.96999e-05
8.97254e-05
8.9616e-05
8.91721e-05
8.89641e-05
6.72279e-05
6.74234e-05
6.77773e-05
6.78674e-05
6.78474e-05
6.78801e-05
6.78427e-05
6.78692e-05
6.78422e-05
6.78621e-05
6.78451e-05
6.78587e-05
6.78475e-05
6.78563e-05
6.7849e-05
6.78551e-05
6.78498e-05
6.78543e-05
6.78509e-05
6.78535e-05
6.78514e-05
6.7853e-05
6.78517e-05
6.78525e-05
6.78522e-05
6.78522e-05
6.78525e-05
6.78517e-05
6.7853e-05
6.78514e-05
6.78535e-05
6.78509e-05
6.78542e-05
6.78498e-05
6.78552e-05
6.7849e-05
6.78564e-05
6.78475e-05
6.78587e-05
6.78451e-05
6.78621e-05
6.78421e-05
6.78691e-05
6.78427e-05
6.788e-05
6.78474e-05
6.78674e-05
6.77773e-05
6.74234e-05
6.72279e-05
5.14791e-05
5.16846e-05
5.19828e-05
5.20631e-05
5.20475e-05
5.20751e-05
5.20436e-05
5.20658e-05
5.20431e-05
5.20599e-05
5.20457e-05
5.20571e-05
5.20477e-05
5.20552e-05
5.2049e-05
5.20542e-05
5.20497e-05
5.20535e-05
5.20506e-05
5.20529e-05
5.20511e-05
5.20524e-05
5.20513e-05
5.2052e-05
5.20517e-05
5.20517e-05
5.2052e-05
5.20514e-05
5.20524e-05
5.20511e-05
5.20528e-05
5.20506e-05
5.20534e-05
5.20497e-05
5.20542e-05
5.2049e-05
5.20552e-05
5.20477e-05
5.20571e-05
5.20457e-05
5.20599e-05
5.20431e-05
5.20658e-05
5.20436e-05
5.2075e-05
5.20475e-05
5.20631e-05
5.19828e-05
5.16846e-05
5.14791e-05
3.95809e-05
3.98084e-05
4.00614e-05
4.01331e-05
4.01204e-05
4.01437e-05
4.01169e-05
4.01358e-05
4.01166e-05
4.01308e-05
4.01188e-05
4.01286e-05
4.01207e-05
4.0127e-05
4.01218e-05
4.01262e-05
4.01224e-05
4.01256e-05
4.01232e-05
4.01251e-05
4.01236e-05
4.01247e-05
4.01238e-05
4.01244e-05
4.01242e-05
4.01242e-05
4.01244e-05
4.01238e-05
4.01247e-05
4.01236e-05
4.01251e-05
4.01232e-05
4.01256e-05
4.01224e-05
4.01262e-05
4.01218e-05
4.0127e-05
4.01207e-05
4.01286e-05
4.01189e-05
4.01309e-05
4.01165e-05
4.01358e-05
4.01169e-05
4.01437e-05
4.01204e-05
4.01331e-05
4.00614e-05
3.98084e-05
3.95809e-05
3.0555e-05
3.05533e-05
3.07366e-05
3.07914e-05
3.07867e-05
3.08053e-05
3.0786e-05
3.07998e-05
3.07852e-05
3.07954e-05
3.07863e-05
3.07932e-05
3.07872e-05
3.07917e-05
3.07878e-05
3.0791e-05
3.07881e-05
3.07904e-05
3.07886e-05
3.079e-05
3.07889e-05
3.07897e-05
3.0789e-05
3.07895e-05
3.07893e-05
3.07893e-05
3.07895e-05
3.0789e-05
3.07897e-05
3.07889e-05
3.079e-05
3.07886e-05
3.07904e-05
3.07881e-05
3.0791e-05
3.07878e-05
3.07917e-05
3.07872e-05
3.07932e-05
3.07863e-05
3.07954e-05
3.07852e-05
3.07998e-05
3.0786e-05
3.08053e-05
3.07867e-05
3.07914e-05
3.07366e-05
3.05533e-05
3.0555e-05
2.36914e-05
2.37029e-05
2.38539e-05
2.39011e-05
2.38977e-05
2.39133e-05
2.38971e-05
2.39086e-05
2.38965e-05
2.3905e-05
2.38974e-05
2.39032e-05
2.38982e-05
2.39019e-05
2.38987e-05
2.39013e-05
2.38989e-05
2.39009e-05
2.38994e-05
2.39005e-05
2.38996e-05
2.39003e-05
2.38997e-05
2.39001e-05
2.38999e-05
2.38999e-05
2.39001e-05
2.38997e-05
2.39003e-05
2.38996e-05
2.39005e-05
2.38994e-05
2.39009e-05
2.38989e-05
2.39013e-05
2.38987e-05
2.3902e-05
2.38982e-05
2.39031e-05
2.38974e-05
2.3905e-05
2.38964e-05
2.39086e-05
2.38971e-05
2.39132e-05
2.38976e-05
2.39011e-05
2.38539e-05
2.37029e-05
2.36914e-05
1.82645e-05
1.82869e-05
1.84201e-05
1.84666e-05
1.8466e-05
1.84802e-05
1.84664e-05
1.84762e-05
1.84657e-05
1.84729e-05
1.84663e-05
1.84712e-05
1.84669e-05
1.84701e-05
1.84673e-05
1.84695e-05
1.84675e-05
1.84692e-05
1.84679e-05
1.84689e-05
1.84681e-05
1.84686e-05
1.84682e-05
1.84685e-05
1.84683e-05
1.84683e-05
1.84685e-05
1.84682e-05
1.84686e-05
1.84681e-05
1.84689e-05
1.84679e-05
1.84692e-05
1.84675e-05
1.84696e-05
1.84673e-05
1.84701e-05
1.84669e-05
1.84712e-05
1.84663e-05
1.84729e-05
1.84657e-05
1.84762e-05
1.84664e-05
1.84802e-05
1.8466e-05
1.84666e-05
1.84201e-05
1.82869e-05
1.82645e-05
1.41118e-05
1.41356e-05
1.42427e-05
1.42815e-05
1.42814e-05
1.4293e-05
1.42817e-05
1.42896e-05
1.42811e-05
1.42869e-05
1.42816e-05
1.42855e-05
1.4282e-05
1.42846e-05
1.42824e-05
1.42842e-05
1.42825e-05
1.42839e-05
1.42828e-05
1.42836e-05
1.4283e-05
1.42835e-05
1.42831e-05
1.42833e-05
1.42832e-05
1.42832e-05
1.42833e-05
1.42831e-05
1.42835e-05
1.4283e-05
1.42836e-05
1.42828e-05
1.42839e-05
1.42825e-05
1.42842e-05
1.42824e-05
1.42847e-05
1.42821e-05
1.42855e-05
1.42816e-05
1.42869e-05
1.42811e-05
1.42896e-05
1.42817e-05
1.42929e-05
1.42814e-05
1.42815e-05
1.42427e-05
1.41356e-05
1.41118e-05
1.09251e-05
1.09488e-05
1.10348e-05
1.10671e-05
1.10673e-05
1.10767e-05
1.10675e-05
1.10739e-05
1.1067e-05
1.10717e-05
1.10674e-05
1.10706e-05
1.10678e-05
1.10699e-05
1.1068e-05
1.10695e-05
1.10682e-05
1.10693e-05
1.10684e-05
1.10691e-05
1.10685e-05
1.10689e-05
1.10686e-05
1.10688e-05
1.10687e-05
1.10687e-05
1.10688e-05
1.10686e-05
1.10689e-05
1.10685e-05
1.10691e-05
1.10684e-05
1.10693e-05
1.10682e-05
1.10695e-05
1.1068e-05
1.10699e-05
1.10678e-05
1.10706e-05
1.10674e-05
1.10717e-05
1.1067e-05
1.10739e-05
1.10676e-05
1.10767e-05
1.10673e-05
1.10671e-05
1.10348e-05
1.09488e-05
1.09251e-05
8.47366e-06
8.49626e-06
8.56528e-06
8.59209e-06
8.59246e-06
8.60015e-06
8.59269e-06
8.59785e-06
8.59222e-06
8.59601e-06
8.59253e-06
8.59511e-06
8.59283e-06
8.59452e-06
8.59303e-06
8.59423e-06
8.59314e-06
8.59403e-06
8.59334e-06
8.59387e-06
8.59343e-06
8.59375e-06
8.59349e-06
8.59365e-06
8.59358e-06
8.59358e-06
8.59365e-06
8.59349e-06
8.59375e-06
8.59344e-06
8.59387e-06
8.59334e-06
8.59403e-06
8.59315e-06
8.59423e-06
8.59303e-06
8.59453e-06
8.59283e-06
8.5951e-06
8.59254e-06
8.59601e-06
8.59222e-06
8.59785e-06
8.5927e-06
8.60013e-06
8.59246e-06
8.59208e-06
8.56528e-06
8.49626e-06
8.47367e-06
6.58384e-06
6.60468e-06
6.66009e-06
6.68226e-06
6.68275e-06
6.689e-06
6.68294e-06
6.6871e-06
6.68254e-06
6.68559e-06
6.68278e-06
6.68486e-06
6.68302e-06
6.68438e-06
6.68318e-06
6.68414e-06
6.68326e-06
6.68398e-06
6.68342e-06
6.68385e-06
6.6835e-06
6.68375e-06
6.68355e-06
6.68368e-06
6.68362e-06
6.68362e-06
6.68368e-06
6.68355e-06
6.68375e-06
6.6835e-06
6.68385e-06
6.68342e-06
6.68398e-06
6.68327e-06
6.68414e-06
6.68317e-06
6.68439e-06
6.68302e-06
6.68485e-06
6.68279e-06
6.68559e-06
6.68254e-06
6.6871e-06
6.68294e-06
6.68899e-06
6.68274e-06
6.68226e-06
6.66009e-06
6.60468e-06
6.58384e-06
5.12417e-06
5.14299e-06
5.18745e-06
5.20574e-06
5.20627e-06
5.21136e-06
5.20643e-06
5.20979e-06
5.2061e-06
5.20855e-06
5.20628e-06
5.20795e-06
5.20646e-06
5.20756e-06
5.20659e-06
5.20737e-06
5.20666e-06
5.20724e-06
5.20679e-06
5.20714e-06
5.20685e-06
5.20705e-06
5.20689e-06
5.20699e-06
5.20694e-06
5.20694e-06
5.20699e-06
5.20689e-06
5.20705e-06
5.20685e-06
5.20714e-06
5.20679e-06
5.20724e-06
5.20666e-06
5.20737e-06
5.20659e-06
5.20757e-06
5.20646e-06
5.20794e-06
5.20629e-06
5.20855e-06
5.20609e-06
5.20979e-06
5.20644e-06
5.21135e-06
5.20627e-06
5.20574e-06
5.18745e-06
5.14299e-06
5.12417e-06
3.99485e-06
4.01157e-06
4.04722e-06
4.06227e-06
4.0628e-06
4.06694e-06
4.06294e-06
4.06564e-06
4.06266e-06
4.06462e-06
4.06279e-06
4.06414e-06
4.06294e-06
4.06382e-06
4.06304e-06
4.06366e-06
4.06309e-06
4.06356e-06
4.0632e-06
4.06348e-06
4.06325e-06
4.06341e-06
4.06328e-06
4.06336e-06
4.06332e-06
4.06332e-06
4.06336e-06
4.06328e-06
4.06341e-06
4.06325e-06
4.06348e-06
4.06319e-06
4.06356e-06
4.06309e-06
4.06367e-06
4.06304e-06
4.06383e-06
4.06294e-06
4.06413e-06
4.0628e-06
4.06463e-06
4.06265e-06
4.06564e-06
4.06295e-06
4.06693e-06
4.0628e-06
4.06226e-06
4.04721e-06
4.01157e-06
3.99485e-06
3.11978e-06
3.13447e-06
3.16301e-06
3.17537e-06
3.17589e-06
3.17925e-06
3.17601e-06
3.17818e-06
3.17577e-06
3.17734e-06
3.17587e-06
3.17695e-06
3.17598e-06
3.17669e-06
3.17606e-06
3.17656e-06
3.1761e-06
3.17648e-06
3.17618e-06
3.17641e-06
3.17623e-06
3.17636e-06
3.17625e-06
3.17632e-06
3.17629e-06
3.17629e-06
3.17632e-06
3.17625e-06
3.17636e-06
3.17623e-06
3.17641e-06
3.17618e-06
3.17648e-06
3.1761e-06
3.17656e-06
3.17606e-06
3.17669e-06
3.17598e-06
3.17694e-06
3.17587e-06
3.17735e-06
3.17576e-06
3.17818e-06
3.17601e-06
3.17925e-06
3.17589e-06
3.17537e-06
3.16301e-06
3.13447e-06
3.11978e-06
2.44079e-06
2.45356e-06
2.4764e-06
2.48654e-06
2.48702e-06
2.48975e-06
2.48712e-06
2.48886e-06
2.48692e-06
2.48818e-06
2.48699e-06
2.48785e-06
2.48708e-06
2.48765e-06
2.48714e-06
2.48754e-06
2.48717e-06
2.48748e-06
2.48724e-06
2.48742e-06
2.48727e-06
2.48738e-06
2.48729e-06
2.48735e-06
2.48732e-06
2.48732e-06
2.48735e-06
2.48729e-06
2.48738e-06
2.48727e-06
2.48742e-06
2.48724e-06
2.48748e-06
2.48717e-06
2.48755e-06
2.48714e-06
2.48765e-06
2.48708e-06
2.48785e-06
2.487e-06
2.48818e-06
2.48691e-06
2.48886e-06
2.48712e-06
2.48975e-06
2.48702e-06
2.48654e-06
2.4764e-06
2.45356e-06
2.44079e-06
1.91329e-06
1.92431e-06
1.94256e-06
1.95086e-06
1.9513e-06
1.95352e-06
1.95139e-06
1.95278e-06
1.95121e-06
1.95222e-06
1.95127e-06
1.95196e-06
1.95133e-06
1.95179e-06
1.95138e-06
1.9517e-06
1.9514e-06
1.95165e-06
1.95146e-06
1.95161e-06
1.95148e-06
1.95157e-06
1.9515e-06
1.95155e-06
1.95152e-06
1.95153e-06
1.95155e-06
1.9515e-06
1.95157e-06
1.95149e-06
1.95161e-06
1.95146e-06
1.95165e-06
1.95141e-06
1.95171e-06
1.95138e-06
1.95179e-06
1.95133e-06
1.95195e-06
1.95127e-06
1.95222e-06
1.95121e-06
1.95278e-06
1.95139e-06
1.95351e-06
1.9513e-06
1.95086e-06
1.94256e-06
1.92431e-06
1.91329e-06
1.503e-06
1.51244e-06
1.52702e-06
1.53381e-06
1.53419e-06
1.53599e-06
1.53427e-06
1.53539e-06
1.53412e-06
1.53493e-06
1.53416e-06
1.53471e-06
1.53421e-06
1.53458e-06
1.53424e-06
1.53451e-06
1.53427e-06
1.53446e-06
1.53431e-06
1.53443e-06
1.53433e-06
1.5344e-06
1.53434e-06
1.53438e-06
1.53436e-06
1.53436e-06
1.53438e-06
1.53434e-06
1.5344e-06
1.53433e-06
1.53443e-06
1.53431e-06
1.53446e-06
1.53427e-06
1.53451e-06
1.53424e-06
1.53458e-06
1.53421e-06
1.53471e-06
1.53416e-06
1.53493e-06
1.53412e-06
1.53538e-06
1.53427e-06
1.53599e-06
1.53419e-06
1.5338e-06
1.52702e-06
1.51244e-06
1.503e-06
1.18353e-06
1.19157e-06
1.2032e-06
1.20875e-06
1.20909e-06
1.21055e-06
1.20915e-06
1.21005e-06
1.20903e-06
1.20967e-06
1.20906e-06
1.2095e-06
1.20909e-06
1.20939e-06
1.20912e-06
1.20933e-06
1.20914e-06
1.2093e-06
1.20917e-06
1.20927e-06
1.20919e-06
1.20924e-06
1.2092e-06
1.20923e-06
1.20921e-06
1.20921e-06
1.20923e-06
1.2092e-06
1.20924e-06
1.20919e-06
1.20927e-06
1.20917e-06
1.2093e-06
1.20914e-06
1.20933e-06
1.20912e-06
1.20939e-06
1.20909e-06
1.20949e-06
1.20906e-06
1.20967e-06
1.20903e-06
1.21005e-06
1.20915e-06
1.21055e-06
1.20909e-06
1.20875e-06
1.2032e-06
1.19157e-06
1.18353e-06
9.34516e-07
9.41329e-07
9.50615e-07
9.55143e-07
9.55437e-07
9.56619e-07
9.55491e-07
9.56205e-07
9.55388e-07
9.55898e-07
9.55402e-07
9.55753e-07
9.55428e-07
9.55664e-07
9.55449e-07
9.55618e-07
9.55462e-07
9.5559e-07
9.55489e-07
9.55567e-07
9.55503e-07
9.55549e-07
9.55511e-07
9.55535e-07
9.55524e-07
9.55524e-07
9.55535e-07
9.55511e-07
9.55549e-07
9.55503e-07
9.55567e-07
9.55489e-07
9.5559e-07
9.55462e-07
9.55619e-07
9.55449e-07
9.55664e-07
9.55428e-07
9.55752e-07
9.55404e-07
9.55898e-07
9.55386e-07
9.56205e-07
9.55491e-07
9.56616e-07
9.55437e-07
9.55141e-07
9.50615e-07
9.41328e-07
9.34517e-07
7.40236e-07
7.45974e-07
7.53388e-07
7.57082e-07
7.57335e-07
7.58291e-07
7.5738e-07
7.5795e-07
7.57293e-07
7.57699e-07
7.573e-07
7.5758e-07
7.57319e-07
7.57507e-07
7.57334e-07
7.5747e-07
7.57344e-07
7.57447e-07
7.57366e-07
7.57429e-07
7.57377e-07
7.57414e-07
7.57383e-07
7.57403e-07
7.57394e-07
7.57394e-07
7.57403e-07
7.57384e-07
7.57414e-07
7.57377e-07
7.57429e-07
7.57366e-07
7.57447e-07
7.57345e-07
7.5747e-07
7.57334e-07
7.57507e-07
7.57319e-07
7.57579e-07
7.57301e-07
7.57699e-07
7.57292e-07
7.5795e-07
7.57381e-07
7.58289e-07
7.57335e-07
7.57081e-07
7.53388e-07
7.45973e-07
7.40237e-07
5.88513e-07
5.93314e-07
5.99241e-07
6.02253e-07
6.02469e-07
6.03243e-07
6.02508e-07
6.02962e-07
6.02433e-07
6.02756e-07
6.02435e-07
6.02658e-07
6.02448e-07
6.02598e-07
6.0246e-07
6.02568e-07
6.02467e-07
6.0255e-07
6.02485e-07
6.02535e-07
6.02493e-07
6.02523e-07
6.02498e-07
6.02514e-07
6.02507e-07
6.02507e-07
6.02514e-07
6.02499e-07
6.02523e-07
6.02493e-07
6.02535e-07
6.02484e-07
6.0255e-07
6.02468e-07
6.02569e-07
6.0246e-07
6.02599e-07
6.02448e-07
6.02657e-07
6.02437e-07
6.02756e-07
6.02433e-07
6.02961e-07
6.02508e-07
6.03241e-07
6.02469e-07
6.02252e-07
5.99241e-07
5.93313e-07
5.88514e-07
4.69902e-07
4.7391e-07
4.78649e-07
4.81103e-07
4.81288e-07
4.81914e-07
4.81321e-07
4.81682e-07
4.81257e-07
4.81512e-07
4.81255e-07
4.81432e-07
4.81264e-07
4.81383e-07
4.81272e-07
4.81359e-07
4.81278e-07
4.81344e-07
4.81291e-07
4.81332e-07
4.81298e-07
4.81322e-07
4.81302e-07
4.81315e-07
4.81309e-07
4.81309e-07
4.81315e-07
4.81302e-07
4.81322e-07
4.81298e-07
4.81332e-07
4.81291e-07
4.81344e-07
4.81278e-07
4.81359e-07
4.81272e-07
4.81384e-07
4.81264e-07
4.81432e-07
4.81256e-07
4.81513e-07
4.81257e-07
4.81682e-07
4.81321e-07
4.81913e-07
4.81288e-07
4.81103e-07
4.78649e-07
4.7391e-07
4.69902e-07
)
;

boundaryField
{
    fuel
    {
        type            fixedValue;
        value           uniform 0.1914;
    }
    wall
    {
        type            zeroGradient;
    }
    outlet
    {
        type            inletOutlet;
        inletValue      uniform 0;
        value           nonuniform List<scalar> 
80
(
0.135388
0.078431
0.0447883
0.0257472
0.0150015
0.0089606
0.00551829
0.0035078
0.00229864
0.00154843
0.00106981
0.000744452
0.000533447
0.000387614
0.000282354
0.00021011
0.000156201
0.000118097
8.89641e-05
6.72279e-05
5.14791e-05
3.95809e-05
3.0555e-05
2.36914e-05
1.82645e-05
1.41118e-05
1.09251e-05
8.47366e-06
6.58384e-06
5.12417e-06
3.99485e-06
3.11978e-06
2.44079e-06
1.91329e-06
1.503e-06
1.18353e-06
9.34516e-07
7.40236e-07
5.88513e-07
4.69902e-07
0.135388
0.078431
0.0447883
0.0257472
0.0150015
0.0089606
0.00551829
0.0035078
0.00229864
0.00154843
0.00106981
0.000744453
0.000533447
0.000387614
0.000282355
0.00021011
0.000156201
0.000118097
8.89641e-05
6.72279e-05
5.14791e-05
3.95809e-05
3.0555e-05
2.36914e-05
1.82645e-05
1.41118e-05
1.09251e-05
8.47367e-06
6.58384e-06
5.12417e-06
3.99485e-06
3.11978e-06
2.44079e-06
1.91329e-06
1.503e-06
1.18353e-06
9.34517e-07
7.40237e-07
5.88514e-07
4.69902e-07
)
;
    }
    frontAndBack
    {
        type            empty;
    }
    procBoundary1to0
    {
        type            processor;
        value           nonuniform List<scalar> 
50
(
3.77083e-07
3.80428e-07
3.84217e-07
3.86216e-07
3.86373e-07
3.8688e-07
3.86401e-07
3.86688e-07
3.86347e-07
3.86549e-07
3.86342e-07
3.86482e-07
3.86347e-07
3.86442e-07
3.86353e-07
3.86422e-07
3.86357e-07
3.8641e-07
3.86368e-07
3.864e-07
3.86373e-07
3.86392e-07
3.86376e-07
3.86386e-07
3.86382e-07
3.86382e-07
3.86386e-07
3.86376e-07
3.86392e-07
3.86373e-07
3.864e-07
3.86367e-07
3.8641e-07
3.86357e-07
3.86422e-07
3.86353e-07
3.86443e-07
3.86347e-07
3.86482e-07
3.86343e-07
3.86549e-07
3.86346e-07
3.86688e-07
3.86401e-07
3.86879e-07
3.86373e-07
3.86216e-07
3.84217e-07
3.80428e-07
3.77084e-07
)
;
    }
}


// ************************************************************************* //
