/*--------------------------------*- C++ -*----------------------------------*\
| =========                 |                                                 |
| \\      /  F ield         | OpenFOAM: The Open Source CFD Toolbox           |
|  \\    /   O peration     | Version:  dev                                   |
|   \\  /    A nd           | Web:      www.OpenFOAM.org                      |
|    \\/     M anipulation  |                                                 |
\*---------------------------------------------------------------------------*/
FoamFile
{
    version     2.0;
    format      ascii;
    class       volScalarField;
    location    "0.075";
    object      P2;
}
// * * * * * * * * * * * * * * * * * * * * * * * * * * * * * * * * * * * * * //

dimensions      [0 0 0 0 0 0 0];

internalField   nonuniform List<scalar> 
2000
(
1.49795e-08
1.49591e-08
1.4951e-08
1.49427e-08
1.49426e-08
1.49398e-08
1.49409e-08
1.49396e-08
1.49405e-08
1.49397e-08
1.49404e-08
1.49399e-08
1.49403e-08
1.494e-08
1.49403e-08
1.49401e-08
1.49403e-08
1.49401e-08
1.49402e-08
1.49401e-08
1.49402e-08
1.49402e-08
1.49402e-08
1.49402e-08
1.49402e-08
1.49402e-08
1.49402e-08
1.49402e-08
1.49402e-08
1.49402e-08
1.49401e-08
1.49402e-08
1.49401e-08
1.49403e-08
1.49401e-08
1.49403e-08
1.494e-08
1.49403e-08
1.49399e-08
1.49404e-08
1.49397e-08
1.49405e-08
1.49396e-08
1.49409e-08
1.49398e-08
1.49426e-08
1.49427e-08
1.4951e-08
1.49591e-08
1.49795e-08
2.98303e-08
2.97846e-08
2.9763e-08
2.97439e-08
2.97433e-08
2.97373e-08
2.97395e-08
2.97367e-08
2.97387e-08
2.9737e-08
2.97384e-08
2.97373e-08
2.97383e-08
2.97376e-08
2.97382e-08
2.97377e-08
2.97382e-08
2.97378e-08
2.97381e-08
2.97379e-08
2.97381e-08
2.9738e-08
2.97381e-08
2.9738e-08
2.97381e-08
2.97381e-08
2.9738e-08
2.97381e-08
2.9738e-08
2.97381e-08
2.97379e-08
2.97381e-08
2.97378e-08
2.97382e-08
2.97377e-08
2.97382e-08
2.97376e-08
2.97383e-08
2.97373e-08
2.97384e-08
2.9737e-08
2.97387e-08
2.97367e-08
2.97395e-08
2.97373e-08
2.97432e-08
2.97439e-08
2.9763e-08
2.97846e-08
2.98303e-08
4.85199e-08
4.84578e-08
4.84325e-08
4.8406e-08
4.84044e-08
4.83962e-08
4.83988e-08
4.83951e-08
4.83976e-08
4.83955e-08
4.83973e-08
4.83959e-08
4.83972e-08
4.83963e-08
4.83971e-08
4.83965e-08
4.83971e-08
4.83966e-08
4.8397e-08
4.83967e-08
4.8397e-08
4.83968e-08
4.8397e-08
4.83969e-08
4.83969e-08
4.83969e-08
4.83969e-08
4.8397e-08
4.83968e-08
4.8397e-08
4.83968e-08
4.8397e-08
4.83966e-08
4.83971e-08
4.83965e-08
4.83971e-08
4.83963e-08
4.83972e-08
4.83959e-08
4.83973e-08
4.83955e-08
4.83976e-08
4.83952e-08
4.83988e-08
4.83962e-08
4.84044e-08
4.8406e-08
4.84326e-08
4.84578e-08
4.85199e-08
6.86538e-08
6.85621e-08
6.85175e-08
6.84746e-08
6.8468e-08
6.84566e-08
6.84587e-08
6.84545e-08
6.84572e-08
6.84548e-08
6.84569e-08
6.84553e-08
6.84568e-08
6.84558e-08
6.84568e-08
6.84561e-08
6.84568e-08
6.84563e-08
6.84567e-08
6.84564e-08
6.84567e-08
6.84566e-08
6.84567e-08
6.84566e-08
6.84567e-08
6.84567e-08
6.84566e-08
6.84567e-08
6.84565e-08
6.84567e-08
6.84564e-08
6.84567e-08
6.84563e-08
6.84568e-08
6.84561e-08
6.84568e-08
6.84558e-08
6.84568e-08
6.84553e-08
6.84569e-08
6.84548e-08
6.84572e-08
6.84545e-08
6.84588e-08
6.84566e-08
6.8468e-08
6.84746e-08
6.85176e-08
6.85621e-08
6.86538e-08
8.25887e-08
8.2465e-08
8.23977e-08
8.23353e-08
8.23213e-08
8.2307e-08
8.23079e-08
8.23034e-08
8.23059e-08
8.23036e-08
8.23057e-08
8.23043e-08
8.23057e-08
8.23048e-08
8.23058e-08
8.23052e-08
8.23059e-08
8.23054e-08
8.23058e-08
8.23055e-08
8.23058e-08
8.23056e-08
8.23058e-08
8.23057e-08
8.23058e-08
8.23058e-08
8.23057e-08
8.23058e-08
8.23056e-08
8.23058e-08
8.23055e-08
8.23058e-08
8.23054e-08
8.23059e-08
8.23052e-08
8.23058e-08
8.23048e-08
8.23057e-08
8.23043e-08
8.23057e-08
8.23036e-08
8.23059e-08
8.23034e-08
8.23079e-08
8.2307e-08
8.23213e-08
8.23353e-08
8.23977e-08
8.24649e-08
8.25887e-08
8.90558e-08
8.8911e-08
8.88328e-08
8.8756e-08
8.87348e-08
8.87188e-08
8.87177e-08
8.87137e-08
8.87154e-08
8.87138e-08
8.87154e-08
8.87144e-08
8.87156e-08
8.8715e-08
8.87158e-08
8.87153e-08
8.87159e-08
8.87155e-08
8.87158e-08
8.87157e-08
8.87159e-08
8.87158e-08
8.87159e-08
8.87159e-08
8.87159e-08
8.87159e-08
8.87159e-08
8.87159e-08
8.87158e-08
8.87159e-08
8.87157e-08
8.87159e-08
8.87155e-08
8.87159e-08
8.87153e-08
8.87158e-08
8.8715e-08
8.87156e-08
8.87144e-08
8.87154e-08
8.87138e-08
8.87154e-08
8.87137e-08
8.87177e-08
8.87188e-08
8.87348e-08
8.87561e-08
8.88328e-08
8.89109e-08
8.90558e-08
8.95773e-08
8.94262e-08
8.93527e-08
8.92693e-08
8.9242e-08
8.9226e-08
8.92223e-08
8.92196e-08
8.92198e-08
8.92193e-08
8.922e-08
8.92198e-08
8.92205e-08
8.92204e-08
8.92208e-08
8.92207e-08
8.9221e-08
8.92208e-08
8.9221e-08
8.92209e-08
8.9221e-08
8.9221e-08
8.92211e-08
8.92211e-08
8.92211e-08
8.92211e-08
8.92211e-08
8.92211e-08
8.9221e-08
8.9221e-08
8.92209e-08
8.9221e-08
8.92208e-08
8.9221e-08
8.92207e-08
8.92208e-08
8.92204e-08
8.92205e-08
8.92198e-08
8.922e-08
8.92193e-08
8.92198e-08
8.92196e-08
8.92223e-08
8.9226e-08
8.92419e-08
8.92694e-08
8.93528e-08
8.94262e-08
8.95773e-08
8.59925e-08
8.58487e-08
8.57927e-08
8.57101e-08
8.56783e-08
8.56638e-08
8.56572e-08
8.56563e-08
8.56547e-08
8.56556e-08
8.56552e-08
8.56559e-08
8.56558e-08
8.56563e-08
8.56562e-08
8.56566e-08
8.56565e-08
8.56567e-08
8.56566e-08
8.56567e-08
8.56567e-08
8.56568e-08
8.56568e-08
8.56569e-08
8.56568e-08
8.56568e-08
8.56569e-08
8.56568e-08
8.56568e-08
8.56567e-08
8.56567e-08
8.56566e-08
8.56567e-08
8.56565e-08
8.56566e-08
8.56563e-08
8.56563e-08
8.56558e-08
8.5656e-08
8.56552e-08
8.56556e-08
8.56547e-08
8.56563e-08
8.56572e-08
8.56638e-08
8.56783e-08
8.57101e-08
8.57927e-08
8.58487e-08
8.59925e-08
7.9885e-08
7.97584e-08
7.9728e-08
7.9652e-08
7.96175e-08
7.96055e-08
7.9596e-08
7.95972e-08
7.95936e-08
7.9596e-08
7.95943e-08
7.95961e-08
7.95952e-08
7.95964e-08
7.95957e-08
7.95965e-08
7.95961e-08
7.95966e-08
7.95962e-08
7.95966e-08
7.95964e-08
7.95966e-08
7.95965e-08
7.95966e-08
7.95966e-08
7.95966e-08
7.95966e-08
7.95965e-08
7.95966e-08
7.95964e-08
7.95966e-08
7.95962e-08
7.95966e-08
7.95961e-08
7.95965e-08
7.95957e-08
7.95964e-08
7.95952e-08
7.95961e-08
7.95943e-08
7.9596e-08
7.95936e-08
7.95972e-08
7.95961e-08
7.96055e-08
7.96175e-08
7.9652e-08
7.9728e-08
7.97584e-08
7.9885e-08
7.24785e-08
7.23753e-08
7.23737e-08
7.23082e-08
7.22727e-08
7.22636e-08
7.22517e-08
7.22548e-08
7.22494e-08
7.22532e-08
7.22503e-08
7.22531e-08
7.22513e-08
7.22532e-08
7.2252e-08
7.22532e-08
7.22524e-08
7.22532e-08
7.22526e-08
7.22532e-08
7.22528e-08
7.22532e-08
7.2253e-08
7.22531e-08
7.22531e-08
7.22531e-08
7.22531e-08
7.2253e-08
7.22531e-08
7.22528e-08
7.22532e-08
7.22526e-08
7.22532e-08
7.22524e-08
7.22532e-08
7.2252e-08
7.22532e-08
7.22513e-08
7.22531e-08
7.22503e-08
7.22532e-08
7.22494e-08
7.22548e-08
7.22518e-08
7.22636e-08
7.22727e-08
7.23082e-08
7.23737e-08
7.23753e-08
7.24785e-08
6.46334e-08
6.45564e-08
6.45831e-08
6.45301e-08
6.4495e-08
6.44889e-08
6.4475e-08
6.44798e-08
6.44728e-08
6.44779e-08
6.44739e-08
6.44775e-08
6.44751e-08
6.44774e-08
6.44758e-08
6.44774e-08
6.44763e-08
6.44773e-08
6.44766e-08
6.44772e-08
6.44768e-08
6.44772e-08
6.44769e-08
6.44771e-08
6.44771e-08
6.44771e-08
6.44771e-08
6.44769e-08
6.44772e-08
6.44768e-08
6.44772e-08
6.44766e-08
6.44773e-08
6.44763e-08
6.44774e-08
6.44758e-08
6.44774e-08
6.44751e-08
6.44775e-08
6.4474e-08
6.44779e-08
6.44728e-08
6.44798e-08
6.44751e-08
6.44889e-08
6.4495e-08
6.45301e-08
6.45832e-08
6.45564e-08
6.46334e-08
5.66024e-08
5.65482e-08
5.65933e-08
5.65513e-08
5.65178e-08
5.65139e-08
5.6499e-08
5.65048e-08
5.6497e-08
5.65027e-08
5.64981e-08
5.65022e-08
5.64993e-08
5.6502e-08
5.65001e-08
5.65019e-08
5.65005e-08
5.65018e-08
5.65009e-08
5.65017e-08
5.65011e-08
5.65016e-08
5.65013e-08
5.65015e-08
5.65014e-08
5.65014e-08
5.65015e-08
5.65013e-08
5.65016e-08
5.65011e-08
5.65017e-08
5.65009e-08
5.65018e-08
5.65005e-08
5.65019e-08
5.65001e-08
5.6502e-08
5.64993e-08
5.65022e-08
5.64982e-08
5.65027e-08
5.64969e-08
5.65048e-08
5.64991e-08
5.65139e-08
5.65178e-08
5.65513e-08
5.65933e-08
5.65482e-08
5.66024e-08
4.93488e-08
4.93194e-08
4.93849e-08
4.93551e-08
4.93236e-08
4.93223e-08
4.93065e-08
4.93133e-08
4.93046e-08
4.9311e-08
4.93058e-08
4.93103e-08
4.9307e-08
4.931e-08
4.93079e-08
4.93099e-08
4.93083e-08
4.93097e-08
4.93087e-08
4.93096e-08
4.93089e-08
4.93095e-08
4.93091e-08
4.93094e-08
4.93093e-08
4.93093e-08
4.93094e-08
4.93091e-08
4.93095e-08
4.93089e-08
4.93096e-08
4.93087e-08
4.93097e-08
4.93083e-08
4.93099e-08
4.93078e-08
4.931e-08
4.9307e-08
4.93103e-08
4.93058e-08
4.9311e-08
4.93045e-08
4.93133e-08
4.93065e-08
4.93223e-08
4.93236e-08
4.93551e-08
4.93849e-08
4.93194e-08
4.93489e-08
4.27111e-08
4.26745e-08
4.27304e-08
4.27042e-08
4.26792e-08
4.26774e-08
4.26643e-08
4.26697e-08
4.26624e-08
4.26676e-08
4.26634e-08
4.26671e-08
4.26644e-08
4.26668e-08
4.2665e-08
4.26667e-08
4.26654e-08
4.26666e-08
4.26657e-08
4.26664e-08
4.26659e-08
4.26664e-08
4.26661e-08
4.26663e-08
4.26662e-08
4.26662e-08
4.26663e-08
4.26661e-08
4.26664e-08
4.26659e-08
4.26664e-08
4.26657e-08
4.26666e-08
4.26654e-08
4.26667e-08
4.2665e-08
4.26668e-08
4.26644e-08
4.26671e-08
4.26634e-08
4.26676e-08
4.26624e-08
4.26697e-08
4.26643e-08
4.26774e-08
4.26792e-08
4.27042e-08
4.27304e-08
4.26745e-08
4.27111e-08
3.66068e-08
3.65853e-08
3.66451e-08
3.66263e-08
3.66041e-08
3.66033e-08
3.65907e-08
3.65961e-08
3.65889e-08
3.6594e-08
3.65899e-08
3.65935e-08
3.65908e-08
3.65932e-08
3.65914e-08
3.65931e-08
3.65918e-08
3.65929e-08
3.65921e-08
3.65928e-08
3.65923e-08
3.65927e-08
3.65924e-08
3.65926e-08
3.65925e-08
3.65925e-08
3.65926e-08
3.65924e-08
3.65927e-08
3.65923e-08
3.65928e-08
3.65921e-08
3.65929e-08
3.65918e-08
3.65931e-08
3.65914e-08
3.65932e-08
3.65908e-08
3.65935e-08
3.65899e-08
3.6594e-08
3.65889e-08
3.65961e-08
3.65907e-08
3.66033e-08
3.66041e-08
3.66263e-08
3.66451e-08
3.65853e-08
3.66068e-08
3.14538e-08
3.14471e-08
3.15124e-08
3.15008e-08
3.14814e-08
3.14817e-08
3.14695e-08
3.1475e-08
3.14678e-08
3.14729e-08
3.14688e-08
3.14723e-08
3.14697e-08
3.1472e-08
3.14703e-08
3.14719e-08
3.14706e-08
3.14717e-08
3.14709e-08
3.14716e-08
3.14711e-08
3.14715e-08
3.14712e-08
3.14714e-08
3.14713e-08
3.14713e-08
3.14714e-08
3.14712e-08
3.14715e-08
3.14711e-08
3.14716e-08
3.14709e-08
3.14717e-08
3.14706e-08
3.14719e-08
3.14703e-08
3.1472e-08
3.14697e-08
3.14723e-08
3.14688e-08
3.14729e-08
3.14678e-08
3.1475e-08
3.14695e-08
3.14817e-08
3.14814e-08
3.15008e-08
3.15124e-08
3.14471e-08
3.14538e-08
2.68317e-08
2.68445e-08
2.69204e-08
2.69204e-08
2.69056e-08
2.69078e-08
2.6896e-08
2.69016e-08
2.68944e-08
2.68994e-08
2.68952e-08
2.68987e-08
2.6896e-08
2.68983e-08
2.68965e-08
2.68981e-08
2.68968e-08
2.6898e-08
2.68971e-08
2.68978e-08
2.68973e-08
2.68977e-08
2.68974e-08
2.68976e-08
2.68975e-08
2.68975e-08
2.68976e-08
2.68974e-08
2.68977e-08
2.68973e-08
2.68978e-08
2.68971e-08
2.6898e-08
2.68968e-08
2.68981e-08
2.68965e-08
2.68983e-08
2.6896e-08
2.68987e-08
2.68952e-08
2.68994e-08
2.68944e-08
2.69016e-08
2.6896e-08
2.69078e-08
2.69055e-08
2.69204e-08
2.69204e-08
2.68445e-08
2.68317e-08
2.29905e-08
2.30135e-08
2.30891e-08
2.30936e-08
2.30813e-08
2.30841e-08
2.30731e-08
2.30785e-08
2.30716e-08
2.30764e-08
2.30723e-08
2.30756e-08
2.30731e-08
2.30752e-08
2.30735e-08
2.30751e-08
2.30738e-08
2.30749e-08
2.30741e-08
2.30748e-08
2.30743e-08
2.30747e-08
2.30744e-08
2.30746e-08
2.30745e-08
2.30745e-08
2.30746e-08
2.30744e-08
2.30747e-08
2.30743e-08
2.30748e-08
2.30741e-08
2.30749e-08
2.30738e-08
2.30751e-08
2.30735e-08
2.30752e-08
2.30731e-08
2.30756e-08
2.30723e-08
2.30764e-08
2.30716e-08
2.30785e-08
2.30732e-08
2.30841e-08
2.30813e-08
2.30936e-08
2.30891e-08
2.30135e-08
2.29905e-08
1.95857e-08
1.96247e-08
1.97078e-08
1.97204e-08
1.97098e-08
1.9714e-08
1.97029e-08
1.97086e-08
1.97015e-08
1.97064e-08
1.97022e-08
1.97057e-08
1.97029e-08
1.97052e-08
1.97034e-08
1.9705e-08
1.97037e-08
1.97049e-08
1.9704e-08
1.97047e-08
1.97042e-08
1.97046e-08
1.97043e-08
1.97045e-08
1.97044e-08
1.97044e-08
1.97045e-08
1.97043e-08
1.97046e-08
1.97042e-08
1.97047e-08
1.9704e-08
1.97049e-08
1.97037e-08
1.9705e-08
1.97034e-08
1.97052e-08
1.97029e-08
1.97057e-08
1.97022e-08
1.97064e-08
1.97015e-08
1.97086e-08
1.97029e-08
1.9714e-08
1.97098e-08
1.97204e-08
1.97078e-08
1.96247e-08
1.95857e-08
1.66826e-08
1.67274e-08
1.68043e-08
1.68184e-08
1.68097e-08
1.68137e-08
1.68036e-08
1.68088e-08
1.68024e-08
1.68068e-08
1.6803e-08
1.68061e-08
1.68037e-08
1.68057e-08
1.68041e-08
1.68055e-08
1.68044e-08
1.68054e-08
1.68046e-08
1.68053e-08
1.68048e-08
1.68052e-08
1.68049e-08
1.68051e-08
1.6805e-08
1.6805e-08
1.68051e-08
1.68049e-08
1.68052e-08
1.68048e-08
1.68053e-08
1.68046e-08
1.68054e-08
1.68044e-08
1.68055e-08
1.68041e-08
1.68057e-08
1.68037e-08
1.68061e-08
1.6803e-08
1.68068e-08
1.68024e-08
1.68088e-08
1.68037e-08
1.68137e-08
1.68097e-08
1.68184e-08
1.68043e-08
1.67274e-08
1.66826e-08
1.43087e-08
1.43603e-08
1.44331e-08
1.44488e-08
1.44417e-08
1.44458e-08
1.44366e-08
1.44414e-08
1.44354e-08
1.44395e-08
1.4436e-08
1.44389e-08
1.44366e-08
1.44385e-08
1.4437e-08
1.44383e-08
1.44372e-08
1.44382e-08
1.44375e-08
1.44381e-08
1.44376e-08
1.4438e-08
1.44377e-08
1.44379e-08
1.44378e-08
1.44378e-08
1.44379e-08
1.44377e-08
1.4438e-08
1.44376e-08
1.44381e-08
1.44375e-08
1.44382e-08
1.44372e-08
1.44383e-08
1.4437e-08
1.44385e-08
1.44366e-08
1.44389e-08
1.4436e-08
1.44395e-08
1.44354e-08
1.44414e-08
1.44366e-08
1.44458e-08
1.44417e-08
1.44488e-08
1.44331e-08
1.43603e-08
1.43088e-08
1.23006e-08
1.23589e-08
1.24273e-08
1.24441e-08
1.24383e-08
1.24424e-08
1.24339e-08
1.24384e-08
1.24328e-08
1.24366e-08
1.24334e-08
1.2436e-08
1.24339e-08
1.24357e-08
1.24343e-08
1.24355e-08
1.24345e-08
1.24354e-08
1.24347e-08
1.24353e-08
1.24349e-08
1.24352e-08
1.2435e-08
1.24351e-08
1.24351e-08
1.24351e-08
1.24351e-08
1.2435e-08
1.24352e-08
1.24349e-08
1.24353e-08
1.24347e-08
1.24354e-08
1.24345e-08
1.24355e-08
1.24343e-08
1.24357e-08
1.24339e-08
1.2436e-08
1.24334e-08
1.24366e-08
1.24328e-08
1.24384e-08
1.24339e-08
1.24424e-08
1.24383e-08
1.24441e-08
1.24273e-08
1.23589e-08
1.23006e-08
1.06052e-08
1.06207e-08
1.06784e-08
1.06939e-08
1.06905e-08
1.06943e-08
1.06872e-08
1.06909e-08
1.06862e-08
1.06892e-08
1.06864e-08
1.06886e-08
1.06868e-08
1.06882e-08
1.06871e-08
1.06881e-08
1.06872e-08
1.0688e-08
1.06874e-08
1.06879e-08
1.06875e-08
1.06878e-08
1.06876e-08
1.06877e-08
1.06877e-08
1.06877e-08
1.06877e-08
1.06876e-08
1.06878e-08
1.06875e-08
1.06879e-08
1.06874e-08
1.0688e-08
1.06872e-08
1.06881e-08
1.06871e-08
1.06882e-08
1.06868e-08
1.06886e-08
1.06865e-08
1.06892e-08
1.06861e-08
1.06909e-08
1.06872e-08
1.06943e-08
1.06905e-08
1.06939e-08
1.06784e-08
1.06207e-08
1.06052e-08
9.17629e-09
9.19491e-09
9.2477e-09
9.26328e-09
9.2608e-09
9.26445e-09
9.25807e-09
9.26139e-09
9.25707e-09
9.25985e-09
9.25731e-09
9.25926e-09
9.25763e-09
9.25893e-09
9.25786e-09
9.25877e-09
9.25799e-09
9.25867e-09
9.25817e-09
9.25858e-09
9.25826e-09
9.2585e-09
9.25832e-09
9.25844e-09
9.25839e-09
9.25839e-09
9.25844e-09
9.25832e-09
9.2585e-09
9.25826e-09
9.25858e-09
9.25817e-09
9.25867e-09
9.25799e-09
9.25878e-09
9.25786e-09
9.25893e-09
9.25763e-09
9.25926e-09
9.25732e-09
9.25985e-09
9.25707e-09
9.26139e-09
9.25808e-09
9.26443e-09
9.2608e-09
9.26328e-09
9.2477e-09
9.19491e-09
9.1763e-09
7.92693e-09
7.94845e-09
7.99875e-09
8.01556e-09
8.01432e-09
8.01809e-09
8.01226e-09
8.01531e-09
8.0113e-09
8.01382e-09
8.01147e-09
8.01324e-09
8.01173e-09
8.01291e-09
8.01192e-09
8.01276e-09
8.01204e-09
8.01266e-09
8.0122e-09
8.01258e-09
8.01228e-09
8.01251e-09
8.01233e-09
8.01245e-09
8.0124e-09
8.0124e-09
8.01245e-09
8.01233e-09
8.01251e-09
8.01229e-09
8.01258e-09
8.0122e-09
8.01266e-09
8.01204e-09
8.01276e-09
8.01192e-09
8.01292e-09
8.01173e-09
8.01324e-09
8.01147e-09
8.01382e-09
8.0113e-09
8.01531e-09
8.01227e-09
8.01807e-09
8.01432e-09
8.01556e-09
7.99875e-09
7.94845e-09
7.92693e-09
6.87294e-09
6.89509e-09
6.94004e-09
6.95599e-09
6.95533e-09
6.9588e-09
6.95365e-09
6.95632e-09
6.95277e-09
6.95497e-09
6.95289e-09
6.95445e-09
6.95311e-09
6.95415e-09
6.95328e-09
6.95402e-09
6.95338e-09
6.95394e-09
6.95352e-09
6.95386e-09
6.9536e-09
6.95379e-09
6.95364e-09
6.95374e-09
6.9537e-09
6.9537e-09
6.95374e-09
6.95364e-09
6.9538e-09
6.9536e-09
6.95386e-09
6.95352e-09
6.95393e-09
6.95338e-09
6.95402e-09
6.95328e-09
6.95416e-09
6.95311e-09
6.95445e-09
6.9529e-09
6.95498e-09
6.95276e-09
6.95632e-09
6.95366e-09
6.95879e-09
6.95533e-09
6.95599e-09
6.94004e-09
6.89509e-09
6.87295e-09
5.98303e-09
6.00535e-09
6.04543e-09
6.06042e-09
6.06023e-09
6.06341e-09
6.05886e-09
6.0612e-09
6.05805e-09
6.05998e-09
6.05814e-09
6.05951e-09
6.05832e-09
6.05924e-09
6.05846e-09
6.05912e-09
6.05855e-09
6.05904e-09
6.05868e-09
6.05898e-09
6.05874e-09
6.05892e-09
6.05878e-09
6.05887e-09
6.05883e-09
6.05883e-09
6.05887e-09
6.05878e-09
6.05892e-09
6.05875e-09
6.05898e-09
6.05868e-09
6.05904e-09
6.05855e-09
6.05912e-09
6.05846e-09
6.05924e-09
6.05832e-09
6.0595e-09
6.05814e-09
6.05998e-09
6.05804e-09
6.0612e-09
6.05886e-09
6.0634e-09
6.06023e-09
6.06041e-09
6.04542e-09
6.00534e-09
5.98303e-09
5.23073e-09
5.2528e-09
5.28853e-09
5.30252e-09
5.30269e-09
5.3056e-09
5.30158e-09
5.30363e-09
5.30084e-09
5.30252e-09
5.3009e-09
5.3021e-09
5.30105e-09
5.30185e-09
5.30117e-09
5.30175e-09
5.30125e-09
5.30168e-09
5.30136e-09
5.30162e-09
5.30142e-09
5.30157e-09
5.30145e-09
5.30153e-09
5.3015e-09
5.3015e-09
5.30153e-09
5.30145e-09
5.30157e-09
5.30142e-09
5.30162e-09
5.30136e-09
5.30168e-09
5.30125e-09
5.30175e-09
5.30117e-09
5.30186e-09
5.30105e-09
5.30209e-09
5.3009e-09
5.30252e-09
5.30084e-09
5.30363e-09
5.30159e-09
5.30559e-09
5.30268e-09
5.30251e-09
5.28853e-09
5.2528e-09
5.23073e-09
4.59369e-09
4.61521e-09
4.6471e-09
4.66006e-09
4.6605e-09
4.66317e-09
4.65962e-09
4.66141e-09
4.65894e-09
4.66041e-09
4.65897e-09
4.66002e-09
4.6591e-09
4.65981e-09
4.6592e-09
4.65971e-09
4.65927e-09
4.65965e-09
4.65937e-09
4.6596e-09
4.65942e-09
4.65956e-09
4.65945e-09
4.65952e-09
4.65949e-09
4.65949e-09
4.65952e-09
4.65945e-09
4.65956e-09
4.65942e-09
4.6596e-09
4.65937e-09
4.65965e-09
4.65927e-09
4.65971e-09
4.6592e-09
4.65981e-09
4.6591e-09
4.66002e-09
4.65898e-09
4.66041e-09
4.65894e-09
4.66141e-09
4.65963e-09
4.66316e-09
4.6605e-09
4.66006e-09
4.6471e-09
4.61521e-09
4.59369e-09
4.05315e-09
4.07392e-09
4.10241e-09
4.11437e-09
4.11501e-09
4.11745e-09
4.11432e-09
4.11588e-09
4.1137e-09
4.11497e-09
4.1137e-09
4.11462e-09
4.11381e-09
4.11443e-09
4.11389e-09
4.11434e-09
4.11395e-09
4.11429e-09
4.11404e-09
4.11425e-09
4.11409e-09
4.11421e-09
4.11411e-09
4.11418e-09
4.11415e-09
4.11415e-09
4.11418e-09
4.11411e-09
4.11421e-09
4.11409e-09
4.11425e-09
4.11404e-09
4.11429e-09
4.11395e-09
4.11434e-09
4.1139e-09
4.11443e-09
4.11381e-09
4.11462e-09
4.11371e-09
4.11497e-09
4.11369e-09
4.11588e-09
4.11432e-09
4.11744e-09
4.11501e-09
4.11436e-09
4.10241e-09
4.07392e-09
4.05316e-09
3.5934e-09
3.61329e-09
3.63877e-09
3.64977e-09
3.65056e-09
3.65279e-09
3.65002e-09
3.65138e-09
3.64945e-09
3.65056e-09
3.64944e-09
3.65024e-09
3.64953e-09
3.65007e-09
3.6496e-09
3.64999e-09
3.64965e-09
3.64995e-09
3.64973e-09
3.64991e-09
3.64977e-09
3.64987e-09
3.64979e-09
3.64985e-09
3.64982e-09
3.64982e-09
3.64985e-09
3.64979e-09
3.64988e-09
3.64977e-09
3.64991e-09
3.64973e-09
3.64995e-09
3.64965e-09
3.64999e-09
3.6496e-09
3.65007e-09
3.64953e-09
3.65024e-09
3.64945e-09
3.65056e-09
3.64945e-09
3.65138e-09
3.65002e-09
3.65278e-09
3.65056e-09
3.64976e-09
3.63877e-09
3.61329e-09
3.5934e-09
3.20132e-09
3.22025e-09
3.24307e-09
3.25317e-09
3.25407e-09
3.2561e-09
3.25365e-09
3.25484e-09
3.25313e-09
3.25409e-09
3.25311e-09
3.25381e-09
3.25317e-09
3.25365e-09
3.25324e-09
3.25358e-09
3.25328e-09
3.25355e-09
3.25335e-09
3.25351e-09
3.25339e-09
3.25348e-09
3.25341e-09
3.25346e-09
3.25343e-09
3.25343e-09
3.25346e-09
3.25341e-09
3.25348e-09
3.25339e-09
3.25351e-09
3.25335e-09
3.25355e-09
3.25328e-09
3.25358e-09
3.25324e-09
3.25365e-09
3.25318e-09
3.2538e-09
3.25311e-09
3.25409e-09
3.25313e-09
3.25484e-09
3.25365e-09
3.25609e-09
3.25407e-09
3.25317e-09
3.24307e-09
3.22025e-09
3.20132e-09
2.86596e-09
2.8839e-09
2.90437e-09
2.91363e-09
2.9146e-09
2.91646e-09
2.9143e-09
2.91533e-09
2.91382e-09
2.91465e-09
2.91378e-09
2.91439e-09
2.91384e-09
2.91425e-09
2.91389e-09
2.91419e-09
2.91393e-09
2.91416e-09
2.91399e-09
2.91413e-09
2.91402e-09
2.9141e-09
2.91404e-09
2.91408e-09
2.91406e-09
2.91406e-09
2.91408e-09
2.91404e-09
2.9141e-09
2.91402e-09
2.91413e-09
2.91399e-09
2.91416e-09
2.91393e-09
2.91419e-09
2.91389e-09
2.91425e-09
2.91384e-09
2.91439e-09
2.91379e-09
2.91465e-09
2.91382e-09
2.91533e-09
2.9143e-09
2.91645e-09
2.9146e-09
2.91363e-09
2.90437e-09
2.8839e-09
2.86597e-09
2.57822e-09
2.59515e-09
2.61356e-09
2.62205e-09
2.62306e-09
2.62476e-09
2.62284e-09
2.62375e-09
2.6224e-09
2.62313e-09
2.62236e-09
2.62289e-09
2.6224e-09
2.62277e-09
2.62245e-09
2.62271e-09
2.62248e-09
2.62269e-09
2.62253e-09
2.62266e-09
2.62256e-09
2.62264e-09
2.62258e-09
2.62262e-09
2.6226e-09
2.6226e-09
2.62262e-09
2.62258e-09
2.62264e-09
2.62256e-09
2.62266e-09
2.62253e-09
2.62269e-09
2.62248e-09
2.62272e-09
2.62245e-09
2.62277e-09
2.6224e-09
2.62289e-09
2.62236e-09
2.62313e-09
2.6224e-09
2.62375e-09
2.62284e-09
2.62475e-09
2.62306e-09
2.62205e-09
2.61356e-09
2.59515e-09
2.57822e-09
2.33052e-09
2.34644e-09
2.36303e-09
2.37082e-09
2.37185e-09
2.3734e-09
2.37171e-09
2.3725e-09
2.3713e-09
2.37194e-09
2.37125e-09
2.37172e-09
2.37128e-09
2.37161e-09
2.37132e-09
2.37156e-09
2.37135e-09
2.37153e-09
2.3714e-09
2.37151e-09
2.37142e-09
2.37149e-09
2.37144e-09
2.37147e-09
2.37146e-09
2.37146e-09
2.37147e-09
2.37144e-09
2.37149e-09
2.37143e-09
2.37151e-09
2.3714e-09
2.37153e-09
2.37135e-09
2.37156e-09
2.37132e-09
2.37161e-09
2.37128e-09
2.37172e-09
2.37126e-09
2.37194e-09
2.3713e-09
2.3725e-09
2.37171e-09
2.3734e-09
2.37185e-09
2.37082e-09
2.36303e-09
2.34644e-09
2.33052e-09
2.11653e-09
2.13147e-09
2.14647e-09
2.15362e-09
2.15464e-09
2.15607e-09
2.15456e-09
2.15525e-09
2.15419e-09
2.15474e-09
2.15414e-09
2.15455e-09
2.15416e-09
2.15444e-09
2.15419e-09
2.1544e-09
2.15422e-09
2.15438e-09
2.15426e-09
2.15436e-09
2.15428e-09
2.15434e-09
2.1543e-09
2.15433e-09
2.15431e-09
2.15431e-09
2.15433e-09
2.1543e-09
2.15434e-09
2.15428e-09
2.15436e-09
2.15426e-09
2.15438e-09
2.15422e-09
2.1544e-09
2.15419e-09
2.15445e-09
2.15416e-09
2.15454e-09
2.15414e-09
2.15474e-09
2.15419e-09
2.15525e-09
2.15456e-09
2.15607e-09
2.15464e-09
2.15362e-09
2.14647e-09
2.13147e-09
2.11653e-09
1.93101e-09
1.94499e-09
1.95858e-09
1.96516e-09
1.96617e-09
1.96748e-09
1.96614e-09
1.96675e-09
1.9658e-09
1.96628e-09
1.96574e-09
1.9661e-09
1.96576e-09
1.96601e-09
1.96578e-09
1.96597e-09
1.96581e-09
1.96595e-09
1.96585e-09
1.96594e-09
1.96587e-09
1.96592e-09
1.96588e-09
1.96591e-09
1.96589e-09
1.96589e-09
1.96591e-09
1.96588e-09
1.96592e-09
1.96587e-09
1.96594e-09
1.96585e-09
1.96595e-09
1.96581e-09
1.96597e-09
1.96578e-09
1.96601e-09
1.96576e-09
1.9661e-09
1.96574e-09
1.96628e-09
1.9658e-09
1.96675e-09
1.96614e-09
1.96748e-09
1.96617e-09
1.96515e-09
1.95858e-09
1.94499e-09
1.93101e-09
1.76958e-09
1.78262e-09
1.79499e-09
1.80104e-09
1.80203e-09
1.80324e-09
1.80204e-09
1.80258e-09
1.80173e-09
1.80215e-09
1.80167e-09
1.80199e-09
1.80168e-09
1.8019e-09
1.8017e-09
1.80187e-09
1.80172e-09
1.80185e-09
1.80176e-09
1.80184e-09
1.80178e-09
1.80183e-09
1.80179e-09
1.80181e-09
1.8018e-09
1.8018e-09
1.80181e-09
1.80179e-09
1.80183e-09
1.80178e-09
1.80184e-09
1.80176e-09
1.80185e-09
1.80173e-09
1.80187e-09
1.8017e-09
1.8019e-09
1.80168e-09
1.80199e-09
1.80167e-09
1.80215e-09
1.80173e-09
1.80258e-09
1.80204e-09
1.80323e-09
1.80203e-09
1.80104e-09
1.79499e-09
1.78262e-09
1.76958e-09
1.62859e-09
1.64072e-09
1.65202e-09
1.65759e-09
1.65856e-09
1.65967e-09
1.6586e-09
1.65907e-09
1.65832e-09
1.65868e-09
1.65825e-09
1.65853e-09
1.65826e-09
1.65846e-09
1.65828e-09
1.65843e-09
1.6583e-09
1.65842e-09
1.65833e-09
1.6584e-09
1.65835e-09
1.65839e-09
1.65836e-09
1.65838e-09
1.65837e-09
1.65837e-09
1.65838e-09
1.65836e-09
1.65839e-09
1.65835e-09
1.6584e-09
1.65833e-09
1.65842e-09
1.6583e-09
1.65843e-09
1.65828e-09
1.65846e-09
1.65826e-09
1.65853e-09
1.65826e-09
1.65868e-09
1.65832e-09
1.65907e-09
1.6586e-09
1.65967e-09
1.65856e-09
1.65759e-09
1.65202e-09
1.64071e-09
1.62859e-09
1.50497e-09
1.51626e-09
1.52661e-09
1.53174e-09
1.53268e-09
1.5337e-09
1.53275e-09
1.53317e-09
1.53249e-09
1.53281e-09
1.53243e-09
1.53267e-09
1.53243e-09
1.53261e-09
1.53245e-09
1.53258e-09
1.53246e-09
1.53257e-09
1.53249e-09
1.53256e-09
1.53251e-09
1.53255e-09
1.53252e-09
1.53254e-09
1.53253e-09
1.53253e-09
1.53254e-09
1.53252e-09
1.53255e-09
1.53251e-09
1.53256e-09
1.53249e-09
1.53257e-09
1.53246e-09
1.53258e-09
1.53245e-09
1.53261e-09
1.53243e-09
1.53267e-09
1.53243e-09
1.53281e-09
1.53249e-09
1.53317e-09
1.53275e-09
1.5337e-09
1.53268e-09
1.53173e-09
1.5266e-09
1.51625e-09
1.50497e-09
)
;

boundaryField
{
    fuel
    {
        type            fixedValue;
        value           uniform 0;
    }
    wall
    {
        type            zeroGradient;
    }
    outlet
    {
        type            zeroGradient;
    }
    frontAndBack
    {
        type            empty;
    }
    procBoundary1to0
    {
        type            processor;
        value           nonuniform List<scalar> 
50
(
1.39616e-09
1.40669e-09
1.41618e-09
1.42091e-09
1.42182e-09
1.42278e-09
1.42192e-09
1.42229e-09
1.42168e-09
1.42197e-09
1.42162e-09
1.42184e-09
1.42162e-09
1.42178e-09
1.42164e-09
1.42176e-09
1.42165e-09
1.42175e-09
1.42168e-09
1.42174e-09
1.42169e-09
1.42173e-09
1.4217e-09
1.42172e-09
1.42171e-09
1.42171e-09
1.42172e-09
1.4217e-09
1.42173e-09
1.42169e-09
1.42174e-09
1.42168e-09
1.42175e-09
1.42165e-09
1.42176e-09
1.42164e-09
1.42178e-09
1.42162e-09
1.42184e-09
1.42162e-09
1.42197e-09
1.42168e-09
1.42229e-09
1.42192e-09
1.42277e-09
1.42182e-09
1.42091e-09
1.41618e-09
1.40669e-09
1.39616e-09
)
;
    }
}


// ************************************************************************* //
