/*--------------------------------*- C++ -*----------------------------------*\
| =========                 |                                                 |
| \\      /  F ield         | OpenFOAM: The Open Source CFD Toolbox           |
|  \\    /   O peration     | Version:  dev                                   |
|   \\  /    A nd           | Web:      www.OpenFOAM.org                      |
|    \\/     M anipulation  |                                                 |
\*---------------------------------------------------------------------------*/
FoamFile
{
    version     2.0;
    format      ascii;
    class       volScalarField;
    location    "0.075";
    object      P2-;
}
// * * * * * * * * * * * * * * * * * * * * * * * * * * * * * * * * * * * * * //

dimensions      [0 0 0 0 0 0 0];

internalField   nonuniform List<scalar> 
2000
(
2.79587e-10
2.7925e-10
2.79365e-10
2.7933e-10
2.79327e-10
2.79309e-10
2.79309e-10
2.79303e-10
2.79305e-10
2.79302e-10
2.79304e-10
2.79303e-10
2.79304e-10
2.79303e-10
2.79304e-10
2.79304e-10
2.79304e-10
2.79304e-10
2.79304e-10
2.79304e-10
2.79305e-10
2.79304e-10
2.79305e-10
2.79305e-10
2.79305e-10
2.79305e-10
2.79305e-10
2.79305e-10
2.79304e-10
2.79305e-10
2.79304e-10
2.79305e-10
2.79304e-10
2.79304e-10
2.79304e-10
2.79304e-10
2.79303e-10
2.79304e-10
2.79303e-10
2.79304e-10
2.79302e-10
2.79305e-10
2.79303e-10
2.79309e-10
2.79309e-10
2.79327e-10
2.7933e-10
2.79365e-10
2.7925e-10
2.79587e-10
7.55799e-10
7.55743e-10
7.56401e-10
7.5646e-10
7.56482e-10
7.56462e-10
7.56454e-10
7.56449e-10
7.56445e-10
7.56445e-10
7.56444e-10
7.56445e-10
7.56445e-10
7.56445e-10
7.56446e-10
7.56446e-10
7.56446e-10
7.56447e-10
7.56447e-10
7.56447e-10
7.56447e-10
7.56447e-10
7.56447e-10
7.56447e-10
7.56447e-10
7.56447e-10
7.56447e-10
7.56447e-10
7.56447e-10
7.56447e-10
7.56447e-10
7.56447e-10
7.56447e-10
7.56446e-10
7.56446e-10
7.56446e-10
7.56445e-10
7.56445e-10
7.56444e-10
7.56444e-10
7.56445e-10
7.56444e-10
7.56449e-10
7.56454e-10
7.56461e-10
7.56482e-10
7.5646e-10
7.56401e-10
7.55743e-10
7.55799e-10
1.65094e-09
1.6512e-09
1.65279e-09
1.653e-09
1.65299e-09
1.65299e-09
1.65293e-09
1.65296e-09
1.65292e-09
1.65294e-09
1.65292e-09
1.65294e-09
1.65293e-09
1.65294e-09
1.65293e-09
1.65294e-09
1.65293e-09
1.65294e-09
1.65293e-09
1.65294e-09
1.65294e-09
1.65294e-09
1.65294e-09
1.65294e-09
1.65294e-09
1.65294e-09
1.65294e-09
1.65294e-09
1.65294e-09
1.65294e-09
1.65294e-09
1.65293e-09
1.65294e-09
1.65293e-09
1.65294e-09
1.65293e-09
1.65294e-09
1.65293e-09
1.65294e-09
1.65292e-09
1.65294e-09
1.65292e-09
1.65296e-09
1.65294e-09
1.65299e-09
1.65299e-09
1.653e-09
1.65279e-09
1.6512e-09
1.65094e-09
2.80878e-09
2.80923e-09
2.81168e-09
2.81186e-09
2.81166e-09
2.81169e-09
2.81152e-09
2.8116e-09
2.81149e-09
2.81157e-09
2.81151e-09
2.81156e-09
2.81152e-09
2.81156e-09
2.81153e-09
2.81155e-09
2.81154e-09
2.81155e-09
2.81154e-09
2.81155e-09
2.81155e-09
2.81155e-09
2.81155e-09
2.81155e-09
2.81155e-09
2.81155e-09
2.81155e-09
2.81155e-09
2.81155e-09
2.81155e-09
2.81155e-09
2.81154e-09
2.81155e-09
2.81154e-09
2.81156e-09
2.81153e-09
2.81156e-09
2.81152e-09
2.81156e-09
2.81151e-09
2.81157e-09
2.81149e-09
2.8116e-09
2.81152e-09
2.81169e-09
2.81166e-09
2.81186e-09
2.81168e-09
2.80923e-09
2.80878e-09
3.74205e-09
3.74206e-09
3.74478e-09
3.74454e-09
3.74397e-09
3.74401e-09
3.74368e-09
3.74384e-09
3.74365e-09
3.74378e-09
3.74367e-09
3.74377e-09
3.7437e-09
3.74376e-09
3.74371e-09
3.74376e-09
3.74372e-09
3.74376e-09
3.74373e-09
3.74375e-09
3.74374e-09
3.74375e-09
3.74374e-09
3.74375e-09
3.74375e-09
3.74375e-09
3.74375e-09
3.74374e-09
3.74375e-09
3.74374e-09
3.74375e-09
3.74373e-09
3.74375e-09
3.74372e-09
3.74376e-09
3.74371e-09
3.74376e-09
3.7437e-09
3.74377e-09
3.74367e-09
3.74379e-09
3.74365e-09
3.74384e-09
3.74368e-09
3.744e-09
3.74397e-09
3.74454e-09
3.74478e-09
3.74206e-09
3.74205e-09
4.205e-09
4.20457e-09
4.20759e-09
4.20694e-09
4.206e-09
4.20604e-09
4.20556e-09
4.20579e-09
4.20551e-09
4.20572e-09
4.20555e-09
4.2057e-09
4.20559e-09
4.20568e-09
4.20561e-09
4.20568e-09
4.20563e-09
4.20567e-09
4.20564e-09
4.20567e-09
4.20565e-09
4.20566e-09
4.20565e-09
4.20566e-09
4.20566e-09
4.20566e-09
4.20566e-09
4.20565e-09
4.20566e-09
4.20565e-09
4.20567e-09
4.20564e-09
4.20567e-09
4.20563e-09
4.20568e-09
4.20561e-09
4.20568e-09
4.20559e-09
4.20569e-09
4.20555e-09
4.20572e-09
4.20551e-09
4.20579e-09
4.20556e-09
4.20604e-09
4.206e-09
4.20694e-09
4.2076e-09
4.20457e-09
4.205e-09
4.2368e-09
4.23636e-09
4.24011e-09
4.2393e-09
4.23809e-09
4.23818e-09
4.23755e-09
4.23787e-09
4.23751e-09
4.23778e-09
4.23756e-09
4.23775e-09
4.2376e-09
4.23773e-09
4.23764e-09
4.23772e-09
4.23765e-09
4.23771e-09
4.23767e-09
4.23771e-09
4.23768e-09
4.2377e-09
4.23769e-09
4.2377e-09
4.23769e-09
4.23769e-09
4.2377e-09
4.23769e-09
4.2377e-09
4.23768e-09
4.23771e-09
4.23767e-09
4.23771e-09
4.23765e-09
4.23772e-09
4.23763e-09
4.23773e-09
4.2376e-09
4.23775e-09
4.23756e-09
4.23778e-09
4.23751e-09
4.23787e-09
4.23755e-09
4.23818e-09
4.23809e-09
4.2393e-09
4.24011e-09
4.23636e-09
4.2368e-09
3.97432e-09
3.9743e-09
3.9791e-09
3.97844e-09
3.97709e-09
3.97726e-09
3.97651e-09
3.97691e-09
3.97646e-09
3.9768e-09
3.97652e-09
3.97676e-09
3.97658e-09
3.97673e-09
3.97662e-09
3.97672e-09
3.97664e-09
3.97671e-09
3.97666e-09
3.9767e-09
3.97667e-09
3.9767e-09
3.97668e-09
3.97669e-09
3.97668e-09
3.97668e-09
3.97669e-09
3.97668e-09
3.9767e-09
3.97667e-09
3.9767e-09
3.97666e-09
3.97671e-09
3.97664e-09
3.97672e-09
3.97662e-09
3.97673e-09
3.97658e-09
3.97676e-09
3.97653e-09
3.9768e-09
3.97646e-09
3.97691e-09
3.97651e-09
3.97726e-09
3.97709e-09
3.97844e-09
3.9791e-09
3.9743e-09
3.97432e-09
3.55143e-09
3.55209e-09
3.55799e-09
3.55768e-09
3.55631e-09
3.55659e-09
3.55575e-09
3.55622e-09
3.55571e-09
3.55609e-09
3.55578e-09
3.55604e-09
3.55584e-09
3.55601e-09
3.55588e-09
3.556e-09
3.5559e-09
3.55598e-09
3.55592e-09
3.55597e-09
3.55593e-09
3.55596e-09
3.55594e-09
3.55596e-09
3.55595e-09
3.55595e-09
3.55596e-09
3.55594e-09
3.55596e-09
3.55593e-09
3.55597e-09
3.55592e-09
3.55598e-09
3.5559e-09
3.556e-09
3.55588e-09
3.55601e-09
3.55584e-09
3.55604e-09
3.55578e-09
3.55609e-09
3.55571e-09
3.55622e-09
3.55575e-09
3.55659e-09
3.55631e-09
3.55768e-09
3.55799e-09
3.55209e-09
3.55143e-09
3.07117e-09
3.0726e-09
3.07943e-09
3.07955e-09
3.07825e-09
3.07862e-09
3.07774e-09
3.07825e-09
3.0777e-09
3.07811e-09
3.07777e-09
3.07806e-09
3.07783e-09
3.07802e-09
3.07787e-09
3.078e-09
3.07789e-09
3.07799e-09
3.07792e-09
3.07797e-09
3.07793e-09
3.07796e-09
3.07794e-09
3.07796e-09
3.07795e-09
3.07795e-09
3.07796e-09
3.07794e-09
3.07796e-09
3.07793e-09
3.07797e-09
3.07792e-09
3.07799e-09
3.07789e-09
3.078e-09
3.07787e-09
3.07802e-09
3.07783e-09
3.07806e-09
3.07777e-09
3.07811e-09
3.0777e-09
3.07825e-09
3.07774e-09
3.07862e-09
3.07825e-09
3.07955e-09
3.07943e-09
3.0726e-09
3.07117e-09
2.59749e-09
2.59963e-09
2.60709e-09
2.60764e-09
2.60647e-09
2.60691e-09
2.60602e-09
2.60655e-09
2.60598e-09
2.60641e-09
2.60605e-09
2.60635e-09
2.60611e-09
2.60631e-09
2.60615e-09
2.60629e-09
2.60618e-09
2.60627e-09
2.6062e-09
2.60626e-09
2.60621e-09
2.60625e-09
2.60622e-09
2.60624e-09
2.60623e-09
2.60623e-09
2.60624e-09
2.60622e-09
2.60625e-09
2.60621e-09
2.60626e-09
2.6062e-09
2.60627e-09
2.60618e-09
2.60629e-09
2.60615e-09
2.60631e-09
2.60611e-09
2.60635e-09
2.60605e-09
2.60641e-09
2.60598e-09
2.60655e-09
2.60602e-09
2.60691e-09
2.60647e-09
2.60764e-09
2.60709e-09
2.59963e-09
2.59749e-09
2.14804e-09
2.15054e-09
2.15788e-09
2.15867e-09
2.15765e-09
2.1581e-09
2.15726e-09
2.15777e-09
2.15723e-09
2.15763e-09
2.15729e-09
2.15758e-09
2.15735e-09
2.15754e-09
2.15739e-09
2.15752e-09
2.15741e-09
2.1575e-09
2.15743e-09
2.15749e-09
2.15745e-09
2.15748e-09
2.15745e-09
2.15747e-09
2.15746e-09
2.15746e-09
2.15747e-09
2.15745e-09
2.15748e-09
2.15745e-09
2.15749e-09
2.15743e-09
2.1575e-09
2.15741e-09
2.15752e-09
2.15739e-09
2.15754e-09
2.15735e-09
2.15757e-09
2.15729e-09
2.15764e-09
2.15723e-09
2.15777e-09
2.15727e-09
2.1581e-09
2.15765e-09
2.15867e-09
2.15788e-09
2.15054e-09
2.14804e-09
1.77252e-09
1.77547e-09
1.78282e-09
1.78388e-09
1.78301e-09
1.78348e-09
1.78268e-09
1.78318e-09
1.78265e-09
1.78304e-09
1.78271e-09
1.78298e-09
1.78277e-09
1.78294e-09
1.7828e-09
1.78292e-09
1.78282e-09
1.78291e-09
1.78284e-09
1.7829e-09
1.78286e-09
1.78289e-09
1.78286e-09
1.78288e-09
1.78287e-09
1.78287e-09
1.78288e-09
1.78286e-09
1.78289e-09
1.78286e-09
1.7829e-09
1.78284e-09
1.78291e-09
1.78282e-09
1.78292e-09
1.7828e-09
1.78294e-09
1.78277e-09
1.78298e-09
1.78271e-09
1.78304e-09
1.78265e-09
1.78318e-09
1.78268e-09
1.78348e-09
1.78301e-09
1.78388e-09
1.78282e-09
1.77547e-09
1.77252e-09
1.45473e-09
1.4566e-09
1.46255e-09
1.46344e-09
1.46289e-09
1.46325e-09
1.46265e-09
1.46302e-09
1.46261e-09
1.46291e-09
1.46266e-09
1.46286e-09
1.4627e-09
1.46283e-09
1.46272e-09
1.46281e-09
1.46273e-09
1.4628e-09
1.46275e-09
1.46279e-09
1.46276e-09
1.46278e-09
1.46277e-09
1.46278e-09
1.46277e-09
1.46277e-09
1.46278e-09
1.46277e-09
1.46278e-09
1.46276e-09
1.46279e-09
1.46275e-09
1.4628e-09
1.46273e-09
1.46281e-09
1.46272e-09
1.46283e-09
1.4627e-09
1.46286e-09
1.46266e-09
1.46291e-09
1.46261e-09
1.46302e-09
1.46265e-09
1.46325e-09
1.46289e-09
1.46344e-09
1.46255e-09
1.4566e-09
1.45473e-09
1.18417e-09
1.18606e-09
1.19134e-09
1.19223e-09
1.19181e-09
1.19213e-09
1.19161e-09
1.19193e-09
1.19157e-09
1.19183e-09
1.19161e-09
1.19179e-09
1.19164e-09
1.19176e-09
1.19166e-09
1.19174e-09
1.19168e-09
1.19173e-09
1.19169e-09
1.19173e-09
1.1917e-09
1.19172e-09
1.1917e-09
1.19171e-09
1.19171e-09
1.19171e-09
1.19171e-09
1.1917e-09
1.19172e-09
1.1917e-09
1.19173e-09
1.19169e-09
1.19173e-09
1.19168e-09
1.19174e-09
1.19166e-09
1.19176e-09
1.19164e-09
1.19179e-09
1.19161e-09
1.19183e-09
1.19157e-09
1.19193e-09
1.19161e-09
1.19213e-09
1.19181e-09
1.19223e-09
1.19134e-09
1.18606e-09
1.18417e-09
9.71961e-10
9.73913e-10
9.78725e-10
9.79644e-10
9.79316e-10
9.7962e-10
9.79153e-10
9.79444e-10
9.79121e-10
9.79352e-10
9.79152e-10
9.79312e-10
9.79182e-10
9.79286e-10
9.79201e-10
9.79273e-10
9.79211e-10
9.79264e-10
9.79225e-10
9.79256e-10
9.79231e-10
9.7925e-10
9.79236e-10
9.79245e-10
9.79241e-10
9.79241e-10
9.79245e-10
9.79236e-10
9.7925e-10
9.79232e-10
9.79256e-10
9.79225e-10
9.79264e-10
9.79211e-10
9.79274e-10
9.79201e-10
9.79286e-10
9.79182e-10
9.79312e-10
9.79153e-10
9.79352e-10
9.7912e-10
9.79444e-10
9.79154e-10
9.7962e-10
9.79315e-10
9.79644e-10
9.78725e-10
9.73913e-10
9.71962e-10
7.94444e-10
7.96666e-10
8.01275e-10
8.02388e-10
8.02215e-10
8.02532e-10
8.02118e-10
8.0238e-10
8.02084e-10
8.0229e-10
8.02107e-10
8.0225e-10
8.02131e-10
8.02224e-10
8.02146e-10
8.02211e-10
8.02154e-10
8.02202e-10
8.02167e-10
8.02195e-10
8.02172e-10
8.02189e-10
8.02176e-10
8.02185e-10
8.02181e-10
8.02181e-10
8.02185e-10
8.02176e-10
8.02189e-10
8.02172e-10
8.02195e-10
8.02166e-10
8.02202e-10
8.02155e-10
8.02212e-10
8.02146e-10
8.02224e-10
8.02131e-10
8.0225e-10
8.02108e-10
8.02291e-10
8.02084e-10
8.0238e-10
8.02118e-10
8.02531e-10
8.02214e-10
8.02388e-10
8.01275e-10
7.96666e-10
7.94445e-10
6.5611e-10
6.58304e-10
6.62408e-10
6.63477e-10
6.63369e-10
6.63657e-10
6.63296e-10
6.63525e-10
6.63265e-10
6.63444e-10
6.63283e-10
6.63408e-10
6.63303e-10
6.63384e-10
6.63316e-10
6.63373e-10
6.63323e-10
6.63365e-10
6.63334e-10
6.63359e-10
6.63339e-10
6.63353e-10
6.63342e-10
6.63349e-10
6.63346e-10
6.63346e-10
6.63349e-10
6.63342e-10
6.63354e-10
6.63339e-10
6.63359e-10
6.63334e-10
6.63365e-10
6.63323e-10
6.63373e-10
6.63316e-10
6.63385e-10
6.63303e-10
6.63408e-10
6.63284e-10
6.63445e-10
6.63264e-10
6.63525e-10
6.63297e-10
6.63656e-10
6.63368e-10
6.63477e-10
6.62408e-10
6.58304e-10
6.5611e-10
5.4057e-10
5.42962e-10
5.46898e-10
5.48057e-10
5.47981e-10
5.48275e-10
5.47929e-10
5.48151e-10
5.479e-10
5.48073e-10
5.47918e-10
5.48038e-10
5.47937e-10
5.48015e-10
5.4795e-10
5.48005e-10
5.47956e-10
5.47997e-10
5.47967e-10
5.47991e-10
5.47972e-10
5.47986e-10
5.47974e-10
5.47982e-10
5.47979e-10
5.47979e-10
5.47982e-10
5.47975e-10
5.47986e-10
5.47972e-10
5.47991e-10
5.47967e-10
5.47997e-10
5.47956e-10
5.48005e-10
5.47949e-10
5.48016e-10
5.47937e-10
5.48038e-10
5.47918e-10
5.48073e-10
5.47899e-10
5.48151e-10
5.47929e-10
5.48275e-10
5.4798e-10
5.48057e-10
5.46898e-10
5.42962e-10
5.4057e-10
4.47197e-10
4.49493e-10
4.52883e-10
4.53933e-10
4.53891e-10
4.54147e-10
4.53851e-10
4.54039e-10
4.53824e-10
4.53971e-10
4.53838e-10
4.5394e-10
4.53854e-10
4.53921e-10
4.53865e-10
4.53912e-10
4.5387e-10
4.53905e-10
4.53879e-10
4.539e-10
4.53884e-10
4.53896e-10
4.53886e-10
4.53892e-10
4.5389e-10
4.5389e-10
4.53892e-10
4.53886e-10
4.53896e-10
4.53884e-10
4.539e-10
4.53879e-10
4.53905e-10
4.5387e-10
4.53912e-10
4.53865e-10
4.53921e-10
4.53854e-10
4.5394e-10
4.53839e-10
4.53971e-10
4.53823e-10
4.54039e-10
4.53851e-10
4.54147e-10
4.53891e-10
4.53933e-10
4.52883e-10
4.49493e-10
4.47198e-10
3.74369e-10
3.7665e-10
3.79644e-10
3.8062e-10
3.80606e-10
3.80837e-10
3.80577e-10
3.80741e-10
3.80551e-10
3.8068e-10
3.80563e-10
3.80653e-10
3.80577e-10
3.80636e-10
3.80586e-10
3.80627e-10
3.80591e-10
3.80622e-10
3.80599e-10
3.80617e-10
3.80603e-10
3.80613e-10
3.80605e-10
3.8061e-10
3.80608e-10
3.80608e-10
3.8061e-10
3.80605e-10
3.80613e-10
3.80603e-10
3.80617e-10
3.80599e-10
3.80622e-10
3.80591e-10
3.80627e-10
3.80586e-10
3.80636e-10
3.80577e-10
3.80653e-10
3.80564e-10
3.8068e-10
3.80551e-10
3.80741e-10
3.80577e-10
3.80836e-10
3.80606e-10
3.8062e-10
3.79644e-10
3.7665e-10
3.74369e-10
3.15271e-10
3.17573e-10
3.20223e-10
3.21128e-10
3.21132e-10
3.2134e-10
3.21111e-10
3.21256e-10
3.21087e-10
3.212e-10
3.21098e-10
3.21176e-10
3.21109e-10
3.21161e-10
3.21117e-10
3.21154e-10
3.21122e-10
3.21149e-10
3.21129e-10
3.21145e-10
3.21132e-10
3.21141e-10
3.21134e-10
3.21139e-10
3.21137e-10
3.21137e-10
3.21139e-10
3.21134e-10
3.21141e-10
3.21132e-10
3.21145e-10
3.21129e-10
3.21149e-10
3.21122e-10
3.21154e-10
3.21117e-10
3.21161e-10
3.21109e-10
3.21176e-10
3.21098e-10
3.21201e-10
3.21087e-10
3.21256e-10
3.21111e-10
3.2134e-10
3.21132e-10
3.21128e-10
3.20223e-10
3.17573e-10
3.15271e-10
2.67156e-10
2.68113e-10
2.70284e-10
2.71071e-10
2.71121e-10
2.71302e-10
2.71119e-10
2.71234e-10
2.71095e-10
2.71183e-10
2.71098e-10
2.7116e-10
2.71104e-10
2.71145e-10
2.71109e-10
2.71138e-10
2.71112e-10
2.71133e-10
2.71117e-10
2.7113e-10
2.71119e-10
2.71127e-10
2.71121e-10
2.71125e-10
2.71123e-10
2.71123e-10
2.71125e-10
2.71121e-10
2.71127e-10
2.71119e-10
2.7113e-10
2.71117e-10
2.71133e-10
2.71112e-10
2.71138e-10
2.71109e-10
2.71145e-10
2.71104e-10
2.71159e-10
2.71098e-10
2.71183e-10
2.71094e-10
2.71234e-10
2.71119e-10
2.71302e-10
2.71121e-10
2.71071e-10
2.70284e-10
2.68113e-10
2.67156e-10
2.27865e-10
2.28807e-10
2.30711e-10
2.3143e-10
2.31488e-10
2.31651e-10
2.31491e-10
2.31591e-10
2.31468e-10
2.31545e-10
2.3147e-10
2.31524e-10
2.31475e-10
2.31511e-10
2.31479e-10
2.31504e-10
2.31481e-10
2.315e-10
2.31486e-10
2.31497e-10
2.31488e-10
2.31495e-10
2.31489e-10
2.31493e-10
2.31491e-10
2.31491e-10
2.31493e-10
2.31489e-10
2.31495e-10
2.31488e-10
2.31497e-10
2.31486e-10
2.315e-10
2.31481e-10
2.31504e-10
2.31479e-10
2.31511e-10
2.31475e-10
2.31524e-10
2.31471e-10
2.31545e-10
2.31468e-10
2.31591e-10
2.31491e-10
2.3165e-10
2.31488e-10
2.3143e-10
2.30711e-10
2.28807e-10
2.27865e-10
1.94445e-10
1.95381e-10
1.97108e-10
1.97802e-10
1.97877e-10
1.98031e-10
1.97888e-10
1.97977e-10
1.97866e-10
1.97934e-10
1.97866e-10
1.97914e-10
1.9787e-10
1.97901e-10
1.97873e-10
1.97895e-10
1.97875e-10
1.97892e-10
1.97879e-10
1.97889e-10
1.97881e-10
1.97886e-10
1.97882e-10
1.97885e-10
1.97883e-10
1.97883e-10
1.97885e-10
1.97882e-10
1.97887e-10
1.97881e-10
1.97889e-10
1.97879e-10
1.97892e-10
1.97875e-10
1.97895e-10
1.97873e-10
1.97901e-10
1.9787e-10
1.97914e-10
1.97867e-10
1.97934e-10
1.97866e-10
1.97977e-10
1.97889e-10
1.98031e-10
1.97877e-10
1.97802e-10
1.97107e-10
1.9538e-10
1.94445e-10
1.66909e-10
1.67793e-10
1.69291e-10
1.69916e-10
1.69992e-10
1.70128e-10
1.70005e-10
1.70081e-10
1.69984e-10
1.70042e-10
1.69984e-10
1.70024e-10
1.69986e-10
1.70013e-10
1.69988e-10
1.70008e-10
1.6999e-10
1.70005e-10
1.69993e-10
1.70002e-10
1.69995e-10
1.7e-10
1.69996e-10
1.69998e-10
1.69997e-10
1.69997e-10
1.69998e-10
1.69996e-10
1.7e-10
1.69995e-10
1.70002e-10
1.69993e-10
1.70005e-10
1.6999e-10
1.70008e-10
1.69988e-10
1.70013e-10
1.69986e-10
1.70024e-10
1.69984e-10
1.70042e-10
1.69984e-10
1.70081e-10
1.70005e-10
1.70128e-10
1.69992e-10
1.69916e-10
1.69291e-10
1.67792e-10
1.66909e-10
1.4412e-10
1.44952e-10
1.46255e-10
1.46817e-10
1.46893e-10
1.47014e-10
1.46907e-10
1.46971e-10
1.46888e-10
1.46937e-10
1.46886e-10
1.46921e-10
1.46888e-10
1.46911e-10
1.4689e-10
1.46906e-10
1.46891e-10
1.46903e-10
1.46894e-10
1.46901e-10
1.46895e-10
1.46899e-10
1.46896e-10
1.46898e-10
1.46897e-10
1.46897e-10
1.46898e-10
1.46896e-10
1.46899e-10
1.46895e-10
1.46901e-10
1.46894e-10
1.46903e-10
1.46891e-10
1.46906e-10
1.4689e-10
1.46911e-10
1.46888e-10
1.4692e-10
1.46886e-10
1.46937e-10
1.46888e-10
1.46971e-10
1.46907e-10
1.47013e-10
1.46893e-10
1.46817e-10
1.46255e-10
1.44952e-10
1.4412e-10
1.25177e-10
1.25957e-10
1.27094e-10
1.27598e-10
1.27673e-10
1.2778e-10
1.27687e-10
1.27743e-10
1.2767e-10
1.27712e-10
1.27668e-10
1.27697e-10
1.27669e-10
1.27688e-10
1.2767e-10
1.27684e-10
1.27671e-10
1.27682e-10
1.27673e-10
1.2768e-10
1.27674e-10
1.27678e-10
1.27675e-10
1.27677e-10
1.27676e-10
1.27676e-10
1.27677e-10
1.27675e-10
1.27678e-10
1.27674e-10
1.2768e-10
1.27673e-10
1.27682e-10
1.27671e-10
1.27684e-10
1.2767e-10
1.27689e-10
1.27669e-10
1.27697e-10
1.27668e-10
1.27712e-10
1.2767e-10
1.27743e-10
1.27687e-10
1.2778e-10
1.27673e-10
1.27598e-10
1.27094e-10
1.25957e-10
1.25177e-10
1.09359e-10
1.10087e-10
1.11084e-10
1.11537e-10
1.11609e-10
1.11705e-10
1.11624e-10
1.11671e-10
1.11608e-10
1.11643e-10
1.11605e-10
1.1163e-10
1.11605e-10
1.11622e-10
1.11606e-10
1.11619e-10
1.11607e-10
1.11616e-10
1.11609e-10
1.11615e-10
1.1161e-10
1.11613e-10
1.11611e-10
1.11612e-10
1.11612e-10
1.11612e-10
1.11612e-10
1.11611e-10
1.11613e-10
1.1161e-10
1.11615e-10
1.11609e-10
1.11616e-10
1.11607e-10
1.11619e-10
1.11606e-10
1.11622e-10
1.11605e-10
1.1163e-10
1.11605e-10
1.11643e-10
1.11608e-10
1.11671e-10
1.11624e-10
1.11704e-10
1.11609e-10
1.11537e-10
1.11084e-10
1.10087e-10
1.09359e-10
9.60914e-11
9.67695e-11
9.76469e-11
9.80528e-11
9.81228e-11
9.8208e-11
9.81374e-11
9.81782e-11
9.81223e-11
9.81527e-11
9.81192e-11
9.81409e-11
9.81192e-11
9.81339e-11
9.81198e-11
9.81305e-11
9.81203e-11
9.81286e-11
9.81221e-11
9.81272e-11
9.8123e-11
9.81259e-11
9.81234e-11
9.8125e-11
9.81243e-11
9.81243e-11
9.8125e-11
9.81235e-11
9.81259e-11
9.8123e-11
9.81272e-11
9.81221e-11
9.81286e-11
9.81204e-11
9.81306e-11
9.81198e-11
9.81339e-11
9.81192e-11
9.81408e-11
9.81193e-11
9.81527e-11
9.81223e-11
9.81782e-11
9.81375e-11
9.82078e-11
9.81228e-11
9.80528e-11
9.76469e-11
9.67694e-11
9.60915e-11
8.49122e-11
8.55423e-11
8.63173e-11
8.66821e-11
8.6749e-11
8.68253e-11
8.67635e-11
8.67986e-11
8.67494e-11
8.67754e-11
8.6746e-11
8.67646e-11
8.67456e-11
8.67583e-11
8.6746e-11
8.67552e-11
8.67463e-11
8.67536e-11
8.67479e-11
8.67523e-11
8.67486e-11
8.67512e-11
8.6749e-11
8.67504e-11
8.67498e-11
8.67498e-11
8.67504e-11
8.6749e-11
8.67512e-11
8.67486e-11
8.67523e-11
8.67479e-11
8.67536e-11
8.67464e-11
8.67553e-11
8.6746e-11
8.67584e-11
8.67457e-11
8.67645e-11
8.67461e-11
8.67754e-11
8.67494e-11
8.67985e-11
8.67635e-11
8.68251e-11
8.6749e-11
8.6682e-11
8.63173e-11
8.55423e-11
8.49122e-11
7.54497e-11
7.60347e-11
7.67215e-11
7.70498e-11
7.71134e-11
7.71819e-11
7.71277e-11
7.71579e-11
7.71146e-11
7.71367e-11
7.71109e-11
7.71269e-11
7.71102e-11
7.71212e-11
7.71103e-11
7.71184e-11
7.71106e-11
7.71169e-11
7.71119e-11
7.71158e-11
7.71126e-11
7.71148e-11
7.71129e-11
7.71141e-11
7.71136e-11
7.71136e-11
7.71141e-11
7.71129e-11
7.71148e-11
7.71126e-11
7.71158e-11
7.71119e-11
7.71169e-11
7.71106e-11
7.71185e-11
7.71104e-11
7.71212e-11
7.71102e-11
7.71268e-11
7.7111e-11
7.71368e-11
7.71145e-11
7.71579e-11
7.71277e-11
7.71818e-11
7.71134e-11
7.70497e-11
7.67215e-11
7.60346e-11
7.54497e-11
6.74037e-11
6.79463e-11
6.85572e-11
6.88532e-11
6.89135e-11
6.89751e-11
6.89274e-11
6.89534e-11
6.89151e-11
6.89341e-11
6.89113e-11
6.8925e-11
6.89103e-11
6.89198e-11
6.89103e-11
6.89173e-11
6.89104e-11
6.8916e-11
6.89116e-11
6.8915e-11
6.89121e-11
6.89141e-11
6.89124e-11
6.89135e-11
6.8913e-11
6.8913e-11
6.89135e-11
6.89124e-11
6.89141e-11
6.89121e-11
6.8915e-11
6.89116e-11
6.8916e-11
6.89105e-11
6.89173e-11
6.89103e-11
6.89199e-11
6.89104e-11
6.8925e-11
6.89114e-11
6.89341e-11
6.89151e-11
6.89534e-11
6.89274e-11
6.8975e-11
6.89134e-11
6.88531e-11
6.85572e-11
6.79463e-11
6.74037e-11
6.0531e-11
6.10341e-11
6.15793e-11
6.18467e-11
6.19035e-11
6.19591e-11
6.1917e-11
6.19394e-11
6.19055e-11
6.19217e-11
6.19016e-11
6.19134e-11
6.19004e-11
6.19086e-11
6.19002e-11
6.19063e-11
6.19003e-11
6.19051e-11
6.19013e-11
6.19043e-11
6.19017e-11
6.19035e-11
6.1902e-11
6.19029e-11
6.19025e-11
6.19025e-11
6.19029e-11
6.1902e-11
6.19035e-11
6.19017e-11
6.19043e-11
6.19013e-11
6.19051e-11
6.19003e-11
6.19064e-11
6.19002e-11
6.19087e-11
6.19004e-11
6.19134e-11
6.19016e-11
6.19218e-11
6.19055e-11
6.19394e-11
6.1917e-11
6.1959e-11
6.19035e-11
6.18466e-11
6.15792e-11
6.1034e-11
6.0531e-11
5.46337e-11
5.50998e-11
5.55881e-11
5.58302e-11
5.58838e-11
5.5934e-11
5.58967e-11
5.59161e-11
5.5886e-11
5.58998e-11
5.58819e-11
5.58921e-11
5.58806e-11
5.58878e-11
5.58803e-11
5.58856e-11
5.58803e-11
5.58846e-11
5.58811e-11
5.58838e-11
5.58815e-11
5.58831e-11
5.58817e-11
5.58826e-11
5.58822e-11
5.58822e-11
5.58826e-11
5.58817e-11
5.58831e-11
5.58815e-11
5.58838e-11
5.58811e-11
5.58846e-11
5.58803e-11
5.58857e-11
5.58803e-11
5.58878e-11
5.58806e-11
5.58921e-11
5.5882e-11
5.58999e-11
5.58859e-11
5.59161e-11
5.58967e-11
5.59339e-11
5.58837e-11
5.58302e-11
5.55881e-11
5.50998e-11
5.46337e-11
4.95504e-11
4.9982e-11
5.0421e-11
5.06407e-11
5.06909e-11
5.07365e-11
5.07034e-11
5.07201e-11
5.06932e-11
5.07051e-11
5.06891e-11
5.06979e-11
5.06877e-11
5.06939e-11
5.06872e-11
5.0692e-11
5.06872e-11
5.0691e-11
5.06879e-11
5.06903e-11
5.06883e-11
5.06896e-11
5.06884e-11
5.06892e-11
5.06888e-11
5.06889e-11
5.06892e-11
5.06885e-11
5.06896e-11
5.06883e-11
5.06903e-11
5.06879e-11
5.0691e-11
5.06872e-11
5.0692e-11
5.06873e-11
5.06939e-11
5.06877e-11
5.06979e-11
5.06892e-11
5.07051e-11
5.06932e-11
5.07201e-11
5.07034e-11
5.07364e-11
5.06909e-11
5.06406e-11
5.04209e-11
4.99819e-11
4.95504e-11
4.51489e-11
4.55481e-11
4.59443e-11
4.61442e-11
4.61912e-11
4.62326e-11
4.62031e-11
4.62176e-11
4.61936e-11
4.62037e-11
4.61894e-11
4.61971e-11
4.61879e-11
4.61933e-11
4.61874e-11
4.61915e-11
4.61873e-11
4.61906e-11
4.61879e-11
4.619e-11
4.61882e-11
4.61894e-11
4.61884e-11
4.6189e-11
4.61887e-11
4.61887e-11
4.6189e-11
4.61884e-11
4.61894e-11
4.61882e-11
4.619e-11
4.61879e-11
4.61906e-11
4.61873e-11
4.61916e-11
4.61874e-11
4.61934e-11
4.61879e-11
4.6197e-11
4.61895e-11
4.62038e-11
4.61935e-11
4.62176e-11
4.62031e-11
4.62326e-11
4.61912e-11
4.61441e-11
4.59443e-11
4.55481e-11
4.51489e-11
4.13208e-11
4.16896e-11
4.20486e-11
4.22308e-11
4.22748e-11
4.23125e-11
4.22862e-11
4.22987e-11
4.22771e-11
4.22858e-11
4.2273e-11
4.22796e-11
4.22714e-11
4.22761e-11
4.22708e-11
4.22744e-11
4.22707e-11
4.22736e-11
4.22712e-11
4.2273e-11
4.22714e-11
4.22725e-11
4.22716e-11
4.22722e-11
4.22719e-11
4.22719e-11
4.22722e-11
4.22716e-11
4.22725e-11
4.22715e-11
4.2273e-11
4.22712e-11
4.22736e-11
4.22707e-11
4.22745e-11
4.22708e-11
4.22761e-11
4.22714e-11
4.22796e-11
4.2273e-11
4.22858e-11
4.22771e-11
4.22987e-11
4.22862e-11
4.23125e-11
4.22748e-11
4.22307e-11
4.20486e-11
4.16896e-11
4.13208e-11
3.79768e-11
3.83166e-11
3.86434e-11
3.88098e-11
3.88511e-11
3.88854e-11
3.88618e-11
3.88727e-11
3.88532e-11
3.88607e-11
3.88491e-11
3.88548e-11
3.88474e-11
3.88516e-11
3.88468e-11
3.885e-11
3.88466e-11
3.88493e-11
3.88471e-11
3.88487e-11
3.88473e-11
3.88483e-11
3.88474e-11
3.88479e-11
3.88477e-11
3.88477e-11
3.88479e-11
3.88474e-11
3.88483e-11
3.88473e-11
3.88487e-11
3.88471e-11
3.88493e-11
3.88466e-11
3.885e-11
3.88468e-11
3.88516e-11
3.88474e-11
3.88548e-11
3.88491e-11
3.88607e-11
3.88532e-11
3.88727e-11
3.88618e-11
3.88854e-11
3.8851e-11
3.88098e-11
3.86434e-11
3.83166e-11
3.79768e-11
3.5042e-11
3.5356e-11
3.56541e-11
3.58063e-11
3.58449e-11
3.58763e-11
3.5855e-11
3.58645e-11
3.58469e-11
3.58532e-11
3.58428e-11
3.58477e-11
3.58411e-11
3.58447e-11
3.58404e-11
3.58432e-11
3.58402e-11
3.58425e-11
3.58406e-11
3.58421e-11
3.58408e-11
3.58417e-11
3.58409e-11
3.58414e-11
3.58411e-11
3.58411e-11
3.58414e-11
3.58409e-11
3.58417e-11
3.58408e-11
3.58421e-11
3.58406e-11
3.58425e-11
3.58402e-11
3.58433e-11
3.58404e-11
3.58447e-11
3.58411e-11
3.58477e-11
3.58428e-11
3.58532e-11
3.58468e-11
3.58644e-11
3.5855e-11
3.58762e-11
3.58449e-11
3.58063e-11
3.5654e-11
3.5356e-11
3.5042e-11
)
;

boundaryField
{
    fuel
    {
        type            fixedValue;
        value           uniform 0;
    }
    wall
    {
        type            zeroGradient;
    }
    outlet
    {
        type            zeroGradient;
    }
    frontAndBack
    {
        type            empty;
    }
    procBoundary1to0
    {
        type            processor;
        value           nonuniform List<scalar> 
50
(
3.24552e-11
3.27463e-11
3.30185e-11
3.3158e-11
3.31941e-11
3.32229e-11
3.32037e-11
3.32119e-11
3.31959e-11
3.32013e-11
3.31919e-11
3.31961e-11
3.31901e-11
3.31933e-11
3.31894e-11
3.31919e-11
3.31892e-11
3.31913e-11
3.31896e-11
3.31909e-11
3.31897e-11
3.31905e-11
3.31898e-11
3.31902e-11
3.319e-11
3.319e-11
3.31902e-11
3.31898e-11
3.31905e-11
3.31897e-11
3.31909e-11
3.31896e-11
3.31913e-11
3.31892e-11
3.3192e-11
3.31894e-11
3.31933e-11
3.31901e-11
3.31961e-11
3.31919e-11
3.32014e-11
3.31959e-11
3.32119e-11
3.32037e-11
3.32228e-11
3.31941e-11
3.3158e-11
3.30185e-11
3.27463e-11
3.24552e-11
)
;
    }
}


// ************************************************************************* //
