/*--------------------------------*- C++ -*----------------------------------*\
| =========                 |                                                 |
| \\      /  F ield         | OpenFOAM: The Open Source CFD Toolbox           |
|  \\    /   O peration     | Version:  dev                                   |
|   \\  /    A nd           | Web:      www.OpenFOAM.org                      |
|    \\/     M anipulation  |                                                 |
\*---------------------------------------------------------------------------*/
FoamFile
{
    version     2.0;
    format      ascii;
    class       volScalarField;
    location    "0.075";
    object      PC3H4;
}
// * * * * * * * * * * * * * * * * * * * * * * * * * * * * * * * * * * * * * //

dimensions      [0 0 0 0 0 0 0];

internalField   nonuniform List<scalar> 
250
(
1.35858e-07
1.19221e-07
1.09175e-07
1.06046e-07
1.04891e-07
1.04044e-07
1.04321e-07
1.03795e-07
1.04208e-07
1.03868e-07
1.27805e-07
1.1385e-07
1.04933e-07
1.02242e-07
1.01192e-07
1.00311e-07
1.00653e-07
1.00043e-07
1.00525e-07
1.0012e-07
1.00246e-07
1.00335e-07
1.00223e-07
1.00399e-07
1.00533e-07
1.00818e-07
1.02457e-07
1.04331e-07
1.11598e-07
1.19229e-07
1.19345e-07
1.07849e-07
9.9952e-08
9.76582e-08
9.67087e-08
9.57974e-08
9.62033e-08
9.5513e-08
9.60634e-08
9.55937e-08
9.57405e-08
9.58477e-08
9.57223e-08
9.59122e-08
9.60491e-08
9.6298e-08
9.79044e-08
9.942e-08
1.06089e-07
1.129e-07
1.10488e-07
1.01172e-07
9.42223e-08
9.22886e-08
9.1436e-08
9.05159e-08
9.09714e-08
9.02243e-08
9.0825e-08
9.03076e-08
9.04687e-08
9.05908e-08
9.04554e-08
9.06518e-08
9.07896e-08
9.10018e-08
9.25569e-08
9.37429e-08
9.9814e-08
1.05818e-07
1.01385e-07
9.39376e-08
8.79355e-08
8.62605e-08
8.55795e-08
8.47044e-08
8.51692e-08
8.44258e-08
8.50282e-08
8.45069e-08
8.46675e-08
8.47943e-08
8.46586e-08
8.4847e-08
8.49789e-08
8.51553e-08
8.6549e-08
8.75087e-08
9.29078e-08
9.81227e-08
9.24739e-08
8.66876e-08
8.1786e-08
8.04066e-08
7.9851e-08
7.91326e-08
7.95174e-08
7.89066e-08
7.9404e-08
7.8973e-08
7.91008e-08
7.92123e-08
7.9096e-08
7.92506e-08
7.93603e-08
7.95069e-08
8.06576e-08
8.14402e-08
8.59609e-08
9.04025e-08
8.55673e-08
8.09007e-08
7.74671e-08
7.63698e-08
7.59664e-08
7.55898e-08
7.57377e-08
7.54782e-08
7.56859e-08
7.55046e-08
7.55441e-08
7.56108e-08
7.55441e-08
7.5629e-08
7.56863e-08
7.582e-08
7.65094e-08
7.72703e-08
8.05298e-08
8.4215e-08
8.34585e-08
7.95393e-08
7.80656e-08
7.72289e-08
7.69971e-08
7.71527e-08
7.68841e-08
7.7214e-08
7.69241e-08
7.71656e-08
7.70536e-08
7.70551e-08
7.70631e-08
7.70546e-08
7.70212e-08
7.71768e-08
7.71731e-08
7.80989e-08
7.96553e-08
8.25925e-08
8.99044e-08
8.65292e-08
8.71225e-08
8.64423e-08
8.63632e-08
8.7025e-08
8.63096e-08
8.72429e-08
8.64272e-08
8.70976e-08
8.68203e-08
8.67922e-08
8.68533e-08
8.67899e-08
8.66505e-08
8.68764e-08
8.61867e-08
8.7377e-08
8.72242e-08
8.94646e-08
1.06415e-07
1.03542e-07
1.05299e-07
1.04539e-07
1.0454e-07
1.05298e-07
1.04412e-07
1.05535e-07
1.04525e-07
1.05313e-07
1.04955e-07
1.05014e-07
1.05035e-07
1.05036e-07
1.04833e-07
1.05164e-07
1.04244e-07
1.05582e-07
1.04663e-07
1.06421e-07
1.28764e-07
1.26299e-07
1.27716e-07
1.26631e-07
1.26625e-07
1.2696e-07
1.26306e-07
1.2705e-07
1.26323e-07
1.26799e-07
1.26488e-07
1.26759e-07
1.26633e-07
1.26815e-07
1.26628e-07
1.27055e-07
1.2652e-07
1.27772e-07
1.27472e-07
1.29129e-07
1.48746e-07
1.46426e-07
1.4672e-07
1.45274e-07
1.45209e-07
1.4499e-07
1.44708e-07
1.44886e-07
1.44618e-07
1.44635e-07
1.44416e-07
1.44921e-07
1.4463e-07
1.44999e-07
1.44867e-07
1.45356e-07
1.45412e-07
1.46483e-07
1.47387e-07
1.49261e-07
1.62033e-07
1.59643e-07
1.59129e-07
1.57435e-07
1.57327e-07
1.56746e-07
1.56717e-07
1.56513e-07
1.56561e-07
1.56262e-07
1.56103e-07
1.56775e-07
1.56366e-07
1.56859e-07
1.56766e-07
1.57289e-07
1.57738e-07
1.58697e-07
1.60428e-07
1.62545e-07
)
;

boundaryField
{
    fuel
    {
        type            fixedValue;
        value           nonuniform 0();
    }
    wall
    {
        type            zeroGradient;
    }
    outlet
    {
        type            zeroGradient;
    }
    frontAndBack
    {
        type            empty;
    }
    procBoundary1to0
    {
        type            processor;
        value           nonuniform List<scalar> 
21
(
1.43542e-07
1.24056e-07
1.12764e-07
1.09158e-07
1.07891e-07
1.0707e-07
1.07289e-07
1.06841e-07
1.07189e-07
1.06912e-07
1.03974e-07
1.03974e-07
1.04042e-07
1.03946e-07
1.04105e-07
1.04236e-07
1.04555e-07
1.06226e-07
1.08478e-07
1.16388e-07
1.24851e-07
)
;
    }
}


// ************************************************************************* //
