/*--------------------------------*- C++ -*----------------------------------*\
| =========                 |                                                 |
| \\      /  F ield         | OpenFOAM: The Open Source CFD Toolbox           |
|  \\    /   O peration     | Version:  dev                                   |
|   \\  /    A nd           | Web:      www.OpenFOAM.org                      |
|    \\/     M anipulation  |                                                 |
\*---------------------------------------------------------------------------*/
FoamFile
{
    version     2.0;
    format      ascii;
    class       surfaceScalarField;
    location    "0.075";
    object      phi;
}
// * * * * * * * * * * * * * * * * * * * * * * * * * * * * * * * * * * * * * //

dimensions      [1 0 -1 0 0 0 0];

internalField   nonuniform List<scalar> 
3910
(
-2.74543e-08
2.86699e-06
-1.85535e-08
2.87778e-06
-1.51857e-08
2.88333e-06
-1.55063e-08
2.88704e-06
-1.37447e-08
2.88497e-06
-1.39479e-08
2.88695e-06
-1.25424e-08
2.88535e-06
-1.24602e-08
2.88668e-06
-1.1252e-08
2.88556e-06
-1.09556e-08
2.88648e-06
-9.90392e-09
2.88573e-06
-9.47644e-09
2.88635e-06
-8.53101e-09
2.88584e-06
-7.99798e-09
2.88625e-06
-7.12822e-09
2.88591e-06
-6.53785e-09
2.88619e-06
-5.70885e-09
2.88596e-06
-5.07984e-09
2.88616e-06
-4.29547e-09
2.886e-06
-3.62908e-09
2.88612e-06
-2.86655e-09
2.88602e-06
-2.17424e-09
2.88609e-06
-1.43065e-09
2.88604e-06
-7.23795e-10
2.88608e-06
-1.18973e-13
2.88606e-06
7.23476e-10
2.88606e-06
1.43075e-09
2.88608e-06
2.17433e-09
2.88604e-06
2.86615e-09
2.88609e-06
3.62819e-09
2.88602e-06
4.29506e-09
2.88612e-06
5.07947e-09
2.886e-06
5.70985e-09
2.88616e-06
6.53828e-09
2.88596e-06
7.12683e-09
2.8862e-06
7.99843e-09
2.88591e-06
8.53069e-09
2.88625e-06
9.47489e-09
2.88584e-06
9.90465e-09
2.88635e-06
1.09561e-08
2.88573e-06
1.1251e-08
2.88648e-06
1.2459e-08
2.88556e-06
1.25415e-08
2.88668e-06
1.39487e-08
2.88535e-06
1.3746e-08
2.88695e-06
1.55056e-08
2.88498e-06
1.51885e-08
2.88703e-06
1.85557e-08
2.88333e-06
2.74537e-08
2.87778e-06
2.86699e-06
-3.47288e-08
2.84749e-06
-2.32593e-08
2.86533e-06
-2.02195e-08
2.87931e-06
-1.95962e-08
2.88545e-06
-1.81338e-08
2.88256e-06
-1.77131e-08
2.88559e-06
-1.64486e-08
2.88315e-06
-1.58767e-08
2.88518e-06
-1.47003e-08
2.88346e-06
-1.40043e-08
2.88485e-06
-1.29053e-08
2.8837e-06
-1.21352e-08
2.88466e-06
-1.10911e-08
2.88387e-06
-1.02616e-08
2.88449e-06
-9.25527e-09
2.88398e-06
-8.39431e-09
2.88441e-06
-7.4069e-09
2.88404e-06
-6.52454e-09
2.88435e-06
-5.56179e-09
2.88412e-06
-4.66131e-09
2.8843e-06
-3.71053e-09
2.88415e-06
-2.79631e-09
2.88425e-06
-1.85457e-09
2.88417e-06
-9.31715e-10
2.88423e-06
-2.00609e-14
2.88421e-06
9.316e-10
2.88421e-06
1.85466e-09
2.88423e-06
2.7963e-09
2.88417e-06
3.71017e-09
2.88425e-06
4.66071e-09
2.88415e-06
5.56163e-09
2.8843e-06
6.52433e-09
2.88412e-06
7.40736e-09
2.88435e-06
8.39452e-09
2.88405e-06
9.25436e-09
2.88441e-06
1.02617e-08
2.88398e-06
1.10908e-08
2.88449e-06
1.21341e-08
2.88387e-06
1.29054e-08
2.88465e-06
1.40038e-08
2.8837e-06
1.46991e-08
2.88485e-06
1.58757e-08
2.88346e-06
1.64478e-08
2.88517e-06
1.77133e-08
2.88315e-06
1.81348e-08
2.88559e-06
1.95963e-08
2.88256e-06
2.02217e-08
2.88545e-06
2.32611e-08
2.87932e-06
3.47295e-08
2.86533e-06
2.84749e-06
-3.89344e-08
2.83018e-06
-2.70672e-08
2.85226e-06
-2.40305e-08
2.87507e-06
-2.28979e-08
2.88313e-06
-2.14779e-08
2.87995e-06
-2.07196e-08
2.88365e-06
-1.94367e-08
2.88069e-06
-1.8588e-08
2.88315e-06
-1.73469e-08
2.88104e-06
-1.64116e-08
2.88275e-06
-1.52151e-08
2.88134e-06
-1.42285e-08
2.8825e-06
-1.30658e-08
2.88154e-06
-1.20385e-08
2.8823e-06
-1.08982e-08
2.88168e-06
-9.85003e-09
2.8822e-06
-8.71995e-09
2.88175e-06
-7.65767e-09
2.88213e-06
-6.54428e-09
2.88184e-06
-5.47098e-09
2.88206e-06
-4.36543e-09
2.88188e-06
-3.28308e-09
2.88201e-06
-2.18258e-09
2.88191e-06
-1.09409e-09
2.88198e-06
7.292e-15
2.88195e-06
1.09404e-09
2.88195e-06
2.18265e-09
2.88198e-06
3.28302e-09
2.88191e-06
4.3651e-09
2.88201e-06
5.47049e-09
2.88188e-06
6.54418e-09
2.88206e-06
7.65752e-09
2.88184e-06
8.72023e-09
2.88213e-06
9.85014e-09
2.88175e-06
1.08975e-08
2.8822e-06
1.20385e-08
2.88167e-06
1.30654e-08
2.8823e-06
1.42277e-08
2.88154e-06
1.5215e-08
2.8825e-06
1.64109e-08
2.88134e-06
1.73457e-08
2.88275e-06
1.8587e-08
2.88104e-06
1.94361e-08
2.88315e-06
2.07196e-08
2.88069e-06
2.14787e-08
2.88365e-06
2.28983e-08
2.87996e-06
2.40323e-08
2.88312e-06
2.70687e-08
2.87508e-06
3.89357e-08
2.85227e-06
2.83019e-06
-4.27081e-08
2.81531e-06
-3.11785e-08
2.84024e-06
-2.79699e-08
2.87137e-06
-2.64781e-08
2.88115e-06
-2.49696e-08
2.87797e-06
-2.39628e-08
2.88217e-06
-2.25716e-08
2.87883e-06
-2.15028e-08
2.88162e-06
-2.01323e-08
2.87921e-06
-1.89923e-08
2.88115e-06
-1.76514e-08
2.87953e-06
-1.64689e-08
2.88086e-06
-1.51522e-08
2.87976e-06
-1.39371e-08
2.88063e-06
-1.2636e-08
2.87992e-06
-1.14043e-08
2.88051e-06
-1.01099e-08
2.88e-06
-8.86739e-09
2.88043e-06
-7.58608e-09
2.8801e-06
-6.33527e-09
2.88035e-06
-5.05989e-09
2.88015e-06
-3.80197e-09
2.88029e-06
-2.52993e-09
2.88018e-06
-1.26705e-09
2.88026e-06
1.17572e-14
2.88022e-06
1.26702e-09
2.88022e-06
2.52998e-09
2.88026e-06
3.80188e-09
2.88018e-06
5.0596e-09
2.88029e-06
6.33484e-09
2.88015e-06
7.58597e-09
2.88035e-06
8.86728e-09
2.8801e-06
1.01101e-08
2.88043e-06
1.14043e-08
2.88e-06
1.26354e-08
2.88051e-06
1.39369e-08
2.87992e-06
1.51518e-08
2.88063e-06
1.64682e-08
2.87977e-06
1.76512e-08
2.88086e-06
1.89917e-08
2.87954e-06
2.01312e-08
2.88115e-06
2.1502e-08
2.87921e-06
2.2571e-08
2.88162e-06
2.39627e-08
2.87883e-06
2.49702e-08
2.88217e-06
2.64787e-08
2.87797e-06
2.79715e-08
2.88115e-06
3.11797e-08
2.87138e-06
4.27096e-08
2.84024e-06
2.81531e-06
-4.65258e-08
2.80195e-06
-3.55648e-08
2.82905e-06
-3.21347e-08
2.86772e-06
-3.03322e-08
2.87913e-06
-2.86839e-08
2.87611e-06
-2.74503e-08
2.88073e-06
-2.59128e-08
2.87709e-06
-2.46344e-08
2.88014e-06
-2.31044e-08
2.87748e-06
-2.17624e-08
2.87961e-06
-2.02531e-08
2.87783e-06
-1.88726e-08
2.87929e-06
-1.73816e-08
2.87808e-06
-1.5973e-08
2.87902e-06
-1.44937e-08
2.87825e-06
-1.30708e-08
2.87889e-06
-1.15961e-08
2.87833e-06
-1.01643e-08
2.87881e-06
-8.7004e-09
2.87845e-06
-7.26166e-09
2.87872e-06
-5.80268e-09
2.8785e-06
-4.35795e-09
2.87865e-06
-2.9014e-09
2.87853e-06
-1.4524e-09
2.87861e-06
1.49973e-14
2.87858e-06
1.45237e-09
2.87858e-06
2.90144e-09
2.87861e-06
4.35785e-09
2.87853e-06
5.80242e-09
2.87865e-06
7.26128e-09
2.8785e-06
8.70028e-09
2.87872e-06
1.01642e-08
2.87845e-06
1.15963e-08
2.8788e-06
1.30708e-08
2.87833e-06
1.44932e-08
2.8789e-06
1.59729e-08
2.87824e-06
1.73813e-08
2.87903e-06
1.88719e-08
2.87808e-06
2.02528e-08
2.87928e-06
2.17617e-08
2.87783e-06
2.31034e-08
2.87961e-06
2.46336e-08
2.87748e-06
2.59123e-08
2.88014e-06
2.74501e-08
2.87709e-06
2.86844e-08
2.88073e-06
3.03329e-08
2.87611e-06
3.21362e-08
2.87912e-06
3.55658e-08
2.86772e-06
4.65275e-08
2.82905e-06
2.80195e-06
-5.04966e-08
2.7897e-06
-4.01634e-08
2.8186e-06
-3.64984e-08
2.86395e-06
-3.44077e-08
2.87695e-06
-3.25921e-08
2.87421e-06
-3.11368e-08
2.87919e-06
-2.94313e-08
2.87531e-06
-2.79431e-08
2.87858e-06
-2.62357e-08
2.8757e-06
-2.46879e-08
2.87799e-06
-2.29949e-08
2.87606e-06
-2.14108e-08
2.87763e-06
-1.97319e-08
2.87633e-06
-1.81225e-08
2.87734e-06
-1.64524e-08
2.87651e-06
-1.48301e-08
2.8772e-06
-1.31633e-08
2.87659e-06
-1.15332e-08
2.87711e-06
-9.87558e-09
2.87672e-06
-8.2395e-09
2.87701e-06
-6.58602e-09
2.87677e-06
-4.94472e-09
2.87694e-06
-3.29315e-09
2.8768e-06
-1.64803e-09
2.8769e-06
1.64592e-14
2.87686e-06
1.648e-09
2.87686e-06
3.29317e-09
2.8769e-06
4.9446e-09
2.8768e-06
6.58579e-09
2.87694e-06
8.23915e-09
2.87677e-06
9.87544e-09
2.87701e-06
1.15331e-08
2.87672e-06
1.31635e-08
2.8771e-06
1.483e-08
2.87659e-06
1.6452e-08
2.8772e-06
1.81223e-08
2.8765e-06
1.97315e-08
2.87734e-06
2.14102e-08
2.87633e-06
2.29945e-08
2.87762e-06
2.46872e-08
2.87607e-06
2.62348e-08
2.87799e-06
2.79424e-08
2.8757e-06
2.94309e-08
2.87857e-06
3.11366e-08
2.87531e-06
3.25925e-08
2.87919e-06
3.44085e-08
2.87421e-06
3.64998e-08
2.87694e-06
4.01643e-08
2.86395e-06
5.04983e-08
2.81861e-06
2.7897e-06
-5.46008e-08
2.77834e-06
-4.48968e-08
2.80885e-06
-4.10007e-08
2.86001e-06
-3.86376e-08
2.87455e-06
-3.66386e-08
2.87218e-06
-3.49627e-08
2.87749e-06
-3.30758e-08
2.8734e-06
-3.13759e-08
2.87686e-06
-2.94798e-08
2.87379e-06
-2.77223e-08
2.87622e-06
-2.58358e-08
2.87417e-06
-2.40433e-08
2.87583e-06
-2.21675e-08
2.87444e-06
-2.03516e-08
2.87552e-06
-1.84824e-08
2.87463e-06
-1.66545e-08
2.87536e-06
-1.47877e-08
2.87472e-06
-1.29528e-08
2.87526e-06
-1.10936e-08
2.87485e-06
-9.25346e-09
2.87516e-06
-7.39796e-09
2.87491e-06
-5.55313e-09
2.87508e-06
-3.69918e-09
2.87494e-06
-1.85087e-09
2.87504e-06
1.68609e-14
2.875e-06
1.85085e-09
2.875e-06
3.69919e-09
2.87504e-06
5.55299e-09
2.87494e-06
7.39776e-09
2.87509e-06
9.25314e-09
2.87491e-06
1.10935e-08
2.87516e-06
1.29527e-08
2.87485e-06
1.47878e-08
2.87526e-06
1.66544e-08
2.87472e-06
1.8482e-08
2.87537e-06
2.03514e-08
2.87462e-06
2.21671e-08
2.87552e-06
2.40427e-08
2.87445e-06
2.58354e-08
2.87582e-06
2.77216e-08
2.87417e-06
2.9479e-08
2.87622e-06
3.13752e-08
2.87379e-06
3.30754e-08
2.87686e-06
3.49624e-08
2.8734e-06
3.66389e-08
2.87749e-06
3.86385e-08
2.87218e-06
4.1002e-08
2.87454e-06
4.48977e-08
2.86002e-06
5.46024e-08
2.80885e-06
2.77834e-06
-5.88016e-08
2.76775e-06
-4.97054e-08
2.79974e-06
-4.55907e-08
2.85589e-06
-4.29688e-08
2.87193e-06
-4.07766e-08
2.86999e-06
-3.88806e-08
2.87561e-06
-3.68037e-08
2.87134e-06
-3.48905e-08
2.87497e-06
-3.27985e-08
2.87172e-06
-3.08285e-08
2.87427e-06
-2.87422e-08
2.8721e-06
-2.67379e-08
2.87385e-06
-2.46594e-08
2.87239e-06
-2.26333e-08
2.87351e-06
-2.05594e-08
2.87258e-06
-1.85219e-08
2.87335e-06
-1.64497e-08
2.87267e-06
-1.44058e-08
2.87324e-06
-1.234e-08
2.87281e-06
-1.02913e-08
2.87314e-06
-8.22878e-09
2.87287e-06
-6.17581e-09
2.87306e-06
-4.11465e-09
2.8729e-06
-2.05848e-09
2.87301e-06
1.68681e-14
2.87296e-06
2.05845e-09
2.87296e-06
4.11464e-09
2.87301e-06
6.17566e-09
2.8729e-06
8.2286e-09
2.87306e-06
1.0291e-08
2.87287e-06
1.23399e-08
2.87314e-06
1.44057e-08
2.87281e-06
1.64498e-08
2.87324e-06
1.85218e-08
2.87267e-06
2.05591e-08
2.87335e-06
2.2633e-08
2.87257e-06
2.4659e-08
2.87352e-06
2.67374e-08
2.87239e-06
2.87418e-08
2.87384e-06
3.08278e-08
2.8721e-06
3.27977e-08
2.87427e-06
3.48899e-08
2.87172e-06
3.68034e-08
2.87496e-06
3.88803e-08
2.87134e-06
4.07769e-08
2.87561e-06
4.29698e-08
2.87e-06
4.55919e-08
2.87192e-06
4.97063e-08
2.85589e-06
5.88032e-08
2.79974e-06
2.76775e-06
-6.3072e-08
2.75782e-06
-5.45498e-08
2.79121e-06
-5.02331e-08
2.85159e-06
-4.73653e-08
2.86908e-06
-4.49739e-08
2.86763e-06
-4.28583e-08
2.87353e-06
-4.05857e-08
2.86911e-06
-3.84581e-08
2.87288e-06
-3.61655e-08
2.86947e-06
-3.39811e-08
2.87213e-06
-3.16909e-08
2.86985e-06
-2.94728e-08
2.87167e-06
-2.71878e-08
2.87015e-06
-2.49489e-08
2.87132e-06
-2.26669e-08
2.87034e-06
-2.04171e-08
2.87114e-06
-1.81361e-08
2.87043e-06
-1.58803e-08
2.87103e-06
-1.36047e-08
2.87058e-06
-1.13445e-08
2.87092e-06
-9.07181e-09
2.87064e-06
-6.80771e-09
2.87084e-06
-4.53621e-09
2.87068e-06
-2.26916e-09
2.87079e-06
1.66537e-14
2.87074e-06
2.26913e-09
2.87074e-06
4.53619e-09
2.87078e-06
6.80756e-09
2.87068e-06
9.07166e-09
2.87084e-06
1.13442e-08
2.87064e-06
1.36046e-08
2.87092e-06
1.58802e-08
2.87058e-06
1.81361e-08
2.87103e-06
2.04169e-08
2.87043e-06
2.26666e-08
2.87115e-06
2.49486e-08
2.87033e-06
2.71873e-08
2.87132e-06
2.94722e-08
2.87015e-06
3.16905e-08
2.87166e-06
3.39804e-08
2.86986e-06
3.61647e-08
2.87213e-06
3.84575e-08
2.86947e-06
4.05855e-08
2.87287e-06
4.2858e-08
2.8691e-06
4.49741e-08
2.87352e-06
4.73664e-08
2.86763e-06
5.02342e-08
2.86907e-06
5.45508e-08
2.85159e-06
6.30735e-08
2.79122e-06
2.75783e-06
-6.73946e-08
2.7485e-06
-5.94063e-08
2.78324e-06
-5.49049e-08
2.84711e-06
-5.18032e-08
2.86601e-06
-4.9209e-08
2.86507e-06
-4.68747e-08
2.87124e-06
-4.44024e-08
2.86668e-06
-4.20598e-08
2.87058e-06
-3.95634e-08
2.86702e-06
-3.71634e-08
2.86978e-06
-3.46668e-08
2.86741e-06
-3.22334e-08
2.86929e-06
-2.97395e-08
2.86771e-06
-2.72863e-08
2.86892e-06
-2.47939e-08
2.8679e-06
-2.23301e-08
2.86873e-06
-1.98381e-08
2.868e-06
-1.73686e-08
2.86862e-06
-1.48812e-08
2.86815e-06
-1.24075e-08
2.86851e-06
-9.92267e-09
2.86821e-06
-7.44554e-09
2.86842e-06
-4.96168e-09
2.86825e-06
-2.48181e-09
2.86836e-06
1.62111e-14
2.86831e-06
2.48178e-09
2.86831e-06
4.96166e-09
2.86836e-06
7.44539e-09
2.86825e-06
9.92253e-09
2.86842e-06
1.24073e-08
2.86821e-06
1.4881e-08
2.8685e-06
1.73685e-08
2.86815e-06
1.98381e-08
2.86861e-06
2.23299e-08
2.868e-06
2.47937e-08
2.86874e-06
2.7286e-08
2.8679e-06
2.9739e-08
2.86892e-06
3.22329e-08
2.86771e-06
3.46663e-08
2.86929e-06
3.71628e-08
2.86741e-06
3.95627e-08
2.86978e-06
4.20593e-08
2.86702e-06
4.44022e-08
2.87058e-06
4.68744e-08
2.86668e-06
4.92092e-08
2.87123e-06
5.18044e-08
2.86508e-06
5.49058e-08
2.866e-06
5.94073e-08
2.84711e-06
6.7396e-08
2.78324e-06
2.7485e-06
-7.17583e-08
2.7397e-06
-6.42606e-08
2.77576e-06
-5.95914e-08
2.84247e-06
-5.62673e-08
2.86272e-06
-5.34681e-08
2.86232e-06
-5.09161e-08
2.86873e-06
-4.82412e-08
2.86406e-06
-4.56834e-08
2.86808e-06
-4.29811e-08
2.86438e-06
-4.03649e-08
2.86722e-06
-3.76599e-08
2.86477e-06
-3.50106e-08
2.86671e-06
-3.23061e-08
2.86506e-06
-2.96376e-08
2.86632e-06
-2.69333e-08
2.86526e-06
-2.42545e-08
2.86612e-06
-2.15501e-08
2.86536e-06
-1.88658e-08
2.866e-06
-1.61651e-08
2.86551e-06
-1.3477e-08
2.86588e-06
-1.07785e-08
2.86557e-06
-8.08715e-09
2.86579e-06
-5.38965e-09
2.86561e-06
-2.69573e-09
2.86573e-06
1.55297e-14
2.86568e-06
2.6957e-09
2.86568e-06
5.38961e-09
2.86573e-06
8.08699e-09
2.86561e-06
1.07784e-08
2.86579e-06
1.34767e-08
2.86558e-06
1.61649e-08
2.86588e-06
1.88657e-08
2.86551e-06
2.15501e-08
2.86599e-06
2.42543e-08
2.86536e-06
2.69331e-08
2.86612e-06
2.96373e-08
2.86526e-06
3.23057e-08
2.86632e-06
3.50102e-08
2.86507e-06
3.76595e-08
2.8667e-06
4.03642e-08
2.86477e-06
4.29804e-08
2.86723e-06
4.56829e-08
2.86438e-06
4.82411e-08
2.86808e-06
5.09157e-08
2.86406e-06
5.34682e-08
2.86873e-06
5.62685e-08
2.86232e-06
5.95922e-08
2.86272e-06
6.42617e-08
2.84247e-06
7.17597e-08
2.77576e-06
2.7397e-06
-7.61494e-08
2.73137e-06
-6.90988e-08
2.76873e-06
-6.42776e-08
2.83768e-06
-6.07418e-08
2.85923e-06
-5.77369e-08
2.85937e-06
-5.49685e-08
2.86602e-06
-5.20893e-08
2.86124e-06
-4.93164e-08
2.86537e-06
-4.64069e-08
2.86153e-06
-4.35744e-08
2.86445e-06
-4.06602e-08
2.86192e-06
-3.77948e-08
2.86391e-06
-3.48789e-08
2.86222e-06
-3.19949e-08
2.8635e-06
-2.90779e-08
2.86241e-06
-2.61837e-08
2.86329e-06
-2.32662e-08
2.86251e-06
-2.03667e-08
2.86317e-06
-1.74521e-08
2.86267e-06
-1.4549e-08
2.86305e-06
-1.16365e-08
2.86273e-06
-8.73036e-09
2.86295e-06
-5.81865e-09
2.86277e-06
-2.91017e-09
2.86289e-06
1.45851e-14
2.86284e-06
2.91014e-09
2.86284e-06
5.8186e-09
2.86289e-06
8.7302e-09
2.86277e-06
1.16364e-08
2.86295e-06
1.45488e-08
2.86273e-06
1.74519e-08
2.86304e-06
2.03666e-08
2.86267e-06
2.32662e-08
2.86316e-06
2.61835e-08
2.86251e-06
2.90777e-08
2.8633e-06
3.19946e-08
2.86241e-06
3.48785e-08
2.8635e-06
3.77944e-08
2.86222e-06
4.06598e-08
2.8639e-06
4.35737e-08
2.86192e-06
4.64062e-08
2.86446e-06
4.93159e-08
2.86153e-06
5.20891e-08
2.86537e-06
5.49682e-08
2.86124e-06
5.77369e-08
2.86601e-06
6.0743e-08
2.85936e-06
6.42783e-08
2.85922e-06
6.91e-08
2.83768e-06
7.61507e-08
2.76873e-06
2.73137e-06
-8.05741e-08
2.72347e-06
-7.39267e-08
2.76211e-06
-6.8967e-08
2.83275e-06
-6.52289e-08
2.85554e-06
-6.20176e-08
2.85621e-06
-5.90341e-08
2.86309e-06
-5.59487e-08
2.85821e-06
-5.29606e-08
2.86245e-06
-4.98429e-08
2.85848e-06
-4.67938e-08
2.86147e-06
-4.36694e-08
2.85886e-06
-4.05876e-08
2.86089e-06
-3.74594e-08
2.85916e-06
-3.43593e-08
2.86047e-06
-3.12289e-08
2.85935e-06
-2.81188e-08
2.86025e-06
-2.49874e-08
2.85945e-06
-2.18722e-08
2.86012e-06
-1.8743e-08
2.85961e-06
-1.56244e-08
2.86e-06
-1.2497e-08
2.85967e-06
-9.37553e-09
2.8599e-06
-6.24894e-09
2.85971e-06
-3.12526e-09
2.85983e-06
1.34188e-14
2.85978e-06
3.12523e-09
2.85978e-06
6.24888e-09
2.85983e-06
9.37536e-09
2.85971e-06
1.24969e-08
2.8599e-06
1.56242e-08
2.85967e-06
1.87428e-08
2.86e-06
2.18721e-08
2.85961e-06
2.49874e-08
2.86012e-06
2.81185e-08
2.85945e-06
3.12287e-08
2.86026e-06
3.4359e-08
2.85935e-06
3.74589e-08
2.86047e-06
4.05872e-08
2.85916e-06
4.36689e-08
2.86089e-06
4.67931e-08
2.85887e-06
4.98422e-08
2.86148e-06
5.29602e-08
2.85848e-06
5.59486e-08
2.86244e-06
5.90338e-08
2.85821e-06
6.20177e-08
2.86309e-06
6.52302e-08
2.8562e-06
6.89676e-08
2.85553e-06
7.3928e-08
2.83276e-06
8.05754e-08
2.76211e-06
2.72347e-06
-8.50223e-08
2.71594e-06
-7.87358e-08
2.75584e-06
-7.36494e-08
2.8277e-06
-6.97176e-08
2.85165e-06
-6.63003e-08
2.85284e-06
-6.31032e-08
2.85996e-06
-5.98106e-08
2.85498e-06
-5.66075e-08
2.85931e-06
-5.32809e-08
2.85522e-06
-5.00155e-08
2.85828e-06
-4.66805e-08
2.8556e-06
-4.33823e-08
2.85767e-06
-4.00415e-08
2.85589e-06
-3.67254e-08
2.85722e-06
-3.33812e-08
2.85608e-06
-3.00552e-08
2.857e-06
-2.67097e-08
2.85617e-06
-2.33787e-08
2.85686e-06
-2.00347e-08
2.85634e-06
-1.67004e-08
2.85674e-06
-1.3358e-08
2.8564e-06
-1.00211e-08
2.85663e-06
-6.67949e-09
2.85644e-06
-3.34049e-09
2.85657e-06
1.20911e-14
2.85651e-06
3.34046e-09
2.85651e-06
6.67942e-09
2.85657e-06
1.00209e-08
2.85644e-06
1.33579e-08
2.85663e-06
1.67002e-08
2.8564e-06
2.00345e-08
2.85673e-06
2.33786e-08
2.85633e-06
2.67097e-08
2.85686e-06
3.00549e-08
2.85617e-06
3.33811e-08
2.857e-06
3.6725e-08
2.85607e-06
4.0041e-08
2.85722e-06
4.33819e-08
2.85589e-06
4.668e-08
2.85766e-06
5.00148e-08
2.8556e-06
5.32802e-08
2.85828e-06
5.66071e-08
2.85522e-06
5.98105e-08
2.8593e-06
6.31029e-08
2.85498e-06
6.63004e-08
2.85995e-06
6.97188e-08
2.85284e-06
7.365e-08
2.85165e-06
7.87371e-08
2.82771e-06
8.50235e-08
2.75585e-06
2.71594e-06
-8.94894e-08
2.70875e-06
-8.3524e-08
2.7499e-06
-7.83217e-08
2.82254e-06
-7.42038e-08
2.84758e-06
-7.05814e-08
2.84927e-06
-6.7172e-08
2.85661e-06
-6.36714e-08
2.85155e-06
-6.02536e-08
2.85596e-06
-5.6718e-08
2.85175e-06
-5.32366e-08
2.85486e-06
-4.96906e-08
2.85212e-06
-4.61765e-08
2.85422e-06
-4.26228e-08
2.8524e-06
-3.90909e-08
2.85376e-06
-3.55329e-08
2.85259e-06
-3.19912e-08
2.85353e-06
-2.84315e-08
2.85268e-06
-2.48848e-08
2.85339e-06
-2.13261e-08
2.85285e-06
-1.77762e-08
2.85326e-06
-1.42188e-08
2.85292e-06
-1.06666e-08
2.85315e-06
-7.10992e-09
2.85296e-06
-3.55567e-09
2.85308e-06
1.06099e-14
2.85303e-06
3.55563e-09
2.85303e-06
7.10985e-09
2.85308e-06
1.06664e-08
2.85296e-06
1.42188e-08
2.85315e-06
1.7776e-08
2.85292e-06
2.13258e-08
2.85326e-06
2.48847e-08
2.85285e-06
2.84314e-08
2.85338e-06
3.19909e-08
2.85269e-06
3.55328e-08
2.85353e-06
3.90906e-08
2.85259e-06
4.26223e-08
2.85376e-06
4.61761e-08
2.85241e-06
4.96901e-08
2.85422e-06
5.32359e-08
2.85213e-06
5.67173e-08
2.85487e-06
6.02533e-08
2.85175e-06
6.36713e-08
2.85595e-06
6.71717e-08
2.85155e-06
7.05815e-08
2.8566e-06
7.4205e-08
2.84927e-06
7.83222e-08
2.84758e-06
8.35253e-08
2.82254e-06
8.94906e-08
2.74991e-06
2.70875e-06
-9.39787e-08
2.70184e-06
-8.8296e-08
2.74425e-06
-8.29861e-08
2.81727e-06
-7.86889e-08
2.84333e-06
-7.48622e-08
2.8455e-06
-7.12419e-08
2.85304e-06
-6.75326e-08
2.8479e-06
-6.39003e-08
2.85239e-06
-6.01553e-08
2.84808e-06
-5.64583e-08
2.85124e-06
-5.27011e-08
2.84844e-06
-4.8971e-08
2.85056e-06
-4.52044e-08
2.84871e-06
-4.14568e-08
2.85009e-06
-3.76848e-08
2.84889e-06
-3.39274e-08
2.84984e-06
-3.01535e-08
2.84898e-06
-2.63911e-08
2.8497e-06
-2.26175e-08
2.84915e-06
-1.88521e-08
2.84957e-06
-1.50797e-08
2.84922e-06
-1.13121e-08
2.84945e-06
-7.5404e-09
2.84926e-06
-3.77087e-09
2.84939e-06
8.95556e-15
2.84933e-06
3.77083e-09
2.84933e-06
7.54032e-09
2.84938e-06
1.13119e-08
2.84926e-06
1.50797e-08
2.84945e-06
1.8852e-08
2.84922e-06
2.26173e-08
2.84956e-06
2.6391e-08
2.84915e-06
3.01534e-08
2.84969e-06
3.39271e-08
2.84899e-06
3.76847e-08
2.84985e-06
4.14564e-08
2.84889e-06
4.52039e-08
2.85009e-06
4.89706e-08
2.84871e-06
5.27006e-08
2.85056e-06
5.64576e-08
2.84844e-06
6.01547e-08
2.85124e-06
6.39e-08
2.84808e-06
6.75325e-08
2.85239e-06
7.12416e-08
2.8479e-06
7.48623e-08
2.85304e-06
7.86901e-08
2.8455e-06
8.29866e-08
2.84333e-06
8.82974e-08
2.81727e-06
9.39799e-08
2.74425e-06
2.70184e-06
-9.84829e-08
2.69518e-06
-9.30475e-08
2.73884e-06
-8.76371e-08
2.8119e-06
-8.31669e-08
2.83891e-06
-7.9137e-08
2.84153e-06
-7.53073e-08
2.84927e-06
-7.1389e-08
2.84405e-06
-6.75425e-08
2.84861e-06
-6.35883e-08
2.84419e-06
-5.96761e-08
2.84739e-06
-5.57077e-08
2.84454e-06
-5.17622e-08
2.84669e-06
-4.77827e-08
2.8448e-06
-4.38197e-08
2.84619e-06
-3.9834e-08
2.84498e-06
-3.58613e-08
2.84594e-06
-3.18732e-08
2.84507e-06
-2.78955e-08
2.84579e-06
-2.39074e-08
2.84523e-06
-1.99267e-08
2.84566e-06
-1.59396e-08
2.8453e-06
-1.19568e-08
2.84554e-06
-7.97033e-09
2.84534e-06
-3.9858e-09
2.84547e-06
7.11275e-15
2.84542e-06
3.98576e-09
2.84542e-06
7.97024e-09
2.84547e-06
1.19566e-08
2.84534e-06
1.59395e-08
2.84554e-06
1.99266e-08
2.8453e-06
2.39071e-08
2.84565e-06
2.78954e-08
2.84523e-06
3.18731e-08
2.84579e-06
3.58609e-08
2.84507e-06
3.98339e-08
2.84595e-06
4.38194e-08
2.84497e-06
4.77822e-08
2.8462e-06
5.17618e-08
2.8448e-06
5.57072e-08
2.84668e-06
5.96754e-08
2.84454e-06
6.35877e-08
2.8474e-06
6.75422e-08
2.84419e-06
7.13889e-08
2.84861e-06
7.53069e-08
2.84405e-06
7.91372e-08
2.84927e-06
8.3168e-08
2.84152e-06
8.76376e-08
2.83891e-06
9.30489e-08
2.8119e-06
9.84841e-08
2.73884e-06
2.69518e-06
-1.03005e-07
2.68875e-06
-9.77825e-08
2.73364e-06
-9.22771e-08
2.80643e-06
-8.76391e-08
2.83432e-06
-8.34073e-08
2.83735e-06
-7.93693e-08
2.84529e-06
-7.52417e-08
2.83998e-06
-7.11813e-08
2.84462e-06
-6.70181e-08
2.84009e-06
-6.2891e-08
2.84333e-06
-5.87114e-08
2.84043e-06
-5.45508e-08
2.8426e-06
-5.03585e-08
2.84068e-06
-4.61805e-08
2.84209e-06
-4.19811e-08
2.84085e-06
-3.77933e-08
2.84182e-06
-3.35913e-08
2.84094e-06
-2.93985e-08
2.84167e-06
-2.5196e-08
2.8411e-06
-2.10003e-08
2.84153e-06
-1.67986e-08
2.84117e-06
-1.26009e-08
2.84142e-06
-8.39984e-09
2.84121e-06
-4.20053e-09
2.84135e-06
5.07478e-15
2.84129e-06
4.20048e-09
2.84129e-06
8.39975e-09
2.84134e-06
1.26008e-08
2.84121e-06
1.67985e-08
2.84142e-06
2.10002e-08
2.84117e-06
2.51957e-08
2.84153e-06
2.93984e-08
2.8411e-06
3.35912e-08
2.84167e-06
3.7793e-08
2.84094e-06
4.19811e-08
2.84183e-06
4.61801e-08
2.84085e-06
5.0358e-08
2.84209e-06
5.45504e-08
2.84068e-06
5.87109e-08
2.84259e-06
6.28903e-08
2.84043e-06
6.70174e-08
2.84334e-06
7.11811e-08
2.84009e-06
7.52416e-08
2.84461e-06
7.9369e-08
2.83998e-06
8.34075e-08
2.84529e-06
8.76401e-08
2.83734e-06
9.22775e-08
2.83432e-06
9.77839e-08
2.80643e-06
1.03006e-07
2.73364e-06
2.68875e-06
-1.07538e-07
2.6825e-06
-1.02499e-07
2.72863e-06
-9.69025e-08
2.80087e-06
-9.21016e-08
2.82956e-06
-8.76693e-08
2.83297e-06
-8.34243e-08
2.84111e-06
-7.90875e-08
2.83571e-06
-7.48136e-08
2.84041e-06
-7.04415e-08
2.83579e-06
-6.61002e-08
2.83906e-06
-6.17096e-08
2.83611e-06
-5.73344e-08
2.83829e-06
-5.29296e-08
2.83634e-06
-4.8537e-08
2.83776e-06
-4.41243e-08
2.83651e-06
-3.97219e-08
2.83749e-06
-3.53062e-08
2.83659e-06
-3.08988e-08
2.83734e-06
-2.64822e-08
2.83676e-06
-2.20719e-08
2.83719e-06
-1.7656e-08
2.83683e-06
-1.32439e-08
2.83707e-06
-8.82857e-09
2.83687e-06
-4.41487e-09
2.837e-06
2.83719e-15
2.83694e-06
4.41482e-09
2.83694e-06
8.82847e-09
2.837e-06
1.32437e-08
2.83687e-06
1.7656e-08
2.83708e-06
2.20718e-08
2.83683e-06
2.64819e-08
2.83719e-06
3.08987e-08
2.83675e-06
3.53061e-08
2.83733e-06
3.97215e-08
2.83659e-06
4.41243e-08
2.8375e-06
4.85366e-08
2.8365e-06
5.29291e-08
2.83777e-06
5.73341e-08
2.83635e-06
6.17091e-08
2.83829e-06
6.60995e-08
2.83611e-06
7.04409e-08
2.83907e-06
7.48134e-08
2.83579e-06
7.90874e-08
2.8404e-06
8.3424e-08
2.83571e-06
8.76696e-08
2.8411e-06
9.21025e-08
2.83296e-06
9.6903e-08
2.82956e-06
1.025e-07
2.80087e-06
1.07539e-07
2.72863e-06
2.6825e-06
-1.12084e-07
2.67642e-06
-1.07198e-07
2.72377e-06
-1.01514e-07
2.79522e-06
-9.65543e-08
2.82465e-06
-9.19228e-08
2.82839e-06
-8.74722e-08
2.83671e-06
-8.29262e-08
2.83122e-06
-7.84391e-08
2.83598e-06
-7.38586e-08
2.83127e-06
-6.93036e-08
2.83457e-06
-6.47022e-08
2.83157e-06
-6.01129e-08
2.83377e-06
-5.54959e-08
2.8318e-06
-5.08891e-08
2.83323e-06
-4.62634e-08
2.83195e-06
-4.16469e-08
2.83295e-06
-3.70179e-08
2.83203e-06
-3.23963e-08
2.83279e-06
-2.7766e-08
2.8322e-06
-2.31416e-08
2.83264e-06
-1.85118e-08
2.83227e-06
-1.38857e-08
2.83252e-06
-9.2565e-09
2.83231e-06
-4.6288e-09
2.83244e-06
3.97519e-16
2.83238e-06
4.62875e-09
2.83238e-06
9.25639e-09
2.83244e-06
1.38855e-08
2.83231e-06
1.85118e-08
2.83252e-06
2.31415e-08
2.83227e-06
2.77657e-08
2.83264e-06
3.23961e-08
2.83219e-06
3.70177e-08
2.83278e-06
4.16465e-08
2.83204e-06
4.62634e-08
2.83295e-06
5.08888e-08
2.83195e-06
5.54954e-08
2.83323e-06
6.01126e-08
2.8318e-06
6.47017e-08
2.83377e-06
6.93029e-08
2.83158e-06
7.3858e-08
2.83458e-06
7.8439e-08
2.83127e-06
8.2926e-08
2.83598e-06
8.74719e-08
2.83122e-06
9.19232e-08
2.83671e-06
9.6555e-08
2.82838e-06
1.01515e-07
2.82465e-06
1.07199e-07
2.79522e-06
1.12086e-07
2.72377e-06
2.67642e-06
-1.16643e-07
2.67046e-06
-1.11883e-07
2.71903e-06
-1.06114e-07
2.78949e-06
-1.00998e-07
2.81958e-06
-9.61688e-08
2.82361e-06
-9.15136e-08
2.83212e-06
-8.67585e-08
2.82653e-06
-8.20586e-08
2.83135e-06
-7.727e-08
2.82655e-06
-7.25018e-08
2.82987e-06
-6.76898e-08
2.82683e-06
-6.28869e-08
2.82904e-06
-5.80579e-08
2.82704e-06
-5.32374e-08
2.82848e-06
-4.8399e-08
2.82718e-06
-4.35686e-08
2.82818e-06
-3.87267e-08
2.82726e-06
-3.38912e-08
2.82802e-06
-2.90476e-08
2.82742e-06
-2.42094e-08
2.82787e-06
-1.93662e-08
2.82749e-06
-1.45264e-08
2.82775e-06
-9.6837e-09
2.82753e-06
-4.84238e-09
2.82767e-06
-2.24437e-15
2.82761e-06
4.84233e-09
2.82761e-06
9.68358e-09
2.82767e-06
1.45262e-08
2.82754e-06
1.93662e-08
2.82775e-06
2.42093e-08
2.82749e-06
2.90473e-08
2.82787e-06
3.38911e-08
2.82742e-06
3.87265e-08
2.82802e-06
4.35682e-08
2.82726e-06
4.8399e-08
2.82819e-06
5.3237e-08
2.82718e-06
5.80574e-08
2.82848e-06
6.28866e-08
2.82704e-06
6.76893e-08
2.82903e-06
7.25011e-08
2.82683e-06
7.72693e-08
2.82988e-06
8.20585e-08
2.82655e-06
8.67583e-08
2.83134e-06
9.15133e-08
2.82653e-06
9.61693e-08
2.83211e-06
1.00999e-07
2.8236e-06
1.06114e-07
2.81958e-06
1.11884e-07
2.78949e-06
1.16644e-07
2.71903e-06
2.67046e-06
-1.21212e-07
2.66462e-06
-1.16553e-07
2.7144e-06
-1.10699e-07
2.78367e-06
-1.05431e-07
2.81435e-06
-1.00405e-07
2.81864e-06
-9.55464e-08
2.82731e-06
-9.05826e-08
2.82162e-06
-8.56704e-08
2.8265e-06
-8.0674e-08
2.82162e-06
-7.56932e-08
2.82496e-06
-7.06709e-08
2.82187e-06
-6.56549e-08
2.82409e-06
-6.06144e-08
2.82206e-06
-5.55806e-08
2.82351e-06
-5.05299e-08
2.8222e-06
-4.54863e-08
2.82321e-06
-4.04318e-08
2.82228e-06
-3.5383e-08
2.82304e-06
-3.03265e-08
2.82243e-06
-2.5275e-08
2.82289e-06
-2.02187e-08
2.8225e-06
-1.51657e-08
2.82276e-06
-1.011e-08
2.82255e-06
-5.05549e-09
2.82269e-06
-5.08371e-15
2.82262e-06
5.05544e-09
2.82262e-06
1.01099e-08
2.82269e-06
1.51655e-08
2.82255e-06
2.02187e-08
2.82276e-06
2.52749e-08
2.82251e-06
3.03262e-08
2.82289e-06
3.53828e-08
2.82243e-06
4.04316e-08
2.82304e-06
4.54859e-08
2.82228e-06
5.05299e-08
2.82321e-06
5.55802e-08
2.8222e-06
6.06138e-08
2.82351e-06
6.56546e-08
2.82207e-06
7.06705e-08
2.82408e-06
7.56925e-08
2.82188e-06
8.06734e-08
2.82496e-06
8.56703e-08
2.82162e-06
9.05824e-08
2.82649e-06
9.55462e-08
2.82162e-06
1.00406e-07
2.8273e-06
1.05431e-07
2.81863e-06
1.107e-07
2.81435e-06
1.16554e-07
2.78367e-06
1.21213e-07
2.7144e-06
2.66462e-06
-1.25789e-07
2.65886e-06
-1.21208e-07
2.70984e-06
-1.1527e-07
2.77777e-06
-1.09851e-07
2.80898e-06
-1.04631e-07
2.81347e-06
-9.95694e-08
2.82231e-06
-9.43972e-08
2.81651e-06
-8.92732e-08
2.82144e-06
-8.40695e-08
2.81648e-06
-7.88768e-08
2.81983e-06
-7.36446e-08
2.81671e-06
-6.84161e-08
2.81893e-06
-6.31644e-08
2.81688e-06
-5.7918e-08
2.81833e-06
-5.26555e-08
2.81701e-06
-4.73991e-08
2.81802e-06
-4.21326e-08
2.81708e-06
-3.6871e-08
2.81785e-06
-3.16021e-08
2.81723e-06
-2.63378e-08
2.81769e-06
-2.10691e-08
2.8173e-06
-1.58034e-08
2.81756e-06
-1.05352e-08
2.81735e-06
-5.26807e-09
2.81749e-06
-8.0946e-15
2.81742e-06
5.26802e-09
2.81742e-06
1.0535e-08
2.81749e-06
1.58032e-08
2.81735e-06
2.10691e-08
2.81757e-06
2.63378e-08
2.81731e-06
3.16018e-08
2.81769e-06
3.68708e-08
2.81723e-06
4.21324e-08
2.81784e-06
4.73987e-08
2.81708e-06
5.26555e-08
2.81803e-06
5.79176e-08
2.817e-06
6.31638e-08
2.81833e-06
6.84158e-08
2.81688e-06
7.36441e-08
2.81892e-06
7.8876e-08
2.81671e-06
8.40689e-08
2.81983e-06
8.92732e-08
2.81648e-06
9.4397e-08
2.82143e-06
9.95692e-08
2.81651e-06
1.04631e-07
2.8223e-06
1.09852e-07
2.81346e-06
1.1527e-07
2.80898e-06
1.21209e-07
2.77776e-06
1.2579e-07
2.70984e-06
2.65886e-06
-1.30374e-07
2.65318e-06
-1.2585e-07
2.70534e-06
-1.19827e-07
2.77178e-06
-1.14261e-07
2.80346e-06
-1.08847e-07
2.8081e-06
-1.03583e-07
2.8171e-06
-9.82034e-08
2.81119e-06
-9.2868e-08
2.81616e-06
-8.74575e-08
2.81113e-06
-8.20533e-08
2.81449e-06
-7.66116e-08
2.81133e-06
-7.11711e-08
2.81355e-06
-6.57086e-08
2.81148e-06
-6.02502e-08
2.81294e-06
-5.47762e-08
2.8116e-06
-4.93077e-08
2.81262e-06
-4.38295e-08
2.81167e-06
-3.83556e-08
2.81244e-06
-3.28748e-08
2.81182e-06
-2.73983e-08
2.81228e-06
-2.19176e-08
2.81189e-06
-1.64397e-08
2.81215e-06
-1.09594e-08
2.81193e-06
-5.48018e-09
2.81207e-06
-1.1361e-14
2.81201e-06
5.48012e-09
2.81201e-06
1.09593e-08
2.81207e-06
1.64395e-08
2.81193e-06
2.19176e-08
2.81215e-06
2.73983e-08
2.81189e-06
3.28746e-08
2.81228e-06
3.83555e-08
2.81182e-06
4.38293e-08
2.81244e-06
4.93073e-08
2.81167e-06
5.47762e-08
2.81262e-06
6.02498e-08
2.8116e-06
6.57081e-08
2.81294e-06
7.11708e-08
2.81148e-06
7.66112e-08
2.81355e-06
8.20526e-08
2.81134e-06
8.74569e-08
2.81449e-06
9.2868e-08
2.81113e-06
9.82032e-08
2.81616e-06
1.03583e-07
2.81119e-06
1.08847e-07
2.81709e-06
1.14261e-07
2.8081e-06
1.19828e-07
2.80346e-06
1.25851e-07
2.77178e-06
1.30376e-07
2.70534e-06
2.65318e-06
-1.34965e-07
2.64754e-06
-1.30479e-07
2.70088e-06
-1.2437e-07
2.7657e-06
-1.18657e-07
2.79779e-06
-1.1305e-07
2.80255e-06
-1.07586e-07
2.81169e-06
-1.01999e-07
2.80566e-06
-9.6453e-08
2.81068e-06
-9.08362e-08
2.80558e-06
-8.52212e-08
2.80894e-06
-7.95704e-08
2.80574e-06
-7.39187e-08
2.80797e-06
-6.82459e-08