/*--------------------------------*- C++ -*----------------------------------*\
| =========                 |                                                 |
| \\      /  F ield         | OpenFOAM: The Open Source CFD Toolbox           |
|  \\    /   O peration     | Version:  dev                                   |
|   \\  /    A nd           | Web:      www.OpenFOAM.org                      |
|    \\/     M anipulation  |                                                 |
\*---------------------------------------------------------------------------*/
FoamFile
{
    version     2.0;
    format      ascii;
    class       volScalarField;
    location    "0";
    object      A1;
}
// * * * * * * * * * * * * * * * * * * * * * * * * * * * * * * * * * * * * * //

dimensions      [0 0 0 0 0 0 0];

internalField   nonuniform List<scalar> 
250
(
1.54505e-05
0.000397214
0.0003782
0.000373348
0.000372922
0.000372679
0.000372706
0.000372703
0.000372714
3.50952e-05
0.000344053
0.000307819
0.000298937
0.000298329
0.000297866
0.000297935
0.000297901
0.000297915
6.59696e-05
0.000254309
0.000215987
0.00020478
0.00020445
0.000203721
0.000203863
0.00020378
0.000203805
0.000205876
0.000188753
0.000151324
0.000138989
0.000138944
0.000138029
0.00013822
0.000138108
0.000138142
0.000249363
0.000146349
0.000109263
9.64715e-05
9.65865e-05
9.55958e-05
9.5791e-05
9.5681e-05
9.57205e-05
0.000246149
0.000119231
8.03682e-05
6.91249e-05
6.92746e-05
6.82949e-05
6.84524e-05
6.83749e-05
6.84135e-05
0.000248265
0.000100605
6.1974e-05
5.13543e-05
5.14346e-05
5.05182e-05
5.06233e-05
5.05847e-05
5.06212e-05
0.000262813
8.84896e-05
4.9475e-05
3.95781e-05
3.9571e-05
3.87608e-05
3.8843e-05
3.88141e-05
3.88458e-05
0.000288495
8.08176e-05
4.04645e-05
3.13711e-05
3.15813e-05
3.0919e-05
3.10336e-05
3.09614e-05
3.09896e-05
0.000320503
7.50342e-05
3.37499e-05
2.58889e-05
2.58312e-05
2.52207e-05
2.53658e-05
2.52451e-05
2.52704e-05
0.000351842
7.07136e-05
2.89838e-05
2.18554e-05
2.1672e-05
2.11757e-05
2.12929e-05
2.11866e-05
2.1208e-05
2.11886e-05
0.00037598
6.68347e-05
2.54703e-05
1.89957e-05
1.87177e-05
1.8299e-05
1.83641e-05
1.82999e-05
1.83196e-05
1.83011e-05
0.00038898
6.32436e-05
2.27365e-05
1.68962e-05
1.65516e-05
1.61895e-05
1.6188e-05
1.6182e-05
1.62015e-05
1.6186e-05
0.00038995
5.97595e-05
2.09866e-05
1.5303e-05
1.49096e-05
1.45917e-05
1.47323e-05
1.45755e-05
1.45958e-05
1.45844e-05
0.000380303
5.6477e-05
1.94721e-05
1.40539e-05
1.36255e-05
1.33408e-05
1.34504e-05
1.33164e-05
1.33397e-05
1.33321e-05
0.000362625
5.32005e-05
1.8112e-05
1.30454e-05
1.25938e-05
1.23348e-05
1.24125e-05
1.2301e-05
1.23302e-05
1.23253e-05
0.000339757
4.98188e-05
1.695e-05
1.22116e-05
1.17465e-05
1.15086e-05
1.15618e-05
1.14626e-05
1.15018e-05
1.14983e-05
0.000314264
4.64222e-05
1.59146e-05
1.15103e-05
1.10399e-05
1.08206e-05
1.08561e-05
1.07573e-05
1.08122e-05
1.08094e-05
0.000288236
4.31113e-05
1.51687e-05
1.09147e-05
1.04457e-05
1.02439e-05
1.02677e-05
1.02341e-05
1.02347e-05
1.02321e-05
0.000258076
3.99128e-05
1.44608e-05
1.04073e-05
9.94624e-06
9.76174e-06
9.77728e-06
9.7444e-06
9.75188e-06
9.74964e-06
0.000232108
3.68776e-05
1.37726e-05
1.00238e-05
9.53052e-06
9.36394e-06
9.37336e-06
9.33749e-06
9.35358e-06
9.35212e-06
0.000208159
3.40297e-05
1.31695e-05
9.69667e-06
9.19216e-06
9.04558e-06
9.05005e-06
9.04904e-06
9.03479e-06
9.03448e-06
0.000183962
3.1387e-05
1.26477e-05
9.46056e-06
8.96794e-06
8.83464e-06
8.83671e-06
8.83748e-06
8.82442e-06
8.82525e-06
0.00016288
2.89772e-05
1.22062e-05
9.29056e-06
8.80597e-06
8.68882e-06
8.68763e-06
8.69094e-06
8.67858e-06
8.681e-06
0.000144599
2.68132e-05
1.18455e-05
9.20933e-06
8.73404e-06
8.63337e-06
8.62918e-06
8.63572e-06
8.62343e-06
8.62783e-06
0.000125344
2.48975e-05
1.16244e-05
9.21324e-06
8.74632e-06
8.66338e-06
8.65592e-06
8.66654e-06
8.65373e-06
8.66049e-06
)
;

boundaryField
{
    fuel
    {
        type            fixedValue;
        value           uniform 0;
    }
    wall
    {
        type            zeroGradient;
    }
    outlet
    {
        type            zeroGradient;
    }
    frontAndBack
    {
        type            empty;
    }
    procBoundary2to0
    {
        type            processor;
        value           nonuniform List<scalar> 
12
(
8.63296e-06
0.000106713
2.32364e-05
1.14964e-05
9.30849e-06
8.84891e-06
8.78501e-06
8.77395e-06
8.78957e-06
8.77564e-06
8.66604e-06
8.78513e-06
)
;
    }
    procBoundary2to3
    {
        type            processor;
        value           nonuniform List<scalar> 
25
(
0.000372703
0.000297909
0.000203793
0.000138121
9.56915e-05
6.83802e-05
5.05813e-05
3.88084e-05
3.09616e-05
2.52481e-05
2.52481e-05
2.11985e-05
1.83132e-05
1.61971e-05
1.45929e-05
1.33379e-05
1.23295e-05
1.15019e-05
1.08131e-05
1.02361e-05
9.75388e-06
9.35645e-06
9.03865e-06
8.8286e-06
8.6867e-06
)
;
    }
}


// ************************************************************************* //
