/*--------------------------------*- C++ -*----------------------------------*\
| =========                 |                                                 |
| \\      /  F ield         | OpenFOAM: The Open Source CFD Toolbox           |
|  \\    /   O peration     | Version:  dev                                   |
|   \\  /    A nd           | Web:      www.OpenFOAM.org                      |
|    \\/     M anipulation  |                                                 |
\*---------------------------------------------------------------------------*/
FoamFile
{
    version     2.0;
    format      ascii;
    class       volScalarField;
    location    "0";
    object      A1-;
}
// * * * * * * * * * * * * * * * * * * * * * * * * * * * * * * * * * * * * * //

dimensions      [0 0 0 0 0 0 0];

internalField   nonuniform List<scalar> 
250
(
9.84424e-08
1.81555e-05
1.85187e-05
1.84193e-05
1.84321e-05
1.84177e-05
1.84196e-05
1.84191e-05
1.84196e-05
9.16189e-08
2.50344e-05
2.38173e-05
2.3289e-05
2.32833e-05
2.32438e-05
2.32498e-05
2.32463e-05
2.32475e-05
4.91044e-07
1.8308e-05
1.67503e-05
1.59874e-05
1.60108e-05
1.59445e-05
1.59581e-05
1.59499e-05
1.59523e-05
1.1208e-05
1.20174e-05
1.05421e-05
9.74538e-06
9.79195e-06
9.71512e-06
9.7324e-06
9.72214e-06
9.72537e-06
2.56737e-05
8.13359e-06
6.77115e-06
6.01956e-06
6.07027e-06
5.99697e-06
6.0127e-06
6.00379e-06
6.00713e-06
2.71273e-05
5.84877e-06
4.49825e-06
3.92456e-06
3.9683e-06
3.90424e-06
3.91559e-06
3.90994e-06
3.9129e-06
2.45631e-05
4.40218e-06
3.22242e-06
2.72287e-06
2.75493e-06
2.70078e-06
2.70771e-06
2.70509e-06
2.70765e-06
2.17496e-05
3.51654e-06
2.43768e-06
1.99995e-06
2.02208e-06
1.97777e-06
1.98276e-06
1.98098e-06
1.98309e-06
1.93516e-05
2.97658e-06
1.9118e-06
1.53002e-06
1.56111e-06
1.52702e-06
1.53346e-06
1.52944e-06
1.53126e-06
1.72105e-05
2.58613e-06
1.53963e-06
1.23015e-06
1.24449e-06
1.21424e-06
1.22204e-06
1.21559e-06
1.21721e-06
1.51519e-05
2.3079e-06
1.28453e-06
1.01602e-06
1.02254e-06
9.98874e-07
1.00502e-06
9.9946e-07
1.00085e-06
9.99616e-07
1.31448e-05
2.07688e-06
1.10068e-06
8.6685e-07
8.67833e-07
8.48454e-07
8.51851e-07
8.48487e-07
8.4979e-07
8.48644e-07
1.12423e-05
1.88382e-06
9.59819e-07
7.58225e-07
7.55475e-07
7.39109e-07
7.39129e-07
7.38679e-07
7.39987e-07
7.39038e-07
9.51062e-06
1.71652e-06
8.70152e-07
6.75871e-07
6.70486e-07
6.56405e-07
6.63724e-07
6.55497e-07
6.5687e-07
6.56156e-07
7.9943e-06
1.57491e-06
7.9276e-07
6.10971e-07
6.03753e-07
5.91343e-07
5.9706e-07
5.89973e-07
5.91539e-07
5.91026e-07
6.70779e-06
1.4469e-06
7.23435e-07
5.58009e-07
5.49599e-07
5.38446e-07
5.42555e-07
5.36555e-07
5.38467e-07
5.38085e-07
5.64202e-06
1.32584e-06
6.64258e-07
5.13496e-07
5.044e-07
4.94244e-07
4.97144e-07
4.91685e-07
4.94147e-07
4.93829e-07
4.77541e-06
1.21276e-06
6.11507e-07
4.75168e-07
4.65796e-07
4.56488e-07
4.58535e-07
4.53e-07
4.56308e-07
4.56009e-07
4.08295e-06
1.10876e-06
5.73079e-07
4.41545e-07
4.32229e-07
4.23686e-07
4.2519e-07
4.23132e-07
4.23458e-07
4.23146e-07
3.43694e-06
1.01259e-06
5.3612e-07
4.11566e-07
4.02639e-07
3.94828e-07
3.95958e-07
3.93786e-07
3.94557e-07
3.94239e-07
2.96502e-06
9.23926e-07
4.99464e-07
3.87225e-07
3.7628e-07
3.69211e-07
3.70071e-07
3.67582e-07
3.68899e-07
3.68588e-07
2.58619e-06
8.4202e-07
4.66149e-07
3.64311e-07
3.52544e-07
3.46323e-07
3.46965e-07
3.46678e-07
3.45965e-07
3.4567e-07
2.24395e-06
7.66228e-07
4.35591e-07
3.44857e-07
3.33876e-07
3.28023e-07
3.28613e-07
3.28244e-07
3.27689e-07
3.27399e-07
1.96925e-06
6.9634e-07
4.07242e-07
3.26531e-07
3.16002e-07
3.10612e-07
3.11087e-07
3.10666e-07
3.10239e-07
3.09955e-07
1.7448e-06
6.31999e-07
3.80471e-07
3.10952e-07
3.01137e-07
2.96186e-07
2.96586e-07
2.96143e-07
2.95811e-07
2.95548e-07
1.51685e-06
5.72823e-07
3.59307e-07
2.97011e-07
2.87922e-07
2.83403e-07
2.8373e-07
2.83279e-07
2.83022e-07
2.82783e-07
)
;

boundaryField
{
    fuel
    {
        type            fixedValue;
        value           uniform 0;
    }
    wall
    {
        type            zeroGradient;
    }
    outlet
    {
        type            zeroGradient;
    }
    frontAndBack
    {
        type            empty;
    }
    procBoundary2to0
    {
        type            processor;
        value           nonuniform List<scalar> 
12
(
2.95606e-07
1.29972e-06
5.18479e-07
3.3976e-07
2.84408e-07
2.76101e-07
2.71969e-07
2.72235e-07
2.71777e-07
2.71583e-07
2.82797e-07
2.71362e-07
)
;
    }
    procBoundary2to3
    {
        type            processor;
        value           nonuniform List<scalar> 
25
(
1.84182e-05
2.32462e-05
1.59504e-05
9.72281e-06
6.00432e-06
3.91015e-06
2.70477e-06
1.98057e-06
1.5294e-06
1.21575e-06
1.21575e-06
1.00032e-06
8.49414e-07
7.39711e-07
6.56658e-07
5.91369e-07
5.38323e-07
4.94015e-07
4.56176e-07
4.23304e-07
3.94384e-07
3.68708e-07
3.45741e-07
3.27342e-07
3.10134e-07
)
;
    }
}


// ************************************************************************* //
