/*--------------------------------*- C++ -*----------------------------------*\
| =========                 |                                                 |
| \\      /  F ield         | OpenFOAM: The Open Source CFD Toolbox           |
|  \\    /   O peration     | Version:  dev                                   |
|   \\  /    A nd           | Web:      www.OpenFOAM.org                      |
|    \\/     M anipulation  |                                                 |
\*---------------------------------------------------------------------------*/
FoamFile
{
    version     2.0;
    format      ascii;
    class       volScalarField;
    location    "0";
    object      A2-1;
}
// * * * * * * * * * * * * * * * * * * * * * * * * * * * * * * * * * * * * * //

dimensions      [0 0 0 0 0 0 0];

internalField   nonuniform List<scalar> 
250
(
7.87984e-10
6.64325e-08
6.25216e-08
6.12814e-08
6.11982e-08
6.1124e-08
6.11307e-08
6.11313e-08
6.11341e-08
7.33319e-10
4.73155e-08
3.91602e-08
3.72622e-08
3.71367e-08
3.704e-08
3.70512e-08
3.70466e-08
3.70489e-08
4.4871e-09
2.22986e-08
1.67914e-08
1.53373e-08
1.52985e-08
1.52064e-08
1.52221e-08
1.52133e-08
1.52162e-08
2.842e-08
1.12434e-08
7.68218e-09
6.66449e-09
6.66075e-09
6.58757e-09
6.60145e-09
6.59353e-09
6.59634e-09
2.98485e-08
6.63481e-09
4.07783e-09
3.33357e-09
3.33711e-09
3.28226e-09
3.29195e-09
3.28672e-09
3.28902e-09
2.09862e-08
4.49522e-09
2.41187e-09
1.9064e-09
1.90877e-09
1.86756e-09
1.87313e-09
1.87068e-09
1.87242e-09
1.72489e-08
3.33289e-09
1.613e-09
1.21348e-09
1.21224e-09
1.18054e-09
1.18317e-09
1.18261e-09
1.18397e-09
1.70047e-08
2.69461e-09
1.16567e-09
8.37029e-10
8.33108e-10
8.08617e-10
8.10177e-10
8.10005e-10
8.11047e-10
1.85881e-08
2.33872e-09
8.82783e-10
6.072e-10
6.09523e-10
5.91216e-10
5.93525e-10
5.92181e-10
5.93039e-10
2.09115e-08
2.09736e-09
6.90005e-10
4.66253e-10
4.6228e-10
4.46573e-10
4.49555e-10
4.47041e-10
4.4777e-10
2.30754e-08
1.93169e-09
5.60774e-10
3.68252e-10
3.62029e-10
3.49874e-10
3.52148e-10
3.50014e-10
3.50614e-10
3.5001e-10
2.44001e-08
1.79062e-09
4.6881e-10
3.01402e-10
2.93754e-10
2.83918e-10
2.85036e-10
2.8384e-10
2.84376e-10
2.83854e-10
2.4542e-08
1.66337e-09
3.98887e-10
2.53669e-10
2.4523e-10
2.37041e-10
2.36775e-10
2.36792e-10
2.37303e-10
2.36894e-10
2.35254e-08
1.54114e-09
3.54876e-10
2.18249e-10
2.09375e-10
2.02444e-10
2.05303e-10
2.02025e-10
2.02534e-10
2.02244e-10
2.16459e-08
1.42675e-09
3.17115e-10
1.91022e-10
1.81971e-10
1.75983e-10
1.78173e-10
1.75409e-10
1.75967e-10
1.75774e-10
1.92992e-08
1.31355e-09
2.83489e-10
1.69443e-10
1.60417e-10
1.55159e-10
1.5668e-10
1.54416e-10
1.5508e-10
1.54949e-10
1.68393e-08
1.19854e-09
2.55088e-10
1.51906e-10
1.43061e-10
1.38394e-10
1.39418e-10
1.3743e-10
1.38276e-10
1.38179e-10
1.4514e-08
1.08559e-09
2.30117e-10
1.37371e-10
1.28827e-10
1.2466e-10
1.25339e-10
1.23382e-10
1.24519e-10
1.24436e-10
1.24638e-08
9.7824e-10
2.12372e-10
1.25156e-10
1.16998e-10
1.13273e-10
1.13735e-10
1.13072e-10
1.13122e-10
1.13042e-10
1.041e-08
8.76982e-10
1.9569e-10
1.14776e-10
1.07092e-10
1.03772e-10
1.04086e-10
1.03423e-10
1.03613e-10
1.03539e-10
8.84819e-09
7.83382e-10
1.79605e-10
1.06858e-10
9.87764e-11
9.58415e-11
9.605e-11
9.53106e-11
9.56768e-11
9.56129e-11
7.55632e-09
6.97534e-10
1.65561e-10
9.98946e-11
9.18071e-11
8.92729e-11
8.93983e-11
8.93614e-11
8.91015e-11
8.9053e-11
6.36849e-09
6.19305e-10
1.53328e-10
9.45456e-11
8.68866e-11
8.45863e-11
8.46805e-11
8.46492e-11
8.44279e-11
8.43926e-11
5.40835e-09
5.4914e-10
1.42732e-10
9.01426e-11
8.27826e-11
8.07497e-11
8.07942e-11
8.07817e-11
8.05884e-11
8.05713e-11
4.62409e-09
4.86892e-10
1.33611e-10
8.71939e-11
8.01271e-11
7.83536e-11
7.83556e-11
7.83774e-11
7.81972e-11
7.82064e-11
3.84167e-09
4.32048e-10
1.27431e-10
8.55332e-11
7.86989e-11
7.71985e-11
7.7152e-11
7.72252e-11
7.7046e-11
7.70883e-11
)
;

boundaryField
{
    fuel
    {
        type            fixedValue;
        value           uniform 0;
    }
    wall
    {
        type            zeroGradient;
    }
    outlet
    {
        type            zeroGradient;
    }
    frontAndBack
    {
        type            empty;
    }
    procBoundary2to0
    {
        type            processor;
        value           nonuniform List<scalar> 
12
(
7.82721e-11
3.12073e-09
3.84544e-10
1.22902e-10
8.52817e-11
7.86231e-11
7.74136e-11
7.73125e-11
7.74564e-11
7.72655e-11
7.71565e-11
7.7349e-11
)
;
    }
    procBoundary2to3
    {
        type            processor;
        value           nonuniform List<scalar> 
25
(
6.11288e-08
3.70469e-08
1.52142e-08
6.59423e-09
3.28714e-09
1.8708e-09
1.1824e-09
8.09747e-10
5.92101e-10
4.47039e-10
4.47039e-10
3.50399e-10
2.84233e-10
2.37206e-10
2.02468e-10
1.75923e-10
1.55052e-10
1.3826e-10
1.24511e-10
1.13116e-10
1.03611e-10
9.56808e-11
8.91108e-11
8.44226e-11
8.06588e-11
)
;
    }
}


// ************************************************************************* //
