/*--------------------------------*- C++ -*----------------------------------*\
| =========                 |                                                 |
| \\      /  F ield         | OpenFOAM: The Open Source CFD Toolbox           |
|  \\    /   O peration     | Version:  dev                                   |
|   \\  /    A nd           | Web:      www.OpenFOAM.org                      |
|    \\/     M anipulation  |                                                 |
\*---------------------------------------------------------------------------*/
FoamFile
{
    version     2.0;
    format      ascii;
    class       volScalarField;
    location    "0";
    object      A2C2HB*;
}
// * * * * * * * * * * * * * * * * * * * * * * * * * * * * * * * * * * * * * //

dimensions      [0 0 0 0 0 0 0];

internalField   nonuniform List<scalar> 
250
(
1.59271e-11
1.20655e-09
1.18046e-09
1.15675e-09
1.15646e-09
1.15451e-09
1.1547e-09
1.15473e-09
1.1548e-09
1.07317e-11
1.49379e-09
1.28181e-09
1.21743e-09
1.21446e-09
1.21058e-09
1.21099e-09
1.21083e-09
1.21094e-09
2.65078e-11
8.39119e-10
6.76729e-10
6.1867e-10
6.18138e-10
6.14006e-10
6.14638e-10
6.14299e-10
6.14432e-10
4.70835e-10
4.51186e-10
3.4627e-10
3.02839e-10
3.03521e-10
3.00067e-10
3.00654e-10
3.00332e-10
3.00465e-10
1.21857e-09
2.68349e-10
1.95401e-10
1.62689e-10
1.63551e-10
1.60882e-10
1.61298e-10
1.61088e-10
1.61203e-10
1.18965e-09
1.76983e-10
1.1951e-10
9.72052e-11
9.78979e-11
9.58504e-11
9.6085e-11
9.59997e-11
9.60906e-11
1.04428e-09
1.24691e-10
8.12168e-11
6.35217e-11
6.39512e-11
6.23511e-11
6.24532e-11
6.24527e-11
6.25272e-11
9.27322e-10
9.4633e-11
5.89876e-11
4.43761e-11
4.46162e-11
4.33642e-11
4.34285e-11
4.34351e-11
4.34949e-11
8.28662e-10
7.69968e-11
4.45012e-11
3.2215e-11
3.27576e-11
3.18141e-11
3.1936e-11
3.18657e-11
3.19169e-11
7.26911e-10
6.45242e-11
3.43195e-11
2.44996e-11
2.4665e-11
2.38422e-11
2.40138e-11
2.38689e-11
2.39137e-11
6.18306e-10
5.57437e-11
2.73128e-11
1.89664e-11
1.8977e-11
1.83397e-11
1.84781e-11
1.83495e-11
1.83873e-11
1.83461e-11
5.09644e-10
4.85027e-11
2.22282e-11
1.51056e-11
1.50088e-11
1.44964e-11
1.45715e-11
1.44948e-11
1.45286e-11
1.44941e-11
4.08796e-10
4.25151e-11
1.83243e-11
1.23145e-11
1.21479e-11
1.17274e-11
1.17223e-11
1.17165e-11
1.17484e-11
1.17218e-11
3.21215e-10
3.74196e-11
1.5854e-11
1.02391e-11
1.00255e-11
9.67723e-12
9.85399e-12
9.65712e-12
9.68814e-12
9.66925e-12
2.49354e-10
3.32184e-11
1.37468e-11
8.65427e-12
8.41152e-12
8.11827e-12
8.25379e-12
8.08991e-12
8.12278e-12
8.10999e-12
1.93036e-10
2.95433e-11
1.19004e-11
7.41363e-12
7.1564e-12
6.90575e-12
7.00067e-12
6.86852e-12
6.90625e-12
6.89736e-12
1.50412e-10
2.61963e-11
1.03728e-11
6.4196e-12
6.15956e-12
5.94275e-12
6.0076e-12
5.89408e-12
5.9407e-12
5.9338e-12
1.1897e-10
2.31898e-11
9.05933e-12
5.60542e-12
5.35174e-12
5.16266e-12
5.20662e-12
5.09727e-12
5.15897e-12
5.15278e-12
9.62481e-11
2.05269e-11
8.13543e-12
4.92473e-12
4.68444e-12
4.51875e-12
4.5495e-12
4.51137e-12
4.51419e-12
4.50791e-12
7.7212e-11
1.81473e-11
7.27615e-12
4.34304e-12
4.12311e-12
3.97781e-12
3.99975e-12
3.96106e-12
3.97254e-12
3.9662e-12
6.4534e-11
1.60185e-11
6.45155e-12
3.8865e-12
3.64258e-12
3.51584e-12
3.5317e-12
3.48825e-12
3.50995e-12
3.50371e-12
5.51322e-11
1.41022e-11
5.72447e-12
3.46752e-12
3.223e-12
3.11504e-12
3.12632e-12
3.12164e-12
3.10848e-12
3.10249e-12
4.7148e-11
1.23677e-11
5.07426e-12
3.11838e-12
2.89999e-12
2.801e-12
2.81096e-12
2.80429e-12
2.79499e-12
2.78905e-12
4.09691e-11
1.07984e-11
4.48368e-12
2.79313e-12
2.59413e-12
2.50522e-12
2.51296e-12
2.50501e-12
2.49871e-12
2.49286e-12
3.60053e-11
9.37916e-12
3.93615e-12
2.51938e-12
2.34218e-12
2.26234e-12
2.26873e-12
2.26027e-12
2.25602e-12
2.25057e-12
3.09857e-11
8.09751e-12
3.51267e-12
2.277e-12
2.12002e-12
2.04892e-12
2.05404e-12
2.04553e-12
2.04276e-12
2.03781e-12
)
;

boundaryField
{
    fuel
    {
        type            fixedValue;
        value           uniform 0;
    }
    wall
    {
        type            zeroGradient;
    }
    outlet
    {
        type            zeroGradient;
    }
    frontAndBack
    {
        type            empty;
    }
    procBoundary2to0
    {
        type            processor;
        value           nonuniform List<scalar> 
12
(
2.25097e-12
2.61767e-11
6.94571e-12
3.12982e-12
2.06284e-12
1.92493e-12
1.862e-12
1.86604e-12
1.85777e-12
1.85607e-12
2.03758e-12
1.85164e-12
)
;
    }
    procBoundary2to3
    {
        type            processor;
        value           nonuniform List<scalar> 
25
(
1.15463e-09
1.21079e-09
6.143e-10
3.00341e-10
1.61091e-10
9.59925e-11
6.24322e-11
4.34144e-11
3.18564e-11
2.38648e-11
2.38648e-11
1.83733e-11
1.45187e-11
1.17411e-11
9.68248e-12
8.11816e-12
6.90225e-12
5.937e-12
5.15526e-12
4.51005e-12
3.96804e-12
3.50511e-12
3.10304e-12
2.78739e-12
2.49527e-12
)
;
    }
}


// ************************************************************************* //
