/*--------------------------------*- C++ -*----------------------------------*\
| =========                 |                                                 |
| \\      /  F ield         | OpenFOAM: The Open Source CFD Toolbox           |
|  \\    /   O peration     | Version:  dev                                   |
|   \\  /    A nd           | Web:      www.OpenFOAM.org                      |
|    \\/     M anipulation  |                                                 |
\*---------------------------------------------------------------------------*/
FoamFile
{
    version     2.0;
    format      ascii;
    class       volScalarField;
    location    "0";
    object      A2C2HA*;
}
// * * * * * * * * * * * * * * * * * * * * * * * * * * * * * * * * * * * * * //

dimensions      [0 0 0 0 0 0 0];

internalField   nonuniform List<scalar> 
250
(
1.03498e-11
8.13634e-10
7.89566e-10
7.74007e-10
7.73602e-10
7.72392e-10
7.72495e-10
7.72507e-10
7.72549e-10
6.5958e-12
8.0283e-10
6.8139e-10
6.46209e-10
6.44461e-10
6.42396e-10
6.42596e-10
6.42517e-10
6.42567e-10
1.84128e-11
4.1394e-10
3.28015e-10
2.98886e-10
2.98468e-10
2.96443e-10
2.96733e-10
2.96578e-10
2.96641e-10
3.52911e-10
2.17841e-10
1.62933e-10
1.41881e-10
1.42052e-10
1.40424e-10
1.40679e-10
1.40542e-10
1.40604e-10
6.66376e-10
1.30458e-10
9.20555e-11
7.63803e-11
7.66567e-11
7.5414e-11
7.55882e-11
7.55041e-11
7.55573e-11
5.66517e-10
8.74278e-11
5.71545e-11
4.64261e-11
4.66471e-11
4.56949e-11
4.57867e-11
4.57594e-11
4.58019e-11
4.75439e-10
6.28163e-11
3.96168e-11
3.10971e-11
3.12144e-11
3.04682e-11
3.05017e-11
3.05114e-11
3.05466e-11
4.25011e-10
4.86058e-11
2.94285e-11
2.23842e-11
2.24268e-11
2.18406e-11
2.18595e-11
2.18699e-11
2.18988e-11
3.95817e-10
4.02357e-11
2.27786e-11
1.68416e-11
1.70305e-11
1.65851e-11
1.66323e-11
1.66057e-11
1.6631e-11
3.71882e-10
3.43102e-11
1.80929e-11
1.33125e-11
1.33356e-11
1.29436e-11
1.3014e-11
1.29528e-11
1.29756e-11
3.44563e-10
3.01355e-11
1.48492e-11
1.07579e-11
1.07158e-11
1.0406e-11
1.04613e-11
1.04073e-11
1.04274e-11
1.04062e-11
3.11096e-10
2.66684e-11
1.24703e-11
8.94526e-12
8.85864e-12
8.60318e-12
8.63008e-12
8.59875e-12
8.61768e-12
8.5996e-12
2.72541e-10
2.37513e-11
1.0615e-11
7.6014e-12
7.48659e-12
7.27048e-12
7.2614e-12
7.26114e-12
7.27992e-12
7.26567e-12
2.31988e-10
2.12038e-11
9.41771e-12
6.56826e-12
6.43497e-12
6.24967e-12
6.3347e-12
6.23505e-12
6.25434e-12
6.24389e-12
1.92903e-10
1.90383e-11
8.36981e-12
5.74715e-12
5.60297e-12
5.44105e-12
5.50795e-12
5.4213e-12
5.44267e-12
5.43515e-12
1.57879e-10
1.70833e-11
7.42237e-12
5.07508e-12
4.9264e-12
4.78272e-12
4.83067e-12
4.75715e-12
4.78239e-12
4.77671e-12
1.28231e-10
1.52512e-11
6.61154e-12
4.51091e-12
4.36287e-12
4.23404e-12
4.26777e-12
4.20093e-12
4.23242e-12
4.22763e-12
1.04197e-10
1.35677e-11
5.89074e-12
4.02685e-12
3.88364e-12
3.76746e-12
3.79125e-12
3.7237e-12
3.76498e-12
3.76043e-12
8.53779e-11
1.20513e-11
5.36817e-12
3.60382e-12
3.46877e-12
3.36379e-12
3.38137e-12
3.35654e-12
3.36084e-12
3.35613e-12
6.83967e-11
1.06793e-11
4.86753e-12
3.22742e-12
3.10407e-12
3.00944e-12
3.02276e-12
2.99619e-12
3.00606e-12
3.00125e-12
5.64827e-11
9.44595e-12
4.37329e-12
2.92133e-12
2.77906e-12
2.6945e-12
2.70476e-12
2.6741e-12
2.6907e-12
2.68592e-12
4.72885e-11
8.33403e-12
3.92596e-12
2.6314e-12
2.48506e-12
2.41153e-12
2.4193e-12
2.4157e-12
2.40722e-12
2.40258e-12
3.9302e-11
7.32815e-12
3.51647e-12
2.38303e-12
2.25178e-12
2.183e-12
2.1903e-12
2.18513e-12
2.17906e-12
2.17442e-12
3.31115e-11
6.42161e-12
3.13669e-12
2.1459e-12
2.02485e-12
1.9619e-12
1.9679e-12
1.96167e-12
1.95753e-12
1.9529e-12
2.82088e-11
5.60535e-12
2.77814e-12
1.94192e-12
1.83342e-12
1.77596e-12
1.78117e-12
1.77444e-12
1.77167e-12
1.76729e-12
2.34088e-11
4.87049e-12
2.49634e-12
1.75769e-12
1.66088e-12
1.60893e-12
1.61332e-12
1.60643e-12
1.6047e-12
1.60064e-12
)
;

boundaryField
{
    fuel
    {
        type            fixedValue;
        value           uniform 0;
    }
    wall
    {
        type            zeroGradient;
    }
    outlet
    {
        type            zeroGradient;
    }
    frontAndBack
    {
        type            empty;
    }
    procBoundary2to0
    {
        type            processor;
        value           nonuniform List<scalar> 
12
(
1.76746e-12
1.90238e-11
4.21203e-12
2.23794e-12
1.59181e-12
1.50615e-12
1.4595e-12
1.46315e-12
1.45633e-12
1.45537e-12
1.60031e-12
1.45167e-12
)
;
    }
    procBoundary2to3
    {
        type            processor;
        value           nonuniform List<scalar> 
25
(
7.72445e-10
6.42496e-10
2.96578e-10
1.40544e-10
7.5504e-11
4.57548e-11
3.05009e-11
2.18596e-11
1.66009e-11
1.29507e-11
1.29507e-11
1.04211e-11
8.61317e-12
7.27646e-12
6.25151e-12
5.44018e-12
4.78006e-12
4.23009e-12
3.76245e-12
3.35787e-12
3.0027e-12
2.68697e-12
2.40294e-12
2.17309e-12
1.95459e-12
)
;
    }
}


// ************************************************************************* //
