/*--------------------------------*- C++ -*----------------------------------*\
| =========                 |                                                 |
| \\      /  F ield         | OpenFOAM: The Open Source CFD Toolbox           |
|  \\    /   O peration     | Version:  dev                                   |
|   \\  /    A nd           | Web:      www.OpenFOAM.org                      |
|    \\/     M anipulation  |                                                 |
\*---------------------------------------------------------------------------*/
FoamFile
{
    version     2.0;
    format      ascii;
    class       volScalarField;
    location    "0";
    object      A3C2H2;
}
// * * * * * * * * * * * * * * * * * * * * * * * * * * * * * * * * * * * * * //

dimensions      [0 0 0 0 0 0 0];

internalField   nonuniform List<scalar> 
25
(
8.71475e-24
9.31969e-24
9.91465e-24
1.05059e-23
1.1061e-23
1.15487e-23
1.1989e-23
1.23726e-23
1.26911e-23
1.2937e-23
1.31037e-23
1.31853e-23
1.31776e-23
1.30776e-23
1.28837e-23
1.25962e-23
1.22169e-23
1.17483e-23
1.11935e-23
1.05579e-23
9.85029e-24
9.09796e-24
8.30364e-24
7.47958e-24
6.64115e-24
)
;

boundaryField
{
    wall
    {
        type            zeroGradient;
    }
    fuel
    {
        type            fixedValue;
        value           nonuniform 0();
    }
    outlet
    {
        type            inletOutlet;
        inletValue      nonuniform 0();
        value           nonuniform 0();
    }
    procBoundary2to1
    {
        type            processor;
        value           uniform 8.09887e-24;
    }
    procBoundary2to3
    {
        type            processor;
        value           uniform 5.78927e-24;
    }
}


// ************************************************************************* //
