/*--------------------------------*- C++ -*----------------------------------*\
| =========                 |                                                 |
| \\      /  F ield         | OpenFOAM: The Open Source CFD Toolbox           |
|  \\    /   O peration     | Version:  dev                                   |
|   \\  /    A nd           | Web:      www.OpenFOAM.org                      |
|    \\/     M anipulation  |                                                 |
\*---------------------------------------------------------------------------*/
FoamFile
{
    version     2.0;
    format      ascii;
    class       volScalarField;
    location    "0";
    object      A4;
}
// * * * * * * * * * * * * * * * * * * * * * * * * * * * * * * * * * * * * * //

dimensions      [0 0 0 0 0 0 0];

internalField   nonuniform List<scalar> 
250
(
4.2541e-09
4.67555e-08
3.50972e-08
3.23769e-08
3.19951e-08
3.19155e-08
3.1902e-08
3.19122e-08
3.19132e-08
1.24066e-08
8.74716e-08
6.20715e-08
5.64381e-08
5.56028e-08
5.54541e-08
5.54202e-08
5.54439e-08
5.54455e-08
1.91379e-08
1.17658e-07
7.91947e-08
7.05833e-08
6.92915e-08
6.90678e-08
6.9007e-08
6.90482e-08
6.90497e-08
2.09573e-08
1.37533e-07
8.87165e-08
7.7424e-08
7.57326e-08
7.54219e-08
7.53327e-08
7.5393e-08
7.5396e-08
2.96578e-08
1.50475e-07
9.36137e-08
8.00777e-08
7.80453e-08
7.76368e-08
7.75173e-08
7.75996e-08
7.76061e-08
4.26092e-08
1.59074e-07
9.59386e-08
8.0469e-08
7.81415e-08
7.76281e-08
7.74773e-08
7.75835e-08
7.75952e-08
5.7921e-08
1.65115e-07
9.66105e-08
7.963e-08
7.70426e-08
7.64228e-08
7.62482e-08
7.63715e-08
7.63896e-08
7.34137e-08
1.68794e-07
9.63867e-08
7.8081e-08
7.52811e-08
7.45664e-08
7.43929e-08
7.4509e-08
7.4534e-08
8.66915e-08
1.70395e-07
9.56391e-08
7.60487e-08
7.3177e-08
7.23881e-08
7.22477e-08
7.23253e-08
7.2358e-08
9.6174e-08
1.70399e-07
9.44864e-08
7.38732e-08
7.07741e-08
6.98628e-08
6.97559e-08
6.979e-08
6.98318e-08
1.0168e-07
1.69194e-07
9.30161e-08
7.13871e-08
6.81227e-08
6.71393e-08
6.70292e-08
6.70547e-08
6.7105e-08
6.70488e-08
1.04129e-07
1.66871e-07
9.12233e-08
6.88041e-08
6.5397e-08
6.43497e-08
6.42162e-08
6.42505e-08
6.43108e-08
6.42558e-08
1.0489e-07
1.63648e-07
8.90804e-08
6.61587e-08
6.2637e-08
6.15386e-08
6.13588e-08
6.14204e-08
6.14927e-08
6.14434e-08
1.05208e-07
1.59675e-07
8.71654e-08
6.34816e-08
5.9873e-08
5.87394e-08
5.88766e-08
5.85952e-08
5.86825e-08
5.86408e-08
1.05912e-07
1.55304e-07
8.49023e-08
6.07958e-08
5.71312e-08
5.59729e-08
5.61019e-08
5.57971e-08
5.5907e-08
5.58722e-08
1.07352e-07
1.50411e-07
8.2204e-08
5.81209e-08
5.44345e-08
5.32625e-08
5.33585e-08
5.30461e-08
5.31894e-08
5.3159e-08
1.09503e-07
1.44869e-07
7.92787e-08
5.54751e-08
5.18022e-08
5.06285e-08
5.06932e-08
5.03569e-08
5.05496e-08
5.0521e-08
1.12104e-07
1.38837e-07
7.61034e-08
5.28742e-08
4.92507e-08
4.80877e-08
4.81277e-08
4.77396e-08
4.80042e-08
4.79754e-08
1.14787e-07
1.32518e-07
7.34358e-08
5.03327e-08
4.67937e-08
4.56538e-08
4.56785e-08
4.55292e-08
4.55674e-08
4.55367e-08
1.17648e-07
1.25988e-07
7.05136e-08
4.78581e-08
4.44418e-08
4.33373e-08
4.33502e-08
4.31728e-08
4.32481e-08
4.32164e-08
1.19622e-07
1.19324e-07
6.72576e-08
4.57128e-08
4.22014e-08
4.11463e-08
4.11491e-08
4.09283e-08
4.10541e-08
4.10227e-08
1.20741e-07
1.12611e-07
6.3999e-08
4.357e-08
4.00708e-08
3.90862e-08
3.90786e-08
3.90587e-08
3.89902e-08
3.89599e-08
1.20908e-07
1.05928e-07
6.07576e-08
4.16713e-08
3.83388e-08
3.73873e-08
3.73814e-08
3.73516e-08
3.72942e-08
3.72641e-08
1.20097e-07
9.93482e-08
5.75361e-08
3.98108e-08
3.66238e-08
3.57199e-08
3.57081e-08
3.56709e-08
3.56234e-08
3.55937e-08
1.18461e-07
9.29401e-08
5.43095e-08
3.81972e-08
3.51808e-08
3.43271e-08
3.43116e-08
3.42711e-08
3.42311e-08
3.42037e-08
1.15534e-07
8.67846e-08
5.1684e-08
3.6743e-08
3.38984e-08
3.30995e-08
3.3079e-08
3.30375e-08
3.30035e-08
3.29793e-08
)
;

boundaryField
{
    fuel
    {
        type            fixedValue;
        value           uniform 0;
    }
    wall
    {
        type            zeroGradient;
    }
    outlet
    {
        type            zeroGradient;
    }
    frontAndBack
    {
        type            empty;
    }
    procBoundary2to0
    {
        type            processor;
        value           nonuniform List<scalar> 
12
(
3.4215e-08
1.11343e-07
8.08833e-08
4.92034e-08
3.54498e-08
3.27786e-08
3.20363e-08
3.20103e-08
3.19696e-08
3.19405e-08
3.29877e-08
3.19197e-08
)
;
    }
    procBoundary2to3
    {
        type            processor;
        value           nonuniform List<scalar> 
25
(
3.19117e-08
5.54427e-08
6.90444e-08
7.53859e-08
7.75889e-08
7.75691e-08
7.63533e-08
7.44893e-08
7.23093e-08
6.97793e-08
6.97793e-08
6.71037e-08
6.43098e-08
6.14916e-08
5.86811e-08
5.59051e-08
5.31871e-08
5.05464e-08
4.79995e-08
4.55597e-08
4.32377e-08
4.10413e-08
3.89736e-08
3.72648e-08
3.5617e-08
)
;
    }
}


// ************************************************************************* //
