/*--------------------------------*- C++ -*----------------------------------*\
| =========                 |                                                 |
| \\      /  F ield         | OpenFOAM: The Open Source CFD Toolbox           |
|  \\    /   O peration     | Version:  dev                                   |
|   \\  /    A nd           | Web:      www.OpenFOAM.org                      |
|    \\/     M anipulation  |                                                 |
\*---------------------------------------------------------------------------*/
FoamFile
{
    version     2.0;
    format      ascii;
    class       volScalarField;
    location    "0";
    object      A4-;
}
// * * * * * * * * * * * * * * * * * * * * * * * * * * * * * * * * * * * * * //

dimensions      [0 0 0 0 0 0 0];

internalField   nonuniform List<scalar> 
25
(
1.31817e-16
1.41106e-16
1.506e-16
1.605e-16
1.70339e-16
1.7957e-16
1.8862e-16
1.97363e-16
2.05685e-16
2.13468e-16
2.2059e-16
2.26928e-16
2.32364e-16
2.36783e-16
2.40081e-16
2.42162e-16
2.42945e-16
2.42369e-16
2.40401e-16
2.37023e-16
2.32125e-16
2.25852e-16
2.18203e-16
2.09242e-16
1.99086e-16
)
;

boundaryField
{
    wall
    {
        type            zeroGradient;
    }
    fuel
    {
        type            fixedValue;
        value           nonuniform 0();
    }
    outlet
    {
        type            inletOutlet;
        inletValue      nonuniform 0();
        value           nonuniform 0();
    }
    procBoundary2to1
    {
        type            processor;
        value           uniform 1.22646e-16;
    }
    procBoundary2to3
    {
        type            processor;
        value           uniform 1.87575e-16;
    }
}


// ************************************************************************* //
