/*--------------------------------*- C++ -*----------------------------------*\
| =========                 |                                                 |
| \\      /  F ield         | OpenFOAM: The Open Source CFD Toolbox           |
|  \\    /   O peration     | Version:  dev                                   |
|   \\  /    A nd           | Web:      www.OpenFOAM.org                      |
|    \\/     M anipulation  |                                                 |
\*---------------------------------------------------------------------------*/
FoamFile
{
    version     2.0;
    format      ascii;
    class       volScalarField;
    location    "0";
    object      AC3H4;
}
// * * * * * * * * * * * * * * * * * * * * * * * * * * * * * * * * * * * * * //

dimensions      [0 0 0 0 0 0 0];

internalField   nonuniform List<scalar> 
25
(
6.76106e-09
7.25461e-09
7.75788e-09
8.26902e-09
8.78008e-09
9.28003e-09
9.75197e-09
1.01995e-08
1.06201e-08
1.09922e-08
1.132e-08
1.15995e-08
1.18271e-08
1.20016e-08
1.21215e-08
1.21871e-08
1.21993e-08
1.21599e-08
1.20717e-08
1.19354e-08
1.1759e-08
1.15439e-08
1.12941e-08
1.10131e-08
1.07045e-08
)
;

boundaryField
{
    wall
    {
        type            zeroGradient;
    }
    fuel
    {
        type            fixedValue;
        value           nonuniform 0();
    }
    outlet
    {
        type            inletOutlet;
        inletValue      nonuniform 0();
        value           nonuniform 0();
    }
    procBoundary2to1
    {
        type            processor;
        value           uniform 6.28297e-09;
    }
    procBoundary2to3
    {
        type            processor;
        value           uniform 1.0371e-08;
    }
}


// ************************************************************************* //
