/*--------------------------------*- C++ -*----------------------------------*\
| =========                 |                                                 |
| \\      /  F ield         | OpenFOAM: The Open Source CFD Toolbox           |
|  \\    /   O peration     | Version:  dev                                   |
|   \\  /    A nd           | Web:      www.OpenFOAM.org                      |
|    \\/     M anipulation  |                                                 |
\*---------------------------------------------------------------------------*/
FoamFile
{
    version     2.0;
    format      ascii;
    class       volScalarField;
    location    "0";
    object      C2H;
}
// * * * * * * * * * * * * * * * * * * * * * * * * * * * * * * * * * * * * * //

dimensions      [0 0 0 0 0 0 0];

internalField   nonuniform List<scalar> 
250
(
1.6827e-09
5.32078e-06
6.15132e-06
6.24723e-06
6.27119e-06
6.26942e-06
6.26976e-06
6.26956e-06
6.26957e-06
5.72382e-09
8.59639e-06
9.41688e-06
9.4643e-06
9.49648e-06
9.48859e-06
9.48968e-06
9.48887e-06
9.48905e-06
1.33342e-07
5.96715e-06
6.55877e-06
6.53024e-06
6.56965e-06
6.55335e-06
6.55662e-06
6.55462e-06
6.55533e-06
7.10063e-06
3.9355e-06
4.37225e-06
4.31702e-06
4.35833e-06
4.33888e-06
4.34317e-06
4.34073e-06
4.34184e-06
1.6962e-05
2.78148e-06
3.14432e-06
3.08348e-06
3.1229e-06
3.10403e-06
3.10791e-06
3.10595e-06
3.10721e-06
1.4455e-05
2.09758e-06
2.42842e-06
2.40554e-06
2.44165e-06
2.42493e-06
2.42751e-06
2.42659e-06
2.42783e-06
1.01292e-05
1.6481e-06
2.02925e-06
2.01694e-06
2.04941e-06
2.03515e-06
2.03636e-06
2.03641e-06
2.03763e-06
6.70737e-06
1.35678e-06
1.78147e-06
1.77873e-06
1.80895e-06
1.79719e-06
1.79789e-06
1.79812e-06
1.79931e-06
4.35193e-06
1.16855e-06
1.60913e-06
1.61632e-06
1.6513e-06
1.64214e-06
1.64353e-06
1.64283e-06
1.64406e-06
2.8292e-06
1.02713e-06
1.47678e-06
1.50309e-06
1.53389e-06
1.52486e-06
1.52694e-06
1.52517e-06
1.52651e-06
1.87851e-06
9.24148e-07
1.37458e-06
1.41027e-06
1.44008e-06
1.43237e-06
1.434e-06
1.43234e-06
1.43381e-06
1.43245e-06
1.28781e-06
8.3938e-07
1.28944e-06
1.33349e-06
1.36278e-06
1.3557e-06
1.35638e-06
1.35533e-06
1.35699e-06
1.35565e-06
9.14273e-07
7.71083e-07
1.21353e-06
1.26611e-06
1.29514e-06
1.28836e-06
1.28762e-06
1.28758e-06
1.28951e-06
1.28831e-06
6.71884e-07
7.15218e-07
1.15797e-06
1.20461e-06
1.23335e-06
1.22677e-06
1.23231e-06
1.22544e-06
1.22771e-06
1.22669e-06
5.1078e-07
6.70996e-07
1.10315e-06
1.14689e-06
1.17527e-06
1.16872e-06
1.17373e-06
1.16674e-06
1.16951e-06
1.16863e-06
4.01624e-07
6.33795e-07
1.04747e-06
1.09167e-06
1.11962e-06
1.11299e-06
1.11717e-06
1.11016e-06
1.11365e-06
1.11284e-06
3.26654e-07
6.01022e-07
9.94376e-07
1.03808e-06
1.06552e-06
1.05876e-06
1.06226e-06
1.0548e-06
1.05931e-06
1.0585e-06
2.7487e-07
5.72263e-07
9.42277e-07
9.85475e-07
1.01235e-06
1.00543e-06
1.00844e-06
9.99892e-07
1.00588e-06
1.00502e-06
2.39375e-07
5.47133e-07
9.00914e-07
9.33301e-07
9.596e-07
9.52516e-07
9.55233e-07
9.51479e-07
9.52874e-07
9.51918e-07
2.11618e-07
5.24548e-07
8.57759e-07
8.80983e-07
9.06789e-07
8.99576e-07
9.02078e-07
8.97473e-07
8.99825e-07
8.98775e-07
1.94611e-07
5.03619e-07
8.11273e-07
8.33201e-07
8.53437e-07
8.46201e-07
8.48518e-07
8.4274e-07
8.46316e-07
8.45179e-07
1.83734e-07
4.83551e-07
7.65093e-07
7.82612e-07
7.9889e-07
7.91958e-07
7.94066e-07
7.93051e-07
7.91894e-07
7.90678e-07
1.7635e-07
4.63587e-07
7.18473e-07
7.34082e-07
7.50001e-07
7.42419e-07
7.44629e-07
7.43045e-07
7.42348e-07
7.41025e-07
1.72184e-07
4.4304e-07
6.70479e-07
6.8221e-07
6.96442e-07
6.88373e-07
6.90469e-07
6.88394e-07
6.88096e-07
6.86644e-07
1.70073e-07
4.21326e-07
6.199e-07
6.32072e-07
6.45416e-07
6.36964e-07
6.3903e-07
6.3659e-07
6.36609e-07
6.35087e-07
1.68751e-07
3.98065e-07
5.75261e-07
5.81101e-07
5.93446e-07
5.84711e-07
5.86718e-07
5.83979e-07
5.8427e-07
5.82693e-07
)
;

boundaryField
{
    fuel
    {
        type            fixedValue;
        value           uniform 0;
    }
    wall
    {
        type            zeroGradient;
    }
    outlet
    {
        type            zeroGradient;
    }
    frontAndBack
    {
        type            empty;
    }
    procBoundary2to0
    {
        type            processor;
        value           nonuniform List<scalar> 
12
(
6.34744e-07
1.6778e-07
3.72746e-07
5.29314e-07
5.29262e-07
5.40652e-07
5.31656e-07
5.33613e-07
5.30614e-07
5.31145e-07
5.82199e-07
5.2952e-07
)
;
    }
    procBoundary2to3
    {
        type            processor;
        value           nonuniform List<scalar> 
25
(
6.26898e-06
9.48827e-06
6.55426e-06
4.34056e-06
3.10583e-06
2.42641e-06
2.03608e-06
1.79777e-06
1.64263e-06
1.52511e-06
1.52511e-06
1.43351e-06
1.35671e-06
1.28923e-06
1.2274e-06
1.16915e-06
1.11323e-06
1.05879e-06
1.00523e-06
9.52055e-07
8.98825e-07
8.45121e-07
7.90442e-07
7.40364e-07
6.86701e-07
)
;
    }
}


// ************************************************************************* //
