/*--------------------------------*- C++ -*----------------------------------*\
| =========                 |                                                 |
| \\      /  F ield         | OpenFOAM: The Open Source CFD Toolbox           |
|  \\    /   O peration     | Version:  dev                                   |
|   \\  /    A nd           | Web:      www.OpenFOAM.org                      |
|    \\/     M anipulation  |                                                 |
\*---------------------------------------------------------------------------*/
FoamFile
{
    version     2.0;
    format      ascii;
    class       volScalarField;
    location    "0";
    object      C2H6;
}
// * * * * * * * * * * * * * * * * * * * * * * * * * * * * * * * * * * * * * //

dimensions      [0 0 0 0 0 0 0];

internalField   nonuniform List<scalar> 
250
(
9.25775e-06
3.24713e-05
2.68924e-05
2.62855e-05
2.61589e-05
2.61601e-05
2.61584e-05
2.61583e-05
2.61582e-05
4.17478e-05
6.76217e-06
5.66096e-06
5.48367e-06
5.46488e-06
5.45916e-06
5.46003e-06
5.45949e-06
5.45951e-06
0.000217083
2.70946e-06
2.14126e-06
2.03837e-06
2.03402e-06
2.02836e-06
2.02943e-06
2.02873e-06
2.02889e-06
5.60395e-05
1.56535e-06
1.15442e-06
1.07479e-06
1.07455e-06
1.06881e-06
1.07015e-06
1.06931e-06
1.06956e-06
1.03469e-05
1.05829e-06
7.46849e-07
6.7958e-07
6.80748e-07
6.75395e-07
6.76711e-07
6.75922e-07
6.76189e-07
3.36216e-06
8.0872e-07
5.3939e-07
4.90117e-07
4.91264e-07
4.86671e-07
4.87686e-07
4.87121e-07
4.87351e-07
2.10869e-06
6.68411e-07
4.35001e-07
3.92699e-07
3.93107e-07
3.89322e-07
3.89971e-07
3.8965e-07
3.89841e-07
1.86651e-06
5.92315e-07
3.77148e-07
3.39821e-07
3.39402e-07
3.36352e-07
3.36762e-07
3.36577e-07
3.36727e-07
1.91204e-06
5.53282e-07
3.42254e-07
3.08656e-07
3.08566e-07
3.0619e-07
3.06575e-07
3.0634e-07
3.06466e-07
2.12693e-06
5.30599e-07
3.20153e-07
2.90224e-07
2.88872e-07
2.86707e-07
2.87094e-07
2.86772e-07
2.86884e-07
2.50635e-06
5.18441e-07
3.06383e-07
2.7762e-07
2.75596e-07
2.7375e-07
2.73997e-07
2.73755e-07
2.73857e-07
2.73803e-07
3.06008e-06
5.10262e-07
2.97014e-07
2.68806e-07
2.66274e-07
2.64577e-07
2.6464e-07
2.64536e-07
2.6464e-07
2.64582e-07
3.77337e-06
5.0356e-07
2.89802e-07
2.62029e-07
2.59117e-07
2.57487e-07
2.57328e-07
2.57403e-07
2.57517e-07
2.57463e-07
4.58686e-06
4.96298e-07
2.85187e-07
2.56401e-07
2.53187e-07
2.5159e-07
2.5207e-07
2.51458e-07
2.51588e-07
2.51543e-07
5.39384e-06
4.87894e-07
2.80796e-07
2.51458e-07
2.48003e-07
2.46416e-07
2.46812e-07
2.46231e-07
2.46392e-07
2.46357e-07
6.05988e-06
4.77197e-07
2.7624e-07
2.46967e-07
2.43324e-07
2.41743e-07
2.42032e-07
2.4149e-07
2.41702e-07
2.41675e-07
6.46113e-06
4.63536e-07
2.71769e-07
2.42817e-07
2.39039e-07
2.3747e-07
2.37673e-07
2.37117e-07
2.37416e-07
2.37394e-07
6.52565e-06
4.47442e-07
2.67185e-07
2.38964e-07
2.35105e-07
2.33561e-07
2.33701e-07
2.33058e-07
2.33498e-07
2.33478e-07
6.25564e-06
4.29811e-07
2.63708e-07
2.35389e-07
2.31514e-07
2.30011e-07
2.30112e-07
2.29929e-07
2.29943e-07
2.29924e-07
5.59171e-06
4.112e-07
2.60028e-07
2.32084e-07
2.28274e-07
2.26831e-07
2.26901e-07
2.26665e-07
2.26759e-07
2.26742e-07
4.83525e-06
3.92442e-07
2.56031e-07
2.29537e-07
2.25385e-07
2.24028e-07
2.2407e-07
2.23734e-07
2.23951e-07
2.23941e-07
4.04088e-06
3.74106e-07
2.52255e-07
2.27145e-07
2.22829e-07
2.21601e-07
2.21617e-07
2.21669e-07
2.21519e-07
2.21518e-07
3.22245e-06
3.56597e-07
2.48737e-07
2.25368e-07
2.21189e-07
2.20027e-07
2.20039e-07
2.20083e-07
2.19954e-07
2.1996e-07
2.54927e-06
3.40344e-07
2.45451e-07
2.23811e-07
2.1972e-07
2.18644e-07
2.1864e-07
2.18676e-07
2.18568e-07
2.18582e-07
2.02235e-06
3.25519e-07
2.42283e-07
2.22876e-07
2.18931e-07
2.17955e-07
2.17938e-07
2.1798e-07
2.17883e-07
2.17907e-07
1.54727e-06
3.12154e-07
2.40235e-07
2.22393e-07
2.18616e-07
2.17744e-07
2.17712e-07
2.17768e-07
2.17675e-07
2.17711e-07
)
;

boundaryField
{
    fuel
    {
        type            fixedValue;
        value           uniform 0;
    }
    wall
    {
        type            zeroGradient;
    }
    outlet
    {
        type            zeroGradient;
    }
    frontAndBack
    {
        type            empty;
    }
    procBoundary2to0
    {
        type            processor;
        value           nonuniform List<scalar> 
12
(
2.17934e-07
1.16786e-06
3.00267e-07
2.38597e-07
2.22364e-07
2.18775e-07
2.18007e-07
2.17963e-07
2.18035e-07
2.17943e-07
2.17752e-07
2.17992e-07
)
;
    }
    procBoundary2to3
    {
        type            processor;
        value           nonuniform List<scalar> 
25
(
2.61611e-05
5.46e-06
2.02893e-06
1.06945e-06
6.76028e-07
4.87191e-07
3.89673e-07
3.36587e-07
3.06367e-07
2.86811e-07
2.86811e-07
2.73832e-07
2.64624e-07
2.57507e-07
2.51583e-07
2.46391e-07
2.41705e-07
2.37424e-07
2.3351e-07
2.29958e-07
2.26778e-07
2.23976e-07
2.2155e-07
2.19975e-07
2.18624e-07
)
;
    }
}


// ************************************************************************* //
