/*--------------------------------*- C++ -*----------------------------------*\
| =========                 |                                                 |
| \\      /  F ield         | OpenFOAM: The Open Source CFD Toolbox           |
|  \\    /   O peration     | Version:  dev                                   |
|   \\  /    A nd           | Web:      www.OpenFOAM.org                      |
|    \\/     M anipulation  |                                                 |
\*---------------------------------------------------------------------------*/
FoamFile
{
    version     2.0;
    format      ascii;
    class       volScalarField;
    location    "0";
    object      C2O;
}
// * * * * * * * * * * * * * * * * * * * * * * * * * * * * * * * * * * * * * //

dimensions      [0 0 0 0 0 0 0];

internalField   nonuniform List<scalar> 
250
(
1.63435e-09
5.17907e-06
5.85806e-06
5.93676e-06
5.95631e-06
5.95497e-06
5.95528e-06
5.9551e-06
5.95509e-06
4.60662e-09
6.60345e-06
7.0707e-06
7.07985e-06
7.1013e-06
7.09474e-06
7.09576e-06
7.09499e-06
7.09507e-06
1.27047e-07
3.87083e-06
4.11417e-06
4.06035e-06
4.08512e-06
4.07254e-06
4.07517e-06
4.07351e-06
4.07398e-06
6.802e-06
2.24682e-06
2.35736e-06
2.29001e-06
2.31305e-06
2.29956e-06
2.30258e-06
2.30081e-06
2.30152e-06
1.33489e-05
1.45924e-06
1.52162e-06
1.45564e-06
1.47494e-06
1.46293e-06
1.46533e-06
1.46409e-06
1.46482e-06
1.03611e-05
1.04553e-06
1.08965e-06
1.04809e-06
1.06386e-06
1.05373e-06
1.05515e-06
1.05466e-06
1.05533e-06
6.72375e-06
7.97241e-07
8.66143e-07
8.30935e-07
8.4377e-07
8.3529e-07
8.35856e-07
8.35951e-07
8.36583e-07
4.2509e-06
6.4546e-07
7.33226e-07
7.03363e-07
7.14409e-07
7.07418e-07
7.07678e-07
7.07882e-07
7.08475e-07
2.7375e-06
5.5059e-07
6.4328e-07
6.18771e-07
6.31888e-07
6.26381e-07
6.27e-07
6.26709e-07
6.27302e-07
1.83083e-06
4.80086e-07
5.75791e-07
5.61339e-07
5.71994e-07
5.66708e-07
5.67681e-07
5.66842e-07
5.67464e-07
1.27569e-06
4.28675e-07
5.24864e-07
5.15725e-07
5.25625e-07
5.21173e-07
5.21914e-07
5.21147e-07
5.21796e-07
5.21188e-07
9.15244e-07
3.85723e-07
4.83484e-07
4.7938e-07
4.88843e-07
4.84886e-07
4.85169e-07
4.84712e-07
4.85421e-07
4.84844e-07
6.6699e-07
3.50331e-07
4.47516e-07
4.48734e-07
4.57972e-07
4.54359e-07
4.53976e-07
4.54017e-07
4.54813e-07
4.54315e-07
4.9124e-07
3.20582e-07
4.21922e-07
4.21851e-07
4.30937e-07
4.27603e-07
4.29932e-07
4.27048e-07
4.27959e-07
4.27548e-07
3.66968e-07
2.96349e-07
3.97267e-07
3.97553e-07
4.06521e-07
4.03383e-07
4.05427e-07
4.02581e-07
4.03668e-07
4.03325e-07
2.80128e-07
2.75305e-07
3.72803e-07
3.75089e-07
3.8396e-07
3.80959e-07
3.82608e-07
3.7985e-07
3.81191e-07
3.80884e-07
2.20105e-07
2.56157e-07
3.50039e-07
3.53947e-07
3.6273e-07
3.59825e-07
3.61162e-07
3.58308e-07
3.60012e-07
3.59714e-07
1.78974e-07
2.38885e-07
3.28222e-07
3.33741e-07
3.42437e-07
3.39601e-07
3.40718e-07
3.37508e-07
3.3975e-07
3.39439e-07
1.51143e-07
2.23483e-07
3.11347e-07
3.14154e-07
3.22768e-07
3.1998e-07
3.2097e-07
3.19602e-07
3.201e-07
3.19757e-07
1.29587e-07
2.0953e-07
2.94111e-07
2.94873e-07
3.03446e-07
3.00701e-07
3.01599e-07
2.9994e-07
3.00784e-07
3.0041e-07
1.1631e-07
1.96709e-07
2.7592e-07
2.77557e-07
2.84209e-07
2.81525e-07
2.82348e-07
2.80267e-07
2.81563e-07
2.81161e-07
1.07504e-07
1.84745e-07
2.58233e-07
2.59413e-07
2.64738e-07
2.62218e-07
2.62961e-07
2.62615e-07
2.62195e-07
2.61767e-07
1.00989e-07
1.73372e-07
2.40731e-07
2.42183e-07
2.47466e-07
2.44747e-07
2.45525e-07
2.44976e-07
2.44724e-07
2.4426e-07
9.6531e-08
1.62357e-07
2.2303e-07
2.23865e-07
2.28604e-07
2.25736e-07
2.26471e-07
2.25747e-07
2.25641e-07
2.25133e-07
9.3241e-08
1.51492e-07
2.04638e-07
2.06279e-07
2.10734e-07
2.07748e-07
2.0847e-07
2.07619e-07
2.07627e-07
2.07096e-07
8.98466e-08
1.40639e-07
1.88679e-07
1.88495e-07
1.92605e-07
1.89532e-07
1.90231e-07
1.89279e-07
1.89381e-07
1.88834e-07
)
;

boundaryField
{
    fuel
    {
        type            fixedValue;
        value           uniform 0;
    }
    wall
    {
        type            zeroGradient;
    }
    outlet
    {
        type            zeroGradient;
    }
    frontAndBack
    {
        type            empty;
    }
    procBoundary2to0
    {
        type            processor;
        value           nonuniform List<scalar> 
12
(
2.06975e-07
8.61264e-08
1.296e-07
1.72451e-07
1.70519e-07
1.74277e-07
1.71128e-07
1.71806e-07
1.70769e-07
1.70953e-07
1.88663e-07
1.70393e-07
)
;
    }
    procBoundary2to3
    {
        type            processor;
        value           nonuniform List<scalar> 
25
(
5.95463e-06
7.09463e-06
4.07334e-06
2.30076e-06
1.46406e-06
1.05458e-06
8.35782e-07
7.07702e-07
6.26608e-07
5.66811e-07
5.66811e-07
5.21667e-07
4.85306e-07
4.54701e-07
4.27841e-07
4.03537e-07
3.81038e-07
3.59828e-07
3.39522e-07
3.19811e-07
3.00432e-07
2.81143e-07
2.61685e-07
2.44027e-07
2.25155e-07
)
;
    }
}


// ************************************************************************* //
