/*--------------------------------*- C++ -*----------------------------------*\
| =========                 |                                                 |
| \\      /  F ield         | OpenFOAM: The Open Source CFD Toolbox           |
|  \\    /   O peration     | Version:  dev                                   |
|   \\  /    A nd           | Web:      www.OpenFOAM.org                      |
|    \\/     M anipulation  |                                                 |
\*---------------------------------------------------------------------------*/
FoamFile
{
    version     2.0;
    format      ascii;
    class       volScalarField;
    location    "0";
    object      C3H3;
}
// * * * * * * * * * * * * * * * * * * * * * * * * * * * * * * * * * * * * * //

dimensions      [0 0 0 0 0 0 0];

internalField   nonuniform List<scalar> 
250
(
1.82952e-06
0.000376365
0.000382326
0.000382413
0.000382551
0.000382493
0.000382495
0.000382494
0.000382496
2.73711e-06
0.000271321
0.000264647
0.000261892
0.000261913
0.000261704
0.000261722
0.000261711
0.000261715
2.2388e-05
0.000175873
0.000169551
0.000165952
0.000166195
0.000165837
0.000165892
0.000165858
0.000165872
0.000389618
0.000124911
0.000118236
0.000114406
0.000114802
0.000114355
0.000114437
0.00011439
0.000114413
0.000355434
9.62561e-05
9.01606e-05
8.6275e-05
8.67302e-05
8.62561e-05
8.63375e-05
8.6297e-05
8.63251e-05
0.000264585
7.87978e-05
7.31836e-05
7.01796e-05
7.06231e-05
7.01643e-05
7.02199e-05
7.02022e-05
7.02311e-05
0.000206246
6.7011e-05
6.33072e-05
6.05263e-05
6.09114e-05
6.04863e-05
6.05091e-05
6.05157e-05
6.0545e-05
0.000168753
5.92396e-05
5.69827e-05
5.43896e-05
5.47221e-05
5.43417e-05
5.43508e-05
5.4363e-05
5.43919e-05
0.000142747
5.41565e-05
5.25087e-05
5.00919e-05
5.05455e-05
5.02205e-05
5.02481e-05
5.02354e-05
5.02656e-05
0.000124194
5.02417e-05
4.90577e-05
4.70477e-05
4.73724e-05
4.70395e-05
4.70864e-05
4.70441e-05
4.70769e-05
0.000110989
4.72958e-05
4.63883e-05
4.4526e-05
4.48019e-05
4.44957e-05
4.45298e-05
4.4491e-05
4.45265e-05
4.4493e-05
0.000101348
4.47343e-05
4.41532e-05
4.24267e-05
4.26657e-05
4.23696e-05
4.23765e-05
4.23555e-05
4.23958e-05
4.23628e-05
9.3772e-05
4.2512e-05
4.21351e-05
4.05768e-05
4.07883e-05
4.04957e-05
4.04614e-05
4.04706e-05
4.05172e-05
4.04879e-05
8.72436e-05
4.0522e-05
4.06475e-05
3.88855e-05
3.90729e-05
3.87825e-05
3.89279e-05
3.87428e-05
3.87978e-05
3.87731e-05
8.12011e-05
3.87843e-05
3.91556e-05
3.73006e-05
3.74666e-05
3.7176e-05
3.73072e-05
3.71189e-05
3.71865e-05
3.71658e-05
7.53903e-05
3.71583e-05
3.7608e-05
3.57918e-05
3.59397e-05
3.56481e-05
3.57553e-05
3.55686e-05
3.56548e-05
3.56365e-05
6.97375e-05
3.5562e-05
3.61054e-05
3.43409e-05
3.44746e-05
3.41827e-05
3.42694e-05
3.40727e-05
3.41861e-05
3.41685e-05
6.42745e-05
3.40145e-05
3.46082e-05
3.29353e-05
3.30597e-05
3.27688e-05
3.28402e-05
3.26158e-05
3.27696e-05
3.27513e-05
5.90964e-05
3.25407e-05
3.34213e-05
3.15651e-05
3.16861e-05
3.13982e-05
3.14602e-05
3.1368e-05
3.1397e-05
3.13769e-05
5.33498e-05
3.11273e-05
3.21813e-05
3.02189e-05
3.03455e-05
3.00633e-05
3.01182e-05
3.0007e-05
3.00597e-05
3.0038e-05
4.85109e-05
2.97687e-05
3.08483e-05
2.90253e-05
2.90282e-05
2.87556e-05
2.88046e-05
2.86644e-05
2.87492e-05
2.87263e-05
4.41289e-05
2.84577e-05
2.95397e-05
2.7792e-05
2.77185e-05
2.74649e-05
2.75078e-05
2.74888e-05
2.74549e-05
2.74309e-05
3.97821e-05
2.71848e-05
2.82419e-05
2.66447e-05
2.65874e-05
2.63287e-05
2.63735e-05
2.63436e-05
2.63193e-05
2.62936e-05
3.60658e-05
2.5942e-05
2.69331e-05
2.54462e-05
2.53784e-05
2.51189e-05
2.51606e-05
2.51209e-05
2.51054e-05
2.50773e-05
3.29082e-05
2.472e-05
2.55791e-05
2.43167e-05
2.42583e-05
2.39994e-05
2.40402e-05
2.39931e-05
2.39847e-05
2.39554e-05
2.96605e-05
2.35114e-05
2.44178e-05
2.31879e-05
2.31387e-05
2.28815e-05
2.29209e-05
2.28674e-05
2.28651e-05
2.28348e-05
)
;

boundaryField
{
    fuel
    {
        type            fixedValue;
        value           uniform 0;
    }
    wall
    {
        type            zeroGradient;
    }
    outlet
    {
        type            zeroGradient;
    }
    frontAndBack
    {
        type            empty;
    }
    procBoundary2to0
    {
        type            processor;
        value           nonuniform List<scalar> 
12
(
2.39515e-05
2.65937e-05
2.23004e-05
2.32444e-05
2.20496e-05
2.20121e-05
2.17554e-05
2.17938e-05
2.17342e-05
2.17376e-05
2.28277e-05
2.1706e-05
)
;
    }
    procBoundary2to3
    {
        type            processor;
        value           nonuniform List<scalar> 
25
(
0.000382489
0.000261712
0.00016586
0.000114392
8.62982e-05
7.02006e-05
6.05092e-05
5.43551e-05
5.0231e-05
4.70427e-05
4.70427e-05
4.45197e-05
4.23897e-05
4.05114e-05
3.87918e-05
3.71799e-05
3.56474e-05
3.41775e-05
3.27589e-05
3.13833e-05
3.00428e-05
2.8729e-05
2.74298e-05
2.62828e-05
2.50828e-05
)
;
    }
}


// ************************************************************************* //
