/*--------------------------------*- C++ -*----------------------------------*\
| =========                 |                                                 |
| \\      /  F ield         | OpenFOAM: The Open Source CFD Toolbox           |
|  \\    /   O peration     | Version:  dev                                   |
|   \\  /    A nd           | Web:      www.OpenFOAM.org                      |
|    \\/     M anipulation  |                                                 |
\*---------------------------------------------------------------------------*/
FoamFile
{
    version     2.0;
    format      ascii;
    class       volScalarField;
    location    "0";
    object      C4H4;
}
// * * * * * * * * * * * * * * * * * * * * * * * * * * * * * * * * * * * * * //

dimensions      [0 0 0 0 0 0 0];

internalField   nonuniform List<scalar> 
250
(
6.36808e-06
0.000199539
0.000180145
0.000177665
0.000177194
0.000177175
0.000177168
0.000177171
0.000177172
1.86061e-05
3.91646e-05
3.47947e-05
3.38605e-05
3.38126e-05
3.37617e-05
3.377e-05
3.37668e-05
3.37675e-05
8.76157e-05
1.33412e-05
1.15381e-05
1.10568e-05
1.10603e-05
1.10231e-05
1.10292e-05
1.10262e-05
1.10274e-05
0.000234524
7.9935e-06
6.63061e-06
6.2789e-06
6.2842e-06
6.25405e-06
6.25845e-06
6.25636e-06
6.2577e-06
5.51169e-05
6.00412e-06
5.07501e-06
4.75407e-06
4.75548e-06
4.72798e-06
4.73032e-06
4.72983e-06
4.7312e-06
1.94967e-05
5.16572e-06
4.35002e-06
4.05995e-06
4.05595e-06
4.02923e-06
4.02899e-06
4.03056e-06
4.03194e-06
1.1669e-05
4.74366e-06
3.95529e-06
3.6534e-06
3.64338e-06
3.6163e-06
3.61395e-06
3.61715e-06
3.61863e-06
9.4329e-06
4.51084e-06
3.68782e-06
3.36726e-06
3.35297e-06
3.32562e-06
3.32306e-06
3.32612e-06
3.32773e-06
8.6563e-06
4.36517e-06
3.47625e-06
3.13452e-06
3.12715e-06
3.10063e-06
3.10025e-06
3.10091e-06
3.1027e-06
8.44471e-06
4.24027e-06
3.28964e-06
2.94805e-06
2.93178e-06
2.90235e-06
2.90402e-06
2.9021e-06
2.90414e-06
8.53608e-06
4.13011e-06
3.12823e-06
2.77764e-06
2.75688e-06
2.72771e-06
2.72882e-06
2.72694e-06
2.72916e-06
2.72669e-06
8.8343e-06
4.01371e-06
2.98188e-06
2.62801e-06
2.6032e-06
2.57398e-06
2.57328e-06
2.57264e-06
2.57512e-06
2.57282e-06
9.28933e-06
3.89363e-06
2.84293e-06
2.4936e-06
2.46534e-06
2.43615e-06
2.43254e-06
2.43412e-06
2.43693e-06
2.43496e-06
9.83367e-06
3.76997e-06
2.7391e-06
2.37115e-06
2.33984e-06
2.31097e-06
2.32093e-06
2.30801e-06
2.31125e-06
2.30969e-06
1.03706e-05
3.65004e-06
2.63376e-06
2.25851e-06
2.22462e-06
2.19613e-06
2.20503e-06
2.19209e-06
2.19602e-06
2.19482e-06
1.07936e-05
3.52731e-06
2.52377e-06
2.15431e-06
2.11841e-06
2.09043e-06
2.09739e-06
2.08502e-06
2.09003e-06
2.08907e-06
1.1013e-05
3.39749e-06
2.41747e-06
2.05773e-06
2.02043e-06
1.99315e-06
1.9984e-06
1.98588e-06
1.99252e-06
1.99169e-06
1.09769e-05
3.26422e-06
2.31291e-06
1.96824e-06
1.93019e-06
1.90383e-06
1.90778e-06
1.89397e-06
1.90304e-06
1.90225e-06
1.06805e-05
3.13174e-06
2.23268e-06
1.88549e-06
1.84738e-06
1.82219e-06
1.82527e-06
1.82019e-06
1.82129e-06
1.82049e-06
1.00398e-05
3.00071e-06
2.15146e-06
1.80918e-06
1.77178e-06
1.74801e-06
1.75042e-06
1.74473e-06
1.74701e-06
1.74623e-06
9.29953e-06
2.87266e-06
2.06752e-06
1.74699e-06
1.70316e-06
1.68113e-06
1.68298e-06
1.67611e-06
1.68002e-06
1.67931e-06
8.48201e-06
2.74917e-06
1.98983e-06
1.68843e-06
1.64124e-06
1.62149e-06
1.62282e-06
1.6224e-06
1.62027e-06
1.61966e-06
7.5719e-06
2.63174e-06
1.91858e-06
1.64043e-06
1.59455e-06
1.5759e-06
1.57711e-06
1.57664e-06
1.57477e-06
1.57424e-06
6.75263e-06
2.52232e-06
1.85367e-06
1.5973e-06
1.55173e-06
1.53458e-06
1.53544e-06
1.53495e-06
1.53336e-06
1.53293e-06
6.04579e-06
2.4226e-06
1.79472e-06
1.56468e-06
1.52009e-06
1.50455e-06
1.50512e-06
1.50476e-06
1.50335e-06
1.5031e-06
5.33373e-06
2.33441e-06
1.75333e-06
1.54075e-06
1.49702e-06
1.4833e-06
1.48352e-06
1.48342e-06
1.4821e-06
1.48207e-06
)
;

boundaryField
{
    fuel
    {
        type            fixedValue;
        value           uniform 0;
    }
    wall
    {
        type            zeroGradient;
    }
    outlet
    {
        type            zeroGradient;
    }
    frontAndBack
    {
        type            empty;
    }
    procBoundary2to0
    {
        type            processor;
        value           nonuniform List<scalar> 
12
(
1.50347e-06
4.69319e-06
2.25882e-06
1.72112e-06
1.52627e-06
1.48329e-06
1.47154e-06
1.47138e-06
1.47167e-06
1.47036e-06
1.48245e-06
1.47059e-06
)
;
    }
    procBoundary2to3
    {
        type            processor;
        value           nonuniform List<scalar> 
25
(
0.000177179
3.37681e-05
1.10265e-05
6.25649e-06
4.72976e-06
4.03023e-06
3.61649e-06
3.32537e-06
3.10039e-06
2.90172e-06
2.90172e-06
2.72877e-06
2.57479e-06
2.43665e-06
2.311e-06
2.19581e-06
2.08985e-06
1.99237e-06
1.90289e-06
1.82111e-06
1.74681e-06
1.67983e-06
1.62006e-06
1.57431e-06
1.53359e-06
)
;
    }
}


// ************************************************************************* //
