/*--------------------------------*- C++ -*----------------------------------*\
| =========                 |                                                 |
| \\      /  F ield         | OpenFOAM: The Open Source CFD Toolbox           |
|  \\    /   O peration     | Version:  dev                                   |
|   \\  /    A nd           | Web:      www.OpenFOAM.org                      |
|    \\/     M anipulation  |                                                 |
\*---------------------------------------------------------------------------*/
FoamFile
{
    version     2.0;
    format      ascii;
    class       volScalarField;
    location    "0";
    object      C4H4;
}
// * * * * * * * * * * * * * * * * * * * * * * * * * * * * * * * * * * * * * //

dimensions      [0 0 0 0 0 0 0];

internalField   nonuniform List<scalar> 
25
(
7.30352e-15
9.0138e-15
1.09225e-14
1.30584e-14
1.52997e-14
1.74789e-14
1.96388e-14
2.1705e-14
2.36096e-14
2.52932e-14
2.67078e-14
2.78191e-14
2.86079e-14
2.90693e-14
2.92112e-14
2.90523e-14
2.86191e-14
2.79421e-14
2.70489e-14
2.59675e-14
2.47441e-14
2.34437e-14
2.20834e-14
2.06922e-14
1.92915e-14
)
;

boundaryField
{
    wall
    {
        type            zeroGradient;
    }
    fuel
    {
        type            fixedValue;
        value           nonuniform 0();
    }
    outlet
    {
        type            inletOutlet;
        inletValue      nonuniform 0();
        value           nonuniform 0();
    }
    procBoundary2to1
    {
        type            processor;
        value           uniform 5.80492e-15;
    }
    procBoundary2to3
    {
        type            processor;
        value           uniform 1.78714e-14;
    }
}


// ************************************************************************* //
