/*--------------------------------*- C++ -*----------------------------------*\
| =========                 |                                                 |
| \\      /  F ield         | OpenFOAM: The Open Source CFD Toolbox           |
|  \\    /   O peration     | Version:  dev                                   |
|   \\  /    A nd           | Web:      www.OpenFOAM.org                      |
|    \\/     M anipulation  |                                                 |
\*---------------------------------------------------------------------------*/
FoamFile
{
    version     2.0;
    format      ascii;
    class       volScalarField;
    location    "0";
    object      C4H6;
}
// * * * * * * * * * * * * * * * * * * * * * * * * * * * * * * * * * * * * * //

dimensions      [0 0 0 0 0 0 0];

internalField   nonuniform List<scalar> 
25
(
1.75522e-16
2.04405e-16
2.34696e-16
2.66575e-16
2.98054e-16
3.2691e-16
3.53972e-16
3.78457e-16
3.99759e-16
4.17448e-16
4.3127e-16
4.41149e-16
4.47167e-16
4.49538e-16
4.48568e-16
4.44628e-16
4.38127e-16
4.29487e-16
4.19118e-16
4.0743e-16
3.9487e-16
3.82274e-16
3.70057e-16
3.58877e-16
3.49574e-16
)
;

boundaryField
{
    wall
    {
        type            zeroGradient;
    }
    fuel
    {
        type            fixedValue;
        value           nonuniform 0();
    }
    outlet
    {
        type            inletOutlet;
        inletValue      nonuniform 0();
        value           nonuniform 0();
    }
    procBoundary2to1
    {
        type            processor;
        value           uniform 1.48421e-16;
    }
    procBoundary2to3
    {
        type            processor;
        value           uniform 3.42961e-16;
    }
}


// ************************************************************************* //
