/*--------------------------------*- C++ -*----------------------------------*\
| =========                 |                                                 |
| \\      /  F ield         | OpenFOAM: The Open Source CFD Toolbox           |
|  \\    /   O peration     | Version:  dev                                   |
|   \\  /    A nd           | Web:      www.OpenFOAM.org                      |
|    \\/     M anipulation  |                                                 |
\*---------------------------------------------------------------------------*/
FoamFile
{
    version     2.0;
    format      ascii;
    class       volScalarField;
    location    "0";
    object      C5H4O;
}
// * * * * * * * * * * * * * * * * * * * * * * * * * * * * * * * * * * * * * //

dimensions      [0 0 0 0 0 0 0];

internalField   nonuniform List<scalar> 
250
(
1.41033e-08
7.72541e-07
6.91049e-07
6.75325e-07
6.73435e-07
6.72888e-07
6.72945e-07
6.72956e-07
6.72979e-07
2.18904e-08
2.41695e-07
2.0213e-07
1.93622e-07
1.93079e-07
1.92656e-07
1.92725e-07
1.92698e-07
1.92707e-07
6.16784e-08
9.79175e-08
7.73164e-08
7.18317e-08
7.17545e-08
7.13882e-08
7.14583e-08
7.14204e-08
7.14313e-08
2.99057e-07
5.15115e-08
3.84863e-08
3.45072e-08
3.45528e-08
3.42443e-08
3.43056e-08
3.42717e-08
3.42831e-08
1.38379e-07
3.24412e-08
2.3089e-08
1.993e-08
1.99964e-08
1.97411e-08
1.97859e-08
1.97633e-08
1.97737e-08
8.75534e-08
2.31054e-08
1.5415e-08
1.31023e-08
1.31559e-08
1.29438e-08
1.29698e-08
1.2961e-08
1.29695e-08
7.20755e-08
1.76395e-08
1.1428e-08
9.44724e-09
9.47567e-09
9.29632e-09
9.30769e-09
9.30882e-09
9.31618e-09
6.65458e-08
1.4383e-08
9.01761e-09
7.25199e-09
7.26264e-09
7.11124e-09
7.11932e-09
7.12063e-09
7.12688e-09
6.35438e-08
1.24068e-08
7.3671e-09
5.75821e-09
5.81436e-09
5.69116e-09
5.70863e-09
5.69865e-09
5.70435e-09
6.13551e-08
1.0944e-08
6.12592e-09
4.73819e-09
4.74882e-09
4.63101e-09
4.65675e-09
4.63563e-09
4.64104e-09
5.99589e-08
9.8813e-09
5.20383e-09
3.93861e-09
3.93118e-09
3.83129e-09
3.85286e-09
3.83385e-09
3.83869e-09
3.83201e-09
5.92574e-08
8.96912e-09
4.47811e-09
3.32914e-09
3.30777e-09
3.22056e-09
3.23272e-09
3.22158e-09
3.22616e-09
3.22052e-09
5.87837e-08
8.18663e-09
3.8743e-09
2.85046e-09
2.81874e-09
2.7419e-09
2.74104e-09
2.74153e-09
2.74601e-09
2.74163e-09
5.79647e-08
7.49299e-09
3.47087e-09
2.46763e-09
2.42766e-09
2.36016e-09
2.39637e-09
2.35816e-09
2.36264e-09
2.35958e-09
5.63544e-08
6.89702e-09
3.1068e-09
2.15736e-09
2.11103e-09
2.05146e-09
2.08122e-09
2.04786e-09
2.05284e-09
2.05088e-09
5.37243e-08
6.34721e-09
2.77091e-09
1.90339e-09
1.85264e-09
1.79988e-09
1.8221e-09
1.79438e-09
1.80053e-09
1.7993e-09
5.008e-08
5.81605e-09
2.48265e-09
1.69397e-09
1.6406e-09
1.59384e-09
1.60994e-09
1.58563e-09
1.59399e-09
1.59314e-09
4.56354e-08
5.31275e-09
2.22849e-09
1.52025e-09
1.46591e-09
1.42453e-09
1.43605e-09
1.41216e-09
1.42434e-09
1.42362e-09
4.07494e-08
4.84715e-09
2.0506e-09
1.37543e-09
1.32163e-09
1.28514e-09
1.29355e-09
1.28602e-09
1.28475e-09
1.28402e-09
3.47885e-08
4.41686e-09
1.88589e-09
1.25388e-09
1.2023e-09
1.17031e-09
1.17649e-09
1.16901e-09
1.16976e-09
1.16903e-09
2.96326e-08
4.02239e-09
1.72972e-09
1.16284e-09
1.10352e-09
1.07578e-09
1.08032e-09
1.07174e-09
1.0751e-09
1.07443e-09
2.4975e-08
3.66311e-09
1.59606e-09
1.0835e-09
1.02149e-09
9.9817e-10
1.00141e-09
1.00141e-09
9.97347e-10
9.96793e-10
2.05401e-08
3.33804e-09
1.48158e-09
1.02305e-09
9.64213e-10
9.43251e-10
9.45935e-10
9.45812e-10
9.42545e-10
9.42079e-10
1.69679e-08
3.04683e-09
1.38313e-09
9.72202e-10
9.15193e-10
8.96832e-10
8.9879e-10
8.98663e-10
8.96037e-10
8.95683e-10
1.4133e-08
2.78838e-09
1.29731e-09
9.36166e-10
8.81518e-10
8.65546e-10
8.66966e-10
8.66999e-10
8.64779e-10
8.64614e-10
1.14837e-08
2.56163e-09
1.23856e-09
9.11172e-10
8.58673e-10
8.45011e-10
8.45918e-10
8.46214e-10
8.44257e-10
8.44312e-10
)
;

boundaryField
{
    fuel
    {
        type            fixedValue;
        value           uniform 0;
    }
    wall
    {
        type            zeroGradient;
    }
    outlet
    {
        type            zeroGradient;
    }
    frontAndBack
    {
        type            empty;
    }
    procBoundary2to0
    {
        type            processor;
        value           nonuniform List<scalar> 
12
(
8.65293e-10
9.24326e-09
2.36397e-09
1.19212e-09
8.96673e-10
8.46141e-10
8.34708e-10
8.35131e-10
8.35775e-10
8.33969e-10
8.44992e-10
8.34271e-10
)
;
    }
    procBoundary2to3
    {
        type            processor;
        value           nonuniform List<scalar> 
25
(
6.72971e-07
1.92707e-07
7.14251e-08
3.42747e-08
1.97649e-08
1.29609e-08
9.30677e-09
7.1182e-09
5.69733e-09
4.63428e-09
4.63428e-09
3.83668e-09
3.22463e-09
2.74482e-09
2.3617e-09
2.0521e-09
1.79998e-09
1.59359e-09
1.42406e-09
1.28453e-09
1.16961e-09
1.07505e-09
9.97357e-10
9.42324e-10
8.9667e-10
)
;
    }
}


// ************************************************************************* //
