/*--------------------------------*- C++ -*----------------------------------*\
| =========                 |                                                 |
| \\      /  F ield         | OpenFOAM: The Open Source CFD Toolbox           |
|  \\    /   O peration     | Version:  dev                                   |
|   \\  /    A nd           | Web:      www.OpenFOAM.org                      |
|    \\/     M anipulation  |                                                 |
\*---------------------------------------------------------------------------*/
FoamFile
{
    version     2.0;
    format      ascii;
    class       volScalarField;
    location    "0";
    object      C6H3;
}
// * * * * * * * * * * * * * * * * * * * * * * * * * * * * * * * * * * * * * //

dimensions      [0 0 0 0 0 0 0];

internalField   nonuniform List<scalar> 
250
(
8.71671e-11
2.75483e-07
2.75626e-07
2.74472e-07
2.74483e-07
2.74375e-07
2.7438e-07
2.74392e-07
2.74399e-07
3.24626e-10
1.22587e-07
1.15281e-07
1.12614e-07
1.12597e-07
1.12401e-07
1.12421e-07
1.12415e-07
1.1242e-07
3.05889e-08
5.67401e-08
5.12964e-08
4.88615e-08
4.8938e-08
4.87221e-08
4.8754e-08
4.87381e-08
4.87463e-08
1.89528e-07
3.18299e-08
2.77546e-08
2.57191e-08
2.58192e-08
2.56198e-08
2.56513e-08
2.56357e-08
2.5645e-08
1.38114e-07
2.08247e-08
1.76254e-08
1.58715e-08
1.59631e-08
1.5789e-08
1.5812e-08
1.58027e-08
1.58117e-08
8.7e-08
1.51299e-08
1.2348e-08
1.10343e-08
1.11051e-08
1.09552e-08
1.09664e-08
1.09659e-08
1.0974e-08
6.20829e-08
1.16787e-08
9.5419e-09
8.38051e-09
8.42554e-09
8.29571e-09
8.2971e-09
8.30322e-09
8.31071e-09
4.8263e-08
9.56157e-09
7.83087e-09
6.7721e-09
6.79852e-09
6.68689e-09
6.68598e-09
6.69205e-09
6.69894e-09
3.90412e-08
8.24372e-09
6.65624e-09
5.67624e-09
5.73143e-09
5.63857e-09
5.6442e-09
5.64213e-09
5.64886e-09
3.22597e-08
7.25539e-09
5.77035e-09
4.92395e-09
4.9431e-09
4.85212e-09
4.86348e-09
4.85327e-09
4.86011e-09
2.71426e-08
6.52907e-09
5.10554e-09
4.32516e-09
4.32924e-09
4.24908e-09
4.25747e-09
4.24831e-09
4.25514e-09
4.24802e-09
2.32268e-08
5.90648e-09
4.57143e-09
3.85437e-09
3.84714e-09
3.77391e-09
3.77594e-09
3.77144e-09
3.77857e-09
3.77209e-09
2.01407e-08
5.37705e-09
4.11323e-09
3.4673e-09
3.45192e-09
3.38405e-09
3.3771e-09
3.37981e-09
3.38746e-09
3.38212e-09
1.76074e-08
4.91502e-09
3.79524e-09
3.13936e-09
3.11765e-09
3.05472e-09
3.08168e-09
3.04831e-09
3.05669e-09
3.05259e-09
1.54465e-08
4.52479e-09
3.49425e-09
2.85536e-09
2.82891e-09
2.77021e-09
2.79305e-09
2.76149e-09
2.77118e-09
2.76809e-09
1.35499e-08
4.17184e-09
3.20057e-09
2.60563e-09
2.57601e-09
2.52114e-09
2.53842e-09
2.50966e-09
2.5214e-09
2.51897e-09
1.1861e-08
3.83743e-09
2.9334e-09
2.38374e-09
2.35242e-09
2.30122e-09
2.31401e-09
2.28612e-09
2.30097e-09
2.29888e-09
1.03591e-08
3.52548e-09
2.68396e-09
2.18515e-09
2.15347e-09
2.10592e-09
2.11542e-09
2.08573e-09
2.1053e-09
2.10333e-09
9.04655e-09
3.24019e-09
2.49943e-09
2.00639e-09
1.97563e-09
1.93177e-09
1.93918e-09
1.92825e-09
1.93094e-09
1.92893e-09
7.71021e-09
2.97796e-09
2.31855e-09
1.84434e-09
1.81606e-09
1.77598e-09
1.78187e-09
1.7698e-09
1.77495e-09
1.77295e-09
6.67249e-09
2.73691e-09
2.13672e-09
1.7126e-09
1.67224e-09
1.63615e-09
1.64086e-09
1.62647e-09
1.63491e-09
1.63298e-09
5.80069e-09
2.51542e-09
1.97127e-09
1.58738e-09
1.54146e-09
1.51007e-09
1.51374e-09
1.51241e-09
1.50858e-09
1.50677e-09
5.0013e-09
2.31199e-09
1.82004e-09
1.4814e-09
1.43939e-09
1.40988e-09
1.41339e-09
1.41147e-09
1.40855e-09
1.40677e-09
4.35853e-09
2.12556e-09
1.68033e-09
1.38056e-09
1.34012e-09
1.31296e-09
1.31589e-09
1.31353e-09
1.3114e-09
1.30963e-09
3.83821e-09
1.95506e-09
1.54844e-09
1.29533e-09
1.2579e-09
1.23297e-09
1.23555e-09
1.23299e-09
1.23141e-09
1.22977e-09
3.33282e-09
1.79989e-09
1.44708e-09
1.21915e-09
1.18458e-09
1.16185e-09
1.16405e-09
1.16141e-09
1.16026e-09
1.15875e-09
)
;

boundaryField
{
    fuel
    {
        type            fixedValue;
        value           uniform 0;
    }
    wall
    {
        type            zeroGradient;
    }
    outlet
    {
        type            zeroGradient;
    }
    frontAndBack
    {
        type            empty;
    }
    procBoundary2to0
    {
        type            processor;
        value           nonuniform List<scalar> 
12
(
1.22988e-09
2.87961e-09
1.65797e-09
1.35482e-09
1.15091e-09
1.11921e-09
1.0985e-09
1.10036e-09
1.09769e-09
1.09689e-09
1.15871e-09
1.09551e-09
)
;
    }
    procBoundary2to3
    {
        type            processor;
        value           nonuniform List<scalar> 
25
(
2.74387e-07
1.12414e-07
4.87379e-08
2.56359e-08
1.58025e-08
1.09649e-08
8.30094e-09
6.68961e-09
5.64074e-09
4.85251e-09
4.85251e-09
4.25371e-09
3.77743e-09
3.3865e-09
3.05584e-09
2.7704e-09
2.52067e-09
2.30023e-09
2.10449e-09
1.92996e-09
1.77381e-09
1.63364e-09
1.50709e-09
1.40628e-09
1.31049e-09
)
;
    }
}


// ************************************************************************* //
