/*--------------------------------*- C++ -*----------------------------------*\
| =========                 |                                                 |
| \\      /  F ield         | OpenFOAM: The Open Source CFD Toolbox           |
|  \\    /   O peration     | Version:  dev                                   |
|   \\  /    A nd           | Web:      www.OpenFOAM.org                      |
|    \\/     M anipulation  |                                                 |
\*---------------------------------------------------------------------------*/
FoamFile
{
    version     2.0;
    format      ascii;
    class       volScalarField;
    location    "0";
    object      CH3O;
}
// * * * * * * * * * * * * * * * * * * * * * * * * * * * * * * * * * * * * * //

dimensions      [0 0 0 0 0 0 0];

internalField   nonuniform List<scalar> 
25
(
1.04305e-12
8.88742e-13
7.59481e-13
6.50433e-13
5.58869e-13
4.82728e-13
4.20747e-13
3.69205e-13
3.25959e-13
2.91081e-13
2.62361e-13
2.38804e-13
2.19623e-13
2.0427e-13
1.92479e-13
1.84164e-13
1.79481e-13
1.79025e-13
1.83614e-13
1.94758e-13
2.14168e-13
2.44776e-13
2.90435e-13
3.56397e-13
4.4966e-13
)
;

boundaryField
{
    wall
    {
        type            zeroGradient;
    }
    fuel
    {
        type            fixedValue;
        value           nonuniform 0();
    }
    outlet
    {
        type            inletOutlet;
        inletValue      nonuniform 0();
        value           nonuniform 0();
    }
    procBoundary2to1
    {
        type            processor;
        value           uniform 1.22628e-12;
    }
    procBoundary2to3
    {
        type            processor;
        value           uniform 5.80549e-13;
    }
}


// ************************************************************************* //
