/*--------------------------------*- C++ -*----------------------------------*\
| =========                 |                                                 |
| \\      /  F ield         | OpenFOAM: The Open Source CFD Toolbox           |
|  \\    /   O peration     | Version:  dev                                   |
|   \\  /    A nd           | Web:      www.OpenFOAM.org                      |
|    \\/     M anipulation  |                                                 |
\*---------------------------------------------------------------------------*/
FoamFile
{
    version     2.0;
    format      ascii;
    class       volScalarField;
    location    "0";
    object      CH3O;
}
// * * * * * * * * * * * * * * * * * * * * * * * * * * * * * * * * * * * * * //

dimensions      [0 0 0 0 0 0 0];

internalField   nonuniform List<scalar> 
250
(
5.70374e-06
3.80522e-07
3.46776e-07
3.4311e-07
3.42419e-07
3.42394e-07
3.42384e-07
3.42379e-07
3.42376e-07
8.19678e-06
8.76364e-08
8.09944e-08
7.95604e-08
7.96358e-08
7.95148e-08
7.95362e-08
7.95222e-08
7.95223e-08
1.88153e-05
2.99274e-08
2.25453e-08
2.17629e-08
2.18918e-08
2.1795e-08
2.18167e-08
2.18028e-08
2.18057e-08
2.13148e-06
1.0505e-08
8.1565e-09
7.7216e-09
7.81594e-09
7.75195e-09
7.76866e-09
7.75821e-09
7.76128e-09
3.64572e-07
4.52048e-09
3.86457e-09
3.5983e-09
3.66293e-09
3.62163e-09
3.63302e-09
3.62618e-09
3.62859e-09
9.36522e-08
2.48582e-09
2.23647e-09
2.12089e-09
2.16656e-09
2.13943e-09
2.14645e-09
2.14254e-09
2.14427e-09
3.55814e-08
1.59595e-09
1.5655e-09
1.49649e-09
1.53e-09
1.51166e-09
1.51564e-09
1.51367e-09
1.51498e-09
1.75493e-08
1.15788e-09
1.23455e-09
1.19515e-09
1.22157e-09
1.20908e-09
1.2115e-09
1.2104e-09
1.21141e-09
9.96621e-09
9.28118e-10
1.04498e-09
1.02832e-09
1.05608e-09
1.04794e-09
1.05019e-09
1.04884e-09
1.04973e-09
6.26129e-09
7.817e-10
9.24061e-10
9.31262e-10
9.53453e-10
9.46895e-10
9.49171e-10
9.47356e-10
9.48206e-10
4.36898e-09
6.88209e-10
8.44792e-10
8.64109e-10
8.84418e-10
8.79821e-10
8.81479e-10
8.79982e-10
8.80833e-10
8.80216e-10
3.38205e-09
6.18335e-10
7.86976e-10
8.15577e-10
8.35014e-10
8.31435e-10
8.32285e-10
8.31354e-10
8.32281e-10
8.31646e-10
2.83992e-09
5.65469e-10
7.40099e-10
7.76781e-10
7.95926e-10
7.92897e-10
7.92738e-10
7.92566e-10
7.93627e-10
7.9304e-10
2.5051e-09
5.23436e-10
7.07883e-10
7.4328e-10
7.62353e-10
7.59638e-10
7.62755e-10
7.58999e-10
7.60247e-10
7.59727e-10
2.25688e-09
4.9018e-10
6.77221e-10
7.12671e-10
7.3174e-10
7.29143e-10
7.31873e-10
7.2814e-10
7.29667e-10
7.29201e-10
2.03605e-09
4.61492e-10
6.46659e-10
6.83584e-10
7.02653e-10
7.00043e-10
7.02302e-10
6.98572e-10
7.00502e-10
7.00058e-10
1.81752e-09
4.35152e-10
6.17727e-10
6.55187e-10
6.74219e-10
6.71509e-10
6.73418e-10
6.69398e-10
6.71911e-10
6.71454e-10
1.59628e-09
4.10978e-10
5.89226e-10
6.26904e-10
6.45853e-10
6.42985e-10
6.44658e-10
6.39953e-10
6.43333e-10
6.42834e-10
1.3786e-09
3.88965e-10
5.66556e-10
5.98282e-10
6.17114e-10
6.14048e-10
6.15605e-10
6.13532e-10
6.1435e-10
6.13782e-10
1.1341e-09
3.68571e-10
5.42552e-10
5.68871e-10
5.87618e-10
5.84343e-10
5.85819e-10
5.83153e-10
5.84582e-10
5.83944e-10
9.35063e-10
3.49505e-10
5.16193e-10
5.41425e-10
5.56974e-10
5.53529e-10
5.54935e-10
5.51453e-10
5.53687e-10
5.52981e-10
7.64902e-10
3.31386e-10
4.89505e-10
5.11493e-10
5.24675e-10
5.2125e-10
5.22565e-10
5.2199e-10
5.21294e-10
5.20522e-10
6.09859e-10
3.13783e-10
4.61972e-10
4.82079e-10
4.95075e-10
4.91075e-10
4.92487e-10
4.91499e-10
4.91112e-10
4.90256e-10
4.90828e-10
2.96336e-10
4.32911e-10
4.4967e-10
4.6155e-10
4.57042e-10
4.58412e-10
4.57055e-10
4.56939e-10
4.55979e-10
4.00823e-10
2.78644e-10
4.01414e-10
4.17632e-10
4.28871e-10
4.2393e-10
4.25311e-10
4.23674e-10
4.23771e-10
4.22747e-10
3.19806e-10
2.6039e-10
3.73198e-10
3.84295e-10
3.94777e-10
3.89464e-10
3.90834e-10
3.88964e-10
3.89243e-10
3.88164e-10
)
;

boundaryField
{
    fuel
    {
        type            fixedValue;
        value           uniform 0;
    }
    wall
    {
        type            zeroGradient;
    }
    outlet
    {
        type            zeroGradient;
    }
    frontAndBack
    {
        type            empty;
    }
    procBoundary2to0
    {
        type            processor;
        value           nonuniform List<scalar> 
12
(
4.22478e-10
2.53926e-10
2.41229e-10
3.43542e-10
3.49701e-10
3.59412e-10
3.5375e-10
3.55113e-10
3.53037e-10
3.53477e-10
3.87806e-10
3.52351e-10
)
;
    }
    procBoundary2to3
    {
        type            processor;
        value           nonuniform List<scalar> 
25
(
3.42391e-07
7.95227e-08
2.18029e-08
7.75858e-09
3.62653e-09
2.14273e-09
1.51362e-09
1.21031e-09
1.04886e-09
9.47487e-10
9.47487e-10
8.8063e-10
8.32107e-10
7.93457e-10
7.60062e-10
7.29454e-10
7.00244e-10
6.71589e-10
6.42925e-10
6.13825e-10
5.83933e-10
5.52903e-10
5.20333e-10
4.8979e-10
4.55972e-10
)
;
    }
}


// ************************************************************************* //
