/*--------------------------------*- C++ -*----------------------------------*\
| =========                 |                                                 |
| \\      /  F ield         | OpenFOAM: The Open Source CFD Toolbox           |
|  \\    /   O peration     | Version:  dev                                   |
|   \\  /    A nd           | Web:      www.OpenFOAM.org                      |
|    \\/     M anipulation  |                                                 |
\*---------------------------------------------------------------------------*/
FoamFile
{
    version     2.0;
    format      ascii;
    class       volScalarField;
    location    "0";
    object      H;
}
// * * * * * * * * * * * * * * * * * * * * * * * * * * * * * * * * * * * * * //

dimensions      [0 0 0 0 0 0 0];

internalField   nonuniform List<scalar> 
250
(
3.27607e-08
0.000104056
0.000111773
0.000112783
0.000112997
0.000112997
0.000113001
0.000112999
0.000112999
8.51833e-08
0.000117316
0.000123628
0.000124338
0.000124613
0.000124585
0.000124597
0.000124587
0.000124588
2.60314e-06
8.19328e-05
8.65901e-05
8.6635e-05
8.70364e-05
8.69163e-05
8.69585e-05
8.69302e-05
8.69359e-05
0.000108416
5.66592e-05
6.02054e-05
5.99576e-05
6.04242e-05
6.02539e-05
6.03179e-05
6.02769e-05
6.02873e-05
0.000163087
4.21759e-05
4.5324e-05
4.50062e-05
4.54819e-05
4.53083e-05
4.5377e-05
4.53341e-05
4.53462e-05
0.000138859
3.35517e-05
3.66632e-05
3.68248e-05
3.72809e-05
3.71321e-05
3.7192e-05
3.71559e-05
3.71671e-05
0.000104697
2.78758e-05
3.19413e-05
3.2298e-05
3.27229e-05
3.26098e-05
3.26556e-05
3.26291e-05
3.26391e-05
7.63387e-05
2.42251e-05
2.91605e-05
2.97399e-05
3.0141e-05
3.00664e-05
3.0101e-05
3.00815e-05
3.00901e-05
5.50788e-05
2.19116e-05
2.73788e-05
2.82127e-05
2.86508e-05
2.86149e-05
2.86463e-05
2.86268e-05
2.86346e-05
4.01389e-05
2.02199e-05
2.61634e-05
2.73088e-05
2.77179e-05
2.77025e-05
2.77329e-05
2.77106e-05
2.77182e-05
3.01326e-05
1.90291e-05
2.53414e-05
2.67048e-05
2.71182e-05
2.71275e-05
2.71521e-05
2.71328e-05
2.71407e-05
2.7137e-05
2.35321e-05
1.80842e-05
2.47376e-05
2.62906e-05
2.67185e-05
2.67428e-05
2.676e-05
2.67459e-05
2.67549e-05
2.67502e-05
1.91143e-05
1.73533e-05
2.4249e-05
2.59721e-05
2.64207e-05
2.6454e-05
2.64621e-05
2.64549e-05
2.64658e-05
2.64607e-05
1.60713e-05
1.67814e-05
2.39115e-05
2.56977e-05
2.61689e-05
2.62075e-05
2.62374e-05
2.62054e-05
2.62189e-05
2.62137e-05
1.39135e-05
1.63521e-05
2.359e-05
2.54367e-05
2.59303e-05
2.59706e-05
2.59977e-05
2.59647e-05
2.5982e-05
2.59766e-05
1.23467e-05
1.60134e-05
2.32669e-05
2.51694e-05
2.5684e-05
2.5723e-05
2.57478e-05
2.57117e-05
2.57344e-05
2.57285e-05
1.11901e-05
1.5737e-05
2.29537e-05
2.4882e-05
2.54149e-05
2.54501e-05
2.54739e-05
2.54307e-05
2.54614e-05
2.54546e-05
1.03303e-05
1.55152e-05
2.26321e-05
2.45626e-05
2.51112e-05
2.51399e-05
2.51638e-05
2.51079e-05
2.5151e-05
2.51429e-05
9.69613e-06
1.53395e-05
2.23605e-05
2.42005e-05
2.47617e-05
2.47817e-05
2.48067e-05
2.47779e-05
2.47923e-05
2.47825e-05
9.15801e-06
1.51952e-05
2.20535e-05
2.37832e-05
2.43553e-05
2.43645e-05
2.43909e-05
2.43492e-05
2.43744e-05
2.43624e-05
8.79878e-06
1.50683e-05
2.16887e-05
2.3348e-05
2.38795e-05
2.38768e-05
2.39045e-05
2.38452e-05
2.38853e-05
2.38711e-05
8.54602e-06
1.49441e-05
2.12836e-05
2.28219e-05
2.33181e-05
2.33053e-05
2.33337e-05
2.33214e-05
2.33116e-05
2.32948e-05
8.35561e-06
1.48066e-05
2.0822e-05
2.22514e-05
2.27469e-05
2.27127e-05
2.2745e-05
2.27223e-05
2.27185e-05
2.26987e-05
8.23194e-06
1.46393e-05
2.02827e-05
2.15626e-05
2.20363e-05
2.19791e-05
2.20128e-05
2.19795e-05
2.19815e-05
2.19577e-05
8.15607e-06
1.44252e-05
1.96363e-05
2.08198e-05
2.12796e-05
2.11998e-05
2.12361e-05
2.11934e-05
2.12004e-05
2.11734e-05
8.10546e-06
1.41496e-05
1.89992e-05
1.99822e-05
2.04237e-05
2.03209e-05
2.03594e-05
2.03077e-05
2.03194e-05
2.02891e-05
)
;

boundaryField
{
    fuel
    {
        type            fixedValue;
        value           uniform 0;
    }
    wall
    {
        type            zeroGradient;
    }
    outlet
    {
        type            zeroGradient;
    }
    frontAndBack
    {
        type            empty;
    }
    procBoundary2to0
    {
        type            processor;
        value           nonuniform List<scalar> 
12
(
2.11648e-05
8.07803e-06
1.37952e-05
1.8269e-05
1.9044e-05
1.94653e-05
1.93384e-05
1.93794e-05
1.93183e-05
1.93348e-05
2.02779e-05
1.93011e-05
)
;
    }
    procBoundary2to3
    {
        type            processor;
        value           nonuniform List<scalar> 
25
(
0.000112995
0.000124585
8.69301e-05
6.02787e-05
4.53369e-05
3.71584e-05
3.26301e-05
3.00822e-05
2.86284e-05
2.77135e-05
2.77135e-05
2.71384e-05
2.67527e-05
2.64634e-05
2.62161e-05
2.59784e-05
2.57297e-05
2.54551e-05
2.51427e-05
2.47813e-05
2.43602e-05
2.38674e-05
2.32887e-05
2.26866e-05
2.19553e-05
)
;
    }
}


// ************************************************************************* //
