/*--------------------------------*- C++ -*----------------------------------*\
| =========                 |                                                 |
| \\      /  F ield         | OpenFOAM: The Open Source CFD Toolbox           |
|  \\    /   O peration     | Version:  dev                                   |
|   \\  /    A nd           | Web:      www.OpenFOAM.org                      |
|    \\/     M anipulation  |                                                 |
\*---------------------------------------------------------------------------*/
FoamFile
{
    version     2.0;
    format      ascii;
    class       volScalarField;
    location    "0";
    object      i-C4H3;
}
// * * * * * * * * * * * * * * * * * * * * * * * * * * * * * * * * * * * * * //

dimensions      [0 0 0 0 0 0 0];

internalField   nonuniform List<scalar> 
25
(
1.24606e-15
1.56416e-15
1.93127e-15
2.35508e-15
2.81315e-15
3.27069e-15
3.73268e-15
4.17947e-15
4.59093e-15
4.94734e-15
5.23066e-15
5.42591e-15
5.52237e-15
5.51455e-15
5.40277e-15
5.19326e-15
4.89768e-15
4.53117e-15
4.1088e-15
3.64618e-15
3.17032e-15
2.71177e-15
2.27862e-15
1.88167e-15
1.5265e-15
)
;

boundaryField
{
    wall
    {
        type            zeroGradient;
    }
    fuel
    {
        type            fixedValue;
        value           nonuniform 0();
    }
    outlet
    {
        type            inletOutlet;
        inletValue      nonuniform 0();
        value           nonuniform 0();
    }
    procBoundary2to1
    {
        type            processor;
        value           uniform 9.77841e-16;
    }
    procBoundary2to3
    {
        type            processor;
        value           uniform 1.20937e-15;
    }
}


// ************************************************************************* //
