/*--------------------------------*- C++ -*----------------------------------*\
| =========                 |                                                 |
| \\      /  F ield         | OpenFOAM: The Open Source CFD Toolbox           |
|  \\    /   O peration     | Version:  dev                                   |
|   \\  /    A nd           | Web:      www.OpenFOAM.org                      |
|    \\/     M anipulation  |                                                 |
\*---------------------------------------------------------------------------*/
FoamFile
{
    version     2.0;
    format      ascii;
    class       volScalarField;
    location    "0";
    object      i-C6H7;
}
// * * * * * * * * * * * * * * * * * * * * * * * * * * * * * * * * * * * * * //

dimensions      [0 0 0 0 0 0 0];

internalField   nonuniform List<scalar> 
250
(
1.08895e-12
3.44864e-09
2.7325e-09
2.653e-09
2.63692e-09
2.63682e-09
2.63661e-09
2.63668e-09
2.63667e-09
3.55037e-12
2.1558e-10
1.76675e-10
1.69632e-10
1.69144e-10
1.68799e-10
1.68898e-10
1.68853e-10
1.6886e-10
4.09079e-10
1.64195e-11
1.37675e-11
1.29119e-11
1.29704e-11
1.28866e-11
1.29116e-11
1.28992e-11
1.29019e-11
7.41794e-09
7.50078e-12
1.84202e-12
1.67138e-12
1.69288e-12
1.67314e-12
1.67871e-12
1.67566e-12
1.67646e-12
8.12608e-10
1.65341e-12
6.15025e-13
5.42581e-13
5.51123e-13
5.42977e-13
5.45033e-13
5.4385e-13
5.44237e-13
9.47952e-11
5.30758e-13
3.38192e-13
2.96504e-13
3.0164e-13
2.96273e-13
2.97389e-13
2.96796e-13
2.97057e-13
1.35423e-11
3.0086e-13
2.26266e-13
1.93055e-13
1.96475e-13
1.92403e-13
1.93031e-13
1.92756e-13
1.92959e-13
3.42689e-12
2.18306e-13
1.65082e-13
1.37359e-13
1.3969e-13
1.36552e-13
1.36974e-13
1.368e-13
1.36958e-13
1.77257e-12
1.76426e-13
1.2657e-13
1.03237e-13
1.06006e-13
1.0369e-13
1.04177e-13
1.0387e-13
1.04001e-13
1.24909e-12
1.48414e-13
1.00432e-13
8.22284e-14
8.37068e-14
8.17043e-14
8.22628e-14
8.18042e-14
8.19178e-14
9.45345e-13
1.29383e-13
8.30183e-14
6.7578e-14
6.8452e-14
6.6921e-14
6.73551e-14
6.69657e-14
6.70625e-14
6.6981e-14
7.2889e-13
1.14236e-13
7.07019e-14
5.75172e-14
5.79771e-14
5.6742e-14
5.69838e-14
5.67479e-14
5.68386e-14
5.67616e-14
5.69232e-13
1.02089e-13
6.1381e-14
5.02472e-14
5.04314e-14
4.93987e-14
4.94098e-14
4.93724e-14
4.94639e-14
4.93994e-14
4.52107e-13
9.19653e-14
5.54884e-14
4.47516e-14
4.47424e-14
4.38599e-14
4.43565e-14
4.38006e-14
4.38971e-14
4.38479e-14
3.66832e-13
8.36912e-14
5.04218e-14
4.04178e-14
4.02732e-14
3.94981e-14
3.9886e-14
3.94067e-14
3.95172e-14
3.94811e-14
3.04003e-13
7.64386e-14
4.58939e-14
3.68684e-14
3.6633e-14
3.59372e-14
3.62175e-14
3.58095e-14
3.59444e-14
3.59166e-14
2.55711e-13
6.97566e-14
4.20312e-14
3.38665e-14
3.35752e-14
3.29409e-14
3.31409e-14
3.27666e-14
3.294e-14
3.29162e-14
2.16359e-13
6.36423e-14
3.85835e-14
3.12594e-14
3.09401e-14
3.0357e-14
3.05006e-14
3.01177e-14
3.03503e-14
3.03273e-14
1.83024e-13
5.81053e-14
3.60638e-14
2.8947e-14
2.8622e-14
2.80846e-14
2.81926e-14
2.80476e-14
2.80744e-14
2.805e-14
1.49383e-13
5.30361e-14
3.36267e-14
2.68567e-14
2.6549e-14
2.60551e-14
2.61387e-14
2.59821e-14
2.60416e-14
2.60163e-14
1.23928e-13
4.8385e-14
3.1191e-14
2.5131e-14
2.46695e-14
2.42201e-14
2.42861e-14
2.41036e-14
2.42034e-14
2.41778e-14
1.03663e-13
4.40894e-14
2.89539e-14
2.34723e-14
2.29399e-14
2.2543e-14
2.25946e-14
2.25715e-14
2.25225e-14
2.24973e-14
8.64259e-14
4.00967e-14
2.68727e-14
2.20283e-14
2.15438e-14
2.11649e-14
2.1214e-14
2.1182e-14
2.11459e-14
2.11201e-14
7.3809e-14
3.63812e-14
2.49058e-14
2.06242e-14
2.01607e-14
1.98061e-14
1.98479e-14
1.98092e-14
1.97836e-14
1.97571e-14
6.44783e-14
3.29151e-14
2.30046e-14
1.93849e-14
1.89639e-14
1.86323e-14
1.86699e-14
1.86271e-14
1.86093e-14
1.85834e-14
5.58598e-14
2.96759e-14
2.14618e-14
1.82242e-14
1.78467e-14
1.75376e-14
1.75711e-14
1.75251e-14
1.75139e-14
1.74885e-14
)
;

boundaryField
{
    fuel
    {
        type            fixedValue;
        value           uniform 0;
    }
    wall
    {
        type            zeroGradient;
    }
    outlet
    {
        type            zeroGradient;
    }
    frontAndBack
    {
        type            empty;
    }
    procBoundary2to0
    {
        type            processor;
        value           nonuniform List<scalar> 
12
(
1.85839e-14
4.81767e-14
2.66438e-14
1.99907e-14
1.71198e-14
1.67899e-14
1.65e-14
1.65304e-14
1.6481e-14
1.64756e-14
1.74853e-14
1.64504e-14
)
;
    }
    procBoundary2to3
    {
        type            processor;
        value           nonuniform List<scalar> 
25
(
2.63696e-09
1.68871e-10
1.29007e-11
1.67588e-12
5.43924e-13
2.96824e-13
1.92738e-13
1.36776e-13
1.03871e-13
8.1819e-14
8.1819e-14
6.70251e-14
5.68121e-14
4.94441e-14
4.38815e-14
3.9504e-14
3.59324e-14
3.29283e-14
3.03378e-14
2.80595e-14
2.60245e-14
2.4184e-14
2.24994e-14
2.1112e-14
1.97675e-14
)
;
    }
}


// ************************************************************************* //
