/*--------------------------------*- C++ -*----------------------------------*\
| =========                 |                                                 |
| \\      /  F ield         | OpenFOAM: The Open Source CFD Toolbox           |
|  \\    /   O peration     | Version:  dev                                   |
|   \\  /    A nd           | Web:      www.OpenFOAM.org                      |
|    \\/     M anipulation  |                                                 |
\*---------------------------------------------------------------------------*/
FoamFile
{
    version     2.0;
    format      ascii;
    class       volScalarField;
    location    "0";
    object      N2;
}
// * * * * * * * * * * * * * * * * * * * * * * * * * * * * * * * * * * * * * //

dimensions      [0 0 0 0 0 0 0];

internalField   nonuniform List<scalar> 
250
(
0.00119755
0.000220024
3.00809e-05
3.11325e-06
2.63183e-07
0
0
0
0
0.00339063
0.00042736
5.77581e-05
5.94178e-06
5.23376e-07
0
0
0
0
0.005425
0.000668392
8.87977e-05
9.22454e-06
8.70335e-07
0
0
0
0
0.00657212
0.000936771
0.00012131
1.29626e-05
1.30187e-06
0
0
0
0
0.00749088
0.00120806
0.000152816
1.70949e-05
1.81212e-06
0
0
0
0
0.00835102
0.00146833
0.000183803
2.15468e-05
2.39394e-06
1.38279e-08
0
0
0
0.0091946
0.00173602
0.000210999
2.62375e-05
3.03897e-06
1.18812e-07
0
0
0
0.0100196
0.00198034
0.000236108
3.11506e-05
3.73878e-06
2.42707e-07
0
0
0
0.0108023
0.00217634
0.00026172
3.63823e-05
4.47253e-06
3.77811e-07
0
0
0
0.0115145
0.00234103
0.000291078
4.14096e-05
5.25159e-06
5.21108e-07
0
0
0
0.0121297
0.00246208
0.000320387
4.66795e-05
6.07987e-06
6.70872e-07
0
0
0
0
0.0126251
0.00255205
0.000348497
5.17201e-05
6.90646e-06
8.20044e-07
0
0
0
0
0.0129816
0.00260555
0.000374664
5.64235e-05
7.71838e-06
9.67351e-07
0
0
0
0
0.0131849
0.00262395
0.000392781
6.06707e-05
8.50196e-06
1.11165e-06
1.3879e-08
0
0
0
0.0132264
0.00261039
0.000408524
6.43903e-05
9.24358e-06
1.25187e-06
4.53948e-08
0
0
0
0.0131047
0.00256862
0.000421183
6.7519e-05
9.93079e-06
1.38695e-06
7.45067e-08
0
0
0
0.0128263
0.00249963
0.000429143
7.00025e-05
1.05527e-05
1.51602e-06
1.01182e-07
0
0
0
0.0124065
0.00240723
0.000432357
7.18068e-05
1.11003e-05
1.63841e-06
1.26593e-07
0
0
0
0.0118696
0.00229675
0.000431284
7.29171e-05
1.15668e-05
1.75365e-06
1.52529e-07
0
0
0
0.0111106
0.00217214
0.000426294
7.33334e-05
1.19483e-05
1.86156e-06
1.80879e-07
0
0
0
0.0103542
0.00203787
0.000416801
7.30964e-05
1.22442e-05
1.96237e-06
2.13681e-07
0
0
0
0.00956543
0.0018974
0.000403736
7.22296e-05
1.2457e-05
2.05653e-06
2.53178e-07
0
0
0
0.00868382
0.00175367
0.000387478
7.08713e-05
1.25714e-05
2.1338e-06
2.95107e-07
0
0
0
0.00785721
0.00160969
0.000368307
6.89192e-05
1.26184e-05
2.20836e-06
3.47823e-07
0
0
0
0.00709668
0.00146766
0.000346247
6.66506e-05
1.25899e-05
2.26618e-06
3.9987e-07
0
0
0
0.00624959
0.00132928
0.000326155
6.40534e-05
1.24815e-05
2.30702e-06
4.47857e-07
4.73795e-09
0
0
)
;

boundaryField
{
    fuel
    {
        type            fixedValue;
        value           uniform 0;
    }
    wall
    {
        type            zeroGradient;
    }
    outlet
    {
        type            zeroGradient;
    }
    frontAndBack
    {
        type            empty;
    }
    procBoundary2to0
    {
        type            processor;
        value           nonuniform List<scalar> 
12
(
8.5903e-08
0.00539165
0.00119627
0.000305202
6.12111e-05
1.22717e-05
2.32696e-06
4.7985e-07
2.64641e-08
0
9.24408e-08
0
)
;
    }
    procBoundary2to3
    {
        type            processor;
        value           nonuniform List<scalar> 
25
(
0
0
0
0
0
0
0
0
0
0
0
0
0
0
0
0
0
0
0
0
0
0
0
7.40011e-09
5.58014e-08
)
;
    }
}


// ************************************************************************* //
