/*--------------------------------*- C++ -*----------------------------------*\
| =========                 |                                                 |
| \\      /  F ield         | OpenFOAM: The Open Source CFD Toolbox           |
|  \\    /   O peration     | Version:  dev                                   |
|   \\  /    A nd           | Web:      www.OpenFOAM.org                      |
|    \\/     M anipulation  |                                                 |
\*---------------------------------------------------------------------------*/
FoamFile
{
    version     2.0;
    format      ascii;
    class       volScalarField;
    location    "0";
    object      T;
}
// * * * * * * * * * * * * * * * * * * * * * * * * * * * * * * * * * * * * * //

dimensions      [0 0 0 1 0 0 0];

internalField   nonuniform List<scalar> 
250
(
454.467
1742.86
1761.16
1763.22
1763.69
1763.66
1763.67
1763.66
1763.66
635.158
1959.13
1977.71
1980.19
1980.61
1980.63
1980.62
1980.62
1980.62
1016.96
2006.95
2029.4
2032.58
2033.13
2033.16
2033.15
2033.15
2033.15
1789.33
2018.27
2044.38
2048.45
2049.17
2049.22
2049.21
2049.21
2049.22
2032.52
2018.82
2048.8
2053.78
2054.7
2054.77
2054.75
2054.76
2054.77
2086.91
2015.05
2049.51
2055.36
2056.49
2056.58
2056.56
2056.58
2056.59
2082.54
2009.07
2048.69
2055.35
2056.72
2056.83
2056.8
2056.82
2056.84
2059.13
2002.31
2047.21
2054.59
2056.2
2056.33
2056.32
2056.33
2056.35
2029.41
1995.75
2045.3
2053.42
2055.32
2055.47
2055.48
2055.47
2055.5
1997.41
1989.29
2043.01
2052.07
2054.19
2054.35
2054.37
2054.35
2054.38
1964.66
1983.42
2040.59
2050.52
2052.89
2053.06
2053.09
2053.05
2053.1
2053.05
1932.25
1977.86
2038.09
2048.88
2051.48
2051.66
2051.69
2051.65
2051.71
2051.66
1901.29
1972.9
2035.54
2047.15
2049.97
2050.15
2050.18
2050.13
2050.21
2050.16
1872.81
1968.6
2033.38
2045.32
2048.34
2048.53
2048.69
2048.48
2048.58
2048.54
1847.62
1965.1
2031.08
2043.36
2046.57
2046.75
2046.91
2046.67
2046.8
2046.76
1826.33
1962.22
2028.62
2041.24
2044.61
2044.77
2044.94
2044.66
2044.83
2044.78
1809.29
1959.85
2026.1
2038.91
2042.43
2042.56
2042.73
2042.39
2042.62
2042.56
1796.66
1957.96
2023.46
2036.32
2039.97
2040.06
2040.22
2039.81
2040.11
2040.05
1788.41
1956.49
2021.09
2033.4
2037.17
2037.19
2037.37
2037.12
2037.24
2037.17
1783.86
1955.31
2018.42
2030.08
2033.94
2033.89
2034.08
2033.76
2033.94
2033.84
1783.33
1954.27
2015.28
2026.56
2030.2
2030.07
2030.27
2029.86
2030.11
2030
1785.95
1953.2
2011.77
2022.37
2025.84
2025.63
2025.84
2025.7
2025.65
2025.52
1791.36
1951.94
2007.75
2017.74
2021.24
2020.88
2021.12
2020.91
2020.9
2020.74
1798.2
1950.29
2003.05
2012.18
2015.61
2015.07
2015.32
2015.04
2015.06
2014.87
1805.76
1948.05
1997.45
2005.99
2009.4
2008.68
2008.96
2008.6
2008.65
2008.44
1814.76
1945.03
1991.64
1998.85
2002.22
2001.3
2001.6
2001.16
2001.25
2001
)
;

boundaryField
{
    fuel
    {
        type            fixedValue;
        value           uniform 353;
    }
    wall
    {
        type            fixedValue;
        value           nonuniform 0();
    }
    outlet
    {
        type            inletOutlet;
        inletValue      uniform 353;
        value           nonuniform List<scalar> 
26
(
453.906
631.796
1002.08
1774.95
2024.2
2081.08
2077.69
2055.05
2025.97
1994.38
1961.83
1929.54
1898.71
1870.39
1845.41
1824.34
1807.55
1795.17
1787.18
1782.85
1782.56
1785.35
1790.98
1797.94
1805.61
1814.7
)
;
    }
    frontAndBack
    {
        type            empty;
    }
    procBoundary2to0
    {
        type            processor;
        value           nonuniform List<scalar> 
12
(
2008.37
1824.1
1940.99
1984.85
1990.58
1993.92
1992.76
1993.09
1992.55
1992.69
2000.9
1992.4
)
;
    }
    procBoundary2to3
    {
        type            processor;
        value           nonuniform List<scalar> 
25
(
1763.65
1980.61
2033.14
2049.2
2054.75
2056.56
2056.81
2056.32
2055.46
2054.34
2054.34
2053.09
2051.7
2050.19
2048.56
2046.78
2044.8
2042.57
2040.05
2037.16
2033.83
2029.97
2025.48
2020.66
2014.85
)
;
    }
}


// ************************************************************************* //
