/*--------------------------------*- C++ -*----------------------------------*\
| =========                 |                                                 |
| \\      /  F ield         | OpenFOAM: The Open Source CFD Toolbox           |
|  \\    /   O peration     | Version:  dev                                   |
|   \\  /    A nd           | Web:      www.OpenFOAM.org                      |
|    \\/     M anipulation  |                                                 |
\*---------------------------------------------------------------------------*/
FoamFile
{
    version     2.0;
    format      ascii;
    class       volScalarField;
    location    "0.01";
    object      A1;
}
// * * * * * * * * * * * * * * * * * * * * * * * * * * * * * * * * * * * * * //

dimensions      [0 0 0 0 0 0 0];

internalField   nonuniform List<scalar> 
25
(
1.81828e-08
1.84881e-08
1.87707e-08
1.90322e-08
1.92711e-08
1.94849e-08
1.96695e-08
1.9829e-08
1.99641e-08
2.00695e-08
2.01479e-08
2.01988e-08
2.0222e-08
2.02172e-08
2.01838e-08
2.01215e-08
2.00293e-08
1.99082e-08
1.97573e-08
1.95732e-08
1.93613e-08
1.91182e-08
1.88438e-08
1.85376e-08
1.8199e-08
)
;

boundaryField
{
    wall
    {
        type            zeroGradient;
    }
    fuel
    {
        type            fixedValue;
        value           nonuniform 0();
    }
    outlet
    {
        type            inletOutlet;
        inletValue      nonuniform 0();
        value           nonuniform 0();
    }
    procBoundary2to1
    {
        type            processor;
        value           uniform 1.78553e-08;
    }
    procBoundary2to3
    {
        type            processor;
        value           uniform 1.78272e-08;
    }
}


// ************************************************************************* //
