/*--------------------------------*- C++ -*----------------------------------*\
| =========                 |                                                 |
| \\      /  F ield         | OpenFOAM: The Open Source CFD Toolbox           |
|  \\    /   O peration     | Version:  dev                                   |
|   \\  /    A nd           | Web:      www.OpenFOAM.org                      |
|    \\/     M anipulation  |                                                 |
\*---------------------------------------------------------------------------*/
FoamFile
{
    version     2.0;
    format      ascii;
    class       volScalarField;
    location    "0.065";
    object      A2C2HB;
}
// * * * * * * * * * * * * * * * * * * * * * * * * * * * * * * * * * * * * * //

dimensions      [0 0 0 0 0 0 0];

internalField   nonuniform List<scalar> 
25
(
1.08542e-14
8.83452e-15
7.33784e-15
6.0312e-15
4.81315e-15
3.79948e-15
3.0268e-15
2.46887e-15
2.07953e-15
1.81823e-15
1.65555e-15
1.57239e-15
1.55967e-15
1.61549e-15
1.74107e-15
1.93806e-15
2.20672e-15
2.54581e-15
2.95411e-15
3.43263e-15
3.98659e-15
4.62632e-15
5.36607e-15
6.22339e-15
7.2164e-15
)
;

boundaryField
{
    wall
    {
        type            zeroGradient;
    }
    fuel
    {
        type            fixedValue;
        value           uniform 0;
    }
    outlet
    {
        type            inletOutlet;
        inletValue      nonuniform 0();
        value           nonuniform 0();
    }
    procBoundary0to1
    {
        type            processor;
        value           uniform 8.36232e-15;
    }
}


// ************************************************************************* //
