/*--------------------------------*- C++ -*----------------------------------*\
| =========                 |                                                 |
| \\      /  F ield         | OpenFOAM: The Open Source CFD Toolbox           |
|  \\    /   O peration     | Version:  dev                                   |
|   \\  /    A nd           | Web:      www.OpenFOAM.org                      |
|    \\/     M anipulation  |                                                 |
\*---------------------------------------------------------------------------*/
FoamFile
{
    version     2.0;
    format      ascii;
    class       volScalarField;
    location    "0.065";
    object      i-C4H3;
}
// * * * * * * * * * * * * * * * * * * * * * * * * * * * * * * * * * * * * * //

dimensions      [0 0 0 0 0 0 0];

internalField   nonuniform List<scalar> 
25
(
1.63001e-08
4.51409e-08
6.22056e-08
6.81778e-08
6.49408e-08
5.58746e-08
4.45605e-08
3.397e-08
2.52415e-08
1.85728e-08
1.37133e-08
1.02651e-08
7.85375e-09
6.19458e-09
5.05453e-09
4.27274e-09
3.73668e-09
3.36877e-09
3.11582e-09
2.94151e-09
2.82106e-09
2.73766e-09
2.68009e-09
2.64084e-09
2.61498e-09
)
;

boundaryField
{
    wall
    {
        type            zeroGradient;
    }
    fuel
    {
        type            fixedValue;
        value           uniform 0;
    }
    outlet
    {
        type            inletOutlet;
        inletValue      nonuniform 0();
        value           nonuniform 0();
    }
    procBoundary0to1
    {
        type            processor;
        value           uniform 2.59939e-09;
    }
}


// ************************************************************************* //
