/*--------------------------------*- C++ -*----------------------------------*\
| =========                 |                                                 |
| \\      /  F ield         | OpenFOAM: The Open Source CFD Toolbox           |
|  \\    /   O peration     | Version:  dev                                   |
|   \\  /    A nd           | Web:      www.OpenFOAM.org                      |
|    \\/     M anipulation  |                                                 |
\*---------------------------------------------------------------------------*/
FoamFile
{
    version     2.0;
    format      ascii;
    class       volScalarField;
    location    "0.065";
    object      n-A1C2H2;
}
// * * * * * * * * * * * * * * * * * * * * * * * * * * * * * * * * * * * * * //

dimensions      [0 0 0 0 0 0 0];

internalField   nonuniform List<scalar> 
25
(
3.06565e-10
8.27748e-11
2.15541e-11
5.59484e-12
1.42714e-12
3.69838e-13
9.40214e-14
2.3742e-14
6.07051e-15
1.52384e-15
3.87776e-16
9.7077e-17
2.43706e-17
6.21413e-18
1.6709e-18
5.19017e-19
2.12893e-19
1.19851e-19
8.26552e-20
6.19778e-20
4.769e-20
3.69085e-20
2.85736e-20
2.21128e-20
1.71064e-20
)
;

boundaryField
{
    wall
    {
        type            zeroGradient;
    }
    fuel
    {
        type            fixedValue;
        value           uniform 0;
    }
    outlet
    {
        type            inletOutlet;
        inletValue      nonuniform 0();
        value           nonuniform 0();
    }
    procBoundary0to1
    {
        type            processor;
        value           uniform 1.33012e-20;
    }
}


// ************************************************************************* //
