/*--------------------------------*- C++ -*----------------------------------*\
| =========                 |                                                 |
| \\      /  F ield         | OpenFOAM: The Open Source CFD Toolbox           |
|  \\    /   O peration     | Version:  dev                                   |
|   \\  /    A nd           | Web:      www.OpenFOAM.org                      |
|    \\/     M anipulation  |                                                 |
\*---------------------------------------------------------------------------*/
FoamFile
{
    version     2.0;
    format      ascii;
    class       volScalarField;
    location    "0.085";
    object      CH3O;
}
// * * * * * * * * * * * * * * * * * * * * * * * * * * * * * * * * * * * * * //

dimensions      [0 0 0 0 0 0 0];

internalField   nonuniform List<scalar> 
25
(
1.06084e-13
1.01578e-13
9.64106e-14
9.05134e-14
8.43974e-14
7.80428e-14
7.18588e-14
6.62054e-14
6.1592e-14
5.91066e-14
6.02956e-14
6.73514e-14
8.42805e-14
1.1831e-13
1.83001e-13
3.04362e-13
5.31983e-13
9.56214e-13
1.72227e-12
2.99654e-12
4.79282e-12
6.67101e-12
7.6502e-12
6.69111e-12
3.61391e-12
)
;

boundaryField
{
    wall
    {
        type            zeroGradient;
    }
    fuel
    {
        type            fixedValue;
        value           nonuniform 0();
    }
    outlet
    {
        type            inletOutlet;
        inletValue      uniform 0;
        value           uniform 3.61391e-12;
    }
    procBoundary3to2
    {
        type            processor;
        value           uniform 1.09992e-13;
    }
}


// ************************************************************************* //
