/*--------------------------------*- C++ -*----------------------------------*\
| =========                 |                                                 |
| \\      /  F ield         | OpenFOAM: The Open Source CFD Toolbox           |
|  \\    /   O peration     | Version:  dev                                   |
|   \\  /    A nd           | Web:      www.OpenFOAM.org                      |
|    \\/     M anipulation  |                                                 |
\*---------------------------------------------------------------------------*/
FoamFile
{
    version     2.0;
    format      ascii;
    class       volScalarField;
    location    "0.075";
    object      A1;
}
// * * * * * * * * * * * * * * * * * * * * * * * * * * * * * * * * * * * * * //

dimensions      [0 0 0 0 0 0 0];

internalField   nonuniform List<scalar> 
25
(
6.34505e-16
5.34157e-16
4.54795e-16
3.93686e-16
3.49987e-16
3.26282e-16
3.3191e-16
3.88722e-16
5.47277e-16
9.1418e-16
1.7052e-15
3.34114e-15
6.6117e-15
1.29356e-14
2.47399e-14
4.65634e-14
8.56734e-14
1.53276e-13
2.62022e-13
4.36517e-13
7.10536e-13
1.13273e-12
1.7256e-12
2.56783e-12
3.75937e-12
)
;

boundaryField
{
    wall
    {
        type            zeroGradient;
    }
    fuel
    {
        type            fixedValue;
        value           nonuniform 0();
    }
    outlet
    {
        type            inletOutlet;
        inletValue      nonuniform 0();
        value           nonuniform 0();
    }
    procBoundary1to0
    {
        type            processor;
        value           uniform 7.637e-16;
    }
    procBoundary1to2
    {
        type            processor;
        value           uniform 5.3218e-12;
    }
}


// ************************************************************************* //
