/*--------------------------------*- C++ -*----------------------------------*\
| =========                 |                                                 |
| \\      /  F ield         | OpenFOAM: The Open Source CFD Toolbox           |
|  \\    /   O peration     | Version:  dev                                   |
|   \\  /    A nd           | Web:      www.OpenFOAM.org                      |
|    \\/     M anipulation  |                                                 |
\*---------------------------------------------------------------------------*/
FoamFile
{
    version     2.0;
    format      ascii;
    class       volScalarField;
    location    "0.075";
    object      A2R5-;
}
// * * * * * * * * * * * * * * * * * * * * * * * * * * * * * * * * * * * * * //

dimensions      [0 0 0 0 0 0 0];

internalField   nonuniform List<scalar> 
25
(
2.09853e-13
2.01988e-13
1.94228e-13
1.86495e-13
1.7875e-13
1.70973e-13
1.63167e-13
1.55341e-13
1.47516e-13
1.39718e-13
1.31964e-13
1.2431e-13
1.16765e-13
1.09364e-13
1.02146e-13
9.50757e-14
8.82876e-14
8.17454e-14
7.54299e-14
6.9428e-14
6.37147e-14
5.82745e-14
5.31589e-14
4.82996e-14
4.37808e-14
)
;

boundaryField
{
    wall
    {
        type            zeroGradient;
    }
    fuel
    {
        type            fixedValue;
        value           nonuniform 0();
    }
    outlet
    {
        type            inletOutlet;
        inletValue      nonuniform 0();
        value           nonuniform 0();
    }
    procBoundary1to0
    {
        type            processor;
        value           uniform 2.17943e-13;
    }
    procBoundary1to2
    {
        type            processor;
        value           uniform 3.95453e-14;
    }
}


// ************************************************************************* //
