/*--------------------------------*- C++ -*----------------------------------*\
| =========                 |                                                 |
| \\      /  F ield         | OpenFOAM: The Open Source CFD Toolbox           |
|  \\    /   O peration     | Version:  dev                                   |
|   \\  /    A nd           | Web:      www.OpenFOAM.org                      |
|    \\/     M anipulation  |                                                 |
\*---------------------------------------------------------------------------*/
FoamFile
{
    version     2.0;
    format      ascii;
    class       volScalarField;
    location    "0.075";
    object      C6H8;
}
// * * * * * * * * * * * * * * * * * * * * * * * * * * * * * * * * * * * * * //

dimensions      [0 0 0 0 0 0 0];

internalField   nonuniform List<scalar> 
25
(
1.12557e-22
9.27861e-23
7.72949e-23
6.54014e-23
5.67764e-23
5.1641e-23
5.12519e-23
5.85264e-23
8.02509e-23
1.30299e-22
2.35694e-22
4.46897e-22
8.54159e-22
1.61115e-21
2.96543e-21
5.35797e-21
9.44223e-21
1.61474e-20
2.6363e-20
4.18449e-20
6.47068e-20
9.76744e-20
1.40814e-19
1.97752e-19
2.72239e-19
)
;

boundaryField
{
    wall
    {
        type            zeroGradient;
    }
    fuel
    {
        type            fixedValue;
        value           nonuniform 0();
    }
    outlet
    {
        type            inletOutlet;
        inletValue      nonuniform 0();
        value           nonuniform 0();
    }
    procBoundary1to0
    {
        type            processor;
        value           uniform 1.38215e-22;
    }
    procBoundary1to2
    {
        type            processor;
        value           uniform 3.61863e-19;
    }
}


// ************************************************************************* //
