/*--------------------------------*- C++ -*----------------------------------*\
| =========                 |                                                 |
| \\      /  F ield         | OpenFOAM: The Open Source CFD Toolbox           |
|  \\    /   O peration     | Version:  dev                                   |
|   \\  /    A nd           | Web:      www.OpenFOAM.org                      |
|    \\/     M anipulation  |                                                 |
\*---------------------------------------------------------------------------*/
FoamFile
{
    version     2.0;
    format      ascii;
    class       volScalarField;
    location    "0.075";
    object      CH3O;
}
// * * * * * * * * * * * * * * * * * * * * * * * * * * * * * * * * * * * * * //

dimensions      [0 0 0 0 0 0 0];

internalField   nonuniform List<scalar> 
25
(
6.32268e-12
4.70567e-12
3.58364e-12
2.78842e-12
2.20978e-12
1.77577e-12
1.45054e-12
1.1929e-12
9.85423e-13
8.16478e-13
6.7808e-13
5.64497e-13
4.71379e-13
3.95227e-13
3.33273e-13
2.82226e-13
2.40817e-13
2.07692e-13
1.82115e-13
1.61621e-13
1.45139e-13
1.31941e-13
1.2211e-13
1.14586e-13
1.089e-13
)
;

boundaryField
{
    wall
    {
        type            zeroGradient;
    }
    fuel
    {
        type            fixedValue;
        value           nonuniform 0();
    }
    outlet
    {
        type            inletOutlet;
        inletValue      nonuniform 0();
        value           nonuniform 0();
    }
    procBoundary1to0
    {
        type            processor;
        value           uniform 8.71188e-12;
    }
    procBoundary1to2
    {
        type            processor;
        value           uniform 1.04838e-13;
    }
}


// ************************************************************************* //
