/*--------------------------------*- C++ -*----------------------------------*\
| =========                 |                                                 |
| \\      /  F ield         | OpenFOAM: The Open Source CFD Toolbox           |
|  \\    /   O peration     | Version:  dev                                   |
|   \\  /    A nd           | Web:      www.OpenFOAM.org                      |
|    \\/     M anipulation  |                                                 |
\*---------------------------------------------------------------------------*/
FoamFile
{
    version     2.0;
    format      ascii;
    class       volScalarField;
    location    "0.075";
    object      H;
}
// * * * * * * * * * * * * * * * * * * * * * * * * * * * * * * * * * * * * * //

dimensions      [0 0 0 0 0 0 0];

internalField   nonuniform List<scalar> 
25
(
0.000210357
0.000202393
0.000194538
0.000186813
0.000179248
0.000171862
0.000164893
0.000158122
0.000151561
0.000145212
0.000139076
0.00013315
0.000127431
0.00012191
0.000116592
0.000111381
0.000106328
0.000101472
9.69605e-05
9.26019e-05
8.83554e-05
8.4198e-05
8.03778e-05
7.67191e-05
7.31679e-05
)
;

boundaryField
{
    wall
    {
        type            zeroGradient;
    }
    fuel
    {
        type            fixedValue;
        value           nonuniform 0();
    }
    outlet
    {
        type            inletOutlet;
        inletValue      nonuniform 0();
        value           nonuniform 0();
    }
    procBoundary1to0
    {
        type            processor;
        value           uniform 0.000218417;
    }
    procBoundary1to2
    {
        type            processor;
        value           uniform 6.98247e-05;
    }
}


// ************************************************************************* //
