/*--------------------------------*- C++ -*----------------------------------*\
| =========                 |                                                 |
| \\      /  F ield         | OpenFOAM: The Open Source CFD Toolbox           |
|  \\    /   O peration     | Version:  dev                                   |
|   \\  /    A nd           | Web:      www.OpenFOAM.org                      |
|    \\/     M anipulation  |                                                 |
\*---------------------------------------------------------------------------*/
FoamFile
{
    version     2.0;
    format      ascii;
    class       volScalarField;
    location    "0.075";
    object      HCCO;
}
// * * * * * * * * * * * * * * * * * * * * * * * * * * * * * * * * * * * * * //

dimensions      [0 0 0 0 0 0 0];

internalField   nonuniform List<scalar> 
25
(
2.00525e-09
1.49442e-09
1.14013e-09
8.89273e-10
7.06926e-10
5.7022e-10
4.677e-10
3.86338e-10
3.20605e-10
2.66836e-10
2.2253e-10
1.85914e-10
1.55649e-10
1.30667e-10
1.10122e-10
9.29817e-11
7.88585e-11
6.73345e-11
5.82096e-11
5.06719e-11
4.43708e-11
3.90633e-11
3.4837e-11
3.13113e-11
2.83147e-11
)
;

boundaryField
{
    wall
    {
        type            zeroGradient;
    }
    fuel
    {
        type            fixedValue;
        value           nonuniform 0();
    }
    outlet
    {
        type            inletOutlet;
        inletValue      nonuniform 0();
        value           nonuniform 0();
    }
    procBoundary1to0
    {
        type            processor;
        value           uniform 2.75444e-09;
    }
    procBoundary1to2
    {
        type            processor;
        value           uniform 2.58314e-11;
    }
}


// ************************************************************************* //
