/*--------------------------------*- C++ -*----------------------------------*\
| =========                 |                                                 |
| \\      /  F ield         | OpenFOAM: The Open Source CFD Toolbox           |
|  \\    /   O peration     | Version:  dev                                   |
|   \\  /    A nd           | Web:      www.OpenFOAM.org                      |
|    \\/     M anipulation  |                                                 |
\*---------------------------------------------------------------------------*/
FoamFile
{
    version     2.0;
    format      ascii;
    class       volScalarField;
    location    "0.075";
    object      i-C6H5;
}
// * * * * * * * * * * * * * * * * * * * * * * * * * * * * * * * * * * * * * //

dimensions      [0 0 0 0 0 0 0];

internalField   nonuniform List<scalar> 
25
(
8.61327e-20
6.61337e-20
5.12132e-20
4.01846e-20
3.22346e-20
2.69186e-20
2.43322e-20
2.49775e-20
3.05587e-20
4.44878e-20
7.29679e-20
1.26594e-19
2.22478e-19
3.86616e-19
6.55822e-19
1.09024e-18
1.76518e-18
2.77094e-18
4.15849e-18
6.05815e-18
8.5788e-18
1.18262e-17
1.56024e-17
2.00192e-17
2.51054e-17
)
;

boundaryField
{
    wall
    {
        type            zeroGradient;
    }
    fuel
    {
        type            fixedValue;
        value           nonuniform 0();
    }
    outlet
    {
        type            inletOutlet;
        inletValue      nonuniform 0();
        value           nonuniform 0();
    }
    procBoundary1to0
    {
        type            processor;
        value           uniform 1.13448e-19;
    }
    procBoundary1to2
    {
        type            processor;
        value           uniform 3.04269e-17;
    }
}


// ************************************************************************* //
