/*--------------------------------*- C++ -*----------------------------------*\
| =========                 |                                                 |
| \\      /  F ield         | OpenFOAM: The Open Source CFD Toolbox           |
|  \\    /   O peration     | Version:  dev                                   |
|   \\  /    A nd           | Web:      www.OpenFOAM.org                      |
|    \\/     M anipulation  |                                                 |
\*---------------------------------------------------------------------------*/
FoamFile
{
    version     2.0;
    format      ascii;
    class       volScalarField;
    location    "0.1";
    object      C2H4;
}
// * * * * * * * * * * * * * * * * * * * * * * * * * * * * * * * * * * * * * //

dimensions      [0 0 0 0 0 0 0];

internalField   nonuniform List<scalar> 
25
(
1.70596e-05
1.79661e-05
1.87784e-05
1.94874e-05
2.00799e-05
2.05455e-05
2.08768e-05
2.10853e-05
2.11753e-05
2.1151e-05
2.10228e-05
2.07989e-05
2.04968e-05
2.01254e-05
1.96914e-05
1.92069e-05
1.86781e-05
1.81225e-05
1.75446e-05
1.6941e-05
1.6336e-05
1.57242e-05
1.5109e-05
1.44923e-05
1.38731e-05
)
;

boundaryField
{
    wall
    {
        type            zeroGradient;
    }
    fuel
    {
        type            fixedValue;
        value           nonuniform 0();
    }
    outlet
    {
        type            inletOutlet;
        inletValue      nonuniform 0();
        value           nonuniform 0();
    }
    procBoundary2to1
    {
        type            processor;
        value           uniform 1.60526e-05;
    }
    procBoundary2to3
    {
        type            processor;
        value           uniform 1.32597e-05;
    }
}


// ************************************************************************* //
