/*--------------------------------*- C++ -*----------------------------------*\
| =========                 |                                                 |
| \\      /  F ield         | OpenFOAM: The Open Source CFD Toolbox           |
|  \\    /   O peration     | Version:  dev                                   |
|   \\  /    A nd           | Web:      www.OpenFOAM.org                      |
|    \\/     M anipulation  |                                                 |
\*---------------------------------------------------------------------------*/
FoamFile
{
    version     2.0;
    format      ascii;
    class       volScalarField;
    location    "0.1";
    object      OH;
}
// * * * * * * * * * * * * * * * * * * * * * * * * * * * * * * * * * * * * * //

dimensions      [0 0 0 0 0 0 0];

internalField   nonuniform List<scalar> 
25
(
6.31867e-05
5.81198e-05
5.33802e-05
4.87957e-05
4.45137e-05
4.0689e-05
3.71086e-05
3.37703e-05
3.06641e-05
2.77777e-05
2.50995e-05
2.26187e-05
2.03254e-05
1.82097e-05
1.62624e-05
1.44743e-05
1.28357e-05
1.13349e-05
9.95779e-06
8.69597e-06
7.54908e-06
6.53138e-06
5.61689e-06
4.79631e-06
4.06434e-06
)
;

boundaryField
{
    wall
    {
        type            zeroGradient;
    }
    fuel
    {
        type            fixedValue;
        value           nonuniform 0();
    }
    outlet
    {
        type            inletOutlet;
        inletValue      nonuniform 0();
        value           nonuniform 0();
    }
    procBoundary2to1
    {
        type            processor;
        value           uniform 6.85725e-05;
    }
    procBoundary2to3
    {
        type            processor;
        value           uniform 3.40297e-06;
    }
}


// ************************************************************************* //
