/*--------------------------------*- C++ -*----------------------------------*\
| =========                 |                                                 |
| \\      /  F ield         | OpenFOAM: The Open Source CFD Toolbox           |
|  \\    /   O peration     | Version:  dev                                   |
|   \\  /    A nd           | Web:      www.OpenFOAM.org                      |
|    \\/     M anipulation  |                                                 |
\*---------------------------------------------------------------------------*/
FoamFile
{
    version     2.0;
    format      ascii;
    class       volScalarField;
    location    "0.13";
    object      A1C2H-;
}
// * * * * * * * * * * * * * * * * * * * * * * * * * * * * * * * * * * * * * //

dimensions      [0 0 0 0 0 0 0];

internalField   nonuniform List<scalar> 
250
(
3.83512e-09
8.0403e-07
7.49713e-07
7.39469e-07
7.38349e-07
7.38551e-07
7.37767e-07
7.38103e-07
7.37623e-07
2.5619e-09
8.4647e-07
6.43558e-07
6.20804e-07
6.18497e-07
6.18219e-07
6.18021e-07
6.18032e-07
6.17944e-07
1.34482e-09
6.6363e-07
4.32762e-07
4.08782e-07
4.06295e-07
4.0588e-07
4.05869e-07
4.05753e-07
4.05687e-07
7.03927e-10
4.83456e-07
2.74867e-07
2.53882e-07
2.51635e-07
2.51229e-07
2.51286e-07
2.51131e-07
2.50818e-07
4.03006e-10
3.48998e-07
1.76457e-07
1.59306e-07
1.57476e-07
1.57159e-07
1.57229e-07
1.57086e-07
1.56027e-07
2.58346e-10
2.55995e-07
1.17082e-07
1.02419e-07
1.0014e-07
9.96682e-08
9.97081e-08
9.9522e-08
1.00548e-07
1.93079e-10
1.9282e-07
8.2186e-08
7.01288e-08
6.81002e-08
6.76986e-08
6.7718e-08
6.75633e-08
6.80293e-08
1.76046e-10
1.45067e-07
6.07525e-08
5.0666e-08
4.87421e-08
4.83806e-08
4.83718e-08
4.82605e-08
4.84571e-08
2.29522e-10
1.13923e-07
4.60153e-08
3.77634e-08
3.65198e-08
3.62664e-08
3.629e-08
3.6141e-08
3.62565e-08
3.12448e-10
9.15221e-08
3.55465e-08
2.87382e-08
2.76276e-08
2.73988e-08
2.74029e-08
2.731e-08
2.734e-08
4.73421e-10
7.51756e-08
2.90691e-08
2.33583e-08
2.23348e-08
2.21226e-08
2.21205e-08
2.20615e-08
2.20333e-08
2.19975e-08
7.27319e-10
6.05578e-08
2.416e-08
1.92285e-08
1.81993e-08
1.79886e-08
1.7985e-08
1.79487e-08
1.78315e-08
1.81324e-08
1.11547e-09
4.88173e-08
2.01523e-08
1.61433e-08
1.52075e-08
1.50069e-08
1.50051e-08
1.49745e-08
1.51185e-08
1.49865e-08
1.66893e-09
4.0946e-08
1.7198e-08
1.38263e-08
1.2972e-08
1.27797e-08
1.27811e-08
1.27414e-08
1.28419e-08
1.28948e-08
2.35355e-09
3.4594e-08
1.4898e-08
1.20272e-08
1.12447e-08
1.10594e-08
1.10646e-08
1.10076e-08
1.1093e-08
1.10954e-08
3.11454e-09
2.93806e-08
1.29688e-08
1.05868e-08
9.86893e-09
9.69e-09
9.69879e-09
9.62056e-09
9.70667e-09
9.68361e-09
3.91622e-09
2.50698e-08
1.14221e-08
9.40294e-09
8.74413e-09
8.57147e-09
8.58324e-09
8.48137e-09
8.57698e-09
8.54392e-09
4.74584e-09
2.15192e-08
1.01505e-08
8.40876e-09
7.80476e-09
7.6387e-09
7.65284e-09
7.52341e-09
7.63646e-09
7.60044e-09
5.5912e-09
1.80035e-08
9.07924e-09
7.55938e-09
7.00712e-09
6.84835e-09
6.8647e-09
6.80306e-09
6.84114e-09
6.80463e-09
6.43747e-09
1.55068e-08
8.16601e-09
6.82393e-09
6.32124e-09
6.17058e-09
6.18782e-09
6.11383e-09
6.16022e-09
6.12457e-09
7.24057e-09
1.3478e-08
7.37879e-09
6.18031e-09
5.72568e-09
5.58402e-09
5.60127e-09
5.51511e-09
5.57197e-09
5.5379e-09
7.94494e-09
1.17821e-08
6.69332e-09
5.61136e-09
5.20389e-09
5.07201e-09
5.089e-09
5.05014e-09
5.05952e-09
5.02746e-09
8.50085e-09
1.04281e-08
6.09049e-09
5.1697e-09
4.79604e-09
4.67364e-09
4.68961e-09
4.6497e-09
4.66107e-09
4.63093e-09
8.87855e-09
9.3196e-09
5.61389e-09
4.77732e-09
4.4211e-09
4.30485e-09
4.32099e-09
4.27871e-09
4.29314e-09
4.26299e-09
9.07447e-09
8.40369e-09
5.1675e-09
4.4026e-09
4.10951e-09
4.00258e-09
4.01724e-09
3.97647e-09
3.99134e-09
3.9633e-09
9.11068e-09
7.61114e-09
4.79174e-09
4.10361e-09
3.83676e-09
3.73886e-09
3.75202e-09
3.71332e-09
3.72823e-09
3.70224e-09
)
;

boundaryField
{
    fuel
    {
        type            fixedValue;
        value           uniform 0;
    }
    wall
    {
        type            zeroGradient;
    }
    outlet
    {
        type            zeroGradient;
    }
    frontAndBack
    {
        type            empty;
    }
    procBoundary2to0
    {
        type            processor;
        value           nonuniform List<scalar> 
12
(
3.9717e-09
8.99297e-09
6.87451e-09
4.45559e-09
3.83817e-09
3.59597e-09
3.50703e-09
3.51873e-09
3.48231e-09
3.49702e-09
3.71065e-09
3.47292e-09
)
;
    }
    procBoundary2to3
    {
        type            processor;
        value           nonuniform List<scalar> 
25
(
7.37791e-07
6.17942e-07
4.05701e-07
2.509e-07
1.56135e-07
1.00422e-07
6.78512e-08
4.82199e-08
3.5709e-08
2.75466e-08
2.75466e-08
2.20881e-08
1.78355e-08
1.50864e-08
1.27879e-08
1.10321e-08
9.64818e-09
8.52475e-09
7.59119e-09
6.80189e-09
6.12621e-09
5.54245e-09
5.03381e-09
4.63818e-09
4.27125e-09
)
;
    }
}


// ************************************************************************* //
