/*--------------------------------*- C++ -*----------------------------------*\
| =========                 |                                                 |
| \\      /  F ield         | OpenFOAM: The Open Source CFD Toolbox           |
|  \\    /   O peration     | Version:  dev                                   |
|   \\  /    A nd           | Web:      www.OpenFOAM.org                      |
|    \\/     M anipulation  |                                                 |
\*---------------------------------------------------------------------------*/
FoamFile
{
    version     2.0;
    format      ascii;
    class       volScalarField;
    location    "0.13";
    object      A2C2HB;
}
// * * * * * * * * * * * * * * * * * * * * * * * * * * * * * * * * * * * * * //

dimensions      [0 0 0 0 0 0 0];

internalField   nonuniform List<scalar> 
250
(
1.55988e-09
9.87901e-08
5.91481e-08
5.57211e-08
5.54118e-08
5.53822e-08
5.53575e-08
5.53764e-08
5.53799e-08
3.17423e-09
1.06337e-07
4.52159e-08
4.10018e-08
4.06203e-08
4.05889e-08
4.05654e-08
4.05738e-08
4.05717e-08
4.29313e-09
9.66076e-08
3.05263e-08
2.65436e-08
2.61855e-08
2.61509e-08
2.61371e-08
2.61359e-08
2.61321e-08
4.87947e-09
8.79728e-08
2.16176e-08
1.79313e-08
1.7604e-08
1.75682e-08
1.75612e-08
1.75549e-08
1.75385e-08
5.06776e-09
8.0795e-08
1.62177e-08
1.27917e-08
1.24945e-08
1.24604e-08
1.24572e-08
1.24488e-08
1.23896e-08
5.01598e-09
7.40887e-08
1.26404e-08
9.40556e-09
9.0818e-09
9.03475e-09
9.03226e-09
9.01848e-09
9.08633e-09
4.86504e-09
6.73507e-08
1.01785e-08
7.18874e-09
6.87968e-09
6.83436e-09
6.83201e-09
6.8182e-09
6.85337e-09
4.74355e-09
5.96325e-08
8.36702e-09
5.63486e-09
5.33279e-09
5.28866e-09
5.28496e-09
5.2733e-09
5.29056e-09
4.80683e-09
5.24538e-08
6.87157e-09
4.44698e-09
4.21231e-09
4.17756e-09
4.17764e-09
4.16161e-09
4.17305e-09
4.9766e-09
4.54651e-08
5.61236e-09
3.50522e-09
3.29187e-09
3.25988e-09
3.25854e-09
3.24815e-09
3.25081e-09
5.14318e-09
3.89179e-08
4.71763e-09
2.88883e-09
2.69223e-09
2.6626e-09
2.66086e-09
2.65467e-09
2.65003e-09
2.64622e-09
5.23121e-09
3.1717e-08
3.957e-09
2.38041e-09
2.19028e-09
2.16152e-09
2.15974e-09
2.15699e-09
2.14039e-09
2.17958e-09
5.23716e-09
2.50332e-08
3.27935e-09
1.98145e-09
1.81042e-09
1.78371e-09
1.78217e-09
1.78094e-09
1.79719e-09
1.78203e-09
5.18875e-09
2.01534e-08
2.75212e-09
1.67372e-09
1.52021e-09
1.49531e-09
1.49416e-09
1.49255e-09
1.50292e-09
1.51188e-09
5.10153e-09
1.60497e-08
2.32982e-09
1.4332e-09
1.29547e-09
1.27215e-09
1.27143e-09
1.26823e-09
1.27628e-09
1.27867e-09
4.99167e-09
1.26686e-08
1.97274e-09
1.24253e-09
1.11888e-09
1.09692e-09
1.09663e-09
1.09116e-09
1.09898e-09
1.0979e-09
4.86844e-09
9.94636e-09
1.68929e-09
1.08926e-09
9.78057e-10
9.57288e-10
9.57358e-10
9.49137e-10
9.57929e-10
9.55446e-10
4.73161e-09
7.81614e-09
1.46191e-09
9.64354e-10
8.64138e-10
8.44436e-10
8.44808e-10
8.33145e-10
8.44054e-10
8.41121e-10
4.5733e-09
5.8674e-09
1.27696e-09
8.61244e-10
7.70764e-10
7.52062e-10
7.52725e-10
7.48751e-10
7.50984e-10
7.47948e-10
4.3968e-09
4.59265e-09
1.12703e-09
7.7513e-10
6.93347e-10
6.75621e-10
6.76426e-10
6.70802e-10
6.7407e-10
6.71103e-10
4.19974e-09
3.64855e-09
1.00501e-09
7.02441e-10
6.28533e-10
6.11798e-10
6.12636e-10
6.05383e-10
6.09965e-10
6.07156e-10
3.98701e-09
2.93745e-09
9.05123e-10
6.40441e-10
5.73815e-10
5.58112e-10
5.58937e-10
5.56457e-10
5.56155e-10
5.53569e-10
3.77196e-09
2.42921e-09
8.22808e-10
5.94237e-10
5.32886e-10
5.18172e-10
5.18885e-10
5.16201e-10
5.16158e-10
5.13815e-10
3.56964e-09
2.05998e-09
7.62254e-10
5.5526e-10
4.9731e-10
4.83285e-10
4.83966e-10
4.81063e-10
4.81314e-10
4.79082e-10
3.39309e-09
1.7921e-09
7.10212e-10
5.20605e-10
4.70122e-10
4.57131e-10
4.5758e-10
4.5496e-10
4.55168e-10
4.53313e-10
3.2504e-09
1.5911e-09
6.71086e-10
4.96024e-10
4.49376e-10
4.37481e-10
4.37634e-10
4.3551e-10
4.35522e-10
4.3414e-10
)
;

boundaryField
{
    fuel
    {
        type            fixedValue;
        value           uniform 0;
    }
    wall
    {
        type            zeroGradient;
    }
    outlet
    {
        type            zeroGradient;
    }
    frontAndBack
    {
        type            empty;
    }
    procBoundary2to0
    {
        type            processor;
        value           nonuniform List<scalar> 
12
(
4.53793e-10
3.14582e-09
1.43467e-09
6.41608e-10
4.78231e-10
4.35159e-10
4.24469e-10
4.24248e-10
4.22839e-10
4.22487e-10
4.34555e-10
4.21702e-10
)
;
    }
    procBoundary2to3
    {
        type            processor;
        value           nonuniform List<scalar> 
25
(
5.53649e-08
4.05641e-08
2.61299e-08
1.75411e-08
1.23945e-08
9.07679e-09
6.83865e-09
5.26808e-09
4.1174e-09
3.27417e-09
3.27417e-09
2.65623e-09
2.14117e-09
1.79367e-09
1.49658e-09
1.26897e-09
1.09194e-09
9.51748e-10
8.38854e-10
7.46655e-10
6.70496e-10
6.07024e-10
5.53748e-10
5.14156e-10
4.79558e-10
)
;
    }
}


// ************************************************************************* //
