/*--------------------------------*- C++ -*----------------------------------*\
| =========                 |                                                 |
| \\      /  F ield         | OpenFOAM: The Open Source CFD Toolbox           |
|  \\    /   O peration     | Version:  dev                                   |
|   \\  /    A nd           | Web:      www.OpenFOAM.org                      |
|    \\/     M anipulation  |                                                 |
\*---------------------------------------------------------------------------*/
FoamFile
{
    version     2.0;
    format      ascii;
    class       volScalarField;
    location    "0.13";
    object      A2C2HA;
}
// * * * * * * * * * * * * * * * * * * * * * * * * * * * * * * * * * * * * * //

dimensions      [0 0 0 0 0 0 0];

internalField   nonuniform List<scalar> 
50
(
2.84532e-18
2.61364e-18
2.4023e-18
2.2096e-18
2.03392e-18
1.87606e-18
1.73029e-18
1.59745e-18
1.47638e-18
1.36592e-18
1.26652e-18
1.17455e-18
1.09158e-18
1.0157e-18
9.46059e-19
8.82516e-19
8.24312e-19
7.70964e-19
7.22036e-19
6.76756e-19
6.35478e-19
5.97389e-19
5.62418e-19
5.30181e-19
5.00432e-19
4.72949e-19
4.47532e-19
4.23999e-19
4.02191e-19
3.81823e-19
3.6272e-19
3.45195e-19
3.28798e-19
3.13509e-19
2.99089e-19
2.85662e-19
2.73047e-19
2.61046e-19
2.49666e-19
2.3907e-19
2.29027e-19
2.19471e-19
2.10274e-19
2.01506e-19
1.93126e-19
1.85088e-19
1.7748e-19
1.70142e-19
1.63049e-19
1.56166e-19
)
;

boundaryField
{
    wall
    {
        type            zeroGradient;
    }
    fuel
    {
        type            fixedValue;
        value           nonuniform 0();
    }
    outlet
    {
        type            inletOutlet;
        inletValue      nonuniform 0();
        value           nonuniform 0();
    }
    procBoundary2to1
    {
        type            processor;
        value           uniform 3.10508e-18;
    }
    procBoundary2to3
    {
        type            processor;
        value           uniform 1.49505e-19;
    }
}


// ************************************************************************* //
