/*--------------------------------*- C++ -*----------------------------------*\
| =========                 |                                                 |
| \\      /  F ield         | OpenFOAM: The Open Source CFD Toolbox           |
|  \\    /   O peration     | Version:  dev                                   |
|   \\  /    A nd           | Web:      www.OpenFOAM.org                      |
|    \\/     M anipulation  |                                                 |
\*---------------------------------------------------------------------------*/
FoamFile
{
    version     2.0;
    format      ascii;
    class       volScalarField;
    location    "0.13";
    object      A2R5-;
}
// * * * * * * * * * * * * * * * * * * * * * * * * * * * * * * * * * * * * * //

dimensions      [0 0 0 0 0 0 0];

internalField   nonuniform List<scalar> 
50
(
2.41967e-16
2.16001e-16
1.92839e-16
1.72202e-16
1.53826e-16
1.377e-16
1.23168e-16
1.10244e-16
9.87497e-17
8.85199e-17
7.95381e-17
7.14325e-17
6.42986e-17
5.79362e-17
5.22407e-17
4.71731e-17
4.26468e-17
3.86018e-17
3.49852e-17
3.17227e-17
2.88235e-17
2.62161e-17
2.38829e-17
2.17868e-17
1.99019e-17
1.82054e-17
1.66768e-17
1.52983e-17
1.40543e-17
1.29232e-17
1.18908e-17
1.0969e-17
1.01298e-17
9.36884e-18
8.67105e-18
8.03952e-18
7.46318e-18
6.93082e-18
6.44092e-18
5.99835e-18
5.5916e-18
5.21649e-18
4.8668e-18
4.54407e-18
4.24554e-18
3.96845e-18
3.71469e-18
3.47791e-18
3.25646e-18
3.04856e-18
)
;

boundaryField
{
    wall
    {
        type            zeroGradient;
    }
    fuel
    {
        type            fixedValue;
        value           nonuniform 0();
    }
    outlet
    {
        type            inletOutlet;
        inletValue      nonuniform 0();
        value           nonuniform 0();
    }
    procBoundary2to1
    {
        type            processor;
        value           uniform 2.71799e-16;
    }
    procBoundary2to3
    {
        type            processor;
        value           uniform 2.85561e-18;
    }
}


// ************************************************************************* //
