/*--------------------------------*- C++ -*----------------------------------*\
| =========                 |                                                 |
| \\      /  F ield         | OpenFOAM: The Open Source CFD Toolbox           |
|  \\    /   O peration     | Version:  dev                                   |
|   \\  /    A nd           | Web:      www.OpenFOAM.org                      |
|    \\/     M anipulation  |                                                 |
\*---------------------------------------------------------------------------*/
FoamFile
{
    version     2.0;
    format      ascii;
    class       volScalarField;
    location    "0.13";
    object      C;
}
// * * * * * * * * * * * * * * * * * * * * * * * * * * * * * * * * * * * * * //

dimensions      [0 0 0 0 0 0 0];

internalField   nonuniform List<scalar> 
250
(
5.33601e-10
1.41717e-06
2.47688e-06
2.59576e-06
2.60558e-06
2.61344e-06
2.59947e-06
2.60612e-06
2.5935e-06
3.82787e-10
1.30135e-06
2.05558e-06
2.14238e-06
2.15084e-06
2.15187e-06
2.15037e-06
2.15103e-06
2.14922e-06
2.04945e-10
5.59799e-07
8.80341e-07
9.21758e-07
9.2605e-07
9.25861e-07
9.2618e-07
9.25903e-07
9.2559e-07
8.6395e-11
2.00569e-07
3.18145e-07
3.36132e-07
3.37965e-07
3.37753e-07
3.381e-07
3.37843e-07
3.37451e-07
3.44262e-11
7.11176e-08
1.16774e-07
1.25534e-07
1.26562e-07
1.26523e-07
1.26723e-07
1.26598e-07
1.25389e-07
1.43681e-11
2.70697e-08
4.78831e-08
5.22267e-08
5.22646e-08
5.21125e-08
5.21983e-08
5.20945e-08
5.30339e-08
6.7501e-12
1.17102e-08
2.40569e-08
2.71151e-08
2.71875e-08
2.71183e-08
2.71598e-08
2.71061e-08
2.74117e-08
3.58899e-12
5.55209e-09
1.48819e-08
1.73604e-08
1.74143e-08
1.7374e-08
1.73911e-08
1.73643e-08
1.74604e-08
3.47926e-12
3.20152e-09
1.06491e-08
1.28745e-08
1.30867e-08
1.30808e-08
1.31024e-08
1.30648e-08
1.31075e-08
3.73974e-12
2.13709e-09
8.45732e-09
1.05018e-08
1.07004e-08
1.06978e-08
1.07105e-08
1.06853e-08
1.07002e-08
4.22338e-12
1.62315e-09
7.36589e-09
9.30758e-09
9.49792e-09
9.49621e-09
9.50622e-09
9.4854e-09
9.48816e-09
9.48141e-09
4.95473e-12
1.32847e-09
6.65881e-09
8.47202e-09
8.63735e-09
8.63286e-09
8.64228e-09
8.62217e-09
8.60841e-09
8.66626e-09
6.5836e-12
1.18874e-09
6.13535e-09
7.8553e-09
8.01538e-09
8.00941e-09
8.01948e-09
7.99629e-09
8.0392e-09
8.00403e-09
1.01459e-11
1.14898e-09
5.76107e-09
7.36446e-09
7.51614e-09
7.50779e-09
7.51917e-09
7.48932e-09
7.52665e-09
7.53188e-09
1.66939e-11
1.16249e-09
5.46148e-09
6.93945e-09
7.07986e-09
7.06831e-09
7.08134e-09
7.04215e-09
7.08093e-09
7.07287e-09
2.68822e-11
1.21431e-09
5.18927e-09
6.54787e-09
6.67461e-09
6.65913e-09
6.67394e-09
6.62315e-09
6.66798e-09
6.65172e-09
4.13572e-11
1.29396e-09
4.94167e-09
6.17122e-09
6.28234e-09
6.2623e-09
6.27894e-09
6.21409e-09
6.26848e-09
6.24712e-09
6.18233e-11
1.39162e-09
4.70234e-09
5.79813e-09
5.89222e-09
5.86713e-09
5.88567e-09
5.80307e-09
5.87126e-09
5.84608e-09
9.15609e-11
1.52007e-09
4.45892e-09
5.4211e-09
5.4973e-09
5.46688e-09
5.48758e-09
5.43485e-09
5.46957e-09
5.44084e-09
1.34443e-10
1.6291e-09
4.20262e-09
5.03487e-09
5.09292e-09
5.05709e-09
5.07954e-09
5.01355e-09
5.05867e-09
5.02663e-09
1.94492e-10
1.72439e-09
3.92794e-09
4.63551e-09
4.67574e-09
4.63467e-09
4.65862e-09
4.57771e-09
4.63552e-09
4.60038e-09
2.73674e-10
1.79721e-09
3.63153e-09
4.2197e-09
4.24302e-09
4.19713e-09
4.22262e-09
4.17773e-09
4.19773e-09
4.15977e-09
3.69237e-10
1.83462e-09
3.31165e-09
3.8428e-09
3.84603e-09
3.79684e-09
3.82301e-09
3.77177e-09
3.7972e-09
3.75699e-09
4.72495e-10
1.83168e-09
3.00686e-09
3.45204e-09
3.41855e-09
3.36196e-09
3.39035e-09
3.33047e-09
3.36292e-09
3.3181e-09
5.69725e-10
1.78472e-09
2.66715e-09
3.01841e-09
3.00841e-09
2.95035e-09
2.97856e-09
2.91581e-09
2.95143e-09
2.90553e-09
6.46331e-10
1.69161e-09
2.33635e-09
2.6255e-09
2.59977e-09
2.54159e-09
2.56921e-09
2.50547e-09
2.54301e-09
2.49695e-09
)
;

boundaryField
{
    fuel
    {
        type            fixedValue;
        value           uniform 0;
    }
    wall
    {
        type            zeroGradient;
    }
    outlet
    {
        type            zeroGradient;
    }
    frontAndBack
    {
        type            empty;
    }
    procBoundary2to0
    {
        type            processor;
        value           nonuniform List<scalar> 
12
(
2.91914e-09
6.86871e-10
1.54212e-09
2.003e-09
2.23639e-09
2.19897e-09
2.14258e-09
2.16898e-09
2.10631e-09
2.14436e-09
2.51108e-09
2.09929e-09
)
;
    }
    procBoundary2to3
    {
        type            processor;
        value           nonuniform List<scalar> 
25
(
2.59403e-06
2.14882e-06
9.25528e-07
3.37524e-07
1.25482e-07
5.29794e-08
2.7348e-08
1.73993e-08
1.29717e-08
1.07535e-08
1.07535e-08
9.49711e-09
8.60598e-09
8.02852e-09
7.50996e-09
7.06088e-09
6.64619e-09
6.24565e-09
5.84748e-09
5.44456e-09
5.0324e-09
4.60801e-09
4.16911e-09
3.76767e-09
3.33077e-09
)
;
    }
}


// ************************************************************************* //
