/*--------------------------------*- C++ -*----------------------------------*\
| =========                 |                                                 |
| \\      /  F ield         | OpenFOAM: The Open Source CFD Toolbox           |
|  \\    /   O peration     | Version:  dev                                   |
|   \\  /    A nd           | Web:      www.OpenFOAM.org                      |
|    \\/     M anipulation  |                                                 |
\*---------------------------------------------------------------------------*/
FoamFile
{
    version     2.0;
    format      ascii;
    class       volScalarField;
    location    "0.13";
    object      c-C6H4;
}
// * * * * * * * * * * * * * * * * * * * * * * * * * * * * * * * * * * * * * //

dimensions      [0 0 0 0 0 0 0];

internalField   nonuniform List<scalar> 
50
(
6.12599e-18
5.57439e-18
5.07451e-18
4.62206e-18
4.21274e-18
3.84776e-18
3.51351e-18
3.21138e-18
2.93823e-18
2.69104e-18
2.47033e-18
2.26775e-18
2.08638e-18
1.92182e-18
1.77193e-18
1.63622e-18
1.51285e-18
1.40061e-18
1.29842e-18
1.20452e-18
1.11947e-18
1.04147e-18
9.70227e-19
9.04836e-19
8.44684e-19
7.89214e-19
7.3792e-19
6.90347e-19
6.4609e-19
6.04504e-19
5.65169e-19
5.2867e-19
4.94061e-19
4.61299e-19
4.29882e-19
4.00107e-19
3.71637e-19
3.44085e-19
3.17542e-19
2.92483e-19
2.68483e-19
2.45499e-19
2.23341e-19
2.02298e-19
1.82382e-19
1.63589e-19
1.46217e-19
1.29983e-19
1.14899e-19
1.00954e-19
)
;

boundaryField
{
    wall
    {
        type            zeroGradient;
    }
    fuel
    {
        type            fixedValue;
        value           nonuniform 0();
    }
    outlet
    {
        type            inletOutlet;
        inletValue      nonuniform 0();
        value           nonuniform 0();
    }
    procBoundary2to1
    {
        type            processor;
        value           uniform 6.74475e-18;
    }
    procBoundary2to3
    {
        type            processor;
        value           uniform 8.81481e-20;
    }
}


// ************************************************************************* //
