/*--------------------------------*- C++ -*----------------------------------*\
| =========                 |                                                 |
| \\      /  F ield         | OpenFOAM: The Open Source CFD Toolbox           |
|  \\    /   O peration     | Version:  dev                                   |
|   \\  /    A nd           | Web:      www.OpenFOAM.org                      |
|    \\/     M anipulation  |                                                 |
\*---------------------------------------------------------------------------*/
FoamFile
{
    version     2.0;
    format      ascii;
    class       volScalarField;
    location    "0.13";
    object      C2O;
}
// * * * * * * * * * * * * * * * * * * * * * * * * * * * * * * * * * * * * * //

dimensions      [0 0 0 0 0 0 0];

internalField   nonuniform List<scalar> 
50
(
2.31374e-13
2.204e-13
2.10181e-13
2.00663e-13
1.91797e-13
1.83655e-13
1.75977e-13
1.68836e-13
1.62202e-13
1.56047e-13
1.50426e-13
1.45168e-13
1.40389e-13
1.36008e-13
1.32001e-13
1.28382e-13
1.25128e-13
1.22229e-13
1.19674e-13
1.17436e-13
1.15539e-13
1.13951e-13
1.12669e-13
1.11678e-13
1.10965e-13
1.10519e-13
1.10326e-13
1.1037e-13
1.10637e-13
1.11114e-13
1.11789e-13
1.12624e-13
1.13616e-13
1.14739e-13
1.15985e-13
1.17313e-13
1.1871e-13
1.20167e-13
1.21654e-13
1.23113e-13
1.24542e-13
1.25919e-13
1.27229e-13
1.28428e-13
1.29493e-13
1.30402e-13
1.31126e-13
1.31672e-13
1.32039e-13
1.32235e-13
)
;

boundaryField
{
    wall
    {
        type            zeroGradient;
    }
    fuel
    {
        type            fixedValue;
        value           nonuniform 0();
    }
    outlet
    {
        type            inletOutlet;
        inletValue      nonuniform 0();
        value           nonuniform 0();
    }
    procBoundary2to1
    {
        type            processor;
        value           uniform 2.43318e-13;
    }
    procBoundary2to3
    {
        type            processor;
        value           uniform 1.32275e-13;
    }
}


// ************************************************************************* //
