/*--------------------------------*- C++ -*----------------------------------*\
| =========                 |                                                 |
| \\      /  F ield         | OpenFOAM: The Open Source CFD Toolbox           |
|  \\    /   O peration     | Version:  dev                                   |
|   \\  /    A nd           | Web:      www.OpenFOAM.org                      |
|    \\/     M anipulation  |                                                 |
\*---------------------------------------------------------------------------*/
FoamFile
{
    version     2.0;
    format      ascii;
    class       volScalarField;
    location    "0.13";
    object      HCCO;
}
// * * * * * * * * * * * * * * * * * * * * * * * * * * * * * * * * * * * * * //

dimensions      [0 0 0 0 0 0 0];

internalField   nonuniform List<scalar> 
50
(
4.22639e-14
3.93966e-14
3.68297e-14
3.45302e-14
3.24689e-14
3.06458e-14
2.89886e-14
2.75017e-14
2.61679e-14
2.49715e-14
2.39145e-14
2.29573e-14
2.2115e-14
2.13679e-14
2.07075e-14
2.01327e-14
1.96368e-14
1.92159e-14
1.88667e-14
1.85844e-14
1.83709e-14
1.82215e-14
1.81357e-14
1.81115e-14
1.81477e-14
1.82435e-14
1.83979e-14
1.86101e-14
1.88793e-14
1.92072e-14
1.95948e-14
2.00322e-14
2.0526e-14
2.10731e-14
2.16785e-14
2.23327e-14
2.30388e-14
2.38043e-14
2.46246e-14
2.54809e-14
2.63844e-14
2.73349e-14
2.834e-14
2.93858e-14
3.04707e-14
3.15939e-14
3.27358e-14
3.39147e-14
3.51323e-14
3.63936e-14
)
;

boundaryField
{
    wall
    {
        type            zeroGradient;
    }
    fuel
    {
        type            fixedValue;
        value           nonuniform 0();
    }
    outlet
    {
        type            inletOutlet;
        inletValue      nonuniform 0();
        value           nonuniform 0();
    }
    procBoundary2to1
    {
        type            processor;
        value           uniform 4.55e-14;
    }
    procBoundary2to3
    {
        type            processor;
        value           uniform 3.77001e-14;
    }
}


// ************************************************************************* //
