/*--------------------------------*- C++ -*----------------------------------*\
| =========                 |                                                 |
| \\      /  F ield         | OpenFOAM: The Open Source CFD Toolbox           |
|  \\    /   O peration     | Version:  dev                                   |
|   \\  /    A nd           | Web:      www.OpenFOAM.org                      |
|    \\/     M anipulation  |                                                 |
\*---------------------------------------------------------------------------*/
FoamFile
{
    version     2.0;
    format      ascii;
    class       volScalarField;
    location    "0.13";
    object      HCCO;
}
// * * * * * * * * * * * * * * * * * * * * * * * * * * * * * * * * * * * * * //

dimensions      [0 0 0 0 0 0 0];

internalField   nonuniform List<scalar> 
250
(
4.96081e-08
9.65585e-05
9.15378e-05
9.07796e-05
9.065e-05
9.06344e-05
9.061e-05
9.05658e-05
9.06354e-05
4.46888e-08
4.86969e-05
4.58536e-05
4.54891e-05
4.54071e-05
4.54194e-05
4.5402e-05
4.53964e-05
4.54171e-05
2.89614e-08
2.41461e-05
2.2145e-05
2.19759e-05
2.19334e-05
2.19408e-05
2.19301e-05
2.19304e-05
2.19388e-05
1.92985e-08
1.32554e-05
1.12777e-05
1.1199e-05
1.11794e-05
1.1185e-05
1.11748e-05
1.11791e-05
1.11839e-05
1.49656e-08
8.45726e-06
6.31781e-06
6.28481e-06
6.28689e-06
6.29201e-06
6.26548e-06
6.2885e-06
6.29192e-06
1.54304e-08
6.19522e-06
3.97986e-06
3.94321e-06
3.91735e-06
3.91744e-06
3.93605e-06
3.91423e-06
3.91664e-06
4.25235e-08
4.96244e-06
2.82112e-06
2.80008e-06
2.78383e-06
2.78372e-06
2.78663e-06
2.78148e-06
2.78329e-06
3.72117e-07
4.15266e-06
2.17587e-06
2.20333e-06
2.1874e-06
2.18644e-06
2.18432e-06
2.18474e-06
2.18612e-06
3.10289e-06
3.52734e-06
1.83027e-06
1.84708e-06
1.84451e-06
1.84674e-06
1.84595e-06
1.84534e-06
1.84676e-06
1.09861e-05
2.99814e-06
1.60821e-06
1.62299e-06
1.64071e-06
1.64269e-06
1.64047e-06
1.64142e-06
1.6427e-06
1.85801e-05
2.53537e-06
1.44807e-06
1.49083e-06
1.50299e-06
1.50338e-06
1.49872e-06
1.50177e-06
1.50325e-06
1.5021e-06
1.95293e-05
2.1353e-06
1.32889e-06
1.38302e-06
1.3924e-06
1.39272e-06
1.38548e-06
1.39095e-06
1.3925e-06
1.39164e-06
1.67397e-05
1.79384e-06
1.24516e-06
1.29605e-06
1.30416e-06
1.30456e-06
1.30604e-06
1.3024e-06
1.3041e-06
1.30346e-06
1.31707e-05
1.5218e-06
1.16934e-06
1.22162e-06
1.2288e-06
1.22926e-06
1.23053e-06
1.22658e-06
1.22857e-06
1.22812e-06
1.00024e-05
1.30471e-06
1.09946e-06
1.15491e-06
1.16138e-06
1.16187e-06
1.16304e-06
1.15853e-06
1.16098e-06
1.16067e-06
7.49203e-06
1.12903e-06
1.03588e-06
1.09326e-06
1.09921e-06
1.0997e-06
1.10069e-06
1.09549e-06
1.09863e-06
1.09845e-06
5.58493e-06
9.8282e-07
9.84631e-07
1.0351e-06
1.0407e-06
1.04117e-06
1.04194e-06
1.03577e-06
1.03996e-06
1.03988e-06
4.15836e-06
8.78083e-07
9.34914e-07
9.79282e-07
9.84819e-07
9.85253e-07
9.85823e-07
9.78194e-07
9.83959e-07
9.83943e-07
3.09701e-06
7.84481e-07
8.84815e-07
9.24796e-07
9.30806e-07
9.31203e-07
9.3166e-07
9.2892e-07
9.29888e-07
9.29895e-07
2.31031e-06
7.09862e-07
8.37278e-07
8.77482e-07
8.78035e-07
8.78405e-07
8.78739e-07
8.75085e-07
8.77091e-07
8.7711e-07
1.7302e-06
6.49844e-07
7.91445e-07
8.28977e-07
8.25864e-07
8.26288e-07
8.26513e-07
8.21645e-07
8.24995e-07
8.25004e-07
1.30568e-06
6.00605e-07
7.466e-07
7.77489e-07
7.73604e-07
7.74247e-07
7.74415e-07
7.74269e-07
7.72995e-07
7.72956e-07
9.97884e-07
5.58839e-07
7.02228e-07
7.31661e-07
7.2682e-07
7.2783e-07
7.27937e-07
7.27452e-07
7.26612e-07
7.26527e-07
7.7681e-07
5.26317e-07
6.57615e-07
6.83889e-07
6.79996e-07
6.7769e-07
6.77693e-07
6.76828e-07
6.76311e-07
6.76099e-07
6.18936e-07
4.95358e-07
6.12024e-07
6.37847e-07
6.33029e-07
6.30721e-07
6.30638e-07
6.29579e-07
6.29312e-07
6.29037e-07
5.05994e-07
4.67866e-07
5.70457e-07
5.90494e-07
5.85765e-07
5.83451e-07
5.83289e-07
5.82076e-07
5.82003e-07
5.81659e-07
)
;

boundaryField
{
    fuel
    {
        type            fixedValue;
        value           uniform 0;
    }
    wall
    {
        type            zeroGradient;
    }
    outlet
    {
        type            zeroGradient;
    }
    frontAndBack
    {
        type            empty;
    }
    procBoundary2to0
    {
        type            processor;
        value           nonuniform List<scalar> 
12
(
6.26431e-07
4.24635e-07
4.38543e-07
5.28019e-07
5.43568e-07
5.38125e-07
5.35797e-07
5.35571e-07
5.34225e-07
5.34306e-07
5.78946e-07
5.33893e-07
)
;
    }
    procBoundary2to3
    {
        type            processor;
        value           nonuniform List<scalar> 
25
(
9.05972e-05
4.54002e-05
2.19281e-05
1.11761e-05
6.28627e-06
3.91193e-06
2.77985e-06
2.18353e-06
1.84491e-06
1.64129e-06
1.64129e-06
1.50297e-06
1.39205e-06
1.30349e-06
1.2278e-06
1.16007e-06
1.09758e-06
1.03877e-06
9.82607e-07
9.28333e-07
8.7533e-07
8.23021e-07
7.70795e-07
7.24214e-07
6.7361e-07
)
;
    }
}


// ************************************************************************* //
