/*--------------------------------*- C++ -*----------------------------------*\
| =========                 |                                                 |
| \\      /  F ield         | OpenFOAM: The Open Source CFD Toolbox           |
|  \\    /   O peration     | Version:  dev                                   |
|   \\  /    A nd           | Web:      www.OpenFOAM.org                      |
|    \\/     M anipulation  |                                                 |
\*---------------------------------------------------------------------------*/
FoamFile
{
    version     2.0;
    format      ascii;
    class       volScalarField;
    location    "0.13";
    object      O;
}
// * * * * * * * * * * * * * * * * * * * * * * * * * * * * * * * * * * * * * //

dimensions      [0 0 0 0 0 0 0];

internalField   nonuniform List<scalar> 
250
(
1.07836e-08
2.68777e-05
2.66233e-05
2.65945e-05
2.65975e-05
2.65931e-05
2.66072e-05
2.65975e-05
2.66209e-05
4.36352e-09
1.26019e-05
1.23752e-05
1.23819e-05
1.23858e-05
1.23825e-05
1.23875e-05
1.23842e-05
1.239e-05
2.25861e-09
4.9866e-06
4.86436e-06
4.89494e-06
4.89951e-06
4.89694e-06
4.90003e-06
4.89793e-06
4.89944e-06
1.25382e-09
1.99716e-06
1.87815e-06
1.90831e-06
1.91186e-06
1.91051e-06
1.91233e-06
1.91107e-06
1.9101e-06
9.73572e-10
8.7732e-07
7.84295e-07
8.11036e-07
8.14912e-07
8.14723e-07
8.1576e-07
8.15175e-07
8.09006e-07
1.52809e-09
4.31535e-07
3.75722e-07
3.9516e-07
3.95138e-07
3.94329e-07
3.94827e-07
3.94282e-07
4.00197e-07
4.42111e-09
2.36002e-07
2.18157e-07
2.37175e-07
2.37975e-07
2.37657e-07
2.37938e-07
2.37648e-07
2.39744e-07
1.38605e-08
1.34274e-07
1.51149e-07
1.70017e-07
1.7096e-07
1.70825e-07
1.70964e-07
1.70828e-07
1.71534e-07
3.22832e-08
8.5919e-08
1.18032e-07
1.37327e-07
1.39606e-07
1.39724e-07
1.39907e-07
1.3967e-07
1.39995e-07
4.70996e-08
5.96857e-08
1.00375e-07
1.19773e-07
1.22112e-07
1.22266e-07
1.22389e-07
1.22222e-07
1.22347e-07
4.50515e-08
4.49629e-08
9.16263e-08
1.11084e-07
1.13482e-07
1.13656e-07
1.1376e-07
1.13612e-07
1.13655e-07
1.13657e-07
3.6115e-08
3.51571e-08
8.6164e-08
1.05259e-07
1.07597e-07
1.07767e-07
1.07867e-07
1.07714e-07
1.07651e-07
1.08057e-07
3.07789e-08
2.94781e-08
8.2358e-08
1.01144e-07
1.03533e-07
1.03703e-07
1.03809e-07
1.03627e-07
1.03923e-07
1.03718e-07
2.81352e-08
2.69173e-08
7.98042e-08
9.79461e-08
1.00338e-07
1.00499e-07
1.00614e-07
1.00379e-07
1.00646e-07
1.00679e-07
2.56482e-08
2.59003e-08
7.78508e-08
9.51606e-08
9.75109e-08
9.76509e-08
9.77803e-08
9.74682e-08
9.77587e-08
9.76963e-08
2.24315e-08
2.5978e-08
7.61022e-08
9.2507e-08
9.47732e-08
9.4881e-08
9.50266e-08
9.46162e-08
9.49666e-08
9.48393e-08
1.87974e-08
2.68387e-08
7.44707e-08
8.98154e-08
9.1958e-08
9.20217e-08
9.21858e-08
9.16501e-08
9.20921e-08
9.1916e-08
1.53735e-08
2.82284e-08
7.27949e-08
8.69713e-08
8.89541e-08
8.89617e-08
8.91471e-08
8.84447e-08
8.90201e-08
8.87997e-08
1.26703e-08
3.02746e-08
7.09442e-08
8.38881e-08
8.56789e-08
8.56189e-08
8.58304e-08
8.53377e-08
8.56686e-08
8.54011e-08
1.09798e-08
3.21439e-08
6.881e-08
8.04936e-08
8.20651e-08
8.19269e-08
8.21643e-08
8.15188e-08
8.19689e-08
8.16516e-08
1.04057e-08
3.38935e-08
6.63086e-08
7.67231e-08
7.80533e-08
7.78279e-08
7.8092e-08
7.72651e-08
7.78642e-08
7.74938e-08
1.08671e-08
3.53784e-08
6.33732e-08
7.251e-08
7.35832e-08
7.3264e-08
7.35585e-08
7.30582e-08
7.32979e-08
7.28719e-08
1.2119e-08
3.63679e-08
5.99474e-08
6.84069e-08
6.91766e-08
6.87754e-08
6.90922e-08
6.84861e-08
6.8806e-08
6.83284e-08
1.38059e-08
3.67711e-08
5.64276e-08
6.38648e-08
6.41126e-08
6.35703e-08
6.39313e-08
6.31827e-08
6.36071e-08
6.30431e-08
1.55319e-08
3.65035e-08
5.22337e-08
5.84942e-08
5.89203e-08
5.83014e-08
5.86797e-08
5.78499e-08
5.83385e-08
5.77267e-08
1.69381e-08
3.55008e-08
4.78607e-08
5.32836e-08
5.34004e-08
5.27177e-08
5.31085e-08
5.22148e-08
5.27574e-08
5.21055e-08
)
;

boundaryField
{
    fuel
    {
        type            fixedValue;
        value           uniform 0;
    }
    wall
    {
        type            zeroGradient;
    }
    outlet
    {
        type            zeroGradient;
    }
    frontAndBack
    {
        type            empty;
    }
    procBoundary2to0
    {
        type            processor;
        value           nonuniform List<scalar> 
12
(
5.79075e-08
1.77434e-08
3.35815e-08
4.31496e-08
4.77728e-08
4.76204e-08
4.68941e-08
4.72913e-08
4.6355e-08
4.69382e-08
5.23047e-08
4.62581e-08
)
;
    }
    procBoundary2to3
    {
        type            processor;
        value           nonuniform List<scalar> 
25
(
2.66512e-05
1.23947e-05
4.90027e-06
1.91046e-06
8.0937e-07
3.9984e-07
2.39325e-07
1.71138e-07
1.39061e-07
1.22783e-07
1.22783e-07
1.13719e-07
1.07642e-07
1.03861e-07
1.00542e-07
9.76255e-08
9.48111e-08
9.19158e-08
8.88212e-08
8.54425e-08
8.17134e-08
7.75771e-08
7.29782e-08
6.8456e-08
6.32025e-08
)
;
    }
}


// ************************************************************************* //
