/*--------------------------------*- C++ -*----------------------------------*\
| =========                 |                                                 |
| \\      /  F ield         | OpenFOAM: The Open Source CFD Toolbox           |
|  \\    /   O peration     | Version:  dev                                   |
|   \\  /    A nd           | Web:      www.OpenFOAM.org                      |
|    \\/     M anipulation  |                                                 |
\*---------------------------------------------------------------------------*/
FoamFile
{
    version     2.0;
    format      ascii;
    class       volScalarField;
    location    "0.13";
    object      T;
}
// * * * * * * * * * * * * * * * * * * * * * * * * * * * * * * * * * * * * * //

dimensions      [0 0 0 1 0 0 0];

internalField   nonuniform List<scalar> 
250
(
426.161
1726.33
1744.3
1746.68
1746.97
1747.04
1747.09
1747.04
1747.04
531.848
1938.45
1961.12
1964.08
1964.48
1964.56
1964.58
1964.56
1964.56
621.85
1988.38
2018.79
2022.76
2023.3
2023.41
2023.42
2023.4
2023.42
701.566
1997.8
2037.37
2042.59
2043.31
2043.45
2043.45
2043.44
2043.46
776.158
1994.55
2043.47
2050.04
2050.96
2051.13
2051.15
2051.12
2051.14
850.274
1987.01
2044.79
2052.77
2053.92
2054.12
2054.1
2054.12
2054.14
929.189
1978.28
2044.04
2053.42
2054.78
2055.01
2055
2055
2055.03
1020.44
1969.71
2042.28
2053.11
2054.68
2054.94
2054.93
2054.93
2054.96
1131.99
1961.95
2040.19
2052.25
2054.09
2054.39
2054.38
2054.38
2054.41
1249.41
1955.25
2037.87
2051.08
2053.24
2053.57
2053.55
2053.56
2053.6
1343.71
1949.63
2035.37
2049.87
2052.22
2052.57
2052.53
2052.55
2052.6
2052.57
1407.64
1945.03
2032.88
2048.43
2050.98
2051.36
2051.3
2051.32
2051.38
2051.36
1452.7
1941.36
2030.68
2046.88
2049.6
2050.01
2050.06
2049.95
2050.03
2050
1488.43
1938.68
2028.43
2045.21
2048.07
2048.51
2048.56
2048.43
2048.52
2048.5
1520.08
1936.89
2026.14
2043.39
2046.37
2046.83
2046.89
2046.71
2046.84
2046.82
1550.15
1935.9
2023.86
2041.4
2044.46
2044.94
2044.99
2044.77
2044.94
2044.92
1579.65
1935.64
2021.78
2039.18
2042.29
2042.79
2042.84
2042.56
2042.78
2042.75
1608.85
1935.99
2019.57
2036.69
2039.82
2040.33
2040.37
2040.01
2040.3
2040.28
1637.65
1936.86
2017.13
2033.86
2036.97
2037.49
2037.53
2037.33
2037.45
2037.42
1665.79
1938.06
2014.5
2030.9
2033.69
2034.2
2034.23
2033.97
2034.15
2034.11
1692.96
1939.41
2011.57
2027.39
2029.87
2030.38
2030.41
2030.06
2030.31
2030.26
1718.84
1940.7
2008.24
2023.14
2025.42
2025.93
2025.95
2025.89
2025.84
2025.78
1743.1
1941.72
2004.39
2018.63
2020.67
2021.17
2021.19
2021.08
2021.06
2020.99
1765.48
1942.23
1999.87
2013.25
2015.17
2015.35
2015.36
2015.2
2015.19
2015.1
1785.71
1942.09
1994.5
2007.2
2008.83
2008.95
2008.95
2008.74
2008.76
2008.65
1803.56
1941.11
1988.64
2000.1
2001.5
2001.55
2001.54
2001.28
2001.32
2001.19
)
;

boundaryField
{
    fuel
    {
        type            fixedValue;
        value           uniform 353;
    }
    wall
    {
        type            fixedValue;
        value           nonuniform 0();
    }
    outlet
    {
        type            inletOutlet;
        inletValue      uniform 353;
        value           nonuniform List<scalar> 
26
(
426.013
531.437
621.176
700.626
774.928
848.655
926.911
1016.89
1126.37
1242.38
1337.24
1402.36
1448.42
1484.94
1517.22
1547.81
1577.75
1607.33
1636.46
1664.88
1692.29
1718.36
1742.8
1765.31
1785.64
1803.57
)
;
    }
    frontAndBack
    {
        type            empty;
    }
    procBoundary2to0
    {
        type            processor;
        value           nonuniform List<scalar> 
12
(
2008.32
1818.81
1938.93
1981.73
1991.99
1993.03
1993.01
1992.98
1992.67
1992.73
2000.8
1992.58
)
;
    }
    procBoundary2to3
    {
        type            processor;
        value           nonuniform List<scalar> 
25
(
1747.03
1964.55
2023.39
2043.43
2051.11
2054.1
2054.99
2054.93
2054.38
2053.57
2053.57
2052.58
2051.36
2050
2048.49
2046.79
2044.88
2042.7
2040.2
2037.32
2033.99
2030.11
2025.59
2020.76
2014.82
)
;
    }
}


// ************************************************************************* //
