/*--------------------------------*- C++ -*----------------------------------*\
| =========                 |                                                 |
| \\      /  F ield         | OpenFOAM: The Open Source CFD Toolbox           |
|  \\    /   O peration     | Version:  dev                                   |
|   \\  /    A nd           | Web:      www.OpenFOAM.org                      |
|    \\/     M anipulation  |                                                 |
\*---------------------------------------------------------------------------*/
FoamFile
{
    version     2.0;
    format      ascii;
    class       volScalarField;
    location    "0.022";
    object      moment.4.populationBalance;
}
// * * * * * * * * * * * * * * * * * * * * * * * * * * * * * * * * * * * * * //

dimensions      [0 9 0 0 0 0 0];

internalField   nonuniform List<scalar> 
251
(
7.45078e+14
7.24838e+14
7.05131e+14
6.85944e+14
6.67262e+14
6.49073e+14
6.31364e+14
6.14122e+14
5.97336e+14
5.80992e+14
5.65081e+14
5.4959e+14
5.34509e+14
5.19827e+14
5.05534e+14
4.91619e+14
4.78073e+14
4.64886e+14
4.52049e+14
4.39553e+14
4.27388e+14
4.15547e+14
4.04021e+14
3.92802e+14
3.81881e+14
3.71251e+14
3.60905e+14
3.50835e+14
3.41034e+14
3.31494e+14
3.2221e+14
3.13174e+14
3.04381e+14
2.95822e+14
2.87494e+14
2.79389e+14
2.71502e+14
2.63827e+14
2.56359e+14
2.49091e+14
2.4202e+14
2.3514e+14
2.28445e+14
2.21932e+14
2.15594e+14
2.09429e+14
2.03431e+14
1.97595e+14
1.91918e+14
1.86396e+14
1.81024e+14
1.75798e+14
1.70715e+14
1.65771e+14
1.60962e+14
1.56285e+14
1.51737e+14
1.47313e+14
1.43011e+14
1.38827e+14
1.34758e+14
1.30802e+14
1.26955e+14
1.23215e+14
1.19578e+14
1.16043e+14
1.12605e+14
1.09263e+14
1.06015e+14
1.02856e+14
9.97866e+13
9.68025e+13
9.39019e+13
9.10824e+13
8.83417e+13
8.56776e+13
8.30875e+13
8.05691e+13
7.812e+13
7.57374e+13
7.34185e+13
7.11605e+13
6.896e+13
6.68136e+13
6.47172e+13
6.26669e+13
6.06579e+13
5.86853e+13
5.6744e+13
5.48283e+13
5.29326e+13
5.1051e+13
4.9178e+13
4.7308e+13
4.54361e+13
4.35579e+13
4.167e+13
3.97701e+13
3.78571e+13
3.59313e+13
3.39947e+13
3.20506e+13
3.01041e+13
2.81617e+13
2.6231e+13
2.43209e+13
2.24411e+13
2.06016e+13
1.88127e+13
1.70845e+13
1.54264e+13
1.3847e+13
1.23538e+13
1.09529e+13
9.64892e+12
8.44479e+12
7.34187e+12
6.33994e+12
5.43727e+12
4.63078e+12
3.91627e+12
3.28854e+12
2.74171e+12
2.26936e+12
1.86479e+12
1.52118e+12
1.23181e+12
9.90161e+11
7.90056e+11
6.25737e+11
4.91929e+11
3.8387e+11
2.97328e+11
2.28589e+11
1.74439e+11
1.3213e+11
9.93412e+10
7.41369e+10
5.49186e+10
4.03822e+10
2.94748e+10
2.13555e+10
1.53593e+10
1.0966e+10
7.77218e+09
5.46849e+09
3.81971e+09
2.64874e+09
1.82351e+09
1.24635e+09
8.4577e+08
5.69837e+08
3.81195e+08
2.53194e+08
1.66986e+08
1.09354e+08
7.11105e+07
4.59182e+07
2.94443e+07
1.87497e+07
1.1857e+07
7.44648e+06
4.64451e+06
2.87707e+06
1.77008e+06
1.08164e+06
656489
395767
236991
140966
83291.1
48887.3
28504.9
16511.2
9501.3
5431.84
3085.18
1740.99
976.114
543.762
300.975
165.529
90.4597
49.1225
26.5071
14.2138
7.57417
4.01095
2.11085
1.10401
0.573864
0.296464
0.152221
0.0776824
0.039403
0.0198657
0.00995529
0.00495897
0.00245542
0.00120855
0.000591315
0.000287606
0.000139062
6.68442e-05
3.19425e-05
1.51752e-05
7.16753e-06
3.36573e-06
1.57134e-06
7.29364e-07
3.36583e-07
1.54413e-07
7.04104e-08
3.18968e-08
1.4339e-08
6.37907e-09
2.78987e-09
1.17885e-09
4.58243e-10
1.38399e-10
0
0
0
0
0
0
0
0
0
0
0
0
0
0
0
0
0
0
0
0
0
0
0
0
0
0
0
0
0
0
0
)
;

boundaryField
{
    wall
    {
        type            zeroGradient;
    }
    fuel
    {
        type            fixedValue;
        value           uniform 7.65865e+14;
    }
    outlet
    {
        type            inletOutlet;
        inletValue      nonuniform 0();
        value           nonuniform 0();
    }
    procBoundary0to1
    {
        type            processor;
        value           uniform 0;
    }
}


// ************************************************************************* //
