/*--------------------------------*- C++ -*----------------------------------*\
| =========                 |                                                 |
| \\      /  F ield         | OpenFOAM: The Open Source CFD Toolbox           |
|  \\    /   O peration     | Version:  dev                                   |
|   \\  /    A nd           | Web:      www.OpenFOAM.org                      |
|    \\/     M anipulation  |                                                 |
\*---------------------------------------------------------------------------*/
FoamFile
{
    version     2.0;
    format      ascii;
    class       volScalarField;
    location    "0.022";
    object      moment.3.populationBalance;
}
// * * * * * * * * * * * * * * * * * * * * * * * * * * * * * * * * * * * * * //

dimensions      [0 6 0 0 0 0 0];

internalField   nonuniform List<scalar> 
251
(
8.66522e+12
8.43768e+12
8.21622e+12
8.00067e+12
7.79088e+12
7.58669e+12
7.38795e+12
7.19451e+12
7.00623e+12
6.82298e+12
6.64461e+12
6.47099e+12
6.302e+12
6.13751e+12
5.9774e+12
5.82155e+12
5.66984e+12
5.52217e+12
5.37842e+12
5.2385e+12
5.10228e+12
4.96968e+12
4.8406e+12
4.71494e+12
4.59261e+12
4.47352e+12
4.35758e+12
4.2447e+12
4.13481e+12
4.02782e+12
3.92365e+12
3.82223e+12
3.72349e+12
3.62734e+12
3.53373e+12
3.44257e+12
3.35381e+12
3.26739e+12
3.18323e+12
3.10128e+12
3.02147e+12
2.94375e+12
2.86807e+12
2.79437e+12
2.72259e+12
2.65268e+12
2.5846e+12
2.51829e+12
2.45371e+12
2.3908e+12
2.32954e+12
2.26986e+12
2.21173e+12
2.15511e+12
2.09995e+12
2.04622e+12
1.99388e+12
1.9429e+12
1.89322e+12
1.84483e+12
1.79769e+12
1.75176e+12
1.70701e+12
1.66341e+12
1.62092e+12
1.57953e+12
1.5392e+12
1.4999e+12
1.4616e+12
1.42428e+12
1.38791e+12
1.35247e+12
1.31792e+12
1.28425e+12
1.25143e+12
1.21942e+12
1.18821e+12
1.15776e+12
1.12804e+12
1.09903e+12
1.07067e+12
1.04294e+12
1.01578e+12
9.89153e+11
9.6299e+11
9.3723e+11
9.11802e+11
8.86628e+11
8.61625e+11
8.36703e+11
8.11769e+11
7.86729e+11
7.61488e+11
7.35958e+11
7.10056e+11
6.83713e+11
6.56873e+11
6.29501e+11
6.01584e+11
5.73132e+11
5.44184e+11
5.14807e+11
4.85095e+11
4.55166e+11
4.25165e+11
3.95252e+11
3.65606e+11
3.36411e+11
3.07857e+11
2.80129e+11
2.53403e+11
2.27841e+11
2.03585e+11
1.80754e+11
1.5944e+11
1.39706e+11
1.21589e+11
1.05097e+11
9.02116e+10
7.68905e+10
6.50716e+10
5.46751e+10
4.56081e+10
3.77685e+10
3.10479e+10
2.53358e+10
2.05223e+10
1.65004e+10
1.31683e+10
1.0431e+10
8.20132e+09
6.40021e+09
4.95745e+09
3.81132e+09
2.90835e+09
2.20279e+09
1.656e+09
1.2357e+09
9.15235e+08
6.72865e+08
4.91026e+08
3.55688e+08
2.55758e+08
1.82556e+08
1.29352e+08
9.09856e+07
6.35337e+07
4.40429e+07
3.03109e+07
2.07102e+07
1.40488e+07
9.46191e+06
6.32719e+06
4.20095e+06
2.76949e+06
1.81292e+06
1.17841e+06
760609
487516
310305
196143
123127
76761.1
47527.8
29227.1
17851.1
10829.3
6525.26
3905.48
2321.88
1371.21
804.417
468.793
271.403
156.097
89.193
50.6332
28.5574
16.0027
8.90979
4.92895
2.70934
1.47981
0.803147
0.433149
0.232138
0.123632
0.0654335
0.0344166
0.0179904
0.00934616
0.0048256
0.00247632
0.00126302
0.00064028
0.000322624
0.000161584
8.0443e-05
3.98082e-05
1.95823e-05
9.57562e-06
4.65473e-06
2.24934e-06
1.08058e-06
5.16074e-07
2.45034e-07
1.15666e-07
5.42831e-08
2.53281e-08
1.17496e-08
5.41896e-09
2.48458e-09
1.13227e-09
5.12633e-10
2.30316e-10
1.02401e-10
4.47581e-11
1.8901e-11
7.34272e-12
2.21627e-12
0
0
0
0
0
0
0
0
0
0
0
0
0
0
0
0
0
0
0
0
0
0
0
0
0
0
0
0
0
0
0
)
;

boundaryField
{
    wall
    {
        type            zeroGradient;
    }
    fuel
    {
        type            fixedValue;
        value           uniform 8.899e+12;
    }
    outlet
    {
        type            inletOutlet;
        inletValue      nonuniform 0();
        value           nonuniform 0();
    }
    procBoundary0to1
    {
        type            processor;
        value           uniform 0;
    }
}


// ************************************************************************* //
