/*--------------------------------*- C++ -*----------------------------------*\
| =========                 |                                                 |
| \\      /  F ield         | OpenFOAM: The Open Source CFD Toolbox           |
|  \\    /   O peration     | Version:  dev                                   |
|   \\  /    A nd           | Web:      www.OpenFOAM.org                      |
|    \\/     M anipulation  |                                                 |
\*---------------------------------------------------------------------------*/
FoamFile
{
    version     2.0;
    format      ascii;
    class       volScalarField;
    location    "0.19";
    object      A1C2H3*;
}
// * * * * * * * * * * * * * * * * * * * * * * * * * * * * * * * * * * * * * //

dimensions      [0 0 0 0 0 0 0];

internalField   nonuniform List<scalar> 
50
(
1.75402e-10
1.03344e-10
5.68192e-11
3.07746e-11
1.65735e-11
8.91207e-12
4.79311e-12
2.57102e-12
1.37708e-12
7.37248e-13
3.94013e-13
2.11798e-13
1.13548e-13
6.07577e-14
3.24788e-14
1.73502e-14
9.2556e-15
4.95822e-15
2.65896e-15
1.42596e-15
7.68651e-16
4.14817e-16
2.2665e-16
1.25601e-16
7.1222e-17
4.15269e-17
2.54118e-17
1.64023e-17
1.1242e-17
8.21203e-18
6.31262e-18
5.05796e-18
4.18316e-18
3.52518e-18
3.00797e-18
2.58662e-18
2.23439e-18
1.93505e-18
1.67811e-18
1.45633e-18
1.26434e-18
1.09794e-18
9.5367e-19
8.28607e-19
7.20229e-19
6.26336e-19
5.44996e-19
4.74506e-19
4.13358e-19
3.60211e-19
)
;

boundaryField
{
    wall
    {
        type            zeroGradient;
    }
    fuel
    {
        type            fixedValue;
        value           uniform 0;
    }
    outlet
    {
        type            inletOutlet;
        inletValue      nonuniform 0();
        value           nonuniform 0();
    }
    procBoundary0to1
    {
        type            processor;
        value           uniform 3.1427e-19;
    }
}


// ************************************************************************* //
