/*--------------------------------*- C++ -*----------------------------------*\
| =========                 |                                                 |
| \\      /  F ield         | OpenFOAM: The Open Source CFD Toolbox           |
|  \\    /   O peration     | Version:  dev                                   |
|   \\  /    A nd           | Web:      www.OpenFOAM.org                      |
|    \\/     M anipulation  |                                                 |
\*---------------------------------------------------------------------------*/
FoamFile
{
    version     2.0;
    format      ascii;
    class       volScalarField;
    location    "0.19";
    object      A1C2H;
}
// * * * * * * * * * * * * * * * * * * * * * * * * * * * * * * * * * * * * * //

dimensions      [0 0 0 0 0 0 0];

internalField   nonuniform List<scalar> 
50
(
4.36462e-07
3.22904e-07
1.97857e-07
1.14493e-07
6.45596e-08
3.59298e-08
1.98614e-08
1.08999e-08
5.95563e-09
3.24754e-09
1.7665e-09
9.64853e-10
5.24391e-10
2.84762e-10
1.54511e-10
8.37621e-11
4.53448e-11
2.46476e-11
1.34069e-11
7.28988e-12
3.98204e-12
2.1764e-12
1.2031e-12
6.73553e-13
3.85006e-13
2.25587e-13
1.38176e-13
8.89e-14
6.05283e-14
4.38536e-14
3.34442e-14
2.66306e-14
2.19388e-14
1.84571e-14
1.57531e-14
1.35706e-14
1.17576e-14
1.02222e-14
8.90591e-15
7.76923e-15
6.78354e-15
5.92687e-15
5.18154e-15
4.5328e-15
3.96804e-15
3.47632e-15
3.04806e-15
2.67483e-15
2.34911e-15
2.06421e-15
)
;

boundaryField
{
    wall
    {
        type            zeroGradient;
    }
    fuel
    {
        type            fixedValue;
        value           uniform 0;
    }
    outlet
    {
        type            inletOutlet;
        inletValue      nonuniform 0();
        value           nonuniform 0();
    }
    procBoundary0to1
    {
        type            processor;
        value           uniform 1.81634e-15;
    }
}


// ************************************************************************* //
