/*--------------------------------*- C++ -*----------------------------------*\
| =========                 |                                                 |
| \\      /  F ield         | OpenFOAM: The Open Source CFD Toolbox           |
|  \\    /   O peration     | Version:  dev                                   |
|   \\  /    A nd           | Web:      www.OpenFOAM.org                      |
|    \\/     M anipulation  |                                                 |
\*---------------------------------------------------------------------------*/
FoamFile
{
    version     2.0;
    format      ascii;
    class       volScalarField;
    location    "0.19";
    object      A2C2HA*;
}
// * * * * * * * * * * * * * * * * * * * * * * * * * * * * * * * * * * * * * //

dimensions      [0 0 0 0 0 0 0];

internalField   nonuniform List<scalar> 
250
(
1.76072e-12
1.76107e-12
1.76532e-12
1.77108e-12
1.77436e-12
1.80209e-12
1.97865e-12
2.67793e-12
6.16599e-12
8.33499e-12
1.59681e-12
1.59745e-12
1.601e-12
1.60614e-12
1.60986e-12
1.63492e-12
1.79136e-12
2.38342e-12
5.27653e-12
7.38607e-12
9.9205e-12
4.11451e-12
2.12486e-12
1.63974e-12
1.53153e-12
1.45578e-12
1.48138e-12
1.44528e-12
1.46203e-12
1.44282e-12
1.45061e-12
1.45148e-12
1.45416e-12
1.45897e-12
1.46294e-12
1.48552e-12
1.62339e-12
2.12054e-12
4.51098e-12
6.47358e-12
9.62461e-12
3.74786e-12
1.92064e-12
1.48798e-12
1.39292e-12
1.32545e-12
1.34764e-12
1.31543e-12
1.33097e-12
1.31362e-12
1.32078e-12
1.32178e-12
1.32369e-12
1.32821e-12
1.33226e-12
1.3525e-12
1.47327e-12
1.88662e-12
3.79357e-12
5.61036e-12
9.13326e-12
3.38971e-12
1.73456e-12
1.35289e-12
1.27e-12
1.21065e-12
1.22954e-12
1.20128e-12
1.21536e-12
1.19995e-12
1.20643e-12
1.20744e-12
1.20878e-12
1.21298e-12
1.21695e-12
1.23499e-12
1.34001e-12
1.68117e-12
3.16686e-12
4.81015e-12
8.47666e-12
3.04163e-12
1.5663e-12
1.23371e-12
1.16215e-12
1.11054e-12
1.12628e-12
1.10191e-12
1.11441e-12
1.10092e-12
1.10672e-12
1.10761e-12
1.10861e-12
1.11244e-12
1.11621e-12
1.13218e-12
1.22281e-12
1.50224e-12
2.68989e-12
4.08576e-12
7.69256e-12
2.7118e-12
1.41517e-12
1.12926e-12
1.06844e-12
1.02375e-12
1.03661e-12
1.0158e-12
1.02684e-12
1.01505e-12
1.02028e-12
1.02093e-12
1.02182e-12
1.02526e-12
1.02875e-12
1.04286e-12
1.12035e-12
1.34737e-12
2.27452e-12
3.44308e-12
6.82627e-12
2.39727e-12
1.27927e-12
1.03715e-12
9.82336e-13
9.47712e-13
9.58109e-13
9.40145e-13
9.50265e-13
9.39591e-13
9.4459e-13
9.44781e-13
9.45871e-13
9.48981e-13
9.52137e-13
9.64717e-13
1.03025e-12
1.21307e-12
1.9364e-12
2.88371e-12
5.88884e-12
2.10011e-12
1.155e-12
9.53473e-13
9.07538e-13
8.75974e-13
8.86677e-13
8.70433e-13
8.78631e-13
8.70075e-13
8.73279e-13
8.7488e-13
8.74235e-13
8.77331e-13
8.80398e-13
8.90817e-13
9.48392e-13
1.09413e-12
1.65164e-12
2.40297e-12
4.91457e-12
1.81784e-12
1.03714e-12
8.72548e-13
8.34792e-13
8.06258e-13
8.16664e-13
8.00776e-13
8.09408e-13
8.00645e-13
8.03994e-13
8.05504e-13
8.04822e-13
8.07984e-13
8.10755e-13
8.19902e-13
8.69373e-13
9.83848e-13
1.40845e-12
1.99174e-12
3.95774e-12
1.54914e-12
9.1986e-13
7.8818e-13
7.5803e-13
7.3081e-13
7.41976e-13
7.25211e-13
7.35033e-13
7.25363e-13
7.2908e-13
7.3068e-13
7.2983e-13
7.33232e-13
7.35745e-13
7.43658e-13
7.8694e-13
8.75211e-13
1.19498e-12
1.63849e-12
3.12572e-12
1.29246e-12
7.98601e-13
6.95644e-13
6.72501e-13
6.45583e-13
6.58069e-13
6.39794e-13
6.51208e-13
6.40277e-13
6.44477e-13
6.46235e-13
6.45161e-13
6.48839e-13
6.51133e-13
6.57863e-13
6.96237e-13
7.62755e-13
1.00116e-12
1.33172e-12
2.37456e-12
1.04849e-12
6.72054e-13
5.93764e-13
5.76894e-13
5.50261e-13
5.63952e-13
5.44423e-13
5.5721e-13
5.45231e-13
5.49812e-13
5.51694e-13
5.50413e-13
5.54246e-13
5.56327e-13
5.61928e-13
5.95894e-13
6.44558e-13
8.20721e-13
1.06241e-12
4.49e-13
4.5089e-13
4.49492e-13
4.53245e-13
4.55081e-13
4.59614e-13
4.89016e-13
5.23381e-13
6.52089e-13
8.25504e-13
)
;

boundaryField
{
    fuel
    {
        type            fixedValue;
        value           nonuniform 0();
    }
    wall
    {
        type            zeroGradient;
    }
    outlet
    {
        type            zeroGradient;
    }
    frontAndBack
    {
        type            empty;
    }
    procBoundary0to1
    {
        type            processor;
        value           nonuniform List<scalar> 
21
(
1.72972e-12
8.20381e-13
5.44263e-13
4.85847e-13
4.74308e-13
4.48854e-13
4.63004e-13
4.43282e-13
4.56625e-13
4.44329e-13
4.44329e-13
3.48983e-13
3.50736e-13
3.49355e-13
3.52756e-13
3.543e-13
3.57862e-13
3.82267e-13
4.05552e-13
4.97963e-13
6.19931e-13
)
;
    }
    procBoundary0to2
    {
        type            processor;
        value           nonuniform List<scalar> 
12
(
1.75186e-12
1.00041e-11
4.48046e-12
2.34782e-12
1.80895e-12
1.68663e-12
1.60249e-12
1.63162e-12
1.59175e-12
1.60942e-12
1.58843e-12
1.58843e-12
)
;
    }
    procBoundary0to3
    {
        type            processor;
        value           nonuniform List<scalar> 10(1.94432e-12 1.94436e-12 1.94876e-12 1.95578e-12 1.9584e-12 1.98901e-12 2.18741e-12 3.04323e-12 7.22693e-12 9.29501e-12);
    }
}


// ************************************************************************* //
