/*--------------------------------*- C++ -*----------------------------------*\
| =========                 |                                                 |
| \\      /  F ield         | OpenFOAM: The Open Source CFD Toolbox           |
|  \\    /   O peration     | Version:  dev                                   |
|   \\  /    A nd           | Web:      www.OpenFOAM.org                      |
|    \\/     M anipulation  |                                                 |
\*---------------------------------------------------------------------------*/
FoamFile
{
    version     2.0;
    format      ascii;
    class       volScalarField;
    location    "0.19";
    object      A2C2HA;
}
// * * * * * * * * * * * * * * * * * * * * * * * * * * * * * * * * * * * * * //

dimensions      [0 0 0 0 0 0 0];

internalField   nonuniform List<scalar> 
250
(
3.44174e-10
3.43951e-10
3.44737e-10
3.45137e-10
3.45483e-10
3.51125e-10
3.86483e-10
5.66197e-10
1.92452e-09
5.92295e-09
3.30973e-10
3.30768e-10
3.31503e-10
3.31759e-10
3.32145e-10
3.37465e-10
3.69639e-10
5.28815e-10
1.65926e-09
5.08531e-09
3.15351e-09
1.02799e-09
4.82314e-10
3.60142e-10
3.32661e-10
3.22936e-10
3.24519e-10
3.21895e-10
3.22384e-10
3.21333e-10
3.2192e-10
3.2173e-10
3.22399e-10
3.22524e-10
3.2292e-10
3.27943e-10
3.57145e-10
4.98272e-10
1.44139e-09
4.30595e-09
3.25702e-09
9.96184e-10
4.68564e-10
3.52573e-10
3.26448e-10
3.18427e-10
3.19136e-10
3.1759e-10
3.1748e-10
3.17048e-10
3.17412e-10
3.17225e-10
3.17839e-10
3.1782e-10
3.18194e-10
3.22943e-10
3.49344e-10
4.74699e-10
1.24853e-09
3.61263e-09
3.33479e-09
9.70194e-10
4.60447e-10
3.50276e-10
3.25244e-10
3.1915e-10
3.18858e-10
3.18605e-10
3.17698e-10
3.18046e-10
3.18109e-10
3.17911e-10
3.18491e-10
3.18293e-10
3.18617e-10
3.2311e-10
3.46847e-10
4.58705e-10
1.09107e-09
3.02018e-09
3.37979e-09
9.50392e-10
4.58816e-10
3.54141e-10
3.29921e-10
3.2602e-10
3.24579e-10
3.25872e-10
3.23933e-10
3.25263e-10
3.24922e-10
3.24699e-10
3.25259e-10
3.24835e-10
3.25093e-10
3.29341e-10
3.50519e-10
4.50981e-10
9.81288e-10
2.53208e-09
3.38743e-09
9.37674e-10
4.64658e-10
3.6522e-10
3.41538e-10
3.40081e-10
3.37349e-10
3.40447e-10
3.37226e-10
3.39764e-10
3.38892e-10
3.38635e-10
3.39172e-10
3.38465e-10
3.3867e-10
3.42692e-10
3.61381e-10
4.52291e-10
8.96825e-10
2.14257e-09
3.35582e-09
9.32338e-10
4.78832e-10
3.84489e-10
3.62333e-10
3.62247e-10
3.58132e-10
3.63228e-10
3.58517e-10
3.62466e-10
3.60937e-10
3.60643e-10
3.61139e-10
3.60095e-10
3.60286e-10
3.6411e-10
3.80388e-10
4.63315e-10
8.39904e-10
1.84096e-09
3.28221e-09
9.34131e-10
5.01667e-10
4.12373e-10
3.90621e-10
3.93941e-10
3.87393e-10
3.94504e-10
3.89157e-10
3.93669e-10
3.92458e-10
3.91091e-10
3.92636e-10
3.91132e-10
3.91222e-10
3.95363e-10
4.08034e-10
4.84204e-10
8.04962e-10
1.61392e-09
3.16375e-09
9.41558e-10
5.32442e-10
4.48306e-10
4.26914e-10
4.32398e-10
4.24557e-10
4.33397e-10
4.268e-10
4.32502e-10
4.30772e-10
4.29233e-10
4.30859e-10
4.29043e-10
4.29182e-10
4.33259e-10
4.43796e-10
5.14073e-10
7.88605e-10
1.44744e-09
3.00238e-09
9.51886e-10
5.68939e-10
4.90209e-10
4.69272e-10
4.76205e-10
4.67559e-10
4.77483e-10
4.70065e-10
4.76551e-10
4.74459e-10
4.72815e-10
4.74473e-10
4.72489e-10
4.72685e-10
4.76711e-10
4.85672e-10
5.50598e-10
7.86517e-10
1.32774e-09
2.818e-09
9.61215e-10
6.07297e-10
5.34342e-10
5.14093e-10
5.21435e-10
5.127e-10
5.22755e-10
5.15189e-10
5.21834e-10
5.19632e-10
5.17981e-10
5.19603e-10
5.17644e-10
5.17906e-10
5.21883e-10
5.29997e-10
5.89834e-10
7.93279e-10
1.24168e-09
2.60331e-09
9.64962e-10
6.4235e-10
5.75713e-10
5.56498e-10
5.63072e-10
5.55071e-10
5.64172e-10
5.57252e-10
5.6334e-10
5.61313e-10
5.59765e-10
5.61266e-10
5.5953e-10
5.59876e-10
5.63787e-10
5.71821e-10
6.26539e-10
8.02725e-10
1.17708e-09
5.94461e-10
5.93113e-10
5.94408e-10
5.93052e-10
5.93498e-10
5.9731e-10
6.05881e-10
6.55352e-10
8.08554e-10
1.12322e-09
)
;

boundaryField
{
    fuel
    {
        type            fixedValue;
        value           nonuniform 0();
    }
    wall
    {
        type            zeroGradient;
    }
    outlet
    {
        type            zeroGradient;
    }
    frontAndBack
    {
        type            empty;
    }
    procBoundary0to1
    {
        type            processor;
        value           nonuniform List<scalar> 
21
(
2.36493e-09
9.5763e-10
6.69727e-10
6.09067e-10
5.91289e-10
5.96047e-10
5.8954e-10
5.96723e-10
5.91173e-10
5.96063e-10
5.96063e-10
6.152e-10
6.14112e-10
6.1514e-10
6.14246e-10
6.14793e-10
6.18456e-10
6.27869e-10
6.71968e-10
8.05619e-10
1.07175e-09
)
;
    }
    procBoundary0to2
    {
        type            processor;
        value           nonuniform List<scalar> 
12
(
3.43283e-10
3.03314e-09
1.06497e-09
5.01109e-10
3.7233e-10
3.4327e-10
3.32005e-10
3.34368e-10
3.30833e-10
3.31765e-10
3.30211e-10
3.30211e-10
)
;
    }
    procBoundary0to3
    {
        type            processor;
        value           nonuniform List<scalar> 10(3.61368e-10 3.61129e-10 3.61914e-10 3.6251e-10 3.62783e-10 3.68779e-10 4.07562e-10 6.15287e-10 2.25282e-09 6.77349e-09);
    }
}


// ************************************************************************* //
