/*--------------------------------*- C++ -*----------------------------------*\
| =========                 |                                                 |
| \\      /  F ield         | OpenFOAM: The Open Source CFD Toolbox           |
|  \\    /   O peration     | Version:  dev                                   |
|   \\  /    A nd           | Web:      www.OpenFOAM.org                      |
|    \\/     M anipulation  |                                                 |
\*---------------------------------------------------------------------------*/
FoamFile
{
    version     2.0;
    format      ascii;
    class       volScalarField;
    location    "0.19";
    object      A2C2HB;
}
// * * * * * * * * * * * * * * * * * * * * * * * * * * * * * * * * * * * * * //

dimensions      [0 0 0 0 0 0 0];

internalField   nonuniform List<scalar> 
250
(
4.43588e-10
4.45952e-10
4.44679e-10
4.48786e-10
4.4506e-10
4.63566e-10
5.12208e-10
7.54417e-10
2.04497e-09
7.32143e-09
4.27588e-10
4.29257e-10
4.28231e-10
4.3121e-10
4.2862e-10
4.44604e-10
4.89822e-10
7.18907e-10
1.97798e-09
7.79765e-09
7.93981e-09
2.67454e-09
7.47202e-10
4.72907e-10
4.26339e-10
4.18417e-10
4.17876e-10
4.18735e-10
4.1789e-10
4.18551e-10
4.18054e-10
4.18905e-10
4.18375e-10
4.2e-10
4.18677e-10
4.31976e-10
4.74706e-10
6.90776e-10
1.91901e-09
8.17973e-09
6.83746e-09
2.29659e-09
7.05797e-10
4.64398e-10
4.22301e-10
4.14995e-10
4.14458e-10
4.1549e-10
4.14714e-10
4.15471e-10
4.15412e-10
4.15292e-10
4.15539e-10
4.1553e-10
4.15664e-10
4.2603e-10
4.66739e-10
6.70258e-10
1.86422e-09
8.4364e-09
5.83696e-09
1.98204e-09
6.76295e-10
4.63813e-10
4.25828e-10
4.19143e-10
4.18625e-10
4.19874e-10
4.19091e-10
4.19968e-10
4.20436e-10
4.19165e-10
4.20488e-10
4.18521e-10
4.20354e-10
4.27471e-10
4.66598e-10
6.5794e-10
1.81291e-09
8.54631e-09
4.95608e-09
1.75252e-09
6.59341e-10
4.7206e-10
4.37849e-10
4.31808e-10
4.31317e-10
4.32827e-10
4.31967e-10
4.3299e-10
4.34094e-10
4.31477e-10
4.34164e-10
4.29906e-10
4.33702e-10
4.37246e-10
4.7519e-10
6.54633e-10
1.76047e-09
8.50006e-09
4.20111e-09
1.56399e-09
6.55278e-10
4.89901e-10
4.5931e-10
4.53852e-10
4.53387e-10
4.55189e-10
4.54198e-10
4.55386e-10
4.57246e-10
4.53098e-10
4.5738e-10
4.50571e-10
4.56547e-10
4.56298e-10
4.93365e-10
6.61123e-10
1.71564e-09
8.29916e-09
3.57086e-09
1.42458e-09
6.6402e-10
5.17707e-10
4.90585e-10
4.8562e-10
4.85168e-10
4.87367e-10
4.86118e-10
4.87477e-10
4.90175e-10
4.84391e-10
4.90359e-10
4.80938e-10
4.89164e-10
4.86615e-10
5.21867e-10
6.77719e-10
1.67487e-09
7.94564e-09
3.05684e-09
1.32148e-09
6.84493e-10
5.54905e-10
5.32685e-10
5.27387e-10
5.27029e-10
5.2946e-10
5.28306e-10
5.29971e-10
5.32046e-10
5.24715e-10
5.32242e-10
5.2169e-10
5.3075e-10
5.24996e-10
5.5941e-10
7.03755e-10
1.63407e-09
7.49492e-09
2.64554e-09
1.24816e-09
7.14836e-10
5.99602e-10
5.80303e-10
5.75254e-10
5.74875e-10
5.77565e-10
5.76203e-10
5.78001e-10
5.80549e-10
5.72055e-10
5.80737e-10
5.68624e-10
5.7906e-10
5.70861e-10
6.04305e-10
7.37249e-10
1.59682e-09
6.92824e-09
2.3207e-09
1.19752e-09
7.50592e-10
6.4844e-10
6.3139e-10
6.26559e-10
6.26133e-10
6.2882e-10
6.27406e-10
6.29265e-10
6.32051e-10
6.23027e-10
6.32226e-10
6.19452e-10
6.30526e-10
6.21001e-10
6.53146e-10
7.74818e-10
1.5598e-09
6.31781e-09
2.06538e-09
1.16231e-09
7.87647e-10
6.97127e-10
6.81662e-10
6.77019e-10
6.76531e-10
6.79054e-10
6.7765e-10
6.79488e-10
6.82219e-10
6.73389e-10
6.82365e-10
6.69958e-10
6.80815e-10
6.71224e-10
7.01612e-10
8.12172e-10
1.51906e-09
5.67827e-09
1.86369e-09
1.1358e-09
8.21472e-10
7.41353e-10
7.26938e-10
7.22472e-10
7.21923e-10
7.24156e-10
7.22813e-10
7.24558e-10
7.26982e-10
7.18976e-10
7.27062e-10
7.15932e-10
7.25799e-10
7.17252e-10
7.45406e-10
8.45052e-10
1.47174e-09
5.0355e-09
7.63462e-10
7.56684e-10
7.6344e-10
7.54177e-10
7.6253e-10
7.5575e-10
7.81281e-10
8.70245e-10
1.4165e-09
4.40946e-09
)
;

boundaryField
{
    fuel
    {
        type            fixedValue;
        value           nonuniform 0();
    }
    wall
    {
        type            zeroGradient;
    }
    outlet
    {
        type            zeroGradient;
    }
    frontAndBack
    {
        type            empty;
    }
    procBoundary0to1
    {
        type            processor;
        value           nonuniform List<scalar> 
21
(
1.70234e-09
1.11268e-09
8.48581e-10
7.77819e-10
7.64133e-10
7.5986e-10
7.59267e-10
7.61133e-10
7.59899e-10
7.61502e-10
7.61502e-10
7.90502e-10
7.85087e-10
7.90357e-10
7.83158e-10
7.89795e-10
7.85034e-10
8.07703e-10
8.86267e-10
1.35372e-09
3.81643e-09
)
;
    }
    procBoundary0to2
    {
        type            processor;
        value           nonuniform List<scalar> 
12
(
4.44763e-10
9.12535e-09
3.10391e-09
8.00018e-10
4.88654e-10
4.3721e-10
4.28658e-10
4.2813e-10
4.28846e-10
4.27864e-10
4.2845e-10
4.2845e-10
)
;
    }
    procBoundary0to3
    {
        type            processor;
        value           nonuniform List<scalar> 10(4.66018e-10 4.68995e-10 4.67681e-10 4.72732e-10 4.67951e-10 4.88894e-10 5.4109e-10 8.01684e-10 2.11887e-09 6.78701e-09);
    }
}


// ************************************************************************* //
