/*--------------------------------*- C++ -*----------------------------------*\
| =========                 |                                                 |
| \\      /  F ield         | OpenFOAM: The Open Source CFD Toolbox           |
|  \\    /   O peration     | Version:  dev                                   |
|   \\  /    A nd           | Web:      www.OpenFOAM.org                      |
|    \\/     M anipulation  |                                                 |
\*---------------------------------------------------------------------------*/
FoamFile
{
    version     2.0;
    format      ascii;
    class       volScalarField;
    location    "0.19";
    object      C5H5O;
}
// * * * * * * * * * * * * * * * * * * * * * * * * * * * * * * * * * * * * * //

dimensions      [0 0 0 0 0 0 0];

internalField   nonuniform List<scalar> 
50
(
4.23904e-12
2.60359e-12
1.47401e-12
8.2628e-13
4.62452e-13
2.58622e-13
1.44559e-13
8.05609e-14
4.4831e-14
2.49553e-14
1.38957e-14
7.81498e-15
4.40975e-15
2.51264e-15
1.44963e-15
8.49022e-16
5.05838e-16
3.0841e-16
1.91942e-16
1.2173e-16
7.87967e-17
5.17202e-17
3.45278e-17
2.33161e-17
1.58957e-17
1.08715e-17
7.49262e-18
5.17047e-18
3.56737e-18
2.47066e-18
1.70612e-18
1.17653e-18
8.1324e-19
5.60211e-19
3.85222e-19
2.64583e-19
1.81538e-19
1.24457e-19
8.52782e-20
5.84213e-20
4.00301e-20
2.74458e-20
1.88389e-20
1.29527e-20
8.92607e-21
6.1694e-21
4.27958e-21
2.98094e-21
2.08451e-21
1.45981e-21
)
;

boundaryField
{
    wall
    {
        type            zeroGradient;
    }
    fuel
    {
        type            fixedValue;
        value           uniform 0;
    }
    outlet
    {
        type            inletOutlet;
        inletValue      nonuniform 0();
        value           nonuniform 0();
    }
    procBoundary0to1
    {
        type            processor;
        value           uniform 1.02089e-21;
    }
}


// ************************************************************************* //
