/*--------------------------------*- C++ -*----------------------------------*\
| =========                 |                                                 |
| \\      /  F ield         | OpenFOAM: The Open Source CFD Toolbox           |
|  \\    /   O peration     | Version:  dev                                   |
|   \\  /    A nd           | Web:      www.OpenFOAM.org                      |
|    \\/     M anipulation  |                                                 |
\*---------------------------------------------------------------------------*/
FoamFile
{
    version     2.0;
    format      ascii;
    class       volScalarField;
    location    "0.19";
    object      CH;
}
// * * * * * * * * * * * * * * * * * * * * * * * * * * * * * * * * * * * * * //

dimensions      [0 0 0 0 0 0 0];

internalField   nonuniform List<scalar> 
250
(
6.60707e-09
6.61779e-09
6.62151e-09
6.65214e-09
6.66472e-09
6.66029e-09
6.63626e-09
5.52803e-09
2.64204e-09
6.67448e-10
5.80181e-09
5.81355e-09
5.81526e-09
5.846e-09
5.86058e-09
5.85979e-09
5.8737e-09
4.96793e-09
2.53937e-09
6.4921e-10
2.67264e-09
4.01005e-09
4.8048e-09
5.13251e-09
5.25068e-09
5.00371e-09
5.14628e-09
4.96097e-09
5.0697e-09
4.9606e-09
4.99992e-09
5.012e-09
5.01099e-09
5.04222e-09
5.0583e-09
5.06095e-09
5.10683e-09
4.38619e-09
2.40489e-09
6.46307e-10
2.35152e-09
3.50291e-09
4.11076e-09
4.3598e-09
4.45767e-09
4.21842e-09
4.35343e-09
4.17432e-09
4.28312e-09
4.17637e-09
4.21542e-09
4.22707e-09
4.2238e-09
4.25491e-09
4.27178e-09
4.27734e-09
4.34752e-09
3.79017e-09
2.21691e-09
6.48837e-10
2.00698e-09
2.98728e-09
3.43331e-09
3.61223e-09
3.69285e-09
3.46647e-09
3.59129e-09
3.42262e-09
3.52859e-09
3.4265e-09
3.4646e-09
3.47508e-09
3.47061e-09
3.50057e-09
3.51731e-09
3.52504e-09
3.61086e-09
3.19524e-09
1.98133e-09
6.47401e-10
1.66281e-09
2.47712e-09
2.78801e-09
2.90749e-09
2.97381e-09
2.76572e-09
2.87744e-09
2.72343e-09
2.82358e-09
2.7284e-09
2.76495e-09
2.77357e-09
2.76922e-09
2.79697e-09
2.81252e-09
2.8216e-09
2.91407e-09
2.61617e-09
1.73671e-09
6.33878e-10
1.33724e-09
1.99611e-09
2.19136e-09
2.26318e-09
2.31895e-09
2.13335e-09
2.22937e-09
2.0937e-09
2.18528e-09
2.09894e-09
2.13349e-09
2.13966e-09
2.13673e-09
2.16147e-09
2.1747e-09
2.18446e-09
2.27484e-09
2.07072e-09
1.46018e-09
6.01442e-10
1.04376e-09
1.55128e-09
1.65892e-09
1.695e-09
1.71273e-09
1.58409e-09
1.66229e-09
1.54759e-09
1.62869e-09
1.55241e-09
1.58486e-09
1.58784e-09
1.58762e-09
1.60879e-09
1.61884e-09
1.62894e-09
1.7093e-09
1.57654e-09
1.18392e-09
5.47392e-10
7.81534e-10
1.15843e-09
1.20324e-09
1.21572e-09
1.22746e-09
1.11357e-09
1.18681e-09
1.09432e-09
1.15126e-09
1.09833e-09
1.115e-09
1.12776e-09
1.11655e-09
1.13482e-09
1.14331e-09
1.1472e-09
1.22958e-09
1.14849e-09
9.16078e-10
4.73485e-10
5.5657e-10
8.2626e-10
8.31661e-10
8.30633e-10
8.38301e-10
7.52051e-10
8.07221e-10
7.36588e-10
7.81245e-10
7.39708e-10
7.53476e-10
7.62825e-10
7.54846e-10
7.6896e-10
7.74613e-10
7.78136e-10
8.4271e-10
7.96256e-10
6.7266e-10
3.86167e-10
3.75248e-10
5.60456e-10
5.44843e-10
5.37762e-10
5.42661e-10
4.81159e-10
5.20364e-10
4.69606e-10
5.02495e-10
4.7194e-10
4.82468e-10
4.88897e-10
4.83565e-10
4.93702e-10
4.97305e-10
5.00143e-10
5.47366e-10
5.2257e-10
4.66117e-10
2.94937e-10
2.46334e-10
3.59461e-10
3.36552e-10
3.28191e-10
3.31256e-10
2.90177e-10
3.16353e-10
2.82226e-10
3.04812e-10
2.83901e-10
2.91284e-10
2.95437e-10
2.92052e-10
2.98785e-10
3.01017e-10
3.03084e-10
3.35206e-10
3.22962e-10
3.03162e-10
2.09689e-10
1.52136e-10
2.16542e-10
1.95067e-10
1.87858e-10
1.89784e-10
1.6418e-10
1.80544e-10
1.59168e-10
1.73568e-10
1.60307e-10
1.65051e-10
1.6756e-10
1.65522e-10
1.69657e-10
1.70987e-10
1.72365e-10
1.92603e-10
1.87057e-10
1.84117e-10
1.38061e-10
8.74038e-11
8.88148e-11
8.766e-11
9.00058e-11
9.07557e-11
9.16036e-11
1.0337e-10
1.01075e-10
1.03935e-10
8.38207e-11
)
;

boundaryField
{
    fuel
    {
        type            fixedValue;
        value           nonuniform 0();
    }
    wall
    {
        type            zeroGradient;
    }
    outlet
    {
        type            zeroGradient;
    }
    frontAndBack
    {
        type            empty;
    }
    procBoundary0to1
    {
        type            processor;
        value           nonuniform List<scalar> 
21
(
8.79407e-11
1.21724e-10
1.05626e-10
1.00397e-10
1.01597e-10
8.67776e-11
9.63081e-11
8.38897e-11
9.23766e-11
8.46072e-11
8.46072e-11
4.30859e-11
4.3821e-11
4.32122e-11
4.44382e-11
4.48323e-11
4.53172e-11
5.16052e-11
5.07382e-11
5.42998e-11
4.67448e-11
)
;
    }
    procBoundary0to2
    {
        type            processor;
        value           nonuniform List<scalar> 
12
(
6.56942e-09
2.93175e-09
4.48339e-09
5.50205e-09
5.91692e-09
6.05497e-09
5.80656e-09
5.95327e-09
5.76642e-09
5.87216e-09
5.76299e-09
5.76299e-09
)
;
    }
    procBoundary0to3
    {
        type            processor;
        value           nonuniform List<scalar> 10(7.4045e-09 7.41368e-09 7.41639e-09 7.44936e-09 7.45957e-09 7.45159e-09 7.38457e-09 6.12038e-09 2.7238e-09 7.14958e-10);
    }
}


// ************************************************************************* //
