/*--------------------------------*- C++ -*----------------------------------*\
| =========                 |                                                 |
| \\      /  F ield         | OpenFOAM: The Open Source CFD Toolbox           |
|  \\    /   O peration     | Version:  dev                                   |
|   \\  /    A nd           | Web:      www.OpenFOAM.org                      |
|    \\/     M anipulation  |                                                 |
\*---------------------------------------------------------------------------*/
FoamFile
{
    version     2.0;
    format      ascii;
    class       volScalarField;
    location    "0.19";
    object      CH4;
}
// * * * * * * * * * * * * * * * * * * * * * * * * * * * * * * * * * * * * * //

dimensions      [0 0 0 0 0 0 0];

internalField   nonuniform List<scalar> 
250
(
0.000926835
0.000926657
0.000926784
0.000926603
0.000926632
0.00092807
0.000935444
0.000970245
0.0010923
0.00130091
0.00093104
0.000930846
0.000930986
0.000930755
0.000930765
0.000932143
0.000938845
0.000971018
0.0010807
0.001258
0.00124941
0.00106474
0.000973389
0.000944481
0.000936617
0.000936721
0.000935543
0.000936833
0.000935859
0.000936745
0.000936492
0.000936286
0.000936445
0.000936158
0.000936146
0.000937454
0.000943457
0.000972984
0.00107102
0.00122228
0.0012612
0.00106706
0.000977942
0.0009504
0.000942815
0.000943389
0.000941995
0.000943583
0.000942412
0.000943477
0.000943154
0.000942942
0.000943119
0.000942777
0.000942741
0.000943972
0.000949272
0.000976183
0.00106257
0.0011927
0.00126948
0.00106947
0.000983428
0.000957437
0.000950155
0.000951178
0.000949594
0.000951456
0.000950094
0.000951332
0.000950936
0.000950726
0.000950914
0.000950524
0.000950464
0.000951612
0.000956231
0.000980588
0.00105611
0.00116845
0.0012739
0.0010719
0.000989762
0.000965474
0.000958508
0.000959938
0.000958205
0.000960302
0.000958763
0.000960161
0.000959688
0.000959491
0.000959677
0.000959247
0.000959171
0.00096023
0.000964218
0.000986129
0.00105224
0.00114887
0.00127436
0.00107428
0.000996808
0.000974338
0.000967685
0.000969459
0.000967634
0.000969912
0.000968216
0.000969761
0.000969204
0.000969032
0.000969195
0.000968736
0.000968658
0.000969624
0.000973054
0.000992659
0.00105012
0.00113339
0.00127104
0.00107656
0.00100437
0.000983796
0.000978038
0.000979478
0.000977631
0.000980024
0.000978199
0.000979874
0.000979222
0.000979093
0.000979205
0.000978726
0.000978666
0.000979538
0.000982504
0.000999967
0.0010497
0.00112146
0.00126405
0.00107865
0.00101222
0.000993549
0.000988205
0.000990047
0.000987905
0.00099034
0.000988729
0.0009902
0.000989788
0.000989381
0.000989779
0.000989261
0.000989192
0.000990124
0.000992287
0.00100778
0.00105067
0.00111257
0.00125354
0.00108046
0.00102009
0.00100329
0.000998361
0.00100022
0.000998142
0.00100054
0.00099893
0.00100041
0.000999968
0.000999579
0.000999943
0.000999429
0.000999394
0.00100026
0.00100209
0.00101581
0.0010527
0.0011062
0.00124015
0.00108188
0.00102769
0.00101271
0.0010082
0.00100999
0.00100803
0.00101032
0.00100876
0.00101021
0.00100975
0.00100939
0.00100971
0.00100922
0.00100921
0.00101001
0.0010116
0.00102372
0.00105546
0.00110184
0.00122581
0.00108285
0.00103479
0.00102155
0.00101744
0.00101909
0.0010173
0.00101942
0.00101796
0.00101931
0.00101887
0.00101854
0.00101883
0.00101838
0.00101839
0.00101912
0.00102054
0.00103125
0.00105859
0.00109896
0.00121007
0.00108331
0.00104115
0.00102958
0.00102588
0.00102734
0.00102574
0.00102763
0.00102631
0.00102755
0.00102714
0.00102683
0.00102709
0.00102669
0.00102671
0.00102738
0.00102869
0.00103814
0.00106178
0.0010971
0.00103442
0.00103415
0.00103437
0.00103403
0.00103406
0.00103467
0.0010359
0.00104423
0.00106475
0.00109582
)
;

boundaryField
{
    fuel
    {
        type            fixedValue;
        value           nonuniform 0();
    }
    wall
    {
        type            zeroGradient;
    }
    outlet
    {
        type            zeroGradient;
    }
    frontAndBack
    {
        type            empty;
    }
    procBoundary0to1
    {
        type            processor;
        value           nonuniform List<scalar> 
21
(
0.00119361
0.00108313
0.00104676
0.00103666
0.00103336
0.00103461
0.00103321
0.00103486
0.0010337
0.00103478
0.00103478
0.00104069
0.00104045
0.00104064
0.00104035
0.00104038
0.00104093
0.00104211
0.00104943
0.00106732
0.0010948
)
;
    }
    procBoundary0to2
    {
        type            processor;
        value           nonuniform List<scalar> 
12
(
0.000926959
0.00123468
0.00106261
0.000969804
0.000939738
0.000931631
0.000931265
0.000930316
0.000931298
0.000930519
0.000931226
0.000931226
)
;
    }
    procBoundary0to3
    {
        type            processor;
        value           nonuniform List<scalar> 10(0.000923868 0.000923709 0.000923835 0.000923693 0.000923735 0.000925223 0.000933221 0.00097062 0.00110611 0.0013524);
    }
}


// ************************************************************************* //
