/*--------------------------------*- C++ -*----------------------------------*\
| =========                 |                                                 |
| \\      /  F ield         | OpenFOAM: The Open Source CFD Toolbox           |
|  \\    /   O peration     | Version:  dev                                   |
|   \\  /    A nd           | Web:      www.OpenFOAM.org                      |
|    \\/     M anipulation  |                                                 |
\*---------------------------------------------------------------------------*/
FoamFile
{
    version     2.0;
    format      ascii;
    class       volScalarField;
    location    "0.19";
    object      H;
}
// * * * * * * * * * * * * * * * * * * * * * * * * * * * * * * * * * * * * * //

dimensions      [0 0 0 0 0 0 0];

internalField   nonuniform List<scalar> 
250
(
2.11852e-05
2.11987e-05
2.11995e-05
2.12319e-05
2.12441e-05
2.12158e-05
2.10661e-05
1.94014e-05
1.41277e-05
7.87175e-06
2.03009e-05
2.03165e-05
2.03156e-05
2.03518e-05
2.03676e-05
2.03449e-05
2.02509e-05
1.87738e-05
1.40684e-05
7.99722e-06
1.339e-05
1.66279e-05
1.85824e-05
1.93546e-05
1.96012e-05
1.93158e-05
1.94979e-05
1.92622e-05
1.94056e-05
1.92637e-05
1.9314e-05
1.93314e-05
1.93273e-05
1.93685e-05
1.93882e-05
1.93718e-05
1.93341e-05
1.80433e-05
1.39245e-05
8.16219e-06
1.28324e-05
1.59316e-05
1.76468e-05
1.83175e-05
1.85447e-05
1.82246e-05
1.84212e-05
1.81617e-05
1.83242e-05
1.81667e-05
1.82236e-05
1.82421e-05
1.82347e-05
1.82811e-05
1.83046e-05
1.82949e-05
1.83124e-05
1.72009e-05
1.36501e-05
8.32991e-06
1.21794e-05
1.51362e-05
1.66097e-05
1.71765e-05
1.73851e-05
1.70322e-05
1.72413e-05
1.69599e-05
1.71415e-05
1.69683e-05
1.70325e-05
1.7051e-05
1.70414e-05
1.70925e-05
1.71193e-05
1.71164e-05
1.71856e-05
1.62469e-05
1.32269e-05
8.46027e-06
1.14527e-05
1.42385e-05
1.54733e-05
1.59359e-05
1.61287e-05
1.5746e-05
1.59647e-05
1.5664e-05
1.58642e-05
1.56755e-05
1.57479e-05
1.57653e-05
1.57551e-05
1.58102e-05
1.58392e-05
1.5843e-05
1.59582e-05
1.51808e-05
1.2709e-05
8.51475e-06
1.06687e-05
1.32574e-05
1.42446e-05
1.46055e-05
1.47876e-05
1.43793e-05
1.46027e-05
1.4287e-05
1.45048e-05
1.43009e-05
1.43828e-05
1.43973e-05
1.43894e-05
1.44476e-05
1.44769e-05
1.44875e-05
1.46399e-05
1.40096e-05
1.20255e-05
8.45731e-06
9.84289e-06
1.2185e-05
1.29368e-05
1.32008e-05
1.32957e-05
1.29516e-05
1.31734e-05
1.28479e-05
1.30822e-05
1.2863e-05
1.29567e-05
1.29654e-05
1.29638e-05
1.30243e-05
1.30512e-05
1.30692e-05
1.32463e-05
1.27476e-05
1.12239e-05
8.2622e-06
8.95613e-06
1.10403e-05
1.15699e-05
1.17477e-05
1.1827e-05
1.14392e-05
1.17007e-05
1.1372e-05
1.15776e-05
1.13875e-05
1.14471e-05
1.14941e-05
1.1452e-05
1.15177e-05
1.15465e-05
1.15509e-05
1.17997e-05
1.14161e-05
1.02968e-05
7.91513e-06
8.01111e-06
9.84049e-06
1.0171e-05
1.02754e-05
1.03414e-05
9.96195e-06
1.02151e-05
9.89106e-06
1.00997e-05
9.9065e-06
9.97104e-06
1.00148e-05
9.97693e-06
1.00423e-05
1.00667e-05
1.00751e-05
1.03317e-05
1.00443e-05
9.26753e-06
7.41661e-06
7.03136e-06
8.61536e-06
8.77311e-06
8.81817e-06
8.873e-06
8.51135e-06
8.75109e-06
8.44014e-06
8.6453e-06
8.45546e-06
8.5217e-06
8.5617e-06
8.52816e-06
8.5907e-06
8.61135e-06
8.62225e-06
8.87637e-06
8.66671e-06
8.1682e-06
6.78244e-06
6.1119e-06
7.39432e-06
7.41254e-06
7.41289e-06
7.45852e-06
7.12351e-06
7.34504e-06
7.05527e-06
7.25052e-06
7.07048e-06
7.13501e-06
7.17077e-06
7.14134e-06
7.19881e-06
7.21654e-06
7.22874e-06
7.4706e-06
7.32169e-06
7.03783e-06
6.0422e-06
5.19881e-06
6.20826e-06
6.12581e-06
6.09551e-06
6.13369e-06
5.83262e-06
6.03201e-06
5.7702e-06
5.94976e-06
5.78505e-06
5.845e-06
5.87617e-06
5.85059e-06
5.90148e-06
5.9168e-06
5.92931e-06
6.15058e-06
6.04759e-06
5.91876e-06
5.23573e-06
4.68006e-06
4.70648e-06
4.68462e-06
4.72814e-06
4.74122e-06
4.75337e-06
4.94795e-06
4.87835e-06
4.85249e-06
4.40792e-06
)
;

boundaryField
{
    fuel
    {
        type            fixedValue;
        value           nonuniform 0();
    }
    wall
    {
        type            zeroGradient;
    }
    outlet
    {
        type            zeroGradient;
    }
    frontAndBack
    {
        type            empty;
    }
    procBoundary0to1
    {
        type            processor;
        value           nonuniform List<scalar> 
21
(
4.32113e-06
5.08993e-06
4.94572e-06
4.89749e-06
4.92933e-06
4.66736e-06
4.8418e-06
4.61272e-06
4.77215e-06
4.62673e-06
4.62673e-06
3.6597e-06
3.68144e-06
3.6632e-06
3.69917e-06
3.71008e-06
3.72152e-06
3.88595e-06
3.83971e-06
3.87432e-06
3.60227e-06
)
;
    }
    procBoundary0to2
    {
        type            processor;
        value           nonuniform List<scalar> 
12
(
2.11471e-05
1.38238e-05
1.72096e-05
1.9418e-05
2.02875e-05
2.05532e-05
2.03031e-05
2.04697e-05
2.02588e-05
2.03833e-05
2.02569e-05
2.02569e-05
)
;
    }
    procBoundary0to3
    {
        type            processor;
        value           nonuniform List<scalar> 10(2.19704e-05 2.19815e-05 2.19812e-05 2.20125e-05 2.20214e-05 2.19886e-05 2.17853e-05 1.99939e-05 1.41244e-05 7.81236e-06);
    }
}


// ************************************************************************* //
