/*--------------------------------*- C++ -*----------------------------------*\
| =========                 |                                                 |
| \\      /  F ield         | OpenFOAM: The Open Source CFD Toolbox           |
|  \\    /   O peration     | Version:  dev                                   |
|   \\  /    A nd           | Web:      www.OpenFOAM.org                      |
|    \\/     M anipulation  |                                                 |
\*---------------------------------------------------------------------------*/
FoamFile
{
    version     2.0;
    format      ascii;
    class       volScalarField;
    location    "0.19";
    object      H2;
}
// * * * * * * * * * * * * * * * * * * * * * * * * * * * * * * * * * * * * * //

dimensions      [0 0 0 0 0 0 0];

internalField   nonuniform List<scalar> 
250
(
0.00914424
0.00914438
0.00914352
0.00914252
0.00914191
0.00913652
0.0091075
0.00903497
0.00881863
0.00861144
0.00917268
0.00917273
0.00917193
0.00917102
0.00917032
0.00916508
0.0091373
0.00906917
0.00886847
0.00868109
0.00860802
0.0088854
0.00908528
0.00916189
0.00918215
0.00919806
0.00919276
0.00920007
0.00919688
0.00920062
0.00919899
0.00919896
0.00919828
0.00919739
0.0091966
0.00919154
0.00916507
0.00910142
0.00891549
0.00874567
0.00864461
0.00892565
0.00911564
0.00918833
0.00920734
0.00922238
0.00921751
0.0092244
0.00922129
0.00922487
0.00922328
0.00922318
0.00922263
0.00922175
0.00922089
0.00921601
0.00919091
0.00913185
0.00896416
0.00880585
0.00868592
0.00896559
0.00914446
0.00921294
0.00923066
0.00924481
0.00924038
0.00924684
0.00924382
0.00924722
0.00924568
0.00924554
0.00924511
0.00924422
0.0092433
0.00923862
0.00921491
0.00916035
0.0090114
0.00886195
0.00873121
0.00900519
0.00917176
0.00923583
0.0092522
0.00926547
0.00926148
0.0092675
0.00926459
0.00926782
0.00926633
0.00926616
0.00926582
0.00926492
0.00926396
0.00925949
0.0092372
0.00918701
0.0090512
0.00891408
0.00877951
0.0090434
0.00919755
0.00925709
0.00927207
0.00928448
0.00928094
0.00928653
0.00928371
0.00928679
0.00928533
0.00928518
0.00928486
0.00928396
0.00928299
0.00927873
0.0092579
0.00921191
0.00908977
0.00896254
0.00882946
0.00908053
0.00922184
0.00927681
0.00929144
0.00930193
0.00929885
0.009304
0.00930126
0.00930422
0.00930276
0.00930267
0.00930232
0.00930142
0.00930047
0.00929639
0.00927709
0.00923511
0.00912462
0.00900752
0.00888161
0.00911616
0.0092446
0.00929499
0.00930839
0.00931838
0.00931524
0.00931997
0.00931778
0.00932017
0.0093192
0.00931868
0.00931881
0.00931787
0.0093169
0.0093132
0.00929486
0.00925663
0.00915697
0.00904921
0.00893527
0.00915005
0.00926575
0.00931161
0.00932381
0.00933285
0.00933013
0.00933441
0.00933239
0.0093346
0.00933369
0.00933319
0.00933331
0.00933237
0.00933146
0.00932794
0.00931114
0.00927647
0.00918683
0.00908777
0.00898857
0.00918176
0.0092852
0.00932662
0.00933767
0.00934576
0.00934344
0.00934727
0.00934544
0.00934745
0.00934662
0.00934614
0.00934624
0.00934533
0.00934447
0.00934114
0.00932586
0.00929455
0.00921417
0.00912328
0.00903641
0.00921103
0.00930278
0.0093399
0.00934985
0.009357
0.00935509
0.00935843
0.00935683
0.00935859
0.00935787
0.00935743
0.0093575
0.00935664
0.00935582
0.00935271
0.00933892
0.00931076
0.00923898
0.0091558
0.00908213
0.00923766
0.00931838
0.00935129
0.00936021
0.00936642
0.00936492
0.00936775
0.00936641
0.00936791
0.0093673
0.0093669
0.00936695
0.00936616
0.00936539
0.00936249
0.00935017
0.00932497
0.00926115
0.00918532
0.00937479
0.00937443
0.00937446
0.00937375
0.00937302
0.00937035
0.00935947
0.00933703
0.0092806
0.00921181
)
;

boundaryField
{
    fuel
    {
        type            fixedValue;
        value           nonuniform 0();
    }
    wall
    {
        type            zeroGradient;
    }
    outlet
    {
        type            zeroGradient;
    }
    frontAndBack
    {
        type            empty;
    }
    procBoundary0to1
    {
        type            processor;
        value           nonuniform List<scalar> 
21
(
0.00912483
0.00926163
0.00933161
0.00936065
0.00936861
0.00937389
0.00937281
0.0093751
0.00937406
0.00937526
0.00937526
0.00938025
0.00937993
0.00937993
0.00937931
0.00937863
0.00937618
0.00936669
0.00934682
0.00929725
0.00923522
)
;
    }
    procBoundary0to2
    {
        type            processor;
        value           nonuniform List<scalar> 
12
(
0.00914594
0.00857661
0.00884607
0.00905332
0.00913353
0.00915497
0.00917173
0.009166
0.00917369
0.00917045
0.00917436
0.00917436
)
;
    }
    procBoundary0to3
    {
        type            processor;
        value           nonuniform List<scalar> 10(0.00911355 0.00911377 0.009113 0.00911178 0.00911128 0.00910575 0.00907558 0.00899481 0.00876436 0.008536);
    }
}


// ************************************************************************* //
