/*--------------------------------*- C++ -*----------------------------------*\
| =========                 |                                                 |
| \\      /  F ield         | OpenFOAM: The Open Source CFD Toolbox           |
|  \\    /   O peration     | Version:  dev                                   |
|   \\  /    A nd           | Web:      www.OpenFOAM.org                      |
|    \\/     M anipulation  |                                                 |
\*---------------------------------------------------------------------------*/
FoamFile
{
    version     2.0;
    format      ascii;
    class       volScalarField;
    location    "0.19";
    object      HCO;
}
// * * * * * * * * * * * * * * * * * * * * * * * * * * * * * * * * * * * * * //

dimensions      [0 0 0 0 0 0 0];

internalField   nonuniform List<scalar> 
50
(
1.45428e-05
1.70067e-05
1.54834e-05
1.28734e-05
1.01732e-05
7.82075e-06
5.93316e-06
4.485e-06
3.4071e-06
2.61717e-06
2.0401e-06
1.62215e-06
1.31159e-06
1.08046e-06
9.06523e-07
7.74197e-07
6.72589e-07
5.94459e-07
5.33543e-07
4.85709e-07
4.4832e-07
4.18757e-07
3.95708e-07
3.77591e-07
3.63372e-07
3.52093e-07
3.43281e-07
3.3627e-07
3.30657e-07
3.26175e-07
3.22483e-07
3.19408e-07
3.16818e-07
3.14544e-07
3.12508e-07
3.10638e-07
3.0888e-07
3.07191e-07
3.05539e-07
3.039e-07
3.02259e-07
3.00601e-07
2.98918e-07
2.97204e-07
2.95455e-07
2.9367e-07
2.91845e-07
2.89981e-07
2.88078e-07
2.86134e-07
)
;

boundaryField
{
    wall
    {
        type            zeroGradient;
    }
    fuel
    {
        type            fixedValue;
        value           uniform 0;
    }
    outlet
    {
        type            inletOutlet;
        inletValue      nonuniform 0();
        value           nonuniform 0();
    }
    procBoundary0to1
    {
        type            processor;
        value           uniform 2.84162e-07;
    }
}


// ************************************************************************* //
