/*--------------------------------*- C++ -*----------------------------------*\
| =========                 |                                                 |
| \\      /  F ield         | OpenFOAM: The Open Source CFD Toolbox           |
|  \\    /   O peration     | Version:  dev                                   |
|   \\  /    A nd           | Web:      www.OpenFOAM.org                      |
|    \\/     M anipulation  |                                                 |
\*---------------------------------------------------------------------------*/
FoamFile
{
    version     2.0;
    format      ascii;
    class       volScalarField;
    location    "0.19";
    object      i-C4H3;
}
// * * * * * * * * * * * * * * * * * * * * * * * * * * * * * * * * * * * * * //

dimensions      [0 0 0 0 0 0 0];

internalField   nonuniform List<scalar> 
250
(
4.14848e-07
4.17096e-07
4.15364e-07
4.19201e-07
4.15407e-07
4.25866e-07
4.3619e-07
4.79311e-07
5.77433e-07
6.63451e-07
3.99424e-07
4.01525e-07
3.99635e-07
4.03296e-07
3.99786e-07
4.0951e-07
4.18744e-07
4.59327e-07
5.50499e-07
6.4116e-07
6.75532e-07
5.14358e-07
4.32995e-07
4.0137e-07
3.89196e-07
3.86538e-07
3.86321e-07
3.86405e-07
3.86172e-07
3.86322e-07
3.8547e-07
3.874e-07
3.85423e-07
3.88892e-07
3.85653e-07
3.94668e-07
4.03172e-07
4.40824e-07
5.25373e-07
6.16754e-07
6.06512e-07
4.86924e-07
4.16165e-07
3.87544e-07
3.76231e-07
3.7376e-07
3.73525e-07
3.73552e-07
3.73444e-07
3.73596e-07
3.72844e-07
3.74587e-07
3.72593e-07
3.7586e-07
3.72878e-07
3.81219e-07
3.88986e-07
4.23685e-07
5.01407e-07
5.90689e-07
5.53286e-07
4.61382e-07
4.00705e-07
3.74989e-07
3.64504e-07
3.6222e-07
3.61971e-07
3.61933e-07
3.61932e-07
3.62081e-07
3.61416e-07
3.62969e-07
3.61012e-07
3.64083e-07
3.61334e-07
3.69054e-07
3.76072e-07
4.07831e-07
4.7877e-07
5.63661e-07
5.1141e-07
4.40442e-07
3.86556e-07
3.63597e-07
3.53907e-07
3.51811e-07
3.51551e-07
3.51454e-07
3.51532e-07
3.51674e-07
3.5107e-07
3.52446e-07
3.50562e-07
3.53457e-07
3.50908e-07
3.58082e-07
3.64342e-07
3.932e-07
4.55308e-07
5.36346e-07
4.77555e-07
4.20409e-07
3.73655e-07
3.5326e-07
3.44394e-07
3.42452e-07
3.42188e-07
3.42046e-07
3.42172e-07
3.42306e-07
3.41716e-07
3.42943e-07
3.4115e-07
3.43907e-07
3.41514e-07
3.48213e-07
3.53725e-07
3.79759e-07
4.35284e-07
5.0935e-07
4.49578e-07
4.02944e-07
3.6199e-07
3.43927e-07
3.35935e-07
3.34102e-07
3.33841e-07
3.33656e-07
3.33817e-07
3.3394e-07
3.3331e-07
3.34427e-07
3.32736e-07
3.35391e-07
3.3311e-07
3.38707e-07
3.44005e-07
3.6749e-07
4.17089e-07
4.81988e-07
4.26086e-07
3.87279e-07
3.51619e-07
3.35619e-07
3.2803e-07
3.2649e-07
3.26208e-07
3.25968e-07
3.26095e-07
3.26159e-07
3.259e-07
3.26942e-07
3.25366e-07
3.27539e-07
3.25741e-07
3.30799e-07
3.35529e-07
3.56447e-07
3.98647e-07
4.57629e-07
4.06293e-07
3.73542e-07
3.42487e-07
3.28552e-07
3.21727e-07
3.20308e-07
3.20035e-07
3.19769e-07
3.19891e-07
3.19934e-07
3.19687e-07
3.20657e-07
3.19221e-07
3.21194e-07
3.19594e-07
3.24138e-07
3.28325e-07
3.46802e-07
3.82815e-07
4.34199e-07
3.89912e-07
3.62058e-07
3.35282e-07
3.23075e-07
3.17005e-07
3.15708e-07
3.15453e-07
3.15206e-07
3.15289e-07
3.15319e-07
3.15078e-07
3.15935e-07
3.14689e-07
3.16422e-07
3.15049e-07
3.19049e-07
3.22744e-07
3.38918e-07
3.70024e-07
4.14121e-07
3.77132e-07
3.53408e-07
3.30455e-07
3.19827e-07
3.14509e-07
3.13343e-07
3.13114e-07
3.1291e-07
3.12947e-07
3.12976e-07
3.12772e-07
3.13429e-07
3.12463e-07
3.13854e-07
3.12788e-07
3.16159e-07
3.19434e-07
3.33436e-07
3.60053e-07
3.97528e-07
3.68663e-07
3.48582e-07
3.29058e-07
3.19879e-07
3.15334e-07
3.14315e-07
3.14122e-07
3.13985e-07
3.13972e-07
3.14017e-07
3.13898e-07
3.14226e-07
3.13678e-07
3.14561e-07
3.13937e-07
3.16528e-07
3.19478e-07
3.3141e-07
3.53684e-07
3.85425e-07
3.20213e-07
3.2003e-07
3.20103e-07
3.20238e-07
3.20259e-07
3.21834e-07
3.24586e-07
3.345e-07
3.52483e-07
3.79218e-07
)
;

boundaryField
{
    fuel
    {
        type            fixedValue;
        value           nonuniform 0();
    }
    wall
    {
        type            zeroGradient;
    }
    outlet
    {
        type            zeroGradient;
    }
    frontAndBack
    {
        type            empty;
    }
    procBoundary0to1
    {
        type            processor;
        value           nonuniform List<scalar> 
21
(
3.65872e-07
3.49156e-07
3.32764e-07
3.2492e-07
3.21209e-07
3.20359e-07
3.20205e-07
3.20173e-07
3.20099e-07
3.20184e-07
3.20184e-07
3.34402e-07
3.3347e-07
3.34441e-07
3.33495e-07
3.34446e-07
3.34673e-07
3.37397e-07
3.45264e-07
3.58916e-07
3.81185e-07
)
;
    }
    procBoundary0to2
    {
        type            processor;
        value           nonuniform List<scalar> 
12
(
4.15885e-07
7.68429e-07
5.4265e-07
4.51264e-07
4.16569e-07
4.03517e-07
4.00674e-07
4.00475e-07
4.00589e-07
4.00226e-07
4.00373e-07
4.00373e-07
)
;
    }
    procBoundary0to3
    {
        type            processor;
        value           nonuniform List<scalar> 10(4.31902e-07 4.34274e-07 4.32741e-07 4.36734e-07 4.32679e-07 4.43836e-07 4.54939e-07 5.03003e-07 6.03742e-07 6.82352e-07);
    }
}


// ************************************************************************* //
