/*--------------------------------*- C++ -*----------------------------------*\
| =========                 |                                                 |
| \\      /  F ield         | OpenFOAM: The Open Source CFD Toolbox           |
|  \\    /   O peration     | Version:  dev                                   |
|   \\  /    A nd           | Web:      www.OpenFOAM.org                      |
|    \\/     M anipulation  |                                                 |
\*---------------------------------------------------------------------------*/
FoamFile
{
    version     2.0;
    format      ascii;
    class       volScalarField;
    location    "0.19";
    object      l-C6H4;
}
// * * * * * * * * * * * * * * * * * * * * * * * * * * * * * * * * * * * * * //

dimensions      [0 0 0 0 0 0 0];

internalField   nonuniform List<scalar> 
50
(
5.62957e-08
5.03832e-08
3.52698e-08
2.26385e-08
1.38783e-08
8.28603e-09
4.86499e-09
2.81492e-09
1.61205e-09
9.1733e-10
5.19715e-10
2.94474e-10
1.65525e-10
9.2717e-11
5.1777e-11
2.88336e-11
1.60083e-11
8.90702e-12
4.94921e-12
2.74174e-12
1.51996e-12
8.38304e-13
4.63518e-13
2.56089e-13
1.41586e-13
7.78986e-14
4.30892e-14
2.38218e-14
1.3174e-14
7.35793e-15
4.12719e-15
2.34199e-15
1.36099e-15
8.10566e-16
5.00814e-16
3.2434e-16
2.21659e-16
1.60103e-16
1.217e-16
9.65416e-17
7.91394e-17
6.64309e-17
5.66873e-17
4.89149e-17
4.25273e-17
3.7165e-17
3.25968e-17
2.86653e-17
2.52563e-17
2.22816e-17
)
;

boundaryField
{
    wall
    {
        type            zeroGradient;
    }
    fuel
    {
        type            fixedValue;
        value           uniform 0;
    }
    outlet
    {
        type            inletOutlet;
        inletValue      nonuniform 0();
        value           nonuniform 0();
    }
    procBoundary0to1
    {
        type            processor;
        value           uniform 1.96936e-17;
    }
}


// ************************************************************************* //
