/*--------------------------------*- C++ -*----------------------------------*\
| =========                 |                                                 |
| \\      /  F ield         | OpenFOAM: The Open Source CFD Toolbox           |
|  \\    /   O peration     | Version:  dev                                   |
|   \\  /    A nd           | Web:      www.OpenFOAM.org                      |
|    \\/     M anipulation  |                                                 |
\*---------------------------------------------------------------------------*/
FoamFile
{
    version     2.0;
    format      ascii;
    class       volScalarField;
    location    "0.19";
    object      O2;
}
// * * * * * * * * * * * * * * * * * * * * * * * * * * * * * * * * * * * * * //

dimensions      [0 0 0 0 0 0 0];

internalField   nonuniform List<scalar> 
50
(
0.105991
0.0512248
0.0264475
0.0141053
0.00768088
0.00424546
0.00237774
0.00134292
0.000765883
0.000442449
0.000259806
0.000156336
9.64856e-05
6.20588e-05
4.22146e-05
3.07659e-05
2.41642e-05
2.03949e-05
1.82368e-05
1.70098e-05
1.63263e-05
1.59494e-05
1.57485e-05
1.56414e-05
1.55814e-05
1.55405e-05
1.55031e-05
1.54594e-05
1.54039e-05
1.53346e-05
1.5249e-05
1.51472e-05
1.50307e-05
1.4898e-05
1.47505e-05
1.45895e-05
1.44158e-05
1.42305e-05
1.40346e-05
1.38291e-05
1.36149e-05
1.33929e-05
1.31641e-05
1.29294e-05
1.26894e-05
1.2445e-05
1.21969e-05
1.19456e-05
1.16916e-05
1.14352e-05
)
;

boundaryField
{
    wall
    {
        type            zeroGradient;
    }
    fuel
    {
        type            fixedValue;
        value           uniform 0.1914;
    }
    outlet
    {
        type            inletOutlet;
        inletValue      nonuniform 0();
        value           nonuniform 0();
    }
    procBoundary0to1
    {
        type            processor;
        value           uniform 1.11787e-05;
    }
}


// ************************************************************************* //
