/*--------------------------------*- C++ -*----------------------------------*\
| =========                 |                                                 |
| \\      /  F ield         | OpenFOAM: The Open Source CFD Toolbox           |
|  \\    /   O peration     | Version:  dev                                   |
|   \\  /    A nd           | Web:      www.OpenFOAM.org                      |
|    \\/     M anipulation  |                                                 |
\*---------------------------------------------------------------------------*/
FoamFile
{
    version     2.0;
    format      ascii;
    class       volScalarField;
    location    "0.19";
    object      OH;
}
// * * * * * * * * * * * * * * * * * * * * * * * * * * * * * * * * * * * * * //

dimensions      [0 0 0 0 0 0 0];

internalField   nonuniform List<scalar> 
250
(
2.62463e-05
2.64417e-05
2.62643e-05
2.66038e-05
2.62939e-05
2.67979e-05
2.63721e-05
2.52459e-05
2.2014e-05
1.74073e-05
2.46601e-05
2.48731e-05
2.46602e-05
2.50379e-05
2.47074e-05
2.52535e-05
2.48259e-05
2.38721e-05
2.09671e-05
1.66506e-05
7.26607e-06
1.54627e-05
2.13513e-05
2.30751e-05
2.31408e-05
2.31317e-05
2.3117e-05
2.30598e-05
2.30752e-05
2.30477e-05
2.2958e-05
2.31868e-05
2.29425e-05
2.33556e-05
2.30046e-05
2.35921e-05
2.31918e-05
2.23875e-05
1.98296e-05
1.57007e-05
7.46364e-06
1.48777e-05
1.99191e-05
2.13535e-05
2.13487e-05
2.13295e-05
2.13121e-05
2.12459e-05
2.12701e-05
2.12414e-05
2.11457e-05
2.13879e-05
2.11173e-05
2.15617e-05
2.11916e-05
2.18167e-05
2.14436e-05
2.07926e-05
1.85882e-05
1.46257e-05
7.59724e-06
1.4115e-05
1.8364e-05
1.95265e-05
1.9458e-05
1.94289e-05
1.94096e-05
1.93357e-05
1.93672e-05
1.93374e-05
1.92352e-05
1.94886e-05
1.91971e-05
1.96675e-05
1.92808e-05
1.99374e-05
1.95908e-05
1.90924e-05
1.72599e-05
1.34776e-05
7.63018e-06
1.32619e-05
1.66976e-05
1.76102e-05
1.74878e-05
1.74496e-05
1.74291e-05
1.73501e-05
1.73865e-05
1.73561e-05
1.72465e-05
1.75089e-05
1.7202e-05
1.76918e-05
1.72923e-05
1.7972e-05
1.76512e-05
1.72982e-05
1.57231e-05
1.22876e-05
7.5265e-06
1.22083e-05
1.49405e-05
1.56291e-05
1.54666e-05
1.54198e-05
1.53992e-05
1.53178e-05
1.53568e-05
1.53262e-05
1.52077e-05
1.54768e-05
1.5161e-05
1.56622e-05
1.52547e-05
1.59483e-05
1.56515e-05
1.54307e-05
1.42303e-05
1.10746e-05
7.26236e-06
1.10469e-05
1.31241e-05
1.36167e-05
1.34322e-05
1.33764e-05
1.33571e-05
1.3271e-05
1.33157e-05
1.32857e-05
1.31563e-05
1.34288e-05
1.31113e-05
1.36157e-05
1.32048e-05
1.38073e-05
1.36025e-05
1.35184e-05
1.2692e-05
9.81403e-06
6.8277e-06
9.77112e-06
1.12903e-05
1.16146e-05
1.13537e-05
1.13207e-05
1.1299e-05
1.12192e-05
1.125e-05
1.12154e-05
1.11377e-05
1.14085e-05
1.10971e-05
1.15388e-05
1.11872e-05
1.17676e-05
1.15904e-05
1.15999e-05
1.09747e-05
8.60274e-06
6.23139e-06
8.42306e-06
9.46073e-06
9.67412e-06
9.41695e-06
9.38083e-06
9.36152e-06
9.28232e-06
9.31532e-06
9.28262e-06
9.20266e-06
9.46381e-06
9.16743e-06
9.58482e-06
9.25157e-06
9.79427e-06
9.64238e-06
9.72141e-06
9.32774e-06
7.352e-06
5.50169e-06
7.05511e-06
7.73096e-06
7.84525e-06
7.6035e-06
7.56728e-06
7.55069e-06
7.47936e-06
7.50874e-06
7.47882e-06
7.40119e-06
7.64366e-06
7.37078e-06
7.75198e-06
7.44664e-06
7.93748e-06
7.80884e-06
7.93338e-06
7.7611e-06
6.17705e-06
4.68328e-06
5.72309e-06
6.12768e-06
6.17497e-06
5.95838e-06
5.9245e-06
5.91069e-06
5.84902e-06
5.87415e-06
5.8478e-06
5.77679e-06
5.99272e-06
5.75055e-06
6.08593e-06
5.81621e-06
6.24417e-06
6.13696e-06
6.28458e-06
6.27738e-06
5.05736e-06
3.83127e-06
4.48142e-06
4.69571e-06
4.70218e-06
4.5173e-06
4.48756e-06
4.47636e-06
4.42486e-06
4.44591e-06
4.42365e-06
4.3623e-06
4.5464e-06
4.33992e-06
4.62329e-06
4.39426e-06
4.75278e-06
4.66522e-06
4.81672e-06
4.91071e-06
4.01901e-06
3.17636e-06
3.32652e-06
3.15779e-06
3.38717e-06
3.20058e-06
3.48856e-06
3.41837e-06
3.55963e-06
3.70022e-06
3.08472e-06
)
;

boundaryField
{
    fuel
    {
        type            fixedValue;
        value           nonuniform 0();
    }
    wall
    {
        type            zeroGradient;
    }
    outlet
    {
        type            zeroGradient;
    }
    frontAndBack
    {
        type            empty;
    }
    procBoundary0to1
    {
        type            processor;
        value           nonuniform List<scalar> 
21
(
3.00153e-06
3.37504e-06
3.46705e-06
3.45219e-06
3.30231e-06
3.27764e-06
3.26877e-06
3.22744e-06
3.24457e-06
3.22661e-06
3.22661e-06
2.22169e-06
2.33875e-06
2.20693e-06
2.38429e-06
2.23898e-06
2.45987e-06
2.40537e-06
2.52634e-06
2.67481e-06
2.27543e-06
)
;
    }
    procBoundary0to2
    {
        type            processor;
        value           nonuniform List<scalar> 
12
(
2.63247e-05
7.03802e-06
1.58766e-05
2.26566e-05
2.46814e-05
2.48226e-05
2.48235e-05
2.48119e-05
2.47634e-05
2.47701e-05
2.4744e-05
2.4744e-05
)
;
    }
    procBoundary0to3
    {
        type            processor;
        value           nonuniform List<scalar> 10(2.7716e-05 2.78929e-05 2.77538e-05 2.80527e-05 2.77644e-05 2.8225e-05 2.77779e-05 2.66325e-05 2.28869e-05 1.78433e-05);
    }
}


// ************************************************************************* //
