/*--------------------------------*- C++ -*----------------------------------*\
| =========                 |                                                 |
| \\      /  F ield         | OpenFOAM: The Open Source CFD Toolbox           |
|  \\    /   O peration     | Version:  dev                                   |
|   \\  /    A nd           | Web:      www.OpenFOAM.org                      |
|    \\/     M anipulation  |                                                 |
\*---------------------------------------------------------------------------*/
FoamFile
{
    version     2.0;
    format      ascii;
    class       volScalarField;
    location    "0.19";
    object      P2-H;
}
// * * * * * * * * * * * * * * * * * * * * * * * * * * * * * * * * * * * * * //

dimensions      [0 0 0 0 0 0 0];

internalField   nonuniform List<scalar> 
50
(
2.39181e-16
1.35069e-16
7.23324e-17
3.84342e-17
2.04219e-17
1.08846e-17
5.82088e-18
3.1109e-18
1.66236e-18
8.88769e-19
4.74911e-19
2.55132e-19
1.36489e-19
7.30125e-20
3.90593e-20
2.08975e-20
1.11783e-20
6.01423e-21
3.24567e-21
1.75682e-21
9.59985e-22
5.28627e-22
2.97357e-22
1.7167e-22
1.02834e-22
6.42639e-23
4.25483e-23
2.97722e-23
2.19477e-23
1.69659e-23
1.35517e-23
1.10916e-23
9.24454e-24
7.77597e-24
6.57944e-24
5.5858e-24
4.74956e-24
4.04011e-24
3.43561e-24
2.9195e-24
2.47868e-24
2.10235e-24
1.78142e-24
1.50806e-24
1.27553e-24
1.07793e-24
9.10111e-25
7.67584e-25
6.46419e-25
5.43196e-25
)
;

boundaryField
{
    wall
    {
        type            zeroGradient;
    }
    fuel
    {
        type            fixedValue;
        value           uniform 0;
    }
    outlet
    {
        type            inletOutlet;
        inletValue      nonuniform 0();
        value           nonuniform 0();
    }
    procBoundary0to1
    {
        type            processor;
        value           uniform 4.58176e-25;
    }
}


// ************************************************************************* //
