/*--------------------------------*- C++ -*----------------------------------*\
| =========                 |                                                 |
| \\      /  F ield         | OpenFOAM: The Open Source CFD Toolbox           |
|  \\    /   O peration     | Version:  dev                                   |
|   \\  /    A nd           | Web:      www.OpenFOAM.org                      |
|    \\/     M anipulation  |                                                 |
\*---------------------------------------------------------------------------*/
FoamFile
{
    version     2.0;
    format      ascii;
    class       surfaceScalarField;
    location    "0.19";
    object      phi;
}
// * * * * * * * * * * * * * * * * * * * * * * * * * * * * * * * * * * * * * //

dimensions      [1 0 -1 0 0 0 0];

internalField   nonuniform List<scalar> 
466
(
1.77128e-07
6.14678e-06
3.26247e-07
6.1502e-06
4.75739e-07
6.11211e-06
6.23035e-07
6.15844e-06
7.71017e-07
6.13878e-06
9.19804e-07
6.11082e-06
1.05981e-06
6.40463e-06
1.21092e-06
6.61946e-06
1.33889e-06
7.14873e-06
8.20996e-06
1.81516e-07
5.99383e-06
3.35635e-07
5.99604e-06
4.90147e-07
5.95738e-06
6.42455e-07
6.00603e-06
7.95576e-07
5.98549e-06
9.49325e-07
5.95685e-06
1.09556e-06
6.25709e-06
1.25489e-06
6.45832e-06
1.3937e-06
7.00461e-06
7.98723e-06
-1.54153e-06
6.0856e-06
-1.28638e-06
9.07722e-06
-1.11567e-06
5.87233e-06
-9.30752e-07
6.69046e-06
-7.71903e-07
5.98619e-06
-6.08384e-07
5.86037e-06
-4.52907e-07
6.0015e-06
-2.90603e-07
5.74221e-06
-1.34558e-07
5.94181e-06
2.77212e-08
5.78379e-06
1.8594e-07
5.83566e-06
3.45033e-07
5.83689e-06
5.04517e-07
5.79782e-06
6.61825e-07
5.84867e-06
8.2007e-07
5.82706e-06
9.78749e-07
5.79795e-06
1.13114e-06
6.10328e-06
1.29803e-06
6.2895e-06
1.44795e-06
6.84833e-06
7.75888e-06
-1.59685e-06
5.97979e-06
-1.33389e-06
8.82792e-06
-1.15601e-06
5.69502e-06
-9.63334e-07
6.50111e-06
-7.98716e-07
5.81995e-06
-6.29939e-07
5.69295e-06
-4.68627e-07
5.83956e-06
-3.01595e-07
5.57557e-06
-1.40081e-07
5.78026e-06
2.7003e-08
5.61676e-06
1.90422e-07
5.67229e-06
3.54476e-07
5.67278e-06
5.18891e-07
5.63345e-06
6.81199e-07
5.68635e-06
8.4456e-07
5.66348e-06
1.00815e-06
5.63413e-06
1.16661e-06
5.94323e-06
1.34071e-06
6.1134e-06
1.50155e-06
6.68015e-06
7.52499e-06
-1.65053e-06
5.87368e-06
-1.38017e-06
8.57228e-06
-1.19548e-06
5.51024e-06
-9.9545e-07
6.30479e-06
-8.25256e-07
5.64778e-06
-6.51263e-07
5.52054e-06
-4.84186e-07
5.67174e-06
-3.12422e-07
5.40425e-06
-1.45477e-07
5.61325e-06
2.63915e-08
5.4449e-06
1.94981e-07
5.50374e-06
3.63997e-07
5.50368e-06
5.33311e-07
5.46426e-06
7.00638e-07
5.51909e-06
8.69113e-07
5.49476e-06
1.03759e-06
5.4654e-06
1.20211e-06
5.77698e-06
1.3831e-06
5.9304e-06
1.55461e-06
6.50058e-06
7.28586e-06
-1.70293e-06
5.7647e-06
-1.42536e-06
8.31179e-06
-1.23427e-06
5.31828e-06
-1.02722e-06
6.10188e-06
-8.51603e-07
5.46979e-06
-6.7242e-07
5.34318e-06
-4.99633e-07
5.49808e-06
-3.23116e-07
5.22825e-06
-1.50761e-07
5.44081e-06
2.58889e-08
5.2682e-06
1.99633e-07
5.33003e-06
3.73631e-07
5.32959e-06
5.47822e-07
5.29023e-06
7.20203e-07
5.34684e-06
8.93798e-07
5.32086e-06
1.06715e-06
5.29177e-06
1.23773e-06
5.60448e-06
1.4252e-06
5.74097e-06
1.60708e-06
6.31009e-06
7.04157e-06
-1.75439e-06
5.65078e-06
-1.46953e-06
8.04372e-06
-1.27257e-06
5.11957e-06
-1.0588e-06
5.89272e-06
-8.77858e-07
5.28601e-06
-6.93493e-07
5.16089e-06
-5.15029e-07
5.31861e-06
-3.33719e-07
5.04757e-06
-1.55954e-07
5.26291e-06
2.54927e-08
5.08673e-06
2.04394e-07
5.15115e-06
3.83413e-07
5.15045e-06
5.62474e-07
5.11131e-06
7.39967e-07
5.16946e-06
9.18697e-07
5.14178e-06
1.09693e-06
5.11322e-06
1.27363e-06
5.42568e-06
1.46738e-06
5.5454e-06
1.65928e-06
6.10906e-06
6.79232e-06
-1.80532e-06
5.53012e-06
-1.51272e-06
7.76591e-06
-1.31062e-06
4.91475e-06
-1.09058e-06
5.67782e-06
-9.04326e-07
5.09699e-06
-7.14583e-07
4.97349e-06
-5.3045e-07
5.13333e-06
-3.44285e-07
4.86219e-06
-1.61086e-07
5.07956e-06
2.51964e-08
4.90052e-06
2.09276e-07
4.96708e-06
3.93379e-07
4.9662e-06
5.77325e-07
4.92742e-06
7.60018e-07
4.98665e-06
9.43906e-07
4.95745e-06
1.12703e-06
4.92975e-06
1.30993e-06
5.24047e-06
1.50968e-06
5.34408e-06
1.71127e-06
5.89802e-06
6.53805e-06
-1.85633e-06
5.39583e-06
-1.55483e-06
7.48035e-06
-1.34868e-06
4.70484e-06
-1.12241e-06
5.4573e-06
-9.30933e-07
4.90223e-06
-7.35908e-07
4.78118e-06
-5.45989e-07
4.94211e-06
-3.54918e-07
4.67212e-06
-1.66222e-07
4.89072e-06
2.49965e-08
4.70958e-06
2.14314e-07
4.77784e-06
4.03625e-07
4.77671e-06
5.9259e-07
4.73853e-06
7.80623e-07
4.79839e-06
9.69799e-07
4.76782e-06
1.15778e-06
4.74138e-06
1.34683e-06
5.04889e-06
1.55241e-06
5.13725e-06
1.76336e-06
5.67738e-06
6.27871e-06
-1.90792e-06
5.24636e-06
-1.59642e-06
7.18534e-06
-1.38708e-06
4.49063e-06
-1.15467e-06
5.23131e-06
-9.57843e-07
4.70155e-06
-7.57439e-07
4.58383e-06
-5.61755e-07
4.74495e-06
-3.65638e-07
4.47723e-06
-1.71345e-07
4.69627e-06
2.48636e-08
4.51384e-06
2.19507e-07
4.58327e-06
4.14093e-07
4.58191e-06
6.08096e-07
4.54449e-06
8.01592e-07
4.60435e-06
9.96057e-07
4.57282e-06
1.18904e-06
4.54797e-06
1.38453e-06
4.85064e-06
1.59586e-06
4.92508e-06
1.81586e-06
5.4475e-06
6.01416e-06
-1.96051e-06
5.07729e-06
-1.63807e-06
6.87881e-06
-1.42617e-06
4.27262e-06
-1.18761e-06
4.99991e-06
-9.85361e-07
4.49484e-06
-7.79444e-07
4.38136e-06
-5.77882e-07
4.54171e-06
-3.76565e-07
4.27736e-06
-1.76538e-07
4.49603e-06
2.47949e-08
4.31307e-06
2.24888e-07
4.38326e-06
4.24902e-07
4.38165e-06
6.24073e-07
4.34519e-06
8.23219e-07
4.40453e-06
1.02308e-06
4.37234e-06
1.22119e-06
4.3494e-06
1.4233e-06
4.64551e-06
1.64037e-06
4.70764e-06
1.86914e-06
5.20866e-06
5.74418e-06
-2.01384e-06
4.89121e-06
-1.68046e-06
6.5604e-06
-1.46641e-06
4.05107e-06
-1.22155e-06
4.76303e-06
-1.01376e-06
4.2819e-06
-8.02137e-07
4.17364e-06
-5.94534e-07
4.3322e-06
-3.87818e-07
4.07233e-06
-1.8186e-07
4.28982e-06
2.47746e-08
4.10701e-06
2.30496e-07
4.17761e-06
4.36134e-07
4.17572e-06
6.40662e-07
4.14052e-06
8.45693e-07
4.19884e-06
1.05111e-06
4.16624e-06
1.25449e-06
4.14551e-06
1.46346e-06
4.43327e-06
1.68635e-06
4.48484e-06
1.92369e-06
4.96111e-06
5.46845e-06
-2.06918e-06
-1.72435e-06
-1.50839e-06
-1.25687e-06
-1.04338e-06
-8.25784e-07
-6.11911e-07
-3.99542e-07
-1.87383e-07
2.47875e-08
2.36382e-07
3.96609e-06
4.47899e-07
3.96386e-06
6.58039e-07
3.93027e-06
8.69253e-07
3.98703e-06
1.08042e-06
3.95431e-06
1.28932e-06
3.93607e-06
1.50544e-06
4.21359e-06
1.73431e-06
4.25654e-06
1.9801e-06
4.70491e-06
5.18655e-06
2.42614e-07
4.6034e-07
6.76429e-07
8.942e-07
1.11139e-06
1.32614e-06
1.54977e-06
1.78493e-06
2.0391e-06
)
;

boundaryField
{
    fuel
    {
        type            calculated;
        value           nonuniform 0();
    }
    wall
    {
        type            calculated;
        value           nonuniform 0();
    }
    outlet
    {
        type            calculated;
        value           nonuniform List<scalar> 
25
(
1.66286e-06
1.7261e-06
1.7873e-06
1.84713e-06
1.90632e-06
1.96575e-06
2.02674e-06
2.08971e-06
2.1548e-06
2.22074e-06
2.2892e-06
1.52786e-06
1.58767e-06
1.64733e-06
1.70672e-06
1.7658e-06
1.82462e-06
1.8833e-06
1.94199e-06
2.00095e-06
2.06048e-06
2.12099e-06
2.18301e-06
2.24719e-06
2.31437e-06
)
;
    }
    frontAndBack
    {
        type            empty;
        value           nonuniform 0();
    }
    procBoundary0to1
    {
        type            processor;
        value           nonuniform List<scalar> 
21
(
4.68865e-06
6.22988e-06
3.82602e-06
4.52041e-06
4.06253e-06
3.96047e-06
4.11614e-06
3.86184e-06
4.07735e-06
3.89536e-06
-2.48189e-08
3.74838e-06
3.74574e-06
3.71412e-06
3.76871e-06
3.73626e-06
3.72076e-06
3.98608e-06
4.02247e-06
4.44002e-06
4.89792e-06
)
;
    }
    procBoundary0to2
    {
        type            processor;
        value           nonuniform List<scalar> 
12
(
-2.94399e-08
-6.19426e-06
-9.32211e-06
-6.04198e-06
-6.87242e-06
-6.1464e-06
-6.02274e-06
-6.15752e-06
-5.90417e-06
-6.09788e-06
-2.85384e-08
-5.94597e-06
)
;
    }
    procBoundary0to3
    {
        type            processor;
        value           nonuniform List<scalar> 10(-6.29446e-06 -6.29936e-06 -6.26196e-06 -6.30586e-06 -6.28694e-06 -6.25984e-06 -6.54582e-06 -6.77224e-06 -7.28079e-06 -8.4277e-06);
    }
}


// ************************************************************************* //
