/*--------------------------------*- C++ -*----------------------------------*\
| =========                 |                                                 |
| \\      /  F ield         | OpenFOAM: The Open Source CFD Toolbox           |
|  \\    /   O peration     | Version:  dev                                   |
|   \\  /    A nd           | Web:      www.OpenFOAM.org                      |
|    \\/     M anipulation  |                                                 |
\*---------------------------------------------------------------------------*/
FoamFile
{
    version     2.0;
    format      ascii;
    class       volScalarField;
    location    "0.19";
    object      T;
}
// * * * * * * * * * * * * * * * * * * * * * * * * * * * * * * * * * * * * * //

dimensions      [0 0 0 1 0 0 0];

internalField   nonuniform List<scalar> 
250
(
2008.28
2009.14
2008.33
2009.84
2008.5
2010.55
2008.26
2001.7
1982.69
1952.67
2000.79
2001.8
2000.77
2002.57
2001.03
2003.46
2001.09
1995.18
1977.45
1948.51
1821.26
1939.56
1981.86
1992.31
1993.02
1993.05
1992.98
1992.65
1992.75
1992.6
1992.14
1993.31
1992.05
1994.16
1992.4
1995.24
1992.92
1987.62
1971.27
1942.48
1834.2
1936.13
1973.7
1982.95
1983.25
1983.2
1983.1
1982.71
1982.86
1982.68
1982.15
1983.49
1981.99
1984.46
1982.44
1985.74
1983.45
1978.84
1963.97
1934.95
1843.87
1930.91
1964.06
1972.11
1971.96
1971.83
1971.72
1971.24
1971.44
1971.24
1970.61
1972.17
1970.39
1973.25
1970.94
1974.76
1972.49
1968.65
1955.45
1926.12
1850.15
1924.18
1952.7
1959.56
1958.96
1958.74
1958.6
1958.05
1958.29
1958.07
1957.31
1959.12
1957.03
1960.34
1957.68
1962.09
1959.83
1956.81
1944.82
1916.01
1852.89
1914.99
1939.38
1945.06
1944
1943.67
1943.52
1942.88
1943.17
1942.92
1942.01
1944.1
1941.68
1945.48
1942.43
1947.46
1945.21
1943.08
1933.19
1904.51
1851.91
1903.55
1923.82
1928.33
1926.82
1926.38
1926.2
1925.43
1925.81
1925.52
1924.42
1926.86
1924.06
1928.41
1924.92
1930.05
1928.23
1927.16
1919.66
1891.17
1846.99
1889.29
1905.72
1909.08
1906.58
1906.23
1906.01
1905.18
1905.5
1905.12
1904.28
1907.1
1903.89
1908.43
1904.85
1910.64
1908.85
1908.75
1902.68
1876.33
1837.88
1871.86
1884.52
1886.98
1883.99
1883.53
1883.29
1882.31
1882.71
1882.29
1881.27
1884.52
1880.85
1885.98
1881.93
1888.41
1886.61
1887.52
1883.55
1858.6
1824.31
1850.91
1860.25
1861.7
1858.21
1857.63
1857.38
1856.29
1856.74
1856.27
1855.06
1858.76
1854.61
1860.35
1855.79
1862.99
1861.17
1863.1
1861.68
1838.7
1805.96
1826.01
1832.3
1832.84
1828.86
1828.18
1827.9
1826.72
1827.2
1826.68
1825.29
1829.46
1824.79
1831.18
1826.08
1834.02
1832.14
1835.09
1836.33
1815.61
1782.46
1796.74
1800.27
1799.98
1795.53
1794.75
1794.45
1793.16
1793.7
1793.12
1791.56
1796.21
1790.99
1798.04
1792.38
1801.06
1799.09
1803.07
1806.88
1788.78
1753.42
1758.56
1752.77
1760.49
1754.25
1763.66
1761.58
1766.55
1772.79
1757.57
)
;

boundaryField
{
    fuel
    {
        type            fixedValue;
        value           nonuniform 0();
    }
    wall
    {
        type            fixedValue;
        value           nonuniform 0();
    }
    outlet
    {
        type            inletOutlet;
        inletValue      uniform 353;
        value           nonuniform List<scalar> 
25
(
1821.42
1834.42
1844.11
1850.39
1853.13
1852.14
1847.21
1838.09
1824.51
1806.14
1782.62
1952.9
1948.47
1942.24
1934.57
1925.65
1915.52
1904.08
1890.56
1875.83
1858.28
1838.36
1815.33
1788.58
1757.43
)
;
    }
    frontAndBack
    {
        type            empty;
    }
    procBoundary0to1
    {
        type            processor;
        value           nonuniform List<scalar> 
21
(
1753.41
1762.63
1763.67
1762.67
1757.79
1756.9
1756.58
1755.18
1755.77
1755.14
1755.14
1710.38
1716.02
1709.64
1718.04
1711.2
1721.32
1719.09
1725.02
1733.49
1721.3
)
;
    }
    procBoundary0to2
    {
        type            processor;
        value           nonuniform List<scalar> 
12
(
2008.62
1805.02
1941.43
1988.75
2000.39
2001.49
2001.58
2001.53
2001.27
2001.32
2001.18
2001.18
)
;
    }
    procBoundary0to3
    {
        type            processor;
        value           nonuniform List<scalar> 10(2014.76 2015.49 2014.87 2016.13 2014.97 2016.69 2014.37 2007.72 1986.77 1954.52);
    }
}


// ************************************************************************* //
