/*--------------------------------*- C++ -*----------------------------------*\
| =========                 |                                                 |
| \\      /  F ield         | OpenFOAM: The Open Source CFD Toolbox           |
|  \\    /   O peration     | Version:  dev                                   |
|   \\  /    A nd           | Web:      www.OpenFOAM.org                      |
|    \\/     M anipulation  |                                                 |
\*---------------------------------------------------------------------------*/
FoamFile
{
    version     2.0;
    format      ascii;
    class       volScalarField;
    location    "0.08";
    object      A2-2;
}
// * * * * * * * * * * * * * * * * * * * * * * * * * * * * * * * * * * * * * //

dimensions      [0 0 0 0 0 0 0];

internalField   nonuniform List<scalar> 
100
(
6.579e-15
7.1549e-15
8.13914e-15
8.64164e-15
8.03747e-15
6.66329e-15
5.18902e-15
4.01366e-15
3.18191e-15
2.62593e-15
2.2678e-15
2.04846e-15
1.93308e-15
1.90785e-15
1.97729e-15
2.16671e-15
2.52753e-15
3.14508e-15
4.14542e-15
5.69598e-15
7.99353e-15
1.1236e-14
1.55773e-14
2.10852e-14
2.77027e-14
3.52364e-14
4.3372e-14
5.17191e-14
5.98649e-14
6.74272e-14
7.40953e-14
7.9649e-14
8.39653e-14
8.70074e-14
8.88095e-14
8.9456e-14
8.90606e-14
8.77574e-14
8.56888e-14
8.29894e-14
7.97598e-14
7.61666e-14
7.22888e-14
6.81935e-14
6.40072e-14
5.97749e-14
5.55359e-14
5.1375e-14
4.72732e-14
4.33326e-14
3.95377e-14
3.59075e-14
3.24561e-14
2.91655e-14
2.60511e-14
2.31395e-14
2.0483e-14
1.80204e-14
1.5727e-14
1.36788e-14
1.18215e-14
1.01477e-14
8.6494e-15
7.31758e-15
6.14206e-15
5.11275e-15
4.21408e-15
3.44838e-15
2.79804e-15
2.24267e-15
1.78768e-15
1.41291e-15
1.1078e-15
8.62225e-16
6.66706e-16
5.12653e-16
3.92391e-16
2.9942e-16
2.28054e-16
1.72578e-16
1.3284e-16
1.0314e-16
8.11393e-17
6.46097e-17
5.27071e-17
4.38729e-17
3.72516e-17
3.22067e-17
2.82584e-17
2.50433e-17
2.22637e-17
1.97642e-17
1.74268e-17
1.5125e-17
1.30163e-17
1.07632e-17
8.51355e-18
6.04025e-18
3.65561e-18
1.70997e-18
)
;

boundaryField
{
    wall
    {
        type            zeroGradient;
    }
    fuel
    {
        type            fixedValue;
        value           uniform 0;
    }
    outlet
    {
        type            inletOutlet;
        inletValue      uniform 0;
        value           uniform 1.70997e-18;
    }
}


// ************************************************************************* //
