/*--------------------------------*- C++ -*----------------------------------*\
| =========                 |                                                 |
| \\      /  F ield         | OpenFOAM: The Open Source CFD Toolbox           |
|  \\    /   O peration     | Version:  dev                                   |
|   \\  /    A nd           | Web:      www.OpenFOAM.org                      |
|    \\/     M anipulation  |                                                 |
\*---------------------------------------------------------------------------*/
FoamFile
{
    version     2.0;
    format      ascii;
    class       volScalarField;
    location    "0.08";
    object      A3-1;
}
// * * * * * * * * * * * * * * * * * * * * * * * * * * * * * * * * * * * * * //

dimensions      [0 0 0 0 0 0 0];

internalField   nonuniform List<scalar> 
100
(
5.34445e-15
3.88717e-15
3.02054e-15
2.49935e-15
2.07824e-15
1.71e-15
1.39816e-15
1.14949e-15
9.60328e-16
8.23084e-16
7.2932e-16
6.71978e-16
6.47311e-16
6.54031e-16
6.9216e-16
7.62025e-16
8.62933e-16
9.92349e-16
1.14562e-15
1.31622e-15
1.49632e-15
1.67763e-15
1.85199e-15
2.01235e-15
2.15303e-15
2.26995e-15
2.36065e-15
2.42421e-15
2.46095e-15
2.47224e-15
2.4601e-15
2.42703e-15
2.37572e-15
2.30897e-15
2.22947e-15
2.13964e-15
2.04213e-15
1.93896e-15
1.83213e-15
1.72331e-15
1.61305e-15
1.50434e-15
1.39735e-15
1.29232e-15
1.1912e-15
1.09395e-15
1.0006e-15
9.12287e-16
8.27984e-16
7.49279e-16
6.75392e-16
6.06312e-16
5.41984e-16
4.818e-16
4.25831e-16
3.74353e-16
3.28094e-16
2.85811e-16
2.46955e-16
2.12693e-16
1.81994e-16
1.54648e-16
1.30442e-16
1.09167e-16
9.05964e-17
7.45123e-17
6.06364e-17
4.89537e-17
3.91532e-17
3.08926e-17
2.42156e-17
1.8793e-17
1.44429e-17
1.0995e-17
8.29354e-18
6.20051e-18
4.59537e-18
3.37842e-18
2.46375e-18
1.76914e-18
1.28401e-18
9.31559e-19
6.78707e-19
4.95647e-19
3.69444e-19
2.80567e-19
2.18102e-19
1.74141e-19
1.42926e-19
1.20341e-19
1.03224e-19
8.96354e-20
7.81012e-20
6.74645e-20
5.80371e-20
4.80696e-20
3.81046e-20
2.70889e-20
1.64145e-20
7.68172e-21
)
;

boundaryField
{
    wall
    {
        type            zeroGradient;
    }
    fuel
    {
        type            fixedValue;
        value           uniform 0;
    }
    outlet
    {
        type            inletOutlet;
        inletValue      uniform 0;
        value           uniform 7.68172e-21;
    }
}


// ************************************************************************* //
