/*--------------------------------*- C++ -*----------------------------------*\
| =========                 |                                                 |
| \\      /  F ield         | OpenFOAM: The Open Source CFD Toolbox           |
|  \\    /   O peration     | Version:  dev                                   |
|   \\  /    A nd           | Web:      www.OpenFOAM.org                      |
|    \\/     M anipulation  |                                                 |
\*---------------------------------------------------------------------------*/
FoamFile
{
    version     2.0;
    format      ascii;
    class       volScalarField;
    location    "0.08";
    object      C;
}
// * * * * * * * * * * * * * * * * * * * * * * * * * * * * * * * * * * * * * //

dimensions      [0 0 0 0 0 0 0];

internalField   nonuniform List<scalar> 
100
(
2.07993e-06
3.77754e-06
4.59281e-06
4.8863e-06
4.66382e-06
4.03902e-06
3.22385e-06
2.41178e-06
1.72732e-06
1.20234e-06
8.22417e-07
5.57701e-07
3.76686e-07
2.54423e-07
1.72842e-07
1.18279e-07
8.16899e-08
5.70111e-08
4.02247e-08
2.86876e-08
2.06659e-08
1.50208e-08
1.10011e-08
8.1074e-09
6.00439e-09
4.46385e-09
3.328e-09
2.48539e-09
1.85936e-09
1.39299e-09
1.04498e-09
7.8495e-10
5.90447e-10
4.448e-10
3.35609e-10
2.53642e-10
1.92023e-10
1.45631e-10
1.10657e-10
8.42232e-11
6.40312e-11
4.86761e-11
3.7161e-11
2.841e-11
2.17531e-11
1.66807e-11
1.28105e-11
9.85004e-12
7.58746e-12
5.85449e-12
4.52612e-12
3.4984e-12
2.71546e-12
2.10068e-12
1.62885e-12
1.26652e-12
9.9319e-13
7.80538e-13
6.15046e-13
4.89919e-13
3.92973e-13
3.1755e-13
2.58605e-13
2.12332e-13
1.75002e-13
1.45514e-13
1.2185e-13
1.02703e-13
8.70878e-14
7.3994e-14
6.33445e-14
5.44405e-14
4.69329e-14
4.05501e-14
3.5084e-14
3.03882e-14
2.62423e-14
2.25811e-14
1.94478e-14
1.68847e-14
1.46803e-14
1.27797e-14
1.11346e-14
9.70757e-15
8.45535e-15
7.31763e-15
6.38712e-15
5.57229e-15
4.85483e-15
4.2177e-15
3.65765e-15
3.16197e-15
2.71765e-15
2.30834e-15
1.94147e-15
1.58182e-15
1.24753e-15
8.94264e-16
5.63026e-16
3.1403e-16
)
;

boundaryField
{
    front
    {
        type            wedge;
    }
    back
    {
        type            wedge;
    }
    wall
    {
        type            zeroGradient;
    }
    fuel
    {
        type            fixedValue;
        value           uniform 0;
    }
    outlet
    {
        type            inletOutlet;
        inletValue      uniform 0;
        value           uniform 3.1403e-16;
    }
    axis
    {
        type            empty;
    }
}


// ************************************************************************* //
