/*--------------------------------*- C++ -*----------------------------------*\
| =========                 |                                                 |
| \\      /  F ield         | OpenFOAM: The Open Source CFD Toolbox           |
|  \\    /   O peration     | Version:  dev                                   |
|   \\  /    A nd           | Web:      www.OpenFOAM.org                      |
|    \\/     M anipulation  |                                                 |
\*---------------------------------------------------------------------------*/
FoamFile
{
    version     2.0;
    format      ascii;
    class       volScalarField;
    location    "0.08";
    object      moment.1.populationBalance;
}
// * * * * * * * * * * * * * * * * * * * * * * * * * * * * * * * * * * * * * //

dimensions      [0 -2 0 0 0 0 0];

internalField   nonuniform List<scalar> 
100
(
0.00305972
0.00249455
0.00230017
0.00219129
0.00208097
0.00198073
0.00188
0.00179633
0.00172135
0.0016614
0.00161098
0.00156598
0.00152768
0.0014925
0.00145844
0.00142672
0.00139408
0.00136129
0.00132866
0.00129653
0.00126576
0.00123607
0.00120801
0.00118337
0.00116003
0.00114043
0.00112394
0.00111023
0.00110119
0.00109522
0.00109317
0.00109487
0.0011008
0.00111086
0.00112565
0.00114438
0.00116768
0.00119581
0.00122836
0.00126671
0.0013104
0.0013595
0.00141419
0.00147437
0.00154017
0.00161189
0.00168937
0.00177411
0.0018632
0.00196119
0.00206476
0.00217303
0.00228874
0.00240638
0.00252994
0.00265876
0.00279191
0.00292819
0.00306875
0.00321502
0.00336474
0.00351994
0.00367867
0.0038404
0.0040066
0.00417398
0.00434295
0.00451203
0.0046819
0.00485285
0.00502427
0.00519502
0.00536412
0.00553181
0.00569806
0.00586283
0.00602107
0.00616722
0.00630011
0.00643178
0.00656437
0.00668517
0.00679192
0.00688939
0.00698128
0.007067
0.00714025
0.00720575
0.00726636
0.00732316
0.00736929
0.00738434
0.00736278
0.00735391
0.00736808
0.00738853
0.00740583
0.00735003
0.00707504
0.00638013
)
;

boundaryField
{
    wall
    {
        type            zeroGradient;
    }
    fuel
    {
        type            zeroGradient;
    }
    outlet
    {
        type            zeroGradient;
    }
}


// ************************************************************************* //
