/*--------------------------------*- C++ -*----------------------------------*\
| =========                 |                                                 |
| \\      /  F ield         | OpenFOAM: The Open Source CFD Toolbox           |
|  \\    /   O peration     | Version:  dev                                   |
|   \\  /    A nd           | Web:      www.OpenFOAM.org                      |
|    \\/     M anipulation  |                                                 |
\*---------------------------------------------------------------------------*/
FoamFile
{
    version     2.0;
    format      ascii;
    class       volScalarField;
    location    "0.04";
    object      A2C2HA*;
}
// * * * * * * * * * * * * * * * * * * * * * * * * * * * * * * * * * * * * * //

dimensions      [0 0 0 0 0 0 0];

internalField   nonuniform List<scalar> 
25
(
1.33579e-14
1.31718e-14
1.29336e-14
1.26538e-14
1.23473e-14
1.20188e-14
1.16722e-14
1.13083e-14
1.0926e-14
1.05236e-14
1.00989e-14
9.65065e-15
9.17858e-15
8.6837e-15
8.16841e-15
7.63632e-15
7.09204e-15
6.54095e-15
5.98887e-15
5.44177e-15
4.90555e-15
4.38582e-15
3.88772e-15
3.41589e-15
2.97286e-15
)
;

boundaryField
{
    wall
    {
        type            zeroGradient;
    }
    fuel
    {
        type            fixedValue;
        value           nonuniform 0();
    }
    outlet
    {
        type            inletOutlet;
        inletValue      nonuniform 0();
        value           nonuniform 0();
    }
    procBoundary2to1
    {
        type            processor;
        value           uniform 1.34765e-14;
    }
    procBoundary2to3
    {
        type            processor;
        value           uniform 2.56394e-15;
    }
}


// ************************************************************************* //
