/*--------------------------------*- C++ -*----------------------------------*\
| =========                 |                                                 |
| \\      /  F ield         | OpenFOAM: The Open Source CFD Toolbox           |
|  \\    /   O peration     | Version:  dev                                   |
|   \\  /    A nd           | Web:      www.OpenFOAM.org                      |
|    \\/     M anipulation  |                                                 |
\*---------------------------------------------------------------------------*/
FoamFile
{
    version     2.0;
    format      ascii;
    class       volScalarField;
    location    "0.04";
    object      A2C2HA;
}
// * * * * * * * * * * * * * * * * * * * * * * * * * * * * * * * * * * * * * //

dimensions      [0 0 0 0 0 0 0];

internalField   nonuniform List<scalar> 
25
(
2.07245e-12
2.26535e-12
2.47181e-12
2.69563e-12
2.93376e-12
3.18892e-12
3.46093e-12
3.7485e-12
4.04921e-12
4.35951e-12
4.67486e-12
4.98984e-12
5.29847e-12
5.59442e-12
5.87137e-12
6.12323e-12
6.34451e-12
6.53051e-12
6.67757e-12
6.78318e-12
6.84614e-12
6.86657e-12
6.84595e-12
6.78705e-12
6.69361e-12
)
;

boundaryField
{
    wall
    {
        type            zeroGradient;
    }
    fuel
    {
        type            fixedValue;
        value           nonuniform 0();
    }
    outlet
    {
        type            inletOutlet;
        inletValue      nonuniform 0();
        value           nonuniform 0();
    }
    procBoundary2to1
    {
        type            processor;
        value           uniform 1.8914e-12;
    }
    procBoundary2to3
    {
        type            processor;
        value           uniform 6.57137e-12;
    }
}


// ************************************************************************* //
