/*--------------------------------*- C++ -*----------------------------------*\
| =========                 |                                                 |
| \\      /  F ield         | OpenFOAM: The Open Source CFD Toolbox           |
|  \\    /   O peration     | Version:  dev                                   |
|   \\  /    A nd           | Web:      www.OpenFOAM.org                      |
|    \\/     M anipulation  |                                                 |
\*---------------------------------------------------------------------------*/
FoamFile
{
    version     2.0;
    format      ascii;
    class       volScalarField;
    location    "0.04";
    object      A2R5-;
}
// * * * * * * * * * * * * * * * * * * * * * * * * * * * * * * * * * * * * * //

dimensions      [0 0 0 0 0 0 0];

internalField   nonuniform List<scalar> 
1997
(
4.02802e-09
4.0382e-09
4.03731e-09
4.03719e-09
4.03227e-09
4.02894e-09
4.02414e-09
4.02138e-09
4.01861e-09
4.01702e-09
4.01547e-09
4.01461e-09
4.01368e-09
4.01324e-09
4.01267e-09
4.01246e-09
4.01211e-09
4.01202e-09
3.91637e-09
3.92585e-09
3.92409e-09
3.92338e-09
3.91815e-09
3.91456e-09
3.90951e-09
3.90667e-09
3.90382e-09
3.9022e-09
3.90063e-09
3.89976e-09
3.89882e-09
3.89837e-09
3.89779e-09
3.89758e-09
3.89723e-09
3.89714e-09
3.89694e-09
3.8969e-09
3.89676e-09
3.89674e-09
3.89666e-09
3.89666e-09
3.89663e-09
3.89663e-09
3.89666e-09
3.89667e-09
3.80814e-09
3.81678e-09
3.81425e-09
3.8131e-09
3.80772e-09
3.804e-09
3.79888e-09
3.796e-09
3.79313e-09
3.79151e-09
3.78996e-09
3.78908e-09
3.78814e-09
3.78769e-09
3.78712e-09
3.78691e-09
3.78656e-09
3.78646e-09
3.78626e-09
3.78622e-09
3.78609e-09
3.78607e-09
3.78599e-09
3.78598e-09
3.78596e-09
3.78596e-09
3.78598e-09
3.786e-09
3.7861e-09
3.78612e-09
3.78626e-09
3.7863e-09
3.78653e-09
3.78662e-09
3.78697e-09
3.78719e-09
3.78776e-09
3.78821e-09
3.78914e-09
3.79002e-09
3.70158e-09
3.70941e-09
3.70614e-09
3.70456e-09
3.69904e-09
3.6952e-09
3.69e-09
3.68708e-09
3.68419e-09
3.68256e-09
3.68102e-09
3.68014e-09
3.67922e-09
3.67876e-09
3.67819e-09
3.67797e-09
3.67763e-09
3.67753e-09
3.67733e-09
3.67729e-09
3.67716e-09
3.67714e-09
3.67706e-09
3.67705e-09
3.67702e-09
3.67702e-09
3.67705e-09
3.67706e-09
3.67717e-09
3.67719e-09
3.67733e-09
3.67738e-09
3.6776e-09
3.6777e-09
3.67805e-09
3.67827e-09
3.67883e-09
3.67929e-09
3.68021e-09
3.68109e-09
3.68264e-09
3.68428e-09
3.68715e-09
3.69009e-09
3.69527e-09
3.69911e-09
3.70464e-09
3.70621e-09
3.70947e-09
3.70165e-09
3.59663e-09
3.60368e-09
3.59968e-09
3.59769e-09
3.59203e-09
3.58806e-09
3.58279e-09
3.57984e-09
3.57691e-09
3.57529e-09
3.57377e-09
3.57288e-09
3.57196e-09
3.5715e-09
3.57094e-09
3.57072e-09
3.57037e-09
3.57027e-09
3.57008e-09
3.57003e-09
3.5699e-09
3.56988e-09
3.5698e-09
3.56979e-09
3.56977e-09
3.56977e-09
3.56979e-09
3.56981e-09
3.56991e-09
3.56993e-09
3.57007e-09
3.57012e-09
3.57034e-09
3.57044e-09
3.57079e-09
3.57102e-09
3.57158e-09
3.57204e-09
3.57295e-09
3.57383e-09
3.57537e-09
3.57701e-09
3.57991e-09
3.58291e-09
3.58814e-09
3.5921e-09
3.59777e-09
3.59975e-09
3.60374e-09
3.59669e-09
3.49319e-09
3.4995e-09
3.4948e-09
3.49241e-09
3.48661e-09
3.48253e-09
3.47719e-09
3.47419e-09
3.47124e-09
3.46961e-09
3.46803e-09
3.46712e-09
3.46618e-09
3.4657e-09
3.46512e-09
3.46489e-09
3.46454e-09
3.46445e-09
3.46424e-09
3.4642e-09
3.46407e-09
3.46405e-09
3.46397e-09
3.46396e-09
3.46393e-09
3.46393e-09
3.46396e-09
3.46397e-09
3.46407e-09
3.4641e-09
3.46424e-09
3.46429e-09
3.46451e-09
3.46461e-09
3.46497e-09
3.4652e-09
3.46578e-09
3.46625e-09
3.46719e-09
3.4681e-09
3.46969e-09
3.47134e-09
3.47426e-09
3.47733e-09
3.48261e-09
3.48668e-09
3.49249e-09
3.49487e-09
3.49957e-09
3.49326e-09
3.39121e-09
3.39681e-09
3.39141e-09
3.38865e-09
3.38271e-09
3.37852e-09
3.37307e-09
3.37006e-09
3.36709e-09
3.36545e-09
3.36388e-09
3.36297e-09
3.36203e-09
3.36155e-09
3.36097e-09
3.36074e-09
3.36038e-09
3.36029e-09
3.36009e-09
3.36004e-09
3.35991e-09
3.35989e-09
3.35981e-09
3.3598e-09
3.35977e-09
3.35977e-09
3.3598e-09
3.35981e-09
3.35991e-09
3.35994e-09
3.36008e-09
3.36013e-09
3.36035e-09
3.36045e-09
3.36081e-09
3.36105e-09
3.36163e-09
3.36211e-09
3.36304e-09
3.36395e-09
3.36553e-09
3.36719e-09
3.37012e-09
3.37326e-09
3.3786e-09
3.38278e-09
3.38872e-09
3.39148e-09
3.39688e-09
3.39127e-09
3.29061e-09
3.29555e-09
3.28946e-09
3.28633e-09
3.28028e-09
3.27598e-09
3.27033e-09
3.26735e-09
3.26438e-09
3.26273e-09
3.26117e-09
3.26026e-09
3.25933e-09
3.25884e-09
3.25827e-09
3.25802e-09
3.25767e-09
3.25756e-09
3.25736e-09
3.25732e-09
3.25719e-09
3.25716e-09
3.25709e-09
3.25708e-09
3.25705e-09
3.25705e-09
3.25708e-09
3.25709e-09
3.25719e-09
3.25722e-09
3.25735e-09
3.25741e-09
3.25762e-09
3.25773e-09
3.2581e-09
3.25834e-09
3.25891e-09
3.2594e-09
3.26033e-09
3.26123e-09
3.2628e-09
3.26449e-09
3.26742e-09
3.27053e-09
3.27606e-09
3.28035e-09
3.2864e-09
3.28953e-09
3.29561e-09
3.29067e-09
3.18969e-09
3.19428e-09
3.18749e-09
3.18397e-09
3.17769e-09
3.17322e-09
3.16887e-09
3.16603e-09
3.16307e-09
3.16139e-09
3.15983e-09
3.15893e-09
3.158e-09
3.15751e-09
3.15694e-09
3.15669e-09
3.15632e-09
3.15622e-09
3.15602e-09
3.15597e-09
3.15584e-09
3.15582e-09
3.15574e-09
3.15573e-09
3.1557e-09
3.1557e-09
3.15573e-09
3.15575e-09
3.15584e-09
3.15587e-09
3.15601e-09
3.15606e-09
3.15627e-09
3.1564e-09
3.15676e-09
3.15701e-09
3.15759e-09
3.15808e-09
3.15899e-09
3.1599e-09
3.16145e-09
3.16317e-09
3.16609e-09
3.16883e-09
3.17329e-09
3.17775e-09
3.18404e-09
3.18755e-09
3.19434e-09
3.18975e-09
3.09151e-09
3.09561e-09
3.08812e-09
3.08427e-09
3.07787e-09
3.07334e-09
3.06878e-09
3.06596e-09
3.06289e-09
3.06113e-09
3.05951e-09
3.0586e-09
3.05766e-09
3.05715e-09
3.05656e-09
3.05631e-09
3.05592e-09
3.05582e-09
3.05562e-09
3.05557e-09
3.05544e-09
3.05542e-09
3.05534e-09
3.05533e-09
3.0553e-09
3.0553e-09
3.05533e-09
3.05534e-09
3.05544e-09
3.05547e-09
3.0556e-09
3.05565e-09
3.05587e-09
3.056e-09
3.05639e-09
3.05663e-09
3.05723e-09
3.05774e-09
3.05867e-09
3.0596e-09
3.06118e-09
3.06298e-09
3.06603e-09
3.06876e-09
3.07341e-09
3.07793e-09
3.08433e-09
3.08818e-09
3.09566e-09
3.09157e-09
2.99447e-09
2.99522e-09
2.98704e-09
2.98285e-09
2.9763e-09
2.97169e-09
2.96706e-09
2.96425e-09
2.9612e-09
2.9594e-09
2.95777e-09
2.95688e-09
2.95596e-09
2.95545e-09
2.95484e-09
2.9546e-09
2.95419e-09
2.95407e-09
2.95387e-09
2.95382e-09
2.95369e-09
2.95367e-09
2.95359e-09
2.95358e-09
2.95355e-09
2.95355e-09
2.95358e-09
2.9536e-09
2.95369e-09
2.95372e-09
2.95385e-09
2.9539e-09
2.95412e-09
2.95428e-09
2.95467e-09
2.95489e-09
2.95552e-09
2.95603e-09
2.95693e-09
2.95788e-09
2.95944e-09
2.96127e-09
2.96432e-09
2.96707e-09
2.97176e-09
2.97637e-09
2.98291e-09
2.9871e-09
2.99528e-09
2.99453e-09
2.89712e-09
2.8987e-09
2.8898e-09
2.8853e-09
2.87864e-09
2.87397e-09
2.86932e-09
2.86649e-09
2.86347e-09
2.86159e-09
2.85996e-09
2.85907e-09
2.85818e-09
2.85767e-09
2.85703e-09
2.85683e-09
2.85638e-09
2.85623e-09
2.85603e-09
2.85598e-09
2.85585e-09
2.85583e-09
2.85575e-09
2.85574e-09
2.85571e-09
2.85572e-09
2.85574e-09
2.85576e-09
2.85585e-09
2.85588e-09
2.85601e-09
2.85606e-09
2.85628e-09
2.85651e-09
2.85688e-09
2.85707e-09
2.85772e-09
2.85824e-09
2.85911e-09
2.8601e-09
2.86161e-09
2.8635e-09
2.86656e-09
2.86936e-09
2.87404e-09
2.8787e-09
2.88536e-09
2.88985e-09
2.89875e-09
2.89717e-09
2.80219e-09
2.80324e-09
2.79357e-09
2.78875e-09
2.78199e-09
2.77727e-09
2.77263e-09
2.76978e-09
2.7668e-09
2.76481e-09
2.76319e-09
2.76228e-09
2.76144e-09
2.76094e-09
2.76023e-09
2.7601e-09
2.75963e-09
2.75941e-09
2.75921e-09
2.75916e-09
2.75904e-09
2.75901e-09
2.75894e-09
2.75892e-09
2.7589e-09
2.7589e-09
2.75893e-09
2.75894e-09
2.75903e-09
2.75906e-09
2.75919e-09
2.75924e-09
2.75945e-09
2.75982e-09
2.76012e-09
2.76026e-09
2.76094e-09
2.76145e-09
2.76228e-09
2.76338e-09
2.76483e-09
2.76679e-09
2.76984e-09
2.77268e-09
2.77733e-09
2.78205e-09
2.78881e-09
2.79362e-09
2.80329e-09
2.80223e-09
2.70556e-09
2.70621e-09
2.69835e-09
2.6932e-09
2.68634e-09
2.68157e-09
2.67697e-09
2.6741e-09
2.6712e-09
2.66899e-09
2.66749e-09
2.66643e-09
2.66569e-09
2.6652e-09
2.6644e-09
2.66438e-09
2.664e-09
2.66359e-09
2.66339e-09
2.66334e-09
2.66322e-09
2.66319e-09
2.66312e-09
2.6631e-09
2.66308e-09
2.66308e-09
2.66311e-09
2.66312e-09
2.66321e-09
2.66324e-09
2.66337e-09
2.66342e-09
2.66363e-09
2.66426e-09
2.66433e-09
2.66442e-09
2.66513e-09
2.66563e-09
2.66641e-09
2.66775e-09
2.6691e-09
2.67116e-09
2.67416e-09
2.67702e-09
2.68162e-09
2.68639e-09
2.69325e-09
2.6984e-09
2.70625e-09
2.7056e-09
2.61241e-09
2.61261e-09
2.60421e-09
2.59864e-09
2.59166e-09
2.58663e-09
2.58191e-09
2.57891e-09
2.57606e-09
2.57327e-09
2.57224e-09
2.57068e-09
2.56997e-09
2.5695e-09
2.56869e-09
2.5687e-09
2.56879e-09
2.56791e-09
2.56771e-09
2.56766e-09
2.56753e-09
2.56751e-09
2.56743e-09
2.56742e-09
2.5674e-09
2.5674e-09
2.56742e-09
2.56744e-09
2.56752e-09
2.56755e-09
2.56768e-09
2.56773e-09
2.56794e-09
2.56907e-09
2.56861e-09
2.5687e-09
2.5694e-09
2.56988e-09
2.57066e-09
2.57252e-09
2.57384e-09
2.57604e-09
2.57897e-09
2.58195e-09
2.58668e-09
2.5917e-09
2.59869e-09
2.60425e-09
2.61265e-09
2.61245e-09
2.51779e-09
2.51749e-09
2.50867e-09
2.50244e-09
2.49522e-09
2.49013e-09
2.48548e-09
2.48248e-09
2.4798e-09
2.47854e-09
2.47655e-09
2.47647e-09
2.4754e-09
2.47495e-09
2.47461e-09
2.4742e-09
2.47325e-09
2.4739e-09
2.47371e-09
2.47366e-09
2.47353e-09
2.47351e-09
2.47344e-09
2.47342e-09
2.4734e-09
2.4734e-09
2.47343e-09
2.47344e-09
2.47352e-09
2.47355e-09
2.47368e-09
2.47373e-09
2.47393e-09
2.4731e-09
2.47449e-09
2.47463e-09
2.47524e-09
2.47569e-09
2.47649e-09
2.47641e-09
2.47807e-09
2.47992e-09
2.48254e-09
2.48552e-09
2.49018e-09
2.49527e-09
2.50249e-09
2.50871e-09
2.51753e-09
2.51782e-09
2.42356e-09
2.42277e-09
2.41388e-09
2.40963e-09
2.40221e-09
2.3971e-09
2.3925e-09
2.3895e-09
2.38696e-09
2.3852e-09
2.38372e-09
2.38291e-09
2.38199e-09
2.38154e-09
2.38131e-09
2.3808e-09
2.38056e-09
2.38075e-09
2.38054e-09
2.38048e-09
2.38034e-09
2.38031e-09
2.38023e-09
2.38021e-09
2.38018e-09
2.38018e-09
2.38021e-09
2.38023e-09
2.38032e-09
2.38036e-09
2.3805e-09
2.38057e-09
2.38079e-09
2.3804e-09
2.3809e-09
2.38141e-09
2.38165e-09
2.3821e-09
2.38309e-09
2.38357e-09
2.38517e-09
2.38712e-09
2.38955e-09
2.39254e-09
2.39714e-09
2.40225e-09
2.40967e-09
2.41392e-09
2.4228e-09
2.42359e-09
2.33261e-09
2.33141e-09
2.32229e-09
2.31685e-09
2.31001e-09
2.30489e-09
2.30033e-09
2.29736e-09
2.29496e-09
2.2929e-09
2.29156e-09
2.29066e-09
2.28982e-09
2.28939e-09
2.28903e-09
2.28869e-09
2.2885e-09
2.2885e-09
2.2883e-09
2.28823e-09
2.2881e-09
2.28806e-09
2.28798e-09
2.28797e-09
2.28794e-09
2.28794e-09
2.28797e-09
2.28799e-09
2.28808e-09
2.28812e-09
2.28826e-09
2.28832e-09
2.28854e-09
2.28841e-09
2.28873e-09
2.28912e-09
2.28946e-09
2.28988e-09
2.29077e-09
2.29147e-09
2.29298e-09
2.29508e-09
2.29741e-09
2.30037e-09
2.30494e-09
2.31005e-09
2.31689e-09
2.32232e-09
2.33144e-09
2.33264e-09
2.24238e-09
2.24076e-09
2.23134e-09
2.22565e-09
2.21845e-09
2.21317e-09
2.20855e-09
2.20553e-09
2.20317e-09
2.20083e-09
2.1995e-09
2.19858e-09
2.19777e-09
2.19735e-09
2.19692e-09
2.19666e-09
2.19645e-09
2.19639e-09
2.19618e-09
2.19612e-09
2.19598e-09
2.19595e-09
2.19587e-09
2.19585e-09
2.19582e-09
2.19582e-09
2.19585e-09
2.19587e-09
2.19596e-09
2.196e-09
2.19613e-09
2.1962e-09
2.19642e-09
2.1964e-09
2.19669e-09
2.19698e-09
2.19739e-09
2.1978e-09
2.19864e-09
2.19946e-09
2.20093e-09
2.20326e-09
2.20557e-09
2.20858e-09
2.21321e-09
2.21848e-09
2.22569e-09
2.23137e-09
2.24079e-09
2.24241e-09
2.15295e-09
2.15092e-09
2.14114e-09
2.13526e-09
2.12798e-09
2.12269e-09
2.11815e-09
2.11517e-09
2.11289e-09
2.11034e-09
2.10901e-09
2.10811e-09
2.10733e-09
2.10693e-09
2.10646e-09
2.10625e-09
2.106e-09
2.1059e-09
2.10569e-09
2.10563e-09
2.1055e-09
2.10547e-09
2.10539e-09
2.10537e-09
2.10534e-09
2.10534e-09
2.10537e-09
2.10539e-09
2.10548e-09
2.10551e-09
2.10565e-09
2.10571e-09
2.10593e-09
2.10599e-09
2.10626e-09
2.10651e-09
2.10695e-09
2.10735e-09
2.10815e-09
2.109e-09
2.11042e-09
2.11294e-09
2.1152e-09
2.11818e-09
2.12272e-09
2.12801e-09
2.13529e-09
2.14117e-09
2.15094e-09
2.15297e-09
2.06359e-09
2.06143e-09
2.05119e-09
2.04518e-09
2.03775e-09
2.03235e-09
2.02785e-09
2.02484e-09
2.02262e-09
2.01978e-09
2.01843e-09
2.01756e-09
2.01679e-09
2.01639e-09
2.01592e-09
2.01573e-09
2.01545e-09
2.01535e-09
2.01515e-09
2.0151e-09
2.01497e-09
2.01494e-09
2.01486e-09
2.01484e-09
2.01482e-09
2.01482e-09
2.01484e-09
2.01486e-09
2.01494e-09
2.01498e-09
2.01511e-09
2.01517e-09
2.01538e-09
2.01546e-09
2.01574e-09
2.01595e-09
2.01641e-09
2.0168e-09
2.01758e-09
2.01844e-09
2.01985e-09
2.02266e-09
2.02487e-09
2.02787e-09
2.03238e-09
2.03778e-09
2.04521e-09
2.05121e-09
2.06145e-09
2.06362e-09
1.97335e-09
1.97076e-09
1.96021e-09
1.95408e-09
1.94672e-09
1.9413e-09
1.93694e-09
1.93396e-09
1.93184e-09
1.93111e-09
1.92977e-09
1.92892e-09
1.92816e-09
1.92777e-09
1.92729e-09
1.92711e-09
1.92681e-09
1.92671e-09
1.92651e-09
1.92646e-09
1.92633e-09
1.9263e-09
1.92622e-09
1.92621e-09
1.92618e-09
1.92618e-09
1.92621e-09
1.92622e-09
1.92631e-09
1.92634e-09
1.92647e-09
1.92653e-09
1.92673e-09
1.92683e-09
1.92712e-09
1.92732e-09
1.92778e-09
1.92818e-09
1.92893e-09
1.92979e-09
1.93116e-09
1.93186e-09
1.93398e-09
1.93697e-09
1.94133e-09
1.94674e-09
1.9541e-09
1.96023e-09
1.97078e-09
1.97337e-09
1.88633e-09
1.88341e-09
1.8725e-09
1.86629e-09
1.85902e-09
1.85356e-09
1.84934e-09
1.84639e-09
1.84436e-09
1.84345e-09
1.84213e-09
1.84129e-09
1.84055e-09
1.84016e-09
1.83969e-09
1.8395e-09
1.8392e-09
1.8391e-09
1.8389e-09
1.83885e-09
1.83872e-09
1.83869e-09
1.83862e-09
1.8386e-09
1.83858e-09
1.83858e-09
1.8386e-09
1.83862e-09
1.8387e-09
1.83873e-09
1.83886e-09
1.83891e-09
1.83912e-09
1.83922e-09
1.83951e-09
1.83971e-09
1.84017e-09
1.84056e-09
1.84131e-09
1.84214e-09
1.84349e-09
1.84437e-09
1.8464e-09
1.84937e-09
1.85359e-09
1.85904e-09
1.86631e-09
1.87252e-09
1.88343e-09
1.88634e-09
1.79953e-09
1.79635e-09
1.78495e-09
1.77859e-09
1.77132e-09
1.76573e-09
1.7616e-09
1.75864e-09
1.75665e-09
1.75558e-09
1.75425e-09
1.75342e-09
1.75269e-09
1.7523e-09
1.75183e-09
1.75164e-09
1.75134e-09
1.75124e-09
1.75104e-09
1.75099e-09
1.75087e-09
1.75084e-09
1.75076e-09
1.75075e-09
1.75072e-09
1.75072e-09
1.75075e-09
1.75076e-09
1.75084e-09
1.75087e-09
1.751e-09
1.75105e-09
1.75125e-09
1.75136e-09
1.75166e-09
1.75185e-09
1.75231e-09
1.7527e-09
1.75343e-09
1.75427e-09
1.75561e-09
1.75667e-09
1.75865e-09
1.76163e-09
1.76576e-09
1.77134e-09
1.77861e-09
1.78497e-09
1.79637e-09
1.79955e-09
1.71439e-09
1.71092e-09
1.69926e-09
1.69285e-09
1.68572e-09
1.68012e-09
1.67614e-09
1.67322e-09
1.6713e-09
1.67014e-09
1.66882e-09
1.66801e-09
1.66729e-09
1.66691e-09
1.66645e-09
1.66626e-09
1.66596e-09
1.66586e-09
1.66567e-09
1.66562e-09
1.6655e-09
1.66547e-09
1.6654e-09
1.66538e-09
1.66536e-09
1.66536e-09
1.66538e-09
1.6654e-09
1.66547e-09
1.6655e-09
1.66563e-09
1.66568e-09
1.66587e-09
1.66598e-09
1.66628e-09
1.66647e-09
1.66692e-09
1.66731e-09
1.66802e-09
1.66884e-09
1.67017e-09
1.67131e-09
1.67323e-09
1.67617e-09
1.68014e-09
1.68574e-09
1.69286e-09
1.69927e-09
1.71093e-09
1.7144e-09
1.63038e-09
1.62668e-09
1.61474e-09
1.60831e-09
1.60109e-09
1.5952e-09
1.59117e-09
1.58821e-09
1.58628e-09
1.58502e-09
1.58368e-09
1.58286e-09
1.58213e-09
1.58175e-09
1.58128e-09
1.58108e-09
1.58078e-09
1.58068e-09
1.58049e-09
1.58044e-09
1.58031e-09
1.58029e-09
1.58021e-09
1.5802e-09
1.58017e-09
1.58017e-09
1.5802e-09
1.58021e-09
1.58029e-09
1.58032e-09
1.58044e-09
1.5805e-09
1.58069e-09
1.5808e-09
1.5811e-09
1.5813e-09
1.58176e-09
1.58215e-09
1.58287e-09
1.58369e-09
1.58504e-09
1.5863e-09
1.58822e-09
1.5912e-09
1.59521e-09
1.6011e-09
1.60832e-09
1.61475e-09
1.62669e-09
1.63039e-09
1.54616e-09
1.54205e-09
1.52961e-09
1.52307e-09
1.51593e-09
1.51e-09
1.50611e-09
1.5032e-09
1.50135e-09
1.50005e-09
1.49872e-09
1.49791e-09
1.49721e-09
1.49683e-09
1.49638e-09
1.49618e-09
1.49589e-09
1.49579e-09
1.4956e-09
1.49555e-09
1.49543e-09
1.4954e-09
1.49533e-09
1.49532e-09
1.49529e-09
1.49529e-09
1.49532e-09
1.49533e-09
1.4954e-09
1.49543e-09
1.49555e-09
1.49561e-09
1.4958e-09
1.4959e-09
1.49619e-09
1.49639e-09
1.49684e-09
1.49722e-09
1.49792e-09
1.49873e-09
1.50006e-09
1.50137e-09
1.50321e-09
1.50614e-09
1.51e-09
1.51594e-09
1.52308e-09
1.52962e-09
1.54206e-09
1.54617e-09
1.46249e-09
1.4582e-09
1.44767e-09
1.4412e-09
1.43426e-09
1.42832e-09
1.42458e-09
1.4217e-09
1.41993e-09
1.41859e-09
1.41727e-09
1.41648e-09
1.4158e-09
1.41543e-09
1.41499e-09
1.4148e-09
1.41451e-09
1.41441e-09
1.41423e-09
1.41418e-09
1.41407e-09
1.41404e-09
1.41397e-09
1.41396e-09
1.41393e-09
1.41393e-09
1.41396e-09
1.41397e-09
1.41404e-09
1.41407e-09
1.41419e-09
1.41424e-09
1.41442e-09
1.41452e-09
1.41481e-09
1.415e-09
1.41544e-09
1.41581e-09
1.41649e-09
1.41728e-09
1.4186e-09
1.41995e-09
1.42171e-09
1.42461e-09
1.42833e-09
1.43427e-09
1.44121e-09
1.44768e-09
1.45821e-09
1.4625e-09
1.38236e-09
1.37796e-09
1.36705e-09
1.36037e-09
1.35341e-09
1.34821e-09
1.3446e-09
1.34177e-09
1.34007e-09
1.33872e-09
1.3374e-09
1.33663e-09
1.33597e-09
1.33561e-09
1.33518e-09
1.335e-09
1.33472e-09
1.33462e-09
1.33445e-09
1.3344e-09
1.33429e-09
1.33426e-09
1.33419e-09
1.33418e-09
1.33416e-09
1.33416e-09
1.33418e-09
1.33419e-09
1.33426e-09
1.33429e-09
1.3344e-09
1.33445e-09
1.33463e-09
1.33472e-09
1.335e-09
1.33519e-09
1.33562e-09
1.33598e-09
1.33664e-09
1.33741e-09
1.33873e-09
1.34009e-09
1.34178e-09
1.34462e-09
1.34821e-09
1.35341e-09
1.36038e-09
1.36705e-09
1.37797e-09
1.38237e-09
1.30379e-09
1.29932e-09
1.28824e-09
1.28169e-09
1.27498e-09
1.26983e-09
1.26635e-09
1.26356e-09
1.26194e-09
1.2606e-09
1.25927e-09
1.25853e-09
1.25789e-09
1.25754e-09
1.25712e-09
1.25695e-09
1.25668e-09
1.25659e-09
1.25642e-09
1.25637e-09
1.25626e-09
1.25624e-09
1.25617e-09
1.25616e-09
1.25614e-09
1.25614e-09
1.25616e-09
1.25617e-09
1.25623e-09
1.25626e-09
1.25637e-09
1.25642e-09
1.25659e-09
1.25668e-09
1.25695e-09
1.25713e-09
1.25755e-09
1.2579e-09
1.25853e-09
1.25928e-09
1.26061e-09
1.26196e-09
1.26358e-09
1.26637e-09
1.26984e-09
1.27499e-09
1.2817e-09
1.28824e-09
1.29933e-09
1.3038e-09
1.22697e-09
1.22244e-09
1.21124e-09
1.20486e-09
1.19828e-09
1.19299e-09
1.1895e-09
1.18664e-09
1.18505e-09
1.18367e-09
1.1823e-09
1.18156e-09
1.18093e-09
1.18058e-09
1.18017e-09
1.17999e-09
1.17973e-09
1.17964e-09
1.17947e-09
1.17942e-09
1.17932e-09
1.17929e-09
1.17923e-09
1.17921e-09
1.17919e-09
1.17919e-09
1.17921e-09
1.17922e-09
1.17929e-09
1.17931e-09
1.17942e-09
1.17947e-09
1.17964e-09
1.17973e-09
1.18e-09
1.18017e-09
1.18059e-09
1.18093e-09
1.18156e-09
1.18231e-09
1.18368e-09
1.18506e-09
1.18665e-09
1.18952e-09
1.193e-09
1.19829e-09
1.20486e-09
1.21124e-09
1.22244e-09
1.22698e-09
1.15064e-09
1.14594e-09
1.13621e-09
1.13002e-09
1.12369e-09
1.11858e-09
1.11526e-09
1.11232e-09
1.11079e-09
1.10945e-09
1.10806e-09
1.10735e-09
1.10674e-09
1.1064e-09
1.106e-09
1.10584e-09
1.10558e-09
1.1055e-09
1.10533e-09
1.10529e-09
1.10519e-09
1.10516e-09
1.1051e-09
1.10509e-09
1.10507e-09
1.10507e-09
1.10509e-09
1.1051e-09
1.10516e-09
1.10518e-09
1.10529e-09
1.10533e-09
1.1055e-09
1.10558e-09
1.10584e-09
1.10601e-09
1.10641e-09
1.10674e-09
1.10734e-09
1.10807e-09
1.10945e-09
1.11081e-09
1.11233e-09
1.11528e-09
1.11859e-09
1.1237e-09
1.13002e-09
1.13622e-09
1.14594e-09
1.15065e-09
1.07766e-09
1.07291e-09
1.06296e-09
1.05672e-09
1.05043e-09
1.04543e-09
1.04243e-09
1.04017e-09
1.0387e-09
1.0374e-09
1.03598e-09
1.0353e-09
1.03471e-09
1.03439e-09
1.03401e-09
1.03385e-09
1.0336e-09
1.03352e-09
1.03337e-09
1.03333e-09
1.03323e-09
1.0332e-09
1.03314e-09
1.03313e-09
1.03311e-09
1.03311e-09
1.03313e-09
1.03314e-09
1.0332e-09
1.03322e-09
1.03333e-09
1.03336e-09
1.03352e-09
1.0336e-09
1.03385e-09
1.03401e-09
1.0344e-09
1.03471e-09
1.03529e-09
1.03599e-09
1.03741e-09
1.03871e-09
1.04018e-09
1.04244e-09
1.04544e-09
1.05044e-09
1.05672e-09
1.06296e-09
1.07291e-09
1.07766e-09
1.00683e-09
1.00206e-09
9.92283e-10
9.8625e-10
9.80274e-10
9.75468e-10
9.72671e-10
9.7034e-10
9.68926e-10
9.67685e-10
9.662e-10
9.65559e-10
9.64999e-10
9.64695e-10
9.64326e-10
9.64177e-10
9.63941e-10
9.63864e-10
9.63712e-10
9.63677e-10
9.6358e-10
9.63554e-10
9.63498e-10
9.63488e-10
9.63468e-10
9.63467e-10
9.63485e-10
9.63494e-10
9.63551e-10
9.63577e-10
9.63674e-10
9.6371e-10
9.63863e-10
9.63936e-10
9.64178e-10
9.64328e-10
9.64696e-10
9.64998e-10
9.65545e-10
9.66216e-10
9.67693e-10
9.68938e-10
9.70349e-10
9.7268e-10
9.75472e-10
9.80274e-10
9.8625e-10
9.92282e-10
1.00206e-09
1.00683e-09
9.38297e-10
9.33544e-10
9.23603e-10
9.17566e-10
9.11706e-10
9.06938e-10
9.0421e-10
9.01871e-10
9.00492e-10
8.99301e-10
8.98862e-10
8.98261e-10
8.97728e-10
8.9744e-10
8.97087e-10
8.96948e-10
8.96722e-10
8.96649e-10
8.96504e-10
8.96471e-10
8.96378e-10
8.96353e-10
8.96299e-10
8.9629e-10
8.96271e-10
8.9627e-10
8.96287e-10
8.96295e-10
8.96349e-10
8.96374e-10
8.96468e-10
8.96501e-10
8.96647e-10
8.96715e-10
8.96947e-10
8.97088e-10
8.97439e-10
8.97725e-10
8.98243e-10
8.98881e-10
8.99309e-10
9.00502e-10
9.01879e-10
9.04218e-10
9.0694e-10
9.11704e-10
9.17565e-10
9.23602e-10
9.33541e-10
9.38298e-10
8.72201e-10
8.67497e-10
8.57793e-10
8.52004e-10
8.46485e-10
8.41835e-10
8.39247e-10
8.36992e-10
8.35679e-10
8.34557e-10
8.34087e-10
8.33525e-10
8.33018e-10
8.32747e-10
8.32412e-10
8.32281e-10
8.32067e-10
8.31998e-10
8.3186e-10
8.31829e-10
8.31741e-10
8.31717e-10
8.31665e-10
8.31657e-10
8.31639e-10
8.31638e-10
8.31654e-10
8.31661e-10
8.31713e-10
8.31737e-10
8.31826e-10
8.31857e-10
8.31996e-10
8.32059e-10
8.3228e-10
8.32412e-10
8.32746e-10
8.33015e-10
8.33502e-10
8.34108e-10
8.34564e-10
8.35687e-10
8.36999e-10
8.39252e-10
8.41836e-10
8.46483e-10
8.52002e-10
8.57791e-10
8.67491e-10
8.72201e-10
8.08668e-10
8.04011e-10
7.94646e-10
7.89093e-10
7.83914e-10
7.79351e-10
7.76911e-10
7.74758e-10
7.73515e-10
7.7246e-10
7.71979e-10
7.71454e-10
7.70976e-10
7.70722e-10
7.70405e-10
7.70284e-10
7.7008e-10
7.70016e-10
7.69885e-10
7.69857e-10
7.69773e-10
7.69751e-10
7.69702e-10
7.69695e-10
7.69677e-10
7.69676e-10
7.69692e-10
7.69698e-10
7.69747e-10
7.69769e-10
7.69853e-10
7.69882e-10
7.70014e-10
7.70072e-10
7.70282e-10
7.70404e-10
7.7072e-10
7.70972e-10
7.71428e-10
7.72001e-10
7.72467e-10
7.73521e-10
7.74764e-10
7.76915e-10
7.7935e-10
7.83911e-10
7.8909e-10
7.94642e-10
8.04005e-10
8.08666e-10
7.47145e-10
7.42425e-10
7.33354e-10
7.2797e-10
7.23091e-10
7.19591e-10
7.17309e-10
7.15267e-10
7.14096e-10
7.13107e-10
7.12627e-10
7.12137e-10
7.11688e-10
7.11452e-10
7.11155e-10
7.11042e-10
7.1085e-10
7.10792e-10
7.10668e-10
7.10643e-10
7.10563e-10
7.10543e-10
7.10497e-10
7.1049e-10
7.10474e-10
7.10473e-10
7.10488e-10
7.10493e-10
7.10539e-10
7.10559e-10
7.10638e-10
7.10664e-10
7.10789e-10
7.10842e-10
7.11039e-10
7.11153e-10
7.11449e-10
7.11684e-10
7.12111e-10
7.12647e-10
7.13112e-10
7.14098e-10
7.1527e-10
7.1731e-10
7.19588e-10
7.23087e-10
7.27965e-10
7.33348e-10
7.42416e-10
7.4714e-10
6.8899e-10
6.84357e-10
6.75697e-10
6.70566e-10
6.66016e-10
6.62642e-10
6.60519e-10
6.58591e-10
6.57495e-10
6.56571e-10
6.561e-10
6.55644e-10
6.55225e-10
6.55007e-10
6.54729e-10
6.54625e-10
6.54445e-10
6.54393e-10
6.54277e-10
6.54254e-10
6.54179e-10
6.54163e-10
6.54119e-10
6.54113e-10
6.54098e-10
6.54097e-10
6.54111e-10
6.54115e-10
6.54158e-10
6.54174e-10
6.54249e-10
6.54273e-10
6.5439e-10
6.54439e-10
6.54622e-10
6.54727e-10
6.55004e-10
6.5522e-10
6.55619e-10
6.56117e-10
6.56573e-10
6.57494e-10
6.58591e-10
6.60517e-10
6.62636e-10
6.66012e-10
6.70559e-10
6.75688e-10
6.84346e-10
6.88984e-10
6.33638e-10
6.29121e-10
6.20875e-10
6.16011e-10
6.11786e-10
6.08561e-10
6.06599e-10
6.04785e-10
6.03767e-10
6.02905e-10
6.02451e-10
6.02026e-10
6.01638e-10
6.01438e-10
6.0118e-10
6.01085e-10
6.00917e-10
6.00872e-10
6.00763e-10
6.00742e-10
6.00672e-10
6.0066e-10
6.00619e-10
6.00614e-10
6.00599e-10
6.00598e-10
6.00611e-10
6.00615e-10
6.00656e-10
6.00667e-10
6.00737e-10
6.00758e-10
6.00868e-10
6.00913e-10
6.01082e-10
6.01178e-10
6.01434e-10
6.01632e-10
6.02002e-10
6.02463e-10
6.02905e-10
6.03763e-10
6.04782e-10
6.06593e-10
6.08552e-10
6.1178e-10
6.16003e-10
6.20863e-10
6.29107e-10
6.33629e-10
5.81136e-10
5.76765e-10
5.68903e-10
5.64141e-10
5.60102e-10
5.5696e-10
5.55108e-10
5.53373e-10
5.52414e-10
5.51596e-10
5.51154e-10
5.50751e-10
5.50386e-10
5.50201e-10
5.49959e-10
5.49871e-10
5.49712e-10
5.49673e-10
5.4957e-10
5.49551e-10
5.49485e-10
5.49477e-10
5.49439e-10
5.49434e-10
5.4942e-10
5.49419e-10
5.49432e-10
5.49435e-10
5.49473e-10
5.4948e-10
5.49546e-10
5.49565e-10
5.4967e-10
5.4971e-10
5.49868e-10
5.49956e-10
5.50197e-10
5.5038e-10
5.50727e-10
5.51162e-10
5.51591e-10
5.52406e-10
5.53366e-10
5.55099e-10
5.56947e-10
5.60094e-10
5.64131e-10
5.68887e-10
5.76748e-10
5.81125e-10
5.3151e-10
5.27281e-10
5.19869e-10
5.15371e-10
5.11636e-10
5.08663e-10
5.06963e-10
5.05341e-10
5.0446e-10
5.03699e-10
5.0328e-10
)
;

boundaryField
{
    fuel
    {
        type            fixedValue;
        value           nonuniform 0();
    }
    wall
    {
        type            zeroGradient;
    }
    outlet
    {
        type            zeroGradient;
    }
    frontAndBack
    {
        type            empty;
    }
    procBoundary2to0
    {
        type            processor;
        value           nonuniform List<scalar> 
53
(
4.1398e-09
4.15088e-09
4.15081e-09
4.15115e-09
4.14639e-09
4.14318e-09
4.13848e-09
4.13573e-09
4.13297e-09
4.13139e-09
4.12982e-09
4.12897e-09
4.12802e-09
4.12759e-09
4.12702e-09
4.12681e-09
4.12646e-09
4.12637e-09
4.01179e-09
4.01179e-09
4.01175e-09
4.01162e-09
4.0116e-09
4.01152e-09
4.01152e-09
4.01149e-09
4.01149e-09
4.01152e-09
4.01153e-09
3.89675e-09
3.89675e-09
3.89678e-09
3.89692e-09
3.89696e-09
3.89718e-09
3.89728e-09
3.89763e-09
3.89784e-09
3.89842e-09
3.89886e-09
3.8998e-09
3.90067e-09
3.79157e-09
3.79157e-09
3.7932e-09
3.79605e-09
3.79894e-09
3.80406e-09
3.80778e-09
3.81316e-09
3.8143e-09
3.81682e-09
3.80819e-09
)
;
    }
    procBoundary2to3
    {
        type            processor;
        value           nonuniform List<scalar> 
51
(
5.02915e-10
5.02578e-10
5.02409e-10
5.02187e-10
5.02106e-10
5.01959e-10
5.01926e-10
5.0183e-10
5.01813e-10
5.01752e-10
5.01747e-10
5.01712e-10
5.01708e-10
5.01695e-10
5.01694e-10
5.01705e-10
5.01708e-10
5.01743e-10
5.01747e-10
5.01808e-10
5.01825e-10
5.01922e-10
5.01959e-10
5.02103e-10
5.02183e-10
5.02405e-10
5.02571e-10
5.02891e-10
5.03293e-10
5.03699e-10
5.04456e-10
5.05339e-10
5.0696e-10
5.08659e-10
5.11636e-10
5.15373e-10
5.19861e-10
5.27283e-10
5.31509e-10
4.84775e-10
4.8073e-10
4.73726e-10
4.69516e-10
4.66057e-10
4.63264e-10
4.61708e-10
4.60196e-10
4.59389e-10
4.58683e-10
5.02915e-10
4.58289e-10
)
;
    }
}


// ************************************************************************* //
