/*--------------------------------*- C++ -*----------------------------------*\
| =========                 |                                                 |
| \\      /  F ield         | OpenFOAM: The Open Source CFD Toolbox           |
|  \\    /   O peration     | Version:  dev                                   |
|   \\  /    A nd           | Web:      www.OpenFOAM.org                      |
|    \\/     M anipulation  |                                                 |
\*---------------------------------------------------------------------------*/
FoamFile
{
    version     2.0;
    format      ascii;
    class       volScalarField;
    location    "0.04";
    object      A4;
}
// * * * * * * * * * * * * * * * * * * * * * * * * * * * * * * * * * * * * * //

dimensions      [0 0 0 0 0 0 0];

internalField   nonuniform List<scalar> 
250
(
3.02498e-09
4.68693e-08
3.17594e-08
2.90861e-08
2.86766e-08
2.86223e-08
2.86163e-08
2.8605e-08
2.86131e-08
8.89696e-09
8.25075e-08
5.20106e-08
4.66007e-08
4.57763e-08
4.56618e-08
4.56503e-08
4.56337e-08
4.56468e-08
1.54987e-08
1.09851e-07
6.48311e-08
5.66767e-08
5.5423e-08
5.52509e-08
5.52306e-08
5.52153e-08
5.52296e-08
2.25379e-08
1.30027e-07
7.26048e-08
6.188e-08
6.021e-08
5.99879e-08
5.99579e-08
5.99464e-08
5.99597e-08
2.99077e-08
1.44947e-07
7.73874e-08
6.42275e-08
6.21738e-08
6.19075e-08
6.18687e-08
6.18607e-08
6.18722e-08
3.75451e-08
1.56108e-07
8.02925e-08
6.49939e-08
6.25361e-08
6.2226e-08
6.21795e-08
6.21734e-08
6.21836e-08
4.52972e-08
1.64482e-07
8.20304e-08
6.47884e-08
6.19743e-08
6.16143e-08
6.15588e-08
6.15532e-08
6.15628e-08
5.27551e-08
1.7067e-07
8.3042e-08
6.4039e-08
6.0874e-08
6.04565e-08
6.03888e-08
6.03824e-08
6.03923e-08
5.91862e-08
1.75041e-07
8.34404e-08
6.28261e-08
5.93947e-08
5.89363e-08
5.8861e-08
5.88508e-08
5.88632e-08
6.45531e-08
1.77827e-07
8.33448e-08
6.12927e-08
5.75227e-08
5.70175e-08
5.69359e-08
5.69226e-08
5.69374e-08
7.02171e-08
1.79181e-07
8.28632e-08
5.95733e-08
5.57814e-08
5.52442e-08
5.51588e-08
5.51422e-08
5.51598e-08
5.51584e-08
7.67427e-08
1.7922e-07
8.19515e-08
5.79876e-08
5.39126e-08
5.33232e-08
5.32278e-08
5.32072e-08
5.32286e-08
5.32252e-08
8.3798e-08
1.78062e-07
8.06786e-08
5.61544e-08
5.18813e-08
5.12637e-08
5.11642e-08
5.11394e-08
5.11645e-08
5.11588e-08
9.09329e-08
1.75512e-07
7.9067e-08
5.42596e-08
4.98446e-08
4.92045e-08
4.91018e-08
4.90726e-08
4.91014e-08
4.90933e-08
9.77848e-08
1.72162e-07
7.74229e-08
5.23385e-08
4.78301e-08
4.71708e-08
4.70654e-08
4.70321e-08
4.70644e-08
4.70541e-08
1.04168e-07
1.67865e-07
7.53526e-08
5.04049e-08
4.58592e-08
4.51812e-08
4.50737e-08
4.50365e-08
4.50721e-08
4.50598e-08
1.09566e-07
1.62074e-07
7.29935e-08
4.84774e-08
4.39408e-08
4.32496e-08
4.31406e-08
4.30999e-08
4.31382e-08
4.31242e-08
1.13847e-07
1.561e-07
7.0428e-08
4.65684e-08
4.20844e-08
4.13861e-08
4.12761e-08
4.12324e-08
4.1273e-08
4.12577e-08
1.16879e-07
1.49022e-07
6.76895e-08
4.46877e-08
4.0297e-08
3.95981e-08
3.94877e-08
3.94415e-08
3.94837e-08
3.94674e-08
1.18581e-07
1.40976e-07
6.48168e-08
4.28428e-08
3.85834e-08
3.78904e-08
3.77798e-08
3.7732e-08
3.77749e-08
3.77582e-08
1.18947e-07
1.32496e-07
6.18535e-08
4.10392e-08
3.69463e-08
3.62652e-08
3.61549e-08
3.61061e-08
3.6149e-08
3.61324e-08
1.18043e-07
1.23724e-07
5.88433e-08
3.92804e-08
3.53863e-08
3.47229e-08
3.4613e-08
3.45644e-08
3.46061e-08
3.45901e-08
1.15972e-07
1.14786e-07
5.58291e-08
3.7778e-08
3.40837e-08
3.34384e-08
3.333e-08
3.3281e-08
3.3322e-08
3.33065e-08
1.12964e-07
1.06924e-07
5.2842e-08
3.62903e-08
3.27792e-08
3.21568e-08
3.2049e-08
3.19982e-08
3.20398e-08
3.20226e-08
1.09181e-07
9.93674e-08
4.98982e-08
3.49552e-08
3.16636e-08
3.10653e-08
3.09592e-08
3.09087e-08
3.09486e-08
3.09321e-08
1.04165e-07
9.21691e-08
4.73727e-08
3.37187e-08
3.06507e-08
3.00787e-08
2.99743e-08
2.99244e-08
2.99621e-08
2.99465e-08
)
;

boundaryField
{
    fuel
    {
        type            fixedValue;
        value           uniform 0;
    }
    wall
    {
        type            zeroGradient;
    }
    outlet
    {
        type            zeroGradient;
    }
    frontAndBack
    {
        type            empty;
    }
    procBoundary2to0
    {
        type            processor;
        value           nonuniform List<scalar> 
12
(
3.09276e-08
9.91035e-08
8.47874e-08
4.4976e-08
3.25832e-08
2.97393e-08
2.91951e-08
2.90924e-08
2.90433e-08
2.90784e-08
2.99419e-08
2.90637e-08
)
;
    }
    procBoundary2to3
    {
        type            processor;
        value           nonuniform List<scalar> 
25
(
2.8605e-08
4.56343e-08
5.52167e-08
5.99487e-08
6.18642e-08
6.21785e-08
6.156e-08
6.03912e-08
5.8862e-08
5.69367e-08
5.69367e-08
5.51516e-08
5.3219e-08
5.11529e-08
4.90878e-08
4.70488e-08
4.50546e-08
4.31191e-08
4.12526e-08
3.94624e-08
3.77533e-08
3.61276e-08
3.45856e-08
3.33024e-08
3.20189e-08
)
;
    }
}


// ************************************************************************* //
