/*--------------------------------*- C++ -*----------------------------------*\
| =========                 |                                                 |
| \\      /  F ield         | OpenFOAM: The Open Source CFD Toolbox           |
|  \\    /   O peration     | Version:  dev                                   |
|   \\  /    A nd           | Web:      www.OpenFOAM.org                      |
|    \\/     M anipulation  |                                                 |
\*---------------------------------------------------------------------------*/
FoamFile
{
    version     2.0;
    format      ascii;
    class       volScalarField;
    location    "0.04";
    object      CH2(S);
}
// * * * * * * * * * * * * * * * * * * * * * * * * * * * * * * * * * * * * * //

dimensions      [0 0 0 0 0 0 0];

internalField   nonuniform List<scalar> 
250
(
1.16263e-09
2.11555e-06
2.1959e-06
2.20959e-06
2.21047e-06
2.20773e-06
2.21132e-06
2.20768e-06
2.20778e-06
1.25854e-09
1.26079e-06
1.30418e-06
1.31337e-06
1.31402e-06
1.31393e-06
1.31442e-06
1.31383e-06
1.31373e-06
8.32108e-10
6.3747e-07
6.57598e-07
6.65291e-07
6.65735e-07
6.66171e-07
6.6605e-07
6.6606e-07
6.65939e-07
5.17224e-10
3.30921e-07
3.30602e-07
3.36766e-07
3.36725e-07
3.37151e-07
3.36973e-07
3.37064e-07
3.36978e-07
3.49244e-10
1.93504e-07
1.80241e-07
1.87618e-07
1.86223e-07
1.8655e-07
1.86424e-07
1.86495e-07
1.86448e-07
2.68333e-10
1.29754e-07
1.12315e-07
1.14827e-07
1.17248e-07
1.17505e-07
1.17433e-07
1.17478e-07
1.17455e-07
2.51593e-10
9.66172e-08
7.99041e-08
8.27043e-08
8.41227e-08
8.43189e-08
8.42786e-08
8.43059e-08
8.4296e-08
6.13784e-10
7.6436e-08
6.21931e-08
6.62975e-08
6.71888e-08
6.73191e-08
6.72829e-08
6.72999e-08
6.72969e-08
5.10834e-09
6.21391e-08
5.18421e-08
5.65847e-08
5.76304e-08
5.77846e-08
5.77635e-08
5.7765e-08
5.7772e-08
2.26731e-08
5.1009e-08
4.61966e-08
5.06753e-08
5.15033e-08
5.16407e-08
5.16308e-08
5.1627e-08
5.16373e-08
3.69311e-08
4.21011e-08
4.23478e-08
4.68285e-08
4.79945e-08
4.81382e-08
4.81386e-08
4.81308e-08
4.8144e-08
4.81416e-08
3.75102e-08
3.50725e-08
3.93574e-08
4.44022e-08
4.54177e-08
4.55449e-08
4.55461e-08
4.55341e-08
4.55508e-08
4.55414e-08
3.2292e-08
2.9689e-08
3.70369e-08
4.23094e-08
4.33011e-08
4.3437e-08
4.34433e-08
4.34269e-08
4.3447e-08
4.34329e-08
2.64747e-08
2.51777e-08
3.51009e-08
4.05292e-08
4.15152e-08
4.16564e-08
4.16652e-08
4.16444e-08
4.1668e-08
4.16501e-08
2.16336e-08
2.20683e-08
3.36268e-08
3.89228e-08
3.98956e-08
4.00382e-08
4.00479e-08
4.00224e-08
4.00499e-08
4.00284e-08
1.7779e-08
1.96998e-08
3.21673e-08
3.74e-08
3.83471e-08
3.84883e-08
3.84978e-08
3.84673e-08
3.84989e-08
3.84737e-08
1.48285e-08
1.77015e-08
3.07828e-08
3.59046e-08
3.68134e-08
3.69498e-08
3.69581e-08
3.69223e-08
3.69584e-08
3.69291e-08
1.25036e-08
1.63264e-08
2.94639e-08
3.43995e-08
3.52568e-08
3.53855e-08
3.5392e-08
3.53504e-08
3.53913e-08
3.53575e-08
1.06069e-08
1.52109e-08
2.81762e-08
3.28564e-08
3.36502e-08
3.37686e-08
3.37725e-08
3.37249e-08
3.37708e-08
3.37322e-08
9.03569e-09
1.43111e-08
2.68909e-08
3.12521e-08
3.19718e-08
3.20776e-08
3.20784e-08
3.20245e-08
3.20755e-08
3.20318e-08
7.74e-09
1.36041e-08
2.55828e-08
2.95645e-08
3.02015e-08
3.02932e-08
3.02902e-08
3.02299e-08
3.02862e-08
3.0237e-08
6.69337e-09
1.30194e-08
2.42285e-08
2.77701e-08
2.83185e-08
2.83952e-08
2.83878e-08
2.83213e-08
2.83825e-08
2.83278e-08
5.86267e-09
1.24955e-08
2.28077e-08
2.60696e-08
2.65365e-08
2.65973e-08
2.65869e-08
2.65134e-08
2.65804e-08
2.65199e-08
5.24015e-09
1.20409e-08
2.12939e-08
2.41924e-08
2.45111e-08
2.45545e-08
2.45393e-08
2.44552e-08
2.45315e-08
2.44608e-08
4.78783e-09
1.15681e-08
1.96617e-08
2.22971e-08
2.25253e-08
2.2554e-08
2.25358e-08
2.24443e-08
2.25267e-08
2.24494e-08
4.41989e-09
1.10465e-08
1.81e-08
2.03138e-08
2.04528e-08
2.04691e-08
2.04483e-08
2.03494e-08
2.04376e-08
2.03539e-08
)
;

boundaryField
{
    fuel
    {
        type            fixedValue;
        value           uniform 0;
    }
    wall
    {
        type            zeroGradient;
    }
    outlet
    {
        type            zeroGradient;
    }
    frontAndBack
    {
        type            empty;
    }
    procBoundary2to0
    {
        type            processor;
        value           nonuniform List<scalar> 
12
(
2.24431e-08
4.18111e-09
1.03978e-08
1.64421e-08
1.82526e-08
1.83097e-08
1.83165e-08
1.82939e-08
1.8188e-08
1.82814e-08
2.03474e-08
1.81914e-08
)
;
    }
    procBoundary2to3
    {
        type            processor;
        value           nonuniform List<scalar> 
25
(
2.21133e-06
1.31447e-06
6.66119e-07
3.37027e-07
1.8646e-07
1.17456e-07
8.42932e-08
6.72932e-08
5.77634e-08
5.16304e-08
5.16304e-08
4.81305e-08
4.55357e-08
4.34293e-08
4.16473e-08
4.00257e-08
3.84707e-08
3.69258e-08
3.53539e-08
3.37282e-08
3.20273e-08
3.02321e-08
2.83226e-08
2.65144e-08
2.44547e-08
)
;
    }
}


// ************************************************************************* //
