/*--------------------------------*- C++ -*----------------------------------*\
| =========                 |                                                 |
| \\      /  F ield         | OpenFOAM: The Open Source CFD Toolbox           |
|  \\    /   O peration     | Version:  dev                                   |
|   \\  /    A nd           | Web:      www.OpenFOAM.org                      |
|    \\/     M anipulation  |                                                 |
\*---------------------------------------------------------------------------*/
FoamFile
{
    version     2.0;
    format      ascii;
    class       volScalarField;
    location    "0.04";
    object      CH2(S);
}
// * * * * * * * * * * * * * * * * * * * * * * * * * * * * * * * * * * * * * //

dimensions      [0 0 0 0 0 0 0];

internalField   nonuniform List<scalar> 
250
(
4.07175e-10
1.90823e-06
2.22545e-06
2.2462e-06
2.24765e-06
2.24741e-06
2.24763e-06
2.24757e-06
2.24749e-06
3.71105e-10
1.14357e-06
1.31131e-06
1.32369e-06
1.3252e-06
1.32475e-06
1.32516e-06
1.32485e-06
1.32467e-06
2.21483e-10
5.42594e-07
6.45674e-07
6.55242e-07
6.56194e-07
6.55681e-07
6.56104e-07
6.55855e-07
6.55856e-07
1.18075e-10
2.5144e-07
3.18913e-07
3.26681e-07
3.27139e-07
3.26798e-07
3.27102e-07
3.26935e-07
3.26953e-07
6.43124e-11
1.24012e-07
1.73318e-07
1.79262e-07
1.80156e-07
1.80082e-07
1.80259e-07
1.80179e-07
1.80184e-07
3.96593e-11
6.83192e-08
1.07165e-07
1.1308e-07
1.13057e-07
1.12701e-07
1.12852e-07
1.12732e-07
1.12767e-07
3.1035e-11
4.02091e-08
7.6133e-08
8.1645e-08
8.16969e-08
8.14551e-08
8.1563e-08
8.147e-08
8.14994e-08
3.74815e-11
2.80256e-08
6.03833e-08
6.57326e-08
6.57657e-08
6.55264e-08
6.55786e-08
6.55313e-08
6.55398e-08
5.35181e-11
2.19339e-08
5.15942e-08
5.6714e-08
5.71231e-08
5.67609e-08
5.6831e-08
5.67548e-08
5.67849e-08
7.10949e-11
1.83459e-08
4.60223e-08
5.10121e-08
5.14529e-08
5.15907e-08
5.16606e-08
5.15829e-08
5.16176e-08
9.4641e-11
1.66285e-08
4.29187e-08
4.77845e-08
4.82403e-08
4.82472e-08
4.83325e-08
4.82236e-08
4.82774e-08
4.82341e-08
1.4517e-10
1.60902e-08
4.06497e-08
4.52589e-08
4.57009e-08
4.5635e-08
4.57313e-08
4.56078e-08
4.5672e-08
4.56173e-08
2.44901e-10
1.62081e-08
3.89013e-08
4.32519e-08
4.3717e-08
4.35944e-08
4.3705e-08
4.35625e-08
4.36388e-08
4.35726e-08
4.32943e-10
1.67245e-08
3.7479e-08
4.15379e-08
4.20161e-08
4.18455e-08
4.19728e-08
4.18079e-08
4.18976e-08
4.18195e-08
7.70714e-10
1.74938e-08
3.62197e-08
3.9968e-08
4.04513e-08
4.02365e-08
4.03824e-08
4.01923e-08
4.02965e-08
4.02059e-08
1.34e-09
1.83903e-08
3.50266e-08
3.84578e-08
3.894e-08
3.86818e-08
3.88479e-08
3.86301e-08
3.87498e-08
3.86459e-08
2.2291e-09
1.92962e-08
3.38386e-08
3.69566e-08
3.74324e-08
3.71296e-08
3.73178e-08
3.70696e-08
3.72059e-08
3.70878e-08
3.50278e-09
2.01114e-08
3.26157e-08
3.54313e-08
3.58958e-08
3.55458e-08
3.57586e-08
3.5477e-08
3.56317e-08
3.54975e-08
5.15644e-09
2.07528e-08
3.13295e-08
3.3858e-08
3.43064e-08
3.39053e-08
3.41461e-08
3.38272e-08
3.40038e-08
3.385e-08
7.07831e-09
2.11559e-08
2.99594e-08
3.22179e-08
3.2645e-08
3.21871e-08
3.24612e-08
3.20998e-08
3.2305e-08
3.21248e-08
9.05654e-09
2.12794e-08
2.84889e-08
3.04944e-08
3.08959e-08
3.03712e-08
3.06874e-08
3.02756e-08
3.05216e-08
3.03028e-08
1.08378e-08
2.1104e-08
2.69042e-08
2.86715e-08
2.90461e-08
2.84344e-08
2.88088e-08
2.83329e-08
2.86401e-08
2.83622e-08
1.2204e-08
2.06306e-08
2.51902e-08
2.67294e-08
2.70838e-08
2.65925e-08
2.68075e-08
2.6485e-08
2.66412e-08
2.65185e-08
1.30256e-08
1.98821e-08
2.3546e-08
2.49157e-08
2.52339e-08
2.46361e-08
2.49051e-08
2.45105e-08
2.47413e-08
2.45529e-08
1.32738e-08
1.88056e-08
2.16948e-08
2.28369e-08
2.31284e-08
2.26081e-08
2.2908e-08
2.24765e-08
2.27446e-08
2.25225e-08
1.30063e-08
1.74619e-08
1.98423e-08
2.08225e-08
2.10825e-08
2.04992e-08
2.08254e-08
2.03622e-08
2.06597e-08
2.04123e-08
)
;

boundaryField
{
    fuel
    {
        type            fixedValue;
        value           uniform 0;
    }
    wall
    {
        type            zeroGradient;
    }
    outlet
    {
        type            zeroGradient;
    }
    frontAndBack
    {
        type            empty;
    }
    procBoundary2to0
    {
        type            processor;
        value           nonuniform List<scalar> 
12
(
2.25799e-08
1.23128e-08
1.61064e-08
1.79049e-08
1.87311e-08
1.89509e-08
1.83259e-08
1.86721e-08
1.81847e-08
1.85043e-08
2.04727e-08
1.82395e-08
)
;
    }
    procBoundary2to3
    {
        type            processor;
        value           nonuniform List<scalar> 
25
(
2.24754e-06
1.32474e-06
6.55948e-07
3.27035e-07
1.80248e-07
1.12774e-07
8.14955e-08
6.55475e-08
5.67651e-08
5.15902e-08
5.15902e-08
4.82375e-08
4.56279e-08
4.35888e-08
4.18404e-08
4.0231e-08
3.86747e-08
3.712e-08
3.55327e-08
3.38879e-08
3.2165e-08
3.03447e-08
2.84054e-08
2.65639e-08
2.46077e-08
)
;
    }
}


// ************************************************************************* //
