/*--------------------------------*- C++ -*----------------------------------*\
| =========                 |                                                 |
| \\      /  F ield         | OpenFOAM: The Open Source CFD Toolbox           |
|  \\    /   O peration     | Version:  dev                                   |
|   \\  /    A nd           | Web:      www.OpenFOAM.org                      |
|    \\/     M anipulation  |                                                 |
\*---------------------------------------------------------------------------*/
FoamFile
{
    version     2.0;
    format      ascii;
    class       volScalarField;
    location    "0.04";
    object      CH2OH;
}
// * * * * * * * * * * * * * * * * * * * * * * * * * * * * * * * * * * * * * //

dimensions      [0 0 0 0 0 0 0];

internalField   nonuniform List<scalar> 
25
(
1.80737e-09
1.66827e-09
1.53065e-09
1.39553e-09
1.26734e-09
1.14625e-09
1.03321e-09
9.28789e-10
8.33231e-10
7.46498e-10
6.68328e-10
5.98296e-10
5.35866e-10
4.80436e-10
4.31374e-10
3.88054e-10
3.4988e-10
3.16304e-10
2.86851e-10
2.61134e-10
2.38872e-10
2.19915e-10
2.04261e-10
1.92076e-10
1.83661e-10
)
;

boundaryField
{
    wall
    {
        type            zeroGradient;
    }
    fuel
    {
        type            fixedValue;
        value           nonuniform 0();
    }
    outlet
    {
        type            inletOutlet;
        inletValue      nonuniform 0();
        value           nonuniform 0();
    }
    procBoundary2to1
    {
        type            processor;
        value           uniform 1.94531e-09;
    }
    procBoundary2to3
    {
        type            processor;
        value           uniform 1.79862e-10;
    }
}


// ************************************************************************* //
