/*--------------------------------*- C++ -*----------------------------------*\
| =========                 |                                                 |
| \\      /  F ield         | OpenFOAM: The Open Source CFD Toolbox           |
|  \\    /   O peration     | Version:  dev                                   |
|   \\  /    A nd           | Web:      www.OpenFOAM.org                      |
|    \\/     M anipulation  |                                                 |
\*---------------------------------------------------------------------------*/
FoamFile
{
    version     2.0;
    format      ascii;
    class       volScalarField;
    location    "0.04";
    object      CO2;
}
// * * * * * * * * * * * * * * * * * * * * * * * * * * * * * * * * * * * * * //

dimensions      [0 0 0 0 0 0 0];

internalField   nonuniform List<scalar> 
25
(
0.0267908
0.0266614
0.0265191
0.0263618
0.0261918
0.0260071
0.0258073
0.0255922
0.0253617
0.0251156
0.0248542
0.0245775
0.0242858
0.0239793
0.0236584
0.0233234
0.0229746
0.0226125
0.0222372
0.0218489
0.0214478
0.0210337
0.0206063
0.0201652
0.0197085
)
;

boundaryField
{
    wall
    {
        type            zeroGradient;
    }
    fuel
    {
        type            fixedValue;
        value           nonuniform 0();
    }
    outlet
    {
        type            inletOutlet;
        inletValue      nonuniform 0();
        value           nonuniform 0();
    }
    procBoundary2to1
    {
        type            processor;
        value           uniform 0.0269084;
    }
    procBoundary2to3
    {
        type            processor;
        value           uniform 0.0192385;
    }
}


// ************************************************************************* //
