/*--------------------------------*- C++ -*----------------------------------*\
| =========                 |                                                 |
| \\      /  F ield         | OpenFOAM: The Open Source CFD Toolbox           |
|  \\    /   O peration     | Version:  dev                                   |
|   \\  /    A nd           | Web:      www.OpenFOAM.org                      |
|    \\/     M anipulation  |                                                 |
\*---------------------------------------------------------------------------*/
FoamFile
{
    version     2.0;
    format      ascii;
    class       volScalarField;
    location    "0.04";
    object      HCCO;
}
// * * * * * * * * * * * * * * * * * * * * * * * * * * * * * * * * * * * * * //

dimensions      [0 0 0 0 0 0 0];

internalField   nonuniform List<scalar> 
25
(
2.86429e-08
2.71058e-08
2.55154e-08
2.38923e-08
2.22999e-08
2.07533e-08
1.9279e-08
1.78995e-08
1.66337e-08
1.54962e-08
1.44978e-08
1.3645e-08
1.29408e-08
1.23847e-08
1.19737e-08
1.17026e-08
1.15644e-08
1.15507e-08
1.16517e-08
1.18559e-08
1.21501e-08
1.25186e-08
1.29434e-08
1.34024e-08
1.38693e-08
)
;

boundaryField
{
    wall
    {
        type            zeroGradient;
    }
    fuel
    {
        type            fixedValue;
        value           nonuniform 0();
    }
    outlet
    {
        type            inletOutlet;
        inletValue      nonuniform 0();
        value           nonuniform 0();
    }
    procBoundary2to1
    {
        type            processor;
        value           uniform 3.00996e-08;
    }
    procBoundary2to3
    {
        type            processor;
        value           uniform 1.43136e-08;
    }
}


// ************************************************************************* //
