/*--------------------------------*- C++ -*----------------------------------*\
| =========                 |                                                 |
| \\      /  F ield         | OpenFOAM: The Open Source CFD Toolbox           |
|  \\    /   O peration     | Version:  dev                                   |
|   \\  /    A nd           | Web:      www.OpenFOAM.org                      |
|    \\/     M anipulation  |                                                 |
\*---------------------------------------------------------------------------*/
FoamFile
{
    version     2.0;
    format      ascii;
    class       volScalarField;
    location    "0.04";
    object      P2-;
}
// * * * * * * * * * * * * * * * * * * * * * * * * * * * * * * * * * * * * * //

dimensions      [0 0 0 0 0 0 0];

internalField   nonuniform List<scalar> 
250
(
3.14628e-11
6.64564e-09
4.99966e-09
4.84308e-09
4.82902e-09
4.82783e-09
4.82812e-09
4.82732e-09
4.82794e-09
3.77161e-11
8.33652e-09
4.40703e-09
4.13814e-09
4.11338e-09
4.10947e-09
4.11011e-09
4.10902e-09
4.10954e-09
2.15365e-11
7.00224e-09
2.82924e-09
2.57595e-09
2.55193e-09
2.54748e-09
2.54854e-09
2.54731e-09
2.54792e-09
1.05299e-11
5.0477e-09
1.61368e-09
1.42166e-09
1.40203e-09
1.39858e-09
1.39954e-09
1.39861e-09
1.39901e-09
5.36978e-12
3.41176e-09
8.91528e-10
7.54952e-10
7.43491e-10
7.41708e-10
7.42259e-10
7.41785e-10
7.41983e-10
2.9644e-12
2.27697e-09
4.97155e-10
4.08002e-10
3.95519e-10
3.92318e-10
3.92857e-10
3.92171e-10
3.92475e-10
1.6961e-12
1.44644e-09
2.90894e-10
2.30604e-10
2.212e-10
2.18843e-10
2.19175e-10
2.18683e-10
2.18906e-10
1.12395e-12
9.77378e-10
1.80204e-10
1.38872e-10
1.31195e-10
1.29084e-10
1.29099e-10
1.28926e-10
1.28976e-10
1.06814e-12
6.79841e-10
1.17074e-10
8.77082e-11
8.34207e-11
8.09217e-11
8.10146e-11
8.07498e-11
8.08749e-11
1.37489e-12
4.50803e-10
7.72304e-11
5.70593e-11
5.3829e-11
5.41786e-11
5.42347e-11
5.40377e-11
5.41401e-11
1.84067e-12
2.96424e-10
5.58834e-11
4.12869e-11
3.86513e-11
3.85164e-11
3.86002e-11
3.83405e-11
3.84824e-11
3.83974e-11
2.60518e-12
2.02617e-10
4.14872e-11
3.05783e-11
2.83122e-11
2.79947e-11
2.80699e-11
2.78438e-11
2.79737e-11
2.78864e-11
3.7093e-12
1.44438e-10
3.17707e-11
2.35572e-11
2.17038e-11
2.12973e-11
2.13709e-11
2.11654e-11
2.12869e-11
2.11998e-11
5.1588e-12
1.03948e-10
2.51996e-11
1.87994e-11
1.72482e-11
1.68077e-11
1.68827e-11
1.66911e-11
1.68058e-11
1.67205e-11
6.9816e-12
7.6085e-11
2.05758e-11
1.54167e-11
1.40939e-11
1.36499e-11
1.37267e-11
1.35459e-11
1.36544e-11
1.35723e-11
9.22444e-12
5.68873e-11
1.7199e-11
1.29077e-11
1.17648e-11
1.13333e-11
1.14112e-11
1.12401e-11
1.13423e-11
1.12642e-11
1.19199e-11
4.36935e-11
1.46488e-11
1.09801e-11
9.98431e-12
9.57328e-12
9.65099e-12
9.4895e-12
9.58523e-12
9.51178e-12
1.50321e-11
3.45949e-11
1.26647e-11
9.45752e-12
8.58517e-12
8.19853e-12
8.27489e-12
8.12307e-12
8.21212e-12
8.14368e-12
1.8434e-11
2.82596e-11
1.10806e-11
8.22912e-12
7.46238e-12
7.10168e-12
7.17599e-12
7.03373e-12
7.11633e-12
7.05265e-12
2.19512e-11
2.37994e-11
9.78834e-12
7.22272e-12
6.54733e-12
6.21249e-12
6.28486e-12
6.15151e-12
6.22883e-12
6.16867e-12
2.54351e-11
2.05991e-11
8.71555e-12
6.38921e-12
5.79358e-12
5.48287e-12
5.55451e-12
5.42855e-12
5.50327e-12
5.44387e-12
2.88006e-11
1.82399e-11
7.81187e-12
5.69384e-12
5.16865e-12
4.87758e-12
4.95172e-12
4.82998e-12
4.90697e-12
4.8434e-12
3.20048e-11
1.64446e-11
7.04029e-12
5.11025e-12
4.64887e-12
4.428e-12
4.45157e-12
4.38564e-12
4.41453e-12
4.3979e-12
3.49968e-11
1.5037e-11
6.44882e-12
4.68023e-12
4.26419e-12
4.05557e-12
4.08029e-12
4.01578e-12
4.04977e-12
4.02756e-12
3.76765e-11
1.38087e-11
5.91647e-12
4.2929e-12
3.92373e-12
3.75527e-12
3.77682e-12
3.7195e-12
3.75152e-12
3.7298e-12
3.98868e-11
1.27619e-11
5.48337e-12
3.99927e-12
3.6659e-12
3.5134e-12
3.53106e-12
3.48091e-12
3.50948e-12
3.48965e-12
)
;

boundaryField
{
    fuel
    {
        type            fixedValue;
        value           uniform 0;
    }
    wall
    {
        type            zeroGradient;
    }
    outlet
    {
        type            zeroGradient;
    }
    frontAndBack
    {
        type            empty;
    }
    procBoundary2to0
    {
        type            processor;
        value           nonuniform List<scalar> 
12
(
3.74185e-12
4.13995e-11
1.19555e-11
5.11274e-12
3.75923e-12
3.457e-12
3.32073e-12
3.33411e-12
3.29078e-12
3.31501e-12
3.49984e-12
3.29794e-12
)
;
    }
    procBoundary2to3
    {
        type            processor;
        value           nonuniform List<scalar> 
25
(
4.82881e-09
4.11072e-09
2.54883e-09
1.39964e-09
7.42423e-10
3.92543e-10
2.18909e-10
1.29069e-10
8.08414e-11
5.41001e-11
5.41001e-11
3.83873e-11
2.78948e-11
2.1219e-11
1.67458e-11
1.36003e-11
1.12931e-11
9.54014e-12
8.17064e-12
7.07762e-12
6.19124e-12
5.46376e-12
4.86046e-12
4.41276e-12
4.04153e-12
)
;
    }
}


// ************************************************************************* //
