/*--------------------------------*- C++ -*----------------------------------*\
| =========                 |                                                 |
| \\      /  F ield         | OpenFOAM: The Open Source CFD Toolbox           |
|  \\    /   O peration     | Version:  dev                                   |
|   \\  /    A nd           | Web:      www.OpenFOAM.org                      |
|    \\/     M anipulation  |                                                 |
\*---------------------------------------------------------------------------*/
FoamFile
{
    version     2.0;
    format      ascii;
    class       volScalarField;
    location    "0.055";
    object      A2C2HB;
}
// * * * * * * * * * * * * * * * * * * * * * * * * * * * * * * * * * * * * * //

dimensions      [0 0 0 0 0 0 0];

internalField   nonuniform List<scalar> 
25
(
2.76791e-16
2.84809e-16
2.92603e-16
3.00182e-16
3.06946e-16
3.13022e-16
3.18154e-16
3.22208e-16
3.25063e-16
3.26491e-16
3.26264e-16
3.24272e-16
3.20332e-16
3.14261e-16
3.05876e-16
2.94986e-16
2.81394e-16
2.64889e-16
2.45249e-16
2.22233e-16
1.9558e-16
1.6501e-16
1.30186e-16
9.06272e-17
4.53331e-17
)
;

boundaryField
{
    wall
    {
        type            zeroGradient;
    }
    fuel
    {
        type            fixedValue;
        value           nonuniform 0();
    }
    outlet
    {
        type            inletOutlet;
        inletValue      uniform 0;
        value           uniform 4.53331e-17;
    }
    procBoundary3to2
    {
        type            processor;
        value           uniform 2.68089e-16;
    }
}


// ************************************************************************* //
