/*--------------------------------*- C++ -*----------------------------------*\
| =========                 |                                                 |
| \\      /  F ield         | OpenFOAM: The Open Source CFD Toolbox           |
|  \\    /   O peration     | Version:  dev                                   |
|   \\  /    A nd           | Web:      www.OpenFOAM.org                      |
|    \\/     M anipulation  |                                                 |
\*---------------------------------------------------------------------------*/
FoamFile
{
    version     2.0;
    format      ascii;
    class       volScalarField;
    location    "0.055";
    object      PC3H4;
}
// * * * * * * * * * * * * * * * * * * * * * * * * * * * * * * * * * * * * * //

dimensions      [0 0 0 0 0 0 0];

internalField   nonuniform List<scalar> 
25
(
2.13228e-16
2.27928e-16
2.45067e-16
2.66248e-16
2.91672e-16
3.23876e-16
3.65046e-16
4.18398e-16
4.87859e-16
5.80183e-16
6.95921e-16
8.45799e-16
1.03873e-15
1.2858e-15
1.59852e-15
1.98332e-15
2.43149e-15
2.90534e-15
3.3305e-15
3.60567e-15
3.63321e-15
3.35992e-15
2.79934e-15
2.00455e-15
1.01468e-15
)
;

boundaryField
{
    wall
    {
        type            zeroGradient;
    }
    fuel
    {
        type            fixedValue;
        value           nonuniform 0();
    }
    outlet
    {
        type            inletOutlet;
        inletValue      uniform 0;
        value           uniform 1.01468e-15;
    }
    procBoundary3to2
    {
        type            processor;
        value           uniform 1.99509e-16;
    }
}


// ************************************************************************* //
