/*--------------------------------*- C++ -*----------------------------------*\
| =========                 |                                                 |
| \\      /  F ield         | OpenFOAM: The Open Source CFD Toolbox           |
|  \\    /   O peration     | Version:  dev                                   |
|   \\  /    A nd           | Web:      www.OpenFOAM.org                      |
|    \\/     M anipulation  |                                                 |
\*---------------------------------------------------------------------------*/
FoamFile
{
    version     2.0;
    format      ascii;
    class       volScalarField;
    location    "0.015";
    object      A4-;
}
// * * * * * * * * * * * * * * * * * * * * * * * * * * * * * * * * * * * * * //

dimensions      [0 0 0 0 0 0 0];

internalField   nonuniform List<scalar> 
250
(
5.88566e-12
2.3838e-09
1.6996e-09
1.53445e-09
1.46893e-09
1.43276e-09
1.40778e-09
1.38939e-09
1.37979e-09
8.47638e-12
4.45172e-09
3.03228e-09
2.67547e-09
2.53429e-09
2.45614e-09
2.40156e-09
2.36416e-09
2.3441e-09
8.90533e-12
5.47986e-09
3.82964e-09
3.30483e-09
3.0912e-09
2.97411e-09
2.89436e-09
2.8412e-09
2.81274e-09
8.65284e-12
5.72583e-09
4.23903e-09
3.58303e-09
3.30575e-09
3.15596e-09
3.05695e-09
2.99274e-09
2.95878e-09
9.36744e-12
5.6072e-09
4.42508e-09
3.66738e-09
3.33361e-09
3.157e-09
3.04356e-09
2.97189e-09
2.93509e-09
1.39987e-11
5.40657e-09
4.50879e-09
3.66376e-09
3.27869e-09
3.07759e-09
2.94851e-09
2.87556e-09
2.8381e-09
3.5353e-11
5.23989e-09
4.55878e-09
3.62877e-09
3.19432e-09
2.96894e-09
2.82897e-09
2.75213e-09
2.71596e-09
8.96435e-11
5.16665e-09
4.61198e-09
3.58735e-09
3.09856e-09
2.85235e-09
2.70233e-09
2.60878e-09
2.57387e-09
1.96833e-10
5.18775e-09
4.66717e-09
3.54312e-09
2.99223e-09
2.72391e-09
2.56896e-09
2.47352e-09
2.42208e-09
3.75494e-10
5.28246e-09
4.71106e-09
3.50147e-09
2.89906e-09
2.58813e-09
2.42409e-09
2.33954e-09
2.28987e-09
6.29389e-10
5.43225e-09
4.75729e-09
3.46616e-09
2.80417e-09
2.4521e-09
2.29766e-09
2.19268e-09
2.14148e-09
2.12773e-09
9.52363e-10
5.58674e-09
4.78291e-09
3.43236e-09
2.70659e-09
2.33483e-09
2.15613e-09
2.04288e-09
1.99344e-09
1.97219e-09
1.33953e-09
5.72093e-09
4.79081e-09
3.40016e-09
2.62621e-09
2.22103e-09
2.01707e-09
1.89621e-09
1.84791e-09
1.81995e-09
1.77908e-09
5.803e-09
4.77718e-09
3.37211e-09
2.54957e-09
2.10382e-09
1.88295e-09
1.7545e-09
1.70664e-09
1.67307e-09
2.23526e-09
5.80675e-09
4.73822e-09
3.34487e-09
2.47994e-09
1.99569e-09
1.75578e-09
1.61938e-09
1.57121e-09
1.53278e-09
2.6466e-09
5.71532e-09
4.67065e-09
3.31638e-09
2.4209e-09
1.89709e-09
1.63686e-09
1.49196e-09
1.4429e-09
1.4085e-09
2.94741e-09
5.52339e-09
4.57181e-09
3.28331e-09
2.36762e-09
1.81704e-09
1.52683e-09
1.37281e-09
1.32234e-09
1.29281e-09
3.09688e-09
5.23744e-09
4.43982e-09
3.24164e-09
2.31899e-09
1.73861e-09
1.42566e-09
1.26202e-09
1.20979e-09
1.18724e-09
3.09323e-09
4.87392e-09
4.27008e-09
3.1871e-09
2.27297e-09
1.67257e-09
1.33287e-09
1.15932e-09
1.10504e-09
1.08394e-09
2.96458e-09
4.45583e-09
4.06941e-09
3.11568e-09
2.22679e-09
1.61235e-09
1.24755e-09
1.06415e-09
1.00767e-09
9.84885e-10
2.7483e-09
4.0078e-09
3.8281e-09
3.02425e-09
2.17735e-09
1.5564e-09
1.16838e-09
9.75812e-10
9.17112e-10
8.92748e-10
2.47551e-09
3.55291e-09
3.56329e-09
2.90459e-09
2.12137e-09
1.50289e-09
1.10197e-09
8.93456e-10
8.32727e-10
8.0697e-10
2.16764e-09
3.10955e-09
3.27315e-09
2.75359e-09
2.05577e-09
1.44964e-09
1.03987e-09
8.16069e-10
7.53838e-10
7.26888e-10
1.8411e-09
2.6906e-09
2.96633e-09
2.57559e-09
1.97741e-09
1.39445e-09
9.81142e-10
7.50517e-10
6.79782e-10
6.51814e-10
1.51202e-09
2.30532e-09
2.63754e-09
2.37478e-09
1.88517e-09
1.33523e-09
9.24672e-10
6.8618e-10
6.09818e-10
5.81049e-10
1.19727e-09
1.944e-09
2.32245e-09
2.16805e-09
1.77056e-09
1.27013e-09
8.68806e-10
6.22253e-10
5.50577e-10
5.21239e-10
)
;

boundaryField
{
    fuel
    {
        type            fixedValue;
        value           uniform 0;
    }
    wall
    {
        type            zeroGradient;
    }
    outlet
    {
        type            zeroGradient;
    }
    frontAndBack
    {
        type            empty;
    }
    procBoundary2to0
    {
        type            processor;
        value           nonuniform List<scalar> 
12
(
5.80971e-10
9.12604e-10
1.62668e-09
2.01641e-09
1.94762e-09
1.63852e-09
1.19776e-09
8.131e-10
5.66682e-10
4.90282e-10
5.21162e-10
4.63248e-10
)
;
    }
    procBoundary2to3
    {
        type            processor;
        value           nonuniform List<scalar> 
25
(
1.37572e-09
2.33557e-09
2.80078e-09
2.94455e-09
2.91923e-09
2.82043e-09
2.69538e-09
2.54627e-09
2.40719e-09
2.26629e-09
2.26629e-09
2.12779e-09
1.97225e-09
1.82001e-09
1.67304e-09
1.53257e-09
1.40782e-09
1.29287e-09
1.18728e-09
1.08395e-09
9.84866e-10
8.92713e-10
8.06922e-10
7.26828e-10
6.51735e-10
)
;
    }
}


// ************************************************************************* //
