/*--------------------------------*- C++ -*----------------------------------*\
| =========                 |                                                 |
| \\      /  F ield         | OpenFOAM: The Open Source CFD Toolbox           |
|  \\    /   O peration     | Version:  dev                                   |
|   \\  /    A nd           | Web:      www.OpenFOAM.org                      |
|    \\/     M anipulation  |                                                 |
\*---------------------------------------------------------------------------*/
FoamFile
{
    version     2.0;
    format      ascii;
    class       volScalarField;
    location    "0.015";
    object      AC3H4;
}
// * * * * * * * * * * * * * * * * * * * * * * * * * * * * * * * * * * * * * //

dimensions      [0 0 0 0 0 0 0];

internalField   nonuniform List<scalar> 
25
(
7.13752e-06
7.65716e-06
8.07729e-06
8.39251e-06
8.60371e-06
8.71722e-06
8.74319e-06
8.69351e-06
8.57997e-06
8.41312e-06
8.20173e-06
7.95284e-06
7.6721e-06
7.36419e-06
7.03327e-06
6.68337e-06
6.31854e-06
5.9422e-06
5.55644e-06
5.16868e-06
4.75767e-06
4.37864e-06
3.99491e-06
3.58363e-06
3.17324e-06
)
;

boundaryField
{
    wall
    {
        type            zeroGradient;
    }
    fuel
    {
        type            fixedValue;
        value           nonuniform 0();
    }
    outlet
    {
        type            inletOutlet;
        inletValue      nonuniform 0();
        value           nonuniform 0();
    }
    procBoundary2to1
    {
        type            processor;
        value           uniform 6.52974e-06;
    }
    procBoundary2to3
    {
        type            processor;
        value           uniform 2.83826e-06;
    }
}


// ************************************************************************* //
