/*--------------------------------*- C++ -*----------------------------------*\
| =========                 |                                                 |
| \\      /  F ield         | OpenFOAM: The Open Source CFD Toolbox           |
|  \\    /   O peration     | Version:  dev                                   |
|   \\  /    A nd           | Web:      www.OpenFOAM.org                      |
|    \\/     M anipulation  |                                                 |
\*---------------------------------------------------------------------------*/
FoamFile
{
    version     2.0;
    format      ascii;
    class       volScalarField;
    location    "0.015";
    object      c-C6H7;
}
// * * * * * * * * * * * * * * * * * * * * * * * * * * * * * * * * * * * * * //

dimensions      [0 0 0 0 0 0 0];

internalField   nonuniform List<scalar> 
250
(
2.67478e-09
1.2338e-08
1.00967e-08
9.88751e-09
9.8234e-09
9.7819e-09
9.74851e-09
9.723e-09
9.70973e-09
2.30502e-09
8.74255e-09
6.13303e-09
5.92667e-09
5.86682e-09
5.82637e-09
5.79418e-09
5.77111e-09
5.75825e-09
4.42584e-10
5.09129e-09
3.04964e-09
2.90411e-09
2.86045e-09
2.83233e-09
2.81001e-09
2.79404e-09
2.78472e-09
3.62212e-10
2.94337e-09
1.50912e-09
1.412e-09
1.38058e-09
1.36228e-09
1.34743e-09
1.3361e-09
1.32964e-09
7.07479e-10
1.78902e-09
8.07682e-10
7.40052e-10
7.16627e-10
7.02488e-10
6.95293e-10
6.85193e-10
6.80726e-10
1.00759e-09
1.15069e-09
4.82864e-10
4.31197e-10
4.13431e-10
4.02514e-10
3.90783e-10
3.89291e-10
3.86321e-10
1.0038e-09
7.72574e-10
3.23093e-10
2.80543e-10
2.66591e-10
2.56906e-10
2.47662e-10
2.46485e-10
2.44955e-10
7.06514e-10
5.59718e-10
2.30527e-10
2.02276e-10
1.8769e-10
1.80921e-10
1.72716e-10
1.6658e-10
1.65983e-10
4.71453e-10
4.28396e-10
1.78323e-10
1.53651e-10
1.39399e-10
1.35101e-10
1.28703e-10
1.24001e-10
1.19747e-10
3.48886e-10
3.44774e-10
1.50642e-10
1.24461e-10
1.13373e-10
1.06225e-10
1.00012e-10
9.81083e-11
9.48241e-11
2.82562e-10
2.87689e-10
1.31442e-10
1.08293e-10
9.5926e-11
8.74935e-11
8.36031e-11
7.98055e-11
7.67591e-11
7.69125e-11
2.47531e-10
2.52943e-10
1.20915e-10
9.69533e-11
8.34192e-11
7.61435e-11
7.10404e-11
6.69548e-11
6.42888e-11
6.3756e-11
2.34258e-10
2.31841e-10
1.14837e-10
8.91618e-11
7.57901e-11
6.79795e-11
6.20163e-11
5.76927e-11
5.52206e-11
5.42126e-11
2.3787e-10
2.20808e-10
1.12025e-10
8.47828e-11
7.02239e-11
6.1451e-11
5.52426e-11
5.06884e-11
4.82852e-11
4.69483e-11
2.55273e-10
2.17458e-10
1.11774e-10
8.2308e-11
6.63427e-11
5.65619e-11
4.99657e-11
4.51629e-11
4.2745e-11
4.11586e-11
2.84354e-10
2.19993e-10
1.13661e-10
8.14033e-11
6.38724e-11
5.28248e-11
4.57227e-11
4.0643e-11
3.81587e-11
3.66553e-11
3.23568e-10
2.2693e-10
1.17423e-10
8.1896e-11
6.23564e-11
5.02507e-11
4.22196e-11
3.68336e-11
3.42514e-11
3.28505e-11
3.71813e-10
2.36988e-10
1.22869e-10
8.37132e-11
6.17032e-11
4.80825e-11
3.92636e-11
3.35469e-11
3.08505e-11
2.96058e-11
4.28528e-10
2.49052e-10
1.29977e-10
8.68373e-11
6.18757e-11
4.65932e-11
3.67289e-11
3.06607e-11
2.78428e-11
2.65929e-11
4.93609e-10
2.62194e-10
1.38156e-10
9.12691e-11
6.28767e-11
4.5583e-11
3.45298e-11
2.80938e-11
2.51538e-11
2.38205e-11
5.66812e-10
2.7569e-10
1.47644e-10
9.69964e-11
6.47376e-11
4.50389e-11
3.26077e-11
2.5791e-11
2.27339e-11
2.13299e-11
6.46765e-10
2.89021e-10
1.57549e-10
1.04398e-10
6.75002e-11
4.49708e-11
3.11257e-11
2.37127e-11
2.05475e-11
1.90865e-11
7.30174e-10
3.01864e-10
1.6778e-10
1.13266e-10
7.11932e-11
4.5398e-11
2.98805e-11
2.18277e-11
1.85686e-11
1.7063e-11
8.11822e-10
3.13995e-10
1.77897e-10
1.22875e-10
7.58422e-11
4.63441e-11
2.88688e-11
2.03066e-11
1.67761e-11
1.52366e-11
8.8565e-10
3.25097e-10
1.87865e-10
1.32627e-10
8.13273e-11
4.78241e-11
2.80906e-11
1.88895e-11
1.51506e-11
1.35873e-11
9.46664e-10
3.35174e-10
1.96471e-10
1.41717e-10
8.78893e-11
4.98295e-11
2.75285e-11
1.75743e-11
1.38463e-11
1.22649e-11
)
;

boundaryField
{
    fuel
    {
        type            fixedValue;
        value           uniform 0;
    }
    wall
    {
        type            zeroGradient;
    }
    outlet
    {
        type            zeroGradient;
    }
    frontAndBack
    {
        type            empty;
    }
    procBoundary2to0
    {
        type            processor;
        value           nonuniform List<scalar> 
12
(
1.35807e-11
9.92423e-10
3.43073e-10
2.03848e-10
1.50414e-10
9.48217e-11
5.23017e-11
2.72063e-11
1.65358e-11
1.25897e-11
1.22593e-11
1.10538e-11
)
;
    }
    procBoundary2to3
    {
        type            processor;
        value           nonuniform List<scalar> 
25
(
9.70274e-09
5.75183e-09
2.78054e-09
1.32698e-09
6.78801e-10
3.84608e-10
2.42999e-10
1.62401e-10
1.20123e-10
9.38869e-11
9.38869e-11
7.69146e-11
6.37596e-11
5.42159e-11
4.69482e-11
4.11515e-11
3.66322e-11
3.28517e-11
2.96048e-11
2.65903e-11
2.38164e-11
2.13249e-11
1.90809e-11
1.70569e-11
1.52298e-11
)
;
    }
}


// ************************************************************************* //
