/*--------------------------------*- C++ -*----------------------------------*\
| =========                 |                                                 |
| \\      /  F ield         | OpenFOAM: The Open Source CFD Toolbox           |
|  \\    /   O peration     | Version:  dev                                   |
|   \\  /    A nd           | Web:      www.OpenFOAM.org                      |
|    \\/     M anipulation  |                                                 |
\*---------------------------------------------------------------------------*/
FoamFile
{
    version     2.0;
    format      ascii;
    class       volScalarField;
    location    "0.015";
    object      C2H3O;
}
// * * * * * * * * * * * * * * * * * * * * * * * * * * * * * * * * * * * * * //

dimensions      [0 0 0 0 0 0 0];

internalField   nonuniform List<scalar> 
250
(
7.1285e-06
1.41042e-07
7.85479e-08
7.55851e-08
7.50621e-08
7.4529e-08
7.38063e-08
7.37528e-08
7.35859e-08
1.18629e-05
7.60876e-08
2.88438e-08
2.79155e-08
2.77315e-08
2.75644e-08
2.73833e-08
2.73371e-08
2.72857e-08
1.14381e-05
5.49744e-08
1.15407e-08
1.11741e-08
1.10941e-08
1.10318e-08
1.09751e-08
1.09505e-08
1.09304e-08
8.28752e-06
3.5802e-08
5.25932e-09
5.07742e-09
5.03226e-09
5.00438e-09
4.98002e-09
4.96464e-09
4.95427e-09
5.10343e-06
1.94596e-08
2.79678e-09
2.69598e-09
2.66573e-09
2.64557e-09
2.64268e-09
2.62589e-09
2.61979e-09
2.5359e-06
8.71029e-09
1.73653e-09
1.67561e-09
1.65505e-09
1.64102e-09
1.62093e-09
1.62782e-09
1.62477e-09
9.09368e-07
3.81898e-09
1.23701e-09
1.19573e-09
1.18276e-09
1.17015e-09
1.1567e-09
1.16256e-09
1.163e-09
2.35515e-07
1.91068e-09
9.57982e-10
9.52382e-10
9.36013e-10
9.30924e-10
9.20218e-10
9.10105e-10
9.13007e-10
5.81184e-08
1.17215e-09
8.03799e-10
8.04034e-10
7.88565e-10
7.90278e-10
7.85037e-10
7.78977e-10
7.70914e-10
1.63127e-08
8.7012e-10
7.21025e-10
7.14595e-10
7.09368e-10
7.02491e-10
6.98222e-10
7.00345e-10
6.95345e-10
5.4794e-09
7.18737e-10
6.58981e-10
6.62664e-10
6.54474e-10
6.4407e-10
6.47742e-10
6.43949e-10
6.39726e-10
6.41722e-10
2.26e-09
6.35938e-10
6.18658e-10
6.21601e-10
6.11455e-10
6.06189e-10
6.06662e-10
6.02025e-10
5.9905e-10
5.98632e-10
1.17021e-09
5.81756e-10
5.86496e-10
5.86893e-10
5.81222e-10
5.75638e-10
5.73988e-10
5.68736e-10
5.6649e-10
5.64295e-10
7.61962e-10
5.42885e-10
5.58966e-10
5.60622e-10
5.54278e-10
5.47039e-10
5.4606e-10
5.40303e-10
5.38448e-10
5.34894e-10
6.05222e-10
5.13193e-10
5.3406e-10
5.36857e-10
5.30081e-10
5.21455e-10
5.20984e-10
5.14753e-10
5.13072e-10
5.08374e-10
5.60091e-10
4.89709e-10
5.10659e-10
5.14575e-10
5.08701e-10
4.97719e-10
4.9773e-10
4.91023e-10
4.89397e-10
4.85214e-10
5.79935e-10
4.71273e-10
4.88153e-10
4.93176e-10
4.88124e-10
4.77674e-10
4.75702e-10
4.6852e-10
4.6688e-10
4.63415e-10
6.548e-10
4.57894e-10
4.66235e-10
4.72301e-10
4.68149e-10
4.56298e-10
4.54506e-10
4.46889e-10
4.45211e-10
4.42969e-10
7.97254e-10
4.50318e-10
4.44137e-10
4.51745e-10
4.48607e-10
4.37065e-10
4.33872e-10
4.25899e-10
4.2418e-10
4.22135e-10
1.04313e-09
4.49732e-10
4.23341e-10
4.31443e-10
4.29332e-10
4.18229e-10
4.13551e-10
4.05382e-10
4.03641e-10
4.01155e-10
1.4608e-09
4.57572e-10
4.0265e-10
4.11435e-10
4.10202e-10
3.99668e-10
3.93296e-10
3.85197e-10
3.83482e-10
3.80557e-10
2.16987e-09
4.75852e-10
3.83818e-10
3.90181e-10
3.91137e-10
3.81308e-10
3.75355e-10
3.65213e-10
3.63605e-10
3.60258e-10
3.37175e-09
5.07567e-10
3.6662e-10
3.68128e-10
3.72105e-10
3.63054e-10
3.57604e-10
3.45281e-10
3.43914e-10
3.40166e-10
5.39132e-09
5.57052e-10
3.51782e-10
3.46573e-10
3.52938e-10
3.44827e-10
3.39986e-10
3.27568e-10
3.24313e-10
3.20179e-10
8.71923e-09
6.29496e-10
3.39028e-10
3.26695e-10
3.33751e-10
3.26569e-10
3.22426e-10
3.0919e-10
3.04688e-10
3.00195e-10
1.40319e-08
7.36192e-10
3.30571e-10
3.09568e-10
3.1302e-10
3.08246e-10
3.04858e-10
2.89676e-10
2.87223e-10
2.82431e-10
)
;

boundaryField
{
    fuel
    {
        type            fixedValue;
        value           uniform 0;
    }
    wall
    {
        type            zeroGradient;
    }
    outlet
    {
        type            zeroGradient;
    }
    frontAndBack
    {
        type            empty;
    }
    procBoundary2to0
    {
        type            processor;
        value           nonuniform List<scalar> 
12
(
3.00199e-10
2.21561e-08
8.79563e-10
3.26293e-10
2.94185e-10
2.92407e-10
2.89882e-10
2.87307e-10
2.72075e-10
2.6835e-10
2.82442e-10
2.64181e-10
)
;
    }
    procBoundary2to3
    {
        type            processor;
        value           nonuniform List<scalar> 
25
(
7.34885e-08
2.7258e-08
1.09215e-08
4.95077e-09
2.61777e-09
1.62281e-09
1.16002e-09
9.04743e-10
7.74199e-10
6.94258e-10
6.94258e-10
6.41758e-10
5.9868e-10
5.64339e-10
5.34917e-10
5.08356e-10
4.85105e-10
4.63444e-10
4.4299e-10
4.22152e-10
4.01165e-10
3.80564e-10
3.60261e-10
3.40166e-10
3.20177e-10
)
;
    }
}


// ************************************************************************* //
