/*--------------------------------*- C++ -*----------------------------------*\
| =========                 |                                                 |
| \\      /  F ield         | OpenFOAM: The Open Source CFD Toolbox           |
|  \\    /   O peration     | Version:  dev                                   |
|   \\  /    A nd           | Web:      www.OpenFOAM.org                      |
|    \\/     M anipulation  |                                                 |
\*---------------------------------------------------------------------------*/
FoamFile
{
    version     2.0;
    format      ascii;
    class       volScalarField;
    location    "0.015";
    object      C2O;
}
// * * * * * * * * * * * * * * * * * * * * * * * * * * * * * * * * * * * * * //

dimensions      [0 0 0 0 0 0 0];

internalField   nonuniform List<scalar> 
250
(
1.6984e-09
7.18699e-06
9.05821e-06
9.20322e-06
9.22694e-06
9.25284e-06
9.29105e-06
9.29205e-06
9.30023e-06
2.22454e-09
6.01038e-06
7.05627e-06
7.13809e-06
7.15607e-06
7.1686e-06
7.18355e-06
7.19026e-06
7.19429e-06
1.73224e-09
3.63062e-06
4.24173e-06
4.29456e-06
4.30543e-06
4.3129e-06
4.32108e-06
4.32711e-06
4.32936e-06
1.20188e-09
2.12268e-06
2.50339e-06
2.54022e-06
2.54527e-06
2.55068e-06
2.55604e-06
2.55971e-06
2.56113e-06
8.75869e-10
1.33006e-06
1.59225e-06
1.61835e-06
1.62016e-06
1.6217e-06
1.63064e-06
1.62999e-06
1.63131e-06
7.62514e-10
9.16967e-07
1.12225e-06
1.13987e-06
1.14122e-06
1.14181e-06
1.13843e-06
1.14848e-06
1.15054e-06
1.17832e-09
6.84842e-07
8.68193e-07
8.80493e-07
8.82894e-07
8.82143e-07
8.80498e-07
8.89353e-07
8.93259e-07
2.18262e-09
5.57687e-07
7.05648e-07
7.31236e-07
7.29214e-07
7.32541e-07
7.31916e-07
7.29595e-07
7.3511e-07
4.57853e-09
4.79484e-07
6.02271e-07
6.26904e-07
6.2408e-07
6.32478e-07
6.3611e-07
6.3655e-07
6.3382e-07
1.03192e-08
4.28036e-07
5.38155e-07
5.54237e-07
5.59559e-07
5.61278e-07
5.66708e-07
5.74381e-07
5.74148e-07
2.1428e-08
3.89624e-07
4.83001e-07
5.05712e-07
5.08705e-07
5.0792e-07
5.21918e-07
5.25204e-07
5.26038e-07
5.29549e-07
3.87245e-08
3.61799e-07
4.42501e-07
4.62591e-07
4.64393e-07
4.69908e-07
4.82247e-07
4.8595e-07
4.88635e-07
4.90418e-07
6.10137e-08
3.38769e-07
4.0728e-07
4.23146e-07
4.30593e-07
4.37158e-07
4.48957e-07
4.53548e-07
4.57849e-07
4.58521e-07
8.50428e-08
3.18133e-07
3.75529e-07
3.91485e-07
3.99073e-07
4.05397e-07
4.19741e-07
4.25553e-07
4.31319e-07
4.31351e-07
1.06739e-07
2.98406e-07
3.46166e-07
3.62133e-07
3.69932e-07
3.7647e-07
3.93296e-07
4.00536e-07
4.07694e-07
4.07371e-07
1.2258e-07
2.78715e-07
3.18593e-07
3.34533e-07
3.4391e-07
3.49441e-07
3.68813e-07
3.77614e-07
3.86158e-07
3.87002e-07
1.30032e-07
2.58629e-07
2.92495e-07
3.08349e-07
3.18896e-07
3.26434e-07
3.45742e-07
3.56196e-07
3.66153e-07
3.68338e-07
1.27853e-07
2.37996e-07
2.67735e-07
2.83399e-07
2.94854e-07
3.02212e-07
3.23668e-07
3.35857e-07
3.47273e-07
3.51198e-07
1.16683e-07
2.16788e-07
2.43706e-07
2.59605e-07
2.71717e-07
2.80434e-07
3.02277e-07
3.16262e-07
3.29178e-07
3.33981e-07
9.91467e-08
1.95015e-07
2.21609e-07
2.36979e-07
2.49411e-07
2.59266e-07
2.81286e-07
2.97135e-07
3.11579e-07
3.16739e-07
7.89472e-08
1.72683e-07
2.00174e-07
2.1561e-07
2.27911e-07
2.38641e-07
2.60413e-07
2.78235e-07
2.94216e-07
2.99723e-07
5.94462e-08
1.49958e-07
1.80681e-07
1.94335e-07
2.07232e-07
2.18538e-07
2.41751e-07
2.59344e-07
2.7685e-07
2.82684e-07
4.27203e-08
1.27231e-07
1.62433e-07
1.73715e-07
1.87431e-07
1.98936e-07
2.23211e-07
2.40233e-07
2.59258e-07
2.65372e-07
2.94993e-08
1.05168e-07
1.45464e-07
1.54696e-07
1.68447e-07
1.79852e-07
2.04768e-07
2.22815e-07
2.41237e-07
2.47553e-07
1.96339e-08
8.46669e-08
1.28927e-07
1.37505e-07
1.50537e-07
1.61337e-07
1.86396e-07
2.04411e-07
2.22582e-07
2.29004e-07
1.25867e-08
6.5807e-08
1.14003e-07
1.22699e-07
1.32614e-07
1.43474e-07
1.68162e-07
1.8456e-07
2.05242e-07
2.11669e-07
)
;

boundaryField
{
    fuel
    {
        type            fixedValue;
        value           uniform 0;
    }
    wall
    {
        type            zeroGradient;
    }
    outlet
    {
        type            zeroGradient;
    }
    frontAndBack
    {
        type            empty;
    }
    procBoundary2to0
    {
        type            processor;
        value           nonuniform List<scalar> 
12
(
2.29062e-07
7.76527e-09
5.01557e-08
9.97765e-08
1.08963e-07
1.15974e-07
1.26394e-07
1.50135e-07
1.66242e-07
1.85883e-07
2.11731e-07
1.93044e-07
)
;
    }
    procBoundary2to3
    {
        type            processor;
        value           nonuniform List<scalar> 
25
(
9.30533e-06
7.19739e-06
4.33174e-06
2.56295e-06
1.63252e-06
1.15096e-06
8.92435e-07
7.3029e-07
6.37523e-07
5.74561e-07
5.74561e-07
5.29594e-07
4.90472e-07
4.58571e-07
4.31382e-07
4.0737e-07
3.86925e-07
3.68385e-07
3.51242e-07
3.34026e-07
3.16784e-07
2.99771e-07
2.82733e-07
2.65423e-07
2.47606e-07
)
;
    }
}


// ************************************************************************* //
