/*--------------------------------*- C++ -*----------------------------------*\
| =========                 |                                                 |
| \\      /  F ield         | OpenFOAM: The Open Source CFD Toolbox           |
|  \\    /   O peration     | Version:  dev                                   |
|   \\  /    A nd           | Web:      www.OpenFOAM.org                      |
|    \\/     M anipulation  |                                                 |
\*---------------------------------------------------------------------------*/
FoamFile
{
    version     2.0;
    format      ascii;
    class       volScalarField;
    location    "0.015";
    object      C6H5OH;
}
// * * * * * * * * * * * * * * * * * * * * * * * * * * * * * * * * * * * * * //

dimensions      [0 0 0 0 0 0 0];

internalField   nonuniform List<scalar> 
25
(
7.53962e-07
7.98753e-07
8.3589e-07
8.64978e-07
8.8606e-07
8.99513e-07
9.05906e-07
9.05867e-07
9.00007e-07
8.88891e-07
8.73031e-07
8.52892e-07
8.28893e-07
8.0142e-07
7.70847e-07
7.3756e-07
7.01967e-07
6.64426e-07
6.25175e-07
5.85029e-07
5.41788e-07
5.01309e-07
4.59773e-07
4.14701e-07
3.69213e-07
)
;

boundaryField
{
    wall
    {
        type            zeroGradient;
    }
    fuel
    {
        type            fixedValue;
        value           nonuniform 0();
    }
    outlet
    {
        type            inletOutlet;
        inletValue      nonuniform 0();
        value           nonuniform 0();
    }
    procBoundary2to1
    {
        type            processor;
        value           uniform 7.02347e-07;
    }
    procBoundary2to3
    {
        type            processor;
        value           uniform 3.31692e-07;
    }
}


// ************************************************************************* //
