/*--------------------------------*- C++ -*----------------------------------*\
| =========                 |                                                 |
| \\      /  F ield         | OpenFOAM: The Open Source CFD Toolbox           |
|  \\    /   O peration     | Version:  dev                                   |
|   \\  /    A nd           | Web:      www.OpenFOAM.org                      |
|    \\/     M anipulation  |                                                 |
\*---------------------------------------------------------------------------*/
FoamFile
{
    version     2.0;
    format      ascii;
    class       volScalarField;
    location    "0.015";
    object      CH2CO;
}
// * * * * * * * * * * * * * * * * * * * * * * * * * * * * * * * * * * * * * //

dimensions      [0 0 0 0 0 0 0];

internalField   nonuniform List<scalar> 
1997
(
2.24308e-05
2.27309e-05
2.28743e-05
2.27904e-05
2.25068e-05
2.2092e-05
2.16198e-05
2.11315e-05
2.05801e-05
2.01073e-05
1.97388e-05
1.9492e-05
1.93e-05
1.91427e-05
1.90257e-05
1.89364e-05
1.88735e-05
1.88256e-05
2.21777e-05
2.24833e-05
2.26288e-05
2.25435e-05
2.22544e-05
2.18357e-05
2.13582e-05
2.08585e-05
2.02996e-05
1.98228e-05
1.9452e-05
1.92024e-05
1.90072e-05
1.88472e-05
1.87297e-05
1.86401e-05
1.85779e-05
1.85307e-05
1.84912e-05
1.84643e-05
1.84479e-05
1.84342e-05
1.84234e-05
1.84149e-05
1.84111e-05
1.84108e-05
1.84138e-05
1.84224e-05
2.1921e-05
2.22323e-05
2.23798e-05
2.22932e-05
2.19994e-05
2.15772e-05
2.10947e-05
2.05864e-05
2.0017e-05
1.95362e-05
1.91637e-05
1.89099e-05
1.87137e-05
1.85519e-05
1.84252e-05
1.83349e-05
1.82727e-05
1.82259e-05
1.81882e-05
1.8163e-05
1.81504e-05
1.81378e-05
1.81267e-05
1.81187e-05
1.81149e-05
1.81146e-05
1.81177e-05
1.81257e-05
1.81339e-05
1.81472e-05
1.81604e-05
1.81859e-05
1.82233e-05
1.8271e-05
1.83354e-05
1.84275e-05
1.85561e-05
1.87194e-05
1.89181e-05
1.91747e-05
2.16576e-05
2.1968e-05
2.21276e-05
2.20397e-05
2.17415e-05
2.13159e-05
2.0829e-05
2.03107e-05
1.97302e-05
1.92471e-05
1.88735e-05
1.8616e-05
1.84184e-05
1.82548e-05
1.81272e-05
1.80361e-05
1.7964e-05
1.79172e-05
1.78798e-05
1.78541e-05
1.78426e-05
1.78299e-05
1.78192e-05
1.7812e-05
1.78085e-05
1.78081e-05
1.78111e-05
1.78181e-05
1.78272e-05
1.78403e-05
1.78524e-05
1.78784e-05
1.79158e-05
1.79635e-05
1.80378e-05
1.81303e-05
1.82597e-05
1.84247e-05
1.86244e-05
1.88848e-05
1.92601e-05
1.97455e-05
2.03284e-05
2.08398e-05
2.13212e-05
2.17468e-05
2.20412e-05
2.21201e-05
2.19578e-05
2.16347e-05
2.13848e-05
2.1702e-05
2.18646e-05
2.17828e-05
2.14802e-05
2.1051e-05
2.0561e-05
2.00312e-05
1.94425e-05
1.89458e-05
1.85733e-05
1.83202e-05
1.81213e-05
1.79559e-05
1.78273e-05
1.77361e-05
1.76629e-05
1.76163e-05
1.7579e-05
1.75526e-05
1.75325e-05
1.75194e-05
1.75085e-05
1.75018e-05
1.74982e-05
1.74979e-05
1.75009e-05
1.75075e-05
1.75174e-05
1.75307e-05
1.75513e-05
1.7578e-05
1.76155e-05
1.76632e-05
1.77382e-05
1.78311e-05
1.79613e-05
1.8128e-05
1.83287e-05
1.85848e-05
1.89583e-05
1.94566e-05
2.004e-05
2.05703e-05
2.10559e-05
2.14848e-05
2.17828e-05
2.1862e-05
2.17018e-05
2.13709e-05
2.1108e-05
2.14306e-05
2.15937e-05
2.1514e-05
2.12085e-05
2.07745e-05
2.02809e-05
1.97473e-05
1.9152e-05
1.86506e-05
1.82686e-05
1.80149e-05
1.78208e-05
1.76552e-05
1.75256e-05
1.74295e-05
1.73587e-05
1.73139e-05
1.72765e-05
1.72494e-05
1.723e-05
1.72167e-05
1.72057e-05
1.71995e-05
1.71959e-05
1.71955e-05
1.71986e-05
1.72047e-05
1.7215e-05
1.72284e-05
1.72484e-05
1.72758e-05
1.73136e-05
1.73596e-05
1.74322e-05
1.75299e-05
1.76611e-05
1.7828e-05
1.80236e-05
1.82804e-05
1.86629e-05
1.91653e-05
1.97559e-05
2.02917e-05
2.07797e-05
2.12131e-05
2.15152e-05
2.15981e-05
2.14314e-05
2.11026e-05
2.08271e-05
2.11624e-05
2.13174e-05
2.1237e-05
2.09393e-05
2.0502e-05
2.00069e-05
1.94487e-05
1.88585e-05
1.83528e-05
1.79706e-05
1.77052e-05
1.75103e-05
1.73507e-05
1.72223e-05
1.71262e-05
1.70542e-05
1.70017e-05
1.69654e-05
1.69389e-05
1.69216e-05
1.69106e-05
1.69014e-05
1.68957e-05
1.68921e-05
1.68918e-05
1.68948e-05
1.69004e-05
1.69092e-05
1.69202e-05
1.69381e-05
1.69649e-05
1.7002e-05
1.70555e-05
1.71291e-05
1.7227e-05
1.7357e-05
1.75178e-05
1.7714e-05
1.79826e-05
1.83651e-05
1.88712e-05
1.94578e-05
2.00169e-05
2.05076e-05
2.0944e-05
2.12356e-05
2.13211e-05
2.11558e-05
2.08222e-05
2.05514e-05
2.08902e-05
2.10468e-05
2.09538e-05
2.06599e-05
2.02215e-05
1.97171e-05
1.91463e-05
1.85518e-05
1.80522e-05
1.76643e-05
1.74027e-05
1.72069e-05
1.70465e-05
1.69174e-05
1.68188e-05
1.67482e-05
1.6696e-05
1.66595e-05
1.66323e-05
1.66058e-05
1.65947e-05
1.65862e-05
1.65816e-05
1.65782e-05
1.65779e-05
1.65807e-05
1.65852e-05
1.65935e-05
1.66046e-05
1.66316e-05
1.66591e-05
1.66966e-05
1.67498e-05
1.68225e-05
1.69225e-05
1.70529e-05
1.72146e-05
1.74116e-05
1.76766e-05
1.80644e-05
1.85649e-05
1.91556e-05
1.97263e-05
2.0226e-05
2.06645e-05
2.09582e-05
2.10498e-05
2.08857e-05
2.05467e-05
2.02676e-05
2.06072e-05
2.07712e-05
2.0672e-05
2.03706e-05
1.99296e-05
1.94321e-05
1.88404e-05
1.82412e-05
1.7749e-05
1.73616e-05
1.70985e-05
1.69018e-05
1.67405e-05
1.66111e-05
1.65126e-05
1.64409e-05
1.6389e-05
1.63524e-05
1.63245e-05
1.62979e-05
1.62864e-05
1.62785e-05
1.62747e-05
1.62713e-05
1.6271e-05
1.62738e-05
1.62775e-05
1.62854e-05
1.62967e-05
1.63238e-05
1.6352e-05
1.63899e-05
1.64427e-05
1.65164e-05
1.66164e-05
1.67471e-05
1.69096e-05
1.71075e-05
1.73743e-05
1.77612e-05
1.82539e-05
1.88499e-05
1.94406e-05
1.99347e-05
2.03754e-05
2.06765e-05
2.07723e-05
2.06042e-05
2.02626e-05
1.99841e-05
2.03266e-05
2.04818e-05
2.0383e-05
2.00757e-05
1.96326e-05
1.91386e-05
1.85312e-05
1.79371e-05
1.74424e-05
1.70567e-05
1.67865e-05
1.6595e-05
1.64329e-05
1.63034e-05
1.62051e-05
1.61322e-05
1.60807e-05
1.60441e-05
1.60157e-05
1.59886e-05
1.59766e-05
1.59695e-05
1.59665e-05
1.59633e-05
1.5963e-05
1.59657e-05
1.59685e-05
1.59756e-05
1.59874e-05
1.60149e-05
1.60437e-05
1.60809e-05
1.61342e-05
1.62089e-05
1.63089e-05
1.64397e-05
1.66028e-05
1.67958e-05
1.70697e-05
1.74553e-05
1.79495e-05
1.85408e-05
1.91481e-05
1.96384e-05
2.00808e-05
2.03871e-05
2.04816e-05
2.03245e-05
1.9979e-05
1.96934e-05
2.00351e-05
2.01966e-05
2.00959e-05
1.9787e-05
1.9342e-05
1.88429e-05
1.82293e-05
1.76234e-05
1.71353e-05
1.67499e-05
1.64784e-05
1.62855e-05
1.61216e-05
1.5992e-05
1.58964e-05
1.58209e-05
1.57712e-05
1.57349e-05
1.57059e-05
1.56783e-05
1.56652e-05
1.56592e-05
1.56573e-05
1.56542e-05
1.56539e-05
1.56565e-05
1.56582e-05
1.56641e-05
1.56771e-05
1.57052e-05
1.57344e-05
1.57719e-05
1.58233e-05
1.59003e-05
1.59979e-05
1.61288e-05
1.62939e-05
1.64877e-05
1.67631e-05
1.71484e-05
1.76356e-05
1.8239e-05
1.88522e-05
1.93484e-05
1.97924e-05
2.00995e-05
2.0196e-05
2.00333e-05
1.96882e-05
1.93927e-05
1.97464e-05
1.99043e-05
1.98047e-05
1.94937e-05
1.90472e-05
1.85375e-05
1.79161e-05
1.73146e-05
1.68204e-05
1.64347e-05
1.61608e-05
1.59669e-05
1.5802e-05
1.56727e-05
1.55786e-05
1.55101e-05
1.54609e-05
1.54166e-05
1.53872e-05
1.53671e-05
1.53525e-05
1.53402e-05
1.53398e-05
1.53369e-05
1.53366e-05
1.5339e-05
1.53391e-05
1.53512e-05
1.53658e-05
1.53866e-05
1.5416e-05
1.54618e-05
1.55125e-05
1.55826e-05
1.56788e-05
1.58094e-05
1.59753e-05
1.61703e-05
1.64482e-05
1.68346e-05
1.73264e-05
1.79259e-05
1.8547e-05
1.90542e-05
1.94992e-05
1.98082e-05
1.99032e-05
1.97448e-05
1.9388e-05
1.90971e-05
1.94473e-05
1.96102e-05
1.95092e-05
1.91955e-05
1.87484e-05
1.82303e-05
1.76084e-05
1.69953e-05
1.64967e-05
1.6115e-05
1.58401e-05
1.5646e-05
1.54805e-05
1.53519e-05
1.52581e-05
1.51889e-05
1.51439e-05
1.51058e-05
1.50757e-05
1.50554e-05
1.50391e-05
1.50274e-05
1.50186e-05
1.50159e-05
1.50156e-05
1.50178e-05
1.50263e-05
1.50376e-05
1.50541e-05
1.50752e-05
1.51051e-05
1.5145e-05
1.51915e-05
1.5262e-05
1.5358e-05
1.54879e-05
1.56544e-05
1.58497e-05
1.61283e-05
1.65119e-05
1.70066e-05
1.76183e-05
1.824e-05
1.8756e-05
1.92012e-05
1.95126e-05
1.96089e-05
1.94455e-05
1.90925e-05
1.87899e-05
1.91391e-05
1.93108e-05
1.9209e-05
1.88927e-05
1.84458e-05
1.79142e-05
1.72888e-05
1.66697e-05
1.61704e-05
1.57939e-05
1.55183e-05
1.53237e-05
1.51577e-05
1.50301e-05
1.49364e-05
1.48762e-05
1.48242e-05
1.47853e-05
1.4756e-05
1.47372e-05
1.47214e-05
1.47117e-05
1.47059e-05
1.47036e-05
1.47033e-05
1.47052e-05
1.47109e-05
1.472e-05
1.47362e-05
1.47556e-05
1.47846e-05
1.48255e-05
1.48789e-05
1.49403e-05
1.50362e-05
1.51651e-05
1.53321e-05
1.55278e-05
1.58065e-05
1.61872e-05
1.66803e-05
1.72989e-05
1.79244e-05
1.84539e-05
1.88985e-05
1.92124e-05
1.93087e-05
1.91374e-05
1.87847e-05
1.84761e-05
1.88261e-05
1.89974e-05
1.88982e-05
1.85805e-05
1.81359e-05
1.75871e-05
1.6962e-05
1.63415e-05
1.58429e-05
1.54703e-05
1.51957e-05
1.50005e-05
1.48339e-05
1.47075e-05
1.46232e-05
1.45577e-05
1.45027e-05
1.44644e-05
1.4434e-05
1.44152e-05
1.44071e-05
1.43975e-05
1.43881e-05
1.43841e-05
1.43838e-05
1.43871e-05
1.43966e-05
1.44058e-05
1.44143e-05
1.44337e-05
1.4464e-05
1.4504e-05
1.45604e-05
1.46271e-05
1.47135e-05
1.48414e-05
1.50087e-05
1.52051e-05
1.54831e-05
1.58587e-05
1.63526e-05
1.69721e-05
1.75977e-05
1.81436e-05
1.85864e-05
1.89016e-05
1.89943e-05
1.88246e-05
1.84707e-05
1.81685e-05
1.85198e-05
1.86781e-05
1.85758e-05
1.82557e-05
1.78264e-05
1.72535e-05
1.66323e-05
1.60104e-05
1.55248e-05
1.51457e-05
1.48718e-05
1.46767e-05
1.4519e-05
1.43938e-05
1.43042e-05
1.42353e-05
1.41808e-05
1.41433e-05
1.41213e-05
1.41024e-05
1.40889e-05
1.40772e-05
1.40671e-05
1.40628e-05
1.40624e-05
1.40661e-05
1.40759e-05
1.40875e-05
1.41016e-05
1.41211e-05
1.41436e-05
1.41821e-05
1.42381e-05
1.43087e-05
1.43997e-05
1.45265e-05
1.46848e-05
1.4881e-05
1.51587e-05
1.55396e-05
1.60219e-05
1.66426e-05
1.72643e-05
1.78344e-05
1.82617e-05
1.85791e-05
1.8674e-05
1.85184e-05
1.81631e-05
1.78579e-05
1.82019e-05
1.83543e-05
1.82482e-05
1.79384e-05
1.75012e-05
1.69289e-05
1.63112e-05
1.56872e-05
1.52043e-05
1.48297e-05
1.45568e-05
1.43619e-05
1.42044e-05
1.40804e-05
1.3991e-05
1.39224e-05
1.38684e-05
1.38318e-05
1.38092e-05
1.37901e-05
1.37753e-05
1.37636e-05
1.37544e-05
1.37503e-05
1.375e-05
1.37534e-05
1.37623e-05
1.37741e-05
1.37892e-05
1.3809e-05
1.38324e-05
1.38698e-05
1.39253e-05
1.39954e-05
1.40862e-05
1.42118e-05
1.43699e-05
1.45656e-05
1.48432e-05
1.52197e-05
1.56991e-05
1.63217e-05
1.69398e-05
1.75096e-05
1.79444e-05
1.82513e-05
1.83486e-05
1.82e-05
1.78524e-05
1.75444e-05
1.78875e-05
1.80261e-05
1.79285e-05
1.76172e-05
1.71682e-05
1.66028e-05
1.59883e-05
1.53624e-05
1.48854e-05
1.45133e-05
1.42426e-05
1.40476e-05
1.38904e-05
1.37676e-05
1.36786e-05
1.36105e-05
1.3557e-05
1.35211e-05
1.34958e-05
1.34773e-05
1.3463e-05
1.34513e-05
1.34429e-05
1.3439e-05
1.34387e-05
1.34419e-05
1.34501e-05
1.34618e-05
1.34767e-05
1.34956e-05
1.35217e-05
1.35583e-05
1.36134e-05
1.36829e-05
1.37734e-05
1.38978e-05
1.40554e-05
1.42509e-05
1.45277e-05
1.49004e-05
1.53746e-05
1.59991e-05
1.66136e-05
1.71768e-05
1.76233e-05
1.79316e-05
1.80313e-05
1.78856e-05
1.75389e-05
1.72286e-05
1.75703e-05
1.77062e-05
1.75952e-05
1.72794e-05
1.68296e-05
1.62667e-05
1.56528e-05
1.50363e-05
1.45667e-05
1.41967e-05
1.39239e-05
1.37292e-05
1.35775e-05
1.34558e-05
1.33643e-05
1.32979e-05
1.32459e-05
1.32105e-05
1.31859e-05
1.31671e-05
1.31524e-05
1.31408e-05
1.3133e-05
1.31293e-05
1.31289e-05
1.3132e-05
1.31395e-05
1.31512e-05
1.31663e-05
1.31857e-05
1.32114e-05
1.32472e-05
1.33008e-05
1.33687e-05
1.34616e-05
1.35848e-05
1.37371e-05
1.39323e-05
1.42124e-05
1.45816e-05
1.5049e-05
1.56638e-05
1.62773e-05
1.68384e-05
1.72855e-05
1.75983e-05
1.77104e-05
1.75683e-05
1.72231e-05
1.69062e-05
1.72448e-05
1.73832e-05
1.7268e-05
1.69385e-05
1.64863e-05
1.59263e-05
1.53266e-05
1.47085e-05
1.42485e-05
1.38808e-05
1.36033e-05
1.34169e-05
1.32662e-05
1.31455e-05
1.30546e-05
1.2989e-05
1.29375e-05
1.29026e-05
1.28778e-05
1.28586e-05
1.28437e-05
1.28323e-05
1.2825e-05
1.28214e-05
1.28211e-05
1.28241e-05
1.28311e-05
1.28425e-05
1.28578e-05
1.28776e-05
1.29032e-05
1.29387e-05
1.29919e-05
1.3059e-05
1.31513e-05
1.32734e-05
1.34247e-05
1.36112e-05
1.3891e-05
1.42636e-05
1.47227e-05
1.53376e-05
1.59366e-05
1.64952e-05
1.69446e-05
1.72711e-05
1.73865e-05
1.72425e-05
1.69004e-05
1.65768e-05
1.69225e-05
1.70572e-05
1.69382e-05
1.66057e-05
1.61521e-05
1.55966e-05
1.49934e-05
1.43797e-05
1.39294e-05
1.35673e-05
1.3293e-05
1.31065e-05
1.29568e-05
1.28373e-05
1.27471e-05
1.26793e-05
1.2628e-05
1.2594e-05
1.25696e-05
1.25506e-05
1.25359e-05
1.2525e-05
1.25182e-05
1.25148e-05
1.25144e-05
1.25173e-05
1.25238e-05
1.25347e-05
1.25498e-05
1.25696e-05
1.25946e-05
1.26291e-05
1.26822e-05
1.27514e-05
1.28431e-05
1.2964e-05
1.3114e-05
1.33005e-05
1.35784e-05
1.39388e-05
1.43935e-05
1.50047e-05
1.56069e-05
1.61609e-05
1.66118e-05
1.69414e-05
1.70599e-05
1.69203e-05
1.65711e-05
1.62564e-05
1.65989e-05
1.67233e-05
1.65965e-05
1.62665e-05
1.58099e-05
1.52571e-05
1.4666e-05
1.40528e-05
1.36097e-05
1.32567e-05
1.29851e-05
1.27975e-05
1.26487e-05
1.25304e-05
1.24418e-05
1.23753e-05
1.23243e-05
1.22906e-05
1.22666e-05
1.22473e-05
1.22326e-05
1.22219e-05
1.22154e-05
1.2212e-05
1.22116e-05
1.22145e-05
1.22207e-05
1.22314e-05
1.22465e-05
1.22666e-05
1.2291e-05
1.23253e-05
1.23781e-05
1.24463e-05
1.25364e-05
1.26561e-05
1.28052e-05
1.29924e-05
1.32685e-05
1.36204e-05
1.40665e-05
1.46773e-05
1.52675e-05
1.58181e-05
1.62725e-05
1.65999e-05
1.67251e-05
1.65966e-05
1.62507e-05
1.59357e-05
1.62635e-05
1.63925e-05
1.62618e-05
1.59294e-05
1.54731e-05
1.49269e-05
1.43377e-05
1.37282e-05
1.32865e-05
1.29434e-05
1.26722e-05
1.24839e-05
1.23365e-05
1.22195e-05
1.2132e-05
1.20667e-05
1.20163e-05
1.1983e-05
1.196e-05
1.19407e-05
1.19262e-05
1.19158e-05
1.19095e-05
1.19062e-05
1.19059e-05
1.19087e-05
1.19147e-05
1.19251e-05
1.19399e-05
1.196e-05
1.19833e-05
1.20171e-05
1.20694e-05
1.21365e-05
1.22255e-05
1.23438e-05
1.24916e-05
1.26795e-05
1.29564e-05
1.32983e-05
1.3742e-05
1.4349e-05
1.49374e-05
1.54812e-05
1.59354e-05
1.62654e-05
1.63939e-05
1.62613e-05
1.59301e-05
1.56068e-05
1.59376e-05
1.60605e-05
1.59257e-05
1.55913e-05
1.51359e-05
1.4598e-05
1.4009e-05
1.33973e-05
1.29617e-05
1.26277e-05
1.2362e-05
1.21732e-05
1.20274e-05
1.19117e-05
1.18252e-05
1.17607e-05
1.17106e-05
1.16775e-05
1.16554e-05
1.16358e-05
1.16213e-05
1.1611e-05
1.16049e-05
1.16015e-05
1.16012e-05
1.1604e-05
1.16099e-05
1.16201e-05
1.1635e-05
1.16553e-05
1.16777e-05
1.17113e-05
1.17634e-05
1.18296e-05
1.19177e-05
1.20346e-05
1.21807e-05
1.23693e-05
1.26409e-05
1.29739e-05
1.34112e-05
1.40202e-05
1.46087e-05
1.51438e-05
1.55972e-05
1.59293e-05
1.60617e-05
1.59354e-05
1.56013e-05
1.5287e-05
1.56019e-05
1.5727e-05
1.55887e-05
1.5253e-05
1.47991e-05
1.42681e-05
1.36732e-05
1.30681e-05
1.26497e-05
1.23241e-05
1.20638e-05
1.18746e-05
1.17305e-05
1.16161e-05
1.15307e-05
1.1467e-05
1.14172e-05
1.13842e-05
1.13548e-05
1.1335e-05
1.13204e-05
1.13102e-05
1.13042e-05
1.13008e-05
1.13005e-05
1.13033e-05
1.13092e-05
1.13193e-05
1.13342e-05
1.13547e-05
1.13844e-05
1.14177e-05
1.14697e-05
1.1535e-05
1.1622e-05
1.17376e-05
1.18819e-05
1.20712e-05
1.23373e-05
1.26622e-05
1.30819e-05
1.36845e-05
1.42789e-05
1.48068e-05
1.52588e-05
1.55922e-05
1.57279e-05
1.55997e-05
1.52816e-05
1.49689e-05
1.52638e-05
1.53823e-05
1.52432e-05
1.4915e-05
1.4461e-05
1.39391e-05
1.33491e-05
1.27512e-05
1.23431e-05
1.20246e-05
1.177e-05
1.15806e-05
1.14385e-05
1.13254e-05
1.1241e-05
1.11781e-05
1.11286e-05
1.10957e-05
1.10669e-05
1.10469e-05
1.10323e-05
1.10222e-05
1.10162e-05
1.10129e-05
1.10126e-05
1.10154e-05
1.10212e-05
1.10312e-05
1.10461e-05
1.10667e-05
1.10959e-05
1.11288e-05
1.11809e-05
1.12453e-05
1.13312e-05
1.14454e-05
1.15878e-05
1.17774e-05
1.20379e-05
1.23556e-05
1.2765e-05
1.33608e-05
1.39492e-05
1.44681e-05
1.49208e-05
1.52466e-05
1.53831e-05
1.52616e-05
1.49637e-05
1.46499e-05
1.49379e-05
1.50369e-05
1.48933e-05
1.45783e-05
1.41275e-05
1.3613e-05
1.30289e-05
1.24375e-05
1.20367e-05
1.17234e-05
1.14736e-05
1.12865e-05
1.11471e-05
1.10361e-05
1.09533e-05
1.08911e-05
1.08433e-05
1.08106e-05
1.07839e-05
1.07641e-05
1.07496e-05
1.07395e-05
1.07335e-05
1.07301e-05
1.07299e-05
1.07327e-05
1.07385e-05
1.07484e-05
1.07632e-05
1.07836e-05
1.08108e-05
1.08442e-05
1.08938e-05
1.09575e-05
1.10419e-05
1.1154e-05
1.12936e-05
1.14812e-05
1.17367e-05
1.20494e-05
1.24512e-05
1.30407e-05
1.36227e-05
1.41342e-05
1.4584e-05
1.48966e-05
1.50377e-05
1.49357e-05
1.46446e-05
1.43375e-05
1.4614e-05
1.47052e-05
1.45572e-05
1.4241e-05
1.37905e-05
1.32919e-05
1.27108e-05
1.21235e-05
1.17304e-05
1.14254e-05
1.1182e-05
1.1003e-05
1.08659e-05
1.07564e-05
1.06746e-05
1.06131e-05
1.05654e-05
1.05331e-05
1.05067e-05
1.0487e-05
1.04725e-05
1.04625e-05
1.04565e-05
1.04531e-05
1.04529e-05
1.04557e-05
1.04616e-05
1.04715e-05
1.04862e-05
1.05065e-05
1.05333e-05
1.05663e-05
1.06159e-05
1.06788e-05
1.0762e-05
1.08726e-05
1.10099e-05
1.11896e-05
1.14386e-05
1.17429e-05
1.21368e-05
1.27229e-05
1.33012e-05
1.37972e-05
1.42466e-05
1.45604e-05
1.47059e-05
1.46118e-05
1.43324e-05
1.4029e-05
1.42931e-05
1.4376e-05
1.42237e-05
1.39092e-05
1.34633e-05
1.29705e-05
1.2387e-05
1.18201e-05
1.14376e-05
1.11411e-05
1.09035e-05
1.0726e-05
1.0591e-05
1.0483e-05
1.04023e-05
1.03413e-05
1.02938e-05
1.02603e-05
1.02337e-05
1.02146e-05
1.02008e-05
1.01907e-05
1.01848e-05
1.01815e-05
1.01812e-05
1.01841e-05
1.01898e-05
1.01995e-05
1.02139e-05
1.02337e-05
1.02604e-05
1.02946e-05
1.03443e-05
1.04063e-05
1.04885e-05
1.05976e-05
1.07328e-05
1.09111e-05
1.11541e-05
1.145e-05
1.1833e-05
1.23991e-05
1.29798e-05
1.34698e-05
1.39146e-05
1.42267e-05
1.43767e-05
1.42908e-05
1.40241e-05
1.37209e-05
1.39759e-05
1.40502e-05
1.38924e-05
1.35764e-05
1.31314e-05
1.26473e-05
1.20788e-05
1.15216e-05
1.11499e-05
1.08633e-05
1.06313e-05
1.0456e-05
1.0323e-05
1.02165e-05
1.01367e-05
1.00762e-05
1.00289e-05
9.99574e-06
9.96926e-06
9.95028e-06
9.93653e-06
9.92648e-06
9.92057e-06
9.91718e-06
9.91692e-06
9.91983e-06
9.92557e-06
9.9353e-06
9.94965e-06
9.96928e-06
9.99574e-06
1.00296e-05
1.00794e-05
1.01407e-05
1.02218e-05
1.03294e-05
1.04626e-05
1.06389e-05
1.0876e-05
1.1163e-05
1.15352e-05
1.20905e-05
1.26566e-05
1.31376e-05
1.35817e-05
1.38953e-05
1.40508e-05
1.39737e-05
1.37159e-05
1.34135e-05
1.36631e-05
1.37176e-05
1.35666e-05
1.3253e-05
1.28133e-05
1.23374e-05
1.17709e-05
1.12333e-05
1.087e-05
1.05925e-05
1.03659e-05
1.01932e-05
1.00621e-05
9.95713e-06
9.87835e-06
9.81831e-06
9.77122e-06
9.7382e-06
9.71183e-06
9.69299e-06
9.67928e-06
9.66922e-06
9.66326e-06
9.65985e-06
9.65959e-06
9.66253e-06
9.66832e-06
9.67807e-06
9.69236e-06
9.71186e-06
9.73818e-06
9.77177e-06
9.82159e-06
9.8822e-06
9.96229e-06
1.00683e-05
1.01997e-05
1.03734e-05
1.06048e-05
1.08829e-05
1.12467e-05
1.1782e-05
1.23468e-05
1.28191e-05
1.32581e-05
1.35693e-05
1.37181e-05
1.3661e-05
1.34086e-05
1.31205e-05
1.3348e-05
1.34007e-05
1.32433e-05
1.29339e-05
1.25011e-05
1.20255e-05
1.14768e-05
1.09531e-05
1.0598e-05
1.03292e-05
1.01079e-05
9.93805e-06
9.80886e-06
9.70533e-06
9.62749e-06
9.56784e-06
9.52103e-06
9.4881e-06
9.46176e-06
9.44304e-06
9.42935e-06
9.41927e-06
9.41326e-06
9.40982e-06
9.40956e-06
9.41255e-06
9.41839e-06
9.42818e-06
9.4424e-06
9.46177e-06
9.48808e-06
9.52145e-06
9.57116e-06
9.63121e-06
9.7103e-06
9.81482e-06
9.94425e-06
1.01153e-05
1.0341e-05
1.06106e-05
1.09665e-05
1.14873e-05
1.20357e-05
1.25059e-05
1.29386e-05
1.32464e-05
1.34012e-05
1.33456e-05
1.31157e-05
1.28307e-05
1.30463e-05
1.30899e-05
1.29283e-05
1.26115e-05
1.21963e-05
1.17238e-05
1.11911e-05
1.06811e-05
1.03347e-05
1.00736e-05
9.8576e-06
9.69075e-06
9.56346e-06
9.4614e-06
9.38445e-06
9.32518e-06
9.27863e-06
9.24577e-06
9.21935e-06
9.20074e-06
9.18706e-06
9.17695e-06
9.17087e-06
9.16739e-06
9.16714e-06
9.17017e-06
9.17607e-06
9.18592e-06
9.20009e-06
9.21939e-06
9.24567e-06
9.27896e-06
9.32844e-06
9.38804e-06
9.46617e-06
9.5692e-06
9.69677e-06
9.86477e-06
1.00849e-05
1.0347e-05
1.06943e-05
1.12012e-05
1.17344e-05
1.22006e-05
1.26159e-05
1.29311e-05
1.30903e-05
1.30439e-05
1.28259e-05
1.25513e-05
1.27513e-05
1.27858e-05
1.26198e-05
1.23066e-05
1.18998e-05
1.14226e-05
1.09152e-05
1.04147e-05
1.00796e-05
9.82622e-06
9.61536e-06
9.45161e-06
9.32623e-06
9.2256e-06
9.14951e-06
9.0906e-06
9.04427e-06
9.0114e-06
8.98492e-06
8.96635e-06
8.95267e-06
8.94251e-06
8.93635e-06
8.93284e-06
8.9326e-06
8.93567e-06
8.94164e-06
8.95156e-06
8.96569e-06
8.98493e-06
9.01128e-06
9.04452e-06
9.09373e-06
9.15295e-06
9.23016e-06
9.33174e-06
9.45744e-06
9.62234e-06
9.837e-06
1.00915e-05
1.04276e-05
1.09254e-05
1.14339e-05
1.19035e-05
1.23108e-05
1.26224e-05
1.27861e-05
1.27489e-05
1.25465e-05
1.22795e-05
1.24636e-05
1.24812e-05
1.23114e-05
1.20026e-05
1.16092e-05
1.11388e-05
1.06452e-05
1.01587e-05
9.83371e-06
9.5873e-06
9.38147e-06
9.22088e-06
9.0974e-06
8.99816e-06
8.92289e-06
8.86433e-06
8.81817e-06
8.78529e-06
8.75866e-06
8.74012e-06
8.7264e-06
8.71618e-06
8.70995e-06
8.7064e-06
8.70616e-06
8.70928e-06
8.71533e-06
8.72531e-06
8.73944e-06
8.7587e-06
8.78509e-06
8.81839e-06
8.86724e-06
8.92617e-06
9.00251e-06
9.10267e-06
9.2265e-06
9.38822e-06
9.5975e-06
9.84509e-06
1.01711e-05
1.06531e-05
1.11501e-05
1.1612e-05
1.20066e-05
1.23138e-05
1.24814e-05
1.2461e-05
1.22746e-05
1.20155e-05
1.21836e-05
1.21916e-05
1.20176e-05
1.17131e-05
1.13249e-05
1.08637e-05
1.03868e-05
9.91064e-06
9.59666e-06
9.35707e-06
9.15614e-06
8.99876e-06
8.87716e-06
8.77929e-06
8.70478e-06
8.64656e-06
8.60052e-06
8.56759e-06
8.54082e-06
8.52223e-06
8.50847e-06
8.49819e-06
8.49187e-06
8.48828e-06
8.48804e-06
8.49121e-06
8.49734e-06
8.5074e-06
8.52154e-06
8.54089e-06
8.56728e-06
8.60075e-06
8.64919e-06
8.70791e-06
8.78341e-06
8.88219e-06
9.00416e-06
9.16266e-06
9.36668e-06
9.60744e-06
9.92249e-06
1.03954e-05
1.08749e-05
1.13269e-05
1.17168e-05
1.20198e-05
1.21916e-05
1.21808e-05
1.20104e-05
1.17594e-05
1.19117e-05
1.191e-05
1.17323e-05
1.14323e-05
1.10498e-05
1.05966e-05
1.0136e-05
9.67386e-06
9.36824e-06
9.13415e-06
8.93957e-06
8.78542e-06
8.6657e-06
8.56913e-06
8.49536e-06
8.43747e-06
8.39146e-06
8.35849e-06
8.33154e-06
8.31287e-06
8.29905e-06
8.28869e-06
8.28228e-06
8.27865e-06
8.27841e-06
8.28164e-06
8.28785e-06
8.298e-06
8.31217e-06
8.33162e-06
8.35809e-06
8.39174e-06
8.43977e-06
8.49832e-06
8.57301e-06
8.67047e-06
8.7906e-06
8.94583e-06
9.14333e-06
9.37842e-06
9.68469e-06
1.01448e-05
1.06092e-05
1.10504e-05
1.14358e-05
1.17343e-05
1.19098e-05
1.19087e-05
1.1754e-05
1.15115e-05
1.16481e-05
1.16369e-05
1.14558e-05
1.11606e-05
1.07867e-05
1.03354e-05
9.89334e-06
9.44421e-06
9.14896e-06
8.92182e-06
8.73191e-06
8.58101e-06
8.46314e-06
8.36785e-06
8.29475e-06
8.23722e-06
8.19115e-06
8.15818e-06
8.13095e-06
8.11221e-06
8.0983e-06
8.08787e-06
8.08136e-06
8.07767e-06
8.07744e-06
8.08072e-06
8.08703e-06
8.09727e-06
8.11149e-06
8.13109e-06
8.15763e-06
8.19149e-06
8.23916e-06
8.29757e-06
8.37147e-06
8.46765e-06
8.58596e-06
8.73791e-06
8.93035e-06
9.1584e-06
9.45412e-06
9.90249e-06
1.03499e-05
1.0785e-05
1.11639e-05
1.14575e-05
1.16364e-05
1.16446e-05
1.15055e-05
1.12716e-05
1.13929e-05
1.13704e-05
1.11873e-05
1.08948e-05
1.05318e-05
1.00888e-05
9.66049e-06
9.22635e-06
8.93869e-06
8.71873e-06
8.53331e-06
8.38565e-06
8.2696e-06
8.17556e-06
8.10309e-06
8.04593e-06
7.99971e-06
7.96674e-06
7.93925e-06
7.92037e-06
7.90635e-06
7.89586e-06
7.88924e-06
7.88551e-06
7.88528e-06
7.88862e-06
7.89503e-06
7.90535e-06
7.91963e-06
7.9394e-06
7.96608e-06
8.00009e-06
8.04754e-06
8.10576e-06
8.17892e-06
8.27386e-06
8.39036e-06
8.53903e-06
8.72656e-06
8.94741e-06
9.23464e-06
9.67054e-06
1.01019e-05
1.05307e-05
1.0898e-05
1.11887e-05
1.13694e-05
1.13889e-05
1.1265e-05
1.10399e-05
1.11463e-05
1.11149e-05
1.09294e-05
1.06419e-05
1.02819e-05
9.8545e-06
9.43753e-06
9.01787e-06
8.73756e-06
8.52499e-06
8.34387e-06
8.19945e-06
8.08521e-06
7.99239e-06
7.92049e-06
7.86361e-06
7.81739e-06
7.78429e-06
7.75658e-06
7.73751e-06
7.72335e-06
7.71281e-06
7.70609e-06
7.70229e-06
7.70207e-06
7.70547e-06
7.71199e-06
7.72237e-06
7.73675e-06
7.75667e-06
7.78358e-06
7.81764e-06
7.86507e-06
7.92303e-06
7.99548e-06
8.08921e-06
8.20392e-06
8.3493e-06
8.53209e-06
8.74558e-06
9.02404e-06
9.44895e-06
9.86576e-06
1.02818e-05
1.0645e-05
1.09305e-05
1.11133e-05
1.11415e-05
1.10324e-05
1.08161e-05
1.09083e-05
1.08685e-05
1.06812e-05
1.03989e-05
1.00448e-05
9.63131e-06
9.22464e-06
8.81907e-06
8.54568e-06
8.34073e-06
8.16372e-06
8.02163e-06
7.90798e-06
7.81622e-06
7.74485e-06
7.68818e-06
7.64234e-06
7.60902e-06
7.58124e-06
7.56203e-06
7.54779e-06
7.53731e-06
7.53053e-06
7.52671e-06
7.52649e-06
7.52993e-06
7.53651e-06
7.54683e-06
7.56126e-06
7.58127e-06
7.60833e-06
7.64243e-06
7.6896e-06
7.74734e-06
7.81909e-06
7.91179e-06
8.02595e-06
8.16886e-06
8.34706e-06
8.55302e-06
8.82281e-06
9.2377e-06
9.64146e-06
1.0045e-05
1.0402e-05
1.0682e-05
1.08664e-05
1.09027e-05
1.08075e-05
1.06002e-05
1.06789e-05
1.06313e-05
1.04429e-05
1.01661e-05
9.81984e-06
9.41677e-06
9.02215e-06
8.63026e-06
8.36315e-06
8.1661e-06
)
;

boundaryField
{
    fuel
    {
        type            fixedValue;
        value           nonuniform 0();
    }
    wall
    {
        type            zeroGradient;
    }
    outlet
    {
        type            zeroGradient;
    }
    frontAndBack
    {
        type            empty;
    }
    procBoundary2to0
    {
        type            processor;
        value           nonuniform List<scalar> 
53
(
2.26854e-05
2.29868e-05
2.31222e-05
2.30434e-05
2.27536e-05
2.23498e-05
2.18766e-05
2.13947e-05
2.08563e-05
2.03884e-05
2.00329e-05
1.97883e-05
1.95905e-05
1.94352e-05
1.93191e-05
1.9231e-05
1.91685e-05
1.91212e-05
1.87881e-05
1.87881e-05
1.87617e-05
1.87447e-05
1.87316e-05
1.87213e-05
1.87133e-05
1.8709e-05
1.87086e-05
1.8712e-05
1.87202e-05
1.84323e-05
1.84323e-05
1.84464e-05
1.84635e-05
1.84909e-05
1.853e-05
1.85778e-05
1.86421e-05
1.87334e-05
1.88519e-05
1.90132e-05
1.92102e-05
1.94625e-05
1.95487e-05
1.95487e-05
2.00321e-05
2.06016e-05
2.1104e-05
2.15905e-05
2.20072e-05
2.22944e-05
2.23741e-05
2.22203e-05
2.18997e-05
)
;
    }
    procBoundary2to3
    {
        type            processor;
        value           nonuniform List<scalar> 
51
(
7.99409e-06
7.85161e-06
7.73987e-06
7.64943e-06
7.57889e-06
7.52241e-06
7.47688e-06
7.44331e-06
7.4154e-06
7.39592e-06
7.38144e-06
7.37107e-06
7.36418e-06
7.3603e-06
7.36009e-06
7.36358e-06
7.37027e-06
7.38049e-06
7.39514e-06
7.41529e-06
7.44263e-06
7.47674e-06
7.52375e-06
7.58111e-06
7.65216e-06
7.74341e-06
7.85567e-06
7.99892e-06
8.17238e-06
8.3704e-06
8.63218e-06
9.03503e-06
9.42456e-06
9.82031e-06
1.01688e-05
1.04438e-05
1.063e-05
1.06751e-05
1.05942e-05
1.03957e-05
1.04606e-05
1.04048e-05
1.02149e-05
9.94315e-06
9.60395e-06
9.21322e-06
8.82797e-06
8.44884e-06
8.18791e-06
7.99409e-06
7.99999e-06
)
;
    }
}


// ************************************************************************* //
