/*--------------------------------*- C++ -*----------------------------------*\
| =========                 |                                                 |
| \\      /  F ield         | OpenFOAM: The Open Source CFD Toolbox           |
|  \\    /   O peration     | Version:  dev                                   |
|   \\  /    A nd           | Web:      www.OpenFOAM.org                      |
|    \\/     M anipulation  |                                                 |
\*---------------------------------------------------------------------------*/
FoamFile
{
    version     2.0;
    format      ascii;
    class       volScalarField;
    location    "0.015";
    object      CH3O;
}
// * * * * * * * * * * * * * * * * * * * * * * * * * * * * * * * * * * * * * //

dimensions      [0 0 0 0 0 0 0];

internalField   nonuniform List<scalar> 
25
(
2.15023e-09
2.91036e-09
3.97366e-09
5.44794e-09
7.453e-09
1.00768e-08
1.32891e-08
1.68471e-08
2.02888e-08
2.3087e-08
2.48752e-08
2.55809e-08
2.53795e-08
2.45551e-08
2.33801e-08
2.20558e-08
2.07042e-08
1.93764e-08
1.80573e-08
1.67023e-08
1.52266e-08
1.38815e-08
1.25515e-08
1.11605e-08
9.82228e-09
)
;

boundaryField
{
    wall
    {
        type            zeroGradient;
    }
    fuel
    {
        type            fixedValue;
        value           nonuniform 0();
    }
    outlet
    {
        type            inletOutlet;
        inletValue      nonuniform 0();
        value           nonuniform 0();
    }
    procBoundary2to1
    {
        type            processor;
        value           uniform 1.60691e-09;
    }
    procBoundary2to3
    {
        type            processor;
        value           uniform 8.79862e-09;
    }
}


// ************************************************************************* //
