/*--------------------------------*- C++ -*----------------------------------*\
| =========                 |                                                 |
| \\      /  F ield         | OpenFOAM: The Open Source CFD Toolbox           |
|  \\    /   O peration     | Version:  dev                                   |
|   \\  /    A nd           | Web:      www.OpenFOAM.org                      |
|    \\/     M anipulation  |                                                 |
\*---------------------------------------------------------------------------*/
FoamFile
{
    version     2.0;
    format      ascii;
    class       volScalarField;
    location    "0.015";
    object      HCO;
}
// * * * * * * * * * * * * * * * * * * * * * * * * * * * * * * * * * * * * * //

dimensions      [0 0 0 0 0 0 0];

internalField   nonuniform List<scalar> 
250
(
3.18343e-09
1.0955e-05
1.03151e-05
1.027e-05
1.02588e-05
1.02501e-05
1.02417e-05
1.02381e-05
1.02353e-05
3.23123e-09
4.96808e-06
4.77096e-06
4.76067e-06
4.76026e-06
4.75709e-06
4.75578e-06
4.75589e-06
4.75514e-06
4.13966e-09
2.01634e-06
1.96412e-06
1.96928e-06
1.97125e-06
1.97171e-06
1.9728e-06
1.97428e-06
1.97438e-06
1.38157e-08
8.5712e-07
8.51967e-07
8.60293e-07
8.62329e-07
8.64189e-07
8.65775e-07
8.67056e-07
8.67422e-07
6.5122e-08
4.14985e-07
4.30058e-07
4.38349e-07
4.40431e-07
4.41776e-07
4.45388e-07
4.45459e-07
4.46022e-07
1.72558e-07
2.34437e-07
2.61201e-07
2.68639e-07
2.71183e-07
2.72801e-07
2.72894e-07
2.76426e-07
2.77265e-07
2.1985e-07
1.51095e-07
1.86479e-07
1.93332e-07
1.96572e-07
1.98153e-07
1.99144e-07
2.02264e-07
2.03574e-07
1.50801e-07
1.11967e-07
1.45898e-07
1.56257e-07
1.58862e-07
1.61578e-07
1.63048e-07
1.63735e-07
1.65434e-07
8.72506e-08
9.09112e-08
1.23164e-07
1.33533e-07
1.36399e-07
1.40323e-07
1.42818e-07
1.44232e-07
1.44417e-07
5.42356e-08
7.86239e-08
1.10292e-07
1.19274e-07
1.24028e-07
1.26955e-07
1.2993e-07
1.32756e-07
1.33532e-07
3.84233e-08
7.03965e-08
9.98779e-08
1.10414e-07
1.15077e-07
1.17878e-07
1.22448e-07
1.24711e-07
1.25801e-07
1.26871e-07
3.10661e-08
6.49023e-08
9.24563e-08
1.02853e-07
1.07688e-07
1.11807e-07
1.16376e-07
1.18888e-07
1.2039e-07
1.21237e-07
2.78678e-08
6.0557e-08
8.60163e-08
9.60007e-08
1.02153e-07
1.06739e-07
1.11538e-07
1.14377e-07
1.16247e-07
1.1698e-07
2.68192e-08
5.66962e-08
8.01115e-08
9.04263e-08
9.6948e-08
1.01832e-07
1.0736e-07
1.10583e-07
1.128e-07
1.1349e-07
2.68937e-08
5.29565e-08
7.44949e-08
8.51012e-08
9.20101e-08
9.72678e-08
1.03536e-07
1.07183e-07
1.09742e-07
1.10428e-07
2.74552e-08
4.91668e-08
6.90413e-08
7.98991e-08
8.74345e-08
9.28504e-08
9.98905e-08
1.03992e-07
1.06899e-07
1.07781e-07
2.81101e-08
4.52911e-08
6.36956e-08
7.47545e-08
8.285e-08
8.89381e-08
9.63177e-08
1.00897e-07
1.04166e-07
1.05277e-07
2.87042e-08
4.13862e-08
5.84461e-08
6.96408e-08
7.82483e-08
8.46237e-08
9.27439e-08
9.78246e-08
1.01472e-07
1.02883e-07
2.92807e-08
3.7562e-08
5.31755e-08
6.45576e-08
7.3622e-08
8.05773e-08
8.91168e-08
9.4721e-08
9.87635e-08
1.00362e-07
2.99878e-08
3.39479e-08
4.81953e-08
5.9527e-08
6.89656e-08
7.64717e-08
8.53883e-08
9.15418e-08
9.59944e-08
9.77058e-08
3.09958e-08
3.06466e-08
4.32416e-08
5.45911e-08
6.42848e-08
7.22989e-08
8.15078e-08
8.82473e-08
9.31231e-08
9.4947e-08
3.24721e-08
2.77229e-08
3.86616e-08
4.94709e-08
5.95953e-08
6.80611e-08
7.7896e-08
8.47993e-08
9.01087e-08
9.20424e-08
3.46213e-08
2.5187e-08
3.43421e-08
4.43124e-08
5.49232e-08
6.37599e-08
7.41593e-08
8.11541e-08
8.69105e-08
8.89474e-08
3.77547e-08
2.30092e-08
3.03535e-08
3.9396e-08
5.02666e-08
5.9405e-08
7.02924e-08
7.77015e-08
8.3488e-08
8.5616e-08
4.23088e-08
2.1144e-08
2.65551e-08
3.48603e-08
4.57001e-08
5.50132e-08
6.62881e-08
7.39046e-08
7.97969e-08
8.20019e-08
4.87284e-08
1.94799e-08
2.33121e-08
3.09001e-08
4.09405e-08
5.06096e-08
6.21695e-08
6.96305e-08
7.62397e-08
7.85019e-08
)
;

boundaryField
{
    fuel
    {
        type            fixedValue;
        value           uniform 0;
    }
    wall
    {
        type            zeroGradient;
    }
    outlet
    {
        type            zeroGradient;
    }
    frontAndBack
    {
        type            empty;
    }
    procBoundary2to0
    {
        type            processor;
        value           nonuniform List<scalar> 
12
(
8.20203e-08
5.71889e-08
1.8059e-08
2.04604e-08
2.72224e-08
3.63626e-08
4.62366e-08
5.79412e-08
6.55451e-08
7.21125e-08
7.85207e-08
7.45995e-08
)
;
    }
    procBoundary2to3
    {
        type            processor;
        value           nonuniform List<scalar> 
25
(
1.02338e-05
4.75511e-06
1.97492e-06
8.68008e-07
4.46513e-07
2.77628e-07
2.03738e-07
1.64823e-07
1.45548e-07
1.34103e-07
1.34103e-07
1.26877e-07
1.21246e-07
1.16988e-07
1.13496e-07
1.10431e-07
1.07775e-07
1.05288e-07
1.02894e-07
1.00374e-07
9.77185e-08
9.49608e-08
9.20573e-08
8.89634e-08
8.56333e-08
)
;
    }
}


// ************************************************************************* //
