/*--------------------------------*- C++ -*----------------------------------*\
| =========                 |                                                 |
| \\      /  F ield         | OpenFOAM: The Open Source CFD Toolbox           |
|  \\    /   O peration     | Version:  dev                                   |
|   \\  /    A nd           | Web:      www.OpenFOAM.org                      |
|    \\/     M anipulation  |                                                 |
\*---------------------------------------------------------------------------*/
FoamFile
{
    version     2.0;
    format      ascii;
    class       volScalarField;
    location    "0.015";
    object      O2;
}
// * * * * * * * * * * * * * * * * * * * * * * * * * * * * * * * * * * * * * //

dimensions      [0 0 0 0 0 0 0];

internalField   nonuniform List<scalar> 
1997
(
1.50181e-08
1.55287e-08
1.67492e-08
1.80833e-08
1.90892e-08
1.96623e-08
1.99122e-08
2.00168e-08
2.00574e-08
2.00841e-08
2.01286e-08
2.01943e-08
2.02642e-08
2.03372e-08
2.0399e-08
2.04529e-08
2.05013e-08
2.05397e-08
1.53309e-08
1.5556e-08
1.65792e-08
1.78076e-08
1.87727e-08
1.93534e-08
1.96535e-08
1.98428e-08
2.00016e-08
2.01349e-08
2.02626e-08
2.03863e-08
2.04957e-08
2.0591e-08
2.06541e-08
2.06959e-08
2.07291e-08
2.07443e-08
2.07897e-08
2.08123e-08
2.08126e-08
2.08196e-08
2.08247e-08
2.08243e-08
2.08267e-08
2.08267e-08
2.0824e-08
2.08242e-08
1.58607e-08
1.57386e-08
1.65257e-08
1.76341e-08
1.85617e-08
1.91628e-08
1.95345e-08
1.98408e-08
2.01507e-08
2.0421e-08
2.06537e-08
2.08521e-08
2.10097e-08
2.1133e-08
2.12145e-08
2.12415e-08
2.12564e-08
2.1242e-08
2.12636e-08
2.1267e-08
2.1243e-08
2.12324e-08
2.1227e-08
2.12182e-08
2.12177e-08
2.12177e-08
2.1218e-08
2.12263e-08
2.1255e-08
2.1265e-08
2.12875e-08
2.12858e-08
2.12773e-08
2.12909e-08
2.12723e-08
2.12405e-08
2.11578e-08
2.10309e-08
2.08713e-08
2.06674e-08
1.66652e-08
1.61272e-08
1.66187e-08
1.75915e-08
1.84852e-08
1.91228e-08
1.95928e-08
2.00528e-08
2.056e-08
2.10018e-08
2.1365e-08
2.16555e-08
2.18759e-08
2.20353e-08
2.21229e-08
2.21323e-08
2.21549e-08
2.21042e-08
2.21003e-08
2.20841e-08
2.20345e-08
2.20035e-08
2.19833e-08
2.19622e-08
2.19573e-08
2.19574e-08
2.19621e-08
2.19823e-08
2.20205e-08
2.20516e-08
2.2099e-08
2.21157e-08
2.21282e-08
2.21768e-08
2.21491e-08
2.2133e-08
2.20433e-08
2.18794e-08
2.16563e-08
2.13601e-08
2.1025e-08
2.05854e-08
2.00634e-08
1.96007e-08
1.91243e-08
1.84803e-08
1.75908e-08
1.66423e-08
1.62227e-08
1.69292e-08
1.78231e-08
1.67572e-08
1.69032e-08
1.77146e-08
1.85794e-08
1.92736e-08
1.98744e-08
2.05339e-08
2.12892e-08
2.19805e-08
2.25048e-08
2.28787e-08
2.31785e-08
2.33842e-08
2.3481e-08
2.34684e-08
2.34708e-08
2.33759e-08
2.33429e-08
2.33036e-08
2.32627e-08
2.32079e-08
2.31711e-08
2.3135e-08
2.31253e-08
2.31254e-08
2.31349e-08
2.31698e-08
2.32205e-08
2.32756e-08
2.33139e-08
2.33521e-08
2.33893e-08
2.34802e-08
2.34708e-08
2.34741e-08
2.33741e-08
2.31628e-08
2.28596e-08
2.24784e-08
2.19846e-08
2.12993e-08
2.05428e-08
1.9874e-08
1.92679e-08
1.85711e-08
1.77145e-08
1.69233e-08
1.68276e-08
1.80541e-08
1.93937e-08
1.76937e-08
1.74324e-08
1.80572e-08
1.88968e-08
1.96767e-08
2.04565e-08
2.13519e-08
2.24197e-08
2.3389e-08
2.41629e-08
2.46649e-08
2.50296e-08
2.52843e-08
2.5394e-08
2.53852e-08
2.53428e-08
2.51848e-08
2.51174e-08
2.505e-08
2.49776e-08
2.48951e-08
2.48381e-08
2.47828e-08
2.47672e-08
2.47673e-08
2.47827e-08
2.48364e-08
2.49039e-08
2.49869e-08
2.50558e-08
2.51203e-08
2.51874e-08
2.5339e-08
2.53712e-08
2.53683e-08
2.52543e-08
2.49915e-08
2.46222e-08
2.41117e-08
2.33727e-08
2.24135e-08
2.13448e-08
2.04421e-08
1.96625e-08
1.88847e-08
1.80563e-08
1.74393e-08
1.7763e-08
1.95864e-08
2.14698e-08
1.89693e-08
1.82646e-08
1.86803e-08
1.94786e-08
2.03714e-08
2.13737e-08
2.2634e-08
2.40485e-08
2.53631e-08
2.6384e-08
2.71259e-08
2.76149e-08
2.78798e-08
2.7989e-08
2.79498e-08
2.78812e-08
2.77221e-08
2.76018e-08
2.74893e-08
2.73698e-08
2.72361e-08
2.71395e-08
2.70589e-08
2.70358e-08
2.7036e-08
2.70588e-08
2.71375e-08
2.72399e-08
2.73753e-08
2.74901e-08
2.7598e-08
2.77116e-08
2.78628e-08
2.7919e-08
2.79416e-08
2.7826e-08
2.75521e-08
2.7057e-08
2.63044e-08
2.5324e-08
2.40243e-08
2.2607e-08
2.13499e-08
2.03482e-08
1.94623e-08
1.86872e-08
1.82744e-08
1.90799e-08
2.16723e-08
2.40737e-08
2.06903e-08
1.94274e-08
1.96549e-08
2.04219e-08
2.14609e-08
2.27874e-08
2.4459e-08
2.63709e-08
2.80344e-08
2.9417e-08
3.03035e-08
3.09429e-08
3.1291e-08
3.14188e-08
3.1374e-08
3.12455e-08
3.10091e-08
3.08374e-08
3.06827e-08
3.06236e-08
3.0452e-08
3.03155e-08
3.01967e-08
3.01616e-08
3.01617e-08
3.01962e-08
3.03129e-08
3.04514e-08
3.06259e-08
3.06788e-08
3.08275e-08
3.09849e-08
3.12106e-08
3.13163e-08
3.13465e-08
3.1211e-08
3.08525e-08
3.02053e-08
2.93032e-08
2.79689e-08
2.63191e-08
2.44119e-08
2.27533e-08
2.14336e-08
2.04021e-08
1.96416e-08
1.94411e-08
2.07995e-08
2.42914e-08
2.74459e-08
2.30118e-08
2.10369e-08
2.10303e-08
2.18285e-08
2.30693e-08
2.47082e-08
2.69568e-08
2.94871e-08
3.15589e-08
3.33125e-08
3.44426e-08
3.52686e-08
3.57177e-08
3.58666e-08
3.57847e-08
3.5618e-08
3.52888e-08
3.50537e-08
3.48474e-08
3.47527e-08
3.45418e-08
3.4359e-08
3.41968e-08
3.41493e-08
3.41495e-08
3.4196e-08
3.43564e-08
3.4537e-08
3.47523e-08
3.48382e-08
3.50379e-08
3.52468e-08
3.55638e-08
3.57043e-08
3.57654e-08
3.56072e-08
3.51462e-08
3.43107e-08
3.31576e-08
3.14627e-08
2.94106e-08
2.6887e-08
2.46626e-08
2.30293e-08
2.18025e-08
2.10135e-08
2.1063e-08
2.31247e-08
2.76877e-08
3.16371e-08
2.59462e-08
2.32644e-08
2.29443e-08
2.37954e-08
2.52948e-08
2.73458e-08
3.02862e-08
3.34472e-08
3.61407e-08
3.83292e-08
3.98604e-08
4.0807e-08
4.13788e-08
4.15511e-08
4.1428e-08
4.12165e-08
4.07755e-08
4.04614e-08
4.01932e-08
4.00611e-08
3.9811e-08
3.95683e-08
3.93503e-08
3.92871e-08
3.92871e-08
3.93489e-08
3.95661e-08
3.98031e-08
4.00582e-08
4.01776e-08
4.04402e-08
4.07342e-08
4.11396e-08
4.13214e-08
4.14164e-08
4.12323e-08
4.06475e-08
3.9685e-08
3.81247e-08
3.60005e-08
3.33427e-08
3.01904e-08
2.72705e-08
2.52393e-08
2.37619e-08
2.29274e-08
2.33042e-08
2.60688e-08
3.1906e-08
3.69354e-08
2.97804e-08
2.61007e-08
2.54557e-08
2.63544e-08
2.81727e-08
3.08045e-08
3.44908e-08
3.86622e-08
4.19726e-08
4.47025e-08
4.65982e-08
4.78362e-08
4.85852e-08
4.87886e-08
4.85627e-08
4.83313e-08
4.77254e-08
4.73102e-08
4.69696e-08
4.67958e-08
4.65094e-08
4.61915e-08
4.5903e-08
4.58194e-08
4.58193e-08
4.59007e-08
4.61904e-08
4.65016e-08
4.67903e-08
4.69461e-08
4.72842e-08
4.76619e-08
4.82218e-08
4.84256e-08
4.86076e-08
4.83876e-08
4.7623e-08
4.63771e-08
4.44387e-08
4.17866e-08
3.8521e-08
3.43656e-08
3.07081e-08
2.80991e-08
2.6312e-08
2.54394e-08
2.6151e-08
2.99215e-08
3.72397e-08
4.36492e-08
3.45085e-08
2.9796e-08
2.87491e-08
2.97323e-08
3.19492e-08
3.53686e-08
4.0048e-08
4.51644e-08
4.94377e-08
5.28885e-08
5.52708e-08
5.68598e-08
5.78076e-08
5.80418e-08
5.77272e-08
5.72045e-08
5.6432e-08
5.61272e-08
5.56945e-08
5.52484e-08
5.49294e-08
5.47235e-08
5.43411e-08
5.42289e-08
5.42284e-08
5.43373e-08
5.47244e-08
5.4925e-08
5.52394e-08
5.56602e-08
5.60948e-08
5.63507e-08
5.70622e-08
5.75502e-08
5.78114e-08
5.75543e-08
5.65896e-08
5.49909e-08
5.25468e-08
4.91853e-08
4.4985e-08
3.98848e-08
3.5241e-08
3.18533e-08
2.9679e-08
2.87316e-08
2.98637e-08
3.46705e-08
4.39813e-08
5.16866e-08
4.05554e-08
3.44649e-08
3.30036e-08
3.41149e-08
3.68243e-08
4.11515e-08
4.69221e-08
5.35589e-08
5.89797e-08
6.31866e-08
6.61193e-08
6.81089e-08
6.92865e-08
6.95518e-08
6.9178e-08
6.85618e-08
6.74662e-08
6.68158e-08
6.62901e-08
6.57609e-08
6.54099e-08
6.51218e-08
6.49563e-08
6.48091e-08
6.48079e-08
6.495e-08
6.51234e-08
6.54052e-08
6.57462e-08
6.62436e-08
6.67733e-08
6.7355e-08
6.83785e-08
6.89583e-08
6.92675e-08
6.89703e-08
6.77751e-08
6.57754e-08
6.27626e-08
5.86497e-08
5.33293e-08
4.67161e-08
4.09904e-08
3.67012e-08
3.40481e-08
3.29833e-08
3.45544e-08
4.07471e-08
5.20634e-08
6.17922e-08
4.81932e-08
4.03773e-08
3.84334e-08
3.97252e-08
4.30383e-08
4.85683e-08
5.58236e-08
6.41562e-08
7.08498e-08
7.59331e-08
7.9531e-08
8.20031e-08
8.34576e-08
8.37577e-08
8.3321e-08
8.21741e-08
8.11711e-08
8.04056e-08
7.97023e-08
7.8993e-08
7.85107e-08
7.8077e-08
7.77226e-08
7.75302e-08
7.7528e-08
7.77128e-08
7.80604e-08
7.84995e-08
7.89622e-08
7.96354e-08
8.03387e-08
8.1031e-08
8.1943e-08
8.30513e-08
8.34106e-08
8.30666e-08
8.15941e-08
7.91128e-08
7.54208e-08
7.04266e-08
6.38725e-08
5.55599e-08
4.83583e-08
4.28819e-08
3.96413e-08
3.8409e-08
4.0506e-08
4.84111e-08
6.2242e-08
7.42346e-08
5.76536e-08
4.80146e-08
4.54288e-08
4.69409e-08
5.09732e-08
5.8092e-08
6.70231e-08
7.73129e-08
8.55013e-08
9.16251e-08
9.60001e-08
9.90526e-08
1.00838e-07
1.01179e-07
1.00165e-07
9.91437e-08
9.80692e-08
9.7091e-08
9.62632e-08
9.54141e-08
9.4401e-08
9.3878e-08
9.36398e-08
9.34969e-08
9.34982e-08
9.36432e-08
9.38697e-08
9.43814e-08
9.53696e-08
9.61791e-08
9.69783e-08
9.78989e-08
9.88561e-08
9.98407e-08
1.00758e-07
1.00358e-07
9.85545e-08
9.54961e-08
9.10035e-08
8.50018e-08
7.69455e-08
6.66929e-08
5.78273e-08
5.07969e-08
4.68325e-08
4.53987e-08
4.81934e-08
5.78962e-08
7.47525e-08
8.88781e-08
6.88833e-08
5.75541e-08
5.43874e-08
5.62286e-08
6.07819e-08
7.00054e-08
8.09012e-08
9.35476e-08
1.02918e-07
1.10812e-07
1.16114e-07
1.19845e-07
1.2141e-07
1.21805e-07
1.21044e-07
1.20056e-07
1.18685e-07
1.17458e-07
1.15885e-07
1.14878e-07
1.14024e-07
1.13524e-07
1.13259e-07
1.13105e-07
1.13107e-07
1.13266e-07
1.13527e-07
1.14001e-07
1.14822e-07
1.15782e-07
1.17275e-07
1.18479e-07
1.19702e-07
1.20598e-07
1.21296e-07
1.20828e-07
1.19241e-07
1.15512e-07
1.10065e-07
1.0233e-07
9.30808e-08
8.04892e-08
6.96799e-08
6.05598e-08
5.60911e-08
5.43493e-08
5.77989e-08
6.91599e-08
8.94743e-08
1.06575e-07
8.29424e-08
6.93626e-08
6.55575e-08
6.73894e-08
7.33931e-08
8.42222e-08
9.7419e-08
1.12826e-07
1.24241e-07
1.33484e-07
1.39816e-07
1.44335e-07
1.46293e-07
1.46761e-07
1.45868e-07
1.44662e-07
1.42963e-07
1.41463e-07
1.39652e-07
1.38467e-07
1.37491e-07
1.36873e-07
1.36485e-07
1.36276e-07
1.36278e-07
1.3649e-07
1.36876e-07
1.37458e-07
1.38401e-07
1.39529e-07
1.4122e-07
1.42719e-07
1.44233e-07
1.45341e-07
1.46147e-07
1.45591e-07
1.43609e-07
1.39102e-07
1.32567e-07
1.23443e-07
1.12244e-07
9.6911e-08
8.38273e-08
7.31068e-08
6.7217e-08
6.55087e-08
6.96941e-08
8.32784e-08
1.07264e-07
1.27862e-07
9.9649e-08
8.39022e-08
7.88563e-08
8.11967e-08
8.91082e-08
1.01649e-07
1.17591e-07
1.36276e-07
1.499e-07
1.60895e-07
1.68364e-07
1.7382e-07
1.76222e-07
1.76781e-07
1.7573e-07
1.74263e-07
1.72201e-07
1.70395e-07
1.68486e-07
1.66996e-07
1.65748e-07
1.64991e-07
1.64472e-07
1.64205e-07
1.64206e-07
1.64474e-07
1.64992e-07
1.65704e-07
1.66904e-07
1.68336e-07
1.70105e-07
1.71912e-07
1.73752e-07
1.75105e-07
1.76042e-07
1.75379e-07
1.72951e-07
1.67517e-07
1.59743e-07
1.48931e-07
1.35553e-07
1.16967e-07
1.01172e-07
8.87528e-08
8.09802e-08
7.87927e-08
8.37703e-08
1.0003e-07
1.2866e-07
1.53348e-07
1.19842e-07
1.01036e-07
9.56899e-08
9.88382e-08
1.08475e-07
1.23467e-07
1.42905e-07
1.64633e-07
1.80776e-07
1.93849e-07
2.03176e-07
2.09686e-07
2.12025e-07
2.12697e-07
2.1182e-07
2.09917e-07
2.07318e-07
2.05182e-07
2.02788e-07
2.01054e-07
1.99593e-07
1.98678e-07
1.98018e-07
1.9769e-07
1.97691e-07
1.98018e-07
1.98675e-07
1.99538e-07
2.00951e-07
2.02609e-07
2.04807e-07
2.06969e-07
2.09302e-07
2.11056e-07
2.1181e-07
2.11017e-07
2.08616e-07
2.02113e-07
1.92384e-07
1.79569e-07
1.63735e-07
1.42147e-07
1.22891e-07
1.08035e-07
9.85641e-08
9.55994e-08
1.00967e-07
1.20274e-07
1.54268e-07
1.84165e-07
1.44564e-07
1.21864e-07
1.15665e-07
1.20392e-07
1.32188e-07
1.50169e-07
1.72561e-07
1.98757e-07
2.17736e-07
2.33218e-07
2.45149e-07
2.51772e-07
2.54628e-07
2.55433e-07
2.54364e-07
2.52089e-07
2.49027e-07
2.46516e-07
2.43658e-07
2.41642e-07
2.39926e-07
2.38835e-07
2.38022e-07
2.37626e-07
2.37626e-07
2.38019e-07
2.38827e-07
2.3986e-07
2.41525e-07
2.43441e-07
2.46094e-07
2.4862e-07
2.51371e-07
2.53461e-07
2.54374e-07
2.5343e-07
2.50504e-07
2.43888e-07
2.32248e-07
2.16202e-07
1.97615e-07
1.71656e-07
1.4947e-07
1.31646e-07
1.20048e-07
1.15541e-07
1.21839e-07
1.45076e-07
1.8526e-07
2.2139e-07
1.73701e-07
1.47063e-07
1.39907e-07
1.45747e-07
1.59996e-07
1.81335e-07
2.08964e-07
2.39594e-07
2.61834e-07
2.79902e-07
2.93605e-07
3.01634e-07
3.05066e-07
3.06026e-07
3.04738e-07
3.02543e-07
2.98983e-07
2.95939e-07
2.92466e-07
2.90064e-07
2.88005e-07
2.86668e-07
2.85665e-07
2.85184e-07
2.85184e-07
2.85662e-07
2.86659e-07
2.87926e-07
2.89918e-07
2.92195e-07
2.95441e-07
2.98503e-07
3.01675e-07
3.03676e-07
3.04768e-07
3.03649e-07
3.00138e-07
2.92107e-07
2.78593e-07
2.60888e-07
2.38251e-07
2.07858e-07
1.80479e-07
1.59336e-07
1.45322e-07
1.39725e-07
1.47067e-07
1.74278e-07
2.22648e-07
2.64119e-07
2.08445e-07
1.77897e-07
1.70045e-07
1.76778e-07
1.94182e-07
2.19825e-07
2.51634e-07
2.88073e-07
3.14172e-07
3.34996e-07
3.50787e-07
3.60587e-07
3.64742e-07
3.65849e-07
3.6417e-07
3.61437e-07
3.57287e-07
3.53763e-07
3.496e-07
3.46845e-07
3.44452e-07
3.42891e-07
3.41703e-07
3.41138e-07
3.41138e-07
3.41696e-07
3.42875e-07
3.44359e-07
3.46678e-07
3.49283e-07
3.53194e-07
3.5673e-07
3.60428e-07
3.62873e-07
3.64314e-07
3.63015e-07
3.58756e-07
3.49002e-07
3.33351e-07
3.12814e-07
2.86465e-07
2.50311e-07
2.18758e-07
1.93428e-07
1.7625e-07
1.69783e-07
1.77948e-07
2.09093e-07
2.65555e-07
3.14457e-07
2.51084e-07
2.14267e-07
2.05345e-07
2.13655e-07
2.34444e-07
2.64586e-07
3.02457e-07
3.45357e-07
3.76884e-07
4.00747e-07
4.19682e-07
4.31413e-07
4.3632e-07
4.37615e-07
4.35604e-07
4.32311e-07
4.27409e-07
4.23274e-07
4.18177e-07
4.14982e-07
4.1216e-07
4.10318e-07
4.08906e-07
4.08234e-07
4.08232e-07
4.08895e-07
4.10294e-07
4.12045e-07
4.14784e-07
4.17813e-07
4.22601e-07
4.2675e-07
4.31112e-07
4.34071e-07
4.35797e-07
4.34276e-07
4.29245e-07
4.17517e-07
3.98578e-07
3.75097e-07
3.4343e-07
3.00885e-07
2.63282e-07
2.33524e-07
2.13006e-07
2.04996e-07
2.14324e-07
2.51806e-07
3.16088e-07
3.75086e-07
3.00057e-07
2.57614e-07
2.47602e-07
2.57748e-07
2.82492e-07
3.17748e-07
3.62683e-07
4.14626e-07
4.51455e-07
4.78909e-07
5.00448e-07
5.1429e-07
5.20001e-07
5.21517e-07
5.19173e-07
5.1533e-07
5.09674e-07
5.04911e-07
4.98797e-07
4.95199e-07
4.91943e-07
4.89808e-07
4.8816e-07
4.87378e-07
4.87374e-07
4.88145e-07
4.89773e-07
4.91802e-07
4.94966e-07
4.98393e-07
5.04129e-07
5.08901e-07
5.13925e-07
5.17385e-07
5.1939e-07
5.17615e-07
5.11759e-07
4.97873e-07
4.76346e-07
4.49281e-07
4.12297e-07
3.60827e-07
3.16165e-07
2.81385e-07
2.56952e-07
2.47162e-07
2.57666e-07
3.00859e-07
3.76956e-07
4.4422e-07
3.59518e-07
3.09179e-07
2.97929e-07
3.10201e-07
3.39526e-07
3.80788e-07
4.35608e-07
4.96069e-07
5.36062e-07
5.67508e-07
5.91929e-07
6.0807e-07
6.1464e-07
6.16398e-07
6.13679e-07
6.09252e-07
6.02776e-07
5.97325e-07
5.92653e-07
5.88621e-07
5.84872e-07
5.82402e-07
5.80491e-07
5.79583e-07
5.79578e-07
5.8047e-07
5.82354e-07
5.84697e-07
5.88346e-07
5.92215e-07
5.96414e-07
6.01864e-07
6.07611e-07
6.11609e-07
6.13931e-07
6.11877e-07
6.05139e-07
5.889e-07
5.64525e-07
5.33502e-07
4.93317e-07
4.33379e-07
3.78921e-07
3.38202e-07
3.09229e-07
2.97387e-07
3.09226e-07
3.60428e-07
4.46312e-07
5.24685e-07
4.29984e-07
3.72119e-07
3.59032e-07
3.72286e-07
4.07384e-07
4.54981e-07
5.18688e-07
5.88368e-07
6.34207e-07
6.70194e-07
6.97807e-07
7.16488e-07
7.23988e-07
7.26012e-07
7.22875e-07
7.17815e-07
7.10457e-07
7.04214e-07
6.98473e-07
6.93931e-07
6.8963e-07
6.86786e-07
6.84584e-07
6.83539e-07
6.83532e-07
6.84557e-07
6.86722e-07
6.89412e-07
6.9361e-07
6.97991e-07
7.03151e-07
7.09365e-07
7.15903e-07
7.20487e-07
7.23164e-07
7.208e-07
7.13104e-07
6.94272e-07
6.66747e-07
6.3124e-07
5.85179e-07
5.1605e-07
4.52901e-07
4.05877e-07
3.71101e-07
3.58379e-07
3.72136e-07
4.30986e-07
5.27009e-07
6.18958e-07
5.09721e-07
4.46462e-07
4.32145e-07
4.45386e-07
4.86533e-07
5.41789e-07
6.15423e-07
6.95543e-07
7.49187e-07
7.91214e-07
8.22882e-07
8.43498e-07
8.51743e-07
8.53745e-07
8.49924e-07
8.44124e-07
8.3515e-07
8.28046e-07
8.20471e-07
8.15237e-07
8.10309e-07
8.07038e-07
8.04512e-07
8.03314e-07
8.03305e-07
8.04479e-07
8.06957e-07
8.10036e-07
8.14863e-07
8.19952e-07
8.26768e-07
8.33439e-07
8.41983e-07
8.47151e-07
8.50419e-07
8.48029e-07
8.39521e-07
8.18738e-07
7.87201e-07
7.457e-07
6.91862e-07
6.12342e-07
5.39316e-07
4.84741e-07
4.43949e-07
4.31337e-07
4.46425e-07
5.10827e-07
6.21609e-07
7.26632e-07
6.02531e-07
5.30483e-07
5.14985e-07
5.31691e-07
5.80879e-07
6.42537e-07
7.28238e-07
8.21019e-07
8.83695e-07
9.31159e-07
9.66728e-07
9.86461e-07
9.95745e-07
9.98035e-07
9.93678e-07
9.87126e-07
9.77126e-07
9.68995e-07
9.60186e-07
9.54246e-07
9.48655e-07
9.44901e-07
9.42016e-07
9.40649e-07
9.40637e-07
9.41977e-07
9.44798e-07
9.48313e-07
9.53819e-07
9.59594e-07
9.67507e-07
9.75078e-07
9.84655e-07
9.90506e-07
9.94231e-07
9.91501e-07
9.81915e-07
9.61945e-07
9.26577e-07
8.7972e-07
8.16854e-07
7.24581e-07
6.39659e-07
5.78671e-07
5.29968e-07
5.14001e-07
5.30377e-07
6.03755e-07
7.29544e-07
8.50408e-07
7.10046e-07
6.28364e-07
6.11703e-07
6.31592e-07
6.8865e-07
7.6121e-07
8.62103e-07
9.6307e-07
1.03367e-06
1.0869e-06
1.12674e-06
1.14933e-06
1.15975e-06
1.16234e-06
1.15738e-06
1.15001e-06
1.13891e-06
1.13054e-06
1.12072e-06
1.11371e-06
1.10702e-06
1.10274e-06
1.0994e-06
1.09783e-06
1.09782e-06
1.09935e-06
1.10264e-06
1.10672e-06
1.1131e-06
1.1199e-06
1.12889e-06
1.13645e-06
1.14719e-06
1.15377e-06
1.15801e-06
1.15492e-06
1.14415e-06
1.12127e-06
1.08172e-06
1.02917e-06
9.58409e-07
8.57861e-07
7.57757e-07
6.86051e-07
6.29541e-07
6.10511e-07
6.28173e-07
7.11372e-07
8.53593e-07
9.94092e-07
8.34049e-07
7.41842e-07
7.24443e-07
7.49212e-07
8.16984e-07
9.00541e-07
1.01124e-06
1.12659e-06
1.20512e-06
1.26396e-06
1.30849e-06
1.33401e-06
1.34566e-06
1.34856e-06
1.34292e-06
1.33465e-06
1.32238e-06
1.31281e-06
1.30164e-06
1.29372e-06
1.28621e-06
1.28137e-06
1.2776e-06
1.27583e-06
1.27581e-06
1.27754e-06
1.28124e-06
1.28585e-06
1.29304e-06
1.30069e-06
1.31091e-06
1.31945e-06
1.33148e-06
1.33883e-06
1.34365e-06
1.34018e-06
1.32813e-06
1.30228e-06
1.25815e-06
1.19961e-06
1.12069e-06
1.00639e-06
8.9647e-07
8.13903e-07
7.46741e-07
7.23014e-07
7.41549e-07
8.35459e-07
9.97727e-07
1.16043e-06
9.76457e-07
8.77234e-07
8.54323e-07
8.83147e-07
9.61028e-07
1.05609e-06
1.18524e-06
1.31076e-06
1.399e-06
1.46431e-06
1.51396e-06
1.54247e-06
1.55542e-06
1.55865e-06
1.55225e-06
1.54303e-06
1.52942e-06
1.51858e-06
1.50602e-06
1.49711e-06
1.48869e-06
1.48324e-06
1.479e-06
1.477e-06
1.47698e-06
1.47893e-06
1.48308e-06
1.48827e-06
1.49633e-06
1.50494e-06
1.51642e-06
1.52602e-06
1.53946e-06
1.54764e-06
1.5531e-06
1.54924e-06
1.53581e-06
1.50692e-06
1.45784e-06
1.39285e-06
1.30413e-06
1.17976e-06
1.05132e-06
9.57449e-07
8.80235e-07
8.5262e-07
8.76833e-07
9.77928e-07
1.16436e-06
1.34417e-06
1.14331e-06
1.02786e-06
1.00499e-06
1.03766e-06
1.12623e-06
1.23778e-06
1.37887e-06
1.51894e-06
1.61766e-06
1.68995e-06
1.74509e-06
1.7767e-06
1.79101e-06
1.79457e-06
1.78733e-06
1.77707e-06
1.76199e-06
1.74984e-06
1.7358e-06
1.72583e-06
1.71642e-06
1.71031e-06
1.70557e-06
1.70333e-06
1.70331e-06
1.70549e-06
1.71012e-06
1.71593e-06
1.72494e-06
1.73457e-06
1.7474e-06
1.75813e-06
1.77306e-06
1.78215e-06
1.78834e-06
1.78406e-06
1.7692e-06
1.73716e-06
1.68278e-06
1.61084e-06
1.51144e-06
1.37261e-06
1.23183e-06
1.1224e-06
1.0343e-06
1.00271e-06
1.02727e-06
1.14493e-06
1.34838e-06
1.55434e-06
1.32874e-06
1.19999e-06
1.1763e-06
1.21983e-06
1.31433e-06
1.44112e-06
1.59771e-06
1.7533e-06
1.86305e-06
1.94288e-06
2.00391e-06
2.03867e-06
2.05438e-06
2.05829e-06
2.05012e-06
2.03877e-06
2.02204e-06
2.00855e-06
1.99294e-06
1.98186e-06
1.97136e-06
1.96455e-06
1.95927e-06
1.95678e-06
1.95675e-06
1.95918e-06
1.96433e-06
1.9708e-06
1.98084e-06
1.99157e-06
2.00579e-06
2.01776e-06
2.03427e-06
2.04432e-06
2.05132e-06
2.04661e-06
2.03027e-06
1.995e-06
1.93498e-06
1.85552e-06
1.7449e-06
1.5905e-06
1.43421e-06
1.30994e-06
1.21586e-06
1.17362e-06
1.19915e-06
1.33038e-06
1.55895e-06
1.78825e-06
1.5388e-06
1.39584e-06
1.37157e-06
1.42048e-06
1.52747e-06
1.67609e-06
1.84351e-06
2.01685e-06
2.13829e-06
2.22509e-06
2.29238e-06
2.33034e-06
2.34748e-06
2.35174e-06
2.34254e-06
2.33003e-06
2.31151e-06
2.29662e-06
2.27942e-06
2.26714e-06
2.25546e-06
2.24791e-06
2.24205e-06
2.23929e-06
2.23925e-06
2.24195e-06
2.24765e-06
2.25482e-06
2.26598e-06
2.27786e-06
2.29355e-06
2.3068e-06
2.32499e-06
2.33607e-06
2.34398e-06
2.33883e-06
2.32096e-06
2.28242e-06
2.21645e-06
2.12982e-06
2.00753e-06
1.83504e-06
1.66756e-06
1.52249e-06
1.41584e-06
1.36841e-06
1.3947e-06
1.54042e-06
1.79314e-06
2.05046e-06
1.77575e-06
1.62343e-06
1.59836e-06
1.65289e-06
1.76877e-06
1.93434e-06
2.11985e-06
2.31014e-06
2.4435e-06
2.53852e-06
2.61242e-06
2.65361e-06
2.67219e-06
2.67679e-06
2.66644e-06
2.65274e-06
2.63225e-06
2.61596e-06
2.59705e-06
2.58356e-06
2.57061e-06
2.56227e-06
2.55581e-06
2.55276e-06
2.55271e-06
2.55569e-06
2.56197e-06
2.56988e-06
2.58225e-06
2.59534e-06
2.61253e-06
2.62714e-06
2.6471e-06
2.65927e-06
2.66819e-06
2.66259e-06
2.64317e-06
2.60132e-06
2.52911e-06
2.43421e-06
2.29992e-06
2.11245e-06
1.92468e-06
1.76322e-06
1.64748e-06
1.5946e-06
1.62194e-06
1.77733e-06
2.05563e-06
2.34318e-06
2.04179e-06
1.87409e-06
1.8488e-06
1.90953e-06
2.04058e-06
2.22371e-06
2.42727e-06
2.63615e-06
2.78155e-06
2.88502e-06
2.96587e-06
3.01025e-06
3.03028e-06
3.03522e-06
3.02361e-06
3.00866e-06
2.98605e-06
2.96832e-06
2.94768e-06
2.93292e-06
2.91862e-06
2.90944e-06
2.90235e-06
2.89899e-06
2.89894e-06
2.90221e-06
2.90909e-06
2.91779e-06
2.93145e-06
2.94581e-06
2.96449e-06
2.98054e-06
3.00236e-06
3.01568e-06
3.02574e-06
3.01968e-06
2.99869e-06
2.95354e-06
2.87485e-06
2.7714e-06
2.62505e-06
2.41773e-06
2.21279e-06
2.03445e-06
1.90322e-06
1.84435e-06
1.87216e-06
2.04327e-06
2.34863e-06
2.66857e-06
2.33922e-06
2.1555e-06
2.13014e-06
2.19743e-06
2.3451e-06
2.54666e-06
2.76889e-06
2.99544e-06
3.15449e-06
3.26908e-06
3.35445e-06
3.40195e-06
3.4234e-06
3.42868e-06
3.41567e-06
3.39943e-06
3.37454e-06
3.35536e-06
3.33295e-06
3.31691e-06
3.30118e-06
3.29111e-06
3.28335e-06
3.27969e-06
3.27963e-06
3.28319e-06
3.29071e-06
3.30024e-06
3.31527e-06
3.3309e-06
3.35112e-06
3.36865e-06
3.39241e-06
3.40695e-06
3.41827e-06
3.41175e-06
3.3892e-06
3.3408e-06
3.25778e-06
3.14339e-06
2.98363e-06
2.75758e-06
2.53376e-06
2.33821e-06
2.19008e-06
2.12489e-06
2.15305e-06
2.34055e-06
2.67428e-06
3.02869e-06
2.67029e-06
2.46999e-06
2.4447e-06
2.51882e-06
2.68185e-06
2.90886e-06
3.14691e-06
3.39538e-06
3.5638e-06
3.6869e-06
3.77968e-06
3.8302e-06
3.85306e-06
3.85865e-06
3.8441e-06
3.82653e-06
3.7992e-06
3.77861e-06
3.75434e-06
3.73707e-06
3.71985e-06
3.70881e-06
3.70037e-06
3.69638e-06
3.69631e-06
3.70019e-06
3.70836e-06
3.71878e-06
3.73524e-06
3.75214e-06
3.77389e-06
3.79291e-06
3.81875e-06
3.83454e-06
3.84728e-06
3.8403e-06
3.8162e-06
3.76464e-06
3.67484e-06
3.55176e-06
3.38256e-06
3.13357e-06
2.89349e-06
2.67481e-06
2.51027e-06
2.43852e-06
2.46692e-06
2.67142e-06
3.03463e-06
3.42551e-06
3.03718e-06
2.82254e-06
2.79625e-06
2.88064e-06
3.05557e-06
3.30346e-06
3.56237e-06
3.82836e-06
4.01112e-06
4.14247e-06
4.24294e-06
4.29629e-06
4.32054e-06
4.32642e-06
4.31016e-06
4.29124e-06
4.26129e-06
4.23929e-06
4.21322e-06
4.19472e-06
4.176e-06
4.16388e-06
4.15474e-06
4.15042e-06
4.15034e-06
4.15454e-06
4.16337e-06
4.17479e-06
4.1927e-06
4.21081e-06
4.23413e-06
4.25457e-06
4.28265e-06
4.29971e-06
4.31403e-06
4.30661e-06
4.28098e-06
4.2264e-06
4.12967e-06
3.99805e-06
3.81506e-06
3.54648e-06
3.28713e-06
3.04676e-06
2.87065e-06
2.78904e-06
2.81888e-06
3.03806e-06
3.43163e-06
3.86079e-06
3.44182e-06
3.20978e-06
3.18378e-06
3.27574e-06
3.47381e-06
3.73545e-06
4.01694e-06
4.3004e-06
4.49774e-06
4.63691e-06
4.74533e-06
4.8013e-06
4.8269e-06
4.83302e-06
4.81486e-06
4.79448e-06
4.76195e-06
4.73847e-06
4.71068e-06
4.69098e-06
4.67079e-06
4.65745e-06
4.6476e-06
4.64294e-06
4.64286e-06
4.64737e-06
4.65688e-06
4.66942e-06
4.68876e-06
4.70799e-06
4.73289e-06
4.75467e-06
4.78515e-06
4.8035e-06
4.81958e-06
4.81176e-06
4.78462e-06
4.72721e-06
4.62344e-06
4.48355e-06
4.28685e-06
3.99799e-06
3.71828e-06
3.46274e-06
3.26417e-06
3.17535e-06
3.20528e-06
3.44245e-06
3.86704e-06
4.3361e-06
3.88596e-06
3.6362e-06
3.61063e-06
3.71029e-06
3.92707e-06
4.20694e-06
4.51199e-06
4.81249e-06
5.02468e-06
5.17109e-06
5.28772e-06
5.34873e-06
5.37944e-06
5.38632e-06
5.36588e-06
5.34383e-06
5.3083e-06
5.28299e-06
5.25318e-06
5.23205e-06
5.21016e-06
5.19514e-06
5.1844e-06
5.17932e-06
5.17923e-06
5.18414e-06
5.19448e-06
5.2086e-06
5.22957e-06
5.25008e-06
5.2769e-06
5.30028e-06
5.33352e-06
5.3534e-06
5.37151e-06
5.36278e-06
5.33032e-06
5.26792e-06
5.15704e-06
5.0093e-06
4.79882e-06
4.4896e-06
4.18839e-06
3.91401e-06
3.69696e-06
3.60084e-06
3.63072e-06
3.88616e-06
4.34243e-06
4.85274e-06
4.37119e-06
4.10349e-06
4.07857e-06
4.18588e-06
4.42053e-06
4.72084e-06
5.04849e-06
5.36538e-06
5.5927e-06
5.74557e-06
)
;

boundaryField
{
    fuel
    {
        type            fixedValue;
        value           nonuniform 0();
    }
    wall
    {
        type            zeroGradient;
    }
    outlet
    {
        type            inletOutlet;
        inletValue      uniform 0;
        value           nonuniform List<scalar> 
80
(
1.50181e-08
1.53309e-08
1.58607e-08
1.66652e-08
1.78231e-08
1.93937e-08
2.14698e-08
2.40737e-08
2.74459e-08
3.16371e-08
3.69354e-08
4.36492e-08
5.16866e-08
6.17922e-08
7.42346e-08
8.88781e-08
1.06575e-07
1.27862e-07
1.53348e-07
1.84165e-07
2.2139e-07
2.64119e-07
3.14457e-07
3.75086e-07
4.4422e-07
5.24685e-07
6.18958e-07
7.26632e-07
8.50408e-07
9.94092e-07
1.16043e-06
1.34417e-06
1.55434e-06
1.78825e-06
2.05046e-06
2.34318e-06
2.66857e-06
3.02869e-06
3.42551e-06
3.86079e-06
4.3361e-06
4.85274e-06
1.69292e-08
1.80541e-08
1.95864e-08
2.16723e-08
2.42914e-08
2.76877e-08
3.1906e-08
3.72397e-08
4.39813e-08
5.20634e-08
6.2242e-08
7.47525e-08
8.94743e-08
1.07264e-07
1.2866e-07
1.54268e-07
1.8526e-07
2.22648e-07
2.65555e-07
3.16088e-07
3.76956e-07
4.46312e-07
5.27009e-07
6.21609e-07
7.29544e-07
8.53593e-07
9.97727e-07
1.16436e-06
1.34838e-06
1.55895e-06
1.79314e-06
2.05563e-06
2.34863e-06
2.67428e-06
3.03463e-06
3.43163e-06
3.86704e-06
4.34243e-06
)
;
    }
    frontAndBack
    {
        type            empty;
    }
    procBoundary2to0
    {
        type            processor;
        value           nonuniform List<scalar> 
53
(
1.48842e-08
1.56438e-08
1.70343e-08
1.84686e-08
1.94961e-08
2.00783e-08
2.02808e-08
2.03189e-08
2.02712e-08
2.02145e-08
2.01953e-08
2.02134e-08
2.0252e-08
2.03087e-08
2.03699e-08
2.04331e-08
2.04937e-08
2.05498e-08
2.05921e-08
2.05921e-08
2.06283e-08
2.06446e-08
2.06641e-08
2.06781e-08
2.06845e-08
2.06886e-08
2.06886e-08
2.06839e-08
2.06775e-08
2.08332e-08
2.08332e-08
2.08259e-08
2.08242e-08
2.08031e-08
2.07746e-08
2.07599e-08
2.07244e-08
2.06794e-08
2.06168e-08
2.05191e-08
2.04092e-08
2.02808e-08
2.04486e-08
2.04486e-08
2.01792e-08
1.98582e-08
1.95465e-08
1.91718e-08
1.8564e-08
1.76396e-08
1.65529e-08
1.58379e-08
1.61068e-08
)
;
    }
    procBoundary2to3
    {
        type            processor;
        value           nonuniform List<scalar> 
51
(
5.85609e-06
5.93221e-06
5.96446e-06
5.97128e-06
5.94847e-06
5.92474e-06
5.88671e-06
5.85992e-06
5.82867e-06
5.80656e-06
5.78383e-06
5.76688e-06
5.75545e-06
5.75004e-06
5.74994e-06
5.75517e-06
5.76616e-06
5.78217e-06
5.80394e-06
5.82521e-06
5.85349e-06
5.87809e-06
5.91369e-06
5.93503e-06
5.95536e-06
5.94655e-06
5.91243e-06
5.83467e-06
5.71714e-06
5.56261e-06
5.33828e-06
5.01174e-06
4.68988e-06
4.39357e-06
4.15907e-06
4.05444e-06
4.08207e-06
4.35232e-06
4.83611e-06
5.38669e-06
4.87868e-06
4.59681e-06
4.5749e-06
4.69098e-06
4.94472e-06
5.2633e-06
5.61559e-06
5.95456e-06
6.19944e-06
5.85609e-06
6.35265e-06
)
;
    }
}


// ************************************************************************* //
