/*--------------------------------*- C++ -*----------------------------------*\
| =========                 |                                                 |
| \\      /  F ield         | OpenFOAM: The Open Source CFD Toolbox           |
|  \\    /   O peration     | Version:  dev                                   |
|   \\  /    A nd           | Web:      www.OpenFOAM.org                      |
|    \\/     M anipulation  |                                                 |
\*---------------------------------------------------------------------------*/
FoamFile
{
    version     2.0;
    format      ascii;
    class       surfaceScalarField;
    location    "0.08";
    object      phi;
}
// * * * * * * * * * * * * * * * * * * * * * * * * * * * * * * * * * * * * * //

dimensions      [1 0 -1 0 0 0 0];

internalField   nonuniform List<scalar> 
12
(
8.28549e-05
8.57402e-05
8.87548e-05
9.18952e-05
9.51299e-05
9.84119e-05
0.000101783
0.000105908
0.000109008
0.000114261
0.000120474
0.000129956
)
;

boundaryField
{
    wall
    {
        type            calculated;
        value           nonuniform List<scalar> 
52
(
8.66112e-20
8.09572e-20
7.50183e-20
6.88651e-20
6.24838e-20
5.5912e-20
4.91557e-20
4.22076e-20
3.5141e-20
2.76276e-20
1.99944e-20
1.22231e-20
5.74738e-21
-8.66112e-20
-8.09572e-20
-7.50183e-20
-6.88651e-20
-6.24838e-20
-5.5912e-20
-4.91557e-20
-4.22076e-20
-3.5141e-20
-2.76276e-20
-1.99944e-20
-1.22231e-20
-5.74738e-21
8.66112e-20
8.09572e-20
7.50183e-20
6.88651e-20
6.24838e-20
5.5912e-20
4.91557e-20
4.22076e-20
3.5141e-20
2.76276e-20
1.99944e-20
1.22231e-20
5.74738e-21
-8.66112e-20
-8.09572e-20
-7.50183e-20
-6.88651e-20
-6.24838e-20
-5.5912e-20
-4.91557e-20
-4.22076e-20
-3.5141e-20
-2.76276e-20
-1.99944e-20
-1.22231e-20
-5.74738e-21
)
;
    }
    fuel
    {
        type            calculated;
        value           nonuniform 0();
    }
    outlet
    {
        type            calculated;
        value           uniform 0.00015187;
    }
    procBoundary7to6
    {
        type            processor;
        value           uniform -8.0104e-05;
    }
}


// ************************************************************************* //
