/*--------------------------------*- C++ -*----------------------------------*\
| =========                 |                                                 |
| \\      /  F ield         | OpenFOAM: The Open Source CFD Toolbox           |
|  \\    /   O peration     | Version:  dev                                   |
|   \\  /    A nd           | Web:      www.OpenFOAM.org                      |
|    \\/     M anipulation  |                                                 |
\*---------------------------------------------------------------------------*/
FoamFile
{
    version     2.0;
    format      ascii;
    class       volScalarField;
    location    "0.19";
    object      A1C2H*;
}
// * * * * * * * * * * * * * * * * * * * * * * * * * * * * * * * * * * * * * //

dimensions      [0 0 0 0 0 0 0];

internalField   nonuniform List<scalar> 
250
(
2.15275e-09
1.33388e-09
9.87668e-10
9.04316e-10
8.90065e-10
8.38868e-10
8.68596e-10
8.27913e-10
8.55603e-10
8.30112e-10
1.52719e-09
1.00307e-09
7.58062e-10
6.97796e-10
6.89033e-10
6.45749e-10
6.71865e-10
6.36538e-10
6.60993e-10
6.38678e-10
6.46982e-10
6.50678e-10
6.47801e-10
6.54426e-10
6.57192e-10
6.62947e-10
7.05822e-10
7.35567e-10
8.58599e-10
9.77692e-10
1.04719e-09
7.28391e-10
5.60984e-10
5.1879e-10
5.1397e-10
4.78924e-10
5.00851e-10
4.7158e-10
4.92061e-10
4.73513e-10
4.80395e-10
4.83371e-10
4.80978e-10
4.86279e-10
4.88424e-10
4.92853e-10
5.25815e-10
5.45044e-10
6.3271e-10
7.18831e-10
6.93583e-10
5.09529e-10
3.99157e-10
3.70672e-10
3.68492e-10
3.41171e-10
3.58931e-10
3.35609e-10
3.51936e-10
3.37249e-10
3.42684e-10
3.4497e-10
3.43085e-10
3.47115e-10
3.4871e-10
3.52229e-10
3.76442e-10
3.88112e-10
4.48652e-10
5.09039e-10
4.42552e-10
3.41562e-10
2.71459e-10
2.51404e-10
2.51053e-10
2.3189e-10
2.4415e-10
2.27911e-10
2.40316e-10
2.29232e-10
2.33321e-10
2.35e-10
2.33593e-10
2.36501e-10
2.37632e-10
2.38718e-10
2.56206e-10
2.63934e-10
3.04256e-10
3.45303e-10
2.6571e-10
2.1714e-10
1.74445e-10
1.61539e-10
1.62017e-10
1.48574e-10
1.57426e-10
1.45878e-10
1.54799e-10
1.46878e-10
1.49791e-10
1.50959e-10
1.49972e-10
1.51948e-10
1.52715e-10
1.53397e-10
1.65104e-10
1.6945e-10
1.95087e-10
2.1978e-10
1.51056e-10
1.28459e-10
1.03831e-10
9.59501e-11
9.66858e-11
8.79022e-11
9.38482e-11
8.62004e-11
9.21732e-11
8.69042e-11
8.88336e-11
8.95919e-11
8.89506e-11
9.01933e-11
9.06825e-11
9.10816e-11
9.83999e-11
1.00666e-10
1.15969e-10
1.3082e-10
7.79493e-11
6.8492e-11
5.53934e-11
5.09824e-11
5.16355e-11
4.64581e-11
5.0058e-11
4.54874e-11
4.90953e-11
4.5933e-11
4.70851e-11
4.75285e-11
4.71558e-11
4.78555e-11
4.81406e-11
4.83516e-11
5.24905e-11
5.35541e-11
6.18672e-11
7.00275e-11
3.46551e-11
3.1256e-11
2.51614e-11
2.30318e-11
2.34546e-11
2.08522e-11
2.2709e-11
2.03785e-11
2.22369e-11
2.06184e-11
2.12045e-11
2.14249e-11
2.12419e-11
2.15754e-11
2.17191e-11
2.18143e-11
2.38173e-11
2.42442e-11
2.81295e-11
3.2002e-11
1.23658e-11
1.1383e-11
9.10997e-12
8.2971e-12
8.49399e-12
7.46851e-12
8.21807e-12
7.28617e-12
8.0362e-12
7.38693e-12
7.62057e-12
7.7063e-12
7.63636e-12
7.76034e-12
7.81804e-12
7.85215e-12
8.61486e-12
8.75214e-12
1.01866e-11
1.16415e-11
3.20603e-12
2.98377e-12
2.36656e-12
2.14066e-12
2.20317e-12
1.91384e-12
2.13009e-12
1.8634e-12
2.07988e-12
1.8936e-12
1.96002e-12
1.98414e-12
1.96511e-12
1.99785e-12
2.01479e-12
2.02385e-12
2.23238e-12
2.26657e-12
2.65074e-12
3.0507e-12
4.73098e-13
4.41393e-13
3.4767e-13
3.13587e-13
3.2349e-13
2.79482e-13
3.12963e-13
2.71808e-13
3.05447e-13
2.76612e-13
2.86783e-13
2.90492e-13
2.87689e-13
2.92386e-13
2.95094e-13
2.9648e-13
3.27559e-13
3.32865e-13
3.89845e-13
4.52036e-13
4.55732e-14
4.26298e-14
3.42195e-14
3.12008e-14
3.20425e-14
2.80907e-14
3.11211e-14
2.7372e-14
3.04514e-14
2.78115e-14
2.87403e-14
2.90817e-14
2.88326e-14
2.9247e-14
2.95016e-14
2.96362e-14
3.24113e-14
3.29506e-14
3.79886e-14
4.37047e-14
)
;

boundaryField
{
    fuel
    {
        type            fixedValue;
        value           nonuniform 0();
    }
    wall
    {
        type            zeroGradient;
    }
    outlet
    {
        type            zeroGradient;
    }
    frontAndBack
    {
        type            empty;
    }
    procBoundary1to0
    {
        type            processor;
        value           nonuniform List<scalar> 
21
(
2.93433e-09
1.71575e-09
1.24263e-09
1.13087e-09
1.10949e-09
1.05154e-09
1.08377e-09
1.03921e-09
1.06886e-09
1.04128e-09
8.39624e-10
8.39624e-10
8.43992e-10
8.40719e-10
8.48575e-10
8.51991e-10
8.59404e-10
9.12864e-10
9.56761e-10
1.12501e-09
1.28529e-09
)
;
    }
}


// ************************************************************************* //
