/*--------------------------------*- C++ -*----------------------------------*\
| =========                 |                                                 |
| \\      /  F ield         | OpenFOAM: The Open Source CFD Toolbox           |
|  \\    /   O peration     | Version:  dev                                   |
|   \\  /    A nd           | Web:      www.OpenFOAM.org                      |
|    \\/     M anipulation  |                                                 |
\*---------------------------------------------------------------------------*/
FoamFile
{
    version     2.0;
    format      ascii;
    class       volScalarField;
    location    "0.19";
    object      A1C2H3*;
}
// * * * * * * * * * * * * * * * * * * * * * * * * * * * * * * * * * * * * * //

dimensions      [0 0 0 0 0 0 0];

internalField   nonuniform List<scalar> 
50
(
3.1427e-19
2.74912e-19
2.40637e-19
2.10785e-19
1.84777e-19
1.62107e-19
1.42336e-19
1.25079e-19
1.10004e-19
9.68216e-20
8.52832e-20
7.51732e-20
6.6306e-20
5.8521e-20
5.16797e-20
4.56626e-20
4.03661e-20
3.57004e-20
3.15879e-20
2.79609e-20
2.47605e-20
2.19353e-20
1.94404e-20
1.72366e-20
1.52892e-20
1.35681e-20
1.20465e-20
1.07011e-20
9.51114e-21
8.45843e-21
7.52691e-21
6.70239e-21
5.97237e-21
5.3258e-21
4.75293e-21
4.24516e-21
3.7949e-21
3.39543e-21
3.04085e-21
2.72593e-21
2.44606e-21
2.19715e-21
1.97558e-21
1.78027e-21
1.60486e-21
1.44823e-21
1.30857e-21
1.18391e-21
1.07252e-21
9.728e-22
)
;

boundaryField
{
    wall
    {
        type            zeroGradient;
    }
    fuel
    {
        type            fixedValue;
        value           nonuniform 0();
    }
    outlet
    {
        type            inletOutlet;
        inletValue      nonuniform 0();
        value           nonuniform 0();
    }
    procBoundary1to0
    {
        type            processor;
        value           uniform 3.60211e-19;
    }
    procBoundary1to2
    {
        type            processor;
        value           uniform 8.82994e-22;
    }
}


// ************************************************************************* //
