/*--------------------------------*- C++ -*----------------------------------*\
| =========                 |                                                 |
| \\      /  F ield         | OpenFOAM: The Open Source CFD Toolbox           |
|  \\    /   O peration     | Version:  dev                                   |
|   \\  /    A nd           | Web:      www.OpenFOAM.org                      |
|    \\/     M anipulation  |                                                 |
\*---------------------------------------------------------------------------*/
FoamFile
{
    version     2.0;
    format      ascii;
    class       volScalarField;
    location    "0.19";
    object      A2C2HB*;
}
// * * * * * * * * * * * * * * * * * * * * * * * * * * * * * * * * * * * * * //

dimensions      [0 0 0 0 0 0 0];

internalField   nonuniform List<scalar> 
250
(
1.16584e-12
8.44247e-13
6.57954e-13
6.00704e-13
5.68685e-13
5.62033e-13
5.60347e-13
5.55803e-13
5.57359e-13
5.55962e-13
8.47878e-13
6.32055e-13
5.07043e-13
4.67118e-13
4.41686e-13
4.36463e-13
4.35073e-13
4.3095e-13
4.32441e-13
4.31088e-13
4.25745e-13
4.41001e-13
4.23365e-13
4.46953e-13
4.28114e-13
4.5966e-13
4.64335e-13
5.30342e-13
8.50338e-13
2.08287e-12
5.98962e-13
4.57309e-13
3.75202e-13
3.48235e-13
3.28891e-13
3.24895e-13
3.23795e-13
3.20315e-13
3.21636e-13
3.20443e-13
3.15882e-13
3.29072e-13
3.13877e-13
3.33985e-13
3.17707e-13
3.43853e-13
3.45309e-13
3.9151e-13
5.99486e-13
1.35436e-12
4.09311e-13
3.18652e-13
2.66047e-13
2.48583e-13
2.34564e-13
2.3141e-13
2.30663e-13
2.27917e-13
2.29005e-13
2.28031e-13
2.24384e-13
2.3521e-13
2.22778e-13
2.39002e-13
2.25684e-13
2.46258e-13
2.459e-13
2.77062e-13
4.06151e-13
8.44628e-13
2.68913e-13
2.12475e-13
1.79996e-13
1.68364e-13
1.58423e-13
1.56862e-13
1.56666e-13
1.54634e-13
1.5547e-13
1.54725e-13
1.51977e-13
1.59264e-13
1.50742e-13
1.62105e-13
1.52819e-13
1.67368e-13
1.65921e-13
1.87189e-13
2.63501e-13
5.04359e-13
1.68077e-13
1.34529e-13
1.15159e-13
1.08173e-13
1.01638e-13
1.00509e-13
1.00522e-13
9.9111e-14
9.971e-14
9.91759e-14
9.72275e-14
1.02442e-13
9.63307e-14
1.0439e-13
9.77307e-14
1.07891e-13
1.06275e-13
1.19711e-13
1.6243e-13
2.81819e-13
9.82117e-14
7.93287e-14
6.84724e-14
6.45104e-14
6.0492e-14
5.97745e-14
5.9822e-14
5.89129e-14
5.93094e-14
5.89534e-14
5.76673e-14
6.11486e-14
5.7058e-14
6.23886e-14
5.7938e-14
6.45603e-14
6.31599e-14
7.12028e-14
9.3633e-14
1.49184e-13
5.19628e-14
4.21634e-14
3.66288e-14
3.45578e-14
3.23114e-14
3.19052e-14
3.19416e-14
3.14123e-14
3.16479e-14
3.14338e-14
3.06642e-14
3.2775e-14
3.02874e-14
3.34889e-14
3.07892e-14
3.47089e-14
3.36996e-14
3.81319e-14
4.89564e-14
7.19428e-14
2.3565e-14
1.91342e-14
1.66937e-14
1.57542e-14
1.4676e-14
1.4478e-14
1.44984e-14
1.42356e-14
1.43542e-14
1.42449e-14
1.38508e-14
1.49472e-14
1.36509e-14
1.52989e-14
1.38962e-14
1.58851e-14
1.52943e-14
1.74166e-14
2.20117e-14
3.00724e-14
8.49569e-15
6.89567e-15
6.03982e-15
5.69954e-15
5.29332e-15
5.21654e-15
5.22515e-15
5.12348e-15
5.16962e-15
5.1264e-15
4.96872e-15
5.4136e-15
4.88575e-15
5.54932e-15
4.97994e-15
5.76955e-15
5.50986e-15
6.31576e-15
7.89957e-15
1.01394e-14
2.18941e-15
1.76852e-15
1.55219e-15
1.46143e-15
1.35251e-15
1.33092e-15
1.33337e-15
1.30561e-15
1.31823e-15
1.30601e-15
1.26144e-15
1.38917e-15
1.23706e-15
1.42632e-15
1.26275e-15
1.48501e-15
1.40626e-15
1.62702e-15
2.02804e-15
2.48586e-15
3.0866e-16
2.47596e-16
2.17797e-16
2.0447e-16
1.89047e-16
1.8578e-16
1.86141e-16
1.82168e-16
1.83967e-16
1.82146e-16
1.75571e-16
1.94699e-16
1.71866e-16
2.00049e-16
1.75604e-16
2.08279e-16
1.96325e-16
2.28306e-16
2.84818e-16
3.40324e-16
2.28407e-17
1.84755e-17
1.64379e-17
1.54685e-17
1.44107e-17
1.41712e-17
1.41962e-17
1.39208e-17
1.40443e-17
1.39145e-17
1.34494e-17
1.4809e-17
1.31852e-17
1.51782e-17
1.34569e-17
1.5736e-17
1.49252e-17
1.71227e-17
2.10681e-17
2.47653e-17
)
;

boundaryField
{
    fuel
    {
        type            fixedValue;
        value           nonuniform 0();
    }
    wall
    {
        type            zeroGradient;
    }
    outlet
    {
        type            zeroGradient;
    }
    frontAndBack
    {
        type            empty;
    }
    procBoundary1to0
    {
        type            processor;
        value           nonuniform List<scalar> 
21
(
1.56229e-12
1.09388e-12
8.2149e-13
7.41496e-13
7.02589e-13
6.9441e-13
6.92429e-13
6.87779e-13
6.89285e-13
6.88002e-13
5.5014e-13
5.5014e-13
5.66667e-13
5.47457e-13
5.73391e-13
5.52976e-13
5.88946e-13
5.98573e-13
6.9002e-13
1.16123e-12
3.0762e-12
)
;
    }
}


// ************************************************************************* //
