/*--------------------------------*- C++ -*----------------------------------*\
| =========                 |                                                 |
| \\      /  F ield         | OpenFOAM: The Open Source CFD Toolbox           |
|  \\    /   O peration     | Version:  dev                                   |
|   \\  /    A nd           | Web:      www.OpenFOAM.org                      |
|    \\/     M anipulation  |                                                 |
\*---------------------------------------------------------------------------*/
FoamFile
{
    version     2.0;
    format      ascii;
    class       volScalarField;
    location    "0.19";
    object      A2C2HB;
}
// * * * * * * * * * * * * * * * * * * * * * * * * * * * * * * * * * * * * * //

dimensions      [0 0 0 0 0 0 0];

internalField   nonuniform List<scalar> 
250
(
4.20968e-09
1.41216e-09
8.71919e-10
7.80259e-10
7.56331e-10
7.61921e-10
7.54056e-10
7.62743e-10
7.56112e-10
7.6204e-10
3.69787e-09
1.35666e-09
8.88315e-10
8.07214e-10
7.85688e-10
7.89574e-10
7.83289e-10
7.90053e-10
7.84835e-10
7.89557e-10
7.88092e-10
7.86418e-10
7.8782e-10
7.86422e-10
7.86992e-10
7.91385e-10
8.03084e-10
8.65102e-10
1.0735e-09
1.49569e-09
3.21293e-09
1.29383e-09
8.95598e-10
8.2494e-10
8.05913e-10
8.08234e-10
8.03438e-10
8.0842e-10
8.0454e-10
8.08128e-10
8.0707e-10
8.05564e-10
8.06739e-10
8.05658e-10
8.06236e-10
8.10219e-10
8.21643e-10
8.76295e-10
1.05601e-09
1.4177e-09
2.76839e-09
1.22719e-09
8.9554e-10
8.34952e-10
8.1841e-10
8.19511e-10
8.15953e-10
8.19487e-10
8.16724e-10
8.19376e-10
8.18652e-10
8.17287e-10
8.18258e-10
8.17427e-10
8.17987e-10
8.21514e-10
8.32407e-10
8.80276e-10
1.0358e-09
1.34877e-09
2.37354e-09
1.16058e-09
8.90652e-10
8.39451e-10
8.25317e-10
8.25504e-10
8.22993e-10
8.25357e-10
8.23439e-10
8.25391e-10
8.24914e-10
8.23662e-10
8.2446e-10
8.2381e-10
8.2433e-10
8.27478e-10
8.37536e-10
8.79137e-10
1.01388e-09
1.28687e-09
2.02284e-09
1.09773e-09
8.83071e-10
8.40445e-10
8.2853e-10
8.28205e-10
8.26391e-10
8.28008e-10
8.26689e-10
8.28154e-10
8.27843e-10
8.26683e-10
8.27338e-10
8.26811e-10
8.27276e-10
8.29971e-10
8.39039e-10
8.74952e-10
9.91528e-10
1.22969e-09
1.73586e-09
1.04133e-09
8.7463e-10
8.39663e-10
8.29767e-10
8.29161e-10
8.27848e-10
8.2896e-10
8.28051e-10
8.29191e-10
8.28987e-10
8.27904e-10
8.28439e-10
8.27997e-10
8.28401e-10
8.30673e-10
8.38651e-10
8.69376e-10
9.69859e-10
1.17877e-09
1.50148e-09
9.92862e-10
8.66494e-10
8.382e-10
8.30105e-10
8.29361e-10
8.28414e-10
8.29183e-10
8.28557e-10
8.29478e-10
8.29339e-10
8.28328e-10
8.28762e-10
8.28381e-10
8.28724e-10
8.30612e-10
8.37487e-10
8.63494e-10
9.49562e-10
1.13244e-09
1.31554e-09
9.52812e-10
8.59253e-10
8.3664e-10
8.30118e-10
8.29318e-10
8.28647e-10
8.29175e-10
8.28751e-10
8.2952e-10
8.29421e-10
8.28481e-10
8.28825e-10
8.28492e-10
8.28779e-10
8.30324e-10
8.36147e-10
8.57891e-10
9.30964e-10
1.09017e-09
1.17264e-09
9.20918e-10
8.53117e-10
8.35221e-10
8.30038e-10
8.2923e-10
8.2877e-10
8.29126e-10
8.28851e-10
8.29512e-10
8.29434e-10
8.28564e-10
8.2883e-10
8.28539e-10
8.28774e-10
8.30022e-10
8.34882e-10
8.52828e-10
9.14219e-10
1.05176e-09
1.06712e-09
8.96571e-10
8.48128e-10
8.34019e-10
8.29931e-10
8.29149e-10
8.28847e-10
8.29083e-10
8.28915e-10
8.295e-10
8.29432e-10
8.28628e-10
8.28827e-10
8.28571e-10
8.28762e-10
8.29762e-10
8.33779e-10
8.48442e-10
8.99553e-10
1.0176e-09
9.94252e-10
8.79216e-10
8.44333e-10
8.33074e-10
8.29818e-10
8.29082e-10
8.2889e-10
8.29049e-10
8.28953e-10
8.2949e-10
8.29423e-10
8.28676e-10
8.28821e-10
8.28595e-10
8.28749e-10
8.29556e-10
8.32891e-10
8.44906e-10
8.87528e-10
9.89143e-10
9.52369e-10
8.6895e-10
8.41957e-10
8.32467e-10
8.2973e-10
8.29037e-10
8.28908e-10
8.29027e-10
8.2897e-10
8.29483e-10
8.29413e-10
8.28705e-10
8.28815e-10
8.28608e-10
8.28739e-10
8.29423e-10
8.32309e-10
8.42582e-10
8.79492e-10
9.69902e-10
)
;

boundaryField
{
    fuel
    {
        type            fixedValue;
        value           nonuniform 0();
    }
    wall
    {
        type            zeroGradient;
    }
    outlet
    {
        type            zeroGradient;
    }
    frontAndBack
    {
        type            empty;
    }
    procBoundary1to0
    {
        type            processor;
        value           nonuniform List<scalar> 
21
(
4.73521e-09
1.45869e-09
8.45797e-10
7.43899e-10
7.17757e-10
7.24857e-10
7.15558e-10
7.25995e-10
7.18108e-10
7.25107e-10
7.60144e-10
7.60144e-10
7.5829e-10
7.59925e-10
7.5817e-10
7.58706e-10
7.63453e-10
7.75278e-10
8.45251e-10
1.08817e-09
1.58615e-09
)
;
    }
}


// ************************************************************************* //
