/*--------------------------------*- C++ -*----------------------------------*\
| =========                 |                                                 |
| \\      /  F ield         | OpenFOAM: The Open Source CFD Toolbox           |
|  \\    /   O peration     | Version:  dev                                   |
|   \\  /    A nd           | Web:      www.OpenFOAM.org                      |
|    \\/     M anipulation  |                                                 |
\*---------------------------------------------------------------------------*/
FoamFile
{
    version     2.0;
    format      ascii;
    class       volScalarField;
    location    "0.19";
    object      C5H3;
}
// * * * * * * * * * * * * * * * * * * * * * * * * * * * * * * * * * * * * * //

dimensions      [0 0 0 0 0 0 0];

internalField   nonuniform List<scalar> 
50
(
5.75419e-18
3.2873e-18
1.9199e-18
1.1567e-18
7.26273e-19
4.79735e-19
3.35304e-19
2.4799e-19
1.92976e-19
1.56525e-19
1.30994e-19
1.12093e-19
9.73894e-20
8.54782e-20
7.55289e-20
6.70344e-20
5.96717e-20
5.3225e-20
4.75423e-20
4.25104e-20
3.80414e-20
3.40645e-20
3.05205e-20
2.73592e-20
2.45372e-20
2.20169e-20
1.97651e-20
1.77524e-20
1.59529e-20
1.43435e-20
1.29038e-20
1.16155e-20
1.04623e-20
9.42979e-21
8.50492e-21
7.67619e-21
6.93331e-21
6.26711e-21
5.66937e-21
5.1328e-21
4.65086e-21
4.21769e-21
3.82806e-21
3.48103e-21
3.1662e-21
2.88224e-21
2.62651e-21
2.39602e-21
2.18804e-21
2.00001e-21
)
;

boundaryField
{
    wall
    {
        type            zeroGradient;
    }
    fuel
    {
        type            fixedValue;
        value           nonuniform 0();
    }
    outlet
    {
        type            inletOutlet;
        inletValue      nonuniform 0();
        value           nonuniform 0();
    }
    procBoundary1to0
    {
        type            processor;
        value           uniform 1.10033e-17;
    }
    procBoundary1to2
    {
        type            processor;
        value           uniform 1.82877e-21;
    }
}


// ************************************************************************* //
