/*--------------------------------*- C++ -*----------------------------------*\
| =========                 |                                                 |
| \\      /  F ield         | OpenFOAM: The Open Source CFD Toolbox           |
|  \\    /   O peration     | Version:  dev                                   |
|   \\  /    A nd           | Web:      www.OpenFOAM.org                      |
|    \\/     M anipulation  |                                                 |
\*---------------------------------------------------------------------------*/
FoamFile
{
    version     2.0;
    format      ascii;
    class       volScalarField;
    location    "0.19";
    object      CH2CO;
}
// * * * * * * * * * * * * * * * * * * * * * * * * * * * * * * * * * * * * * //

dimensions      [0 0 0 0 0 0 0];

internalField   nonuniform List<scalar> 
250
(
1.16718e-05
1.14169e-05
1.1066e-05
1.08739e-05
1.06866e-05
1.06486e-05
1.06377e-05
1.06058e-05
1.06176e-05
1.06049e-05
1.09034e-05
1.06275e-05
1.02968e-05
1.0123e-05
9.95062e-06
9.91503e-06
9.90422e-06
9.87291e-06
9.88472e-06
9.87176e-06
9.83468e-06
9.94421e-06
9.81836e-06
9.98897e-06
9.85145e-06
1.00854e-05
1.00826e-05
1.03943e-05
1.08898e-05
1.12978e-05
1.01425e-05
9.85131e-06
9.54003e-06
9.38405e-06
9.22733e-06
9.19382e-06
9.18314e-06
9.15308e-06
9.16469e-06
9.15176e-06
9.11634e-06
9.22253e-06
9.10124e-06
9.26389e-06
9.13247e-06
9.35097e-06
9.3438e-06
9.62685e-06
1.00815e-05
1.04885e-05
9.39821e-06
9.0997e-06
8.80918e-06
8.67121e-06
8.53207e-06
8.49931e-06
8.48993e-06
8.46215e-06
8.47312e-06
8.46059e-06
8.42809e-06
8.52819e-06
8.41452e-06
8.56513e-06
8.44284e-06
8.6419e-06
8.63181e-06
8.88624e-06
9.29736e-06
9.71273e-06
8.69074e-06
8.39444e-06
8.13012e-06
8.00209e-06
7.87994e-06
7.85709e-06
7.85225e-06
7.82793e-06
7.83768e-06
7.82598e-06
7.79787e-06
7.87622e-06
7.78628e-06
7.90855e-06
7.8107e-06
7.97596e-06
7.96306e-06
8.19662e-06
8.55907e-06
8.98282e-06
8.05298e-06
7.77423e-06
7.53914e-06
7.42989e-06
7.32958e-06
7.30858e-06
7.30556e-06
7.28555e-06
7.29362e-06
7.28309e-06
7.26069e-06
7.32446e-06
7.25177e-06
7.35036e-06
7.27176e-06
7.40547e-06
7.39506e-06
7.59401e-06
7.901e-06
8.30416e-06
7.52359e-06
7.27221e-06
7.07087e-06
6.97988e-06
6.90136e-06
6.88365e-06
6.88084e-06
6.86534e-06
6.87157e-06
6.86229e-06
6.84615e-06
6.89386e-06
6.84033e-06
6.91321e-06
6.85594e-06
6.95622e-06
6.95069e-06
7.11315e-06
7.36081e-06
7.74327e-06
7.12798e-06
6.90898e-06
6.74214e-06
6.66762e-06
6.60836e-06
6.59394e-06
6.59088e-06
6.57937e-06
6.58396e-06
6.57568e-06
6.56535e-06
6.59818e-06
6.56256e-06
6.61178e-06
6.57445e-06
6.64436e-06
6.64432e-06
6.77245e-06
6.96293e-06
7.30873e-06
6.86572e-06
6.67932e-06
6.54273e-06
6.48241e-06
6.4381e-06
6.42634e-06
6.42303e-06
6.41445e-06
6.41788e-06
6.41014e-06
6.40436e-06
6.42569e-06
6.40412e-06
6.43502e-06
6.41331e-06
6.45972e-06
6.46415e-06
6.56365e-06
6.70533e-06
7.00418e-06
6.70979e-06
6.55202e-06
6.43975e-06
6.39086e-06
6.35699e-06
6.34712e-06
6.34369e-06
6.33694e-06
6.3397e-06
6.33207e-06
6.32932e-06
6.34326e-06
6.33092e-06
6.34982e-06
6.33845e-06
6.36913e-06
6.37636e-06
6.45402e-06
6.55866e-06
6.80689e-06
6.62009e-06
6.48502e-06
6.39218e-06
6.35171e-06
6.32481e-06
6.31621e-06
6.31281e-06
6.30706e-06
6.30952e-06
6.30175e-06
6.30076e-06
6.31065e-06
6.30357e-06
6.31556e-06
6.3102e-06
6.33127e-06
6.33994e-06
6.40144e-06
6.48037e-06
6.68001e-06
6.55743e-06
6.4396e-06
6.36144e-06
6.32725e-06
6.30527e-06
6.29756e-06
6.29428e-06
6.28916e-06
6.29144e-06
6.28358e-06
6.28362e-06
6.2912e-06
6.28722e-06
6.29505e-06
6.29333e-06
6.30811e-06
6.31775e-06
6.36674e-06
6.42892e-06
6.58686e-06
6.52439e-06
6.41785e-06
6.34917e-06
6.319e-06
6.30003e-06
6.29288e-06
6.28973e-06
6.28496e-06
6.28715e-06
6.27923e-06
6.27981e-06
6.28617e-06
6.28386e-06
6.28943e-06
6.28969e-06
6.30083e-06
6.31105e-06
6.35193e-06
6.40426e-06
6.53385e-06
)
;

boundaryField
{
    fuel
    {
        type            fixedValue;
        value           nonuniform 0();
    }
    wall
    {
        type            zeroGradient;
    }
    outlet
    {
        type            zeroGradient;
    }
    frontAndBack
    {
        type            empty;
    }
    procBoundary1to0
    {
        type            processor;
        value           nonuniform List<scalar> 
21
(
1.24436e-05
1.22121e-05
1.18425e-05
1.16302e-05
1.14287e-05
1.13884e-05
1.13771e-05
1.13452e-05
1.13569e-05
1.13447e-05
1.05672e-05
1.05672e-05
1.06783e-05
1.05502e-05
1.07252e-05
1.05849e-05
1.08296e-05
1.08362e-05
1.11737e-05
1.17189e-05
1.2135e-05
)
;
    }
}


// ************************************************************************* //
