/*--------------------------------*- C++ -*----------------------------------*\
| =========                 |                                                 |
| \\      /  F ield         | OpenFOAM: The Open Source CFD Toolbox           |
|  \\    /   O peration     | Version:  dev                                   |
|   \\  /    A nd           | Web:      www.OpenFOAM.org                      |
|    \\/     M anipulation  |                                                 |
\*---------------------------------------------------------------------------*/
FoamFile
{
    version     2.0;
    format      ascii;
    class       volScalarField;
    location    "0.19";
    object      H2;
}
// * * * * * * * * * * * * * * * * * * * * * * * * * * * * * * * * * * * * * //

dimensions      [0 0 0 0 0 0 0];

internalField   nonuniform List<scalar> 
250
(
0.00921032
0.00928194
0.00933648
0.00935986
0.00937024
0.00937296
0.00937359
0.00937407
0.00937405
0.00937416
0.00923495
0.00929866
0.00934645
0.00936702
0.00937612
0.00937859
0.0093792
0.00937965
0.00937966
0.00937979
0.00938
0.00937922
0.00938026
0.00937865
0.00937951
0.00937495
0.00936825
0.00934227
0.00928458
0.00916112
0.00925618
0.00931252
0.0093541
0.00937206
0.00937996
0.00938219
0.00938278
0.00938318
0.00938322
0.00938336
0.00938349
0.00938297
0.00938364
0.00938249
0.00938294
0.00937928
0.00937328
0.00935094
0.0093022
0.00919677
0.00927414
0.0093236
0.00935953
0.00937509
0.00938188
0.00938387
0.00938443
0.00938478
0.00938485
0.009385
0.00938506
0.00938476
0.0093851
0.00938436
0.00938445
0.0093816
0.00937625
0.00935725
0.00931659
0.00922766
0.00928908
0.00933216
0.00936298
0.00937635
0.00938212
0.00938389
0.00938441
0.00938473
0.00938482
0.00938497
0.00938497
0.00938485
0.00938492
0.00938451
0.00938432
0.00938215
0.00937742
0.00936142
0.00932792
0.00925383
0.00930137
0.00933854
0.00936484
0.00937619
0.00938107
0.00938263
0.00938313
0.00938341
0.00938351
0.00938366
0.00938362
0.00938363
0.00938352
0.00938333
0.00938296
0.0093813
0.00937716
0.00936383
0.00933652
0.00927623
0.00931148
0.00934332
0.00936553
0.00937512
0.00937923
0.0093806
0.00938106
0.00938132
0.00938143
0.00938158
0.00938152
0.00938159
0.00938137
0.00938132
0.00938084
0.00937957
0.00937597
0.00936496
0.00934292
0.00929421
0.00931994
0.00934706
0.00936558
0.00937366
0.00937712
0.00937831
0.00937873
0.00937897
0.00937908
0.00937923
0.00937918
0.00937925
0.009379
0.00937899
0.0093785
0.00937747
0.0093744
0.00936535
0.0093477
0.00930894
0.0093273
0.00935021
0.00936556
0.00937229
0.0093752
0.00937624
0.00937661
0.00937685
0.00937695
0.0093771
0.00937706
0.0093771
0.00937688
0.00937685
0.0093764
0.00937552
0.00937293
0.00936554
0.00935148
0.00932105
0.00933396
0.00935317
0.00936584
0.00937138
0.00937382
0.00937471
0.00937505
0.00937527
0.00937537
0.00937552
0.0093755
0.00937549
0.00937532
0.00937524
0.00937486
0.00937408
0.00937191
0.00936591
0.00935474
0.00933111
0.00934004
0.00935611
0.00936647
0.00937104
0.00937308
0.00937385
0.00937415
0.00937436
0.00937445
0.0093746
0.0093746
0.00937455
0.00937442
0.0093743
0.00937398
0.00937328
0.00937148
0.00936661
0.00935772
0.00933948
0.00934527
0.00935881
0.00936737
0.00937116
0.00937286
0.00937353
0.0093738
0.009374
0.00937409
0.00937423
0.00937424
0.00937417
0.00937407
0.00937393
0.00937366
0.00937303
0.00937151
0.00936753
0.00936036
0.00934609
0.00934884
0.00936073
0.00936811
0.0093714
0.00937289
0.00937349
0.00937374
0.00937393
0.00937402
0.00937414
0.00937416
0.00937409
0.00937399
0.00937386
0.0093736
0.00937304
0.00937168
0.00936827
0.00936218
0.00935036
)
;

boundaryField
{
    fuel
    {
        type            fixedValue;
        value           nonuniform 0();
    }
    wall
    {
        type            zeroGradient;
    }
    outlet
    {
        type            zeroGradient;
    }
    frontAndBack
    {
        type            empty;
    }
    procBoundary1to0
    {
        type            processor;
        value           nonuniform List<scalar> 
21
(
0.00918229
0.00926235
0.00932425
0.00935064
0.00936235
0.0093653
0.00936595
0.00936646
0.00936641
0.00936648
0.00937446
0.00937446
0.00937341
0.00937484
0.00937275
0.00937404
0.00936851
0.00936105
0.00933118
0.00926376
0.00912082
)
;
    }
}


// ************************************************************************* //
