/*--------------------------------*- C++ -*----------------------------------*\
| =========                 |                                                 |
| \\      /  F ield         | OpenFOAM: The Open Source CFD Toolbox           |
|  \\    /   O peration     | Version:  dev                                   |
|   \\  /    A nd           | Web:      www.OpenFOAM.org                      |
|    \\/     M anipulation  |                                                 |
\*---------------------------------------------------------------------------*/
FoamFile
{
    version     2.0;
    format      ascii;
    class       volScalarField;
    location    "0.19";
    object      HCO;
}
// * * * * * * * * * * * * * * * * * * * * * * * * * * * * * * * * * * * * * //

dimensions      [0 0 0 0 0 0 0];

internalField   nonuniform List<scalar> 
50
(
2.84162e-07
2.8216e-07
2.80122e-07
2.78051e-07
2.7595e-07
2.73819e-07
2.71662e-07
2.6948e-07
2.67274e-07
2.65048e-07
2.62801e-07
2.60537e-07
2.58256e-07
2.5596e-07
2.53651e-07
2.5133e-07
2.48999e-07
2.46659e-07
2.44312e-07
2.41958e-07
2.396e-07
2.37238e-07
2.34874e-07
2.32509e-07
2.30145e-07
2.27783e-07
2.25423e-07
2.23067e-07
2.20717e-07
2.18374e-07
2.16037e-07
2.1371e-07
2.11393e-07
2.09087e-07
2.06794e-07
2.04514e-07
2.02248e-07
1.99998e-07
1.97765e-07
1.9555e-07
1.93353e-07
1.91175e-07
1.89016e-07
1.86902e-07
1.84792e-07
1.82702e-07
1.80637e-07
1.78599e-07
1.76588e-07
1.74608e-07
)
;

boundaryField
{
    wall
    {
        type            zeroGradient;
    }
    fuel
    {
        type            fixedValue;
        value           nonuniform 0();
    }
    outlet
    {
        type            inletOutlet;
        inletValue      nonuniform 0();
        value           nonuniform 0();
    }
    procBoundary1to0
    {
        type            processor;
        value           uniform 2.86134e-07;
    }
    procBoundary1to2
    {
        type            processor;
        value           uniform 1.72649e-07;
    }
}


// ************************************************************************* //
