/*--------------------------------*- C++ -*----------------------------------*\
| =========                 |                                                 |
| \\      /  F ield         | OpenFOAM: The Open Source CFD Toolbox           |
|  \\    /   O peration     | Version:  dev                                   |
|   \\  /    A nd           | Web:      www.OpenFOAM.org                      |
|    \\/     M anipulation  |                                                 |
\*---------------------------------------------------------------------------*/
FoamFile
{
    version     2.0;
    format      ascii;
    class       volScalarField;
    location    "0.19";
    object      n-C4H3;
}
// * * * * * * * * * * * * * * * * * * * * * * * * * * * * * * * * * * * * * //

dimensions      [0 0 0 0 0 0 0];

internalField   nonuniform List<scalar> 
50
(
7.26068e-18
5.76762e-18
4.67345e-18
3.8505e-18
3.21631e-18
2.71668e-18
2.31536e-18
1.98757e-18
1.71607e-18
1.48853e-18
1.29599e-18
1.13178e-18
9.90801e-19
8.69134e-19
7.63671e-19
6.71925e-19
5.91877e-19
5.21867e-19
4.60514e-19
4.06659e-19
3.59322e-19
3.1767e-19
2.80987e-19
2.48657e-19
2.20145e-19
1.94988e-19
1.72783e-19
1.53175e-19
1.35855e-19
1.20552e-19
1.07027e-19
9.50695e-20
8.44953e-20
7.51415e-20
6.68643e-20
5.95375e-20
5.30495e-20
4.7302e-20
4.22081e-20
3.76915e-20
3.36844e-20
3.01272e-20
2.69668e-20
2.41865e-20
2.16949e-20
1.94751e-20
1.75003e-20
1.5742e-20
1.41743e-20
1.27741e-20
)
;

boundaryField
{
    wall
    {
        type            zeroGradient;
    }
    fuel
    {
        type            fixedValue;
        value           nonuniform 0();
    }
    outlet
    {
        type            inletOutlet;
        inletValue      nonuniform 0();
        value           nonuniform 0();
    }
    procBoundary1to0
    {
        type            processor;
        value           uniform 9.43399e-18;
    }
    procBoundary1to2
    {
        type            processor;
        value           uniform 1.15182e-20;
    }
}


// ************************************************************************* //
