/*--------------------------------*- C++ -*----------------------------------*\
| =========                 |                                                 |
| \\      /  F ield         | OpenFOAM: The Open Source CFD Toolbox           |
|  \\    /   O peration     | Version:  dev                                   |
|   \\  /    A nd           | Web:      www.OpenFOAM.org                      |
|    \\/     M anipulation  |                                                 |
\*---------------------------------------------------------------------------*/
FoamFile
{
    version     2.0;
    format      ascii;
    class       volScalarField;
    location    "0.19";
    object      P2-;
}
// * * * * * * * * * * * * * * * * * * * * * * * * * * * * * * * * * * * * * //

dimensions      [0 0 0 0 0 0 0];

internalField   nonuniform List<scalar> 
50
(
2.51895e-19
2.12241e-19
1.79098e-19
1.5139e-19
1.28212e-19
1.08807e-19
9.25443e-20
7.88951e-20
6.74206e-20
5.7756e-20
4.95986e-20
4.26976e-20
3.68452e-20
3.18694e-20
2.76278e-20
2.40025e-20
2.08958e-20
1.82265e-20
1.59274e-20
1.39421e-20
1.2224e-20
1.07338e-20
9.43869e-21
8.31092e-21
7.32716e-21
6.46762e-21
5.71546e-21
5.05637e-21
4.47808e-21
3.97007e-21
3.52331e-21
3.13001e-21
2.78342e-21
2.47772e-21
2.20785e-21
1.9694e-21
1.75854e-21
1.57193e-21
1.40664e-21
1.26013e-21
1.13014e-21
1.01471e-21
9.12106e-22
8.21773e-22
7.40747e-22
6.6848e-22
6.04105e-22
5.46702e-22
4.95447e-22
4.49589e-22
)
;

boundaryField
{
    wall
    {
        type            zeroGradient;
    }
    fuel
    {
        type            fixedValue;
        value           nonuniform 0();
    }
    outlet
    {
        type            inletOutlet;
        inletValue      nonuniform 0();
        value           nonuniform 0();
    }
    procBoundary1to0
    {
        type            processor;
        value           uniform 3.01813e-19;
    }
    procBoundary1to2
    {
        type            processor;
        value           uniform 4.08019e-22;
    }
}


// ************************************************************************* //
