/*--------------------------------*- C++ -*----------------------------------*\
| =========                 |                                                 |
| \\      /  F ield         | OpenFOAM: The Open Source CFD Toolbox           |
|  \\    /   O peration     | Version:  dev                                   |
|   \\  /    A nd           | Web:      www.OpenFOAM.org                      |
|    \\/     M anipulation  |                                                 |
\*---------------------------------------------------------------------------*/
FoamFile
{
    version     2.0;
    format      ascii;
    class       volScalarField;
    location    "0.19";
    object      T;
}
// * * * * * * * * * * * * * * * * * * * * * * * * * * * * * * * * * * * * * //

dimensions      [0 0 0 1 0 0 0];

internalField   nonuniform List<scalar> 
250
(
1753.41
1762.63
1763.67
1762.67
1757.79
1756.9
1756.58
1755.18
1755.77
1755.14
1718.36
1723.16
1722.02
1720.4
1715.13
1714.15
1713.8
1712.3
1712.94
1712.27
1710.38
1716.02
1709.64
1718.04
1711.2
1721.32
1719.09
1725.02
1733.49
1721.3
1676.75
1677.76
1674.74
1672.61
1667.02
1665.91
1665.56
1663.97
1664.67
1663.94
1661.9
1668.05
1661.07
1670.14
1662.69
1673.5
1671.07
1677.88
1688.33
1679.21
1627.98
1625.8
1621.2
1618.68
1612.85
1611.51
1611.26
1609.58
1610.33
1609.57
1607.38
1614.04
1606.45
1616.17
1608.11
1619.56
1616.9
1624.48
1636.63
1630.52
1571.28
1566.43
1560.66
1557.29
1551.08
1550.18
1550.17
1548.45
1549.22
1548.43
1546.12
1552.47
1545.08
1554.68
1546.76
1558.22
1555.14
1564.06
1577.57
1574.37
1505.83
1498.99
1492.3
1488.69
1482.43
1481.35
1481.46
1479.73
1480.52
1479.72
1477.3
1483.99
1476.16
1486.19
1477.83
1489.66
1486.32
1495.78
1510.24
1508.4
1430.65
1422.34
1415.08
1411.34
1405.14
1403.99
1404.15
1402.43
1403.22
1402.41
1399.93
1406.85
1398.71
1409
1400.35
1412.36
1408.78
1418.59
1433.53
1433.85
1344.47
1335.16
1327.75
1323.95
1317.96
1316.81
1316.97
1315.3
1316.07
1315.28
1312.78
1319.8
1311.5
1321.86
1313.08
1325.02
1321.27
1331.18
1346.1
1348.13
1245.56
1235.8
1228.59
1224.86
1219.26
1218.13
1218.28
1216.72
1217.44
1216.7
1214.25
1221.16
1212.94
1223.08
1214.42
1225.98
1222.16
1231.83
1246.19
1249.48
1131.48
1121.91
1115.28
1111.78
1106.76
1105.7
1105.84
1104.44
1105.07
1104.42
1102.11
1108.64
1100.83
1110.37
1102.16
1112.91
1109.19
1118.22
1131.41
1135.41
998.614
989.963
984.368
981.264
977.082
976.134
976.257
975.088
975.602
975.066
973.039
978.797
971.853
980.266
972.986
982.339
978.984
986.798
998.141
1002.2
840.904
834.137
830.069
827.643
824.611
823.863
823.962
823.116
823.467
823.096
821.533
825.974
820.579
827.071
821.425
828.539
825.934
831.77
840.375
843.671
645.301
641.871
640.028
638.769
637.378
636.987
637.044
636.655
636.796
636.645
635.867
638.07
635.373
638.6
635.79
639.245
638.013
640.699
645.083
646.606
)
;

boundaryField
{
    fuel
    {
        type            fixedValue;
        value           nonuniform 0();
    }
    wall
    {
        type            fixedValue;
        value           uniform 511;
    }
    outlet
    {
        type            inletOutlet;
        inletValue      uniform 353;
        value           nonuniform List<scalar> 
25
(
1753.56
1718.49
1676.87
1628.08
1571.37
1505.89
1430.69
1344.51
1245.59
1131.51
998.638
840.92
645.308
1721.23
1679.19
1630.55
1574.44
1508.5
1433.96
1348.25
1249.6
1135.52
1002.3
843.751
646.645
)
;
    }
    frontAndBack
    {
        type            empty;
    }
    procBoundary1to0
    {
        type            processor;
        value           nonuniform List<scalar> 
21
(
1782.46
1796.74
1800.27
1799.98
1795.53
1794.75
1794.45
1793.16
1793.7
1793.12
1753.42
1753.42
1758.56
1752.77
1760.49
1754.25
1763.66
1761.58
1766.55
1772.79
1757.57
)
;
    }
}


// ************************************************************************* //
