/*--------------------------------*- C++ -*----------------------------------*\
| =========                 |                                                 |
| \\      /  F ield         | OpenFOAM: The Open Source CFD Toolbox           |
|  \\    /   O peration     | Version:  dev                                   |
|   \\  /    A nd           | Web:      www.OpenFOAM.org                      |
|    \\/     M anipulation  |                                                 |
\*---------------------------------------------------------------------------*/
FoamFile
{
    version     2.0;
    format      ascii;
    class       volScalarField;
    location    "0.12";
    object      A2C2HB*;
}
// * * * * * * * * * * * * * * * * * * * * * * * * * * * * * * * * * * * * * //

dimensions      [0 0 0 0 0 0 0];

internalField   nonuniform List<scalar> 
50
(
5.46368e-14
6.67247e-14
4.95098e-14
3.29118e-14
2.1418e-14
1.39872e-14
9.20115e-15
6.16015e-15
4.19606e-15
2.90823e-15
2.06066e-15
1.49724e-15
1.12066e-15
8.60599e-16
6.78368e-16
5.47956e-16
4.51995e-16
3.7923e-16
3.22344e-16
2.7656e-16
2.38746e-16
2.07129e-16
1.80014e-16
1.56484e-16
1.35922e-16
1.17878e-16
1.02022e-16
8.79817e-17
7.56493e-17
6.48579e-17
5.55317e-17
4.73809e-17
4.02984e-17
3.4188e-17
2.8936e-17
2.44378e-17
2.05983e-17
1.73313e-17
1.45595e-17
1.22141e-17
1.02342e-17
8.56634e-18
7.16374e-18
5.98595e-18
4.99799e-18
4.16979e-18
3.47562e-18
2.89346e-18
2.40452e-18
1.99275e-18
)
;

boundaryField
{
    wall
    {
        type            zeroGradient;
    }
    fuel
    {
        type            fixedValue;
        value           uniform 0;
    }
    outlet
    {
        type            inletOutlet;
        inletValue      nonuniform 0();
        value           nonuniform 0();
    }
    procBoundary0to1
    {
        type            processor;
        value           uniform 1.65756e-18;
    }
}


// ************************************************************************* //
