/*--------------------------------*- C++ -*----------------------------------*\
| =========                 |                                                 |
| \\      /  F ield         | OpenFOAM: The Open Source CFD Toolbox           |
|  \\    /   O peration     | Version:  dev                                   |
|   \\  /    A nd           | Web:      www.OpenFOAM.org                      |
|    \\/     M anipulation  |                                                 |
\*---------------------------------------------------------------------------*/
FoamFile
{
    version     2.0;
    format      ascii;
    class       volScalarField;
    location    "0.12";
    object      C4H;
}
// * * * * * * * * * * * * * * * * * * * * * * * * * * * * * * * * * * * * * //

dimensions      [0 0 0 0 0 0 0];

internalField   nonuniform List<scalar> 
250
(
9.32906e-09
9.379e-09
9.33654e-09
9.41201e-09
9.41993e-09
9.5345e-09
9.97506e-09
9.77474e-09
8.42061e-09
3.34739e-09
8.36695e-09
8.42032e-09
8.37585e-09
8.45459e-09
8.46213e-09
8.56277e-09
8.99107e-09
8.81784e-09
7.99083e-09
3.72737e-09
5.18213e-09
6.2362e-09
8.73254e-09
7.38059e-09
7.9573e-09
7.36209e-09
7.61359e-09
7.41525e-09
7.4932e-09
7.41295e-09
7.44127e-09
7.49734e-09
7.45168e-09
7.53201e-09
7.53888e-09
7.6293e-09
8.03916e-09
7.92458e-09
7.49874e-09
4.00813e-09
4.5692e-09
5.53711e-09
7.76974e-09
6.49693e-09
7.04286e-09
6.48006e-09
6.71847e-09
6.52489e-09
6.60468e-09
6.52736e-09
6.5504e-09
6.60818e-09
6.562e-09
6.64248e-09
6.64857e-09
6.73097e-09
7.1168e-09
7.04522e-09
6.88572e-09
4.15809e-09
3.9964e-09
4.89928e-09
6.84914e-09
5.64714e-09
6.16278e-09
5.63215e-09
5.85682e-09
5.66998e-09
5.74981e-09
5.67601e-09
5.69462e-09
5.75309e-09
5.70688e-09
5.78632e-09
5.79158e-09
5.86695e-09
6.22406e-09
6.18283e-09
6.18047e-09
4.16224e-09
3.5328e-09
4.24562e-09
5.96306e-09
4.834e-09
5.31963e-09
4.82102e-09
5.03128e-09
4.85295e-09
4.93121e-09
4.86153e-09
4.87648e-09
4.93475e-09
4.88879e-09
4.96622e-09
4.97067e-09
5.03925e-09
5.36363e-09
5.34339e-09
5.51095e-09
4.02281e-09
3.13781e-09
3.64111e-09
5.11135e-09
4.06253e-09
4.5188e-09
4.05181e-09
4.24691e-09
4.07873e-09
4.15387e-09
4.08899e-09
4.10094e-09
4.15868e-09
4.11272e-09
4.18746e-09
4.19117e-09
4.25279e-09
4.5409e-09
4.53518e-09
4.81221e-09
3.75276e-09
2.75565e-09
3.0475e-09
4.2989e-09
3.33974e-09
3.71339e-09
3.33185e-09
3.51126e-09
3.3546e-09
3.42504e-09
3.36575e-09
3.37523e-09
3.43312e-09
3.386e-09
3.45772e-09
3.46077e-09
3.51546e-09
3.76351e-09
3.76976e-09
4.10249e-09
3.3764e-09
2.38776e-09
2.49744e-09
3.53489e-09
2.67631e-09
3.00994e-09
2.67044e-09
2.81938e-09
2.6895e-09
2.75376e-09
2.70083e-09
2.70823e-09
2.75166e-09
2.71762e-09
2.77276e-09
2.77422e-09
2.81515e-09
3.04233e-09
3.02116e-09
3.40215e-09
2.92586e-09
2.01727e-09
1.9552e-09
2.8326e-09
2.08155e-09
2.37026e-09
2.07744e-09
2.20672e-09
2.09306e-09
2.14977e-09
2.10387e-09
2.10956e-09
2.15033e-09
2.11746e-09
2.16691e-09
2.16782e-09
2.20091e-09
2.38915e-09
2.35449e-09
2.73472e-09
2.43715e-09
1.67798e-09
1.49858e-09
2.14819e-09
1.56399e-09
1.80462e-09
1.56143e-09
1.66949e-09
1.57388e-09
1.62205e-09
1.58363e-09
1.58788e-09
1.62357e-09
1.59428e-09
1.63663e-09
1.63707e-09
1.6629e-09
1.81426e-09
1.78474e-09
2.12212e-09
1.9465e-09
1.34548e-09
1.10406e-09
1.60008e-09
1.1298e-09
1.32166e-09
1.12832e-09
1.21478e-09
1.13792e-09
1.17707e-09
1.14623e-09
1.14929e-09
1.17872e-09
1.15425e-09
1.18874e-09
1.18881e-09
1.20816e-09
1.32552e-09
1.30023e-09
1.58214e-09
1.48266e-09
1.03404e-09
7.7765e-10
1.14212e-09
7.80599e-10
9.26101e-10
7.79834e-10
8.45626e-10
7.86949e-10
8.17168e-10
7.936e-10
7.95689e-10
8.18663e-10
7.99355e-10
8.26e-10
8.25829e-10
8.3963e-10
9.26729e-10
9.0566e-10
1.12741e-09
1.07643e-09
5.23926e-10
5.40871e-10
5.265e-10
5.45966e-10
5.45684e-10
5.54972e-10
6.16384e-10
5.99704e-10
7.6349e-10
7.40058e-10
)
;

boundaryField
{
    fuel
    {
        type            fixedValue;
        value           nonuniform 0();
    }
    wall
    {
        type            zeroGradient;
    }
    outlet
    {
        type            zeroGradient;
    }
    frontAndBack
    {
        type            empty;
    }
    procBoundary0to1
    {
        type            processor;
        value           nonuniform List<scalar> 
21
(
7.5564e-10
5.20752e-10
7.76117e-10
5.1289e-10
6.17327e-10
5.12547e-10
5.59993e-10
5.17576e-10
5.39652e-10
5.22585e-10
5.22585e-10
3.25931e-10
3.37674e-10
3.27636e-10
3.41017e-10
3.40747e-10
3.46552e-10
3.87412e-10
3.75041e-10
4.88113e-10
4.79082e-10
)
;
    }
    procBoundary0to2
    {
        type            processor;
        value           nonuniform List<scalar> 
12
(
9.28704e-09
5.98935e-09
6.91866e-09
9.74197e-09
8.29857e-09
8.90736e-09
8.27735e-09
8.54301e-09
8.34063e-09
8.41563e-09
8.3323e-09
8.3323e-09
)
;
    }
    procBoundary0to3
    {
        type            processor;
        value           nonuniform List<scalar> 10(1.03311e-08 1.03767e-08 1.03376e-08 1.04074e-08 1.04154e-08 1.05461e-08 1.09971e-08 1.06909e-08 8.77929e-09 2.90137e-09);
    }
}


// ************************************************************************* //
