/*--------------------------------*- C++ -*----------------------------------*\
| =========                 |                                                 |
| \\      /  F ield         | OpenFOAM: The Open Source CFD Toolbox           |
|  \\    /   O peration     | Version:  dev                                   |
|   \\  /    A nd           | Web:      www.OpenFOAM.org                      |
|    \\/     M anipulation  |                                                 |
\*---------------------------------------------------------------------------*/
FoamFile
{
    version     2.0;
    format      ascii;
    class       volScalarField;
    location    "0.12";
    object      H2O;
}
// * * * * * * * * * * * * * * * * * * * * * * * * * * * * * * * * * * * * * //

dimensions      [0 0 0 0 0 0 0];

internalField   nonuniform List<scalar> 
250
(
0.0595632
0.0595736
0.0595662
0.0595701
0.0595665
0.0596104
0.0596758
0.0600278
0.0603488
0.0611221
0.0593955
0.0594049
0.0593979
0.0594023
0.0593989
0.0594414
0.0595037
0.0598409
0.0601384
0.0608804
0.0602247
0.0601794
0.0595974
0.0594076
0.0592748
0.0592518
0.0592463
0.0592416
0.0592456
0.0592405
0.0592351
0.059244
0.0592373
0.0592422
0.0592389
0.0592798
0.0593392
0.0596597
0.0599337
0.0606432
0.0600511
0.0599593
0.0594262
0.0592479
0.0591213
0.059099
0.0590935
0.0590876
0.0590923
0.059086
0.0590818
0.0590903
0.0590838
0.0590892
0.0590862
0.0591252
0.0591821
0.0594843
0.0597344
0.0604095
0.0598759
0.0597335
0.0592615
0.0590945
0.0589742
0.0589527
0.0589472
0.0589405
0.0589454
0.0589384
0.0589351
0.0589433
0.0589371
0.0589429
0.0589401
0.0589771
0.0590317
0.0593148
0.0595403
0.060196
0.059702
0.0595403
0.0591031
0.0589472
0.0588332
0.0588127
0.0588072
0.0587998
0.0588048
0.0587973
0.0587949
0.0588027
0.0587968
0.0588029
0.0588003
0.0588353
0.0588875
0.0591514
0.0593638
0.0599828
0.0595306
0.0593505
0.058951
0.0588058
0.0586983
0.0586787
0.0586734
0.0586654
0.0586705
0.0586626
0.058661
0.0586685
0.0586628
0.0586691
0.0586668
0.0586995
0.0587484
0.0589943
0.0591936
0.05975
0.059363
0.0591732
0.0588053
0.0586706
0.0585697
0.0585512
0.0585459
0.0585377
0.0585427
0.0585347
0.0585337
0.0585408
0.0585354
0.0585417
0.0585396
0.0585699
0.0586136
0.058844
0.0590304
0.059556
0.0592
0.0590044
0.0586616
0.058542
0.0584445
0.0584258
0.0584207
0.0584116
0.0584167
0.0584083
0.0584083
0.0584149
0.0584098
0.0584166
0.0584149
0.0584446
0.0584869
0.058702
0.0588751
0.0593575
0.0590427
0.0588447
0.0585285
0.0584165
0.0583299
0.0583121
0.0583072
0.0582983
0.0583032
0.0582949
0.0582953
0.0583015
0.0582967
0.0583033
0.058302
0.0583292
0.0583689
0.0585549
0.0587212
0.0591744
0.0588925
0.0586951
0.0584047
0.0583035
0.0582243
0.0582075
0.0582029
0.0581942
0.0581989
0.0581909
0.0581916
0.0581973
0.0581929
0.0581992
0.0581982
0.0582229
0.0582602
0.0584285
0.0585837
0.0590004
0.0587506
0.058557
0.0582923
0.0582008
0.058129
0.0581133
0.058109
0.0581009
0.0581051
0.0580977
0.0580986
0.0581037
0.0580997
0.0581055
0.0581049
0.058127
0.058162
0.0583125
0.0584575
0.0588368
0.0586187
0.0584315
0.0581924
0.0581095
0.0580453
0.0580308
0.0580268
0.0580193
0.0580232
0.0580163
0.0580174
0.0580219
0.0580184
0.0580236
0.0580234
0.0580429
0.0580755
0.0582084
0.0583436
0.0586849
0.0579489
0.0579528
0.0579498
0.0579544
0.0579545
0.0579714
0.0580017
0.0581174
0.058243
0.058546
)
;

boundaryField
{
    fuel
    {
        type            fixedValue;
        value           nonuniform 0();
    }
    wall
    {
        type            zeroGradient;
    }
    outlet
    {
        type            zeroGradient;
    }
    frontAndBack
    {
        type            empty;
    }
    procBoundary0to1
    {
        type            processor;
        value           nonuniform List<scalar> 
21
(
0.0584979
0.0583196
0.0581058
0.0580308
0.0579743
0.0579609
0.0579573
0.0579506
0.057954
0.0579478
0.0579478
0.0578934
0.0578968
0.0578943
0.0578981
0.0578987
0.0579131
0.057941
0.0580405
0.0581562
0.0584218
)
;
    }
    procBoundary0to2
    {
        type            processor;
        value           nonuniform List<scalar> 
12
(
0.0595717
0.0603944
0.0603937
0.0597754
0.0595738
0.0594352
0.0594117
0.0594062
0.0594028
0.0594057
0.0594022
0.0594022
)
;
    }
    procBoundary0to3
    {
        type            processor;
        value           nonuniform List<scalar> 10(0.0597383 0.0597501 0.0597427 0.0597461 0.0597424 0.0597878 0.0598552 0.0602541 0.0605639 0.0613804);
    }
}


// ************************************************************************* //
