/*--------------------------------*- C++ -*----------------------------------*\
| =========                 |                                                 |
| \\      /  F ield         | OpenFOAM: The Open Source CFD Toolbox           |
|  \\    /   O peration     | Version:  dev                                   |
|   \\  /    A nd           | Web:      www.OpenFOAM.org                      |
|    \\/     M anipulation  |                                                 |
\*---------------------------------------------------------------------------*/
FoamFile
{
    version     2.0;
    format      ascii;
    class       volScalarField;
    location    "0.12";
    object      H2O2;
}
// * * * * * * * * * * * * * * * * * * * * * * * * * * * * * * * * * * * * * //

dimensions      [0 0 0 0 0 0 0];

internalField   nonuniform List<scalar> 
50
(
2.57429e-09
4.1327e-09
4.80556e-09
5.0621e-09
5.058e-09
4.8806e-09
4.59743e-09
4.27031e-09
3.94158e-09
3.6342e-09
3.36574e-09
3.14041e-09
2.95949e-09
2.81601e-09
2.7058e-09
2.62337e-09
2.56357e-09
2.52182e-09
2.49414e-09
2.47722e-09
2.4683e-09
2.46517e-09
2.46593e-09
2.46913e-09
2.47361e-09
2.47845e-09
2.48293e-09
2.48653e-09
2.48878e-09
2.4894e-09
2.48817e-09
2.48494e-09
2.47964e-09
2.47223e-09
2.46273e-09
2.45119e-09
2.43766e-09
2.42223e-09
2.40498e-09
2.38602e-09
2.36544e-09
2.34336e-09
2.31988e-09
2.2951e-09
2.26914e-09
2.24209e-09
2.21405e-09
2.18511e-09
2.15536e-09
2.12489e-09
)
;

boundaryField
{
    wall
    {
        type            zeroGradient;
    }
    fuel
    {
        type            fixedValue;
        value           uniform 0;
    }
    outlet
    {
        type            inletOutlet;
        inletValue      nonuniform 0();
        value           nonuniform 0();
    }
    procBoundary0to1
    {
        type            processor;
        value           uniform 2.09378e-09;
    }
}


// ************************************************************************* //
