/*--------------------------------*- C++ -*----------------------------------*\
| =========                 |                                                 |
| \\      /  F ield         | OpenFOAM: The Open Source CFD Toolbox           |
|  \\    /   O peration     | Version:  dev                                   |
|   \\  /    A nd           | Web:      www.OpenFOAM.org                      |
|    \\/     M anipulation  |                                                 |
\*---------------------------------------------------------------------------*/
FoamFile
{
    version     2.0;
    format      ascii;
    class       volScalarField;
    location    "0.12";
    object      i-C6H5;
}
// * * * * * * * * * * * * * * * * * * * * * * * * * * * * * * * * * * * * * //

dimensions      [0 0 0 0 0 0 0];

internalField   nonuniform List<scalar> 
250
(
2.50563e-11
2.51767e-11
2.5093e-11
2.51604e-11
2.51139e-11
2.55645e-11
2.60155e-11
2.99309e-11
3.68316e-11
3.57656e-11
2.29624e-11
2.30704e-11
2.29909e-11
2.30653e-11
2.30203e-11
2.3444e-11
2.38276e-11
2.73279e-11
3.27875e-11
3.35203e-11
1.49392e-11
2.97243e-11
2.39563e-11
2.25079e-11
2.13268e-11
2.11478e-11
2.10889e-11
2.10089e-11
2.10657e-11
2.09861e-11
2.09436e-11
2.10445e-11
2.09686e-11
2.10499e-11
2.10064e-11
2.14038e-11
2.17236e-11
2.48179e-11
2.89548e-11
3.11937e-11
1.52639e-11
2.62912e-11
2.16009e-11
2.0423e-11
1.93415e-11
1.91799e-11
1.91221e-11
1.90309e-11
1.90951e-11
1.90034e-11
1.89723e-11
1.9069e-11
1.89955e-11
1.90837e-11
1.9041e-11
1.94138e-11
1.96746e-11
2.23845e-11
2.53194e-11
2.86596e-11
1.51196e-11
2.28427e-11
1.93015e-11
1.83645e-11
1.73737e-11
1.72298e-11
1.71735e-11
1.70729e-11
1.71423e-11
1.70414e-11
1.70198e-11
1.71141e-11
1.70415e-11
1.71363e-11
1.70939e-11
1.74443e-11
1.76502e-11
2.00079e-11
2.1869e-11
2.60933e-11
1.45096e-11
1.99121e-11
1.70344e-11
1.63065e-11
1.53981e-11
1.52722e-11
1.52175e-11
1.51096e-11
1.5183e-11
1.50748e-11
1.50612e-11
1.51541e-11
1.50813e-11
1.51823e-11
1.51393e-11
1.54691e-11
1.56217e-11
1.76696e-11
1.8781e-11
2.32245e-11
1.34771e-11
1.70528e-11
1.47802e-11
1.42322e-11
1.34004e-11
1.32924e-11
1.32399e-11
1.31274e-11
1.3204e-11
1.30906e-11
1.30831e-11
1.31752e-11
1.31014e-11
1.32072e-11
1.31632e-11
1.34723e-11
1.3567e-11
1.53567e-11
1.58558e-11
1.97769e-11
1.21035e-11
1.43812e-11
1.25373e-11
1.21421e-11
1.13865e-11
1.12963e-11
1.12469e-11
1.11337e-11
1.12125e-11
1.10969e-11
1.10932e-11
1.11841e-11
1.11094e-11
1.12174e-11
1.11722e-11
1.14575e-11
1.14838e-11
1.30717e-11
1.31104e-11
1.6745e-11
1.04873e-11
1.18368e-11
1.02723e-11
1.00614e-11
9.34175e-12
9.25231e-12
9.20693e-12
9.0869e-12
9.16877e-12
9.04918e-12
9.05381e-12
9.13984e-12
9.06773e-12
9.18012e-12
9.13695e-12
9.42159e-12
9.43562e-12
1.08459e-11
1.05676e-11
1.35857e-11
8.73988e-12
9.44935e-12
8.14741e-12
7.98855e-12
7.41243e-12
7.3399e-12
7.29995e-12
7.18933e-12
7.26752e-12
7.15505e-12
7.16056e-12
7.24052e-12
7.17196e-12
7.27732e-12
7.23592e-12
7.48662e-12
7.47892e-12
8.53851e-12
8.1669e-12
1.0729e-11
6.98281e-12
7.27298e-12
6.2027e-12
6.12037e-12
5.64088e-12
5.58483e-12
5.55157e-12
5.45567e-12
5.52555e-12
5.42624e-12
5.43192e-12
5.50209e-12
5.44071e-12
5.53345e-12
5.49601e-12
5.70659e-12
5.69006e-12
6.56447e-12
6.15389e-12
8.16906e-12
5.34398e-12
5.38264e-12
4.53619e-12
4.4977e-12
4.12331e-12
4.08258e-12
4.05689e-12
3.98047e-12
4.03764e-12
3.95728e-12
3.96229e-12
4.01895e-12
3.96853e-12
4.0434e-12
4.01231e-12
4.17689e-12
4.15987e-12
4.84069e-12
4.48295e-12
5.99701e-12
3.95028e-12
3.86087e-12
3.236e-12
3.21472e-12
2.95033e-12
2.92282e-12
2.90513e-12
2.85152e-12
2.89226e-12
2.83551e-12
2.83915e-12
2.8792e-12
2.84306e-12
2.89607e-12
2.87351e-12
2.98858e-12
2.97684e-12
3.46201e-12
3.21056e-12
4.28056e-12
2.14047e-12
2.16138e-12
2.14233e-12
2.17073e-12
2.15867e-12
2.22326e-12
2.22032e-12
2.51354e-12
2.3899e-12
3.06888e-12
)
;

boundaryField
{
    fuel
    {
        type            fixedValue;
        value           nonuniform 0();
    }
    wall
    {
        type            zeroGradient;
    }
    outlet
    {
        type            zeroGradient;
    }
    frontAndBack
    {
        type            empty;
    }
    procBoundary0to1
    {
        type            processor;
        value           nonuniform List<scalar> 
21
(
2.91801e-12
2.78625e-12
2.37961e-12
2.35637e-12
2.20235e-12
2.18495e-12
2.17567e-12
2.14692e-12
2.16806e-12
2.13866e-12
2.13866e-12
1.95212e-12
1.95108e-12
1.9522e-12
1.95346e-12
1.95401e-12
1.96825e-12
1.97563e-12
2.08192e-12
2.08627e-12
2.41204e-12
)
;
    }
    procBoundary0to2
    {
        type            processor;
        value           nonuniform List<scalar> 
12
(
2.51405e-11
1.42131e-11
3.30989e-11
2.63929e-11
2.46469e-11
2.336e-11
2.31648e-11
2.3105e-11
2.30395e-11
2.30843e-11
2.30213e-11
2.30213e-11
)
;
    }
    procBoundary0to3
    {
        type            processor;
        value           nonuniform List<scalar> 10(2.72529e-11 2.73919e-11 2.73061e-11 2.73661e-11 2.73172e-11 2.77977e-11 2.83103e-11 3.30924e-11 4.11388e-11 3.83266e-11);
    }
}


// ************************************************************************* //
