/*--------------------------------*- C++ -*----------------------------------*\
| =========                 |                                                 |
| \\      /  F ield         | OpenFOAM: The Open Source CFD Toolbox           |
|  \\    /   O peration     | Version:  dev                                   |
|   \\  /    A nd           | Web:      www.OpenFOAM.org                      |
|    \\/     M anipulation  |                                                 |
\*---------------------------------------------------------------------------*/
FoamFile
{
    version     2.0;
    format      ascii;
    class       volScalarField;
    location    "0.12";
    object      n-C4H5;
}
// * * * * * * * * * * * * * * * * * * * * * * * * * * * * * * * * * * * * * //

dimensions      [0 0 0 0 0 0 0];

internalField   nonuniform List<scalar> 
250
(
2.34052e-11
2.34837e-11
2.34264e-11
2.35441e-11
2.35655e-11
2.38419e-11
2.51019e-11
2.66649e-11
3.23282e-11
2.57641e-11
2.15748e-11
2.16594e-11
2.15961e-11
2.17214e-11
2.17426e-11
2.19846e-11
2.31632e-11
2.44466e-11
2.97367e-11
2.36623e-11
6.90645e-11
2.74439e-11
2.50565e-11
2.01759e-11
2.09116e-11
1.97175e-11
2.01888e-11
1.98272e-11
1.99588e-11
1.98133e-11
1.98735e-11
1.99628e-11
1.9896e-11
2.00254e-11
2.00455e-11
2.02619e-11
2.13537e-11
2.24874e-11
2.73425e-11
2.2464e-11
6.03461e-11
2.4511e-11
2.28898e-11
1.85513e-11
1.92477e-11
1.81484e-11
1.85834e-11
1.82386e-11
1.83717e-11
1.82347e-11
1.82829e-11
1.83756e-11
1.83068e-11
1.84376e-11
1.84559e-11
1.86524e-11
1.96533e-11
2.06493e-11
2.48813e-11
2.1595e-11
5.11179e-11
2.19913e-11
2.08866e-11
1.70254e-11
1.76889e-11
1.66749e-11
1.70763e-11
1.67493e-11
1.68813e-11
1.67529e-11
1.67912e-11
1.68854e-11
1.68158e-11
1.69458e-11
1.69621e-11
1.71417e-11
1.80489e-11
1.89198e-11
2.24749e-11
2.07606e-11
4.31742e-11
1.95859e-11
1.90209e-11
1.55978e-11
1.62314e-11
1.5295e-11
1.56641e-11
1.53566e-11
1.54849e-11
1.53656e-11
1.53958e-11
1.54896e-11
1.54201e-11
1.55472e-11
1.55615e-11
1.57255e-11
1.65364e-11
1.72972e-11
2.04877e-11
1.98356e-11
3.64766e-11
1.7555e-11
1.72887e-11
1.42815e-11
1.48825e-11
1.4021e-11
1.43564e-11
1.40717e-11
1.41928e-11
1.40841e-11
1.41076e-11
1.41994e-11
1.41305e-11
1.42526e-11
1.42649e-11
1.44135e-11
1.51241e-11
1.57916e-11
1.86366e-11
1.87819e-11
3.05403e-11
1.57679e-11
1.5705e-11
1.31081e-11
1.3565e-11
1.28843e-11
1.3181e-11
1.29254e-11
1.30341e-11
1.29391e-11
1.29569e-11
1.30461e-11
1.29772e-11
1.30915e-11
1.31021e-11
1.32352e-11
1.38372e-11
1.44329e-11
1.69347e-11
1.76278e-11
2.56695e-11
1.43518e-11
1.43081e-11
1.214e-11
1.2504e-11
1.19437e-11
1.21665e-11
1.19751e-11
1.20641e-11
1.19876e-11
1.20004e-11
1.20585e-11
1.20169e-11
1.20954e-11
1.21027e-11
1.22061e-11
1.27288e-11
1.32002e-11
1.54201e-11
1.64517e-11
2.17425e-11
1.32672e-11
1.31681e-11
1.14735e-11
1.1697e-11
1.12957e-11
1.14458e-11
1.13161e-11
1.13745e-11
1.13241e-11
1.13321e-11
1.13719e-11
1.13437e-11
1.13972e-11
1.14034e-11
1.14849e-11
1.18858e-11
1.22873e-11
1.41707e-11
1.53768e-11
1.90306e-11
1.2805e-11
1.23056e-11
1.12631e-11
1.12779e-11
1.10943e-11
1.11417e-11
1.11011e-11
1.11132e-11
1.11e-11
1.11036e-11
1.11096e-11
1.11086e-11
1.11228e-11
1.11286e-11
1.11865e-11
1.14453e-11
1.18392e-11
1.33124e-11
1.45779e-11
1.7252e-11
1.31138e-11
1.20856e-11
1.17653e-11
1.14706e-11
1.15947e-11
1.14922e-11
1.15831e-11
1.15248e-11
1.15662e-11
1.15657e-11
1.15161e-11
1.15618e-11
1.15141e-11
1.15209e-11
1.1552e-11
1.16323e-11
1.20571e-11
1.30465e-11
1.42998e-11
1.66032e-11
1.45986e-11
1.27496e-11
1.34278e-11
1.26646e-11
1.32428e-11
1.29124e-11
1.32045e-11
1.30363e-11
1.31613e-11
1.31577e-11
1.30169e-11
1.31408e-11
1.29936e-11
1.30042e-11
1.30032e-11
1.28377e-11
1.33476e-11
1.37147e-11
1.49247e-11
1.66795e-11
1.63863e-11
1.66423e-11
1.63315e-11
1.63502e-11
1.63093e-11
1.57748e-11
1.64516e-11
1.59297e-11
1.70756e-11
)
;

boundaryField
{
    fuel
    {
        type            fixedValue;
        value           nonuniform 0();
    }
    wall
    {
        type            zeroGradient;
    }
    outlet
    {
        type            zeroGradient;
    }
    frontAndBack
    {
        type            empty;
    }
    procBoundary0to1
    {
        type            processor;
        value           nonuniform List<scalar> 
21
(
1.74812e-11
1.7993e-11
1.48915e-11
1.70718e-11
1.55669e-11
1.6859e-11
1.61553e-11
1.6777e-11
1.64256e-11
1.66879e-11
1.66879e-11
2.35976e-11
2.30534e-11
2.35294e-11
2.29553e-11
2.29826e-11
2.28959e-11
2.17755e-11
2.27409e-11
2.08414e-11
2.18659e-11
)
;
    }
    procBoundary0to2
    {
        type            processor;
        value           nonuniform List<scalar> 
12
(
2.33134e-11
7.77816e-11
3.04077e-11
2.74072e-11
2.19111e-11
2.26961e-11
2.13928e-11
2.19072e-11
2.1527e-11
2.16556e-11
2.15002e-11
2.15002e-11
)
;
    }
    procBoundary0to3
    {
        type            processor;
        value           nonuniform List<scalar> 10(2.53879e-11 2.54589e-11 2.5412e-11 2.55171e-11 2.5537e-11 2.58522e-11 2.72e-11 2.89165e-11 3.51166e-11 2.99913e-11);
    }
}


// ************************************************************************* //
