/*--------------------------------*- C++ -*----------------------------------*\
| =========                 |                                                 |
| \\      /  F ield         | OpenFOAM: The Open Source CFD Toolbox           |
|  \\    /   O peration     | Version:  dev                                   |
|   \\  /    A nd           | Web:      www.OpenFOAM.org                      |
|    \\/     M anipulation  |                                                 |
\*---------------------------------------------------------------------------*/
FoamFile
{
    version     2.0;
    format      ascii;
    class       volScalarField;
    location    "0.12";
    object      O2;
}
// * * * * * * * * * * * * * * * * * * * * * * * * * * * * * * * * * * * * * //

dimensions      [0 0 0 0 0 0 0];

internalField   nonuniform List<scalar> 
250
(
3.12076e-08
3.13885e-08
3.12205e-08
3.14818e-08
3.1469e-08
3.15668e-08
3.18129e-08
3.6842e-08
6.04729e-07
2.00388e-05
2.82267e-08
2.84236e-08
2.82454e-08
2.8525e-08
2.85168e-08
2.86149e-08
2.89787e-08
3.11521e-08
3.70122e-07
1.12019e-05
5.56145e-05
1.51701e-06
4.94801e-08
2.426e-08
2.66409e-08
2.49059e-08
2.57601e-08
2.50842e-08
2.53702e-08
2.50927e-08
2.51763e-08
2.53852e-08
2.52008e-08
2.54918e-08
2.54866e-08
2.55906e-08
2.60599e-08
2.67202e-08
2.27856e-07
6.13931e-06
5.26279e-05
1.39647e-06
4.55244e-08
2.13517e-08
2.3604e-08
2.18494e-08
2.26987e-08
2.20088e-08
2.23123e-08
2.20336e-08
2.21062e-08
2.2322e-08
2.21353e-08
2.24301e-08
2.24269e-08
2.25385e-08
2.30893e-08
2.29101e-08
1.36192e-07
3.31192e-06
4.70515e-05
1.2553e-06
4.1223e-08
1.84781e-08
2.05759e-08
1.88392e-08
1.96641e-08
1.89806e-08
1.92893e-08
1.90167e-08
1.90792e-08
1.92959e-08
1.91111e-08
1.94021e-08
1.94e-08
1.95173e-08
2.01187e-08
1.95379e-08
8.06627e-08
1.76629e-06
4.03799e-05
1.08902e-06
3.66789e-08
1.57068e-08
1.76284e-08
1.59462e-08
1.67273e-08
1.607e-08
1.63719e-08
1.6113e-08
1.61661e-08
1.63778e-08
1.61985e-08
1.6479e-08
1.64775e-08
1.65967e-08
1.72136e-08
1.65097e-08
5.11664e-08
9.35725e-07
3.34688e-05
9.25838e-07
3.20906e-08
1.31062e-08
1.48395e-08
1.32416e-08
1.39629e-08
1.33482e-08
1.36326e-08
1.33941e-08
1.34386e-08
1.3642e-08
1.34695e-08
1.37346e-08
1.37335e-08
1.38501e-08
1.44462e-08
1.37741e-08
3.34019e-08
4.94967e-07
2.65444e-05
7.64713e-07
2.76293e-08
1.0737e-08
1.20781e-08
1.07894e-08
1.14405e-08
1.08799e-08
1.1138e-08
1.09253e-08
1.09617e-08
1.11587e-08
1.09898e-08
1.12373e-08
1.12367e-08
1.1347e-08
1.1887e-08
1.13302e-08
2.25283e-08
2.62937e-07
2.04668e-05
6.21959e-07
2.34742e-08
8.65464e-09
9.76282e-09
8.63943e-09
9.16417e-09
8.71451e-09
8.94003e-09
8.75686e-09
8.78582e-09
8.92588e-09
8.80986e-09
8.99187e-09
8.98812e-09
9.06556e-09
9.59868e-09
9.06856e-09
1.56963e-08
1.41269e-07
1.53341e-05
4.90692e-07
1.97418e-08
6.88618e-09
7.76419e-09
6.82004e-09
7.25755e-09
6.88017e-09
7.06987e-09
6.91753e-09
6.93993e-09
7.06544e-09
6.95986e-09
7.11573e-09
7.11215e-09
7.17521e-09
7.62658e-09
7.17772e-09
1.12837e-08
7.75706e-08
1.15308e-05
3.88036e-07
1.62164e-08
5.43459e-09
6.0975e-09
5.33331e-09
5.68512e-09
5.37976e-09
5.53348e-09
5.41108e-09
5.42778e-09
5.53361e-09
5.44383e-09
5.57269e-09
5.56929e-09
5.61936e-09
5.98815e-09
5.67227e-09
8.38624e-09
4.43747e-08
8.53037e-06
3.03453e-07
1.34362e-08
4.28163e-09
4.75443e-09
4.15764e-09
4.43062e-09
4.19216e-09
4.31239e-09
4.21723e-09
4.22906e-09
4.31443e-09
4.24173e-09
4.34484e-09
4.34158e-09
4.38073e-09
4.67415e-09
4.48153e-09
6.50508e-09
2.73066e-08
6.24556e-06
2.34252e-07
1.10875e-08
3.38888e-09
3.70451e-09
3.25327e-09
3.45787e-09
3.2778e-09
3.36865e-09
3.29698e-09
3.30468e-09
3.37192e-09
3.31464e-09
3.3953e-09
3.39216e-09
3.42278e-09
3.65293e-09
3.57735e-09
5.36227e-09
1.92325e-08
2.60499e-09
2.65772e-09
2.61292e-09
2.67558e-09
2.6725e-09
2.69693e-09
2.87795e-09
2.9177e-09
4.79023e-09
1.6249e-08
)
;

boundaryField
{
    fuel
    {
        type            fixedValue;
        value           nonuniform 0();
    }
    wall
    {
        type            zeroGradient;
    }
    outlet
    {
        type            inletOutlet;
        inletValue      uniform 0;
        value           nonuniform List<scalar> 
25
(
5.56145e-05
5.26279e-05
4.70515e-05
4.03799e-05
3.34688e-05
2.65444e-05
2.04668e-05
1.53341e-05
1.15308e-05
8.53037e-06
6.24556e-06
2.00388e-05
1.12019e-05
6.13931e-06
3.31192e-06
1.76629e-06
9.35725e-07
4.94967e-07
2.62937e-07
1.41269e-07
7.75706e-08
4.43747e-08
2.73066e-08
1.92325e-08
1.6249e-08
)
;
    }
    frontAndBack
    {
        type            empty;
    }
    procBoundary0to1
    {
        type            processor;
        value           nonuniform List<scalar> 
21
(
4.53843e-06
1.79134e-07
9.13668e-09
2.70838e-09
2.90378e-09
2.56938e-09
2.71958e-09
2.58617e-09
2.65359e-09
2.60047e-09
2.60047e-09
2.07862e-09
2.12026e-09
2.08508e-09
2.13402e-09
2.13116e-09
2.15108e-09
2.29671e-09
2.44878e-09
4.63305e-09
1.61721e-08
)
;
    }
    procBoundary0to2
    {
        type            processor;
        value           nonuniform List<scalar> 
12
(
3.10962e-08
5.35961e-05
1.53506e-06
5.21158e-08
2.71365e-08
2.96335e-08
2.79414e-08
2.87917e-08
2.81417e-08
2.84033e-08
2.81301e-08
2.81301e-08
)
;
    }
    procBoundary0to3
    {
        type            processor;
        value           nonuniform List<scalar> 10(3.40867e-08 3.42478e-08 3.40965e-08 3.43308e-08 3.43126e-08 3.44145e-08 3.45537e-08 4.39745e-08 9.99741e-07 3.57905e-05);
    }
}


// ************************************************************************* //
