/*--------------------------------*- C++ -*----------------------------------*\
| =========                 |                                                 |
| \\      /  F ield         | OpenFOAM: The Open Source CFD Toolbox           |
|  \\    /   O peration     | Version:  dev                                   |
|   \\  /    A nd           | Web:      www.OpenFOAM.org                      |
|    \\/     M anipulation  |                                                 |
\*---------------------------------------------------------------------------*/
FoamFile
{
    version     2.0;
    format      ascii;
    class       volScalarField;
    location    "0.17";
    object      A2C2HB*;
}
// * * * * * * * * * * * * * * * * * * * * * * * * * * * * * * * * * * * * * //

dimensions      [0 0 0 0 0 0 0];

internalField   nonuniform List<scalar> 
12
(
1.00527e-18
7.29315e-19
5.23697e-19
3.72526e-19
2.62887e-19
1.84421e-19
1.28986e-19
9.03156e-20
6.36851e-20
4.55965e-20
3.35017e-20
2.55662e-20
)
;

boundaryField
{
    wall
    {
        type            zeroGradient;
    }
    fuel
    {
        type            fixedValue;
        value           nonuniform 0();
    }
    outlet
    {
        type            inletOutlet;
        inletValue      nonuniform 0();
        value           nonuniform 0();
    }
    procBoundary6to5
    {
        type            processor;
        value           uniform 1.37089e-18;
    }
    procBoundary6to7
    {
        type            processor;
        value           uniform 2.04878e-20;
    }
}


// ************************************************************************* //
