/*--------------------------------*- C++ -*----------------------------------*\
| =========                 |                                                 |
| \\      /  F ield         | OpenFOAM: The Open Source CFD Toolbox           |
|  \\    /   O peration     | Version:  dev                                   |
|   \\  /    A nd           | Web:      www.OpenFOAM.org                      |
|    \\/     M anipulation  |                                                 |
\*---------------------------------------------------------------------------*/
FoamFile
{
    version     2.0;
    format      ascii;
    class       volScalarField;
    location    "0.02";
    object      A2C2HA;
}
// * * * * * * * * * * * * * * * * * * * * * * * * * * * * * * * * * * * * * //

dimensions      [0 0 0 0 0 0 0];

internalField   nonuniform List<scalar> 
2000
(
6.56508e-09
6.55645e-09
6.55211e-09
6.54814e-09
6.54743e-09
6.54625e-09
6.54647e-09
6.54605e-09
6.54638e-09
6.54614e-09
6.54635e-09
6.54613e-09
6.5462e-09
6.54596e-09
6.54593e-09
6.5457e-09
6.54561e-09
6.54541e-09
6.54532e-09
6.54516e-09
6.54508e-09
6.54498e-09
6.54493e-09
6.54487e-09
6.54486e-09
6.54486e-09
6.54487e-09
6.54493e-09
6.54497e-09
6.54508e-09
6.54515e-09
6.54531e-09
6.5454e-09
6.5456e-09
6.54568e-09
6.54592e-09
6.54595e-09
6.54618e-09
6.54611e-09
6.54633e-09
6.54612e-09
6.54636e-09
6.54603e-09
6.54645e-09
6.54624e-09
6.54742e-09
6.54814e-09
6.55211e-09
6.55645e-09
6.56508e-09
1.32631e-08
1.32443e-08
1.32339e-08
1.32252e-08
1.32237e-08
1.32212e-08
1.32217e-08
1.32208e-08
1.32216e-08
1.3221e-08
1.32215e-08
1.3221e-08
1.32212e-08
1.32207e-08
1.32206e-08
1.32201e-08
1.32199e-08
1.32195e-08
1.32193e-08
1.3219e-08
1.32188e-08
1.32186e-08
1.32185e-08
1.32184e-08
1.32184e-08
1.32184e-08
1.32184e-08
1.32185e-08
1.32186e-08
1.32188e-08
1.3219e-08
1.32193e-08
1.32195e-08
1.32199e-08
1.32201e-08
1.32206e-08
1.32206e-08
1.32211e-08
1.3221e-08
1.32215e-08
1.3221e-08
1.32215e-08
1.32208e-08
1.32217e-08
1.32212e-08
1.32236e-08
1.32252e-08
1.32339e-08
1.32443e-08
1.32631e-08
2.09459e-08
2.09189e-08
2.0904e-08
2.08909e-08
2.0888e-08
2.08846e-08
2.08851e-08
2.0884e-08
2.08849e-08
2.08843e-08
2.08849e-08
2.08843e-08
2.08844e-08
2.08837e-08
2.08835e-08
2.08828e-08
2.08825e-08
2.08819e-08
2.08815e-08
2.08811e-08
2.08808e-08
2.08805e-08
2.08803e-08
2.08801e-08
2.08801e-08
2.08801e-08
2.08801e-08
2.08803e-08
2.08805e-08
2.08808e-08
2.0881e-08
2.08815e-08
2.08818e-08
2.08825e-08
2.08828e-08
2.08835e-08
2.08837e-08
2.08844e-08
2.08842e-08
2.08848e-08
2.08843e-08
2.08848e-08
2.0884e-08
2.0885e-08
2.08846e-08
2.0888e-08
2.08909e-08
2.0904e-08
2.09189e-08
2.09459e-08
2.63573e-08
2.63169e-08
2.62896e-08
2.62684e-08
2.6263e-08
2.62584e-08
2.62589e-08
2.62577e-08
2.62589e-08
2.62582e-08
2.62589e-08
2.62581e-08
2.62581e-08
2.62571e-08
2.62568e-08
2.62558e-08
2.62552e-08
2.62543e-08
2.62538e-08
2.62531e-08
2.62527e-08
2.62522e-08
2.6252e-08
2.62517e-08
2.62516e-08
2.62516e-08
2.62517e-08
2.6252e-08
2.62522e-08
2.62527e-08
2.62531e-08
2.62538e-08
2.62543e-08
2.62552e-08
2.62557e-08
2.62567e-08
2.62571e-08
2.6258e-08
2.6258e-08
2.62588e-08
2.62581e-08
2.62587e-08
2.62576e-08
2.62588e-08
2.62583e-08
2.6263e-08
2.62684e-08
2.62895e-08
2.63169e-08
2.63573e-08
2.73465e-08
2.72952e-08
2.72571e-08
2.72291e-08
2.72215e-08
2.7216e-08
2.72164e-08
2.72153e-08
2.72166e-08
2.72159e-08
2.72166e-08
2.72157e-08
2.72157e-08
2.72145e-08
2.7214e-08
2.72127e-08
2.7212e-08
2.72108e-08
2.72102e-08
2.72093e-08
2.72088e-08
2.72082e-08
2.72079e-08
2.72076e-08
2.72075e-08
2.72075e-08
2.72076e-08
2.72079e-08
2.72082e-08
2.72088e-08
2.72093e-08
2.72101e-08
2.72108e-08
2.72119e-08
2.72126e-08
2.72139e-08
2.72144e-08
2.72156e-08
2.72156e-08
2.72165e-08
2.72158e-08
2.72165e-08
2.72151e-08
2.72163e-08
2.72159e-08
2.72215e-08
2.7229e-08
2.7257e-08
2.72952e-08
2.73464e-08
2.55917e-08
2.55365e-08
2.54951e-08
2.54643e-08
2.54555e-08
2.54497e-08
2.545e-08
2.54489e-08
2.54502e-08
2.54497e-08
2.54503e-08
2.54494e-08
2.54492e-08
2.5448e-08
2.54473e-08
2.5446e-08
2.54451e-08
2.54439e-08
2.54431e-08
2.54421e-08
2.54416e-08
2.54409e-08
2.54405e-08
2.54402e-08
2.54401e-08
2.54401e-08
2.54402e-08
2.54405e-08
2.54409e-08
2.54415e-08
2.54421e-08
2.54431e-08
2.54438e-08
2.5445e-08
2.54459e-08
2.54472e-08
2.54479e-08
2.54491e-08
2.54492e-08
2.54501e-08
2.54495e-08
2.54501e-08
2.54488e-08
2.54498e-08
2.54496e-08
2.54554e-08
2.54643e-08
2.5495e-08
2.55365e-08
2.55916e-08
2.28615e-08
2.2808e-08
2.2769e-08
2.27386e-08
2.27293e-08
2.27237e-08
2.27236e-08
2.27228e-08
2.27239e-08
2.27236e-08
2.2724e-08
2.27232e-08
2.2723e-08
2.27218e-08
2.2721e-08
2.27197e-08
2.27187e-08
2.27175e-08
2.27166e-08
2.27157e-08
2.2715e-08
2.27144e-08
2.2714e-08
2.27136e-08
2.27135e-08
2.27135e-08
2.27136e-08
2.2714e-08
2.27144e-08
2.2715e-08
2.27156e-08
2.27166e-08
2.27174e-08
2.27186e-08
2.27196e-08
2.27209e-08
2.27216e-08
2.27228e-08
2.27231e-08
2.27239e-08
2.27234e-08
2.27237e-08
2.27227e-08
2.27234e-08
2.27236e-08
2.27292e-08
2.27386e-08
2.2769e-08
2.2808e-08
2.28614e-08
2.00711e-08
2.00225e-08
1.99889e-08
1.99606e-08
1.99512e-08
1.99461e-08
1.99455e-08
1.99451e-08
1.99458e-08
1.99458e-08
1.9946e-08
1.99454e-08
1.9945e-08
1.99439e-08
1.99431e-08
1.99418e-08
1.99408e-08
1.99396e-08
1.99387e-08
1.99378e-08
1.99371e-08
1.99364e-08
1.9936e-08
1.99357e-08
1.99356e-08
1.99356e-08
1.99357e-08
1.9936e-08
1.99364e-08
1.99371e-08
1.99377e-08
1.99387e-08
1.99396e-08
1.99407e-08
1.99417e-08
1.9943e-08
1.99438e-08
1.99449e-08
1.99453e-08
1.99459e-08
1.99456e-08
1.99457e-08
1.99449e-08
1.99454e-08
1.9946e-08
1.99511e-08
1.99606e-08
1.99889e-08
2.00225e-08
2.00711e-08
1.75687e-08
1.75264e-08
1.74992e-08
1.74739e-08
1.74645e-08
1.74601e-08
1.7459e-08
1.74589e-08
1.74593e-08
1.74595e-08
1.74596e-08
1.74592e-08
1.74586e-08
1.74577e-08
1.74567e-08
1.74556e-08
1.74545e-08
1.74534e-08
1.74524e-08
1.74515e-08
1.74508e-08
1.74502e-08
1.74498e-08
1.74495e-08
1.74493e-08
1.74493e-08
1.74495e-08
1.74498e-08
1.74502e-08
1.74508e-08
1.74515e-08
1.74524e-08
1.74533e-08
1.74544e-08
1.74555e-08
1.74566e-08
1.74576e-08
1.74585e-08
1.7459e-08
1.74594e-08
1.74593e-08
1.74592e-08
1.74588e-08
1.74589e-08
1.746e-08
1.74644e-08
1.74738e-08
1.74992e-08
1.75264e-08
1.75686e-08
1.54376e-08
1.54021e-08
1.53816e-08
1.53594e-08
1.53504e-08
1.53465e-08
1.5345e-08
1.53452e-08
1.53452e-08
1.53456e-08
1.53455e-08
1.53453e-08
1.53447e-08
1.53439e-08
1.53429e-08
1.53418e-08
1.53407e-08
1.53397e-08
1.53387e-08
1.53378e-08
1.53371e-08
1.53365e-08
1.5336e-08
1.53357e-08
1.53356e-08
1.53356e-08
1.53357e-08
1.5336e-08
1.53365e-08
1.53371e-08
1.53378e-08
1.53386e-08
1.53396e-08
1.53406e-08
1.53417e-08
1.53428e-08
1.53438e-08
1.53445e-08
1.53452e-08
1.53454e-08
1.53455e-08
1.53451e-08
1.5345e-08
1.53448e-08
1.53464e-08
1.53503e-08
1.53594e-08
1.53815e-08
1.54021e-08
1.54376e-08
1.36537e-08
1.36251e-08
1.36109e-08
1.35919e-08
1.35831e-08
1.35799e-08
1.35779e-08
1.35784e-08
1.35781e-08
1.35787e-08
1.35785e-08
1.35784e-08
1.35777e-08
1.3577e-08
1.3576e-08
1.3575e-08
1.35739e-08
1.35729e-08
1.35719e-08
1.35711e-08
1.35703e-08
1.35697e-08
1.35693e-08
1.3569e-08
1.35688e-08
1.35688e-08
1.3569e-08
1.35693e-08
1.35697e-08
1.35703e-08
1.3571e-08
1.35718e-08
1.35728e-08
1.35738e-08
1.35749e-08
1.35759e-08
1.35769e-08
1.35776e-08
1.35783e-08
1.35783e-08
1.35786e-08
1.3578e-08
1.35782e-08
1.35778e-08
1.35798e-08
1.3583e-08
1.35918e-08
1.36108e-08
1.36251e-08
1.36537e-08
1.21028e-08
1.20806e-08
1.20709e-08
1.20546e-08
1.20462e-08
1.20434e-08
1.20411e-08
1.20417e-08
1.20413e-08
1.2042e-08
1.20417e-08
1.20417e-08
1.20409e-08
1.20404e-08
1.20393e-08
1.20384e-08
1.20372e-08
1.20363e-08
1.20353e-08
1.20345e-08
1.20337e-08
1.20332e-08
1.20327e-08
1.20324e-08
1.20323e-08
1.20323e-08
1.20324e-08
1.20327e-08
1.20332e-08
1.20337e-08
1.20345e-08
1.20352e-08
1.20363e-08
1.20372e-08
1.20383e-08
1.20392e-08
1.20403e-08
1.20408e-08
1.20416e-08
1.20415e-08
1.20419e-08
1.20411e-08
1.20416e-08
1.2041e-08
1.20433e-08
1.20461e-08
1.20545e-08
1.20708e-08
1.20806e-08
1.21028e-08
1.08459e-08
1.08301e-08
1.08255e-08
1.0812e-08
1.0804e-08
1.08016e-08
1.0799e-08
1.07998e-08
1.07992e-08
1.08001e-08
1.07996e-08
1.07998e-08
1.07989e-08
1.07985e-08
1.07973e-08
1.07965e-08
1.07953e-08
1.07945e-08
1.07934e-08
1.07927e-08
1.07919e-08
1.07914e-08
1.07909e-08
1.07906e-08
1.07904e-08
1.07904e-08
1.07906e-08
1.07909e-08
1.07913e-08
1.07919e-08
1.07926e-08
1.07934e-08
1.07944e-08
1.07953e-08
1.07964e-08
1.07972e-08
1.07984e-08
1.07988e-08
1.07996e-08
1.07994e-08
1.07999e-08
1.0799e-08
1.07997e-08
1.07989e-08
1.08015e-08
1.08039e-08
1.0812e-08
1.08255e-08
1.08301e-08
1.08459e-08
9.77521e-09
9.76158e-09
9.75709e-09
9.74505e-09
9.73805e-09
9.73568e-09
9.73333e-09
9.73387e-09
9.73328e-09
9.73401e-09
9.7336e-09
9.73375e-09
9.73302e-09
9.7326e-09
9.73159e-09
9.73085e-09
9.72978e-09
9.72897e-09
9.72802e-09
9.72733e-09
9.72662e-09
9.72613e-09
9.7257e-09
9.72545e-09
9.72531e-09
9.72531e-09
9.72545e-09
9.72569e-09
9.72613e-09
9.7266e-09
9.72731e-09
9.72798e-09
9.72892e-09
9.72971e-09
9.73077e-09
9.73149e-09
9.73249e-09
9.73289e-09
9.73361e-09
9.73345e-09
9.73386e-09
9.73313e-09
9.73373e-09
9.73321e-09
9.73558e-09
9.73798e-09
9.745e-09
9.75707e-09
9.76158e-09
9.7752e-09
8.82376e-09
8.81582e-09
8.81404e-09
8.80396e-09
8.79736e-09
8.79526e-09
8.79278e-09
8.79337e-09
8.79268e-09
8.79346e-09
8.79301e-09
8.79322e-09
8.79248e-09
8.79212e-09
8.79111e-09
8.79041e-09
8.78934e-09
8.78857e-09
8.78762e-09
8.78695e-09
8.78624e-09
8.78576e-09
8.78533e-09
8.78509e-09
8.78494e-09
8.78494e-09
8.78508e-09
8.78532e-09
8.78576e-09
8.78622e-09
8.78692e-09
8.78758e-09
8.78852e-09
8.78928e-09
8.79033e-09
8.79101e-09
8.792e-09
8.79235e-09
8.79308e-09
8.79286e-09
8.79332e-09
8.79253e-09
8.79324e-09
8.79265e-09
8.79516e-09
8.79728e-09
8.80391e-09
8.81402e-09
8.81583e-09
8.82375e-09
8.02917e-09
8.0271e-09
8.02808e-09
8.01986e-09
8.01365e-09
8.01184e-09
8.00922e-09
8.00989e-09
8.00909e-09
8.00994e-09
8.00944e-09
8.00972e-09
8.00897e-09
8.00867e-09
8.00766e-09
8.00701e-09
8.00594e-09
8.0052e-09
8.00425e-09
8.00361e-09
8.00289e-09
8.00243e-09
8.00199e-09
8.00176e-09
8.00161e-09
8.00161e-09
8.00176e-09
8.00199e-09
8.00242e-09
8.00288e-09
8.00358e-09
8.00422e-09
8.00515e-09
8.00588e-09
8.00693e-09
8.00756e-09
8.00856e-09
8.00884e-09
8.00959e-09
8.00929e-09
8.0098e-09
8.00894e-09
8.00976e-09
8.0091e-09
8.01174e-09
8.01357e-09
8.01982e-09
8.02806e-09
8.02711e-09
8.02917e-09
7.33456e-09
7.31707e-09
7.32134e-09
7.31522e-09
7.3092e-09
7.30738e-09
7.3043e-09
7.30481e-09
7.30372e-09
7.30454e-09
7.30391e-09
7.30424e-09
7.30344e-09
7.3032e-09
7.30218e-09
7.30159e-09
7.30051e-09
7.2998e-09
7.29885e-09
7.29821e-09
7.29749e-09
7.29704e-09
7.29659e-09
7.29636e-09
7.29621e-09
7.29621e-09
7.29636e-09
7.29659e-09
7.29703e-09
7.29747e-09
7.29819e-09
7.29881e-09
7.29975e-09
7.30044e-09
7.3015e-09
7.30208e-09
7.30309e-09
7.30331e-09
7.3041e-09
7.30377e-09
7.30439e-09
7.30358e-09
7.30469e-09
7.30419e-09
7.30729e-09
7.30914e-09
7.31519e-09
7.32133e-09
7.31709e-09
7.33457e-09
6.72261e-09
6.70939e-09
6.71539e-09
6.71069e-09
6.70503e-09
6.70339e-09
6.70024e-09
6.70076e-09
6.6996e-09
6.70044e-09
6.69979e-09
6.70016e-09
6.69936e-09
6.69917e-09
6.69816e-09
6.6976e-09
6.69654e-09
6.69586e-09
6.6949e-09
6.69429e-09
6.69357e-09
6.69313e-09
6.69268e-09
6.69246e-09
6.69231e-09
6.69231e-09
6.69245e-09
6.69268e-09
6.69312e-09
6.69355e-09
6.69426e-09
6.69487e-09
6.6958e-09
6.69647e-09
6.69752e-09
6.69806e-09
6.69906e-09
6.69924e-09
6.70002e-09
6.69965e-09
6.7003e-09
6.69946e-09
6.70064e-09
6.70012e-09
6.7033e-09
6.70496e-09
6.71065e-09
6.71538e-09
6.70941e-09
6.72262e-09
6.15939e-09
6.15048e-09
6.15928e-09
6.15639e-09
6.15095e-09
6.14959e-09
6.14624e-09
6.14689e-09
6.14559e-09
6.14654e-09
6.14581e-09
6.14626e-09
6.14542e-09
6.14528e-09
6.14422e-09
6.14368e-09
6.14258e-09
6.14191e-09
6.14092e-09
6.1403e-09
6.13955e-09
6.1391e-09
6.13864e-09
6.13841e-09
6.13825e-09
6.13825e-09
6.1384e-09
6.13863e-09
6.13909e-09
6.13953e-09
6.14027e-09
6.14088e-09
6.14185e-09
6.14251e-09
6.1436e-09
6.14412e-09
6.14516e-09
6.14529e-09
6.14612e-09
6.14567e-09
6.14639e-09
6.14545e-09
6.14676e-09
6.14613e-09
6.1495e-09
6.15088e-09
6.15635e-09
6.15927e-09
6.1505e-09
6.1594e-09
5.65601e-09
5.64981e-09
5.65926e-09
5.6573e-09
5.65219e-09
5.65092e-09
5.64759e-09
5.6482e-09
5.6469e-09
5.64782e-09
5.64711e-09
5.64755e-09
5.64673e-09
5.6466e-09
5.64557e-09
5.64505e-09
5.64396e-09
5.64329e-09
5.64232e-09
5.6417e-09
5.64096e-09
5.64052e-09
5.64006e-09
5.63983e-09
5.63968e-09
5.63968e-09
5.63983e-09
5.64005e-09
5.6405e-09
5.64094e-09
5.64168e-09
5.64228e-09
5.64324e-09
5.64389e-09
5.64496e-09
5.64547e-09
5.64648e-09
5.6466e-09
5.64742e-09
5.64696e-09
5.64767e-09
5.64676e-09
5.64807e-09
5.64748e-09
5.65083e-09
5.65213e-09
5.65727e-09
5.65925e-09
5.64983e-09
5.65602e-09
5.22135e-09
5.21761e-09
5.22787e-09
5.22682e-09
5.222e-09
5.22085e-09
5.21752e-09
5.21811e-09
5.2168e-09
5.21771e-09
5.217e-09
5.21746e-09
5.21665e-09
5.21654e-09
5.21552e-09
5.21502e-09
5.21394e-09
5.21329e-09
5.21232e-09
5.21172e-09
5.21098e-09
5.21054e-09
5.21008e-09
5.20986e-09
5.2097e-09
5.2097e-09
5.20986e-09
5.21008e-09
5.21053e-09
5.21096e-09
5.21169e-09
5.21228e-09
5.21324e-09
5.21387e-09
5.21493e-09
5.21542e-09
5.21642e-09
5.21652e-09
5.21732e-09
5.21686e-09
5.21757e-09
5.21666e-09
5.21798e-09
5.21741e-09
5.22076e-09
5.22194e-09
5.22678e-09
5.22786e-09
5.21763e-09
5.22138e-09
4.83083e-09
4.82922e-09
4.84008e-09
4.83981e-09
4.83527e-09
4.83422e-09
4.83091e-09
4.83149e-09
4.83017e-09
4.83107e-09
4.83036e-09
4.83083e-09
4.83004e-09
4.82994e-09
4.82894e-09
4.82845e-09
4.82738e-09
4.82674e-09
4.82578e-09
4.82519e-09
4.82445e-09
4.82402e-09
4.82356e-09
4.82334e-09
4.82319e-09
4.82319e-09
4.82334e-09
4.82356e-09
4.824e-09
4.82443e-09
4.82516e-09
4.82574e-09
4.82669e-09
4.82731e-09
4.82836e-09
4.82884e-09
4.82982e-09
4.82991e-09
4.83069e-09
4.83022e-09
4.83093e-09
4.83003e-09
4.83136e-09
4.8308e-09
4.83413e-09
4.83521e-09
4.83977e-09
4.84007e-09
4.82923e-09
4.83085e-09
4.47624e-09
4.47413e-09
4.48306e-09
4.48261e-09
4.47814e-09
4.47666e-09
4.47314e-09
4.47328e-09
4.47182e-09
4.4725e-09
4.4718e-09
4.47222e-09
4.47153e-09
4.47149e-09
4.47064e-09
4.47025e-09
4.46933e-09
4.4688e-09
4.46796e-09
4.46744e-09
4.4668e-09
4.46642e-09
4.46601e-09
4.46582e-09
4.46568e-09
4.46568e-09
4.46581e-09
4.46601e-09
4.4664e-09
4.46678e-09
4.46741e-09
4.46792e-09
4.46874e-09
4.46927e-09
4.47017e-09
4.47055e-09
4.47139e-09
4.47142e-09
4.4721e-09
4.47167e-09
4.47237e-09
4.4717e-09
4.47317e-09
4.47305e-09
4.47659e-09
4.4781e-09
4.48259e-09
4.48307e-09
4.47416e-09
4.47627e-09
4.15887e-09
4.15818e-09
4.16722e-09
4.16725e-09
4.16301e-09
4.16158e-09
4.15808e-09
4.15818e-09
4.15672e-09
4.15737e-09
4.15668e-09
4.1571e-09
4.15643e-09
4.1564e-09
4.15557e-09
4.1552e-09
4.1543e-09
4.15378e-09
4.15296e-09
4.15246e-09
4.15182e-09
4.15145e-09
4.15105e-09
4.15086e-09
4.15072e-09
4.15072e-09
4.15085e-09
4.15104e-09
4.15143e-09
4.1518e-09
4.15243e-09
4.15292e-09
4.15373e-09
4.15424e-09
4.15512e-09
4.15548e-09
4.1563e-09
4.15632e-09
4.15698e-09
4.15656e-09
4.15725e-09
4.1566e-09
4.15807e-09
4.15799e-09
4.16151e-09
4.16297e-09
4.16723e-09
4.16723e-09
4.15821e-09
4.1589e-09
3.86309e-09
3.86388e-09
3.87323e-09
3.87361e-09
3.86921e-09
3.86751e-09
3.86373e-09
3.8636e-09
3.86198e-09
3.86252e-09
3.86177e-09
3.86214e-09
3.86145e-09
3.8614e-09
3.86057e-09
3.86018e-09
3.85928e-09
3.85874e-09
3.85791e-09
3.8574e-09
3.85675e-09
3.85637e-09
3.85596e-09
3.85576e-09
3.85563e-09
3.85563e-09
3.85576e-09
3.85596e-09
3.85635e-09
3.85673e-09
3.85737e-09
3.85787e-09
3.85869e-09
3.85921e-09
3.8601e-09
3.86048e-09
3.8613e-09
3.86134e-09
3.86202e-09
3.86164e-09
3.8624e-09
3.86187e-09
3.86349e-09
3.86365e-09
3.86745e-09
3.86917e-09
3.8736e-09
3.87324e-09
3.86391e-09
3.86313e-09
3.5932e-09
3.59485e-09
3.60385e-09
3.60443e-09
3.60018e-09
3.59846e-09
3.59474e-09
3.59452e-09
3.59292e-09
3.5934e-09
3.59266e-09
3.59301e-09
3.59235e-09
3.59229e-09
3.59148e-09
3.5911e-09
3.59022e-09
3.58969e-09
3.58888e-09
3.58837e-09
3.58773e-09
3.58735e-09
3.58696e-09
3.58676e-09
3.58662e-09
3.58662e-09
3.58676e-09
3.58695e-09
3.58734e-09
3.58771e-09
3.58834e-09
3.58884e-09
3.58964e-09
3.59015e-09
3.59102e-09
3.59139e-09
3.59219e-09
3.59223e-09
3.59289e-09
3.59254e-09
3.59328e-09
3.59281e-09
3.59441e-09
3.59465e-09
3.5984e-09
3.60015e-09
3.60442e-09
3.60386e-09
3.59489e-09
3.59324e-09
3.34829e-09
3.35063e-09
3.35919e-09
3.3599e-09
3.35578e-09
3.35403e-09
3.35036e-09
3.35006e-09
3.34848e-09
3.3489e-09
3.34818e-09
3.34849e-09
3.34785e-09
3.34779e-09
3.34701e-09
3.34663e-09
3.34577e-09
3.34525e-09
3.34445e-09
3.34395e-09
3.34332e-09
3.34295e-09
3.34256e-09
3.34236e-09
3.34223e-09
3.34223e-09
3.34236e-09
3.34255e-09
3.34293e-09
3.3433e-09
3.34392e-09
3.34441e-09
3.34519e-09
3.3457e-09
3.34655e-09
3.34692e-09
3.34769e-09
3.34774e-09
3.34838e-09
3.34806e-09
3.34878e-09
3.34837e-09
3.34995e-09
3.35027e-09
3.35397e-09
3.35575e-09
3.35989e-09
3.3592e-09
3.35067e-09
3.34833e-09
3.12583e-09
3.1287e-09
3.13676e-09
3.13753e-09
3.13353e-09
3.13174e-09
3.12812e-09
3.12773e-09
3.12617e-09
3.12653e-09
3.12583e-09
3.12611e-09
3.12549e-09
3.12542e-09
3.12466e-09
3.12428e-09
3.12345e-09
3.12293e-09
3.12215e-09
3.12165e-09
3.12104e-09
3.12066e-09
3.12028e-09
3.12009e-09
3.11996e-09
3.11995e-09
3.12008e-09
3.12027e-09
3.12065e-09
3.12102e-09
3.12162e-09
3.12211e-09
3.12287e-09
3.12338e-09
3.1242e-09
3.12457e-09
3.12532e-09
3.12538e-09
3.126e-09
3.12571e-09
3.12641e-09
3.12606e-09
3.12763e-09
3.12803e-09
3.13168e-09
3.1335e-09
3.13752e-09
3.13677e-09
3.12873e-09
3.12587e-09
2.92356e-09
2.92683e-09
2.93435e-09
2.93514e-09
2.93123e-09
2.92939e-09
2.92582e-09
2.92535e-09
2.92381e-09
2.92411e-09
2.92342e-09
2.92368e-09
2.92308e-09
2.92299e-09
2.92226e-09
2.92187e-09
2.92106e-09
2.92054e-09
2.91978e-09
2.91928e-09
2.91868e-09
2.91831e-09
2.91794e-09
2.91775e-09
2.91762e-09
2.91761e-09
2.91774e-09
2.91793e-09
2.9183e-09
2.91866e-09
2.91925e-09
2.91974e-09
2.92049e-09
2.92099e-09
2.9218e-09
2.92217e-09
2.92289e-09
2.92297e-09
2.92356e-09
2.9233e-09
2.92399e-09
2.9237e-09
2.92525e-09
2.92574e-09
2.92933e-09
2.93119e-09
2.93513e-09
2.93437e-09
2.92687e-09
2.92361e-09
2.7395e-09
2.74306e-09
2.75002e-09
2.75076e-09
2.74692e-09
2.74503e-09
2.74152e-09
2.74097e-09
2.73945e-09
2.73968e-09
2.73901e-09
2.73923e-09
2.73865e-09
2.73855e-09
2.73783e-09
2.73745e-09
2.73665e-09
2.73614e-09
2.73539e-09
2.7349e-09
2.73431e-09
2.73395e-09
2.73358e-09
2.73339e-09
2.73326e-09
2.73326e-09
2.73338e-09
2.73357e-09
2.73393e-09
2.73429e-09
2.73487e-09
2.73535e-09
2.73609e-09
2.73659e-09
2.73737e-09
2.73774e-09
2.73845e-09
2.73854e-09
2.73911e-09
2.73889e-09
2.73956e-09
2.73934e-09
2.74087e-09
2.74144e-09
2.74497e-09
2.74689e-09
2.75075e-09
2.75003e-09
2.74309e-09
2.73955e-09
2.57186e-09
2.5756e-09
2.58198e-09
2.58266e-09
2.57887e-09
2.57693e-09
2.57346e-09
2.57283e-09
2.57133e-09
2.5715e-09
2.57084e-09
2.57103e-09
2.57046e-09
2.57035e-09
2.56965e-09
2.56927e-09
2.56849e-09
2.56798e-09
2.56725e-09
2.56676e-09
2.56618e-09
2.56581e-09
2.56545e-09
2.56526e-09
2.56513e-09
2.56513e-09
2.56526e-09
2.56544e-09
2.5658e-09
2.56616e-09
2.56673e-09
2.5672e-09
2.56793e-09
2.56842e-09
2.56919e-09
2.56956e-09
2.57025e-09
2.57035e-09
2.57091e-09
2.57072e-09
2.57138e-09
2.57122e-09
2.57274e-09
2.57338e-09
2.57687e-09
2.57884e-09
2.58265e-09
2.582e-09
2.57563e-09
2.57191e-09
2.41904e-09
2.42287e-09
2.42868e-09
2.42925e-09
2.4255e-09
2.4235e-09
2.42008e-09
2.41937e-09
2.41788e-09
2.418e-09
2.41734e-09
2.4175e-09
2.41695e-09
2.41682e-09
2.41614e-09
2.41575e-09
2.41499e-09
2.41448e-09
2.41376e-09
2.41328e-09
2.41271e-09
2.41235e-09
2.41199e-09
2.4118e-09
2.41167e-09
2.41167e-09
2.41179e-09
2.41198e-09
2.41233e-09
2.41269e-09
2.41325e-09
2.41372e-09
2.41443e-09
2.41493e-09
2.41568e-09
2.41605e-09
2.41672e-09
2.41684e-09
2.41738e-09
2.41723e-09
2.41788e-09
2.41778e-09
2.41928e-09
2.42e-09
2.42344e-09
2.42547e-09
2.42924e-09
2.4287e-09
2.4229e-09
2.41909e-09
2.27959e-09
2.28344e-09
2.28868e-09
2.28912e-09
2.2854e-09
2.28334e-09
2.27996e-09
2.27918e-09
2.2777e-09
2.27776e-09
2.27711e-09
2.27723e-09
2.27669e-09
2.27655e-09
2.27589e-09
2.27549e-09
2.27475e-09
2.27424e-09
2.27353e-09
2.27305e-09
2.27249e-09
2.27213e-09
2.27178e-09
2.27159e-09
2.27147e-09
2.27146e-09
2.27158e-09
2.27177e-09
2.27212e-09
2.27247e-09
2.27302e-09
2.27349e-09
2.27419e-09
2.27468e-09
2.27542e-09
2.2758e-09
2.27645e-09
2.27659e-09
2.27712e-09
2.277e-09
2.27764e-09
2.2776e-09
2.27909e-09
2.27989e-09
2.28328e-09
2.28538e-09
2.28912e-09
2.2887e-09
2.28348e-09
2.27964e-09
2.15222e-09
2.15603e-09
2.16071e-09
2.161e-09
2.1573e-09
2.15516e-09
2.15183e-09
2.15097e-09
2.14951e-09
2.14951e-09
2.14887e-09
2.14895e-09
2.14842e-09
2.14826e-09
2.14761e-09
2.14721e-09
2.14648e-09
2.14597e-09
2.14528e-09
2.1448e-09
2.14425e-09
2.14389e-09
2.14354e-09
2.14335e-09
2.14323e-09
2.14323e-09
2.14335e-09
2.14353e-09
2.14387e-09
2.14423e-09
2.14477e-09
2.14524e-09
2.14592e-09
2.14642e-09
2.14714e-09
2.14753e-09
2.14817e-09
2.14832e-09
2.14884e-09
2.14875e-09
2.14939e-09
2.1494e-09
2.15088e-09
2.15176e-09
2.15511e-09
2.15727e-09
2.16099e-09
2.16073e-09
2.15607e-09
2.15226e-09
2.03574e-09
2.03948e-09
2.04361e-09
2.04373e-09
2.04003e-09
2.03783e-09
2.03454e-09
2.03361e-09
2.03215e-09
2.03209e-09
2.03146e-09
2.03151e-09
2.03099e-09
2.03081e-09
2.03017e-09
2.02976e-09
2.02904e-09
2.02853e-09
2.02785e-09
2.02737e-09
2.02683e-09
2.02647e-09
2.02613e-09
2.02594e-09
2.02582e-09
2.02582e-09
2.02593e-09
2.02612e-09
2.02646e-09
2.02681e-09
2.02734e-09
2.02781e-09
2.02848e-09
2.02898e-09
2.02969e-09
2.03009e-09
2.03071e-09
2.03088e-09
2.0314e-09
2.03134e-09
2.03198e-09
2.03205e-09
2.03351e-09
2.03446e-09
2.03778e-09
2.04e-09
2.04373e-09
2.04362e-09
2.03951e-09
2.03578e-09
1.92911e-09
1.93273e-09
1.93633e-09
1.93628e-09
1.93257e-09
1.9303e-09
1.92704e-09
1.92604e-09
1.92459e-09
1.92447e-09
1.92384e-09
1.92386e-09
1.92334e-09
1.92315e-09
1.92252e-09
1.9221e-09
1.92139e-09
1.92088e-09
1.92021e-09
1.91973e-09
1.9192e-09
1.91884e-09
1.9185e-09
1.91831e-09
1.91819e-09
1.91819e-09
1.91831e-09
1.91849e-09
1.91882e-09
1.91917e-09
1.9197e-09
1.92017e-09
1.92083e-09
1.92133e-09
1.92203e-09
1.92243e-09
1.92305e-09
1.92324e-09
1.92375e-09
1.92373e-09
1.92437e-09
1.92449e-09
1.92595e-09
1.92696e-09
1.93025e-09
1.93254e-09
1.93627e-09
1.93635e-09
1.93277e-09
1.92915e-09
1.83137e-09
1.83485e-09
1.83794e-09
1.8377e-09
1.83397e-09
1.83163e-09
1.8284e-09
1.82733e-09
1.82589e-09
1.82572e-09
1.82508e-09
1.82507e-09
1.82455e-09
1.82434e-09
1.82372e-09
1.8233e-09
1.8226e-09
1.82208e-09
1.82142e-09
1.82094e-09
1.82041e-09
1.82005e-09
1.81972e-09
1.81953e-09
1.81941e-09
1.81941e-09
1.81952e-09
1.81971e-09
1.82004e-09
1.82039e-09
1.82091e-09
1.82138e-09
1.82203e-09
1.82253e-09
1.82322e-09
1.82363e-09
1.82425e-09
1.82445e-09
1.82496e-09
1.82497e-09
1.82561e-09
1.82578e-09
1.82724e-09
1.82832e-09
1.83158e-09
1.83394e-09
1.83769e-09
1.83795e-09
1.83489e-09
1.83142e-09
1.74168e-09
1.745e-09
1.74758e-09
1.74715e-09
1.74339e-09
1.74098e-09
1.73777e-09
1.73664e-09
1.7352e-09
1.73498e-09
1.73434e-09
1.73429e-09
1.73378e-09
1.73354e-09
1.73293e-09
1.7325e-09
1.7318e-09
1.73128e-09
1.73063e-09
1.73015e-09
1.72962e-09
1.72927e-09
1.72893e-09
1.72874e-09
1.72863e-09
1.72863e-09
1.72874e-09
1.72893e-09
1.72925e-09
1.7296e-09
1.73012e-09
1.73059e-09
1.73123e-09
1.73174e-09
1.73242e-09
1.73284e-09
1.73345e-09
1.73367e-09
1.73418e-09
1.73423e-09
1.73487e-09
1.7351e-09
1.73655e-09
1.7377e-09
1.74093e-09
1.74337e-09
1.74714e-09
1.7476e-09
1.74503e-09
1.74173e-09
1.65928e-09
1.6624e-09
1.6645e-09
1.66387e-09
1.66008e-09
1.6576e-09
1.6544e-09
1.6532e-09
1.65176e-09
1.65148e-09
1.65084e-09
1.65076e-09
1.65024e-09
1.64999e-09
1.64938e-09
1.64894e-09
1.64825e-09
1.64773e-09
1.64708e-09
1.64659e-09
1.64608e-09
1.64572e-09
1.64539e-09
1.6452e-09
1.64508e-09
1.64508e-09
1.64519e-09
1.64538e-09
1.6457e-09
1.64605e-09
1.64656e-09
1.64704e-09
1.64768e-09
1.64819e-09
1.64886e-09
1.64929e-09
1.6499e-09
1.65014e-09
1.65065e-09
1.65073e-09
1.65138e-09
1.65166e-09
1.65311e-09
1.65433e-09
1.65754e-09
1.66005e-09
1.66387e-09
1.66452e-09
1.66243e-09
1.65932e-09
1.58347e-09
1.58638e-09
1.58802e-09
1.58719e-09
1.58335e-09
1.58078e-09
1.5776e-09
1.57633e-09
1.57488e-09
1.57456e-09
1.57391e-09
1.57379e-09
1.57327e-09
1.573e-09
1.57239e-09
1.57194e-09
1.57125e-09
1.57072e-09
1.57008e-09
1.56959e-09
1.56908e-09
1.56872e-09
1.56839e-09
1.5682e-09
1.56809e-09
1.56809e-09
1.5682e-09
1.56838e-09
1.5687e-09
1.56906e-09
1.56956e-09
1.57004e-09
1.57067e-09
1.57119e-09
1.57186e-09
1.5723e-09
1.5729e-09
1.57317e-09
1.57368e-09
1.5738e-09
1.57445e-09
1.57478e-09
1.57624e-09
1.57752e-09
1.58073e-09
1.58332e-09
1.58718e-09
1.58804e-09
1.58642e-09
1.58351e-09
)
;

boundaryField
{
    fuel
    {
        type            fixedValue;
        value           uniform 0;
    }
    wall
    {
        type            zeroGradient;
    }
    outlet
    {
        type            zeroGradient;
    }
    frontAndBack
    {
        type            empty;
    }
    procBoundary1to0
    {
        type            processor;
        value           nonuniform List<scalar> 
50
(
1.51349e-09
1.5162e-09
1.51742e-09
1.51639e-09
1.51252e-09
1.50989e-09
1.50673e-09
1.50541e-09
1.50396e-09
1.50359e-09
1.50293e-09
1.50278e-09
1.50226e-09
1.50197e-09
1.50136e-09
1.50089e-09
1.50021e-09
1.49968e-09
1.49904e-09
1.49855e-09
1.49804e-09
1.49768e-09
1.49735e-09
1.49716e-09
1.49705e-09
1.49705e-09
1.49716e-09
1.49734e-09
1.49766e-09
1.49802e-09
1.49852e-09
1.499e-09
1.49963e-09
1.50015e-09
1.50082e-09
1.50127e-09
1.50187e-09
1.50216e-09
1.50267e-09
1.50282e-09
1.50348e-09
1.50386e-09
1.50532e-09
1.50666e-09
1.50984e-09
1.51249e-09
1.51639e-09
1.51743e-09
1.51623e-09
1.51353e-09
)
;
    }
}


// ************************************************************************* //
