/*--------------------------------*- C++ -*----------------------------------*\
| =========                 |                                                 |
| \\      /  F ield         | OpenFOAM: The Open Source CFD Toolbox           |
|  \\    /   O peration     | Version:  dev                                   |
|   \\  /    A nd           | Web:      www.OpenFOAM.org                      |
|    \\/     M anipulation  |                                                 |
\*---------------------------------------------------------------------------*/
FoamFile
{
    version     2.0;
    format      ascii;
    class       volScalarField;
    location    "0.02";
    object      AR;
}
// * * * * * * * * * * * * * * * * * * * * * * * * * * * * * * * * * * * * * //

dimensions      [0 0 0 0 0 0 0];

internalField   nonuniform List<scalar> 
250
(
0.631904
0.630866
0.625678
0.626969
0.628025
0.629523
0.632761
0.634058
0.636894
0.636909
0.623503
0.622199
0.616838
0.618243
0.619446
0.621086
0.624567
0.625992
0.629075
0.629064
0.629113
0.629157
0.626153
0.624781
0.621427
0.619848
0.618741
0.617338
0.622622
0.623821
0.614328
0.612727
0.607252
0.608762
0.610127
0.611902
0.615612
0.61717
0.620497
0.62046
0.620514
0.620588
0.617346
0.615849
0.612278
0.610572
0.609318
0.607812
0.61321
0.614696
0.604398
0.602472
0.596943
0.598546
0.600087
0.601986
0.605904
0.6076
0.611162
0.611102
0.611162
0.611263
0.607793
0.606166
0.602399
0.600579
0.599161
0.597568
0.603018
0.60482
0.593761
0.591486
0.585968
0.587395
0.589155
0.591379
0.595476
0.597314
0.601098
0.601017
0.601083
0.601209
0.597525
0.595764
0.591831
0.589698
0.588071
0.586658
0.592098
0.594238
0.582496
0.579854
0.574428
0.575846
0.577596
0.579956
0.584392
0.586377
0.590362
0.590265
0.590337
0.590484
0.586606
0.584708
0.580448
0.578193
0.576584
0.575185
0.580534
0.583033
0.570732
0.567705
0.562449
0.563801
0.565709
0.568195
0.57276
0.574894
0.579053
0.578946
0.579025
0.579187
0.575143
0.573106
0.568728
0.56636
0.564602
0.563273
0.568455
0.571328
0.558651
0.555227
0.550209
0.551436
0.553499
0.55609
0.560744
0.563028
0.567327
0.567219
0.567304
0.567474
0.563296
0.561121
0.556664
0.554205
0.552301
0.5511
0.556046
0.559306
0.546515
0.542686
0.537963
0.539007
0.541214
0.543887
0.548586
0.551017
0.555417
0.555316
0.555408
0.555577
0.551304
0.548994
0.544501
0.541975
0.539935
0.53892
0.543571
0.547227
0.534694
0.530459
0.526076
0.526884
0.529212
0.53194
0.53664
0.539212
0.543669
0.543585
0.543683
0.543842
0.539517
0.537078
0.532593
0.530026
0.527871
0.527094
0.531407
0.535458
0.523722
0.519096
0.515071
0.5156
0.518021
0.520773
0.525431
0.528131
0.532601
0.532542
0.532646
0.532786
0.528453
0.525899
0.521462
0.518883
0.516639
0.516144
0.520097
0.524532
0.514416
0.509436
0.505751
0.505983
0.508462
0.511207
0.515787
0.51859
0.523033
0.523003
0.523112
0.523228
0.518926
0.516279
0.511924
0.509363
0.507064
0.506867
0.510479
0.515262
0.508174
0.502929
0.499501
0.499474
0.501973
0.504683
0.509175
0.51204
0.516431
0.516428
0.516539
0.516634
0.512385
0.509683
0.505419
0.5029
0.500581
0.500642
0.503997
0.50904
)
;

boundaryField
{
    fuel
    {
        type            fixedValue;
        value           nonuniform 0();
    }
    wall
    {
        type            zeroGradient;
    }
    outlet
    {
        type            zeroGradient;
    }
    frontAndBack
    {
        type            empty;
    }
    procBoundary1to0
    {
        type            processor;
        value           nonuniform List<scalar> 
21
(
0.639535
0.638731
0.633769
0.634938
0.635862
0.637217
0.640205
0.64138
0.643969
0.644012
0.636955
0.636955
0.636969
0.634205
0.632955
0.629831
0.628383
0.627414
0.626122
0.631234
0.632176
)
;
    }
}


// ************************************************************************* //
