/*--------------------------------*- C++ -*----------------------------------*\
| =========                 |                                                 |
| \\      /  F ield         | OpenFOAM: The Open Source CFD Toolbox           |
|  \\    /   O peration     | Version:  dev                                   |
|   \\  /    A nd           | Web:      www.OpenFOAM.org                      |
|    \\/     M anipulation  |                                                 |
\*---------------------------------------------------------------------------*/
FoamFile
{
    version     2.0;
    format      ascii;
    class       volScalarField;
    location    "0.02";
    object      C4H;
}
// * * * * * * * * * * * * * * * * * * * * * * * * * * * * * * * * * * * * * //

dimensions      [0 0 0 0 0 0 0];

internalField   nonuniform List<scalar> 
250
(
3.16806e-10
3.16393e-10
2.23141e-10
2.16465e-10
2.24551e-10
2.63963e-10
3.02687e-10
3.29877e-10
3.74627e-10
3.69717e-10
2.00314e-10
1.96707e-10
1.31559e-10
1.25276e-10
1.28807e-10
1.53306e-10
1.78302e-10
1.96766e-10
2.26666e-10
2.23943e-10
2.23446e-10
2.26573e-10
2.00862e-10
1.82515e-10
1.58486e-10
1.32301e-10
1.25246e-10
1.28597e-10
1.86373e-10
1.92171e-10
1.1533e-10
1.12607e-10
7.15258e-11
6.72935e-11
6.86575e-11
8.32754e-11
9.85904e-11
1.10236e-10
1.28933e-10
1.27577e-10
1.27316e-10
1.2895e-10
1.12842e-10
1.01209e-10
8.65302e-11
7.09434e-11
6.72977e-11
6.98148e-11
1.0609e-10
1.10281e-10
5.94503e-11
5.82061e-11
3.52283e-11
3.29943e-11
3.36686e-11
4.17743e-11
5.06462e-11
5.73668e-11
6.82118e-11
6.76413e-11
6.75049e-11
6.82493e-11
5.88918e-11
5.206e-11
4.36652e-11
3.49534e-11
3.30228e-11
3.43478e-11
5.453e-11
5.66299e-11
2.70367e-11
2.66811e-11
1.54739e-11
1.44957e-11
1.48804e-11
1.90163e-11
2.34324e-11
2.72843e-11
3.30324e-11
3.28784e-11
3.28072e-11
3.30625e-11
2.8098e-11
2.44384e-11
2.00227e-11
1.55428e-11
1.45255e-11
1.50728e-11
2.48618e-11
2.56556e-11
1.07349e-11
1.07152e-11
6.01459e-12
5.6137e-12
5.79897e-12
7.67785e-12
9.76604e-12
1.15897e-11
1.43076e-11
1.40873e-11
1.40639e-11
1.43245e-11
1.19762e-11
1.02301e-11
8.15213e-12
6.10046e-12
5.6286e-12
5.85054e-12
9.93917e-12
1.01557e-11
3.69358e-12
3.74846e-12
2.07245e-12
1.89927e-12
1.94593e-12
2.66683e-12
3.5137e-12
4.25914e-12
5.36852e-12
5.2849e-12
5.27506e-12
5.3756e-12
4.4174e-12
3.69953e-12
2.85751e-12
2.05987e-12
1.9021e-12
2.01289e-12
3.46879e-12
3.49092e-12
1.09449e-12
1.13018e-12
6.30992e-13
5.66499e-13
5.51059e-13
7.6728e-13
1.04689e-12
1.29934e-12
1.67327e-12
1.64626e-12
1.64278e-12
1.67543e-12
1.35288e-12
1.10901e-12
8.29361e-13
5.83662e-13
5.62337e-13
6.13634e-13
1.04749e-12
1.03599e-12
2.80749e-13
2.87587e-13
1.64277e-13
1.48423e-13
1.31215e-13
1.76271e-13
2.46452e-13
3.13563e-13
4.12255e-13
4.05139e-13
4.0416e-13
4.12727e-13
3.27791e-13
2.62776e-13
1.91472e-13
1.37274e-13
1.45673e-13
1.60594e-13
2.67678e-13
2.66231e-13
6.13029e-14
6.10591e-14
3.51963e-14
3.16935e-14
2.56969e-14
3.12849e-14
4.35617e-14
5.65739e-14
7.57609e-14
7.42869e-14
7.40793e-14
7.58244e-14
5.93635e-14
4.66804e-14
3.3849e-14
2.62687e-14
3.08964e-14
3.444e-14
5.70426e-14
5.83643e-14
9.1095e-15
9.46729e-15
5.54668e-15
4.87496e-15
3.60956e-15
3.90755e-15
5.23965e-15
6.86809e-15
9.35627e-15
9.13759e-15
9.1071e-15
9.3588e-15
7.2296e-15
5.62397e-15
4.17556e-15
3.60672e-15
4.70054e-15
5.44994e-15
8.93918e-15
8.80233e-15
8.09509e-16
8.90603e-16
5.52629e-16
4.84887e-16
3.21516e-16
3.03946e-16
3.86763e-16
5.07498e-16
7.03332e-16
6.85273e-16
6.82548e-16
7.03362e-16
5.35488e-16
4.14735e-16
3.19436e-16
3.12467e-16
4.61822e-16
5.49969e-16
8.55532e-16
7.94818e-16
4.30568e-17
4.98058e-17
3.44697e-17
3.26502e-17
2.04517e-17
1.59595e-17
1.82728e-17
2.38381e-17
3.36023e-17
3.27822e-17
3.26364e-17
3.36164e-17
2.52003e-17
1.95088e-17
1.62115e-17
1.92535e-17
3.11212e-17
3.51601e-17
4.88477e-17
4.2865e-17
)
;

boundaryField
{
    fuel
    {
        type            fixedValue;
        value           nonuniform 0();
    }
    wall
    {
        type            zeroGradient;
    }
    outlet
    {
        type            zeroGradient;
    }
    frontAndBack
    {
        type            empty;
    }
    procBoundary1to0
    {
        type            processor;
        value           nonuniform List<scalar> 
21
(
4.64912e-10
4.7718e-10
3.55308e-10
3.52489e-10
3.69454e-10
4.29558e-10
4.86527e-10
5.23833e-10
5.8686e-10
5.78639e-10
3.69039e-10
3.69039e-10
3.74523e-10
3.36097e-10
3.09098e-10
2.71978e-10
2.30356e-10
2.16753e-10
2.18857e-10
3.01522e-10
3.05585e-10
)
;
    }
}


// ************************************************************************* //
