/*--------------------------------*- C++ -*----------------------------------*\
| =========                 |                                                 |
| \\      /  F ield         | OpenFOAM: The Open Source CFD Toolbox           |
|  \\    /   O peration     | Version:  dev                                   |
|   \\  /    A nd           | Web:      www.OpenFOAM.org                      |
|    \\/     M anipulation  |                                                 |
\*---------------------------------------------------------------------------*/
FoamFile
{
    version     2.0;
    format      ascii;
    class       volScalarField;
    location    "0.02";
    object      C6H;
}
// * * * * * * * * * * * * * * * * * * * * * * * * * * * * * * * * * * * * * //

dimensions      [0 0 0 0 0 0 0];

internalField   nonuniform List<scalar> 
25
(
5.70131e-13
6.78753e-13
7.76017e-13
8.51462e-13
8.97907e-13
9.1223e-13
8.95416e-13
8.51878e-13
7.88162e-13
7.11904e-13
6.30043e-13
5.48294e-13
4.70735e-13
3.99844e-13
3.36778e-13
2.81734e-13
2.34306e-13
1.93774e-13
1.59304e-13
1.30084e-13
1.05386e-13
8.45935e-14
6.7204e-14
5.26036e-14
4.06852e-14
)
;

boundaryField
{
    wall
    {
        type            zeroGradient;
    }
    fuel
    {
        type            fixedValue;
        value           nonuniform 0();
    }
    outlet
    {
        type            inletOutlet;
        inletValue      nonuniform 0();
        value           nonuniform 0();
    }
    procBoundary1to0
    {
        type            processor;
        value           uniform 4.55076e-13;
    }
    procBoundary1to2
    {
        type            processor;
        value           uniform 3.1019e-14;
    }
}


// ************************************************************************* //
