/*--------------------------------*- C++ -*----------------------------------*\
| =========                 |                                                 |
| \\      /  F ield         | OpenFOAM: The Open Source CFD Toolbox           |
|  \\    /   O peration     | Version:  dev                                   |
|   \\  /    A nd           | Web:      www.OpenFOAM.org                      |
|    \\/     M anipulation  |                                                 |
\*---------------------------------------------------------------------------*/
FoamFile
{
    version     2.0;
    format      ascii;
    class       volScalarField;
    location    "0.02";
    object      HCCOH;
}
// * * * * * * * * * * * * * * * * * * * * * * * * * * * * * * * * * * * * * //

dimensions      [0 0 0 0 0 0 0];

internalField   nonuniform List<scalar> 
2000
(
4.815e-06
4.82105e-06
4.82849e-06
4.8315e-06
4.8317e-06
4.83232e-06
4.83188e-06
4.83217e-06
4.83184e-06
4.83207e-06
4.83188e-06
4.83208e-06
4.83197e-06
4.83213e-06
4.83208e-06
4.8322e-06
4.83217e-06
4.83226e-06
4.83225e-06
4.8323e-06
4.83229e-06
4.83233e-06
4.83232e-06
4.83234e-06
4.83234e-06
4.83234e-06
4.83234e-06
4.83232e-06
4.83233e-06
4.83229e-06
4.8323e-06
4.83225e-06
4.83226e-06
4.83217e-06
4.8322e-06
4.83208e-06
4.83213e-06
4.83198e-06
4.83208e-06
4.83189e-06
4.83208e-06
4.83185e-06
4.83218e-06
4.83188e-06
4.83232e-06
4.83171e-06
4.8315e-06
4.82849e-06
4.82105e-06
4.81501e-06
1.02562e-05
1.02692e-05
1.0285e-05
1.02914e-05
1.02917e-05
1.02931e-05
1.02921e-05
1.02928e-05
1.02921e-05
1.02926e-05
1.02921e-05
1.02926e-05
1.02923e-05
1.02927e-05
1.02926e-05
1.02928e-05
1.02928e-05
1.02929e-05
1.02929e-05
1.0293e-05
1.0293e-05
1.02931e-05
1.02931e-05
1.02931e-05
1.02931e-05
1.02931e-05
1.02931e-05
1.02931e-05
1.02931e-05
1.0293e-05
1.0293e-05
1.02929e-05
1.02929e-05
1.02928e-05
1.02928e-05
1.02926e-05
1.02927e-05
1.02923e-05
1.02926e-05
1.02922e-05
1.02926e-05
1.02921e-05
1.02928e-05
1.02921e-05
1.02931e-05
1.02918e-05
1.02914e-05
1.0285e-05
1.02692e-05
1.02563e-05
1.56659e-05
1.56862e-05
1.57097e-05
1.57191e-05
1.57191e-05
1.57213e-05
1.57196e-05
1.57208e-05
1.57195e-05
1.57205e-05
1.57197e-05
1.57204e-05
1.572e-05
1.57206e-05
1.57203e-05
1.57207e-05
1.57206e-05
1.57209e-05
1.57208e-05
1.5721e-05
1.57209e-05
1.5721e-05
1.5721e-05
1.57211e-05
1.57211e-05
1.57211e-05
1.57211e-05
1.5721e-05
1.5721e-05
1.57209e-05
1.5721e-05
1.57208e-05
1.57209e-05
1.57206e-05
1.57207e-05
1.57203e-05
1.57206e-05
1.572e-05
1.57204e-05
1.57197e-05
1.57205e-05
1.57196e-05
1.57208e-05
1.57196e-05
1.57213e-05
1.57191e-05
1.57191e-05
1.57097e-05
1.56862e-05
1.56659e-05
1.86441e-05
1.86676e-05
1.86943e-05
1.87046e-05
1.87041e-05
1.87068e-05
1.87046e-05
1.87061e-05
1.87046e-05
1.87058e-05
1.87048e-05
1.87057e-05
1.87051e-05
1.87058e-05
1.87055e-05
1.87059e-05
1.87057e-05
1.87061e-05
1.87059e-05
1.87061e-05
1.8706e-05
1.87062e-05
1.87061e-05
1.87062e-05
1.87062e-05
1.87062e-05
1.87062e-05
1.87061e-05
1.87062e-05
1.8706e-05
1.87061e-05
1.87059e-05
1.87061e-05
1.87057e-05
1.87059e-05
1.87055e-05
1.87058e-05
1.87051e-05
1.87057e-05
1.87048e-05
1.87058e-05
1.87046e-05
1.87062e-05
1.87046e-05
1.87068e-05
1.87041e-05
1.87047e-05
1.86943e-05
1.86676e-05
1.86442e-05
1.95405e-05
1.95646e-05
1.95929e-05
1.96033e-05
1.96025e-05
1.96053e-05
1.96029e-05
1.96045e-05
1.96028e-05
1.96041e-05
1.96031e-05
1.96041e-05
1.96034e-05
1.96041e-05
1.96037e-05
1.96042e-05
1.9604e-05
1.96043e-05
1.96041e-05
1.96043e-05
1.96042e-05
1.96043e-05
1.96043e-05
1.96043e-05
1.96043e-05
1.96043e-05
1.96043e-05
1.96043e-05
1.96043e-05
1.96042e-05
1.96043e-05
1.96041e-05
1.96043e-05
1.9604e-05
1.96042e-05
1.96037e-05
1.96041e-05
1.96034e-05
1.96041e-05
1.96031e-05
1.96041e-05
1.96029e-05
1.96045e-05
1.96029e-05
1.96053e-05
1.96025e-05
1.96033e-05
1.95929e-05
1.95646e-05
1.95405e-05
1.94128e-05
1.94369e-05
1.94665e-05
1.94771e-05
1.94762e-05
1.9479e-05
1.94765e-05
1.94781e-05
1.94764e-05
1.94776e-05
1.94766e-05
1.94776e-05
1.94769e-05
1.94777e-05
1.94772e-05
1.94777e-05
1.94775e-05
1.94778e-05
1.94776e-05
1.94778e-05
1.94777e-05
1.94778e-05
1.94777e-05
1.94778e-05
1.94777e-05
1.94777e-05
1.94778e-05
1.94777e-05
1.94778e-05
1.94777e-05
1.94778e-05
1.94776e-05
1.94778e-05
1.94775e-05
1.94777e-05
1.94772e-05
1.94777e-05
1.94769e-05
1.94776e-05
1.94766e-05
1.94776e-05
1.94764e-05
1.94781e-05
1.94765e-05
1.9479e-05
1.94762e-05
1.94771e-05
1.94665e-05
1.94369e-05
1.94128e-05
1.89253e-05
1.89494e-05
1.89802e-05
1.89911e-05
1.89905e-05
1.89931e-05
1.89906e-05
1.89921e-05
1.89904e-05
1.89916e-05
1.89906e-05
1.89915e-05
1.89909e-05
1.89916e-05
1.89912e-05
1.89917e-05
1.89914e-05
1.89918e-05
1.89916e-05
1.89918e-05
1.89916e-05
1.89917e-05
1.89917e-05
1.89917e-05
1.89917e-05
1.89917e-05
1.89917e-05
1.89917e-05
1.89917e-05
1.89916e-05
1.89918e-05
1.89916e-05
1.89918e-05
1.89914e-05
1.89917e-05
1.89912e-05
1.89916e-05
1.89909e-05
1.89915e-05
1.89906e-05
1.89916e-05
1.89904e-05
1.89921e-05
1.89906e-05
1.89931e-05
1.89905e-05
1.89911e-05
1.89802e-05
1.89494e-05
1.89254e-05
1.83639e-05
1.8388e-05
1.84199e-05
1.84312e-05
1.84309e-05
1.84334e-05
1.84308e-05
1.84322e-05
1.84304e-05
1.84316e-05
1.84306e-05
1.84316e-05
1.8431e-05
1.84317e-05
1.84313e-05
1.84318e-05
1.84315e-05
1.84318e-05
1.84317e-05
1.84318e-05
1.84317e-05
1.84318e-05
1.84317e-05
1.84318e-05
1.84317e-05
1.84317e-05
1.84318e-05
1.84317e-05
1.84318e-05
1.84317e-05
1.84318e-05
1.84316e-05
1.84318e-05
1.84315e-05
1.84318e-05
1.84313e-05
1.84317e-05
1.8431e-05
1.84316e-05
1.84306e-05
1.84316e-05
1.84304e-05
1.84322e-05
1.84308e-05
1.84334e-05
1.84309e-05
1.84312e-05
1.84199e-05
1.8388e-05
1.83639e-05
1.78275e-05
1.78519e-05
1.78847e-05
1.78965e-05
1.78964e-05
1.78988e-05
1.78962e-05
1.78974e-05
1.78957e-05
1.78968e-05
1.78958e-05
1.78967e-05
1.78962e-05
1.78969e-05
1.78965e-05
1.7897e-05
1.78968e-05
1.78971e-05
1.78969e-05
1.78971e-05
1.7897e-05
1.78971e-05
1.7897e-05
1.7897e-05
1.7897e-05
1.7897e-05
1.7897e-05
1.7897e-05
1.78971e-05
1.7897e-05
1.78971e-05
1.78969e-05
1.78971e-05
1.78968e-05
1.7897e-05
1.78965e-05
1.78969e-05
1.78962e-05
1.78967e-05
1.78958e-05
1.78968e-05
1.78957e-05
1.78974e-05
1.78962e-05
1.78988e-05
1.78965e-05
1.78965e-05
1.78847e-05
1.78519e-05
1.78275e-05
1.7348e-05
1.73729e-05
1.74065e-05
1.74188e-05
1.7419e-05
1.74212e-05
1.74185e-05
1.74196e-05
1.74179e-05
1.74189e-05
1.7418e-05
1.74189e-05
1.74184e-05
1.74191e-05
1.74187e-05
1.74192e-05
1.7419e-05
1.74193e-05
1.74191e-05
1.74193e-05
1.74192e-05
1.74193e-05
1.74192e-05
1.74192e-05
1.74192e-05
1.74192e-05
1.74192e-05
1.74192e-05
1.74193e-05
1.74192e-05
1.74193e-05
1.74191e-05
1.74193e-05
1.7419e-05
1.74192e-05
1.74187e-05
1.7419e-05
1.74183e-05
1.74189e-05
1.7418e-05
1.74189e-05
1.74179e-05
1.74197e-05
1.74186e-05
1.74212e-05
1.7419e-05
1.74188e-05
1.74065e-05
1.73729e-05
1.73481e-05
1.69223e-05
1.69476e-05
1.6982e-05
1.69948e-05
1.69953e-05
1.69974e-05
1.69946e-05
1.69956e-05
1.69938e-05
1.69947e-05
1.69938e-05
1.69947e-05
1.69942e-05
1.69949e-05
1.69946e-05
1.69951e-05
1.69949e-05
1.69952e-05
1.69951e-05
1.69952e-05
1.69951e-05
1.69952e-05
1.69951e-05
1.69952e-05
1.69951e-05
1.69951e-05
1.69951e-05
1.69951e-05
1.69952e-05
1.69951e-05
1.69952e-05
1.69951e-05
1.69952e-05
1.69949e-05
1.69951e-05
1.69946e-05
1.69949e-05
1.69942e-05
1.69947e-05
1.69938e-05
1.69947e-05
1.69938e-05
1.69956e-05
1.69946e-05
1.69974e-05
1.69953e-05
1.69948e-05
1.6982e-05
1.69476e-05
1.69223e-05
1.65249e-05
1.65508e-05
1.65855e-05
1.65987e-05
1.65994e-05
1.66013e-05
1.65985e-05
1.65993e-05
1.65975e-05
1.65983e-05
1.65974e-05
1.65983e-05
1.65979e-05
1.65986e-05
1.65983e-05
1.65988e-05
1.65986e-05
1.65989e-05
1.65988e-05
1.6599e-05
1.65988e-05
1.65989e-05
1.65988e-05
1.65989e-05
1.65988e-05
1.65988e-05
1.65989e-05
1.65988e-05
1.65989e-05
1.65988e-05
1.65989e-05
1.65988e-05
1.65989e-05
1.65986e-05
1.65988e-05
1.65983e-05
1.65986e-05
1.65979e-05
1.65983e-05
1.65974e-05
1.65984e-05
1.65975e-05
1.65993e-05
1.65985e-05
1.66013e-05
1.65995e-05
1.65987e-05
1.65855e-05
1.65508e-05
1.65249e-05
1.61783e-05
1.6205e-05
1.62402e-05
1.62539e-05
1.62548e-05
1.62566e-05
1.62537e-05
1.62543e-05
1.62524e-05
1.62532e-05
1.62523e-05
1.62532e-05
1.62527e-05
1.62535e-05
1.62532e-05
1.62537e-05
1.62536e-05
1.62539e-05
1.62537e-05
1.62539e-05
1.62538e-05
1.62539e-05
1.62538e-05
1.62538e-05
1.62538e-05
1.62538e-05
1.62538e-05
1.62538e-05
1.62539e-05
1.62538e-05
1.62539e-05
1.62537e-05
1.62539e-05
1.62536e-05
1.62537e-05
1.62532e-05
1.62534e-05
1.62527e-05
1.62532e-05
1.62523e-05
1.62532e-05
1.62524e-05
1.62543e-05
1.62537e-05
1.62566e-05
1.62548e-05
1.62539e-05
1.62402e-05
1.6205e-05
1.61783e-05
1.5859e-05
1.58853e-05
1.59197e-05
1.59334e-05
1.59347e-05
1.59362e-05
1.59333e-05
1.59337e-05
1.59318e-05
1.59324e-05
1.59316e-05
1.59324e-05
1.59321e-05
1.59328e-05
1.59326e-05
1.59331e-05
1.5933e-05
1.59334e-05
1.59333e-05
1.59334e-05
1.59333e-05
1.59334e-05
1.59334e-05
1.59334e-05
1.59334e-05
1.59334e-05
1.59334e-05
1.59334e-05
1.59334e-05
1.59333e-05
1.59334e-05
1.59333e-05
1.59334e-05
1.5933e-05
1.59331e-05
1.59326e-05
1.59328e-05
1.59321e-05
1.59324e-05
1.59316e-05
1.59324e-05
1.59318e-05
1.59337e-05
1.59333e-05
1.59362e-05
1.59347e-05
1.59334e-05
1.59197e-05
1.58854e-05
1.58591e-05
1.55517e-05
1.55788e-05
1.5613e-05
1.5627e-05
1.56285e-05
1.56298e-05
1.56268e-05
1.56269e-05
1.5625e-05
1.56256e-05
1.56248e-05
1.56255e-05
1.56252e-05
1.56259e-05
1.56258e-05
1.56264e-05
1.56263e-05
1.56266e-05
1.56265e-05
1.56267e-05
1.56266e-05
1.56267e-05
1.56266e-05
1.56267e-05
1.56267e-05
1.56267e-05
1.56267e-05
1.56266e-05
1.56267e-05
1.56266e-05
1.56267e-05
1.56265e-05
1.56266e-05
1.56263e-05
1.56263e-05
1.56258e-05
1.56259e-05
1.56252e-05
1.56255e-05
1.56248e-05
1.56256e-05
1.5625e-05
1.5627e-05
1.56268e-05
1.56298e-05
1.56285e-05
1.56271e-05
1.56131e-05
1.55788e-05
1.55517e-05
1.52743e-05
1.53025e-05
1.53368e-05
1.53511e-05
1.53527e-05
1.53538e-05
1.53507e-05
1.53506e-05
1.53486e-05
1.53491e-05
1.53483e-05
1.5349e-05
1.53488e-05
1.53495e-05
1.53494e-05
1.535e-05
1.53499e-05
1.53503e-05
1.53502e-05
1.53504e-05
1.53503e-05
1.53504e-05
1.53503e-05
1.53504e-05
1.53503e-05
1.53503e-05
1.53504e-05
1.53503e-05
1.53504e-05
1.53503e-05
1.53504e-05
1.53502e-05
1.53503e-05
1.53499e-05
1.535e-05
1.53494e-05
1.53495e-05
1.53488e-05
1.5349e-05
1.53483e-05
1.53491e-05
1.53486e-05
1.53507e-05
1.53507e-05
1.53538e-05
1.53527e-05
1.53512e-05
1.53368e-05
1.53025e-05
1.52744e-05
1.50126e-05
1.50337e-05
1.50685e-05
1.50832e-05
1.50847e-05
1.50856e-05
1.50821e-05
1.50818e-05
1.50797e-05
1.508e-05
1.50792e-05
1.50799e-05
1.50797e-05
1.50804e-05
1.50804e-05
1.50809e-05
1.50809e-05
1.50813e-05
1.50812e-05
1.50814e-05
1.50813e-05
1.50814e-05
1.50813e-05
1.50813e-05
1.50813e-05
1.50813e-05
1.50813e-05
1.50813e-05
1.50814e-05
1.50813e-05
1.50814e-05
1.50812e-05
1.50812e-05
1.50809e-05
1.50809e-05
1.50804e-05
1.50804e-05
1.50797e-05
1.50799e-05
1.50792e-05
1.50801e-05
1.50797e-05
1.50819e-05
1.50822e-05
1.50856e-05
1.50848e-05
1.50832e-05
1.50685e-05
1.50338e-05
1.50127e-05
1.47641e-05
1.47858e-05
1.48205e-05
1.48354e-05
1.4837e-05
1.48376e-05
1.4834e-05
1.48335e-05
1.48312e-05
1.48315e-05
1.48306e-05
1.48314e-05
1.48312e-05
1.48319e-05
1.48319e-05
1.48325e-05
1.48325e-05
1.48329e-05
1.48328e-05
1.4833e-05
1.48329e-05
1.4833e-05
1.48329e-05
1.4833e-05
1.48329e-05
1.48329e-05
1.4833e-05
1.48329e-05
1.4833e-05
1.48329e-05
1.4833e-05
1.48328e-05
1.48328e-05
1.48325e-05
1.48325e-05
1.48319e-05
1.48319e-05
1.48312e-05
1.48314e-05
1.48307e-05
1.48315e-05
1.48312e-05
1.48335e-05
1.4834e-05
1.48377e-05
1.4837e-05
1.48354e-05
1.48205e-05
1.47859e-05
1.47641e-05
1.45176e-05
1.45403e-05
1.45754e-05
1.45907e-05
1.45922e-05
1.45927e-05
1.45888e-05
1.45882e-05
1.45858e-05
1.4586e-05
1.45851e-05
1.45858e-05
1.45856e-05
1.45864e-05
1.45864e-05
1.4587e-05
1.4587e-05
1.45874e-05
1.45873e-05
1.45875e-05
1.45874e-05
1.45875e-05
1.45874e-05
1.45874e-05
1.45874e-05
1.45874e-05
1.45874e-05
1.45874e-05
1.45875e-05
1.45874e-05
1.45875e-05
1.45873e-05
1.45874e-05
1.4587e-05
1.4587e-05
1.45864e-05
1.45864e-05
1.45856e-05
1.45858e-05
1.45851e-05
1.4586e-05
1.45858e-05
1.45882e-05
1.45889e-05
1.45928e-05
1.45923e-05
1.45908e-05
1.45755e-05
1.45404e-05
1.45177e-05
1.4281e-05
1.4304e-05
1.43387e-05
1.4354e-05
1.43554e-05
1.43556e-05
1.43515e-05
1.43507e-05
1.43481e-05
1.43483e-05
1.43474e-05
1.43481e-05
1.43479e-05
1.43487e-05
1.43487e-05
1.43494e-05
1.43494e-05
1.43498e-05
1.43497e-05
1.43499e-05
1.43498e-05
1.43499e-05
1.43498e-05
1.43498e-05
1.43498e-05
1.43498e-05
1.43498e-05
1.43498e-05
1.43499e-05
1.43498e-05
1.43499e-05
1.43497e-05
1.43497e-05
1.43494e-05
1.43493e-05
1.43487e-05
1.43487e-05
1.43479e-05
1.43481e-05
1.43474e-05
1.43483e-05
1.43482e-05
1.43507e-05
1.43516e-05
1.43557e-05
1.43555e-05
1.4354e-05
1.43387e-05
1.43041e-05
1.4281e-05
1.40617e-05
1.40852e-05
1.41196e-05
1.41349e-05
1.41362e-05
1.41362e-05
1.41319e-05
1.41308e-05
1.41281e-05
1.41282e-05
1.41273e-05
1.4128e-05
1.41278e-05
1.41286e-05
1.41287e-05
1.41294e-05
1.41294e-05
1.41298e-05
1.41297e-05
1.41299e-05
1.41299e-05
1.41299e-05
1.41299e-05
1.41299e-05
1.41299e-05
1.41299e-05
1.41299e-05
1.41299e-05
1.41299e-05
1.41298e-05
1.41299e-05
1.41297e-05
1.41298e-05
1.41294e-05
1.41293e-05
1.41287e-05
1.41286e-05
1.41278e-05
1.4128e-05
1.41273e-05
1.41282e-05
1.41282e-05
1.41308e-05
1.41319e-05
1.41363e-05
1.41363e-05
1.41349e-05
1.41196e-05
1.40853e-05
1.40618e-05
1.38505e-05
1.38744e-05
1.39084e-05
1.39237e-05
1.39249e-05
1.39246e-05
1.392e-05
1.39187e-05
1.39159e-05
1.39159e-05
1.39149e-05
1.39157e-05
1.39155e-05
1.39164e-05
1.39165e-05
1.39171e-05
1.39172e-05
1.39176e-05
1.39176e-05
1.39178e-05
1.39177e-05
1.39178e-05
1.39177e-05
1.39177e-05
1.39177e-05
1.39177e-05
1.39177e-05
1.39177e-05
1.39178e-05
1.39177e-05
1.39178e-05
1.39175e-05
1.39176e-05
1.39172e-05
1.39171e-05
1.39164e-05
1.39164e-05
1.39155e-05
1.39157e-05
1.3915e-05
1.39159e-05
1.3916e-05
1.39187e-05
1.392e-05
1.39247e-05
1.39249e-05
1.39237e-05
1.39084e-05
1.38744e-05
1.38506e-05
1.36449e-05
1.36677e-05
1.37e-05
1.37146e-05
1.37156e-05
1.37147e-05
1.37097e-05
1.37079e-05
1.37049e-05
1.37047e-05
1.37037e-05
1.37044e-05
1.37043e-05
1.37052e-05
1.37054e-05
1.37062e-05
1.37063e-05
1.37068e-05
1.37069e-05
1.37071e-05
1.37071e-05
1.37072e-05
1.37071e-05
1.37072e-05
1.37072e-05
1.37072e-05
1.37072e-05
1.37071e-05
1.37072e-05
1.37071e-05
1.37071e-05
1.37068e-05
1.37068e-05
1.37063e-05
1.37061e-05
1.37054e-05
1.37052e-05
1.37043e-05
1.37044e-05
1.37037e-05
1.37047e-05
1.3705e-05
1.3708e-05
1.37097e-05
1.37148e-05
1.37157e-05
1.37147e-05
1.37e-05
1.36678e-05
1.3645e-05
1.34477e-05
1.34707e-05
1.35024e-05
1.35169e-05
1.35176e-05
1.35164e-05
1.35111e-05
1.35091e-05
1.35059e-05
1.35056e-05
1.35046e-05
1.35052e-05
1.35052e-05
1.35061e-05
1.35064e-05
1.35071e-05
1.35073e-05
1.35078e-05
1.35079e-05
1.35082e-05
1.35081e-05
1.35083e-05
1.35082e-05
1.35082e-05
1.35082e-05
1.35082e-05
1.35082e-05
1.35082e-05
1.35082e-05
1.35081e-05
1.35081e-05
1.35079e-05
1.35078e-05
1.35073e-05
1.35071e-05
1.35063e-05
1.35061e-05
1.35052e-05
1.35052e-05
1.35046e-05
1.35056e-05
1.3506e-05
1.35091e-05
1.35111e-05
1.35165e-05
1.35177e-05
1.3517e-05
1.35024e-05
1.34708e-05
1.34478e-05
1.32506e-05
1.3274e-05
1.33052e-05
1.33194e-05
1.33196e-05
1.33179e-05
1.3312e-05
1.33096e-05
1.33062e-05
1.33057e-05
1.33046e-05
1.33052e-05
1.33052e-05
1.33061e-05
1.33064e-05
1.33072e-05
1.33074e-05
1.33079e-05
1.3308e-05
1.33082e-05
1.33082e-05
1.33083e-05
1.33082e-05
1.33083e-05
1.33083e-05
1.33083e-05
1.33083e-05
1.33082e-05
1.33083e-05
1.33082e-05
1.33082e-05
1.33079e-05
1.33079e-05
1.33073e-05
1.33072e-05
1.33064e-05
1.33061e-05
1.33052e-05
1.33053e-05
1.33046e-05
1.33058e-05
1.33063e-05
1.33097e-05
1.33121e-05
1.3318e-05
1.33197e-05
1.33195e-05
1.33053e-05
1.32741e-05
1.32507e-05
1.30578e-05
1.30812e-05
1.31115e-05
1.31254e-05
1.31252e-05
1.31231e-05
1.31169e-05
1.31142e-05
1.31106e-05
1.311e-05
1.31089e-05
1.31095e-05
1.31095e-05
1.31104e-05
1.31107e-05
1.31115e-05
1.31117e-05
1.31123e-05
1.31124e-05
1.31126e-05
1.31126e-05
1.31127e-05
1.31127e-05
1.31127e-05
1.31127e-05
1.31127e-05
1.31127e-05
1.31127e-05
1.31127e-05
1.31126e-05
1.31126e-05
1.31123e-05
1.31122e-05
1.31117e-05
1.31115e-05
1.31107e-05
1.31104e-05
1.31095e-05
1.31095e-05
1.31089e-05
1.31101e-05
1.31107e-05
1.31143e-05
1.3117e-05
1.31232e-05
1.31253e-05
1.31255e-05
1.31116e-05
1.30813e-05
1.30579e-05
1.28703e-05
1.28935e-05
1.2923e-05
1.29364e-05
1.29358e-05
1.29333e-05
1.29267e-05
1.29238e-05
1.292e-05
1.29193e-05
1.29181e-05
1.29187e-05
1.29187e-05
1.29196e-05
1.292e-05
1.29208e-05
1.29211e-05
1.29216e-05
1.29217e-05
1.2922e-05
1.2922e-05
1.29221e-05
1.2922e-05
1.29221e-05
1.29221e-05
1.2922e-05
1.29221e-05
1.2922e-05
1.29221e-05
1.29219e-05
1.2922e-05
1.29217e-05
1.29216e-05
1.2921e-05
1.29208e-05
1.29199e-05
1.29196e-05
1.29186e-05
1.29187e-05
1.29181e-05
1.29193e-05
1.29201e-05
1.29238e-05
1.29268e-05
1.29334e-05
1.29359e-05
1.29365e-05
1.29231e-05
1.28936e-05
1.28704e-05
1.26876e-05
1.27108e-05
1.27392e-05
1.27521e-05
1.27511e-05
1.27481e-05
1.27412e-05
1.27379e-05
1.2734e-05
1.27331e-05
1.27319e-05
1.27325e-05
1.27325e-05
1.27335e-05
1.27338e-05
1.27347e-05
1.2735e-05
1.27356e-05
1.27357e-05
1.2736e-05
1.2736e-05
1.27361e-05
1.2736e-05
1.27361e-05
1.2736e-05
1.2736e-05
1.27361e-05
1.2736e-05
1.27361e-05
1.27359e-05
1.27359e-05
1.27356e-05
1.27355e-05
1.2735e-05
1.27347e-05
1.27338e-05
1.27335e-05
1.27325e-05
1.27325e-05
1.27319e-05
1.27332e-05
1.27341e-05
1.2738e-05
1.27413e-05
1.27482e-05
1.27513e-05
1.27523e-05
1.27393e-05
1.27109e-05
1.26877e-05
1.25096e-05
1.25326e-05
1.256e-05
1.25723e-05
1.25709e-05
1.25674e-05
1.25601e-05
1.25565e-05
1.25524e-05
1.25514e-05
1.25501e-05
1.25506e-05
1.25506e-05
1.25517e-05
1.25521e-05
1.2553e-05
1.25533e-05
1.25539e-05
1.2554e-05
1.25543e-05
1.25543e-05
1.25544e-05
1.25544e-05
1.25544e-05
1.25544e-05
1.25544e-05
1.25544e-05
1.25544e-05
1.25544e-05
1.25543e-05
1.25543e-05
1.2554e-05
1.25538e-05
1.25532e-05
1.25529e-05
1.2552e-05
1.25516e-05
1.25506e-05
1.25506e-05
1.25501e-05
1.25514e-05
1.25524e-05
1.25566e-05
1.25602e-05
1.25675e-05
1.2571e-05
1.25725e-05
1.25601e-05
1.25327e-05
1.25097e-05
1.23359e-05
1.23587e-05
1.2385e-05
1.23968e-05
1.23948e-05
1.23908e-05
1.23831e-05
1.23792e-05
1.23748e-05
1.23737e-05
1.23723e-05
1.23729e-05
1.23729e-05
1.23739e-05
1.23744e-05
1.23753e-05
1.23757e-05
1.23763e-05
1.23764e-05
1.23767e-05
1.23768e-05
1.23769e-05
1.23768e-05
1.23769e-05
1.23768e-05
1.23768e-05
1.23769e-05
1.23768e-05
1.23768e-05
1.23767e-05
1.23767e-05
1.23764e-05
1.23762e-05
1.23756e-05
1.23753e-05
1.23744e-05
1.23739e-05
1.23729e-05
1.23729e-05
1.23724e-05
1.23737e-05
1.23749e-05
1.23792e-05
1.23832e-05
1.23909e-05
1.23949e-05
1.23969e-05
1.23852e-05
1.23589e-05
1.2336e-05
1.21664e-05
1.2189e-05
1.22141e-05
1.22252e-05
1.22226e-05
1.22181e-05
1.221e-05
1.22057e-05
1.22012e-05
1.21999e-05
1.21985e-05
1.2199e-05
1.21991e-05
1.22001e-05
1.22006e-05
1.22016e-05
1.2202e-05
1.22026e-05
1.22028e-05
1.22031e-05
1.22031e-05
1.22032e-05
1.22032e-05
1.22032e-05
1.22032e-05
1.22032e-05
1.22032e-05
1.22032e-05
1.22032e-05
1.22031e-05
1.2203e-05
1.22027e-05
1.22025e-05
1.22019e-05
1.22015e-05
1.22006e-05
1.22001e-05
1.21991e-05
1.2199e-05
1.21985e-05
1.22e-05
1.22013e-05
1.22058e-05
1.22101e-05
1.22182e-05
1.22228e-05
1.22254e-05
1.22143e-05
1.21891e-05
1.21665e-05
1.20009e-05
1.20231e-05
1.20471e-05
1.20575e-05
1.20543e-05
1.20492e-05
1.20407e-05
1.2036e-05
1.20313e-05
1.20299e-05
1.20284e-05
1.20289e-05
1.20289e-05
1.203e-05
1.20305e-05
1.20315e-05
1.20319e-05
1.20326e-05
1.20328e-05
1.20331e-05
1.20331e-05
1.20333e-05
1.20332e-05
1.20333e-05
1.20332e-05
1.20332e-05
1.20333e-05
1.20332e-05
1.20332e-05
1.20331e-05
1.20331e-05
1.20327e-05
1.20325e-05
1.20319e-05
1.20315e-05
1.20305e-05
1.203e-05
1.20289e-05
1.20289e-05
1.20284e-05
1.20299e-05
1.20314e-05
1.20361e-05
1.20408e-05
1.20493e-05
1.20544e-05
1.20576e-05
1.20472e-05
1.20232e-05
1.20011e-05
1.18393e-05
1.1861e-05
1.18838e-05
1.18933e-05
1.18895e-05
1.18839e-05
1.18749e-05
1.18699e-05
1.18649e-05
1.18634e-05
1.18618e-05
1.18622e-05
1.18623e-05
1.18634e-05
1.1864e-05
1.1865e-05
1.18655e-05
1.18661e-05
1.18663e-05
1.18667e-05
1.18667e-05
1.18669e-05
1.18668e-05
1.18669e-05
1.18668e-05
1.18668e-05
1.18668e-05
1.18668e-05
1.18668e-05
1.18667e-05
1.18666e-05
1.18663e-05
1.18661e-05
1.18654e-05
1.1865e-05
1.1864e-05
1.18634e-05
1.18623e-05
1.18623e-05
1.18618e-05
1.18634e-05
1.1865e-05
1.187e-05
1.1875e-05
1.1884e-05
1.18897e-05
1.18935e-05
1.18839e-05
1.18611e-05
1.18394e-05
1.16812e-05
1.17024e-05
1.1724e-05
1.17327e-05
1.17282e-05
1.17219e-05
1.17125e-05
1.17071e-05
1.1702e-05
1.17002e-05
1.16986e-05
1.1699e-05
1.16991e-05
1.17002e-05
1.17008e-05
1.17019e-05
1.17023e-05
1.1703e-05
1.17033e-05
1.17036e-05
1.17037e-05
1.17038e-05
1.17038e-05
1.17038e-05
1.17038e-05
1.17038e-05
1.17038e-05
1.17037e-05
1.17038e-05
1.17036e-05
1.17036e-05
1.17032e-05
1.1703e-05
1.17023e-05
1.17018e-05
1.17008e-05
1.17002e-05
1.16991e-05
1.1699e-05
1.16986e-05
1.17003e-05
1.1702e-05
1.17072e-05
1.17126e-05
1.17221e-05
1.17284e-05
1.17329e-05
1.17241e-05
1.17026e-05
1.16813e-05
1.15266e-05
1.15473e-05
1.15675e-05
1.15754e-05
1.15702e-05
1.15633e-05
1.15534e-05
1.15476e-05
1.15422e-05
1.15403e-05
1.15386e-05
1.1539e-05
1.15391e-05
1.15402e-05
1.15409e-05
1.15419e-05
1.15425e-05
1.15432e-05
1.15434e-05
1.15438e-05
1.15438e-05
1.1544e-05
1.1544e-05
1.1544e-05
1.1544e-05
1.1544e-05
1.1544e-05
1.15439e-05
1.15439e-05
1.15438e-05
1.15437e-05
1.15434e-05
1.15431e-05
1.15424e-05
1.15419e-05
1.15408e-05
1.15402e-05
1.15391e-05
1.1539e-05
1.15387e-05
1.15404e-05
1.15423e-05
1.15478e-05
1.15535e-05
1.15635e-05
1.15703e-05
1.15756e-05
1.15677e-05
1.15474e-05
1.15267e-05
1.13753e-05
1.13954e-05
1.14144e-05
1.14214e-05
1.14153e-05
1.14078e-05
1.13974e-05
1.13912e-05
1.13856e-05
1.13835e-05
1.13818e-05
1.13821e-05
1.13822e-05
1.13834e-05
1.1384e-05
1.13851e-05
1.13857e-05
1.13864e-05
1.13867e-05
1.13871e-05
1.13871e-05
1.13873e-05
1.13872e-05
1.13873e-05
1.13873e-05
1.13872e-05
1.13873e-05
1.13872e-05
1.13872e-05
1.13871e-05
1.1387e-05
1.13866e-05
1.13863e-05
1.13856e-05
1.13851e-05
1.1384e-05
1.13833e-05
1.13822e-05
1.13821e-05
1.13818e-05
1.13836e-05
1.13857e-05
1.13914e-05
1.13975e-05
1.1408e-05
1.14155e-05
1.14216e-05
1.14146e-05
1.13956e-05
1.13755e-05
1.12272e-05
1.12468e-05
1.12643e-05
1.12704e-05
1.12635e-05
1.12553e-05
1.12444e-05
1.12379e-05
1.1232e-05
1.12297e-05
1.12279e-05
1.12281e-05
1.12283e-05
1.12294e-05
1.12301e-05
1.12313e-05
1.12318e-05
1.12326e-05
1.12329e-05
1.12333e-05
1.12334e-05
1.12335e-05
1.12335e-05
1.12335e-05
1.12335e-05
1.12335e-05
1.12335e-05
1.12335e-05
1.12335e-05
1.12333e-05
1.12332e-05
1.12328e-05
1.12325e-05
1.12318e-05
1.12312e-05
1.12301e-05
1.12294e-05
1.12283e-05
1.12282e-05
1.12279e-05
1.12298e-05
1.12321e-05
1.1238e-05
1.12446e-05
1.12555e-05
1.12637e-05
1.12706e-05
1.12646e-05
1.1247e-05
1.12274e-05
1.10822e-05
1.11011e-05
1.11173e-05
1.11224e-05
1.11146e-05
1.11057e-05
1.10943e-05
1.10873e-05
1.10812e-05
1.10787e-05
1.10768e-05
1.10771e-05
1.10772e-05
1.10784e-05
1.10791e-05
1.10803e-05
1.10809e-05
1.10817e-05
1.1082e-05
1.10824e-05
1.10825e-05
1.10826e-05
1.10826e-05
1.10826e-05
1.10826e-05
1.10826e-05
1.10826e-05
1.10826e-05
1.10826e-05
1.10824e-05
1.10823e-05
1.10819e-05
1.10816e-05
1.10808e-05
1.10802e-05
1.10791e-05
1.10784e-05
1.10772e-05
1.10771e-05
1.10769e-05
1.10788e-05
1.10813e-05
1.10875e-05
1.10945e-05
1.11059e-05
1.11149e-05
1.11226e-05
1.11175e-05
1.11013e-05
1.10824e-05
1.09402e-05
1.09584e-05
1.09732e-05
1.09772e-05
1.09686e-05
1.09589e-05
1.0947e-05
1.09396e-05
1.09332e-05
1.09305e-05
1.09285e-05
1.09287e-05
1.09289e-05
1.09301e-05
1.09308e-05
1.0932e-05
1.09327e-05
1.09335e-05
1.09338e-05
1.09342e-05
1.09343e-05
1.09345e-05
1.09345e-05
1.09345e-05
1.09345e-05
1.09345e-05
1.09345e-05
1.09344e-05
1.09344e-05
1.09343e-05
1.09342e-05
1.09337e-05
1.09334e-05
1.09326e-05
1.0932e-05
1.09308e-05
1.09301e-05
1.09289e-05
1.09288e-05
1.09286e-05
1.09306e-05
1.09333e-05
1.09397e-05
1.09471e-05
1.09591e-05
1.09688e-05
1.09774e-05
1.09734e-05
1.09586e-05
1.09404e-05
1.0801e-05
1.08185e-05
1.08318e-05
1.08348e-05
1.08252e-05
1.08148e-05
1.08023e-05
1.07945e-05
1.07878e-05
1.0785e-05
1.07829e-05
1.0783e-05
1.07832e-05
1.07844e-05
1.07852e-05
1.07864e-05
1.07871e-05
1.07879e-05
1.07883e-05
1.07887e-05
1.07888e-05
1.0789e-05
1.0789e-05
1.0789e-05
1.0789e-05
1.0789e-05
1.0789e-05
1.07889e-05
1.07889e-05
1.07887e-05
1.07886e-05
1.07882e-05
1.07878e-05
1.0787e-05
1.07864e-05
1.07852e-05
1.07844e-05
1.07832e-05
1.07831e-05
1.0783e-05
1.07851e-05
1.07879e-05
1.07946e-05
1.08025e-05
1.0815e-05
1.08255e-05
1.0835e-05
1.08321e-05
1.08187e-05
1.08012e-05
)
;

boundaryField
{
    fuel
    {
        type            fixedValue;
        value           uniform 0;
    }
    wall
    {
        type            zeroGradient;
    }
    outlet
    {
        type            zeroGradient;
    }
    frontAndBack
    {
        type            empty;
    }
    procBoundary1to0
    {
        type            processor;
        value           nonuniform List<scalar> 
50
(
1.06646e-05
1.06813e-05
1.06932e-05
1.0695e-05
1.06845e-05
1.06732e-05
1.06602e-05
1.06519e-05
1.0645e-05
1.0642e-05
1.06398e-05
1.06399e-05
1.064e-05
1.06413e-05
1.06421e-05
1.06433e-05
1.0644e-05
1.06449e-05
1.06453e-05
1.06457e-05
1.06458e-05
1.0646e-05
1.0646e-05
1.0646e-05
1.0646e-05
1.0646e-05
1.0646e-05
1.06459e-05
1.06459e-05
1.06458e-05
1.06456e-05
1.06452e-05
1.06448e-05
1.0644e-05
1.06433e-05
1.06421e-05
1.06413e-05
1.064e-05
1.06399e-05
1.06399e-05
1.06421e-05
1.06451e-05
1.06521e-05
1.06604e-05
1.06735e-05
1.06847e-05
1.06952e-05
1.06934e-05
1.06816e-05
1.06648e-05
)
;
    }
}


// ************************************************************************* //
