/*--------------------------------*- C++ -*----------------------------------*\
| =========                 |                                                 |
| \\      /  F ield         | OpenFOAM: The Open Source CFD Toolbox           |
|  \\    /   O peration     | Version:  dev                                   |
|   \\  /    A nd           | Web:      www.OpenFOAM.org                      |
|    \\/     M anipulation  |                                                 |
\*---------------------------------------------------------------------------*/
FoamFile
{
    version     2.0;
    format      ascii;
    class       volScalarField;
    location    "0.02";
    object      HCCOH;
}
// * * * * * * * * * * * * * * * * * * * * * * * * * * * * * * * * * * * * * //

dimensions      [0 0 0 0 0 0 0];

internalField   nonuniform List<scalar> 
250
(
2.02599e-06
2.0416e-06
1.7984e-06
1.79235e-06
1.71976e-06
1.65418e-06
1.64304e-06
1.58082e-06
1.59677e-06
1.55245e-06
1.62047e-06
1.63026e-06
1.42521e-06
1.42602e-06
1.36839e-06
1.31551e-06
1.30952e-06
1.25754e-06
1.27414e-06
1.23516e-06
1.23535e-06
1.27343e-06
1.25719e-06
1.30877e-06
1.31691e-06
1.37072e-06
1.43169e-06
1.43173e-06
1.63747e-06
1.62638e-06
1.25893e-06
1.26147e-06
1.09398e-06
1.09734e-06
1.05191e-06
1.00977e-06
1.00674e-06
9.64504e-07
9.80247e-07
9.47196e-07
9.47371e-07
9.79676e-07
9.6426e-07
1.00621e-06
1.01108e-06
1.05409e-06
1.1022e-06
1.09956e-06
1.26775e-06
1.26406e-06
9.53449e-07
9.47747e-07
8.14759e-07
8.16466e-07
7.79767e-07
7.45574e-07
7.43162e-07
7.0965e-07
7.23082e-07
6.96199e-07
6.96353e-07
7.22643e-07
7.09488e-07
7.42791e-07
7.4669e-07
7.81583e-07
8.2037e-07
8.19224e-07
9.52836e-07
9.576e-07
7.12078e-07
6.97947e-07
5.94122e-07
5.86201e-07
5.55043e-07
5.29525e-07
5.25394e-07
4.99134e-07
5.09081e-07
4.8816e-07
4.88284e-07
5.08756e-07
4.99022e-07
5.2513e-07
5.30375e-07
5.56393e-07
5.89059e-07
5.97387e-07
7.0174e-07
7.15173e-07
5.3611e-07
5.14568e-07
4.33395e-07
4.17269e-07
3.85873e-07
3.6203e-07
3.56836e-07
3.36032e-07
3.41816e-07
3.26201e-07
3.26291e-07
3.41582e-07
3.3594e-07
3.56631e-07
3.62577e-07
3.86757e-07
4.1915e-07
4.35549e-07
5.17154e-07
5.38252e-07
4.18691e-07
3.92038e-07
3.26977e-07
3.0228e-07
2.70379e-07
2.46068e-07
2.36492e-07
2.19264e-07
2.20857e-07
2.09516e-07
2.09571e-07
2.20689e-07
2.19171e-07
2.36307e-07
2.46348e-07
2.70858e-07
3.03378e-07
3.28275e-07
3.93697e-07
4.20139e-07
3.46222e-07
3.17521e-07
2.63376e-07
2.31863e-07
1.98237e-07
1.72211e-07
1.58476e-07
1.43195e-07
1.41226e-07
1.32934e-07
1.3296e-07
1.41101e-07
1.43093e-07
1.58296e-07
1.72292e-07
1.98436e-07
2.32456e-07
2.64162e-07
3.18636e-07
3.47304e-07
3.0258e-07
2.74666e-07
2.28196e-07
1.92816e-07
1.57732e-07
1.29842e-07
1.12963e-07
9.85221e-08
9.40636e-08
8.76626e-08
8.76687e-08
9.39646e-08
9.8414e-08
1.12788e-07
1.29815e-07
1.57793e-07
1.93178e-07
2.28788e-07
2.7559e-07
3.03578e-07
2.74527e-07
2.4909e-07
2.0861e-07
1.72087e-07
1.36591e-07
1.07478e-07
8.87778e-08
7.46763e-08
6.88567e-08
6.34874e-08
6.34826e-08
6.87738e-08
7.457e-08
8.86193e-08
1.07421e-07
1.3663e-07
1.72415e-07
2.09212e-07
2.5004e-07
2.75598e-07
2.54881e-07
2.32272e-07
1.9667e-07
1.60598e-07
1.25592e-07
9.60466e-08
7.66073e-08
6.2735e-08
5.63873e-08
5.15401e-08
5.1531e-08
5.6316e-08
6.26382e-08
7.64754e-08
9.60076e-08
1.25675e-07
1.60988e-07
1.97367e-07
2.33328e-07
2.56073e-07
2.40923e-07
2.20678e-07
1.88774e-07
1.53662e-07
1.19468e-07
8.99601e-08
7.03605e-08
5.66988e-08
5.02559e-08
4.56688e-08
4.56588e-08
5.01935e-08
5.66141e-08
7.02574e-08
8.9957e-08
1.19614e-07
1.54137e-07
1.89579e-07
2.21847e-07
2.42231e-07
2.32204e-07
2.13534e-07
1.83956e-07
1.49648e-07
1.16086e-07
8.6729e-08
6.71319e-08
5.36239e-08
4.72e-08
4.27472e-08
4.27373e-08
4.71436e-08
5.35483e-08
6.70499e-08
8.67551e-08
1.16282e-07
1.50186e-07
1.84839e-07
2.1478e-07
2.3359e-07
)
;

boundaryField
{
    fuel
    {
        type            fixedValue;
        value           nonuniform 0();
    }
    wall
    {
        type            zeroGradient;
    }
    outlet
    {
        type            zeroGradient;
    }
    frontAndBack
    {
        type            empty;
    }
    procBoundary1to0
    {
        type            processor;
        value           nonuniform List<scalar> 
21
(
2.46187e-06
2.48176e-06
2.20203e-06
2.18521e-06
2.09579e-06
2.01631e-06
1.99824e-06
1.92573e-06
1.93962e-06
1.89085e-06
1.55262e-06
1.55262e-06
1.59589e-06
1.58029e-06
1.64202e-06
1.65552e-06
1.72223e-06
1.79837e-06
1.80558e-06
2.04933e-06
2.03224e-06
)
;
    }
}


// ************************************************************************* //
