/*--------------------------------*- C++ -*----------------------------------*\
| =========                 |                                                 |
| \\      /  F ield         | OpenFOAM: The Open Source CFD Toolbox           |
|  \\    /   O peration     | Version:  dev                                   |
|   \\  /    A nd           | Web:      www.OpenFOAM.org                      |
|    \\/     M anipulation  |                                                 |
\*---------------------------------------------------------------------------*/
FoamFile
{
    version     2.0;
    format      ascii;
    class       volScalarField;
    location    "0.02";
    object      i-A1C2H2;
}
// * * * * * * * * * * * * * * * * * * * * * * * * * * * * * * * * * * * * * //

dimensions      [0 0 0 0 0 0 0];

internalField   nonuniform List<scalar> 
2000
(
2.20141e-08
2.20081e-08
2.20114e-08
2.20094e-08
2.20089e-08
2.20079e-08
2.20079e-08
2.20076e-08
2.20078e-08
2.20077e-08
2.20078e-08
2.20077e-08
2.20078e-08
2.20076e-08
2.20075e-08
2.20073e-08
2.20072e-08
2.2007e-08
2.20069e-08
2.20067e-08
2.20066e-08
2.20065e-08
2.20064e-08
2.20063e-08
2.20063e-08
2.20063e-08
2.20063e-08
2.20064e-08
2.20065e-08
2.20066e-08
2.20067e-08
2.20068e-08
2.2007e-08
2.20072e-08
2.20073e-08
2.20075e-08
2.20076e-08
2.20077e-08
2.20077e-08
2.20078e-08
2.20077e-08
2.20078e-08
2.20076e-08
2.20079e-08
2.20079e-08
2.20089e-08
2.20094e-08
2.20114e-08
2.20081e-08
2.20141e-08
1.62226e-08
1.62071e-08
1.61941e-08
1.6186e-08
1.61843e-08
1.61827e-08
1.61831e-08
1.61827e-08
1.61832e-08
1.61829e-08
1.61832e-08
1.61829e-08
1.61829e-08
1.61826e-08
1.61825e-08
1.61822e-08
1.6182e-08
1.61817e-08
1.61816e-08
1.61814e-08
1.61812e-08
1.61811e-08
1.6181e-08
1.6181e-08
1.61809e-08
1.61809e-08
1.6181e-08
1.6181e-08
1.61811e-08
1.61812e-08
1.61814e-08
1.61816e-08
1.61817e-08
1.6182e-08
1.61821e-08
1.61825e-08
1.61826e-08
1.61829e-08
1.61829e-08
1.61832e-08
1.61829e-08
1.61832e-08
1.61826e-08
1.61831e-08
1.61827e-08
1.61843e-08
1.6186e-08
1.61941e-08
1.62071e-08
1.62226e-08
1.10909e-08
1.10814e-08
1.10732e-08
1.10678e-08
1.10663e-08
1.10654e-08
1.10655e-08
1.10653e-08
1.10656e-08
1.10655e-08
1.10656e-08
1.10655e-08
1.10654e-08
1.10652e-08
1.10651e-08
1.10649e-08
1.10648e-08
1.10646e-08
1.10645e-08
1.10643e-08
1.10642e-08
1.10641e-08
1.10641e-08
1.1064e-08
1.1064e-08
1.1064e-08
1.1064e-08
1.10641e-08
1.10641e-08
1.10642e-08
1.10643e-08
1.10645e-08
1.10646e-08
1.10648e-08
1.10649e-08
1.10651e-08
1.10652e-08
1.10654e-08
1.10654e-08
1.10656e-08
1.10655e-08
1.10655e-08
1.10653e-08
1.10654e-08
1.10654e-08
1.10662e-08
1.10678e-08
1.10732e-08
1.10814e-08
1.10909e-08
7.75995e-09
7.75338e-09
7.74794e-09
7.74384e-09
7.74239e-09
7.74188e-09
7.74179e-09
7.74184e-09
7.74191e-09
7.74196e-09
7.74196e-09
7.74192e-09
7.74184e-09
7.74173e-09
7.7416e-09
7.74146e-09
7.74133e-09
7.7412e-09
7.74108e-09
7.74098e-09
7.74089e-09
7.74082e-09
7.74077e-09
7.74074e-09
7.74072e-09
7.74072e-09
7.74074e-09
7.74077e-09
7.74082e-09
7.74089e-09
7.74098e-09
7.74108e-09
7.74119e-09
7.74132e-09
7.74145e-09
7.74159e-09
7.74171e-09
7.74182e-09
7.7419e-09
7.74194e-09
7.74194e-09
7.74189e-09
7.74182e-09
7.74177e-09
7.74187e-09
7.74238e-09
7.74383e-09
7.74794e-09
7.75338e-09
7.75995e-09
5.4428e-09
5.43807e-09
5.4347e-09
5.43157e-09
5.43029e-09
5.42999e-09
5.42982e-09
5.42994e-09
5.42994e-09
5.43003e-09
5.42999e-09
5.42999e-09
5.4299e-09
5.42983e-09
5.42971e-09
5.42961e-09
5.42948e-09
5.42939e-09
5.42928e-09
5.4292e-09
5.42913e-09
5.42907e-09
5.42903e-09
5.429e-09
5.42899e-09
5.42899e-09
5.429e-09
5.42903e-09
5.42907e-09
5.42913e-09
5.4292e-09
5.42928e-09
5.42938e-09
5.42948e-09
5.4296e-09
5.4297e-09
5.42982e-09
5.42989e-09
5.42998e-09
5.42998e-09
5.43002e-09
5.42992e-09
5.42993e-09
5.4298e-09
5.42997e-09
5.43028e-09
5.43156e-09
5.43469e-09
5.43807e-09
5.4428e-09
3.86873e-09
3.86537e-09
3.86364e-09
3.86133e-09
3.86025e-09
3.86007e-09
3.85986e-09
3.86003e-09
3.85997e-09
3.8601e-09
3.86003e-09
3.86006e-09
3.85996e-09
3.85993e-09
3.85981e-09
3.85974e-09
3.85963e-09
3.85956e-09
3.85946e-09
3.8594e-09
3.85933e-09
3.85929e-09
3.85925e-09
3.85923e-09
3.85921e-09
3.85921e-09
3.85923e-09
3.85925e-09
3.85929e-09
3.85933e-09
3.8594e-09
3.85946e-09
3.85955e-09
3.85962e-09
3.85974e-09
3.8598e-09
3.85992e-09
3.85995e-09
3.86005e-09
3.86002e-09
3.86008e-09
3.85996e-09
3.86001e-09
3.85985e-09
3.86006e-09
3.86024e-09
3.86132e-09
3.86364e-09
3.86537e-09
3.86872e-09
2.815e-09
2.8127e-09
2.81217e-09
2.8105e-09
2.80959e-09
2.80951e-09
2.80928e-09
2.80946e-09
2.80938e-09
2.80952e-09
2.80944e-09
2.80949e-09
2.80939e-09
2.80938e-09
2.80926e-09
2.80922e-09
2.80911e-09
2.80906e-09
2.80897e-09
2.80892e-09
2.80886e-09
2.80883e-09
2.80879e-09
2.80877e-09
2.80876e-09
2.80876e-09
2.80877e-09
2.80879e-09
2.80883e-09
2.80886e-09
2.80892e-09
2.80897e-09
2.80905e-09
2.80911e-09
2.80921e-09
2.80926e-09
2.80937e-09
2.80938e-09
2.80948e-09
2.80943e-09
2.8095e-09
2.80937e-09
2.80945e-09
2.80927e-09
2.8095e-09
2.80958e-09
2.81049e-09
2.81217e-09
2.81269e-09
2.815e-09
2.09757e-09
2.09605e-09
2.09636e-09
2.09518e-09
2.09441e-09
2.0944e-09
2.09416e-09
2.09435e-09
2.09425e-09
2.09439e-09
2.09431e-09
2.09437e-09
2.09427e-09
2.09427e-09
2.09417e-09
2.09414e-09
2.09404e-09
2.094e-09
2.09392e-09
2.09388e-09
2.09383e-09
2.0938e-09
2.09376e-09
2.09375e-09
2.09374e-09
2.09374e-09
2.09375e-09
2.09376e-09
2.0938e-09
2.09382e-09
2.09388e-09
2.09392e-09
2.094e-09
2.09404e-09
2.09413e-09
2.09416e-09
2.09426e-09
2.09426e-09
2.09436e-09
2.0943e-09
2.09438e-09
2.09424e-09
2.09434e-09
2.09415e-09
2.09439e-09
2.09441e-09
2.09518e-09
2.09636e-09
2.09605e-09
2.09757e-09
1.59916e-09
1.59824e-09
1.5991e-09
1.59829e-09
1.59764e-09
1.59767e-09
1.59743e-09
1.59762e-09
1.59751e-09
1.59765e-09
1.59757e-09
1.59763e-09
1.59754e-09
1.59755e-09
1.59746e-09
1.59744e-09
1.59735e-09
1.59731e-09
1.59724e-09
1.59721e-09
1.59716e-09
1.59714e-09
1.5971e-09
1.59709e-09
1.59708e-09
1.59708e-09
1.59709e-09
1.5971e-09
1.59714e-09
1.59716e-09
1.59721e-09
1.59724e-09
1.59731e-09
1.59734e-09
1.59743e-09
1.59745e-09
1.59755e-09
1.59753e-09
1.59763e-09
1.59756e-09
1.59764e-09
1.5975e-09
1.59761e-09
1.59742e-09
1.59766e-09
1.59764e-09
1.59829e-09
1.5991e-09
1.59824e-09
1.59915e-09
1.24578e-09
1.24533e-09
1.24656e-09
1.24603e-09
1.24548e-09
1.24554e-09
1.2453e-09
1.24548e-09
1.24537e-09
1.24551e-09
1.24543e-09
1.2455e-09
1.24541e-09
1.24543e-09
1.24534e-09
1.24533e-09
1.24525e-09
1.24522e-09
1.24515e-09
1.24513e-09
1.24508e-09
1.24506e-09
1.24503e-09
1.24502e-09
1.24501e-09
1.24501e-09
1.24502e-09
1.24503e-09
1.24506e-09
1.24508e-09
1.24512e-09
1.24515e-09
1.24522e-09
1.24524e-09
1.24532e-09
1.24534e-09
1.24542e-09
1.24541e-09
1.24549e-09
1.24542e-09
1.2455e-09
1.24536e-09
1.24548e-09
1.24529e-09
1.24553e-09
1.24548e-09
1.24603e-09
1.24655e-09
1.24533e-09
1.24578e-09
9.90007e-10
9.89947e-10
9.91408e-10
9.91105e-10
9.90633e-10
9.90712e-10
9.90474e-10
9.90655e-10
9.9054e-10
9.9068e-10
9.90598e-10
9.90672e-10
9.9059e-10
9.90612e-10
9.90528e-10
9.90519e-10
9.90443e-10
9.90422e-10
9.90359e-10
9.90337e-10
9.90292e-10
9.90275e-10
9.90248e-10
9.9024e-10
9.90231e-10
9.90231e-10
9.9024e-10
9.90248e-10
9.90275e-10
9.90291e-10
9.90336e-10
9.90358e-10
9.9042e-10
9.9044e-10
9.90515e-10
9.90523e-10
9.90606e-10
9.90583e-10
9.90665e-10
9.90591e-10
9.90673e-10
9.90532e-10
9.90648e-10
9.90467e-10
9.90706e-10
9.90628e-10
9.91102e-10
9.91406e-10
9.89946e-10
9.90005e-10
7.93777e-10
7.93975e-10
7.95415e-10
7.95239e-10
7.94836e-10
7.94915e-10
7.94696e-10
7.94861e-10
7.94755e-10
7.94885e-10
7.9481e-10
7.9488e-10
7.94805e-10
7.94827e-10
7.94751e-10
7.94743e-10
7.94674e-10
7.94654e-10
7.94597e-10
7.94576e-10
7.94534e-10
7.94519e-10
7.94494e-10
7.94486e-10
7.94478e-10
7.94478e-10
7.94486e-10
7.94494e-10
7.94519e-10
7.94534e-10
7.94575e-10
7.94595e-10
7.94652e-10
7.94671e-10
7.94739e-10
7.94746e-10
7.94821e-10
7.94799e-10
7.94873e-10
7.94803e-10
7.94878e-10
7.94748e-10
7.94855e-10
7.9469e-10
7.9491e-10
7.94831e-10
7.95236e-10
7.95413e-10
7.93975e-10
7.93775e-10
6.51323e-10
6.51818e-10
6.53347e-10
6.53302e-10
6.52948e-10
6.53039e-10
6.52825e-10
6.52986e-10
6.52881e-10
6.53008e-10
6.52936e-10
6.53006e-10
6.52935e-10
6.52959e-10
6.52887e-10
6.52882e-10
6.52816e-10
6.528e-10
6.52745e-10
6.52726e-10
6.52686e-10
6.52672e-10
6.52648e-10
6.52641e-10
6.52633e-10
6.52633e-10
6.52641e-10
6.52648e-10
6.52672e-10
6.52686e-10
6.52725e-10
6.52743e-10
6.52797e-10
6.52813e-10
6.52878e-10
6.52882e-10
6.52953e-10
6.52929e-10
6.52999e-10
6.52929e-10
6.53001e-10
6.52875e-10
6.5298e-10
6.5282e-10
6.53034e-10
6.52944e-10
6.533e-10
6.53346e-10
6.51818e-10
6.51322e-10
5.41794e-10
5.4215e-10
5.43291e-10
5.43239e-10
5.42997e-10
5.43055e-10
5.42898e-10
5.43013e-10
5.42938e-10
5.4303e-10
5.42981e-10
5.43032e-10
5.42982e-10
5.42999e-10
5.42948e-10
5.42944e-10
5.42895e-10
5.42882e-10
5.42842e-10
5.42828e-10
5.42798e-10
5.42788e-10
5.4277e-10
5.42764e-10
5.42758e-10
5.42758e-10
5.42764e-10
5.4277e-10
5.42787e-10
5.42798e-10
5.42827e-10
5.42841e-10
5.42881e-10
5.42893e-10
5.42941e-10
5.42944e-10
5.42995e-10
5.42978e-10
5.43027e-10
5.42976e-10
5.43025e-10
5.42933e-10
5.43008e-10
5.42893e-10
5.43051e-10
5.42994e-10
5.43237e-10
5.4329e-10
5.4215e-10
5.41792e-10
4.53553e-10
4.54136e-10
4.55186e-10
4.55181e-10
4.54976e-10
4.55032e-10
4.5489e-10
4.54995e-10
4.54928e-10
4.55013e-10
4.54969e-10
4.55016e-10
4.54972e-10
4.54987e-10
4.54941e-10
4.54937e-10
4.54892e-10
4.5488e-10
4.54843e-10
4.54829e-10
4.54802e-10
4.54791e-10
4.54775e-10
4.5477e-10
4.54764e-10
4.54764e-10
4.5477e-10
4.54775e-10
4.54791e-10
4.54801e-10
4.54828e-10
4.54842e-10
4.54878e-10
4.5489e-10
4.54934e-10
4.54938e-10
4.54984e-10
4.54968e-10
4.55011e-10
4.54964e-10
4.55008e-10
4.54923e-10
4.5499e-10
4.54886e-10
4.55028e-10
4.54974e-10
4.55179e-10
4.55185e-10
4.54136e-10
4.53552e-10
3.86383e-10
3.87236e-10
3.88246e-10
3.88289e-10
3.88115e-10
3.88173e-10
3.88042e-10
3.88141e-10
3.88079e-10
3.88159e-10
3.8812e-10
3.88165e-10
3.88125e-10
3.8814e-10
3.88097e-10
3.88094e-10
3.88053e-10
3.88041e-10
3.88006e-10
3.87994e-10
3.87968e-10
3.87958e-10
3.87943e-10
3.87938e-10
3.87933e-10
3.87933e-10
3.87938e-10
3.87943e-10
3.87958e-10
3.87968e-10
3.87993e-10
3.88005e-10
3.8804e-10
3.88051e-10
3.88091e-10
3.88094e-10
3.88137e-10
3.88121e-10
3.88161e-10
3.88115e-10
3.88155e-10
3.88075e-10
3.88137e-10
3.88038e-10
3.8817e-10
3.88112e-10
3.88287e-10
3.88245e-10
3.87236e-10
3.86382e-10
3.32652e-10
3.32172e-10
3.332e-10
3.3331e-10
3.33148e-10
3.33186e-10
3.33039e-10
3.33116e-10
3.33045e-10
3.33114e-10
3.33072e-10
3.33113e-10
3.33075e-10
3.33089e-10
3.33049e-10
3.33046e-10
3.33008e-10
3.32997e-10
3.32963e-10
3.32951e-10
3.32926e-10
3.32916e-10
3.32901e-10
3.32896e-10
3.32891e-10
3.32891e-10
3.32896e-10
3.32901e-10
3.32916e-10
3.32925e-10
3.3295e-10
3.32962e-10
3.32995e-10
3.33006e-10
3.33044e-10
3.33046e-10
3.33086e-10
3.33071e-10
3.33109e-10
3.33067e-10
3.33109e-10
3.33041e-10
3.33112e-10
3.33036e-10
3.33184e-10
3.33146e-10
3.33308e-10
3.332e-10
3.32172e-10
3.32651e-10
2.8917e-10
2.88886e-10
2.89847e-10
2.89978e-10
2.89839e-10
2.89876e-10
2.8974e-10
2.8981e-10
2.89744e-10
2.89808e-10
2.8977e-10
2.89809e-10
2.89774e-10
2.89788e-10
2.89751e-10
2.89749e-10
2.89712e-10
2.89702e-10
2.89671e-10
2.89659e-10
2.89635e-10
2.89626e-10
2.89612e-10
2.89607e-10
2.89602e-10
2.89602e-10
2.89607e-10
2.89612e-10
2.89626e-10
2.89635e-10
2.89658e-10
2.8967e-10
2.89701e-10
2.8971e-10
2.89746e-10
2.89748e-10
2.89785e-10
2.89771e-10
2.89805e-10
2.89766e-10
2.89804e-10
2.8974e-10
2.89806e-10
2.89736e-10
2.89874e-10
2.89837e-10
2.89977e-10
2.89847e-10
2.88886e-10
2.8917e-10
2.52284e-10
2.5219e-10
2.53171e-10
2.53353e-10
2.53224e-10
2.53268e-10
2.53132e-10
2.53203e-10
2.53138e-10
2.53203e-10
2.53165e-10
2.53204e-10
2.53169e-10
2.53183e-10
2.53145e-10
2.53142e-10
2.53105e-10
2.53094e-10
2.53061e-10
2.53048e-10
2.53024e-10
2.53014e-10
2.52999e-10
2.52994e-10
2.52989e-10
2.52989e-10
2.52994e-10
2.52999e-10
2.53014e-10
2.53023e-10
2.53048e-10
2.5306e-10
2.53092e-10
2.53103e-10
2.5314e-10
2.53142e-10
2.5318e-10
2.53165e-10
2.532e-10
2.53161e-10
2.53198e-10
2.53134e-10
2.53199e-10
2.53128e-10
2.53265e-10
2.53222e-10
2.53352e-10
2.53171e-10
2.5219e-10
2.52283e-10
2.21745e-10
2.2174e-10
2.22627e-10
2.22808e-10
2.22695e-10
2.22734e-10
2.2261e-10
2.22675e-10
2.22616e-10
2.22675e-10
2.22642e-10
2.22677e-10
2.22646e-10
2.22658e-10
2.22623e-10
2.22619e-10
2.22584e-10
2.22572e-10
2.22541e-10
2.22529e-10
2.22505e-10
2.22495e-10
2.22481e-10
2.22476e-10
2.22471e-10
2.22471e-10
2.22476e-10
2.22481e-10
2.22495e-10
2.22505e-10
2.22528e-10
2.2254e-10
2.22571e-10
2.22582e-10
2.22616e-10
2.2262e-10
2.22655e-10
2.22642e-10
2.22674e-10
2.22638e-10
2.22671e-10
2.22612e-10
2.22671e-10
2.22607e-10
2.22732e-10
2.22693e-10
2.22807e-10
2.22626e-10
2.2174e-10
2.21745e-10
1.97171e-10
1.97244e-10
1.98073e-10
1.9826e-10
1.98161e-10
1.98198e-10
1.98083e-10
1.98143e-10
1.98089e-10
1.98144e-10
1.98114e-10
1.98147e-10
1.98118e-10
1.98129e-10
1.98096e-10
1.98091e-10
1.98058e-10
1.98046e-10
1.98017e-10
1.98004e-10
1.97982e-10
1.97972e-10
1.97958e-10
1.97953e-10
1.97948e-10
1.97948e-10
1.97953e-10
1.97958e-10
1.97972e-10
1.97981e-10
1.98003e-10
1.98016e-10
1.98045e-10
1.98056e-10
1.98089e-10
1.98093e-10
1.98126e-10
1.98114e-10
1.98143e-10
1.9811e-10
1.9814e-10
1.98085e-10
1.98139e-10
1.9808e-10
1.98196e-10
1.98159e-10
1.98259e-10
1.98072e-10
1.97244e-10
1.97171e-10
1.76486e-10
1.76622e-10
1.774e-10
1.77591e-10
1.77502e-10
1.7754e-10
1.77432e-10
1.77488e-10
1.77439e-10
1.77491e-10
1.77463e-10
1.77495e-10
1.77468e-10
1.77478e-10
1.77446e-10
1.77441e-10
1.77409e-10
1.77397e-10
1.77369e-10
1.77356e-10
1.77334e-10
1.77324e-10
1.77311e-10
1.77306e-10
1.77301e-10
1.77301e-10
1.77306e-10
1.77311e-10
1.77324e-10
1.77334e-10
1.77355e-10
1.77368e-10
1.77396e-10
1.77407e-10
1.77439e-10
1.77443e-10
1.77474e-10
1.77464e-10
1.77491e-10
1.77459e-10
1.77487e-10
1.77435e-10
1.77485e-10
1.77429e-10
1.77537e-10
1.77501e-10
1.77589e-10
1.77399e-10
1.76622e-10
1.76486e-10
1.58799e-10
1.58871e-10
1.59485e-10
1.59636e-10
1.59549e-10
1.59559e-10
1.59447e-10
1.5948e-10
1.59427e-10
1.59466e-10
1.59441e-10
1.59468e-10
1.59447e-10
1.59459e-10
1.59435e-10
1.59434e-10
1.5941e-10
1.59402e-10
1.5938e-10
1.59371e-10
1.59353e-10
1.59346e-10
1.59336e-10
1.59332e-10
1.59328e-10
1.59328e-10
1.59331e-10
1.59335e-10
1.59346e-10
1.59353e-10
1.5937e-10
1.59379e-10
1.59401e-10
1.59408e-10
1.59432e-10
1.59433e-10
1.59456e-10
1.59444e-10
1.59465e-10
1.59438e-10
1.59463e-10
1.59424e-10
1.59477e-10
1.59445e-10
1.59558e-10
1.59548e-10
1.59635e-10
1.59485e-10
1.58871e-10
1.58799e-10
1.43816e-10
1.43923e-10
1.4449e-10
1.44639e-10
1.4456e-10
1.44569e-10
1.44463e-10
1.44492e-10
1.44443e-10
1.44479e-10
1.44456e-10
1.44482e-10
1.44462e-10
1.44473e-10
1.44451e-10
1.4445e-10
1.44426e-10
1.44419e-10
1.44398e-10
1.44388e-10
1.44372e-10
1.44365e-10
1.44354e-10
1.44351e-10
1.44347e-10
1.44347e-10
1.4435e-10
1.44354e-10
1.44364e-10
1.44371e-10
1.44388e-10
1.44397e-10
1.44418e-10
1.44425e-10
1.44448e-10
1.44449e-10
1.4447e-10
1.4446e-10
1.44479e-10
1.44453e-10
1.44476e-10
1.4444e-10
1.4449e-10
1.44461e-10
1.44567e-10
1.44559e-10
1.44638e-10
1.44489e-10
1.43923e-10
1.43816e-10
1.30541e-10
1.30687e-10
1.31224e-10
1.31369e-10
1.3128e-10
1.31275e-10
1.3116e-10
1.31178e-10
1.31125e-10
1.31155e-10
1.31131e-10
1.31153e-10
1.31133e-10
1.31142e-10
1.3112e-10
1.31117e-10
1.31093e-10
1.31085e-10
1.31063e-10
1.31053e-10
1.31036e-10
1.31028e-10
1.31017e-10
1.31013e-10
1.3101e-10
1.3101e-10
1.31013e-10
1.31017e-10
1.31028e-10
1.31035e-10
1.31052e-10
1.31062e-10
1.31083e-10
1.31092e-10
1.31115e-10
1.31117e-10
1.31139e-10
1.3113e-10
1.3115e-10
1.31127e-10
1.31152e-10
1.31122e-10
1.31176e-10
1.31158e-10
1.31273e-10
1.31279e-10
1.31369e-10
1.31225e-10
1.30688e-10
1.30542e-10
1.18975e-10
1.19135e-10
1.19622e-10
1.19758e-10
1.19674e-10
1.19666e-10
1.19557e-10
1.19571e-10
1.19521e-10
1.19548e-10
1.19525e-10
1.19545e-10
1.19527e-10
1.19534e-10
1.19513e-10
1.1951e-10
1.19487e-10
1.19478e-10
1.19457e-10
1.19447e-10
1.19431e-10
1.19423e-10
1.19412e-10
1.19408e-10
1.19405e-10
1.19405e-10
1.19408e-10
1.19412e-10
1.19422e-10
1.1943e-10
1.19446e-10
1.19456e-10
1.19477e-10
1.19485e-10
1.19508e-10
1.19511e-10
1.19531e-10
1.19524e-10
1.19542e-10
1.19522e-10
1.19544e-10
1.19518e-10
1.19568e-10
1.19555e-10
1.19664e-10
1.19674e-10
1.19758e-10
1.19622e-10
1.19136e-10
1.18975e-10
1.0891e-10
1.0908e-10
1.0952e-10
1.09648e-10
1.09568e-10
1.09556e-10
1.09452e-10
1.09462e-10
1.09415e-10
1.09439e-10
1.09417e-10
1.09436e-10
1.09418e-10
1.09425e-10
1.09405e-10
1.09401e-10
1.09379e-10
1.0937e-10
1.0935e-10
1.09339e-10
1.09324e-10
1.09316e-10
1.09306e-10
1.09301e-10
1.09298e-10
1.09298e-10
1.09301e-10
1.09305e-10
1.09315e-10
1.09323e-10
1.09339e-10
1.09349e-10
1.09369e-10
1.09378e-10
1.09399e-10
1.09402e-10
1.09422e-10
1.09416e-10
1.09433e-10
1.09414e-10
1.09436e-10
1.09412e-10
1.0946e-10
1.0945e-10
1.09554e-10
1.09567e-10
1.09647e-10
1.0952e-10
1.0908e-10
1.0891e-10
1.00107e-10
1.00284e-10
1.00682e-10
1.008e-10
1.00723e-10
1.00708e-10
1.00609e-10
1.00615e-10
1.0057e-10
1.00591e-10
1.00571e-10
1.00588e-10
1.00571e-10
1.00577e-10
1.00558e-10
1.00553e-10
1.00532e-10
1.00523e-10
1.00503e-10
1.00493e-10
1.00477e-10
1.00469e-10
1.00459e-10
1.00455e-10
1.00452e-10
1.00452e-10
1.00455e-10
1.00459e-10
1.00469e-10
1.00477e-10
1.00492e-10
1.00502e-10
1.00521e-10
1.00531e-10
1.00551e-10
1.00555e-10
1.00574e-10
1.00569e-10
1.00585e-10
1.00568e-10
1.00588e-10
1.00567e-10
1.00613e-10
1.00607e-10
1.00707e-10
1.00722e-10
1.008e-10
1.00682e-10
1.00284e-10
1.00108e-10
9.23753e-11
9.25543e-11
9.29135e-11
9.30231e-11
9.29482e-11
9.29298e-11
9.28346e-11
9.28375e-11
9.27945e-11
9.28125e-11
9.27938e-11
9.28084e-11
9.27933e-11
9.27975e-11
9.27792e-11
9.27742e-11
9.2754e-11
9.27442e-11
9.2725e-11
9.27146e-11
9.26995e-11
9.26913e-11
9.26818e-11
9.26775e-11
9.26742e-11
9.26741e-11
9.26773e-11
9.26816e-11
9.26909e-11
9.26989e-11
9.27138e-11
9.2724e-11
9.27428e-11
9.27523e-11
9.27722e-11
9.2777e-11
9.27949e-11
9.27905e-11
9.28055e-11
9.27908e-11
9.28096e-11
9.27917e-11
9.2835e-11
9.28325e-11
9.29283e-11
9.29474e-11
9.30227e-11
9.29137e-11
9.25549e-11
9.23759e-11
8.55549e-11
8.57345e-11
8.60581e-11
8.61585e-11
8.60852e-11
8.60637e-11
8.59718e-11
8.59715e-11
8.59303e-11
8.59458e-11
8.5928e-11
8.59409e-11
8.59266e-11
8.59297e-11
8.59122e-11
8.59066e-11
8.5887e-11
8.58769e-11
8.58582e-11
8.58476e-11
8.58328e-11
8.58246e-11
8.58153e-11
8.58109e-11
8.58077e-11
8.58076e-11
8.58108e-11
8.58151e-11
8.58242e-11
8.58323e-11
8.58469e-11
8.58572e-11
8.58756e-11
8.58853e-11
8.59047e-11
8.59099e-11
8.59272e-11
8.59238e-11
8.5938e-11
8.5925e-11
8.59428e-11
8.59275e-11
8.59691e-11
8.59698e-11
8.60622e-11
8.60844e-11
8.61582e-11
8.60582e-11
8.5735e-11
8.55555e-11
7.95166e-11
7.96942e-11
7.99854e-11
8.00768e-11
8.00045e-11
7.99799e-11
7.9891e-11
7.98877e-11
7.98478e-11
7.98609e-11
7.98439e-11
7.98553e-11
7.98415e-11
7.98438e-11
7.98268e-11
7.98207e-11
7.98016e-11
7.97912e-11
7.97729e-11
7.97622e-11
7.97477e-11
7.97394e-11
7.97302e-11
7.97258e-11
7.97226e-11
7.97226e-11
7.97257e-11
7.973e-11
7.9739e-11
7.97471e-11
7.97614e-11
7.97719e-11
7.97899e-11
7.97999e-11
7.98188e-11
7.98246e-11
7.98413e-11
7.98388e-11
7.98524e-11
7.9841e-11
7.9858e-11
7.98451e-11
7.98852e-11
7.9889e-11
7.99784e-11
8.00036e-11
8.00764e-11
7.99855e-11
7.96947e-11
7.95172e-11
7.4152e-11
7.43258e-11
7.45874e-11
7.46699e-11
7.4598e-11
7.45705e-11
7.44842e-11
7.4478e-11
7.44394e-11
7.44502e-11
7.44338e-11
7.44437e-11
7.44304e-11
7.44317e-11
7.44152e-11
7.44086e-11
7.43899e-11
7.43792e-11
7.43613e-11
7.43504e-11
7.43361e-11
7.43277e-11
7.43187e-11
7.43142e-11
7.43111e-11
7.43111e-11
7.43141e-11
7.43185e-11
7.43274e-11
7.43356e-11
7.43496e-11
7.43602e-11
7.43779e-11
7.43882e-11
7.44067e-11
7.4413e-11
7.44292e-11
7.44277e-11
7.44408e-11
7.44309e-11
7.44473e-11
7.44367e-11
7.44755e-11
7.44822e-11
7.4569e-11
7.45972e-11
7.46695e-11
7.45875e-11
7.43263e-11
7.41526e-11
6.93702e-11
6.95392e-11
6.97736e-11
6.98472e-11
6.97755e-11
6.97451e-11
6.9661e-11
6.9652e-11
6.96145e-11
6.96231e-11
6.96072e-11
6.96156e-11
6.96028e-11
6.96032e-11
6.95871e-11
6.958e-11
6.95615e-11
6.95506e-11
6.95329e-11
6.95219e-11
6.95078e-11
6.94993e-11
6.94904e-11
6.94859e-11
6.94828e-11
6.94827e-11
6.94858e-11
6.94902e-11
6.9499e-11
6.95072e-11
6.95211e-11
6.95319e-11
6.95493e-11
6.95599e-11
6.9578e-11
6.95848e-11
6.96007e-11
6.96001e-11
6.96128e-11
6.96043e-11
6.96202e-11
6.96117e-11
6.96496e-11
6.9659e-11
6.97436e-11
6.97746e-11
6.98468e-11
6.97737e-11
6.95397e-11
6.93709e-11
6.5095e-11
6.52583e-11
6.54675e-11
6.55325e-11
6.54605e-11
6.54273e-11
6.53451e-11
6.53336e-11
6.52969e-11
6.53034e-11
6.52879e-11
6.5295e-11
6.52824e-11
6.52819e-11
6.52661e-11
6.52585e-11
6.52403e-11
6.52291e-11
6.52116e-11
6.52004e-11
6.51865e-11
6.51779e-11
6.51691e-11
6.51645e-11
6.51614e-11
6.51614e-11
6.51644e-11
6.51688e-11
6.51775e-11
6.51859e-11
6.51996e-11
6.52106e-11
6.52277e-11
6.52387e-11
6.52565e-11
6.52639e-11
6.52794e-11
6.52797e-11
6.52921e-11
6.5285e-11
6.53006e-11
6.52942e-11
6.53312e-11
6.53431e-11
6.54259e-11
6.54597e-11
6.55322e-11
6.54677e-11
6.52588e-11
6.50957e-11
6.12615e-11
6.14184e-11
6.16045e-11
6.1661e-11
6.15885e-11
6.15525e-11
6.14719e-11
6.14579e-11
6.14219e-11
6.14265e-11
6.14112e-11
6.14169e-11
6.14045e-11
6.14032e-11
6.13876e-11
6.13795e-11
6.13615e-11
6.13499e-11
6.13327e-11
6.13213e-11
6.13075e-11
6.12988e-11
6.129e-11
6.12854e-11
6.12824e-11
6.12823e-11
6.12853e-11
6.12898e-11
6.12984e-11
6.13069e-11
6.13205e-11
6.13316e-11
6.13486e-11
6.13598e-11
6.13775e-11
6.13854e-11
6.14007e-11
6.14018e-11
6.14141e-11
6.14083e-11
6.14236e-11
6.14192e-11
6.14555e-11
6.14699e-11
6.1551e-11
6.15876e-11
6.16606e-11
6.16046e-11
6.14189e-11
6.12621e-11
5.78144e-11
5.79644e-11
5.81291e-11
5.81774e-11
5.81041e-11
5.80654e-11
5.79862e-11
5.79698e-11
5.79343e-11
5.7937e-11
5.79219e-11
5.79263e-11
5.7914e-11
5.79118e-11
5.78964e-11
5.78877e-11
5.78698e-11
5.7858e-11
5.78408e-11
5.78292e-11
5.78155e-11
5.78067e-11
5.7798e-11
5.77933e-11
5.77903e-11
5.77903e-11
5.77932e-11
5.77978e-11
5.78064e-11
5.7815e-11
5.78284e-11
5.78398e-11
5.78566e-11
5.78682e-11
5.78857e-11
5.78941e-11
5.79093e-11
5.79113e-11
5.79234e-11
5.7919e-11
5.79341e-11
5.79316e-11
5.79674e-11
5.79842e-11
5.80639e-11
5.81032e-11
5.8177e-11
5.81292e-11
5.79649e-11
5.7815e-11
5.47063e-11
5.48492e-11
5.49941e-11
5.50343e-11
5.49599e-11
5.49185e-11
5.48405e-11
5.48219e-11
5.47867e-11
5.47876e-11
5.47726e-11
5.47757e-11
5.47634e-11
5.47604e-11
5.4745e-11
5.47358e-11
5.4718e-11
5.47058e-11
5.46888e-11
5.4677e-11
5.46633e-11
5.46544e-11
5.46457e-11
5.46409e-11
5.46379e-11
5.46379e-11
5.46408e-11
5.46455e-11
5.4654e-11
5.46627e-11
5.46761e-11
5.46877e-11
5.47044e-11
5.47164e-11
5.47338e-11
5.47427e-11
5.47579e-11
5.47607e-11
5.47728e-11
5.47697e-11
5.47848e-11
5.4784e-11
5.48194e-11
5.48385e-11
5.4917e-11
5.4959e-11
5.50339e-11
5.49942e-11
5.48497e-11
5.47069e-11
5.18966e-11
5.20321e-11
5.21586e-11
5.2191e-11
5.21153e-11
5.20713e-11
5.19941e-11
5.19733e-11
5.19384e-11
5.19376e-11
5.19225e-11
5.19244e-11
5.19121e-11
5.19082e-11
5.18928e-11
5.1883e-11
5.18653e-11
5.18527e-11
5.18357e-11
5.18237e-11
5.181e-11
5.1801e-11
5.17923e-11
5.17875e-11
5.17845e-11
5.17844e-11
5.17874e-11
5.17921e-11
5.18006e-11
5.18095e-11
5.18228e-11
5.18346e-11
5.18513e-11
5.18636e-11
5.1881e-11
5.18905e-11
5.19057e-11
5.19093e-11
5.19215e-11
5.19196e-11
5.19347e-11
5.19357e-11
5.19709e-11
5.19921e-11
5.20697e-11
5.21144e-11
5.21906e-11
5.21587e-11
5.20326e-11
5.18973e-11
4.93502e-11
4.9478e-11
4.95874e-11
4.96122e-11
4.95351e-11
4.94883e-11
4.94119e-11
4.9389e-11
4.93542e-11
4.93518e-11
4.93365e-11
4.93372e-11
4.93247e-11
4.932e-11
4.93045e-11
4.92941e-11
4.92763e-11
4.92634e-11
4.92464e-11
4.92341e-11
4.92205e-11
4.92113e-11
4.92026e-11
4.91977e-11
4.91947e-11
4.91946e-11
4.91976e-11
4.92024e-11
4.92109e-11
4.92199e-11
4.92333e-11
4.92453e-11
4.9262e-11
4.92747e-11
4.92921e-11
4.93022e-11
4.93174e-11
4.93219e-11
4.93343e-11
4.93335e-11
4.93488e-11
4.93515e-11
4.93865e-11
4.94098e-11
4.94868e-11
4.95341e-11
4.96118e-11
4.95875e-11
4.94785e-11
4.93508e-11
4.70367e-11
4.71568e-11
4.72503e-11
4.72676e-11
4.71887e-11
4.71393e-11
4.70634e-11
4.70384e-11
4.70036e-11
4.69995e-11
4.6984e-11
4.69835e-11
4.69708e-11
4.69652e-11
4.69496e-11
4.69387e-11
4.69207e-11
4.69074e-11
4.68903e-11
4.68779e-11
4.68642e-11
4.68548e-11
4.68461e-11
4.68411e-11
4.68381e-11
4.68381e-11
4.6841e-11
4.68459e-11
4.68544e-11
4.68636e-11
4.6877e-11
4.68892e-11
4.6906e-11
4.69191e-11
4.69366e-11
4.69473e-11
4.69627e-11
4.6968e-11
4.69806e-11
4.69811e-11
4.69965e-11
4.70008e-11
4.70359e-11
4.70613e-11
4.71378e-11
4.71878e-11
4.72672e-11
4.72504e-11
4.71573e-11
4.70374e-11
)
;

boundaryField
{
    fuel
    {
        type            fixedValue;
        value           uniform 0;
    }
    wall
    {
        type            zeroGradient;
    }
    outlet
    {
        type            zeroGradient;
    }
    frontAndBack
    {
        type            empty;
    }
    procBoundary1to0
    {
        type            processor;
        value           nonuniform List<scalar> 
50
(
4.49264e-11
4.50389e-11
4.51181e-11
4.51287e-11
4.50486e-11
4.49969e-11
4.49217e-11
4.4895e-11
4.48604e-11
4.48548e-11
4.48391e-11
4.48374e-11
4.48245e-11
4.48181e-11
4.48022e-11
4.47907e-11
4.47727e-11
4.4759e-11
4.47418e-11
4.47291e-11
4.47154e-11
4.47059e-11
4.46971e-11
4.46921e-11
4.4689e-11
4.4689e-11
4.46919e-11
4.46969e-11
4.47055e-11
4.47148e-11
4.47282e-11
4.47407e-11
4.47576e-11
4.4771e-11
4.47887e-11
4.47999e-11
4.48155e-11
4.48217e-11
4.48345e-11
4.48361e-11
4.48518e-11
4.48575e-11
4.48925e-11
4.49196e-11
4.49954e-11
4.50476e-11
4.51283e-11
4.51182e-11
4.50394e-11
4.4927e-11
)
;
    }
}


// ************************************************************************* //
