/*--------------------------------*- C++ -*----------------------------------*\
| =========                 |                                                 |
| \\      /  F ield         | OpenFOAM: The Open Source CFD Toolbox           |
|  \\    /   O peration     | Version:  dev                                   |
|   \\  /    A nd           | Web:      www.OpenFOAM.org                      |
|    \\/     M anipulation  |                                                 |
\*---------------------------------------------------------------------------*/
FoamFile
{
    version     2.0;
    format      ascii;
    class       volScalarField;
    location    "0.02";
    object      l-C6H6;
}
// * * * * * * * * * * * * * * * * * * * * * * * * * * * * * * * * * * * * * //

dimensions      [0 0 0 0 0 0 0];

internalField   nonuniform List<scalar> 
250
(
1.82346e-09
1.2812e-09
9.72261e-10
6.92892e-10
5.04688e-10
3.77718e-10
2.97702e-10
2.46819e-10
2.25002e-10
2.09024e-10
2.6471e-09
1.70396e-09
1.31318e-09
8.40825e-10
5.7578e-10
4.07428e-10
2.9648e-10
2.37168e-10
2.04197e-10
1.88486e-10
1.88378e-10
2.03831e-10
2.36431e-10
2.95209e-10
4.05041e-10
5.71602e-10
8.332e-10
1.29772e-09
1.6844e-09
2.61689e-09
4.57334e-09
2.82726e-09
2.19023e-09
1.31362e-09
8.61276e-10
5.84357e-10
3.92322e-10
3.01952e-10
2.39732e-10
2.19917e-10
2.1971e-10
2.39304e-10
3.0085e-10
3.90545e-10
5.80056e-10
8.54099e-10
1.29712e-09
2.15843e-09
2.78444e-09
4.51034e-09
8.38296e-09
5.20025e-09
4.00902e-09
2.39094e-09
1.56084e-09
1.05416e-09
6.84712e-10
5.16649e-10
3.87554e-10
3.53971e-10
3.53541e-10
3.86906e-10
5.14716e-10
6.81829e-10
1.04636e-09
1.54807e-09
2.36017e-09
3.95068e-09
5.11742e-09
8.26475e-09
1.50297e-08
9.54853e-09
7.29564e-09
4.53933e-09
3.03507e-09
2.07922e-09
1.36771e-09
1.03357e-09
7.64725e-10
6.96913e-10
6.96012e-10
7.63559e-10
1.03003e-09
1.36291e-09
2.06594e-09
3.0141e-09
4.48807e-09
7.20059e-09
9.40535e-09
1.48293e-08
2.52597e-08
1.65211e-08
1.2499e-08
8.13152e-09
5.73453e-09
4.08853e-09
2.76837e-09
2.1223e-09
1.5907e-09
1.44872e-09
1.44692e-09
1.58852e-09
2.1161e-09
2.76091e-09
4.06856e-09
5.70459e-09
8.05813e-09
1.23628e-08
1.63006e-08
2.49531e-08
3.89913e-08
2.61881e-08
1.9618e-08
1.34463e-08
9.94727e-09
7.43866e-09
5.30857e-09
4.1587e-09
3.19985e-09
2.91575e-09
2.9125e-09
3.19594e-09
4.14893e-09
5.29872e-09
7.4142e-09
9.91335e-09
1.33578e-08
1.94476e-08
2.58865e-08
3.85671e-08
5.48424e-08
3.75526e-08
2.78243e-08
2.00633e-08
1.55891e-08
1.22699e-08
9.27337e-09
7.45309e-09
5.92699e-09
5.40781e-09
5.40267e-09
5.92069e-09
7.43998e-09
9.26364e-09
1.22489e-08
1.55633e-08
1.99778e-08
2.76385e-08
3.71831e-08
5.43051e-08
7.04215e-08
4.86496e-08
3.55455e-08
2.6716e-08
2.17077e-08
1.79507e-08
1.43601e-08
1.18524e-08
9.76376e-09
8.92244e-09
8.91558e-09
9.75487e-09
1.18383e-08
1.43556e-08
1.79457e-08
2.17055e-08
2.6655e-08
3.53634e-08
4.82321e-08
6.97829e-08
8.35088e-08
5.75607e-08
4.1289e-08
3.18279e-08
2.67473e-08
2.30469e-08
1.93692e-08
1.63721e-08
1.3932e-08
1.27459e-08
1.27384e-08
1.39212e-08
1.63607e-08
1.9375e-08
2.30673e-08
2.67764e-08
3.17999e-08
4.1116e-08
5.71066e-08
8.27784e-08
9.28202e-08
6.33504e-08
4.44565e-08
3.45151e-08
2.95188e-08
2.61154e-08
2.27087e-08
1.95129e-08
1.70014e-08
1.55524e-08
1.55454e-08
1.69899e-08
1.95065e-08
2.27255e-08
2.61591e-08
2.95728e-08
3.4511e-08
4.42861e-08
6.28649e-08
9.20122e-08
9.80851e-08
6.6121e-08
4.54292e-08
3.50677e-08
3.00767e-08
2.68857e-08
2.37408e-08
2.05402e-08
1.80826e-08
1.65206e-08
1.65142e-08
1.80714e-08
2.05378e-08
2.37642e-08
2.69416e-08
3.01413e-08
3.50721e-08
4.52538e-08
6.56087e-08
9.72171e-08
1.00596e-07
6.70814e-08
4.53668e-08
3.46997e-08
2.96496e-08
2.65272e-08
2.34933e-08
2.03426e-08
1.792e-08
1.63507e-08
1.63445e-08
1.79095e-08
2.03421e-08
2.35193e-08
2.65861e-08
2.97154e-08
3.47031e-08
4.51831e-08
6.65477e-08
9.96845e-08
)
;

boundaryField
{
    fuel
    {
        type            fixedValue;
        value           nonuniform 0();
    }
    wall
    {
        type            zeroGradient;
    }
    outlet
    {
        type            zeroGradient;
    }
    frontAndBack
    {
        type            empty;
    }
    procBoundary1to0
    {
        type            processor;
        value           nonuniform List<scalar> 
21
(
1.5929e-09
1.21974e-09
9.13067e-10
7.09524e-10
5.40636e-10
4.21334e-10
3.47941e-10
2.95129e-10
2.759e-10
2.57789e-10
2.08962e-10
2.08962e-10
2.24626e-10
2.46196e-10
2.9659e-10
3.76207e-10
5.02499e-10
6.89392e-10
9.65534e-10
1.27324e-09
1.80951e-09
)
;
    }
}


// ************************************************************************* //
