/*--------------------------------*- C++ -*----------------------------------*\
| =========                 |                                                 |
| \\      /  F ield         | OpenFOAM: The Open Source CFD Toolbox           |
|  \\    /   O peration     | Version:  dev                                   |
|   \\  /    A nd           | Web:      www.OpenFOAM.org                      |
|    \\/     M anipulation  |                                                 |
\*---------------------------------------------------------------------------*/
FoamFile
{
    version     2.0;
    format      ascii;
    class       volScalarField;
    location    "0.02";
    object      O2;
}
// * * * * * * * * * * * * * * * * * * * * * * * * * * * * * * * * * * * * * //

dimensions      [0 0 0 0 0 0 0];

internalField   nonuniform List<scalar> 
2000
(
0.1354
0.13539
0.13537
0.135362
0.135358
0.135358
0.135357
0.135358
0.135358
0.135358
0.135358
0.135358
0.135357
0.135357
0.135357
0.135357
0.135357
0.135357
0.135356
0.135356
0.135356
0.135356
0.135356
0.135356
0.135356
0.135356
0.135356
0.135356
0.135356
0.135356
0.135356
0.135356
0.135357
0.135357
0.135357
0.135357
0.135357
0.135357
0.135358
0.135358
0.135358
0.135358
0.135358
0.135357
0.135358
0.135358
0.135362
0.13537
0.13539
0.1354
0.0784548
0.0784462
0.0784204
0.0784092
0.0784026
0.0784032
0.0784018
0.0784033
0.0784025
0.0784034
0.0784027
0.0784031
0.0784024
0.0784025
0.0784019
0.0784018
0.0784013
0.0784012
0.0784008
0.0784007
0.0784004
0.0784004
0.0784002
0.0784002
0.0784001
0.0784001
0.0784002
0.0784002
0.0784004
0.0784004
0.0784007
0.0784008
0.0784012
0.0784013
0.0784018
0.0784018
0.0784025
0.0784024
0.0784031
0.0784027
0.0784034
0.0784025
0.0784032
0.0784018
0.0784032
0.0784026
0.0784092
0.0784204
0.0784462
0.0784548
0.0448012
0.0447991
0.0447857
0.0447784
0.0447726
0.0447738
0.0447721
0.0447737
0.0447727
0.0447738
0.0447729
0.0447735
0.0447728
0.044773
0.0447723
0.0447724
0.0447719
0.0447719
0.0447715
0.0447715
0.0447712
0.0447712
0.0447711
0.044771
0.044771
0.044771
0.044771
0.0447711
0.0447712
0.0447712
0.0447715
0.0447715
0.0447719
0.0447719
0.0447724
0.0447723
0.044773
0.0447727
0.0447735
0.0447729
0.0447737
0.0447727
0.0447737
0.044772
0.0447738
0.0447726
0.0447784
0.0447857
0.0447991
0.0448012
0.0257523
0.0257521
0.0257465
0.0257418
0.0257373
0.0257384
0.0257369
0.0257383
0.0257374
0.0257383
0.0257376
0.0257381
0.0257375
0.0257377
0.0257372
0.0257373
0.0257368
0.0257369
0.0257365
0.0257365
0.0257363
0.0257363
0.0257362
0.0257362
0.0257361
0.0257361
0.0257362
0.0257362
0.0257363
0.0257363
0.0257365
0.0257365
0.0257368
0.0257368
0.0257372
0.0257372
0.0257377
0.0257375
0.0257381
0.0257376
0.0257383
0.0257374
0.0257383
0.0257369
0.0257384
0.0257373
0.0257417
0.0257465
0.0257521
0.0257522
0.0150019
0.0150025
0.0150018
0.0149988
0.0149957
0.0149966
0.0149954
0.0149964
0.0149957
0.0149965
0.0149959
0.0149963
0.0149958
0.014996
0.0149956
0.0149957
0.0149954
0.0149954
0.0149952
0.0149952
0.014995
0.014995
0.0149949
0.0149949
0.0149949
0.0149949
0.0149949
0.0149949
0.014995
0.014995
0.0149952
0.0149952
0.0149954
0.0149954
0.0149957
0.0149956
0.014996
0.0149958
0.0149963
0.0149959
0.0149965
0.0149957
0.0149964
0.0149953
0.0149965
0.0149957
0.0149988
0.0150017
0.0150025
0.0150019
0.00895918
0.00895991
0.00896161
0.00895994
0.00895776
0.00895845
0.00895753
0.00895835
0.0089578
0.00895836
0.00895794
0.00895826
0.00895791
0.00895806
0.00895776
0.00895783
0.0089576
0.00895761
0.00895744
0.00895744
0.00895732
0.00895732
0.00895725
0.00895725
0.00895723
0.00895723
0.00895725
0.00895725
0.00895732
0.00895732
0.00895744
0.00895744
0.00895761
0.00895759
0.00895782
0.00895776
0.00895805
0.00895789
0.00895825
0.00895793
0.00895835
0.00895778
0.00895834
0.00895752
0.00895844
0.00895774
0.00895993
0.0089616
0.00895991
0.00895917
0.00551647
0.00551716
0.00551973
0.00551881
0.00551731
0.00551784
0.00551715
0.00551776
0.00551734
0.00551777
0.00551745
0.0055177
0.00551744
0.00551756
0.00551734
0.00551739
0.00551722
0.00551724
0.00551711
0.00551711
0.00551703
0.00551702
0.00551697
0.00551697
0.00551696
0.00551696
0.00551697
0.00551697
0.00551702
0.00551703
0.00551711
0.00551711
0.00551724
0.00551722
0.00551739
0.00551733
0.00551755
0.00551743
0.00551769
0.00551744
0.00551776
0.00551733
0.00551775
0.00551714
0.00551784
0.0055173
0.00551881
0.00551972
0.00551716
0.00551646
0.00350615
0.00350674
0.00350943
0.00350894
0.0035079
0.00350831
0.00350778
0.00350824
0.00350792
0.00350824
0.00350801
0.0035082
0.00350801
0.0035081
0.00350794
0.00350798
0.00350785
0.00350787
0.00350777
0.00350777
0.00350771
0.00350771
0.00350767
0.00350767
0.00350766
0.00350766
0.00350767
0.00350767
0.00350771
0.00350771
0.00350777
0.00350777
0.00350787
0.00350785
0.00350798
0.00350793
0.0035081
0.003508
0.00350819
0.003508
0.00350824
0.00350791
0.00350823
0.00350778
0.0035083
0.0035079
0.00350894
0.00350942
0.00350674
0.00350614
0.00229732
0.00229782
0.00230033
0.0023001
0.00229936
0.00229968
0.00229927
0.00229962
0.00229938
0.00229963
0.00229945
0.0022996
0.00229945
0.00229953
0.0022994
0.00229944
0.00229934
0.00229935
0.00229928
0.00229928
0.00229923
0.00229923
0.0022992
0.0022992
0.00229919
0.00229919
0.0022992
0.0022992
0.00229923
0.00229923
0.00229928
0.00229928
0.00229935
0.00229934
0.00229943
0.0022994
0.00229952
0.00229945
0.00229959
0.00229944
0.00229962
0.00229937
0.00229962
0.00229927
0.00229967
0.00229936
0.0023001
0.00230033
0.00229782
0.00229732
0.00154741
0.00154786
0.00155012
0.00155004
0.00154951
0.00154976
0.00154944
0.00154971
0.00154952
0.00154971
0.00154958
0.0015497
0.00154958
0.00154964
0.00154955
0.00154958
0.0015495
0.00154951
0.00154945
0.00154945
0.00154941
0.00154941
0.00154939
0.00154939
0.00154938
0.00154938
0.00154939
0.00154939
0.00154941
0.00154941
0.00154945
0.00154945
0.00154951
0.0015495
0.00154957
0.00154955
0.00154964
0.00154958
0.00154969
0.00154957
0.00154971
0.00154951
0.00154971
0.00154943
0.00154975
0.00154951
0.00155004
0.00155011
0.00154786
0.00154741
0.00106903
0.00106949
0.00107152
0.00107155
0.00107115
0.00107136
0.0010711
0.00107132
0.00107116
0.00107132
0.00107121
0.00107131
0.00107122
0.00107127
0.0010712
0.00107122
0.00107116
0.00107116
0.00107112
0.00107112
0.00107109
0.00107109
0.00107107
0.00107107
0.00107106
0.00107106
0.00107107
0.00107107
0.00107108
0.00107109
0.00107112
0.00107112
0.00107116
0.00107116
0.00107122
0.00107119
0.00107127
0.00107122
0.00107131
0.00107121
0.00107132
0.00107116
0.00107132
0.00107109
0.00107136
0.00107115
0.00107155
0.00107151
0.00106949
0.00106902
0.000743772
0.000744171
0.000745744
0.000745783
0.00074548
0.000745635
0.000745436
0.000745607
0.000745489
0.000745614
0.000745531
0.000745605
0.000745537
0.000745574
0.000745514
0.000745529
0.000745481
0.000745485
0.000745447
0.000745445
0.000745419
0.000745417
0.000745402
0.000745401
0.000745396
0.000745396
0.000745401
0.000745402
0.000745417
0.000745419
0.000745445
0.000745446
0.000745484
0.000745479
0.000745527
0.000745512
0.000745571
0.000745534
0.000745602
0.000745528
0.00074561
0.000745486
0.000745604
0.000745433
0.000745633
0.000745478
0.000745782
0.000745743
0.000744171
0.00074377
0.000532787
0.000533323
0.000534787
0.000534889
0.00053464
0.000534781
0.000534606
0.000534758
0.000534655
0.000534766
0.000534694
0.000534761
0.000534701
0.000534734
0.000534682
0.000534695
0.000534652
0.000534654
0.00053462
0.000534619
0.000534595
0.000534592
0.000534579
0.000534577
0.000534573
0.000534573
0.000534577
0.000534579
0.000534592
0.000534595
0.000534618
0.00053462
0.000534653
0.00053465
0.000534693
0.00053468
0.000534732
0.000534698
0.000534758
0.000534691
0.000534763
0.000534651
0.000534755
0.000534603
0.000534779
0.000534638
0.000534888
0.000534786
0.000533323
0.000532786
0.000387282
0.000387463
0.000388289
0.000388299
0.000388179
0.000388259
0.000388164
0.000388251
0.000388194
0.000388257
0.000388218
0.000388256
0.000388225
0.000388245
0.000388219
0.000388229
0.000388208
0.000388212
0.000388196
0.000388198
0.000388187
0.000388187
0.000388181
0.000388181
0.000388179
0.000388179
0.000388181
0.000388181
0.000388187
0.000388187
0.000388197
0.000388196
0.000388212
0.000388207
0.000388228
0.000388218
0.000388244
0.000388224
0.000388255
0.000388217
0.000388255
0.000388193
0.00038825
0.000388163
0.000388258
0.000388178
0.000388299
0.000388288
0.000387463
0.00038728
0.000281856
0.000282215
0.000282854
0.000282864
0.000282772
0.000282838
0.000282767
0.000282838
0.000282796
0.000282847
0.000282818
0.000282848
0.000282824
0.00028284
0.000282819
0.000282826
0.000282809
0.000282811
0.000282798
0.000282799
0.00028279
0.00028279
0.000282785
0.000282785
0.000282783
0.000282783
0.000282785
0.000282785
0.00028279
0.00028279
0.000282799
0.000282798
0.000282811
0.000282808
0.000282825
0.000282818
0.000282839
0.000282823
0.000282847
0.000282817
0.000282846
0.000282795
0.000282837
0.000282765
0.000282837
0.000282771
0.000282864
0.000282853
0.000282215
0.000281855
0.000209362
0.000209997
0.00021054
0.000210563
0.000210494
0.000210556
0.0002105
0.000210564
0.000210531
0.000210577
0.000210554
0.00021058
0.00021056
0.000210574
0.000210557
0.000210563
0.000210548
0.00021055
0.000210539
0.00021054
0.000210532
0.000210532
0.000210528
0.000210528
0.000210526
0.000210526
0.000210528
0.000210528
0.000210532
0.000210532
0.00021054
0.000210539
0.00021055
0.000210548
0.000210562
0.000210556
0.000210573
0.00021056
0.000210579
0.000210553
0.000210576
0.00021053
0.000210563
0.000210498
0.000210555
0.000210493
0.000210563
0.000210539
0.000209996
0.000209361
0.000156948
0.000156341
0.000156861
0.000156919
0.000156855
0.000156894
0.000156827
0.00015687
0.000156831
0.000156865
0.000156841
0.000156863
0.000156845
0.000156857
0.000156842
0.000156847
0.000156835
0.000156837
0.000156826
0.000156827
0.00015682
0.000156819
0.000156815
0.000156815
0.000156814
0.000156814
0.000156815
0.000156815
0.000156819
0.00015682
0.000156827
0.000156826
0.000156836
0.000156834
0.000156847
0.000156841
0.000156856
0.000156844
0.000156862
0.00015684
0.000156864
0.00015683
0.000156869
0.000156826
0.000156894
0.000156855
0.000156919
0.000156861
0.000156341
0.000156947
0.000118642
0.000118239
0.000118671
0.000118727
0.000118678
0.000118713
0.000118658
0.000118695
0.000118664
0.000118693
0.000118674
0.000118692
0.000118678
0.000118688
0.000118676
0.000118681
0.00011867
0.000118672
0.000118664
0.000118664
0.000118658
0.000118658
0.000118654
0.000118654
0.000118653
0.000118653
0.000118654
0.000118654
0.000118658
0.000118658
0.000118664
0.000118663
0.000118672
0.00011867
0.00011868
0.000118675
0.000118688
0.000118677
0.000118692
0.000118673
0.000118692
0.000118663
0.000118695
0.000118658
0.000118713
0.000118678
0.000118727
0.000118671
0.000118239
0.000118641
8.93598e-05
8.91284e-05
8.95519e-05
8.96319e-05
8.95892e-05
8.9626e-05
8.9575e-05
8.96123e-05
8.95835e-05
8.96124e-05
8.95944e-05
8.96127e-05
8.95983e-05
8.96078e-05
8.95949e-05
8.95987e-05
8.95875e-05
8.95883e-05
8.95792e-05
8.95786e-05
8.95721e-05
8.95713e-05
8.95675e-05
8.9567e-05
8.95658e-05
8.95658e-05
8.9567e-05
8.95675e-05
8.95713e-05
8.9572e-05
8.95784e-05
8.9579e-05
8.9588e-05
8.95871e-05
8.95982e-05
8.95943e-05
8.96071e-05
8.95975e-05
8.96119e-05
8.95936e-05
8.96116e-05
8.95826e-05
8.96115e-05
8.95742e-05
8.96254e-05
8.95887e-05
8.96317e-05
8.95517e-05
8.91284e-05
8.93595e-05
6.75284e-05
6.73763e-05
6.77151e-05
6.77836e-05
6.77511e-05
6.77825e-05
6.7743e-05
6.77745e-05
6.77525e-05
6.77766e-05
6.77626e-05
6.77775e-05
6.77659e-05
6.77734e-05
6.77627e-05
6.77654e-05
6.7756e-05
6.77562e-05
6.77485e-05
6.77477e-05
6.77422e-05
6.77414e-05
6.77381e-05
6.77376e-05
6.77366e-05
6.77366e-05
6.77376e-05
6.77381e-05
6.77413e-05
6.77422e-05
6.77476e-05
6.77484e-05
6.77559e-05
6.77557e-05
6.7765e-05
6.77622e-05
6.77728e-05
6.77652e-05
6.77768e-05
6.77619e-05
6.77758e-05
6.77517e-05
6.77738e-05
6.77423e-05
6.77819e-05
6.77506e-05
6.77833e-05
6.77149e-05
6.73763e-05
6.75281e-05
5.17185e-05
5.16291e-05
5.19178e-05
5.19824e-05
5.1958e-05
5.19871e-05
5.19556e-05
5.19839e-05
5.19664e-05
5.19876e-05
5.19764e-05
5.19892e-05
5.19795e-05
5.19857e-05
5.19765e-05
5.19786e-05
5.19703e-05
5.19702e-05
5.19635e-05
5.19625e-05
5.19577e-05
5.19568e-05
5.19539e-05
5.19534e-05
5.19525e-05
5.19525e-05
5.19534e-05
5.19539e-05
5.19567e-05
5.19576e-05
5.19624e-05
5.19633e-05
5.197e-05
5.197e-05
5.19782e-05
5.19761e-05
5.19852e-05
5.19789e-05
5.19886e-05
5.19757e-05
5.19869e-05
5.19657e-05
5.19832e-05
5.19549e-05
5.19866e-05
5.19576e-05
5.19821e-05
5.19176e-05
5.1629e-05
5.17182e-05
3.97786e-05
3.97368e-05
3.99871e-05
4.00488e-05
4.00312e-05
4.00591e-05
4.00346e-05
4.00609e-05
4.00474e-05
4.00666e-05
4.00575e-05
4.00688e-05
4.00604e-05
4.00656e-05
4.00574e-05
4.00588e-05
4.00513e-05
4.00508e-05
4.00447e-05
4.00435e-05
4.00391e-05
4.00381e-05
4.00355e-05
4.0035e-05
4.00341e-05
4.00341e-05
4.0035e-05
4.00355e-05
4.00381e-05
4.00391e-05
4.00435e-05
4.00445e-05
4.00506e-05
4.0051e-05
4.00584e-05
4.0057e-05
4.00651e-05
4.00599e-05
4.00681e-05
4.00569e-05
4.00659e-05
4.00468e-05
4.00602e-05
4.0034e-05
4.00586e-05
4.00307e-05
4.00484e-05
3.99868e-05
3.97367e-05
3.97783e-05
3.06514e-05
3.05876e-05
3.0748e-05
3.0786e-05
3.07697e-05
3.07841e-05
3.07597e-05
3.07741e-05
3.07608e-05
3.07731e-05
3.07659e-05
3.07745e-05
3.07695e-05
3.07749e-05
3.07708e-05
3.07738e-05
3.07703e-05
3.07717e-05
3.07689e-05
3.07695e-05
3.07674e-05
3.07676e-05
3.07664e-05
3.07664e-05
3.0766e-05
3.0766e-05
3.07664e-05
3.07664e-05
3.07676e-05
3.07673e-05
3.07694e-05
3.07688e-05
3.07716e-05
3.07701e-05
3.07736e-05
3.07706e-05
3.07747e-05
3.07693e-05
3.07743e-05
3.07656e-05
3.07728e-05
3.07606e-05
3.07739e-05
3.07595e-05
3.0784e-05
3.07697e-05
3.0786e-05
3.0748e-05
3.05877e-05
3.06512e-05
2.37627e-05
2.37226e-05
2.3856e-05
2.38908e-05
2.38792e-05
2.3893e-05
2.38739e-05
2.3887e-05
2.38766e-05
2.38874e-05
2.38818e-05
2.38894e-05
2.38854e-05
2.38901e-05
2.38867e-05
2.38892e-05
2.38863e-05
2.38876e-05
2.38852e-05
2.38858e-05
2.3884e-05
2.38842e-05
2.38832e-05
2.38833e-05
2.38829e-05
2.38829e-05
2.38833e-05
2.38832e-05
2.38842e-05
2.3884e-05
2.38857e-05
2.38852e-05
2.38875e-05
2.38862e-05
2.38891e-05
2.38865e-05
2.38899e-05
2.38852e-05
2.38891e-05
2.38816e-05
2.38872e-05
2.38764e-05
2.38868e-05
2.38737e-05
2.38929e-05
2.38791e-05
2.38907e-05
2.38559e-05
2.37227e-05
2.37626e-05
1.83497e-05
1.83311e-05
1.84473e-05
1.84781e-05
1.84642e-05
1.84721e-05
1.84519e-05
1.84606e-05
1.84499e-05
1.8458e-05
1.84524e-05
1.84583e-05
1.84545e-05
1.84581e-05
1.84548e-05
1.84566e-05
1.84537e-05
1.84544e-05
1.84519e-05
1.8452e-05
1.84502e-05
1.84502e-05
1.84491e-05
1.8449e-05
1.84486e-05
1.84486e-05
1.8449e-05
1.84491e-05
1.84501e-05
1.84502e-05
1.8452e-05
1.84519e-05
1.84543e-05
1.84536e-05
1.84564e-05
1.84546e-05
1.84579e-05
1.84543e-05
1.84581e-05
1.84522e-05
1.84578e-05
1.84497e-05
1.84604e-05
1.84517e-05
1.8472e-05
1.84641e-05
1.84781e-05
1.84473e-05
1.83312e-05
1.83497e-05
1.41794e-05
1.41704e-05
1.42639e-05
1.42902e-05
1.42792e-05
1.42861e-05
1.42699e-05
1.42772e-05
1.42687e-05
1.42755e-05
1.42711e-05
1.4276e-05
1.42729e-05
1.42759e-05
1.42732e-05
1.42746e-05
1.42722e-05
1.42727e-05
1.42707e-05
1.42707e-05
1.42692e-05
1.42691e-05
1.42682e-05
1.42681e-05
1.42678e-05
1.42678e-05
1.42681e-05
1.42682e-05
1.42691e-05
1.42692e-05
1.42707e-05
1.42706e-05
1.42726e-05
1.42721e-05
1.42745e-05
1.4273e-05
1.42757e-05
1.42728e-05
1.42758e-05
1.42709e-05
1.42753e-05
1.42685e-05
1.42771e-05
1.42697e-05
1.4286e-05
1.42792e-05
1.42902e-05
1.42639e-05
1.41705e-05
1.41794e-05
1.0979e-05
1.09763e-05
1.10515e-05
1.10737e-05
1.10651e-05
1.1071e-05
1.1058e-05
1.10642e-05
1.10574e-05
1.10631e-05
1.10596e-05
1.10637e-05
1.10612e-05
1.10636e-05
1.10614e-05
1.10626e-05
1.10606e-05
1.10609e-05
1.10592e-05
1.10592e-05
1.1058e-05
1.10579e-05
1.10571e-05
1.1057e-05
1.10568e-05
1.10568e-05
1.1057e-05
1.10571e-05
1.10578e-05
1.10579e-05
1.10592e-05
1.10592e-05
1.10609e-05
1.10605e-05
1.10624e-05
1.10613e-05
1.10635e-05
1.10611e-05
1.10635e-05
1.10594e-05
1.10629e-05
1.10573e-05
1.1064e-05
1.10579e-05
1.10709e-05
1.10651e-05
1.10737e-05
1.10515e-05
1.09763e-05
1.0979e-05
8.51691e-06
8.51815e-06
8.57847e-06
8.59726e-06
8.59051e-06
8.5955e-06
8.58503e-06
8.59022e-06
8.58487e-06
8.58958e-06
8.58684e-06
8.5902e-06
8.58824e-06
8.5902e-06
8.5884e-06
8.58931e-06
8.58766e-06
8.58794e-06
8.58651e-06
8.58648e-06
8.58542e-06
8.58531e-06
8.58466e-06
8.58459e-06
8.58438e-06
8.58438e-06
8.58459e-06
8.58465e-06
8.58529e-06
8.58539e-06
8.58644e-06
8.58646e-06
8.58787e-06
8.58758e-06
8.58921e-06
8.58829e-06
8.59007e-06
8.5881e-06
8.59004e-06
8.58668e-06
8.58943e-06
8.58472e-06
8.5901e-06
8.58492e-06
8.59543e-06
8.59047e-06
8.59725e-06
8.57846e-06
8.51818e-06
8.51689e-06
6.61862e-06
6.62226e-06
6.67057e-06
6.68638e-06
6.68105e-06
6.68527e-06
6.67686e-06
6.68119e-06
6.67694e-06
6.68085e-06
6.6787e-06
6.68147e-06
6.67991e-06
6.68151e-06
6.68005e-06
6.68078e-06
6.67941e-06
6.67961e-06
6.67843e-06
6.67838e-06
6.67749e-06
6.67738e-06
6.67684e-06
6.67678e-06
6.6766e-06
6.67659e-06
6.67677e-06
6.67683e-06
6.67737e-06
6.67747e-06
6.67835e-06
6.67839e-06
6.67956e-06
6.67934e-06
6.68069e-06
6.67996e-06
6.6814e-06
6.67979e-06
6.68134e-06
6.67857e-06
6.68072e-06
6.67682e-06
6.68108e-06
6.67676e-06
6.68521e-06
6.68101e-06
6.68637e-06
6.67057e-06
6.62228e-06
6.6186e-06
5.15224e-06
5.15721e-06
5.19584e-06
5.20908e-06
5.20486e-06
5.20841e-06
5.20165e-06
5.20525e-06
5.20189e-06
5.20512e-06
5.20344e-06
5.20572e-06
5.20449e-06
5.20579e-06
5.20461e-06
5.20518e-06
5.20405e-06
5.2042e-06
5.20322e-06
5.20315e-06
5.20241e-06
5.20231e-06
5.20186e-06
5.2018e-06
5.20165e-06
5.20165e-06
5.20179e-06
5.20185e-06
5.2023e-06
5.2024e-06
5.20313e-06
5.20318e-06
5.20415e-06
5.204e-06
5.20511e-06
5.20453e-06
5.2057e-06
5.20438e-06
5.20561e-06
5.20332e-06
5.20501e-06
5.20178e-06
5.20515e-06
5.20157e-06
5.20836e-06
5.20482e-06
5.20906e-06
5.19583e-06
5.15722e-06
5.15222e-06
4.01758e-06
4.02313e-06
4.05397e-06
4.06503e-06
4.06168e-06
4.06466e-06
4.05922e-06
4.0622e-06
4.05954e-06
4.06221e-06
4.0609e-06
4.06278e-06
4.0618e-06
4.06286e-06
4.0619e-06
4.06236e-06
4.06143e-06
4.06153e-06
4.06072e-06
4.06065e-06
4.06004e-06
4.05994e-06
4.05956e-06
4.05951e-06
4.05938e-06
4.05938e-06
4.0595e-06
4.05956e-06
4.05993e-06
4.06002e-06
4.06063e-06
4.06069e-06
4.06149e-06
4.06138e-06
4.0623e-06
4.06183e-06
4.06278e-06
4.06171e-06
4.06268e-06
4.0608e-06
4.06212e-06
4.05945e-06
4.06212e-06
4.05915e-06
4.06461e-06
4.06164e-06
4.06501e-06
4.05396e-06
4.02314e-06
4.01756e-06
3.13825e-06
3.14391e-06
3.1685e-06
3.1777e-06
3.17503e-06
3.17752e-06
3.17315e-06
3.17561e-06
3.1735e-06
3.17571e-06
3.17468e-06
3.17623e-06
3.17545e-06
3.17632e-06
3.17555e-06
3.17591e-06
3.17515e-06
3.17522e-06
3.17454e-06
3.17447e-06
3.17396e-06
3.17387e-06
3.17356e-06
3.17351e-06
3.17341e-06
3.1734e-06
3.17351e-06
3.17356e-06
3.17387e-06
3.17395e-06
3.17446e-06
3.17452e-06
3.17518e-06
3.17511e-06
3.17586e-06
3.17549e-06
3.17625e-06
3.17538e-06
3.17615e-06
3.1746e-06
3.17562e-06
3.17342e-06
3.17554e-06
3.17309e-06
3.17747e-06
3.175e-06
3.17768e-06
3.16848e-06
3.14391e-06
3.13823e-06
2.45584e-06
2.46132e-06
2.48089e-06
2.48853e-06
2.48639e-06
2.48846e-06
2.48495e-06
2.48698e-06
2.48531e-06
2.48713e-06
2.48633e-06
2.4876e-06
2.48699e-06
2.4877e-06
2.48707e-06
2.48736e-06
2.48673e-06
2.48678e-06
2.48622e-06
2.48616e-06
2.48573e-06
2.48565e-06
2.48539e-06
2.48535e-06
2.48526e-06
2.48526e-06
2.48535e-06
2.48539e-06
2.48565e-06
2.48572e-06
2.48614e-06
2.4862e-06
2.48675e-06
2.4867e-06
2.48732e-06
2.48702e-06
2.48764e-06
2.48693e-06
2.48753e-06
2.48626e-06
2.48706e-06
2.48524e-06
2.48692e-06
2.4849e-06
2.48842e-06
2.48636e-06
2.48851e-06
2.48088e-06
2.46132e-06
2.45582e-06
1.92558e-06
1.93071e-06
1.94626e-06
1.95258e-06
1.95087e-06
1.95259e-06
1.94977e-06
1.95143e-06
1.95011e-06
1.9516e-06
1.95098e-06
1.95203e-06
1.95155e-06
1.95213e-06
1.95162e-06
1.95185e-06
1.95134e-06
1.95137e-06
1.95091e-06
1.95085e-06
1.95049e-06
1.95042e-06
1.95021e-06
1.95017e-06
1.9501e-06
1.9501e-06
1.95017e-06
1.95021e-06
1.95042e-06
1.95049e-06
1.95083e-06
1.95089e-06
1.95134e-06
1.95131e-06
1.95181e-06
1.95158e-06
1.95208e-06
1.95149e-06
1.95197e-06
1.95092e-06
1.95154e-06
1.95005e-06
1.95138e-06
1.94972e-06
1.95255e-06
1.95085e-06
1.95257e-06
1.94625e-06
1.9307e-06
1.92557e-06
1.51307e-06
1.51774e-06
1.53009e-06
1.53531e-06
1.53394e-06
1.53535e-06
1.53308e-06
1.53445e-06
1.5334e-06
1.53462e-06
1.53414e-06
1.535e-06
1.53463e-06
1.5351e-06
1.53469e-06
1.53488e-06
1.53446e-06
1.53448e-06
1.5341e-06
1.53404e-06
1.53375e-06
1.53369e-06
1.53351e-06
1.53347e-06
1.53341e-06
1.53341e-06
1.53347e-06
1.53351e-06
1.53368e-06
1.53374e-06
1.53403e-06
1.53408e-06
1.53446e-06
1.53443e-06
1.53485e-06
1.53466e-06
1.53506e-06
1.53458e-06
1.53495e-06
1.53409e-06
1.53457e-06
1.53335e-06
1.5344e-06
1.53304e-06
1.53532e-06
1.53391e-06
1.5353e-06
1.53008e-06
1.51774e-06
1.51305e-06
1.19179e-06
1.19599e-06
1.20578e-06
1.21008e-06
1.20897e-06
1.21013e-06
1.20831e-06
1.20942e-06
1.20859e-06
1.20959e-06
1.20922e-06
1.20993e-06
1.20963e-06
1.21002e-06
1.20969e-06
1.20984e-06
1.2095e-06
1.20951e-06
1.2092e-06
1.20915e-06
1.20891e-06
1.20885e-06
1.20871e-06
1.20868e-06
1.20863e-06
1.20863e-06
1.20868e-06
1.2087e-06
1.20885e-06
1.2089e-06
1.20914e-06
1.20919e-06
1.20949e-06
1.20948e-06
1.20981e-06
1.20966e-06
1.20998e-06
1.2096e-06
1.20988e-06
1.20918e-06
1.20955e-06
1.20855e-06
1.20938e-06
1.20827e-06
1.21011e-06
1.20895e-06
1.21006e-06
1.20577e-06
1.19598e-06
1.19178e-06
9.41318e-07
9.45028e-07
9.5279e-07
9.5632e-07
9.55419e-07
9.56372e-07
9.549e-07
9.55805e-07
9.55152e-07
9.55969e-07
9.55683e-07
9.5626e-07
9.56033e-07
9.56349e-07
9.56088e-07
9.56207e-07
9.5593e-07
9.55936e-07
9.5568e-07
9.55637e-07
9.55439e-07
9.55393e-07
9.55271e-07
9.55245e-07
9.55204e-07
9.55204e-07
9.55244e-07
9.5527e-07
9.5539e-07
9.55435e-07
9.5563e-07
9.5567e-07
9.55922e-07
9.55913e-07
9.56186e-07
9.56064e-07
9.5632e-07
9.56001e-07
9.56225e-07
9.55647e-07
9.55933e-07
9.55117e-07
9.55773e-07
9.54872e-07
9.5635e-07
9.55403e-07
9.56308e-07
9.5278e-07
9.45023e-07
9.41307e-07
7.45844e-07
7.49094e-07
7.55237e-07
7.58132e-07
7.57397e-07
7.58173e-07
7.56984e-07
7.57717e-07
7.57198e-07
7.57865e-07
7.57645e-07
7.58118e-07
7.57942e-07
7.58202e-07
7.57994e-07
7.58091e-07
7.57867e-07
7.5787e-07
7.57661e-07
7.57624e-07
7.57462e-07
7.57423e-07
7.57323e-07
7.573e-07
7.57267e-07
7.57266e-07
7.573e-07
7.57321e-07
7.5742e-07
7.57458e-07
7.57618e-07
7.57653e-07
7.57858e-07
7.57853e-07
7.58073e-07
7.57974e-07
7.58177e-07
7.57916e-07
7.58089e-07
7.57615e-07
7.57835e-07
7.57169e-07
7.5769e-07
7.5696e-07
7.58154e-07
7.57383e-07
7.58122e-07
7.55229e-07
7.49089e-07
7.45834e-07
5.93143e-07
5.95968e-07
6.00826e-07
6.03195e-07
6.0259e-07
6.03217e-07
6.02254e-07
6.02844e-07
6.02431e-07
6.02973e-07
6.02804e-07
6.03192e-07
6.03058e-07
6.03271e-07
6.03108e-07
6.03187e-07
6.03007e-07
6.03009e-07
6.02839e-07
6.02808e-07
6.02676e-07
6.02643e-07
6.02561e-07
6.02542e-07
6.02514e-07
6.02514e-07
6.02542e-07
6.0256e-07
6.02641e-07
6.02673e-07
6.02803e-07
6.02832e-07
6.02999e-07
6.02995e-07
6.03172e-07
6.03091e-07
6.03251e-07
6.03036e-07
6.03168e-07
6.02779e-07
6.02948e-07
6.02407e-07
6.02822e-07
6.02234e-07
6.03201e-07
6.02578e-07
6.03186e-07
6.00819e-07
5.95963e-07
5.93135e-07
4.73741e-07
4.7618e-07
4.80019e-07
4.81953e-07
4.8145e-07
4.81952e-07
4.81167e-07
4.8164e-07
4.81309e-07
4.81749e-07
4.81619e-07
4.81938e-07
4.81836e-07
4.82012e-07
4.81884e-07
4.81951e-07
4.81807e-07
4.81809e-07
4.81672e-07
4.81646e-07
4.81539e-07
4.81512e-07
4.81445e-07
4.81429e-07
4.81407e-07
4.81407e-07
4.81429e-07
4.81444e-07
4.8151e-07
4.81536e-07
4.81642e-07
4.81666e-07
4.81801e-07
4.81797e-07
4.81939e-07
4.8187e-07
4.81996e-07
4.81817e-07
4.81918e-07
4.81599e-07
4.81728e-07
4.81289e-07
4.81622e-07
4.81151e-07
4.81939e-07
4.8144e-07
4.81945e-07
4.80013e-07
4.76176e-07
4.73734e-07
)
;

boundaryField
{
    fuel
    {
        type            fixedValue;
        value           uniform 0.1914;
    }
    wall
    {
        type            zeroGradient;
    }
    outlet
    {
        type            inletOutlet;
        inletValue      uniform 0;
        value           nonuniform List<scalar> 
80
(
0.1354
0.0784548
0.0448012
0.0257523
0.0150019
0.00895918
0.00551647
0.00350615
0.00229732
0.00154741
0.00106903
0.000743772
0.000532787
0.000387282
0.000281856
0.000209362
0.000156948
0.000118642
8.93598e-05
6.75284e-05
5.17185e-05
3.97786e-05
3.06514e-05
2.37627e-05
1.83497e-05
1.41794e-05
1.0979e-05
8.51691e-06
6.61862e-06
5.15224e-06
4.01758e-06
3.13825e-06
2.45584e-06
1.92558e-06
1.51307e-06
1.19179e-06
9.41318e-07
7.45844e-07
5.93143e-07
4.73741e-07
0.1354
0.0784548
0.0448012
0.0257522
0.0150019
0.00895917
0.00551646
0.00350614
0.00229732
0.00154741
0.00106902
0.00074377
0.000532786
0.00038728
0.000281855
0.000209361
0.000156947
0.000118641
8.93595e-05
6.75281e-05
5.17182e-05
3.97783e-05
3.06512e-05
2.37626e-05
1.83497e-05
1.41794e-05
1.0979e-05
8.51689e-06
6.6186e-06
5.15222e-06
4.01756e-06
3.13823e-06
2.45582e-06
1.92557e-06
1.51305e-06
1.19178e-06
9.41307e-07
7.45834e-07
5.93135e-07
4.73734e-07
)
;
    }
    frontAndBack
    {
        type            empty;
    }
    procBoundary1to0
    {
        type            processor;
        value           nonuniform List<scalar> 
50
(
3.80278e-07
3.82372e-07
3.85403e-07
3.86979e-07
3.86559e-07
3.86957e-07
3.86315e-07
3.86691e-07
3.86424e-07
3.8678e-07
3.8668e-07
3.86942e-07
3.86865e-07
3.87012e-07
3.86914e-07
3.8697e-07
3.86856e-07
3.86859e-07
3.86749e-07
3.86729e-07
3.86642e-07
3.86621e-07
3.86566e-07
3.86554e-07
3.86535e-07
3.86535e-07
3.86553e-07
3.86565e-07
3.86619e-07
3.8664e-07
3.86726e-07
3.86744e-07
3.86852e-07
3.86848e-07
3.8696e-07
3.86902e-07
3.86999e-07
3.8685e-07
3.86925e-07
3.86664e-07
3.86763e-07
3.86407e-07
3.86676e-07
3.86302e-07
3.86947e-07
3.86551e-07
3.86973e-07
3.85398e-07
3.82368e-07
3.80272e-07
)
;
    }
}


// ************************************************************************* //
