/*--------------------------------*- C++ -*----------------------------------*\
| =========                 |                                                 |
| \\      /  F ield         | OpenFOAM: The Open Source CFD Toolbox           |
|  \\    /   O peration     | Version:  dev                                   |
|   \\  /    A nd           | Web:      www.OpenFOAM.org                      |
|    \\/     M anipulation  |                                                 |
\*---------------------------------------------------------------------------*/
FoamFile
{
    version     2.0;
    format      ascii;
    class       surfaceScalarField;
    location    "0.02";
    object      phi;
}
// * * * * * * * * * * * * * * * * * * * * * * * * * * * * * * * * * * * * * //

dimensions      [1 0 -1 0 0 0 0];

internalField   nonuniform List<scalar> 
12
(
7.91876e-06
8.41122e-06
8.93063e-06
9.47738e-06
1.00522e-05
1.06561e-05
1.12904e-05
1.19565e-05
1.26558e-05
1.33903e-05
1.41615e-05
1.49715e-05
)
;

boundaryField
{
    wall
    {
        type            calculated;
        value           nonuniform List<scalar> 
52
(
2.10866e-19
2.1247e-19
2.13255e-19
2.10086e-19
2.07485e-19
2.05022e-19
2.02915e-19
2.00866e-19
1.98964e-19
1.97049e-19
1.95148e-19
1.93194e-19
1.91191e-19
-2.10866e-19
-2.1247e-19
-2.13255e-19
-2.10086e-19
-2.07485e-19
-2.05022e-19
-2.02915e-19
-2.00866e-19
-1.98964e-19
-1.97049e-19
-1.95148e-19
-1.93194e-19
-1.91191e-19
2.10866e-19
2.1247e-19
2.13255e-19
2.10086e-19
2.07485e-19
2.05022e-19
2.02915e-19
2.00866e-19
1.98964e-19
1.97049e-19
1.95148e-19
1.93194e-19
1.91191e-19
-2.10866e-19
-2.1247e-19
-2.13255e-19
-2.10086e-19
-2.07485e-19
-2.05022e-19
-2.02915e-19
-2.00866e-19
-1.98964e-19
-1.97049e-19
-1.95148e-19
-1.93194e-19
-1.91191e-19
)
;
    }
    fuel
    {
        type            calculated;
        value           nonuniform 0();
    }
    outlet
    {
        type            calculated;
        value           nonuniform 0();
    }
    procBoundary1to0
    {
        type            processor;
        value           uniform -7.45331e-06;
    }
    procBoundary1to2
    {
        type            processor;
        value           uniform 1.5822e-05;
    }
}


// ************************************************************************* //
