/*--------------------------------*- C++ -*----------------------------------*\
| =========                 |                                                 |
| \\      /  F ield         | OpenFOAM: The Open Source CFD Toolbox           |
|  \\    /   O peration     | Version:  dev                                   |
|   \\  /    A nd           | Web:      www.OpenFOAM.org                      |
|    \\/     M anipulation  |                                                 |
\*---------------------------------------------------------------------------*/
FoamFile
{
    version     2.0;
    format      ascii;
    class       volScalarField;
    location    "0.065";
    object      A1-;
}
// * * * * * * * * * * * * * * * * * * * * * * * * * * * * * * * * * * * * * //

dimensions      [0 0 0 0 0 0 0];

internalField   nonuniform List<scalar> 
25
(
7.24888e-13
6.00016e-13
4.99207e-13
4.17436e-13
3.49397e-13
2.96631e-13
2.53483e-13
2.18182e-13
1.88636e-13
1.64789e-13
1.44902e-13
1.28207e-13
1.14014e-13
1.01715e-13
9.08619e-14
8.08854e-14
7.15797e-14
6.27592e-14
5.40966e-14
4.62564e-14
3.80157e-14
2.99186e-14
2.11356e-14
1.27532e-14
5.95581e-15
)
;

boundaryField
{
    wall
    {
        type            zeroGradient;
    }
    fuel
    {
        type            fixedValue;
        value           nonuniform 0();
    }
    outlet
    {
        type            inletOutlet;
        inletValue      uniform 0;
        value           uniform 5.95581e-15;
    }
    procBoundary3to2
    {
        type            processor;
        value           uniform 8.78474e-13;
    }
}


// ************************************************************************* //
