/*--------------------------------*- C++ -*----------------------------------*\
| =========                 |                                                 |
| \\      /  F ield         | OpenFOAM: The Open Source CFD Toolbox           |
|  \\    /   O peration     | Version:  dev                                   |
|   \\  /    A nd           | Web:      www.OpenFOAM.org                      |
|    \\/     M anipulation  |                                                 |
\*---------------------------------------------------------------------------*/
FoamFile
{
    version     2.0;
    format      ascii;
    class       volScalarField;
    location    "0.065";
    object      A2R5;
}
// * * * * * * * * * * * * * * * * * * * * * * * * * * * * * * * * * * * * * //

dimensions      [0 0 0 0 0 0 0];

internalField   nonuniform List<scalar> 
25
(
5.5225e-13
5.73971e-13
5.94399e-13
6.13779e-13
6.307e-13
6.4561e-13
6.58025e-13
6.67752e-13
6.74632e-13
6.78258e-13
6.78189e-13
6.74275e-13
6.66181e-13
6.53567e-13
6.36079e-13
6.13345e-13
5.84971e-13
5.5054e-13
5.09599e-13
4.6166e-13
4.06194e-13
3.42625e-13
2.70262e-13
1.88108e-13
9.4084e-14
)
;

boundaryField
{
    wall
    {
        type            zeroGradient;
    }
    fuel
    {
        type            fixedValue;
        value           nonuniform 0();
    }
    outlet
    {
        type            inletOutlet;
        inletValue      uniform 0;
        value           uniform 9.4084e-14;
    }
    procBoundary3to2
    {
        type            processor;
        value           uniform 5.28752e-13;
    }
}


// ************************************************************************* //
