/*--------------------------------*- C++ -*----------------------------------*\
| =========                 |                                                 |
| \\      /  F ield         | OpenFOAM: The Open Source CFD Toolbox           |
|  \\    /   O peration     | Version:  dev                                   |
|   \\  /    A nd           | Web:      www.OpenFOAM.org                      |
|    \\/     M anipulation  |                                                 |
\*---------------------------------------------------------------------------*/
FoamFile
{
    version     2.0;
    format      ascii;
    class       volScalarField;
    location    "0.065";
    object      A3C2H2;
}
// * * * * * * * * * * * * * * * * * * * * * * * * * * * * * * * * * * * * * //

dimensions      [0 0 0 0 0 0 0];

internalField   nonuniform List<scalar> 
25
(
5.78927e-24
4.98077e-24
4.20465e-24
3.4581e-24
2.79656e-24
2.20434e-24
1.69318e-24
1.26182e-24
9.0695e-25
6.23457e-25
4.1694e-25
2.66513e-25
1.62311e-25
9.39046e-26
5.16052e-26
2.7196e-26
1.41457e-26
7.76988e-27
5.03392e-27
4.24437e-27
4.74482e-27
6.80645e-27
1.05548e-26
9.26101e-27
4.65744e-27
)
;

boundaryField
{
    wall
    {
        type            zeroGradient;
    }
    fuel
    {
        type            fixedValue;
        value           nonuniform 0();
    }
    outlet
    {
        type            inletOutlet;
        inletValue      uniform 0;
        value           uniform 4.65744e-27;
    }
    procBoundary3to2
    {
        type            processor;
        value           uniform 6.64115e-24;
    }
}


// ************************************************************************* //
