/*--------------------------------*- C++ -*----------------------------------*\
| =========                 |                                                 |
| \\      /  F ield         | OpenFOAM: The Open Source CFD Toolbox           |
|  \\    /   O peration     | Version:  dev                                   |
|   \\  /    A nd           | Web:      www.OpenFOAM.org                      |
|    \\/     M anipulation  |                                                 |
\*---------------------------------------------------------------------------*/
FoamFile
{
    version     2.0;
    format      ascii;
    class       volScalarField;
    location    "0.065";
    object      c-C6H7;
}
// * * * * * * * * * * * * * * * * * * * * * * * * * * * * * * * * * * * * * //

dimensions      [0 0 0 0 0 0 0];

internalField   nonuniform List<scalar> 
25
(
5.1297e-13
5.60653e-13
6.17291e-13
6.856e-13
7.71491e-13
8.75692e-13
1.00856e-12
1.18061e-12
1.41356e-12
1.72023e-12
2.11882e-12
2.59471e-12
3.09198e-12
3.52686e-12
3.82199e-12
3.93623e-12
3.8691e-12
3.65364e-12
3.3157e-12
2.92641e-12
2.45659e-12
1.9569e-12
1.39189e-12
8.42035e-13
3.9337e-13
)
;

boundaryField
{
    wall
    {
        type            zeroGradient;
    }
    fuel
    {
        type            fixedValue;
        value           nonuniform 0();
    }
    outlet
    {
        type            inletOutlet;
        inletValue      uniform 0;
        value           uniform 3.9337e-13;
    }
    procBoundary3to2
    {
        type            processor;
        value           uniform 4.72908e-13;
    }
}


// ************************************************************************* //
