/*--------------------------------*- C++ -*----------------------------------*\
| =========                 |                                                 |
| \\      /  F ield         | OpenFOAM: The Open Source CFD Toolbox           |
|  \\    /   O peration     | Version:  dev                                   |
|   \\  /    A nd           | Web:      www.OpenFOAM.org                      |
|    \\/     M anipulation  |                                                 |
\*---------------------------------------------------------------------------*/
FoamFile
{
    version     2.0;
    format      ascii;
    class       volScalarField;
    location    "0.065";
    object      C6H5OH;
}
// * * * * * * * * * * * * * * * * * * * * * * * * * * * * * * * * * * * * * //

dimensions      [0 0 0 0 0 0 0];

internalField   nonuniform List<scalar> 
25
(
7.25273e-13
6.92708e-13
6.54236e-13
6.10465e-13
5.65766e-13
5.20202e-13
4.759e-13
4.33761e-13
3.94234e-13
3.58068e-13
3.27453e-13
3.00901e-13
2.7819e-13
2.5875e-13
2.41813e-13
2.26499e-13
2.11887e-13
1.97079e-13
1.81262e-13
1.63742e-13
1.43954e-13
1.21454e-13
9.58625e-14
6.67659e-14
3.34098e-14
)
;

boundaryField
{
    wall
    {
        type            zeroGradient;
    }
    fuel
    {
        type            fixedValue;
        value           nonuniform 0();
    }
    outlet
    {
        type            inletOutlet;
        inletValue      uniform 0;
        value           uniform 3.34098e-14;
    }
    procBoundary3to2
    {
        type            processor;
        value           uniform 7.50798e-13;
    }
}


// ************************************************************************* //
