/*--------------------------------*- C++ -*----------------------------------*\
| =========                 |                                                 |
| \\      /  F ield         | OpenFOAM: The Open Source CFD Toolbox           |
|  \\    /   O peration     | Version:  dev                                   |
|   \\  /    A nd           | Web:      www.OpenFOAM.org                      |
|    \\/     M anipulation  |                                                 |
\*---------------------------------------------------------------------------*/
FoamFile
{
    version     2.0;
    format      ascii;
    class       volScalarField;
    location    "0.065";
    object      CH2O;
}
// * * * * * * * * * * * * * * * * * * * * * * * * * * * * * * * * * * * * * //

dimensions      [0 0 0 0 0 0 0];

internalField   nonuniform List<scalar> 
25
(
5.25853e-09
5.10766e-09
4.96257e-09
4.82486e-09
4.70895e-09
4.61804e-09
4.56644e-09
4.57219e-09
4.6629e-09
4.89181e-09
5.31462e-09
6.04391e-09
7.22978e-09
9.07635e-09
1.18328e-08
1.57554e-08
2.10259e-08
2.7614e-08
3.51002e-08
4.25064e-08
4.82393e-08
5.0285e-08
4.67252e-08
3.63718e-08
1.92583e-08
)
;

boundaryField
{
    wall
    {
        type            zeroGradient;
    }
    fuel
    {
        type            fixedValue;
        value           nonuniform 0();
    }
    outlet
    {
        type            inletOutlet;
        inletValue      uniform 0;
        value           uniform 1.92583e-08;
    }
    procBoundary3to2
    {
        type            processor;
        value           uniform 5.41988e-09;
    }
}


// ************************************************************************* //
