/*--------------------------------*- C++ -*----------------------------------*\
| =========                 |                                                 |
| \\      /  F ield         | OpenFOAM: The Open Source CFD Toolbox           |
|  \\    /   O peration     | Version:  dev                                   |
|   \\  /    A nd           | Web:      www.OpenFOAM.org                      |
|    \\/     M anipulation  |                                                 |
\*---------------------------------------------------------------------------*/
FoamFile
{
    version     2.0;
    format      ascii;
    class       volScalarField;
    location    "0.065";
    object      CH3;
}
// * * * * * * * * * * * * * * * * * * * * * * * * * * * * * * * * * * * * * //

dimensions      [0 0 0 0 0 0 0];

internalField   nonuniform List<scalar> 
25
(
1.67032e-07
1.55775e-07
1.44581e-07
1.33546e-07
1.22509e-07
1.12359e-07
1.02647e-07
9.34588e-08
8.46587e-08
7.66181e-08
6.91164e-08
6.21576e-08
5.56952e-08
4.96746e-08
4.40851e-08
3.88033e-08
3.38504e-08
2.92158e-08
2.47837e-08
2.0905e-08
1.69737e-08
1.3237e-08
9.28692e-09
5.58204e-09
2.60311e-09
)
;

boundaryField
{
    wall
    {
        type            zeroGradient;
    }
    fuel
    {
        type            fixedValue;
        value           nonuniform 0();
    }
    outlet
    {
        type            inletOutlet;
        inletValue      uniform 0;
        value           uniform 2.60311e-09;
    }
    procBoundary3to2
    {
        type            processor;
        value           uniform 1.78172e-07;
    }
}


// ************************************************************************* //
