/*--------------------------------*- C++ -*----------------------------------*\
| =========                 |                                                 |
| \\      /  F ield         | OpenFOAM: The Open Source CFD Toolbox           |
|  \\    /   O peration     | Version:  dev                                   |
|   \\  /    A nd           | Web:      www.OpenFOAM.org                      |
|    \\/     M anipulation  |                                                 |
\*---------------------------------------------------------------------------*/
FoamFile
{
    version     2.0;
    format      ascii;
    class       volScalarField;
    location    "0.065";
    object      CO2;
}
// * * * * * * * * * * * * * * * * * * * * * * * * * * * * * * * * * * * * * //

dimensions      [0 0 0 0 0 0 0];

internalField   nonuniform List<scalar> 
25
(
0.00671971
0.0064011
0.00608507
0.00577169
0.00545355
0.00515389
0.0048579
0.00456702
0.0042758
0.00399625
0.0037211
0.00345048
0.00318427
0.00292172
0.00266183
0.00240057
0.00214098
0.00188473
0.00162664
0.00139015
0.00114066
0.000895903
0.000631508
0.000380362
0.000177434
)
;

boundaryField
{
    wall
    {
        type            zeroGradient;
    }
    fuel
    {
        type            fixedValue;
        value           nonuniform 0();
    }
    outlet
    {
        type            inletOutlet;
        inletValue      uniform 0;
        value           uniform 0.000177434;
    }
    procBoundary3to2
    {
        type            processor;
        value           uniform 0.0070404;
    }
}


// ************************************************************************* //
