/*--------------------------------*- C++ -*----------------------------------*\
| =========                 |                                                 |
| \\      /  F ield         | OpenFOAM: The Open Source CFD Toolbox           |
|  \\    /   O peration     | Version:  dev                                   |
|   \\  /    A nd           | Web:      www.OpenFOAM.org                      |
|    \\/     M anipulation  |                                                 |
\*---------------------------------------------------------------------------*/
FoamFile
{
    version     2.0;
    format      ascii;
    class       volScalarField;
    location    "0.065";
    object      H2O;
}
// * * * * * * * * * * * * * * * * * * * * * * * * * * * * * * * * * * * * * //

dimensions      [0 0 0 0 0 0 0];

internalField   nonuniform List<scalar> 
25
(
0.0266584
0.0260005
0.0253255
0.0246129
0.0239038
0.0231708
0.022422
0.0216479
0.0208359
0.0199813
0.0191281
0.0182395
0.0173151
0.0163521
0.0153472
0.0142973
0.0131986
0.0120465
0.0108359
0.00956011
0.0082113
0.00677957
0.0052508
0.00360214
0.00178387
)
;

boundaryField
{
    wall
    {
        type            zeroGradient;
    }
    fuel
    {
        type            fixedValue;
        value           nonuniform 0();
    }
    outlet
    {
        type            inletOutlet;
        inletValue      uniform 0;
        value           uniform 0.00178387;
    }
    procBoundary3to2
    {
        type            processor;
        value           uniform 0.0273212;
    }
}


// ************************************************************************* //
