/*--------------------------------*- C++ -*----------------------------------*\
| =========                 |                                                 |
| \\      /  F ield         | OpenFOAM: The Open Source CFD Toolbox           |
|  \\    /   O peration     | Version:  dev                                   |
|   \\  /    A nd           | Web:      www.OpenFOAM.org                      |
|    \\/     M anipulation  |                                                 |
\*---------------------------------------------------------------------------*/
FoamFile
{
    version     2.0;
    format      ascii;
    class       volScalarField;
    location    "0.065";
    object      i-A1C2H2;
}
// * * * * * * * * * * * * * * * * * * * * * * * * * * * * * * * * * * * * * //

dimensions      [0 0 0 0 0 0 0];

internalField   nonuniform List<scalar> 
25
(
3.98699e-14
3.84433e-14
3.69184e-14
3.53093e-14
3.35924e-14
3.19149e-14
3.02163e-14
2.8522e-14
2.68145e-14
2.51743e-14
2.35646e-14
2.19879e-14
2.04422e-14
1.89198e-14
1.74073e-14
1.58724e-14
1.43238e-14
1.27638e-14
1.11524e-14
9.635e-15
7.98838e-15
6.32992e-15
4.49743e-15
2.72474e-15
1.27533e-15
)
;

boundaryField
{
    wall
    {
        type            zeroGradient;
    }
    fuel
    {
        type            fixedValue;
        value           nonuniform 0();
    }
    outlet
    {
        type            inletOutlet;
        inletValue      uniform 0;
        value           uniform 1.27533e-15;
    }
    procBoundary3to2
    {
        type            processor;
        value           uniform 4.11869e-14;
    }
}


// ************************************************************************* //
