/*--------------------------------*- C++ -*----------------------------------*\
| =========                 |                                                 |
| \\      /  F ield         | OpenFOAM: The Open Source CFD Toolbox           |
|  \\    /   O peration     | Version:  dev                                   |
|   \\  /    A nd           | Web:      www.OpenFOAM.org                      |
|    \\/     M anipulation  |                                                 |
\*---------------------------------------------------------------------------*/
FoamFile
{
    version     2.0;
    format      ascii;
    class       volScalarField;
    location    "0.065";
    object      n-C6H7;
}
// * * * * * * * * * * * * * * * * * * * * * * * * * * * * * * * * * * * * * //

dimensions      [0 0 0 0 0 0 0];

internalField   nonuniform List<scalar> 
25
(
1.32696e-19
1.06988e-19
8.44366e-20
6.46715e-20
4.87157e-20
3.56998e-20
2.54523e-20
1.75645e-20
1.16525e-20
7.35112e-21
4.49915e-21
2.61071e-21
1.42595e-21
7.25896e-22
3.40115e-22
1.44379e-22
5.44124e-23
1.7752e-23
4.87825e-24
1.1287e-24
2.76567e-25
1.58132e-25
1.97214e-25
2.80258e-25
2.63934e-25
)
;

boundaryField
{
    wall
    {
        type            zeroGradient;
    }
    fuel
    {
        type            fixedValue;
        value           nonuniform 0();
    }
    outlet
    {
        type            inletOutlet;
        inletValue      uniform 0;
        value           uniform 2.63934e-25;
    }
    procBoundary3to2
    {
        type            processor;
        value           uniform 1.62329e-19;
    }
}


// ************************************************************************* //
