/*--------------------------------*- C++ -*----------------------------------*\
| =========                 |                                                 |
| \\      /  F ield         | OpenFOAM: The Open Source CFD Toolbox           |
|  \\    /   O peration     | Version:  dev                                   |
|   \\  /    A nd           | Web:      www.OpenFOAM.org                      |
|    \\/     M anipulation  |                                                 |
\*---------------------------------------------------------------------------*/
FoamFile
{
    version     2.0;
    format      ascii;
    class       volScalarField;
    location    "0.065";
    object      N2;
}
// * * * * * * * * * * * * * * * * * * * * * * * * * * * * * * * * * * * * * //

dimensions      [0 0 0 0 0 0 0];

internalField   nonuniform List<scalar> 
25
(
0.444286
0.457299
0.470787
0.485162
0.499587
0.514603
0.530035
0.546066
0.562949
0.58077
0.598605
0.617208
0.636582
0.656781
0.677867
0.699905
0.72297
0.747154
0.772568
0.799349
0.827662
0.857713
0.8898
0.924401
0.96256
)
;

boundaryField
{
    wall
    {
        type            zeroGradient;
    }
    fuel
    {
        type            fixedValue;
        value           nonuniform 0();
    }
    outlet
    {
        type            inletOutlet;
        inletValue      uniform 1;
        value           uniform 0.96256;
    }
    procBoundary3to2
    {
        type            processor;
        value           uniform 0.431349;
    }
}


// ************************************************************************* //
