# Probe 0 (0 0 0.001)
#       Probe             0
#        Time
  1.97628e-05             0
  3.95257e-05   2.36138e-07
  5.92885e-05   0.000344836
  7.90514e-05    0.00414938
  9.88142e-05      0.019878
  0.000118577     0.0621913
   0.00013834      0.151647
  0.000158103       0.32164
  0.000177866      0.618289
  0.000197628       1.05352
  0.000217391        1.7951
  0.000237154       2.70012
  0.000256917         3.924
   0.00027668       5.51761
  0.000296443       7.52885
  0.000316206       10.0014
  0.000335968        12.974
  0.000355731       16.4791
  0.000375494        20.543
  0.000395257       25.1853
   0.00041502       30.4187
  0.000434783       36.2492
  0.000454545       42.6762
  0.000474308       49.6927
  0.000494071        57.286
  0.000513834       65.4379
  0.000533597       74.1253
   0.00055336       83.3207
  0.000573123       92.9927
  0.000592885       103.107
  0.000612648       113.626
  0.000632411       124.511
  0.000652174        135.72
  0.000671937       147.213
    0.0006917       158.945
  0.000711462       170.875
  0.000731225       182.959
  0.000750988       195.157
  0.000770751       207.427
  0.000790514       219.729
  0.000810277       232.025
   0.00083004       244.278
  0.000849802       256.455
  0.000869565       268.522
  0.000889328       280.448
  0.000909091       292.206
  0.000928854        303.77
  0.000948617       315.115
  0.000968379        326.22
  0.000988142       337.067
   0.00100791       347.639
   0.00102767        357.92
   0.00104743       367.899
   0.00106719       377.564
   0.00108696       386.909
   0.00110672       395.926
   0.00112648        404.61
   0.00114625       412.958
   0.00116601        420.97
   0.00118577       428.645
   0.00120553       435.984
    0.0012253       442.991
   0.00124506       449.669
   0.00126482       456.022
   0.00128458       462.057
   0.00130435        467.78
   0.00132411       473.198
   0.00134387        478.32
   0.00136364       483.153
    0.0013834       487.706
   0.00140316       491.989
   0.00142292        496.01
   0.00144269       499.781
   0.00146245        503.31
   0.00148221       506.607
   0.00150198       509.683
   0.00152174       512.547
    0.0015415       515.209
   0.00156126        517.68
   0.00158103       519.967
   0.00160079       522.082
   0.00162055       524.033
   0.00164032       525.829
   0.00166008        527.48
   0.00167984       528.993
    0.0016996       530.377
   0.00171937        531.64
   0.00173913       532.789
   0.00175889       533.832
   0.00177866       534.777
   0.00179842       535.629
   0.00181818       536.395
   0.00183794       537.081
   0.00185771       537.694
   0.00187747       538.238
   0.00189723       538.719
     0.001917       539.143
   0.00193676       539.512
   0.00195652       539.833
   0.00197628        540.11
   0.00199605       540.345
   0.00201581       540.543
   0.00203557       540.708
   0.00205534       540.841
    0.0020751       540.947
   0.00209486       541.029
   0.00211462       541.087
   0.00213439       541.126
   0.00215415       541.148
   0.00217391       541.153
   0.00219368       541.145
   0.00221344       541.125
    0.0022332       541.094
   0.00225296       541.054
   0.00227273       541.007
   0.00229249       540.953
   0.00231225       540.893
   0.00233202       540.829
   0.00235178       540.761
   0.00237154       540.691
    0.0023913       540.619
   0.00241107       540.545
   0.00243083       540.471
   0.00245059       540.396
   0.00247036       540.321
   0.00249012       540.247
   0.00250988       540.173
   0.00252964       540.101
   0.00254941        540.03
   0.00256917       539.961
   0.00258893       539.894
    0.0026087       539.829
   0.00262846       539.765
   0.00264822       539.704
   0.00266798       539.645
   0.00268775       539.589
   0.00270751       539.535
   0.00272727       539.483
   0.00274704       539.433
    0.0027668       539.386
   0.00278656       539.341
   0.00280632       539.298
   0.00282609       539.257
   0.00284585       539.219
   0.00286561       539.182
   0.00288538       539.148
   0.00290514       539.116
    0.0029249       539.085
   0.00294466       539.057
   0.00296443        539.03
   0.00298419       539.005
   0.00300395       538.981
   0.00302372       538.959
   0.00304348       538.939
   0.00306324        538.92
     0.003083       538.902
   0.00310277       538.886
   0.00312253       538.871
   0.00314229       538.856
   0.00316206       538.843
   0.00318182       538.831
   0.00320158        538.82
   0.00322134        538.81
   0.00324111       538.801
   0.00326087       538.792
   0.00328063       538.784
    0.0033004       538.777
   0.00332016       538.771
   0.00333992       538.765
   0.00335968        538.76
   0.00337945       538.755
   0.00339921        538.75
   0.00341897       538.746
   0.00343874       538.743
    0.0034585        538.74
   0.00347826       538.737
   0.00349802       538.734
   0.00351779       538.732
   0.00353755        538.73
   0.00355731       538.729
   0.00357708       538.727
   0.00359684       538.726
    0.0036166       538.725
   0.00363636       538.724
   0.00365613       538.723
   0.00367589       538.723
   0.00369565       538.722
   0.00371542       538.722
   0.00373518       538.721
   0.00375494       538.721
    0.0037747       538.721
   0.00379447       538.721
   0.00381423       538.721
   0.00383399       538.721
   0.00385375       538.721
   0.00387352       538.721
   0.00389328       538.721
   0.00391304       538.721
   0.00393281       538.722
   0.00395257       538.722
   0.00397233       538.722
   0.00399209       538.722
   0.00401186       538.723
   0.00403162       538.723
   0.00405138       538.723
   0.00407115       538.723
   0.00409091       538.724
   0.00411067       538.724
   0.00413043       538.724
    0.0041502       538.725
   0.00416996       538.725
   0.00418972       538.725
   0.00420949       538.725
   0.00422925       538.726
   0.00424901       538.726
   0.00426877       538.726
   0.00428854       538.726
    0.0043083       538.726
   0.00432806       538.727
   0.00434783       538.727
   0.00436759       538.727
   0.00438735       538.727
   0.00440711       538.727
   0.00442688       538.728
   0.00444664       538.728
    0.0044664       538.728
   0.00448617       538.728
   0.00450593       538.728
   0.00452569       538.728
   0.00454545       538.728
   0.00456522       538.728
   0.00458498       538.728
   0.00460474       538.729
   0.00462451       538.729
   0.00464427       538.729
   0.00466403       538.729
   0.00468379       538.729
   0.00470356       538.729
   0.00472332       538.729
   0.00474308       538.729
   0.00476285       538.729
   0.00478261       538.729
   0.00480237       538.729
   0.00482213       538.729
    0.0048419       538.729
   0.00486166       538.729
   0.00488142       538.729
   0.00490119       538.729
   0.00492095       538.729
   0.00494071       538.729
   0.00496047       538.729
   0.00498024       538.729
        0.005       538.729
   0.00501976       538.729
   0.00503953        538.73
   0.00505929        538.73
   0.00507905        538.73
   0.00509881        538.73
   0.00511858        538.73
   0.00513834        538.73
    0.0051581        538.73
   0.00517787        538.73
   0.00519763        538.73
   0.00521739        538.73
   0.00523715        538.73
   0.00525692        538.73
   0.00527668        538.73
   0.00529644        538.73
   0.00531621        538.73
   0.00533597        538.73
   0.00535573        538.73
   0.00537549        538.73
   0.00539526        538.73
   0.00541502        538.73
   0.00543478        538.73
   0.00545455        538.73
   0.00547431        538.73
   0.00549407        538.73
   0.00551383        538.73
    0.0055336        538.73
   0.00555336        538.73
   0.00557312        538.73
   0.00559289        538.73
   0.00561265        538.73
   0.00563241        538.73
   0.00565217        538.73
   0.00567194        538.73
    0.0056917        538.73
   0.00571146        538.73
   0.00573123        538.73
   0.00575099        538.73
   0.00577075        538.73
   0.00579051        538.73
   0.00581028        538.73
   0.00583004        538.73
    0.0058498        538.73
   0.00586957        538.73
   0.00588933        538.73
   0.00590909        538.73
   0.00592885        538.73
   0.00594862        538.73
   0.00596838        538.73
   0.00598814        538.73
   0.00600791        538.73
   0.00602767        538.73
   0.00604743        538.73
   0.00606719        538.73
   0.00608696        538.73
   0.00610672        538.73
   0.00612648        538.73
   0.00614625        538.73
   0.00616601        538.73
   0.00618577        538.73
   0.00620553        538.73
    0.0062253        538.73
   0.00624506        538.73
   0.00626482        538.73
   0.00628458        538.73
   0.00630435        538.73
   0.00632411        538.73
   0.00634387        538.73
   0.00636364        538.73
    0.0063834        538.73
   0.00640316        538.73
   0.00642292        538.73
   0.00644269        538.73
   0.00646245        538.73
   0.00648221        538.73
   0.00650198        538.73
   0.00652174        538.73
    0.0065415        538.73
   0.00656126        538.73
   0.00658103        538.73
   0.00660079        538.73
   0.00662055        538.73
   0.00664032        538.73
   0.00666008        538.73
   0.00667984        538.73
    0.0066996        538.73
   0.00671937        538.73
   0.00673913        538.73
   0.00675889        538.73
   0.00677866        538.73
   0.00679842        538.73
   0.00681818        538.73
   0.00683794        538.73
   0.00685771        538.73
   0.00687747        538.73
   0.00689723        538.73
     0.006917        538.73
   0.00693676        538.73
   0.00695652        538.73
   0.00697628        538.73
   0.00699605        538.73
   0.00701581        538.73
   0.00703557        538.73
   0.00705534        538.73
    0.0070751        538.73
   0.00709486        538.73
   0.00711462        538.73
   0.00713439        538.73
   0.00715415        538.73
   0.00717391        538.73
   0.00719368        538.73
   0.00721344        538.73
    0.0072332        538.73
   0.00725296        538.73
   0.00727273        538.73
   0.00729249        538.73
   0.00731225        538.73
   0.00733202        538.73
   0.00735178        538.73
   0.00737154        538.73
    0.0073913        538.73
   0.00741107        538.73
   0.00743083        538.73
   0.00745059        538.73
   0.00747036        538.73
   0.00749012        538.73
   0.00750988        538.73
   0.00752964        538.73
   0.00754941        538.73
   0.00756917        538.73
   0.00758893        538.73
    0.0076087        538.73
   0.00762846        538.73
   0.00764822        538.73
   0.00766798        538.73
   0.00768775        538.73
   0.00770751        538.73
   0.00772727        538.73
   0.00774704        538.73
    0.0077668        538.73
   0.00778656        538.73
   0.00780632        538.73
   0.00782609        538.73
   0.00784585        538.73
   0.00786561        538.73
   0.00788538        538.73
   0.00790514        538.73
    0.0079249        538.73
   0.00794466        538.73
   0.00796443        538.73
   0.00798419        538.73
   0.00800395        538.73
   0.00802372        538.73
   0.00804348        538.73
   0.00806324        538.73
     0.008083        538.73
   0.00810277        538.73
   0.00812253        538.73
   0.00814229        538.73
   0.00816206        538.73
   0.00818182        538.73
   0.00820158        538.73
   0.00822134        538.73
   0.00824111        538.73
   0.00826087        538.73
   0.00828063        538.73
    0.0083004        538.73
   0.00832016        538.73
   0.00833992        538.73
   0.00835968        538.73
   0.00837945        538.73
   0.00839921        538.73
   0.00841897        538.73
   0.00843874        538.73
    0.0084585        538.73
   0.00847826        538.73
   0.00849802        538.73
   0.00851779        538.73
   0.00853755        538.73
   0.00855731        538.73
   0.00857708        538.73
   0.00859684        538.73
    0.0086166        538.73
   0.00863636        538.73
   0.00865613        538.73
   0.00867589        538.73
   0.00869565        538.73
   0.00871542        538.73
   0.00873518        538.73
   0.00875494        538.73
    0.0087747        538.73
   0.00879447        538.73
   0.00881423        538.73
   0.00883399        538.73
   0.00885375        538.73
   0.00887352        538.73
   0.00889328        538.73
   0.00891304        538.73
   0.00893281        538.73
   0.00895257        538.73
   0.00897233        538.73
   0.00899209        538.73
   0.00901186        538.73
   0.00903162        538.73
   0.00905138        538.73
   0.00907115        538.73
   0.00909091        538.73
   0.00911067        538.73
   0.00913043        538.73
    0.0091502        538.73
   0.00916996        538.73
   0.00918972        538.73
   0.00920949        538.73
   0.00922925        538.73
   0.00924901        538.73
   0.00926877        538.73
   0.00928854        538.73
    0.0093083        538.73
   0.00932806        538.73
   0.00934783        538.73
   0.00936759        538.73
   0.00938735        538.73
   0.00940711        538.73
   0.00942688        538.73
   0.00944664        538.73
    0.0094664        538.73
   0.00948617        538.73
   0.00950593        538.73
   0.00952569        538.73
   0.00954545        538.73
   0.00956522        538.73
   0.00958498        538.73
   0.00960474        538.73
   0.00962451        538.73
   0.00964427        538.73
   0.00966403        538.73
   0.00968379        538.73
   0.00970356        538.73
   0.00972332        538.73
   0.00974308        538.73
   0.00976285        538.73
   0.00978261        538.73
   0.00980237        538.73
   0.00982213        538.73
    0.0098419        538.73
   0.00986166        538.73
   0.00988142        538.73
   0.00990119        538.73
   0.00992095        538.73
   0.00994071        538.73
   0.00996047        538.73
   0.00998024        538.73
         0.01        538.73
    0.0100198        538.73
    0.0100395        538.73
    0.0100593        538.73
    0.0100791        538.73
    0.0100988        538.73
    0.0101186        538.73
    0.0101383        538.73
    0.0101581        538.73
    0.0101779        538.73
    0.0101976        538.73
    0.0102174        538.73
    0.0102372        538.73
    0.0102569        538.73
    0.0102767        538.73
    0.0102964        538.73
    0.0103162        538.73
     0.010336        538.73
    0.0103557        538.73
    0.0103755        538.73
    0.0103953        538.73
     0.010415        538.73
    0.0104348        538.73
    0.0104545        538.73
    0.0104743        538.73
    0.0104941        538.73
    0.0105138        538.73
    0.0105336        538.73
    0.0105534        538.73
    0.0105731        538.73
    0.0105929        538.73
    0.0106126        538.73
    0.0106324        538.73
    0.0106522        538.73
    0.0106719        538.73
    0.0106917        538.73
    0.0107115        538.73
    0.0107312        538.73
     0.010751        538.73
    0.0107708        538.73
    0.0107905        538.73
    0.0108103        538.73
      0.01083        538.73
    0.0108498        538.73
    0.0108696        538.73
    0.0108893        538.73
    0.0109091        538.73
    0.0109289        538.73
    0.0109486        538.73
    0.0109684        538.73
    0.0109881        538.73
    0.0110079        538.73
    0.0110277        538.73
    0.0110474        538.73
    0.0110672        538.73
     0.011087        538.73
    0.0111067        538.73
    0.0111265        538.73
    0.0111462        538.73
     0.011166        538.73
    0.0111858        538.73
    0.0112055        538.73
    0.0112253        538.73
    0.0112451        538.73
    0.0112648        538.73
    0.0112846        538.73
    0.0113043        538.73
    0.0113241        538.73
    0.0113439        538.73
    0.0113636        538.73
    0.0113834        538.73
    0.0114032        538.73
    0.0114229        538.73
    0.0114427        538.73
    0.0114625        538.73
    0.0114822        538.73
     0.011502        538.73
    0.0115217        538.73
    0.0115415        538.73
    0.0115613        538.73
     0.011581        538.73
    0.0116008        538.73
    0.0116206        538.73
    0.0116403        538.73
    0.0116601        538.73
    0.0116798        538.73
    0.0116996        538.73
    0.0117194        538.73
    0.0117391        538.73
    0.0117589        538.73
    0.0117787        538.73
    0.0117984        538.73
    0.0118182        538.73
    0.0118379        538.73
    0.0118577        538.73
    0.0118775        538.73
    0.0118972        538.73
     0.011917        538.73
    0.0119368        538.73
    0.0119565        538.73
    0.0119763        538.73
     0.011996        538.73
    0.0120158        538.73
    0.0120356        538.73
    0.0120553        538.73
    0.0120751        538.73
    0.0120949        538.73
    0.0121146        538.73
    0.0121344        538.73
    0.0121542        538.73
    0.0121739        538.73
    0.0121937        538.73
    0.0122134        538.73
    0.0122332        538.73
     0.012253        538.73
    0.0122727        538.73
    0.0122925        538.73
    0.0123123        538.73
     0.012332        538.73
    0.0123518        538.73
    0.0123715        538.73
    0.0123913        538.73
    0.0124111        538.73
    0.0124308        538.73
    0.0124506        538.73
    0.0124704        538.73
    0.0124901        538.73
    0.0125099        538.73
    0.0125296        538.73
    0.0125494        538.73
    0.0125692        538.73
    0.0125889        538.73
    0.0126087        538.73
    0.0126285        538.73
    0.0126482        538.73
     0.012668        538.73
    0.0126877        538.73
    0.0127075        538.73
    0.0127273        538.73
     0.012747        538.73
    0.0127668        538.73
    0.0127866        538.73
    0.0128063        538.73
    0.0128261        538.73
    0.0128458        538.73
    0.0128656        538.73
    0.0128854        538.73
    0.0129051        538.73
    0.0129249        538.73
    0.0129447        538.73
    0.0129644        538.73
    0.0129842        538.73
     0.013004        538.73
    0.0130237        538.73
    0.0130435        538.73
    0.0130632        538.73
     0.013083        538.73
    0.0131028        538.73
    0.0131225        538.73
    0.0131423        538.73
    0.0131621        538.73
    0.0131818        538.73
    0.0132016        538.73
    0.0132213        538.73
    0.0132411        538.73
    0.0132609        538.73
    0.0132806        538.73
    0.0133004        538.73
    0.0133202        538.73
    0.0133399        538.73
    0.0133597        538.73
    0.0133794        538.73
    0.0133992        538.73
     0.013419        538.73
    0.0134387        538.73
    0.0134585        538.73
    0.0134783        538.73
     0.013498        538.73
    0.0135178        538.73
    0.0135375        538.73
    0.0135573        538.73
    0.0135771        538.73
    0.0135968        538.73
    0.0136166        538.73
    0.0136364        538.73
    0.0136561        538.73
    0.0136759        538.73
    0.0136957        538.73
    0.0137154        538.73
    0.0137352        538.73
    0.0137549        538.73
    0.0137747        538.73
    0.0137945        538.73
    0.0138142        538.73
     0.013834        538.73
    0.0138538        538.73
    0.0138735        538.73
    0.0138933        538.73
     0.013913        538.73
    0.0139328        538.73
    0.0139526        538.73
    0.0139723        538.73
    0.0139921        538.73
    0.0140119        538.73
    0.0140316        538.73
    0.0140514        538.73
    0.0140711        538.73
    0.0140909        538.73
    0.0141107        538.73
    0.0141304        538.73
    0.0141502        538.73
      0.01417        538.73
    0.0141897        538.73
    0.0142095        538.73
    0.0142292        538.73
     0.014249        538.73
    0.0142688        538.73
    0.0142885        538.73
    0.0143083        538.73
    0.0143281        538.73
    0.0143478        538.73
    0.0143676        538.73
    0.0143874        538.73
    0.0144071        538.73
    0.0144269        538.73
    0.0144466        538.73
    0.0144664        538.73
    0.0144862        538.73
    0.0145059        538.73
    0.0145257        538.73
    0.0145455        538.73
    0.0145652        538.73
     0.014585        538.73
    0.0146047        538.73
    0.0146245        538.73
    0.0146443        538.73
     0.014664        538.73
    0.0146838        538.73
    0.0147036        538.73
    0.0147233        538.73
    0.0147431        538.73
    0.0147628        538.73
    0.0147826        538.73
    0.0148024        538.73
    0.0148221        538.73
    0.0148419        538.73
    0.0148617        538.73
    0.0148814        538.73
    0.0149012        538.73
    0.0149209        538.73
    0.0149407        538.73
    0.0149605        538.73
    0.0149802        538.73
        0.015        538.73
    0.0150198        538.73
    0.0150395        538.73
    0.0150593        538.73
    0.0150791        538.73
    0.0150988        538.73
    0.0151186        538.73
    0.0151383        538.73
    0.0151581        538.73
    0.0151779        538.73
    0.0151976        538.73
    0.0152174        538.73
    0.0152372        538.73
    0.0152569        538.73
    0.0152767        538.73
    0.0152964        538.73
    0.0153162        538.73
     0.015336        538.73
    0.0153557        538.73
    0.0153755        538.73
    0.0153953        538.73
     0.015415        538.73
    0.0154348        538.73
    0.0154545        538.73
    0.0154743        538.73
    0.0154941        538.73
    0.0155138        538.73
    0.0155336        538.73
    0.0155534        538.73
    0.0155731        538.73
    0.0155929        538.73
    0.0156126        538.73
    0.0156324        538.73
    0.0156522        538.73
    0.0156719        538.73
    0.0156917        538.73
    0.0157115        538.73
    0.0157312        538.73
     0.015751        538.73
    0.0157708        538.73
    0.0157905        538.73
    0.0158103        538.73
      0.01583        538.73
    0.0158498        538.73
    0.0158696        538.73
    0.0158893        538.73
    0.0159091        538.73
    0.0159289        538.73
    0.0159486        538.73
    0.0159684        538.73
    0.0159881        538.73
    0.0160079        538.73
    0.0160277        538.73
    0.0160474        538.73
    0.0160672        538.73
     0.016087        538.73
    0.0161067        538.73
    0.0161265        538.73
    0.0161462        538.73
     0.016166        538.73
    0.0161858        538.73
    0.0162055        538.73
    0.0162253        538.73
    0.0162451        538.73
    0.0162648        538.73
    0.0162846        538.73
    0.0163043        538.73
    0.0163241        538.73
    0.0163439        538.73
    0.0163636        538.73
    0.0163834        538.73
    0.0164032        538.73
    0.0164229        538.73
    0.0164427        538.73
    0.0164625        538.73
    0.0164822        538.73
     0.016502        538.73
    0.0165217        538.73
    0.0165415        538.73
    0.0165613        538.73
     0.016581        538.73
    0.0166008        538.73
    0.0166206        538.73
    0.0166403        538.73
    0.0166601        538.73
    0.0166798        538.73
    0.0166996        538.73
    0.0167194        538.73
    0.0167391        538.73
    0.0167589        538.73
    0.0167787        538.73
    0.0167984        538.73
    0.0168182        538.73
    0.0168379        538.73
    0.0168577        538.73
    0.0168775        538.73
    0.0168972        538.73
     0.016917        538.73
    0.0169368        538.73
    0.0169565        538.73
    0.0169763        538.73
     0.016996        538.73
    0.0170158        538.73
    0.0170356        538.73
    0.0170553        538.73
    0.0170751        538.73
    0.0170949        538.73
    0.0171146        538.73
    0.0171344        538.73
    0.0171542        538.73
    0.0171739        538.73
    0.0171937        538.73
    0.0172134        538.73
    0.0172332        538.73
     0.017253        538.73
    0.0172727        538.73
    0.0172925        538.73
    0.0173123        538.73
     0.017332        538.73
    0.0173518        538.73
    0.0173715        538.73
    0.0173913        538.73
    0.0174111        538.73
    0.0174308        538.73
    0.0174506        538.73
    0.0174704        538.73
    0.0174901        538.73
    0.0175099        538.73
    0.0175296        538.73
    0.0175494        538.73
    0.0175692        538.73
    0.0175889        538.73
    0.0176087        538.73
    0.0176285        538.73
    0.0176482        538.73
     0.017668        538.73
    0.0176877        538.73
    0.0177075        538.73
    0.0177273        538.73
     0.017747        538.73
    0.0177668        538.73
    0.0177866        538.73
    0.0178063        538.73
    0.0178261        538.73
    0.0178458        538.73
    0.0178656        538.73
    0.0178854        538.73
    0.0179051        538.73
    0.0179249        538.73
    0.0179447        538.73
    0.0179644        538.73
    0.0179842        538.73
     0.018004        538.73
    0.0180237        538.73
    0.0180435        538.73
    0.0180632        538.73
     0.018083        538.73
    0.0181028        538.73
    0.0181225        538.73
    0.0181423        538.73
    0.0181621        538.73
    0.0181818        538.73
    0.0182016        538.73
    0.0182213        538.73
    0.0182411        538.73
    0.0182609        538.73
    0.0182806        538.73
    0.0183004        538.73
    0.0183202        538.73
    0.0183399        538.73
    0.0183597        538.73
    0.0183794        538.73
    0.0183992        538.73
     0.018419        538.73
    0.0184387        538.73
    0.0184585        538.73
    0.0184783        538.73
     0.018498        538.73
    0.0185178        538.73
    0.0185375        538.73
    0.0185573        538.73
    0.0185771        538.73
    0.0185968        538.73
    0.0186166        538.73
    0.0186364        538.73
    0.0186561        538.73
    0.0186759        538.73
    0.0186957        538.73
    0.0187154        538.73
    0.0187352        538.73
    0.0187549        538.73
    0.0187747        538.73
    0.0187945        538.73
    0.0188142        538.73
     0.018834        538.73
    0.0188538        538.73
    0.0188735        538.73
    0.0188933        538.73
     0.018913        538.73
    0.0189328        538.73
    0.0189526        538.73
    0.0189723        538.73
    0.0189921        538.73
    0.0190119        538.73
    0.0190316        538.73
    0.0190514        538.73
    0.0190711        538.73
    0.0190909        538.73
    0.0191107        538.73
    0.0191304        538.73
    0.0191502        538.73
      0.01917        538.73
    0.0191897        538.73
    0.0192095        538.73
    0.0192292        538.73
     0.019249        538.73
    0.0192688        538.73
    0.0192885        538.73
    0.0193083        538.73
    0.0193281        538.73
    0.0193478        538.73
    0.0193676        538.73
    0.0193874        538.73
    0.0194071        538.73
    0.0194269        538.73
    0.0194466        538.73
    0.0194664        538.73
    0.0194862        538.73
    0.0195059        538.73
    0.0195257        538.73
    0.0195455        538.73
    0.0195652        538.73
     0.019585        538.73
    0.0196047        538.73
    0.0196245        538.73
    0.0196443        538.73
     0.019664        538.73
    0.0196838        538.73
    0.0197036        538.73
    0.0197233        538.73
    0.0197431        538.73
    0.0197628        538.73
    0.0197826        538.73
    0.0198024        538.73
    0.0198221        538.73
    0.0198419        538.73
    0.0198617        538.73
    0.0198814        538.73
    0.0199012        538.73
    0.0199209        538.73
    0.0199407        538.73
    0.0199605        538.73
    0.0199802        538.73
         0.02        538.73
    0.0200198        538.73
    0.0200395        538.73
    0.0200593        538.73
    0.0200791        538.73
    0.0200988        538.73
    0.0201186        538.73
    0.0201383        538.73
    0.0201581        538.73
    0.0201779        538.73
    0.0201976        538.73
    0.0202174        538.73
    0.0202372        538.73
    0.0202569        538.73
    0.0202767        538.73
    0.0202964        538.73
    0.0203162        538.73
     0.020336        538.73
    0.0203557        538.73
    0.0203755        538.73
    0.0203953        538.73
     0.020415        538.73
    0.0204348        538.73
    0.0204545        538.73
    0.0204743        538.73
    0.0204941        538.73
    0.0205138        538.73
    0.0205336        538.73
    0.0205534        538.73
    0.0205731        538.73
    0.0205929        538.73
    0.0206126        538.73
    0.0206324        538.73
    0.0206522        538.73
    0.0206719        538.73
    0.0206917        538.73
    0.0207115        538.73
    0.0207312        538.73
     0.020751        538.73
    0.0207708        538.73
    0.0207905        538.73
    0.0208103        538.73
      0.02083        538.73
    0.0208498        538.73
    0.0208696        538.73
    0.0208893        538.73
    0.0209091        538.73
    0.0209289        538.73
    0.0209486        538.73
    0.0209684        538.73
    0.0209881        538.73
    0.0210079        538.73
    0.0210277        538.73
    0.0210474        538.73
    0.0210672        538.73
     0.021087        538.73
    0.0211067        538.73
    0.0211265        538.73