# Probe 0 (0 0 0)
# Probe 1 (0 0 0.005)
# Probe 2 (0 0 0.9)
#       Probe             0             1             2
#        Time
  1.92308e-05   7.24291e+13             0             0
  3.84615e-05   1.37818e+14             0             0
  5.76923e-05    1.9685e+14             0             0
  7.69231e-05   2.50143e+14             0             0
  9.61538e-05   2.98257e+14             0             0
  0.000115385   3.41693e+14   5.47913e+08             0
  0.000134615   3.80907e+14   3.51582e+09             0
  0.000153846   4.16308e+14   1.28937e+10             0
  0.000173077   4.48269e+14   3.54706e+10             0
  0.000192308   4.77122e+14   8.13304e+10             0
  0.000211538   5.03171e+14   1.64134e+11             0
  0.000230769   5.26688e+14   3.01184e+11             0
      0.00025   5.47918e+14   5.13288e+11             0
  0.000269231   5.67085e+14   8.24453e+11             0
  0.000288462   5.84388e+14   1.26143e+12             0
  0.000307692    6.0001e+14   1.85319e+12             0
  0.000326923   6.14112e+14   2.63025e+12             0
  0.000346154   6.26844e+14   3.62407e+12             0
  0.000365385   6.38338e+14   4.86636e+12             0
  0.000384615   6.48715e+14   6.38844e+12             0
  0.000403846   6.58083e+14   8.22059e+12             0
  0.000423077   6.66541e+14   1.03915e+13             0
  0.000442308   6.74176e+14   1.29279e+13             0
  0.000461538   6.81069e+14   1.58537e+13             0
  0.000480769   6.87292e+14   1.91902e+13             0
       0.0005    6.9291e+14   2.29554e+13             0
  0.000519231   6.97981e+14   2.71639e+13             0
  0.000538462    7.0256e+14   3.18267e+13             0
  0.000557692   7.06694e+14   3.69514e+13             0
  0.000576923   7.10426e+14   4.25418e+13             0
  0.000596154   7.13794e+14   4.85981e+13             0
  0.000615385   7.16836e+14   5.51171e+13             0
  0.000634615   7.19582e+14   6.20922e+13             0
  0.000653846   7.22061e+14   6.95137e+13             0
  0.000673077   7.24298e+14    7.7369e+13             0
  0.000692308   7.26319e+14   8.56425e+13             0
  0.000711538   7.28143e+14   9.43164e+13             0
  0.000730769   7.29789e+14   1.03371e+14             0
      0.00075   7.31276e+14   1.12783e+14             0
  0.000769231   7.32618e+14    1.2253e+14             0
  0.000788462   7.33829e+14   1.32587e+14             0
  0.000807692   7.34923e+14   1.42927e+14             0
  0.000826923   7.35911e+14   1.53523e+14             0
  0.000846154   7.36802e+14   1.64347e+14             0
  0.000865385   7.37607e+14   1.75373e+14             0
  0.000884615   7.38333e+14    1.8657e+14             0
  0.000903846   7.38989e+14   1.97912e+14             0
  0.000923077   7.39581e+14    2.0937e+14             0
  0.000942308   7.40116e+14   2.20917e+14             0
  0.000961538   7.40598e+14   2.32526e+14             0
  0.000980769   7.41034e+14   2.44171e+14             0
        0.001   7.41427e+14   2.55826e+14             0
   0.00101923   7.41783e+14   2.67468e+14             0
   0.00103846   7.42103e+14   2.79072e+14             0
   0.00105769   7.42392e+14   2.90618e+14             0
   0.00107692   7.42654e+14   3.02083e+14             0
   0.00109615    7.4289e+14   3.13449e+14             0
   0.00111538   7.43103e+14   3.24696e+14             0
   0.00113462   7.43295e+14   3.35807e+14             0
   0.00115385   7.43468e+14   3.46767e+14             0
   0.00117308   7.43625e+14   3.57561e+14             0
   0.00119231   7.43766e+14   3.68176e+14             0
   0.00121154   7.43894e+14     3.786e+14             0
   0.00123077   7.44009e+14   3.88821e+14             0
      0.00125   7.44113e+14    3.9883e+14             0
   0.00126923   7.44207e+14   4.08619e+14             0
   0.00128846   7.44292e+14   4.18181e+14             0
   0.00130769   7.44369e+14    4.2751e+14             0
   0.00132692   7.44438e+14     4.366e+14             0
   0.00134615     7.445e+14   4.45447e+14             0
   0.00136538   7.44557e+14   4.54048e+14             0
   0.00138462   7.44607e+14   4.62402e+14             0
   0.00140385   7.44653e+14   4.70506e+14             0
   0.00142308   7.44695e+14    4.7836e+14             0
   0.00144231   7.44732e+14   4.85964e+14             0
   0.00146154   7.44766e+14    4.9332e+14             0
   0.00148077   7.44796e+14   5.00428e+14             0
       0.0015   7.44824e+14    5.0729e+14             0
   0.00151923   7.44849e+14    5.1391e+14             0
   0.00153846   7.44871e+14   5.20289e+14             0
   0.00155769   7.44892e+14   5.26433e+14             0
   0.00157692    7.4491e+14   5.32344e+14             0
   0.00159615   7.44926e+14   5.38026e+14             0
   0.00161538   7.44941e+14   5.43486e+14             0
   0.00163462   7.44955e+14   5.48726e+14             0
   0.00165385   7.44967e+14   5.53752e+14             0
   0.00167308   7.44978e+14    5.5857e+14             0
   0.00169231   7.44988e+14   5.63185e+14             0
   0.00171154   7.44997e+14   5.67602e+14             0
   0.00173077   7.45005e+14   5.71826e+14             0
      0.00175   7.45012e+14   5.75865e+14             0
   0.00176923   7.45019e+14   5.79723e+14             0
   0.00178846   7.45024e+14   5.83405e+14             0
   0.00180769    7.4503e+14   5.86919e+14             0
   0.00182692   7.45035e+14   5.90269e+14             0
   0.00184615   7.45039e+14   5.93461e+14             0
   0.00186538   7.45043e+14   5.96502e+14             0
   0.00188462   7.45047e+14   5.99396e+14             0
   0.00190385    7.4505e+14   6.02149e+14             0
   0.00192308   7.45053e+14   6.04766e+14             0
   0.00194231   7.45055e+14   6.07254e+14             0
   0.00196154   7.45058e+14   6.09616e+14             0
   0.00198077    7.4506e+14   6.11859e+14             0
        0.002   7.45062e+14   6.13987e+14             0
   0.00201923   7.45063e+14   6.16005e+14             0
   0.00203846   7.45065e+14   6.17918e+14             0
   0.00205769   7.45066e+14   6.19731e+14             0
   0.00207692   7.45068e+14   6.21447e+14             0
   0.00209615   7.45069e+14   6.23072e+14             0
   0.00211538    7.4507e+14   6.24609e+14             0
   0.00213462   7.45071e+14   6.26063e+14             0
   0.00215385   7.45072e+14   6.27437e+14             0
   0.00217308   7.45072e+14   6.28736e+14             0
   0.00219231   7.45073e+14   6.29963e+14             0
   0.00221154   7.45074e+14   6.31121e+14             0
   0.00223077   7.45074e+14   6.32214e+14             0
      0.00225   7.45075e+14   6.33246e+14             0
   0.00226923   7.45075e+14   6.34218e+14             0
   0.00228846   7.45076e+14   6.35135e+14             0
   0.00230769   7.45076e+14   6.35999e+14             0
   0.00232692   7.45076e+14   6.36813e+14             0
   0.00234615   7.45077e+14    6.3758e+14             0
   0.00236538   7.45077e+14   6.38301e+14             0
   0.00238462   7.45077e+14    6.3898e+14             0
   0.00240385   7.45077e+14   6.39619e+14             0
   0.00242308   7.45078e+14   6.40219e+14             0
   0.00244231   7.45078e+14   6.40784e+14             0
   0.00246154   7.45078e+14   6.41314e+14             0
   0.00248077   7.45078e+14   6.41813e+14             0
       0.0025   7.45078e+14   6.42281e+14             0
   0.00251923   7.45078e+14   6.42721e+14             0
   0.00253846   7.45078e+14   6.43133e+14             0
   0.00255769   7.45079e+14    6.4352e+14             0
   0.00257692   7.45079e+14   6.43883e+14             0
   0.00259615   7.45079e+14   6.44224e+14             0
   0.00261538   7.45079e+14   6.44543e+14             0
   0.00263462   7.45079e+14   6.44842e+14             0
   0.00265385   7.45079e+14   6.45122e+14             0
   0.00267308   7.45079e+14   6.45385e+14             0
   0.00269231   7.45079e+14   6.45631e+14             0
   0.00271154   7.45079e+14   6.45861e+14             0
   0.00273077   7.45079e+14   6.46076e+14             0
      0.00275   7.45079e+14   6.46278e+14             0
   0.00276923   7.45079e+14   6.46467e+14             0
   0.00278846   7.45079e+14   6.46643e+14             0
   0.00280769   7.45079e+14   6.46808e+14             0
   0.00282692   7.45079e+14   6.46962e+14             0
   0.00284615   7.45079e+14   6.47106e+14             0
   0.00286538   7.45079e+14   6.47241e+14             0
   0.00288462   7.45079e+14   6.47366e+14             0
   0.00290385   7.45079e+14   6.47484e+14             0
   0.00292308   7.45079e+14   6.47593e+14             0
   0.00294231   7.45079e+14   6.47696e+14             0
   0.00296154   7.45079e+14   6.47791e+14             0
   0.00298077   7.45079e+14    6.4788e+14             0
        0.003   7.45079e+14   6.47963e+14             0
   0.00301923   7.45079e+14   6.48041e+14             0
   0.00303846   7.45079e+14   6.48113e+14             0
   0.00305769   7.45079e+14   6.48181e+14             0
   0.00307692   7.45079e+14   6.48243e+14             0
   0.00309615   7.45079e+14   6.48302e+14             0
   0.00311538   7.45079e+14   6.48356e+14             0
   0.00313462   7.45079e+14   6.48407e+14             0
   0.00315385   7.45079e+14   6.48455e+14             0
   0.00317308   7.45079e+14   6.48499e+14             0
   0.00319231   7.45079e+14    6.4854e+14             0
   0.00321154   7.45079e+14   6.48578e+14             0
   0.00323077   7.45079e+14   6.48613e+14             0
      0.00325   7.45079e+14   6.48646e+14             0
   0.00326923   7.45079e+14   6.48677e+14             0
   0.00328846   7.45079e+14   6.48706e+14             0
   0.00330769   7.45079e+14   6.48732e+14             0
   0.00332692   7.45079e+14   6.48757e+14             0
   0.00334615   7.45079e+14    6.4878e+14             0
   0.00336538   7.45079e+14   6.48801e+14             0
   0.00338462   7.45079e+14   6.48821e+14             0
   0.00340385   7.45079e+14    6.4884e+14             0
   0.00342308   7.45079e+14   6.48857e+14             0
   0.00344231   7.45079e+14   6.48873e+14             0
   0.00346154   7.45079e+14   6.48887e+14             0
   0.00348077   7.45079e+14   6.48901e+14             0
       0.0035   7.45079e+14   6.48914e+14             0
   0.00351923   7.45079e+14   6.48926e+14             0
   0.00353846   7.45079e+14   6.48937e+14             0
   0.00355769   7.45079e+14   6.48947e+14             0
   0.00357692   7.45079e+14   6.48956e+14             0
   0.00359615   7.45079e+14   6.48965e+14             0
   0.00361538   7.45079e+14   6.48973e+14             0
   0.00363462   7.45079e+14   6.48981e+14             0
   0.00365385   7.45079e+14   6.48988e+14             0
   0.00367308   7.45079e+14   6.48994e+14             0
   0.00369231   7.45079e+14      6.49e+14             0
   0.00371154   7.45079e+14   6.49006e+14             0
   0.00373077   7.45079e+14   6.49011e+14             0
      0.00375   7.45079e+14   6.49016e+14             0
   0.00376923   7.45079e+14    6.4902e+14             0
   0.00378846   7.45079e+14   6.49024e+14             0
   0.00380769   7.45079e+14   6.49028e+14             0
   0.00382692   7.45079e+14   6.49032e+14             0
   0.00384615   7.45079e+14   6.49035e+14             0
   0.00386538   7.45079e+14   6.49038e+14             0
   0.00388462   7.45079e+14   6.49041e+14             0
   0.00390385   7.45079e+14   6.49043e+14             0
   0.00392308   7.45079e+14   6.49046e+14             0
   0.00394231   7.45079e+14   6.49048e+14             0
   0.00396154   7.45079e+14    6.4905e+14             0
   0.00398077   7.45079e+14   6.49052e+14             0
        0.004   7.45079e+14   6.49054e+14             0
   0.00401923   7.45079e+14   6.49055e+14             0
   0.00403846   7.45079e+14   6.49057e+14             0
   0.00405769   7.45079e+14   6.49058e+14             0
   0.00407692   7.45079e+14   6.49059e+14             0
   0.00409615   7.45079e+14   6.49061e+14             0
   0.00411538   7.45079e+14   6.49062e+14             0
   0.00413462   7.45079e+14   6.49063e+14             0
   0.00415385   7.45079e+14   6.49064e+14             0
   0.00417308   7.45079e+14   6.49064e+14             0
   0.00419231   7.45079e+14   6.49065e+14             0
   0.00421154   7.45079e+14   6.49066e+14             0
   0.00423077   7.45079e+14   6.49067e+14             0
      0.00425   7.45079e+14   6.49067e+14             0
   0.00426923   7.45079e+14   6.49068e+14             0
   0.00428846   7.45079e+14   6.49068e+14             0
   0.00430769   7.45079e+14   6.49069e+14             0
   0.00432692   7.45079e+14   6.49069e+14             0
   0.00434615   7.45079e+14    6.4907e+14             0
   0.00436538   7.45079e+14    6.4907e+14             0
   0.00438462   7.45079e+14   6.49071e+14             0
   0.00440385   7.45079e+14   6.49071e+14             0
   0.00442308   7.45079e+14   6.49071e+14             0
   0.00444231   7.45079e+14   6.49071e+14             0
   0.00446154   7.45079e+14   6.49072e+14             0
   0.00448077   7.45079e+14   6.49072e+14             0
       0.0045   7.45079e+14   6.49072e+14             0
   0.00451923   7.45079e+14   6.49072e+14             0
   0.00453846   7.45079e+14   6.49073e+14             0
   0.00455769   7.45079e+14   6.49073e+14             0
   0.00457692   7.45079e+14   6.49073e+14             0
   0.00459615   7.45079e+14   6.49073e+14             0
   0.00461538   7.45079e+14   6.49073e+14             0
   0.00463462   7.45079e+14   6.49073e+14             0
   0.00465385   7.45079e+14   6.49073e+14             0
   0.00467308   7.45079e+14   6.49074e+14             0
   0.00469231   7.45079e+14   6.49074e+14             0
   0.00471154   7.45079e+14   6.49074e+14             0
   0.00473077   7.45079e+14   6.49074e+14             0
      0.00475   7.45079e+14   6.49074e+14             0
   0.00476923   7.45079e+14   6.49074e+14             0
   0.00478846   7.45079e+14   6.49074e+14             0
   0.00480769   7.45079e+14   6.49074e+14             0
   0.00482692   7.45079e+14   6.49074e+14             0
   0.00484615   7.45079e+14   6.49074e+14             0
   0.00486538   7.45079e+14   6.49074e+14             0
   0.00488462   7.45079e+14   6.49074e+14             0
   0.00490385   7.45079e+14   6.49074e+14             0
   0.00492308   7.45079e+14   6.49074e+14             0
   0.00494231   7.45079e+14   6.49074e+14             0
   0.00496154   7.45079e+14   6.49074e+14             0
   0.00498077   7.45079e+14   6.49074e+14             0
        0.005   7.45079e+14   6.49074e+14             0
   0.00501923   7.45079e+14   6.49074e+14             0
   0.00503846   7.45079e+14   6.49074e+14             0
   0.00505769   7.45079e+14   6.49075e+14             0
   0.00507692   7.45079e+14   6.49075e+14             0
   0.00509615   7.45079e+14   6.49075e+14             0
   0.00511538   7.45079e+14   6.49075e+14             0
   0.00513462   7.45079e+14   6.49075e+14             0
   0.00515385   7.45079e+14   6.49075e+14             0
   0.00517308   7.45079e+14   6.49075e+14             0
   0.00519231   7.45079e+14   6.49075e+14             0
   0.00521154   7.45079e+14   6.49075e+14             0
   0.00523077   7.45079e+14   6.49075e+14             0
      0.00525   7.45079e+14   6.49075e+14             0
   0.00526923   7.45079e+14   6.49075e+14             0
   0.00528846   7.45079e+14   6.49075e+14             0
   0.00530769   7.45079e+14   6.49075e+14             0
   0.00532692   7.45079e+14   6.49075e+14             0
   0.00534615   7.45079e+14   6.49075e+14             0
   0.00536538   7.45079e+14   6.49075e+14             0
   0.00538462   7.45079e+14   6.49075e+14             0
   0.00540385   7.45079e+14   6.49075e+14             0
   0.00542308   7.45079e+14   6.49075e+14             0
   0.00544231   7.45079e+14   6.49075e+14             0
   0.00546154   7.45079e+14   6.49075e+14             0
   0.00548077   7.45079e+14   6.49075e+14             0
       0.0055   7.45079e+14   6.49075e+14             0
   0.00551923   7.45079e+14   6.49075e+14             0
   0.00553846   7.45079e+14   6.49075e+14             0
   0.00555769   7.45079e+14   6.49075e+14             0
   0.00557692   7.45079e+14   6.49075e+14             0
   0.00559615   7.45079e+14   6.49075e+14             0
   0.00561538   7.45079e+14   6.49075e+14             0
   0.00563462   7.45079e+14   6.49075e+14             0
   0.00565385   7.45079e+14   6.49075e+14             0
   0.00567308   7.45079e+14   6.49075e+14             0
   0.00569231   7.45079e+14   6.49075e+14             0
   0.00571154   7.45079e+14   6.49075e+14             0
   0.00573077   7.45079e+14   6.49075e+14             0
      0.00575   7.45079e+14   6.49075e+14             0
   0.00576923   7.45079e+14   6.49075e+14             0
   0.00578846   7.45079e+14   6.49075e+14             0
   0.00580769   7.45079e+14   6.49075e+14             0
   0.00582692   7.45079e+14   6.49075e+14             0
   0.00584615   7.45079e+14   6.49075e+14             0
   0.00586538   7.45079e+14   6.49075e+14             0
   0.00588462   7.45079e+14   6.49075e+14             0
   0.00590385   7.45079e+14   6.49075e+14             0
   0.00592308   7.45079e+14   6.49075e+14             0
   0.00594231   7.45079e+14   6.49075e+14             0
   0.00596154   7.45079e+14   6.49075e+14             0
   0.00598077   7.45079e+14   6.49075e+14             0
        0.006   7.45079e+14   6.49075e+14             0
   0.00601923   7.45079e+14   6.49075e+14             0
   0.00603846   7.45079e+14   6.49075e+14             0
   0.00605769   7.45079e+14   6.49075e+14             0
   0.00607692   7.45079e+14   6.49075e+14             0
   0.00609615   7.45079e+14   6.49075e+14             0
   0.00611538   7.45079e+14   6.49075e+14             0
   0.00613462   7.45079e+14   6.49075e+14             0
   0.00615385   7.45079e+14   6.49075e+14             0
   0.00617308   7.45079e+14   6.49075e+14             0
   0.00619231   7.45079e+14   6.49075e+14             0
   0.00621154   7.45079e+14   6.49075e+14             0
   0.00623077   7.45079e+14   6.49075e+14             0
      0.00625   7.45079e+14   6.49075e+14             0
   0.00626923   7.45079e+14   6.49075e+14             0
   0.00628846   7.45079e+14   6.49075e+14             0
   0.00630769   7.45079e+14   6.49075e+14             0
   0.00632692   7.45079e+14   6.49075e+14             0
   0.00634615   7.45079e+14   6.49075e+14             0
   0.00636538   7.45079e+14   6.49075e+14             0
   0.00638462   7.45079e+14   6.49075e+14             0
   0.00640385   7.45079e+14   6.49075e+14             0
   0.00642308   7.45079e+14   6.49075e+14             0
   0.00644231   7.45079e+14   6.49075e+14             0
   0.00646154   7.45079e+14   6.49075e+14             0
   0.00648077   7.45079e+14   6.49075e+14             0
       0.0065   7.45079e+14   6.49075e+14             0
   0.00651923   7.45079e+14   6.49075e+14             0
   0.00653846   7.45079e+14   6.49075e+14             0
   0.00655769   7.45079e+14   6.49075e+14             0
   0.00657692   7.45079e+14   6.49075e+14             0
   0.00659615   7.45079e+14   6.49075e+14             0
   0.00661538   7.45079e+14   6.49075e+14             0
   0.00663462   7.45079e+14   6.49075e+14             0
   0.00665385   7.45079e+14   6.49075e+14             0
   0.00667308   7.45079e+14   6.49075e+14             0
   0.00669231   7.45079e+14   6.49075e+14             0
   0.00671154   7.45079e+14   6.49075e+14             0
   0.00673077   7.45079e+14   6.49075e+14             0
      0.00675   7.45079e+14   6.49075e+14             0
   0.00676923   7.45079e+14   6.49075e+14             0
   0.00678846   7.45079e+14   6.49075e+14             0
   0.00680769   7.45079e+14   6.49075e+14             0
   0.00682692   7.45079e+14   6.49075e+14             0
   0.00684615   7.45079e+14   6.49075e+14             0
   0.00686538   7.45079e+14   6.49075e+14             0
   0.00688462   7.45079e+14   6.49075e+14             0
   0.00690385   7.45079e+14   6.49075e+14             0
   0.00692308   7.45079e+14   6.49075e+14             0
   0.00694231   7.45079e+14   6.49075e+14             0
   0.00696154   7.45079e+14   6.49075e+14             0
   0.00698077   7.45079e+14   6.49075e+14             0
        0.007   7.45079e+14   6.49075e+14             0
   0.00701923   7.45079e+14   6.49075e+14             0
   0.00703846   7.45079e+14   6.49075e+14             0
   0.00705769   7.45079e+14   6.49075e+14             0
   0.00707692   7.45079e+14   6.49075e+14             0
   0.00709615   7.45079e+14   6.49075e+14             0
   0.00711538   7.45079e+14   6.49075e+14             0
   0.00713462   7.45079e+14   6.49075e+14             0
   0.00715385   7.45079e+14   6.49075e+14             0
   0.00717308   7.45079e+14   6.49075e+14             0
   0.00719231   7.45079e+14   6.49075e+14             0
   0.00721154   7.45079e+14   6.49075e+14             0
   0.00723077   7.45079e+14   6.49075e+14             0
      0.00725   7.45079e+14   6.49075e+14             0
   0.00726923   7.45079e+14   6.49075e+14             0
   0.00728846   7.45079e+14   6.49075e+14             0
   0.00730769   7.45079e+14   6.49075e+14             0
   0.00732692   7.45079e+14   6.49075e+14             0
   0.00734615   7.45079e+14   6.49075e+14             0
   0.00736538   7.45079e+14   6.49075e+14             0
   0.00738462   7.45079e+14   6.49075e+14             0
   0.00740385   7.45079e+14   6.49075e+14             0
   0.00742308   7.45079e+14   6.49075e+14             0
   0.00744231   7.45079e+14   6.49075e+14             0
   0.00746154   7.45079e+14   6.49075e+14             0
   0.00748077   7.45079e+14   6.49075e+14             0
       0.0075   7.45079e+14   6.49075e+14             0
   0.00751923   7.45079e+14   6.49075e+14             0
   0.00753846   7.45079e+14   6.49075e+14             0
   0.00755769   7.45079e+14   6.49075e+14             0
   0.00757692   7.45079e+14   6.49075e+14             0
   0.00759615   7.45079e+14   6.49075e+14             0
   0.00761538   7.45079e+14   6.49075e+14             0
   0.00763462   7.45079e+14   6.49075e+14             0
   0.00765385   7.45079e+14   6.49075e+14             0
   0.00767308   7.45079e+14   6.49075e+14             0
   0.00769231   7.45079e+14   6.49075e+14             0
   0.00771154   7.45079e+14   6.49075e+14             0
   0.00773077   7.45079e+14   6.49075e+14             0
      0.00775   7.45079e+14   6.49075e+14             0
   0.00776923   7.45079e+14   6.49075e+14             0
   0.00778846   7.45079e+14   6.49075e+14             0
   0.00780769   7.45079e+14   6.49075e+14             0
   0.00782692   7.45079e+14   6.49075e+14             0
   0.00784615   7.45079e+14   6.49075e+14             0
   0.00786538   7.45079e+14   6.49075e+14             0
