# Probe 0 (0 0 0.001)
#       Probe             0
#        Time
  1.97628e-05             0
  3.95257e-05   2.36138e-07
  5.92885e-05    6.6238e-07
  7.90514e-05   1.23943e-06
  9.88142e-05   1.93383e-06
  0.000118577   2.71722e-06
   0.00013834   3.56567e-06
  0.000158103   4.45904e-06
  0.000177866   5.38053e-06
  0.000197628   6.31615e-06
  0.000217391   7.25441e-06
  0.000237154   8.18589e-06
  0.000256917     9.103e-06
   0.00027668   9.99971e-06
  0.000296443   1.08713e-05
  0.000316206   1.17141e-05
  0.000335968   1.25254e-05
  0.000355731   1.33034e-05
  0.000375494    1.4047e-05
  0.000395257   1.47553e-05
   0.00041502   1.54282e-05
  0.000434783   1.60659e-05
  0.000454545   1.66688e-05
  0.000474308   1.72378e-05
  0.000494071   1.77736e-05
  0.000513834   1.82773e-05
  0.000533597   1.87501e-05
   0.00055336   1.91932e-05
  0.000573123   1.96079e-05
  0.000592885   1.99956e-05
  0.000612648   2.03576e-05
  0.000632411   2.06952e-05
  0.000652174   2.10097e-05
  0.000671937   2.13024e-05
    0.0006917   2.15746e-05
  0.000711462   2.18275e-05
  0.000731225   2.20622e-05
  0.000750988     2.228e-05
  0.000770751   2.24818e-05
  0.000790514   2.26688e-05
  0.000810277   2.28419e-05
   0.00083004    2.3002e-05
  0.000849802     2.315e-05
  0.000869565   2.32868e-05
  0.000889328   2.34131e-05
  0.000909091   2.35297e-05
  0.000928854   2.36373e-05
  0.000948617   2.37365e-05
  0.000968379   2.38279e-05
  0.000988142   2.39121e-05
   0.00100791   2.39897e-05
   0.00102767   2.40611e-05
   0.00104743   2.41269e-05
   0.00106719   2.41873e-05
   0.00108696   2.42429e-05
   0.00110672    2.4294e-05
   0.00112648    2.4341e-05
   0.00114625   2.43841e-05
   0.00116601   2.44237e-05
   0.00118577   2.44601e-05
   0.00120553   2.44935e-05
    0.0012253   2.45241e-05
   0.00124506   2.45522e-05
   0.00126482    2.4578e-05
   0.00128458   2.46016e-05
   0.00130435   2.46233e-05
   0.00132411   2.46431e-05
   0.00134387   2.46613e-05
   0.00136364    2.4678e-05
    0.0013834   2.46932e-05
   0.00140316   2.47072e-05
   0.00142292     2.472e-05
   0.00144269   2.47317e-05
   0.00146245   2.47424e-05
   0.00148221   2.47522e-05
   0.00150198   2.47611e-05
   0.00152174   2.47693e-05
    0.0015415   2.47768e-05
   0.00156126   2.47837e-05
   0.00158103   2.47899e-05
   0.00160079   2.47957e-05
   0.00162055   2.48009e-05
   0.00164032   2.48057e-05
   0.00166008     2.481e-05
   0.00167984    2.4814e-05
    0.0016996   2.48177e-05
   0.00171937    2.4821e-05
   0.00173913    2.4824e-05
   0.00175889   2.48268e-05
   0.00177866   2.48293e-05
   0.00179842   2.48316e-05
   0.00181818   2.48337e-05
   0.00183794   2.48357e-05
   0.00185771   2.48374e-05
   0.00187747    2.4839e-05
   0.00189723   2.48405e-05
     0.001917   2.48418e-05
   0.00193676    2.4843e-05
   0.00195652   2.48441e-05
   0.00197628   2.48451e-05
   0.00199605   2.48461e-05
   0.00201581   2.48469e-05
   0.00203557   2.48477e-05
   0.00205534   2.48484e-05
    0.0020751    2.4849e-05
   0.00209486   2.48496e-05
   0.00211462   2.48501e-05
   0.00213439   2.48506e-05
   0.00215415    2.4851e-05
   0.00217391   2.48514e-05
   0.00219368   2.48518e-05
   0.00221344   2.48521e-05
    0.0022332   2.48524e-05
   0.00225296   2.48527e-05
   0.00227273   2.48529e-05
   0.00229249   2.48532e-05
   0.00231225   2.48534e-05
   0.00233202   2.48536e-05
   0.00235178   2.48537e-05
   0.00237154   2.48539e-05
    0.0023913    2.4854e-05
   0.00241107   2.48542e-05
   0.00243083   2.48543e-05
   0.00245059   2.48544e-05
   0.00247036   2.48545e-05
   0.00249012   2.48546e-05
   0.00250988   2.48546e-05
   0.00252964   2.48547e-05
   0.00254941   2.48548e-05
   0.00256917   2.48548e-05
   0.00258893   2.48549e-05
    0.0026087    2.4855e-05
   0.00262846    2.4855e-05
   0.00264822    2.4855e-05
   0.00266798   2.48551e-05
   0.00268775   2.48551e-05
   0.00270751   2.48551e-05
   0.00272727   2.48552e-05
   0.00274704   2.48552e-05
    0.0027668   2.48552e-05
   0.00278656   2.48552e-05
   0.00280632   2.48553e-05
   0.00282609   2.48553e-05
   0.00284585   2.48553e-05
   0.00286561   2.48553e-05
   0.00288538   2.48553e-05
   0.00290514   2.48553e-05
    0.0029249   2.48553e-05
   0.00294466   2.48554e-05
   0.00296443   2.48554e-05
   0.00298419   2.48554e-05
   0.00300395   2.48554e-05
   0.00302372   2.48554e-05
   0.00304348   2.48554e-05
   0.00306324   2.48554e-05
     0.003083   2.48554e-05
   0.00310277   2.48554e-05
   0.00312253   2.48554e-05
   0.00314229   2.48554e-05
   0.00316206   2.48554e-05
   0.00318182   2.48554e-05
   0.00320158   2.48554e-05
   0.00322134   2.48554e-05
   0.00324111   2.48554e-05
   0.00326087   2.48554e-05
   0.00328063   2.48554e-05
    0.0033004   2.48554e-05
   0.00332016   2.48554e-05
   0.00333992   2.48554e-05
   0.00335968   2.48554e-05
   0.00337945   2.48554e-05
   0.00339921   2.48554e-05
   0.00341897   2.48554e-05
   0.00343874   2.48554e-05
    0.0034585   2.48554e-05
   0.00347826   2.48554e-05
   0.00349802   2.48554e-05
   0.00351779   2.48554e-05
   0.00353755   2.48554e-05
   0.00355731   2.48554e-05
   0.00357708   2.48554e-05
   0.00359684   2.48554e-05
    0.0036166   2.48554e-05
   0.00363636   2.48554e-05
   0.00365613   2.48554e-05
   0.00367589   2.48554e-05
   0.00369565   2.48554e-05
   0.00371542   2.48554e-05
   0.00373518   2.48554e-05
   0.00375494   2.48554e-05
    0.0037747   2.48555e-05
   0.00379447   2.48555e-05
   0.00381423   2.48555e-05
   0.00383399   2.48555e-05
   0.00385375   2.48555e-05
   0.00387352   2.48555e-05
   0.00389328   2.48555e-05
   0.00391304   2.48555e-05
   0.00393281   2.48555e-05
   0.00395257   2.48555e-05
   0.00397233   2.48555e-05
   0.00399209   2.48555e-05
   0.00401186   2.48555e-05
   0.00403162   2.48555e-05
   0.00405138   2.48555e-05
   0.00407115   2.48555e-05
   0.00409091   2.48555e-05
   0.00411067   2.48555e-05
   0.00413043   2.48555e-05
    0.0041502   2.48555e-05
   0.00416996   2.48555e-05
   0.00418972   2.48555e-05
   0.00420949   2.48555e-05
   0.00422925   2.48555e-05
   0.00424901   2.48555e-05
   0.00426877   2.48555e-05
   0.00428854   2.48555e-05
    0.0043083   2.48555e-05
   0.00432806   2.48555e-05
   0.00434783   2.48555e-05
   0.00436759   2.48555e-05
   0.00438735   2.48555e-05
   0.00440711   2.48555e-05
   0.00442688   2.48555e-05
   0.00444664   2.48555e-05
    0.0044664   2.48555e-05
   0.00448617   2.48555e-05
   0.00450593   2.48555e-05
   0.00452569   2.48555e-05
   0.00454545   2.48555e-05
   0.00456522   2.48555e-05
   0.00458498   2.48555e-05
   0.00460474   2.48555e-05
   0.00462451   2.48555e-05
   0.00464427   2.48555e-05
   0.00466403   2.48555e-05
   0.00468379   2.48555e-05
   0.00470356   2.48555e-05
   0.00472332   2.48555e-05
   0.00474308   2.48555e-05
   0.00476285   2.48555e-05
   0.00478261   2.48555e-05
   0.00480237   2.48555e-05
   0.00482213   2.48555e-05
    0.0048419   2.48555e-05
   0.00486166   2.48555e-05
   0.00488142   2.48555e-05
   0.00490119   2.48555e-05
   0.00492095   2.48555e-05
   0.00494071   2.48555e-05
   0.00496047   2.48555e-05
   0.00498024   2.48555e-05
        0.005   2.48555e-05
   0.00501976   2.48555e-05
   0.00503953   2.48555e-05
   0.00505929   2.48555e-05
   0.00507905   2.48555e-05
   0.00509881   2.48555e-05
   0.00511858   2.48555e-05
   0.00513834   2.48555e-05
    0.0051581   2.48555e-05
   0.00517787   2.48555e-05
   0.00519763   2.48555e-05
   0.00521739   2.48555e-05
   0.00523715   2.48555e-05
   0.00525692   2.48555e-05
   0.00527668   2.48555e-05
   0.00529644   2.48555e-05
   0.00531621   2.48555e-05
   0.00533597   2.48555e-05
   0.00535573   2.48555e-05
   0.00537549   2.48555e-05
   0.00539526   2.48555e-05
   0.00541502   2.48555e-05
   0.00543478   2.48555e-05
   0.00545455   2.48555e-05
   0.00547431   2.48555e-05
   0.00549407   2.48555e-05
   0.00551383   2.48555e-05
    0.0055336   2.48555e-05
   0.00555336   2.48555e-05
   0.00557312   2.48555e-05
   0.00559289   2.48555e-05
   0.00561265   2.48555e-05
   0.00563241   2.48555e-05
   0.00565217   2.48555e-05
   0.00567194   2.48555e-05
    0.0056917   2.48555e-05
   0.00571146   2.48555e-05
   0.00573123   2.48555e-05
   0.00575099   2.48555e-05
   0.00577075   2.48555e-05
   0.00579051   2.48555e-05
   0.00581028   2.48555e-05
   0.00583004   2.48555e-05
    0.0058498   2.48555e-05
   0.00586957   2.48555e-05
   0.00588933   2.48555e-05
   0.00590909   2.48555e-05
   0.00592885   2.48555e-05
   0.00594862   2.48555e-05
   0.00596838   2.48555e-05
   0.00598814   2.48555e-05
   0.00600791   2.48555e-05
   0.00602767   2.48555e-05
   0.00604743   2.48555e-05
   0.00606719   2.48555e-05
   0.00608696   2.48555e-05
   0.00610672   2.48555e-05
   0.00612648   2.48555e-05
   0.00614625   2.48555e-05
   0.00616601   2.48555e-05
   0.00618577   2.48555e-05
   0.00620553   2.48555e-05
    0.0062253   2.48555e-05
   0.00624506   2.48555e-05
   0.00626482   2.48555e-05
   0.00628458   2.48555e-05
   0.00630435   2.48555e-05
   0.00632411   2.48555e-05
   0.00634387   2.48555e-05
   0.00636364   2.48555e-05
    0.0063834   2.48555e-05
   0.00640316   2.48555e-05
   0.00642292   2.48555e-05
   0.00644269   2.48555e-05
   0.00646245   2.48555e-05
   0.00648221   2.48555e-05
   0.00650198   2.48555e-05
   0.00652174   2.48555e-05
    0.0065415   2.48555e-05
   0.00656126   2.48555e-05
   0.00658103   2.48555e-05
   0.00660079   2.48555e-05
   0.00662055   2.48555e-05
   0.00664032   2.48555e-05
   0.00666008   2.48555e-05
   0.00667984   2.48555e-05
    0.0066996   2.48555e-05
   0.00671937   2.48555e-05
   0.00673913   2.48555e-05
   0.00675889   2.48555e-05
   0.00677866   2.48555e-05
   0.00679842   2.48555e-05
   0.00681818   2.48555e-05
   0.00683794   2.48555e-05
   0.00685771   2.48555e-05
   0.00687747   2.48555e-05
   0.00689723   2.48555e-05
     0.006917   2.48555e-05
   0.00693676   2.48555e-05
   0.00695652   2.48555e-05
   0.00697628   2.48555e-05
   0.00699605   2.48555e-05
   0.00701581   2.48555e-05
   0.00703557   2.48555e-05
   0.00705534   2.48555e-05
    0.0070751   2.48555e-05
   0.00709486   2.48555e-05
   0.00711462   2.48555e-05
   0.00713439   2.48555e-05
   0.00715415   2.48555e-05
   0.00717391   2.48555e-05
   0.00719368   2.48555e-05
   0.00721344   2.48555e-05
    0.0072332   2.48555e-05
   0.00725296   2.48555e-05
   0.00727273   2.48555e-05
   0.00729249   2.48555e-05
   0.00731225   2.48555e-05
   0.00733202   2.48555e-05
   0.00735178   2.48555e-05
   0.00737154   2.48555e-05
    0.0073913   2.48555e-05
   0.00741107   2.48555e-05
   0.00743083   2.48555e-05
   0.00745059   2.48555e-05
   0.00747036   2.48555e-05
   0.00749012   2.48555e-05
   0.00750988   2.48555e-05
   0.00752964   2.48555e-05
   0.00754941   2.48555e-05
   0.00756917   2.48555e-05
   0.00758893   2.48555e-05
    0.0076087   2.48555e-05
   0.00762846   2.48555e-05
   0.00764822   2.48555e-05
   0.00766798   2.48555e-05
   0.00768775   2.48555e-05
   0.00770751   2.48555e-05
   0.00772727   2.48555e-05
   0.00774704   2.48555e-05
    0.0077668   2.48555e-05
   0.00778656   2.48555e-05
   0.00780632   2.48555e-05
   0.00782609   2.48555e-05
   0.00784585   2.48555e-05
   0.00786561   2.48555e-05
   0.00788538   2.48555e-05
   0.00790514   2.48555e-05
    0.0079249   2.48555e-05
   0.00794466   2.48555e-05
   0.00796443   2.48555e-05
   0.00798419   2.48555e-05
   0.00800395   2.48555e-05
   0.00802372   2.48555e-05
   0.00804348   2.48555e-05
   0.00806324   2.48555e-05
     0.008083   2.48555e-05
   0.00810277   2.48555e-05
   0.00812253   2.48555e-05
   0.00814229   2.48555e-05
   0.00816206   2.48555e-05
   0.00818182   2.48555e-05
   0.00820158   2.48555e-05
   0.00822134   2.48555e-05
   0.00824111   2.48555e-05
   0.00826087   2.48555e-05
   0.00828063   2.48555e-05
    0.0083004   2.48555e-05
   0.00832016   2.48555e-05
   0.00833992   2.48555e-05
   0.00835968   2.48555e-05
   0.00837945   2.48555e-05
   0.00839921   2.48555e-05
   0.00841897   2.48555e-05
   0.00843874   2.48555e-05
    0.0084585   2.48555e-05
   0.00847826   2.48555e-05
   0.00849802   2.48555e-05
   0.00851779   2.48555e-05
   0.00853755   2.48555e-05
   0.00855731   2.48555e-05
   0.00857708   2.48555e-05
   0.00859684   2.48555e-05
    0.0086166   2.48555e-05
   0.00863636   2.48555e-05
   0.00865613   2.48555e-05
   0.00867589   2.48555e-05
   0.00869565   2.48555e-05
   0.00871542   2.48555e-05
   0.00873518   2.48555e-05
   0.00875494   2.48555e-05
    0.0087747   2.48555e-05
   0.00879447   2.48555e-05
   0.00881423   2.48555e-05
   0.00883399   2.48555e-05
   0.00885375   2.48555e-05
   0.00887352   2.48555e-05
   0.00889328   2.48555e-05
   0.00891304   2.48555e-05
   0.00893281   2.48555e-05
   0.00895257   2.48555e-05
   0.00897233   2.48555e-05
   0.00899209   2.48555e-05
   0.00901186   2.48555e-05
   0.00903162   2.48555e-05
   0.00905138   2.48555e-05
   0.00907115   2.48555e-05
   0.00909091   2.48555e-05
   0.00911067   2.48555e-05
   0.00913043   2.48555e-05
    0.0091502   2.48555e-05
   0.00916996   2.48555e-05
   0.00918972   2.48555e-05
   0.00920949   2.48555e-05
   0.00922925   2.48555e-05
   0.00924901   2.48555e-05
   0.00926877   2.48555e-05
   0.00928854   2.48555e-05
    0.0093083   2.48555e-05
   0.00932806   2.48555e-05
   0.00934783   2.48555e-05
   0.00936759   2.48555e-05
   0.00938735   2.48555e-05
   0.00940711   2.48555e-05
   0.00942688   2.48555e-05
   0.00944664   2.48555e-05
    0.0094664   2.48555e-05
   0.00948617   2.48555e-05
   0.00950593   2.48555e-05
   0.00952569   2.48555e-05
   0.00954545   2.48555e-05
   0.00956522   2.48555e-05
   0.00958498   2.48555e-05
   0.00960474   2.48555e-05
   0.00962451   2.48555e-05
   0.00964427   2.48555e-05
   0.00966403   2.48555e-05
   0.00968379   2.48555e-05
   0.00970356   2.48555e-05
   0.00972332   2.48555e-05
   0.00974308   2.48555e-05
   0.00976285   2.48555e-05
   0.00978261   2.48555e-05
   0.00980237   2.48555e-05
   0.00982213   2.48555e-05
    0.0098419   2.48555e-05
   0.00986166   2.48555e-05
   0.00988142   2.48555e-05
   0.00990119   2.48555e-05
   0.00992095   2.48555e-05
   0.00994071   2.48555e-05
   0.00996047   2.48555e-05
   0.00998024   2.48555e-05
         0.01   2.48555e-05
    0.0100198   2.48555e-05
    0.0100395   2.48555e-05
    0.0100593   2.48555e-05
    0.0100791   2.48555e-05
    0.0100988   2.48555e-05
    0.0101186   2.48555e-05
    0.0101383   2.48555e-05
    0.0101581   2.48555e-05
    0.0101779   2.48555e-05
    0.0101976   2.48555e-05
    0.0102174   2.48555e-05
    0.0102372   2.48555e-05
    0.0102569   2.48555e-05
    0.0102767   2.48555e-05
    0.0102964   2.48555e-05
    0.0103162   2.48555e-05
     0.010336   2.48555e-05
    0.0103557   2.48555e-05
    0.0103755   2.48555e-05
    0.0103953   2.48555e-05
     0.010415   2.48555e-05
    0.0104348   2.48555e-05
    0.0104545   2.48555e-05
    0.0104743   2.48555e-05
    0.0104941   2.48555e-05
    0.0105138   2.48555e-05
    0.0105336   2.48555e-05
    0.0105534   2.48555e-05
    0.0105731   2.48555e-05
    0.0105929   2.48555e-05
    0.0106126   2.48555e-05
    0.0106324   2.48555e-05
    0.0106522   2.48555e-05
    0.0106719   2.48555e-05
    0.0106917   2.48555e-05
    0.0107115   2.48555e-05
    0.0107312   2.48555e-05
     0.010751   2.48555e-05
    0.0107708   2.48555e-05
    0.0107905   2.48555e-05
    0.0108103   2.48555e-05
      0.01083   2.48555e-05
    0.0108498   2.48555e-05
    0.0108696   2.48555e-05
    0.0108893   2.48555e-05
    0.0109091   2.48555e-05
    0.0109289   2.48555e-05
    0.0109486   2.48555e-05
    0.0109684   2.48555e-05
    0.0109881   2.48555e-05
    0.0110079   2.48555e-05
    0.0110277   2.48555e-05
    0.0110474   2.48555e-05
    0.0110672   2.48555e-05
     0.011087   2.48555e-05
    0.0111067   2.48555e-05
    0.0111265   2.48555e-05
    0.0111462   2.48555e-05
     0.011166   2.48555e-05
    0.0111858   2.48555e-05
    0.0112055   2.48555e-05
    0.0112253   2.48555e-05
    0.0112451   2.48555e-05
    0.0112648   2.48555e-05
    0.0112846   2.48555e-05
    0.0113043   2.48555e-05
    0.0113241   2.48555e-05
    0.0113439   2.48555e-05
    0.0113636   2.48555e-05
    0.0113834   2.48555e-05
    0.0114032   2.48555e-05
    0.0114229   2.48555e-05
    0.0114427   2.48555e-05
    0.0114625   2.48555e-05
    0.0114822   2.48555e-05
     0.011502   2.48555e-05
    0.0115217   2.48555e-05
    0.0115415   2.48555e-05
    0.0115613   2.48555e-05
     0.011581   2.48555e-05
    0.0116008   2.48555e-05
    0.0116206   2.48555e-05
    0.0116403   2.48555e-05
    0.0116601   2.48555e-05
    0.0116798   2.48555e-05
    0.0116996   2.48555e-05
    0.0117194   2.48555e-05
    0.0117391   2.48555e-05
    0.0117589   2.48555e-05
    0.0117787   2.48555e-05
    0.0117984   2.48555e-05
    0.0118182   2.48555e-05
    0.0118379   2.48555e-05
    0.0118577   2.48555e-05
    0.0118775   2.48555e-05
    0.0118972   2.48555e-05
     0.011917   2.48555e-05
    0.0119368   2.48555e-05
    0.0119565   2.48555e-05
    0.0119763   2.48555e-05
     0.011996   2.48555e-05
    0.0120158   2.48555e-05
    0.0120356   2.48555e-05
    0.0120553   2.48555e-05
    0.0120751   2.48555e-05
    0.0120949   2.48555e-05
    0.0121146   2.48555e-05
    0.0121344   2.48555e-05
    0.0121542   2.48555e-05
    0.0121739   2.48555e-05
    0.0121937   2.48555e-05
    0.0122134   2.48555e-05
    0.0122332   2.48555e-05
     0.012253   2.48555e-05
    0.0122727   2.48555e-05
    0.0122925   2.48555e-05
    0.0123123   2.48555e-05
     0.012332   2.48555e-05
    0.0123518   2.48555e-05
    0.0123715   2.48555e-05
    0.0123913   2.48555e-05
    0.0124111   2.48555e-05
    0.0124308   2.48555e-05
    0.0124506   2.48555e-05
    0.0124704   2.48555e-05
    0.0124901   2.48555e-05
    0.0125099   2.48555e-05
    0.0125296   2.48555e-05
    0.0125494   2.48555e-05
    0.0125692   2.48555e-05
    0.0125889   2.48555e-05
    0.0126087   2.48555e-05
    0.0126285   2.48555e-05
    0.0126482   2.48555e-05
     0.012668   2.48555e-05
    0.0126877   2.48555e-05
    0.0127075   2.48555e-05
    0.0127273   2.48555e-05
     0.012747   2.48555e-05
    0.0127668   2.48555e-05
    0.0127866   2.48555e-05
    0.0128063   2.48555e-05
    0.0128261   2.48555e-05
    0.0128458   2.48555e-05
    0.0128656   2.48555e-05
    0.0128854   2.48555e-05
    0.0129051   2.48555e-05
    0.0129249   2.48555e-05
    0.0129447   2.48555e-05
    0.0129644   2.48555e-05
    0.0129842   2.48555e-05
     0.013004   2.48555e-05
    0.0130237   2.48555e-05
    0.0130435   2.48555e-05
    0.0130632   2.48555e-05
     0.013083   2.48555e-05
    0.0131028   2.48555e-05
    0.0131225   2.48555e-05
    0.0131423   2.48555e-05
    0.0131621   2.48555e-05
    0.0131818   2.48555e-05
    0.0132016   2.48555e-05
    0.0132213   2.48555e-05
    0.0132411   2.48555e-05
    0.0132609   2.48555e-05
    0.0132806   2.48555e-05
    0.0133004   2.48555e-05
    0.0133202   2.48555e-05
    0.0133399   2.48555e-05
    0.0133597   2.48555e-05
    0.0133794   2.48555e-05
    0.0133992   2.48555e-05
     0.013419   2.48555e-05
    0.0134387   2.48555e-05
    0.0134585   2.48555e-05
    0.0134783   2.48555e-05
     0.013498   2.48555e-05
