# Probe 0 (0 0 0.001)
#       Probe             0
#        Time
  1.97628e-05             0
  3.95257e-05   4.72275e-13
  5.92885e-05   1.32467e-12
  7.90514e-05   2.47852e-12
  9.88142e-05   3.86689e-12
  0.000118577   5.43303e-12
   0.00013834   7.12904e-12
  0.000158103   8.91468e-12
  0.000177866   1.07563e-11
  0.000197628    1.2626e-11
  0.000217391   1.45007e-11
  0.000237154   1.63618e-11
  0.000256917   1.81939e-11
   0.00027668   1.99851e-11
  0.000296443   2.17258e-11
  0.000316206   2.34089e-11
  0.000335968   2.50291e-11
  0.000355731   2.65826e-11
  0.000375494    2.8067e-11
  0.000395257    2.9481e-11
   0.00041502   3.08242e-11
  0.000434783   3.20969e-11
  0.000454545   3.33002e-11
  0.000474308   3.44354e-11
  0.000494071   3.55044e-11
  0.000513834   3.65093e-11
  0.000533597   3.74525e-11
   0.00055336   3.83363e-11
  0.000573123   3.91635e-11
  0.000592885   3.99366e-11
  0.000612648   4.06584e-11
  0.000632411   4.13314e-11
  0.000652174   4.19584e-11
  0.000671937   4.25419e-11
    0.0006917   4.30844e-11
  0.000711462   4.35884e-11
  0.000731225   4.40562e-11
  0.000750988   4.44901e-11
  0.000770751   4.48922e-11
  0.000790514   4.52647e-11
  0.000810277   4.56094e-11
   0.00083004   4.59283e-11
  0.000849802   4.62231e-11
  0.000869565   4.64954e-11
  0.000889328   4.67469e-11
  0.000909091   4.69791e-11
  0.000928854   4.71932e-11
  0.000948617   4.73906e-11
  0.000968379   4.75726e-11
  0.000988142   4.77402e-11
   0.00100791   4.78946e-11
   0.00102767   4.80367e-11
   0.00104743   4.81674e-11
   0.00106719   4.82877e-11
   0.00108696   4.83983e-11
   0.00110672   4.84999e-11
   0.00112648   4.85933e-11
   0.00114625   4.86791e-11
   0.00116601   4.87578e-11
   0.00118577   4.88301e-11
   0.00120553   4.88965e-11
    0.0012253   4.89574e-11
   0.00124506   4.90132e-11
   0.00126482   4.90644e-11
   0.00128458   4.91114e-11
   0.00130435   4.91544e-11
   0.00132411   4.91938e-11
   0.00134387   4.92299e-11
   0.00136364    4.9263e-11
    0.0013834   4.92933e-11
   0.00140316    4.9321e-11
   0.00142292   4.93464e-11
   0.00144269   4.93697e-11
   0.00146245   4.93909e-11
   0.00148221   4.94104e-11
   0.00150198   4.94281e-11
   0.00152174   4.94444e-11
    0.0015415   4.94593e-11
   0.00156126   4.94729e-11
   0.00158103   4.94853e-11
   0.00160079   4.94966e-11
   0.00162055    4.9507e-11
   0.00164032   4.95165e-11
   0.00166008   4.95252e-11
   0.00167984   4.95331e-11
    0.0016996   4.95403e-11
   0.00171937   4.95469e-11
   0.00173913   4.95529e-11
   0.00175889   4.95584e-11
   0.00177866   4.95634e-11
   0.00179842    4.9568e-11
   0.00181818   4.95721e-11
   0.00183794    4.9576e-11
   0.00185771   4.95794e-11
   0.00187747   4.95826e-11
   0.00189723   4.95855e-11
     0.001917   4.95881e-11
   0.00193676   4.95905e-11
   0.00195652   4.95927e-11
   0.00197628   4.95947e-11
   0.00199605   4.95965e-11
   0.00201581   4.95982e-11
   0.00203557   4.95997e-11
   0.00205534   4.96011e-11
    0.0020751   4.96024e-11
   0.00209486   4.96035e-11
   0.00211462   4.96045e-11
   0.00213439   4.96055e-11
   0.00215415   4.96064e-11
   0.00217391   4.96071e-11
   0.00219368   4.96079e-11
   0.00221344   4.96085e-11
    0.0022332   4.96091e-11
   0.00225296   4.96096e-11
   0.00227273   4.96101e-11
   0.00229249   4.96106e-11
   0.00231225    4.9611e-11
   0.00233202   4.96114e-11
   0.00235178   4.96117e-11
   0.00237154    4.9612e-11
    0.0023913   4.96123e-11
   0.00241107   4.96126e-11
   0.00243083   4.96128e-11
   0.00245059    4.9613e-11
   0.00247036   4.96132e-11
   0.00249012   4.96134e-11
   0.00250988   4.96135e-11
   0.00252964   4.96137e-11
   0.00254941   4.96138e-11
   0.00256917   4.96139e-11
   0.00258893    4.9614e-11
    0.0026087   4.96141e-11
   0.00262846   4.96142e-11
   0.00264822   4.96143e-11
   0.00266798   4.96144e-11
   0.00268775   4.96144e-11
   0.00270751   4.96145e-11
   0.00272727   4.96146e-11
   0.00274704   4.96146e-11
    0.0027668   4.96147e-11
   0.00278656   4.96147e-11
   0.00280632   4.96147e-11
   0.00282609   4.96148e-11
   0.00284585   4.96148e-11
   0.00286561   4.96148e-11
   0.00288538   4.96149e-11
   0.00290514   4.96149e-11
    0.0029249   4.96149e-11
   0.00294466   4.96149e-11
   0.00296443   4.96149e-11
   0.00298419    4.9615e-11
   0.00300395    4.9615e-11
   0.00302372    4.9615e-11
   0.00304348    4.9615e-11
   0.00306324    4.9615e-11
     0.003083    4.9615e-11
   0.00310277    4.9615e-11
   0.00312253    4.9615e-11
   0.00314229    4.9615e-11
   0.00316206    4.9615e-11
   0.00318182   4.96151e-11
   0.00320158   4.96151e-11
   0.00322134   4.96151e-11
   0.00324111   4.96151e-11
   0.00326087   4.96151e-11
   0.00328063   4.96151e-11
    0.0033004   4.96151e-11
   0.00332016   4.96151e-11
   0.00333992   4.96151e-11
   0.00335968   4.96151e-11
   0.00337945   4.96151e-11
   0.00339921   4.96151e-11
   0.00341897   4.96151e-11
   0.00343874   4.96151e-11
    0.0034585   4.96151e-11
   0.00347826   4.96151e-11
   0.00349802   4.96151e-11
   0.00351779   4.96151e-11
   0.00353755   4.96151e-11
   0.00355731   4.96151e-11
   0.00357708   4.96151e-11
   0.00359684   4.96151e-11
    0.0036166   4.96151e-11
   0.00363636   4.96151e-11
   0.00365613   4.96151e-11
   0.00367589   4.96151e-11
   0.00369565   4.96151e-11
   0.00371542   4.96151e-11
   0.00373518   4.96151e-11
   0.00375494   4.96151e-11
    0.0037747   4.96151e-11
   0.00379447   4.96151e-11
   0.00381423   4.96151e-11
   0.00383399   4.96151e-11
   0.00385375   4.96151e-11
   0.00387352   4.96151e-11
   0.00389328   4.96151e-11
   0.00391304   4.96151e-11
   0.00393281   4.96151e-11
   0.00395257   4.96151e-11
   0.00397233   4.96151e-11
   0.00399209   4.96151e-11
   0.00401186   4.96151e-11
   0.00403162   4.96151e-11
   0.00405138   4.96151e-11
   0.00407115   4.96151e-11
   0.00409091   4.96151e-11
   0.00411067   4.96151e-11
   0.00413043   4.96151e-11
    0.0041502   4.96151e-11
   0.00416996   4.96151e-11
   0.00418972   4.96151e-11
   0.00420949   4.96151e-11
   0.00422925   4.96151e-11
   0.00424901   4.96151e-11
   0.00426877   4.96151e-11
   0.00428854   4.96151e-11
    0.0043083   4.96151e-11
   0.00432806   4.96151e-11
   0.00434783   4.96151e-11
   0.00436759   4.96151e-11
   0.00438735   4.96151e-11
   0.00440711   4.96151e-11
   0.00442688   4.96151e-11
   0.00444664   4.96151e-11
    0.0044664   4.96151e-11
   0.00448617   4.96151e-11
   0.00450593   4.96151e-11
   0.00452569   4.96151e-11
   0.00454545   4.96151e-11
   0.00456522   4.96151e-11
   0.00458498   4.96151e-11
   0.00460474   4.96151e-11
   0.00462451   4.96151e-11
   0.00464427   4.96151e-11
   0.00466403   4.96151e-11
   0.00468379   4.96151e-11
   0.00470356   4.96151e-11
   0.00472332   4.96151e-11
   0.00474308   4.96151e-11
   0.00476285   4.96151e-11
   0.00478261   4.96151e-11
   0.00480237   4.96151e-11
   0.00482213   4.96151e-11
    0.0048419   4.96151e-11
   0.00486166   4.96151e-11
   0.00488142   4.96151e-11
   0.00490119   4.96151e-11
   0.00492095   4.96151e-11
   0.00494071   4.96151e-11
   0.00496047   4.96151e-11
   0.00498024   4.96151e-11
        0.005   4.96151e-11
   0.00501976   4.96151e-11
   0.00503953   4.96151e-11
   0.00505929   4.96151e-11
   0.00507905   4.96151e-11
   0.00509881   4.96151e-11
   0.00511858   4.96151e-11
   0.00513834   4.96151e-11
    0.0051581   4.96151e-11
   0.00517787   4.96151e-11
   0.00519763   4.96151e-11
   0.00521739   4.96151e-11
   0.00523715   4.96151e-11
   0.00525692   4.96151e-11
   0.00527668   4.96151e-11
   0.00529644   4.96151e-11
   0.00531621   4.96151e-11
   0.00533597   4.96151e-11
   0.00535573   4.96151e-11
   0.00537549   4.96151e-11
   0.00539526   4.96151e-11
   0.00541502   4.96151e-11
   0.00543478   4.96151e-11
   0.00545455   4.96151e-11
   0.00547431   4.96151e-11
   0.00549407   4.96151e-11
   0.00551383   4.96151e-11
    0.0055336   4.96151e-11
   0.00555336   4.96151e-11
   0.00557312   4.96151e-11
   0.00559289   4.96151e-11
   0.00561265   4.96151e-11
   0.00563241   4.96151e-11
   0.00565217   4.96151e-11
   0.00567194   4.96151e-11
    0.0056917   4.96151e-11
   0.00571146   4.96151e-11
   0.00573123   4.96151e-11
   0.00575099   4.96151e-11
   0.00577075   4.96151e-11
   0.00579051   4.96151e-11
   0.00581028   4.96151e-11
   0.00583004   4.96151e-11
    0.0058498   4.96151e-11
   0.00586957   4.96151e-11
   0.00588933   4.96151e-11
   0.00590909   4.96151e-11
   0.00592885   4.96151e-11
   0.00594862   4.96151e-11
   0.00596838   4.96151e-11
   0.00598814   4.96151e-11
   0.00600791   4.96151e-11
   0.00602767   4.96151e-11
   0.00604743   4.96151e-11
   0.00606719   4.96151e-11
   0.00608696   4.96151e-11
   0.00610672   4.96151e-11
   0.00612648   4.96151e-11
   0.00614625   4.96151e-11
   0.00616601   4.96151e-11
   0.00618577   4.96151e-11
   0.00620553   4.96151e-11
    0.0062253   4.96151e-11
   0.00624506   4.96151e-11
   0.00626482   4.96151e-11
   0.00628458   4.96151e-11
   0.00630435   4.96151e-11
   0.00632411   4.96151e-11
   0.00634387   4.96151e-11
   0.00636364   4.96151e-11
    0.0063834   4.96151e-11
   0.00640316   4.96151e-11
   0.00642292   4.96151e-11
   0.00644269   4.96151e-11
   0.00646245   4.96151e-11
   0.00648221   4.96151e-11
   0.00650198   4.96151e-11
   0.00652174   4.96151e-11
    0.0065415   4.96151e-11
   0.00656126   4.96151e-11
   0.00658103   4.96151e-11
   0.00660079   4.96151e-11
   0.00662055   4.96151e-11
   0.00664032   4.96151e-11
   0.00666008   4.96151e-11
   0.00667984   4.96151e-11
    0.0066996   4.96151e-11
   0.00671937   4.96151e-11
   0.00673913   4.96151e-11
   0.00675889   4.96151e-11
   0.00677866   4.96151e-11
   0.00679842   4.96151e-11
   0.00681818   4.96151e-11
   0.00683794   4.96151e-11
   0.00685771   4.96151e-11
   0.00687747   4.96151e-11
   0.00689723   4.96151e-11
     0.006917   4.96151e-11
   0.00693676   4.96151e-11
   0.00695652   4.96151e-11
   0.00697628   4.96151e-11
   0.00699605   4.96151e-11
   0.00701581   4.96151e-11
   0.00703557   4.96151e-11
   0.00705534   4.96151e-11
    0.0070751   4.96151e-11
   0.00709486   4.96151e-11
   0.00711462   4.96151e-11
   0.00713439   4.96151e-11
   0.00715415   4.96151e-11
   0.00717391   4.96151e-11
   0.00719368   4.96151e-11
   0.00721344   4.96151e-11
    0.0072332   4.96151e-11
   0.00725296   4.96151e-11
   0.00727273   4.96151e-11
   0.00729249   4.96151e-11
   0.00731225   4.96151e-11
   0.00733202   4.96151e-11
   0.00735178   4.96151e-11
   0.00737154   4.96151e-11
    0.0073913   4.96151e-11
   0.00741107   4.96151e-11
   0.00743083   4.96151e-11
   0.00745059   4.96151e-11
   0.00747036   4.96151e-11
   0.00749012   4.96151e-11
   0.00750988   4.96151e-11
   0.00752964   4.96151e-11
   0.00754941   4.96151e-11
   0.00756917   4.96151e-11
   0.00758893   4.96151e-11
    0.0076087   4.96151e-11
   0.00762846   4.96151e-11
   0.00764822   4.96151e-11
   0.00766798   4.96151e-11
   0.00768775   4.96151e-11
   0.00770751   4.96151e-11
   0.00772727   4.96151e-11
   0.00774704   4.96151e-11
    0.0077668   4.96151e-11
   0.00778656   4.96151e-11
   0.00780632   4.96151e-11
   0.00782609   4.96151e-11
   0.00784585   4.96151e-11
   0.00786561   4.96151e-11
   0.00788538   4.96151e-11
   0.00790514   4.96151e-11
    0.0079249   4.96151e-11
   0.00794466   4.96151e-11
   0.00796443   4.96151e-11
   0.00798419   4.96151e-11
   0.00800395   4.96151e-11
   0.00802372   4.96151e-11
   0.00804348   4.96151e-11
   0.00806324   4.96151e-11
     0.008083   4.96151e-11
   0.00810277   4.96151e-11
   0.00812253   4.96151e-11
   0.00814229   4.96151e-11
   0.00816206   4.96151e-11
   0.00818182   4.96151e-11
   0.00820158   4.96151e-11
   0.00822134   4.96151e-11
   0.00824111   4.96151e-11
   0.00826087   4.96151e-11
   0.00828063   4.96151e-11
    0.0083004   4.96151e-11
   0.00832016   4.96151e-11
   0.00833992   4.96151e-11
   0.00835968   4.96151e-11
   0.00837945   4.96151e-11
   0.00839921   4.96151e-11
   0.00841897   4.96151e-11
   0.00843874   4.96151e-11
    0.0084585   4.96151e-11
   0.00847826   4.96151e-11
   0.00849802   4.96151e-11
   0.00851779   4.96151e-11
   0.00853755   4.96151e-11
   0.00855731   4.96151e-11
   0.00857708   4.96151e-11
   0.00859684   4.96151e-11
    0.0086166   4.96151e-11
   0.00863636   4.96151e-11
   0.00865613   4.96151e-11
   0.00867589   4.96151e-11
   0.00869565   4.96151e-11
   0.00871542   4.96151e-11
   0.00873518   4.96151e-11
   0.00875494   4.96151e-11
    0.0087747   4.96151e-11
   0.00879447   4.96151e-11
   0.00881423   4.96151e-11
   0.00883399   4.96151e-11
   0.00885375   4.96151e-11
   0.00887352   4.96151e-11
   0.00889328   4.96151e-11
   0.00891304   4.96151e-11
   0.00893281   4.96151e-11
   0.00895257   4.96151e-11
   0.00897233   4.96151e-11
   0.00899209   4.96151e-11
   0.00901186   4.96151e-11
   0.00903162   4.96151e-11
   0.00905138   4.96151e-11
   0.00907115   4.96151e-11
   0.00909091   4.96151e-11
   0.00911067   4.96151e-11
   0.00913043   4.96151e-11
    0.0091502   4.96151e-11
   0.00916996   4.96151e-11
   0.00918972   4.96151e-11
   0.00920949   4.96151e-11
   0.00922925   4.96151e-11
   0.00924901   4.96151e-11
   0.00926877   4.96151e-11
   0.00928854   4.96151e-11
    0.0093083   4.96151e-11
   0.00932806   4.96151e-11
   0.00934783   4.96151e-11
   0.00936759   4.96151e-11
   0.00938735   4.96151e-11
   0.00940711   4.96151e-11
   0.00942688   4.96151e-11
   0.00944664   4.96151e-11
    0.0094664   4.96151e-11
   0.00948617   4.96151e-11
   0.00950593   4.96151e-11
   0.00952569   4.96151e-11
   0.00954545   4.96151e-11
   0.00956522   4.96151e-11
   0.00958498   4.96151e-11
   0.00960474   4.96151e-11
   0.00962451   4.96151e-11
   0.00964427   4.96151e-11
   0.00966403   4.96151e-11
   0.00968379   4.96151e-11
   0.00970356   4.96151e-11
   0.00972332   4.96151e-11
   0.00974308   4.96151e-11
   0.00976285   4.96151e-11
   0.00978261   4.96151e-11
   0.00980237   4.96151e-11
   0.00982213   4.96151e-11
    0.0098419   4.96151e-11
   0.00986166   4.96151e-11
   0.00988142   4.96151e-11
   0.00990119   4.96151e-11
   0.00992095   4.96151e-11
   0.00994071   4.96151e-11
   0.00996047   4.96151e-11
   0.00998024   4.96151e-11
         0.01   4.96151e-11
    0.0100198   4.96151e-11
    0.0100395   4.96151e-11
    0.0100593   4.96151e-11
    0.0100791   4.96151e-11
    0.0100988   4.96151e-11
    0.0101186   4.96151e-11
    0.0101383   4.96151e-11
    0.0101581   4.96151e-11
    0.0101779   4.96151e-11
    0.0101976   4.96151e-11
    0.0102174   4.96151e-11
    0.0102372   4.96151e-11
    0.0102569   4.96151e-11
    0.0102767   4.96151e-11
    0.0102964   4.96151e-11
    0.0103162   4.96151e-11
     0.010336   4.96151e-11
    0.0103557   4.96151e-11
    0.0103755   4.96151e-11
    0.0103953   4.96151e-11
     0.010415   4.96151e-11
    0.0104348   4.96151e-11
    0.0104545   4.96151e-11
    0.0104743   4.96151e-11
    0.0104941   4.96151e-11
    0.0105138   4.96151e-11
    0.0105336   4.96151e-11
    0.0105534   4.96151e-11
    0.0105731   4.96151e-11
    0.0105929   4.96151e-11
    0.0106126   4.96151e-11
    0.0106324   4.96151e-11
    0.0106522   4.96151e-11
    0.0106719   4.96151e-11
    0.0106917   4.96151e-11
    0.0107115   4.96151e-11
    0.0107312   4.96151e-11
     0.010751   4.96151e-11
    0.0107708   4.96151e-11
    0.0107905   4.96151e-11
    0.0108103   4.96151e-11
      0.01083   4.96151e-11
    0.0108498   4.96151e-11
    0.0108696   4.96151e-11
    0.0108893   4.96151e-11
    0.0109091   4.96151e-11
    0.0109289   4.96151e-11
    0.0109486   4.96151e-11
    0.0109684   4.96151e-11
    0.0109881   4.96151e-11
    0.0110079   4.96151e-11
    0.0110277   4.96151e-11
    0.0110474   4.96151e-11
    0.0110672   4.96151e-11
     0.011087   4.96151e-11
    0.0111067   4.96151e-11
    0.0111265   4.96151e-11
    0.0111462   4.96151e-11
     0.011166   4.96151e-11
    0.0111858   4.96151e-11
    0.0112055   4.96151e-11
    0.0112253   4.96151e-11
    0.0112451   4.96151e-11
    0.0112648   4.96151e-11
    0.0112846   4.96151e-11
    0.0113043   4.96151e-11
    0.0113241   4.96151e-11
    0.0113439   4.96151e-11
    0.0113636   4.96151e-11
    0.0113834   4.96151e-11
    0.0114032   4.96151e-11
    0.0114229   4.96151e-11
    0.0114427   4.96151e-11
    0.0114625   4.96151e-11
    0.0114822   4.96151e-11
     0.011502   4.96151e-11
    0.0115217   4.96151e-11
    0.0115415   4.96151e-11
    0.0115613   4.96151e-11
     0.011581   4.96151e-11
    0.0116008   4.96151e-11
    0.0116206   4.96151e-11
    0.0116403   4.96151e-11
    0.0116601   4.96151e-11
    0.0116798   4.96151e-11
    0.0116996   4.96151e-11
    0.0117194   4.96151e-11
    0.0117391   4.96151e-11
    0.0117589   4.96151e-11
    0.0117787   4.96151e-11
    0.0117984   4.96151e-11
    0.0118182   4.96151e-11
    0.0118379   4.96151e-11
    0.0118577   4.96151e-11
    0.0118775   4.96151e-11
    0.0118972   4.96151e-11
     0.011917   4.96151e-11
    0.0119368   4.96151e-11
    0.0119565   4.96151e-11
    0.0119763   4.96151e-11
     0.011996   4.96151e-11
    0.0120158   4.96151e-11
    0.0120356   4.96151e-11
    0.0120553   4.96151e-11
    0.0120751   4.96151e-11
    0.0120949   4.96151e-11
    0.0121146   4.96151e-11
    0.0121344   4.96151e-11
    0.0121542   4.96151e-11
    0.0121739   4.96151e-11
    0.0121937   4.96151e-11
    0.0122134   4.96151e-11
    0.0122332   4.96151e-11
     0.012253   4.96151e-11
    0.0122727   4.96151e-11
    0.0122925   4.96151e-11
    0.0123123   4.96151e-11
     0.012332   4.96151e-11
    0.0123518   4.96151e-11
    0.0123715   4.96151e-11
    0.0123913   4.96151e-11
    0.0124111   4.96151e-11
    0.0124308   4.96151e-11
    0.0124506   4.96151e-11
    0.0124704   4.96151e-11
    0.0124901   4.96151e-11
    0.0125099   4.96151e-11
    0.0125296   4.96151e-11
    0.0125494   4.96151e-11
    0.0125692   4.96151e-11
    0.0125889   4.96151e-11
    0.0126087   4.96151e-11
    0.0126285   4.96151e-11
    0.0126482   4.96151e-11
     0.012668   4.96151e-11
    0.0126877   4.96151e-11
    0.0127075   4.96151e-11
    0.0127273   4.96151e-11
     0.012747   4.96151e-11
    0.0127668   4.96151e-11
    0.0127866   4.96151e-11
    0.0128063   4.96151e-11
    0.0128261   4.96151e-11
    0.0128458   4.96151e-11
    0.0128656   4.96151e-11
    0.0128854   4.96151e-11
    0.0129051   4.96151e-11
    0.0129249   4.96151e-11
    0.0129447   4.96151e-11
    0.0129644   4.96151e-11
    0.0129842   4.96151e-11
     0.013004   4.96151e-11
    0.0130237   4.96151e-11
    0.0130435   4.96151e-11
    0.0130632   4.96151e-11
     0.013083   4.96151e-11
    0.0131028   4.96151e-11
    0.0131225   4.96151e-11
    0.0131423   4.96151e-11
    0.0131621   4.96151e-11
    0.0131818   4.96151e-11
    0.0132016   4.96151e-11
    0.0132213   4.96151e-11
    0.0132411   4.96151e-11
    0.0132609   4.96151e-11
    0.0132806   4.96151e-11
    0.0133004   4.96151e-11
    0.0133202   4.96151e-11
    0.0133399   4.96151e-11
    0.0133597   4.96151e-11
    0.0133794   4.96151e-11
    0.0133992   4.96151e-11
     0.013419   4.96151e-11
    0.0134387   4.96151e-11
    0.0134585   4.96151e-11
    0.0134783   4.96151e-11
     0.013498   4.96151e-11
