# Probe 0 (0 0 0)
# Probe 1 (0 0 0.005)
# Probe 2 (0 0 0.9)
#       Probe             0             1             2
#        Time
  1.92308e-05     5.751e+08             0             0
  3.84615e-05   1.09581e+09             0             0
  5.76923e-05   1.56728e+09             0             0
  7.69231e-05   1.99416e+09             0             0
  9.61538e-05   2.38067e+09             0             0
  0.000115385   2.73062e+09       4350.52             0
  0.000134615   3.04748e+09         27985             0
  0.000153846   3.33437e+09        102883             0
  0.000173077   3.59413e+09        283721             0
  0.000192308   3.82933e+09        652128             0
  0.000211538   4.04228e+09   1.31926e+06             0
  0.000230769   4.23509e+09   2.42667e+06             0
      0.00025   4.40967e+09   4.14554e+06             0
  0.000269231   4.56774e+09   6.67455e+06             0
  0.000288462   4.71086e+09   1.02365e+07             0
  0.000307692   4.84044e+09   1.50742e+07             0
  0.000326923   4.95777e+09   2.14453e+07             0
  0.000346154     5.064e+09   2.96175e+07             0
  0.000365385   5.16019e+09   3.98627e+07             0
  0.000384615   5.24728e+09    5.2452e+07             0
  0.000403846   5.32613e+09   6.76502e+07             0
  0.000423077   5.39753e+09   8.57114e+07             0
  0.000442308   5.46217e+09   1.06874e+08             0
  0.000461538    5.5207e+09   1.31358e+08             0
  0.000480769    5.5737e+09   1.59361e+08             0
       0.0005   5.62168e+09   1.91053e+08             0
  0.000519231   5.66513e+09   2.26581e+08             0
  0.000538462   5.70446e+09   2.66059e+08             0
  0.000557692   5.74008e+09   3.09575e+08             0
  0.000576923   5.77233e+09   3.57183e+08             0
  0.000596154   5.80153e+09   4.08911e+08             0
  0.000615385   5.82796e+09   4.64753e+08             0
  0.000634615    5.8519e+09   5.24677e+08             0
  0.000653846   5.87357e+09   5.88623e+08             0
  0.000673077    5.8932e+09   6.56503e+08             0
  0.000692308   5.91096e+09   7.28208e+08             0
  0.000711538   5.92705e+09   8.03603e+08             0
  0.000730769   5.94162e+09   8.82533e+08             0
      0.00075    5.9548e+09   9.64828e+08             0
  0.000769231   5.96675e+09    1.0503e+09             0
  0.000788462   5.97756e+09   1.13874e+09             0
  0.000807692   5.98735e+09   1.22994e+09             0
  0.000826923   5.99621e+09   1.32367e+09             0
  0.000846154   6.00423e+09    1.4197e+09             0
  0.000865385    6.0115e+09    1.5178e+09             0
  0.000884615   6.01808e+09   1.61773e+09             0
  0.000903846   6.02404e+09   1.71924e+09             0
  0.000923077   6.02943e+09   1.82209e+09             0
  0.000942308   6.03431e+09   1.92604e+09             0
  0.000961538   6.03874e+09   2.03086e+09             0
  0.000980769   6.04274e+09   2.13631e+09             0
        0.001   6.04636e+09   2.24216e+09             0
   0.00101923   6.04965e+09    2.3482e+09             0
   0.00103846   6.05262e+09   2.45421e+09             0
   0.00105769   6.05531e+09   2.55999e+09             0
   0.00107692   6.05774e+09   2.66535e+09             0
   0.00109615   6.05995e+09   2.77009e+09             0
   0.00111538   6.06195e+09   2.87404e+09             0
   0.00113462   6.06375e+09   2.97705e+09             0
   0.00115385   6.06539e+09   3.07894e+09             0
   0.00117308   6.06687e+09   3.17959e+09             0
   0.00119231   6.06822e+09   3.27886e+09             0
   0.00121154   6.06943e+09   3.37662e+09             0
   0.00123077   6.07053e+09   3.47277e+09             0
      0.00125   6.07153e+09    3.5672e+09             0
   0.00126923   6.07243e+09   3.65983e+09             0
   0.00128846   6.07325e+09   3.75057e+09             0
   0.00130769   6.07399e+09   3.83935e+09             0
   0.00132692   6.07466e+09   3.92612e+09             0
   0.00134615   6.07526e+09   4.01082e+09             0
   0.00136538   6.07581e+09   4.09341e+09             0
   0.00138462   6.07631e+09   4.17385e+09             0
   0.00140385   6.07676e+09   4.25212e+09             0
   0.00142308   6.07717e+09    4.3282e+09             0
   0.00144231   6.07753e+09   4.40208e+09             0
   0.00146154   6.07787e+09   4.47374e+09             0
   0.00148077   6.07817e+09    4.5432e+09             0
       0.0015   6.07844e+09   4.61046e+09             0
   0.00151923   6.07869e+09   4.67553e+09             0
   0.00153846   6.07892e+09   4.73842e+09             0
   0.00155769   6.07912e+09   4.79916e+09             0
   0.00157692    6.0793e+09   4.85778e+09             0
   0.00159615   6.07947e+09    4.9143e+09             0
   0.00161538   6.07962e+09   4.96875e+09             0
   0.00163462   6.07976e+09   5.02118e+09             0
   0.00165385   6.07988e+09   5.07161e+09             0
   0.00167308   6.07999e+09   5.12009e+09             0
   0.00169231    6.0801e+09   5.16667e+09             0
   0.00171154   6.08019e+09   5.21138e+09             0
   0.00173077   6.08027e+09   5.25427e+09             0
      0.00175   6.08035e+09   5.29539e+09             0
   0.00176923   6.08041e+09   5.33478e+09             0
   0.00178846   6.08048e+09    5.3725e+09             0
   0.00180769   6.08053e+09   5.40859e+09             0
   0.00182692   6.08058e+09   5.44311e+09             0
   0.00184615   6.08063e+09   5.47609e+09             0
   0.00186538   6.08067e+09    5.5076e+09             0
   0.00188462   6.08071e+09   5.53768e+09             0
   0.00190385   6.08074e+09   5.56638e+09             0
   0.00192308   6.08077e+09   5.59374e+09             0
   0.00194231    6.0808e+09   5.61983e+09             0
   0.00196154   6.08082e+09   5.64467e+09             0
   0.00198077   6.08085e+09   5.66833e+09             0
        0.002   6.08087e+09   5.69084e+09             0
   0.00201923   6.08089e+09   5.71225e+09             0
   0.00203846    6.0809e+09    5.7326e+09             0
   0.00205769   6.08092e+09   5.75195e+09             0
   0.00207692   6.08093e+09   5.77032e+09             0
   0.00209615   6.08095e+09   5.78776e+09             0
   0.00211538   6.08096e+09   5.80431e+09             0
   0.00213462   6.08097e+09   5.82001e+09             0
   0.00215385   6.08098e+09    5.8349e+09             0
   0.00217308   6.08099e+09     5.849e+09             0
   0.00219231   6.08099e+09   5.86237e+09             0
   0.00221154     6.081e+09   5.87502e+09             0
   0.00223077   6.08101e+09     5.887e+09             0
      0.00225   6.08101e+09   5.89834e+09             0
   0.00226923   6.08102e+09   5.90906e+09             0
   0.00228846   6.08102e+09    5.9192e+09             0
   0.00230769   6.08103e+09   5.92878e+09             0
   0.00232692   6.08103e+09   5.93783e+09             0
   0.00234615   6.08103e+09   5.94638e+09             0
   0.00236538   6.08104e+09   5.95445e+09             0
   0.00238462   6.08104e+09   5.96207e+09             0
   0.00240385   6.08104e+09   5.96926e+09             0
   0.00242308   6.08104e+09   5.97603e+09             0
   0.00244231   6.08105e+09   5.98243e+09             0
   0.00246154   6.08105e+09   5.98845e+09             0
   0.00248077   6.08105e+09   5.99413e+09             0
       0.0025   6.08105e+09   5.99947e+09             0
   0.00251923   6.08105e+09   6.00451e+09             0
   0.00253846   6.08105e+09   6.00924e+09             0
   0.00255769   6.08106e+09    6.0137e+09             0
   0.00257692   6.08106e+09    6.0179e+09             0
   0.00259615   6.08106e+09   6.02185e+09             0
   0.00261538   6.08106e+09   6.02556e+09             0
   0.00263462   6.08106e+09   6.02904e+09             0
   0.00265385   6.08106e+09   6.03232e+09             0
   0.00267308   6.08106e+09    6.0354e+09             0
   0.00269231   6.08106e+09   6.03829e+09             0
   0.00271154   6.08106e+09   6.04101e+09             0
   0.00273077   6.08106e+09   6.04356e+09             0
      0.00275   6.08106e+09   6.04595e+09             0
   0.00276923   6.08106e+09   6.04819e+09             0
   0.00278846   6.08106e+09    6.0503e+09             0
   0.00280769   6.08106e+09   6.05227e+09             0
   0.00282692   6.08106e+09   6.05412e+09             0
   0.00284615   6.08106e+09   6.05586e+09             0
   0.00286538   6.08106e+09   6.05748e+09             0
   0.00288462   6.08106e+09   6.05901e+09             0
   0.00290385   6.08106e+09   6.06043e+09             0
   0.00292308   6.08106e+09   6.06177e+09             0
   0.00294231   6.08106e+09   6.06302e+09             0
   0.00296154   6.08107e+09   6.06419e+09             0
   0.00298077   6.08107e+09   6.06528e+09             0
        0.003   6.08107e+09   6.06631e+09             0
   0.00301923   6.08107e+09   6.06727e+09             0
   0.00303846   6.08107e+09   6.06817e+09             0
   0.00305769   6.08107e+09     6.069e+09             0
   0.00307692   6.08107e+09   6.06979e+09             0
   0.00309615   6.08107e+09   6.07052e+09             0
   0.00311538   6.08107e+09    6.0712e+09             0
   0.00313462   6.08107e+09   6.07184e+09             0
   0.00315385   6.08107e+09   6.07244e+09             0
   0.00317308   6.08107e+09     6.073e+09             0
   0.00319231   6.08107e+09   6.07352e+09             0
   0.00321154   6.08107e+09   6.07401e+09             0
   0.00323077   6.08107e+09   6.07446e+09             0
      0.00325   6.08107e+09   6.07488e+09             0
   0.00326923   6.08107e+09   6.07528e+09             0
   0.00328846   6.08107e+09   6.07565e+09             0
   0.00330769   6.08107e+09   6.07599e+09             0
   0.00332692   6.08107e+09   6.07631e+09             0
   0.00334615   6.08107e+09   6.07661e+09             0
   0.00336538   6.08107e+09   6.07689e+09             0
   0.00338462   6.08107e+09   6.07715e+09             0
   0.00340385   6.08107e+09   6.07739e+09             0
   0.00342308   6.08107e+09   6.07762e+09             0
   0.00344231   6.08107e+09   6.07783e+09             0
   0.00346154   6.08107e+09   6.07802e+09             0
   0.00348077   6.08107e+09    6.0782e+09             0
       0.0035   6.08107e+09   6.07837e+09             0
   0.00351923   6.08107e+09   6.07853e+09             0
   0.00353846   6.08107e+09   6.07868e+09             0
   0.00355769   6.08107e+09   6.07882e+09             0
   0.00357692   6.08107e+09   6.07894e+09             0
   0.00359615   6.08107e+09   6.07906e+09             0
   0.00361538   6.08107e+09   6.07917e+09             0
   0.00363462   6.08107e+09   6.07927e+09             0
   0.00365385   6.08107e+09   6.07937e+09             0
   0.00367308   6.08107e+09   6.07946e+09             0
   0.00369231   6.08107e+09   6.07954e+09             0
   0.00371154   6.08107e+09   6.07962e+09             0
   0.00373077   6.08107e+09   6.07969e+09             0
      0.00375   6.08107e+09   6.07975e+09             0
   0.00376923   6.08107e+09   6.07982e+09             0
   0.00378846   6.08107e+09   6.07987e+09             0
   0.00380769   6.08107e+09   6.07993e+09             0
   0.00382692   6.08107e+09   6.07998e+09             0
   0.00384615   6.08107e+09   6.08002e+09             0
   0.00386538   6.08107e+09   6.08006e+09             0
   0.00388462   6.08107e+09    6.0801e+09             0
   0.00390385   6.08107e+09   6.08014e+09             0
   0.00392308   6.08107e+09   6.08017e+09             0
   0.00394231   6.08107e+09   6.08021e+09             0
   0.00396154   6.08107e+09   6.08024e+09             0
   0.00398077   6.08107e+09   6.08026e+09             0
        0.004   6.08107e+09   6.08029e+09             0
   0.00401923   6.08107e+09   6.08031e+09             0
   0.00403846   6.08107e+09   6.08033e+09             0
   0.00405769   6.08107e+09   6.08035e+09             0
   0.00407692   6.08107e+09   6.08037e+09             0
   0.00409615   6.08107e+09   6.08039e+09             0
   0.00411538   6.08107e+09   6.08041e+09             0
   0.00413462   6.08107e+09   6.08042e+09             0
   0.00415385   6.08107e+09   6.08043e+09             0
   0.00417308   6.08107e+09   6.08045e+09             0
   0.00419231   6.08107e+09   6.08046e+09             0
   0.00421154   6.08107e+09   6.08047e+09             0
   0.00423077   6.08107e+09   6.08048e+09             0
      0.00425   6.08107e+09   6.08049e+09             0
   0.00426923   6.08107e+09    6.0805e+09             0
   0.00428846   6.08107e+09   6.08051e+09             0
   0.00430769   6.08107e+09   6.08051e+09             0
   0.00432692   6.08107e+09   6.08052e+09             0
   0.00434615   6.08107e+09   6.08053e+09             0
   0.00436538   6.08107e+09   6.08053e+09             0
   0.00438462   6.08107e+09   6.08054e+09             0
   0.00440385   6.08107e+09   6.08054e+09             0
   0.00442308   6.08107e+09   6.08055e+09             0
   0.00444231   6.08107e+09   6.08055e+09             0
   0.00446154   6.08107e+09   6.08056e+09             0
   0.00448077   6.08107e+09   6.08056e+09             0
       0.0045   6.08107e+09   6.08056e+09             0
   0.00451923   6.08107e+09   6.08057e+09             0
   0.00453846   6.08107e+09   6.08057e+09             0
   0.00455769   6.08107e+09   6.08057e+09             0
   0.00457692   6.08107e+09   6.08058e+09             0
   0.00459615   6.08107e+09   6.08058e+09             0
   0.00461538   6.08107e+09   6.08058e+09             0
   0.00463462   6.08107e+09   6.08058e+09             0
   0.00465385   6.08107e+09   6.08058e+09             0
   0.00467308   6.08107e+09   6.08059e+09             0
   0.00469231   6.08107e+09   6.08059e+09             0
   0.00471154   6.08107e+09   6.08059e+09             0
   0.00473077   6.08107e+09   6.08059e+09             0
      0.00475   6.08107e+09   6.08059e+09             0
   0.00476923   6.08107e+09   6.08059e+09             0
   0.00478846   6.08107e+09   6.08059e+09             0
   0.00480769   6.08107e+09   6.08059e+09             0
   0.00482692   6.08107e+09    6.0806e+09             0
   0.00484615   6.08107e+09    6.0806e+09             0
   0.00486538   6.08107e+09    6.0806e+09             0
   0.00488462   6.08107e+09    6.0806e+09             0
   0.00490385   6.08107e+09    6.0806e+09             0
   0.00492308   6.08107e+09    6.0806e+09             0
   0.00494231   6.08107e+09    6.0806e+09             0
   0.00496154   6.08107e+09    6.0806e+09             0
   0.00498077   6.08107e+09    6.0806e+09             0
        0.005   6.08107e+09    6.0806e+09             0
   0.00501923   6.08107e+09    6.0806e+09             0
   0.00503846   6.08107e+09    6.0806e+09             0
   0.00505769   6.08107e+09    6.0806e+09             0
   0.00507692   6.08107e+09    6.0806e+09             0
   0.00509615   6.08107e+09    6.0806e+09             0
   0.00511538   6.08107e+09    6.0806e+09             0
   0.00513462   6.08107e+09    6.0806e+09             0
   0.00515385   6.08107e+09    6.0806e+09             0
   0.00517308   6.08107e+09    6.0806e+09             0
   0.00519231   6.08107e+09    6.0806e+09             0
   0.00521154   6.08107e+09    6.0806e+09             0
   0.00523077   6.08107e+09    6.0806e+09             0
      0.00525   6.08107e+09    6.0806e+09             0
   0.00526923   6.08107e+09    6.0806e+09             0
   0.00528846   6.08107e+09    6.0806e+09             0
   0.00530769   6.08107e+09    6.0806e+09             0
   0.00532692   6.08107e+09    6.0806e+09             0
   0.00534615   6.08107e+09    6.0806e+09             0
   0.00536538   6.08107e+09   6.08061e+09             0
   0.00538462   6.08107e+09   6.08061e+09             0
   0.00540385   6.08107e+09   6.08061e+09             0
   0.00542308   6.08107e+09   6.08061e+09             0
   0.00544231   6.08107e+09   6.08061e+09             0
   0.00546154   6.08107e+09   6.08061e+09             0
   0.00548077   6.08107e+09   6.08061e+09             0
       0.0055   6.08107e+09   6.08061e+09             0
   0.00551923   6.08107e+09   6.08061e+09             0
   0.00553846   6.08107e+09   6.08061e+09             0
   0.00555769   6.08107e+09   6.08061e+09             0
   0.00557692   6.08107e+09   6.08061e+09             0
   0.00559615   6.08107e+09   6.08061e+09             0
   0.00561538   6.08107e+09   6.08061e+09             0
   0.00563462   6.08107e+09   6.08061e+09             0
   0.00565385   6.08107e+09   6.08061e+09             0
   0.00567308   6.08107e+09   6.08061e+09             0
   0.00569231   6.08107e+09   6.08061e+09             0
   0.00571154   6.08107e+09   6.08061e+09             0
   0.00573077   6.08107e+09   6.08061e+09             0
      0.00575   6.08107e+09   6.08061e+09             0
   0.00576923   6.08107e+09   6.08061e+09             0
   0.00578846   6.08107e+09   6.08061e+09             0
   0.00580769   6.08107e+09   6.08061e+09             0
   0.00582692   6.08107e+09   6.08061e+09             0
   0.00584615   6.08107e+09   6.08061e+09             0
   0.00586538   6.08107e+09   6.08061e+09             0
   0.00588462   6.08107e+09   6.08061e+09             0
   0.00590385   6.08107e+09   6.08061e+09             0
   0.00592308   6.08107e+09   6.08061e+09             0
   0.00594231   6.08107e+09   6.08061e+09             0
   0.00596154   6.08107e+09   6.08061e+09             0
   0.00598077   6.08107e+09   6.08061e+09             0
        0.006   6.08107e+09   6.08061e+09             0
   0.00601923   6.08107e+09   6.08061e+09             0
   0.00603846   6.08107e+09   6.08061e+09             0
   0.00605769   6.08107e+09   6.08061e+09             0
   0.00607692   6.08107e+09   6.08061e+09             0
   0.00609615   6.08107e+09   6.08061e+09             0
   0.00611538   6.08107e+09   6.08061e+09             0
   0.00613462   6.08107e+09   6.08061e+09             0
   0.00615385   6.08107e+09   6.08061e+09             0
   0.00617308   6.08107e+09   6.08061e+09             0
   0.00619231   6.08107e+09   6.08061e+09             0
   0.00621154   6.08107e+09   6.08061e+09             0
   0.00623077   6.08107e+09   6.08061e+09             0
      0.00625   6.08107e+09   6.08061e+09             0
   0.00626923   6.08107e+09   6.08061e+09             0
   0.00628846   6.08107e+09   6.08061e+09             0
   0.00630769   6.08107e+09   6.08061e+09             0
   0.00632692   6.08107e+09   6.08061e+09             0
   0.00634615   6.08107e+09   6.08061e+09             0
   0.00636538   6.08107e+09   6.08061e+09             0
   0.00638462   6.08107e+09   6.08061e+09             0
   0.00640385   6.08107e+09   6.08061e+09             0
   0.00642308   6.08107e+09   6.08061e+09             0
   0.00644231   6.08107e+09   6.08061e+09             0
   0.00646154   6.08107e+09   6.08061e+09             0
   0.00648077   6.08107e+09   6.08061e+09             0
       0.0065   6.08107e+09   6.08061e+09             0
   0.00651923   6.08107e+09   6.08061e+09             0
   0.00653846   6.08107e+09   6.08061e+09             0
   0.00655769   6.08107e+09   6.08061e+09             0
   0.00657692   6.08107e+09   6.08061e+09             0
   0.00659615   6.08107e+09   6.08061e+09             0
   0.00661538   6.08107e+09   6.08061e+09             0
   0.00663462   6.08107e+09   6.08061e+09             0
   0.00665385   6.08107e+09   6.08061e+09             0
   0.00667308   6.08107e+09   6.08061e+09             0
   0.00669231   6.08107e+09   6.08061e+09             0
   0.00671154   6.08107e+09   6.08061e+09             0
   0.00673077   6.08107e+09   6.08061e+09             0
      0.00675   6.08107e+09   6.08061e+09             0
   0.00676923   6.08107e+09   6.08061e+09             0
   0.00678846   6.08107e+09   6.08061e+09             0
   0.00680769   6.08107e+09   6.08061e+09             0
   0.00682692   6.08107e+09   6.08061e+09             0
   0.00684615   6.08107e+09   6.08061e+09             0
   0.00686538   6.08107e+09   6.08061e+09             0
   0.00688462   6.08107e+09   6.08061e+09             0
   0.00690385   6.08107e+09   6.08061e+09             0
   0.00692308   6.08107e+09   6.08061e+09             0
   0.00694231   6.08107e+09   6.08061e+09             0
   0.00696154   6.08107e+09   6.08061e+09             0
   0.00698077   6.08107e+09   6.08061e+09             0
        0.007   6.08107e+09   6.08061e+09             0
   0.00701923   6.08107e+09   6.08061e+09             0
   0.00703846   6.08107e+09   6.08061e+09             0
   0.00705769   6.08107e+09   6.08061e+09             0
   0.00707692   6.08107e+09   6.08061e+09             0
   0.00709615   6.08107e+09   6.08061e+09             0
   0.00711538   6.08107e+09   6.08061e+09             0
   0.00713462   6.08107e+09   6.08061e+09             0
   0.00715385   6.08107e+09   6.08061e+09             0
   0.00717308   6.08107e+09   6.08061e+09             0
   0.00719231   6.08107e+09   6.08061e+09             0
   0.00721154   6.08107e+09   6.08061e+09             0
   0.00723077   6.08107e+09   6.08061e+09             0
      0.00725   6.08107e+09   6.08061e+09             0
   0.00726923   6.08107e+09   6.08061e+09             0
   0.00728846   6.08107e+09   6.08061e+09             0
   0.00730769   6.08107e+09   6.08061e+09             0
   0.00732692   6.08107e+09   6.08061e+09             0
   0.00734615   6.08107e+09   6.08061e+09             0
   0.00736538   6.08107e+09   6.08061e+09             0
   0.00738462   6.08107e+09   6.08061e+09             0
   0.00740385   6.08107e+09   6.08061e+09             0
   0.00742308   6.08107e+09   6.08061e+09             0
   0.00744231   6.08107e+09   6.08061e+09             0
   0.00746154   6.08107e+09   6.08061e+09             0
   0.00748077   6.08107e+09   6.08061e+09             0
       0.0075   6.08107e+09   6.08061e+09             0
   0.00751923   6.08107e+09   6.08061e+09             0
   0.00753846   6.08107e+09   6.08061e+09             0
   0.00755769   6.08107e+09   6.08061e+09             0
   0.00757692   6.08107e+09   6.08061e+09             0
   0.00759615   6.08107e+09   6.08061e+09             0
   0.00761538   6.08107e+09   6.08061e+09             0
   0.00763462   6.08107e+09   6.08061e+09             0
   0.00765385   6.08107e+09   6.08061e+09             0
   0.00767308   6.08107e+09   6.08061e+09             0
   0.00769231   6.08107e+09   6.08061e+09             0
   0.00771154   6.08107e+09   6.08061e+09             0
   0.00773077   6.08107e+09   6.08061e+09             0
      0.00775   6.08107e+09   6.08061e+09             0
   0.00776923   6.08107e+09   6.08061e+09             0
   0.00778846   6.08107e+09   6.08061e+09             0
   0.00780769   6.08107e+09   6.08061e+09             0
   0.00782692   6.08107e+09   6.08061e+09             0
   0.00784615   6.08107e+09   6.08061e+09             0
   0.00786538   6.08107e+09   6.08061e+09             0
