# Probe 0 (0 0 0)
# Probe 1 (0 0 0.005)
# Probe 2 (0 0 0.9)
#       Probe             0             1             2
#        Time
  1.92308e-05   5.74777e+08             0             0
  3.84615e-05    1.0952e+09             0             0
  5.76923e-05    1.5664e+09             0             0
  7.69231e-05   1.99304e+09             0             0
  9.61538e-05   2.37933e+09             0             0
  0.000115385   2.72909e+09       4348.09             0
  0.000134615   3.04577e+09       27969.4             0
  0.000153846   3.33251e+09        102825             0
  0.000173077   3.59212e+09        283562             0
  0.000192308   3.82718e+09        651763             0
  0.000211538   4.04002e+09   1.31852e+06             0
  0.000230769   4.23272e+09   2.42531e+06             0
      0.00025    4.4072e+09   4.14322e+06             0
  0.000269231   4.56518e+09   6.67082e+06             0
  0.000288462   4.70822e+09   1.02308e+07             0
  0.000307692   4.83773e+09   1.50657e+07             0
  0.000326923     4.955e+09   2.14333e+07             0
  0.000346154   5.06117e+09   2.96009e+07             0
  0.000365385    5.1573e+09   3.98404e+07             0
  0.000384615   5.24434e+09   5.24226e+07             0
  0.000403846   5.32315e+09   6.76124e+07             0
  0.000423077   5.39451e+09   8.56635e+07             0
  0.000442308   5.45912e+09   1.06814e+08             0
  0.000461538   5.51761e+09   1.31285e+08             0
  0.000480769   5.57058e+09   1.59272e+08             0
       0.0005   5.61853e+09   1.90946e+08             0
  0.000519231   5.66196e+09   2.26454e+08             0
  0.000538462   5.70127e+09   2.65911e+08             0
  0.000557692   5.73687e+09   3.09402e+08             0
  0.000576923    5.7691e+09   3.56984e+08             0
  0.000596154   5.79828e+09   4.08682e+08             0
  0.000615385    5.8247e+09   4.64493e+08             0
  0.000634615   5.84862e+09   5.24384e+08             0
  0.000653846   5.87029e+09   5.88294e+08             0
  0.000673077    5.8899e+09   6.56137e+08             0
  0.000692308   5.90766e+09   7.27801e+08             0
  0.000711538   5.92373e+09   8.03154e+08             0
  0.000730769   5.93829e+09   8.82041e+08             0
      0.00075   5.95147e+09   9.64289e+08             0
  0.000769231   5.96341e+09   1.04971e+09             0
  0.000788462   5.97421e+09    1.1381e+09             0
  0.000807692     5.984e+09   1.22925e+09             0
  0.000826923   5.99285e+09   1.32293e+09             0
  0.000846154   6.00088e+09   1.41891e+09             0
  0.000865385   6.00814e+09   1.51696e+09             0
  0.000884615   6.01471e+09   1.61683e+09             0
  0.000903846   6.02067e+09   1.71828e+09             0
  0.000923077   6.02606e+09   1.82107e+09             0
  0.000942308   6.03094e+09   1.92497e+09             0
  0.000961538   6.03536e+09   2.02973e+09             0
  0.000980769   6.03936e+09   2.13512e+09             0
        0.001   6.04298e+09   2.24091e+09             0
   0.00101923   6.04626e+09   2.34689e+09             0
   0.00103846   6.04923e+09   2.45285e+09             0
   0.00105769   6.05192e+09   2.55857e+09             0
   0.00107692   6.05435e+09   2.66386e+09             0
   0.00109615   6.05656e+09   2.76855e+09             0
   0.00111538   6.05856e+09   2.87244e+09             0
   0.00113462   6.06036e+09   2.97539e+09             0
   0.00115385     6.062e+09   3.07723e+09             0
   0.00117308   6.06348e+09   3.17782e+09             0
   0.00119231   6.06482e+09   3.27704e+09             0
   0.00121154   6.06604e+09   3.37474e+09             0
   0.00123077   6.06714e+09   3.47084e+09             0
      0.00125   6.06813e+09   3.56522e+09             0
   0.00126923   6.06903e+09   3.65779e+09             0
   0.00128846   6.06985e+09   3.74848e+09             0
   0.00130769   6.07059e+09   3.83722e+09             0
   0.00132692   6.07126e+09   3.92394e+09             0
   0.00134615   6.07186e+09   4.00859e+09             0
   0.00136538   6.07241e+09   4.09113e+09             0
   0.00138462   6.07291e+09   4.17153e+09             0
   0.00140385   6.07336e+09   4.24976e+09             0
   0.00142308   6.07377e+09    4.3258e+09             0
   0.00144231   6.07413e+09   4.39963e+09             0
   0.00146154   6.07447e+09   4.47126e+09             0
   0.00148077   6.07477e+09   4.54068e+09             0
       0.0015   6.07504e+09    4.6079e+09             0
   0.00151923   6.07529e+09   4.67293e+09             0
   0.00153846   6.07552e+09   4.73579e+09             0
   0.00155769   6.07572e+09    4.7965e+09             0
   0.00157692    6.0759e+09   4.85508e+09             0
   0.00159615   6.07607e+09   4.91157e+09             0
   0.00161538   6.07622e+09     4.966e+09             0
   0.00163462   6.07636e+09   5.01839e+09             0
   0.00165385   6.07648e+09    5.0688e+09             0
   0.00167308   6.07659e+09   5.11725e+09             0
   0.00169231   6.07669e+09    5.1638e+09             0
   0.00171154   6.07679e+09   5.20849e+09             0
   0.00173077   6.07687e+09   5.25135e+09             0
      0.00175   6.07694e+09   5.29245e+09             0
   0.00176923   6.07701e+09   5.33182e+09             0
   0.00178846   6.07707e+09   5.36952e+09             0
   0.00180769   6.07713e+09   5.40559e+09             0
   0.00182692   6.07718e+09   5.44009e+09             0
   0.00184615   6.07723e+09   5.47306e+09             0
   0.00186538   6.07727e+09   5.50455e+09             0
   0.00188462   6.07731e+09   5.53461e+09             0
   0.00190385   6.07734e+09   5.56329e+09             0
   0.00192308   6.07737e+09   5.59064e+09             0
   0.00194231    6.0774e+09   5.61671e+09             0
   0.00196154   6.07742e+09   5.64154e+09             0
   0.00198077   6.07745e+09   5.66518e+09             0
        0.002   6.07747e+09   5.68768e+09             0
   0.00201923   6.07749e+09   5.70908e+09             0
   0.00203846    6.0775e+09   5.72943e+09             0
   0.00205769   6.07752e+09   5.74876e+09             0
   0.00207692   6.07753e+09   5.76712e+09             0
   0.00209615   6.07754e+09   5.78455e+09             0
   0.00211538   6.07756e+09   5.80109e+09             0
   0.00213462   6.07757e+09   5.81679e+09             0
   0.00215385   6.07758e+09   5.83166e+09             0
   0.00217308   6.07758e+09   5.84576e+09             0
   0.00219231   6.07759e+09   5.85912e+09             0
   0.00221154    6.0776e+09   5.87177e+09             0
   0.00223077    6.0776e+09   5.88374e+09             0
      0.00225   6.07761e+09   5.89507e+09             0
   0.00226923   6.07762e+09   5.90579e+09             0
   0.00228846   6.07762e+09   5.91592e+09             0
   0.00230769   6.07762e+09   5.92549e+09             0
   0.00232692   6.07763e+09   5.93454e+09             0
   0.00234615   6.07763e+09   5.94309e+09             0
   0.00236538   6.07763e+09   5.95115e+09             0
   0.00238462   6.07764e+09   5.95877e+09             0
   0.00240385   6.07764e+09   5.96595e+09             0
   0.00242308   6.07764e+09   5.97272e+09             0
   0.00244231   6.07764e+09   5.97911e+09             0
   0.00246154   6.07765e+09   5.98513e+09             0
   0.00248077   6.07765e+09   5.99081e+09             0
       0.0025   6.07765e+09   5.99615e+09             0
   0.00251923   6.07765e+09   6.00118e+09             0
   0.00253846   6.07765e+09   6.00592e+09             0
   0.00255769   6.07765e+09   6.01037e+09             0
   0.00257692   6.07765e+09   6.01457e+09             0
   0.00259615   6.07766e+09   6.01851e+09             0
   0.00261538   6.07766e+09   6.02222e+09             0
   0.00263462   6.07766e+09   6.02571e+09             0
   0.00265385   6.07766e+09   6.02898e+09             0
   0.00267308   6.07766e+09   6.03206e+09             0
   0.00269231   6.07766e+09   6.03495e+09             0
   0.00271154   6.07766e+09   6.03766e+09             0
   0.00273077   6.07766e+09   6.04021e+09             0
      0.00275   6.07766e+09    6.0426e+09             0
   0.00276923   6.07766e+09   6.04484e+09             0
   0.00278846   6.07766e+09   6.04695e+09             0
   0.00280769   6.07766e+09   6.04892e+09             0
   0.00282692   6.07766e+09   6.05077e+09             0
   0.00284615   6.07766e+09    6.0525e+09             0
   0.00286538   6.07766e+09   6.05413e+09             0
   0.00288462   6.07766e+09   6.05565e+09             0
   0.00290385   6.07766e+09   6.05708e+09             0
   0.00292308   6.07766e+09   6.05841e+09             0
   0.00294231   6.07766e+09   6.05966e+09             0
   0.00296154   6.07766e+09   6.06083e+09             0
   0.00298077   6.07766e+09   6.06193e+09             0
        0.003   6.07766e+09   6.06295e+09             0
   0.00301923   6.07766e+09   6.06391e+09             0
   0.00303846   6.07766e+09   6.06481e+09             0
   0.00305769   6.07766e+09   6.06564e+09             0
   0.00307692   6.07766e+09   6.06643e+09             0
   0.00309615   6.07766e+09   6.06716e+09             0
   0.00311538   6.07766e+09   6.06784e+09             0
   0.00313462   6.07766e+09   6.06848e+09             0
   0.00315385   6.07766e+09   6.06908e+09             0
   0.00317308   6.07766e+09   6.06964e+09             0
   0.00319231   6.07766e+09   6.07016e+09             0
   0.00321154   6.07766e+09   6.07064e+09             0
   0.00323077   6.07766e+09    6.0711e+09             0
      0.00325   6.07766e+09   6.07152e+09             0
   0.00326923   6.07766e+09   6.07191e+09             0
   0.00328846   6.07766e+09   6.07228e+09             0
   0.00330769   6.07766e+09   6.07263e+09             0
   0.00332692   6.07766e+09   6.07295e+09             0
   0.00334615   6.07766e+09   6.07325e+09             0
   0.00336538   6.07766e+09   6.07352e+09             0
   0.00338462   6.07766e+09   6.07378e+09             0
   0.00340385   6.07766e+09   6.07403e+09             0
   0.00342308   6.07766e+09   6.07425e+09             0
   0.00344231   6.07766e+09   6.07446e+09             0
   0.00346154   6.07766e+09   6.07466e+09             0
   0.00348077   6.07766e+09   6.07484e+09             0
       0.0035   6.07766e+09   6.07501e+09             0
   0.00351923   6.07766e+09   6.07517e+09             0
   0.00353846   6.07766e+09   6.07531e+09             0
   0.00355769   6.07766e+09   6.07545e+09             0
   0.00357692   6.07766e+09   6.07558e+09             0
   0.00359615   6.07766e+09    6.0757e+09             0
   0.00361538   6.07766e+09   6.07581e+09             0
   0.00363462   6.07766e+09   6.07591e+09             0
   0.00365385   6.07766e+09     6.076e+09             0
   0.00367308   6.07766e+09   6.07609e+09             0
   0.00369231   6.07766e+09   6.07617e+09             0
   0.00371154   6.07766e+09   6.07625e+09             0
   0.00373077   6.07766e+09   6.07632e+09             0
      0.00375   6.07766e+09   6.07639e+09             0
   0.00376923   6.07766e+09   6.07645e+09             0
   0.00378846   6.07766e+09   6.07651e+09             0
   0.00380769   6.07766e+09   6.07656e+09             0
   0.00382692   6.07766e+09   6.07661e+09             0
   0.00384615   6.07766e+09   6.07666e+09             0
   0.00386538   6.07766e+09    6.0767e+09             0
   0.00388462   6.07766e+09   6.07674e+09             0
   0.00390385   6.07766e+09   6.07677e+09             0
   0.00392308   6.07766e+09   6.07681e+09             0
   0.00394231   6.07766e+09   6.07684e+09             0
   0.00396154   6.07766e+09   6.07687e+09             0
   0.00398077   6.07766e+09    6.0769e+09             0
        0.004   6.07766e+09   6.07692e+09             0
   0.00401923   6.07766e+09   6.07694e+09             0
   0.00403846   6.07766e+09   6.07697e+09             0
   0.00405769   6.07766e+09   6.07699e+09             0
   0.00407692   6.07766e+09   6.07701e+09             0
   0.00409615   6.07766e+09   6.07702e+09             0
   0.00411538   6.07766e+09   6.07704e+09             0
   0.00413462   6.07766e+09   6.07705e+09             0
   0.00415385   6.07766e+09   6.07707e+09             0
   0.00417308   6.07766e+09   6.07708e+09             0
   0.00419231   6.07766e+09   6.07709e+09             0
   0.00421154   6.07766e+09    6.0771e+09             0
   0.00423077   6.07766e+09   6.07711e+09             0
      0.00425   6.07766e+09   6.07712e+09             0
   0.00426923   6.07766e+09   6.07713e+09             0
   0.00428846   6.07766e+09   6.07714e+09             0
   0.00430769   6.07766e+09   6.07715e+09             0
   0.00432692   6.07766e+09   6.07715e+09             0
   0.00434615   6.07766e+09   6.07716e+09             0
   0.00436538   6.07766e+09   6.07717e+09             0
   0.00438462   6.07766e+09   6.07717e+09             0
   0.00440385   6.07766e+09   6.07718e+09             0
   0.00442308   6.07766e+09   6.07718e+09             0
   0.00444231   6.07766e+09   6.07719e+09             0
   0.00446154   6.07766e+09   6.07719e+09             0
   0.00448077   6.07766e+09   6.07719e+09             0
       0.0045   6.07766e+09    6.0772e+09             0
   0.00451923   6.07766e+09    6.0772e+09             0
   0.00453846   6.07766e+09    6.0772e+09             0
   0.00455769   6.07766e+09   6.07721e+09             0
   0.00457692   6.07766e+09   6.07721e+09             0
   0.00459615   6.07766e+09   6.07721e+09             0
   0.00461538   6.07766e+09   6.07721e+09             0
   0.00463462   6.07766e+09   6.07722e+09             0
   0.00465385   6.07766e+09   6.07722e+09             0
   0.00467308   6.07766e+09   6.07722e+09             0
   0.00469231   6.07766e+09   6.07722e+09             0
   0.00471154   6.07766e+09   6.07722e+09             0
   0.00473077   6.07766e+09   6.07722e+09             0
      0.00475   6.07766e+09   6.07722e+09             0
   0.00476923   6.07766e+09   6.07723e+09             0
   0.00478846   6.07766e+09   6.07723e+09             0
   0.00480769   6.07766e+09   6.07723e+09             0
   0.00482692   6.07766e+09   6.07723e+09             0
   0.00484615   6.07766e+09   6.07723e+09             0
   0.00486538   6.07766e+09   6.07723e+09             0
   0.00488462   6.07766e+09   6.07723e+09             0
   0.00490385   6.07766e+09   6.07723e+09             0
   0.00492308   6.07766e+09   6.07723e+09             0
   0.00494231   6.07766e+09   6.07723e+09             0
   0.00496154   6.07766e+09   6.07723e+09             0
   0.00498077   6.07766e+09   6.07723e+09             0
        0.005   6.07766e+09   6.07723e+09             0
   0.00501923   6.07766e+09   6.07723e+09             0
   0.00503846   6.07766e+09   6.07724e+09             0
   0.00505769   6.07766e+09   6.07724e+09             0
   0.00507692   6.07766e+09   6.07724e+09             0
   0.00509615   6.07766e+09   6.07724e+09             0
   0.00511538   6.07766e+09   6.07724e+09             0
   0.00513462   6.07766e+09   6.07724e+09             0
   0.00515385   6.07766e+09   6.07724e+09             0
   0.00517308   6.07766e+09   6.07724e+09             0
   0.00519231   6.07766e+09   6.07724e+09             0
   0.00521154   6.07766e+09   6.07724e+09             0
   0.00523077   6.07766e+09   6.07724e+09             0
      0.00525   6.07766e+09   6.07724e+09             0
   0.00526923   6.07766e+09   6.07724e+09             0
   0.00528846   6.07766e+09   6.07724e+09             0
   0.00530769   6.07766e+09   6.07724e+09             0
   0.00532692   6.07766e+09   6.07724e+09             0
   0.00534615   6.07766e+09   6.07724e+09             0
   0.00536538   6.07766e+09   6.07724e+09             0
   0.00538462   6.07766e+09   6.07724e+09             0
   0.00540385   6.07766e+09   6.07724e+09             0
   0.00542308   6.07766e+09   6.07724e+09             0
   0.00544231   6.07766e+09   6.07724e+09             0
   0.00546154   6.07766e+09   6.07724e+09             0
   0.00548077   6.07766e+09   6.07724e+09             0
       0.0055   6.07766e+09   6.07724e+09             0
   0.00551923   6.07766e+09   6.07724e+09             0
   0.00553846   6.07766e+09   6.07724e+09             0
   0.00555769   6.07766e+09   6.07724e+09             0
   0.00557692   6.07766e+09   6.07724e+09             0
   0.00559615   6.07766e+09   6.07724e+09             0
   0.00561538   6.07766e+09   6.07724e+09             0
   0.00563462   6.07766e+09   6.07724e+09             0
   0.00565385   6.07766e+09   6.07724e+09             0
   0.00567308   6.07766e+09   6.07724e+09             0
   0.00569231   6.07766e+09   6.07724e+09             0
   0.00571154   6.07766e+09   6.07724e+09             0
   0.00573077   6.07766e+09   6.07724e+09             0
      0.00575   6.07766e+09   6.07724e+09             0
   0.00576923   6.07766e+09   6.07724e+09             0
   0.00578846   6.07766e+09   6.07724e+09             0
   0.00580769   6.07766e+09   6.07724e+09             0
   0.00582692   6.07766e+09   6.07724e+09             0
   0.00584615   6.07766e+09   6.07724e+09             0
   0.00586538   6.07766e+09   6.07724e+09             0
   0.00588462   6.07766e+09   6.07724e+09             0
   0.00590385   6.07766e+09   6.07724e+09             0
   0.00592308   6.07766e+09   6.07724e+09             0
   0.00594231   6.07766e+09   6.07724e+09             0
   0.00596154   6.07766e+09   6.07724e+09             0
   0.00598077   6.07766e+09   6.07724e+09             0
        0.006   6.07766e+09   6.07724e+09             0
   0.00601923   6.07766e+09   6.07724e+09             0
   0.00603846   6.07766e+09   6.07724e+09             0
   0.00605769   6.07766e+09   6.07724e+09             0
   0.00607692   6.07766e+09   6.07724e+09             0
   0.00609615   6.07766e+09   6.07724e+09             0
   0.00611538   6.07766e+09   6.07724e+09             0
   0.00613462   6.07766e+09   6.07724e+09             0
   0.00615385   6.07766e+09   6.07724e+09             0
   0.00617308   6.07766e+09   6.07724e+09             0
   0.00619231   6.07766e+09   6.07724e+09             0
   0.00621154   6.07766e+09   6.07724e+09             0
   0.00623077   6.07766e+09   6.07724e+09             0
      0.00625   6.07766e+09   6.07724e+09             0
   0.00626923   6.07766e+09   6.07724e+09             0
   0.00628846   6.07766e+09   6.07724e+09             0
   0.00630769   6.07766e+09   6.07724e+09             0
   0.00632692   6.07766e+09   6.07724e+09             0
   0.00634615   6.07766e+09   6.07724e+09             0
   0.00636538   6.07766e+09   6.07724e+09             0
   0.00638462   6.07766e+09   6.07724e+09             0
   0.00640385   6.07766e+09   6.07724e+09             0
   0.00642308   6.07766e+09   6.07724e+09             0
   0.00644231   6.07766e+09   6.07724e+09             0
   0.00646154   6.07766e+09   6.07724e+09             0
   0.00648077   6.07766e+09   6.07724e+09             0
       0.0065   6.07766e+09   6.07724e+09             0
   0.00651923   6.07766e+09   6.07724e+09             0
   0.00653846   6.07766e+09   6.07724e+09             0
   0.00655769   6.07766e+09   6.07724e+09             0
   0.00657692   6.07766e+09   6.07724e+09             0
   0.00659615   6.07766e+09   6.07724e+09             0
   0.00661538   6.07766e+09   6.07724e+09             0
   0.00663462   6.07766e+09   6.07724e+09             0
   0.00665385   6.07766e+09   6.07724e+09             0
   0.00667308   6.07766e+09   6.07724e+09             0
   0.00669231   6.07766e+09   6.07724e+09             0
   0.00671154   6.07766e+09   6.07724e+09             0
   0.00673077   6.07766e+09   6.07724e+09             0
      0.00675   6.07766e+09   6.07724e+09             0
   0.00676923   6.07766e+09   6.07724e+09             0
   0.00678846   6.07766e+09   6.07724e+09             0
   0.00680769   6.07766e+09   6.07724e+09             0
   0.00682692   6.07766e+09   6.07724e+09             0
   0.00684615   6.07766e+09   6.07724e+09             0
   0.00686538   6.07766e+09   6.07724e+09             0
   0.00688462   6.07766e+09   6.07724e+09             0
   0.00690385   6.07766e+09   6.07724e+09             0
   0.00692308   6.07766e+09   6.07724e+09             0
   0.00694231   6.07766e+09   6.07724e+09             0
   0.00696154   6.07766e+09   6.07724e+09             0
   0.00698077   6.07766e+09   6.07724e+09             0
        0.007   6.07766e+09   6.07724e+09             0
   0.00701923   6.07766e+09   6.07724e+09             0
   0.00703846   6.07766e+09   6.07724e+09             0
   0.00705769   6.07766e+09   6.07724e+09             0
   0.00707692   6.07766e+09   6.07724e+09             0
   0.00709615   6.07766e+09   6.07724e+09             0
   0.00711538   6.07766e+09   6.07724e+09             0
   0.00713462   6.07766e+09   6.07724e+09             0
   0.00715385   6.07766e+09   6.07724e+09             0
   0.00717308   6.07766e+09   6.07724e+09             0
   0.00719231   6.07766e+09   6.07724e+09             0
   0.00721154   6.07766e+09   6.07724e+09             0
   0.00723077   6.07766e+09   6.07724e+09             0
      0.00725   6.07766e+09   6.07724e+09             0
   0.00726923   6.07766e+09   6.07724e+09             0
   0.00728846   6.07766e+09   6.07724e+09             0
   0.00730769   6.07766e+09   6.07724e+09             0
   0.00732692   6.07766e+09   6.07724e+09             0
   0.00734615   6.07766e+09   6.07724e+09             0
   0.00736538   6.07766e+09   6.07724e+09             0
   0.00738462   6.07766e+09   6.07724e+09             0
   0.00740385   6.07766e+09   6.07724e+09             0
   0.00742308   6.07766e+09   6.07724e+09             0
   0.00744231   6.07766e+09   6.07724e+09             0
   0.00746154   6.07766e+09   6.07724e+09             0
   0.00748077   6.07766e+09   6.07724e+09             0
       0.0075   6.07766e+09   6.07724e+09             0
   0.00751923   6.07766e+09   6.07724e+09             0
   0.00753846   6.07766e+09   6.07724e+09             0
   0.00755769   6.07766e+09   6.07724e+09             0
   0.00757692   6.07766e+09   6.07724e+09             0
   0.00759615   6.07766e+09   6.07724e+09             0
   0.00761538   6.07766e+09   6.07724e+09             0
   0.00763462   6.07766e+09   6.07724e+09             0
   0.00765385   6.07766e+09   6.07724e+09             0
   0.00767308   6.07766e+09   6.07724e+09             0
   0.00769231   6.07766e+09   6.07724e+09             0
   0.00771154   6.07766e+09   6.07724e+09             0
   0.00773077   6.07766e+09   6.07724e+09             0
      0.00775   6.07766e+09   6.07724e+09             0
   0.00776923   6.07766e+09   6.07724e+09             0
   0.00778846   6.07766e+09   6.07724e+09             0
   0.00780769   6.07766e+09   6.07724e+09             0
   0.00782692   6.07766e+09   6.07724e+09             0
   0.00784615   6.07766e+09   6.07724e+09             0
   0.00786538   6.07766e+09   6.07724e+09             0
