# Probe 0 (0 0 0)
# Probe 1 (0 0 0.005)
# Probe 2 (0 0 0.9)
#       Probe             0             1             2
#        Time
  1.92308e-05       3.96404             0             0
  3.84615e-05       3.96047             0             0
  5.76923e-05       3.95703             0             0
  7.69231e-05       3.95371             0             0
  9.61538e-05       3.95052             0             0
  0.000115385       3.94745       3.96404             0
  0.000134615        3.9445        3.9577             0
  0.000153846       3.94168       3.95138             0
  0.000173077       3.93897        3.9451             0
  0.000192308       3.93638       3.93886             0
  0.000211538       3.93391       3.93265             0
  0.000230769       3.93154       3.92647             0
      0.00025       3.92929       3.92033             0
  0.000269231       3.92714       3.91423             0
  0.000288462       3.92509       3.90816             0
  0.000307692       3.92315       3.90214             0
  0.000326923        3.9213       3.89614             0
  0.000346154       3.91955       3.89019             0
  0.000365385       3.91789       3.88428             0
  0.000384615       3.91631       3.87841             0
  0.000403846       3.91482       3.87257             0
  0.000423077       3.91342       3.86678             0
  0.000442308       3.91209       3.86103             0
  0.000461538       3.91084       3.85532             0
  0.000480769       3.90965       3.84966             0
       0.0005       3.90854       3.84404             0
  0.000519231        3.9075       3.83846             0
  0.000538462       3.90651       3.83293             0
  0.000557692       3.90559       3.82744             0
  0.000576923       3.90472         3.822             0
  0.000596154       3.90391        3.8166             0
  0.000615385       3.90315       3.81126             0
  0.000634615       3.90244       3.80596             0
  0.000653846       3.90177       3.80071             0
  0.000673077       3.90114       3.79551             0
  0.000692308       3.90056       3.79036             0
  0.000711538       3.90002       3.78526             0
  0.000730769       3.89951       3.78021             0
      0.00075       3.89904       3.77522             0
  0.000769231        3.8986       3.77027             0
  0.000788462       3.89819       3.76538             0
  0.000807692       3.89781       3.76055             0
  0.000826923       3.89745       3.75577             0
  0.000846154       3.89712       3.75104             0
  0.000865385       3.89681       3.74637             0
  0.000884615       3.89653       3.74176             0
  0.000903846       3.89626        3.7372             0
  0.000923077       3.89602        3.7327             0
  0.000942308       3.89579       3.72826             0
  0.000961538       3.89558       3.72388             0
  0.000980769       3.89539       3.71956             0
        0.001       3.89521        3.7153             0
   0.00101923       3.89504       3.71109             0
   0.00103846       3.89488       3.70695             0
   0.00105769       3.89474       3.70287             0
   0.00107692       3.89461       3.69885             0
   0.00109615       3.89449        3.6949             0
   0.00111538       3.89437         3.691             0
   0.00113462       3.89427       3.68717             0
   0.00115385       3.89417        3.6834             0
   0.00117308       3.89409       3.67969             0
   0.00119231         3.894       3.67605             0
   0.00121154       3.89393       3.67247             0
   0.00123077       3.89386       3.66896             0
      0.00125        3.8938       3.66551             0
   0.00126923       3.89374       3.66212             0
   0.00128846       3.89368        3.6588             0
   0.00130769       3.89363       3.65554             0
   0.00132692       3.89359       3.65235             0
   0.00134615       3.89355       3.64922             0
   0.00136538       3.89351       3.64616             0
   0.00138462       3.89347       3.64316             0
   0.00140385       3.89344       3.64023             0
   0.00142308       3.89341       3.63735             0
   0.00144231       3.89338       3.63455             0
   0.00146154       3.89335        3.6318             0
   0.00148077       3.89333       3.62912             0
       0.0015       3.89331       3.62651             0
   0.00151923       3.89329       3.62395             0
   0.00153846       3.89327       3.62146             0
   0.00155769       3.89325       3.61903             0
   0.00157692       3.89324       3.61666             0
   0.00159615       3.89323       3.61435             0
   0.00161538       3.89321        3.6121             0
   0.00163462        3.8932       3.60991             0
   0.00165385       3.89319       3.60779             0
   0.00167308       3.89318       3.60572             0
   0.00169231       3.89317        3.6037             0
   0.00171154       3.89316       3.60175             0
   0.00173077       3.89316       3.59985             0
      0.00175       3.89315       3.59801             0
   0.00176923       3.89314       3.59622             0
   0.00178846       3.89314       3.59448             0
   0.00180769       3.89313        3.5928             0
   0.00182692       3.89313       3.59117             0
   0.00184615       3.89312        3.5896             0
   0.00186538       3.89312       3.58807             0
   0.00188462       3.89311       3.58659             0
   0.00190385       3.89311       3.58517             0
   0.00192308       3.89311       3.58379             0
   0.00194231        3.8931       3.58245             0
   0.00196154        3.8931       3.58117             0
   0.00198077        3.8931       3.57992             0
        0.002        3.8931       3.57873             0
   0.00201923       3.89309       3.57757             0
   0.00203846       3.89309       3.57646             0
   0.00205769       3.89309       3.57538             0
   0.00207692       3.89309       3.57435             0
   0.00209615       3.89309       3.57336             0
   0.00211538       3.89309        3.5724             0
   0.00213462       3.89309       3.57148             0
   0.00215385       3.89308        3.5706             0
   0.00217308       3.89308       3.56975             0
   0.00219231       3.89308       3.56894             0
   0.00221154       3.89308       3.56815             0
   0.00223077       3.89308        3.5674             0
      0.00225       3.89308       3.56668             0
   0.00226923       3.89308       3.56599             0
   0.00228846       3.89308       3.56533             0
   0.00230769       3.89308        3.5647             0
   0.00232692       3.89308        3.5641             0
   0.00234615       3.89308       3.56352             0
   0.00236538       3.89308       3.56296             0
   0.00238462       3.89308       3.56243             0
   0.00240385       3.89308       3.56193             0
   0.00242308       3.89308       3.56144             0
   0.00244231       3.89308       3.56098             0
   0.00246154       3.89308       3.56054             0
   0.00248077       3.89308       3.56012             0
       0.0025       3.89308       3.55972             0
   0.00251923       3.89308       3.55934             0
   0.00253846       3.89308       3.55898             0
   0.00255769       3.89307       3.55863             0
   0.00257692       3.89307        3.5583             0
   0.00259615       3.89307       3.55799             0
   0.00261538       3.89307       3.55769             0
   0.00263462       3.89307       3.55741             0
   0.00265385       3.89307       3.55714             0
   0.00267308       3.89307       3.55688             0
   0.00269231       3.89307       3.55664             0
   0.00271154       3.89307       3.55641             0
   0.00273077       3.89307       3.55619             0
      0.00275       3.89307       3.55598             0
   0.00276923       3.89307       3.55578             0
   0.00278846       3.89307       3.55559             0
   0.00280769       3.89307       3.55542             0
   0.00282692       3.89307       3.55525             0
   0.00284615       3.89307       3.55509             0
   0.00286538       3.89307       3.55494             0
   0.00288462       3.89307        3.5548             0
   0.00290385       3.89307       3.55466             0
   0.00292308       3.89307       3.55453             0
   0.00294231       3.89307       3.55441             0
   0.00296154       3.89307        3.5543             0
   0.00298077       3.89307       3.55419             0
        0.003       3.89307       3.55409             0
   0.00301923       3.89307       3.55399             0
   0.00303846       3.89307        3.5539             0
   0.00305769       3.89307       3.55382             0
   0.00307692       3.89307       3.55374             0
   0.00309615       3.89307       3.55366             0
   0.00311538       3.89307       3.55359             0
   0.00313462       3.89307       3.55352             0
   0.00315385       3.89307       3.55346             0
   0.00317308       3.89307        3.5534             0
   0.00319231       3.89307       3.55334             0
   0.00321154       3.89307       3.55329             0
   0.00323077       3.89307       3.55324             0
      0.00325       3.89307       3.55319             0
   0.00326923       3.89307       3.55314             0
   0.00328846       3.89307        3.5531             0
   0.00330769       3.89307       3.55306             0
   0.00332692       3.89307       3.55303             0
   0.00334615       3.89307       3.55299             0
   0.00336538       3.89307       3.55296             0
   0.00338462       3.89307       3.55293             0
   0.00340385       3.89307        3.5529             0
   0.00342308       3.89307       3.55287             0
   0.00344231       3.89307       3.55285             0
   0.00346154       3.89307       3.55282             0
   0.00348077       3.89307        3.5528             0
       0.0035       3.89307       3.55278             0
   0.00351923       3.89307       3.55276             0
   0.00353846       3.89307       3.55274             0
   0.00355769       3.89307       3.55272             0
   0.00357692       3.89307       3.55271             0
   0.00359615       3.89307       3.55269             0
   0.00361538       3.89307       3.55268             0
   0.00363462       3.89307       3.55266             0
   0.00365385       3.89307       3.55265             0
   0.00367308       3.89307       3.55264             0
   0.00369231       3.89307       3.55263             0
   0.00371154       3.89307       3.55262             0
   0.00373077       3.89307       3.55261             0
      0.00375       3.89307        3.5526             0
   0.00376923       3.89307       3.55259             0
   0.00378846       3.89307       3.55258             0
   0.00380769       3.89307       3.55257             0
   0.00382692       3.89307       3.55257             0
   0.00384615       3.89307       3.55256             0
   0.00386538       3.89307       3.55256             0
   0.00388462       3.89307       3.55255             0
   0.00390385       3.89307       3.55254             0
   0.00392308       3.89307       3.55254             0
   0.00394231       3.89307       3.55254             0
   0.00396154       3.89307       3.55253             0
   0.00398077       3.89307       3.55253             0
        0.004       3.89307       3.55252             0
   0.00401923       3.89307       3.55252             0
   0.00403846       3.89307       3.55252             0
   0.00405769       3.89307       3.55251             0
   0.00407692       3.89307       3.55251             0
   0.00409615       3.89307       3.55251             0
   0.00411538       3.89307       3.55251             0
   0.00413462       3.89307        3.5525             0
   0.00415385       3.89307        3.5525             0
   0.00417308       3.89307        3.5525             0
   0.00419231       3.89307        3.5525             0
   0.00421154       3.89307        3.5525             0
   0.00423077       3.89307       3.55249             0
      0.00425       3.89307       3.55249             0
   0.00426923       3.89307       3.55249             0
   0.00428846       3.89307       3.55249             0
   0.00430769       3.89307       3.55249             0
   0.00432692       3.89307       3.55249             0
   0.00434615       3.89307       3.55249             0
   0.00436538       3.89307       3.55248             0
   0.00438462       3.89307       3.55248             0
   0.00440385       3.89307       3.55248             0
   0.00442308       3.89307       3.55248             0
   0.00444231       3.89307       3.55248             0
   0.00446154       3.89307       3.55248             0
   0.00448077       3.89307       3.55248             0
       0.0045       3.89307       3.55248             0
   0.00451923       3.89307       3.55248             0
   0.00453846       3.89307       3.55248             0
   0.00455769       3.89307       3.55248             0
   0.00457692       3.89307       3.55248             0
   0.00459615       3.89307       3.55248             0
   0.00461538       3.89307       3.55248             0
   0.00463462       3.89307       3.55248             0
   0.00465385       3.89307       3.55248             0
   0.00467308       3.89307       3.55248             0
   0.00469231       3.89307       3.55248             0
   0.00471154       3.89307       3.55248             0
   0.00473077       3.89307       3.55248             0
      0.00475       3.89307       3.55247             0
   0.00476923       3.89307       3.55247             0
   0.00478846       3.89307       3.55247             0
   0.00480769       3.89307       3.55247             0
   0.00482692       3.89307       3.55247             0
   0.00484615       3.89307       3.55247             0
   0.00486538       3.89307       3.55247             0
   0.00488462       3.89307       3.55247             0
   0.00490385       3.89307       3.55247             0
   0.00492308       3.89307       3.55247             0
   0.00494231       3.89307       3.55247             0
   0.00496154       3.89307       3.55247             0
   0.00498077       3.89307       3.55247             0
        0.005       3.89307       3.55247             0
   0.00501923       3.89307       3.55247             0
   0.00503846       3.89307       3.55247             0
   0.00505769       3.89307       3.55247             0
   0.00507692       3.89307       3.55247             0
   0.00509615       3.89307       3.55247             0
   0.00511538       3.89307       3.55247             0
   0.00513462       3.89307       3.55247             0
   0.00515385       3.89307       3.55247             0
   0.00517308       3.89307       3.55247             0
   0.00519231       3.89307       3.55247             0
   0.00521154       3.89307       3.55247             0
   0.00523077       3.89307       3.55247             0
      0.00525       3.89307       3.55247             0
   0.00526923       3.89307       3.55247             0
   0.00528846       3.89307       3.55247             0
   0.00530769       3.89307       3.55247             0
   0.00532692       3.89307       3.55247             0
   0.00534615       3.89307       3.55247             0
   0.00536538       3.89307       3.55247             0
   0.00538462       3.89307       3.55247             0
   0.00540385       3.89307       3.55247             0
   0.00542308       3.89307       3.55247             0
   0.00544231       3.89307       3.55247             0
   0.00546154       3.89307       3.55247             0
   0.00548077       3.89307       3.55247             0
       0.0055       3.89307       3.55247             0
   0.00551923       3.89307       3.55247             0
   0.00553846       3.89307       3.55247             0
   0.00555769       3.89307       3.55247             0
   0.00557692       3.89307       3.55247             0
   0.00559615       3.89307       3.55247             0
   0.00561538       3.89307       3.55247             0
   0.00563462       3.89307       3.55247             0
   0.00565385       3.89307       3.55247             0
   0.00567308       3.89307       3.55247             0
   0.00569231       3.89307       3.55247             0
   0.00571154       3.89307       3.55247             0
   0.00573077       3.89307       3.55247             0
      0.00575       3.89307       3.55247             0
   0.00576923       3.89307       3.55247             0
   0.00578846       3.89307       3.55247             0
   0.00580769       3.89307       3.55247             0
   0.00582692       3.89307       3.55247             0
   0.00584615       3.89307       3.55247             0
   0.00586538       3.89307       3.55247             0
   0.00588462       3.89307       3.55247             0
   0.00590385       3.89307       3.55247             0
   0.00592308       3.89307       3.55247             0
   0.00594231       3.89307       3.55247             0
   0.00596154       3.89307       3.55247             0
   0.00598077       3.89307       3.55247             0
        0.006       3.89307       3.55247             0
   0.00601923       3.89307       3.55247             0
   0.00603846       3.89307       3.55247             0
   0.00605769       3.89307       3.55247             0
   0.00607692       3.89307       3.55247             0
   0.00609615       3.89307       3.55247             0
   0.00611538       3.89307       3.55247             0
   0.00613462       3.89307       3.55247             0
   0.00615385       3.89307       3.55247             0
   0.00617308       3.89307       3.55247             0
   0.00619231       3.89307       3.55247             0
   0.00621154       3.89307       3.55247             0
   0.00623077       3.89307       3.55247             0
      0.00625       3.89307       3.55247             0
   0.00626923       3.89307       3.55247             0
   0.00628846       3.89307       3.55247             0
   0.00630769       3.89307       3.55247             0
   0.00632692       3.89307       3.55247             0
   0.00634615       3.89307       3.55247             0
   0.00636538       3.89307       3.55247             0
   0.00638462       3.89307       3.55247             0
   0.00640385       3.89307       3.55247             0
   0.00642308       3.89307       3.55247             0
   0.00644231       3.89307       3.55247             0
   0.00646154       3.89307       3.55247             0
   0.00648077       3.89307       3.55247             0
       0.0065       3.89307       3.55247             0
   0.00651923       3.89307       3.55247             0
   0.00653846       3.89307       3.55247             0
   0.00655769       3.89307       3.55247             0
   0.00657692       3.89307       3.55247             0
   0.00659615       3.89307       3.55247             0
   0.00661538       3.89307       3.55247             0
   0.00663462       3.89307       3.55247             0
   0.00665385       3.89307       3.55247             0
   0.00667308       3.89307       3.55247             0
   0.00669231       3.89307       3.55247             0
   0.00671154       3.89307       3.55247             0
   0.00673077       3.89307       3.55247             0
      0.00675       3.89307       3.55247             0
   0.00676923       3.89307       3.55247             0
   0.00678846       3.89307       3.55247             0
   0.00680769       3.89307       3.55247             0
   0.00682692       3.89307       3.55247             0
   0.00684615       3.89307       3.55247             0
   0.00686538       3.89307       3.55247             0
   0.00688462       3.89307       3.55247             0
   0.00690385       3.89307       3.55247             0
   0.00692308       3.89307       3.55247             0
   0.00694231       3.89307       3.55247             0
   0.00696154       3.89307       3.55247             0
   0.00698077       3.89307       3.55247             0
        0.007       3.89307       3.55247             0
   0.00701923       3.89307       3.55247             0
   0.00703846       3.89307       3.55247             0
   0.00705769       3.89307       3.55247             0
   0.00707692       3.89307       3.55247             0
   0.00709615       3.89307       3.55247             0
   0.00711538       3.89307       3.55247             0
   0.00713462       3.89307       3.55247             0
   0.00715385       3.89307       3.55247             0
   0.00717308       3.89307       3.55247             0
   0.00719231       3.89307       3.55247             0
   0.00721154       3.89307       3.55247             0
   0.00723077       3.89307       3.55247             0
      0.00725       3.89307       3.55247             0
   0.00726923       3.89307       3.55247             0
   0.00728846       3.89307       3.55247             0
   0.00730769       3.89307       3.55247             0
   0.00732692       3.89307       3.55247             0
   0.00734615       3.89307       3.55247             0
   0.00736538       3.89307       3.55247             0
   0.00738462       3.89307       3.55247             0
   0.00740385       3.89307       3.55247             0
   0.00742308       3.89307       3.55247             0
   0.00744231       3.89307       3.55247             0
   0.00746154       3.89307       3.55247             0
   0.00748077       3.89307       3.55247             0
       0.0075       3.89307       3.55247             0
   0.00751923       3.89307       3.55247             0
   0.00753846       3.89307       3.55247             0
   0.00755769       3.89307       3.55247             0
   0.00757692       3.89307       3.55247             0
   0.00759615       3.89307       3.55247             0
   0.00761538       3.89307       3.55247             0
   0.00763462       3.89307       3.55247             0
   0.00765385       3.89307       3.55247             0
   0.00767308       3.89307       3.55247             0
   0.00769231       3.89307       3.55247             0
   0.00771154       3.89307       3.55247             0
   0.00773077       3.89307       3.55247             0
      0.00775       3.89307       3.55247             0
   0.00776923       3.89307       3.55247             0
   0.00778846       3.89307       3.55247             0
   0.00780769       3.89307       3.55247             0
   0.00782692       3.89307       3.55247             0
   0.00784615       3.89307       3.55247             0
   0.00786538       3.89307       3.55247             0
