# Probe 0 (0 0 0.001)
#       Probe             0
#        Time
  1.97628e-05             0
  3.95257e-05   2.95172e+10
  5.92885e-05   8.00794e+10
  7.90514e-05   1.45819e+11
  9.88142e-05   2.21202e+11
  0.000118577   3.01958e+11
   0.00013834   3.84868e+11
  0.000158103   4.67522e+11
  0.000177866   5.48219e+11
  0.000197628   6.25711e+11
  0.000217391   6.99173e+11
  0.000237154   7.68072e+11
  0.000256917   8.32079e+11
   0.00027668   8.91043e+11
  0.000296443   9.44931e+11
  0.000316206   9.93795e+11
  0.000335968   1.03776e+12
  0.000355731   1.07701e+12
  0.000375494   1.11173e+12
  0.000395257   1.14214e+12
   0.00041502    1.1685e+12
  0.000434783   1.19105e+12
  0.000454545   1.21004e+12
  0.000474308   1.22571e+12
  0.000494071    1.2383e+12
  0.000513834   1.24805e+12
  0.000533597    1.2552e+12
   0.00055336   1.25995e+12
  0.000573123   1.26251e+12
  0.000592885   1.26309e+12
  0.000612648   1.26187e+12
  0.000632411   1.25902e+12
  0.000652174   1.25472e+12
  0.000671937   1.24911e+12
    0.0006917   1.24234e+12
  0.000711462   1.23454e+12
  0.000731225   1.22585e+12
  0.000750988   1.21637e+12
  0.000770751   1.20621e+12
  0.000790514   1.19548e+12
  0.000810277   1.18426e+12
   0.00083004   1.17264e+12
  0.000849802   1.16069e+12
  0.000869565   1.14848e+12
  0.000889328   1.13609e+12
  0.000909091   1.12355e+12
  0.000928854   1.11094e+12
  0.000948617   1.09829e+12
  0.000968379   1.08564e+12
  0.000988142   1.07305e+12
   0.00100791   1.06053e+12
   0.00102767   1.04812e+12
   0.00104743   1.03585e+12
   0.00106719   1.02375e+12
   0.00108696   1.01182e+12
   0.00110672    1.0001e+12
   0.00112648   9.88588e+11
   0.00114625   9.77309e+11
   0.00116601   9.66272e+11
   0.00118577   9.55485e+11
   0.00120553   9.44956e+11
    0.0012253   9.34692e+11
   0.00124506   9.24696e+11
   0.00126482   9.14973e+11
   0.00128458   9.05525e+11
   0.00130435   8.96353e+11
   0.00132411   8.87457e+11
   0.00134387   8.78836e+11
   0.00136364    8.7049e+11
    0.0013834   8.62416e+11
   0.00140316   8.54611e+11
   0.00142292   8.47073e+11
   0.00144269   8.39797e+11
   0.00146245    8.3278e+11
   0.00148221   8.26017e+11
   0.00150198   8.19502e+11
   0.00152174   8.13232e+11
    0.0015415   8.07201e+11
   0.00156126   8.01404e+11
   0.00158103   7.95835e+11
   0.00160079   7.90487e+11
   0.00162055   7.85356e+11
   0.00164032   7.80436e+11
   0.00166008   7.75721e+11
   0.00167984   7.71204e+11
    0.0016996    7.6688e+11
   0.00171937   7.62743e+11
   0.00173913   7.58786e+11
   0.00175889   7.55005e+11
   0.00177866   7.51393e+11
   0.00179842   7.47944e+11
   0.00181818   7.44653e+11
   0.00183794   7.41514e+11
   0.00185771   7.38522e+11
   0.00187747   7.35671e+11
   0.00189723   7.32955e+11
     0.001917   7.30371e+11
   0.00193676   7.27912e+11
   0.00195652   7.25574e+11
   0.00197628   7.23351e+11
   0.00199605    7.2124e+11
   0.00201581   7.19235e+11
   0.00203557   7.17332e+11
   0.00205534   7.15527e+11
    0.0020751   7.13816e+11
   0.00209486   7.12193e+11
   0.00211462   7.10656e+11
   0.00213439   7.09201e+11
   0.00215415   7.07823e+11
   0.00217391    7.0652e+11
   0.00219368   7.05287e+11
   0.00221344   7.04123e+11
    0.0022332   7.03022e+11
   0.00225296   7.01982e+11
   0.00227273   7.01001e+11
   0.00229249   7.00074e+11
   0.00231225     6.992e+11
   0.00233202   6.98376e+11
   0.00235178   6.97599e+11
   0.00237154   6.96868e+11
    0.0023913   6.96179e+11
   0.00241107    6.9553e+11
   0.00243083   6.94919e+11
   0.00245059   6.94345e+11
   0.00247036   6.93805e+11
   0.00249012   6.93298e+11
   0.00250988   6.92821e+11
   0.00252964   6.92373e+11
   0.00254941   6.91952e+11
   0.00256917   6.91557e+11
   0.00258893   6.91186e+11
    0.0026087   6.90839e+11
   0.00262846   6.90513e+11
   0.00264822   6.90207e+11
   0.00266798   6.89921e+11
   0.00268775   6.89653e+11
   0.00270751   6.89402e+11
   0.00272727   6.89166e+11
   0.00274704   6.88946e+11
    0.0027668   6.88741e+11
   0.00278656   6.88548e+11
   0.00280632   6.88368e+11
   0.00282609     6.882e+11
   0.00284585   6.88042e+11
   0.00286561   6.87895e+11
   0.00288538   6.87758e+11
   0.00290514    6.8763e+11
    0.0029249    6.8751e+11
   0.00294466   6.87399e+11
   0.00296443   6.87295e+11
   0.00298419   6.87198e+11
   0.00300395   6.87107e+11
   0.00302372   6.87023e+11
   0.00304348   6.86944e+11
   0.00306324   6.86871e+11
     0.003083   6.86803e+11
   0.00310277    6.8674e+11
   0.00312253   6.86681e+11
   0.00314229   6.86625e+11
   0.00316206   6.86574e+11
   0.00318182   6.86526e+11
   0.00320158   6.86482e+11
   0.00322134   6.86441e+11
   0.00324111   6.86402e+11
   0.00326087   6.86367e+11
   0.00328063   6.86334e+11
    0.0033004   6.86303e+11
   0.00332016   6.86275e+11
   0.00333992   6.86248e+11
   0.00335968   6.86224e+11
   0.00337945   6.86201e+11
   0.00339921   6.86179e+11
   0.00341897    6.8616e+11
   0.00343874   6.86142e+11
    0.0034585   6.86124e+11
   0.00347826   6.86109e+11
   0.00349802   6.86094e+11
   0.00351779   6.86081e+11
   0.00353755   6.86068e+11
   0.00355731   6.86057e+11
   0.00357708   6.86046e+11
   0.00359684   6.86036e+11
    0.0036166   6.86027e+11
   0.00363636   6.86018e+11
   0.00365613    6.8601e+11
   0.00367589   6.86003e+11
   0.00369565   6.85996e+11
   0.00371542    6.8599e+11
   0.00373518   6.85984e+11
   0.00375494   6.85978e+11
    0.0037747   6.85973e+11
   0.00379447   6.85968e+11
   0.00381423   6.85964e+11
   0.00383399    6.8596e+11
   0.00385375   6.85957e+11
   0.00387352   6.85953e+11
   0.00389328    6.8595e+11
   0.00391304   6.85947e+11
   0.00393281   6.85945e+11
   0.00395257   6.85942e+11
   0.00397233    6.8594e+11
   0.00399209   6.85938e+11
   0.00401186   6.85936e+11
   0.00403162   6.85934e+11
   0.00405138   6.85933e+11
   0.00407115   6.85931e+11
   0.00409091    6.8593e+11
   0.00411067   6.85928e+11
   0.00413043   6.85927e+11
    0.0041502   6.85926e+11
   0.00416996   6.85925e+11
   0.00418972   6.85924e+11
   0.00420949   6.85923e+11
   0.00422925   6.85922e+11
   0.00424901   6.85922e+11
   0.00426877   6.85921e+11
   0.00428854    6.8592e+11
    0.0043083    6.8592e+11
   0.00432806   6.85919e+11
   0.00434783   6.85919e+11
   0.00436759   6.85918e+11
   0.00438735   6.85918e+11
   0.00440711   6.85918e+11
   0.00442688   6.85917e+11
   0.00444664   6.85917e+11
    0.0044664   6.85916e+11
   0.00448617   6.85916e+11
   0.00450593   6.85916e+11
   0.00452569   6.85916e+11
   0.00454545   6.85915e+11
   0.00456522   6.85915e+11
   0.00458498   6.85915e+11
   0.00460474   6.85915e+11
   0.00462451   6.85915e+11
   0.00464427   6.85915e+11
   0.00466403   6.85915e+11
   0.00468379   6.85915e+11
   0.00470356   6.85915e+11
   0.00472332   6.85915e+11
   0.00474308   6.85914e+11
   0.00476285   6.85914e+11
   0.00478261   6.85914e+11
   0.00480237   6.85914e+11
   0.00482213   6.85914e+11
    0.0048419   6.85914e+11
   0.00486166   6.85914e+11
   0.00488142   6.85914e+11
   0.00490119   6.85914e+11
   0.00492095   6.85914e+11
   0.00494071   6.85914e+11
   0.00496047   6.85914e+11
   0.00498024   6.85914e+11
        0.005   6.85914e+11
   0.00501976   6.85914e+11
   0.00503953   6.85914e+11
   0.00505929   6.85914e+11
   0.00507905   6.85914e+11
   0.00509881   6.85914e+11
   0.00511858   6.85914e+11
   0.00513834   6.85913e+11
    0.0051581   6.85913e+11
   0.00517787   6.85913e+11
   0.00519763   6.85913e+11
   0.00521739   6.85914e+11
   0.00523715   6.85914e+11
   0.00525692   6.85914e+11
   0.00527668   6.85913e+11
   0.00529644   6.85914e+11
   0.00531621   6.85913e+11
   0.00533597   6.85914e+11
   0.00535573   6.85914e+11
   0.00537549   6.85914e+11
   0.00539526   6.85914e+11
   0.00541502   6.85914e+11
   0.00543478   6.85914e+11
   0.00545455   6.85914e+11
   0.00547431   6.85914e+11
   0.00549407   6.85914e+11
   0.00551383   6.85914e+11
    0.0055336   6.85914e+11
   0.00555336   6.85914e+11
   0.00557312   6.85914e+11
   0.00559289   6.85914e+11
   0.00561265   6.85914e+11
   0.00563241   6.85914e+11
   0.00565217   6.85914e+11
   0.00567194   6.85914e+11
    0.0056917   6.85914e+11
   0.00571146   6.85914e+11
   0.00573123   6.85914e+11
   0.00575099   6.85914e+11
   0.00577075   6.85914e+11
   0.00579051   6.85914e+11
   0.00581028   6.85914e+11
   0.00583004   6.85914e+11
    0.0058498   6.85914e+11
   0.00586957   6.85914e+11
   0.00588933   6.85914e+11
   0.00590909   6.85914e+11
   0.00592885   6.85914e+11
   0.00594862   6.85914e+11
   0.00596838   6.85914e+11
   0.00598814   6.85914e+11
   0.00600791   6.85914e+11
   0.00602767   6.85914e+11
   0.00604743   6.85914e+11
   0.00606719   6.85914e+11
   0.00608696   6.85914e+11
   0.00610672   6.85914e+11
   0.00612648   6.85914e+11
   0.00614625   6.85914e+11
   0.00616601   6.85914e+11
   0.00618577   6.85914e+11
   0.00620553   6.85914e+11
    0.0062253   6.85914e+11
   0.00624506   6.85914e+11
   0.00626482   6.85914e+11
   0.00628458   6.85914e+11
   0.00630435   6.85914e+11
   0.00632411   6.85914e+11
   0.00634387   6.85914e+11
   0.00636364   6.85914e+11
    0.0063834   6.85914e+11
   0.00640316   6.85914e+11
   0.00642292   6.85914e+11
   0.00644269   6.85914e+11
   0.00646245   6.85914e+11
   0.00648221   6.85914e+11
   0.00650198   6.85914e+11
   0.00652174   6.85914e+11
    0.0065415   6.85914e+11
   0.00656126   6.85914e+11
   0.00658103   6.85914e+11
   0.00660079   6.85914e+11
   0.00662055   6.85914e+11
   0.00664032   6.85914e+11
   0.00666008   6.85914e+11
   0.00667984   6.85914e+11
    0.0066996   6.85914e+11
   0.00671937   6.85914e+11
   0.00673913   6.85914e+11
   0.00675889   6.85914e+11
   0.00677866   6.85913e+11
   0.00679842   6.85914e+11
   0.00681818   6.85914e+11
   0.00683794   6.85914e+11
   0.00685771   6.85914e+11
   0.00687747   6.85914e+11
   0.00689723   6.85914e+11
     0.006917   6.85913e+11
   0.00693676   6.85913e+11
   0.00695652   6.85913e+11
   0.00697628   6.85914e+11
   0.00699605   6.85913e+11
   0.00701581   6.85913e+11
   0.00703557   6.85913e+11
   0.00705534   6.85913e+11
    0.0070751   6.85913e+11
   0.00709486   6.85914e+11
   0.00711462   6.85914e+11
   0.00713439   6.85913e+11
   0.00715415   6.85913e+11
   0.00717391   6.85913e+11
   0.00719368   6.85914e+11
   0.00721344   6.85913e+11
    0.0072332   6.85914e+11
   0.00725296   6.85913e+11
   0.00727273   6.85914e+11
   0.00729249   6.85914e+11
   0.00731225   6.85914e+11
   0.00733202   6.85914e+11
   0.00735178   6.85914e+11
   0.00737154   6.85914e+11
    0.0073913   6.85914e+11
   0.00741107   6.85914e+11
   0.00743083   6.85914e+11
   0.00745059   6.85914e+11
   0.00747036   6.85914e+11
   0.00749012   6.85914e+11
   0.00750988   6.85914e+11
   0.00752964   6.85914e+11
   0.00754941   6.85914e+11
   0.00756917   6.85914e+11
   0.00758893   6.85914e+11
    0.0076087   6.85914e+11
   0.00762846   6.85913e+11
   0.00764822   6.85913e+11
   0.00766798   6.85913e+11
   0.00768775   6.85913e+11
   0.00770751   6.85913e+11
   0.00772727   6.85914e+11
   0.00774704   6.85913e+11
    0.0077668   6.85913e+11
   0.00778656   6.85913e+11
   0.00780632   6.85913e+11
   0.00782609   6.85913e+11
   0.00784585   6.85913e+11
   0.00786561   6.85913e+11
   0.00788538   6.85913e+11
   0.00790514   6.85913e+11
    0.0079249   6.85913e+11
   0.00794466   6.85913e+11
   0.00796443   6.85913e+11
   0.00798419   6.85913e+11
   0.00800395   6.85913e+11
   0.00802372   6.85913e+11
   0.00804348   6.85913e+11
   0.00806324   6.85913e+11
     0.008083   6.85913e+11
   0.00810277   6.85913e+11
   0.00812253   6.85913e+11
   0.00814229   6.85913e+11
   0.00816206   6.85913e+11
   0.00818182   6.85913e+11
   0.00820158   6.85913e+11
   0.00822134   6.85913e+11
   0.00824111   6.85913e+11
   0.00826087   6.85913e+11
   0.00828063   6.85913e+11
    0.0083004   6.85913e+11
   0.00832016   6.85913e+11
   0.00833992   6.85913e+11
   0.00835968   6.85913e+11
   0.00837945   6.85914e+11
   0.00839921   6.85914e+11
   0.00841897   6.85914e+11
   0.00843874   6.85914e+11
    0.0084585   6.85914e+11
   0.00847826   6.85914e+11
   0.00849802   6.85914e+11
   0.00851779   6.85914e+11
   0.00853755   6.85914e+11
   0.00855731   6.85914e+11
   0.00857708   6.85914e+11
   0.00859684   6.85914e+11
    0.0086166   6.85914e+11
   0.00863636   6.85914e+11
   0.00865613   6.85914e+11
   0.00867589   6.85914e+11
   0.00869565   6.85914e+11
   0.00871542   6.85914e+11
   0.00873518   6.85914e+11
   0.00875494   6.85914e+11
    0.0087747   6.85914e+11
   0.00879447   6.85914e+11
   0.00881423   6.85914e+11
   0.00883399   6.85914e+11
   0.00885375   6.85914e+11
   0.00887352   6.85914e+11
   0.00889328   6.85914e+11
   0.00891304   6.85914e+11
   0.00893281   6.85915e+11
   0.00895257   6.85915e+11
   0.00897233   6.85915e+11
   0.00899209   6.85915e+11
   0.00901186   6.85914e+11
   0.00903162   6.85914e+11
   0.00905138   6.85914e+11
   0.00907115   6.85914e+11
   0.00909091   6.85914e+11
   0.00911067   6.85914e+11
   0.00913043   6.85914e+11
    0.0091502   6.85914e+11
   0.00916996   6.85914e+11
   0.00918972   6.85914e+11
   0.00920949   6.85914e+11
   0.00922925   6.85914e+11
   0.00924901   6.85914e+11
   0.00926877   6.85914e+11
   0.00928854   6.85914e+11
    0.0093083   6.85914e+11
   0.00932806   6.85914e+11
   0.00934783   6.85914e+11
   0.00936759   6.85914e+11
   0.00938735   6.85914e+11
   0.00940711   6.85914e+11
   0.00942688   6.85914e+11
   0.00944664   6.85914e+11
    0.0094664   6.85914e+11
   0.00948617   6.85914e+11
   0.00950593   6.85914e+11
   0.00952569   6.85914e+11
   0.00954545   6.85914e+11
   0.00956522   6.85914e+11
   0.00958498   6.85914e+11
   0.00960474   6.85914e+11
   0.00962451   6.85914e+11
   0.00964427   6.85914e+11
   0.00966403   6.85914e+11
   0.00968379   6.85914e+11
   0.00970356   6.85914e+11
   0.00972332   6.85914e+11
   0.00974308   6.85914e+11
   0.00976285   6.85914e+11
   0.00978261   6.85914e+11
   0.00980237   6.85914e+11
   0.00982213   6.85914e+11
    0.0098419   6.85914e+11
   0.00986166   6.85914e+11
   0.00988142   6.85914e+11
   0.00990119   6.85913e+11
   0.00992095   6.85913e+11
   0.00994071   6.85914e+11
   0.00996047   6.85914e+11
   0.00998024   6.85914e+11
         0.01   6.85914e+11
    0.0100198   6.85914e+11
    0.0100395   6.85913e+11
    0.0100593   6.85913e+11
    0.0100791   6.85913e+11
    0.0100988   6.85913e+11
    0.0101186   6.85913e+11
    0.0101383   6.85913e+11
    0.0101581   6.85913e+11
    0.0101779   6.85913e+11
    0.0101976   6.85913e+11
    0.0102174   6.85913e+11
    0.0102372   6.85913e+11
    0.0102569   6.85913e+11
    0.0102767   6.85913e+11
    0.0102964   6.85913e+11
    0.0103162   6.85913e+11
     0.010336   6.85913e+11
    0.0103557   6.85913e+11
    0.0103755   6.85913e+11
    0.0103953   6.85913e+11
     0.010415   6.85913e+11
    0.0104348   6.85913e+11
    0.0104545   6.85913e+11
    0.0104743   6.85913e+11
    0.0104941   6.85913e+11
    0.0105138   6.85913e+11
    0.0105336   6.85913e+11
    0.0105534   6.85913e+11
    0.0105731   6.85913e+11
    0.0105929   6.85914e+11
    0.0106126   6.85913e+11
    0.0106324   6.85913e+11
    0.0106522   6.85914e+11
    0.0106719   6.85914e+11
    0.0106917   6.85913e+11
    0.0107115   6.85914e+11
    0.0107312   6.85913e+11
     0.010751   6.85914e+11
    0.0107708   6.85913e+11
    0.0107905   6.85914e+11
    0.0108103   6.85914e+11
      0.01083   6.85914e+11
    0.0108498   6.85913e+11
    0.0108696   6.85913e+11
    0.0108893   6.85914e+11
    0.0109091   6.85914e+11
    0.0109289   6.85914e+11
    0.0109486   6.85914e+11
    0.0109684   6.85914e+11
    0.0109881   6.85914e+11
    0.0110079   6.85914e+11
    0.0110277   6.85914e+11
    0.0110474   6.85914e+11
    0.0110672   6.85914e+11
     0.011087   6.85914e+11
    0.0111067   6.85914e+11
    0.0111265   6.85914e+11
    0.0111462   6.85914e+11
     0.011166   6.85914e+11
    0.0111858   6.85914e+11
    0.0112055   6.85914e+11
    0.0112253   6.85914e+11
    0.0112451   6.85914e+11
    0.0112648   6.85914e+11
    0.0112846   6.85914e+11
    0.0113043   6.85914e+11
    0.0113241   6.85914e+11
    0.0113439   6.85914e+11
    0.0113636   6.85914e+11
    0.0113834   6.85914e+11
    0.0114032   6.85914e+11
    0.0114229   6.85914e+11
    0.0114427   6.85914e+11
    0.0114625   6.85914e+11
    0.0114822   6.85914e+11
     0.011502   6.85913e+11
    0.0115217   6.85914e+11
    0.0115415   6.85914e+11
    0.0115613   6.85914e+11
     0.011581   6.85914e+11
    0.0116008   6.85914e+11
    0.0116206   6.85914e+11
    0.0116403   6.85914e+11
    0.0116601   6.85914e+11
    0.0116798   6.85914e+11
    0.0116996   6.85914e+11
    0.0117194   6.85914e+11
    0.0117391   6.85914e+11
    0.0117589   6.85914e+11
    0.0117787   6.85914e+11
    0.0117984   6.85914e+11
    0.0118182   6.85914e+11
    0.0118379   6.85914e+11
    0.0118577   6.85914e+11
    0.0118775   6.85914e+11
    0.0118972   6.85914e+11
     0.011917   6.85914e+11
    0.0119368   6.85914e+11
    0.0119565   6.85914e+11
    0.0119763   6.85914e+11
     0.011996   6.85914e+11
    0.0120158   6.85914e+11
    0.0120356   6.85914e+11
    0.0120553   6.85914e+11
    0.0120751   6.85914e+11
    0.0120949   6.85914e+11
    0.0121146   6.85914e+11
    0.0121344   6.85914e+11
    0.0121542   6.85914e+11
    0.0121739   6.85914e+11
    0.0121937   6.85914e+11
    0.0122134   6.85914e+11
    0.0122332   6.85914e+11
     0.012253   6.85914e+11
    0.0122727   6.85914e+11
    0.0122925   6.85914e+11
    0.0123123   6.85914e+11
     0.012332   6.85914e+11
    0.0123518   6.85914e+11
    0.0123715   6.85914e+11
    0.0123913   6.85914e+11
    0.0124111   6.85914e+11
    0.0124308   6.85914e+11
    0.0124506   6.85914e+11
    0.0124704   6.85914e+11
    0.0124901   6.85914e+11
    0.0125099   6.85914e+11
    0.0125296   6.85914e+11
    0.0125494   6.85914e+11
    0.0125692   6.85914e+11
    0.0125889   6.85914e+11
    0.0126087   6.85914e+11
    0.0126285   6.85914e+11
    0.0126482   6.85914e+11
     0.012668   6.85914e+11
    0.0126877   6.85914e+11
    0.0127075   6.85914e+11
    0.0127273   6.85914e+11
     0.012747   6.85914e+11
    0.0127668   6.85914e+11
    0.0127866   6.85914e+11
    0.0128063   6.85914e+11
    0.0128261   6.85914e+11
    0.0128458   6.85914e+11
    0.0128656   6.85913e+11
    0.0128854   6.85913e+11
    0.0129051   6.85914e+11
    0.0129249   6.85914e+11
    0.0129447   6.85914e+11
    0.0129644   6.85914e+11
    0.0129842   6.85914e+11
     0.013004   6.85914e+11
    0.0130237   6.85914e+11
    0.0130435   6.85914e+11
    0.0130632   6.85914e+11
     0.013083   6.85913e+11
    0.0131028   6.85913e+11
    0.0131225   6.85913e+11
    0.0131423   6.85913e+11
    0.0131621   6.85913e+11
    0.0131818   6.85914e+11
    0.0132016   6.85914e+11
    0.0132213   6.85913e+11
    0.0132411   6.85913e+11
    0.0132609   6.85914e+11
    0.0132806   6.85914e+11
    0.0133004   6.85914e+11
    0.0133202   6.85914e+11
    0.0133399   6.85914e+11
    0.0133597   6.85914e+11
    0.0133794   6.85914e+11
    0.0133992   6.85914e+11
     0.013419   6.85914e+11
    0.0134387   6.85914e+11
    0.0134585   6.85914e+11
    0.0134783   6.85914e+11
     0.013498   6.85914e+11
