# Probe 0 (0 0 0)
# Probe 1 (0 0 0.005)
# Probe 2 (0 0 0.9)
#       Probe             0             1             2
#        Time
  1.92308e-05       5.57935             0             0
  3.84615e-05       5.57779             0             0
  5.76923e-05       5.57628             0             0
  7.69231e-05       5.57483             0             0
  9.61538e-05       5.57344             0             0
  0.000115385       5.57211       5.57935             0
  0.000134615       5.57083       5.57657             0
  0.000153846       5.56961       5.57379             0
  0.000173077       5.56844       5.57103             0
  0.000192308       5.56733       5.56829             0
  0.000211538       5.56627       5.56555             0
  0.000230769       5.56525       5.56283             0
      0.00025       5.56429       5.56013             0
  0.000269231       5.56338       5.55744             0
  0.000288462       5.56251       5.55476             0
  0.000307692       5.56169        5.5521             0
  0.000326923       5.56092       5.54945             0
  0.000346154       5.56018       5.54682             0
  0.000365385       5.55949       5.54421             0
  0.000384615       5.55884       5.54161             0
  0.000403846       5.55822       5.53903             0
  0.000423077       5.55764       5.53646             0
  0.000442308        5.5571       5.53392             0
  0.000461538       5.55658       5.53139             0
  0.000480769        5.5561       5.52888             0
       0.0005       5.55566       5.52638             0
  0.000519231       5.55523       5.52391             0
  0.000538462       5.55484       5.52145             0
  0.000557692       5.55447       5.51902             0
  0.000576923       5.55413       5.51661             0
  0.000596154       5.55381       5.51421             0
  0.000615385       5.55351       5.51184             0
  0.000634615       5.55323       5.50949             0
  0.000653846       5.55298       5.50716             0
  0.000673077       5.55274       5.50485             0
  0.000692308       5.55251       5.50256             0
  0.000711538       5.55231        5.5003             0
  0.000730769       5.55212       5.49806             0
      0.00075       5.55194       5.49584             0
  0.000769231       5.55177       5.49365             0
  0.000788462       5.55162       5.49148             0
  0.000807692       5.55148       5.48934             0
  0.000826923       5.55135       5.48722             0
  0.000846154       5.55123       5.48513             0
  0.000865385       5.55112       5.48306             0
  0.000884615       5.55102       5.48102             0
  0.000903846       5.55092         5.479             0
  0.000923077       5.55084       5.47701             0
  0.000942308       5.55076       5.47505             0
  0.000961538       5.55068       5.47312             0
  0.000980769       5.55061       5.47122             0
        0.001       5.55055       5.46934             0
   0.00101923        5.5505       5.46749             0
   0.00103846       5.55044       5.46567             0
   0.00105769       5.55039       5.46388             0
   0.00107692       5.55035       5.46212             0
   0.00109615       5.55031       5.46038             0
   0.00111538       5.55027       5.45868             0
   0.00113462       5.55024       5.45701             0
   0.00115385       5.55021       5.45537             0
   0.00117308       5.55018       5.45375             0
   0.00119231       5.55015       5.45217             0
   0.00121154       5.55013       5.45062             0
   0.00123077       5.55011        5.4491             0
      0.00125       5.55009        5.4476             0
   0.00126923       5.55007       5.44614             0
   0.00128846       5.55005       5.44471             0
   0.00130769       5.55004       5.44331             0
   0.00132692       5.55002       5.44195             0
   0.00134615       5.55001       5.44061             0
   0.00136538          5.55        5.4393             0
   0.00138462       5.54999       5.43802             0
   0.00140385       5.54998       5.43678             0
   0.00142308       5.54997       5.43556             0
   0.00144231       5.54996       5.43438             0
   0.00146154       5.54995       5.43322             0
   0.00148077       5.54995        5.4321             0
       0.0015       5.54994         5.431             0
   0.00151923       5.54994       5.42994             0
   0.00153846       5.54993        5.4289             0
   0.00155769       5.54993       5.42789             0
   0.00157692       5.54992       5.42692             0
   0.00159615       5.54992       5.42597             0
   0.00161538       5.54992       5.42504             0
   0.00163462       5.54991       5.42415             0
   0.00165385       5.54991       5.42328             0
   0.00167308       5.54991       5.42244             0
   0.00169231        5.5499       5.42163             0
   0.00171154        5.5499       5.42084             0
   0.00173077        5.5499       5.42008             0
      0.00175        5.5499       5.41935             0
   0.00176923        5.5499       5.41864             0
   0.00178846        5.5499       5.41795             0
   0.00180769       5.54989       5.41729             0
   0.00182692       5.54989       5.41665             0
   0.00184615       5.54989       5.41604             0
   0.00186538       5.54989       5.41545             0
   0.00188462       5.54989       5.41488             0
   0.00190385       5.54989       5.41433             0
   0.00192308       5.54989        5.4138             0
   0.00194231       5.54989       5.41329             0
   0.00196154       5.54989       5.41281             0
   0.00198077       5.54989       5.41234             0
        0.002       5.54989       5.41189             0
   0.00201923       5.54989       5.41146             0
   0.00203846       5.54989       5.41105             0
   0.00205769       5.54989       5.41066             0
   0.00207692       5.54988       5.41028             0
   0.00209615       5.54988       5.40992             0
   0.00211538       5.54988       5.40957             0
   0.00213462       5.54988       5.40924             0
   0.00215385       5.54988       5.40893             0
   0.00217308       5.54988       5.40863             0
   0.00219231       5.54988       5.40834             0
   0.00221154       5.54988       5.40807             0
   0.00223077       5.54988        5.4078             0
      0.00225       5.54988       5.40756             0
   0.00226923       5.54988       5.40732             0
   0.00228846       5.54988        5.4071             0
   0.00230769       5.54988       5.40688             0
   0.00232692       5.54988       5.40668             0
   0.00234615       5.54988       5.40649             0
   0.00236538       5.54988        5.4063             0
   0.00238462       5.54988       5.40613             0
   0.00240385       5.54988       5.40596             0
   0.00242308       5.54988       5.40581             0
   0.00244231       5.54988       5.40566             0
   0.00246154       5.54988       5.40552             0
   0.00248077       5.54988       5.40538             0
       0.0025       5.54988       5.40526             0
   0.00251923       5.54988       5.40514             0
   0.00253846       5.54988       5.40503             0
   0.00255769       5.54988       5.40492             0
   0.00257692       5.54988       5.40482             0
   0.00259615       5.54988       5.40473             0
   0.00261538       5.54988       5.40464             0
   0.00263462       5.54988       5.40455             0
   0.00265385       5.54988       5.40447             0
   0.00267308       5.54988        5.4044             0
   0.00269231       5.54988       5.40433             0
   0.00271154       5.54988       5.40426             0
   0.00273077       5.54988        5.4042             0
      0.00275       5.54988       5.40414             0
   0.00276923       5.54988       5.40409             0
   0.00278846       5.54988       5.40404             0
   0.00280769       5.54988       5.40399             0
   0.00282692       5.54988       5.40394             0
   0.00284615       5.54988        5.4039             0
   0.00286538       5.54988       5.40386             0
   0.00288462       5.54988       5.40382             0
   0.00290385       5.54988       5.40379             0
   0.00292308       5.54988       5.40375             0
   0.00294231       5.54988       5.40372             0
   0.00296154       5.54988       5.40369             0
   0.00298077       5.54988       5.40367             0
        0.003       5.54988       5.40364             0
   0.00301923       5.54988       5.40362             0
   0.00303846       5.54988        5.4036             0
   0.00305769       5.54988       5.40357             0
   0.00307692       5.54988       5.40356             0
   0.00309615       5.54988       5.40354             0
   0.00311538       5.54988       5.40352             0
   0.00313462       5.54988       5.40351             0
   0.00315385       5.54988       5.40349             0
   0.00317308       5.54988       5.40348             0
   0.00319231       5.54988       5.40346             0
   0.00321154       5.54988       5.40345             0
   0.00323077       5.54988       5.40344             0
      0.00325       5.54988       5.40343             0
   0.00326923       5.54988       5.40342             0
   0.00328846       5.54988       5.40341             0
   0.00330769       5.54988        5.4034             0
   0.00332692       5.54988        5.4034             0
   0.00334615       5.54988       5.40339             0
   0.00336538       5.54988       5.40338             0
   0.00338462       5.54988       5.40338             0
   0.00340385       5.54988       5.40337             0
   0.00342308       5.54988       5.40337             0
   0.00344231       5.54988       5.40336             0
   0.00346154       5.54988       5.40336             0
   0.00348077       5.54988       5.40335             0
       0.0035       5.54988       5.40335             0
   0.00351923       5.54988       5.40335             0
   0.00353846       5.54988       5.40334             0
   0.00355769       5.54988       5.40334             0
   0.00357692       5.54988       5.40334             0
   0.00359615       5.54988       5.40333             0
   0.00361538       5.54988       5.40333             0
   0.00363462       5.54988       5.40333             0
   0.00365385       5.54988       5.40333             0
   0.00367308       5.54988       5.40333             0
   0.00369231       5.54988       5.40332             0
   0.00371154       5.54988       5.40332             0
   0.00373077       5.54988       5.40332             0
      0.00375       5.54988       5.40332             0
   0.00376923       5.54988       5.40332             0
   0.00378846       5.54988       5.40332             0
   0.00380769       5.54988       5.40332             0
   0.00382692       5.54988       5.40331             0
   0.00384615       5.54988       5.40331             0
   0.00386538       5.54988       5.40331             0
   0.00388462       5.54988       5.40331             0
   0.00390385       5.54988       5.40331             0
   0.00392308       5.54988       5.40331             0
   0.00394231       5.54988       5.40331             0
   0.00396154       5.54988       5.40331             0
   0.00398077       5.54988       5.40331             0
        0.004       5.54988       5.40331             0
   0.00401923       5.54988       5.40331             0
   0.00403846       5.54988       5.40331             0
   0.00405769       5.54988       5.40331             0
   0.00407692       5.54988       5.40331             0
   0.00409615       5.54988       5.40331             0
   0.00411538       5.54988       5.40331             0
   0.00413462       5.54988       5.40331             0
   0.00415385       5.54988       5.40331             0
   0.00417308       5.54988       5.40331             0
   0.00419231       5.54988       5.40331             0
   0.00421154       5.54988       5.40331             0
   0.00423077       5.54988       5.40331             0
      0.00425       5.54988       5.40331             0
   0.00426923       5.54988       5.40331             0
   0.00428846       5.54988        5.4033             0
   0.00430769       5.54988        5.4033             0
   0.00432692       5.54988        5.4033             0
   0.00434615       5.54988        5.4033             0
   0.00436538       5.54988        5.4033             0
   0.00438462       5.54988        5.4033             0
   0.00440385       5.54988        5.4033             0
   0.00442308       5.54988        5.4033             0
   0.00444231       5.54988        5.4033             0
   0.00446154       5.54988        5.4033             0
   0.00448077       5.54988        5.4033             0
       0.0045       5.54988        5.4033             0
   0.00451923       5.54988        5.4033             0
   0.00453846       5.54988        5.4033             0
   0.00455769       5.54988        5.4033             0
   0.00457692       5.54988        5.4033             0
   0.00459615       5.54988        5.4033             0
   0.00461538       5.54988        5.4033             0
   0.00463462       5.54988        5.4033             0
   0.00465385       5.54988        5.4033             0
   0.00467308       5.54988        5.4033             0
   0.00469231       5.54988        5.4033             0
   0.00471154       5.54988        5.4033             0
   0.00473077       5.54988        5.4033             0
      0.00475       5.54988        5.4033             0
   0.00476923       5.54988        5.4033             0
   0.00478846       5.54988        5.4033             0
   0.00480769       5.54988        5.4033             0
   0.00482692       5.54988        5.4033             0
   0.00484615       5.54988        5.4033             0
   0.00486538       5.54988        5.4033             0
   0.00488462       5.54988        5.4033             0
   0.00490385       5.54988        5.4033             0
   0.00492308       5.54988        5.4033             0
   0.00494231       5.54988        5.4033             0
   0.00496154       5.54988        5.4033             0
   0.00498077       5.54988        5.4033             0
        0.005       5.54988        5.4033             0
   0.00501923       5.54988        5.4033             0
   0.00503846       5.54988        5.4033             0
   0.00505769       5.54988        5.4033             0
   0.00507692       5.54988        5.4033             0
   0.00509615       5.54988        5.4033             0
   0.00511538       5.54988        5.4033             0
   0.00513462       5.54988        5.4033             0
   0.00515385       5.54988        5.4033             0
   0.00517308       5.54988        5.4033             0
   0.00519231       5.54988        5.4033             0
   0.00521154       5.54988        5.4033             0
   0.00523077       5.54988        5.4033             0
      0.00525       5.54988        5.4033             0
   0.00526923       5.54988        5.4033             0
   0.00528846       5.54988        5.4033             0
   0.00530769       5.54988        5.4033             0
   0.00532692       5.54988        5.4033             0
   0.00534615       5.54988        5.4033             0
   0.00536538       5.54988        5.4033             0
   0.00538462       5.54988        5.4033             0
   0.00540385       5.54988        5.4033             0
   0.00542308       5.54988        5.4033             0
   0.00544231       5.54988        5.4033             0
   0.00546154       5.54988        5.4033             0
   0.00548077       5.54988        5.4033             0
       0.0055       5.54988        5.4033             0
   0.00551923       5.54988        5.4033             0
   0.00553846       5.54988        5.4033             0
   0.00555769       5.54988        5.4033             0
   0.00557692       5.54988        5.4033             0
   0.00559615       5.54988        5.4033             0
   0.00561538       5.54988        5.4033             0
   0.00563462       5.54988        5.4033             0
   0.00565385       5.54988        5.4033             0
   0.00567308       5.54988        5.4033             0
   0.00569231       5.54988        5.4033             0
   0.00571154       5.54988        5.4033             0
   0.00573077       5.54988        5.4033             0
      0.00575       5.54988        5.4033             0
   0.00576923       5.54988        5.4033             0
   0.00578846       5.54988        5.4033             0
   0.00580769       5.54988        5.4033             0
   0.00582692       5.54988        5.4033             0
   0.00584615       5.54988        5.4033             0
   0.00586538       5.54988        5.4033             0
   0.00588462       5.54988        5.4033             0
   0.00590385       5.54988        5.4033             0
   0.00592308       5.54988        5.4033             0
   0.00594231       5.54988        5.4033             0
   0.00596154       5.54988        5.4033             0
   0.00598077       5.54988        5.4033             0
        0.006       5.54988        5.4033             0
   0.00601923       5.54988        5.4033             0
   0.00603846       5.54988        5.4033             0
   0.00605769       5.54988        5.4033             0
   0.00607692       5.54988        5.4033             0
   0.00609615       5.54988        5.4033             0
   0.00611538       5.54988        5.4033             0
   0.00613462       5.54988        5.4033             0
   0.00615385       5.54988        5.4033             0
   0.00617308       5.54988        5.4033             0
   0.00619231       5.54988        5.4033             0
   0.00621154       5.54988        5.4033             0
   0.00623077       5.54988        5.4033             0
      0.00625       5.54988        5.4033             0
   0.00626923       5.54988        5.4033             0
   0.00628846       5.54988        5.4033             0
   0.00630769       5.54988        5.4033             0
   0.00632692       5.54988        5.4033             0
   0.00634615       5.54988        5.4033             0
   0.00636538       5.54988        5.4033             0
   0.00638462       5.54988        5.4033             0
   0.00640385       5.54988        5.4033             0
   0.00642308       5.54988        5.4033             0
   0.00644231       5.54988        5.4033             0
   0.00646154       5.54988        5.4033             0
   0.00648077       5.54988        5.4033             0
       0.0065       5.54988        5.4033             0
   0.00651923       5.54988        5.4033             0
   0.00653846       5.54988        5.4033             0
   0.00655769       5.54988        5.4033             0
   0.00657692       5.54988        5.4033             0
   0.00659615       5.54988        5.4033             0
   0.00661538       5.54988        5.4033             0
   0.00663462       5.54988        5.4033             0
   0.00665385       5.54988        5.4033             0
   0.00667308       5.54988        5.4033             0
   0.00669231       5.54988        5.4033             0
   0.00671154       5.54988        5.4033             0
   0.00673077       5.54988        5.4033             0
      0.00675       5.54988        5.4033             0
   0.00676923       5.54988        5.4033             0
   0.00678846       5.54988        5.4033             0
   0.00680769       5.54988        5.4033             0
   0.00682692       5.54988        5.4033             0
   0.00684615       5.54988        5.4033             0
   0.00686538       5.54988        5.4033             0
   0.00688462       5.54988        5.4033             0
   0.00690385       5.54988        5.4033             0
   0.00692308       5.54988        5.4033             0
   0.00694231       5.54988        5.4033             0
   0.00696154       5.54988        5.4033             0
   0.00698077       5.54988        5.4033             0
        0.007       5.54988        5.4033             0
   0.00701923       5.54988        5.4033             0
   0.00703846       5.54988        5.4033             0
   0.00705769       5.54988        5.4033             0
   0.00707692       5.54988        5.4033             0
   0.00709615       5.54988        5.4033             0
   0.00711538       5.54988        5.4033             0
   0.00713462       5.54988        5.4033             0
   0.00715385       5.54988        5.4033             0
   0.00717308       5.54988        5.4033             0
   0.00719231       5.54988        5.4033             0
   0.00721154       5.54988        5.4033             0
   0.00723077       5.54988        5.4033             0
      0.00725       5.54988        5.4033             0
   0.00726923       5.54988        5.4033             0
   0.00728846       5.54988        5.4033             0
   0.00730769       5.54988        5.4033             0
   0.00732692       5.54988        5.4033             0
   0.00734615       5.54988        5.4033             0
   0.00736538       5.54988        5.4033             0
   0.00738462       5.54988        5.4033             0
   0.00740385       5.54988        5.4033             0
   0.00742308       5.54988        5.4033             0
   0.00744231       5.54988        5.4033             0
   0.00746154       5.54988        5.4033             0
   0.00748077       5.54988        5.4033             0
       0.0075       5.54988        5.4033             0
   0.00751923       5.54988        5.4033             0
   0.00753846       5.54988        5.4033             0
   0.00755769       5.54988        5.4033             0
   0.00757692       5.54988        5.4033             0
   0.00759615       5.54988        5.4033             0
   0.00761538       5.54988        5.4033             0
   0.00763462       5.54988        5.4033             0
   0.00765385       5.54988        5.4033             0
   0.00767308       5.54988        5.4033             0
   0.00769231       5.54988        5.4033             0
   0.00771154       5.54988        5.4033             0
   0.00773077       5.54988        5.4033             0
      0.00775       5.54988        5.4033             0
   0.00776923       5.54988        5.4033             0
   0.00778846       5.54988        5.4033             0
   0.00780769       5.54988        5.4033             0
   0.00782692       5.54988        5.4033             0
   0.00784615       5.54988        5.4033             0
   0.00786538       5.54988        5.4033             0
