/*--------------------------------*- C++ -*----------------------------------*\
| =========                 |                                                 |
| \\      /  F ield         | OpenFOAM: The Open Source CFD Toolbox           |
|  \\    /   O peration     | Version:  dev                                   |
|   \\  /    A nd           | Web:      www.OpenFOAM.org                      |
|    \\/     M anipulation  |                                                 |
\*---------------------------------------------------------------------------*/
FoamFile
{
    version     2.0;
    format      ascii;
    class       volScalarField;
    location    "0.19";
    object      A1-;
}
// * * * * * * * * * * * * * * * * * * * * * * * * * * * * * * * * * * * * * //

dimensions      [0 0 0 0 0 0 0];

internalField   nonuniform List<scalar> 
250
(
9.37885e-08
2.58548e-05
2.49289e-05
2.4735e-05
2.4696e-05
2.47021e-05
2.46987e-05
2.4701e-05
2.46989e-05
7.54521e-08
2.53152e-05
2.24806e-05
2.20401e-05
2.19706e-05
2.19661e-05
2.19625e-05
2.19639e-05
2.19644e-05
4.80321e-08
1.88122e-05
1.54769e-05
1.50046e-05
1.49315e-05
1.4927e-05
1.49217e-05
1.4923e-05
1.49258e-05
3.27648e-08
1.32619e-05
9.97008e-06
9.54377e-06
9.48251e-06
9.47936e-06
9.47214e-06
9.47128e-06
9.47876e-06
2.47208e-08
9.56176e-06
6.47615e-06
6.11151e-06
6.07002e-06
6.06831e-06
6.06159e-06
6.04282e-06
6.06832e-06
2.06645e-08
7.22648e-06
4.38828e-06
4.04433e-06
3.97223e-06
3.96654e-06
3.96581e-06
3.98332e-06
3.96612e-06
2.01263e-08
5.72387e-06
3.14441e-06
2.83669e-06
2.77251e-06
2.76674e-06
2.7672e-06
2.7693e-06
2.76652e-06
2.92272e-08
4.70317e-06
2.33783e-06
2.10527e-06
2.03964e-06
2.03287e-06
2.03024e-06
2.03193e-06
2.03278e-06
8.10485e-08
3.96384e-06
1.85122e-06
1.60895e-06
1.56248e-06
1.56053e-06
1.56147e-06
1.55903e-06
1.56042e-06
1.82866e-07
3.39549e-06
1.51636e-06
1.27008e-06
1.25708e-06
1.25498e-06
1.25365e-06
1.25354e-06
1.25492e-06
3.27951e-07
2.93914e-06
1.26635e-06
1.06608e-06
1.04447e-06
1.04033e-06
1.03555e-06
1.03853e-06
1.04015e-06
1.03882e-06
4.75848e-07
2.56378e-06
1.08512e-06
9.05699e-07
8.8135e-07
8.77159e-07
8.6867e-07
8.75424e-07
8.76868e-07
8.75944e-07
6.11537e-07
2.25188e-06
9.65383e-07
7.87585e-07
7.62496e-07
7.58475e-07
7.6102e-07
7.56604e-07
7.57896e-07
7.57293e-07
7.42272e-07
1.99141e-06
8.64293e-07
6.97902e-07
6.72724e-07
6.68879e-07
6.71222e-07
6.66793e-07
6.68047e-07
6.67687e-07
8.69861e-07
1.774e-06
7.79917e-07
6.27345e-07
6.02595e-07
5.98911e-07
6.00553e-07
5.96531e-07
5.97877e-07
5.97699e-07
9.86812e-07
1.58106e-06
7.09269e-07
5.7005e-07
5.46121e-07
5.42583e-07
5.43707e-07
5.39799e-07
5.41403e-07
5.41362e-07
1.08056e-06
1.42611e-06
6.56345e-07
5.22232e-07
4.99445e-07
4.96036e-07
4.96748e-07
4.92678e-07
4.94773e-07
4.94831e-07
1.1392e-06
1.28154e-06
6.06523e-07
4.81317e-07
4.60028e-07
4.56746e-07
4.57142e-07
4.52522e-07
4.55464e-07
4.55589e-07
1.15701e-06
1.1503e-06
5.61012e-07
4.45516e-07
4.26167e-07
4.23021e-07
4.23218e-07
4.21896e-07
4.21792e-07
4.21947e-07
1.13605e-06
1.03436e-06
5.20483e-07
4.17523e-07
3.96694e-07
3.93695e-07
3.93742e-07
3.9216e-07
3.92562e-07
3.92737e-07
1.08453e-06
9.30973e-07
4.84035e-07
3.91273e-07
3.70738e-07
3.67936e-07
3.67883e-07
3.65896e-07
3.66936e-07
3.67122e-07
1.01359e-06
8.38368e-07
4.51082e-07
3.66642e-07
3.47634e-07
3.451e-07
3.45005e-07
3.45157e-07
3.44265e-07
3.44448e-07
9.34032e-07
7.55053e-07
4.21244e-07
3.46978e-07
3.29239e-07
3.27023e-07
3.26903e-07
3.27028e-07
3.26341e-07
3.26525e-07
8.54102e-07
6.87314e-07
3.94097e-07
3.28847e-07
3.1298e-07
3.09885e-07
3.09733e-07
3.09833e-07
3.09297e-07
3.09464e-07
7.78439e-07
6.23414e-07
3.69169e-07
3.13236e-07
2.98621e-07
2.95729e-07
2.95558e-07
2.95682e-07
2.95258e-07
2.95427e-07
7.08559e-07
5.67545e-07
3.48689e-07
2.99096e-07
2.85884e-07
2.83192e-07
2.83004e-07
2.83132e-07
2.82813e-07
2.82982e-07
)
;

boundaryField
{
    fuel
    {
        type            fixedValue;
        value           uniform 0;
    }
    wall
    {
        type            zeroGradient;
    }
    outlet
    {
        type            zeroGradient;
    }
    frontAndBack
    {
        type            empty;
    }
    procBoundary2to0
    {
        type            processor;
        value           nonuniform List<scalar> 
12
(
2.94625e-07
6.42545e-07
5.14151e-07
3.29895e-07
2.86501e-07
2.74462e-07
2.71969e-07
2.71764e-07
2.71867e-07
2.71651e-07
2.82267e-07
2.71817e-07
)
;
    }
    procBoundary2to3
    {
        type            processor;
        value           nonuniform List<scalar> 
25
(
2.47097e-05
2.19619e-05
1.49199e-05
9.46853e-06
6.04064e-06
3.98163e-06
2.76802e-06
2.03098e-06
1.55866e-06
1.2534e-06
1.2534e-06
1.0398e-06
8.76406e-07
7.57328e-07
6.67386e-07
5.97144e-07
5.40618e-07
4.93954e-07
4.54623e-07
4.20927e-07
3.91697e-07
3.66092e-07
3.43461e-07
3.25591e-07
3.08579e-07
)
;
    }
}


// ************************************************************************* //
