/*--------------------------------*- C++ -*----------------------------------*\
| =========                 |                                                 |
| \\      /  F ield         | OpenFOAM: The Open Source CFD Toolbox           |
|  \\    /   O peration     | Version:  dev                                   |
|   \\  /    A nd           | Web:      www.OpenFOAM.org                      |
|    \\/     M anipulation  |                                                 |
\*---------------------------------------------------------------------------*/
FoamFile
{
    version     2.0;
    format      ascii;
    class       volScalarField;
    location    "0.19";
    object      A1C2H-;
}
// * * * * * * * * * * * * * * * * * * * * * * * * * * * * * * * * * * * * * //

dimensions      [0 0 0 0 0 0 0];

internalField   nonuniform List<scalar> 
50
(
4.29391e-19
3.83154e-19
3.41997e-19
3.05379e-19
2.73143e-19
2.44454e-19
2.18718e-19
1.95833e-19
1.75462e-19
1.57302e-19
1.41265e-19
1.26878e-19
1.14081e-19
1.02641e-19
9.23889e-20
8.32357e-20
7.49673e-20
6.76248e-20
6.09915e-20
5.50841e-20
4.97257e-20
4.49593e-20
4.06743e-20
3.6792e-20
3.33236e-20
3.01998e-20
2.73854e-20
2.48487e-20
2.25613e-20
2.0498e-20
1.86185e-20
1.6934e-20
1.54028e-20
1.40201e-20
1.27558e-20
1.16003e-20
1.0556e-20
9.59908e-21
8.72049e-21
7.91213e-21
7.16107e-21
6.46469e-21
5.81945e-21
5.22057e-21
4.66428e-21
4.14753e-21
3.67344e-21
3.2353e-21
2.83258e-21
2.46218e-21
)
;

boundaryField
{
    wall
    {
        type            zeroGradient;
    }
    fuel
    {
        type            fixedValue;
        value           nonuniform 0();
    }
    outlet
    {
        type            inletOutlet;
        inletValue      nonuniform 0();
        value           nonuniform 0();
    }
    procBoundary2to1
    {
        type            processor;
        value           uniform 4.81363e-19;
    }
    procBoundary2to3
    {
        type            processor;
        value           uniform 2.12705e-21;
    }
}


// ************************************************************************* //
