/*--------------------------------*- C++ -*----------------------------------*\
| =========                 |                                                 |
| \\      /  F ield         | OpenFOAM: The Open Source CFD Toolbox           |
|  \\    /   O peration     | Version:  dev                                   |
|   \\  /    A nd           | Web:      www.OpenFOAM.org                      |
|    \\/     M anipulation  |                                                 |
\*---------------------------------------------------------------------------*/
FoamFile
{
    version     2.0;
    format      ascii;
    class       volScalarField;
    location    "0.19";
    object      A1C2H3*;
}
// * * * * * * * * * * * * * * * * * * * * * * * * * * * * * * * * * * * * * //

dimensions      [0 0 0 0 0 0 0];

internalField   nonuniform List<scalar> 
250
(
3.13363e-10
8.5185e-09
6.35604e-09
6.08537e-09
6.06588e-09
6.04424e-09
6.04691e-09
6.04362e-09
6.04995e-09
3.68794e-10
3.39477e-09
2.46712e-09
2.35137e-09
2.33794e-09
2.33291e-09
2.3331e-09
2.33266e-09
2.33368e-09
2.23856e-10
1.58338e-09
1.05371e-09
9.92659e-10
9.84236e-10
9.82771e-10
9.82492e-10
9.82493e-10
9.82814e-10
1.22889e-10
8.79669e-10
4.97005e-10
4.60153e-10
4.54964e-10
4.54401e-10
4.54034e-10
4.53983e-10
4.54368e-10
7.60411e-11
5.71057e-10
2.61772e-10
2.37101e-10
2.34093e-10
2.33821e-10
2.33526e-10
2.32638e-10
2.33806e-10
6.42437e-11
4.21904e-10
1.56932e-10
1.37235e-10
1.33535e-10
1.33177e-10
1.33104e-10
1.3393e-10
1.33145e-10
9.68871e-11
3.37403e-10
1.05348e-10
8.91723e-11
8.61695e-11
8.58567e-11
8.58393e-11
8.59728e-11
8.58358e-11
3.30344e-10
2.81759e-10
7.54444e-11
6.31763e-11
6.03512e-11
6.00325e-11
5.99184e-11
6.00011e-11
6.0019e-11
1.64518e-09
2.414e-10
5.83835e-11
4.66032e-11
4.456e-11
4.44172e-11
4.44234e-11
4.43626e-11
4.44054e-11
3.98273e-09
2.09859e-10
4.6943e-11
3.5657e-11
3.47835e-11
3.46468e-11
3.45817e-11
3.45947e-11
3.46381e-11
5.76532e-09
1.82618e-10
3.84881e-11
2.91879e-11
2.81032e-11
2.79113e-11
2.77399e-11
2.78489e-11
2.79001e-11
2.78643e-11
5.51084e-09
1.57121e-10
3.23814e-11
2.41555e-11
2.30398e-11
2.28555e-11
2.25753e-11
2.27968e-11
2.28415e-11
2.28161e-11
4.33413e-09
1.34089e-10
2.83559e-11
2.04835e-11
1.93926e-11
1.92212e-11
1.92868e-11
1.91601e-11
1.91992e-11
1.91833e-11
3.23786e-09
1.14413e-10
2.49563e-11
1.77234e-11
1.66722e-11
1.65126e-11
1.65755e-11
1.64469e-11
1.64839e-11
1.64753e-11
2.40712e-09
9.80868e-11
2.21237e-11
1.55789e-11
1.45786e-11
1.44294e-11
1.44728e-11
1.43572e-11
1.43957e-11
1.43926e-11
1.78125e-09
8.38679e-11
1.97648e-11
1.38649e-11
1.29236e-11
1.27834e-11
1.28124e-11
1.27018e-11
1.27467e-11
1.27477e-11
1.29738e-09
7.26345e-11
1.80173e-11
1.24628e-11
1.15863e-11
1.14542e-11
1.14717e-11
1.13587e-11
1.14162e-11
1.14202e-11
9.23652e-10
6.24789e-11
1.63915e-11
1.12922e-11
1.04875e-11
1.03627e-11
1.03717e-11
1.02459e-11
1.03256e-11
1.03314e-11
6.43599e-10
5.36128e-11
1.49314e-11
1.02978e-11
9.5739e-12
9.4563e-12
9.46e-12
9.42695e-12
9.42181e-12
9.4286e-12
4.42371e-10
4.61229e-11
1.36612e-11
9.54938e-12
8.80886e-12
8.69839e-12
8.69832e-12
8.6604e-12
8.66769e-12
8.67517e-12
3.03305e-10
3.97724e-11
1.25521e-11
8.87563e-12
8.16567e-12
8.06317e-12
8.06073e-12
8.01409e-12
8.03719e-12
8.04513e-12
2.09887e-10
3.43893e-11
1.15856e-11
8.27393e-12
7.62484e-12
7.53177e-12
7.52852e-12
7.53502e-12
7.51128e-12
7.5194e-12
1.48098e-10
2.98207e-11
1.07495e-11
7.82656e-12
7.22727e-12
7.14391e-12
7.14036e-12
7.14767e-12
7.12847e-12
7.13688e-12
1.07347e-10
2.63176e-11
1.00318e-11
7.44867e-12
6.91025e-12
6.81108e-12
6.80712e-12
6.81535e-12
6.79953e-12
6.80796e-12
8.02182e-11
2.32183e-11
9.42017e-12
7.16232e-12
6.66885e-12
6.57602e-12
6.57194e-12
6.58218e-12
6.56866e-12
6.57757e-12
6.17469e-11
2.06852e-11
8.96913e-12
6.94738e-12
6.49919e-12
6.41259e-12
6.40846e-12
6.42051e-12
6.4089e-12
6.41839e-12
)
;

boundaryField
{
    fuel
    {
        type            fixedValue;
        value           uniform 0;
    }
    wall
    {
        type            zeroGradient;
    }
    outlet
    {
        type            zeroGradient;
    }
    frontAndBack
    {
        type            empty;
    }
    procBoundary2to0
    {
        type            processor;
        value           nonuniform List<scalar> 
12
(
6.56311e-12
4.85939e-11
1.84391e-11
8.61066e-12
6.80687e-12
6.39816e-12
6.31767e-12
6.31351e-12
6.32686e-12
6.31694e-12
6.40764e-12
6.32705e-12
)
;
    }
    procBoundary2to3
    {
        type            processor;
        value           nonuniform List<scalar> 
25
(
6.01988e-09
2.32805e-09
9.81447e-10
4.53671e-10
2.32509e-10
1.3386e-10
8.59283e-11
5.99714e-11
4.43536e-11
3.45944e-11
3.45944e-11
2.78887e-11
2.28271e-11
1.91822e-11
1.64648e-11
1.43755e-11
1.2726e-11
1.13956e-11
1.03054e-11
9.40203e-12
8.649e-12
8.02021e-12
7.49657e-12
7.1164e-12
6.7901e-12
)
;
    }
}


// ************************************************************************* //
