/*--------------------------------*- C++ -*----------------------------------*\
| =========                 |                                                 |
| \\      /  F ield         | OpenFOAM: The Open Source CFD Toolbox           |
|  \\    /   O peration     | Version:  dev                                   |
|   \\  /    A nd           | Web:      www.OpenFOAM.org                      |
|    \\/     M anipulation  |                                                 |
\*---------------------------------------------------------------------------*/
FoamFile
{
    version     2.0;
    format      ascii;
    class       volScalarField;
    location    "0.19";
    object      A2C2HA;
}
// * * * * * * * * * * * * * * * * * * * * * * * * * * * * * * * * * * * * * //

dimensions      [0 0 0 0 0 0 0];

internalField   nonuniform List<scalar> 
250
(
9.60183e-10
6.19243e-08
3.57057e-08
3.39653e-08
3.38025e-08
3.37851e-08
3.37862e-08
3.37874e-08
3.37869e-08
1.99098e-09
5.78852e-08
2.3012e-08
2.1221e-08
2.10608e-08
2.10378e-08
2.10375e-08
2.10346e-08
2.10394e-08
2.46463e-09
4.88761e-08
1.41322e-08
1.25908e-08
1.24506e-08
1.24269e-08
1.24249e-08
1.24228e-08
1.24264e-08
2.52066e-09
4.20502e-08
9.49069e-09
8.15727e-09
8.03107e-09
8.00849e-09
8.00408e-09
8.00437e-09
8.00642e-09
2.3426e-09
3.6347e-08
6.91304e-09
5.74255e-09
5.62806e-09
5.60794e-09
5.60317e-09
5.60406e-09
5.6054e-09
2.07384e-09
3.11442e-08
5.28851e-09
4.2784e-09
4.14467e-09
4.11507e-09
4.11629e-09
4.10926e-09
4.11332e-09
1.80448e-09
2.54794e-08
4.20901e-09
3.33228e-09
3.20282e-09
3.17276e-09
3.17545e-09
3.16706e-09
3.17134e-09
1.592e-09
2.09958e-08
3.43713e-09
2.68281e-09
2.55481e-09
2.52133e-09
2.52188e-09
2.51582e-09
2.51945e-09
1.47443e-09
1.69733e-08
2.83635e-09
2.1942e-09
2.09149e-09
2.04855e-09
2.04595e-09
2.04247e-09
2.04752e-09
1.47406e-09
1.29886e-08
2.33792e-09
1.80494e-09
1.71122e-09
1.70596e-09
1.6989e-09
1.6999e-09
1.70398e-09
1.5492e-09
9.64664e-09
1.99838e-09
1.54887e-09
1.46123e-09
1.44763e-09
1.43294e-09
1.44563e-09
1.44913e-09
1.42939e-09
1.68189e-09
7.43545e-09
1.71727e-09
1.33044e-09
1.24623e-09
1.22869e-09
1.2238e-09
1.22687e-09
1.23023e-09
1.23201e-09
1.8552e-09
5.74653e-09
1.4871e-09
1.15542e-09
1.07801e-09
1.05801e-09
1.06085e-09
1.05594e-09
1.05953e-09
1.05896e-09
2.0468e-09
4.48206e-09
1.30446e-09
1.01491e-09
9.43533e-10
9.22271e-10
9.3314e-10
9.19633e-10
9.2371e-10
9.21529e-10
2.22644e-09
3.55243e-09
1.1574e-09
8.99914e-10
8.34023e-10
8.12253e-10
8.21839e-10
8.08861e-10
8.13647e-10
8.1053e-10
2.36638e-09
2.8589e-09
1.03709e-09
8.04237e-10
7.43465e-10
7.21718e-10
7.29293e-10
7.17384e-10
7.23049e-10
7.19495e-10
2.45317e-09
2.36793e-09
9.37084e-10
7.23576e-10
6.67644e-10
6.46304e-10
6.53017e-10
6.40764e-10
6.4753e-10
6.4385e-10
2.49224e-09
2.01286e-09
8.52467e-10
6.54885e-10
6.03533e-10
5.82881e-10
5.892e-10
5.75706e-10
5.83975e-10
5.80338e-10
2.50387e-09
1.75332e-09
7.79388e-10
5.95968e-10
5.489e-10
5.29153e-10
5.35219e-10
5.26795e-10
5.30118e-10
5.26598e-10
2.51319e-09
1.56658e-09
7.22895e-10
5.45233e-10
5.02059e-10
4.8339e-10
4.89103e-10
4.80265e-10
4.84202e-10
4.80872e-10
2.54001e-09
1.42887e-09
6.73433e-10
5.01573e-10
4.61698e-10
4.44253e-10
4.49489e-10
4.40246e-10
4.44895e-10
4.41814e-10
2.59447e-09
1.32436e-09
6.25507e-10
4.63776e-10
4.26755e-10
4.10669e-10
4.15338e-10
4.09708e-10
4.11132e-10
4.08351e-10
2.67763e-09
1.24202e-09
5.87999e-10
4.35075e-10
4.00075e-10
3.85251e-10
3.89356e-10
3.84119e-10
3.85546e-10
3.83038e-10
2.78437e-09
1.16827e-09
5.55138e-10
4.09395e-10
3.76492e-10
3.62492e-10
3.66207e-10
3.61252e-10
3.62708e-10
3.60383e-10
2.90629e-09
1.10802e-09
5.2458e-10
3.88862e-10
3.57921e-10
3.45245e-10
3.48311e-10
3.44005e-10
3.45254e-10
3.43283e-10
3.03314e-09
1.06497e-09
5.01109e-10
3.7233e-10
3.4327e-10
3.32005e-10
3.34368e-10
3.30833e-10
3.31765e-10
3.30211e-10
)
;

boundaryField
{
    fuel
    {
        type            fixedValue;
        value           uniform 0;
    }
    wall
    {
        type            zeroGradient;
    }
    outlet
    {
        type            zeroGradient;
    }
    frontAndBack
    {
        type            empty;
    }
    procBoundary2to0
    {
        type            processor;
        value           nonuniform List<scalar> 
12
(
3.44174e-10
3.15351e-09
1.02799e-09
4.82314e-10
3.60142e-10
3.32661e-10
3.22936e-10
3.24519e-10
3.21895e-10
3.22384e-10
3.30973e-10
3.21333e-10
)
;
    }
    procBoundary2to3
    {
        type            processor;
        value           nonuniform List<scalar> 
25
(
3.38043e-08
2.10443e-08
1.24286e-08
8.00811e-09
5.60677e-09
4.11264e-09
3.16971e-09
2.51717e-09
2.04144e-09
1.6959e-09
1.6959e-09
1.44716e-09
1.22747e-09
1.05635e-09
9.20385e-10
8.10374e-10
7.19942e-10
6.44643e-10
5.81323e-10
5.27683e-10
4.81999e-10
4.42938e-10
4.09434e-10
3.84065e-10
3.61368e-10
)
;
    }
}


// ************************************************************************* //
