/*--------------------------------*- C++ -*----------------------------------*\
| =========                 |                                                 |
| \\      /  F ield         | OpenFOAM: The Open Source CFD Toolbox           |
|  \\    /   O peration     | Version:  dev                                   |
|   \\  /    A nd           | Web:      www.OpenFOAM.org                      |
|    \\/     M anipulation  |                                                 |
\*---------------------------------------------------------------------------*/
FoamFile
{
    version     2.0;
    format      ascii;
    class       volScalarField;
    location    "0.19";
    object      A3C2H;
}
// * * * * * * * * * * * * * * * * * * * * * * * * * * * * * * * * * * * * * //

dimensions      [0 0 0 0 0 0 0];

internalField   nonuniform List<scalar> 
250
(
1.43205e-11
1.45378e-09
8.34714e-10
7.84181e-10
7.79157e-10
7.78308e-10
7.78273e-10
7.78176e-10
7.78268e-10
3.36659e-11
2.20791e-09
9.76473e-10
8.89868e-10
8.81361e-10
8.79907e-10
8.797e-10
8.79571e-10
8.79737e-10
4.59962e-11
2.4506e-09
9.07302e-10
8.01551e-10
7.90912e-10
7.88966e-10
7.8858e-10
7.88534e-10
7.88637e-10
5.0882e-11
2.38337e-09
7.85347e-10
6.73121e-10
6.61244e-10
6.59024e-10
6.58363e-10
6.58536e-10
6.58569e-10
5.04845e-11
2.15615e-09
6.6005e-10
5.49998e-10
5.37536e-10
5.3524e-10
5.34555e-10
5.3472e-10
5.34777e-10
4.72962e-11
1.87735e-09
5.44802e-10
4.43706e-10
4.28596e-10
4.25292e-10
4.2532e-10
4.24568e-10
4.2496e-10
4.31665e-11
1.55492e-09
4.48839e-10
3.58124e-10
3.4269e-10
3.39156e-10
3.39331e-10
3.3842e-10
3.38895e-10
3.97074e-11
1.3028e-09
3.70287e-10
2.90661e-10
2.75025e-10
2.71011e-10
2.70932e-10
2.70291e-10
2.70706e-10
3.84165e-11
1.0789e-09
3.03914e-10
2.35135e-10
2.22351e-10
2.17233e-10
2.16778e-10
2.16451e-10
2.17024e-10
4.05208e-11
8.55062e-10
2.4617e-10
1.8838e-10
1.76729e-10
1.76289e-10
1.75293e-10
1.75525e-10
1.7597e-10
4.37975e-11
6.64121e-10
2.05978e-10
1.56799e-10
1.45982e-10
1.44589e-10
1.42674e-10
1.44349e-10
1.44708e-10
1.42291e-10
4.8551e-11
5.35041e-10
1.72223e-10
1.2956e-10
1.19307e-10
1.17501e-10
1.16845e-10
1.17303e-10
1.17626e-10
1.17909e-10
5.64697e-11
4.33266e-10
1.44488e-10
1.07856e-10
9.86205e-11
9.65826e-11
9.68948e-11
9.63724e-11
9.67024e-11
9.67035e-11
6.90839e-11
3.53917e-10
1.22632e-10
9.07597e-11
8.24502e-11
8.03258e-11
8.15766e-11
8.00673e-11
8.04344e-11
8.02457e-11
8.64694e-11
2.9274e-10
1.05298e-10
7.71716e-11
6.97066e-11
6.75832e-11
6.86383e-11
6.72585e-11
6.76855e-11
6.73931e-11
1.07571e-10
2.44622e-10
9.14285e-11
6.62737e-11
5.95822e-11
5.75156e-11
5.83001e-11
5.71081e-11
5.76106e-11
5.72767e-11
1.30976e-10
2.08663e-10
8.02066e-11
5.74581e-11
5.14744e-11
4.94997e-11
5.01539e-11
4.89866e-11
4.95839e-11
4.92452e-11
1.55331e-10
1.81253e-10
7.09967e-11
5.02709e-11
4.49303e-11
4.30687e-11
4.36522e-11
4.24105e-11
4.31401e-11
4.28149e-11
1.79522e-10
1.60178e-10
6.32922e-11
4.43706e-11
3.96071e-11
3.78712e-11
3.84061e-11
3.76837e-11
3.79307e-11
3.76255e-11
2.02734e-10
1.44293e-10
5.75095e-11
3.94995e-11
3.52431e-11
3.364e-11
3.41237e-11
3.33841e-11
3.36861e-11
3.34062e-11
2.24377e-10
1.32034e-10
5.25783e-11
3.5468e-11
3.16357e-11
3.01694e-11
3.05969e-11
2.98381e-11
3.02017e-11
2.99497e-11
2.4396e-10
1.22282e-10
4.79105e-11
3.20931e-11
2.86239e-11
2.72968e-11
2.7666e-11
2.72222e-11
2.73156e-11
2.7093e-11
2.60929e-10
1.14186e-10
4.43096e-11
2.95894e-11
2.63834e-11
2.5176e-11
2.54936e-11
2.50836e-11
2.51836e-11
2.49847e-11
2.74588e-10
1.06449e-10
4.11625e-11
2.73758e-11
2.44308e-11
2.32989e-11
2.35846e-11
2.31942e-11
2.33045e-11
2.31186e-11
2.84143e-10
9.95559e-11
3.81908e-11
2.55882e-11
2.28807e-11
2.18542e-11
2.20934e-11
2.17458e-11
2.18498e-11
2.16863e-11
2.88801e-10
9.40419e-11
3.57985e-11
2.40795e-11
2.1598e-11
2.06704e-11
2.08667e-11
2.05621e-11
2.06566e-11
2.05145e-11
)
;

boundaryField
{
    fuel
    {
        type            fixedValue;
        value           uniform 0;
    }
    wall
    {
        type            zeroGradient;
    }
    outlet
    {
        type            zeroGradient;
    }
    frontAndBack
    {
        type            empty;
    }
    procBoundary2to0
    {
        type            processor;
        value           nonuniform List<scalar> 
12
(
2.17573e-11
2.87716e-10
8.85878e-11
3.36817e-11
2.28209e-11
2.05394e-11
1.97038e-11
1.98615e-11
1.9598e-11
1.96814e-11
2.05792e-11
1.9559e-11
)
;
    }
    procBoundary2to3
    {
        type            processor;
        value           nonuniform List<scalar> 
25
(
7.78652e-10
8.79859e-10
7.88774e-10
6.5876e-10
5.3495e-10
4.24914e-10
3.38718e-10
2.7044e-10
2.163e-10
1.74989e-10
1.74989e-10
1.44471e-10
1.17307e-10
9.63457e-11
8.00731e-11
6.73419e-11
5.72967e-11
4.93039e-11
4.28931e-11
3.77126e-11
3.34959e-11
3.0038e-11
2.71769e-11
2.50639e-11
2.31951e-11
)
;
    }
}


// ************************************************************************* //
