/*--------------------------------*- C++ -*----------------------------------*\
| =========                 |                                                 |
| \\      /  F ield         | OpenFOAM: The Open Source CFD Toolbox           |
|  \\    /   O peration     | Version:  dev                                   |
|   \\  /    A nd           | Web:      www.OpenFOAM.org                      |
|    \\/     M anipulation  |                                                 |
\*---------------------------------------------------------------------------*/
FoamFile
{
    version     2.0;
    format      ascii;
    class       volScalarField;
    location    "0.19";
    object      C;
}
// * * * * * * * * * * * * * * * * * * * * * * * * * * * * * * * * * * * * * //

dimensions      [0 0 0 0 0 0 0];

internalField   nonuniform List<scalar> 
250
(
2.58412e-10
1.18888e-06
2.38843e-06
2.49053e-06
2.50017e-06
2.50051e-06
2.50052e-06
2.49475e-06
2.50065e-06
3.82943e-10
1.18194e-06
2.04102e-06
2.11458e-06
2.12217e-06
2.12163e-06
2.12154e-06
2.12105e-06
2.12212e-06
2.12878e-10
5.13367e-07
8.70823e-07
9.04311e-07
9.07885e-07
9.07192e-07
9.07705e-07
9.07475e-07
9.07556e-07
8.89119e-11
1.83152e-07
3.12641e-07
3.26832e-07
3.28245e-07
3.2786e-07
3.28134e-07
3.28093e-07
3.28033e-07
3.4821e-11
6.44091e-08
1.14645e-07
1.21089e-07
1.2191e-07
1.21867e-07
1.21969e-07
1.22005e-07
1.21932e-07
1.45421e-11
2.48477e-08
4.72627e-08
5.11832e-08
5.09803e-08
5.07463e-08
5.08617e-08
5.07615e-08
5.07797e-08
6.45575e-12
1.00795e-08
2.4131e-08
2.67467e-08
2.6669e-08
2.65543e-08
2.66478e-08
2.65572e-08
2.65722e-08
3.6818e-12
5.32393e-09
1.5196e-08
1.72438e-08
1.71959e-08
1.71054e-08
1.71559e-08
1.71033e-08
1.71147e-08
2.95967e-12
3.38599e-09
1.11399e-08
1.28734e-08
1.2998e-08
1.28623e-08
1.28814e-08
1.28517e-08
1.28781e-08
3.96052e-12
2.44382e-09
8.99178e-09
1.05349e-08
1.06741e-08
1.07374e-08
1.07321e-08
1.07237e-08
1.0747e-08
5.59188e-12
2.03011e-09
7.92117e-09
9.35459e-09
9.5006e-09
9.51133e-09
9.47443e-09
9.51148e-09
9.53451e-09
9.46061e-09
8.64995e-12
1.89525e-09
7.20564e-09
8.51243e-09
8.65599e-09
8.64192e-09
8.64178e-09
8.63845e-09
8.6639e-09
8.66947e-09
1.46639e-11
1.88393e-09
6.68616e-09
7.89148e-09
8.04484e-09
8.01418e-09
8.04112e-09
8.00607e-09
8.03594e-09
8.0286e-09
2.63079e-11
1.94897e-09
6.2845e-09
7.39229e-09
7.55203e-09
7.50923e-09
7.56698e-09
7.49526e-09
7.5313e-09
7.51504e-09
4.79454e-11
2.05973e-09
5.94276e-09
6.95606e-09
7.11957e-09
7.06666e-09
7.1237e-09
7.04562e-09
7.0895e-09
7.0669e-09
8.69661e-11
2.19639e-09
5.62889e-09
6.55127e-09
6.71656e-09
6.65455e-09
6.70879e-09
6.62488e-09
6.6783e-09
6.6509e-09
1.54128e-10
2.33168e-09
5.32403e-09
6.16016e-09
6.32553e-09
6.25497e-09
6.31118e-09
6.21443e-09
6.27962e-09
6.24819e-09
2.61322e-10
2.44989e-09
5.01624e-09
5.7722e-09
5.93597e-09
5.85716e-09
5.91722e-09
5.80215e-09
5.88274e-09
5.84761e-09
4.14804e-10
2.5364e-09
4.69671e-09
5.38111e-09
5.54109e-09
5.45436e-09
5.51881e-09
5.43276e-09
5.48103e-09
5.44221e-09
6.06523e-10
2.57837e-09
4.40056e-09
4.98336e-09
5.13632e-09
5.04211e-09
5.11011e-09
5.01025e-09
5.06977e-09
5.02756e-09
8.10995e-10
2.57027e-09
4.09142e-09
4.57609e-09
4.71831e-09
4.61736e-09
4.68793e-09
4.57325e-09
4.64593e-09
4.60072e-09
9.92566e-10
2.51047e-09
3.73517e-09
4.1557e-09
4.28418e-09
4.17774e-09
4.24999e-09
4.17213e-09
4.20716e-09
4.15945e-09
1.1192e-09
2.40212e-09
3.40605e-09
3.7747e-09
3.88615e-09
3.77571e-09
3.84865e-09
3.76505e-09
3.80582e-09
3.75594e-09
1.17363e-09
2.23283e-09
3.06577e-09
3.3637e-09
3.45978e-09
3.33582e-09
3.41361e-09
3.32038e-09
3.36881e-09
3.31434e-09
1.15657e-09
2.02326e-09
2.68947e-09
2.96663e-09
3.04853e-09
2.92296e-09
2.99962e-09
2.90471e-09
2.9563e-09
2.90103e-09
1.08188e-09
1.81919e-09
2.345e-09
2.56529e-09
2.63872e-09
2.51364e-09
2.5881e-09
2.4937e-09
2.54706e-09
2.49196e-09
)
;

boundaryField
{
    fuel
    {
        type            fixedValue;
        value           uniform 0;
    }
    wall
    {
        type            zeroGradient;
    }
    outlet
    {
        type            zeroGradient;
    }
    frontAndBack
    {
        type            empty;
    }
    procBoundary2to0
    {
        type            processor;
        value           nonuniform List<scalar> 
12
(
2.92038e-09
9.67912e-10
1.5978e-09
2.0039e-09
2.17505e-09
2.23658e-09
2.11495e-09
2.18565e-09
2.09419e-09
2.14777e-09
2.51151e-09
2.09401e-09
)
;
    }
    procBoundary2to3
    {
        type            processor;
        value           nonuniform List<scalar> 
25
(
2.49795e-06
2.12221e-06
9.07857e-07
3.28246e-07
1.22057e-07
5.08109e-08
2.65824e-08
1.71167e-08
1.2855e-08
1.07191e-08
1.07191e-08
9.52816e-09
8.65222e-09
8.02112e-09
7.51424e-09
7.07061e-09
6.6577e-09
6.25727e-09
5.85851e-09
5.45471e-09
5.0415e-09
4.61594e-09
4.17575e-09
3.77318e-09
3.33318e-09
)
;
    }
}


// ************************************************************************* //
