/*--------------------------------*- C++ -*----------------------------------*\
| =========                 |                                                 |
| \\      /  F ield         | OpenFOAM: The Open Source CFD Toolbox           |
|  \\    /   O peration     | Version:  dev                                   |
|   \\  /    A nd           | Web:      www.OpenFOAM.org                      |
|    \\/     M anipulation  |                                                 |
\*---------------------------------------------------------------------------*/
FoamFile
{
    version     2.0;
    format      ascii;
    class       volScalarField;
    location    "0.19";
    object      OH;
}
// * * * * * * * * * * * * * * * * * * * * * * * * * * * * * * * * * * * * * //

dimensions      [0 0 0 0 0 0 0];

internalField   nonuniform List<scalar> 
250
(
8.05122e-08
0.000225626
0.000285941
0.000290094
0.000290459
0.000290444
0.000290467
0.00029039
0.000290456
8.35671e-08
0.000195877
0.000245844
0.000249492
0.000249848
0.000249779
0.0002498
0.000249811
0.000249815
6.58696e-08
0.00012755
0.000168164
0.000171481
0.00017179
0.000171712
0.000171761
0.000171754
0.000171742
5.15553e-08
8.05997e-05
0.000113936
0.00011702
0.000117291
0.000117232
0.000117266
0.00011727
0.000117254
4.85634e-08
5.35737e-05
8.20792e-05
8.50031e-05
8.53058e-05
8.52951e-05
8.53152e-05
8.53292e-05
8.53093e-05
5.49218e-08
3.8634e-05
6.35554e-05
6.66012e-05
6.66251e-05
6.65242e-05
6.65843e-05
6.65283e-05
6.65393e-05
5.70695e-08
2.92375e-05
5.30621e-05
5.61118e-05
5.61739e-05
5.6093e-05
5.61596e-05
5.60924e-05
5.61075e-05
5.26135e-08
2.46122e-05
4.68735e-05
4.99573e-05
5.00274e-05
4.99342e-05
4.99779e-05
4.99296e-05
4.9946e-05
5.19044e-08
2.20401e-05
4.29471e-05
4.60323e-05
4.62797e-05
4.61188e-05
4.6136e-05
4.61045e-05
4.614e-05
8.16213e-08
2.0539e-05
4.02637e-05
4.33316e-05
4.36205e-05
4.36964e-05
4.36836e-05
4.36764e-05
4.3713e-05
1.72658e-07
1.99642e-05
3.86669e-05
4.17019e-05
4.20178e-05
4.20257e-05
4.19659e-05
4.20245e-05
4.2065e-05
4.19438e-05
4.02187e-07
2.00052e-05
3.74429e-05
4.03614e-05
4.06883e-05
4.06587e-05
4.06574e-05
4.06511e-05
4.06998e-05
4.07027e-05
8.62716e-07
2.03992e-05
3.64506e-05
3.92559e-05
3.96132e-05
3.95542e-05
3.96046e-05
3.95374e-05
3.95978e-05
3.95787e-05
1.6358e-06
2.10139e-05
3.56131e-05
3.82873e-05
3.86696e-05
3.8586e-05
3.87013e-05
3.85565e-05
3.86325e-05
3.85962e-05
2.7727e-06
2.17378e-05
3.485e-05
3.73834e-05
3.77864e-05
3.76798e-05
3.78005e-05
3.76342e-05
3.77299e-05
3.76798e-05
4.29076e-06
2.24991e-05
3.411e-05
3.64998e-05
3.69204e-05
3.67907e-05
3.69114e-05
3.67244e-05
3.68448e-05
3.67828e-05
6.16335e-06
2.31859e-05
3.3358e-05
3.5607e-05
3.60423e-05
3.58887e-05
3.60192e-05
3.57954e-05
3.59469e-05
3.58735e-05
8.30222e-06
2.37531e-05
3.2567e-05
3.46833e-05
3.51301e-05
3.49509e-05
3.50961e-05
3.48204e-05
3.50138e-05
3.49285e-05
1.05491e-05
2.41577e-05
3.17119e-05
3.37116e-05
3.41653e-05
3.39585e-05
3.41208e-05
3.39043e-05
3.40268e-05
3.39286e-05
1.26984e-05
2.43634e-05
3.08833e-05
3.26775e-05
3.31305e-05
3.28936e-05
3.30731e-05
3.28102e-05
3.29679e-05
3.28559e-05
1.45476e-05
2.43586e-05
2.998e-05
3.15648e-05
3.20077e-05
3.17387e-05
3.19349e-05
3.16184e-05
3.18195e-05
3.16929e-05
1.59463e-05
2.41404e-05
2.88902e-05
3.03516e-05
3.07761e-05
3.04732e-05
3.06865e-05
3.04563e-05
3.05616e-05
3.04195e-05
1.68224e-05
2.37163e-05
2.78221e-05
2.91805e-05
2.95729e-05
2.92371e-05
2.9466e-05
2.92025e-05
2.93333e-05
2.91752e-05
1.71796e-05
2.30237e-05
2.6649e-05
2.78355e-05
2.8199e-05
2.77924e-05
2.80545e-05
2.77392e-05
2.79053e-05
2.77199e-05
1.70787e-05
2.21203e-05
2.52618e-05
2.64368e-05
2.67711e-05
2.63249e-05
2.66038e-05
2.62571e-05
2.6448e-05
2.62444e-05
1.66087e-05
2.11826e-05
2.38826e-05
2.49047e-05
2.52263e-05
2.47406e-05
2.50358e-05
2.46593e-05
2.48749e-05
2.46529e-05
)
;

boundaryField
{
    fuel
    {
        type            fixedValue;
        value           uniform 0;
    }
    wall
    {
        type            zeroGradient;
    }
    outlet
    {
        type            zeroGradient;
    }
    frontAndBack
    {
        type            empty;
    }
    procBoundary2to0
    {
        type            processor;
        value           nonuniform List<scalar> 
12
(
2.63157e-05
1.58514e-05
2.00887e-05
2.23904e-05
2.32692e-05
2.35639e-05
2.30408e-05
2.33506e-05
2.29468e-05
2.31864e-05
2.47317e-05
2.29465e-05
)
;
    }
    procBoundary2to3
    {
        type            processor;
        value           nonuniform List<scalar> 
25
(
0.000290704
0.000249889
0.000171784
0.000117289
8.53399e-05
6.65485e-05
5.6108e-05
4.99399e-05
4.61049e-05
4.3665e-05
4.3665e-05
4.20503e-05
4.06762e-05
3.95677e-05
3.85968e-05
3.7689e-05
3.67986e-05
3.58949e-05
3.4955e-05
3.39602e-05
3.28928e-05
3.17354e-05
3.04679e-05
2.92297e-05
2.77839e-05
)
;
    }
}


// ************************************************************************* //
