/*--------------------------------*- C++ -*----------------------------------*\
| =========                 |                                                 |
| \\      /  F ield         | OpenFOAM: The Open Source CFD Toolbox           |
|  \\    /   O peration     | Version:  dev                                   |
|   \\  /    A nd           | Web:      www.OpenFOAM.org                      |
|    \\/     M anipulation  |                                                 |
\*---------------------------------------------------------------------------*/
FoamFile
{
    version     2.0;
    format      ascii;
    class       volScalarField;
    location    "0.075";
    object      A1C2H-;
}
// * * * * * * * * * * * * * * * * * * * * * * * * * * * * * * * * * * * * * //

dimensions      [0 0 0 0 0 0 0];

internalField   nonuniform List<scalar> 
25
(
3.28857e-11
7.76191e-11
7.24781e-11
4.85352e-11
2.74741e-11
1.43395e-11
7.23734e-12
3.61599e-12
1.77779e-12
8.81794e-13
4.32652e-13
2.13667e-13
1.04589e-13
5.10905e-14
2.50188e-14
1.23112e-14
6.10884e-15
3.07163e-15
1.57544e-15
8.31192e-16
4.55593e-16
2.62229e-16
1.60143e-16
1.04643e-16
7.34522e-17
)
;

boundaryField
{
    wall
    {
        type            zeroGradient;
    }
    fuel
    {
        type            fixedValue;
        value           uniform 0;
    }
    outlet
    {
        type            inletOutlet;
        inletValue      nonuniform 0();
        value           nonuniform 0();
    }
    procBoundary0to1
    {
        type            processor;
        value           uniform 5.62044e-17;
    }
}


// ************************************************************************* //
