/*--------------------------------*- C++ -*----------------------------------*\
| =========                 |                                                 |
| \\      /  F ield         | OpenFOAM: The Open Source CFD Toolbox           |
|  \\    /   O peration     | Version:  dev                                   |
|   \\  /    A nd           | Web:      www.OpenFOAM.org                      |
|    \\/     M anipulation  |                                                 |
\*---------------------------------------------------------------------------*/
FoamFile
{
    version     2.0;
    format      ascii;
    class       volScalarField;
    location    "0.075";
    object      A2R5;
}
// * * * * * * * * * * * * * * * * * * * * * * * * * * * * * * * * * * * * * //

dimensions      [0 0 0 0 0 0 0];

internalField   nonuniform List<scalar> 
25
(
3.50518e-12
3.14989e-12
2.80362e-12
2.49295e-12
2.19801e-12
1.92233e-12
1.67168e-12
1.44754e-12
1.24433e-12
1.06692e-12
9.06785e-13
7.66592e-13
6.40845e-13
5.30376e-13
4.34836e-13
3.53332e-13
2.84817e-13
2.28095e-13
1.81864e-13
1.44789e-13
1.15567e-13
9.29908e-14
7.59929e-14
6.36722e-14
5.53103e-14
)
;

boundaryField
{
    wall
    {
        type            zeroGradient;
    }
    fuel
    {
        type            fixedValue;
        value           uniform 0;
    }
    outlet
    {
        type            inletOutlet;
        inletValue      nonuniform 0();
        value           nonuniform 0();
    }
    procBoundary0to1
    {
        type            processor;
        value           uniform 5.05347e-14;
    }
}


// ************************************************************************* //
