/*--------------------------------*- C++ -*----------------------------------*\
| =========                 |                                                 |
| \\      /  F ield         | OpenFOAM: The Open Source CFD Toolbox           |
|  \\    /   O peration     | Version:  dev                                   |
|   \\  /    A nd           | Web:      www.OpenFOAM.org                      |
|    \\/     M anipulation  |                                                 |
\*---------------------------------------------------------------------------*/
FoamFile
{
    version     2.0;
    format      ascii;
    class       volScalarField;
    location    "0.075";
    object      CH2OH;
}
// * * * * * * * * * * * * * * * * * * * * * * * * * * * * * * * * * * * * * //

dimensions      [0 0 0 0 0 0 0];

internalField   nonuniform List<scalar> 
25
(
4.32164e-07
6.11839e-07
6.1145e-07
5.40485e-07
4.43678e-07
3.44068e-07
2.55546e-07
1.83982e-07
1.28609e-07
8.89576e-08
6.04332e-08
4.08874e-08
2.73251e-08
1.81287e-08
1.19719e-08
7.88096e-09
5.17997e-09
3.40619e-09
2.24642e-09
1.49066e-09
9.99158e-10
6.79599e-10
4.71414e-10
3.35203e-10
2.45712e-10
)
;

boundaryField
{
    wall
    {
        type            zeroGradient;
    }
    fuel
    {
        type            fixedValue;
        value           uniform 0;
    }
    outlet
    {
        type            inletOutlet;
        inletValue      nonuniform 0();
        value           nonuniform 0();
    }
    procBoundary0to1
    {
        type            processor;
        value           uniform 1.83778e-10;
    }
}


// ************************************************************************* //
