/*--------------------------------*- C++ -*----------------------------------*\
| =========                 |                                                 |
| \\      /  F ield         | OpenFOAM: The Open Source CFD Toolbox           |
|  \\    /   O peration     | Version:  dev                                   |
|   \\  /    A nd           | Web:      www.OpenFOAM.org                      |
|    \\/     M anipulation  |                                                 |
\*---------------------------------------------------------------------------*/
FoamFile
{
    version     2.0;
    format      ascii;
    class       volScalarField;
    location    "0.075";
    object      H2;
}
// * * * * * * * * * * * * * * * * * * * * * * * * * * * * * * * * * * * * * //

dimensions      [0 0 0 0 0 0 0];

internalField   nonuniform List<scalar> 
250
(
0.00914716
0.00914717
0.00914809
0.00914637
0.00914464
0.00913901
0.00910907
0.00904682
0.00883607
0.00872411
0.00917619
0.00917617
0.00917707
0.00917536
0.00917367
0.00916818
0.00913909
0.00908026
0.00888539
0.00877389
0.00868397
0.00890272
0.00909446
0.0091646
0.00918782
0.00920182
0.00919888
0.00920502
0.00920075
0.009204
0.00920298
0.00920294
0.00920381
0.00920211
0.00920047
0.00919515
0.00916705
0.00911169
0.00893094
0.00882105
0.00871691
0.00894077
0.00912461
0.00919125
0.00921327
0.00922653
0.00922378
0.00922958
0.00922554
0.00922864
0.00922765
0.00922757
0.00922842
0.00922675
0.00922515
0.00922003
0.00919304
0.0091412
0.00897722
0.00886592
0.00875313
0.00897844
0.00915313
0.00921605
0.00923677
0.00924923
0.00924668
0.00925215
0.00924832
0.00925126
0.0092503
0.00925019
0.00925102
0.00924938
0.00924784
0.00924292
0.00921717
0.00916881
0.0090227
0.00890864
0.00879225
0.00901541
0.00918004
0.00923908
0.00925843
0.00927005
0.00926771
0.00927284
0.00926921
0.00927201
0.00927107
0.00927093
0.00927173
0.00927014
0.00926866
0.00926394
0.00923957
0.00919454
0.00906039
0.00894912
0.00883376
0.00905153
0.00920539
0.00926043
0.00927835
0.0092891
0.00928697
0.00929179
0.00928834
0.00929097
0.00929007
0.0092899
0.00929068
0.00928914
0.00928773
0.00928318
0.00926036
0.00921844
0.00909545
0.00898751
0.00887709
0.00908662
0.00922918
0.00928014
0.00929663
0.00930646
0.00930454
0.00930909
0.00930578
0.00930818
0.00930737
0.0093072
0.00930792
0.00930648
0.00930513
0.00930072
0.00927964
0.00924057
0.00912805
0.00902396
0.00892158
0.00912045
0.00925141
0.00929825
0.00931357
0.00932284
0.00932113
0.00932482
0.00932225
0.00932432
0.0093237
0.00932347
0.00932416
0.00932278
0.00932152
0.00931741
0.00929743
0.00926177
0.00915839
0.00905856
0.00896661
0.00915277
0.009272
0.00931474
0.00932871
0.00933709
0.00933561
0.00933895
0.00933659
0.00933837
0.00933788
0.00933766
0.00933829
0.00933703
0.00933584
0.00933192
0.0093137
0.00928184
0.00918653
0.00909137
0.00901375
0.00918332
0.00929085
0.00932958
0.00934222
0.00934971
0.00934847
0.00935144
0.00934931
0.00935087
0.00935044
0.00935024
0.00935081
0.00934967
0.00934857
0.00934485
0.00932839
0.00929911
0.00921249
0.0091224
0.00905719
0.00921178
0.00930781
0.00934264
0.009354
0.00936062
0.00935962
0.00936219
0.00936033
0.00936166
0.0093613
0.00936111
0.00936163
0.0093606
0.00935959
0.0093561
0.00934137
0.00931462
0.00923625
0.00915158
0.00909839
0.00923788
0.00932271
0.0093538
0.00936392
0.00936969
0.00936894
0.00937109
0.00936951
0.00937061
0.00937032
0.00937015
0.00937061
0.00936971
0.00936879
0.00936554
0.00935252
0.00932821
0.00925775
0.00917879
0.00937737
0.00937723
0.00937763
0.00937685
0.00937603
0.00937304
0.00936168
0.00933972
0.00927686
0.00920387
)
;

boundaryField
{
    fuel
    {
        type            fixedValue;
        value           nonuniform 0();
    }
    wall
    {
        type            zeroGradient;
    }
    outlet
    {
        type            zeroGradient;
    }
    frontAndBack
    {
        type            empty;
    }
    procBoundary0to1
    {
        type            processor;
        value           nonuniform List<scalar> 
21
(
0.00913698
0.00926133
0.00933537
0.0093629
0.00937186
0.00937679
0.00937628
0.009378
0.00937672
0.00937758
0.00937758
0.00938237
0.00938226
0.0093826
0.00938195
0.00938122
0.0093785
0.00936872
0.00934903
0.00929347
0.00922664
)
;
    }
    procBoundary0to2
    {
        type            processor;
        value           nonuniform List<scalar> 
12
(
0.00914821
0.00865445
0.00885956
0.00906264
0.00913599
0.00916031
0.00917498
0.00917186
0.00917831
0.00917384
0.00917723
0.00917723
)
;
    }
    procBoundary0to3
    {
        type            processor;
        value           nonuniform List<scalar> 10(0.00911579 0.00911582 0.00911676 0.00911504 0.0091133 0.00910756 0.00907418 0.00900736 0.00878309 0.00867145);
    }
}


// ************************************************************************* //
