/*--------------------------------*- C++ -*----------------------------------*\
| =========                 |                                                 |
| \\      /  F ield         | OpenFOAM: The Open Source CFD Toolbox           |
|  \\    /   O peration     | Version:  dev                                   |
|   \\  /    A nd           | Web:      www.OpenFOAM.org                      |
|    \\/     M anipulation  |                                                 |
\*---------------------------------------------------------------------------*/
FoamFile
{
    version     2.0;
    format      ascii;
    class       volScalarField;
    location    "0.075";
    object      H2C4O;
}
// * * * * * * * * * * * * * * * * * * * * * * * * * * * * * * * * * * * * * //

dimensions      [0 0 0 0 0 0 0];

internalField   nonuniform List<scalar> 
25
(
4.21728e-08
8.94223e-08
9.3591e-08
7.61703e-08
5.39679e-08
3.47737e-08
2.0975e-08
1.20865e-08
6.66647e-09
3.62051e-09
1.91277e-09
1.00123e-09
5.14644e-10
2.61594e-10
1.31934e-10
6.61019e-11
3.29338e-11
1.63319e-11
8.06876e-12
3.97569e-12
1.95629e-12
9.63025e-13
4.75395e-13
2.35959e-13
1.17795e-13
)
;

boundaryField
{
    wall
    {
        type            zeroGradient;
    }
    fuel
    {
        type            fixedValue;
        value           uniform 0;
    }
    outlet
    {
        type            inletOutlet;
        inletValue      nonuniform 0();
        value           nonuniform 0();
    }
    procBoundary0to1
    {
        type            processor;
        value           uniform 5.88769e-14;
    }
}


// ************************************************************************* //
