/*--------------------------------*- C++ -*----------------------------------*\
| =========                 |                                                 |
| \\      /  F ield         | OpenFOAM: The Open Source CFD Toolbox           |
|  \\    /   O peration     | Version:  dev                                   |
|   \\  /    A nd           | Web:      www.OpenFOAM.org                      |
|    \\/     M anipulation  |                                                 |
\*---------------------------------------------------------------------------*/
FoamFile
{
    version     2.0;
    format      ascii;
    class       volScalarField;
    location    "0.075";
    object      H2O2;
}
// * * * * * * * * * * * * * * * * * * * * * * * * * * * * * * * * * * * * * //

dimensions      [0 0 0 0 0 0 0];

internalField   nonuniform List<scalar> 
25
(
2.11504e-09
2.9831e-09
3.35171e-09
3.46374e-09
3.38976e-09
3.20119e-09
2.97368e-09
2.75463e-09
2.56242e-09
2.40786e-09
2.28123e-09
2.17788e-09
2.08781e-09
2.00658e-09
1.93042e-09
1.85666e-09
1.78372e-09
1.71082e-09
1.63771e-09
1.56449e-09
1.49144e-09
1.41894e-09
1.34736e-09
1.27706e-09
1.20838e-09
)
;

boundaryField
{
    wall
    {
        type            zeroGradient;
    }
    fuel
    {
        type            fixedValue;
        value           uniform 0;
    }
    outlet
    {
        type            inletOutlet;
        inletValue      nonuniform 0();
        value           nonuniform 0();
    }
    procBoundary0to1
    {
        type            processor;
        value           uniform 1.143e-09;
    }
}


// ************************************************************************* //
