/*--------------------------------*- C++ -*----------------------------------*\
| =========                 |                                                 |
| \\      /  F ield         | OpenFOAM: The Open Source CFD Toolbox           |
|  \\    /   O peration     | Version:  dev                                   |
|   \\  /    A nd           | Web:      www.OpenFOAM.org                      |
|    \\/     M anipulation  |                                                 |
\*---------------------------------------------------------------------------*/
FoamFile
{
    version     2.0;
    format      ascii;
    class       volScalarField;
    location    "0.075";
    object      HCCOH;
}
// * * * * * * * * * * * * * * * * * * * * * * * * * * * * * * * * * * * * * //

dimensions      [0 0 0 0 0 0 0];

internalField   nonuniform List<scalar> 
250
(
6.27735e-06
6.28133e-06
6.27275e-06
6.28982e-06
6.30115e-06
6.32682e-06
6.4722e-06
6.53674e-06
6.49624e-06
4.37524e-06
5.99461e-06
5.99922e-06
5.99045e-06
6.0081e-06
6.01947e-06
6.04438e-06
6.19026e-06
6.25933e-06
6.29438e-06
4.57931e-06
6.46314e-06
6.56873e-06
6.0987e-06
5.91183e-06
5.82044e-06
5.72323e-06
5.75658e-06
5.69589e-06
5.73689e-06
5.70191e-06
5.71283e-06
5.71812e-06
5.70911e-06
5.72736e-06
5.73872e-06
5.76273e-06
5.90815e-06
5.97922e-06
6.08166e-06
4.71578e-06
6.2532e-06
6.2636e-06
5.79465e-06
5.62146e-06
5.5348e-06
5.43987e-06
5.47364e-06
5.41226e-06
5.45403e-06
5.41793e-06
5.42942e-06
5.43545e-06
5.42613e-06
5.44497e-06
5.4563e-06
5.47929e-06
5.62343e-06
5.69412e-06
5.83395e-06
4.78332e-06
5.98919e-06
5.94157e-06
5.48501e-06
5.32624e-06
5.24466e-06
5.15219e-06
5.18648e-06
5.12412e-06
5.16699e-06
5.12952e-06
5.14176e-06
5.14851e-06
5.13887e-06
5.15825e-06
5.16951e-06
5.19137e-06
5.33344e-06
5.40194e-06
5.55489e-06
4.78349e-06
5.68244e-06
5.60521e-06
5.16764e-06
5.02362e-06
4.94742e-06
4.85761e-06
4.89247e-06
4.82877e-06
4.87315e-06
4.83414e-06
4.84728e-06
4.85471e-06
4.84477e-06
4.86453e-06
4.87571e-06
4.89645e-06
5.03541e-06
5.10075e-06
5.28667e-06
4.72024e-06
5.34223e-06
5.25521e-06
4.8405e-06
4.71128e-06
4.64063e-06
4.55377e-06
4.58921e-06
4.52373e-06
4.57011e-06
4.52972e-06
4.54367e-06
4.55163e-06
4.54151e-06
4.56141e-06
4.57245e-06
4.59219e-06
4.72677e-06
4.78857e-06
4.99834e-06
4.59709e-06
4.97577e-06
4.89182e-06
4.50182e-06
4.38719e-06
4.3223e-06
4.23897e-06
4.27496e-06
4.20693e-06
4.25615e-06
4.21552e-06
4.22924e-06
4.23754e-06
4.22739e-06
4.24709e-06
4.25795e-06
4.27693e-06
4.40529e-06
4.46409e-06
4.68892e-06
4.41817e-06
4.58854e-06
4.51525e-06
4.15037e-06
4.04982e-06
3.98647e-06
3.90012e-06
3.93711e-06
3.87693e-06
3.91853e-06
3.87826e-06
3.89078e-06
3.90044e-06
3.88999e-06
3.91022e-06
3.92055e-06
3.93605e-06
4.06955e-06
4.11523e-06
4.3576e-06
4.188e-06
4.18482e-06
4.12593e-06
3.78575e-06
3.69862e-06
3.64061e-06
3.55778e-06
3.5952e-06
3.5335e-06
3.57714e-06
3.53713e-06
3.5491e-06
3.55896e-06
3.5486e-06
3.56829e-06
3.57829e-06
3.59257e-06
3.71931e-06
3.74232e-06
4.0047e-06
3.91153e-06
3.75015e-06
3.72472e-06
3.40863e-06
3.33404e-06
3.28122e-06
3.202e-06
3.23969e-06
3.17739e-06
3.22232e-06
3.18173e-06
3.1941e-06
3.20415e-06
3.19385e-06
3.21291e-06
3.22254e-06
3.23533e-06
3.35516e-06
3.37316e-06
3.63208e-06
3.59433e-06
3.32704e-06
3.31354e-06
3.0211e-06
2.95804e-06
2.91037e-06
2.83517e-06
2.87285e-06
2.81088e-06
2.85636e-06
2.81536e-06
2.82817e-06
2.83833e-06
2.8281e-06
2.84643e-06
2.85562e-06
2.86675e-06
2.97907e-06
2.9911e-06
3.24215e-06
3.24287e-06
2.90156e-06
2.8955e-06
2.627e-06
2.5744e-06
2.53193e-06
2.46141e-06
2.49859e-06
2.43808e-06
2.48323e-06
2.4425e-06
2.45542e-06
2.46552e-06
2.45548e-06
2.47285e-06
2.48154e-06
2.49092e-06
2.59484e-06
2.60089e-06
2.83917e-06
2.86488e-06
2.08202e-06
2.09183e-06
2.08218e-06
2.09827e-06
2.10635e-06
2.11397e-06
2.20839e-06
2.20902e-06
2.42962e-06
2.4698e-06
)
;

boundaryField
{
    fuel
    {
        type            fixedValue;
        value           nonuniform 0();
    }
    wall
    {
        type            zeroGradient;
    }
    outlet
    {
        type            zeroGradient;
    }
    frontAndBack
    {
        type            empty;
    }
    procBoundary0to1
    {
        type            processor;
        value           nonuniform List<scalar> 
21
(
2.47776e-06
2.47569e-06
2.23225e-06
2.18903e-06
2.15184e-06
2.08692e-06
2.12289e-06
2.06517e-06
2.10889e-06
2.06942e-06
2.06942e-06
1.71637e-06
1.72558e-06
1.7166e-06
1.73102e-06
1.73838e-06
1.74428e-06
1.82799e-06
1.82422e-06
2.02241e-06
2.069e-06
)
;
    }
    procBoundary0to2
    {
        type            processor;
        value           nonuniform List<scalar> 
12
(
6.26733e-06
6.60775e-06
6.89066e-06
6.39931e-06
6.19993e-06
6.10418e-06
6.00491e-06
6.03796e-06
5.97773e-06
6.01823e-06
5.98416e-06
5.98416e-06
)
;
    }
    procBoundary0to3
    {
        type            processor;
        value           nonuniform List<scalar> 10(6.56339e-06 6.56683e-06 6.55839e-06 6.5749e-06 6.58612e-06 6.61244e-06 6.7794e-06 6.84331e-06 6.6885e-06 4.10782e-06);
    }
}


// ************************************************************************* //
