/*--------------------------------*- C++ -*----------------------------------*\
| =========                 |                                                 |
| \\      /  F ield         | OpenFOAM: The Open Source CFD Toolbox           |
|  \\    /   O peration     | Version:  dev                                   |
|   \\  /    A nd           | Web:      www.OpenFOAM.org                      |
|    \\/     M anipulation  |                                                 |
\*---------------------------------------------------------------------------*/
FoamFile
{
    version     2.0;
    format      ascii;
    class       volScalarField;
    location    "0.075";
    object      HCCOH;
}
// * * * * * * * * * * * * * * * * * * * * * * * * * * * * * * * * * * * * * //

dimensions      [0 0 0 0 0 0 0];

internalField   nonuniform List<scalar> 
25
(
4.41346e-06
7.14616e-06
7.16533e-06
6.15149e-06
4.87334e-06
3.65913e-06
2.64349e-06
1.85443e-06
1.26316e-06
8.5247e-07
5.66179e-07
3.75455e-07
2.46356e-07
1.60885e-07
1.04906e-07
6.84188e-08
4.47085e-08
2.93291e-08
1.93621e-08
1.29028e-08
8.71297e-09
5.98945e-09
4.21248e-09
3.04697e-09
2.27919e-09
)
;

boundaryField
{
    wall
    {
        type            zeroGradient;
    }
    fuel
    {
        type            fixedValue;
        value           uniform 0;
    }
    outlet
    {
        type            inletOutlet;
        inletValue      nonuniform 0();
        value           nonuniform 0();
    }
    procBoundary0to1
    {
        type            processor;
        value           uniform 1.74501e-09;
    }
}


// ************************************************************************* //
