/*--------------------------------*- C++ -*----------------------------------*\
| =========                 |                                                 |
| \\      /  F ield         | OpenFOAM: The Open Source CFD Toolbox           |
|  \\    /   O peration     | Version:  dev                                   |
|   \\  /    A nd           | Web:      www.OpenFOAM.org                      |
|    \\/     M anipulation  |                                                 |
\*---------------------------------------------------------------------------*/
FoamFile
{
    version     2.0;
    format      ascii;
    class       volScalarField;
    location    "0.075";
    object      i-A1C2H2;
}
// * * * * * * * * * * * * * * * * * * * * * * * * * * * * * * * * * * * * * //

dimensions      [0 0 0 0 0 0 0];

internalField   nonuniform List<scalar> 
2014
(
4.41123e-11
4.43718e-11
4.46095e-11
4.47291e-11
4.47611e-11
4.47862e-11
4.47705e-11
4.47777e-11
4.47646e-11
4.47694e-11
4.47618e-11
4.47656e-11
4.47607e-11
4.47636e-11
4.47604e-11
4.47627e-11
4.47604e-11
4.47623e-11
4.47608e-11
4.4762e-11
4.4761e-11
4.47617e-11
4.47612e-11
4.47615e-11
4.47614e-11
4.47614e-11
4.47615e-11
4.47612e-11
4.47617e-11
4.47611e-11
4.4762e-11
4.47608e-11
4.47623e-11
4.47605e-11
4.47627e-11
4.47604e-11
4.47636e-11
4.47607e-11
4.47656e-11
4.47618e-11
4.47695e-11
4.47646e-11
4.47777e-11
4.47705e-11
4.47862e-11
4.47611e-11
4.47291e-11
4.46094e-11
4.43718e-11
4.41123e-11
4.21723e-11
4.24211e-11
4.26457e-11
4.27591e-11
4.27902e-11
4.2814e-11
4.27994e-11
4.2806e-11
4.27937e-11
4.27981e-11
4.27909e-11
4.27944e-11
4.27898e-11
4.27925e-11
4.27895e-11
4.27916e-11
4.27895e-11
4.27912e-11
4.27899e-11
4.2791e-11
4.27901e-11
4.27907e-11
4.27902e-11
4.27905e-11
4.27904e-11
4.27904e-11
4.27905e-11
4.27902e-11
4.27907e-11
4.27901e-11
4.2791e-11
4.27899e-11
4.27912e-11
4.27896e-11
4.27916e-11
4.27895e-11
4.27925e-11
4.27898e-11
4.27944e-11
4.27909e-11
4.27981e-11
4.27937e-11
4.2806e-11
4.27994e-11
4.2814e-11
4.27902e-11
4.27591e-11
4.26457e-11
4.24211e-11
4.21723e-11
4.03941e-11
4.06332e-11
4.08453e-11
4.09529e-11
4.09829e-11
4.10055e-11
4.0992e-11
4.0998e-11
4.09865e-11
4.09904e-11
4.09837e-11
4.09869e-11
4.09826e-11
4.0985e-11
4.09823e-11
4.09842e-11
4.09823e-11
4.09839e-11
4.09826e-11
4.09836e-11
4.09828e-11
4.09834e-11
4.09829e-11
4.09832e-11
4.09831e-11
4.09831e-11
4.09832e-11
4.09829e-11
4.09834e-11
4.09828e-11
4.09836e-11
4.09826e-11
4.09839e-11
4.09823e-11
4.09842e-11
4.09823e-11
4.0985e-11
4.09826e-11
4.09869e-11
4.09837e-11
4.09904e-11
4.09865e-11
4.0998e-11
4.0992e-11
4.10055e-11
4.09829e-11
4.09528e-11
4.08452e-11
4.06332e-11
4.03941e-11
3.87603e-11
3.89906e-11
3.91905e-11
3.92927e-11
3.93217e-11
3.93432e-11
3.93307e-11
3.93361e-11
3.93254e-11
3.93289e-11
3.93226e-11
3.93255e-11
3.93215e-11
3.93237e-11
3.93212e-11
3.9323e-11
3.93212e-11
3.93226e-11
3.93215e-11
3.93224e-11
3.93217e-11
3.93222e-11
3.93218e-11
3.93221e-11
3.93219e-11
3.93219e-11
3.93221e-11
3.93218e-11
3.93222e-11
3.93217e-11
3.93224e-11
3.93215e-11
3.93226e-11
3.93212e-11
3.9323e-11
3.93212e-11
3.93237e-11
3.93215e-11
3.93255e-11
3.93226e-11
3.93289e-11
3.93254e-11
3.93361e-11
3.93307e-11
3.93432e-11
3.93217e-11
3.92927e-11
3.91905e-11
3.89906e-11
3.87603e-11
3.72556e-11
3.74775e-11
3.76667e-11
3.77634e-11
3.77912e-11
3.78118e-11
3.78001e-11
3.78051e-11
3.77951e-11
3.77982e-11
3.77923e-11
3.77949e-11
3.77912e-11
3.77932e-11
3.77908e-11
3.77925e-11
3.77908e-11
3.77922e-11
3.77911e-11
3.7792e-11
3.77913e-11
3.77918e-11
3.77914e-11
3.77917e-11
3.77915e-11
3.77915e-11
3.77917e-11
3.77914e-11
3.77918e-11
3.77913e-11
3.7792e-11
3.77911e-11
3.77922e-11
3.77909e-11
3.77925e-11
3.77909e-11
3.77932e-11
3.77912e-11
3.77949e-11
3.77923e-11
3.77982e-11
3.77951e-11
3.78051e-11
3.78001e-11
3.78117e-11
3.77912e-11
3.77633e-11
3.76667e-11
3.74775e-11
3.72556e-11
3.58669e-11
3.60809e-11
3.62599e-11
3.63513e-11
3.63781e-11
3.63977e-11
3.63869e-11
3.63914e-11
3.6382e-11
3.63848e-11
3.63793e-11
3.63817e-11
3.63782e-11
3.63801e-11
3.63779e-11
3.63794e-11
3.63779e-11
3.63792e-11
3.63781e-11
3.6379e-11
3.63783e-11
3.63788e-11
3.63784e-11
3.63787e-11
3.63785e-11
3.63785e-11
3.63787e-11
3.63784e-11
3.63788e-11
3.63783e-11
3.6379e-11
3.63781e-11
3.63792e-11
3.63779e-11
3.63794e-11
3.63779e-11
3.63801e-11
3.63782e-11
3.63817e-11
3.63793e-11
3.63848e-11
3.6382e-11
3.63914e-11
3.63869e-11
3.63977e-11
3.63781e-11
3.63513e-11
3.62599e-11
3.60809e-11
3.58669e-11
3.45825e-11
3.4789e-11
3.49584e-11
3.50448e-11
3.50705e-11
3.50892e-11
3.50792e-11
3.50833e-11
3.50746e-11
3.50771e-11
3.50719e-11
3.5074e-11
3.50708e-11
3.50725e-11
3.50705e-11
3.50719e-11
3.50705e-11
3.50717e-11
3.50707e-11
3.50715e-11
3.50709e-11
3.50714e-11
3.5071e-11
3.50712e-11
3.50711e-11
3.50711e-11
3.50712e-11
3.5071e-11
3.50714e-11
3.50709e-11
3.50715e-11
3.50707e-11
3.50717e-11
3.50705e-11
3.50719e-11
3.50705e-11
3.50726e-11
3.50708e-11
3.50741e-11
3.50719e-11
3.50771e-11
3.50746e-11
3.50833e-11
3.50792e-11
3.50892e-11
3.50705e-11
3.50448e-11
3.49583e-11
3.4789e-11
3.45825e-11
3.33921e-11
3.35915e-11
3.37517e-11
3.38336e-11
3.38582e-11
3.3876e-11
3.38667e-11
3.38705e-11
3.38623e-11
3.38645e-11
3.38597e-11
3.38617e-11
3.38586e-11
3.38603e-11
3.38583e-11
3.38597e-11
3.38583e-11
3.38595e-11
3.38586e-11
3.38593e-11
3.38587e-11
3.38592e-11
3.38588e-11
3.3859e-11
3.38589e-11
3.38589e-11
3.3859e-11
3.38588e-11
3.38592e-11
3.38587e-11
3.38593e-11
3.38586e-11
3.38595e-11
3.38583e-11
3.38597e-11
3.38583e-11
3.38603e-11
3.38587e-11
3.38617e-11
3.38597e-11
3.38646e-11
3.38623e-11
3.38705e-11
3.38667e-11
3.3876e-11
3.38582e-11
3.38335e-11
3.37517e-11
3.35915e-11
3.33921e-11
3.22868e-11
3.24793e-11
3.26309e-11
3.27084e-11
3.2732e-11
3.2749e-11
3.27404e-11
3.27439e-11
3.27362e-11
3.27382e-11
3.27337e-11
3.27355e-11
3.27326e-11
3.27341e-11
3.27323e-11
3.27336e-11
3.27323e-11
3.27334e-11
3.27326e-11
3.27333e-11
3.27327e-11
3.27331e-11
3.27328e-11
3.2733e-11
3.27329e-11
3.27329e-11
3.2733e-11
3.27328e-11
3.27332e-11
3.27327e-11
3.27333e-11
3.27326e-11
3.27334e-11
3.27324e-11
3.27336e-11
3.27323e-11
3.27342e-11
3.27327e-11
3.27355e-11
3.27337e-11
3.27382e-11
3.27362e-11
3.27439e-11
3.27404e-11
3.2749e-11
3.2732e-11
3.27083e-11
3.26308e-11
3.24793e-11
3.22868e-11
3.12587e-11
3.14444e-11
3.15879e-11
3.16613e-11
3.16839e-11
3.17002e-11
3.16922e-11
3.16954e-11
3.16882e-11
3.16901e-11
3.16858e-11
3.16875e-11
3.16848e-11
3.16862e-11
3.16845e-11
3.16857e-11
3.16846e-11
3.16856e-11
3.16848e-11
3.16855e-11
3.16849e-11
3.16853e-11
3.1685e-11
3.16852e-11
3.16851e-11
3.16851e-11
3.16852e-11
3.1685e-11
3.16853e-11
3.16849e-11
3.16855e-11
3.16848e-11
3.16856e-11
3.16846e-11
3.16857e-11
3.16845e-11
3.16862e-11
3.16848e-11
3.16875e-11
3.16858e-11
3.16901e-11
3.16882e-11
3.16954e-11
3.16922e-11
3.17001e-11
3.16839e-11
3.16613e-11
3.15879e-11
3.14444e-11
3.12587e-11
3.03009e-11
3.04798e-11
3.06158e-11
3.06853e-11
3.0707e-11
3.07225e-11
3.07151e-11
3.07181e-11
3.07114e-11
3.07131e-11
3.07091e-11
3.07107e-11
3.07082e-11
3.07095e-11
3.07079e-11
3.0709e-11
3.07079e-11
3.07089e-11
3.07082e-11
3.07088e-11
3.07083e-11
3.07087e-11
3.07084e-11
3.07086e-11
3.07085e-11
3.07085e-11
3.07086e-11
3.07084e-11
3.07087e-11
3.07083e-11
3.07088e-11
3.07082e-11
3.07089e-11
3.0708e-11
3.0709e-11
3.07079e-11
3.07095e-11
3.07082e-11
3.07107e-11
3.07091e-11
3.07131e-11
3.07114e-11
3.07181e-11
3.07151e-11
3.07225e-11
3.0707e-11
3.06853e-11
3.06157e-11
3.04798e-11
3.03009e-11
2.94073e-11
2.95793e-11
2.97083e-11
2.97742e-11
2.9795e-11
2.98098e-11
2.9803e-11
2.98058e-11
2.97996e-11
2.98011e-11
2.97974e-11
2.97988e-11
2.97965e-11
2.97977e-11
2.97962e-11
2.97973e-11
2.97963e-11
2.97972e-11
2.97965e-11
2.97971e-11
2.97967e-11
2.9797e-11
2.97968e-11
2.9797e-11
2.97969e-11
2.97969e-11
2.9797e-11
2.97968e-11
2.9797e-11
2.97967e-11
2.97971e-11
2.97965e-11
2.97972e-11
2.97963e-11
2.97973e-11
2.97963e-11
2.97977e-11
2.97965e-11
2.97988e-11
2.97974e-11
2.98011e-11
2.97996e-11
2.98058e-11
2.9803e-11
2.98098e-11
2.9795e-11
2.97742e-11
2.97082e-11
2.95793e-11
2.94073e-11
2.85725e-11
2.87375e-11
2.886e-11
2.89225e-11
2.89425e-11
2.89567e-11
2.89504e-11
2.89531e-11
2.89472e-11
2.89486e-11
2.89452e-11
2.89465e-11
2.89443e-11
2.89455e-11
2.89441e-11
2.89451e-11
2.89442e-11
2.8945e-11
2.89444e-11
2.8945e-11
2.89446e-11
2.89449e-11
2.89446e-11
2.89448e-11
2.89448e-11
2.89448e-11
2.89448e-11
2.89446e-11
2.89449e-11
2.89446e-11
2.8945e-11
2.89444e-11
2.8945e-11
2.89442e-11
2.89451e-11
2.89441e-11
2.89455e-11
2.89443e-11
2.89465e-11
2.89452e-11
2.89486e-11
2.89472e-11
2.89531e-11
2.89504e-11
2.89566e-11
2.89425e-11
2.89225e-11
2.88599e-11
2.87375e-11
2.85725e-11
2.77916e-11
2.79495e-11
2.8066e-11
2.81254e-11
2.81446e-11
2.81582e-11
2.81525e-11
2.8155e-11
2.81496e-11
2.81509e-11
2.81476e-11
2.81489e-11
2.81469e-11
2.8148e-11
2.81467e-11
2.81477e-11
2.81468e-11
2.81476e-11
2.8147e-11
2.81476e-11
2.81472e-11
2.81475e-11
2.81472e-11
2.81474e-11
2.81473e-11
2.81473e-11
2.81474e-11
2.81472e-11
2.81475e-11
2.81472e-11
2.81476e-11
2.8147e-11
2.81476e-11
2.81468e-11
2.81477e-11
2.81467e-11
2.8148e-11
2.81469e-11
2.81489e-11
2.81477e-11
2.81509e-11
2.81496e-11
2.8155e-11
2.81525e-11
2.81582e-11
2.81446e-11
2.81254e-11
2.8066e-11
2.79495e-11
2.77916e-11
2.70604e-11
2.72112e-11
2.73223e-11
2.73787e-11
2.7397e-11
2.74101e-11
2.74049e-11
2.74073e-11
2.74023e-11
2.74035e-11
2.74005e-11
2.74017e-11
2.73999e-11
2.74009e-11
2.73997e-11
2.74006e-11
2.73998e-11
2.74006e-11
2.74001e-11
2.74006e-11
2.74002e-11
2.74005e-11
2.74003e-11
2.74005e-11
2.74004e-11
2.74004e-11
2.74005e-11
2.74003e-11
2.74005e-11
2.74002e-11
2.74006e-11
2.74001e-11
2.74006e-11
2.73998e-11
2.74006e-11
2.73997e-11
2.74009e-11
2.73999e-11
2.74017e-11
2.74006e-11
2.74035e-11
2.74023e-11
2.74073e-11
2.74049e-11
2.74101e-11
2.7397e-11
2.73787e-11
2.73222e-11
2.72112e-11
2.70604e-11
2.63752e-11
2.65189e-11
2.66248e-11
2.66786e-11
2.66961e-11
2.67087e-11
2.6704e-11
2.67064e-11
2.67017e-11
2.67029e-11
2.67001e-11
2.67012e-11
2.66995e-11
2.67005e-11
2.66994e-11
2.67003e-11
2.66996e-11
2.67003e-11
2.66998e-11
2.67003e-11
2.67e-11
2.67003e-11
2.67e-11
2.67002e-11
2.67001e-11
2.67001e-11
2.67002e-11
2.67001e-11
2.67003e-11
2.67e-11
2.67003e-11
2.66998e-11
2.67003e-11
2.66996e-11
2.67003e-11
2.66994e-11
2.67005e-11
2.66995e-11
2.67013e-11
2.67001e-11
2.67029e-11
2.67017e-11
2.67064e-11
2.6704e-11
2.67087e-11
2.66961e-11
2.66786e-11
2.66248e-11
2.65189e-11
2.63752e-11
2.57326e-11
2.58692e-11
2.59705e-11
2.60217e-11
2.60385e-11
2.60507e-11
2.60465e-11
2.60487e-11
2.60445e-11
2.60456e-11
2.60431e-11
2.60441e-11
2.60426e-11
2.60435e-11
2.60425e-11
2.60434e-11
2.60427e-11
2.60434e-11
2.60429e-11
2.60434e-11
2.60431e-11
2.60434e-11
2.60432e-11
2.60433e-11
2.60433e-11
2.60433e-11
2.60433e-11
2.60432e-11
2.60434e-11
2.60431e-11
2.60434e-11
2.60429e-11
2.60434e-11
2.60427e-11
2.60434e-11
2.60425e-11
2.60435e-11
2.60426e-11
2.60441e-11
2.60431e-11
2.60456e-11
2.60445e-11
2.60487e-11
2.60465e-11
2.60507e-11
2.60385e-11
2.60216e-11
2.59704e-11
2.58693e-11
2.57326e-11
2.51296e-11
2.52594e-11
2.53562e-11
2.5405e-11
2.54212e-11
2.5433e-11
2.54293e-11
2.54315e-11
2.54276e-11
2.54287e-11
2.54264e-11
2.54274e-11
2.5426e-11
2.54269e-11
2.5426e-11
2.54268e-11
2.54262e-11
2.54269e-11
2.54265e-11
2.54269e-11
2.54266e-11
2.54269e-11
2.54267e-11
2.54269e-11
2.54268e-11
2.54268e-11
2.54269e-11
2.54267e-11
2.54269e-11
2.54266e-11
2.54269e-11
2.54265e-11
2.54269e-11
2.54262e-11
2.54268e-11
2.5426e-11
2.54269e-11
2.5426e-11
2.54274e-11
2.54264e-11
2.54287e-11
2.54276e-11
2.54315e-11
2.54293e-11
2.5433e-11
2.54212e-11
2.5405e-11
2.53562e-11
2.52594e-11
2.51296e-11
2.45636e-11
2.46867e-11
2.47795e-11
2.4826e-11
2.48416e-11
2.48531e-11
2.48499e-11
2.48521e-11
2.48486e-11
2.48496e-11
2.48475e-11
2.48485e-11
2.48472e-11
2.48481e-11
2.48473e-11
2.48481e-11
2.48475e-11
2.48482e-11
2.48478e-11
2.48482e-11
2.4848e-11
2.48482e-11
2.4848e-11
2.48482e-11
2.48481e-11
2.48481e-11
2.48482e-11
2.48481e-11
2.48482e-11
2.4848e-11
2.48482e-11
2.48478e-11
2.48482e-11
2.48475e-11
2.48481e-11
2.48473e-11
2.48482e-11
2.48472e-11
2.48485e-11
2.48475e-11
2.48497e-11
2.48486e-11
2.48521e-11
2.48499e-11
2.48531e-11
2.48416e-11
2.4826e-11
2.47794e-11
2.46868e-11
2.45636e-11
2.40323e-11
2.41489e-11
2.42381e-11
2.42824e-11
2.42975e-11
2.43086e-11
2.43059e-11
2.43081e-11
2.43049e-11
2.4306e-11
2.43041e-11
2.43051e-11
2.43039e-11
2.43048e-11
2.43041e-11
2.43048e-11
2.43043e-11
2.4305e-11
2.43046e-11
2.4305e-11
2.43048e-11
2.4305e-11
2.43049e-11
2.4305e-11
2.4305e-11
2.4305e-11
2.4305e-11
2.43049e-11
2.4305e-11
2.43048e-11
2.4305e-11
2.43046e-11
2.4305e-11
2.43043e-11
2.43049e-11
2.43041e-11
2.43048e-11
2.4304e-11
2.43051e-11
2.43041e-11
2.4306e-11
2.43049e-11
2.43081e-11
2.43059e-11
2.43086e-11
2.42975e-11
2.42824e-11
2.4238e-11
2.41489e-11
2.40323e-11
2.35336e-11
2.3644e-11
2.37297e-11
2.3772e-11
2.37867e-11
2.37975e-11
2.37952e-11
2.37975e-11
2.37947e-11
2.37958e-11
2.37941e-11
2.37951e-11
2.37941e-11
2.3795e-11
2.37943e-11
2.3795e-11
2.37946e-11
2.37952e-11
2.37949e-11
2.37953e-11
2.3795e-11
2.37953e-11
2.37951e-11
2.37953e-11
2.37952e-11
2.37952e-11
2.37953e-11
2.37951e-11
2.37953e-11
2.3795e-11
2.37953e-11
2.37949e-11
2.37952e-11
2.37946e-11
2.3795e-11
2.37943e-11
2.3795e-11
2.37941e-11
2.37951e-11
2.37942e-11
2.37958e-11
2.37947e-11
2.37975e-11
2.37952e-11
2.37975e-11
2.37867e-11
2.3772e-11
2.37297e-11
2.3644e-11
2.35335e-11
2.30656e-11
2.31703e-11
2.32527e-11
2.32931e-11
2.33074e-11
2.33179e-11
2.33162e-11
2.33185e-11
2.33161e-11
2.33172e-11
2.33157e-11
2.33167e-11
2.33158e-11
2.33167e-11
2.33161e-11
2.33168e-11
2.33164e-11
2.3317e-11
2.33167e-11
2.33171e-11
2.33169e-11
2.33171e-11
2.3317e-11
2.33171e-11
2.33171e-11
2.33171e-11
2.33171e-11
2.3317e-11
2.33171e-11
2.33169e-11
2.33171e-11
2.33167e-11
2.3317e-11
2.33164e-11
2.33168e-11
2.33161e-11
2.33167e-11
2.33158e-11
2.33167e-11
2.33157e-11
2.33172e-11
2.33161e-11
2.33185e-11
2.33162e-11
2.33179e-11
2.33074e-11
2.3293e-11
2.32526e-11
2.31704e-11
2.30656e-11
2.26268e-11
2.27262e-11
2.28052e-11
2.28439e-11
2.28579e-11
2.28683e-11
2.2867e-11
2.28694e-11
2.28674e-11
2.28686e-11
2.28673e-11
2.28683e-11
2.28675e-11
2.28684e-11
2.28679e-11
2.28686e-11
2.28682e-11
2.28688e-11
2.28685e-11
2.28689e-11
2.28687e-11
2.2869e-11
2.28689e-11
2.2869e-11
2.28689e-11
2.28689e-11
2.2869e-11
2.28689e-11
2.2869e-11
2.28687e-11
2.28689e-11
2.28685e-11
2.28688e-11
2.28682e-11
2.28686e-11
2.28679e-11
2.28684e-11
2.28675e-11
2.28683e-11
2.28673e-11
2.28686e-11
2.28674e-11
2.28694e-11
2.2867e-11
2.28682e-11
2.28579e-11
2.28439e-11
2.28051e-11
2.27262e-11
2.26268e-11
2.22158e-11
2.23102e-11
2.23859e-11
2.24231e-11
2.2437e-11
2.24471e-11
2.24464e-11
2.24489e-11
2.24472e-11
2.24484e-11
2.24474e-11
2.24484e-11
2.24478e-11
2.24486e-11
2.24482e-11
2.24489e-11
2.24486e-11
2.24492e-11
2.24489e-11
2.24493e-11
2.24491e-11
2.24494e-11
2.24493e-11
2.24494e-11
2.24493e-11
2.24493e-11
2.24494e-11
2.24493e-11
2.24494e-11
2.24492e-11
2.24493e-11
2.24489e-11
2.24492e-11
2.24486e-11
2.24489e-11
2.24482e-11
2.24486e-11
2.24478e-11
2.24484e-11
2.24474e-11
2.24485e-11
2.24472e-11
2.24489e-11
2.24464e-11
2.24471e-11
2.2437e-11
2.24231e-11
2.23858e-11
2.23102e-11
2.22158e-11
2.18314e-11
2.19211e-11
2.19935e-11
2.20295e-11
2.20433e-11
2.20532e-11
2.2053e-11
2.20556e-11
2.20543e-11
2.20557e-11
2.20548e-11
2.20559e-11
2.20554e-11
2.20562e-11
2.20559e-11
2.20566e-11
2.20563e-11
2.20569e-11
2.20567e-11
2.20571e-11
2.20569e-11
2.20571e-11
2.2057e-11
2.20571e-11
2.20571e-11
2.20571e-11
2.20571e-11
2.2057e-11
2.20571e-11
2.20569e-11
2.20571e-11
2.20567e-11
2.20569e-11
2.20563e-11
2.20566e-11
2.20559e-11
2.20562e-11
2.20554e-11
2.20559e-11
2.20549e-11
2.20557e-11
2.20543e-11
2.20556e-11
2.2053e-11
2.20532e-11
2.20433e-11
2.20295e-11
2.19935e-11
2.19211e-11
2.18314e-11
2.1485e-11
2.15708e-11
2.16401e-11
2.16752e-11
2.16889e-11
2.16987e-11
2.1699e-11
2.17017e-11
2.17008e-11
2.17022e-11
2.17016e-11
2.17027e-11
2.17023e-11
2.17031e-11
2.17029e-11
2.17035e-11
2.17033e-11
2.17039e-11
2.17037e-11
2.17041e-11
2.1704e-11
2.17042e-11
2.17041e-11
2.17042e-11
2.17042e-11
2.17042e-11
2.17042e-11
2.17041e-11
2.17042e-11
2.1704e-11
2.17041e-11
2.17037e-11
2.17039e-11
2.17033e-11
2.17036e-11
2.17029e-11
2.17031e-11
2.17023e-11
2.17027e-11
2.17016e-11
2.17022e-11
2.17008e-11
2.17018e-11
2.1699e-11
2.16987e-11
2.16889e-11
2.16752e-11
2.16401e-11
2.15708e-11
2.1485e-11
2.11584e-11
2.12409e-11
2.13062e-11
2.13398e-11
2.13527e-11
2.13618e-11
2.13621e-11
2.13648e-11
2.1364e-11
2.13654e-11
2.13648e-11
2.13659e-11
2.13655e-11
2.13664e-11
2.13662e-11
2.13668e-11
2.13667e-11
2.13672e-11
2.13671e-11
2.13674e-11
2.13673e-11
2.13675e-11
2.13674e-11
2.13675e-11
2.13675e-11
2.13675e-11
2.13675e-11
2.13674e-11
2.13675e-11
2.13673e-11
2.13674e-11
2.13671e-11
2.13672e-11
2.13667e-11
2.13669e-11
2.13662e-11
2.13664e-11
2.13656e-11
2.13659e-11
2.13648e-11
2.13654e-11
2.1364e-11
2.13648e-11
2.13621e-11
2.13618e-11
2.13527e-11
2.13398e-11
2.13061e-11
2.12409e-11
2.11584e-11
2.08489e-11
2.09276e-11
2.09898e-11
2.10227e-11
2.10357e-11
2.10446e-11
2.10454e-11
2.10483e-11
2.10478e-11
2.10494e-11
2.1049e-11
2.10501e-11
2.10499e-11
2.10508e-11
2.10506e-11
2.10513e-11
2.10512e-11
2.10517e-11
2.10516e-11
2.10519e-11
2.10518e-11
2.1052e-11
2.1052e-11
2.10521e-11
2.1052e-11
2.1052e-11
2.10521e-11
2.1052e-11
2.1052e-11
2.10518e-11
2.10519e-11
2.10516e-11
2.10517e-11
2.10512e-11
2.10513e-11
2.10506e-11
2.10508e-11
2.10499e-11
2.10501e-11
2.1049e-11
2.10494e-11
2.10479e-11
2.10483e-11
2.10454e-11
2.10446e-11
2.10357e-11
2.10227e-11
2.09898e-11
2.09276e-11
2.08489e-11
2.05621e-11
2.06372e-11
2.06967e-11
2.07289e-11
2.07421e-11
2.07508e-11
2.07522e-11
2.07553e-11
2.07552e-11
2.07568e-11
2.07567e-11
2.07579e-11
2.07578e-11
2.07587e-11
2.07586e-11
2.07593e-11
2.07592e-11
2.07597e-11
2.07596e-11
2.07599e-11
2.07599e-11
2.07601e-11
2.076e-11
2.07601e-11
2.07601e-11
2.07601e-11
2.07601e-11
2.076e-11
2.07601e-11
2.07599e-11
2.076e-11
2.07596e-11
2.07597e-11
2.07592e-11
2.07593e-11
2.07586e-11
2.07587e-11
2.07578e-11
2.07579e-11
2.07567e-11
2.07568e-11
2.07552e-11
2.07553e-11
2.07522e-11
2.07508e-11
2.07421e-11
2.07289e-11
2.06967e-11
2.06372e-11
2.05621e-11
2.02975e-11
2.03691e-11
2.04263e-11
2.04579e-11
2.04713e-11
2.04798e-11
2.04818e-11
2.04851e-11
2.04854e-11
2.04871e-11
2.04872e-11
2.04885e-11
2.04885e-11
2.04894e-11
2.04894e-11
2.04901e-11
2.04901e-11
2.04906e-11
2.04905e-11
2.04909e-11
2.04908e-11
2.0491e-11
2.04909e-11
2.0491e-11
2.0491e-11
2.0491e-11
2.0491e-11
2.0491e-11
2.0491e-11
2.04908e-11
2.04909e-11
2.04905e-11
2.04906e-11
2.04901e-11
2.04901e-11
2.04894e-11
2.04894e-11
2.04885e-11
2.04885e-11
2.04873e-11
2.04872e-11
2.04854e-11
2.04851e-11
2.04818e-11
2.04798e-11
2.04713e-11
2.04579e-11
2.04263e-11
2.03691e-11
2.02975e-11
2.00546e-11
2.01229e-11
2.0178e-11
2.0209e-11
2.02228e-11
2.02312e-11
2.02337e-11
2.02372e-11
2.02379e-11
2.02398e-11
2.02402e-11
2.02415e-11
2.02416e-11
2.02426e-11
2.02427e-11
2.02433e-11
2.02434e-11
2.02439e-11
2.02438e-11
2.02442e-11
2.02441e-11
2.02443e-11
2.02443e-11
2.02444e-11
2.02444e-11
2.02444e-11
2.02444e-11
2.02443e-11
2.02443e-11
2.02441e-11
2.02442e-11
2.02438e-11
2.02439e-11
2.02434e-11
2.02433e-11
2.02427e-11
2.02426e-11
2.02416e-11
2.02415e-11
2.02402e-11
2.02398e-11
2.02379e-11
2.02372e-11
2.02337e-11
2.02312e-11
2.02228e-11
2.0209e-11
2.0178e-11
2.01229e-11
2.00546e-11
1.98407e-11
1.99061e-11
1.99595e-11
1.99901e-11
2.00042e-11
2.00124e-11
2.00155e-11
2.00192e-11
2.00203e-11
2.00224e-11
2.00229e-11
2.00243e-11
2.00246e-11
2.00255e-11
2.00257e-11
2.00264e-11
2.00265e-11
2.0027e-11
2.0027e-11
2.00273e-11
2.00273e-11
2.00274e-11
2.00274e-11
2.00275e-11
2.00275e-11
2.00275e-11
2.00275e-11
2.00274e-11
2.00275e-11
2.00273e-11
2.00273e-11
2.0027e-11
2.0027e-11
2.00265e-11
2.00264e-11
2.00257e-11
2.00255e-11
2.00246e-11
2.00243e-11
2.00229e-11
2.00224e-11
2.00203e-11
2.00193e-11
2.00155e-11
2.00124e-11
2.00042e-11
1.999e-11
1.99595e-11
1.99061e-11
1.98407e-11
1.96473e-11
1.97098e-11
1.9762e-11
1.97921e-11
1.98068e-11
1.98147e-11
1.98183e-11
1.98222e-11
1.98234e-11
1.98254e-11
1.9826e-11
1.98274e-11
1.98277e-11
1.98287e-11
1.98289e-11
1.98296e-11
1.98297e-11
1.98301e-11
1.98302e-11
1.98305e-11
1.98305e-11
1.98307e-11
1.98306e-11
1.98307e-11
1.98307e-11
1.98307e-11
1.98307e-11
1.98306e-11
1.98307e-11
1.98305e-11
1.98305e-11
1.98302e-11
1.98301e-11
1.98297e-11
1.98296e-11
1.98289e-11
1.98287e-11
1.98278e-11
1.98274e-11
1.98261e-11
1.98255e-11
1.98234e-11
1.98222e-11
1.98183e-11
1.98147e-11
1.98067e-11
1.97921e-11
1.97619e-11
1.97098e-11
1.96473e-11
1.94683e-11
1.95283e-11
1.9579e-11
1.96087e-11
1.96238e-11
1.96314e-11
1.96356e-11
1.96397e-11
1.96412e-11
1.96434e-11
1.96442e-11
1.96456e-11
1.9646e-11
1.9647e-11
1.96473e-11
1.96479e-11
1.96481e-11
1.96486e-11
1.96486e-11
1.96489e-11
1.96489e-11
1.96491e-11
1.96491e-11
1.96492e-11
1.96492e-11
1.96492e-11
1.96492e-11
1.96491e-11
1.96491e-11
1.96489e-11
1.96489e-11
1.96486e-11
1.96486e-11
1.96481e-11
1.96479e-11
1.96473e-11
1.9647e-11
1.9646e-11
1.96456e-11
1.96442e-11
1.96434e-11
1.96412e-11
1.96398e-11
1.96356e-11
1.96314e-11
1.96238e-11
1.96087e-11
1.9579e-11
1.95283e-11
1.94683e-11
1.93086e-11
1.93657e-11
1.94156e-11
1.9445e-11
1.94609e-11
1.94742e-11
1.9479e-11
1.94834e-11
1.94853e-11
1.94876e-11
1.94886e-11
1.949e-11
1.94906e-11
1.94916e-11
1.9492e-11
1.94927e-11
1.94928e-11
1.94933e-11
1.94934e-11
1.94937e-11
1.94937e-11
1.94939e-11
1.94939e-11
1.9494e-11
1.9494e-11
1.9494e-11
1.9494e-11
1.94939e-11
1.94939e-11
1.94937e-11
1.94937e-11
1.94934e-11
1.94933e-11
1.94928e-11
1.94927e-11
1.9492e-11
1.94916e-11
1.94906e-11
1.94901e-11
1.94886e-11
1.94876e-11
1.94853e-11
1.94834e-11
1.9479e-11
1.94742e-11
1.94609e-11
1.94449e-11
1.94156e-11
1.93657e-11
1.93085e-11
1.91735e-11
1.92284e-11
1.92774e-11
1.93067e-11
1.93235e-11
1.93369e-11
1.93424e-11
1.93471e-11
1.93493e-11
1.93518e-11
1.9353e-11
1.93546e-11
1.93553e-11
1.93563e-11
1.93567e-11
1.93574e-11
1.93576e-11
1.93581e-11
1.93582e-11
1.93585e-11
1.93586e-11
1.93587e-11
1.93588e-11
1.93588e-11
1.93588e-11
1.93588e-11
1.93588e-11
1.93588e-11
1.93587e-11
1.93586e-11
1.93585e-11
1.93582e-11
1.93581e-11
1.93576e-11
1.93574e-11
1.93567e-11
1.93563e-11
1.93553e-11
1.93546e-11
1.9353e-11
1.93518e-11
1.93493e-11
1.93471e-11
1.93424e-11
1.93369e-11
1.93234e-11
1.93067e-11
1.92774e-11
1.92284e-11
1.91735e-11
1.9057e-11
1.91103e-11
1.91581e-11
1.91872e-11
1.92045e-11
1.92179e-11
1.92238e-11
1.92288e-11
1.92312e-11
1.92338e-11
1.92352e-11
1.92368e-11
1.92376e-11
1.92387e-11
1.92391e-11
1.92398e-11
1.92401e-11
1.92406e-11
1.92407e-11
1.9241e-11
1.92411e-11
1.92412e-11
1.92412e-11
1.92413e-11
1.92413e-11
1.92413e-11
1.92413e-11
1.92412e-11
1.92412e-11
1.92411e-11
1.9241e-11
1.92407e-11
1.92406e-11
1.92401e-11
1.92398e-11
1.92391e-11
1.92387e-11
1.92376e-11
1.92368e-11
1.92352e-11
1.92339e-11
1.92312e-11
1.92288e-11
1.92238e-11
1.92179e-11
1.92045e-11
1.91872e-11
1.9158e-11
1.91103e-11
1.9057e-11
1.89601e-11
1.90116e-11
1.90586e-11
1.9088e-11
1.91061e-11
1.91197e-11
1.91263e-11
1.91315e-11
1.91344e-11
1.91372e-11
1.91387e-11
1.91404e-11
1.91413e-11
1.91424e-11
1.9143e-11
1.91437e-11
1.9144e-11
1.91445e-11
1.91446e-11
1.91449e-11
1.9145e-11
1.91452e-11
1.91452e-11
1.91453e-11
1.91453e-11
1.91453e-11
1.91453e-11
1.91452e-11
1.91452e-11
1.9145e-11
1.91449e-11
1.91446e-11
1.91445e-11
1.9144e-11
1.91437e-11
1.9143e-11
1.91424e-11
1.91413e-11
1.91404e-11
1.91387e-11
1.91372e-11
1.91344e-11
1.91315e-11
1.91263e-11
1.91197e-11
1.91061e-11
1.9088e-11
1.90586e-11
1.90116e-11
1.89601e-11
1.8882e-11
1.89319e-11
1.89781e-11
1.90078e-11
1.9027e-11
1.90408e-11
1.9048e-11
1.90536e-11
1.90568e-11
1.90598e-11
1.90615e-11
1.90633e-11
1.90643e-11
1.90655e-11
1.90661e-11
1.90668e-11
1.90672e-11
1.90677e-11
1.90679e-11
1.90681e-11
1.90682e-11
1.90684e-11
1.90684e-11
1.90685e-11
1.90685e-11
1.90685e-11
1.90685e-11
1.90684e-11
1.90684e-11
1.90682e-11
1.90682e-11
1.90679e-11
1.90677e-11
1.90672e-11
1.90668e-11
1.90661e-11
1.90655e-11
1.90643e-11
1.90633e-11
1.90615e-11
1.90598e-11
1.90568e-11
1.90536e-11
1.9048e-11
1.90408e-11
1.9027e-11
1.90078e-11
1.89781e-11
1.89319e-11
1.88819e-11
1.90101e-11
1.90104e-11
1.90105e-11
1.90107e-11
1.90107e-11
1.90108e-11
1.90108e-11
1.90108e-11
1.90108e-11
1.90107e-11
1.90107e-11
1.90105e-11
1.90104e-11
1.90101e-11
1.90099e-11
1.90094e-11
1.9009e-11
1.90083e-11
1.90076e-11
1.90064e-11
1.90053e-11
1.90034e-11
1.90014e-11
1.89982e-11
1.89947e-11
1.89887e-11
1.89809e-11
1.89668e-11
1.89466e-11
1.89165e-11
1.88708e-11
1.88223e-11
1.89718e-11
1.89716e-11
1.89715e-11
1.89712e-11
1.8971e-11
1.89705e-11
1.897e-11
1.89693e-11
1.89685e-11
1.89673e-11
1.8966e-11
1.8964e-11
1.89619e-11
1.89585e-11
1.89546e-11
1.89482e-11
1.89397e-11
1.89253e-11
1.8904e-11
1.88735e-11
1.8828e-11
1.87809e-11
1.89409e-11
1.89373e-11
1.8933e-11
1.89263e-11
1.89171e-11
1.89024e-11
1.88799e-11
1.88489e-11
1.88035e-11
1.87575e-11
)
;

boundaryField
{
    fuel
    {
        type            fixedValue;
        value           nonuniform 0();
    }
    wall
    {
        type            zeroGradient;
    }
    outlet
    {
        type            zeroGradient;
    }
    frontAndBack
    {
        type            empty;
    }
    procBoundary0to1
    {
        type            processor;
        value           nonuniform List<scalar> 
50
(
4.62342e-11
4.65053e-11
4.67566e-11
4.68828e-11
4.69159e-11
4.69423e-11
4.69253e-11
4.69332e-11
4.69192e-11
4.69246e-11
4.69163e-11
4.69206e-11
4.69154e-11
4.69185e-11
4.69151e-11
4.69175e-11
4.69151e-11
4.69171e-11
4.69156e-11
4.69168e-11
4.69158e-11
4.69165e-11
4.69159e-11
4.69163e-11
4.69161e-11
4.69161e-11
4.69163e-11
4.69159e-11
4.69165e-11
4.69158e-11
4.69168e-11
4.69156e-11
4.69171e-11
4.69151e-11
4.69175e-11
4.69151e-11
4.69185e-11
4.69154e-11
4.69206e-11
4.69164e-11
4.69246e-11
4.69191e-11
4.69332e-11
4.69253e-11
4.69422e-11
4.69159e-11
4.68828e-11
4.67566e-11
4.65053e-11
4.62342e-11
)
;
    }
    procBoundary0to2
    {
        type            processor;
        value           nonuniform List<scalar> 
53
(
1.88223e-11
1.88708e-11
1.89165e-11
1.89466e-11
1.89668e-11
1.89809e-11
1.89887e-11
1.89947e-11
1.89982e-11
1.90014e-11
1.90034e-11
1.90053e-11
1.90064e-11
1.90076e-11
1.90083e-11
1.9009e-11
1.90094e-11
1.90099e-11
1.90099e-11
1.89712e-11
1.89715e-11
1.89716e-11
1.89718e-11
1.89718e-11
1.89719e-11
1.89719e-11
1.89719e-11
1.89719e-11
1.89718e-11
1.89718e-11
1.89515e-11
1.89513e-11
1.89512e-11
1.89509e-11
1.89506e-11
1.89501e-11
1.89496e-11
1.89488e-11
1.8948e-11
1.89467e-11
1.89454e-11
1.89433e-11
1.89433e-11
1.89383e-11
1.89345e-11
1.89298e-11
1.89227e-11
1.89129e-11
1.88978e-11
1.8874e-11
1.88426e-11
1.8797e-11
1.87521e-11
)
;
    }
}


// ************************************************************************* //
