/*--------------------------------*- C++ -*----------------------------------*\
| =========                 |                                                 |
| \\      /  F ield         | OpenFOAM: The Open Source CFD Toolbox           |
|  \\    /   O peration     | Version:  dev                                   |
|   \\  /    A nd           | Web:      www.OpenFOAM.org                      |
|    \\/     M anipulation  |                                                 |
\*---------------------------------------------------------------------------*/
FoamFile
{
    version     2.0;
    format      ascii;
    class       volScalarField;
    location    "0.075";
    object      N2;
}
// * * * * * * * * * * * * * * * * * * * * * * * * * * * * * * * * * * * * * //

dimensions      [0 0 0 0 0 0 0];

internalField   nonuniform List<scalar> 
250
(
3.58444e-05
3.5469e-05
3.58919e-05
3.55495e-05
3.70868e-05
4.57388e-05
9.16359e-05
0.00030802
0.0011303
0.00255778
4.3793e-05
4.33246e-05
4.38145e-05
4.33491e-05
4.48391e-05
5.32202e-05
9.73041e-05
0.000300626
0.00104906
0.00232529
0.00346371
0.0013185
0.000352722
0.000112723
6.20765e-05
5.49551e-05
5.15611e-05
5.3646e-05
5.19556e-05
5.3587e-05
5.32789e-05
5.26998e-05
5.32675e-05
5.26561e-05
5.40819e-05
6.21257e-05
0.000104214
0.000294906
0.000978615
0.00212774
0.00331977
0.00126286
0.000346921
0.000120658
7.24162e-05
6.60604e-05
6.24251e-05
6.49745e-05
6.29764e-05
6.4941e-05
6.45401e-05
6.38306e-05
6.44886e-05
6.37068e-05
6.5055e-05
7.27047e-05
0.000112605
0.000291045
0.000911669
0.00195816
0.00315846
0.00120219
0.000341916
0.00013024
8.46577e-05
7.91657e-05
7.52696e-05
7.83578e-05
7.59949e-05
7.83559e-05
7.78355e-05
7.69751e-05
7.77359e-05
7.67607e-05
7.80219e-05
8.52328e-05
0.000122746
0.000289291
0.000850304
0.00181117
0.00298277
0.00113837
0.000338284
0.000141797
9.90955e-05
9.4547e-05
9.03767e-05
9.4087e-05
9.12917e-05
9.41152e-05
9.34413e-05
9.24122e-05
9.32841e-05
9.20999e-05
9.32647e-05
0.00010003
0.00013492
0.000289944
0.00080294
0.00168269
0.00279621
0.00107321
0.000336615
0.000155706
0.000116048
0.000112498
0.000108049
0.000112476
0.000109168
0.000112498
0.000111651
0.000110441
0.000111423
0.000110027
0.000111086
0.000117426
0.000149448
0.000293287
0.000762219
0.0015693
0.00260257
0.00100855
0.000337506
0.000172381
0.000135857
0.000133333
0.000128604
0.00013386
0.000129943
0.000133724
0.000132779
0.000131383
0.000132463
0.000130866
0.000131809
0.000137748
0.000166692
0.000299632
0.000727684
0.0014684
0.00240575
0.000946257
0.000341575
0.000192243
0.000159253
0.000158429
0.00015336
0.00015859
0.000154956
0.000159119
0.000158233
0.000156519
0.000157731
0.000155838
0.000156672
0.000162402
0.000187104
0.000309719
0.000699061
0.00137813
0.00220952
0.000888111
0.000349456
0.000215688
0.000185937
0.000186305
0.000180935
0.000186996
0.000182778
0.000187432
0.000186485
0.000184523
0.000185841
0.000183724
0.000184419
0.000189722
0.00021105
0.000324158
0.000676234
0.00129725
0.00200798
0.000835774
0.000361767
0.000243119
0.000216595
0.000218201
0.000212513
0.000219429
0.000214611
0.000219929
0.000218806
0.000216551
0.000218
0.000215626
0.000216163
0.000221012
0.00023893
0.000342
0.000659217
0.00122502
0.00182699
0.000790822
0.000379091
0.000274935
0.000251591
0.000254467
0.000248443
0.000256224
0.000250802
0.000256866
0.000255552
0.000252954
0.000254557
0.000251894
0.000252254
0.000256615
0.000271141
0.00036448
0.000648198
0.0011611
0.00166058
0.000754551
0.000401948
0.00031151
0.000291266
0.000295414
0.000289049
0.00029769
0.000291674
0.000298523
0.000297035
0.00029405
0.000295819
0.000292849
0.000293015
0.000296855
0.000308053
0.00039199
0.000643466
0.00110549
0.00034352
0.000340107
0.000342044
0.000338765
0.000338723
0.000342014
0.000349997
0.000424884
0.00064538
0.00105841
)
;

boundaryField
{
    fuel
    {
        type            fixedValue;
        value           nonuniform 0();
    }
    wall
    {
        type            zeroGradient;
    }
    outlet
    {
        type            zeroGradient;
    }
    frontAndBack
    {
        type            empty;
    }
    procBoundary0to1
    {
        type            processor;
        value           nonuniform List<scalar> 
21
(
0.00151028
0.000728034
0.000430749
0.000353217
0.000335902
0.000341332
0.000334612
0.000344108
0.000337514
0.000345165
0.000345165
0.000395221
0.000391338
0.000393444
0.000389856
0.000389603
0.000392318
0.000397238
0.000463471
0.000654254
0.00102013
)
;
    }
    procBoundary0to2
    {
        type            processor;
        value           nonuniform List<scalar> 
12
(
3.60081e-05
0.00358885
0.0013742
0.000358822
0.000106136
5.33674e-05
4.55848e-05
4.24142e-05
4.4099e-05
4.26688e-05
4.40217e-05
4.40217e-05
)
;
    }
    procBoundary0to3
    {
        type            processor;
        value           nonuniform List<scalar> 10(2.92119e-05 2.89143e-05 2.92794e-05 2.90395e-05 3.06057e-05 3.94566e-05 8.65932e-05 0.000317838 0.00122276 0.00282968);
    }
}


// ************************************************************************* //
