/*--------------------------------*- C++ -*----------------------------------*\
| =========                 |                                                 |
| \\      /  F ield         | OpenFOAM: The Open Source CFD Toolbox           |
|  \\    /   O peration     | Version:  dev                                   |
|   \\  /    A nd           | Web:      www.OpenFOAM.org                      |
|    \\/     M anipulation  |                                                 |
\*---------------------------------------------------------------------------*/
FoamFile
{
    version     2.0;
    format      ascii;
    class       volScalarField;
    location    "0.075";
    object      P2-H;
}
// * * * * * * * * * * * * * * * * * * * * * * * * * * * * * * * * * * * * * //

dimensions      [0 0 0 0 0 0 0];

internalField   nonuniform List<scalar> 
2014
(
5.82284e-16
5.87198e-16
5.91707e-16
5.93987e-16
5.94523e-16
5.94994e-16
5.94646e-16
5.948e-16
5.94529e-16
5.94639e-16
5.94481e-16
5.94566e-16
5.94466e-16
5.94529e-16
5.94464e-16
5.94512e-16
5.94466e-16
5.94505e-16
5.94475e-16
5.94499e-16
5.94479e-16
5.94494e-16
5.94482e-16
5.9449e-16
5.94486e-16
5.94486e-16
5.9449e-16
5.94482e-16
5.94494e-16
5.9448e-16
5.94499e-16
5.94475e-16
5.94505e-16
5.94466e-16
5.94512e-16
5.94464e-16
5.94529e-16
5.94467e-16
5.94566e-16
5.94482e-16
5.94639e-16
5.94529e-16
5.948e-16
5.94646e-16
5.94993e-16
5.94523e-16
5.93986e-16
5.91706e-16
5.87198e-16
5.82284e-16
5.41536e-16
5.46116e-16
5.50246e-16
5.52345e-16
5.52853e-16
5.53287e-16
5.52975e-16
5.5311e-16
5.52866e-16
5.52961e-16
5.52819e-16
5.52893e-16
5.52803e-16
5.52859e-16
5.528e-16
5.52843e-16
5.52802e-16
5.52837e-16
5.5281e-16
5.52832e-16
5.52814e-16
5.52827e-16
5.52816e-16
5.52824e-16
5.5282e-16
5.5282e-16
5.52824e-16
5.52817e-16
5.52827e-16
5.52814e-16
5.52832e-16
5.5281e-16
5.52837e-16
5.52802e-16
5.52844e-16
5.528e-16
5.52859e-16
5.52803e-16
5.52893e-16
5.52819e-16
5.52961e-16
5.52866e-16
5.5311e-16
5.52975e-16
5.53286e-16
5.52853e-16
5.52344e-16
5.50246e-16
5.46116e-16
5.41536e-16
5.05403e-16
5.09687e-16
5.13472e-16
5.15408e-16
5.1589e-16
5.16291e-16
5.1601e-16
5.16129e-16
5.15908e-16
5.15991e-16
5.15862e-16
5.15928e-16
5.15846e-16
5.15896e-16
5.15843e-16
5.15882e-16
5.15844e-16
5.15876e-16
5.15852e-16
5.15872e-16
5.15855e-16
5.15867e-16
5.15858e-16
5.15864e-16
5.15861e-16
5.15861e-16
5.15864e-16
5.15858e-16
5.15867e-16
5.15856e-16
5.15872e-16
5.15852e-16
5.15876e-16
5.15845e-16
5.15882e-16
5.15843e-16
5.15896e-16
5.15847e-16
5.15928e-16
5.15863e-16
5.15991e-16
5.15908e-16
5.16129e-16
5.1601e-16
5.1629e-16
5.1589e-16
5.15408e-16
5.13472e-16
5.09687e-16
5.05403e-16
4.73233e-16
4.77255e-16
4.80725e-16
4.82516e-16
4.82971e-16
4.83343e-16
4.8309e-16
4.83195e-16
4.82994e-16
4.83066e-16
4.82949e-16
4.83007e-16
4.82934e-16
4.82978e-16
4.8293e-16
4.82965e-16
4.82931e-16
4.8296e-16
4.82938e-16
4.82956e-16
4.82941e-16
4.82952e-16
4.82943e-16
4.82949e-16
4.82947e-16
4.82947e-16
4.82949e-16
4.82943e-16
4.82952e-16
4.82941e-16
4.82956e-16
4.82938e-16
4.8296e-16
4.82932e-16
4.82965e-16
4.8293e-16
4.82978e-16
4.82934e-16
4.83007e-16
4.8295e-16
4.83066e-16
4.82994e-16
4.83195e-16
4.8309e-16
4.83342e-16
4.82971e-16
4.82516e-16
4.80725e-16
4.77255e-16
4.73233e-16
4.44481e-16
4.4826e-16
4.5146e-16
4.53112e-16
4.53542e-16
4.53887e-16
4.53658e-16
4.53752e-16
4.53569e-16
4.53632e-16
4.53526e-16
4.53577e-16
4.5351e-16
4.5355e-16
4.53506e-16
4.53538e-16
4.53507e-16
4.53533e-16
4.53513e-16
4.5353e-16
4.53517e-16
4.53526e-16
4.53518e-16
4.53524e-16
4.53521e-16
4.53522e-16
4.53524e-16
4.53519e-16
4.53527e-16
4.53517e-16
4.5353e-16
4.53513e-16
4.53533e-16
4.53508e-16
4.53538e-16
4.53506e-16
4.5355e-16
4.5351e-16
4.53577e-16
4.53526e-16
4.53632e-16
4.53569e-16
4.53752e-16
4.53658e-16
4.53886e-16
4.53542e-16
4.53112e-16
4.5146e-16
4.4826e-16
4.44481e-16
4.18689e-16
4.2225e-16
4.25204e-16
4.2673e-16
4.27135e-16
4.27456e-16
4.27249e-16
4.27332e-16
4.27166e-16
4.27221e-16
4.27124e-16
4.2717e-16
4.27109e-16
4.27144e-16
4.27105e-16
4.27134e-16
4.27106e-16
4.2713e-16
4.27112e-16
4.27127e-16
4.27115e-16
4.27124e-16
4.27116e-16
4.27121e-16
4.27119e-16
4.27119e-16
4.27121e-16
4.27116e-16
4.27124e-16
4.27115e-16
4.27127e-16
4.27112e-16
4.2713e-16
4.27106e-16
4.27134e-16
4.27105e-16
4.27145e-16
4.27109e-16
4.2717e-16
4.27125e-16
4.27221e-16
4.27166e-16
4.27332e-16
4.27249e-16
4.27455e-16
4.27135e-16
4.26729e-16
4.25203e-16
4.2225e-16
4.18689e-16
3.95472e-16
3.98833e-16
4.01563e-16
4.02975e-16
4.03357e-16
4.03656e-16
4.03469e-16
4.03543e-16
4.03391e-16
4.0344e-16
4.03351e-16
4.03392e-16
4.03336e-16
4.03368e-16
4.03332e-16
4.03358e-16
4.03333e-16
4.03355e-16
4.03339e-16
4.03353e-16
4.03341e-16
4.0335e-16
4.03343e-16
4.03348e-16
4.03346e-16
4.03346e-16
4.03348e-16
4.03343e-16
4.0335e-16
4.03342e-16
4.03353e-16
4.03339e-16
4.03355e-16
4.03334e-16
4.03359e-16
4.03333e-16
4.03369e-16
4.03336e-16
4.03392e-16
4.03352e-16
4.0344e-16
4.03391e-16
4.03543e-16
4.03469e-16
4.03655e-16
4.03357e-16
4.02974e-16
4.01562e-16
3.98833e-16
3.95472e-16
3.74502e-16
3.7768e-16
3.80206e-16
3.81514e-16
3.81874e-16
3.82154e-16
3.81984e-16
3.82051e-16
3.81912e-16
3.81954e-16
3.81873e-16
3.8191e-16
3.81859e-16
3.81888e-16
3.81855e-16
3.81879e-16
3.81857e-16
3.81876e-16
3.81861e-16
3.81874e-16
3.81864e-16
3.81872e-16
3.81866e-16
3.8187e-16
3.81868e-16
3.81868e-16
3.8187e-16
3.81866e-16
3.81872e-16
3.81864e-16
3.81874e-16
3.81861e-16
3.81876e-16
3.81857e-16
3.81879e-16
3.81856e-16
3.81888e-16
3.81859e-16
3.8191e-16
3.81874e-16
3.81955e-16
3.81912e-16
3.82051e-16
3.81984e-16
3.82153e-16
3.81874e-16
3.81514e-16
3.80205e-16
3.7768e-16
3.74502e-16
3.55503e-16
3.5851e-16
3.60851e-16
3.62064e-16
3.62404e-16
3.62665e-16
3.62512e-16
3.62572e-16
3.62445e-16
3.62482e-16
3.62408e-16
3.62441e-16
3.62395e-16
3.62421e-16
3.62391e-16
3.62413e-16
3.62392e-16
3.6241e-16
3.62397e-16
3.62409e-16
3.62399e-16
3.62407e-16
3.62401e-16
3.62405e-16
3.62403e-16
3.62403e-16
3.62405e-16
3.62401e-16
3.62407e-16
3.624e-16
3.62409e-16
3.62397e-16
3.6241e-16
3.62392e-16
3.62413e-16
3.62391e-16
3.62421e-16
3.62395e-16
3.62441e-16
3.62409e-16
3.62482e-16
3.62445e-16
3.62572e-16
3.62512e-16
3.62665e-16
3.62404e-16
3.62064e-16
3.6085e-16
3.5851e-16
3.55503e-16
3.38239e-16
3.41085e-16
3.43257e-16
3.44385e-16
3.44705e-16
3.4495e-16
3.44812e-16
3.44865e-16
3.44749e-16
3.44782e-16
3.44715e-16
3.44744e-16
3.44702e-16
3.44726e-16
3.44699e-16
3.44719e-16
3.447e-16
3.44716e-16
3.44704e-16
3.44715e-16
3.44707e-16
3.44713e-16
3.44708e-16
3.44712e-16
3.4471e-16
3.4471e-16
3.44712e-16
3.44708e-16
3.44713e-16
3.44707e-16
3.44715e-16
3.44704e-16
3.44717e-16
3.447e-16
3.44719e-16
3.44699e-16
3.44726e-16
3.44702e-16
3.44744e-16
3.44715e-16
3.44783e-16
3.44749e-16
3.44865e-16
3.44812e-16
3.4495e-16
3.44705e-16
3.44384e-16
3.43256e-16
3.41085e-16
3.38239e-16
3.22507e-16
3.252e-16
3.2722e-16
3.28269e-16
3.28572e-16
3.28802e-16
3.28676e-16
3.28725e-16
3.28619e-16
3.28649e-16
3.28587e-16
3.28613e-16
3.28575e-16
3.28597e-16
3.28572e-16
3.2859e-16
3.28573e-16
3.28589e-16
3.28577e-16
3.28587e-16
3.2858e-16
3.28586e-16
3.28581e-16
3.28584e-16
3.28583e-16
3.28583e-16
3.28584e-16
3.28581e-16
3.28586e-16
3.2858e-16
3.28588e-16
3.28577e-16
3.28589e-16
3.28573e-16
3.2859e-16
3.28572e-16
3.28597e-16
3.28575e-16
3.28613e-16
3.28587e-16
3.28649e-16
3.28619e-16
3.28725e-16
3.28676e-16
3.28802e-16
3.28572e-16
3.28269e-16
3.27219e-16
3.252e-16
3.22507e-16
3.08136e-16
3.10682e-16
3.12564e-16
3.13542e-16
3.13828e-16
3.14044e-16
3.13931e-16
3.13975e-16
3.13878e-16
3.13905e-16
3.13848e-16
3.13872e-16
3.13837e-16
3.13857e-16
3.13834e-16
3.13852e-16
3.13836e-16
3.1385e-16
3.1384e-16
3.13849e-16
3.13842e-16
3.13848e-16
3.13844e-16
3.13847e-16
3.13846e-16
3.13846e-16
3.13847e-16
3.13844e-16
3.13848e-16
3.13842e-16
3.1385e-16
3.1384e-16
3.1385e-16
3.13836e-16
3.13852e-16
3.13835e-16
3.13857e-16
3.13837e-16
3.13872e-16
3.13848e-16
3.13905e-16
3.13878e-16
3.13975e-16
3.13931e-16
3.14044e-16
3.13828e-16
3.13541e-16
3.12563e-16
3.10682e-16
3.08136e-16
2.94977e-16
2.97379e-16
2.99138e-16
3.0005e-16
3.00322e-16
3.00525e-16
3.00423e-16
3.00464e-16
3.00375e-16
3.00399e-16
3.00347e-16
3.00369e-16
3.00337e-16
3.00356e-16
3.00335e-16
3.00351e-16
3.00337e-16
3.0035e-16
3.00341e-16
3.0035e-16
3.00343e-16
3.00348e-16
3.00344e-16
3.00347e-16
3.00346e-16
3.00346e-16
3.00347e-16
3.00345e-16
3.00348e-16
3.00343e-16
3.0035e-16
3.00341e-16
3.0035e-16
3.00337e-16
3.00351e-16
3.00335e-16
3.00356e-16
3.00337e-16
3.00369e-16
3.00347e-16
3.00399e-16
3.00375e-16
3.00464e-16
3.00423e-16
3.00525e-16
3.00322e-16
3.0005e-16
2.99137e-16
2.9738e-16
2.94976e-16
2.82901e-16
2.85165e-16
2.86812e-16
2.87664e-16
2.87922e-16
2.88114e-16
2.88022e-16
2.8806e-16
2.87979e-16
2.88001e-16
2.87954e-16
2.87974e-16
2.87945e-16
2.87962e-16
2.87943e-16
2.87958e-16
2.87945e-16
2.87958e-16
2.87949e-16
2.87957e-16
2.87951e-16
2.87956e-16
2.87953e-16
2.87955e-16
2.87954e-16
2.87954e-16
2.87955e-16
2.87953e-16
2.87956e-16
2.87951e-16
2.87957e-16
2.87949e-16
2.87958e-16
2.87945e-16
2.87958e-16
2.87943e-16
2.87962e-16
2.87945e-16
2.87974e-16
2.87954e-16
2.88001e-16
2.87979e-16
2.8806e-16
2.88022e-16
2.88113e-16
2.87922e-16
2.87664e-16
2.86811e-16
2.85165e-16
2.82901e-16
2.71797e-16
2.73927e-16
2.75473e-16
2.76272e-16
2.76515e-16
2.76697e-16
2.76615e-16
2.76651e-16
2.76578e-16
2.76598e-16
2.76554e-16
2.76573e-16
2.76547e-16
2.76563e-16
2.76546e-16
2.7656e-16
2.76548e-16
2.7656e-16
2.76552e-16
2.7656e-16
2.76554e-16
2.76559e-16
2.76556e-16
2.76558e-16
2.76557e-16
2.76557e-16
2.76558e-16
2.76556e-16
2.76559e-16
2.76554e-16
2.7656e-16
2.76552e-16
2.7656e-16
2.76548e-16
2.7656e-16
2.76546e-16
2.76563e-16
2.76547e-16
2.76573e-16
2.76555e-16
2.76598e-16
2.76578e-16
2.76651e-16
2.76615e-16
2.76697e-16
2.76515e-16
2.76272e-16
2.75473e-16
2.73928e-16
2.71797e-16
2.61569e-16
2.63571e-16
2.65025e-16
2.65775e-16
2.66005e-16
2.66178e-16
2.66105e-16
2.66139e-16
2.66073e-16
2.66091e-16
2.66052e-16
2.6607e-16
2.66045e-16
2.66061e-16
2.66045e-16
2.66058e-16
2.66048e-16
2.66059e-16
2.66052e-16
2.66059e-16
2.66054e-16
2.66058e-16
2.66055e-16
2.66058e-16
2.66057e-16
2.66057e-16
2.66058e-16
2.66055e-16
2.66058e-16
2.66054e-16
2.66059e-16
2.66052e-16
2.66059e-16
2.66048e-16
2.66059e-16
2.66045e-16
2.66061e-16
2.66046e-16
2.6607e-16
2.66052e-16
2.66091e-16
2.66073e-16
2.66139e-16
2.66105e-16
2.66178e-16
2.66005e-16
2.65774e-16
2.65025e-16
2.63571e-16
2.61569e-16
2.52133e-16
2.54012e-16
2.55383e-16
2.56087e-16
2.56306e-16
2.56471e-16
2.56407e-16
2.5644e-16
2.56379e-16
2.56397e-16
2.56362e-16
2.56378e-16
2.56356e-16
2.56371e-16
2.56357e-16
2.56369e-16
2.5636e-16
2.5637e-16
2.56364e-16
2.5637e-16
2.56366e-16
2.5637e-16
2.56367e-16
2.5637e-16
2.56369e-16
2.56369e-16
2.5637e-16
2.56367e-16
2.5637e-16
2.56366e-16
2.56371e-16
2.56364e-16
2.5637e-16
2.5636e-16
2.56369e-16
2.56357e-16
2.56371e-16
2.56357e-16
2.56378e-16
2.56362e-16
2.56397e-16
2.56379e-16
2.5644e-16
2.56407e-16
2.56471e-16
2.56306e-16
2.56087e-16
2.55382e-16
2.54012e-16
2.52133e-16
2.43417e-16
2.45179e-16
2.46473e-16
2.47136e-16
2.47345e-16
2.47503e-16
2.47447e-16
2.47478e-16
2.47424e-16
2.47441e-16
2.47409e-16
2.47425e-16
2.47405e-16
2.47419e-16
2.47407e-16
2.47418e-16
2.4741e-16
2.4742e-16
2.47414e-16
2.4742e-16
2.47416e-16
2.4742e-16
2.47417e-16
2.4742e-16
2.47419e-16
2.47419e-16
2.4742e-16
2.47418e-16
2.4742e-16
2.47416e-16
2.4742e-16
2.47414e-16
2.4742e-16
2.4741e-16
2.47419e-16
2.47407e-16
2.47419e-16
2.47406e-16
2.47425e-16
2.47409e-16
2.47441e-16
2.47424e-16
2.47478e-16
2.47447e-16
2.47503e-16
2.47345e-16
2.47136e-16
2.46473e-16
2.45179e-16
2.43416e-16
2.35355e-16
2.37007e-16
2.38232e-16
2.38857e-16
2.39056e-16
2.39208e-16
2.3916e-16
2.3919e-16
2.39142e-16
2.39159e-16
2.3913e-16
2.39146e-16
2.39128e-16
2.39141e-16
2.3913e-16
2.39141e-16
2.39133e-16
2.39143e-16
2.39137e-16
2.39144e-16
2.3914e-16
2.39144e-16
2.39141e-16
2.39143e-16
2.39143e-16
2.39143e-16
2.39143e-16
2.39141e-16
2.39144e-16
2.3914e-16
2.39144e-16
2.39138e-16
2.39143e-16
2.39134e-16
2.39141e-16
2.3913e-16
2.39141e-16
2.39128e-16
2.39146e-16
2.39131e-16
2.39159e-16
2.39142e-16
2.39191e-16
2.3916e-16
2.39208e-16
2.39056e-16
2.38857e-16
2.38232e-16
2.37007e-16
2.35355e-16
2.27894e-16
2.2944e-16
2.30605e-16
2.31193e-16
2.31384e-16
2.3153e-16
2.31489e-16
2.3152e-16
2.31478e-16
2.31494e-16
2.31469e-16
2.31483e-16
2.31468e-16
2.31481e-16
2.31471e-16
2.31481e-16
2.31475e-16
2.31483e-16
2.31479e-16
2.31485e-16
2.31481e-16
2.31485e-16
2.31483e-16
2.31485e-16
2.31484e-16
2.31484e-16
2.31485e-16
2.31483e-16
2.31485e-16
2.31481e-16
2.31485e-16
2.31479e-16
2.31483e-16
2.31475e-16
2.31482e-16
2.31471e-16
2.31481e-16
2.31468e-16
2.31484e-16
2.31469e-16
2.31494e-16
2.31478e-16
2.3152e-16
2.31489e-16
2.3153e-16
2.31384e-16
2.31193e-16
2.30605e-16
2.2944e-16
2.27894e-16
2.20983e-16
2.22432e-16
2.2354e-16
2.24095e-16
2.2428e-16
2.2442e-16
2.24387e-16
2.24418e-16
2.24381e-16
2.24397e-16
2.24375e-16
2.24389e-16
2.24376e-16
2.24388e-16
2.24379e-16
2.2439e-16
2.24384e-16
2.24392e-16
2.24388e-16
2.24394e-16
2.2439e-16
2.24394e-16
2.24392e-16
2.24394e-16
2.24393e-16
2.24393e-16
2.24394e-16
2.24392e-16
2.24394e-16
2.24391e-16
2.24394e-16
2.24388e-16
2.24392e-16
2.24384e-16
2.2439e-16
2.24379e-16
2.24388e-16
2.24376e-16
2.24389e-16
2.24375e-16
2.24397e-16
2.24381e-16
2.24418e-16
2.24387e-16
2.2442e-16
2.24279e-16
2.24094e-16
2.2354e-16
2.22432e-16
2.20983e-16
2.14581e-16
2.15941e-16
2.16995e-16
2.17519e-16
2.17698e-16
2.17834e-16
2.17808e-16
2.17839e-16
2.17808e-16
2.17824e-16
2.17805e-16
2.1782e-16
2.17808e-16
2.1782e-16
2.17812e-16
2.17822e-16
2.17817e-16
2.17825e-16
2.17822e-16
2.17827e-16
2.17824e-16
2.17827e-16
2.17826e-16
2.17827e-16
2.17827e-16
2.17827e-16
2.17827e-16
2.17826e-16
2.17828e-16
2.17824e-16
2.17827e-16
2.17822e-16
2.17825e-16
2.17817e-16
2.17823e-16
2.17813e-16
2.1782e-16
2.17808e-16
2.1782e-16
2.17806e-16
2.17824e-16
2.17808e-16
2.17839e-16
2.17808e-16
2.17834e-16
2.17698e-16
2.17519e-16
2.16994e-16
2.15941e-16
2.14581e-16
2.08651e-16
2.09927e-16
2.1093e-16
2.11427e-16
2.11602e-16
2.11734e-16
2.11715e-16
2.11747e-16
2.11721e-16
2.11738e-16
2.11722e-16
2.11736e-16
2.11726e-16
2.11738e-16
2.11732e-16
2.11741e-16
2.11737e-16
2.11745e-16
2.11742e-16
2.11747e-16
2.11744e-16
2.11747e-16
2.11746e-16
2.11748e-16
2.11747e-16
2.11747e-16
2.11748e-16
2.11746e-16
2.11747e-16
2.11744e-16
2.11747e-16
2.11742e-16
2.11745e-16
2.11737e-16
2.11742e-16
2.11732e-16
2.11738e-16
2.11726e-16
2.11736e-16
2.11722e-16
2.11738e-16
2.11721e-16
2.11747e-16
2.11715e-16
2.11734e-16
2.11602e-16
2.11427e-16
2.10929e-16
2.09928e-16
2.0865e-16
2.03159e-16
2.04359e-16
2.05312e-16
2.05786e-16
2.05958e-16
2.06086e-16
2.06074e-16
2.06107e-16
2.06086e-16
2.06104e-16
2.06091e-16
2.06105e-16
2.06097e-16
2.06109e-16
2.06104e-16
2.06113e-16
2.06109e-16
2.06117e-16
2.06114e-16
2.06119e-16
2.06117e-16
2.0612e-16
2.06119e-16
2.0612e-16
2.0612e-16
2.0612e-16
2.0612e-16
2.06119e-16
2.0612e-16
2.06117e-16
2.06119e-16
2.06114e-16
2.06117e-16
2.06109e-16
2.06113e-16
2.06104e-16
2.06109e-16
2.06097e-16
2.06105e-16
2.06091e-16
2.06104e-16
2.06086e-16
2.06107e-16
2.06075e-16
2.06086e-16
2.05958e-16
2.05785e-16
2.05311e-16
2.04359e-16
2.03158e-16
1.98076e-16
1.99206e-16
2.00111e-16
2.00565e-16
2.00735e-16
2.0086e-16
2.00856e-16
2.0089e-16
2.00874e-16
2.00892e-16
2.00882e-16
2.00897e-16
2.0089e-16
2.00902e-16
2.00898e-16
2.00907e-16
2.00904e-16
2.00911e-16
2.00909e-16
2.00914e-16
2.00912e-16
2.00915e-16
2.00914e-16
2.00915e-16
2.00915e-16
2.00915e-16
2.00915e-16
2.00914e-16
2.00915e-16
2.00912e-16
2.00914e-16
2.00909e-16
2.00911e-16
2.00904e-16
2.00907e-16
2.00898e-16
2.00902e-16
2.00891e-16
2.00897e-16
2.00882e-16
2.00892e-16
2.00874e-16
2.0089e-16
2.00856e-16
2.00859e-16
2.00735e-16
2.00564e-16
2.0011e-16
1.99206e-16
1.98076e-16
1.93537e-16
1.9461e-16
1.95469e-16
1.95908e-16
1.96076e-16
1.96199e-16
1.96202e-16
1.96238e-16
1.96226e-16
1.96245e-16
1.96238e-16
1.96253e-16
1.96248e-16
1.9626e-16
1.96257e-16
1.96266e-16
1.96263e-16
1.9627e-16
1.96269e-16
1.96273e-16
1.96272e-16
1.96274e-16
1.96273e-16
1.96275e-16
1.96275e-16
1.96275e-16
1.96275e-16
1.96273e-16
1.96274e-16
1.96272e-16
1.96273e-16
1.96269e-16
1.96271e-16
1.96263e-16
1.96266e-16
1.96257e-16
1.9626e-16
1.96248e-16
1.96253e-16
1.96238e-16
1.96245e-16
1.96226e-16
1.96238e-16
1.96202e-16
1.96199e-16
1.96076e-16
1.95908e-16
1.95469e-16
1.9461e-16
1.93537e-16
1.893e-16
1.90322e-16
1.91126e-16
1.91543e-16
1.91701e-16
1.91815e-16
1.91818e-16
1.91853e-16
1.91843e-16
1.91862e-16
1.91856e-16
1.9187e-16
1.91866e-16
1.91878e-16
1.91875e-16
1.91884e-16
1.91882e-16
1.91888e-16
1.91887e-16
1.91891e-16
1.9189e-16
1.91893e-16
1.91892e-16
1.91893e-16
1.91893e-16
1.91893e-16
1.91893e-16
1.91892e-16
1.91893e-16
1.9189e-16
1.91891e-16
1.91887e-16
1.91889e-16
1.91882e-16
1.91884e-16
1.91875e-16
1.91878e-16
1.91866e-16
1.9187e-16
1.91856e-16
1.91862e-16
1.91843e-16
1.91853e-16
1.91818e-16
1.91815e-16
1.91701e-16
1.91543e-16
1.91125e-16
1.90322e-16
1.893e-16
1.85323e-16
1.8629e-16
1.87052e-16
1.87457e-16
1.87616e-16
1.87727e-16
1.87737e-16
1.87774e-16
1.87769e-16
1.87789e-16
1.87786e-16
1.878e-16
1.87798e-16
1.8781e-16
1.87808e-16
1.87817e-16
1.87815e-16
1.87822e-16
1.87821e-16
1.87825e-16
1.87824e-16
1.87827e-16
1.87826e-16
1.87827e-16
1.87827e-16
1.87827e-16
1.87827e-16
1.87826e-16
1.87827e-16
1.87824e-16
1.87825e-16
1.87821e-16
1.87822e-16
1.87816e-16
1.87817e-16
1.87808e-16
1.8781e-16
1.87798e-16
1.87801e-16
1.87786e-16
1.87789e-16
1.87769e-16
1.87774e-16
1.87737e-16
1.87727e-16
1.87616e-16
1.87457e-16
1.87052e-16
1.8629e-16
1.85322e-16
1.81671e-16
1.82587e-16
1.83311e-16
1.83706e-16
1.83866e-16
1.83975e-16
1.83992e-16
1.84031e-16
1.84031e-16
1.84052e-16
1.84052e-16
1.84067e-16
1.84067e-16
1.84078e-16
1.84078e-16
1.84086e-16
1.84086e-16
1.84092e-16
1.84091e-16
1.84095e-16
1.84095e-16
1.84097e-16
1.84096e-16
1.84098e-16
1.84097e-16
1.84098e-16
1.84098e-16
1.84096e-16
1.84097e-16
1.84095e-16
1.84096e-16
1.84091e-16
1.84092e-16
1.84086e-16
1.84086e-16
1.84078e-16
1.84078e-16
1.84067e-16
1.84067e-16
1.84052e-16
1.84052e-16
1.84031e-16
1.84031e-16
1.83992e-16
1.83975e-16
1.83866e-16
1.83706e-16
1.83311e-16
1.82587e-16
1.8167e-16
1.78329e-16
1.79196e-16
1.79889e-16
1.80273e-16
1.80436e-16
1.80543e-16
1.80567e-16
1.80608e-16
1.80613e-16
1.80636e-16
1.80638e-16
1.80654e-16
1.80655e-16
1.80667e-16
1.80667e-16
1.80676e-16
1.80676e-16
1.80682e-16
1.80682e-16
1.80686e-16
1.80685e-16
1.80688e-16
1.80687e-16
1.80688e-16
1.80688e-16
1.80688e-16
1.80689e-16
1.80687e-16
1.80688e-16
1.80685e-16
1.80686e-16
1.80682e-16
1.80682e-16
1.80676e-16
1.80676e-16
1.80667e-16
1.80667e-16
1.80655e-16
1.80654e-16
1.80638e-16
1.80636e-16
1.80613e-16
1.80608e-16
1.80567e-16
1.80543e-16
1.80436e-16
1.80273e-16
1.79889e-16
1.79196e-16
1.78328e-16
1.75282e-16
1.76104e-16
1.76769e-16
1.77144e-16
1.77311e-16
1.77415e-16
1.77447e-16
1.77491e-16
1.77501e-16
1.77525e-16
1.7753e-16
1.77547e-16
1.77549e-16
1.77561e-16
1.77563e-16
1.77571e-16
1.77572e-16
1.77578e-16
1.77578e-16
1.77582e-16
1.77582e-16
1.77584e-16
1.77584e-16
1.77585e-16
1.77585e-16
1.77585e-16
1.77585e-16
1.77584e-16
1.77584e-16
1.77582e-16
1.77582e-16
1.77578e-16
1.77578e-16
1.77572e-16
1.77572e-16
1.77563e-16
1.77561e-16
1.7755e-16
1.77547e-16
1.7753e-16
1.77525e-16
1.77501e-16
1.77491e-16
1.77447e-16
1.77415e-16
1.77311e-16
1.77143e-16
1.76769e-16
1.76104e-16
1.75282e-16
1.72612e-16
1.73394e-16
1.74036e-16
1.74403e-16
1.74575e-16
1.74677e-16
1.74715e-16
1.74762e-16
1.74777e-16
1.74802e-16
1.7481e-16
1.74827e-16
1.74832e-16
1.74844e-16
1.74846e-16
1.74855e-16
1.74856e-16
1.74862e-16
1.74863e-16
1.74867e-16
1.74866e-16
1.74869e-16
1.74868e-16
1.7487e-16
1.7487e-16
1.7487e-16
1.7487e-16
1.74868e-16
1.74869e-16
1.74866e-16
1.74867e-16
1.74863e-16
1.74862e-16
1.74856e-16
1.74855e-16
1.74846e-16
1.74844e-16
1.74832e-16
1.74827e-16
1.7481e-16
1.74803e-16
1.74777e-16
1.74762e-16
1.74715e-16
1.74677e-16
1.74575e-16
1.74403e-16
1.74036e-16
1.73394e-16
1.72612e-16
1.70211e-16
1.70955e-16
1.71579e-16
1.71939e-16
1.72116e-16
1.72216e-16
1.72261e-16
1.7231e-16
1.72325e-16
1.72351e-16
1.72359e-16
1.72376e-16
1.72381e-16
1.72393e-16
1.72396e-16
1.72405e-16
1.72406e-16
1.72412e-16
1.72413e-16
1.72416e-16
1.72416e-16
1.72419e-16
1.72418e-16
1.7242e-16
1.7242e-16
1.7242e-16
1.7242e-16
1.72418e-16
1.72419e-16
1.72416e-16
1.72416e-16
1.72413e-16
1.72412e-16
1.72406e-16
1.72405e-16
1.72396e-16
1.72393e-16
1.72381e-16
1.72376e-16
1.72359e-16
1.72351e-16
1.72325e-16
1.7231e-16
1.72261e-16
1.72216e-16
1.72116e-16
1.71939e-16
1.71579e-16
1.70955e-16
1.70211e-16
1.68006e-16
1.68715e-16
1.69321e-16
1.69674e-16
1.69856e-16
1.69951e-16
1.70002e-16
1.70053e-16
1.70073e-16
1.701e-16
1.7011e-16
1.70128e-16
1.70134e-16
1.70146e-16
1.7015e-16
1.70159e-16
1.70161e-16
1.70166e-16
1.70167e-16
1.70171e-16
1.70171e-16
1.70173e-16
1.70173e-16
1.70174e-16
1.70174e-16
1.70174e-16
1.70174e-16
1.70173e-16
1.70173e-16
1.70171e-16
1.70171e-16
1.70167e-16
1.70166e-16
1.70161e-16
1.70159e-16
1.7015e-16
1.70146e-16
1.70134e-16
1.70128e-16
1.7011e-16
1.701e-16
1.70073e-16
1.70053e-16
1.70002e-16
1.69951e-16
1.69856e-16
1.69674e-16
1.69321e-16
1.68715e-16
1.68006e-16
1.66047e-16
1.66721e-16
1.67315e-16
1.67662e-16
1.67854e-16
1.68011e-16
1.6807e-16
1.68124e-16
1.68148e-16
1.68177e-16
1.6819e-16
1.68208e-16
1.68216e-16
1.68229e-16
1.68233e-16
1.68242e-16
1.68244e-16
1.6825e-16
1.68251e-16
1.68255e-16
1.68255e-16
1.68257e-16
1.68258e-16
1.68259e-16
1.68259e-16
1.68259e-16
1.68259e-16
1.68258e-16
1.68257e-16
1.68255e-16
1.68255e-16
1.68251e-16
1.6825e-16
1.68244e-16
1.68242e-16
1.68233e-16
1.68229e-16
1.68216e-16
1.68208e-16
1.6819e-16
1.68177e-16
1.68148e-16
1.68124e-16
1.6807e-16
1.68011e-16
1.67853e-16
1.67662e-16
1.67314e-16
1.6672e-16
1.66047e-16
1.64393e-16
1.65036e-16
1.65618e-16
1.65963e-16
1.66164e-16
1.66322e-16
1.66388e-16
1.66446e-16
1.66474e-16
1.66505e-16
1.6652e-16
1.66539e-16
1.66549e-16
1.66562e-16
1.66567e-16
1.66576e-16
1.66579e-16
1.66584e-16
1.66586e-16
1.6659e-16
1.6659e-16
1.66592e-16
1.66593e-16
1.66594e-16
1.66594e-16
1.66594e-16
1.66594e-16
1.66593e-16
1.66592e-16
1.6659e-16
1.6659e-16
1.66586e-16
1.66584e-16
1.66579e-16
1.66576e-16
1.66567e-16
1.66562e-16
1.66549e-16
1.6654e-16
1.6652e-16
1.66505e-16
1.66474e-16
1.66446e-16
1.66388e-16
1.66322e-16
1.66163e-16
1.65963e-16
1.65618e-16
1.65036e-16
1.64392e-16
1.62965e-16
1.63588e-16
1.64153e-16
1.64496e-16
1.64702e-16
1.64859e-16
1.64931e-16
1.64991e-16
1.65022e-16
1.65054e-16
1.65071e-16
1.65091e-16
1.65102e-16
1.65115e-16
1.65121e-16
1.6513e-16
1.65133e-16
1.65139e-16
1.65141e-16
1.65144e-16
1.65145e-16
1.65147e-16
1.65147e-16
1.65148e-16
1.65149e-16
1.65149e-16
1.65148e-16
1.65147e-16
1.65147e-16
1.65145e-16
1.65144e-16
1.65141e-16
1.65139e-16
1.65133e-16
1.6513e-16
1.65121e-16
1.65115e-16
1.65102e-16
1.65092e-16
1.65072e-16
1.65054e-16
1.65022e-16
1.64991e-16
1.64931e-16
1.64859e-16
1.64702e-16
1.64496e-16
1.64153e-16
1.63588e-16
1.62965e-16
1.61775e-16
1.62374e-16
1.6293e-16
1.63274e-16
1.6349e-16
1.63649e-16
1.63728e-16
1.63791e-16
1.63826e-16
1.6386e-16
1.6388e-16
1.63901e-16
1.63913e-16
1.63926e-16
1.63933e-16
1.63942e-16
1.63946e-16
1.63952e-16
1.63954e-16
1.63957e-16
1.63958e-16
1.6396e-16
1.63961e-16
1.63962e-16
1.63962e-16
1.63962e-16
1.63962e-16
1.63961e-16
1.6396e-16
1.63958e-16
1.63957e-16
1.63954e-16
1.63952e-16
1.63946e-16
1.63942e-16
1.63933e-16
1.63926e-16
1.63913e-16
1.63901e-16
1.6388e-16
1.63861e-16
1.63826e-16
1.63791e-16
1.63728e-16
1.63649e-16
1.63489e-16
1.63273e-16
1.62929e-16
1.62374e-16
1.61775e-16
1.60809e-16
1.61387e-16
1.61933e-16
1.62279e-16
1.62506e-16
1.62668e-16
1.62754e-16
1.62821e-16
1.62861e-16
1.62897e-16
1.62919e-16
1.6294e-16
1.62954e-16
1.62967e-16
1.62975e-16
1.62984e-16
1.62989e-16
1.62995e-16
1.62997e-16
1.63e-16
1.63002e-16
1.63004e-16
1.63004e-16
1.63005e-16
1.63005e-16
1.63005e-16
1.63005e-16
1.63004e-16
1.63004e-16
1.63002e-16
1.63e-16
1.62997e-16
1.62995e-16
1.62989e-16
1.62984e-16
1.62975e-16
1.62967e-16
1.62954e-16
1.62941e-16
1.62919e-16
1.62897e-16
1.62861e-16
1.62821e-16
1.62754e-16
1.62668e-16
1.62506e-16
1.62279e-16
1.61932e-16
1.61387e-16
1.60808e-16
1.62264e-16
1.62267e-16
1.62269e-16
1.6227e-16
1.62271e-16
1.62272e-16
1.62272e-16
1.62272e-16
1.62272e-16
1.62271e-16
1.6227e-16
1.62269e-16
1.62267e-16
1.62264e-16
1.62261e-16
1.62255e-16
1.6225e-16
1.62241e-16
1.62232e-16
1.62218e-16
1.62204e-16
1.62181e-16
1.62157e-16
1.62118e-16
1.62075e-16
1.62004e-16
1.6191e-16
1.61746e-16
1.61508e-16
1.61157e-16
1.6062e-16
1.60059e-16
1.61755e-16
1.61753e-16
1.61751e-16
1.61748e-16
1.61744e-16
1.61739e-16
1.61733e-16
1.61724e-16
1.61714e-16
1.617e-16
1.61684e-16
1.6166e-16
1.61634e-16
1.61594e-16
1.61546e-16
1.61471e-16
1.6137e-16
1.61204e-16
1.60952e-16
1.60599e-16
1.60066e-16
1.59522e-16
1.61322e-16
1.6128e-16
1.61228e-16
1.6115e-16
1.61041e-16
1.60872e-16
1.60608e-16
1.6025e-16
1.59719e-16
1.59191e-16
)
;

boundaryField
{
    fuel
    {
        type            fixedValue;
        value           nonuniform 0();
    }
    wall
    {
        type            zeroGradient;
    }
    outlet
    {
        type            zeroGradient;
    }
    frontAndBack
    {
        type            empty;
    }
    procBoundary0to1
    {
        type            processor;
        value           nonuniform List<scalar> 
50
(
6.28429e-16
6.33719e-16
6.38648e-16
6.4113e-16
6.41695e-16
6.42207e-16
6.41819e-16
6.41995e-16
6.41694e-16
6.4182e-16
6.41645e-16
6.41743e-16
6.41631e-16
6.41702e-16
6.41629e-16
6.41684e-16
6.41632e-16
6.41675e-16
6.41642e-16
6.41669e-16
6.41647e-16
6.41663e-16
6.4165e-16
6.41659e-16
6.41655e-16
6.41655e-16
6.41659e-16
6.4165e-16
6.41663e-16
6.41647e-16
6.41669e-16
6.41642e-16
6.41675e-16
6.41632e-16
6.41684e-16
6.4163e-16
6.41702e-16
6.41632e-16
6.41742e-16
6.41646e-16
6.41821e-16
6.41694e-16
6.41995e-16
6.41819e-16
6.42206e-16
6.41695e-16
6.41129e-16
6.38648e-16
6.33719e-16
6.28429e-16
)
;
    }
    procBoundary0to2
    {
        type            processor;
        value           nonuniform List<scalar> 
53
(
1.6006e-16
1.6062e-16
1.61158e-16
1.61508e-16
1.61747e-16
1.6191e-16
1.62004e-16
1.62075e-16
1.62118e-16
1.62157e-16
1.62181e-16
1.62204e-16
1.62218e-16
1.62232e-16
1.62241e-16
1.6225e-16
1.62255e-16
1.62261e-16
1.62261e-16
1.61748e-16
1.61751e-16
1.61753e-16
1.61755e-16
1.61755e-16
1.61756e-16
1.61756e-16
1.61756e-16
1.61756e-16
1.61755e-16
1.61755e-16
1.61449e-16
1.61448e-16
1.61446e-16
1.61442e-16
1.61439e-16
1.61433e-16
1.61427e-16
1.61418e-16
1.61407e-16
1.61392e-16
1.61375e-16
1.61351e-16
1.61351e-16
1.61214e-16
1.6117e-16
1.61115e-16
1.61032e-16
1.60917e-16
1.60745e-16
1.60466e-16
1.60106e-16
1.59574e-16
1.5906e-16
)
;
    }
}


// ************************************************************************* //
