/*--------------------------------*- C++ -*----------------------------------*\
| =========                 |                                                 |
| \\      /  F ield         | OpenFOAM: The Open Source CFD Toolbox           |
|  \\    /   O peration     | Version:  dev                                   |
|   \\  /    A nd           | Web:      www.OpenFOAM.org                      |
|    \\/     M anipulation  |                                                 |
\*---------------------------------------------------------------------------*/
FoamFile
{
    version     2.0;
    format      ascii;
    class       volScalarField;
    location    "0.075";
    object      PC3H4;
}
// * * * * * * * * * * * * * * * * * * * * * * * * * * * * * * * * * * * * * //

dimensions      [0 0 0 0 0 0 0];

internalField   nonuniform List<scalar> 
250
(
1.25865e-07
1.26014e-07
1.25749e-07
1.26186e-07
1.2574e-07
1.27883e-07
1.28982e-07
1.46084e-07
1.75311e-07
3.97727e-07
1.23686e-07
1.23813e-07
1.23576e-07
1.2397e-07
1.23579e-07
1.25526e-07
1.26682e-07
1.42464e-07
1.68456e-07
3.78139e-07
2.18697e-07
1.63787e-07
1.35626e-07
1.25409e-07
1.22603e-07
1.21927e-07
1.21833e-07
1.21776e-07
1.21854e-07
1.21892e-07
1.21804e-07
1.2191e-07
1.217e-07
1.2205e-07
1.21716e-07
1.2347e-07
1.2467e-07
1.39135e-07
1.621e-07
3.52626e-07
2.04321e-07
1.57612e-07
1.32872e-07
1.23575e-07
1.20946e-07
1.20303e-07
1.2021e-07
1.20157e-07
1.20229e-07
1.20266e-07
1.20186e-07
1.20274e-07
1.20089e-07
1.20398e-07
1.20118e-07
1.21689e-07
1.22913e-07
1.36085e-07
1.56192e-07
3.24597e-07
1.9169e-07
1.51907e-07
1.30387e-07
1.21964e-07
1.19512e-07
1.18903e-07
1.1881e-07
1.1876e-07
1.18827e-07
1.18862e-07
1.1879e-07
1.18863e-07
1.187e-07
1.18972e-07
1.1874e-07
1.20149e-07
1.21368e-07
1.33295e-07
1.51013e-07
3.01113e-07
1.807e-07
1.47133e-07
1.28119e-07
1.20524e-07
1.18248e-07
1.17673e-07
1.17582e-07
1.17531e-07
1.17595e-07
1.17625e-07
1.1756e-07
1.17624e-07
1.17476e-07
1.1772e-07
1.17525e-07
1.18804e-07
1.1998e-07
1.30736e-07
1.46057e-07
2.73328e-07
1.70711e-07
1.42512e-07
1.26012e-07
1.19193e-07
1.17088e-07
1.16546e-07
1.16456e-07
1.16403e-07
1.16466e-07
1.16489e-07
1.16429e-07
1.16489e-07
1.1635e-07
1.16578e-07
1.16406e-07
1.17598e-07
1.18686e-07
1.28367e-07
1.41552e-07
2.45061e-07
1.62244e-07
1.38382e-07
1.23999e-07
1.17894e-07
1.15957e-07
1.15444e-07
1.15356e-07
1.15298e-07
1.15362e-07
1.15376e-07
1.1532e-07
1.15382e-07
1.15244e-07
1.15468e-07
1.15303e-07
1.16322e-07
1.1736e-07
1.26134e-07
1.37335e-07
2.25641e-07
1.54483e-07
1.34457e-07
1.22004e-07
1.16538e-07
1.14721e-07
1.14239e-07
1.14155e-07
1.14086e-07
1.14155e-07
1.14152e-07
1.14101e-07
1.14172e-07
1.1403e-07
1.14263e-07
1.14092e-07
1.15119e-07
1.15998e-07
1.23971e-07
1.33299e-07
2.06279e-07
1.47613e-07
1.30641e-07
1.19788e-07
1.15033e-07
1.13363e-07
1.12902e-07
1.12822e-07
1.12741e-07
1.12817e-07
1.12799e-07
1.12749e-07
1.12835e-07
1.12679e-07
1.12937e-07
1.1274e-07
1.1378e-07
1.14464e-07
1.21803e-07
1.29219e-07
1.88174e-07
1.41174e-07
1.26829e-07
1.17507e-07
1.13279e-07
1.1174e-07
1.11296e-07
1.11223e-07
1.11126e-07
1.11213e-07
1.11176e-07
1.11125e-07
1.11234e-07
1.11055e-07
1.11352e-07
1.11112e-07
1.12201e-07
1.12658e-07
1.19315e-07
1.25291e-07
1.73726e-07
1.35123e-07
1.22906e-07
1.14928e-07
1.11168e-07
1.09747e-07
1.09316e-07
1.09251e-07
1.09135e-07
1.09237e-07
1.09177e-07
1.09124e-07
1.09262e-07
1.09052e-07
1.09401e-07
1.09103e-07
1.1027e-07
1.10477e-07
1.16757e-07
1.21242e-07
1.61147e-07
1.29202e-07
1.18744e-07
1.11939e-07
1.08591e-07
1.07272e-07
1.0685e-07
1.06797e-07
1.06657e-07
1.06778e-07
1.06693e-07
1.06636e-07
1.06808e-07
1.06562e-07
1.06972e-07
1.06605e-07
1.07871e-07
1.07814e-07
1.13826e-07
1.1695e-07
1.49886e-07
1.03552e-07
1.03762e-07
1.03474e-07
1.03951e-07
1.03509e-07
1.04888e-07
1.04563e-07
1.10391e-07
1.1229e-07
1.39593e-07
)
;

boundaryField
{
    fuel
    {
        type            fixedValue;
        value           nonuniform 0();
    }
    wall
    {
        type            zeroGradient;
    }
    outlet
    {
        type            zeroGradient;
    }
    frontAndBack
    {
        type            empty;
    }
    procBoundary0to1
    {
        type            processor;
        value           nonuniform List<scalar> 
21
(
1.23225e-07
1.14209e-07
1.08423e-07
1.05432e-07
1.04204e-07
1.03789e-07
1.03749e-07
1.03583e-07
1.03726e-07
1.03613e-07
1.03613e-07
9.9769e-08
1.0002e-07
9.96863e-08
1.00235e-07
9.97119e-08
1.01211e-07
1.0062e-07
1.06333e-07
1.07143e-07
1.29982e-07
)
;
    }
    procBoundary0to2
    {
        type            processor;
        value           nonuniform List<scalar> 
12
(
1.25967e-07
2.35148e-07
1.70478e-07
1.3866e-07
1.27499e-07
1.24527e-07
1.23817e-07
1.23723e-07
1.2366e-07
1.23745e-07
1.23781e-07
1.23781e-07
)
;
    }
    procBoundary0to3
    {
        type            processor;
        value           nonuniform List<scalar> 10(1.2836e-07 1.28535e-07 1.28239e-07 1.28723e-07 1.28217e-07 1.30566e-07 1.31586e-07 1.50664e-07 1.82374e-07 4.13318e-07);
    }
}


// ************************************************************************* //
