/*--------------------------------*- C++ -*----------------------------------*\
| =========                 |                                                 |
| \\      /  F ield         | OpenFOAM: The Open Source CFD Toolbox           |
|  \\    /   O peration     | Version:  dev                                   |
|   \\  /    A nd           | Web:      www.OpenFOAM.org                      |
|    \\/     M anipulation  |                                                 |
\*---------------------------------------------------------------------------*/
FoamFile
{
    version     2.0;
    format      ascii;
    class       volScalarField;
    location    "0.075";
    object      PC3H4;
}
// * * * * * * * * * * * * * * * * * * * * * * * * * * * * * * * * * * * * * //

dimensions      [0 0 0 0 0 0 0];

internalField   nonuniform List<scalar> 
2014
(
2.11919e-07
2.12401e-07
2.12841e-07
2.13066e-07
2.13145e-07
2.13193e-07
2.13175e-07
2.13183e-07
2.13163e-07
2.13167e-07
2.13154e-07
2.13158e-07
2.1315e-07
2.13153e-07
2.13148e-07
2.13151e-07
2.13147e-07
2.13149e-07
2.13147e-07
2.13149e-07
2.13148e-07
2.13148e-07
2.13148e-07
2.13148e-07
2.13148e-07
2.13148e-07
2.13148e-07
2.13148e-07
2.13148e-07
2.13148e-07
2.13149e-07
2.13147e-07
2.13149e-07
2.13147e-07
2.13151e-07
2.13148e-07
2.13153e-07
2.1315e-07
2.13158e-07
2.13154e-07
2.13167e-07
2.13163e-07
2.13183e-07
2.13175e-07
2.13193e-07
2.13145e-07
2.13066e-07
2.12841e-07
2.12401e-07
2.11919e-07
2.09414e-07
2.09894e-07
2.10329e-07
2.10551e-07
2.10629e-07
2.10677e-07
2.10659e-07
2.10666e-07
2.10647e-07
2.1065e-07
2.10638e-07
2.10641e-07
2.10633e-07
2.10636e-07
2.10631e-07
2.10633e-07
2.1063e-07
2.10632e-07
2.1063e-07
2.10632e-07
2.1063e-07
2.10631e-07
2.1063e-07
2.10631e-07
2.10631e-07
2.10631e-07
2.10631e-07
2.1063e-07
2.10631e-07
2.1063e-07
2.10632e-07
2.1063e-07
2.10632e-07
2.1063e-07
2.10633e-07
2.10631e-07
2.10636e-07
2.10633e-07
2.10641e-07
2.10638e-07
2.1065e-07
2.10647e-07
2.10666e-07
2.10659e-07
2.10677e-07
2.10629e-07
2.1055e-07
2.10329e-07
2.09894e-07
2.09414e-07
2.06971e-07
2.07449e-07
2.07878e-07
2.08096e-07
2.08174e-07
2.08221e-07
2.08203e-07
2.0821e-07
2.0819e-07
2.08193e-07
2.08181e-07
2.08184e-07
2.08176e-07
2.08179e-07
2.08174e-07
2.08177e-07
2.08173e-07
2.08176e-07
2.08174e-07
2.08175e-07
2.08174e-07
2.08174e-07
2.08174e-07
2.08174e-07
2.08174e-07
2.08174e-07
2.08174e-07
2.08174e-07
2.08174e-07
2.08174e-07
2.08175e-07
2.08174e-07
2.08176e-07
2.08173e-07
2.08177e-07
2.08174e-07
2.08179e-07
2.08176e-07
2.08184e-07
2.08181e-07
2.08193e-07
2.0819e-07
2.0821e-07
2.08203e-07
2.0822e-07
2.08174e-07
2.08096e-07
2.07878e-07
2.07449e-07
2.06971e-07
2.04589e-07
2.05066e-07
2.05486e-07
2.057e-07
2.05777e-07
2.05823e-07
2.05806e-07
2.05812e-07
2.05793e-07
2.05795e-07
2.05783e-07
2.05786e-07
2.05779e-07
2.05781e-07
2.05776e-07
2.05779e-07
2.05776e-07
2.05778e-07
2.05776e-07
2.05777e-07
2.05776e-07
2.05777e-07
2.05776e-07
2.05776e-07
2.05776e-07
2.05776e-07
2.05776e-07
2.05776e-07
2.05777e-07
2.05776e-07
2.05777e-07
2.05776e-07
2.05778e-07
2.05776e-07
2.05779e-07
2.05776e-07
2.05781e-07
2.05779e-07
2.05786e-07
2.05783e-07
2.05795e-07
2.05793e-07
2.05812e-07
2.05806e-07
2.05823e-07
2.05777e-07
2.057e-07
2.05486e-07
2.05066e-07
2.04589e-07
2.02265e-07
2.0274e-07
2.03153e-07
2.03363e-07
2.03438e-07
2.03483e-07
2.03466e-07
2.03472e-07
2.03453e-07
2.03455e-07
2.03443e-07
2.03446e-07
2.03438e-07
2.03441e-07
2.03436e-07
2.03438e-07
2.03435e-07
2.03437e-07
2.03435e-07
2.03437e-07
2.03435e-07
2.03436e-07
2.03435e-07
2.03436e-07
2.03436e-07
2.03436e-07
2.03436e-07
2.03435e-07
2.03436e-07
2.03435e-07
2.03437e-07
2.03435e-07
2.03437e-07
2.03435e-07
2.03438e-07
2.03436e-07
2.03441e-07
2.03438e-07
2.03446e-07
2.03443e-07
2.03455e-07
2.03453e-07
2.03472e-07
2.03466e-07
2.03483e-07
2.03438e-07
2.03363e-07
2.03153e-07
2.0274e-07
2.02265e-07
1.99999e-07
2.00472e-07
2.00876e-07
2.01082e-07
2.01155e-07
2.01199e-07
2.01183e-07
2.01188e-07
2.01169e-07
2.01171e-07
2.01159e-07
2.01162e-07
2.01154e-07
2.01157e-07
2.01152e-07
2.01154e-07
2.01151e-07
2.01153e-07
2.01151e-07
2.01153e-07
2.01151e-07
2.01152e-07
2.01151e-07
2.01152e-07
2.01152e-07
2.01152e-07
2.01152e-07
2.01151e-07
2.01152e-07
2.01151e-07
2.01153e-07
2.01151e-07
2.01153e-07
2.01151e-07
2.01154e-07
2.01152e-07
2.01157e-07
2.01154e-07
2.01162e-07
2.01159e-07
2.01171e-07
2.01169e-07
2.01188e-07
2.01183e-07
2.01199e-07
2.01155e-07
2.01082e-07
2.00876e-07
2.00472e-07
1.99999e-07
1.9779e-07
1.9826e-07
1.98656e-07
1.98856e-07
1.98928e-07
1.98971e-07
1.98954e-07
1.98959e-07
1.98941e-07
1.98942e-07
1.98931e-07
1.98933e-07
1.98926e-07
1.98928e-07
1.98923e-07
1.98925e-07
1.98923e-07
1.98924e-07
1.98923e-07
1.98924e-07
1.98923e-07
1.98923e-07
1.98923e-07
1.98923e-07
1.98923e-07
1.98923e-07
1.98923e-07
1.98923e-07
1.98923e-07
1.98923e-07
1.98924e-07
1.98923e-07
1.98924e-07
1.98923e-07
1.98925e-07
1.98923e-07
1.98928e-07
1.98926e-07
1.98933e-07
1.98931e-07
1.98942e-07
1.98941e-07
1.98959e-07
1.98954e-07
1.98971e-07
1.98928e-07
1.98856e-07
1.98656e-07
1.9826e-07
1.9779e-07
1.95636e-07
1.96104e-07
1.9649e-07
1.96685e-07
1.96754e-07
1.96797e-07
1.9678e-07
1.96785e-07
1.96767e-07
1.96768e-07
1.96757e-07
1.96758e-07
1.96751e-07
1.96753e-07
1.96749e-07
1.96751e-07
1.96748e-07
1.9675e-07
1.96748e-07
1.96749e-07
1.96748e-07
1.96749e-07
1.96748e-07
1.96749e-07
1.96748e-07
1.96748e-07
1.96749e-07
1.96748e-07
1.96749e-07
1.96748e-07
1.96749e-07
1.96748e-07
1.9675e-07
1.96748e-07
1.96751e-07
1.96749e-07
1.96753e-07
1.96751e-07
1.96758e-07
1.96757e-07
1.96768e-07
1.96767e-07
1.96785e-07
1.9678e-07
1.96797e-07
1.96754e-07
1.96685e-07
1.9649e-07
1.96104e-07
1.95636e-07
1.93537e-07
1.94002e-07
1.94377e-07
1.94567e-07
1.94635e-07
1.94676e-07
1.9466e-07
1.94664e-07
1.94646e-07
1.94647e-07
1.94636e-07
1.94637e-07
1.9463e-07
1.94632e-07
1.94628e-07
1.9463e-07
1.94627e-07
1.94629e-07
1.94627e-07
1.94628e-07
1.94627e-07
1.94628e-07
1.94627e-07
1.94628e-07
1.94627e-07
1.94627e-07
1.94628e-07
1.94627e-07
1.94628e-07
1.94627e-07
1.94628e-07
1.94627e-07
1.94629e-07
1.94627e-07
1.9463e-07
1.94628e-07
1.94632e-07
1.9463e-07
1.94637e-07
1.94636e-07
1.94647e-07
1.94646e-07
1.94664e-07
1.9466e-07
1.94676e-07
1.94635e-07
1.94567e-07
1.94377e-07
1.94002e-07
1.93537e-07
1.91492e-07
1.91952e-07
1.92317e-07
1.92502e-07
1.92567e-07
1.92608e-07
1.92591e-07
1.92595e-07
1.92578e-07
1.92578e-07
1.92567e-07
1.92569e-07
1.92562e-07
1.92564e-07
1.9256e-07
1.92562e-07
1.92559e-07
1.92561e-07
1.92559e-07
1.9256e-07
1.92559e-07
1.9256e-07
1.92559e-07
1.92559e-07
1.92559e-07
1.92559e-07
1.92559e-07
1.92559e-07
1.9256e-07
1.92559e-07
1.9256e-07
1.92559e-07
1.92561e-07
1.92559e-07
1.92562e-07
1.9256e-07
1.92564e-07
1.92562e-07
1.92569e-07
1.92567e-07
1.92578e-07
1.92578e-07
1.92595e-07
1.92591e-07
1.92608e-07
1.92567e-07
1.92502e-07
1.92317e-07
1.91952e-07
1.91492e-07
1.895e-07
1.89954e-07
1.90309e-07
1.90488e-07
1.90552e-07
1.90591e-07
1.90575e-07
1.90579e-07
1.90561e-07
1.90562e-07
1.90551e-07
1.90552e-07
1.90546e-07
1.90547e-07
1.90543e-07
1.90545e-07
1.90542e-07
1.90544e-07
1.90542e-07
1.90543e-07
1.90542e-07
1.90543e-07
1.90542e-07
1.90543e-07
1.90543e-07
1.90543e-07
1.90543e-07
1.90542e-07
1.90543e-07
1.90542e-07
1.90543e-07
1.90542e-07
1.90544e-07
1.90542e-07
1.90545e-07
1.90543e-07
1.90547e-07
1.90546e-07
1.90552e-07
1.90551e-07
1.90562e-07
1.90561e-07
1.90579e-07
1.90575e-07
1.90591e-07
1.90552e-07
1.90488e-07
1.90309e-07
1.89954e-07
1.895e-07
1.87561e-07
1.88008e-07
1.88352e-07
1.88526e-07
1.88588e-07
1.88625e-07
1.8861e-07
1.88613e-07
1.88596e-07
1.88596e-07
1.88585e-07
1.88587e-07
1.8858e-07
1.88582e-07
1.88578e-07
1.88579e-07
1.88577e-07
1.88579e-07
1.88577e-07
1.88578e-07
1.88577e-07
1.88578e-07
1.88577e-07
1.88577e-07
1.88577e-07
1.88577e-07
1.88577e-07
1.88577e-07
1.88578e-07
1.88577e-07
1.88578e-07
1.88577e-07
1.88579e-07
1.88577e-07
1.88579e-07
1.88578e-07
1.88582e-07
1.8858e-07
1.88587e-07
1.88585e-07
1.88596e-07
1.88596e-07
1.88613e-07
1.8861e-07
1.88625e-07
1.88588e-07
1.88526e-07
1.88352e-07
1.88008e-07
1.87561e-07
1.85673e-07
1.86111e-07
1.86446e-07
1.86614e-07
1.86674e-07
1.8671e-07
1.86695e-07
1.86697e-07
1.86681e-07
1.86681e-07
1.8667e-07
1.86672e-07
1.86665e-07
1.86667e-07
1.86663e-07
1.86664e-07
1.86662e-07
1.86664e-07
1.86662e-07
1.86663e-07
1.86662e-07
1.86663e-07
1.86662e-07
1.86662e-07
1.86662e-07
1.86662e-07
1.86662e-07
1.86662e-07
1.86663e-07
1.86662e-07
1.86663e-07
1.86662e-07
1.86664e-07
1.86662e-07
1.86665e-07
1.86663e-07
1.86667e-07
1.86665e-07
1.86672e-07
1.86671e-07
1.86681e-07
1.86681e-07
1.86697e-07
1.86695e-07
1.8671e-07
1.86674e-07
1.86614e-07
1.86446e-07
1.86111e-07
1.85672e-07
1.83835e-07
1.84264e-07
1.84589e-07
1.84752e-07
1.84809e-07
1.84844e-07
1.84829e-07
1.84832e-07
1.84816e-07
1.84815e-07
1.84805e-07
1.84806e-07
1.848e-07
1.84802e-07
1.84798e-07
1.84799e-07
1.84797e-07
1.84799e-07
1.84797e-07
1.84798e-07
1.84797e-07
1.84798e-07
1.84797e-07
1.84797e-07
1.84797e-07
1.84797e-07
1.84797e-07
1.84797e-07
1.84798e-07
1.84797e-07
1.84798e-07
1.84797e-07
1.84799e-07
1.84797e-07
1.84799e-07
1.84798e-07
1.84802e-07
1.848e-07
1.84806e-07
1.84805e-07
1.84815e-07
1.84816e-07
1.84832e-07
1.84829e-07
1.84844e-07
1.84809e-07
1.84752e-07
1.84589e-07
1.84264e-07
1.83835e-07
1.82048e-07
1.82466e-07
1.82782e-07
1.8294e-07
1.82994e-07
1.83028e-07
1.83013e-07
1.83016e-07
1.83e-07
1.82999e-07
1.8299e-07
1.8299e-07
1.82984e-07
1.82986e-07
1.82982e-07
1.82984e-07
1.82981e-07
1.82983e-07
1.82981e-07
1.82982e-07
1.82981e-07
1.82982e-07
1.82981e-07
1.82982e-07
1.82982e-07
1.82982e-07
1.82982e-07
1.82981e-07
1.82982e-07
1.82981e-07
1.82982e-07
1.82981e-07
1.82983e-07
1.82981e-07
1.82984e-07
1.82982e-07
1.82986e-07
1.82984e-07
1.8299e-07
1.8299e-07
1.82999e-07
1.83e-07
1.83016e-07
1.83013e-07
1.83028e-07
1.82994e-07
1.8294e-07
1.82782e-07
1.82466e-07
1.82048e-07
1.8031e-07
1.80716e-07
1.81023e-07
1.81176e-07
1.81228e-07
1.8126e-07
1.81246e-07
1.81248e-07
1.81233e-07
1.81232e-07
1.81222e-07
1.81223e-07
1.81217e-07
1.81219e-07
1.81215e-07
1.81217e-07
1.81214e-07
1.81216e-07
1.81214e-07
1.81215e-07
1.81214e-07
1.81215e-07
1.81214e-07
1.81215e-07
1.81215e-07
1.81215e-07
1.81215e-07
1.81214e-07
1.81215e-07
1.81214e-07
1.81215e-07
1.81214e-07
1.81216e-07
1.81214e-07
1.81217e-07
1.81215e-07
1.81219e-07
1.81217e-07
1.81223e-07
1.81223e-07
1.81232e-07
1.81233e-07
1.81248e-07
1.81246e-07
1.8126e-07
1.81228e-07
1.81175e-07
1.81022e-07
1.80716e-07
1.8031e-07
1.78621e-07
1.79014e-07
1.79312e-07
1.7946e-07
1.79509e-07
1.79541e-07
1.79527e-07
1.79529e-07
1.79514e-07
1.79513e-07
1.79504e-07
1.79504e-07
1.79499e-07
1.795e-07
1.79496e-07
1.79498e-07
1.79496e-07
1.79497e-07
1.79496e-07
1.79497e-07
1.79496e-07
1.79496e-07
1.79496e-07
1.79496e-07
1.79496e-07
1.79496e-07
1.79496e-07
1.79496e-07
1.79496e-07
1.79496e-07
1.79497e-07
1.79496e-07
1.79497e-07
1.79496e-07
1.79498e-07
1.79496e-07
1.795e-07
1.79499e-07
1.79504e-07
1.79504e-07
1.79513e-07
1.79514e-07
1.79529e-07
1.79527e-07
1.79541e-07
1.79509e-07
1.7946e-07
1.79311e-07
1.79014e-07
1.78621e-07
1.76979e-07
1.7736e-07
1.77648e-07
1.77791e-07
1.77839e-07
1.77869e-07
1.77855e-07
1.77857e-07
1.77842e-07
1.77842e-07
1.77833e-07
1.77833e-07
1.77828e-07
1.77829e-07
1.77826e-07
1.77827e-07
1.77825e-07
1.77826e-07
1.77825e-07
1.77826e-07
1.77825e-07
1.77826e-07
1.77825e-07
1.77826e-07
1.77825e-07
1.77825e-07
1.77826e-07
1.77825e-07
1.77826e-07
1.77825e-07
1.77826e-07
1.77825e-07
1.77826e-07
1.77825e-07
1.77827e-07
1.77826e-07
1.77829e-07
1.77828e-07
1.77833e-07
1.77833e-07
1.77842e-07
1.77842e-07
1.77857e-07
1.77855e-07
1.77869e-07
1.77839e-07
1.77791e-07
1.77648e-07
1.7736e-07
1.76979e-07
1.75385e-07
1.75752e-07
1.76032e-07
1.7617e-07
1.76215e-07
1.76244e-07
1.76231e-07
1.76232e-07
1.76219e-07
1.76218e-07
1.76209e-07
1.76209e-07
1.76204e-07
1.76205e-07
1.76202e-07
1.76204e-07
1.76201e-07
1.76203e-07
1.76202e-07
1.76203e-07
1.76202e-07
1.76202e-07
1.76202e-07
1.76202e-07
1.76202e-07
1.76202e-07
1.76202e-07
1.76202e-07
1.76202e-07
1.76202e-07
1.76203e-07
1.76202e-07
1.76203e-07
1.76202e-07
1.76204e-07
1.76202e-07
1.76205e-07
1.76204e-07
1.7621e-07
1.76209e-07
1.76218e-07
1.76219e-07
1.76232e-07
1.76231e-07
1.76244e-07
1.76215e-07
1.7617e-07
1.76032e-07
1.75752e-07
1.75385e-07
1.73837e-07
1.74191e-07
1.74463e-07
1.74596e-07
1.74639e-07
1.74667e-07
1.74654e-07
1.74655e-07
1.74641e-07
1.74641e-07
1.74632e-07
1.74633e-07
1.74628e-07
1.74629e-07
1.74626e-07
1.74627e-07
1.74625e-07
1.74626e-07
1.74625e-07
1.74626e-07
1.74625e-07
1.74626e-07
1.74625e-07
1.74626e-07
1.74626e-07
1.74626e-07
1.74626e-07
1.74625e-07
1.74626e-07
1.74625e-07
1.74626e-07
1.74625e-07
1.74626e-07
1.74625e-07
1.74627e-07
1.74626e-07
1.74629e-07
1.74628e-07
1.74633e-07
1.74632e-07
1.74641e-07
1.74641e-07
1.74655e-07
1.74654e-07
1.74667e-07
1.74639e-07
1.74596e-07
1.74463e-07
1.74191e-07
1.73837e-07
1.72335e-07
1.72676e-07
1.72939e-07
1.73067e-07
1.73108e-07
1.73135e-07
1.73123e-07
1.73124e-07
1.73111e-07
1.7311e-07
1.73102e-07
1.73102e-07
1.73097e-07
1.73099e-07
1.73096e-07
1.73097e-07
1.73095e-07
1.73096e-07
1.73095e-07
1.73096e-07
1.73095e-07
1.73096e-07
1.73095e-07
1.73096e-07
1.73096e-07
1.73096e-07
1.73096e-07
1.73095e-07
1.73096e-07
1.73095e-07
1.73096e-07
1.73095e-07
1.73096e-07
1.73095e-07
1.73097e-07
1.73096e-07
1.73099e-07
1.73097e-07
1.73102e-07
1.73102e-07
1.7311e-07
1.73111e-07
1.73124e-07
1.73123e-07
1.73135e-07
1.73108e-07
1.73067e-07
1.72939e-07
1.72676e-07
1.72335e-07
1.70879e-07
1.71207e-07
1.71462e-07
1.71585e-07
1.71624e-07
1.71649e-07
1.71638e-07
1.71638e-07
1.71626e-07
1.71625e-07
1.71618e-07
1.71618e-07
1.71613e-07
1.71614e-07
1.71612e-07
1.71613e-07
1.71611e-07
1.71612e-07
1.71611e-07
1.71612e-07
1.71611e-07
1.71612e-07
1.71612e-07
1.71612e-07
1.71612e-07
1.71612e-07
1.71612e-07
1.71612e-07
1.71612e-07
1.71611e-07
1.71612e-07
1.71611e-07
1.71612e-07
1.71611e-07
1.71613e-07
1.71612e-07
1.71614e-07
1.71613e-07
1.71618e-07
1.71618e-07
1.71625e-07
1.71626e-07
1.71638e-07
1.71638e-07
1.71649e-07
1.71624e-07
1.71585e-07
1.71462e-07
1.71207e-07
1.70879e-07
1.69468e-07
1.69783e-07
1.70029e-07
1.70147e-07
1.70185e-07
1.70209e-07
1.70198e-07
1.70199e-07
1.70187e-07
1.70186e-07
1.70179e-07
1.70179e-07
1.70175e-07
1.70176e-07
1.70173e-07
1.70174e-07
1.70173e-07
1.70174e-07
1.70173e-07
1.70174e-07
1.70173e-07
1.70174e-07
1.70173e-07
1.70174e-07
1.70173e-07
1.70173e-07
1.70174e-07
1.70173e-07
1.70174e-07
1.70173e-07
1.70174e-07
1.70173e-07
1.70174e-07
1.70173e-07
1.70174e-07
1.70173e-07
1.70176e-07
1.70175e-07
1.70179e-07
1.70179e-07
1.70186e-07
1.70187e-07
1.70199e-07
1.70198e-07
1.70209e-07
1.70185e-07
1.70147e-07
1.70029e-07
1.69783e-07
1.69468e-07
1.681e-07
1.68404e-07
1.6864e-07
1.68755e-07
1.68791e-07
1.68814e-07
1.68803e-07
1.68804e-07
1.68793e-07
1.68792e-07
1.68785e-07
1.68786e-07
1.68781e-07
1.68782e-07
1.6878e-07
1.68781e-07
1.6878e-07
1.68781e-07
1.6878e-07
1.68781e-07
1.6878e-07
1.68781e-07
1.6878e-07
1.6878e-07
1.6878e-07
1.6878e-07
1.6878e-07
1.6878e-07
1.68781e-07
1.6878e-07
1.68781e-07
1.6878e-07
1.68781e-07
1.6878e-07
1.68781e-07
1.6878e-07
1.68782e-07
1.68781e-07
1.68786e-07
1.68785e-07
1.68792e-07
1.68793e-07
1.68804e-07
1.68803e-07
1.68814e-07
1.68791e-07
1.68755e-07
1.6864e-07
1.68404e-07
1.681e-07
1.66777e-07
1.67069e-07
1.67296e-07
1.67407e-07
1.67441e-07
1.67463e-07
1.67453e-07
1.67454e-07
1.67443e-07
1.67443e-07
1.67436e-07
1.67436e-07
1.67432e-07
1.67433e-07
1.67431e-07
1.67432e-07
1.67431e-07
1.67432e-07
1.67431e-07
1.67432e-07
1.67431e-07
1.67432e-07
1.67431e-07
1.67432e-07
1.67432e-07
1.67432e-07
1.67432e-07
1.67432e-07
1.67432e-07
1.67431e-07
1.67432e-07
1.67431e-07
1.67432e-07
1.67431e-07
1.67432e-07
1.67431e-07
1.67433e-07
1.67432e-07
1.67436e-07
1.67436e-07
1.67443e-07
1.67443e-07
1.67454e-07
1.67453e-07
1.67463e-07
1.67441e-07
1.67407e-07
1.67296e-07
1.67069e-07
1.66777e-07
1.65541e-07
1.65824e-07
1.6604e-07
1.66148e-07
1.66181e-07
1.66201e-07
1.66192e-07
1.66193e-07
1.66183e-07
1.66183e-07
1.66176e-07
1.66177e-07
1.66173e-07
1.66174e-07
1.66172e-07
1.66173e-07
1.66172e-07
1.66173e-07
1.66172e-07
1.66173e-07
1.66172e-07
1.66173e-07
1.66173e-07
1.66173e-07
1.66173e-07
1.66173e-07
1.66173e-07
1.66173e-07
1.66173e-07
1.66172e-07
1.66173e-07
1.66172e-07
1.66173e-07
1.66172e-07
1.66173e-07
1.66172e-07
1.66174e-07
1.66173e-07
1.66177e-07
1.66176e-07
1.66183e-07
1.66183e-07
1.66193e-07
1.66192e-07
1.66201e-07
1.66181e-07
1.66148e-07
1.6604e-07
1.65824e-07
1.65541e-07
1.64332e-07
1.64607e-07
1.6481e-07
1.64913e-07
1.64942e-07
1.64958e-07
1.64948e-07
1.64948e-07
1.64938e-07
1.64937e-07
1.64931e-07
1.64931e-07
1.64928e-07
1.64929e-07
1.64926e-07
1.64928e-07
1.64926e-07
1.64927e-07
1.64926e-07
1.64927e-07
1.64927e-07
1.64927e-07
1.64927e-07
1.64927e-07
1.64927e-07
1.64927e-07
1.64927e-07
1.64927e-07
1.64927e-07
1.64927e-07
1.64927e-07
1.64926e-07
1.64927e-07
1.64926e-07
1.64928e-07
1.64926e-07
1.64929e-07
1.64928e-07
1.64931e-07
1.64931e-07
1.64937e-07
1.64938e-07
1.64948e-07
1.64948e-07
1.64958e-07
1.64941e-07
1.64913e-07
1.6481e-07
1.64607e-07
1.64332e-07
1.63143e-07
1.63407e-07
1.636e-07
1.637e-07
1.63728e-07
1.63743e-07
1.63733e-07
1.63733e-07
1.63724e-07
1.63723e-07
1.63717e-07
1.63718e-07
1.63714e-07
1.63715e-07
1.63713e-07
1.63714e-07
1.63713e-07
1.63714e-07
1.63713e-07
1.63714e-07
1.63714e-07
1.63714e-07
1.63714e-07
1.63714e-07
1.63714e-07
1.63714e-07
1.63714e-07
1.63714e-07
1.63714e-07
1.63714e-07
1.63714e-07
1.63713e-07
1.63714e-07
1.63713e-07
1.63714e-07
1.63713e-07
1.63715e-07
1.63714e-07
1.63718e-07
1.63717e-07
1.63723e-07
1.63724e-07
1.63733e-07
1.63733e-07
1.63743e-07
1.63727e-07
1.637e-07
1.636e-07
1.63407e-07
1.63143e-07
1.61996e-07
1.6225e-07
1.62433e-07
1.6253e-07
1.62556e-07
1.6257e-07
1.62561e-07
1.62561e-07
1.62553e-07
1.62552e-07
1.62547e-07
1.62547e-07
1.62544e-07
1.62545e-07
1.62543e-07
1.62544e-07
1.62543e-07
1.62544e-07
1.62543e-07
1.62544e-07
1.62544e-07
1.62544e-07
1.62544e-07
1.62544e-07
1.62544e-07
1.62544e-07
1.62544e-07
1.62544e-07
1.62544e-07
1.62544e-07
1.62544e-07
1.62543e-07
1.62544e-07
1.62543e-07
1.62544e-07
1.62543e-07
1.62545e-07
1.62544e-07
1.62547e-07
1.62547e-07
1.62552e-07
1.62553e-07
1.62561e-07
1.62561e-07
1.6257e-07
1.62556e-07
1.6253e-07
1.62432e-07
1.6225e-07
1.61996e-07
1.6089e-07
1.61134e-07
1.61308e-07
1.61402e-07
1.61428e-07
1.61439e-07
1.61431e-07
1.61432e-07
1.61424e-07
1.61423e-07
1.61418e-07
1.61419e-07
1.61416e-07
1.61417e-07
1.61415e-07
1.61416e-07
1.61415e-07
1.61416e-07
1.61416e-07
1.61416e-07
1.61416e-07
1.61416e-07
1.61416e-07
1.61416e-07
1.61416e-07
1.61416e-07
1.61416e-07
1.61416e-07
1.61416e-07
1.61416e-07
1.61416e-07
1.61416e-07
1.61416e-07
1.61415e-07
1.61416e-07
1.61415e-07
1.61417e-07
1.61416e-07
1.61419e-07
1.61418e-07
1.61423e-07
1.61424e-07
1.61432e-07
1.61431e-07
1.61439e-07
1.61428e-07
1.61402e-07
1.61308e-07
1.61134e-07
1.6089e-07
1.59825e-07
1.60059e-07
1.60224e-07
1.60315e-07
1.60341e-07
1.6035e-07
1.60343e-07
1.60344e-07
1.60336e-07
1.60336e-07
1.60331e-07
1.60332e-07
1.60329e-07
1.6033e-07
1.60329e-07
1.6033e-07
1.60329e-07
1.6033e-07
1.60329e-07
1.6033e-07
1.6033e-07
1.6033e-07
1.6033e-07
1.6033e-07
1.6033e-07
1.6033e-07
1.6033e-07
1.6033e-07
1.6033e-07
1.6033e-07
1.6033e-07
1.60329e-07
1.6033e-07
1.60329e-07
1.6033e-07
1.60329e-07
1.6033e-07
1.60329e-07
1.60332e-07
1.60332e-07
1.60336e-07
1.60336e-07
1.60344e-07
1.60343e-07
1.6035e-07
1.60341e-07
1.60315e-07
1.60224e-07
1.60059e-07
1.59825e-07
1.58834e-07
1.59059e-07
1.59217e-07
1.59305e-07
1.5933e-07
1.59337e-07
1.59331e-07
1.59331e-07
1.59325e-07
1.59325e-07
1.59321e-07
1.59321e-07
1.59319e-07
1.5932e-07
1.59318e-07
1.5932e-07
1.59319e-07
1.5932e-07
1.59319e-07
1.5932e-07
1.5932e-07
1.5932e-07
1.5932e-07
1.5932e-07
1.5932e-07
1.5932e-07
1.5932e-07
1.5932e-07
1.5932e-07
1.5932e-07
1.5932e-07
1.59319e-07
1.5932e-07
1.59319e-07
1.5932e-07
1.59318e-07
1.5932e-07
1.59319e-07
1.59321e-07
1.59321e-07
1.59325e-07
1.59325e-07
1.59331e-07
1.59331e-07
1.59337e-07
1.5933e-07
1.59305e-07
1.59216e-07
1.59059e-07
1.58834e-07
1.57884e-07
1.58099e-07
1.5825e-07
1.58336e-07
1.5836e-07
1.58365e-07
1.58359e-07
1.5836e-07
1.58353e-07
1.58352e-07
1.58348e-07
1.58348e-07
1.58345e-07
1.58346e-07
1.58345e-07
1.58346e-07
1.58345e-07
1.58346e-07
1.58345e-07
1.58346e-07
1.58346e-07
1.58346e-07
1.58346e-07
1.58346e-07
1.58346e-07
1.58346e-07
1.58346e-07
1.58346e-07
1.58346e-07
1.58346e-07
1.58346e-07
1.58345e-07
1.58346e-07
1.58345e-07
1.58346e-07
1.58345e-07
1.58346e-07
1.58345e-07
1.58348e-07
1.58348e-07
1.58352e-07
1.58353e-07
1.5836e-07
1.58359e-07
1.58365e-07
1.5836e-07
1.58336e-07
1.5825e-07
1.58099e-07
1.57884e-07
1.56946e-07
1.57153e-07
1.57296e-07
1.57378e-07
1.57402e-07
1.57403e-07
1.57398e-07
1.57398e-07
1.57391e-07
1.57391e-07
1.57386e-07
1.57387e-07
1.57384e-07
1.57385e-07
1.57384e-07
1.57385e-07
1.57384e-07
1.57385e-07
1.57384e-07
1.57385e-07
1.57385e-07
1.57385e-07
1.57385e-07
1.57385e-07
1.57385e-07
1.57385e-07
1.57385e-07
1.57385e-07
1.57385e-07
1.57385e-07
1.57385e-07
1.57384e-07
1.57385e-07
1.57384e-07
1.57385e-07
1.57384e-07
1.57385e-07
1.57384e-07
1.57387e-07
1.57386e-07
1.57391e-07
1.57391e-07
1.57398e-07
1.57398e-07
1.57403e-07
1.57402e-07
1.57378e-07
1.57296e-07
1.57153e-07
1.56946e-07
1.56043e-07
1.5624e-07
1.56377e-07
1.56456e-07
1.56481e-07
1.56508e-07
1.56504e-07
1.56505e-07
1.56498e-07
1.56498e-07
1.56494e-07
1.56494e-07
1.56492e-07
1.56493e-07
1.56492e-07
1.56493e-07
1.56492e-07
1.56493e-07
1.56493e-07
1.56493e-07
1.56493e-07
1.56494e-07
1.56493e-07
1.56494e-07
1.56494e-07
1.56494e-07
1.56494e-07
1.56493e-07
1.56494e-07
1.56493e-07
1.56493e-07
1.56493e-07
1.56493e-07
1.56492e-07
1.56493e-07
1.56492e-07
1.56493e-07
1.56492e-07
1.56494e-07
1.56494e-07
1.56498e-07
1.56498e-07
1.56505e-07
1.56504e-07
1.56508e-07
1.56481e-07
1.56456e-07
1.56377e-07
1.5624e-07
1.56043e-07
1.55205e-07
1.55394e-07
1.55525e-07
1.55601e-07
1.55626e-07
1.55652e-07
1.55649e-07
1.5565e-07
1.55644e-07
1.55644e-07
1.5564e-07
1.55641e-07
1.55639e-07
1.5564e-07
1.55639e-07
1.5564e-07
1.55639e-07
1.5564e-07
1.5564e-07
1.5564e-07
1.5564e-07
1.5564e-07
1.5564e-07
1.55641e-07
1.5564e-07
1.5564e-07
1.55641e-07
1.5564e-07
1.5564e-07
1.5564e-07
1.5564e-07
1.5564e-07
1.5564e-07
1.55639e-07
1.5564e-07
1.55639e-07
1.5564e-07
1.55639e-07
1.55641e-07
1.5564e-07
1.55644e-07
1.55644e-07
1.5565e-07
1.55649e-07
1.55652e-07
1.55626e-07
1.55601e-07
1.55525e-07
1.55394e-07
1.55205e-07
1.54399e-07
1.54583e-07
1.54705e-07
1.54779e-07
1.54801e-07
1.54825e-07
1.54821e-07
1.54821e-07
1.54816e-07
1.54815e-07
1.54812e-07
1.54812e-07
1.5481e-07
1.54811e-07
1.5481e-07
1.54811e-07
1.5481e-07
1.54811e-07
1.54811e-07
1.54812e-07
1.54811e-07
1.54812e-07
1.54812e-07
1.54812e-07
1.54812e-07
1.54812e-07
1.54812e-07
1.54812e-07
1.54812e-07
1.54811e-07
1.54812e-07
1.54811e-07
1.54811e-07
1.5481e-07
1.54811e-07
1.5481e-07
1.54811e-07
1.5481e-07
1.54812e-07
1.54812e-07
1.54815e-07
1.54816e-07
1.54821e-07
1.54821e-07
1.54825e-07
1.54801e-07
1.54779e-07
1.54705e-07
1.54583e-07
1.54399e-07
1.53634e-07
1.5381e-07
1.53926e-07
1.53998e-07
1.5402e-07
1.54042e-07
1.54039e-07
1.5404e-07
1.54035e-07
1.54035e-07
1.54032e-07
1.54032e-07
1.5403e-07
1.54031e-07
1.5403e-07
1.54031e-07
1.54031e-07
1.54032e-07
1.54031e-07
1.54032e-07
1.54032e-07
1.54032e-07
1.54032e-07
1.54032e-07
1.54032e-07
1.54032e-07
1.54032e-07
1.54032e-07
1.54032e-07
1.54032e-07
1.54032e-07
1.54031e-07
1.54032e-07
1.54031e-07
1.54031e-07
1.5403e-07
1.54031e-07
1.5403e-07
1.54032e-07
1.54032e-07
1.54035e-07
1.54035e-07
1.5404e-07
1.54039e-07
1.54042e-07
1.5402e-07
1.53998e-07
1.53926e-07
1.5381e-07
1.53634e-07
1.52904e-07
1.53073e-07
1.53182e-07
1.53252e-07
1.53275e-07
1.53296e-07
1.53294e-07
1.53294e-07
1.5329e-07
1.5329e-07
1.53287e-07
1.53287e-07
1.53286e-07
1.53287e-07
1.53286e-07
1.53287e-07
1.53287e-07
1.53288e-07
1.53287e-07
1.53288e-07
1.53288e-07
1.53288e-07
1.53288e-07
1.53288e-07
1.53288e-07
1.53288e-07
1.53288e-07
1.53288e-07
1.53288e-07
1.53288e-07
1.53288e-07
1.53287e-07
1.53288e-07
1.53287e-07
1.53287e-07
1.53286e-07
1.53287e-07
1.53286e-07
1.53288e-07
1.53287e-07
1.5329e-07
1.5329e-07
1.53294e-07
1.53294e-07
1.53296e-07
1.53275e-07
1.53252e-07
1.53182e-07
1.53072e-07
1.52904e-07
1.52578e-07
1.52578e-07
1.52578e-07
1.52578e-07
1.52578e-07
1.52578e-07
1.52578e-07
1.52578e-07
1.52578e-07
1.52578e-07
1.52578e-07
1.52578e-07
1.52578e-07
1.52578e-07
1.52578e-07
1.52577e-07
1.52577e-07
1.52576e-07
1.52577e-07
1.52576e-07
1.52577e-07
1.52577e-07
1.52579e-07
1.52579e-07
1.52583e-07
1.52582e-07
1.52584e-07
1.52564e-07
1.52541e-07
1.52472e-07
1.52369e-07
1.52207e-07
1.51902e-07
1.51902e-07
1.51902e-07
1.51901e-07
1.51901e-07
1.519e-07
1.51901e-07
1.519e-07
1.519e-07
1.51899e-07
1.51901e-07
1.519e-07
1.51902e-07
1.51902e-07
1.51905e-07
1.51904e-07
1.51905e-07
1.51886e-07
1.51863e-07
1.51796e-07
1.51698e-07
1.51544e-07
1.51257e-07
1.51256e-07
1.51259e-07
1.51258e-07
1.51258e-07
1.5124e-07
1.51217e-07
1.51152e-07
1.5106e-07
1.50911e-07
)
;

boundaryField
{
    fuel
    {
        type            fixedValue;
        value           nonuniform 0();
    }
    wall
    {
        type            zeroGradient;
    }
    outlet
    {
        type            zeroGradient;
    }
    frontAndBack
    {
        type            empty;
    }
    procBoundary0to1
    {
        type            processor;
        value           nonuniform List<scalar> 
50
(
2.14488e-07
2.14972e-07
2.15416e-07
2.15643e-07
2.15723e-07
2.15771e-07
2.15753e-07
2.15762e-07
2.15741e-07
2.15745e-07
2.15733e-07
2.15737e-07
2.15729e-07
2.15732e-07
2.15727e-07
2.15729e-07
2.15726e-07
2.15728e-07
2.15726e-07
2.15728e-07
2.15726e-07
2.15727e-07
2.15727e-07
2.15727e-07
2.15727e-07
2.15727e-07
2.15727e-07
2.15727e-07
2.15727e-07
2.15726e-07
2.15728e-07
2.15726e-07
2.15728e-07
2.15726e-07
2.1573e-07
2.15727e-07
2.15732e-07
2.15729e-07
2.15737e-07
2.15733e-07
2.15745e-07
2.15741e-07
2.15762e-07
2.15753e-07
2.15771e-07
2.15723e-07
2.15643e-07
2.15416e-07
2.14972e-07
2.14488e-07
)
;
    }
    procBoundary0to2
    {
        type            processor;
        value           nonuniform List<scalar> 
53
(
1.52207e-07
1.52369e-07
1.52473e-07
1.52541e-07
1.52564e-07
1.52584e-07
1.52582e-07
1.52583e-07
1.52579e-07
1.52579e-07
1.52577e-07
1.52577e-07
1.52576e-07
1.52577e-07
1.52576e-07
1.52577e-07
1.52577e-07
1.52578e-07
1.52578e-07
1.51901e-07
1.51902e-07
1.51902e-07
1.51902e-07
1.51902e-07
1.51902e-07
1.51902e-07
1.51902e-07
1.51902e-07
1.51902e-07
1.51902e-07
1.51258e-07
1.51257e-07
1.51257e-07
1.51257e-07
1.51257e-07
1.51256e-07
1.51256e-07
1.51255e-07
1.51256e-07
1.51255e-07
1.51256e-07
1.51255e-07
1.51255e-07
1.50642e-07
1.50642e-07
1.50644e-07
1.50642e-07
1.50642e-07
1.50625e-07
1.50601e-07
1.50538e-07
1.50451e-07
1.5031e-07
)
;
    }
}


// ************************************************************************* //
