/*--------------------------------*- C++ -*----------------------------------*\
| =========                 |                                                 |
| \\      /  F ield         | OpenFOAM: The Open Source CFD Toolbox           |
|  \\    /   O peration     | Version:  dev                                   |
|   \\  /    A nd           | Web:      www.OpenFOAM.org                      |
|    \\/     M anipulation  |                                                 |
\*---------------------------------------------------------------------------*/
FoamFile
{
    version     2.0;
    format      ascii;
    class       volVectorField;
    location    "0.075";
    object      U;
}
// * * * * * * * * * * * * * * * * * * * * * * * * * * * * * * * * * * * * * //

dimensions      [0 1 -1 0 0 0 0];

internalField   nonuniform List<vector> 
250
(
(0 0.0239161 0.539398)
(0 -0.212933 0.578754)
(0 -0.171356 0.515973)
(0 -0.567551 0.621101)
(0 -0.302496 0.47413)
(0 -1.00977 0.719194)
(0 -0.391725 0.409301)
(0 -1.50762 0.924404)
(0 -0.636145 0.445076)
(0 -1.67595 1.25379)
(0 0.020544 0.524281)
(0 -0.219352 0.563584)
(0 -0.18493 0.500859)
(0 -0.581358 0.605903)
(0 -0.329037 0.458787)
(0 -1.02876 0.702901)
(0 -0.436062 0.392431)
(0 -1.53204 0.908186)
(0 -0.690566 0.413631)
(0 -1.71252 1.24033)
(0 1.39464 0.756043)
(0 1.01777 0.481503)
(0 1.17203 0.61562)
(0 0.849727 0.509583)
(0 0.843881 0.536623)
(0 0.610874 0.514525)
(0 0.541629 0.52555)
(0 0.356941 0.517281)
(0 0.266273 0.521159)
(0 0.0785213 0.525403)
(0 0.0172986 0.508579)
(0 -0.225486 0.547773)
(0 -0.198055 0.485165)
(0 -0.594554 0.589706)
(0 -0.354715 0.443183)
(0 -1.04679 0.68525)
(0 -0.478745 0.375763)
(0 -1.55494 0.889354)
(0 -0.743187 0.384605)
(0 -1.75173 1.22368)
(0 1.45121 0.735091)
(0 1.06596 0.471475)
(0 1.20228 0.597627)
(0 0.878061 0.494197)
(0 0.86541 0.519883)
(0 0.628944 0.49807)
(0 0.555597 0.509342)
(0 0.366553 0.50068)
(0 0.272102 0.50487)
(0 0.0801341 0.508919)
(0 0.0141784 0.492267)
(0 -0.231324 0.531159)
(0 -0.210703 0.468908)
(0 -0.607102 0.572623)
(0 -0.379492 0.42711)
(0 -1.06381 0.666367)
(0 -0.519706 0.359245)
(0 -1.57639 0.867837)
(0 -0.794082 0.357944)
(0 -1.79336 1.20313)
(0 1.50624 0.712476)
(0 1.11215 0.460196)
(0 1.23149 0.578547)
(0 0.905193 0.478015)
(0 0.88605 0.502413)
(0 0.646294 0.480948)
(0 0.568957 0.492464)
(0 0.375773 0.48343)
(0 0.277681 0.487962)
(0 0.0816816 0.491753)
(0 0.0111928 0.475269)
(0 -0.236863 0.513749)
(0 -0.222849 0.452071)
(0 -0.618968 0.554594)
(0 -0.403327 0.410658)
(0 -1.07979 0.646236)
(0 -0.558903 0.34283)
(0 -1.59641 0.84403)
(0 -0.843215 0.333367)
(0 -1.83685 1.17853)
(0 1.55941 0.688325)
(0 1.15613 0.447636)
(0 1.2595 0.558411)
(0 0.931057 0.461015)
(0 0.905714 0.484185)
(0 0.662866 0.463119)
(0 0.581651 0.474861)
(0 0.38456 0.465513)
(0 0.282995 0.470354)
(0 0.0831512 0.473827)
(0 0.00833558 0.457607)
(0 -0.242096 0.495559)
(0 -0.234477 0.434636)
(0 -0.630109 0.535624)
(0 -0.426178 0.393797)
(0 -1.09467 0.624858)
(0 -0.596287 0.326482)
(0 -1.61501 0.818005)
(0 -0.890513 0.310668)
(0 -1.88143 1.14923)
(0 1.6104 0.662733)
(0 1.19777 0.433821)
(0 1.28613 0.537276)
(0 0.95556 0.443244)
(0 0.92431 0.465223)
(0 0.678601 0.444597)
(0 0.593625 0.456529)
(0 0.392874 0.446875)
(0 0.288014 0.452009)
(0 0.0845226 0.455184)
(0 0.00560734 0.439272)
(0 -0.247012 0.476578)
(0 -0.245569 0.416593)
(0 -0.640477 0.515704)
(0 -0.447996 0.376513)
(0 -1.1084 0.602115)
(0 -0.63181 0.310129)
(0 -1.63211 0.789882)
(0 -0.935812 0.289615)
(0 -1.92644 1.11502)
(0 1.6589 0.635745)
(0 1.23686 0.418736)
(0 1.3112 0.515136)
(0 0.978597 0.424677)
(0 0.941735 0.445486)
(0 0.693429 0.425346)
(0 0.60482 0.437438)
(0 0.400668 0.427512)
(0 0.29271 0.432917)
(0 0.0857747 0.435772)
(0 0.00300743 0.42023)
(0 -0.251599 0.45677)
(0 -0.256108 0.397917)
(0 -0.650028 0.494801)
(0 -0.468724 0.358761)
(0 -1.12094 0.57799)
(0 -0.665446 0.293677)
(0 -1.64766 0.759804)
(0 -0.978941 0.269996)
(0 -1.97116 1.07633)
(0 1.7046 0.607383)
(0 1.27325 0.402386)
(0 1.33452 0.491954)
(0 1.00005 0.405319)
(0 0.957896 0.424957)
(0 0.707283 0.405355)
(0 0.61518 0.417577)
(0 0.407898 0.407418)
(0 0.297058 0.413067)
(0 0.0868853 0.415587)
(0 0.000534164 0.400478)
(0 -0.255852 0.436138)
(0 -0.266075 0.378599)
(0 -0.658721 0.472925)
(0 -0.488325 0.340541)
(0 -1.13213 0.552673)
(0 -0.697107 0.277128)
(0 -1.66153 0.727836)
(0 -1.01971 0.251534)
(0 -2.01475 1.03299)
(0 1.7472 0.577697)
(0 1.30676 0.38479)
(0 1.35597 0.467746)
(0 1.01979 0.385165)
(0 0.972635 0.403705)
(0 0.72005 0.38468)
(0 0.624612 0.396996)
(0 0.414485 0.386651)
(0 0.301015 0.392513)
(0 0.0878207 0.394696)
(0 -0.00180983 0.380076)
(0 -0.259756 0.414732)
(0 -0.275424 0.35871)
(0 -0.666491 0.450151)
(0 -0.506732 0.321913)
(0 -1.14191 0.526237)
(0 -0.726726 0.260518)
(0 -1.6736 0.693828)
(0 -1.05792 0.23387)
(0 -2.0565 0.986111)
(0 1.78639 0.546767)
(0 1.33723 0.365974)
(0 1.37526 0.442655)
(0 1.03768 0.364221)
(0 0.985828 0.381771)
(0 0.731643 0.363354)
(0 0.633051 0.375719)
(0 0.42037 0.365262)
(0 0.304548 0.371301)
(0 0.0885515 0.37316)
(0 -0.00402542 0.35905)
(0 -0.263305 0.392581)
(0 -0.284133 0.338276)
(0 -0.673278 0.426501)
(0 -0.523896 0.302894)
(0 -1.15016 0.498658)
(0 -0.754213 0.243799)
(0 -1.68374 0.657886)
(0 -1.09344 0.216852)
(0 -2.09549 0.936115)
(0 1.82186 0.514661)
(0 1.36447 0.345999)
(0 1.39222 0.416714)
(0 1.05358 0.342519)
(0 0.997344 0.359134)
(0 0.741962 0.341352)
(0 0.640418 0.353726)
(0 0.425483 0.343184)
(0 0.307621 0.349374)
(0 0.089048 0.35089)
(0 -0.00610854 0.337408)
(0 -0.266486 0.369681)
(0 -0.29218 0.317282)
(0 -0.679014 0.401964)
(0 -0.539767 0.28347)
(0 -1.15676 0.469986)
(0 -0.779496 0.226959)
(0 -1.69162 0.620244)
(0 -1.12605 0.200414)
(0 -2.13104 0.882452)
(0 1.85329 0.481421)
(0 1.38832 0.324889)
(0 1.40663 0.389929)
(0 1.06733 0.320092)
(0 1.00705 0.33581)
(0 0.750899 0.318702)
(0 0.64664 0.331004)
(0 0.429752 0.320473)
(0 0.310201 0.326714)
(0 0.0892699 0.32791)
(0 -0.0080644 0.315105)
(0 -0.269284 0.346011)
(0 -0.299538 0.295729)
(0 -0.683628 0.376521)
(0 -0.554296 0.263659)
(0 -1.16159 0.44021)
(0 -0.802504 0.210028)
(0 -1.69706 0.581028)
(0 -1.15556 0.184309)
(0 -2.16252 0.825684)
(0 -0.00988476 0.292218)
(0 -0.271691 0.321639)
(0 -0.306176 0.273698)
(0 -0.687049 0.350274)
(0 -0.567427 0.243487)
(0 -1.16449 0.409504)
(0 -0.823177 0.193)
(0 -1.6998 0.540339)
(0 -1.18182 0.168604)
(0 -2.18927 0.766221)
)
;

boundaryField
{
    fuel
    {
        type            fixedValue;
        value           nonuniform 0();
    }
    wall
    {
        type            slip;
    }
    outlet
    {
        type            pressureInletOutletVelocity;
        value           nonuniform List<vector> 
25
(
(0 1.39464 0.756043)
(0 1.45121 0.735091)
(0 1.50624 0.712476)
(0 1.55941 0.688325)
(0 1.6104 0.662733)
(0 1.6589 0.635745)
(0 1.7046 0.607383)
(0 1.7472 0.577697)
(0 1.78639 0.546767)
(0 1.82186 0.514661)
(0 1.85329 0.481421)
(0 -1.67595 1.25379)
(0 -1.71252 1.24033)
(0 -1.75173 1.22368)
(0 -1.79336 1.20313)
(0 -1.83685 1.17853)
(0 -1.88143 1.14923)
(0 -1.92644 1.11502)
(0 -1.97116 1.07633)
(0 -2.01475 1.03299)
(0 -2.0565 0.986111)
(0 -2.09549 0.936115)
(0 -2.13104 0.882452)
(0 -2.16252 0.825684)
(0 -2.18927 0.766221)
)
;
    }
    frontAndBack
    {
        type            empty;
    }
    procBoundary0to1
    {
        type            processor;
        value           nonuniform List<vector> 
21
(
(0 1.8804 0.447085)
(0 1.40859 0.302628)
(0 1.41828 0.362394)
(0 1.07879 0.296969)
(0 1.01479 0.311828)
(0 0.758337 0.295423)
(0 0.651632 0.307588)
(0 0.4331 0.297141)
(0 0.312251 0.303405)
(0 0.0891846 0.304293)
(0 0.0891846 0.304293)
(0 -0.0115747 0.26877)
(0 -0.273694 0.296559)
(0 -0.312073 0.251186)
(0 -0.689198 0.323204)
(0 -0.57912 0.222987)
(0 -1.16531 0.377819)
(0 -0.841451 0.175904)
(0 -1.69957 0.498338)
(0 -1.20465 0.15311)
(0 -2.21065 0.704455)
)
;
    }
    procBoundary0to2
    {
        type            processor;
        value           nonuniform List<vector> 
12
(
(0 0.0751278 0.556277)
(0 1.33689 0.77531)
(0 0.967751 0.490307)
(0 1.14093 0.632595)
(0 0.820252 0.524293)
(0 0.821531 0.552624)
(0 0.59213 0.530344)
(0 0.527093 0.541084)
(0 0.346967 0.533208)
(0 0.260227 0.536754)
(0 0.0768466 0.541209)
(0 0.0768466 0.541209)
)
;
    }
    procBoundary0to3
    {
        type            processor;
        value           nonuniform List<vector> 10((0 0.0274208 0.553906) (0 -0.206241 0.593178) (0 -0.157388 0.530582) (0 -0.553125 0.635436) (0 -0.27513 0.489119) (0 -0.989841 0.734186) (0 -0.34575 0.426424) (0 -1.48157 0.937936) (0 -0.579776 0.479243) (0 -1.64186 1.26483));
    }
}


// ************************************************************************* //
