/*--------------------------------*- C++ -*----------------------------------*\
| =========                 |                                                 |
| \\      /  F ield         | OpenFOAM: The Open Source CFD Toolbox           |
|  \\    /   O peration     | Version:  dev                                   |
|   \\  /    A nd           | Web:      www.OpenFOAM.org                      |
|    \\/     M anipulation  |                                                 |
\*---------------------------------------------------------------------------*/
FoamFile
{
    version     2.0;
    format      ascii;
    class       volScalarField;
    location    "0.085";
    object      A1C2H*;
}
// * * * * * * * * * * * * * * * * * * * * * * * * * * * * * * * * * * * * * //

dimensions      [0 0 0 0 0 0 0];

internalField   nonuniform List<scalar> 
2014
(
1.5446e-08
1.55637e-08
1.56752e-08
1.57329e-08
1.57514e-08
1.57638e-08
1.57581e-08
1.57607e-08
1.5755e-08
1.57564e-08
1.57529e-08
1.5754e-08
1.57517e-08
1.57526e-08
1.57512e-08
1.57519e-08
1.5751e-08
1.57516e-08
1.5751e-08
1.57514e-08
1.5751e-08
1.57512e-08
1.5751e-08
1.57511e-08
1.57511e-08
1.57511e-08
1.57511e-08
1.5751e-08
1.57513e-08
1.5751e-08
1.57514e-08
1.5751e-08
1.57516e-08
1.5751e-08
1.57519e-08
1.57512e-08
1.57526e-08
1.57517e-08
1.5754e-08
1.57529e-08
1.57564e-08
1.5755e-08
1.57607e-08
1.57581e-08
1.57637e-08
1.57514e-08
1.57329e-08
1.56752e-08
1.55637e-08
1.5446e-08
1.46914e-08
1.48033e-08
1.4908e-08
1.49622e-08
1.49798e-08
1.49913e-08
1.4986e-08
1.49883e-08
1.4983e-08
1.49841e-08
1.49808e-08
1.49818e-08
1.49797e-08
1.49804e-08
1.49791e-08
1.49798e-08
1.49789e-08
1.49795e-08
1.49789e-08
1.49793e-08
1.49789e-08
1.49791e-08
1.49789e-08
1.4979e-08
1.49789e-08
1.4979e-08
1.4979e-08
1.49789e-08
1.49791e-08
1.49789e-08
1.49793e-08
1.49789e-08
1.49795e-08
1.49789e-08
1.49798e-08
1.49791e-08
1.49804e-08
1.49797e-08
1.49818e-08
1.49808e-08
1.49841e-08
1.4983e-08
1.49883e-08
1.4986e-08
1.49913e-08
1.49798e-08
1.49622e-08
1.4908e-08
1.48033e-08
1.46914e-08
1.39992e-08
1.41059e-08
1.42041e-08
1.4255e-08
1.42716e-08
1.42825e-08
1.42775e-08
1.42795e-08
1.42745e-08
1.42754e-08
1.42723e-08
1.42731e-08
1.42711e-08
1.42718e-08
1.42706e-08
1.42712e-08
1.42703e-08
1.42709e-08
1.42703e-08
1.42707e-08
1.42703e-08
1.42705e-08
1.42703e-08
1.42704e-08
1.42704e-08
1.42704e-08
1.42704e-08
1.42703e-08
1.42705e-08
1.42703e-08
1.42707e-08
1.42703e-08
1.42709e-08
1.42703e-08
1.42712e-08
1.42706e-08
1.42718e-08
1.42711e-08
1.42731e-08
1.42723e-08
1.42754e-08
1.42745e-08
1.42795e-08
1.42775e-08
1.42825e-08
1.42716e-08
1.4255e-08
1.42041e-08
1.41059e-08
1.39992e-08
1.33626e-08
1.34645e-08
1.35564e-08
1.36044e-08
1.36201e-08
1.36303e-08
1.36256e-08
1.36273e-08
1.36225e-08
1.36233e-08
1.36204e-08
1.36211e-08
1.36192e-08
1.36198e-08
1.36186e-08
1.36192e-08
1.36184e-08
1.36189e-08
1.36184e-08
1.36187e-08
1.36184e-08
1.36186e-08
1.36184e-08
1.36185e-08
1.36184e-08
1.36184e-08
1.36185e-08
1.36184e-08
1.36186e-08
1.36184e-08
1.36187e-08
1.36184e-08
1.36189e-08
1.36184e-08
1.36192e-08
1.36186e-08
1.36198e-08
1.36192e-08
1.36211e-08
1.36204e-08
1.36233e-08
1.36225e-08
1.36273e-08
1.36256e-08
1.36302e-08
1.36201e-08
1.36044e-08
1.35564e-08
1.34645e-08
1.33626e-08
1.27755e-08
1.28729e-08
1.29593e-08
1.30043e-08
1.30191e-08
1.30286e-08
1.30242e-08
1.30257e-08
1.30212e-08
1.30218e-08
1.3019e-08
1.30196e-08
1.30178e-08
1.30184e-08
1.30172e-08
1.30178e-08
1.3017e-08
1.30175e-08
1.3017e-08
1.30173e-08
1.3017e-08
1.30172e-08
1.3017e-08
1.30171e-08
1.3017e-08
1.3017e-08
1.30171e-08
1.3017e-08
1.30172e-08
1.3017e-08
1.30173e-08
1.3017e-08
1.30175e-08
1.3017e-08
1.30178e-08
1.30173e-08
1.30184e-08
1.30178e-08
1.30196e-08
1.3019e-08
1.30218e-08
1.30212e-08
1.30257e-08
1.30242e-08
1.30286e-08
1.30191e-08
1.30043e-08
1.29593e-08
1.28729e-08
1.27755e-08
1.22328e-08
1.23261e-08
1.24072e-08
1.24494e-08
1.24633e-08
1.24722e-08
1.2468e-08
1.24693e-08
1.2465e-08
1.24655e-08
1.24628e-08
1.24633e-08
1.24617e-08
1.24622e-08
1.24611e-08
1.24616e-08
1.24608e-08
1.24613e-08
1.24608e-08
1.24611e-08
1.24608e-08
1.2461e-08
1.24608e-08
1.24609e-08
1.24608e-08
1.24608e-08
1.24609e-08
1.24608e-08
1.2461e-08
1.24608e-08
1.24611e-08
1.24608e-08
1.24613e-08
1.24609e-08
1.24616e-08
1.24611e-08
1.24622e-08
1.24617e-08
1.24633e-08
1.24628e-08
1.24655e-08
1.2465e-08
1.24693e-08
1.2468e-08
1.24722e-08
1.24633e-08
1.24493e-08
1.24072e-08
1.23261e-08
1.22328e-08
1.17299e-08
1.18192e-08
1.18955e-08
1.1935e-08
1.19481e-08
1.19564e-08
1.19524e-08
1.19535e-08
1.19494e-08
1.19498e-08
1.19473e-08
1.19477e-08
1.19461e-08
1.19465e-08
1.19455e-08
1.19459e-08
1.19453e-08
1.19457e-08
1.19452e-08
1.19455e-08
1.19452e-08
1.19454e-08
1.19452e-08
1.19453e-08
1.19453e-08
1.19453e-08
1.19453e-08
1.19452e-08
1.19454e-08
1.19452e-08
1.19455e-08
1.19452e-08
1.19457e-08
1.19453e-08
1.19459e-08
1.19455e-08
1.19465e-08
1.19461e-08
1.19477e-08
1.19473e-08
1.19498e-08
1.19494e-08
1.19535e-08
1.19524e-08
1.19564e-08
1.19481e-08
1.1935e-08
1.18954e-08
1.18192e-08
1.17299e-08
1.12627e-08
1.13484e-08
1.142e-08
1.1457e-08
1.14693e-08
1.14771e-08
1.14733e-08
1.14742e-08
1.14703e-08
1.14706e-08
1.14682e-08
1.14685e-08
1.1467e-08
1.14674e-08
1.14664e-08
1.14668e-08
1.14662e-08
1.14665e-08
1.14661e-08
1.14664e-08
1.14661e-08
1.14663e-08
1.14661e-08
1.14662e-08
1.14662e-08
1.14662e-08
1.14662e-08
1.14661e-08
1.14663e-08
1.14661e-08
1.14664e-08
1.14661e-08
1.14665e-08
1.14662e-08
1.14668e-08
1.14664e-08
1.14674e-08
1.1467e-08
1.14685e-08
1.14682e-08
1.14706e-08
1.14703e-08
1.14742e-08
1.14733e-08
1.14771e-08
1.14693e-08
1.1457e-08
1.142e-08
1.13484e-08
1.12627e-08
1.08279e-08
1.091e-08
1.09772e-08
1.10119e-08
1.10235e-08
1.10307e-08
1.10271e-08
1.10278e-08
1.10241e-08
1.10243e-08
1.1022e-08
1.10222e-08
1.10208e-08
1.10211e-08
1.10202e-08
1.10206e-08
1.102e-08
1.10203e-08
1.10199e-08
1.10202e-08
1.10199e-08
1.10201e-08
1.10199e-08
1.102e-08
1.10199e-08
1.10199e-08
1.102e-08
1.10199e-08
1.10201e-08
1.10199e-08
1.10202e-08
1.10199e-08
1.10203e-08
1.102e-08
1.10206e-08
1.10202e-08
1.10211e-08
1.10208e-08
1.10222e-08
1.1022e-08
1.10243e-08
1.10241e-08
1.10278e-08
1.10271e-08
1.10307e-08
1.10234e-08
1.10119e-08
1.09771e-08
1.091e-08
1.08279e-08
1.04221e-08
1.05008e-08
1.05639e-08
1.05965e-08
1.06073e-08
1.06141e-08
1.06106e-08
1.06112e-08
1.06076e-08
1.06077e-08
1.06055e-08
1.06057e-08
1.06043e-08
1.06046e-08
1.06038e-08
1.06041e-08
1.06035e-08
1.06038e-08
1.06035e-08
1.06037e-08
1.06034e-08
1.06036e-08
1.06034e-08
1.06035e-08
1.06035e-08
1.06035e-08
1.06035e-08
1.06034e-08
1.06036e-08
1.06034e-08
1.06037e-08
1.06035e-08
1.06038e-08
1.06035e-08
1.06041e-08
1.06038e-08
1.06046e-08
1.06043e-08
1.06057e-08
1.06055e-08
1.06077e-08
1.06076e-08
1.06111e-08
1.06106e-08
1.06141e-08
1.06073e-08
1.05965e-08
1.05639e-08
1.05008e-08
1.04221e-08
1.00428e-08
1.01181e-08
1.01774e-08
1.0208e-08
1.0218e-08
1.02243e-08
1.0221e-08
1.02214e-08
1.02181e-08
1.0218e-08
1.02159e-08
1.02161e-08
1.02148e-08
1.0215e-08
1.02142e-08
1.02145e-08
1.0214e-08
1.02143e-08
1.02139e-08
1.02141e-08
1.02139e-08
1.0214e-08
1.02139e-08
1.0214e-08
1.02139e-08
1.02139e-08
1.0214e-08
1.02139e-08
1.0214e-08
1.02139e-08
1.02141e-08
1.02139e-08
1.02143e-08
1.0214e-08
1.02145e-08
1.02142e-08
1.0215e-08
1.02148e-08
1.02161e-08
1.02159e-08
1.0218e-08
1.02181e-08
1.02214e-08
1.0221e-08
1.02243e-08
1.0218e-08
1.0208e-08
1.01774e-08
1.01181e-08
1.00428e-08
9.68755e-09
9.75949e-09
9.81515e-09
9.84388e-09
9.85326e-09
9.85911e-09
9.85588e-09
9.85619e-09
9.85298e-09
9.85287e-09
9.85086e-09
9.85096e-09
9.84972e-09
9.84993e-09
9.84915e-09
9.84941e-09
9.84891e-09
9.84917e-09
9.84885e-09
9.84904e-09
9.84883e-09
9.84894e-09
9.84881e-09
9.84888e-09
9.84884e-09
9.84884e-09
9.84888e-09
9.84882e-09
9.84894e-09
9.84883e-09
9.84904e-09
9.84885e-09
9.84917e-09
9.84891e-09
9.84941e-09
9.84915e-09
9.84993e-09
9.84972e-09
9.85096e-09
9.85087e-09
9.85287e-09
9.85297e-09
9.85618e-09
9.85588e-09
9.8591e-09
9.85325e-09
9.84387e-09
9.81514e-09
9.7595e-09
9.68755e-09
9.35414e-09
9.42271e-09
9.47506e-09
9.50201e-09
9.51075e-09
9.51616e-09
9.51305e-09
9.51324e-09
9.51016e-09
9.51e-09
9.50807e-09
9.50813e-09
9.50693e-09
9.50711e-09
9.50637e-09
9.50661e-09
9.50613e-09
9.50638e-09
9.50607e-09
9.50625e-09
9.50605e-09
9.50615e-09
9.50603e-09
9.50609e-09
9.50606e-09
9.50606e-09
9.50609e-09
9.50604e-09
9.50615e-09
9.50605e-09
9.50625e-09
9.50607e-09
9.50638e-09
9.50613e-09
9.50661e-09
9.50637e-09
9.50712e-09
9.50694e-09
9.50813e-09
9.50807e-09
9.51e-09
9.51016e-09
9.51323e-09
9.51305e-09
9.51615e-09
9.51075e-09
9.502e-09
9.47505e-09
9.42271e-09
9.35414e-09
9.04069e-09
9.10589e-09
9.15517e-09
9.18047e-09
9.18857e-09
9.19357e-09
9.19057e-09
9.19065e-09
9.1877e-09
9.18748e-09
9.18563e-09
9.18565e-09
9.18451e-09
9.18466e-09
9.18395e-09
9.18417e-09
9.18371e-09
9.18394e-09
9.18366e-09
9.18382e-09
9.18363e-09
9.18373e-09
9.18361e-09
9.18367e-09
9.18364e-09
9.18364e-09
9.18367e-09
9.18362e-09
9.18373e-09
9.18363e-09
9.18382e-09
9.18365e-09
9.18394e-09
9.18371e-09
9.18417e-09
9.18396e-09
9.18466e-09
9.18451e-09
9.18565e-09
9.18564e-09
9.18748e-09
9.1877e-09
9.19065e-09
9.19057e-09
9.19356e-09
9.18857e-09
9.18046e-09
9.15515e-09
9.10589e-09
9.04068e-09
8.7455e-09
8.80736e-09
8.85377e-09
8.87753e-09
8.88502e-09
8.88964e-09
8.88673e-09
8.88671e-09
8.88389e-09
8.88361e-09
8.88184e-09
8.88182e-09
8.88073e-09
8.88086e-09
8.88018e-09
8.88038e-09
8.87994e-09
8.88016e-09
8.87988e-09
8.88004e-09
8.87985e-09
8.87995e-09
8.87984e-09
8.87989e-09
8.87986e-09
8.87986e-09
8.8799e-09
8.87984e-09
8.87995e-09
8.87986e-09
8.88004e-09
8.87988e-09
8.88016e-09
8.87994e-09
8.88038e-09
8.88018e-09
8.88086e-09
8.88073e-09
8.88182e-09
8.88184e-09
8.88361e-09
8.88388e-09
8.88671e-09
8.88673e-09
8.88963e-09
8.88501e-09
8.87752e-09
8.85376e-09
8.80736e-09
8.74549e-09
8.46704e-09
8.52562e-09
8.56935e-09
8.59168e-09
8.59856e-09
8.60282e-09
8.6e-09
8.5999e-09
8.59718e-09
8.59687e-09
8.59517e-09
8.59512e-09
8.59407e-09
8.59417e-09
8.59353e-09
8.59371e-09
8.59329e-09
8.5935e-09
8.59323e-09
8.59338e-09
8.5932e-09
8.59329e-09
8.59319e-09
8.59324e-09
8.59321e-09
8.59321e-09
8.59324e-09
8.59319e-09
8.5933e-09
8.59321e-09
8.59338e-09
8.59323e-09
8.5935e-09
8.5933e-09
8.59371e-09
8.59353e-09
8.59418e-09
8.59407e-09
8.59512e-09
8.59517e-09
8.59687e-09
8.59718e-09
8.5999e-09
8.6e-09
8.60281e-09
8.59855e-09
8.59167e-09
8.56934e-09
8.52563e-09
8.46703e-09
8.20397e-09
8.25936e-09
8.30055e-09
8.32154e-09
8.32785e-09
8.33176e-09
8.32903e-09
8.32885e-09
8.32624e-09
8.32589e-09
8.32425e-09
8.32418e-09
8.32317e-09
8.32326e-09
8.32264e-09
8.3228e-09
8.32241e-09
8.3226e-09
8.32235e-09
8.32249e-09
8.32232e-09
8.3224e-09
8.32231e-09
8.32236e-09
8.32233e-09
8.32233e-09
8.32236e-09
8.32231e-09
8.32241e-09
8.32232e-09
8.32249e-09
8.32235e-09
8.3226e-09
8.32241e-09
8.32281e-09
8.32264e-09
8.32326e-09
8.32317e-09
8.32418e-09
8.32426e-09
8.32589e-09
8.32624e-09
8.32885e-09
8.32903e-09
8.33175e-09
8.32784e-09
8.32153e-09
8.30054e-09
8.25936e-09
8.20396e-09
7.95508e-09
8.00737e-09
8.04619e-09
8.0659e-09
8.07167e-09
8.07525e-09
8.0726e-09
8.07235e-09
8.06985e-09
8.06946e-09
8.06789e-09
8.06779e-09
8.06683e-09
8.06689e-09
8.0663e-09
8.06645e-09
8.06608e-09
8.06625e-09
8.06601e-09
8.06614e-09
8.06599e-09
8.06607e-09
8.06597e-09
8.06602e-09
8.06599e-09
8.06599e-09
8.06602e-09
8.06598e-09
8.06607e-09
8.06599e-09
8.06614e-09
8.06601e-09
8.06625e-09
8.06608e-09
8.06645e-09
8.0663e-09
8.0669e-09
8.06683e-09
8.06779e-09
8.06789e-09
8.06946e-09
8.06984e-09
8.07234e-09
8.0726e-09
8.07524e-09
8.07167e-09
8.06589e-09
8.04618e-09
8.00737e-09
7.95507e-09
7.71929e-09
7.76859e-09
7.80518e-09
7.82368e-09
7.82894e-09
7.8322e-09
7.82963e-09
7.82931e-09
7.82691e-09
7.82649e-09
7.82499e-09
7.82486e-09
7.82394e-09
7.82399e-09
7.82343e-09
7.82356e-09
7.82321e-09
7.82337e-09
7.82315e-09
7.82327e-09
7.82312e-09
7.82319e-09
7.82311e-09
7.82315e-09
7.82312e-09
7.82312e-09
7.82315e-09
7.82311e-09
7.82319e-09
7.82312e-09
7.82327e-09
7.82315e-09
7.82337e-09
7.82321e-09
7.82357e-09
7.82343e-09
7.824e-09
7.82394e-09
7.82486e-09
7.82499e-09
7.82649e-09
7.82691e-09
7.82931e-09
7.82963e-09
7.8322e-09
7.82894e-09
7.82367e-09
7.80517e-09
7.76859e-09
7.71928e-09
7.49562e-09
7.542e-09
7.57661e-09
7.5939e-09
7.59869e-09
7.60164e-09
7.59914e-09
7.59876e-09
7.59645e-09
7.59601e-09
7.59457e-09
7.59443e-09
7.59354e-09
7.59358e-09
7.59304e-09
7.59317e-09
7.59283e-09
7.59298e-09
7.59276e-09
7.59288e-09
7.59274e-09
7.59281e-09
7.59273e-09
7.59277e-09
7.59274e-09
7.59274e-09
7.59277e-09
7.59273e-09
7.59281e-09
7.59274e-09
7.59288e-09
7.59276e-09
7.59298e-09
7.59283e-09
7.59317e-09
7.59304e-09
7.59358e-09
7.59355e-09
7.59443e-09
7.59457e-09
7.59601e-09
7.59645e-09
7.59876e-09
7.59913e-09
7.60163e-09
7.59868e-09
7.5939e-09
7.5766e-09
7.54201e-09
7.49561e-09
7.2832e-09
7.32686e-09
7.35952e-09
7.37569e-09
7.38002e-09
7.38267e-09
7.38024e-09
7.37981e-09
7.3776e-09
7.37714e-09
7.37575e-09
7.3756e-09
7.37475e-09
7.37478e-09
7.37426e-09
7.37438e-09
7.37405e-09
7.3742e-09
7.37399e-09
7.3741e-09
7.37396e-09
7.37403e-09
7.37395e-09
7.37399e-09
7.37397e-09
7.37397e-09
7.37399e-09
7.37396e-09
7.37403e-09
7.37397e-09
7.3741e-09
7.37399e-09
7.3742e-09
7.37405e-09
7.37438e-09
7.37426e-09
7.37478e-09
7.37475e-09
7.3756e-09
7.37576e-09
7.37714e-09
7.3776e-09
7.37981e-09
7.38024e-09
7.38266e-09
7.38001e-09
7.37568e-09
7.35951e-09
7.32687e-09
7.28319e-09
7.08124e-09
7.12237e-09
7.1531e-09
7.16823e-09
7.17215e-09
7.17451e-09
7.17215e-09
7.17168e-09
7.16955e-09
7.16908e-09
7.16775e-09
7.16758e-09
7.16677e-09
7.16679e-09
7.16629e-09
7.1664e-09
7.16609e-09
7.16622e-09
7.16603e-09
7.16613e-09
7.166e-09
7.16607e-09
7.16599e-09
7.16603e-09
7.16601e-09
7.16601e-09
7.16603e-09
7.166e-09
7.16607e-09
7.166e-09
7.16613e-09
7.16603e-09
7.16622e-09
7.16609e-09
7.1664e-09
7.1663e-09
7.16679e-09
7.16677e-09
7.16758e-09
7.16775e-09
7.16908e-09
7.16955e-09
7.17167e-09
7.17215e-09
7.1745e-09
7.17214e-09
7.16822e-09
7.1531e-09
7.12237e-09
7.08124e-09
6.88906e-09
6.92779e-09
6.95665e-09
6.97081e-09
6.97434e-09
6.97642e-09
6.97413e-09
6.97362e-09
6.97159e-09
6.9711e-09
6.96983e-09
6.96965e-09
6.96888e-09
6.96888e-09
6.96841e-09
6.96851e-09
6.96821e-09
6.96834e-09
6.96815e-09
6.96825e-09
6.96813e-09
6.96819e-09
6.96812e-09
6.96815e-09
6.96813e-09
6.96813e-09
6.96816e-09
6.96812e-09
6.96819e-09
6.96813e-09
6.96825e-09
6.96815e-09
6.96834e-09
6.96821e-09
6.96851e-09
6.96841e-09
6.96888e-09
6.96888e-09
6.96965e-09
6.96983e-09
6.9711e-09
6.97159e-09
6.97362e-09
6.97413e-09
6.97642e-09
6.97434e-09
6.97081e-09
6.95664e-09
6.92779e-09
6.88905e-09
6.70598e-09
6.74248e-09
6.76949e-09
6.78277e-09
6.78594e-09
6.78774e-09
6.78552e-09
6.78498e-09
6.78303e-09
6.78254e-09
6.78132e-09
6.78113e-09
6.78039e-09
6.78039e-09
6.77994e-09
6.78003e-09
6.77975e-09
6.77987e-09
6.7797e-09
6.77979e-09
6.77967e-09
6.77973e-09
6.77966e-09
6.7797e-09
6.77968e-09
6.77968e-09
6.7797e-09
6.77966e-09
6.77973e-09
6.77967e-09
6.77979e-09
6.7797e-09
6.77987e-09
6.77975e-09
6.78003e-09
6.77994e-09
6.78039e-09
6.7804e-09
6.78113e-09
6.78132e-09
6.78253e-09
6.78303e-09
6.78497e-09
6.78552e-09
6.78773e-09
6.78593e-09
6.78276e-09
6.76948e-09
6.74248e-09
6.70597e-09
6.53141e-09
6.56579e-09
6.59099e-09
6.60346e-09
6.60631e-09
6.60784e-09
6.60569e-09
6.60512e-09
6.60326e-09
6.60276e-09
6.6016e-09
6.6014e-09
6.6007e-09
6.60069e-09
6.60027e-09
6.60035e-09
6.60008e-09
6.60019e-09
6.60003e-09
6.60011e-09
6.60001e-09
6.60006e-09
6.6e-09
6.60003e-09
6.60001e-09
6.60001e-09
6.60003e-09
6.6e-09
6.60006e-09
6.60001e-09
6.60011e-09
6.60003e-09
6.60019e-09
6.60008e-09
6.60035e-09
6.60027e-09
6.60069e-09
6.6007e-09
6.6014e-09
6.6016e-09
6.60276e-09
6.60326e-09
6.60511e-09
6.60569e-09
6.60783e-09
6.6063e-09
6.60345e-09
6.59099e-09
6.56579e-09
6.53141e-09
6.37046e-09
6.40307e-09
6.42654e-09
6.43834e-09
6.44087e-09
6.44216e-09
6.44006e-09
6.43947e-09
6.43769e-09
6.43719e-09
6.43607e-09
6.43587e-09
6.4352e-09
6.43518e-09
6.43478e-09
6.43485e-09
6.4346e-09
6.43471e-09
6.43455e-09
6.43463e-09
6.43453e-09
6.43458e-09
6.43452e-09
6.43455e-09
6.43453e-09
6.43453e-09
6.43455e-09
6.43452e-09
6.43458e-09
6.43453e-09
6.43463e-09
6.43455e-09
6.4347e-09
6.4346e-09
6.43485e-09
6.43478e-09
6.43518e-09
6.4352e-09
6.43587e-09
6.43607e-09
6.43718e-09
6.43769e-09
6.43947e-09
6.44006e-09
6.44216e-09
6.44087e-09
6.43834e-09
6.42653e-09
6.40307e-09
6.37045e-09
6.21482e-09
6.24589e-09
6.26719e-09
6.27809e-09
6.27997e-09
6.28075e-09
6.2785e-09
6.27778e-09
6.27598e-09
6.27542e-09
6.2743e-09
6.27407e-09
6.2734e-09
6.27337e-09
6.27296e-09
6.27303e-09
6.27278e-09
6.27287e-09
6.27272e-09
6.27279e-09
6.27269e-09
6.27274e-09
6.27268e-09
6.27271e-09
6.27269e-09
6.27269e-09
6.27271e-09
6.27268e-09
6.27274e-09
6.27269e-09
6.27279e-09
6.27272e-09
6.27287e-09
6.27278e-09
6.27303e-09
6.27296e-09
6.27337e-09
6.2734e-09
6.27407e-09
6.2743e-09
6.27542e-09
6.27598e-09
6.27778e-09
6.2785e-09
6.28074e-09
6.27996e-09
6.27809e-09
6.26719e-09
6.24588e-09
6.21482e-09
6.06344e-09
6.09275e-09
6.11237e-09
6.12264e-09
6.12425e-09
6.12475e-09
6.12257e-09
6.12182e-09
6.1201e-09
6.11954e-09
6.11847e-09
6.11824e-09
6.1176e-09
6.11756e-09
6.11718e-09
6.11723e-09
6.117e-09
6.11709e-09
6.11694e-09
6.11701e-09
6.11692e-09
6.11697e-09
6.11691e-09
6.11694e-09
6.11692e-09
6.11692e-09
6.11694e-09
6.11691e-09
6.11697e-09
6.11692e-09
6.11701e-09
6.11694e-09
6.11709e-09
6.117e-09
6.11724e-09
6.11718e-09
6.11756e-09
6.1176e-09
6.11824e-09
6.11848e-09
6.11954e-09
6.1201e-09
6.12182e-09
6.12256e-09
6.12474e-09
6.12424e-09
6.12263e-09
6.11237e-09
6.09275e-09
6.06343e-09
5.91876e-09
5.94639e-09
5.96444e-09
5.97409e-09
5.97546e-09
5.97567e-09
5.97355e-09
5.97279e-09
5.97115e-09
5.97059e-09
5.96958e-09
5.96934e-09
5.96873e-09
5.96869e-09
5.96832e-09
5.96837e-09
5.96815e-09
5.96824e-09
5.9681e-09
5.96817e-09
5.96807e-09
5.96812e-09
5.96807e-09
5.96809e-09
5.96808e-09
5.96808e-09
5.96809e-09
5.96807e-09
5.96812e-09
5.96807e-09
5.96817e-09
5.9681e-09
5.96824e-09
5.96815e-09
5.96838e-09
5.96832e-09
5.96869e-09
5.96873e-09
5.96934e-09
5.96958e-09
5.97059e-09
5.97115e-09
5.97279e-09
5.97355e-09
5.97566e-09
5.97546e-09
5.97409e-09
5.96444e-09
5.94638e-09
5.91875e-09
5.78038e-09
5.80635e-09
5.823e-09
5.83203e-09
5.83318e-09
5.83309e-09
5.83103e-09
5.83026e-09
5.8287e-09
5.82815e-09
5.82718e-09
5.82694e-09
5.82636e-09
5.82631e-09
5.82597e-09
5.82601e-09
5.8258e-09
5.82588e-09
5.82575e-09
5.82582e-09
5.82573e-09
5.82578e-09
5.82572e-09
5.82575e-09
5.82573e-09
5.82573e-09
5.82575e-09
5.82573e-09
5.82578e-09
5.82573e-09
5.82582e-09
5.82575e-09
5.82588e-09
5.8258e-09
5.82602e-09
5.82597e-09
5.82632e-09
5.82636e-09
5.82694e-09
5.82718e-09
5.82814e-09
5.82869e-09
5.83026e-09
5.83103e-09
5.83308e-09
5.83318e-09
5.83202e-09
5.823e-09
5.80635e-09
5.78037e-09
5.64788e-09
5.67228e-09
5.68758e-09
5.69603e-09
5.69699e-09
5.69656e-09
5.69458e-09
5.6938e-09
5.69231e-09
5.69177e-09
5.69085e-09
5.69061e-09
5.69006e-09
5.69002e-09
5.68969e-09
5.68973e-09
5.68953e-09
5.68961e-09
5.68948e-09
5.68954e-09
5.68946e-09
5.68951e-09
5.68946e-09
5.68948e-09
5.68947e-09
5.68947e-09
5.68948e-09
5.68946e-09
5.68951e-09
5.68946e-09
5.68954e-09
5.68948e-09
5.68961e-09
5.68953e-09
5.68973e-09
5.68969e-09
5.69002e-09
5.69007e-09
5.69061e-09
5.69085e-09
5.69177e-09
5.69231e-09
5.6938e-09
5.69458e-09
5.69656e-09
5.69698e-09
5.69602e-09
5.68758e-09
5.67228e-09
5.64788e-09
5.5251e-09
5.54812e-09
5.56221e-09
5.57012e-09
5.5709e-09
5.57013e-09
5.5682e-09
5.56741e-09
5.56599e-09
5.56546e-09
5.56458e-09
5.56435e-09
5.56382e-09
5.56378e-09
5.56346e-09
5.5635e-09
5.56331e-09
5.56339e-09
5.56327e-09
5.56333e-09
5.56325e-09
5.56329e-09
5.56325e-09
5.56327e-09
5.56326e-09
5.56326e-09
5.56327e-09
5.56325e-09
5.56329e-09
5.56325e-09
5.56333e-09
5.56327e-09
5.56338e-09
5.56331e-09
5.5635e-09
5.56346e-09
5.56378e-09
5.56383e-09
5.56435e-09
5.56458e-09
5.56546e-09
5.56599e-09
5.56741e-09
5.56819e-09
5.57012e-09
5.57089e-09
5.57011e-09
5.5622e-09
5.54812e-09
5.52509e-09
5.40759e-09
5.42928e-09
5.44228e-09
5.44965e-09
5.45028e-09
5.44911e-09
5.44724e-09
5.44638e-09
5.44486e-09
5.44425e-09
5.44333e-09
5.44305e-09
5.44251e-09
5.44244e-09
5.44211e-09
5.44214e-09
5.44195e-09
5.44201e-09
5.44189e-09
5.44194e-09
5.44187e-09
5.4419e-09
5.44186e-09
5.44188e-09
5.44187e-09
5.44187e-09
5.44188e-09
5.44186e-09
5.4419e-09
5.44187e-09
5.44194e-09
5.44189e-09
5.44201e-09
5.44195e-09
5.44214e-09
5.44211e-09
5.44244e-09
5.44251e-09
5.44305e-09
5.44333e-09
5.44425e-09
5.44486e-09
5.44638e-09
5.44723e-09
5.44911e-09
5.45027e-09
5.44965e-09
5.44227e-09
5.42927e-09
5.40759e-09
5.29179e-09
5.31221e-09
5.32404e-09
5.33083e-09
5.33123e-09
5.32949e-09
5.32762e-09
5.32672e-09
5.32523e-09
5.32459e-09
5.32369e-09
5.3234e-09
5.32287e-09
5.32279e-09
5.32248e-09
5.3225e-09
5.32231e-09
5.32237e-09
5.32225e-09
5.3223e-09
5.32223e-09
5.32226e-09
5.32222e-09
5.32224e-09
5.32223e-09
5.32223e-09
5.32224e-09
5.32222e-09
5.32226e-09
5.32223e-09
5.3223e-09
5.32225e-09
5.32237e-09
5.32231e-09
5.3225e-09
5.32248e-09
5.32279e-09
5.32287e-09
5.3234e-09
5.32369e-09
5.32459e-09
5.32522e-09
5.32671e-09
5.32762e-09
5.32949e-09
5.33122e-09
5.33083e-09
5.32404e-09
5.31221e-09
5.29179e-09
5.18016e-09
5.19919e-09
5.21007e-09
5.21632e-09
5.21666e-09
5.21815e-09
5.21635e-09
5.21544e-09
5.214e-09
5.21338e-09
5.2125e-09
5.21222e-09
5.21171e-09
5.21163e-09
5.21133e-09
5.21135e-09
5.21117e-09
5.21122e-09
5.21111e-09
5.21116e-09
5.21109e-09
5.21112e-09
5.21108e-09
5.2111e-09
5.21109e-09
5.21109e-09
5.2111e-09
5.21108e-09
5.21112e-09
5.21109e-09
5.21116e-09
5.21111e-09
5.21122e-09
5.21117e-09
5.21135e-09
5.21133e-09
5.21163e-09
5.21171e-09
5.21222e-09
5.2125e-09
5.21337e-09
5.214e-09
5.21544e-09
5.21635e-09
5.21815e-09
5.21665e-09
5.21631e-09
5.21006e-09
5.19918e-09
5.18016e-09
5.07629e-09
5.09414e-09
5.10406e-09
5.10987e-09
5.11011e-09
5.11131e-09
5.10957e-09
5.10865e-09
5.10727e-09
5.10665e-09
5.10581e-09
5.10553e-09
5.10504e-09
5.10495e-09
5.10466e-09
5.10468e-09
5.10451e-09
5.10456e-09
5.10445e-09
5.1045e-09
5.10443e-09
5.10447e-09
5.10443e-09
5.10445e-09
5.10443e-09
5.10443e-09
5.10445e-09
5.10443e-09
5.10447e-09
5.10443e-09
5.1045e-09
5.10445e-09
5.10456e-09
5.10451e-09
5.10468e-09
5.10467e-09
5.10496e-09
5.10504e-09
5.10553e-09
5.10581e-09
5.10664e-09
5.10727e-09
5.10865e-09
5.10956e-09
5.1113e-09
5.11011e-09
5.10986e-09
5.10405e-09
5.09413e-09
5.07629e-09
4.97591e-09
4.99293e-09
5.00171e-09
5.00693e-09
5.00677e-09
5.00753e-09
5.00568e-09
5.00467e-09
5.00325e-09
5.00259e-09
5.00174e-09
5.00144e-09
5.00094e-09
5.00085e-09
5.00056e-09
5.00056e-09
5.00039e-09
5.00044e-09
5.00033e-09
5.00038e-09
5.00031e-09
5.00034e-09
5.0003e-09
5.00032e-09
5.00031e-09
5.00031e-09
5.00032e-09
5.0003e-09
5.00034e-09
5.00031e-09
5.00038e-09
5.00033e-09
5.00044e-09
5.00039e-09
5.00056e-09
5.00056e-09
5.00085e-09
5.00094e-09
5.00144e-09
5.00174e-09
5.00259e-09
5.00325e-09
5.00467e-09
5.00568e-09
5.00753e-09
5.00676e-09
5.00692e-09
5.00171e-09
4.99293e-09
4.97591e-09
4.87986e-09
4.89582e-09
4.90369e-09
4.9085e-09
4.90822e-09
4.90875e-09
4.90694e-09
4.90591e-09
4.90454e-09
4.90388e-09
4.90305e-09
4.90275e-09
4.90227e-09
4.90218e-09
4.90189e-09
4.9019e-09
4.90173e-09
4.90178e-09
4.90167e-09
4.90172e-09
4.90165e-09
4.90168e-09
4.90165e-09
4.90166e-09
4.90165e-09
4.90165e-09
4.90166e-09
4.90165e-09
4.90168e-09
4.90165e-09
4.90172e-09
4.90167e-09
4.90178e-09
4.90173e-09
4.9019e-09
4.9019e-09
4.90218e-09
4.90227e-09
4.90275e-09
4.90305e-09
4.90387e-09
4.90454e-09
4.90591e-09
4.90693e-09
4.90874e-09
4.90822e-09
4.90849e-09
4.90369e-09
4.89581e-09
4.87985e-09
4.78732e-09
4.80229e-09
4.80926e-09
4.81368e-09
4.81329e-09
4.81359e-09
4.81181e-09
4.81078e-09
4.80944e-09
4.80877e-09
4.80798e-09
4.80767e-09
4.80721e-09
4.80711e-09
4.80684e-09
4.80684e-09
4.80668e-09
4.80672e-09
4.80662e-09
4.80666e-09
4.8066e-09
4.80663e-09
4.8066e-09
4.80661e-09
4.8066e-09
4.8066e-09
4.80661e-09
4.8066e-09
4.80663e-09
4.8066e-09
4.80666e-09
4.80662e-09
4.80672e-09
4.80668e-09
4.80684e-09
4.80684e-09
4.80711e-09
4.80721e-09
4.80767e-09
4.80798e-09
4.80877e-09
4.80943e-09
4.81077e-09
4.81181e-09
4.81359e-09
4.81328e-09
4.81368e-09
4.80926e-09
4.80228e-09
4.78732e-09
4.7149e-09
4.71494e-09
4.71488e-09
4.71491e-09
4.71487e-09
4.71489e-09
4.71488e-09
4.71488e-09
4.71489e-09
4.71487e-09
4.71491e-09
4.71488e-09
4.71494e-09
4.7149e-09
4.715e-09
4.71496e-09
4.71511e-09
4.71512e-09
4.71538e-09
4.71548e-09
4.71593e-09
4.71623e-09
4.71701e-09
4.71767e-09
4.71898e-09
4.72003e-09
4.72179e-09
4.72169e-09
4.72221e-09
4.71817e-09
4.71204e-09
4.69804e-09
4.62623e-09
4.6262e-09
4.62626e-09
4.62622e-09
4.62632e-09
4.62628e-09
4.62643e-09
4.62644e-09
4.62669e-09
4.62679e-09
4.62723e-09
4.62754e-09
4.62829e-09
4.62896e-09
4.63024e-09
4.63131e-09
4.63305e-09
4.63315e-09
4.6338e-09
4.63015e-09
4.62482e-09
4.61176e-09
4.54235e-09
4.54302e-09
4.54427e-09
4.54536e-09
4.5471e-09
4.54738e-09
4.54818e-09
4.54491e-09
4.54035e-09
4.52819e-09
)
;

boundaryField
{
    fuel
    {
        type            fixedValue;
        value           nonuniform 0();
    }
    wall
    {
        type            zeroGradient;
    }
    outlet
    {
        type            zeroGradient;
    }
    frontAndBack
    {
        type            empty;
    }
    procBoundary0to1
    {
        type            processor;
        value           nonuniform List<scalar> 
50
(
1.62707e-08
1.63949e-08
1.65136e-08
1.6575e-08
1.65945e-08
1.66077e-08
1.66017e-08
1.66046e-08
1.65986e-08
1.66001e-08
1.65964e-08
1.65977e-08
1.65953e-08
1.65963e-08
1.65948e-08
1.65956e-08
1.65945e-08
1.65953e-08
1.65946e-08
1.6595e-08
1.65946e-08
1.65949e-08
1.65946e-08
1.65947e-08
1.65947e-08
1.65947e-08
1.65947e-08
1.65946e-08
1.65949e-08
1.65946e-08
1.6595e-08
1.65946e-08
1.65953e-08
1.65945e-08
1.65956e-08
1.65948e-08
1.65963e-08
1.65953e-08
1.65977e-08
1.65964e-08
1.66001e-08
1.65985e-08
1.66046e-08
1.66017e-08
1.66077e-08
1.65945e-08
1.6575e-08
1.65136e-08
1.63949e-08
1.62708e-08
)
;
    }
    procBoundary0to2
    {
        type            processor;
        value           nonuniform List<scalar> 
53
(
4.69805e-09
4.71205e-09
4.71817e-09
4.72221e-09
4.72169e-09
4.72179e-09
4.72003e-09
4.71898e-09
4.71767e-09
4.71701e-09
4.71623e-09
4.71593e-09
4.71548e-09
4.71538e-09
4.71511e-09
4.71511e-09
4.71496e-09
4.715e-09
4.715e-09
4.62622e-09
4.62626e-09
4.6262e-09
4.62623e-09
4.6262e-09
4.62621e-09
4.6262e-09
4.6262e-09
4.62621e-09
4.6262e-09
4.6262e-09
4.54031e-09
4.54029e-09
4.54034e-09
4.54031e-09
4.5404e-09
4.54037e-09
4.54051e-09
4.54052e-09
4.54077e-09
4.54087e-09
4.5413e-09
4.54161e-09
4.54161e-09
4.45888e-09
4.45956e-09
4.46079e-09
4.4619e-09
4.46365e-09
4.46411e-09
4.46507e-09
4.46218e-09
4.45835e-09
4.44706e-09
)
;
    }
}


// ************************************************************************* //
