/*--------------------------------*- C++ -*----------------------------------*\
| =========                 |                                                 |
| \\      /  F ield         | OpenFOAM: The Open Source CFD Toolbox           |
|  \\    /   O peration     | Version:  dev                                   |
|   \\  /    A nd           | Web:      www.OpenFOAM.org                      |
|    \\/     M anipulation  |                                                 |
\*---------------------------------------------------------------------------*/
FoamFile
{
    version     2.0;
    format      ascii;
    class       volScalarField;
    location    "0.085";
    object      A1C2H-;
}
// * * * * * * * * * * * * * * * * * * * * * * * * * * * * * * * * * * * * * //

dimensions      [0 0 0 0 0 0 0];

internalField   nonuniform List<scalar> 
25
(
2.52489e-07
7.20515e-08
1.84151e-08
4.58156e-09
1.11588e-09
2.72014e-10
6.52415e-11
1.55241e-11
3.7091e-12
8.74903e-13
2.08589e-13
5.00568e-14
1.269e-14
3.76444e-15
1.5158e-15
8.5219e-16
5.83374e-16
4.29224e-16
3.2133e-16
2.4053e-16
1.79311e-16
1.33197e-16
9.88356e-17
7.35573e-17
5.5077e-17
)
;

boundaryField
{
    wall
    {
        type            zeroGradient;
    }
    fuel
    {
        type            fixedValue;
        value           uniform 0;
    }
    outlet
    {
        type            inletOutlet;
        inletValue      nonuniform 0();
        value           nonuniform 0();
    }
    procBoundary0to1
    {
        type            processor;
        value           uniform 4.18336e-17;
    }
}


// ************************************************************************* //
