/*--------------------------------*- C++ -*----------------------------------*\
| =========                 |                                                 |
| \\      /  F ield         | OpenFOAM: The Open Source CFD Toolbox           |
|  \\    /   O peration     | Version:  dev                                   |
|   \\  /    A nd           | Web:      www.OpenFOAM.org                      |
|    \\/     M anipulation  |                                                 |
\*---------------------------------------------------------------------------*/
FoamFile
{
    version     2.0;
    format      ascii;
    class       volScalarField;
    location    "0.085";
    object      A2;
}
// * * * * * * * * * * * * * * * * * * * * * * * * * * * * * * * * * * * * * //

dimensions      [0 0 0 0 0 0 0];

internalField   nonuniform List<scalar> 
25
(
2.82344e-10
6.70456e-11
1.57345e-11
3.73791e-12
8.92143e-13
2.23152e-13
6.02719e-14
1.96812e-14
8.88393e-15
5.51107e-15
4.16697e-15
3.41542e-15
2.87693e-15
2.43462e-15
2.05141e-15
1.71532e-15
1.42209e-15
1.16934e-15
9.54599e-16
7.74847e-16
6.26572e-16
5.05966e-16
4.09277e-16
3.33078e-16
2.73861e-16
)
;

boundaryField
{
    wall
    {
        type            zeroGradient;
    }
    fuel
    {
        type            fixedValue;
        value           uniform 0;
    }
    outlet
    {
        type            inletOutlet;
        inletValue      nonuniform 0();
        value           nonuniform 0();
    }
    procBoundary0to1
    {
        type            processor;
        value           uniform 2.2926e-16;
    }
}


// ************************************************************************* //
