/*--------------------------------*- C++ -*----------------------------------*\
| =========                 |                                                 |
| \\      /  F ield         | OpenFOAM: The Open Source CFD Toolbox           |
|  \\    /   O peration     | Version:  dev                                   |
|   \\  /    A nd           | Web:      www.OpenFOAM.org                      |
|    \\/     M anipulation  |                                                 |
\*---------------------------------------------------------------------------*/
FoamFile
{
    version     2.0;
    format      ascii;
    class       volScalarField;
    location    "0.085";
    object      A2C2HA;
}
// * * * * * * * * * * * * * * * * * * * * * * * * * * * * * * * * * * * * * //

dimensions      [0 0 0 0 0 0 0];

internalField   nonuniform List<scalar> 
2014
(
1.47851e-09
1.48709e-09
1.49478e-09
1.49861e-09
1.49951e-09
1.50022e-09
1.4996e-09
1.4998e-09
1.49933e-09
1.49947e-09
1.49921e-09
1.49933e-09
1.49916e-09
1.49926e-09
1.49915e-09
1.49923e-09
1.49915e-09
1.49921e-09
1.49916e-09
1.4992e-09
1.49917e-09
1.49919e-09
1.49918e-09
1.49919e-09
1.49918e-09
1.49918e-09
1.49919e-09
1.49918e-09
1.49919e-09
1.49917e-09
1.4992e-09
1.49916e-09
1.49921e-09
1.49915e-09
1.49923e-09
1.49915e-09
1.49926e-09
1.49916e-09
1.49933e-09
1.49921e-09
1.49947e-09
1.49933e-09
1.4998e-09
1.4996e-09
1.50022e-09
1.4995e-09
1.49861e-09
1.49478e-09
1.48709e-09
1.47851e-09
1.41355e-09
1.4218e-09
1.42909e-09
1.43274e-09
1.43361e-09
1.4343e-09
1.43372e-09
1.43389e-09
1.43345e-09
1.43358e-09
1.43333e-09
1.43344e-09
1.43328e-09
1.43337e-09
1.43327e-09
1.43334e-09
1.43327e-09
1.43333e-09
1.43328e-09
1.43332e-09
1.43329e-09
1.43331e-09
1.43329e-09
1.4333e-09
1.4333e-09
1.4333e-09
1.4333e-09
1.43329e-09
1.43331e-09
1.43329e-09
1.43332e-09
1.43328e-09
1.43333e-09
1.43327e-09
1.43334e-09
1.43327e-09
1.43337e-09
1.43328e-09
1.43344e-09
1.43333e-09
1.43358e-09
1.43345e-09
1.43389e-09
1.43372e-09
1.43429e-09
1.43361e-09
1.43274e-09
1.42909e-09
1.4218e-09
1.41355e-09
1.35344e-09
1.36139e-09
1.36829e-09
1.37176e-09
1.37261e-09
1.37326e-09
1.37271e-09
1.37287e-09
1.37245e-09
1.37257e-09
1.37233e-09
1.37243e-09
1.37228e-09
1.37236e-09
1.37227e-09
1.37233e-09
1.37227e-09
1.37232e-09
1.37228e-09
1.37231e-09
1.37229e-09
1.37231e-09
1.37229e-09
1.3723e-09
1.37229e-09
1.37229e-09
1.3723e-09
1.37229e-09
1.37231e-09
1.37229e-09
1.37231e-09
1.37228e-09
1.37232e-09
1.37227e-09
1.37233e-09
1.37227e-09
1.37236e-09
1.37228e-09
1.37243e-09
1.37233e-09
1.37257e-09
1.37245e-09
1.37287e-09
1.37271e-09
1.37325e-09
1.37261e-09
1.37176e-09
1.36829e-09
1.36139e-09
1.35344e-09
1.29772e-09
1.3054e-09
1.31191e-09
1.31522e-09
1.31604e-09
1.31665e-09
1.31614e-09
1.31628e-09
1.31589e-09
1.31599e-09
1.31577e-09
1.31586e-09
1.31572e-09
1.31579e-09
1.31571e-09
1.31577e-09
1.3157e-09
1.31575e-09
1.31571e-09
1.31575e-09
1.31572e-09
1.31574e-09
1.31572e-09
1.31573e-09
1.31573e-09
1.31573e-09
1.31573e-09
1.31572e-09
1.31574e-09
1.31572e-09
1.31575e-09
1.31571e-09
1.31575e-09
1.3157e-09
1.31577e-09
1.31571e-09
1.31579e-09
1.31572e-09
1.31586e-09
1.31577e-09
1.31599e-09
1.31589e-09
1.31628e-09
1.31614e-09
1.31665e-09
1.31603e-09
1.31522e-09
1.31191e-09
1.3054e-09
1.29772e-09
1.24601e-09
1.25342e-09
1.25958e-09
1.26272e-09
1.2635e-09
1.26409e-09
1.2636e-09
1.26373e-09
1.26336e-09
1.26345e-09
1.26324e-09
1.26332e-09
1.26319e-09
1.26326e-09
1.26317e-09
1.26323e-09
1.26317e-09
1.26322e-09
1.26318e-09
1.26321e-09
1.26319e-09
1.26321e-09
1.26319e-09
1.2632e-09
1.2632e-09
1.2632e-09
1.2632e-09
1.26319e-09
1.26321e-09
1.26319e-09
1.26321e-09
1.26318e-09
1.26322e-09
1.26317e-09
1.26323e-09
1.26318e-09
1.26326e-09
1.26319e-09
1.26332e-09
1.26324e-09
1.26345e-09
1.26336e-09
1.26373e-09
1.2636e-09
1.26408e-09
1.2635e-09
1.26271e-09
1.25958e-09
1.25342e-09
1.24601e-09
1.19793e-09
1.20508e-09
1.21091e-09
1.21388e-09
1.21463e-09
1.21519e-09
1.21474e-09
1.21485e-09
1.2145e-09
1.21458e-09
1.21438e-09
1.21446e-09
1.21433e-09
1.2144e-09
1.21432e-09
1.21437e-09
1.21431e-09
1.21436e-09
1.21432e-09
1.21435e-09
1.21433e-09
1.21435e-09
1.21433e-09
1.21434e-09
1.21434e-09
1.21434e-09
1.21434e-09
1.21433e-09
1.21435e-09
1.21433e-09
1.21435e-09
1.21432e-09
1.21436e-09
1.21431e-09
1.21437e-09
1.21432e-09
1.2144e-09
1.21433e-09
1.21446e-09
1.21438e-09
1.21458e-09
1.2145e-09
1.21485e-09
1.21474e-09
1.21519e-09
1.21463e-09
1.21388e-09
1.21091e-09
1.20508e-09
1.19793e-09
1.15317e-09
1.16008e-09
1.16559e-09
1.1684e-09
1.16912e-09
1.16965e-09
1.16922e-09
1.16932e-09
1.16899e-09
1.16906e-09
1.16887e-09
1.16894e-09
1.16882e-09
1.16888e-09
1.16881e-09
1.16886e-09
1.16881e-09
1.16885e-09
1.16881e-09
1.16884e-09
1.16882e-09
1.16883e-09
1.16882e-09
1.16883e-09
1.16883e-09
1.16883e-09
1.16883e-09
1.16882e-09
1.16883e-09
1.16882e-09
1.16884e-09
1.16881e-09
1.16885e-09
1.16881e-09
1.16886e-09
1.16881e-09
1.16888e-09
1.16882e-09
1.16894e-09
1.16887e-09
1.16906e-09
1.16899e-09
1.16932e-09
1.16922e-09
1.16965e-09
1.16912e-09
1.1684e-09
1.16559e-09
1.16008e-09
1.15317e-09
1.11144e-09
1.11811e-09
1.12331e-09
1.12598e-09
1.12666e-09
1.12716e-09
1.12676e-09
1.12685e-09
1.12654e-09
1.1266e-09
1.12642e-09
1.12648e-09
1.12637e-09
1.12643e-09
1.12636e-09
1.1264e-09
1.12636e-09
1.12639e-09
1.12636e-09
1.12639e-09
1.12637e-09
1.12638e-09
1.12637e-09
1.12638e-09
1.12637e-09
1.12637e-09
1.12638e-09
1.12637e-09
1.12638e-09
1.12637e-09
1.12639e-09
1.12636e-09
1.12639e-09
1.12636e-09
1.1264e-09
1.12636e-09
1.12643e-09
1.12637e-09
1.12648e-09
1.12642e-09
1.1266e-09
1.12654e-09
1.12685e-09
1.12676e-09
1.12716e-09
1.12666e-09
1.12598e-09
1.12331e-09
1.11811e-09
1.11144e-09
1.07248e-09
1.07892e-09
1.08383e-09
1.08635e-09
1.087e-09
1.08748e-09
1.0871e-09
1.08718e-09
1.08688e-09
1.08694e-09
1.08677e-09
1.08683e-09
1.08672e-09
1.08677e-09
1.08671e-09
1.08675e-09
1.0867e-09
1.08674e-09
1.08671e-09
1.08674e-09
1.08672e-09
1.08673e-09
1.08672e-09
1.08673e-09
1.08672e-09
1.08672e-09
1.08673e-09
1.08672e-09
1.08673e-09
1.08672e-09
1.08674e-09
1.08671e-09
1.08674e-09
1.0867e-09
1.08675e-09
1.08671e-09
1.08677e-09
1.08672e-09
1.08683e-09
1.08677e-09
1.08694e-09
1.08688e-09
1.08718e-09
1.0871e-09
1.08748e-09
1.087e-09
1.08635e-09
1.08383e-09
1.07892e-09
1.07248e-09
1.03606e-09
1.04227e-09
1.0469e-09
1.04929e-09
1.04991e-09
1.05036e-09
1.05e-09
1.05007e-09
1.0498e-09
1.04984e-09
1.04968e-09
1.04974e-09
1.04964e-09
1.04968e-09
1.04962e-09
1.04966e-09
1.04962e-09
1.04965e-09
1.04963e-09
1.04965e-09
1.04963e-09
1.04964e-09
1.04963e-09
1.04964e-09
1.04964e-09
1.04964e-09
1.04964e-09
1.04963e-09
1.04964e-09
1.04963e-09
1.04965e-09
1.04963e-09
1.04965e-09
1.04962e-09
1.04966e-09
1.04962e-09
1.04968e-09
1.04964e-09
1.04974e-09
1.04968e-09
1.04984e-09
1.0498e-09
1.05007e-09
1.05e-09
1.05036e-09
1.0499e-09
1.04929e-09
1.0469e-09
1.04227e-09
1.03606e-09
1.00197e-09
1.00794e-09
1.01232e-09
1.01458e-09
1.01517e-09
1.0156e-09
1.01526e-09
1.01533e-09
1.01506e-09
1.0151e-09
1.01495e-09
1.015e-09
1.01491e-09
1.01495e-09
1.01489e-09
1.01493e-09
1.01489e-09
1.01492e-09
1.0149e-09
1.01492e-09
1.0149e-09
1.01491e-09
1.0149e-09
1.01491e-09
1.01491e-09
1.01491e-09
1.01491e-09
1.0149e-09
1.01491e-09
1.0149e-09
1.01492e-09
1.0149e-09
1.01492e-09
1.01489e-09
1.01493e-09
1.01489e-09
1.01495e-09
1.01491e-09
1.015e-09
1.01495e-09
1.0151e-09
1.01506e-09
1.01533e-09
1.01526e-09
1.0156e-09
1.01517e-09
1.01458e-09
1.01232e-09
1.00794e-09
1.00197e-09
9.70019e-10
9.75762e-10
9.799e-10
9.82037e-10
9.82596e-10
9.83006e-10
9.8269e-10
9.82745e-10
9.82496e-10
9.82533e-10
9.8239e-10
9.82432e-10
9.82345e-10
9.82385e-10
9.82329e-10
9.82365e-10
9.82328e-10
9.82358e-10
9.82334e-10
9.82354e-10
9.82338e-10
9.8235e-10
9.8234e-10
9.82347e-10
9.82344e-10
9.82344e-10
9.82347e-10
9.8234e-10
9.8235e-10
9.82338e-10
9.82354e-10
9.82334e-10
9.82358e-10
9.82328e-10
9.82365e-10
9.8233e-10
9.82385e-10
9.82345e-10
9.82432e-10
9.8239e-10
9.82533e-10
9.82496e-10
9.82745e-10
9.8269e-10
9.83005e-10
9.82595e-10
9.82036e-10
9.79899e-10
9.75762e-10
9.70019e-10
9.40049e-10
9.45553e-10
9.49469e-10
9.51492e-10
9.52024e-10
9.52412e-10
9.52116e-10
9.52164e-10
9.51929e-10
9.51961e-10
9.51826e-10
9.51865e-10
9.51783e-10
9.5182e-10
9.51768e-10
9.51802e-10
9.51767e-10
9.51796e-10
9.51773e-10
9.51792e-10
9.51776e-10
9.51788e-10
9.51779e-10
9.51785e-10
9.51782e-10
9.51782e-10
9.51785e-10
9.51779e-10
9.51788e-10
9.51777e-10
9.51792e-10
9.51773e-10
9.51796e-10
9.51767e-10
9.51802e-10
9.51769e-10
9.51821e-10
9.51783e-10
9.51865e-10
9.51827e-10
9.51961e-10
9.51929e-10
9.52164e-10
9.52115e-10
9.52411e-10
9.52023e-10
9.51492e-10
9.49469e-10
9.45554e-10
9.40049e-10
9.11905e-10
9.17167e-10
9.20878e-10
9.22795e-10
9.23299e-10
9.23667e-10
9.23389e-10
9.23432e-10
9.23211e-10
9.23239e-10
9.23112e-10
9.23148e-10
9.2307e-10
9.23105e-10
9.23056e-10
9.23088e-10
9.23055e-10
9.23082e-10
9.23061e-10
9.23079e-10
9.23065e-10
9.23076e-10
9.23067e-10
9.23073e-10
9.2307e-10
9.2307e-10
9.23073e-10
9.23067e-10
9.23076e-10
9.23065e-10
9.23079e-10
9.23061e-10
9.23082e-10
9.23055e-10
9.23088e-10
9.23056e-10
9.23105e-10
9.23071e-10
9.23148e-10
9.23112e-10
9.23239e-10
9.23211e-10
9.23432e-10
9.23389e-10
9.23667e-10
9.23298e-10
9.22794e-10
9.20878e-10
9.17168e-10
9.11904e-10
8.8545e-10
8.9047e-10
8.93991e-10
8.95809e-10
8.96285e-10
8.96636e-10
8.96375e-10
8.96414e-10
8.96206e-10
8.96231e-10
8.96111e-10
8.96144e-10
8.96071e-10
8.96104e-10
8.96058e-10
8.96088e-10
8.96057e-10
8.96083e-10
8.96063e-10
8.9608e-10
8.96066e-10
8.96077e-10
8.96069e-10
8.96074e-10
8.96072e-10
8.96072e-10
8.96075e-10
8.96069e-10
8.96077e-10
8.96067e-10
8.9608e-10
8.96063e-10
8.96083e-10
8.96057e-10
8.96088e-10
8.96058e-10
8.96104e-10
8.96071e-10
8.96144e-10
8.96111e-10
8.96231e-10
8.96206e-10
8.96414e-10
8.96375e-10
8.96635e-10
8.96285e-10
8.95808e-10
8.93991e-10
8.90471e-10
8.8545e-10
8.60564e-10
8.65343e-10
8.68686e-10
8.70411e-10
8.70862e-10
8.71196e-10
8.70952e-10
8.70987e-10
8.70792e-10
8.70814e-10
8.70701e-10
8.70732e-10
8.70664e-10
8.70694e-10
8.70651e-10
8.7068e-10
8.70651e-10
8.70676e-10
8.70657e-10
8.70674e-10
8.70661e-10
8.70671e-10
8.70663e-10
8.70668e-10
8.70666e-10
8.70666e-10
8.70668e-10
8.70663e-10
8.70671e-10
8.70661e-10
8.70674e-10
8.70657e-10
8.70676e-10
8.70651e-10
8.7068e-10
8.70652e-10
8.70694e-10
8.70664e-10
8.70732e-10
8.70702e-10
8.70814e-10
8.70792e-10
8.70987e-10
8.70952e-10
8.71195e-10
8.70861e-10
8.7041e-10
8.68686e-10
8.65344e-10
8.60563e-10
8.37135e-10
8.41676e-10
8.44854e-10
8.46493e-10
8.46919e-10
8.47238e-10
8.47011e-10
8.47043e-10
8.4686e-10
8.4688e-10
8.46774e-10
8.46803e-10
8.46739e-10
8.46768e-10
8.46728e-10
8.46755e-10
8.46728e-10
8.46752e-10
8.46734e-10
8.4675e-10
8.46738e-10
8.46748e-10
8.4674e-10
8.46746e-10
8.46743e-10
8.46743e-10
8.46746e-10
8.4674e-10
8.46748e-10
8.46738e-10
8.4675e-10
8.46734e-10
8.46752e-10
8.46728e-10
8.46755e-10
8.46728e-10
8.46768e-10
8.46739e-10
8.46803e-10
8.46775e-10
8.4688e-10
8.4686e-10
8.47043e-10
8.47011e-10
8.47237e-10
8.46919e-10
8.46492e-10
8.44854e-10
8.41677e-10
8.37134e-10
8.15065e-10
8.19375e-10
8.22399e-10
8.23955e-10
8.2436e-10
8.24664e-10
8.24453e-10
8.24484e-10
8.24313e-10
8.24331e-10
8.24233e-10
8.24259e-10
8.242e-10
8.24227e-10
8.2419e-10
8.24216e-10
8.24191e-10
8.24213e-10
8.24197e-10
8.24212e-10
8.24201e-10
8.2421e-10
8.24203e-10
8.24208e-10
8.24206e-10
8.24206e-10
8.24208e-10
8.24203e-10
8.2421e-10
8.24201e-10
8.24212e-10
8.24197e-10
8.24213e-10
8.24191e-10
8.24216e-10
8.2419e-10
8.24228e-10
8.242e-10
8.24259e-10
8.24233e-10
8.24331e-10
8.24313e-10
8.24483e-10
8.24453e-10
8.24664e-10
8.2436e-10
8.23955e-10
8.22398e-10
8.19376e-10
8.15065e-10
7.94267e-10
7.98351e-10
8.01232e-10
8.02711e-10
8.03096e-10
8.03387e-10
8.03192e-10
8.03221e-10
8.03063e-10
8.03079e-10
8.02988e-10
8.03013e-10
8.02958e-10
8.02984e-10
8.0295e-10
8.02974e-10
8.02951e-10
8.02973e-10
8.02957e-10
8.02972e-10
8.02962e-10
8.0297e-10
8.02964e-10
8.02969e-10
8.02967e-10
8.02967e-10
8.02969e-10
8.02964e-10
8.02971e-10
8.02962e-10
8.02972e-10
8.02958e-10
8.02973e-10
8.02951e-10
8.02975e-10
8.0295e-10
8.02985e-10
8.02958e-10
8.03013e-10
8.02988e-10
8.03079e-10
8.03063e-10
8.03221e-10
8.03192e-10
8.03386e-10
8.03096e-10
8.02711e-10
8.01232e-10
7.98351e-10
7.94266e-10
7.74659e-10
7.78523e-10
7.8128e-10
7.82681e-10
7.83049e-10
7.83327e-10
7.83149e-10
7.83177e-10
7.83031e-10
7.83047e-10
7.82962e-10
7.82986e-10
7.82935e-10
7.82961e-10
7.82929e-10
7.82952e-10
7.82931e-10
7.82952e-10
7.82937e-10
7.82952e-10
7.82942e-10
7.8295e-10
7.82944e-10
7.82949e-10
7.82947e-10
7.82947e-10
7.82949e-10
7.82944e-10
7.8295e-10
7.82942e-10
7.82952e-10
7.82938e-10
7.82952e-10
7.82931e-10
7.82953e-10
7.82929e-10
7.82961e-10
7.82935e-10
7.82986e-10
7.82962e-10
7.83047e-10
7.8303e-10
7.83177e-10
7.83149e-10
7.83327e-10
7.83049e-10
7.82681e-10
7.8128e-10
7.78523e-10
7.74659e-10
7.56172e-10
7.59829e-10
7.62466e-10
7.63796e-10
7.64148e-10
7.64415e-10
7.64253e-10
7.64282e-10
7.64147e-10
7.64163e-10
7.64085e-10
7.64108e-10
7.64061e-10
7.64086e-10
7.64057e-10
7.6408e-10
7.6406e-10
7.6408e-10
7.64067e-10
7.6408e-10
7.64071e-10
7.64079e-10
7.64074e-10
7.64078e-10
7.64076e-10
7.64076e-10
7.64078e-10
7.64074e-10
7.64079e-10
7.64071e-10
7.6408e-10
7.64067e-10
7.6408e-10
7.6406e-10
7.6408e-10
7.64057e-10
7.64086e-10
7.64062e-10
7.64108e-10
7.64085e-10
7.64163e-10
7.64147e-10
7.64281e-10
7.64253e-10
7.64415e-10
7.64148e-10
7.63795e-10
7.62466e-10
7.5983e-10
7.56172e-10
7.38744e-10
7.42207e-10
7.44726e-10
7.45991e-10
7.46331e-10
7.46588e-10
7.46441e-10
7.46471e-10
7.46348e-10
7.46365e-10
7.46294e-10
7.46317e-10
7.46274e-10
7.46298e-10
7.46271e-10
7.46293e-10
7.46275e-10
7.46294e-10
7.46282e-10
7.46296e-10
7.46287e-10
7.46295e-10
7.4629e-10
7.46294e-10
7.46292e-10
7.46292e-10
7.46294e-10
7.4629e-10
7.46295e-10
7.46287e-10
7.46296e-10
7.46283e-10
7.46295e-10
7.46276e-10
7.46293e-10
7.46271e-10
7.46298e-10
7.46274e-10
7.46317e-10
7.46294e-10
7.46365e-10
7.46348e-10
7.46471e-10
7.46441e-10
7.46587e-10
7.46331e-10
7.4599e-10
7.44726e-10
7.42208e-10
7.38744e-10
7.22318e-10
7.256e-10
7.28004e-10
7.2921e-10
7.29541e-10
7.29788e-10
7.29659e-10
7.2969e-10
7.29579e-10
7.29597e-10
7.29532e-10
7.29555e-10
7.29517e-10
7.2954e-10
7.29516e-10
7.29538e-10
7.29521e-10
7.2954e-10
7.29529e-10
7.29542e-10
7.29534e-10
7.29541e-10
7.29537e-10
7.29541e-10
7.29539e-10
7.29539e-10
7.29541e-10
7.29537e-10
7.29541e-10
7.29534e-10
7.29542e-10
7.29529e-10
7.2954e-10
7.29522e-10
7.29538e-10
7.29516e-10
7.2954e-10
7.29517e-10
7.29555e-10
7.29533e-10
7.29597e-10
7.29579e-10
7.2969e-10
7.29658e-10
7.29788e-10
7.29541e-10
7.2921e-10
7.28004e-10
7.25601e-10
7.22318e-10
7.06847e-10
7.09958e-10
7.12249e-10
7.13404e-10
7.13728e-10
7.13967e-10
7.13854e-10
7.13889e-10
7.1379e-10
7.13809e-10
7.13751e-10
7.13775e-10
7.1374e-10
7.13763e-10
7.13742e-10
7.13763e-10
7.13749e-10
7.13766e-10
7.13756e-10
7.13769e-10
7.13762e-10
7.13769e-10
7.13764e-10
7.13768e-10
7.13767e-10
7.13767e-10
7.13768e-10
7.13765e-10
7.13769e-10
7.13762e-10
7.13769e-10
7.13757e-10
7.13766e-10
7.13749e-10
7.13763e-10
7.13742e-10
7.13764e-10
7.1374e-10
7.13775e-10
7.13752e-10
7.13809e-10
7.1379e-10
7.13889e-10
7.13854e-10
7.13967e-10
7.13728e-10
7.13404e-10
7.12249e-10
7.09959e-10
7.06847e-10
6.92285e-10
6.95236e-10
6.97418e-10
6.98528e-10
6.98848e-10
6.9908e-10
6.98985e-10
6.99022e-10
6.98936e-10
6.98957e-10
6.98907e-10
6.9893e-10
6.989e-10
6.98923e-10
6.98904e-10
6.98925e-10
6.98912e-10
6.9893e-10
6.98921e-10
6.98933e-10
6.98926e-10
6.98933e-10
6.98929e-10
6.98933e-10
6.98932e-10
6.98932e-10
6.98933e-10
6.98929e-10
6.98933e-10
6.98926e-10
6.98933e-10
6.98921e-10
6.9893e-10
6.98913e-10
6.98925e-10
6.98905e-10
6.98923e-10
6.989e-10
6.9893e-10
6.98907e-10
6.98957e-10
6.98936e-10
6.99022e-10
6.98985e-10
6.99079e-10
6.98848e-10
6.98527e-10
6.97418e-10
6.95236e-10
6.92285e-10
6.79064e-10
6.81883e-10
6.8396e-10
6.85036e-10
6.85354e-10
6.8558e-10
6.85501e-10
6.85543e-10
6.85468e-10
6.85492e-10
6.85448e-10
6.85472e-10
6.85446e-10
6.85469e-10
6.85453e-10
6.85473e-10
6.85462e-10
6.85479e-10
6.85471e-10
6.85483e-10
6.85477e-10
6.85484e-10
6.8548e-10
6.85484e-10
6.85483e-10
6.85483e-10
6.85484e-10
6.8548e-10
6.85484e-10
6.85477e-10
6.85483e-10
6.85471e-10
6.85479e-10
6.85462e-10
6.85473e-10
6.85453e-10
6.85469e-10
6.85446e-10
6.85472e-10
6.85448e-10
6.85492e-10
6.85468e-10
6.85543e-10
6.85501e-10
6.8558e-10
6.85353e-10
6.85036e-10
6.8396e-10
6.81883e-10
6.79064e-10
6.66499e-10
6.69204e-10
6.71143e-10
6.72168e-10
6.72456e-10
6.72658e-10
6.72579e-10
6.72618e-10
6.72547e-10
6.72569e-10
6.72528e-10
6.72551e-10
6.72527e-10
6.72549e-10
6.72534e-10
6.72554e-10
6.72543e-10
6.7256e-10
6.72552e-10
6.72563e-10
6.72558e-10
6.72565e-10
6.72561e-10
6.72565e-10
6.72564e-10
6.72564e-10
6.72565e-10
6.72561e-10
6.72565e-10
6.72558e-10
6.72563e-10
6.72552e-10
6.7256e-10
6.72543e-10
6.72554e-10
6.72534e-10
6.72549e-10
6.72527e-10
6.72551e-10
6.72528e-10
6.72569e-10
6.72547e-10
6.72618e-10
6.72579e-10
6.72658e-10
6.72456e-10
6.72168e-10
6.71143e-10
6.69204e-10
6.665e-10
6.5452e-10
6.57095e-10
6.58936e-10
6.59933e-10
6.60225e-10
6.60421e-10
6.60361e-10
6.60405e-10
6.60347e-10
6.60372e-10
6.60338e-10
6.60363e-10
6.60343e-10
6.60365e-10
6.60353e-10
6.60372e-10
6.60364e-10
6.6038e-10
6.60373e-10
6.60384e-10
6.60379e-10
6.60386e-10
6.60383e-10
6.60386e-10
6.60385e-10
6.60385e-10
6.60386e-10
6.60383e-10
6.60386e-10
6.60379e-10
6.60384e-10
6.60373e-10
6.6038e-10
6.60364e-10
6.60372e-10
6.60353e-10
6.60366e-10
6.60343e-10
6.60363e-10
6.60338e-10
6.60372e-10
6.60347e-10
6.60405e-10
6.6036e-10
6.60421e-10
6.60225e-10
6.59933e-10
6.58936e-10
6.57095e-10
6.5452e-10
6.43336e-10
6.45787e-10
6.47541e-10
6.48513e-10
6.48812e-10
6.49002e-10
6.48961e-10
6.49012e-10
6.48967e-10
6.48996e-10
6.4897e-10
6.48996e-10
6.48981e-10
6.49004e-10
6.48994e-10
6.49013e-10
6.49006e-10
6.49022e-10
6.49017e-10
6.49027e-10
6.49023e-10
6.4903e-10
6.49027e-10
6.4903e-10
6.49029e-10
6.49029e-10
6.4903e-10
6.49027e-10
6.4903e-10
6.49023e-10
6.49027e-10
6.49017e-10
6.49022e-10
6.49006e-10
6.49013e-10
6.48994e-10
6.49004e-10
6.48981e-10
6.48996e-10
6.4897e-10
6.48996e-10
6.48967e-10
6.49012e-10
6.48961e-10
6.49002e-10
6.48812e-10
6.48513e-10
6.47541e-10
6.45787e-10
6.43336e-10
6.32928e-10
6.35258e-10
6.3694e-10
6.37888e-10
6.38198e-10
6.38383e-10
6.38362e-10
6.38421e-10
6.3839e-10
6.38423e-10
6.38404e-10
6.38433e-10
6.38422e-10
6.38445e-10
6.38438e-10
6.38458e-10
6.38453e-10
6.38468e-10
6.38464e-10
6.38474e-10
6.38471e-10
6.38477e-10
6.38475e-10
6.38478e-10
6.38477e-10
6.38477e-10
6.38478e-10
6.38475e-10
6.38477e-10
6.38471e-10
6.38474e-10
6.38464e-10
6.38468e-10
6.38453e-10
6.38458e-10
6.38438e-10
6.38445e-10
6.38422e-10
6.38433e-10
6.38404e-10
6.38423e-10
6.38389e-10
6.38421e-10
6.38362e-10
6.38383e-10
6.38198e-10
6.37888e-10
6.3694e-10
6.35258e-10
6.32928e-10
6.2328e-10
6.25496e-10
6.27114e-10
6.28042e-10
6.28367e-10
6.28548e-10
6.28548e-10
6.28615e-10
6.28598e-10
6.28637e-10
6.28626e-10
6.28657e-10
6.2865e-10
6.28675e-10
6.28671e-10
6.28691e-10
6.28687e-10
6.28702e-10
6.287e-10
6.2871e-10
6.28707e-10
6.28713e-10
6.28711e-10
6.28714e-10
6.28713e-10
6.28713e-10
6.28714e-10
6.28711e-10
6.28713e-10
6.28707e-10
6.2871e-10
6.287e-10
6.28702e-10
6.28687e-10
6.28691e-10
6.28671e-10
6.28675e-10
6.28651e-10
6.28657e-10
6.28626e-10
6.28637e-10
6.28598e-10
6.28615e-10
6.28548e-10
6.28547e-10
6.28367e-10
6.28042e-10
6.27114e-10
6.25496e-10
6.2328e-10
6.14678e-10
6.16796e-10
6.18363e-10
6.19276e-10
6.19618e-10
6.19793e-10
6.19815e-10
6.19892e-10
6.19888e-10
6.19932e-10
6.1993e-10
6.19963e-10
6.19961e-10
6.19987e-10
6.19985e-10
6.20005e-10
6.20004e-10
6.20019e-10
6.20017e-10
6.20027e-10
6.20025e-10
6.2003e-10
6.20029e-10
6.20032e-10
6.20031e-10
6.20031e-10
6.20032e-10
6.20029e-10
6.20031e-10
6.20025e-10
6.20027e-10
6.20017e-10
6.20019e-10
6.20004e-10
6.20005e-10
6.19985e-10
6.19987e-10
6.19961e-10
6.19963e-10
6.1993e-10
6.19932e-10
6.19888e-10
6.19892e-10
6.19815e-10
6.19793e-10
6.19618e-10
6.19276e-10
6.18363e-10
6.16796e-10
6.14678e-10
6.06814e-10
6.08837e-10
6.10368e-10
6.11268e-10
6.11632e-10
6.11801e-10
6.11845e-10
6.11928e-10
6.11928e-10
6.11972e-10
6.11972e-10
6.12004e-10
6.12004e-10
6.1203e-10
6.1203e-10
6.12049e-10
6.12048e-10
6.12063e-10
6.12062e-10
6.12071e-10
6.1207e-10
6.12075e-10
6.12074e-10
6.12077e-10
6.12076e-10
6.12076e-10
6.12077e-10
6.12074e-10
6.12075e-10
6.1207e-10
6.12071e-10
6.12062e-10
6.12063e-10
6.12048e-10
6.12049e-10
6.1203e-10
6.1203e-10
6.12004e-10
6.12004e-10
6.11972e-10
6.11972e-10
6.11928e-10
6.11928e-10
6.11844e-10
6.11801e-10
6.11631e-10
6.11268e-10
6.10368e-10
6.08838e-10
6.06815e-10
5.99477e-10
6.01413e-10
6.02906e-10
6.03794e-10
6.04179e-10
6.04336e-10
6.044e-10
6.04493e-10
6.04505e-10
6.04555e-10
6.04561e-10
6.04597e-10
6.04601e-10
6.04627e-10
6.04629e-10
6.04649e-10
6.0465e-10
6.04665e-10
6.04664e-10
6.04674e-10
6.04673e-10
6.04678e-10
6.04677e-10
6.0468e-10
6.0468e-10
6.0468e-10
6.0468e-10
6.04677e-10
6.04678e-10
6.04673e-10
6.04674e-10
6.04664e-10
6.04665e-10
6.0465e-10
6.04649e-10
6.0463e-10
6.04627e-10
6.04601e-10
6.04596e-10
6.04561e-10
6.04554e-10
6.04505e-10
6.04492e-10
6.044e-10
6.04335e-10
6.04179e-10
6.03794e-10
6.02907e-10
6.01414e-10
5.99477e-10
5.92858e-10
5.94702e-10
5.9618e-10
5.97062e-10
5.97482e-10
5.97852e-10
5.97943e-10
5.98048e-10
5.98076e-10
5.98132e-10
5.98148e-10
5.98186e-10
5.98195e-10
5.98223e-10
5.98228e-10
5.98249e-10
5.98251e-10
5.98266e-10
5.98267e-10
5.98276e-10
5.98276e-10
5.98281e-10
5.98281e-10
5.98283e-10
5.98283e-10
5.98283e-10
5.98283e-10
5.98281e-10
5.98281e-10
5.98276e-10
5.98276e-10
5.98267e-10
5.98266e-10
5.98251e-10
5.98249e-10
5.98228e-10
5.98223e-10
5.98195e-10
5.98186e-10
5.98147e-10
5.98132e-10
5.98076e-10
5.98048e-10
5.97943e-10
5.97852e-10
5.97482e-10
5.97062e-10
5.96181e-10
5.94702e-10
5.92859e-10
5.87186e-10
5.88956e-10
5.90419e-10
5.91305e-10
5.91763e-10
5.9214e-10
5.92258e-10
5.92378e-10
5.92421e-10
5.92485e-10
5.92509e-10
5.92552e-10
5.92566e-10
5.92596e-10
5.92604e-10
5.92625e-10
5.9263e-10
5.92644e-10
5.92646e-10
5.92655e-10
5.92656e-10
5.92661e-10
5.92661e-10
5.92664e-10
5.92664e-10
5.92664e-10
5.92664e-10
5.92661e-10
5.92661e-10
5.92656e-10
5.92656e-10
5.92646e-10
5.92644e-10
5.9263e-10
5.92625e-10
5.92604e-10
5.92596e-10
5.92566e-10
5.92551e-10
5.92509e-10
5.92485e-10
5.92421e-10
5.92378e-10
5.92258e-10
5.9214e-10
5.91763e-10
5.91305e-10
5.90419e-10
5.88956e-10
5.87187e-10
5.82239e-10
5.83958e-10
5.85399e-10
5.86289e-10
5.86775e-10
5.87156e-10
5.87295e-10
5.87426e-10
5.87483e-10
5.87553e-10
5.87584e-10
5.8763e-10
5.87648e-10
5.87679e-10
5.8769e-10
5.87712e-10
5.87718e-10
5.87733e-10
5.87736e-10
5.87745e-10
5.87746e-10
5.87751e-10
5.87751e-10
5.87754e-10
5.87754e-10
5.87754e-10
5.87754e-10
5.87751e-10
5.87751e-10
5.87746e-10
5.87745e-10
5.87736e-10
5.87733e-10
5.87718e-10
5.87712e-10
5.8769e-10
5.87679e-10
5.87648e-10
5.87629e-10
5.87584e-10
5.87553e-10
5.87483e-10
5.87426e-10
5.87295e-10
5.87155e-10
5.86775e-10
5.86289e-10
5.854e-10
5.83959e-10
5.82239e-10
5.78085e-10
5.79746e-10
5.81188e-10
5.82094e-10
5.82626e-10
5.83022e-10
5.83192e-10
5.8334e-10
5.83414e-10
5.83493e-10
5.83534e-10
5.83584e-10
5.83608e-10
5.83641e-10
5.83656e-10
5.83678e-10
5.83686e-10
5.83701e-10
5.83706e-10
5.83715e-10
5.83716e-10
5.83722e-10
5.83722e-10
5.83725e-10
5.83725e-10
5.83725e-10
5.83725e-10
5.83722e-10
5.83722e-10
5.83717e-10
5.83715e-10
5.83706e-10
5.83701e-10
5.83686e-10
5.83678e-10
5.83656e-10
5.83641e-10
5.83608e-10
5.83584e-10
5.83534e-10
5.83493e-10
5.83414e-10
5.8334e-10
5.83192e-10
5.83022e-10
5.82626e-10
5.82094e-10
5.81188e-10
5.79747e-10
5.78086e-10
5.74718e-10
5.76333e-10
5.77777e-10
5.78709e-10
5.79294e-10
5.79708e-10
5.79911e-10
5.80077e-10
5.8017e-10
5.80259e-10
5.8031e-10
5.80364e-10
5.80395e-10
5.8043e-10
5.80448e-10
5.80471e-10
5.80482e-10
5.80497e-10
5.80503e-10
5.80512e-10
5.80514e-10
5.80519e-10
5.8052e-10
5.80523e-10
5.80523e-10
5.80523e-10
5.80523e-10
5.8052e-10
5.80519e-10
5.80514e-10
5.80512e-10
5.80502e-10
5.80497e-10
5.80482e-10
5.80471e-10
5.80448e-10
5.8043e-10
5.80395e-10
5.80364e-10
5.8031e-10
5.80259e-10
5.80169e-10
5.80077e-10
5.79911e-10
5.79708e-10
5.79294e-10
5.78709e-10
5.77777e-10
5.76333e-10
5.74719e-10
5.78153e-10
5.78162e-10
5.78165e-10
5.7817e-10
5.78172e-10
5.78174e-10
5.78175e-10
5.78175e-10
5.78174e-10
5.78172e-10
5.78171e-10
5.78166e-10
5.78162e-10
5.78153e-10
5.78146e-10
5.7813e-10
5.78117e-10
5.78093e-10
5.78071e-10
5.78034e-10
5.77997e-10
5.77937e-10
5.77876e-10
5.77775e-10
5.77664e-10
5.77477e-10
5.7724e-10
5.76804e-10
5.7616e-10
5.75196e-10
5.73736e-10
5.72162e-10
5.76706e-10
5.76701e-10
5.76697e-10
5.76688e-10
5.76679e-10
5.76663e-10
5.76648e-10
5.76623e-10
5.76597e-10
5.76556e-10
5.76513e-10
5.76448e-10
5.76375e-10
5.76263e-10
5.76131e-10
5.75921e-10
5.75648e-10
5.75186e-10
5.74475e-10
5.73476e-10
5.71984e-10
5.70444e-10
5.75792e-10
5.75667e-10
5.75514e-10
5.7528e-10
5.74966e-10
5.74476e-10
5.73689e-10
5.72649e-10
5.71111e-10
5.69597e-10
)
;

boundaryField
{
    fuel
    {
        type            fixedValue;
        value           nonuniform 0();
    }
    wall
    {
        type            zeroGradient;
    }
    outlet
    {
        type            zeroGradient;
    }
    frontAndBack
    {
        type            empty;
    }
    procBoundary0to1
    {
        type            processor;
        value           nonuniform List<scalar> 
50
(
1.54883e-09
1.55775e-09
1.56585e-09
1.56986e-09
1.57078e-09
1.57153e-09
1.57087e-09
1.57109e-09
1.57059e-09
1.57075e-09
1.57047e-09
1.57061e-09
1.57043e-09
1.57053e-09
1.57042e-09
1.5705e-09
1.57042e-09
1.57048e-09
1.57043e-09
1.57047e-09
1.57044e-09
1.57046e-09
1.57044e-09
1.57046e-09
1.57045e-09
1.57045e-09
1.57046e-09
1.57044e-09
1.57046e-09
1.57044e-09
1.57047e-09
1.57043e-09
1.57048e-09
1.57042e-09
1.5705e-09
1.57042e-09
1.57053e-09
1.57043e-09
1.5706e-09
1.57047e-09
1.57075e-09
1.57059e-09
1.57109e-09
1.57087e-09
1.57153e-09
1.57078e-09
1.56986e-09
1.56584e-09
1.55775e-09
1.54883e-09
)
;
    }
    procBoundary0to2
    {
        type            processor;
        value           nonuniform List<scalar> 
53
(
5.72161e-10
5.73735e-10
5.75196e-10
5.7616e-10
5.76804e-10
5.7724e-10
5.77477e-10
5.77664e-10
5.77776e-10
5.77876e-10
5.77938e-10
5.77997e-10
5.78034e-10
5.78072e-10
5.78094e-10
5.78118e-10
5.78131e-10
5.78146e-10
5.78146e-10
5.76688e-10
5.76697e-10
5.76701e-10
5.76706e-10
5.76708e-10
5.76711e-10
5.76711e-10
5.76711e-10
5.76711e-10
5.76708e-10
5.76708e-10
5.76163e-10
5.76158e-10
5.76152e-10
5.76143e-10
5.76133e-10
5.76117e-10
5.76099e-10
5.76072e-10
5.76042e-10
5.75999e-10
5.75948e-10
5.75877e-10
5.75877e-10
5.76168e-10
5.76029e-10
5.75853e-10
5.75592e-10
5.75236e-10
5.74713e-10
5.73842e-10
5.72754e-10
5.71155e-10
5.69659e-10
)
;
    }
}


// ************************************************************************* //
