/*--------------------------------*- C++ -*----------------------------------*\
| =========                 |                                                 |
| \\      /  F ield         | OpenFOAM: The Open Source CFD Toolbox           |
|  \\    /   O peration     | Version:  dev                                   |
|   \\  /    A nd           | Web:      www.OpenFOAM.org                      |
|    \\/     M anipulation  |                                                 |
\*---------------------------------------------------------------------------*/
FoamFile
{
    version     2.0;
    format      ascii;
    class       volScalarField;
    location    "0.085";
    object      A2C2HB;
}
// * * * * * * * * * * * * * * * * * * * * * * * * * * * * * * * * * * * * * //

dimensions      [0 0 0 0 0 0 0];

internalField   nonuniform List<scalar> 
25
(
6.37987e-11
1.66977e-11
4.48165e-12
1.24912e-12
3.56256e-13
1.04594e-13
3.14476e-14
1.00582e-14
3.64439e-15
1.57528e-15
8.47094e-16
5.42181e-16
3.87866e-16
2.9363e-16
2.2784e-16
1.7826e-16
1.39491e-16
1.08725e-16
8.4249e-17
6.48579e-17
4.96234e-17
3.77874e-17
2.87243e-17
2.19189e-17
1.69099e-17
)
;

boundaryField
{
    wall
    {
        type            zeroGradient;
    }
    fuel
    {
        type            fixedValue;
        value           uniform 0;
    }
    outlet
    {
        type            inletOutlet;
        inletValue      nonuniform 0();
        value           nonuniform 0();
    }
    procBoundary0to1
    {
        type            processor;
        value           uniform 1.34045e-17;
    }
}


// ************************************************************************* //
