/*--------------------------------*- C++ -*----------------------------------*\
| =========                 |                                                 |
| \\      /  F ield         | OpenFOAM: The Open Source CFD Toolbox           |
|  \\    /   O peration     | Version:  dev                                   |
|   \\  /    A nd           | Web:      www.OpenFOAM.org                      |
|    \\/     M anipulation  |                                                 |
\*---------------------------------------------------------------------------*/
FoamFile
{
    version     2.0;
    format      ascii;
    class       volScalarField;
    location    "0.085";
    object      A2R5;
}
// * * * * * * * * * * * * * * * * * * * * * * * * * * * * * * * * * * * * * //

dimensions      [0 0 0 0 0 0 0];

internalField   nonuniform List<scalar> 
250
(
7.00484e-08
7.01546e-08
7.00354e-08
7.01505e-08
7.03043e-08
7.12606e-08
7.69572e-08
1.01437e-07
1.92317e-07
2.63995e-07
6.70598e-08
6.71552e-08
6.70449e-08
6.71525e-08
6.73016e-08
6.82082e-08
7.3473e-08
9.5746e-08
1.77446e-07
2.46037e-07
1.78677e-07
1.53856e-07
8.64786e-08
7.06918e-08
6.5782e-08
6.48758e-08
6.46638e-08
6.44576e-08
6.45546e-08
6.43904e-08
6.44412e-08
6.45247e-08
6.44242e-08
6.45232e-08
6.46673e-08
6.5523e-08
7.03621e-08
9.05028e-08
1.62571e-07
2.28009e-07
1.67298e-07
1.39593e-07
8.21295e-08
6.80141e-08
6.34588e-08
6.25998e-08
6.23999e-08
6.22111e-08
6.22979e-08
6.21384e-08
6.21946e-08
6.22653e-08
6.21754e-08
6.22647e-08
6.24037e-08
6.32085e-08
6.76339e-08
8.57411e-08
1.48592e-07
2.10356e-07
1.5668e-07
1.26554e-07
7.8359e-08
6.57147e-08
6.15048e-08
6.06923e-08
6.05046e-08
6.03351e-08
6.04103e-08
6.02606e-08
6.03191e-08
6.03763e-08
6.02978e-08
6.03764e-08
6.05104e-08
6.12649e-08
6.52937e-08
8.14869e-08
1.3574e-07
1.93461e-07
1.47015e-07
1.16779e-07
7.51527e-08
6.37903e-08
5.99158e-08
5.91486e-08
5.89728e-08
5.88241e-08
5.88866e-08
5.87507e-08
5.88089e-08
5.88523e-08
5.87857e-08
5.88531e-08
5.8982e-08
5.96873e-08
6.33405e-08
7.77573e-08
1.25328e-07
1.77654e-07
1.38343e-07
1.08351e-07
7.24788e-08
6.22302e-08
5.86821e-08
5.79576e-08
5.77933e-08
5.76661e-08
5.77152e-08
5.75962e-08
5.76521e-08
5.76818e-08
5.76271e-08
5.7683e-08
5.7807e-08
5.84647e-08
6.17656e-08
7.45488e-08
1.15638e-07
1.63003e-07
1.30662e-07
1.01534e-07
7.02956e-08
6.10152e-08
5.7785e-08
5.71001e-08
5.69468e-08
5.68413e-08
5.68767e-08
5.67767e-08
5.68287e-08
5.68452e-08
5.68023e-08
5.68468e-08
5.69659e-08
5.75775e-08
6.0536e-08
7.18491e-08
1.07493e-07
1.49791e-07
1.23906e-07
9.58924e-08
6.85274e-08
6.01215e-08
5.71845e-08
5.65281e-08
5.63829e-08
5.6295e-08
5.63193e-08
5.62358e-08
5.62836e-08
5.62896e-08
5.62564e-08
5.62916e-08
5.6407e-08
5.69818e-08
5.96491e-08
6.96316e-08
1.00423e-07
1.37955e-07
1.17975e-07
9.12355e-08
6.71279e-08
5.95122e-08
5.68571e-08
5.62366e-08
5.61008e-08
5.60315e-08
5.60444e-08
5.59794e-08
5.60218e-08
5.60172e-08
5.59939e-08
5.60197e-08
5.61308e-08
5.66646e-08
5.90541e-08
6.77415e-08
9.43427e-08
1.27481e-07
1.12745e-07
8.73876e-08
6.60574e-08
5.91419e-08
5.67478e-08
5.61631e-08
5.60359e-08
5.59827e-08
5.59861e-08
5.5938e-08
5.59747e-08
5.59615e-08
5.59465e-08
5.59646e-08
5.60713e-08
5.65665e-08
5.87037e-08
6.63155e-08
8.91602e-08
1.18299e-07
1.08078e-07
8.41819e-08
6.52407e-08
5.89582e-08
5.68034e-08
5.6255e-08
5.61361e-08
5.6096e-08
5.60925e-08
5.60588e-08
5.60897e-08
5.60701e-08
5.60615e-08
5.60738e-08
5.6176e-08
5.66346e-08
5.85437e-08
6.51955e-08
8.4765e-08
1.10306e-07
1.03838e-07
8.14649e-08
6.4601e-08
5.89061e-08
5.69699e-08
5.64589e-08
5.63479e-08
5.63179e-08
5.63099e-08
5.62879e-08
5.63133e-08
5.62894e-08
5.62855e-08
5.62937e-08
5.63911e-08
5.68148e-08
5.8518e-08
6.43159e-08
8.10423e-08
1.03374e-07
5.65959e-08
5.65697e-08
5.65686e-08
5.65745e-08
5.66667e-08
5.70565e-08
5.85738e-08
6.36139e-08
7.78813e-08
9.73686e-08
)
;

boundaryField
{
    fuel
    {
        type            fixedValue;
        value           nonuniform 0();
    }
    wall
    {
        type            zeroGradient;
    }
    outlet
    {
        type            zeroGradient;
    }
    frontAndBack
    {
        type            empty;
    }
    procBoundary0to1
    {
        type            processor;
        value           nonuniform List<scalar> 
21
(
9.98968e-08
7.9102e-08
6.40725e-08
5.89332e-08
5.71971e-08
5.67245e-08
5.66214e-08
5.65989e-08
5.65887e-08
5.65757e-08
5.65757e-08
5.68959e-08
5.68692e-08
5.68695e-08
5.68742e-08
5.69608e-08
5.73177e-08
5.86661e-08
6.30346e-08
7.51812e-08
9.21572e-08
)
;
    }
    procBoundary0to2
    {
        type            processor;
        value           nonuniform List<scalar> 
12
(
7.00219e-08
1.90606e-07
1.69487e-07
9.14211e-08
7.37462e-08
6.84738e-08
6.75201e-08
6.72969e-08
6.70755e-08
6.71814e-08
6.70186e-08
6.70186e-08
)
;
    }
    procBoundary0to3
    {
        type            processor;
        value           nonuniform List<scalar> 10(7.3403e-08 7.35186e-08 7.33916e-08 7.35127e-08 7.3671e-08 7.46746e-08 8.08023e-08 1.08244e-07 2.08624e-07 2.81408e-07);
    }
}


// ************************************************************************* //
