/*--------------------------------*- C++ -*----------------------------------*\
| =========                 |                                                 |
| \\      /  F ield         | OpenFOAM: The Open Source CFD Toolbox           |
|  \\    /   O peration     | Version:  dev                                   |
|   \\  /    A nd           | Web:      www.OpenFOAM.org                      |
|    \\/     M anipulation  |                                                 |
\*---------------------------------------------------------------------------*/
FoamFile
{
    version     2.0;
    format      ascii;
    class       volScalarField;
    location    "0.085";
    object      AC3H4;
}
// * * * * * * * * * * * * * * * * * * * * * * * * * * * * * * * * * * * * * //

dimensions      [0 0 0 0 0 0 0];

internalField   nonuniform List<scalar> 
250
(
7.654e-07
7.65886e-07
7.6533e-07
7.65853e-07
7.66482e-07
7.70094e-07
7.88641e-07
8.48135e-07
1.02745e-06
1.36171e-06
7.51392e-07
7.51828e-07
7.51315e-07
7.51806e-07
7.52429e-07
7.55916e-07
7.73305e-07
8.28511e-07
9.91588e-07
1.25757e-06
1.00267e-06
9.46967e-07
8.06647e-07
7.63133e-07
7.4471e-07
7.40953e-07
7.40035e-07
7.3912e-07
7.39556e-07
7.38772e-07
7.39036e-07
7.39422e-07
7.38952e-07
7.3941e-07
7.40026e-07
7.43373e-07
7.59582e-07
8.10451e-07
9.55901e-07
1.17572e-06
9.77506e-07
9.16337e-07
7.90871e-07
7.50851e-07
7.33572e-07
7.29979e-07
7.29105e-07
7.28248e-07
7.28654e-07
7.27874e-07
7.28165e-07
7.28503e-07
7.28076e-07
7.28504e-07
7.29111e-07
7.32308e-07
7.47342e-07
7.93912e-07
9.2229e-07
1.10834e-06
9.53467e-07
8.86489e-07
7.76539e-07
7.39843e-07
7.23695e-07
7.20274e-07
7.19443e-07
7.1864e-07
7.19022e-07
7.18255e-07
7.18559e-07
7.18855e-07
7.18465e-07
7.18869e-07
7.19465e-07
7.22507e-07
7.364e-07
7.78782e-07
8.91015e-07
1.05126e-06
9.30331e-07
8.62375e-07
7.63437e-07
7.29868e-07
7.14816e-07
7.11571e-07
7.10782e-07
7.10024e-07
7.1039e-07
7.0964e-07
7.09946e-07
7.10207e-07
7.09848e-07
7.10234e-07
7.1082e-07
7.13702e-07
7.26511e-07
7.64889e-07
8.64985e-07
1.0021e-06
9.0792e-07
8.39692e-07
7.51267e-07
7.20632e-07
7.06628e-07
7.0356e-07
7.02809e-07
7.02085e-07
7.02447e-07
7.01709e-07
7.0201e-07
7.02245e-07
7.0191e-07
7.02287e-07
7.02861e-07
7.05583e-07
7.1738e-07
7.51983e-07
8.39808e-07
9.58844e-07
8.8614e-07
8.19295e-07
7.39686e-07
7.11796e-07
6.988e-07
6.95907e-07
6.95192e-07
6.94491e-07
6.94861e-07
6.9413e-07
6.9442e-07
6.94639e-07
6.94321e-07
6.94697e-07
6.95257e-07
6.97814e-07
7.08586e-07
7.39784e-07
8.17363e-07
9.20758e-07
8.64847e-07
8.00143e-07
7.28209e-07
7.03043e-07
6.9089e-07
6.88065e-07
6.87359e-07
6.86626e-07
6.87042e-07
6.86267e-07
6.86554e-07
6.86792e-07
6.8646e-07
6.86864e-07
6.8742e-07
6.89903e-07
6.99952e-07
7.28008e-07
7.96297e-07
8.86586e-07
8.43887e-07
7.81833e-07
7.1665e-07
6.94068e-07
6.8278e-07
6.80124e-07
6.7945e-07
6.78719e-07
6.79165e-07
6.7838e-07
6.78653e-07
6.78893e-07
6.78561e-07
6.78979e-07
6.79517e-07
6.81847e-07
6.91103e-07
7.15741e-07
7.76306e-07
8.55578e-07
8.23139e-07
7.64058e-07
7.04953e-07
6.84681e-07
6.74219e-07
6.7173e-07
6.7109e-07
6.70364e-07
6.70838e-07
6.70047e-07
6.70303e-07
6.7055e-07
6.70215e-07
6.70644e-07
6.71161e-07
6.73344e-07
6.81867e-07
7.03905e-07
7.57187e-07
8.27162e-07
8.0264e-07
7.46697e-07
6.93162e-07
6.74927e-07
6.65318e-07
6.63004e-07
6.62404e-07
6.61705e-07
6.62189e-07
6.61418e-07
6.61653e-07
6.61895e-07
6.61568e-07
6.61992e-07
6.62483e-07
6.64516e-07
6.7232e-07
6.91981e-07
7.38915e-07
8.01031e-07
7.8281e-07
7.30055e-07
6.81831e-07
6.65348e-07
6.56747e-07
6.54619e-07
6.54073e-07
6.53463e-07
6.53896e-07
6.53219e-07
6.53422e-07
6.53626e-07
6.53339e-07
6.53715e-07
6.54175e-07
6.56044e-07
6.63063e-07
6.80536e-07
7.21922e-07
7.77343e-07
6.47453e-07
6.47542e-07
6.47368e-07
6.47609e-07
6.48036e-07
6.49708e-07
6.55747e-07
6.71136e-07
7.07581e-07
7.57138e-07
)
;

boundaryField
{
    fuel
    {
        type            fixedValue;
        value           nonuniform 0();
    }
    wall
    {
        type            zeroGradient;
    }
    outlet
    {
        type            zeroGradient;
    }
    frontAndBack
    {
        type            empty;
    }
    procBoundary0to1
    {
        type            processor;
        value           nonuniform List<scalar> 
21
(
7.64898e-07
7.15314e-07
6.72585e-07
6.57487e-07
6.5027e-07
6.48342e-07
6.47876e-07
6.47477e-07
6.47737e-07
6.47305e-07
6.47305e-07
6.47549e-07
6.47387e-07
6.47458e-07
6.47419e-07
6.47809e-07
6.49233e-07
6.53899e-07
6.67189e-07
6.99003e-07
7.43077e-07
)
;
    }
    procBoundary0to2
    {
        type            processor;
        value           nonuniform List<scalar> 
12
(
7.65257e-07
1.02975e-06
9.78619e-07
8.24027e-07
7.76878e-07
7.57324e-07
7.53412e-07
7.52453e-07
7.51477e-07
7.51947e-07
7.51176e-07
7.51176e-07
)
;
    }
    procBoundary0to3
    {
        type            processor;
        value           nonuniform List<scalar> 10(7.81176e-07 7.81708e-07 7.81111e-07 7.81664e-07 7.82298e-07 7.86015e-07 8.05674e-07 8.71734e-07 1.06737e-06 1.50233e-06);
    }
}


// ************************************************************************* //
