/*--------------------------------*- C++ -*----------------------------------*\
| =========                 |                                                 |
| \\      /  F ield         | OpenFOAM: The Open Source CFD Toolbox           |
|  \\    /   O peration     | Version:  dev                                   |
|   \\  /    A nd           | Web:      www.OpenFOAM.org                      |
|    \\/     M anipulation  |                                                 |
\*---------------------------------------------------------------------------*/
FoamFile
{
    version     2.0;
    format      ascii;
    class       volScalarField;
    location    "0.085";
    object      C6H5OH;
}
// * * * * * * * * * * * * * * * * * * * * * * * * * * * * * * * * * * * * * //

dimensions      [0 0 0 0 0 0 0];

internalField   nonuniform List<scalar> 
250
(
2.02341e-08
1.87775e-08
2.07252e-08
1.93845e-08
2.02814e-08
1.96206e-08
2.08753e-08
3.46049e-08
7.57106e-08
1.15046e-07
2.02924e-08
1.86644e-08
2.08137e-08
1.93415e-08
2.03125e-08
1.95554e-08
2.07672e-08
3.55435e-08
8.05062e-08
1.21046e-07
3.3116e-07
5.22831e-08
2.66441e-08
2.18295e-08
2.03635e-08
2.0013e-08
1.94781e-08
1.91662e-08
1.92022e-08
1.85654e-08
2.04921e-08
1.87208e-08
2.10438e-08
1.94714e-08
2.04995e-08
1.96681e-08
2.08293e-08
3.65074e-08
8.56906e-08
1.27063e-07
2.78527e-07
4.9799e-08
2.66201e-08
2.22385e-08
2.07191e-08
2.03904e-08
1.97879e-08
1.94536e-08
1.95105e-08
1.8818e-08
2.08171e-08
1.8946e-08
2.13992e-08
1.97729e-08
2.08334e-08
1.99596e-08
2.10584e-08
3.73657e-08
9.08279e-08
1.32512e-07
2.3761e-07
4.77482e-08
2.67546e-08
2.27661e-08
2.12089e-08
2.08976e-08
2.0236e-08
1.98834e-08
1.99603e-08
1.92258e-08
2.12517e-08
1.93395e-08
2.18644e-08
2.02447e-08
2.13036e-08
2.04304e-08
2.14517e-08
3.83828e-08
9.51572e-08
1.3679e-07
2.05404e-07
4.59786e-08
2.70176e-08
2.34057e-08
2.18077e-08
2.15069e-08
2.08016e-08
2.04369e-08
2.05349e-08
1.978e-08
2.17803e-08
1.98973e-08
2.24241e-08
2.0882e-08
2.18949e-08
2.10782e-08
2.20019e-08
3.91789e-08
9.84667e-08
1.39406e-07
1.79098e-07
4.44167e-08
2.73765e-08
2.40864e-08
2.25393e-08
2.2241e-08
2.15134e-08
2.11402e-08
2.12632e-08
2.05136e-08
2.23881e-08
2.06559e-08
2.30641e-08
2.17301e-08
2.26433e-08
2.18974e-08
2.27435e-08
3.97532e-08
1.0039e-07
1.40016e-07
1.55973e-07
4.30163e-08
2.78079e-08
2.48066e-08
2.32952e-08
2.3004e-08
2.22693e-08
2.19016e-08
2.20417e-08
2.13286e-08
2.30648e-08
2.15222e-08
2.37741e-08
2.26763e-08
2.34629e-08
2.28773e-08
2.35864e-08
4.00634e-08
1.00722e-07
1.38468e-07
1.40603e-07
4.17583e-08
2.82869e-08
2.55553e-08
2.41081e-08
2.38291e-08
2.31055e-08
2.27542e-08
2.2908e-08
2.22624e-08
2.38109e-08
2.25324e-08
2.45548e-08
2.37648e-08
2.43938e-08
2.40084e-08
2.45633e-08
4.01054e-08
9.94251e-08
1.34837e-07
1.24014e-07
4.05919e-08
2.88106e-08
2.63441e-08
2.4981e-08
2.47218e-08
2.4027e-08
2.37034e-08
2.38677e-08
2.33196e-08
2.46448e-08
2.36881e-08
2.54247e-08
2.49955e-08
2.54416e-08
2.52893e-08
2.56724e-08
3.99314e-08
9.66314e-08
1.29423e-07
1.11348e-07
3.96817e-08
2.94077e-08
2.72192e-08
2.59489e-08
2.57224e-08
2.50693e-08
2.47849e-08
2.4956e-08
2.45309e-08
2.56134e-08
2.50142e-08
2.64309e-08
2.63925e-08
2.66411e-08
2.67405e-08
2.69368e-08
3.96554e-08
9.26339e-08
1.22676e-07
1.00094e-07
3.90921e-08
3.0151e-08
2.82692e-08
2.70885e-08
2.69124e-08
2.63077e-08
2.60735e-08
2.62469e-08
2.59644e-08
2.68003e-08
2.65724e-08
2.76582e-08
2.80174e-08
2.80662e-08
2.84203e-08
2.84176e-08
3.94536e-08
8.77653e-08
1.14895e-07
9.0204e-08
3.89496e-08
3.11526e-08
2.96173e-08
2.85135e-08
2.84067e-08
2.78515e-08
2.76767e-08
2.78488e-08
2.77247e-08
2.83195e-08
2.84632e-08
2.92228e-08
2.99721e-08
2.98265e-08
3.04288e-08
3.02178e-08
3.9538e-08
8.26076e-08
1.06509e-07
3.02656e-08
3.07876e-08
3.12234e-08
3.23593e-08
3.20213e-08
3.28696e-08
3.24458e-08
4.00933e-08
7.78208e-08
9.93565e-08
)
;

boundaryField
{
    fuel
    {
        type            fixedValue;
        value           nonuniform 0();
    }
    wall
    {
        type            zeroGradient;
    }
    outlet
    {
        type            zeroGradient;
    }
    frontAndBack
    {
        type            empty;
    }
    procBoundary0to1
    {
        type            processor;
        value           nonuniform List<scalar> 
21
(
8.17669e-08
3.93643e-08
3.25418e-08
3.13743e-08
3.03328e-08
3.03059e-08
2.97994e-08
2.96883e-08
2.98594e-08
2.99095e-08
2.99095e-08
3.26048e-08
3.35355e-08
3.36284e-08
3.51635e-08
3.46246e-08
3.57292e-08
3.51076e-08
4.11691e-08
7.37732e-08
9.30784e-08
)
;
    }
    procBoundary0to2
    {
        type            processor;
        value           nonuniform List<scalar> 
12
(
1.85401e-08
4.00554e-07
5.51969e-08
2.6847e-08
2.15591e-08
2.01596e-08
1.97826e-08
1.93215e-08
1.90336e-08
1.90464e-08
1.84714e-08
1.84714e-08
)
;
    }
    procBoundary0to3
    {
        type            processor;
        value           nonuniform List<scalar> 10(2.03281e-08 1.90609e-08 2.07926e-08 1.96009e-08 2.04116e-08 1.98618e-08 2.11562e-08 3.37745e-08 7.1631e-08 1.09551e-07);
    }
}


// ************************************************************************* //
