/*--------------------------------*- C++ -*----------------------------------*\
| =========                 |                                                 |
| \\      /  F ield         | OpenFOAM: The Open Source CFD Toolbox           |
|  \\    /   O peration     | Version:  dev                                   |
|   \\  /    A nd           | Web:      www.OpenFOAM.org                      |
|    \\/     M anipulation  |                                                 |
\*---------------------------------------------------------------------------*/
FoamFile
{
    version     2.0;
    format      ascii;
    class       volScalarField;
    location    "0.085";
    object      CH;
}
// * * * * * * * * * * * * * * * * * * * * * * * * * * * * * * * * * * * * * //

dimensions      [0 0 0 0 0 0 0];

internalField   nonuniform List<scalar> 
250
(
6.59415e-09
6.62325e-09
6.59925e-09
6.63429e-09
6.64097e-09
6.62587e-09
6.55399e-09
5.51994e-09
2.72274e-09
8.46765e-10
5.79299e-09
5.82223e-09
5.79789e-09
5.83361e-09
5.8409e-09
5.83179e-09
5.79286e-09
4.95092e-09
2.57699e-09
7.75651e-10
7.32605e-10
2.68157e-09
4.51897e-09
5.21886e-09
5.08544e-09
5.07882e-09
5.06155e-09
5.00243e-09
5.04273e-09
4.98929e-09
4.99461e-09
5.02348e-09
4.99919e-09
5.03491e-09
5.04246e-09
5.03841e-09
5.02912e-09
4.36362e-09
2.3931e-09
7.28221e-10
7.90387e-10
2.50961e-09
3.90887e-09
4.45513e-09
4.30176e-09
4.29376e-09
4.27709e-09
4.22026e-09
4.25999e-09
4.20743e-09
4.21306e-09
4.24095e-09
4.21723e-09
4.2521e-09
4.25953e-09
4.25949e-09
4.27482e-09
3.76704e-09
2.17328e-09
6.93178e-10
8.28377e-10
2.26466e-09
3.29697e-09
3.71109e-09
3.54829e-09
3.53975e-09
3.52428e-09
3.47111e-09
3.50926e-09
3.45906e-09
3.4647e-09
3.49096e-09
3.46838e-09
3.50147e-09
3.50841e-09
3.51122e-09
3.5451e-09
3.17373e-09
1.91935e-09
6.60691e-10
8.34894e-10
2.00032e-09
2.70044e-09
3.00427e-09
2.84264e-09
2.83444e-09
2.82069e-09
2.77258e-09
2.80801e-09
2.7617e-09
2.76706e-09
2.79103e-09
2.77021e-09
2.80057e-09
2.8067e-09
2.81117e-09
2.85697e-09
2.59914e-09
1.66595e-09
6.23073e-10
8.02207e-10
1.69341e-09
2.13818e-09
2.35313e-09
2.20229e-09
2.19528e-09
2.18364e-09
2.14181e-09
2.17344e-09
2.1324e-09
2.13725e-09
2.1583e-09
2.13983e-09
2.16662e-09
2.17172e-09
2.17663e-09
2.22792e-09
2.06013e-09
1.38542e-09
5.73796e-10
7.30215e-10
1.37964e-09
1.62817e-09
1.77415e-09
1.64253e-09
1.63754e-09
1.6283e-09
1.59366e-09
1.62058e-09
1.5859e-09
1.59005e-09
1.60769e-09
1.59207e-09
1.61462e-09
1.61856e-09
1.6227e-09
1.66729e-09
1.5734e-09
1.11509e-09
5.11061e-10
6.26182e-10
1.07126e-09
1.18048e-09
1.28145e-09
1.16748e-09
1.15726e-09
1.14869e-09
1.11867e-09
1.14207e-09
1.11166e-09
1.1157e-09
1.13129e-09
1.11743e-09
1.13662e-09
1.14029e-09
1.14937e-09
1.1982e-09
1.15356e-09
8.57544e-10
4.35595e-10
5.03428e-10
7.88508e-10
8.11126e-10
8.81957e-10
7.93572e-10
7.85933e-10
7.79653e-10
7.56997e-10
7.75064e-10
7.51682e-10
7.54848e-10
7.66773e-10
7.56104e-10
7.70725e-10
7.73335e-10
7.80496e-10
8.20559e-10
7.90075e-10
6.26303e-10
3.52165e-10
3.77798e-10
5.47574e-10
5.29002e-10
5.75434e-10
5.11312e-10
5.06e-10
5.01686e-10
4.85599e-10
4.98728e-10
4.81824e-10
4.8414e-10
4.92745e-10
4.84999e-10
4.95484e-10
4.97197e-10
5.02455e-10
5.32764e-10
5.21384e-10
4.32394e-10
2.67973e-10
2.63574e-10
3.56999e-10
3.25896e-10
3.54131e-10
3.10746e-10
3.07308e-10
3.04539e-10
2.93845e-10
3.02781e-10
2.9134e-10
2.92919e-10
2.98745e-10
2.93469e-10
3.00509e-10
3.01542e-10
3.05138e-10
3.26302e-10
3.24314e-10
2.80654e-10
1.90612e-10
1.70348e-10
2.17493e-10
1.88497e-10
2.04593e-10
1.77317e-10
1.75253e-10
1.73601e-10
1.66974e-10
1.72645e-10
1.65426e-10
1.66429e-10
1.70109e-10
1.66757e-10
1.7116e-10
1.7173e-10
1.74011e-10
1.87634e-10
1.89185e-10
1.70378e-10
1.25991e-10
8.8432e-11
9.05895e-11
8.86143e-11
9.11658e-11
9.1454e-11
9.27877e-11
1.00868e-10
1.0302e-10
9.63003e-11
7.70029e-11
)
;

boundaryField
{
    fuel
    {
        type            fixedValue;
        value           nonuniform 0();
    }
    wall
    {
        type            zeroGradient;
    }
    outlet
    {
        type            zeroGradient;
    }
    frontAndBack
    {
        type            empty;
    }
    procBoundary0to1
    {
        type            processor;
        value           nonuniform List<scalar> 
21
(
1.01623e-10
1.23239e-10
1.0182e-10
1.10465e-10
9.4596e-11
9.34515e-11
9.25383e-11
8.87279e-11
9.20686e-11
8.78401e-11
8.78401e-11
4.37731e-11
4.49416e-11
4.38671e-11
4.52304e-11
4.53646e-11
4.60793e-11
5.04908e-11
5.2148e-11
5.04627e-11
4.33226e-11
)
;
    }
    procBoundary0to2
    {
        type            processor;
        value           nonuniform List<scalar> 
12
(
6.59069e-09
6.67326e-10
2.78518e-09
5.11061e-09
5.98541e-09
5.88262e-09
5.87843e-09
5.86112e-09
5.80125e-09
5.84106e-09
5.78839e-09
5.78839e-09
)
;
    }
    procBoundary0to3
    {
        type            processor;
        value           nonuniform List<scalar> 10(7.38675e-09 7.41531e-09 7.39194e-09 7.42572e-09 7.43137e-09 7.40964e-09 7.30193e-09 6.12862e-09 2.85585e-09 9.59231e-10);
    }
}


// ************************************************************************* //
