/*--------------------------------*- C++ -*----------------------------------*\
| =========                 |                                                 |
| \\      /  F ield         | OpenFOAM: The Open Source CFD Toolbox           |
|  \\    /   O peration     | Version:  dev                                   |
|   \\  /    A nd           | Web:      www.OpenFOAM.org                      |
|    \\/     M anipulation  |                                                 |
\*---------------------------------------------------------------------------*/
FoamFile
{
    version     2.0;
    format      ascii;
    class       volScalarField;
    location    "0.085";
    object      CH3O;
}
// * * * * * * * * * * * * * * * * * * * * * * * * * * * * * * * * * * * * * //

dimensions      [0 0 0 0 0 0 0];

internalField   nonuniform List<scalar> 
25
(
3.26115e-07
1.67703e-07
7.96208e-08
3.95402e-08
2.13412e-08
1.27082e-08
8.13025e-09
5.46723e-09
3.79042e-09
2.65266e-09
1.86486e-09
1.30188e-09
9.01099e-10
6.16866e-10
4.17327e-10
2.79228e-10
1.85161e-10
1.2206e-10
8.029e-11
5.29362e-11
3.51638e-11
2.3671e-11
1.62521e-11
1.14601e-11
8.33556e-12
)
;

boundaryField
{
    wall
    {
        type            zeroGradient;
    }
    fuel
    {
        type            fixedValue;
        value           uniform 0;
    }
    outlet
    {
        type            inletOutlet;
        inletValue      nonuniform 0();
        value           nonuniform 0();
    }
    procBoundary0to1
    {
        type            processor;
        value           uniform 6.22634e-12;
    }
}


// ************************************************************************* //
