/*--------------------------------*- C++ -*----------------------------------*\
| =========                 |                                                 |
| \\      /  F ield         | OpenFOAM: The Open Source CFD Toolbox           |
|  \\    /   O peration     | Version:  dev                                   |
|   \\  /    A nd           | Web:      www.OpenFOAM.org                      |
|    \\/     M anipulation  |                                                 |
\*---------------------------------------------------------------------------*/
FoamFile
{
    version     2.0;
    format      ascii;
    class       volScalarField;
    location    "0.085";
    object      H2C4O;
}
// * * * * * * * * * * * * * * * * * * * * * * * * * * * * * * * * * * * * * //

dimensions      [0 0 0 0 0 0 0];

internalField   nonuniform List<scalar> 
250
(
1.15738e-06
1.15925e-06
1.15728e-06
1.15935e-06
1.16106e-06
1.16988e-06
1.21614e-06
1.34425e-06
1.67159e-06
1.68865e-06
1.10591e-06
1.10763e-06
1.1058e-06
1.10778e-06
1.10945e-06
1.11779e-06
1.16032e-06
1.27721e-06
1.57713e-06
1.63647e-06
1.53875e-06
1.52107e-06
1.2135e-06
1.12299e-06
1.07507e-06
1.06592e-06
1.06338e-06
1.05984e-06
1.0618e-06
1.05876e-06
1.0595e-06
1.06108e-06
1.05938e-06
1.06127e-06
1.06289e-06
1.07073e-06
1.10967e-06
1.21565e-06
1.48274e-06
1.57712e-06
1.48458e-06
1.42942e-06
1.1582e-06
1.07654e-06
1.03217e-06
1.02361e-06
1.02124e-06
1.01787e-06
1.01976e-06
1.01673e-06
1.01754e-06
1.01899e-06
1.01742e-06
1.01922e-06
1.02079e-06
1.02814e-06
1.06366e-06
1.15918e-06
1.39343e-06
1.51275e-06
1.42589e-06
1.33984e-06
1.10749e-06
1.03404e-06
9.9311e-07
9.85142e-07
9.82927e-07
9.79739e-07
9.8156e-07
9.78584e-07
9.79425e-07
9.80749e-07
9.7929e-07
9.81016e-07
9.82534e-07
9.89384e-07
1.02171e-06
1.10733e-06
1.30992e-06
1.44548e-06
1.36518e-06
1.26731e-06
1.06077e-06
9.94874e-07
9.57243e-07
9.4986e-07
9.47798e-07
9.44779e-07
9.46542e-07
9.43642e-07
9.44481e-07
9.45698e-07
9.44341e-07
9.46e-07
9.4746e-07
9.53819e-07
9.83187e-07
1.05959e-06
1.24013e-06
1.37726e-06
1.30384e-06
1.19884e-06
1.01733e-06
9.58369e-07
9.23882e-07
9.17071e-07
9.15155e-07
9.12293e-07
9.14012e-07
9.11196e-07
9.12012e-07
9.13139e-07
9.1187e-07
9.13473e-07
9.1487e-07
9.20743e-07
9.47408e-07
1.0153e-06
1.17224e-06
1.30874e-06
1.2428e-06
1.13724e-06
9.76353e-07
9.23756e-07
8.92292e-07
8.86047e-07
8.84274e-07
8.81557e-07
8.83244e-07
8.80515e-07
8.81293e-07
8.82347e-07
8.81153e-07
8.82712e-07
8.8404e-07
8.89417e-07
9.13222e-07
9.73789e-07
1.11151e-06
1.24163e-06
1.18246e-06
1.07954e-06
9.36454e-07
8.90324e-07
8.61229e-07
8.55029e-07
8.53271e-07
8.50464e-07
8.52271e-07
8.49415e-07
8.50197e-07
8.51318e-07
8.5008e-07
8.51705e-07
8.5302e-07
8.58341e-07
8.80521e-07
9.34364e-07
1.05433e-06
1.17591e-06
1.12282e-06
1.02468e-06
8.97085e-07
8.5726e-07
8.30659e-07
8.24945e-07
8.23302e-07
8.20566e-07
8.22404e-07
8.19574e-07
8.20313e-07
8.21422e-07
8.20208e-07
8.21831e-07
8.23077e-07
8.27984e-07
8.48152e-07
8.93918e-07
9.99843e-07
1.11175e-06
1.06362e-06
9.71681e-07
8.58094e-07
8.23762e-07
7.99385e-07
7.94142e-07
7.92605e-07
7.89912e-07
7.91809e-07
7.88974e-07
7.89671e-07
7.90798e-07
7.89581e-07
7.91221e-07
7.92392e-07
7.96919e-07
8.15298e-07
8.55548e-07
9.47245e-07
1.04899e-06
1.00441e-06
9.19532e-07
8.1853e-07
7.89035e-07
7.6662e-07
7.61839e-07
7.60403e-07
7.57727e-07
7.59709e-07
7.56841e-07
7.57499e-07
7.58667e-07
7.57426e-07
7.59098e-07
7.60186e-07
7.64357e-07
7.81147e-07
8.1642e-07
8.95599e-07
9.87257e-07
9.44603e-07
8.6723e-07
7.77397e-07
7.52303e-07
7.316e-07
7.27278e-07
7.25939e-07
7.23261e-07
7.25351e-07
7.22421e-07
7.23044e-07
7.24276e-07
7.22989e-07
7.24706e-07
7.25704e-07
7.29541e-07
7.44917e-07
7.75731e-07
8.43956e-07
9.25955e-07
6.85542e-07
6.86857e-07
6.85505e-07
6.87276e-07
6.88178e-07
6.91696e-07
7.05826e-07
7.32664e-07
7.9135e-07
8.64341e-07
)
;

boundaryField
{
    fuel
    {
        type            fixedValue;
        value           nonuniform 0();
    }
    wall
    {
        type            zeroGradient;
    }
    outlet
    {
        type            zeroGradient;
    }
    frontAndBack
    {
        type            empty;
    }
    procBoundary0to1
    {
        type            processor;
        value           nonuniform List<scalar> 
21
(
8.8353e-07
8.13788e-07
7.33809e-07
7.12784e-07
6.93559e-07
6.89693e-07
6.88447e-07
6.85747e-07
6.8797e-07
6.84946e-07
6.84946e-07
6.44159e-07
6.45575e-07
6.44141e-07
6.45972e-07
6.46774e-07
6.49988e-07
6.63032e-07
6.86332e-07
7.36752e-07
8.01502e-07
)
;
    }
    procBoundary0to2
    {
        type            processor;
        value           nonuniform List<scalar> 
12
(
1.157e-06
1.58577e-06
1.61574e-06
1.27394e-06
1.17398e-06
1.12244e-06
1.11268e-06
1.10999e-06
1.10626e-06
1.10831e-06
1.10532e-06
1.10532e-06
)
;
    }
    procBoundary0to3
    {
        type            processor;
        value           nonuniform List<scalar> 10(1.21448e-06 1.21649e-06 1.21439e-06 1.21654e-06 1.21828e-06 1.22756e-06 1.27765e-06 1.42559e-06 1.77666e-06 1.73128e-06);
    }
}


// ************************************************************************* //
