/*--------------------------------*- C++ -*----------------------------------*\
| =========                 |                                                 |
| \\      /  F ield         | OpenFOAM: The Open Source CFD Toolbox           |
|  \\    /   O peration     | Version:  dev                                   |
|   \\  /    A nd           | Web:      www.OpenFOAM.org                      |
|    \\/     M anipulation  |                                                 |
\*---------------------------------------------------------------------------*/
FoamFile
{
    version     2.0;
    format      ascii;
    class       volScalarField;
    location    "0.085";
    object      H2C4O;
}
// * * * * * * * * * * * * * * * * * * * * * * * * * * * * * * * * * * * * * //

dimensions      [0 0 0 0 0 0 0];

internalField   nonuniform List<scalar> 
2014
(
2.7876e-06
2.80091e-06
2.8135e-06
2.81997e-06
2.82247e-06
2.82388e-06
2.82352e-06
2.82371e-06
2.82319e-06
2.82324e-06
2.82291e-06
2.82296e-06
2.82275e-06
2.8228e-06
2.82267e-06
2.82272e-06
2.82263e-06
2.82268e-06
2.82263e-06
2.82266e-06
2.82262e-06
2.82264e-06
2.82262e-06
2.82263e-06
2.82262e-06
2.82262e-06
2.82263e-06
2.82262e-06
2.82264e-06
2.82262e-06
2.82266e-06
2.82263e-06
2.82268e-06
2.82263e-06
2.82272e-06
2.82267e-06
2.8228e-06
2.82275e-06
2.82296e-06
2.82291e-06
2.82324e-06
2.82319e-06
2.8237e-06
2.82352e-06
2.82388e-06
2.82247e-06
2.81997e-06
2.8135e-06
2.80091e-06
2.7876e-06
2.72827e-06
2.74132e-06
2.75358e-06
2.75986e-06
2.76229e-06
2.76366e-06
2.7633e-06
2.76346e-06
2.76295e-06
2.76299e-06
2.76266e-06
2.76271e-06
2.7625e-06
2.76255e-06
2.76242e-06
2.76247e-06
2.76238e-06
2.76243e-06
2.76238e-06
2.76241e-06
2.76237e-06
2.76239e-06
2.76237e-06
2.76238e-06
2.76237e-06
2.76237e-06
2.76238e-06
2.76237e-06
2.76239e-06
2.76237e-06
2.76241e-06
2.76238e-06
2.76243e-06
2.76238e-06
2.76247e-06
2.76242e-06
2.76255e-06
2.7625e-06
2.76271e-06
2.76266e-06
2.76299e-06
2.76295e-06
2.76346e-06
2.7633e-06
2.76366e-06
2.76229e-06
2.75985e-06
2.75358e-06
2.74132e-06
2.72827e-06
2.67077e-06
2.68358e-06
2.69548e-06
2.70156e-06
2.70392e-06
2.70525e-06
2.70489e-06
2.70504e-06
2.70453e-06
2.70456e-06
2.70423e-06
2.70427e-06
2.70407e-06
2.70411e-06
2.70398e-06
2.70403e-06
2.70395e-06
2.70399e-06
2.70394e-06
2.70397e-06
2.70393e-06
2.70395e-06
2.70393e-06
2.70394e-06
2.70393e-06
2.70393e-06
2.70394e-06
2.70393e-06
2.70395e-06
2.70393e-06
2.70397e-06
2.70394e-06
2.70399e-06
2.70395e-06
2.70403e-06
2.70398e-06
2.70411e-06
2.70407e-06
2.70427e-06
2.70424e-06
2.70456e-06
2.70453e-06
2.70504e-06
2.70488e-06
2.70525e-06
2.70392e-06
2.70156e-06
2.69547e-06
2.68358e-06
2.67077e-06
2.61502e-06
2.62762e-06
2.63913e-06
2.64502e-06
2.64731e-06
2.64859e-06
2.64822e-06
2.64836e-06
2.64786e-06
2.64788e-06
2.64756e-06
2.64759e-06
2.64739e-06
2.64743e-06
2.6473e-06
2.64734e-06
2.64726e-06
2.6473e-06
2.64725e-06
2.64728e-06
2.64725e-06
2.64727e-06
2.64724e-06
2.64725e-06
2.64725e-06
2.64725e-06
2.64725e-06
2.64724e-06
2.64727e-06
2.64725e-06
2.64728e-06
2.64725e-06
2.6473e-06
2.64726e-06
2.64734e-06
2.6473e-06
2.64743e-06
2.64739e-06
2.64759e-06
2.64756e-06
2.64788e-06
2.64786e-06
2.64836e-06
2.64822e-06
2.64859e-06
2.6473e-06
2.64502e-06
2.63912e-06
2.62762e-06
2.61502e-06
2.56098e-06
2.57335e-06
2.5845e-06
2.59019e-06
2.59238e-06
2.59362e-06
2.59326e-06
2.59337e-06
2.59288e-06
2.59289e-06
2.59257e-06
2.5926e-06
2.5924e-06
2.59243e-06
2.59231e-06
2.59235e-06
2.59227e-06
2.59231e-06
2.59226e-06
2.59229e-06
2.59226e-06
2.59227e-06
2.59225e-06
2.59226e-06
2.59226e-06
2.59226e-06
2.59226e-06
2.59225e-06
2.59227e-06
2.59226e-06
2.59229e-06
2.59226e-06
2.59231e-06
2.59227e-06
2.59235e-06
2.59231e-06
2.59243e-06
2.5924e-06
2.5926e-06
2.59257e-06
2.59289e-06
2.59288e-06
2.59337e-06
2.59326e-06
2.59362e-06
2.59238e-06
2.59019e-06
2.5845e-06
2.57335e-06
2.56098e-06
2.50858e-06
2.52073e-06
2.53152e-06
2.53699e-06
2.5391e-06
2.54029e-06
2.53992e-06
2.54003e-06
2.53954e-06
2.53954e-06
2.53923e-06
2.53925e-06
2.53905e-06
2.53908e-06
2.53896e-06
2.539e-06
2.53892e-06
2.53896e-06
2.53891e-06
2.53894e-06
2.5389e-06
2.53892e-06
2.5389e-06
2.53891e-06
2.5389e-06
2.5389e-06
2.53891e-06
2.5389e-06
2.53892e-06
2.5389e-06
2.53894e-06
2.53891e-06
2.53896e-06
2.53892e-06
2.539e-06
2.53896e-06
2.53908e-06
2.53905e-06
2.53924e-06
2.53923e-06
2.53954e-06
2.53954e-06
2.54003e-06
2.53992e-06
2.54029e-06
2.5391e-06
2.53699e-06
2.53152e-06
2.52073e-06
2.50858e-06
2.45778e-06
2.46971e-06
2.48012e-06
2.48538e-06
2.4874e-06
2.48855e-06
2.48818e-06
2.48827e-06
2.48779e-06
2.48778e-06
2.48747e-06
2.48748e-06
2.48729e-06
2.48731e-06
2.4872e-06
2.48723e-06
2.48715e-06
2.48719e-06
2.48714e-06
2.48717e-06
2.48714e-06
2.48715e-06
2.48713e-06
2.48714e-06
2.48714e-06
2.48714e-06
2.48714e-06
2.48713e-06
2.48715e-06
2.48714e-06
2.48717e-06
2.48714e-06
2.48719e-06
2.48715e-06
2.48723e-06
2.4872e-06
2.48732e-06
2.48729e-06
2.48748e-06
2.48747e-06
2.48778e-06
2.48779e-06
2.48827e-06
2.48818e-06
2.48855e-06
2.4874e-06
2.48538e-06
2.48012e-06
2.46971e-06
2.45778e-06
2.40852e-06
2.42023e-06
2.43026e-06
2.43531e-06
2.43724e-06
2.43834e-06
2.43797e-06
2.43804e-06
2.43757e-06
2.43755e-06
2.43724e-06
2.43725e-06
2.43706e-06
2.43709e-06
2.43697e-06
2.437e-06
2.43693e-06
2.43696e-06
2.43692e-06
2.43694e-06
2.43691e-06
2.43692e-06
2.43691e-06
2.43691e-06
2.43691e-06
2.43691e-06
2.43691e-06
2.43691e-06
2.43692e-06
2.43691e-06
2.43694e-06
2.43692e-06
2.43696e-06
2.43693e-06
2.437e-06
2.43697e-06
2.43709e-06
2.43706e-06
2.43725e-06
2.43724e-06
2.43755e-06
2.43757e-06
2.43804e-06
2.43797e-06
2.43834e-06
2.43724e-06
2.43531e-06
2.43025e-06
2.42023e-06
2.40852e-06
2.36075e-06
2.37224e-06
2.38188e-06
2.38673e-06
2.38857e-06
2.38962e-06
2.38925e-06
2.3893e-06
2.38884e-06
2.38881e-06
2.38851e-06
2.38851e-06
2.38832e-06
2.38834e-06
2.38823e-06
2.38826e-06
2.38819e-06
2.38822e-06
2.38818e-06
2.3882e-06
2.38817e-06
2.38818e-06
2.38817e-06
2.38817e-06
2.38817e-06
2.38817e-06
2.38817e-06
2.38817e-06
2.38818e-06
2.38817e-06
2.3882e-06
2.38818e-06
2.38822e-06
2.38819e-06
2.38826e-06
2.38823e-06
2.38834e-06
2.38832e-06
2.38851e-06
2.38851e-06
2.38881e-06
2.38884e-06
2.3893e-06
2.38925e-06
2.38962e-06
2.38857e-06
2.38673e-06
2.38188e-06
2.37224e-06
2.36075e-06
2.31444e-06
2.32569e-06
2.33494e-06
2.3396e-06
2.34134e-06
2.34234e-06
2.34197e-06
2.34201e-06
2.34155e-06
2.34151e-06
2.34122e-06
2.34121e-06
2.34103e-06
2.34105e-06
2.34093e-06
2.34096e-06
2.34089e-06
2.34093e-06
2.34088e-06
2.3409e-06
2.34087e-06
2.34089e-06
2.34087e-06
2.34088e-06
2.34087e-06
2.34087e-06
2.34088e-06
2.34087e-06
2.34089e-06
2.34087e-06
2.3409e-06
2.34088e-06
2.34093e-06
2.34089e-06
2.34096e-06
2.34093e-06
2.34105e-06
2.34103e-06
2.34121e-06
2.34122e-06
2.34151e-06
2.34155e-06
2.34201e-06
2.34197e-06
2.34234e-06
2.34134e-06
2.33959e-06
2.33494e-06
2.32569e-06
2.31444e-06
2.26954e-06
2.28052e-06
2.2894e-06
2.29386e-06
2.29552e-06
2.29646e-06
2.29608e-06
2.29611e-06
2.29566e-06
2.29561e-06
2.29532e-06
2.29532e-06
2.29514e-06
2.29515e-06
2.29504e-06
2.29507e-06
2.295e-06
2.29503e-06
2.29498e-06
2.29501e-06
2.29498e-06
2.29499e-06
2.29497e-06
2.29498e-06
2.29498e-06
2.29498e-06
2.29498e-06
2.29497e-06
2.29499e-06
2.29498e-06
2.29501e-06
2.29498e-06
2.29503e-06
2.295e-06
2.29507e-06
2.29504e-06
2.29515e-06
2.29514e-06
2.29532e-06
2.29532e-06
2.29561e-06
2.29566e-06
2.29611e-06
2.29608e-06
2.29646e-06
2.29551e-06
2.29385e-06
2.28939e-06
2.28052e-06
2.26953e-06
2.22599e-06
2.23669e-06
2.24521e-06
2.24947e-06
2.25104e-06
2.25194e-06
2.25156e-06
2.25157e-06
2.25113e-06
2.25108e-06
2.25079e-06
2.25078e-06
2.2506e-06
2.25061e-06
2.2505e-06
2.25053e-06
2.25046e-06
2.25049e-06
2.25045e-06
2.25047e-06
2.25044e-06
2.25045e-06
2.25044e-06
2.25044e-06
2.25044e-06
2.25044e-06
2.25044e-06
2.25044e-06
2.25045e-06
2.25044e-06
2.25047e-06
2.25045e-06
2.25049e-06
2.25046e-06
2.25053e-06
2.2505e-06
2.25061e-06
2.2506e-06
2.25078e-06
2.25079e-06
2.25108e-06
2.25113e-06
2.25157e-06
2.25156e-06
2.25194e-06
2.25104e-06
2.24947e-06
2.2452e-06
2.23669e-06
2.22599e-06
2.18378e-06
2.19416e-06
2.20233e-06
2.20641e-06
2.20789e-06
2.20873e-06
2.20835e-06
2.20835e-06
2.20791e-06
2.20785e-06
2.20757e-06
2.20756e-06
2.20738e-06
2.20739e-06
2.20728e-06
2.20731e-06
2.20724e-06
2.20727e-06
2.20723e-06
2.20725e-06
2.20722e-06
2.20723e-06
2.20722e-06
2.20723e-06
2.20722e-06
2.20722e-06
2.20723e-06
2.20722e-06
2.20723e-06
2.20722e-06
2.20725e-06
2.20723e-06
2.20727e-06
2.20724e-06
2.20731e-06
2.20729e-06
2.20739e-06
2.20738e-06
2.20756e-06
2.20757e-06
2.20785e-06
2.20791e-06
2.20835e-06
2.20835e-06
2.20873e-06
2.20789e-06
2.2064e-06
2.20232e-06
2.19416e-06
2.18378e-06
2.14284e-06
2.15289e-06
2.16072e-06
2.16462e-06
2.16601e-06
2.16681e-06
2.16642e-06
2.16641e-06
2.16598e-06
2.16591e-06
2.16564e-06
2.16562e-06
2.16544e-06
2.16545e-06
2.16535e-06
2.16537e-06
2.1653e-06
2.16533e-06
2.16529e-06
2.16531e-06
2.16528e-06
2.1653e-06
2.16528e-06
2.16529e-06
2.16528e-06
2.16528e-06
2.16529e-06
2.16528e-06
2.1653e-06
2.16528e-06
2.16531e-06
2.16529e-06
2.16533e-06
2.1653e-06
2.16537e-06
2.16535e-06
2.16545e-06
2.16544e-06
2.16561e-06
2.16564e-06
2.16591e-06
2.16598e-06
2.16641e-06
2.16642e-06
2.16681e-06
2.16601e-06
2.16461e-06
2.16071e-06
2.15289e-06
2.14284e-06
2.10315e-06
2.11285e-06
2.12034e-06
2.12407e-06
2.12538e-06
2.12612e-06
2.12574e-06
2.12571e-06
2.12529e-06
2.12521e-06
2.12494e-06
2.12492e-06
2.12475e-06
2.12476e-06
2.12465e-06
2.12467e-06
2.12461e-06
2.12464e-06
2.1246e-06
2.12462e-06
2.12459e-06
2.1246e-06
2.12458e-06
2.12459e-06
2.12459e-06
2.12459e-06
2.12459e-06
2.12459e-06
2.1246e-06
2.12459e-06
2.12462e-06
2.1246e-06
2.12464e-06
2.12461e-06
2.12467e-06
2.12465e-06
2.12476e-06
2.12475e-06
2.12492e-06
2.12494e-06
2.12521e-06
2.12529e-06
2.12571e-06
2.12573e-06
2.12612e-06
2.12537e-06
2.12407e-06
2.12034e-06
2.11285e-06
2.10315e-06
2.06466e-06
2.07399e-06
2.08116e-06
2.08473e-06
2.08594e-06
2.08664e-06
2.08625e-06
2.08621e-06
2.0858e-06
2.08572e-06
2.08546e-06
2.08543e-06
2.08526e-06
2.08527e-06
2.08517e-06
2.08519e-06
2.08512e-06
2.08515e-06
2.08511e-06
2.08513e-06
2.0851e-06
2.08511e-06
2.0851e-06
2.0851e-06
2.0851e-06
2.0851e-06
2.0851e-06
2.0851e-06
2.08511e-06
2.0851e-06
2.08513e-06
2.08511e-06
2.08515e-06
2.08512e-06
2.08519e-06
2.08517e-06
2.08527e-06
2.08526e-06
2.08543e-06
2.08546e-06
2.08572e-06
2.0858e-06
2.08621e-06
2.08625e-06
2.08664e-06
2.08594e-06
2.08472e-06
2.08116e-06
2.07399e-06
2.06465e-06
2.02732e-06
2.03628e-06
2.04315e-06
2.04655e-06
2.04768e-06
2.04833e-06
2.04794e-06
2.04789e-06
2.04748e-06
2.0474e-06
2.04714e-06
2.04711e-06
2.04695e-06
2.04695e-06
2.04685e-06
2.04687e-06
2.04681e-06
2.04683e-06
2.04679e-06
2.04681e-06
2.04679e-06
2.0468e-06
2.04678e-06
2.04679e-06
2.04679e-06
2.04679e-06
2.04679e-06
2.04678e-06
2.0468e-06
2.04679e-06
2.04681e-06
2.04679e-06
2.04683e-06
2.04681e-06
2.04687e-06
2.04685e-06
2.04695e-06
2.04695e-06
2.04711e-06
2.04714e-06
2.0474e-06
2.04748e-06
2.04789e-06
2.04794e-06
2.04833e-06
2.04768e-06
2.04655e-06
2.04315e-06
2.03629e-06
2.02732e-06
1.99112e-06
1.9997e-06
2.00627e-06
2.00951e-06
2.01055e-06
2.01116e-06
2.01077e-06
2.01071e-06
2.01031e-06
2.01022e-06
2.00997e-06
2.00993e-06
2.00977e-06
2.00977e-06
2.00968e-06
2.00969e-06
2.00963e-06
2.00966e-06
2.00962e-06
2.00964e-06
2.00961e-06
2.00963e-06
2.00961e-06
2.00962e-06
2.00961e-06
2.00961e-06
2.00962e-06
2.00961e-06
2.00963e-06
2.00961e-06
2.00964e-06
2.00962e-06
2.00966e-06
2.00964e-06
2.0097e-06
2.00968e-06
2.00977e-06
2.00977e-06
2.00993e-06
2.00997e-06
2.01022e-06
2.01031e-06
2.01071e-06
2.01077e-06
2.01116e-06
2.01055e-06
2.00951e-06
2.00627e-06
1.9997e-06
1.99112e-06
1.956e-06
1.96421e-06
1.97049e-06
1.97357e-06
1.97454e-06
1.97509e-06
1.9747e-06
1.97463e-06
1.97424e-06
1.97415e-06
1.9739e-06
1.97386e-06
1.97371e-06
1.97371e-06
1.97361e-06
1.97363e-06
1.97357e-06
1.97359e-06
1.97356e-06
1.97357e-06
1.97355e-06
1.97356e-06
1.97354e-06
1.97355e-06
1.97355e-06
1.97355e-06
1.97355e-06
1.97355e-06
1.97356e-06
1.97355e-06
1.97357e-06
1.97356e-06
1.97359e-06
1.97357e-06
1.97363e-06
1.97361e-06
1.97371e-06
1.97371e-06
1.97386e-06
1.9739e-06
1.97415e-06
1.97424e-06
1.97463e-06
1.9747e-06
1.97509e-06
1.97453e-06
1.97357e-06
1.97048e-06
1.96421e-06
1.956e-06
1.92194e-06
1.92977e-06
1.93578e-06
1.93871e-06
1.93959e-06
1.9401e-06
1.93971e-06
1.93963e-06
1.93925e-06
1.93915e-06
1.93891e-06
1.93887e-06
1.93872e-06
1.93871e-06
1.93862e-06
1.93864e-06
1.93858e-06
1.9386e-06
1.93857e-06
1.93858e-06
1.93856e-06
1.93857e-06
1.93856e-06
1.93856e-06
1.93856e-06
1.93856e-06
1.93856e-06
1.93856e-06
1.93857e-06
1.93856e-06
1.93858e-06
1.93857e-06
1.9386e-06
1.93858e-06
1.93864e-06
1.93862e-06
1.93871e-06
1.93872e-06
1.93887e-06
1.93891e-06
1.93915e-06
1.93925e-06
1.93963e-06
1.93971e-06
1.9401e-06
1.93959e-06
1.93871e-06
1.93578e-06
1.92977e-06
1.92194e-06
1.88889e-06
1.89637e-06
1.90211e-06
1.90488e-06
1.90569e-06
1.90615e-06
1.90576e-06
1.90567e-06
1.9053e-06
1.9052e-06
1.90496e-06
1.90492e-06
1.90477e-06
1.90477e-06
1.90468e-06
1.90469e-06
1.90464e-06
1.90466e-06
1.90462e-06
1.90464e-06
1.90462e-06
1.90463e-06
1.90461e-06
1.90462e-06
1.90462e-06
1.90462e-06
1.90462e-06
1.90461e-06
1.90463e-06
1.90462e-06
1.90464e-06
1.90462e-06
1.90466e-06
1.90464e-06
1.90469e-06
1.90468e-06
1.90477e-06
1.90477e-06
1.90492e-06
1.90496e-06
1.9052e-06
1.9053e-06
1.90567e-06
1.90576e-06
1.90615e-06
1.90569e-06
1.90488e-06
1.90211e-06
1.89637e-06
1.88889e-06
1.85684e-06
1.86397e-06
1.86944e-06
1.87206e-06
1.8728e-06
1.87321e-06
1.87283e-06
1.87273e-06
1.87236e-06
1.87226e-06
1.87203e-06
1.87199e-06
1.87184e-06
1.87184e-06
1.87175e-06
1.87176e-06
1.87171e-06
1.87173e-06
1.8717e-06
1.87171e-06
1.87169e-06
1.8717e-06
1.87169e-06
1.87169e-06
1.87169e-06
1.87169e-06
1.87169e-06
1.87169e-06
1.8717e-06
1.87169e-06
1.87171e-06
1.8717e-06
1.87173e-06
1.87171e-06
1.87176e-06
1.87175e-06
1.87184e-06
1.87184e-06
1.87199e-06
1.87203e-06
1.87226e-06
1.87236e-06
1.87273e-06
1.87283e-06
1.87321e-06
1.8728e-06
1.87206e-06
1.86944e-06
1.86397e-06
1.85684e-06
1.82574e-06
1.83255e-06
1.83774e-06
1.84023e-06
1.84089e-06
1.84126e-06
1.84088e-06
1.84077e-06
1.84041e-06
1.84031e-06
1.84008e-06
1.84004e-06
1.8399e-06
1.83989e-06
1.83981e-06
1.83982e-06
1.83977e-06
1.83979e-06
1.83976e-06
1.83977e-06
1.83975e-06
1.83976e-06
1.83975e-06
1.83975e-06
1.83975e-06
1.83975e-06
1.83975e-06
1.83975e-06
1.83976e-06
1.83975e-06
1.83977e-06
1.83976e-06
1.83979e-06
1.83977e-06
1.83982e-06
1.83981e-06
1.83989e-06
1.8399e-06
1.84004e-06
1.84008e-06
1.84031e-06
1.84041e-06
1.84077e-06
1.84088e-06
1.84126e-06
1.84089e-06
1.84022e-06
1.83773e-06
1.83255e-06
1.82574e-06
1.79558e-06
1.80207e-06
1.80698e-06
1.80934e-06
1.80994e-06
1.81026e-06
1.80988e-06
1.80977e-06
1.80942e-06
1.80932e-06
1.8091e-06
1.80905e-06
1.80892e-06
1.80891e-06
1.80883e-06
1.80884e-06
1.80879e-06
1.8088e-06
1.80877e-06
1.80879e-06
1.80877e-06
1.80878e-06
1.80876e-06
1.80877e-06
1.80877e-06
1.80877e-06
1.80877e-06
1.80876e-06
1.80878e-06
1.80877e-06
1.80879e-06
1.80877e-06
1.8088e-06
1.80879e-06
1.80884e-06
1.80883e-06
1.80891e-06
1.80892e-06
1.80905e-06
1.8091e-06
1.80932e-06
1.80942e-06
1.80977e-06
1.80988e-06
1.81026e-06
1.80994e-06
1.80934e-06
1.80698e-06
1.80207e-06
1.79558e-06
1.76632e-06
1.7725e-06
1.77713e-06
1.77937e-06
1.77992e-06
1.78019e-06
1.77981e-06
1.77969e-06
1.77936e-06
1.77925e-06
1.77904e-06
1.77899e-06
1.77886e-06
1.77885e-06
1.77877e-06
1.77878e-06
1.77873e-06
1.77875e-06
1.77872e-06
1.77873e-06
1.77871e-06
1.77872e-06
1.77871e-06
1.77871e-06
1.77871e-06
1.77871e-06
1.77871e-06
1.77871e-06
1.77872e-06
1.77871e-06
1.77873e-06
1.77872e-06
1.77875e-06
1.77873e-06
1.77878e-06
1.77877e-06
1.77885e-06
1.77886e-06
1.77899e-06
1.77904e-06
1.77925e-06
1.77936e-06
1.77969e-06
1.77981e-06
1.78019e-06
1.77991e-06
1.77937e-06
1.77713e-06
1.7725e-06
1.76631e-06
1.7389e-06
1.74483e-06
1.74918e-06
1.75133e-06
1.75181e-06
1.75204e-06
1.75166e-06
1.75154e-06
1.75121e-06
1.7511e-06
1.75089e-06
1.75085e-06
1.75072e-06
1.75071e-06
1.75063e-06
1.75064e-06
1.7506e-06
1.75061e-06
1.75058e-06
1.7506e-06
1.75058e-06
1.75058e-06
1.75057e-06
1.75058e-06
1.75058e-06
1.75058e-06
1.75058e-06
1.75057e-06
1.75058e-06
1.75058e-06
1.7506e-06
1.75058e-06
1.75061e-06
1.7506e-06
1.75064e-06
1.75063e-06
1.75071e-06
1.75072e-06
1.75085e-06
1.75089e-06
1.7511e-06
1.75121e-06
1.75154e-06
1.75166e-06
1.75204e-06
1.75181e-06
1.75132e-06
1.74918e-06
1.74483e-06
1.7389e-06
1.71196e-06
1.71768e-06
1.72166e-06
1.72367e-06
1.72403e-06
1.72417e-06
1.72376e-06
1.72361e-06
1.72327e-06
1.72316e-06
1.72295e-06
1.72289e-06
1.72277e-06
1.72275e-06
1.72268e-06
1.72268e-06
1.72264e-06
1.72265e-06
1.72262e-06
1.72263e-06
1.72261e-06
1.72262e-06
1.72261e-06
1.72262e-06
1.72261e-06
1.72261e-06
1.72262e-06
1.72261e-06
1.72262e-06
1.72261e-06
1.72263e-06
1.72262e-06
1.72265e-06
1.72264e-06
1.72268e-06
1.72268e-06
1.72275e-06
1.72277e-06
1.72289e-06
1.72295e-06
1.72316e-06
1.72327e-06
1.72361e-06
1.72376e-06
1.72417e-06
1.72403e-06
1.72367e-06
1.72166e-06
1.71768e-06
1.71196e-06
1.68536e-06
1.69081e-06
1.69451e-06
1.69642e-06
1.69673e-06
1.69681e-06
1.69641e-06
1.69626e-06
1.69593e-06
1.69581e-06
1.69561e-06
1.69555e-06
1.69543e-06
1.69542e-06
1.69534e-06
1.69535e-06
1.6953e-06
1.69532e-06
1.69529e-06
1.6953e-06
1.69528e-06
1.69529e-06
1.69528e-06
1.69528e-06
1.69528e-06
1.69528e-06
1.69528e-06
1.69528e-06
1.69529e-06
1.69528e-06
1.6953e-06
1.69529e-06
1.69532e-06
1.6953e-06
1.69535e-06
1.69534e-06
1.69542e-06
1.69543e-06
1.69555e-06
1.69561e-06
1.69581e-06
1.69593e-06
1.69626e-06
1.69641e-06
1.69681e-06
1.69673e-06
1.69642e-06
1.69451e-06
1.69081e-06
1.68536e-06
1.65956e-06
1.66475e-06
1.66818e-06
1.67e-06
1.67026e-06
1.67029e-06
1.66988e-06
1.66973e-06
1.66941e-06
1.6693e-06
1.6691e-06
1.66904e-06
1.66892e-06
1.66891e-06
1.66884e-06
1.66884e-06
1.6688e-06
1.66881e-06
1.66879e-06
1.6688e-06
1.66878e-06
1.66879e-06
1.66878e-06
1.66878e-06
1.66878e-06
1.66878e-06
1.66878e-06
1.66878e-06
1.66879e-06
1.66878e-06
1.6688e-06
1.66879e-06
1.66881e-06
1.6688e-06
1.66884e-06
1.66884e-06
1.66891e-06
1.66892e-06
1.66904e-06
1.6691e-06
1.6693e-06
1.66941e-06
1.66973e-06
1.66988e-06
1.67028e-06
1.67026e-06
1.67e-06
1.66818e-06
1.66475e-06
1.65956e-06
1.63454e-06
1.63947e-06
1.64266e-06
1.64437e-06
1.64459e-06
1.64456e-06
1.64416e-06
1.644e-06
1.6437e-06
1.64358e-06
1.64339e-06
1.64334e-06
1.64322e-06
1.64321e-06
1.64314e-06
1.64314e-06
1.6431e-06
1.64311e-06
1.64309e-06
1.6431e-06
1.64308e-06
1.64309e-06
1.64308e-06
1.64308e-06
1.64308e-06
1.64308e-06
1.64308e-06
1.64308e-06
1.64309e-06
1.64308e-06
1.6431e-06
1.64309e-06
1.64311e-06
1.6431e-06
1.64314e-06
1.64314e-06
1.64321e-06
1.64322e-06
1.64334e-06
1.64339e-06
1.64358e-06
1.6437e-06
1.644e-06
1.64416e-06
1.64456e-06
1.64459e-06
1.64437e-06
1.64266e-06
1.63947e-06
1.63454e-06
1.61027e-06
1.61495e-06
1.6179e-06
1.61952e-06
1.6197e-06
1.6196e-06
1.61921e-06
1.61905e-06
1.61876e-06
1.61864e-06
1.61846e-06
1.6184e-06
1.61829e-06
1.61828e-06
1.61821e-06
1.61822e-06
1.61818e-06
1.61819e-06
1.61816e-06
1.61817e-06
1.61816e-06
1.61817e-06
1.61816e-06
1.61816e-06
1.61816e-06
1.61816e-06
1.61816e-06
1.61816e-06
1.61817e-06
1.61816e-06
1.61817e-06
1.61816e-06
1.61819e-06
1.61818e-06
1.61822e-06
1.61821e-06
1.61828e-06
1.61829e-06
1.6184e-06
1.61846e-06
1.61864e-06
1.61876e-06
1.61905e-06
1.61921e-06
1.6196e-06
1.6197e-06
1.61952e-06
1.6179e-06
1.61495e-06
1.61027e-06
1.58751e-06
1.59197e-06
1.59471e-06
1.59624e-06
1.59638e-06
1.59621e-06
1.59583e-06
1.59567e-06
1.59538e-06
1.59527e-06
1.59509e-06
1.59504e-06
1.59493e-06
1.59491e-06
1.59485e-06
1.59486e-06
1.59482e-06
1.59483e-06
1.5948e-06
1.59481e-06
1.5948e-06
1.59481e-06
1.5948e-06
1.5948e-06
1.5948e-06
1.5948e-06
1.5948e-06
1.5948e-06
1.59481e-06
1.5948e-06
1.59481e-06
1.5948e-06
1.59483e-06
1.59482e-06
1.59486e-06
1.59485e-06
1.59492e-06
1.59493e-06
1.59504e-06
1.59509e-06
1.59527e-06
1.59538e-06
1.59567e-06
1.59583e-06
1.59621e-06
1.59638e-06
1.59624e-06
1.59471e-06
1.59197e-06
1.58751e-06
1.56548e-06
1.56972e-06
1.57226e-06
1.5737e-06
1.57382e-06
1.57357e-06
1.5732e-06
1.57302e-06
1.57271e-06
1.57258e-06
1.57239e-06
1.57233e-06
1.57222e-06
1.5722e-06
1.57213e-06
1.57214e-06
1.5721e-06
1.57211e-06
1.57208e-06
1.57209e-06
1.57208e-06
1.57208e-06
1.57207e-06
1.57208e-06
1.57207e-06
1.57207e-06
1.57208e-06
1.57207e-06
1.57208e-06
1.57208e-06
1.57209e-06
1.57208e-06
1.57211e-06
1.5721e-06
1.57214e-06
1.57213e-06
1.5722e-06
1.57222e-06
1.57233e-06
1.57239e-06
1.57258e-06
1.57271e-06
1.57302e-06
1.5732e-06
1.57357e-06
1.57382e-06
1.5737e-06
1.57226e-06
1.56972e-06
1.56548e-06
1.54353e-06
1.54756e-06
1.54989e-06
1.55122e-06
1.55129e-06
1.55094e-06
1.55056e-06
1.55037e-06
1.55007e-06
1.54994e-06
1.54975e-06
1.54969e-06
1.54958e-06
1.54956e-06
1.54949e-06
1.54949e-06
1.54945e-06
1.54946e-06
1.54944e-06
1.54945e-06
1.54943e-06
1.54944e-06
1.54943e-06
1.54943e-06
1.54943e-06
1.54943e-06
1.54943e-06
1.54943e-06
1.54944e-06
1.54943e-06
1.54945e-06
1.54944e-06
1.54946e-06
1.54945e-06
1.54949e-06
1.54949e-06
1.54956e-06
1.54958e-06
1.54969e-06
1.54975e-06
1.54994e-06
1.55007e-06
1.55037e-06
1.55056e-06
1.55094e-06
1.55129e-06
1.55122e-06
1.54988e-06
1.54756e-06
1.54353e-06
1.52214e-06
1.52594e-06
1.52809e-06
1.52933e-06
1.52939e-06
1.52968e-06
1.52931e-06
1.52912e-06
1.52882e-06
1.52869e-06
1.52851e-06
1.52844e-06
1.52834e-06
1.52832e-06
1.52825e-06
1.52825e-06
1.52821e-06
1.52822e-06
1.5282e-06
1.52821e-06
1.52819e-06
1.5282e-06
1.52819e-06
1.5282e-06
1.52819e-06
1.52819e-06
1.5282e-06
1.52819e-06
1.5282e-06
1.52819e-06
1.52821e-06
1.5282e-06
1.52822e-06
1.52821e-06
1.52825e-06
1.52825e-06
1.52832e-06
1.52834e-06
1.52844e-06
1.52851e-06
1.52869e-06
1.52882e-06
1.52912e-06
1.52931e-06
1.52967e-06
1.52939e-06
1.52933e-06
1.52809e-06
1.52594e-06
1.52214e-06
1.50208e-06
1.50567e-06
1.50764e-06
1.50881e-06
1.50885e-06
1.50908e-06
1.50873e-06
1.50854e-06
1.50825e-06
1.50812e-06
1.50794e-06
1.50788e-06
1.50777e-06
1.50775e-06
1.50769e-06
1.50769e-06
1.50765e-06
1.50766e-06
1.50764e-06
1.50765e-06
1.50763e-06
1.50764e-06
1.50763e-06
1.50764e-06
1.50763e-06
1.50763e-06
1.50764e-06
1.50763e-06
1.50764e-06
1.50763e-06
1.50765e-06
1.50764e-06
1.50766e-06
1.50765e-06
1.50769e-06
1.50769e-06
1.50775e-06
1.50777e-06
1.50788e-06
1.50794e-06
1.50811e-06
1.50825e-06
1.50853e-06
1.50873e-06
1.50908e-06
1.50885e-06
1.50881e-06
1.50764e-06
1.50567e-06
1.50208e-06
1.48253e-06
1.48598e-06
1.48775e-06
1.48881e-06
1.48877e-06
1.48892e-06
1.48854e-06
1.48833e-06
1.48804e-06
1.4879e-06
1.48772e-06
1.48765e-06
1.48755e-06
1.48752e-06
1.48746e-06
1.48746e-06
1.48742e-06
1.48743e-06
1.48741e-06
1.48742e-06
1.4874e-06
1.48741e-06
1.4874e-06
1.4874e-06
1.4874e-06
1.4874e-06
1.4874e-06
1.4874e-06
1.48741e-06
1.4874e-06
1.48742e-06
1.48741e-06
1.48743e-06
1.48742e-06
1.48746e-06
1.48746e-06
1.48752e-06
1.48755e-06
1.48765e-06
1.48772e-06
1.4879e-06
1.48804e-06
1.48833e-06
1.48854e-06
1.48892e-06
1.48877e-06
1.48881e-06
1.48775e-06
1.48598e-06
1.48253e-06
1.4637e-06
1.46697e-06
1.46856e-06
1.46955e-06
1.46949e-06
1.46961e-06
1.46923e-06
1.46902e-06
1.46873e-06
1.46859e-06
1.46842e-06
1.46835e-06
1.46825e-06
1.46823e-06
1.46817e-06
1.46817e-06
1.46813e-06
1.46814e-06
1.46812e-06
1.46812e-06
1.46811e-06
1.46812e-06
1.46811e-06
1.46811e-06
1.46811e-06
1.46811e-06
1.46811e-06
1.46811e-06
1.46812e-06
1.46811e-06
1.46812e-06
1.46812e-06
1.46814e-06
1.46813e-06
1.46817e-06
1.46817e-06
1.46823e-06
1.46825e-06
1.46835e-06
1.46842e-06
1.46859e-06
1.46873e-06
1.46902e-06
1.46923e-06
1.4696e-06
1.46949e-06
1.46955e-06
1.46856e-06
1.46696e-06
1.4637e-06
1.44546e-06
1.44855e-06
1.44998e-06
1.4509e-06
1.45082e-06
1.4509e-06
1.45053e-06
1.45032e-06
1.45004e-06
1.4499e-06
1.44973e-06
1.44966e-06
1.44956e-06
1.44954e-06
1.44948e-06
1.44948e-06
1.44944e-06
1.44945e-06
1.44943e-06
1.44944e-06
1.44942e-06
1.44943e-06
1.44942e-06
1.44943e-06
1.44942e-06
1.44942e-06
1.44943e-06
1.44942e-06
1.44943e-06
1.44942e-06
1.44944e-06
1.44943e-06
1.44945e-06
1.44944e-06
1.44948e-06
1.44948e-06
1.44954e-06
1.44956e-06
1.44966e-06
1.44973e-06
1.4499e-06
1.45004e-06
1.45031e-06
1.45053e-06
1.45089e-06
1.45082e-06
1.4509e-06
1.44998e-06
1.44855e-06
1.44546e-06
1.43133e-06
1.43134e-06
1.43133e-06
1.43133e-06
1.43132e-06
1.43133e-06
1.43132e-06
1.43132e-06
1.43133e-06
1.43132e-06
1.43133e-06
1.43133e-06
1.43134e-06
1.43133e-06
1.43135e-06
1.43135e-06
1.43138e-06
1.43138e-06
1.43144e-06
1.43146e-06
1.43156e-06
1.43162e-06
1.43179e-06
1.43192e-06
1.4322e-06
1.43241e-06
1.43277e-06
1.43273e-06
1.43283e-06
1.43197e-06
1.4307e-06
1.42778e-06
1.4138e-06
1.41379e-06
1.4138e-06
1.4138e-06
1.41382e-06
1.41381e-06
1.41384e-06
1.41384e-06
1.4139e-06
1.41392e-06
1.41402e-06
1.41408e-06
1.41424e-06
1.41438e-06
1.41464e-06
1.41486e-06
1.41521e-06
1.4152e-06
1.41532e-06
1.41453e-06
1.4134e-06
1.41065e-06
1.39724e-06
1.39737e-06
1.39763e-06
1.39784e-06
1.39819e-06
1.39822e-06
1.39836e-06
1.39763e-06
1.39663e-06
1.39405e-06
)
;

boundaryField
{
    fuel
    {
        type            fixedValue;
        value           nonuniform 0();
    }
    wall
    {
        type            zeroGradient;
    }
    outlet
    {
        type            zeroGradient;
    }
    frontAndBack
    {
        type            empty;
    }
    procBoundary0to1
    {
        type            processor;
        value           nonuniform List<scalar> 
50
(
2.84883e-06
2.86242e-06
2.87531e-06
2.88196e-06
2.88453e-06
2.88599e-06
2.88562e-06
2.88582e-06
2.8853e-06
2.88536e-06
2.88502e-06
2.88508e-06
2.88487e-06
2.88493e-06
2.88479e-06
2.88485e-06
2.88476e-06
2.88481e-06
2.88475e-06
2.88479e-06
2.88475e-06
2.88477e-06
2.88475e-06
2.88476e-06
2.88475e-06
2.88475e-06
2.88476e-06
2.88475e-06
2.88477e-06
2.88475e-06
2.88479e-06
2.88475e-06
2.88481e-06
2.88476e-06
2.88485e-06
2.88479e-06
2.88493e-06
2.88487e-06
2.88508e-06
2.88502e-06
2.88536e-06
2.8853e-06
2.88582e-06
2.88562e-06
2.88598e-06
2.88453e-06
2.88196e-06
2.87531e-06
2.86242e-06
2.84883e-06
)
;
    }
    procBoundary0to2
    {
        type            processor;
        value           nonuniform List<scalar> 
53
(
1.42778e-06
1.4307e-06
1.43197e-06
1.43283e-06
1.43273e-06
1.43277e-06
1.43241e-06
1.4322e-06
1.43192e-06
1.43179e-06
1.43162e-06
1.43156e-06
1.43146e-06
1.43144e-06
1.43138e-06
1.43138e-06
1.43135e-06
1.43135e-06
1.43135e-06
1.4138e-06
1.4138e-06
1.41379e-06
1.4138e-06
1.41379e-06
1.41379e-06
1.41379e-06
1.41379e-06
1.41379e-06
1.41379e-06
1.41379e-06
1.3968e-06
1.3968e-06
1.39681e-06
1.3968e-06
1.39682e-06
1.39682e-06
1.39685e-06
1.39685e-06
1.3969e-06
1.39693e-06
1.39702e-06
1.39708e-06
1.39708e-06
1.38075e-06
1.38089e-06
1.38114e-06
1.38135e-06
1.3817e-06
1.38175e-06
1.38191e-06
1.38124e-06
1.38037e-06
1.37795e-06
)
;
    }
}


// ************************************************************************* //
