/*--------------------------------*- C++ -*----------------------------------*\
| =========                 |                                                 |
| \\      /  F ield         | OpenFOAM: The Open Source CFD Toolbox           |
|  \\    /   O peration     | Version:  dev                                   |
|   \\  /    A nd           | Web:      www.OpenFOAM.org                      |
|    \\/     M anipulation  |                                                 |
\*---------------------------------------------------------------------------*/
FoamFile
{
    version     2.0;
    format      ascii;
    class       volScalarField;
    location    "0.085";
    object      H2O2;
}
// * * * * * * * * * * * * * * * * * * * * * * * * * * * * * * * * * * * * * //

dimensions      [0 0 0 0 0 0 0];

internalField   nonuniform List<scalar> 
250
(
4.65394e-11
4.7458e-11
4.62454e-11
4.74594e-11
4.67525e-11
4.77498e-11
4.79633e-11
4.33819e-11
3.51589e-11
2.30993e-11
4.29313e-11
4.39327e-11
4.26733e-11
4.3916e-11
4.31927e-11
4.42111e-11
4.4543e-11
4.01836e-11
3.31811e-11
2.27165e-11
3.16741e-10
3.02479e-11
3.85281e-11
3.85455e-11
4.04249e-11
3.9494e-11
3.99536e-11
3.97646e-11
3.98629e-11
4.00343e-11
3.92158e-11
4.0261e-11
3.89822e-11
4.02302e-11
3.94979e-11
4.05161e-11
4.0957e-11
3.69013e-11
3.09475e-11
2.21012e-11
2.3896e-10
2.73209e-11
3.53464e-11
3.48672e-11
3.663e-11
3.56603e-11
3.61278e-11
3.59193e-11
3.60321e-11
3.62077e-11
3.5411e-11
3.64677e-11
3.51933e-11
3.64278e-11
3.56956e-11
3.66871e-11
3.72299e-11
3.35763e-11
2.85155e-11
2.11273e-11
1.77702e-10
2.4529e-11
3.2037e-11
3.11425e-11
3.27781e-11
3.17777e-11
3.2254e-11
3.2027e-11
3.21574e-11
3.23183e-11
3.15467e-11
3.25931e-11
3.13423e-11
3.25493e-11
3.18329e-11
3.276e-11
3.34046e-11
3.00327e-11
2.59645e-11
1.98022e-11
1.30526e-10
2.17844e-11
2.86322e-11
2.72086e-11
2.8949e-11
2.79432e-11
2.84177e-11
2.81728e-11
2.8303e-11
2.84238e-11
2.76654e-11
2.86946e-11
2.74752e-11
2.86523e-11
2.80023e-11
2.87856e-11
2.95467e-11
2.65925e-11
2.33259e-11
1.81916e-11
9.44201e-11
1.9084e-11
2.51949e-11
2.35036e-11
2.48111e-11
2.39019e-11
2.42874e-11
2.40675e-11
2.41321e-11
2.42105e-11
2.38274e-11
2.44886e-11
2.36514e-11
2.44263e-11
2.39549e-11
2.48276e-11
2.53683e-11
2.31377e-11
2.06445e-11
1.6377e-11
6.60814e-11
1.64458e-11
2.17363e-11
1.99107e-11
2.10988e-11
2.02406e-11
2.05974e-11
2.0375e-11
2.04261e-11
2.04496e-11
2.01181e-11
2.06955e-11
1.99542e-11
2.06345e-11
2.02652e-11
2.0971e-11
2.15564e-11
1.97452e-11
1.79622e-11
1.44391e-11
4.95734e-11
1.39022e-11
1.83937e-11
1.64996e-11
1.75397e-11
1.67372e-11
1.70663e-11
1.68486e-11
1.69051e-11
1.68875e-11
1.66174e-11
1.70914e-11
1.64626e-11
1.70295e-11
1.67245e-11
1.73026e-11
1.78878e-11
1.64818e-11
1.53237e-11
1.24548e-11
3.48882e-11
1.14203e-11
1.5029e-11
1.33467e-11
1.42254e-11
1.35036e-11
1.3793e-11
1.35892e-11
1.36492e-11
1.3605e-11
1.33985e-11
1.37622e-11
1.3252e-11
1.36979e-11
1.34514e-11
1.39121e-11
1.4462e-11
1.34188e-11
1.27802e-11
1.04969e-11
2.55316e-11
9.2015e-12
1.20768e-11
1.05224e-11
1.12403e-11
1.06174e-11
1.0861e-11
1.06783e-11
1.07348e-11
1.06743e-11
1.05263e-11
1.07851e-11
1.03894e-11
1.07184e-11
1.05288e-11
1.08801e-11
1.13714e-11
1.06308e-11
1.03886e-11
8.63024e-12
1.86124e-11
7.22654e-12
9.45508e-12
8.07718e-12
8.64438e-12
8.12826e-12
8.32549e-12
8.16846e-12
8.21721e-12
8.14857e-12
8.04909e-12
8.21711e-12
7.92403e-12
8.14961e-12
8.01206e-12
8.26649e-12
8.68591e-12
8.18564e-12
8.1786e-12
6.8743e-12
1.34783e-11
5.52874e-12
7.18865e-12
6.03659e-12
6.46821e-12
6.05856e-12
6.21193e-12
6.0828e-12
6.12238e-12
6.05303e-12
5.99008e-12
6.08697e-12
5.87963e-12
6.02118e-12
5.92739e-12
6.1017e-12
6.44432e-12
6.12615e-12
6.24098e-12
5.2527e-12
4.34355e-12
4.39071e-12
4.25006e-12
4.32971e-12
4.2695e-12
4.38235e-12
4.64994e-12
4.46184e-12
4.62443e-12
3.99649e-12
)
;

boundaryField
{
    fuel
    {
        type            fixedValue;
        value           nonuniform 0();
    }
    wall
    {
        type            zeroGradient;
    }
    outlet
    {
        type            zeroGradient;
    }
    frontAndBack
    {
        type            empty;
    }
    procBoundary0to1
    {
        type            processor;
        value           nonuniform List<scalar> 
21
(
9.68669e-12
4.12164e-12
5.31043e-12
4.39568e-12
4.71367e-12
4.40078e-12
4.51603e-12
4.41408e-12
4.44506e-12
4.38134e-12
4.38134e-12
3.07644e-12
3.09352e-12
3.00114e-12
3.04003e-12
3.00354e-12
3.07252e-12
3.27284e-12
3.17021e-12
3.34145e-12
2.99213e-12
)
;
    }
    procBoundary0to2
    {
        type            processor;
        value           nonuniform List<scalar> 
12
(
4.73417e-11
4.12172e-10
3.32199e-11
4.15776e-11
4.21317e-11
4.41143e-11
4.32215e-11
4.36777e-11
4.35064e-11
4.35998e-11
4.37552e-11
4.37552e-11
)
;
    }
    procBoundary0to3
    {
        type            processor;
        value           nonuniform List<scalar> 10(5.00209e-11 5.08228e-11 4.9762e-11 5.08436e-11 5.01612e-11 5.11182e-11 5.12094e-11 4.64556e-11 3.68041e-11 2.36321e-11);
    }
}


// ************************************************************************* //
