/*--------------------------------*- C++ -*----------------------------------*\
| =========                 |                                                 |
| \\      /  F ield         | OpenFOAM: The Open Source CFD Toolbox           |
|  \\    /   O peration     | Version:  dev                                   |
|   \\  /    A nd           | Web:      www.OpenFOAM.org                      |
|    \\/     M anipulation  |                                                 |
\*---------------------------------------------------------------------------*/
FoamFile
{
    version     2.0;
    format      ascii;
    class       volScalarField;
    location    "0.085";
    object      HCCOH;
}
// * * * * * * * * * * * * * * * * * * * * * * * * * * * * * * * * * * * * * //

dimensions      [0 0 0 0 0 0 0];

internalField   nonuniform List<scalar> 
250
(
6.33353e-06
6.32639e-06
6.3425e-06
6.36291e-06
6.36087e-06
6.42033e-06
6.57237e-06
7.01022e-06
7.74884e-06
6.96375e-06
6.05248e-06
6.04889e-06
6.06423e-06
6.08553e-06
6.08223e-06
6.14033e-06
6.29025e-06
6.73158e-06
7.56611e-06
7.05962e-06
4.94312e-06
5.77438e-06
6.22515e-06
5.83341e-06
5.86103e-06
5.75911e-06
5.76832e-06
5.74148e-06
5.75129e-06
5.73858e-06
5.77142e-06
5.77174e-06
5.78484e-06
5.8082e-06
5.8026e-06
5.85977e-06
6.0065e-06
6.44328e-06
7.35182e-06
7.05263e-06
4.88642e-06
5.51702e-06
5.93211e-06
5.55095e-06
5.5789e-06
5.47723e-06
5.48661e-06
5.45838e-06
5.47e-06
5.45813e-06
5.4871e-06
5.49224e-06
5.50114e-06
5.52835e-06
5.51956e-06
5.57606e-06
5.71885e-06
6.14295e-06
7.10332e-06
6.94841e-06
4.82916e-06
5.25575e-06
5.63286e-06
5.2628e-06
5.29223e-06
5.19044e-06
5.20095e-06
5.17142e-06
5.18459e-06
5.17294e-06
5.19631e-06
5.20772e-06
5.21033e-06
5.2434e-06
5.23116e-06
5.28657e-06
5.42531e-06
5.82064e-06
6.81259e-06
6.75748e-06
4.75445e-06
4.98121e-06
5.32502e-06
4.95316e-06
4.99984e-06
4.89863e-06
4.91031e-06
4.87955e-06
4.89309e-06
4.88083e-06
4.89624e-06
4.91598e-06
4.90984e-06
4.95124e-06
4.93751e-06
4.98871e-06
5.12454e-06
5.49082e-06
6.4823e-06
6.48956e-06
4.64394e-06
4.69053e-06
5.00734e-06
4.64358e-06
4.67457e-06
4.57805e-06
4.58745e-06
4.55795e-06
4.56861e-06
4.55647e-06
4.58471e-06
4.59354e-06
4.59753e-06
4.62675e-06
4.61515e-06
4.67998e-06
4.79189e-06
5.14045e-06
6.11181e-06
6.15436e-06
4.47572e-06
4.38181e-06
4.67333e-06
4.32048e-06
4.35693e-06
4.26197e-06
4.27276e-06
4.24272e-06
4.25303e-06
4.24016e-06
4.26077e-06
4.27738e-06
4.27246e-06
4.30974e-06
4.29699e-06
4.35878e-06
4.46508e-06
4.77076e-06
5.70293e-06
5.76214e-06
4.30209e-06
4.05288e-06
4.32664e-06
3.98256e-06
4.02309e-06
3.92884e-06
3.94193e-06
3.91161e-06
3.92269e-06
3.90983e-06
3.92363e-06
3.94713e-06
3.93386e-06
3.97835e-06
3.9619e-06
4.02363e-06
4.1226e-06
4.38274e-06
5.25939e-06
5.32368e-06
4.03035e-06
3.69766e-06
3.94898e-06
3.62975e-06
3.67327e-06
3.5806e-06
3.59569e-06
3.5655e-06
3.57749e-06
3.56534e-06
3.5731e-06
3.60261e-06
3.58168e-06
3.6324e-06
3.61192e-06
3.67406e-06
3.76474e-06
3.97854e-06
4.78656e-06
4.84991e-06
3.74474e-06
3.33379e-06
3.56964e-06
3.26343e-06
3.30895e-06
3.21905e-06
3.23571e-06
3.20606e-06
3.2186e-06
3.20754e-06
3.21017e-06
3.24459e-06
3.21705e-06
3.27265e-06
3.2487e-06
3.31073e-06
3.3927e-06
3.56176e-06
4.29104e-06
4.3506e-06
3.41189e-06
2.95722e-06
3.17855e-06
2.88635e-06
2.9328e-06
2.84693e-06
2.86471e-06
2.83603e-06
2.84873e-06
2.83885e-06
2.83731e-06
2.87533e-06
2.84256e-06
2.90131e-06
2.87478e-06
2.93575e-06
3.00894e-06
3.13734e-06
3.77553e-06
3.82748e-06
3.03911e-06
2.5727e-06
2.77679e-06
2.50298e-06
2.54904e-06
2.46859e-06
2.48692e-06
2.45966e-06
2.47219e-06
2.46349e-06
2.4588e-06
2.49886e-06
2.46254e-06
2.5224e-06
2.49435e-06
2.55305e-06
2.61756e-06
2.71114e-06
3.2577e-06
3.27818e-06
2.08089e-06
2.12131e-06
2.08331e-06
2.14204e-06
2.11363e-06
2.16871e-06
2.22462e-06
2.29001e-06
2.74899e-06
2.77096e-06
)
;

boundaryField
{
    fuel
    {
        type            fixedValue;
        value           nonuniform 0();
    }
    wall
    {
        type            zeroGradient;
    }
    outlet
    {
        type            zeroGradient;
    }
    frontAndBack
    {
        type            empty;
    }
    procBoundary0to1
    {
        type            processor;
        value           nonuniform List<scalar> 
21
(
2.63926e-06
2.186e-06
2.37132e-06
2.1194e-06
2.16433e-06
2.09023e-06
2.10864e-06
2.08318e-06
2.09527e-06
2.08767e-06
2.08767e-06
1.71197e-06
1.75097e-06
1.7134e-06
1.76857e-06
1.74119e-06
1.791e-06
1.83866e-06
1.88215e-06
2.26113e-06
2.28176e-06
)
;
    }
    procBoundary0to2
    {
        type            processor;
        value           nonuniform List<scalar> 
12
(
6.29601e-06
5.0285e-06
6.02293e-06
6.51635e-06
6.11231e-06
6.14122e-06
6.03785e-06
6.04841e-06
6.02275e-06
6.03106e-06
6.01703e-06
6.01703e-06
)
;
    }
    procBoundary0to3
    {
        type            processor;
        value           nonuniform List<scalar> 10(6.61725e-06 6.60709e-06 6.62812e-06 6.64291e-06 6.64134e-06 6.70224e-06 6.85557e-06 7.28015e-06 7.89888e-06 6.74958e-06);
    }
}


// ************************************************************************* //
