/*--------------------------------*- C++ -*----------------------------------*\
| =========                 |                                                 |
| \\      /  F ield         | OpenFOAM: The Open Source CFD Toolbox           |
|  \\    /   O peration     | Version:  dev                                   |
|   \\  /    A nd           | Web:      www.OpenFOAM.org                      |
|    \\/     M anipulation  |                                                 |
\*---------------------------------------------------------------------------*/
FoamFile
{
    version     2.0;
    format      ascii;
    class       volScalarField;
    location    "0.085";
    object      HCCO;
}
// * * * * * * * * * * * * * * * * * * * * * * * * * * * * * * * * * * * * * //

dimensions      [0 0 0 0 0 0 0];

internalField   nonuniform List<scalar> 
2014
(
1.15149e-06
1.15657e-06
1.16163e-06
1.1643e-06
1.16544e-06
1.16604e-06
1.16596e-06
1.16601e-06
1.16581e-06
1.16579e-06
1.16566e-06
1.16565e-06
1.16556e-06
1.16556e-06
1.16551e-06
1.16551e-06
1.16548e-06
1.16549e-06
1.16547e-06
1.16548e-06
1.16546e-06
1.16547e-06
1.16546e-06
1.16546e-06
1.16546e-06
1.16546e-06
1.16546e-06
1.16546e-06
1.16547e-06
1.16546e-06
1.16548e-06
1.16547e-06
1.16549e-06
1.16548e-06
1.16551e-06
1.16551e-06
1.16556e-06
1.16556e-06
1.16565e-06
1.16566e-06
1.16579e-06
1.16581e-06
1.16601e-06
1.16596e-06
1.16604e-06
1.16544e-06
1.1643e-06
1.16163e-06
1.15657e-06
1.15149e-06
1.1319e-06
1.13685e-06
1.14176e-06
1.14434e-06
1.14544e-06
1.14601e-06
1.14593e-06
1.14596e-06
1.14577e-06
1.14574e-06
1.1456e-06
1.14559e-06
1.1455e-06
1.1455e-06
1.14545e-06
1.14545e-06
1.14542e-06
1.14543e-06
1.14541e-06
1.14542e-06
1.1454e-06
1.14541e-06
1.1454e-06
1.1454e-06
1.1454e-06
1.1454e-06
1.1454e-06
1.1454e-06
1.14541e-06
1.1454e-06
1.14542e-06
1.14541e-06
1.14543e-06
1.14542e-06
1.14545e-06
1.14545e-06
1.1455e-06
1.1455e-06
1.14559e-06
1.1456e-06
1.14574e-06
1.14577e-06
1.14596e-06
1.14593e-06
1.14601e-06
1.14544e-06
1.14434e-06
1.14175e-06
1.13685e-06
1.1319e-06
1.11293e-06
1.11777e-06
1.12252e-06
1.12501e-06
1.12607e-06
1.12662e-06
1.12652e-06
1.12655e-06
1.12635e-06
1.12632e-06
1.12618e-06
1.12617e-06
1.12608e-06
1.12608e-06
1.12602e-06
1.12603e-06
1.12599e-06
1.126e-06
1.12598e-06
1.12599e-06
1.12597e-06
1.12598e-06
1.12597e-06
1.12597e-06
1.12597e-06
1.12597e-06
1.12597e-06
1.12597e-06
1.12598e-06
1.12597e-06
1.12599e-06
1.12598e-06
1.126e-06
1.12599e-06
1.12603e-06
1.12602e-06
1.12608e-06
1.12608e-06
1.12617e-06
1.12618e-06
1.12632e-06
1.12635e-06
1.12655e-06
1.12652e-06
1.12662e-06
1.12607e-06
1.12501e-06
1.12251e-06
1.11777e-06
1.11293e-06
1.0945e-06
1.09925e-06
1.10382e-06
1.10623e-06
1.10724e-06
1.10777e-06
1.10767e-06
1.10768e-06
1.10748e-06
1.10745e-06
1.10731e-06
1.10729e-06
1.1072e-06
1.1072e-06
1.10714e-06
1.10714e-06
1.10711e-06
1.10712e-06
1.1071e-06
1.1071e-06
1.10709e-06
1.10709e-06
1.10709e-06
1.10709e-06
1.10709e-06
1.10709e-06
1.10709e-06
1.10709e-06
1.10709e-06
1.10709e-06
1.1071e-06
1.1071e-06
1.10712e-06
1.10711e-06
1.10714e-06
1.10714e-06
1.1072e-06
1.1072e-06
1.10729e-06
1.10731e-06
1.10745e-06
1.10748e-06
1.10768e-06
1.10767e-06
1.10777e-06
1.10724e-06
1.10623e-06
1.10382e-06
1.09925e-06
1.0945e-06
1.07654e-06
1.0812e-06
1.08562e-06
1.08793e-06
1.0889e-06
1.0894e-06
1.08929e-06
1.0893e-06
1.08909e-06
1.08905e-06
1.08891e-06
1.08889e-06
1.0888e-06
1.08879e-06
1.08874e-06
1.08874e-06
1.08871e-06
1.08871e-06
1.08869e-06
1.0887e-06
1.08869e-06
1.08869e-06
1.08868e-06
1.08868e-06
1.08868e-06
1.08868e-06
1.08868e-06
1.08868e-06
1.08869e-06
1.08869e-06
1.0887e-06
1.08869e-06
1.08871e-06
1.08871e-06
1.08874e-06
1.08874e-06
1.08879e-06
1.0888e-06
1.08889e-06
1.08891e-06
1.08905e-06
1.08909e-06
1.0893e-06
1.08929e-06
1.0894e-06
1.0889e-06
1.08793e-06
1.08562e-06
1.0812e-06
1.07654e-06
1.059e-06
1.06358e-06
1.06784e-06
1.07006e-06
1.07098e-06
1.07145e-06
1.07133e-06
1.07133e-06
1.07113e-06
1.07108e-06
1.07094e-06
1.07091e-06
1.07082e-06
1.07081e-06
1.07076e-06
1.07076e-06
1.07073e-06
1.07073e-06
1.07071e-06
1.07072e-06
1.0707e-06
1.07071e-06
1.0707e-06
1.0707e-06
1.0707e-06
1.0707e-06
1.0707e-06
1.0707e-06
1.07071e-06
1.0707e-06
1.07072e-06
1.07071e-06
1.07073e-06
1.07073e-06
1.07076e-06
1.07076e-06
1.07081e-06
1.07082e-06
1.07091e-06
1.07094e-06
1.07108e-06
1.07113e-06
1.07133e-06
1.07133e-06
1.07145e-06
1.07098e-06
1.07006e-06
1.06784e-06
1.06358e-06
1.059e-06
1.04184e-06
1.04633e-06
1.05044e-06
1.05256e-06
1.05344e-06
1.05388e-06
1.05375e-06
1.05374e-06
1.05353e-06
1.05348e-06
1.05334e-06
1.05331e-06
1.05322e-06
1.05321e-06
1.05315e-06
1.05315e-06
1.05312e-06
1.05312e-06
1.0531e-06
1.05311e-06
1.05309e-06
1.0531e-06
1.05309e-06
1.05309e-06
1.05309e-06
1.05309e-06
1.05309e-06
1.05309e-06
1.0531e-06
1.05309e-06
1.05311e-06
1.0531e-06
1.05312e-06
1.05312e-06
1.05315e-06
1.05315e-06
1.05321e-06
1.05322e-06
1.05331e-06
1.05334e-06
1.05348e-06
1.05353e-06
1.05374e-06
1.05375e-06
1.05388e-06
1.05344e-06
1.05256e-06
1.05043e-06
1.04633e-06
1.04184e-06
1.025e-06
1.02941e-06
1.03336e-06
1.0354e-06
1.03623e-06
1.03664e-06
1.0365e-06
1.03648e-06
1.03627e-06
1.03621e-06
1.03607e-06
1.03603e-06
1.03594e-06
1.03593e-06
1.03588e-06
1.03587e-06
1.03584e-06
1.03585e-06
1.03583e-06
1.03583e-06
1.03582e-06
1.03582e-06
1.03581e-06
1.03581e-06
1.03581e-06
1.03581e-06
1.03581e-06
1.03581e-06
1.03582e-06
1.03582e-06
1.03583e-06
1.03582e-06
1.03585e-06
1.03584e-06
1.03587e-06
1.03588e-06
1.03593e-06
1.03594e-06
1.03603e-06
1.03607e-06
1.03621e-06
1.03627e-06
1.03648e-06
1.0365e-06
1.03664e-06
1.03622e-06
1.0354e-06
1.03336e-06
1.02941e-06
1.025e-06
1.00847e-06
1.0128e-06
1.01659e-06
1.01854e-06
1.01931e-06
1.0197e-06
1.01955e-06
1.01952e-06
1.0193e-06
1.01924e-06
1.01909e-06
1.01906e-06
1.01897e-06
1.01895e-06
1.0189e-06
1.0189e-06
1.01886e-06
1.01887e-06
1.01885e-06
1.01885e-06
1.01884e-06
1.01884e-06
1.01883e-06
1.01883e-06
1.01883e-06
1.01883e-06
1.01883e-06
1.01883e-06
1.01884e-06
1.01884e-06
1.01885e-06
1.01885e-06
1.01887e-06
1.01886e-06
1.0189e-06
1.0189e-06
1.01895e-06
1.01897e-06
1.01906e-06
1.01909e-06
1.01924e-06
1.0193e-06
1.01952e-06
1.01955e-06
1.0197e-06
1.01931e-06
1.01854e-06
1.01659e-06
1.0128e-06
1.00847e-06
9.92212e-07
9.96449e-07
1.00008e-06
1.00195e-06
1.00267e-06
1.00303e-06
1.00287e-06
1.00282e-06
1.00261e-06
1.00254e-06
1.00239e-06
1.00235e-06
1.00226e-06
1.00224e-06
1.00219e-06
1.00218e-06
1.00215e-06
1.00215e-06
1.00213e-06
1.00214e-06
1.00212e-06
1.00213e-06
1.00212e-06
1.00212e-06
1.00212e-06
1.00212e-06
1.00212e-06
1.00212e-06
1.00213e-06
1.00212e-06
1.00214e-06
1.00213e-06
1.00215e-06
1.00215e-06
1.00218e-06
1.00219e-06
1.00224e-06
1.00226e-06
1.00235e-06
1.00239e-06
1.00254e-06
1.00261e-06
1.00282e-06
1.00287e-06
1.00303e-06
1.00267e-06
1.00194e-06
1.00008e-06
9.96449e-07
9.92211e-07
9.76196e-07
9.80341e-07
9.83818e-07
9.85596e-07
9.86272e-07
9.86604e-07
9.86428e-07
9.86372e-07
9.86151e-07
9.86076e-07
9.85928e-07
9.85886e-07
9.85793e-07
9.85775e-07
9.85719e-07
9.85715e-07
9.85681e-07
9.85684e-07
9.85664e-07
9.85667e-07
9.85654e-07
9.85657e-07
9.85649e-07
9.85651e-07
9.85649e-07
9.85649e-07
9.85651e-07
9.85649e-07
9.85657e-07
9.85654e-07
9.85667e-07
9.85663e-07
9.85684e-07
9.85681e-07
9.85715e-07
9.85719e-07
9.85775e-07
9.85793e-07
9.85886e-07
9.85928e-07
9.86076e-07
9.86151e-07
9.86372e-07
9.86427e-07
9.86603e-07
9.86271e-07
9.85595e-07
9.83817e-07
9.80341e-07
9.76196e-07
9.60405e-07
9.64449e-07
9.67773e-07
9.69467e-07
9.70092e-07
9.70394e-07
9.70206e-07
9.70139e-07
9.69914e-07
9.69834e-07
9.69684e-07
9.69639e-07
9.69545e-07
9.69526e-07
9.69469e-07
9.69464e-07
9.6943e-07
9.69433e-07
9.69412e-07
9.69415e-07
9.69402e-07
9.69405e-07
9.69397e-07
9.69399e-07
9.69396e-07
9.69396e-07
9.69399e-07
9.69397e-07
9.69405e-07
9.69402e-07
9.69415e-07
9.69412e-07
9.69433e-07
9.6943e-07
9.69464e-07
9.69469e-07
9.69526e-07
9.69546e-07
9.69639e-07
9.69684e-07
9.69834e-07
9.69914e-07
9.70139e-07
9.70205e-07
9.70393e-07
9.70092e-07
9.69466e-07
9.67772e-07
9.64449e-07
9.60404e-07
9.44818e-07
9.48752e-07
9.51926e-07
9.53538e-07
9.54113e-07
9.54383e-07
9.54182e-07
9.54104e-07
9.53876e-07
9.5379e-07
9.53638e-07
9.5359e-07
9.53496e-07
9.53474e-07
9.53417e-07
9.53412e-07
9.53377e-07
9.53379e-07
9.53359e-07
9.53362e-07
9.53348e-07
9.53351e-07
9.53343e-07
9.53345e-07
9.53343e-07
9.53343e-07
9.53345e-07
9.53343e-07
9.53351e-07
9.53348e-07
9.53362e-07
9.53358e-07
9.53379e-07
9.53377e-07
9.53412e-07
9.53417e-07
9.53474e-07
9.53496e-07
9.5359e-07
9.53638e-07
9.5379e-07
9.53875e-07
9.54104e-07
9.54181e-07
9.54382e-07
9.54112e-07
9.53537e-07
9.51925e-07
9.48752e-07
9.44817e-07
9.29416e-07
9.33232e-07
9.36259e-07
9.37791e-07
9.38313e-07
9.38553e-07
9.38338e-07
9.38249e-07
9.38017e-07
9.37926e-07
9.37772e-07
9.37721e-07
9.37626e-07
9.37603e-07
9.37545e-07
9.37539e-07
9.37504e-07
9.37506e-07
9.37485e-07
9.37488e-07
9.37474e-07
9.37477e-07
9.37469e-07
9.37471e-07
9.37468e-07
9.37468e-07
9.37471e-07
9.37469e-07
9.37477e-07
9.37474e-07
9.37488e-07
9.37485e-07
9.37506e-07
9.37504e-07
9.37539e-07
9.37546e-07
9.37603e-07
9.37626e-07
9.37721e-07
9.37772e-07
9.37926e-07
9.38016e-07
9.38249e-07
9.38337e-07
9.38552e-07
9.38312e-07
9.3779e-07
9.36257e-07
9.33232e-07
9.29415e-07
9.1418e-07
9.17872e-07
9.20754e-07
9.22208e-07
9.22677e-07
9.22885e-07
9.22657e-07
9.22557e-07
9.22321e-07
9.22225e-07
9.22069e-07
9.22015e-07
9.21919e-07
9.21894e-07
9.21836e-07
9.21829e-07
9.21794e-07
9.21795e-07
9.21774e-07
9.21777e-07
9.21763e-07
9.21765e-07
9.21758e-07
9.21759e-07
9.21757e-07
9.21757e-07
9.21759e-07
9.21758e-07
9.21765e-07
9.21763e-07
9.21777e-07
9.21774e-07
9.21795e-07
9.21794e-07
9.21829e-07
9.21836e-07
9.21894e-07
9.21919e-07
9.22015e-07
9.22069e-07
9.22224e-07
9.2232e-07
9.22557e-07
9.22656e-07
9.22884e-07
9.22676e-07
9.22207e-07
9.20753e-07
9.17872e-07
9.14179e-07
8.99096e-07
9.02658e-07
9.05397e-07
9.06775e-07
9.07189e-07
9.07366e-07
9.07124e-07
9.07013e-07
9.06772e-07
9.06671e-07
9.06513e-07
9.06456e-07
9.06359e-07
9.06333e-07
9.06275e-07
9.06266e-07
9.06231e-07
9.06232e-07
9.06211e-07
9.06213e-07
9.062e-07
9.06202e-07
9.06194e-07
9.06196e-07
9.06193e-07
9.06193e-07
9.06196e-07
9.06194e-07
9.06202e-07
9.062e-07
9.06213e-07
9.06211e-07
9.06232e-07
9.06231e-07
9.06267e-07
9.06275e-07
9.06333e-07
9.06359e-07
9.06456e-07
9.06513e-07
9.0667e-07
9.06772e-07
9.07012e-07
9.07123e-07
9.07365e-07
9.07188e-07
9.06774e-07
9.05396e-07
9.02658e-07
8.99095e-07
8.84146e-07
8.87575e-07
8.90173e-07
8.91475e-07
8.91835e-07
8.9198e-07
8.91723e-07
8.91601e-07
8.91356e-07
8.9125e-07
8.9109e-07
8.9103e-07
8.90933e-07
8.90905e-07
8.90846e-07
8.90837e-07
8.90802e-07
8.90802e-07
8.90781e-07
8.90783e-07
8.90769e-07
8.90771e-07
8.90764e-07
8.90765e-07
8.90763e-07
8.90763e-07
8.90765e-07
8.90764e-07
8.90771e-07
8.90769e-07
8.90783e-07
8.90781e-07
8.90802e-07
8.90802e-07
8.90837e-07
8.90846e-07
8.90905e-07
8.90933e-07
8.9103e-07
8.9109e-07
8.9125e-07
8.91356e-07
8.91601e-07
8.91723e-07
8.91979e-07
8.91834e-07
8.91474e-07
8.90172e-07
8.87575e-07
8.84145e-07
8.69317e-07
8.72611e-07
8.75068e-07
8.76296e-07
8.76601e-07
8.76713e-07
8.76443e-07
8.7631e-07
8.7606e-07
8.75948e-07
8.75787e-07
8.75725e-07
8.75626e-07
8.75597e-07
8.75537e-07
8.75528e-07
8.75492e-07
8.75492e-07
8.7547e-07
8.75472e-07
8.75459e-07
8.7546e-07
8.75453e-07
8.75454e-07
8.75452e-07
8.75452e-07
8.75454e-07
8.75453e-07
8.7546e-07
8.75459e-07
8.75472e-07
8.7547e-07
8.75492e-07
8.75492e-07
8.75528e-07
8.75538e-07
8.75597e-07
8.75626e-07
8.75724e-07
8.75787e-07
8.75948e-07
8.7606e-07
8.76309e-07
8.76442e-07
8.76713e-07
8.766e-07
8.76295e-07
8.75067e-07
8.72611e-07
8.69316e-07
8.54594e-07
8.57753e-07
8.60072e-07
8.61225e-07
8.61475e-07
8.61554e-07
8.61269e-07
8.61125e-07
8.60871e-07
8.60754e-07
8.60591e-07
8.60526e-07
8.60426e-07
8.60395e-07
8.60336e-07
8.60325e-07
8.60289e-07
8.60288e-07
8.60267e-07
8.60268e-07
8.60255e-07
8.60257e-07
8.60249e-07
8.6025e-07
8.60248e-07
8.60248e-07
8.6025e-07
8.60249e-07
8.60256e-07
8.60255e-07
8.60268e-07
8.60267e-07
8.60288e-07
8.60289e-07
8.60325e-07
8.60336e-07
8.60395e-07
8.60426e-07
8.60525e-07
8.60591e-07
8.60754e-07
8.60871e-07
8.61124e-07
8.61269e-07
8.61553e-07
8.61474e-07
8.61224e-07
8.60071e-07
8.57753e-07
8.54593e-07
8.39964e-07
8.42986e-07
8.45174e-07
8.46249e-07
8.46445e-07
8.4649e-07
8.4619e-07
8.46034e-07
8.45777e-07
8.45654e-07
8.45489e-07
8.45421e-07
8.45321e-07
8.45289e-07
8.45229e-07
8.45217e-07
8.45181e-07
8.4518e-07
8.45158e-07
8.4516e-07
8.45146e-07
8.45148e-07
8.4514e-07
8.45141e-07
8.45139e-07
8.45139e-07
8.45141e-07
8.4514e-07
8.45148e-07
8.45146e-07
8.45159e-07
8.45158e-07
8.4518e-07
8.45181e-07
8.45217e-07
8.45229e-07
8.45289e-07
8.45321e-07
8.45421e-07
8.45489e-07
8.45654e-07
8.45776e-07
8.46034e-07
8.4619e-07
8.46489e-07
8.46444e-07
8.46247e-07
8.45173e-07
8.42985e-07
8.39963e-07
8.25415e-07
8.28304e-07
8.30358e-07
8.31356e-07
8.31498e-07
8.31508e-07
8.31194e-07
8.31027e-07
8.30765e-07
8.30638e-07
8.30471e-07
8.304e-07
8.30299e-07
8.30265e-07
8.30205e-07
8.30193e-07
8.30156e-07
8.30155e-07
8.30133e-07
8.30134e-07
8.30121e-07
8.30122e-07
8.30114e-07
8.30116e-07
8.30113e-07
8.30113e-07
8.30116e-07
8.30114e-07
8.30122e-07
8.3012e-07
8.30134e-07
8.30133e-07
8.30155e-07
8.30156e-07
8.30193e-07
8.30205e-07
8.30266e-07
8.30299e-07
8.304e-07
8.30471e-07
8.30638e-07
8.30765e-07
8.31026e-07
8.31194e-07
8.31507e-07
8.31498e-07
8.31355e-07
8.30357e-07
8.28303e-07
8.25414e-07
8.10934e-07
8.13696e-07
8.15611e-07
8.16535e-07
8.16624e-07
8.16598e-07
8.1627e-07
8.16091e-07
8.15825e-07
8.15693e-07
8.15524e-07
8.15451e-07
8.15349e-07
8.15314e-07
8.15253e-07
8.1524e-07
8.15203e-07
8.15201e-07
8.15179e-07
8.1518e-07
8.15167e-07
8.15168e-07
8.15161e-07
8.15162e-07
8.15159e-07
8.15159e-07
8.15162e-07
8.15161e-07
8.15168e-07
8.15167e-07
8.1518e-07
8.15179e-07
8.15201e-07
8.15203e-07
8.1524e-07
8.15253e-07
8.15314e-07
8.15349e-07
8.15451e-07
8.15524e-07
8.15692e-07
8.15825e-07
8.1609e-07
8.16269e-07
8.16597e-07
8.16623e-07
8.16534e-07
8.1561e-07
8.13695e-07
8.10933e-07
7.96512e-07
7.99149e-07
8.00923e-07
8.01774e-07
8.01811e-07
8.01748e-07
8.01406e-07
8.01215e-07
8.00945e-07
8.00808e-07
8.00638e-07
8.00562e-07
8.00459e-07
8.00423e-07
8.00362e-07
8.00348e-07
8.00311e-07
8.00309e-07
8.00287e-07
8.00287e-07
8.00274e-07
8.00275e-07
8.00268e-07
8.00269e-07
8.00266e-07
8.00266e-07
8.00269e-07
8.00268e-07
8.00275e-07
8.00274e-07
8.00287e-07
8.00287e-07
8.00309e-07
8.00311e-07
8.00348e-07
8.00362e-07
8.00423e-07
8.00459e-07
8.00562e-07
8.00638e-07
8.00808e-07
8.00945e-07
8.01215e-07
8.01405e-07
8.01747e-07
8.0181e-07
8.01773e-07
8.00922e-07
7.99149e-07
7.96511e-07
7.82136e-07
7.84653e-07
7.86283e-07
7.87063e-07
7.87048e-07
7.86947e-07
7.8659e-07
7.86389e-07
7.86115e-07
7.85973e-07
7.85801e-07
7.85723e-07
7.8562e-07
7.85582e-07
7.8552e-07
7.85506e-07
7.85469e-07
7.85466e-07
7.85444e-07
7.85444e-07
7.85431e-07
7.85432e-07
7.85425e-07
7.85426e-07
7.85423e-07
7.85423e-07
7.85426e-07
7.85425e-07
7.85432e-07
7.85431e-07
7.85444e-07
7.85444e-07
7.85466e-07
7.85469e-07
7.85506e-07
7.85521e-07
7.85582e-07
7.8562e-07
7.85723e-07
7.85801e-07
7.85973e-07
7.86115e-07
7.86388e-07
7.8659e-07
7.86946e-07
7.87047e-07
7.87062e-07
7.86281e-07
7.84652e-07
7.82135e-07
7.67796e-07
7.70194e-07
7.71678e-07
7.72389e-07
7.72323e-07
7.72184e-07
7.71813e-07
7.716e-07
7.71323e-07
7.71176e-07
7.71003e-07
7.70922e-07
7.70818e-07
7.70779e-07
7.70717e-07
7.70702e-07
7.70665e-07
7.70662e-07
7.7064e-07
7.7064e-07
7.70626e-07
7.70627e-07
7.7062e-07
7.70621e-07
7.70619e-07
7.70619e-07
7.70621e-07
7.7062e-07
7.70627e-07
7.70626e-07
7.7064e-07
7.7064e-07
7.70662e-07
7.70665e-07
7.70702e-07
7.70718e-07
7.7078e-07
7.70818e-07
7.70922e-07
7.71003e-07
7.71176e-07
7.71323e-07
7.716e-07
7.71812e-07
7.72183e-07
7.72322e-07
7.72388e-07
7.71676e-07
7.70193e-07
7.67795e-07
7.5397e-07
7.56269e-07
7.57607e-07
7.58259e-07
7.58142e-07
7.57964e-07
7.57579e-07
7.57356e-07
7.57074e-07
7.56923e-07
7.56748e-07
7.56665e-07
7.5656e-07
7.5652e-07
7.56458e-07
7.56442e-07
7.56405e-07
7.56401e-07
7.56379e-07
7.56379e-07
7.56365e-07
7.56366e-07
7.56359e-07
7.5636e-07
7.56357e-07
7.56357e-07
7.5636e-07
7.56359e-07
7.56366e-07
7.56365e-07
7.56379e-07
7.56379e-07
7.56401e-07
7.56405e-07
7.56442e-07
7.56458e-07
7.5652e-07
7.5656e-07
7.56665e-07
7.56748e-07
7.56923e-07
7.57074e-07
7.57355e-07
7.57578e-07
7.57963e-07
7.58141e-07
7.58257e-07
7.57606e-07
7.56268e-07
7.53968e-07
7.39984e-07
7.42197e-07
7.43347e-07
7.43913e-07
7.43712e-07
7.43471e-07
7.43052e-07
7.42809e-07
7.42514e-07
7.42354e-07
7.42172e-07
7.42085e-07
7.41976e-07
7.41934e-07
7.4187e-07
7.41853e-07
7.41814e-07
7.4181e-07
7.41787e-07
7.41787e-07
7.41773e-07
7.41774e-07
7.41766e-07
7.41767e-07
7.41765e-07
7.41765e-07
7.41767e-07
7.41766e-07
7.41774e-07
7.41773e-07
7.41787e-07
7.41787e-07
7.4181e-07
7.41814e-07
7.41853e-07
7.4187e-07
7.41934e-07
7.41977e-07
7.42085e-07
7.42172e-07
7.42354e-07
7.42514e-07
7.42808e-07
7.43052e-07
7.43471e-07
7.43711e-07
7.43911e-07
7.43346e-07
7.42196e-07
7.39983e-07
7.2575e-07
7.27852e-07
7.28853e-07
7.29353e-07
7.29102e-07
7.28817e-07
7.28384e-07
7.28129e-07
7.27831e-07
7.27666e-07
7.27483e-07
7.27393e-07
7.27284e-07
7.27241e-07
7.27176e-07
7.27158e-07
7.2712e-07
7.27115e-07
7.27092e-07
7.27091e-07
7.27077e-07
7.27078e-07
7.27071e-07
7.27071e-07
7.27069e-07
7.27069e-07
7.27071e-07
7.27071e-07
7.27078e-07
7.27077e-07
7.27091e-07
7.27092e-07
7.27115e-07
7.2712e-07
7.27158e-07
7.27176e-07
7.27241e-07
7.27284e-07
7.27393e-07
7.27483e-07
7.27665e-07
7.2783e-07
7.28128e-07
7.28383e-07
7.28816e-07
7.29101e-07
7.29352e-07
7.28852e-07
7.27851e-07
7.25749e-07
7.1152e-07
7.13511e-07
7.14366e-07
7.14799e-07
7.14499e-07
7.14167e-07
7.1372e-07
7.13454e-07
7.13153e-07
7.12984e-07
7.12799e-07
7.12708e-07
7.12598e-07
7.12553e-07
7.12488e-07
7.1247e-07
7.12432e-07
7.12426e-07
7.12403e-07
7.12403e-07
7.12389e-07
7.12389e-07
7.12382e-07
7.12382e-07
7.1238e-07
7.1238e-07
7.12382e-07
7.12382e-07
7.12389e-07
7.12389e-07
7.12402e-07
7.12403e-07
7.12426e-07
7.12432e-07
7.1247e-07
7.12489e-07
7.12554e-07
7.12598e-07
7.12708e-07
7.12799e-07
7.12983e-07
7.13153e-07
7.13454e-07
7.13719e-07
7.14166e-07
7.14498e-07
7.14798e-07
7.14365e-07
7.1351e-07
7.11519e-07
6.97284e-07
6.99161e-07
6.99877e-07
7.00243e-07
6.99895e-07
6.99512e-07
6.99053e-07
6.98776e-07
6.98472e-07
6.98298e-07
6.98113e-07
6.98019e-07
6.97909e-07
6.97863e-07
6.97798e-07
6.97779e-07
6.97741e-07
6.97735e-07
6.97712e-07
6.97711e-07
6.97697e-07
6.97698e-07
6.9769e-07
6.97691e-07
6.97688e-07
6.97688e-07
6.97691e-07
6.9769e-07
6.97697e-07
6.97697e-07
6.97711e-07
6.97712e-07
6.97735e-07
6.97741e-07
6.97779e-07
6.97798e-07
6.97863e-07
6.97909e-07
6.98019e-07
6.98113e-07
6.98298e-07
6.98471e-07
6.98775e-07
6.99052e-07
6.99511e-07
6.99894e-07
7.00241e-07
6.99876e-07
6.9916e-07
6.97283e-07
6.83033e-07
6.84795e-07
6.85375e-07
6.85672e-07
6.85279e-07
6.84842e-07
6.8437e-07
6.84083e-07
6.83776e-07
6.83598e-07
6.83413e-07
6.83317e-07
6.83207e-07
6.8316e-07
6.83095e-07
6.83075e-07
6.83036e-07
6.8303e-07
6.83007e-07
6.83006e-07
6.82992e-07
6.82993e-07
6.82985e-07
6.82986e-07
6.82984e-07
6.82984e-07
6.82986e-07
6.82985e-07
6.82993e-07
6.82992e-07
6.83006e-07
6.83007e-07
6.8303e-07
6.83036e-07
6.83075e-07
6.83095e-07
6.8316e-07
6.83207e-07
6.83317e-07
6.83413e-07
6.83598e-07
6.83776e-07
6.84082e-07
6.84369e-07
6.84841e-07
6.85278e-07
6.85671e-07
6.85373e-07
6.84794e-07
6.83031e-07
6.69231e-07
6.70895e-07
6.71342e-07
6.71577e-07
6.71139e-07
6.70646e-07
6.70161e-07
6.69864e-07
6.69555e-07
6.69373e-07
6.69186e-07
6.69088e-07
6.68978e-07
6.6893e-07
6.68865e-07
6.68845e-07
6.68806e-07
6.68799e-07
6.68776e-07
6.68775e-07
6.68761e-07
6.68762e-07
6.68754e-07
6.68755e-07
6.68753e-07
6.68753e-07
6.68755e-07
6.68754e-07
6.68762e-07
6.68761e-07
6.68775e-07
6.68776e-07
6.68799e-07
6.68806e-07
6.68845e-07
6.68865e-07
6.6893e-07
6.68978e-07
6.69089e-07
6.69186e-07
6.69373e-07
6.69554e-07
6.69863e-07
6.7016e-07
6.70645e-07
6.71138e-07
6.71576e-07
6.71341e-07
6.70894e-07
6.69229e-07
6.55427e-07
6.56992e-07
6.57312e-07
6.57484e-07
6.57003e-07
6.56447e-07
6.55951e-07
6.55636e-07
6.55304e-07
6.55108e-07
6.5491e-07
6.54806e-07
6.54689e-07
6.54638e-07
6.54569e-07
6.54547e-07
6.54507e-07
6.545e-07
6.54475e-07
6.54474e-07
6.54459e-07
6.5446e-07
6.54452e-07
6.54452e-07
6.5445e-07
6.5445e-07
6.54452e-07
6.54452e-07
6.54459e-07
6.54459e-07
6.54474e-07
6.54475e-07
6.545e-07
6.54507e-07
6.54548e-07
6.54569e-07
6.54638e-07
6.54689e-07
6.54806e-07
6.5491e-07
6.55108e-07
6.55304e-07
6.55635e-07
6.5595e-07
6.56446e-07
6.57002e-07
6.57482e-07
6.5731e-07
6.5699e-07
6.55425e-07
6.41206e-07
6.42674e-07
6.42856e-07
6.42953e-07
6.42419e-07
6.41782e-07
6.41267e-07
6.40936e-07
6.40597e-07
6.40394e-07
6.40192e-07
6.40085e-07
6.39966e-07
6.39913e-07
6.39843e-07
6.39821e-07
6.39779e-07
6.39772e-07
6.39747e-07
6.39745e-07
6.39731e-07
6.39731e-07
6.39723e-07
6.39723e-07
6.39721e-07
6.39721e-07
6.39723e-07
6.39723e-07
6.39731e-07
6.39731e-07
6.39745e-07
6.39747e-07
6.39772e-07
6.39779e-07
6.39821e-07
6.39843e-07
6.39913e-07
6.39966e-07
6.40085e-07
6.40192e-07
6.40394e-07
6.40596e-07
6.40936e-07
6.41266e-07
6.41781e-07
6.42418e-07
6.42952e-07
6.42855e-07
6.42673e-07
6.41204e-07
6.26886e-07
6.28237e-07
6.283e-07
6.28329e-07
6.27761e-07
6.27534e-07
6.2701e-07
6.2667e-07
6.26327e-07
6.2612e-07
6.25918e-07
6.25808e-07
6.25689e-07
6.25635e-07
6.25565e-07
6.25542e-07
6.25501e-07
6.25493e-07
6.25468e-07
6.25466e-07
6.25451e-07
6.25452e-07
6.25444e-07
6.25444e-07
6.25442e-07
6.25442e-07
6.25444e-07
6.25444e-07
6.25451e-07
6.25451e-07
6.25466e-07
6.25468e-07
6.25493e-07
6.25501e-07
6.25542e-07
6.25565e-07
6.25636e-07
6.25689e-07
6.25808e-07
6.25918e-07
6.2612e-07
6.26327e-07
6.26669e-07
6.2701e-07
6.27533e-07
6.2776e-07
6.28328e-07
6.28298e-07
6.28236e-07
6.26885e-07
6.12988e-07
6.14238e-07
6.14181e-07
6.14148e-07
6.13543e-07
6.13269e-07
6.12737e-07
6.12387e-07
6.12042e-07
6.11831e-07
6.11627e-07
6.11516e-07
6.11396e-07
6.11342e-07
6.11272e-07
6.11248e-07
6.11207e-07
6.11198e-07
6.11174e-07
6.11172e-07
6.11157e-07
6.11157e-07
6.11149e-07
6.1115e-07
6.11147e-07
6.11147e-07
6.1115e-07
6.11149e-07
6.11157e-07
6.11157e-07
6.11172e-07
6.11174e-07
6.11198e-07
6.11207e-07
6.11248e-07
6.11272e-07
6.11343e-07
6.11397e-07
6.11516e-07
6.11627e-07
6.11831e-07
6.12041e-07
6.12387e-07
6.12736e-07
6.13268e-07
6.13543e-07
6.14147e-07
6.1418e-07
6.14236e-07
6.12986e-07
5.98982e-07
6.00171e-07
5.99975e-07
5.99853e-07
5.99165e-07
5.98825e-07
5.9826e-07
5.97888e-07
5.97528e-07
5.97307e-07
5.97096e-07
5.96981e-07
5.96857e-07
5.96801e-07
5.96728e-07
5.96703e-07
5.9666e-07
5.96652e-07
5.96626e-07
5.96624e-07
5.96609e-07
5.96609e-07
5.96601e-07
5.96601e-07
5.96599e-07
5.96599e-07
5.96601e-07
5.96601e-07
5.96609e-07
5.96609e-07
5.96624e-07
5.96626e-07
5.96652e-07
5.9666e-07
5.96703e-07
5.96728e-07
5.96801e-07
5.96857e-07
5.96981e-07
5.97096e-07
5.97307e-07
5.97527e-07
5.97887e-07
5.98259e-07
5.98824e-07
5.99164e-07
5.99852e-07
5.99974e-07
6.0017e-07
5.98981e-07
5.85023e-07
5.86113e-07
5.85804e-07
5.85619e-07
5.8489e-07
5.84508e-07
5.83933e-07
5.83551e-07
5.83188e-07
5.82964e-07
5.82752e-07
5.82635e-07
5.82511e-07
5.82454e-07
5.82381e-07
5.82356e-07
5.82313e-07
5.82304e-07
5.82278e-07
5.82276e-07
5.82261e-07
5.82261e-07
5.82253e-07
5.82253e-07
5.82251e-07
5.82251e-07
5.82253e-07
5.82253e-07
5.82261e-07
5.82261e-07
5.82276e-07
5.82278e-07
5.82304e-07
5.82313e-07
5.82356e-07
5.82381e-07
5.82454e-07
5.82511e-07
5.82635e-07
5.82752e-07
5.82964e-07
5.83188e-07
5.8355e-07
5.83932e-07
5.84507e-07
5.84889e-07
5.85618e-07
5.85802e-07
5.86112e-07
5.85022e-07
5.71033e-07
5.72023e-07
5.71605e-07
5.71358e-07
5.70586e-07
5.70166e-07
5.69581e-07
5.6919e-07
5.68824e-07
5.68597e-07
5.68384e-07
5.68266e-07
5.68141e-07
5.68083e-07
5.6801e-07
5.67985e-07
5.67941e-07
5.67932e-07
5.67907e-07
5.67904e-07
5.67889e-07
5.67889e-07
5.67881e-07
5.67882e-07
5.67879e-07
5.67879e-07
5.67882e-07
5.67881e-07
5.67889e-07
5.67889e-07
5.67904e-07
5.67907e-07
5.67932e-07
5.67942e-07
5.67985e-07
5.6801e-07
5.68084e-07
5.68141e-07
5.68266e-07
5.68384e-07
5.68596e-07
5.68824e-07
5.69189e-07
5.6958e-07
5.70165e-07
5.70585e-07
5.71357e-07
5.71604e-07
5.72021e-07
5.71031e-07
5.53512e-07
5.53509e-07
5.53494e-07
5.53494e-07
5.53486e-07
5.53486e-07
5.53484e-07
5.53484e-07
5.53486e-07
5.53486e-07
5.53494e-07
5.53494e-07
5.53509e-07
5.53512e-07
5.53537e-07
5.53547e-07
5.5359e-07
5.53616e-07
5.53689e-07
5.53748e-07
5.53872e-07
5.53992e-07
5.54205e-07
5.54436e-07
5.54803e-07
5.55202e-07
5.55797e-07
5.56253e-07
5.57068e-07
5.57377e-07
5.579e-07
5.57008e-07
5.39076e-07
5.39076e-07
5.39091e-07
5.39094e-07
5.39119e-07
5.39129e-07
5.39172e-07
5.39198e-07
5.39272e-07
5.39331e-07
5.39455e-07
5.39576e-07
5.39789e-07
5.40023e-07
5.40392e-07
5.408e-07
5.41404e-07
5.41892e-07
5.42752e-07
5.4312e-07
5.43746e-07
5.42952e-07
5.25352e-07
5.25588e-07
5.25959e-07
5.26374e-07
5.26987e-07
5.27504e-07
5.2841e-07
5.28836e-07
5.29561e-07
5.28864e-07
)
;

boundaryField
{
    fuel
    {
        type            fixedValue;
        value           nonuniform 0();
    }
    wall
    {
        type            zeroGradient;
    }
    outlet
    {
        type            zeroGradient;
    }
    frontAndBack
    {
        type            empty;
    }
    procBoundary0to1
    {
        type            processor;
        value           nonuniform List<scalar> 
50
(
1.17181e-06
1.17702e-06
1.18223e-06
1.185e-06
1.18618e-06
1.18681e-06
1.18673e-06
1.18679e-06
1.18659e-06
1.18658e-06
1.18644e-06
1.18644e-06
1.18635e-06
1.18635e-06
1.1863e-06
1.18631e-06
1.18627e-06
1.18628e-06
1.18626e-06
1.18627e-06
1.18626e-06
1.18626e-06
1.18625e-06
1.18626e-06
1.18625e-06
1.18625e-06
1.18626e-06
1.18625e-06
1.18626e-06
1.18626e-06
1.18627e-06
1.18626e-06
1.18628e-06
1.18627e-06
1.18631e-06
1.1863e-06
1.18635e-06
1.18635e-06
1.18644e-06
1.18644e-06
1.18658e-06
1.18659e-06
1.18679e-06
1.18673e-06
1.1868e-06
1.18618e-06
1.185e-06
1.18223e-06
1.17702e-06
1.17181e-06
)
;
    }
    procBoundary0to2
    {
        type            processor;
        value           nonuniform List<scalar> 
53
(
5.57009e-07
5.57901e-07
5.57378e-07
5.57069e-07
5.56254e-07
5.55798e-07
5.55203e-07
5.54803e-07
5.54436e-07
5.54205e-07
5.53992e-07
5.53872e-07
5.53747e-07
5.53689e-07
5.53615e-07
5.5359e-07
5.53546e-07
5.53537e-07
5.53537e-07
5.39093e-07
5.39091e-07
5.39076e-07
5.39076e-07
5.39067e-07
5.39068e-07
5.39065e-07
5.39065e-07
5.39068e-07
5.39067e-07
5.39067e-07
5.24636e-07
5.24636e-07
5.24651e-07
5.24654e-07
5.2468e-07
5.2469e-07
5.24733e-07
5.24759e-07
5.24833e-07
5.24892e-07
5.25017e-07
5.25139e-07
5.25139e-07
5.10895e-07
5.11134e-07
5.11505e-07
5.11927e-07
5.12549e-07
5.13092e-07
5.14043e-07
5.14525e-07
5.15348e-07
5.14747e-07
)
;
    }
}


// ************************************************************************* //
