/*--------------------------------*- C++ -*----------------------------------*\
| =========                 |                                                 |
| \\      /  F ield         | OpenFOAM: The Open Source CFD Toolbox           |
|  \\    /   O peration     | Version:  dev                                   |
|   \\  /    A nd           | Web:      www.OpenFOAM.org                      |
|    \\/     M anipulation  |                                                 |
\*---------------------------------------------------------------------------*/
FoamFile
{
    version     2.0;
    format      ascii;
    class       volVectorField;
    location    "0.085";
    object      U;
}
// * * * * * * * * * * * * * * * * * * * * * * * * * * * * * * * * * * * * * //

dimensions      [0 1 -1 0 0 0 0];

internalField   nonuniform List<vector> 
250
(
(0 -0.0780922 0.549094)
(0 -0.2452 0.553725)
(0 -0.364316 0.547226)
(0 -0.546405 0.554146)
(0 -0.642835 0.549697)
(0 -0.853843 0.555398)
(0 -0.910837 0.561245)
(0 -1.16383 0.611602)
(0 -1.09532 0.571273)
(0 -1.35257 0.714415)
(0 -0.0795986 0.533751)
(0 -0.252209 0.538537)
(0 -0.3747 0.531768)
(0 -0.561993 0.539072)
(0 -0.662097 0.534345)
(0 -0.878032 0.540086)
(0 -0.939927 0.546498)
(0 -1.1986 0.59629)
(0 -1.14458 0.56109)
(0 -1.41434 0.70064)
(0 1.43256 0.597)
(0 1.25672 0.66342)
(0 1.15873 0.541788)
(0 0.966284 0.570851)
(0 0.850188 0.514422)
(0 0.66541 0.523633)
(0 0.539545 0.522855)
(0 0.361003 0.516566)
(0 0.228751 0.522964)
(0 0.0537294 0.519002)
(0 -0.0809717 0.517743)
(0 -0.258902 0.522677)
(0 -0.384626 0.515653)
(0 -0.576932 0.52333)
(0 -0.680627 0.518322)
(0 -0.901292 0.524087)
(0 -0.967922 0.530971)
(0 -1.23222 0.579989)
(0 -1.19199 0.549602)
(0 -1.47489 0.685146)
(0 1.50056 0.584538)
(0 1.29982 0.646168)
(0 1.19633 0.523527)
(0 0.992559 0.554292)
(0 0.874011 0.497909)
(0 0.683934 0.507026)
(0 0.554428 0.506419)
(0 0.371086 0.49983)
(0 0.235659 0.50647)
(0 0.0554707 0.502258)
(0 -0.0822151 0.501051)
(0 -0.265275 0.506129)
(0 -0.394077 0.498867)
(0 -0.591188 0.506899)
(0 -0.698393 0.501616)
(0 -0.923558 0.507387)
(0 -0.994763 0.514654)
(0 -1.26453 0.562682)
(0 -1.23734 0.536761)
(0 -1.53396 0.668002)
(0 1.56566 0.57037)
(0 1.34045 0.627442)
(0 1.23216 0.504391)
(0 1.01794 0.536767)
(0 0.89672 0.480746)
(0 0.701791 0.489688)
(0 0.568625 0.489277)
(0 0.38078 0.482413)
(0 0.242288 0.489274)
(0 0.0571689 0.484827)
(0 -0.0833305 0.48367)
(0 -0.271321 0.488885)
(0 -0.403033 0.481403)
(0 -0.604724 0.489769)
(0 -0.715357 0.484215)
(0 -0.944752 0.489985)
(0 -1.02037 0.49754)
(0 -1.29535 0.54438)
(0 -1.28042 0.522569)
(0 -1.59126 0.649257)
(0 1.62749 0.554553)
(0 1.37846 0.607266)
(0 1.26605 0.484429)
(0 1.04232 0.518278)
(0 0.918208 0.462921)
(0 0.718882 0.471613)
(0 0.582081 0.471416)
(0 0.390021 0.464316)
(0 0.248612 0.471364)
(0 0.0587947 0.466703)
(0 -0.0843173 0.465595)
(0 -0.277034 0.470941)
(0 -0.411466 0.463259)
(0 -0.617498 0.471932)
(0 -0.731472 0.466115)
(0 -0.964788 0.471876)
(0 -1.04467 0.479628)
(0 -1.32451 0.525121)
(0 -1.32102 0.507012)
(0 -1.64655 0.62894)
(0 1.68574 0.537144)
(0 1.41371 0.585645)
(0 1.29784 0.463638)
(0 1.06558 0.498826)
(0 0.938365 0.444419)
(0 0.7351 0.452797)
(0 0.594736 0.452825)
(0 0.398742 0.445528)
(0 0.254604 0.452732)
(0 0.0603189 0.447878)
(0 -0.085172 0.446817)
(0 -0.282402 0.452285)
(0 -0.419343 0.444425)
(0 -0.629462 0.453373)
(0 -0.746685 0.447307)
(0 -0.983567 0.453055)
(0 -1.06755 0.460916)
(0 -1.35181 0.504967)
(0 -1.35893 0.490017)
(0 -1.69959 0.607107)
(0 1.74008 0.518197)
(0 1.44608 0.56259)
(0 1.32738 0.441983)
(0 1.08757 0.478414)
(0 0.957081 0.425222)
(0 0.750332 0.433218)
(0 0.606532 0.433469)
(0 0.406875 0.42602)
(0 0.260239 0.433345)
(0 0.0617126 0.42832)
(0 -0.0858879 0.427301)
(0 -0.287412 0.432885)
(0 -0.426627 0.424871)
(0 -0.640563 0.434055)
(0 -0.760931 0.427761)
(0 -1.00098 0.433505)
(0 -1.08892 0.441401)
(0 -1.37722 0.483843)
(0 -1.39407 0.471693)
(0 -1.74991 0.583771)
(0 1.79024 0.497758)
(0 1.47543 0.538131)
(0 1.35453 0.419574)
(0 1.10811 0.457051)
(0 0.974245 0.405324)
(0 0.76446 0.412881)
(0 0.617407 0.413342)
(0 0.414348 0.405792)
(0 0.265491 0.413197)
(0 0.0629478 0.408031)
(0 -0.0864549 0.407047)
(0 -0.292049 0.412736)
(0 -0.433273 0.404597)
(0 -0.650742 0.413971)
(0 -0.774121 0.40748)
(0 -1.01694 0.413235)
(0 -1.10864 0.421101)
(0 -1.40069 0.461824)
(0 -1.4264 0.451983)
(0 -1.79697 0.558943)
(0 1.83596 0.475876)
(0 1.50164 0.512331)
(0 1.37914 0.396773)
(0 1.12704 0.43476)
(0 0.989746 0.384745)
(0 0.777364 0.39184)
(0 0.627298 0.392494)
(0 0.421094 0.384909)
(0 0.270336 0.392346)
(0 0.0639976 0.387079)
(0 -0.0868589 0.386121)
(0 -0.296291 0.391898)
(0 -0.439231 0.383669)
(0 -0.659935 0.393177)
(0 -0.78615 0.386521)
(0 -1.03132 0.392288)
(0 -1.12659 0.400014)
(0 -1.42209 0.438874)
(0 -1.45585 0.430926)
(0 -1.84034 0.532687)
(0 1.87698 0.452602)
(0 1.52458 0.48525)
(0 1.40108 0.373703)
(0 1.14419 0.411558)
(0 1.00347 0.363492)
(0 0.788915 0.370122)
(0 0.636138 0.370949)
(0 0.42704 0.363399)
(0 0.27475 0.370815)
(0 0.0648356 0.365491)
(0 -0.0870818 0.364552)
(0 -0.300116 0.370393)
(0 -0.444442 0.362117)
(0 -0.668073 0.371694)
(0 -0.796905 0.36491)
(0 -1.04403 0.370678)
(0 -1.14262 0.378138)
(0 -1.44127 0.415083)
(0 -1.48228 0.408588)
(0 -1.87966 0.505071)
(0 1.91307 0.427986)
(0 1.54411 0.456934)
(0 1.42019 0.350135)
(0 1.15937 0.387471)
(0 1.0153 0.341567)
(0 0.798982 0.347729)
(0 0.643859 0.348699)
(0 0.432114 0.341253)
(0 0.278708 0.348598)
(0 0.0654368 0.343256)
(0 -0.087102 0.342333)
(0 -0.303497 0.348211)
(0 -0.448843 0.339934)
(0 -0.675078 0.349509)
(0 -0.806269 0.342643)
(0 -1.05491 0.348407)
(0 -1.15657 0.355497)
(0 -1.45801 0.390533)
(0 -1.50551 0.385029)
(0 -1.9146 0.47616)
(0 1.94402 0.402087)
(0 1.56011 0.427448)
(0 1.43632 0.325989)
(0 1.17235 0.362531)
(0 1.02512 0.318991)
(0 0.807432 0.324689)
(0 0.650389 0.325764)
(0 0.436246 0.318496)
(0 0.282187 0.325713)
(0 0.0657781 0.320399)
(0 -0.0868951 0.319485)
(0 -0.306403 0.325372)
(0 -0.452367 0.317142)
(0 -0.68087 0.326641)
(0 -0.814114 0.319745)
(0 -1.06383 0.325502)
(0 -1.16827 0.332122)
(0 -1.47212 0.365234)
(0 -1.52536 0.360324)
(0 -1.94486 0.446033)
(0 -0.0864338 0.296053)
(0 -0.308802 0.30191)
(0 -0.454941 0.293785)
(0 -0.685366 0.303125)
(0 -0.820307 0.296259)
(0 -1.07066 0.302)
(0 -1.17754 0.308051)
(0 -1.48336 0.339221)
(0 -1.54162 0.334576)
(0 -1.97014 0.41477)
)
;

boundaryField
{
    fuel
    {
        type            fixedValue;
        value           nonuniform 0();
    }
    wall
    {
        type            slip;
    }
    outlet
    {
        type            pressureInletOutletVelocity;
        value           nonuniform List<vector> 
25
(
(0 1.43256 0.597)
(0 1.50056 0.584538)
(0 1.56566 0.57037)
(0 1.62749 0.554553)
(0 1.68574 0.537144)
(0 1.74008 0.518197)
(0 1.79024 0.497758)
(0 1.83596 0.475876)
(0 1.87698 0.452602)
(0 1.91307 0.427986)
(0 1.94402 0.402087)
(0 -1.35257 0.714415)
(0 -1.41434 0.70064)
(0 -1.47489 0.685146)
(0 -1.53396 0.668002)
(0 -1.59126 0.649257)
(0 -1.64655 0.62894)
(0 -1.69959 0.607107)
(0 -1.74991 0.583771)
(0 -1.79697 0.558943)
(0 -1.84034 0.532687)
(0 -1.87966 0.505071)
(0 -1.9146 0.47616)
(0 -1.94486 0.446033)
(0 -1.97014 0.41477)
)
;
    }
    frontAndBack
    {
        type            empty;
    }
    procBoundary0to1
    {
        type            processor;
        value           nonuniform List<vector> 
21
(
(0 1.96958 0.374969)
(0 1.57247 0.396877)
(0 1.44932 0.301381)
(0 1.18292 0.336783)
(0 1.03282 0.295799)
(0 0.814131 0.301046)
(0 0.655657 0.302182)
(0 0.439366 0.295166)
(0 0.285165 0.302196)
(0 0.0658369 0.296957)
(0 0.0658369 0.296957)
(0 -0.0856888 0.272086)
(0 -0.310661 0.277872)
(0 -0.456493 0.269916)
(0 -0.68848 0.279008)
(0 -0.824708 0.272237)
(0 -1.07525 0.277948)
(0 -1.18423 0.283332)
(0 -1.49149 0.312548)
(0 -1.55408 0.307893)
(0 -1.99013 0.382459)
)
;
    }
    procBoundary0to2
    {
        type            processor;
        value           nonuniform List<vector> 
12
(
(0 0.0502236 0.550451)
(0 1.36204 0.607689)
(0 1.21127 0.679189)
(0 1.11953 0.559127)
(0 0.93921 0.586453)
(0 0.825359 0.530299)
(0 0.646309 0.539514)
(0 0.524028 0.538595)
(0 0.350591 0.532629)
(0 0.221591 0.538763)
(0 0.0519717 0.535062)
(0 0.0519717 0.535062)
)
;
    }
    procBoundary0to3
    {
        type            processor;
        value           nonuniform List<vector> 10((0 -0.0764475 0.563794) (0 -0.237879 0.568265) (0 -0.353489 0.562049) (0 -0.530196 0.568575) (0 -0.622866 0.564407) (0 -0.828783 0.570046) (0 -0.880705 0.575234) (0 -1.12808 0.625925) (0 -1.04443 0.580174) (0 -1.2899 0.726403));
    }
}


// ************************************************************************* //
