/*--------------------------------*- C++ -*----------------------------------*\
| =========                 |                                                 |
| \\      /  F ield         | OpenFOAM: The Open Source CFD Toolbox           |
|  \\    /   O peration     | Version:  dev                                   |
|   \\  /    A nd           | Web:      www.OpenFOAM.org                      |
|    \\/     M anipulation  |                                                 |
\*---------------------------------------------------------------------------*/
FoamFile
{
    version     2.0;
    format      ascii;
    class       volScalarField;
    location    "0";
    object      k;
}
// * * * * * * * * * * * * * * * * * * * * * * * * * * * * * * * * * * * * * //

dimensions      [ 0 2 -2 0 0 0 0 ];

internalField   nonuniform List<scalar> 
97190
(
0.00113349960139
0.00361018769256
0.00108571557013
0.00111678694523
0.00489007164163
0.00357425791383
0.00339641453747
0.00102778580545
0.000169241096949
0.0011087848752
0.00502672535151
0.00520680947053
0.00499335135637
0.00342493457895
0.000771830271237
0.00334996596802
0.00096722594342
0.000102019789147
0.000103850147255
0.0011051140669
0.0047160626203
0.00563443144959
0.00517331480569
0.00510733134625
0.00151544378929
0.00487308846582
0.00324494321128
0.000467617332526
0.000403264059074
0.00334648772783
0.00090735054616
9.32873079636e-05
1.2935314025e-05
0.000104186503215
0.0011039379824
0.00434682328617
0.00550735681639
0.00505417670575
0.00588135357863
0.00199746135788
0.00543287409494
0.00493337306465
0.00091827335829
0.000782607192552
0.004666281583
0.00307064727659
0.000415735355959
5.85007531875e-05
0.000389726902277
0.00334098838945
0.000846792741201
8.46493717994e-05
8.79337035126e-06
9.64431283846e-06
0.000104082869105
0.00110393798181
0.00401887600077
0.00524845668693
0.00483509537132
0.00582810774431
0.00225772750766
0.00539724463042
0.00585931008068
0.00134133146636
0.00111714842238
0.00560660730357
0.00475132643722
0.000811800554774
0.000142506190318
0.00069590065841
0.00461948451083
0.00289974266334
0.00038027180685
3.25091672185e-05
3.32706578563e-05
0.000389504232102
0.0033409883929
0.000785495676444
7.66929860342e-05
8.17506733106e-06
4.62426741168e-06
9.58195291801e-06
0.000104082868771
0.00110511406629
0.00377487344555
0.00496807474377
0.00458679887612
0.00565484312357
0.00236506393567
0.00519817703416
0.00590922933687
0.00162241042767
0.00136191701759
0.00549812269092
0.00576479166902
0.00120087388888
0.000251668630519
0.00100131798801
0.00561093483886
0.00457353261306
0.000752569660012
7.52709493853e-05
7.29979929544e-05
0.000685507883877
0.00461948448776
0.00273167921632
0.000346780808861
2.82001483989e-05
7.3961613489e-06
3.25044334292e-05
0.000389504231642
0.00334648775111
0.000723330240713
6.86433872534e-05
7.67314806415e-06
4.41017413268e-06
4.48438744959e-06
9.58195289685e-06
0.000104186503588
0.00110878487453
0.00359369117184
0.00471444744392
0.00438560066353
0.00543702707953
0.00238414834628
0.00502481328751
0.00580664423211
0.00178634051577
0.00152884670823
0.00536991960733
0.00591410867723
0.00146856636999
0.000366021698319
0.00120443221272
0.00552135002763
0.00565504530292
0.0011284311273
0.000134409524589
0.000128338090139
0.000984339476623
0.00561093487871
0.00440375012498
0.000698213234219
6.40108577461e-05
1.37572888992e-05
6.8815993363e-05
0.000685507876079
0.00466628136931
0.0025657833637
0.000314758719087
2.52724504809e-05
5.70949106932e-06
6.1240755409e-06
3.25044334331e-05
0.000389726904801
0.00334996598759
0.000659672612984
6.09736212027e-05
7.22162551672e-06
4.3769476978e-06
4.31356413759e-06
4.48438745333e-06
9.6443128801e-06
0.00010385014796
0.0011167869433
0.00345010288773
0.00450658025735
0.00421376748346
0.0052217809521
0.00236676204327
0.00484871178654
0.00564393773187
0.0018647422264
0.00164257316107
0.00523518901275
0.00585899888984
0.00163747285637
0.000477010234856
0.00134788471039
0.00541498103983
0.00590586390709
0.00139879306838
0.000200632641179
0.000190318327883
0.0011808407934
0.00552135006568
0.00554185059726
0.00106306915767
0.000113335546901
2.46502382823e-05
0.000117975948046
0.000984339463866
0.00560660752588
0.00423868117143
0.000649706740116
5.73538459682e-05
8.62829276514e-06
9.61161229427e-06
6.88159928541e-05
0.000695900625114
0.00487308831267
0.00240681456304
0.000289331650399
2.29095788564e-05
5.46280805062e-06
4.60393433643e-06
6.12407555846e-06
3.32706582154e-05
0.000403264062559
0.00339641454966
0.000607172977839
7.17856603184e-05
7.75922556905e-06
4.39658263394e-06
4.32388365536e-06
4.31356414942e-06
4.62426740342e-06
1.29353140168e-05
0.000169241095212
0.00113349959986
0.00333368769245
0.00433525948259
0.00407256062579
0.00503004154962
0.00233815860774
0.00470836732857
0.0054661353922
0.00188987920984
0.00172049345236
0.00511449454405
0.0057348617592
0.0017284257168
0.000581409940188
0.00145776709993
0.00529984775541
0.00588815636338
0.00157385031148
0.000267598118515
0.000255247019754
0.00131818995805
0.00541498116057
0.00590186275796
0.00134105059558
0.000168475896328
3.95632074848e-05
0.000171961148931
0.00118084076936
0.00549812282715
0.00541776184362
0.00100778160875
0.000102299752189
1.3600425147e-05
1.55689326028e-05
0.000117975946903
0.00100131797834
0.00543287427953
0.00406381879327
0.000617976743204
5.25606322566e-05
7.86964873233e-06
5.11645401538e-06
9.61161230438e-06
7.29979908814e-05
0.000782607162674
0.00499335126145
0.00227029262197
0.000360593561133
2.68504647731e-05
5.6088019564e-06
4.59439996735e-06
4.6039343551e-06
7.39616130472e-06
5.85007522648e-05
0.000771830258168
0.00361018770166
0.0005669662563
3.68060860878e-05
5.68137735622e-06
4.30254023658e-06
4.32388367607e-06
4.41017411012e-06
8.79337030161e-06
0.0001020197877
0.00108571556837
0.0032391472279
0.00418994960121
0.0039591583781
0.00486444441369
0.00230942149045
0.00459923847783
0.00529847803405
0.0018898531757
0.00178021908911
0.00500527121676
0.00558562247545
0.0017656397906
0.000675516801687
0.00154600378467
0.00520266829229
0.00578921295772
0.0016761297431
0.000333612113463
0.000320469577514
0.00142353867854
0.00529984791763
0.00591339836734
0.001526353641
0.00022389074317
5.82988783828e-05
0.0002275269871
0.00131818994258
0.00536991997766
0.00588338634205
0.00129894368642
0.000153605632732
2.06526281721e-05
2.40682993936e-05
0.000171961146164
0.00120443218198
0.00539724499896
0.00522643069511
0.000980525346541
9.52642032093e-05
1.19094953648e-05
6.009093572e-06
1.55689324994e-05
0.000128338086622
0.00111714841542
0.00517331505208
0.00381546882654
0.000798232804253
6.44794466748e-05
8.41775017821e-06
4.92705926601e-06
5.11645402082e-06
1.37572884295e-05
0.000142506183272
0.00151544371554
0.00489007168699
0.00205538943349
0.000149542319005
1.24244629455e-05
4.76706380749e-06
4.59440000396e-06
5.70949099478e-06
3.25091662888e-05
0.000467617319127
0.00357425792165
0.000559089469202
3.61846624496e-05
5.62081023856e-06
4.30254023994e-06
4.37694767185e-06
8.17506727997e-06
9.3287306967e-05
0.00102778580416
0.003162939212
0.00406348634926
0.00387213979741
0.00472220859445
0.00228472434634
0.00450575737281
0.00515027436623
0.00188030938085
0.0018314398964
0.00490240045957
0.00543794803128
0.00177346757169
0.000760312373671
0.00162550021766
0.00510962839581
0.00565611933283
0.00172370852083
0.000395533298387
0.000386799031737
0.00151092745858
0.00520266862129
0.00582929403338
0.00164252374026
0.000276675456378
8.0483361123e-05
0.000283205407458
0.00142353868428
0.00523518950884
0.00591274340676
0.00149925467724
0.000205866181214
2.96080342509e-05
3.50851426992e-05
0.000227526983565
0.00134788471762
0.00519817751706
0.00572369377708
0.00129692898626
0.000145751131703
1.76411792495e-05
7.47576953331e-06
2.40682990031e-05
0.000190318318732
0.00136191700985
0.00505417707793
0.00474802107131
0.0012538821996
0.000118393598673
1.31840153714e-05
5.38367769669e-06
6.00909351135e-06
2.46502364646e-05
0.00025166861293
0.00199746127763
0.00502672558298
0.00342820964706
0.000318833196135
2.51366577167e-05
5.70986085677e-06
4.92705928489e-06
8.62829244266e-06
7.52709447906e-05
0.000918273311125
0.00520680943457
0.00200933821265
0.000140527970615
1.17879637242e-05
4.7670638136e-06
5.46280797763e-06
2.82001475876e-05
0.000415735344709
0.00342493458028
0.000558042277545
3.62825787822e-05
5.62081023602e-06
4.39658260422e-06
7.6731480216e-06
8.46493707004e-05
0.00096722594233
0.0031033919339
0.00395102712892
0.00380886053971
0.00459852677286
0.00226753646723
0.00443978116378
0.00502281352756
0.00186907376481
0.00187721373872
0.0048308631352
0.00530361992754
0.00176762266084
0.000836488814305
0.00170027991251
0.00503768953486
0.00551763886351
0.00173873160164
0.000452391956357
0.000455178781965
0.00159070778188
0.00510962888089
0.00570144507836
0.00170323221466
0.000325544527765
0.000105748118209
0.000338876842217
0.00151092750523
0.00511449546424
0.00582812200325
0.00162964557793
0.000255377553558
4.0250184121e-05
4.85601591881e-05
0.000283205406814
0.00145776713472
0.00502481412329
0.00575748224915
0.00152390838013
0.000198571054682
2.48912131397e-05
9.6468060083e-06
3.5085141904e-05
0.000255247004051
0.00152884670518
0.00483509604841
0.00507873611028
0.00164084436327
0.000183496227146
2.00109899198e-05
6.10234688316e-06
7.47576930057e-06
3.95632028021e-05
0.00036602166401
0.0022577274147
0.00471606308101
0.00439944085953
0.000514088440883
4.37179028358e-05
7.27814857456e-06
5.3836776622e-06
1.36004239489e-05
0.000134409510044
0.00134133135908
0.00563443168071
0.00333812778551
0.000286785319693
2.2821062695e-05
5.70986085227e-06
7.86964846188e-06
6.40108538925e-05
0.000811800513437
0.00510733136571
0.00199932574629
0.000140385394777
1.17879637109e-05
5.60880187985e-06
2.52724497669e-05
0.000380271796701
0.00324494321068
0.000557972540347
3.62825787296e-05
5.68137735748e-06
7.22162547091e-06
7.66929851863e-05
0.000907350545091
0.00305696825855
0.00384983443504
0.00376759123694
0.00448916087302
0.0022540678367
0.00439724717985
0.00491190083289
0.00185794659968
0.00192034689175
0.00478033699357
0.00518613041637
0.00175676372495
0.000907107614193
0.00177373435653
0.00497645348319
0.00538836253378
0.00173715055078
0.000504073504429
0.000525875250452
0.00167133467244
0.00503769037746
0.00556143684237
0.00172724695944
0.000369188364523
0.000134090609797
0.000396884040132
0.00159070787061
0.0050052725803
0.00569076804513
0.00170240034466
0.000301592725186
5.23731357335e-05
6.44515925463e-05
0.000338876842464
0.00154600389119
0.00484871305602
0.00564773957328
0.00167698559912
0.000249789379603
3.33824717622e-05
1.26530875558e-05
4.85601579763e-05
0.00032046955304
0.00164257319206
0.00458679981836
0.00502259316549
0.00191012181034
0.000252691515873
2.87084573779e-05
7.18499650845e-06
9.64680538885e-06
5.82988684535e-05
0.000477010154363
0.00236506385317
0.00434682408793
0.00483670682729
0.000698488971433
6.65519354241e-05
9.53481807171e-06
6.10234671904e-06
2.06526250072e-05
0.000200632608171
0.00162241023482
0.00550735720916
0.0043215318396
0.000448358892518
3.84251359253e-05
7.2781485243e-06
1.19094944089e-05
0.00011333553443
0.00120087377955
0.00588135374849
0.00331059801497
0.000285213131849
2.28210626507e-05
8.41774992818e-06
5.73538426861e-05
0.0007525696232
0.00493337308529
0.00199689037656
0.000140385394578
1.24244629286e-05
2.29095782065e-05
0.000346780799442
0.00307064727529
0.000557972540037
3.61846624883e-05
7.75922555344e-06
6.86433862958e-05
0.000846792740231
0.00301464875231
0.00375732689778
0.00374169233544
0.00439129172474
0.00224263621483
0.0043796286387
0.00481504759168
0.00184736717848
0.00196152033323
0.00475521867626
0.00508472618439
0.00174517885261
0.000971739895396
0.00184607696348
0.00493909322919
0.00527380689376
0.00172816150654
0.000552930099115
0.000600074104893
0.00175292852331
0.00497645464077
0.00542727474331
0.0017312033594
0.000407810922829
0.000165149161626
0.000458978959698
0.00167133488187
0.00490240285387
0.00553630525055
0.00173459581293
0.000342832463398
6.5806966604e-05
8.29669899517e-05
0.000396884043153
0.00162550044478
0.00470836941881
0.00548202539102
0.00176675738056
0.000298397482417
4.29171470667e-05
1.66158205582e-05
6.44515904265e-05
0.000386798982564
0.00172049354223
0.00438560224465
0.00480110263053
0.0020828583946
0.000320671934011
3.89302690232e-05
8.70197303391e-06
1.26530861671e-05
8.04833402289e-05
0.000581409792763
0.00238414828131
0.00401887712762
0.00490919689967
0.000854403253299
9.18337568843e-05
1.24970645121e-05
7.18499605938e-06
2.96080273296e-05
0.000267598058046
0.00178634024303
0.00524845735291
0.00478152588525
0.000592254525172
5.68388015952e-05
9.53481789888e-06
1.76411767564e-05
0.000168475868554
0.00146856618057
0.00582810808871
0.0042813932367
0.000443694514306
3.84251357759e-05
1.31840145598e-05
0.000102299741404
0.00112843102668
0.00585931020386
0.00330065156407
0.000285213131399
2.51366574989e-05
5.25606294616e-05
0.000698213201124
0.00475132645563
0.00199689037557
0.000140527970476
2.68504642427e-05
0.000314758710113
0.00289974266124
0.000558042277015
3.6806085964e-05
6.09736210436e-05
0.000785495675546
0.00298209651402
0.00366856023487
0.0037138769203
0.00430321859681
0.00222842394911
0.00437762297052
0.00473030860648
0.00183700673636
0.00200116950124
0.00474898802389
0.00499754808604
0.00173454981885
0.00103072212629
0.00191753709807
0.00491550987868
0.0051748233304
0.00171688628147
0.000599656879703
0.000675772225402
0.00183630721034
0.00493909498759
0.00530689840955
0.00172528654756
0.000442343319964
0.000199432097465
0.000526482096199
0.00175292891932
0.00483086648231
0.00538696066413
0.00174358940614
0.000378750595261
8.04175061581e-05
0.00010437385158
0.000458978966896
0.00170028043384
0.00459924164676
0.005303745936
0.00181040834828
0.000342671267158
5.32483998186e-05
2.16403587572e-05
8.29669867503e-05
0.000455178708639
0.00178021932345
0.00421377002693
0.00454971324429
0.0021779988798
0.00038558813064
5.03813247958e-05
1.07097691019e-05
1.66158176154e-05
0.000105748075869
0.000675516559325
0.00236676206053
0.00377487532382
0.00483496978341
0.000982056418363
0.000118268282261
1.61226475573e-05
8.70197199444e-06
4.02501691753e-05
0.000333611985284
0.00186474187469
0.00496807585209
0.0049039595398
0.000707651079696
7.63612501507e-05
1.24970640647e-05
2.48912076384e-05
0.000223890691296
0.001637472574
0.00565484371887
0.00474134939757
0.000582316737608
5.68388012366e-05
2.00109877888e-05
0.000153605608814
0.0013987929044
0.00590922966172
0.00426266824489
0.000443694513154
4.37179019386e-05
9.52641940506e-05
0.00106306906332
0.00576479176098
0.00330065156201
0.000286785319248
6.44794442309e-05
0.000649706711174
0.0045735326281
0.00199932574539
0.00014954231879
0.000289331643054
0.00273167921366
0.000559089468886
7.17856604606e-05
0.000723330239799
0.00295715931316
0.00359640524428
0.0037331499901
0.00421987620591
0.00220055835013
0.00437710353766
0.00465632790095
0.00182682136597
0.00203559414197
0.00476193940985
0.00492268248728
0.00172508558249
0.00108450522899
0.00198698917806
0.00491354340911
0.00509023185337
0.00170562579041
0.000644880905444
0.000751308627879
0.0019201826414
0.00491551229423
0.00520257024792
0.00171543789784
0.000474069625185
0.000237944334293
0.000599082214634
0.00183630788841
0.00478034176006
0.00525300343904
0.00174061657644
0.000409992204506
9.61806853951e-05
0.000129161820502
0.000526482140334
0.00177373532989
0.00450576239849
0.00513719979228
0.00182568439396
0.000381815465246
6.41504440422e-05
2.78323457596e-05
0.00010437384661
0.000525875136526
0.00183144040054
0.004072564587
0.00432270719576
0.00221927414301
0.000445006078594
6.27252610472e-05
1.32467137049e-05
2.16403531106e-05
0.000134090538195
0.000760311985219
0.0023381587924
0.00359369404974
0.0047120185609
0.00108345337925
0.000145034106279
2.03523332727e-05
1.07097669053e-05
5.23731054107e-05
0.000395533064271
0.00188987875445
0.00471444922316
0.00490435513491
0.000798088979002
9.59460015408e-05
1.61226465671e-05
3.33824601913e-05
0.00027667534942
0.00172842532171
0.00543702808007
0.00488102996386
0.000690963377842
7.63612493721e-05
2.8708452615e-05
0.000205866135523
0.00157385002907
0.00580664477567
0.00471453117379
0.000582316735767
6.6551932997e-05
0.000145751111015
0.00134105044305
0.0059141089688
0.00426266824157
0.000448358890418
0.000118393590559
0.00100778152432
0.00565504536368
0.003310598015
0.000318833194298
0.000617976716533
0.00440375013779
0.00200933821301
0.000360593554012
0.00256578335939
0.000566966255615
0.000659672612153
0.00293262828829
0.00354345535414
0.00377640989829
0.00415391929741
0.00216897261041
0.0044157742489
0.00458767758065
0.00181310134828
0.00205219407794
0.00477505945501
0.00485861250397
0.00171682973786
0.00113198583256
0.00205109175266
0.00491937496119
0.00501832767222
0.00169534854005
0.000689004962805
0.000825696647456
0.00200400513905
0.00491354597251
0.00511377870208
0.00170480365903
0.000503411633683
0.000280416184156
0.000674794295596
0.00192018377011
0.00475522558583
0.00513813301941
0.00173238805666
0.000437503114838
0.00011310422959
0.000158625071491
0.000599082297636
0.00184607856969
0.0044397886788
0.00499209317719
0.00182527060382
0.000416108900426
7.54625239843e-05
3.53130512105e-05
0.000129161810902
0.000600073989637
0.00187721475138
0.00395916441601
0.00412966488683
0.00222615949498
0.000497831513794
7.56407086354e-05
1.63364145128e-05
2.7832335562e-05
0.000165149051155
0.000836488289108
0.00230942199193
0.00345010724492
0.00456232967641
0.00116339044849
0.000171556460909
2.51181061914e-05
1.3246709442e-05
6.5806913073e-05
0.000452391577749
0.00188985257872
0.00450658301867
0.00484594535371
0.000869235962963
0.000115018741172
2.03523312078e-05
4.29171242123e-05
0.000325544331843
0.00176563926646
0.00522178259402
0.00490673756441
0.000773734547392
9.59460000314e-05
3.89302596059e-05
0.000255377463308
0.00167612936019
0.00564393862625
0.00485714976668
0.000690963375043
9.18337513638e-05
0.000198571014733
0.00152635339436
0.0058589993781
0.0047145311767
0.000592254520923
0.000183496208346
0.00129894354574
0.00590586416842
0.00428139323376
0.000514088433071
0.000980525269318
0.00554185063
0.00333812779083
0.000798232780916
0.0042386811809
0.0020553894299
0.00240681455825
0.000607172977222
0.00289291981026
0.00350282559788
0.00383217085149
0.00411864329847
0.0021418792016
0.00447197307177
0.00453397504028
0.00179340246551
0.00205385776659
0.00481623722594
0.00480019906909
0.00170805582453
0.00117121168169
0.00209374243944
0.00493969238196
0.00495785817497
0.00168662105842
0.000730919403517
0.000896426882493
0.00208061467683
0.00491938028465
0.00503888003841
0.00169462055024
0.000531447803834
0.000327553784348
0.000752521393774
0.00200400670307
0.00474899794095
0.00504157136321
0.0017226472286
0.000462057308376
0.00013129720107
0.000193159467428
0.000674794454398
0.00191753979828
0.00439725811808
0.00487004509914
0.0018173034794
0.000446252327292
8.70844238254e-05
4.42880210262e-05
0.000158625059095
0.000675772117229
0.00192034877139
0.00387214881195
0.00397562817896
0.00221443878605
0.000544010754566
8.88716169096e-05
1.99941516273e-05
3.53130331766e-05
0.000199431893998
0.000907106959477
0.00228472558157
0.00333369409573
0.00440725633197
0.00122620295857
0.000197398801438
3.03526417656e-05
1.63364067509e-05
8.04174157232e-05
0.000504072873
0.00188030861151
0.00433526368627
0.00475096980289
0.000925946477022
0.000133314669783
2.51181021698e-05
5.32483582283e-05
0.000369188046091
0.00177346686076
0.00503004409368
0.00487932880668
0.000836640634506
0.000115018738309
5.03813061261e-05
0.000301592562984
0.00172370801449
0.00546613682955
0.00489147867887
0.000773734543538
0.000118268271314
0.000249789312175
0.00164252339384
0.00573486255377
0.00485714977914
0.000707651070763
0.000252691479419
0.00149925445992
0.00588815680645
0.00474134941685
0.000698488953199
0.0012969288552
0.00590186298406
0.00432153184593
0.00125388213511
0.00541776184744
0.00342820965039
0.00406381880121
0.00227029261984
0.00282076855472
0.00346036367272
0.00388154957589
0.00411759784913
0.0021116544591
0.0045403813593
0.00450836775602
0.00177116725644
0.00204921437459
0.00487519845701
0.00475302658677
0.00169693985298
0.00119375833237
0.00211766389206
0.00498421226031
0.00490364302595
0.00167864652653
0.000771176136934
0.000960327133054
0.00213346878858
0.00493969772596
0.0049765440478
0.00168567773388
0.000558806190723
0.000377559215358
0.000829263210222
0.00208061744441
0.00476195274223
0.00496094065535
0.00171290686635
0.000483938645861
0.000151585435072
0.000233095470606
0.00075252166777
0.00198699362401
0.00437964460164
0.00476878923178
0.00180667659636
0.000473267509187
9.88712463346e-05
5.49776880823e-05
0.000193159443761
0.000751308596703
0.00196152364482
0.00380887384331
0.00385068619784
0.00219465080828
0.000584375988935
0.00010222412162
2.42352414621e-05
4.42879906696e-05
0.000237943991422
0.000971739122436
0.00226753858708
0.00323915651958
0.00426054055025
0.0012737541584
0.000222387294639
3.59972878035e-05
1.99941380988e-05
9.61805349892e-05
0.000552929189688
0.00186907277402
0.0041899558435
0.00463988453602
0.000972406876417
0.000150767520723
3.03526343271e-05
6.41503726776e-05
0.000407810413827
0.00176762168303
0.00486444828877
0.0048203687287
0.000885192257743
0.000133314664265
6.27252265231e-05
0.000342832195681
0.00173873092898
0.00529848028778
0.00487226004007
0.000836640628207
0.000145034085382
0.000298397351445
0.0017032317598
0.00558562373478
0.00489147870716
0.00079808896216
0.00032067187317
0.00162964526539
0.00578921366022
0.00488103000437
0.000854403219896
0.00152390818212
0.00591339876625
0.0047815259312
0.00164084426268
0.00588338654182
0.00439944086516
0.00522643068562
0.00381546883529
0.00272949946641
0.00339847682314
0.003903215615
0.00414787421691
0.00206824516225
0.00460487997804
0.00452006808695
0.00174744920456
0.00202957723548
0.00494766035074
0.004725840184
0.00168438859559
0.00119924567566
0.00213126069165
0.00504895998391
0.00485765451479
0.00167023106025
0.000804825090101
0.00100584795934
0.00216594883011
0.00498421831464
0.00492177841756
0.00167758570314
0.000586682872623
0.000429592081107
0.000900650298842
0.00213347295052
0.00477507922733
0.00489462162121
0.00170391763163
0.000503819922851
0.000174424845802
0.000278887988987
0.00082926373307
0.00205109876652
0.00437764663992
0.00468468860245
0.00179576432902
0.00049706374183
0.00011085787527
6.75652500694e-05
0.000233095427313
0.00082569683674
0.0020011748724
0.00376761067767
0.00374679638138
0.00217281349359
0.000620065114155
0.000115505926153
2.90711880767e-05
5.4977636881e-05
0.000280415640358
0.00103072129451
0.00225407118319
0.00316295267786
0.00412782866556
0.00130991957727
0.000246451032896
4.20120400203e-05
2.42352187748e-05
0.000113103994667
0.000599655597973
0.00185794523038
0.00406349543417
0.00452885049101
0.00101028407584
0.000167338805149
3.59972746909e-05
7.54624058769e-05
0.000442342552658
0.00175676239025
0.00472221436935
0.00474364723682
0.000923621736269
0.000150767510415
7.56406485931e-05
0.000378750177456
0.0017371496247
0.00515027784102
0.00482712800913
0.000885192244765
0.000171556422897
0.000342671043338
0.00172724634314
0.00543794999084
0.00487226007823
0.000869235935072
0.000385588014064
0.00170239992753
0.00565612043472
0.00490673764118
0.000982056358992
0.00167698532719
0.00582929465475
0.00490395963491
0.00191012166627
0.00591274376629
0.00483670689768
0.00572369395371
0.00474802111444
0.00265905154108
0.00331920207115
0.0039051820244
0.00420156595409
0.00200387248009
0.00465327515122
0.00457227025341
0.0017242357496
0.00198690353008
0.0050202167333
0.00472671471201
0.00167106472013
0.00118843818143
0.00212598986421
0.00513063398164
0.00482450084496
0.00166123538165
0.000826813639415
0.00102960917071
0.00218704222609
0.00504896639393
0.00487380393925
0.00166959252279
0.000613456421916
0.000476937740828
0.000953790105044
0.00216595481023
0.00481626496724
0.00483751097378
0.00169541234772
0.000523099316064
0.000201030202516
0.000329355330106
0.000900651220033
0.00209375317704
0.00437713737429
0.00461461310768
0.0017856604667
0.000517991743716
0.000123201023987
8.30571096706e-05
0.000278887911409
0.000896427559682
0.00203560277936
0.00374172008866
0.00365921378649
0.00215211056667
0.000651306371772
0.000128514763078
3.45142947997e-05
6.75651656192e-05
0.000327553038266
0.00108450445001
0.00224264125181
0.00310341090577
0.00401053761186
0.00133819138024
0.000269655084395
4.83443691972e-05
2.90711513476e-05
0.000131296821118
0.000644879131648
0.00184736537539
0.00395104012977
0.00442347211734
0.00104168257881
0.000183247003281
4.20120177427e-05
8.70842355913e-05
0.000474068505714
0.00174517699602
0.00459853523391
0.00466034210684
0.000954892393063
0.000167338786665
8.88715169395e-05
0.000409991566604
0.00172816023305
0.00502281868074
0.00476598639657
0.00092362171177
0.000197398736652
0.000381815112976
0.001731202525
0.00530362291707
0.0048271280696
0.000925946429527
0.000445005880879
0.00173459525522
0.0055176405631
0.00487932894035
0.00108345329553
0.00176675701392
0.0057014460402
0.00490435528046
0.00208285818858
0.00582812255302
0.0049091970562
0.00575748255977
0.00507873623335
0.00259587798327
0.0032957698653
0.003902317585
0.00427347911206
0.00192266182597
0.00469321984513
0.00466480866481
0.00170320585272
0.00191733707778
0.00507786340947
0.00476081071398
0.00166014301061
0.00116250121619
0.00209225167754
0.00521147465058
0.00480879445232
0.00165147760278
0.000834824856115
0.00102948486427
0.0021885826082
0.0051306401328
0.00483428765548
0.00166133238746
0.000635683170317
0.000511685256071
0.000984027366498
0.00218705036626
0.00487522958967
0.00478657408543
0.00168714195998
0.00054216043818
0.000229573308532
0.000377057160448
0.000953791644304
0.0021176802828
0.00441581798216
0.0045558916422
0.0017758775071
0.000536845044385
0.000136715355422
0.000102856448649
0.00032935523755
0.000960328667172
0.00205220741061
0.00371391519767
0.0035845538808
0.00213416394493
0.000678720690748
0.000141216743398
4.06267702285e-05
8.30569673518e-05
0.000377558197211
0.00113198534998
0.0022284313466
0.00305699420031
0.00390847220985
0.00136148116007
0.000292048452483
5.49394651844e-05
3.45142357248e-05
0.000151584831371
0.000689002598599
0.00183700459048
0.00384985230422
0.00432585991989
0.00106867640582
0.000198635053346
4.83443328539e-05
9.88709617648e-05
0.000503410024203
0.00173454729269
0.00448917306532
0.00457768947409
0.000980545873286
0.000183246971391
0.000102223960704
0.000437502175229
0.00171688452317
0.00491190839819
0.00469813098446
0.000954892351848
0.000222387185561
0.000416108363974
0.00172528541449
0.00518613487664
0.0047659864916
0.000972406792978
0.000497831200972
0.00174358866334
0.00538836511212
0.00482036894886
0.00116339031036
0.00181040786837
0.00556143831182
0.00484594561593
0.00217799863827
0.00569076888928
0.00483497002098
0.00564774007278
0.00502259342105
0.00349704978111
0.00354813094803
0.00266519538236
0.00439746526332
0.00180501940537
0.00474353426556
0.00479277679517
0.00168720131959
0.00181920853753
0.00514251979312
0.00483059142816
0.00165366199894
0.00112549863848
0.00202397313806
0.00526704429327
0.0048147695311
0.00164299349229
0.000827982673001
0.00100609785611
0.00216083284887
0.00521148190152
0.00480466687652
0.00165165456776
0.00065033972842
0.000528839943347
0.000988310565235
0.00218859172858
0.00494769354342
0.0047415376406
0.00167857945665
0.000559781425147
0.000255974396116
0.000413095324417
0.000984029791206
0.0021312841625
0.00447203007036
0.00450298509159
0.00176717930172
0.000554900641254
0.000151502499893
0.00012546308535
0.000377057065033
0.00100585088308
0.00205387729826
0.00373320061405
0.00351994937662
0.00211624028911
0.000702394796871
0.000153809135352
4.79243511806e-05
0.000102856215178
0.000429590754221
0.00117121183226
0.0022005696504
0.00301468205937
0.00382041556971
0.00138226848929
0.000313424958545
6.1726474628e-05
4.06266762472e-05
0.000174423898372
0.000730916331815
0.00182681903704
0.00375735058409
0.00423775826386
0.00109340678948
0.000213645964818
5.49394075546e-05
0.000110857430225
0.000531445514501
0.00172508217233
0.00439130874553
0.00449974454671
0.00100277709773
0.000198634999273
0.000115505681491
0.000462055964107
0.00170562339839
0.00481505850905
0.00462965185293
0.000980545806729
0.000246450857413
0.000446251532612
0.00171543635961
0.0050847327553
0.00469813112994
0.00101028394321
0.00054401028465
0.00174061559057
0.00527381072296
0.00474364757923
0.00122620274851
0.0018256837721
0.00542727696061
0.00475097020594
0.00221927383411
0.00553630652842
0.00471201894877
0.00548202616099
0.00480110306983
0.00468274372529
0.00160000516835
0.00398117623549
0.00432059227997
0.00200143386739
0.00161241065705
0.00326370050217
0.00495521468395
0.00167511409393
0.00162845017499
0.00523153767208
0.00493564169323
0.00165255647426
0.00108232488575
0.00191714652667
0.00534672240609
0.00484773877153
0.00163600389578
0.00080781495241
0.000965581035535
0.00209468011604
0.00526704667319
0.0047869210656
0.00164182431675
0.000654100249223
0.000525603906409
0.000966429877015
0.00216084257911
0.00502024478574
0.00470317910117
0.00166892440036
0.000574852952586
0.000275450464595
0.000431111524993
0.000988313901924
0.00212601992555
0.00454044431398
0.00445463359091
0.00175866941073
0.000571958769939
0.000166781931139
0.000147293495536
0.000413095288758
0.00102961421331
0.00204924304793
0.00377647254897
0.00346223804807
0.00210145252262
0.000724865003181
0.000166918170541
5.64244661039e-05
0.000125462730772
0.000476936073911
0.00119375943888
0.0021689887255
0.00298213679855
0.00374535077915
0.001396537002
0.000332886467692
6.88186728322e-05
4.79241979849e-05
0.000201028735688
0.000771172254123
0.00181309877948
0.00366859009394
0.00415973848476
0.00111754917935
0.00022826472267
6.17263843841e-05
0.000123200341187
0.000558802953534
0.00171682511734
0.0043032414576
0.00442952744023
0.0010234349023
0.00021364587884
0.00012851439811
0.00048393674295
0.00169534516557
0.00473032399879
0.00456451743362
0.00100277699509