/*--------------------------------*- C++ -*----------------------------------*\
| =========                 |                                                 |
| \\      /  F ield         | OpenFOAM: The Open Source CFD Toolbox           |
|  \\    /   O peration     | Version:  dev                                   |
|   \\  /    A nd           | Web:      www.OpenFOAM.org                      |
|    \\/     M anipulation  |                                                 |
\*---------------------------------------------------------------------------*/
FoamFile
{
    version     2.0;
    format      ascii;
    class       volScalarField;
    location    "0";
    object      moment.2.mixing;
}
// * * * * * * * * * * * * * * * * * * * * * * * * * * * * * * * * * * * * * //

dimensions      [ 0 0 0 0 0 0 0 ];

internalField   nonuniform List<scalar> 
97190
(
4.62956766207e-05
1.24015219951e-05
4.85182537114e-05
4.67403173962e-05
2.67197700109e-06
1.4822211269e-05
1.42984153235e-05
5.01925422611e-05
5.17082164912e-05
4.6857428368e-05
5.47897261882e-07
3.82233542964e-06
3.80491759898e-06
1.63704950182e-05
2.02151310972e-05
1.45967609106e-05
5.2063299069e-05
5.37555569794e-05
5.22700919639e-05
4.69019641433e-05
1.35543761073e-07
9.48920991867e-07
1.0131793586e-06
4.5707981449e-06
7.39761197598e-06
4.07040263252e-06
1.79080994002e-05
2.2203415277e-05
2.18522869128e-05
1.45688932355e-05
5.40561074283e-05
5.55936656004e-05
6.25169502995e-05
5.23030055878e-05
4.69162492337e-05
5.84381740871e-08
2.58550893388e-07
2.94165749709e-07
1.21370985719e-06
2.69552985883e-06
1.13616297875e-06
5.28630877877e-06
8.68424936968e-06
8.82358190762e-06
4.12613604134e-06
1.9591387424e-05
2.38434840101e-05
2.99221447735e-05
2.1857432309e-05
1.45435622564e-05
5.61925661313e-05
5.7551537283e-05
6.9116416196e-05
6.5851291511e-05
5.23244732867e-05
4.691624924e-05
4.38184778952e-08
9.52655275062e-08
1.0840188951e-07
3.45051711447e-07
1.00882535941e-06
3.48038953136e-07
1.46963747227e-06
3.3707508693e-06
3.62103931851e-06
1.14959568438e-06
6.09177448237e-06
9.6439165196e-06
1.39728667033e-05
8.96133878011e-06
4.12398012634e-06
2.14610452596e-05
2.56629704578e-05
3.47061451285e-05
3.31775190965e-05
2.18393305445e-05
1.45435622541e-05
5.84724364248e-05
5.96267487679e-05
7.19799961714e-05
9.07168100353e-05
6.59900144759e-05
5.23244733048e-05
4.69019641493e-05
4.08754295374e-08
5.53415355008e-08
5.92241266977e-08
1.22825472575e-07
4.00580425209e-07
1.31311108463e-07
4.28450155584e-07
1.35326060732e-06
1.54171750737e-06
3.56088035063e-07
1.76841571286e-06
3.84842792444e-06
6.63922784518e-06
3.71265721673e-06
1.14765861848e-06
7.02108482235e-06
1.07532805379e-05
1.66892809458e-05
1.6372551161e-05
8.96767566329e-06
4.12398013798e-06
2.35500622183e-05
2.76622294079e-05
3.74863218006e-05
6.03450113701e-05
3.3326670518e-05
2.18393305676e-05
1.45688932147e-05
6.0938389945e-05
6.18499880324e-05
7.47256876453e-05
9.53641658686e-05
9.3363232876e-05
6.59900145132e-05
5.23030055843e-05
4.68574283757e-05
4.02229474011e-08
4.47743586681e-08
4.56722044839e-08
6.45297704569e-08
1.77332702773e-07
6.87867808007e-08
1.49095338387e-07
5.7486608799e-07
6.89378999083e-07
1.35539024105e-07
5.2815844422e-07
1.5793306424e-06
3.25358453581e-06
1.61305888622e-06
3.55732128359e-07
2.12773171178e-06
4.42206531014e-06
8.08400249506e-06
8.21827055616e-06
3.71604515348e-06
1.14765862195e-06
8.09712571742e-06
1.20051845491e-05
1.8509582058e-05
3.45583251961e-05
1.6545215812e-05
8.96767570898e-06
4.12613611343e-06
2.58642077583e-05
2.98565316585e-05
4.0408851881e-05
7.23879828939e-05
6.84729742915e-05
3.3326670552e-05
2.1857432298e-05
1.45967609092e-05
6.36533976334e-05
6.42790582334e-05
7.75502623492e-05
9.63570424178e-05
9.90791202563e-05
9.33632329404e-05
6.58512914694e-05
5.22700919562e-05
4.67403174177e-05
4.00600688514e-08
4.16537098181e-08
4.17616115835e-08
4.81652578615e-08
9.3595862743e-08
4.97029298455e-08
7.2923275798e-08
2.65506795454e-07
3.28433926674e-07
7.09543142781e-08
1.81224998235e-07
6.81450415674e-07
1.65259577908e-06
7.41687183018e-07
1.35652885708e-07
6.51986483418e-07
1.85483990937e-06
4.03833133111e-06
4.27614233394e-06
1.61511295415e-06
3.55732130511e-07
2.55931168402e-06
5.09084844296e-06
9.12603541537e-06
1.91247594502e-05
8.35085177296e-06
3.71604519037e-06
1.14959569969e-06
9.31803455987e-06
1.33954357774e-05
2.05341954358e-05
4.59150765726e-05
4.307591414e-05
1.65452158749e-05
8.96133889549e-06
4.07040271033e-06
2.81536266783e-05
3.23093078666e-05
4.36026044138e-05
7.64247945666e-05
9.31958980173e-05
6.84729743906e-05
3.31775190978e-05
2.18522868853e-05
1.42984153606e-05
6.5382656142e-05
6.7310012622e-05
7.84169206424e-05
9.64194004189e-05
9.94631564799e-05
9.90791202729e-05
9.07168100546e-05
6.25169503368e-05
5.1708216526e-05
4.62956766376e-05
4.00142082226e-08
4.062224982e-08
4.05740199712e-08
4.30680194414e-08
6.14609932778e-08
4.34848801623e-08
5.10263517621e-08
1.38462414135e-07
1.71101219899e-07
5.07933591418e-08
8.33420165616e-08
3.16951274521e-07
8.71077680853e-07
3.64419305839e-07
7.11146495958e-08
2.22272812565e-07
8.10759561789e-07
2.09819235722e-06
2.31020567889e-06
7.43745393083e-07
1.35652886818e-07
8.04838012088e-07
2.1844053843e-06
4.61216827792e-06
1.07087502346e-05
4.37472167176e-06
1.61511298071e-06
3.56088043254e-07
3.06423196524e-06
5.84762383968e-06
1.03524148169e-05
2.6902189076e-05
2.55180102992e-05
8.35085183829e-06
3.71265727255e-06
1.13616300947e-06
1.04489480563e-05
1.49882180748e-05
2.28073913735e-05
5.08225500085e-05
7.95988999796e-05
4.30759145007e-05
1.63725513425e-05
8.8235820267e-06
3.8049176861e-06
2.85513660069e-05
3.52074375724e-05
4.57353123456e-05
7.71093552192e-05
9.63271039596e-05
9.31958984652e-05
6.03450117858e-05
2.99221448979e-05
2.02151311845e-05
1.24015220304e-05
6.66092422193e-05
6.98272075777e-05
8.69019683518e-05
9.85935827863e-05
9.94631564917e-05
9.53641659313e-05
6.91164163064e-05
5.375555702e-05
4.85182537312e-05
3.99998661615e-08
4.02473096325e-08
4.01938043515e-08
4.12781367726e-08
4.88291455115e-08
4.1321285994e-08
4.4152903255e-08
8.45494363729e-08
1.00816369161e-07
4.40401343917e-08
5.45614502151e-08
1.64074653649e-07
4.77883769558e-07
1.94601803814e-07
5.09065238316e-08
9.69786723806e-08
3.77506880748e-07
1.13975306555e-06
1.29398156042e-06
3.66531059401e-07
7.11146503038e-08
2.7419909954e-07
9.69387246098e-07
2.41235603021e-06
6.15042216948e-06
2.3854990146e-06
7.43745408747e-07
1.35539028137e-07
9.88036534545e-07
2.56257553171e-06
5.31708920383e-06
1.55301815588e-05
1.50438633888e-05
4.37472173117e-06
1.61305893145e-06
3.48038967734e-07
3.51677084395e-06
6.74072320157e-06
1.17682305561e-05
3.08436570402e-05
6.10022947121e-05
2.55180108281e-05
8.21827071824e-06
3.62103938927e-06
1.01317939797e-06
1.02051162011e-05
1.67909643401e-05
2.48018413358e-05
5.18017270995e-05
8.79630484082e-05
7.95989016463e-05
3.45583261327e-05
1.39728669116e-05
7.39761213696e-06
2.67197704445e-06
3.18960262618e-05
3.92546041141e-05
5.78717982238e-05
9.05169266846e-05
9.63271043925e-05
7.23879837444e-05
3.47061453146e-05
2.22034153629e-05
1.48222113034e-05
6.68353673464e-05
6.9984124365e-05
8.74289384823e-05
9.85935828017e-05
9.63570424842e-05
7.19799963144e-05
5.55936656298e-05
5.01925422768e-05
3.99949835573e-08
4.01008214041e-08
4.00655741713e-08
4.0575617217e-08
4.37358053839e-08
4.05223345641e-08
4.17444446139e-08
6.09021491075e-08
6.8715775071e-08
4.16108928732e-08
4.54477356713e-08
9.77601670672e-08
2.74737585839e-07
1.1562563123e-07
4.41116907796e-08
5.92764159463e-08
1.92796277226e-07
6.47295515087e-07
7.50541964405e-07
1.96564902587e-07
5.09065242571e-08
1.14593121987e-07
4.53589134256e-07
1.31459388287e-06
3.63430493027e-06
1.35134181636e-06
3.66531067736e-07
7.09543167967e-08
3.37855400032e-07
1.15441643909e-06
2.8126122249e-06
9.08015544361e-06
9.01045066819e-06
2.38549906507e-06
7.41687210667e-07
1.31311117216e-07
1.15013914133e-06
3.02021624482e-06
6.15035128922e-06
1.82274986762e-05
4.31213796323e-05
1.50438640206e-05
4.27614249042e-06
1.54171756473e-06
2.94165770829e-07
3.26033500699e-06
7.68589901108e-06
1.32217577958e-05
3.19427937621e-05
7.40289423509e-05
6.10022979789e-05
1.91247604099e-05
6.63922806173e-06
2.69552996956e-06
5.47897283712e-07
1.35126324534e-05
2.07157121239e-05
3.49577940933e-05
7.41660878597e-05
8.79630502315e-05
4.59150781835e-05
1.66892812061e-05
8.68424949297e-06
3.82233549007e-06
3.23832228316e-05
3.97076770746e-05
5.93207885429e-05
9.05169269377e-05
7.64247954304e-05
3.74863220298e-05
2.38434840808e-05
1.63704950625e-05
6.68644654516e-05
6.99783475946e-05
8.74289385047e-05
9.64194004758e-05
7.47256877789e-05
5.75515373189e-05
5.20632990826e-05
3.99932682867e-08
4.00402970283e-08
4.00200644641e-08
4.02737315958e-08
4.16258236886e-08
4.02117117873e-08
4.08013922118e-08
5.01733327865e-08
5.37768163022e-08
4.06765690863e-08
4.22644089028e-08
6.79960842925e-08
1.67609842809e-07
7.78858369378e-08
4.16535245473e-08
4.71984447009e-08
1.11622187e-07
3.84883756036e-07
4.50493292478e-07
1.1729414702e-07
4.4111691072e-08
6.54739207251e-08
2.29675418627e-07
7.48713503741e-07
2.20653899711e-06
7.94644004235e-07
1.96564907785e-07
5.07933607444e-08
1.36666240658e-07
5.4445989862e-07
1.54089845549e-06
5.43658341407e-06
5.51745320141e-06
1.35134185694e-06
3.6441932737e-07
6.87867860451e-08
3.94160758885e-07
1.38297050245e-06
3.2971677329e-06
1.08246728854e-05
2.91814297889e-05
9.01045131787e-06
2.3102058195e-06
6.89379051879e-07
1.08401900475e-07
9.99365215758e-07
3.47932671291e-06
7.09117769618e-06
1.91932137004e-05
5.75008987308e-05
4.31213839948e-05
1.07087511773e-05
3.25358473265e-06
1.00882543484e-06
1.35543770222e-07
5.40263680705e-06
1.07346689854e-05
2.05556000944e-05
5.50177333374e-05
7.40289464476e-05
2.69021909079e-05
8.0840027749e-06
3.37075099302e-06
9.48921018577e-07
1.41012620405e-05
2.12919087861e-05
3.69305128558e-05
7.4166088811e-05
5.08225517197e-05
1.85095823407e-05
9.64391663649e-06
4.57079819494e-06
3.23684500588e-05
3.97109628707e-05
5.93207886052e-05
7.71093559273e-05
4.04088521335e-05
2.5662970528e-05
1.79080994453e-05
6.68661428943e-05
6.99783476046e-05
8.69019683636e-05
7.75502625166e-05
5.96267487974e-05
5.40561074429e-05
3.99932635956e-08
4.0014206148e-08
4.00031449046e-08
4.01346383348e-08
4.07252999249e-08
4.0085851637e-08
4.03947589713e-08
4.51273565611e-08
4.67006896728e-08
4.02962080588e-08
4.10301319233e-08
5.41602451765e-08
1.10231617487e-07
5.9404576706e-08
4.07033947583e-08
4.29736456905e-08
7.4834518179e-08
2.40530496481e-07
2.80769559378e-07
7.91834262876e-08
4.1653524737e-08
4.95375271189e-08
1.2978399231e-07
4.46149257649e-07
1.37418365959e-06
4.84730064203e-07
1.17294151107e-07
4.40401354857e-08
7.34226928648e-08
2.74999030764e-07
8.79029389645e-07
3.34338730401e-06
3.45559364439e-06
7.94644040739e-07
1.94601822009e-07
4.97029331269e-08
1.5655864109e-07
6.58823803222e-07
1.82402562723e-06
6.54926504666e-06
1.94356377166e-05
5.51745385491e-06
1.29398168708e-06
3.28433972219e-07
5.92241325574e-08
3.21273353661e-07
1.59717706365e-06
3.87466682439e-06
1.15741529535e-05
4.20635156456e-05
2.91814346827e-05
6.15042299371e-06
1.65259594816e-06
4.00580477521e-07
5.84381775996e-08
2.13974494461e-06
5.59630890127e-06
1.21323117587e-05
3.8435733117e-05
5.75009049989e-05
1.55301832772e-05
4.03833159981e-06
1.35326070683e-06
2.58550907154e-07
5.88231554229e-06
1.12858123128e-05
2.25418760578e-05
5.50177350845e-05
3.08436591143e-05
9.12603571667e-06
3.84842805963e-06
1.2137098862e-06
1.41062905382e-05
2.13241936847e-05
3.69305129745e-05
5.18017284703e-05
2.05341957355e-05
1.07532806571e-05
5.28630882776e-06
3.23317735514e-05
3.9710962893e-05
5.78717983566e-05
4.36026047113e-05
2.76622294804e-05
1.9591387473e-05
6.68661429005e-05
6.99841243695e-05
7.84169206866e-05
6.18499880708e-05
5.61925661446e-05
3.99984199197e-08
4.00032167584e-08
3.99967090114e-08
4.00670303934e-08
4.0328975417e-08
4.0033181929e-08
4.02051605841e-08
4.26663732349e-08
4.32944994777e-08
4.01335702817e-08
4.05040017397e-08
4.74855598454e-08
7.90475291363e-08
5.0143018418e-08
4.03148563902e-08
4.13430238654e-08
5.76283776699e-08
1.59056434551e-07
1.82956229278e-07
6.03850944785e-08
4.07033949055e-08
4.3939712356e-08
8.39392045983e-08
2.79147492064e-07
8.76138249309e-07
3.07118008038e-07
7.91834290184e-08
4.16108936082e-08
5.26127796633e-08
1.52861452427e-07
5.22920011149e-07
2.11320380239e-06
2.21013680948e-06
4.84730101122e-07
1.15625646086e-07
4.3484882245e-08
8.07795205116e-08
3.33092701877e-07
1.04725359799e-06
4.05824717041e-06
1.29383331592e-05
3.45559429253e-06
7.5054208345e-07
1.71101256655e-07
4.56722075403e-08
1.24504935818e-07
7.56618546628e-07
2.17076810034e-06
7.09539072078e-06
2.97148101373e-05
1.94356427567e-05
3.63430568996e-06
8.71077823763e-07
1.77332738741e-07
4.381847928e-08
8.71291264565e-07
2.97229015591e-06
7.28613710494e-06
2.61920102231e-05
4.20635233938e-05
9.08015694426e-06
2.09819259277e-06
5.74866159663e-07
9.52655344423e-08
2.47038525773e-06
6.07652136986e-06
1.39024094825e-05
3.84357354944e-05
1.82275006481e-05
4.61216855892e-06
1.57933075207e-06
3.4505172773e-07
5.91711953979e-06
1.13429886792e-05
2.25418762433e-05
3.19427954569e-05
1.03524151488e-05
4.42206545486e-06
1.46963750532e-06
1.40719457104e-05
2.13241937124e-05
3.49577943983e-05
2.28073916954e-05
1.20051846732e-05
6.09177453568e-06
3.23317735609e-05
3.97076771151e-05
4.57353125956e-05
2.98565317454e-05
2.14610453068e-05
6.68644654621e-05
6.98272075943e-05
6.42790582483e-05
5.84724364378e-05
4.00327193687e-08
4.00033912039e-08
3.9995494784e-08
4.00330730174e-08
4.0149737847e-08
4.00102489863e-08
4.01109128909e-08
4.14243046181e-08
4.16308153101e-08
4.00609516694e-08
4.0261397543e-08
4.41357275599e-08
6.1894630532e-08
4.53930052976e-08
4.0147871299e-08
4.06524340539e-08
4.93085366392e-08
1.12086163523e-07
1.25683444734e-07
5.08943970755e-08
4.03148565259e-08
4.17801328417e-08
6.22833620832e-08
1.84347896516e-07
5.71956334416e-07
2.0306164717e-07
6.03850966508e-08
4.06765696228e-08
4.52425835151e-08
9.59513777242e-08
3.25332778993e-07
1.37202828487e-06
1.44143607217e-06
3.07118046464e-07
7.78858485549e-08
4.13212873717e-08
5.55081364828e-08
1.82959604581e-07
6.24999791207e-07
2.58016043472e-06
8.67557297092e-06
2.21013744649e-06
4.50493406678e-07
1.00816397686e-07
4.17616131943e-08
6.69460440593e-08
3.77135417488e-07
1.25312605478e-06
4.44415937872e-06
2.06740351893e-05
1.29383381779e-05
2.20653967223e-06
4.77883897179e-07
9.35958867101e-08
4.08754300821e-08
3.77669069609e-07
1.61899226987e-06
4.47481392766e-06
1.77907873984e-05
2.97148185785e-05
5.43658472127e-06
1.13975325125e-06
2.65506847006e-07
5.53415390236e-08
1.0785874116e-06
3.3662693503e-06
8.77794777695e-06
2.61920129914e-05
1.082467464e-05
2.41235628113e-06
6.81450493675e-07
1.22825481194e-07
2.51763917057e-06
6.15017592225e-06
1.39024097338e-05
1.91932153866e-05
5.31708949919e-06
1.85484002425e-06
4.28450174049e-07
5.90176905687e-06
1.13429887127e-05
2.05556005142e-05
1.17682309127e-05
5.09084860228e-06
1.7684157516e-06
1.40719457228e-05
2.12919088473e-05
2.48018416657e-05
1.33954359096e-05
7.02108487703e-06
3.23684500818e-05
3.92546041909e-05
3.23093079599e-05
2.35500622654e-05
6.68353673538e-05
6.73100126204e-05
6.09383899596e-05
4.01913345193e-08
4.00412020733e-08
4.00052119777e-08
4.00175060357e-08
4.0062656546e-08
3.99997823529e-08
4.00615534068e-08
4.07779054518e-08
4.08080630344e-08
4.00263245034e-08
4.0142072e-08
4.23828452532e-08
5.23680158091e-08
4.29029462761e-08
4.00723553541e-08
4.0336087891e-08
4.51400691453e-08
8.44711782357e-08
9.17283347546e-08
4.59777423453e-08
4.0147871443e-08
4.08664247952e-08
5.17416341501e-08
1.29184357766e-07
3.82636286983e-07
1.4101023764e-07
5.08943994275e-08
4.02962084863e-08
4.23847752357e-08
6.86834759153e-08
2.12695583499e-07
9.14211358109e-07
9.57540701332e-07
2.03061685804e-07
5.94045861407e-08
4.05223354893e-08
4.64600200412e-08
1.11908371393e-07
3.88465045311e-07
1.68317764138e-06
5.87897037294e-06
1.44143669233e-06
2.80769666154e-07
6.8715797406e-08
4.05740208462e-08
4.93653653407e-08
2.02769011909e-07
7.46598955219e-07
2.84893653481e-06
1.43526886982e-05
8.67557787143e-06
1.37418430254e-06
2.74737699944e-07
6.14610090597e-08
4.02229476332e-08
1.8201973807e-07
9.09360050848e-07
2.81534796891e-06
1.21818585713e-05
2.06740438344e-05
3.34338844925e-06
6.4729567351e-07
1.38462451332e-07
4.47743605304e-08
5.01034037112e-07
1.92872280711e-06
5.69727784297e-06
1.77907904052e-05
6.54926655989e-06
1.31459406711e-06
3.16951329078e-07
6.45297749823e-08
1.12277036266e-06
3.44723812133e-06
8.77794809036e-06
1.15741544982e-05
2.81261249224e-06
8.1075964885e-07
1.49095348456e-07
2.51729202848e-06
6.15017595989e-06
1.21323122403e-05
6.15035160688e-06
2.18440550978e-06
5.28158465727e-07
5.90176907234e-06
1.12858123967e-05
1.32217581716e-05
5.84762401003e-06
2.12773175547e-06
1.4106290571e-05
2.07157122395e-05
1.49882182227e-05
8.09712577438e-06
3.23832228674e-05
3.52074376822e-05
2.58642077923e-05
6.66092422343e-05
6.36533976486e-05
4.07905814563e-08
4.02493960558e-08
4.00525385525e-08
4.00382567722e-08
4.00325735394e-08
3.99984457849e-08
4.00346511892e-08
4.04097494621e-08
4.03711027583e-08
4.00083346706e-08
4.00800382907e-08
4.1425318676e-08
4.7034722933e-08
4.15697844468e-08
4.00351067429e-08
4.01815911133e-08
4.29704078491e-08
6.79123703687e-08
7.13914478576e-08
4.33562229194e-08
4.0072355527e-08
4.04476707509e-08
4.64442985862e-08
9.63732178724e-08
2.63023223699e-07
1.03345922927e-07
4.59777451069e-08
4.01335706498e-08
4.11697258845e-08
5.52377666252e-08
1.46911687662e-07
6.24767139994e-07
6.49098840568e-07
1.41010280561e-07
5.0143026804e-08
4.02117124292e-08
4.29283677421e-08
7.73550598052e-08
2.52411575368e-07
1.1261377529e-06
4.03029971597e-06
9.57541298737e-07
1.82956332498e-07
5.37768334612e-08
4.01938048491e-08
4.35947360151e-08
1.20831188366e-07
4.60314655488e-07
1.86933161652e-06
1.00174590164e-05
5.87897516114e-06
8.76138842274e-07
1.67609942081e-07
4.88291558275e-08
4.00600689604e-08
1.02284295451e-07
5.29528249317e-07
1.81554016696e-06
8.45483196835e-06
1.43526972538e-05
2.11320484897e-06
3.84883894448e-07
8.45494632014e-08
4.16537108715e-08
2.54277861956e-07
1.14591442876e-06
3.80338316898e-06
1.21818617556e-05
4.05824849631e-06
7.48713653171e-07
1.64074692567e-07
4.81652603286e-08
5.36439347061e-07
2.00940189336e-06
5.69727821248e-06
7.09539211803e-06
1.54089865469e-06
3.77506940894e-07
7.29232810612e-08
1.12918975346e-06
3.44723816307e-06
7.28613759922e-06
3.29716801741e-06
9.69387340658e-07
1.81225009945e-07
2.51729204258e-06
6.07652146874e-06
7.09117805515e-06
2.562575669e-06
6.51986508197e-07
5.91711957696e-06
1.07346691291e-05
6.74072339215e-06
2.55931173376e-06
1.41012620866e-05
1.67909645097e-05
9.31803461091e-06
3.18960263157e-05
2.81536267047e-05
6.5382656154e-05
4.2991894583e-08
4.11407061497e-08
4.01982262842e-08
4.02271309883e-08
4.0062824159e-08
4.00100896159e-08
4.00407183328e-08
4.02217329379e-08
4.01693530414e-08
4.00010471594e-08
4.00450496376e-08
4.08456042797e-08
4.3823600832e-08
4.07977469201e-08
4.00145960002e-08
4.01019127998e-08
4.17942360798e-08
5.77920578053e-08
5.91127493749e-08
4.19116407867e-08
4.00351069297e-08
4.02428384943e-08
4.36904795501e-08
7.64547632155e-08
1.8655093213e-07
8.01420644502e-08
4.33562264816e-08
4.00609520262e-08
4.06093187408e-08
4.84059147e-08
1.07656606465e-07
4.37976583665e-07
4.49587414087e-07
1.03345969577e-07
4.53930129284e-08
4.00858520959e-08
4.1424436592e-08
6.00698848133e-08
1.72266190894e-07
7.72432749005e-07
2.79572341686e-06
6.4909942386e-07
1.2568354585e-07
4.67007029069e-08
4.0065574465e-08
4.15200839764e-08
8.13569375325e-08
2.94972401566e-07
1.25487733692e-06
7.05616642383e-06
4.03030438274e-06
5.71956888643e-07
1.10231703927e-07
4.37358122029e-08
4.00142082793e-08
6.85977403153e-08
3.21760443622e-07
1.19992079837e-06
5.9610651975e-06
1.00174674166e-05
1.37202928545e-06
2.40530620986e-07
6.09021684945e-08
4.06222504525e-08
1.44674447844e-07
7.07117518935e-07
2.60939938567e-06
8.45483528331e-06
2.58016161218e-06
4.46149386271e-07
9.77601952011e-08
4.30680208889e-08
2.80368049913e-07
1.22133058093e-06
3.80338359715e-06
4.44416064575e-06
8.79029544777e-07
1.92796319303e-07
5.10263545837e-08
5.44577761603e-07
2.00940193941e-06
4.47481442446e-06
1.82402587004e-06
4.53589200484e-07
8.33420227729e-08
1.12918976591e-06
3.36626945583e-06
3.87466714287e-06
1.15441654176e-06
2.22272826069e-07
2.51763920411e-06
5.59630906023e-06
3.02021640208e-06
8.04838040466e-07
5.88231559291e-06
7.68589918981e-06
3.06423201939e-06
1.35126325307e-05
1.04489481053e-05
2.855136604e-05
5.2360783122e-08
4.45733949976e-08
4.05892303348e-08
4.12209319258e-08
4.02715097762e-08
4.00291715877e-08
4.02059274062e-08
4.01587654711e-08
4.0083200425e-08
4.00036318197e-08
4.00380146585e-08
4.05162376575e-08
4.20835556337e-08
4.04028881016e-08
4.00046788576e-08
4.00569264888e-08
4.10920118064e-08
5.10768253669e-08
5.11246708949e-08
4.10394240968e-08
4.00145961951e-08
4.01370939483e-08
4.22059192643e-08
6.41154981113e-08
1.37070163955e-07
6.56487119093e-08
4.19116447413e-08
4.00263248399e-08
4.03330948794e-08
4.48237657852e-08
8.37775471523e-08
3.15342045581e-07
3.18450315927e-07
8.01421158897e-08
4.29029539937e-08
4.00331822675e-08
4.0732917139e-08
5.11650524588e-08
1.24043989134e-07
5.43414269056e-07
1.96203901599e-06
4.49588004344e-07
9.17284284285e-08
4.32945096789e-08
4.00200646427e-08
4.06993504147e-08
6.18306735416e-08
1.97549269096e-07
8.61555686565e-07
5.02555990394e-06
2.79572801817e-06
3.8263683741e-07
7.90476035641e-08
4.16258282585e-08
3.99998661934e-08
5.37671709501e-08
2.0570008587e-07
8.12467007223e-07
4.27100846359e-06
7.05617473052e-06
9.14212321248e-07
1.59056548874e-07
5.01733469516e-08
4.02473100385e-08
9.37449158586e-08
4.53952216404e-07
1.83687945326e-06
5.96106864479e-06
1.68317873097e-06
2.79147608617e-07
6.79961046172e-08
4.12781376835e-08
1.63224111968e-07
7.74951074112e-07
2.60939987149e-06
2.84893768195e-06
5.22920142899e-07
1.11622216622e-07
4.41529048645e-08
2.88009759003e-07
1.22133063278e-06
2.81534845924e-06
1.04725378883e-06
2.29675464862e-07
5.45614535034e-08
5.44577772447e-07
1.92872291561e-06
2.17076837599e-06
5.44459972007e-07
9.69786796427e-08
1.12277039422e-06
2.97229031218e-06
1.38297061943e-06
2.74199114965e-07
2.47038530495e-06
3.47932686554e-06
9.88036566423e-07
5.40263688755e-06
3.51677090211e-06
1.02051162526e-05
1.00400119338e-07
5.82204417421e-08
4.25658438481e-08
4.57852943733e-08
4.11838077365e-08
3.99438478669e-08
4.13115945774e-08
4.03628860606e-08
4.01026334923e-08
4.00013012311e-08
4.01635906885e-08
4.03565592136e-08
4.11466738973e-08
4.01981644665e-08
4.00048177723e-08
4.00373232652e-08
4.06890226205e-08
4.69648951456e-08
4.64698137599e-08
4.05641634812e-08
4.00046789379e-08
4.00776826704e-08
4.13360587356e-08
5.58265478268e-08
1.02533775338e-07
5.58033402048e-08
4.10394285809e-08
4.00083349263e-08
4.01894902344e-08
4.28821210088e-08
6.89762055912e-08
2.33583402836e-07
2.31262300939e-07
6.56487674576e-08
4.15697920142e-08
4.00102492236e-08
4.03943875516e-08
4.64369511146e-08
9.45006746169e-08
3.92512791427e-07
1.39288414729e-06
3.18450919907e-07
7.13915345422e-08
4.16308232745e-08
4.00031450142e-08
4.0344396246e-08
5.19016770439e-08
1.39093899927e-07
6.05189249789e-07
3.62185726229e-06
1.96204361701e-06
2.63023763055e-07
6.18946932192e-08
4.0725303009e-08
3.99949835773e-08
4.69467274478e-08
1.39496470777e-07
5.63507373014e-07
3.10868539006e-06
5.02556814241e-06
6.24768073104e-07
1.12086273626e-07
4.51273670878e-08
4.01008216703e-08
6.89334295226e-08
3.03774951812e-07
1.32368828004e-06
4.27101207185e-06
1.12613879132e-06
1.84348003736e-07
5.41602600441e-08
4.05756178243e-08
1.06819864831e-07
5.13435790581e-07
1.836880006e-06
1.86933268031e-06
3.25332895152e-07
7.48345393267e-08
4.17444455931e-08
1.69663573319e-07
7.74951134142e-07
1.81554064538e-06
6.24999948796e-07
1.29784025116e-07
4.54477374917e-08
2.88009768932e-07
1.1459145353e-06
1.25312628306e-06
2.74999081908e-07
5.92764198072e-08
5.3643937629e-07
1.61899241484e-06
6.58823886025e-07
1.1459313042e-07
1.07858745414e-06
1.59717718441e-06
3.37855417945e-07
2.13974500911e-06
1.15013917557e-06
3.26033505458e-06
3.89409373176e-07
1.18654517146e-07
5.82304498151e-08
6.67197609048e-08
4.55810699597e-08
3.98817554888e-08
4.77102060706e-08
4.20175767013e-08
4.05104348151e-08
3.98349469189e-08
4.12863574059e-08
4.05658255519e-08
4.07364644766e-08
4.0126854176e-08
4.00004097898e-08
4.01157410401e-08
4.04855629304e-08
4.44448285211e-08
4.37538667712e-08
4.02963847058e-08
4.00048173683e-08
4.00450720378e-08
4.08383222291e-08
5.05749312219e-08
8.0488061229e-08
4.97577324933e-08
4.05641681518e-08
4.0001046971e-08
4.01093549309e-08
4.17527729999e-08
5.91353108726e-08
1.74635358789e-07
1.68420463011e-07
5.58034013922e-08
4.07977538342e-08
3.99997823674e-08
4.02201114286e-08
4.38485998252e-08
7.60929597441e-08
2.91311355349e-07
1.00267985819e-06
2.31262916074e-07
5.9112830694e-08
4.08080690709e-08
3.99967090502e-08
4.01785988213e-08
4.67061711554e-08
1.03459459395e-07
4.35504842998e-07
2.64203757905e-06
1.39288874544e-06
1.86551446933e-07
5.23680683498e-08
4.03289774566e-08
3.99932682982e-08
4.36679689419e-08
1.0096182643e-07
4.00568467554e-07
2.29796609129e-06
3.62186561818e-06
4.37977512108e-07
8.44712850837e-08
4.26663811345e-08
4.00402972061e-08
5.62611068942e-08
2.12204002444e-07
9.7411595895e-07
3.1086891794e-06
7.72433761804e-07
1.29184458738e-07
4.74855712078e-08
4.02737320146e-08
7.81910755791e-08
3.55103973852e-07
1.32368890448e-06
1.25487834874e-06
2.12695689429e-07
5.76283928712e-08
4.08013928473e-08
1.12017419987e-07
5.1343585934e-07
1.19992126922e-06
3.88465179725e-07
8.39392278875e-08
4.22644099735e-08
1.69663583564e-07
7.07117626342e-07
7.46599148871e-07
1.52861489074e-07
4.71984468265e-08
2.80368075457e-07
9.09360178169e-07
3.33092760469e-07
6.54739252555e-08
5.0103407364e-07
7.56618637982e-07
1.36666250582e-07
8.71291313039e-07
3.94160778819e-07
9.99365247223e-07
2.04158548894e-06
3.95121299363e-07
1.84360667729e-07
1.70907149025e-07
7.20086406063e-08
4.51052983389e-08
8.49383624234e-08
5.37658124291e-08
4.39940607813e-08
3.93009329599e-08
4.96518391604e-08
4.34200404309e-08
4.1700902742e-08
4.03947423283e-08
3.98181468998e-08
4.11680142299e-08
4.08167553667e-08
4.30276405331e-08
4.22274367826e-08
4.01820943108e-08
4.00004090143e-08
4.00729710111e-08
4.05863833875e-08
4.72226357702e-08
6.64811684286e-08
4.59951123941e-08
4.02963887004e-08
4.00036297834e-08
4.00625305414e-08
4.1101313975e-08
5.28615236895e-08
1.34815068126e-07
1.26844373377e-07
4.97577977243e-08
4.04028938778e-08
3.99984443696e-08
4.01255339787e-08
4.23503732152e-08
6.39459383491e-08
2.18425760238e-07
7.1617160813e-07
1.68421092068e-07
5.11247458677e-08
4.03711069501e-08
3.99954942976e-08
4.00960021025e-08
4.39072577658e-08
8.1423985632e-08
3.21468472077e-07
1.95202211861e-06
1.00268446532e-06
1.37070657624e-07
4.70347668923e-08
4.01497391922e-08
3.99932634959e-08
4.20211651397e-08
7.80962201574e-08
2.92251876645e-07
1.72448327554e-06
2.64204618372e-06
3.15342981026e-07
6.79124713959e-08
4.14243105988e-08
4.00142062641e-08
4.94932257331e-08
1.54922664787e-07
7.31110180939e-07
2.29797009612e-06
5.43415265282e-07
9.63733145939e-08
4.41357364963e-08
4.01346386324e-08
6.28732615751e-08
2.56004091364e-07
9.74116661878e-07
8.61556669309e-07
1.46911785742e-07
4.93085477746e-08
4.03947594094e-08
8.23257160487e-08
3.55104052206e-07
8.12467477329e-07
2.52411694572e-07
6.22833786972e-08
4.1030132594e-08
1.12017430387e-07
4.53952324952e-07
4.60314822951e-07
9.59514040792e-08
4.29736469272e-08
1.63224134315e-07
5.2952836236e-07
1.82959647253e-07
4.95375296166e-08
2.54277889029e-07
3.77135483575e-07
7.34226982592e-08
3.77669104545e-07
1.56558652361e-07
3.21273371445e-07
1.97634900229e-06
1.3945431054e-06
6.04812843342e-06
7.01037540487e-07
2.47004157843e-07
1.21949117526e-07
3.15565640682e-07
1.41431019078e-07
7.54989424046e-08
4.13843894092e-08
1.11285274948e-07
6.9729285809e-08
5.56355226958e-08
4.39088691846e-08
3.9139341703e-08
5.15424384602e-08
4.63591596258e-08
4.42845436437e-08
4.22053388463e-08
4.03969326135e-08
3.98181542045e-08
4.09232425477e-08
4.11528712479e-08
4.52528737182e-08
5.76674399173e-08
4.37611186913e-08
4.01820937179e-08
4.00012971485e-08
4.00431374844e-08
4.07606115811e-08
4.88334175623e-08
1.07848982954e-07
9.93084325567e-08
4.59951771441e-08
4.01981679756e-08
4.00100814417e-08
4.00713825163e-08
4.14775034123e-08
5.61363450772e-08
1.68336712933e-07
5.20299185028e-07
1.26845030543e-07
4.64698823672e-08
4.01693553817e-08
4.00052067098e-08
4.00525069556e-08
4.23387143053e-08
6.7229183417e-08
2.4021297882e-07
1.434075945e-06
7.16176247044e-07
1.02534242256e-07
4.38236360535e-08
4.00626570816e-08
3.99984183157e-08
4.1158165082e-08
6.42817059315e-08
2.19292774676e-07
1.31365118612e-06
1.95203100974e-06
2.33584351533e-07
5.77921530087e-08
4.07779101655e-08
4.00032167397e-08
4.57272798254e-08
1.1821510597e-07
5.59163663633e-07
1.7244875887e-06
3.92513801434e-07
7.64548578033e-08
4.23828524802e-08
4.00670306229e-08
5.4260811601e-08
1.91932076815e-07
7.31110971806e-07
6.05190214596e-07
1.07656698151e-07
4.5140077511e-08
4.0205160901e-08
6.61710040707e-08
2.56004180733e-07
5.6350784897e-07
1.72266300006e-07
5.17416460739e-08
4.05040021812e-08
8.2325726451e-08
3.03775061356e-07
2.94972549896e-07
6.86834948572e-08
4.13430246253e-08
1.06819884418e-07
3.21760543687e-07
1.11908402734e-07
4.39397138106e-08
1.44674468637e-07
2.02769059671e-07
5.2612782682e-08
1.82019761796e-07
8.07795268462e-08
1.24504945278e-07
3.79959407103e-06
1.98283163565e-06
9.44960463576e-06
2.01226014738e-06
6.13448477526e-06
7.5784358686e-06
3.50927253984e-05
1.73864127052e-06
7.656093266e-07
3.50248687075e-07
1.05727330233e-07
5.78958959767e-07
3.03499040371e-07
2.09225858417e-07
8.39745907914e-08
4.03019688115e-08
1.46743031203e-07
1.08298251438e-07
7.42724320642e-08
5.33363587147e-08
4.38359039088e-08
3.91393836524e-08
5.27255244606e-08
5.19312410524e-08
4.78141029933e-08
5.38968945763e-08
4.34316373136e-08
4.03969044474e-08