/*--------------------------------*- C++ -*----------------------------------*\
| =========                 |                                                 |
| \\      /  F ield         | OpenFOAM: The Open Source CFD Toolbox           |
|  \\    /   O peration     | Version:  dev                                   |
|   \\  /    A nd           | Web:      www.OpenFOAM.org                      |
|    \\/     M anipulation  |                                                 |
\*---------------------------------------------------------------------------*/
FoamFile
{
    version     2.0;
    format      ascii;
    class       volScalarField;
    location    "0";
    object      moment.1.mixing;
}
// * * * * * * * * * * * * * * * * * * * * * * * * * * * * * * * * * * * * * //

dimensions      [ 0 0 0 0 0 0 0 ];

internalField   nonuniform List<scalar> 
97190
(
0.000199979999999
0.000199979999998
0.000199979999999
0.000199979999999
0.000199979999997
0.000199979999998
0.000199979999998
0.000199979999999
0.000199979999999
0.000199979999999
0.000199979999996
0.000199979999998
0.000199979999998
0.000199979999999
0.000199979999999
0.000199979999998
0.000199979999999
0.000199979999999
0.000199979999999
0.000199979999999
0.000199979999995
0.000199979999997
0.000199979999997
0.000199979999998
0.000199979999998
0.000199979999998
0.000199979999999
0.000199979999999
0.000199979999999
0.000199979999998
0.000199979999999
0.000199979999999
0.000199979999999
0.000199979999999
0.000199979999999
0.000199979999994
0.000199979999996
0.000199979999996
0.000199979999997
0.000199979999997
0.000199979999997
0.000199979999998
0.000199979999998
0.000199979999998
0.000199979999998
0.000199979999999
0.000199979999999
0.000199979999999
0.000199979999999
0.000199979999998
0.000199979999999
0.000199979999999
0.000199979999999
0.000199979999999
0.000199979999999
0.000199979999999
0.000199979999993
0.000199979999995
0.000199979999995
0.000199979999996
0.000199979999997
0.000199979999996
0.000199979999997
0.000199979999998
0.000199979999998
0.000199979999997
0.000199979999998
0.000199979999998
0.000199979999999
0.000199979999998
0.000199979999998
0.000199979999999
0.000199979999999
0.000199979999999
0.000199979999999
0.000199979999999
0.000199979999998
0.000199979999999
0.000199979999999
0.000199979999999
0.000199979999999
0.000199979999999
0.000199979999999
0.000199979999999
0.000199979999993
0.000199979999994
0.000199979999994
0.000199979999995
0.000199979999996
0.000199979999996
0.000199979999996
0.000199979999997
0.000199979999997
0.000199979999996
0.000199979999997
0.000199979999998
0.000199979999998
0.000199979999998
0.000199979999997
0.000199979999998
0.000199979999998
0.000199979999999
0.000199979999999
0.000199979999998
0.000199979999998
0.000199979999999
0.000199979999999
0.000199979999999
0.000199979999999
0.000199979999999
0.000199979999999
0.000199979999998
0.000199979999999
0.000199979999999
0.000199979999999
0.000199979999999
0.000199979999999
0.000199979999999
0.000199979999999
0.000199979999999
0.000199979999991
0.000199979999994
0.000199979999994
0.000199979999995
0.000199979999996
0.000199979999995
0.000199979999996
0.000199979999997
0.000199979999997
0.000199979999996
0.000199979999997
0.000199979999997
0.000199979999998
0.000199979999997
0.000199979999996
0.000199979999997
0.000199979999998
0.000199979999998
0.000199979999998
0.000199979999998
0.000199979999997
0.000199979999998
0.000199979999999
0.000199979999999
0.000199979999999
0.000199979999999
0.000199979999998
0.000199979999998
0.000199979999999
0.000199979999999
0.000199979999999
0.000199979999999
0.000199979999999
0.000199979999999
0.000199979999999
0.000199979999998
0.000199979999999
0.000199979999999
0.000199979999999
0.000199979999999
0.000199979999999
0.000199979999999
0.000199979999999
0.000199979999999
0.000199979999999
0.000199979999985
0.000199979999992
0.000199979999993
0.000199979999994
0.000199979999995
0.000199979999994
0.000199979999995
0.000199979999996
0.000199979999996
0.000199979999995
0.000199979999996
0.000199979999997
0.000199979999998
0.000199979999997
0.000199979999996
0.000199979999997
0.000199979999998
0.000199979999998
0.000199979999998
0.000199979999997
0.000199979999996
0.000199979999998
0.000199979999998
0.000199979999998
0.000199979999999
0.000199979999998
0.000199979999998
0.000199979999997
0.000199979999998
0.000199979999999
0.000199979999999
0.000199979999999
0.000199979999999
0.000199979999999
0.000199979999998
0.000199979999998
0.000199979999999
0.000199979999999
0.000199979999999
0.000199979999999
0.000199979999999
0.000199979999999
0.000199979999999
0.000199979999999
0.000199979999998
0.000199979999999
0.000199979999999
0.000199979999999
0.000199979999999
0.000199979999999
0.000199979999999
0.000199979999999
0.000199979999999
0.000199979999999
0.000199979999999
0.000199979999971
0.000199979999982
0.000199979999991
0.000199979999993
0.000199979999994
0.000199979999994
0.000199979999994
0.000199979999996
0.000199979999996
0.000199979999995
0.000199979999995
0.000199979999996
0.000199979999997
0.000199979999997
0.000199979999995
0.000199979999996
0.000199979999997
0.000199979999998
0.000199979999998
0.000199979999997
0.000199979999996
0.000199979999997
0.000199979999998
0.000199979999998
0.000199979999999
0.000199979999998
0.000199979999997
0.000199979999996
0.000199979999998
0.000199979999998
0.000199979999999
0.000199979999999
0.000199979999999
0.000199979999998
0.000199979999998
0.000199979999997
0.000199979999998
0.000199979999999
0.000199979999999
0.000199979999999
0.000199979999999
0.000199979999999
0.000199979999999
0.000199979999998
0.000199979999998
0.000199979999999
0.000199979999999
0.000199979999999
0.000199979999999
0.000199979999999
0.000199979999999
0.000199979999999
0.000199979999999
0.000199979999999
0.000199979999998
0.000199979999999
0.000199979999999
0.000199979999999
0.000199979999999
0.000199979999999
0.000199979999999
0.000199979999999
0.000199979999999
0.000199979999999
0.000199980000469
0.000199979999941
0.000199979999982
0.000199979999982
0.000199979999992
0.000199979999993
0.000199979999994
0.000199979999995
0.000199979999995
0.000199979999994
0.000199979999995
0.000199979999996
0.000199979999997
0.000199979999996
0.000199979999995
0.000199979999995
0.000199979999997
0.000199979999997
0.000199979999998
0.000199979999997
0.000199979999995
0.000199979999996
0.000199979999997
0.000199979999998
0.000199979999998
0.000199979999998
0.000199979999997
0.000199979999996
0.000199979999997
0.000199979999998
0.000199979999998
0.000199979999999
0.000199979999999
0.000199979999998
0.000199979999997
0.000199979999996
0.000199979999998
0.000199979999998
0.000199979999999
0.000199979999999
0.000199979999999
0.000199979999999
0.000199979999998
0.000199979999998
0.000199979999997
0.000199979999998
0.000199979999999
0.000199979999999
0.000199979999999
0.000199979999999
0.000199979999999
0.000199979999999
0.000199979999999
0.000199979999998
0.000199979999997
0.000199979999999
0.000199979999999
0.000199979999999
0.000199979999999
0.000199979999999
0.000199979999999
0.000199979999999
0.000199979999999
0.000199979999998
0.000199979999999
0.000199979999999
0.000199979999999
0.000199979999999
0.000199979999999
0.000199979999999
0.000199979999999
0.000199979999999
0.000199980012811
0.000199980000468
0.000199980000051
0.000199979999851
0.000199979999983
0.000199979999991
0.000199979999994
0.000199979999993
0.000199979999995
0.000199979999994
0.000199979999994
0.000199979999996
0.000199979999997
0.000199979999996
0.000199979999994
0.000199979999995
0.000199979999996
0.000199979999997
0.000199979999997
0.000199979999996
0.000199979999995
0.000199979999996
0.000199979999997
0.000199979999998
0.000199979999998
0.000199979999998
0.000199979999997
0.000199979999995
0.000199979999996
0.000199979999997
0.000199979999998
0.000199979999999
0.000199979999999
0.000199979999998
0.000199979999997
0.000199979999996
0.000199979999997
0.000199979999998
0.000199979999998
0.000199979999999
0.000199979999999
0.000199979999999
0.000199979999998
0.000199979999997
0.000199979999996
0.000199979999998
0.000199979999998
0.000199979999999
0.000199979999999
0.000199979999999
0.000199979999999
0.000199979999999
0.000199979999998
0.000199979999998
0.000199979999996
0.000199979999999
0.000199979999999
0.000199979999999
0.000199979999999
0.000199979999999
0.000199979999999
0.000199979999999
0.000199979999998
0.000199979999998
0.000199979999999
0.000199979999999
0.000199979999999
0.000199979999999
0.000199979999999
0.000199979999999
0.000199979999999
0.000199979999999
0.000199979999999
0.000199979999999
0.000199979999999
0.000199979999999
0.000199979999999
0.000199979999999
0.000199979999999
0.000199980188155
0.000199980015007
0.00019998000267
0.000199979998813
0.000199980000047
0.000199979999994
0.000199979999955
0.000199979999973
0.000199979999993
0.000199979999994
0.000199979999995
0.000199979999995
0.000199979999996
0.000199979999995
0.000199979999994
0.000199979999994
0.000199979999996
0.000199979999997
0.000199979999997
0.000199979999996
0.000199979999994
0.000199979999995
0.000199979999996
0.000199979999997
0.000199979999998
0.000199979999997
0.000199979999996
0.000199979999995
0.000199979999996
0.000199979999997
0.000199979999998
0.000199979999998
0.000199979999998
0.000199979999998
0.000199979999997
0.000199979999995
0.000199979999997
0.000199979999997
0.000199979999998
0.000199979999999
0.000199979999999
0.000199979999999
0.000199979999998
0.000199979999997
0.000199979999995
0.000199979999997
0.000199979999998
0.000199979999998
0.000199979999999
0.000199979999999
0.000199979999999
0.000199979999999
0.000199979999998
0.000199979999997
0.000199979999995
0.000199979999998
0.000199979999999
0.000199979999999
0.000199979999999
0.000199979999999
0.000199979999999
0.000199979999998
0.000199979999998
0.000199979999997
0.000199979999999
0.000199979999999
0.000199979999999
0.000199979999999
0.000199979999999
0.000199979999999
0.000199979999998
0.000199979999998
0.000199979999999
0.000199979999999
0.000199979999999
0.000199979999999
0.000199979999999
0.000199979999999
0.000199979999999
0.000199979999999
0.000199979999999
0.000199979999999
0.000199979999999
0.000199979999999
0.000199979999999
0.00019998191638
0.000199980210723
0.00019998004579
0.000199979995682
0.00019998000228
0.00019998000028
0.000199979999338
0.000199979999809
0.000199979999997
0.000199980000001
0.000199979999991
0.00019997999999
0.000199979999994
0.000199979999995
0.000199979999994
0.000199979999995
0.000199979999996
0.000199979999997
0.000199979999997
0.000199979999996
0.000199979999994
0.000199979999994
0.000199979999996
0.000199979999997
0.000199979999998
0.000199979999997
0.000199979999996
0.000199979999994
0.000199979999995
0.000199979999996
0.000199979999997
0.000199979999998
0.000199979999998
0.000199979999997
0.000199979999996
0.000199979999994
0.000199979999996
0.000199979999997
0.000199979999998
0.000199979999998
0.000199979999999
0.000199979999998
0.000199979999998
0.000199979999996
0.000199979999995
0.000199979999996
0.000199979999997
0.000199979999998
0.000199979999999
0.000199979999999
0.000199979999999
0.000199979999998
0.000199979999998
0.000199979999996
0.000199979999994
0.000199979999998
0.000199979999998
0.000199979999999
0.000199979999999
0.000199979999999
0.000199979999999
0.000199979999998
0.000199979999997
0.000199979999996
0.000199979999998
0.000199979999999
0.000199979999999
0.000199979999999
0.000199979999999
0.000199979999998
0.000199979999998
0.000199979999997
0.000199979999999
0.000199979999999
0.000199979999999
0.000199979999999
0.000199979999999
0.000199979999998
0.000199979999998
0.000199979999999
0.000199979999999
0.000199979999999
0.000199979999999
0.000199979999999
0.000199979999999
0.000199979999999
0.000199979999999
0.000199979999999
0.000199979999999
0.000199979999999
0.000199995559758
0.000199982081205
0.000199980518113
0.00019998004054
0.000199980034784
0.000199980005999
0.000199979994516
0.000199979999154
0.000199980000189
0.000199979999991
0.000199979999722
0.00019997999991
0.000199979999979
0.000199979999997
0.000199980000007
0.000199980000003
0.000199979999995
0.000199979999996
0.000199979999996
0.000199979999995
0.000199979999994
0.000199979999994
0.000199979999996
0.000199979999997
0.000199979999997
0.000199979999997
0.000199979999996
0.000199979999994
0.000199979999995
0.000199979999996
0.000199979999997
0.000199979999998
0.000199979999998
0.000199979999997
0.000199979999996
0.000199979999994
0.000199979999995
0.000199979999997
0.000199979999998
0.000199979999998
0.000199979999999
0.000199979999998
0.000199979999997
0.000199979999996
0.000199979999994
0.000199979999996
0.000199979999997
0.000199979999998
0.000199979999998
0.000199979999999
0.000199979999999
0.000199979999998
0.000199979999997
0.000199979999996
0.000199979999994
0.000199979999997
0.000199979999998
0.000199979999998
0.000199979999999
0.000199979999999
0.000199979999999
0.000199979999998
0.000199979999997
0.000199979999995
0.000199979999998
0.000199979999998
0.000199979999999
0.000199979999999
0.000199979999999
0.000199979999998
0.000199979999997
0.000199979999996
0.000199979999998
0.000199979999999
0.000199979999999
0.000199979999999
0.000199979999999
0.000199979999998
0.000199979999997
0.000199979999999
0.000199979999999
0.000199979999999
0.000199979999999
0.000199979999999
0.000199979999998
0.000199979999999
0.000199979999999
0.000199979999999
0.000199979999999
0.000199979999999
0.000199979999999
0.000199979999999
0.000199979999999
0.000199979999999
0.000200081353458
0.000199996878216
0.000199984585453
0.000199980906468
0.000199980370413
0.000199980086743
0.000199979986851
0.000199980003771
0.000199980002972
0.000199979998828
0.000199979995949
0.000199979999256
0.000199979999912
0.000199980000034
0.000199979999997
0.000199979999977
0.000199979999963
0.00019997999999
0.000199979999995
0.000199979999998
0.000199980000007
0.000199980000001
0.000199979999996
0.000199979999997
0.000199979999997
0.000199979999997
0.000199979999995
0.000199979999994
0.000199979999994
0.000199979999996
0.000199979999997
0.000199979999998
0.000199979999998
0.000199979999997
0.000199979999995
0.000199979999993
0.000199979999995
0.000199979999996
0.000199979999997
0.000199979999998
0.000199979999999
0.000199979999998
0.000199979999997
0.000199979999996
0.000199979999993
0.000199979999995
0.000199979999997
0.000199979999998
0.000199979999998
0.000199979999999
0.000199979999999
0.000199979999998
0.000199979999997
0.000199979999995
0.000199979999993
0.000199979999997
0.000199979999998
0.000199979999998
0.000199979999999
0.000199979999999
0.000199979999998
0.000199979999997
0.000199979999996
0.000199979999994
0.000199979999997
0.000199979999998
0.000199979999999
0.000199979999999
0.000199979999999
0.000199979999998
0.000199979999997
0.000199979999995
0.000199979999998
0.000199979999998
0.000199979999999
0.000199979999999
0.000199979999998
0.000199979999998
0.000199979999996
0.000199979999998
0.000199979999999
0.000199979999999
0.000199979999999
0.000199979999998
0.000199979999997
0.000199979999999
0.000199979999999
0.000199979999999
0.000199979999999
0.000199979999998
0.000199979999999
0.000199979999999
0.000199979999999
0.000199979999999
0.000199979999999
0.000199979999999
0.000199979999999
0.000200474354515
0.000200096612542
0.000200011290204
0.000199989919696
0.000199983256907
0.000199980995811
0.000199980304726
0.000199980121417
0.000199980033658
0.000199979995389
0.00019997996918
0.000199979997714
0.000199980000127
0.000199980000044
0.000199979997904
0.000199979998402
0.000199979999515
0.000199979999945
0.000199979999997
0.00019998000004
0.000199979999997
0.000199980000044
0.000199979999993
0.000199979999995
0.000199979999997
0.000199979999996
0.000199979999998
0.000199980000002
0.000199979999996
0.000199979999996
0.000199979999997
0.000199979999998
0.000199979999998
0.000199979999997
0.000199979999995
0.000199979999991
0.000199979999994
0.000199979999996
0.000199979999997
0.000199979999998
0.000199979999998
0.000199979999998
0.000199979999997
0.000199979999995
0.000199979999991
0.000199979999995
0.000199979999996
0.000199979999997
0.000199979999998
0.000199979999999
0.000199979999999
0.000199979999998
0.000199979999997
0.000199979999994
0.000199979999992
0.000199979999996
0.000199979999997
0.000199979999998
0.000199979999999
0.000199979999999
0.000199979999998
0.000199979999997
0.000199979999996
0.000199979999994
0.000199979999997
0.000199979999998
0.000199979999998
0.000199979999999
0.000199979999998
0.000199979999998
0.000199979999996
0.000199979999995
0.000199979999997
0.000199979999998
0.000199979999999
0.000199979999999
0.000199979999998
0.000199979999997
0.000199979999996
0.000199979999998
0.000199979999998
0.000199979999999
0.000199979999998
0.000199979999998
0.000199979999997
0.000199979999998
0.000199979999999
0.000199979999999
0.000199979999998
0.000199979999997
0.000199979999999
0.000199979999999
0.000199979999999
0.000199979999998
0.000199979999999
0.000199979999999
0.000199979999999
0.000199979999999
0.000199979999999
0.000201938649267
0.00020060528386
0.000200128789482
0.000200065007174
0.000200003801944
0.000199988358639
0.000199985302873
0.000199981491468
0.000199980346794
0.00019998017924
0.000199979941843
0.000199980034243
0.000199980008215
0.000199979996665
0.000199979978904
0.000199979978013
0.000199979996303
0.0001999799998
0.000199980000072
0.000199980000008
0.000199979997904
0.00019997999982
0.000199979999808
0.00019997999997
0.000199979999995
0.000199980000002
0.00019998000004
0.000199979999991
0.000199980000031
0.000199980000001
0.000199979999996
0.000199979999997
0.000199979999997
0.000199979999996
0.000199979999997
0.000199979999994
0.000199979999994
0.000199979999996
0.000199979999997
0.000199979999998
0.000199979999998
0.000199979999998
0.000199979999996
0.000199979999993
0.000199979999982
0.000199979999994
0.000199979999996
0.000199979999997
0.000199979999998
0.000199979999999
0.000199979999998
0.000199979999998
0.000199979999996
0.000199979999992
0.000199979999986
0.000199979999996
0.000199979999997
0.000199979999998
0.000199979999999
0.000199979999999
0.000199979999998
0.000199979999997
0.000199979999995
0.000199979999992
0.000199979999997
0.000199979999998
0.000199979999998
0.000199979999999
0.000199979999998
0.000199979999997
0.000199979999996
0.000199979999994
0.000199979999997
0.000199979999998
0.000199979999998
0.000199979999998
0.000199979999998
0.000199979999997
0.000199979999995
0.000199979999997
0.000199979999998
0.000199979999998
0.000199979999998
0.000199979999997
0.000199979999996
0.000199979999998
0.000199979999998
0.000199979999998
0.000199979999998
0.000199979999997
0.000199979999998
0.000199979999999
0.000199979999998
0.000199979999998
0.000199979999999
0.000199979999999
0.000199979999998
0.000199979999999
0.000199979999999
0.000199979999999
0.00020724193344
0.000202673307932
0.000200475265344
0.000200527260294
0.00020011332055
0.000200020912712
0.000200038170755
0.00019999366702
0.000199983192012
0.00019998322696
0.000199981631113
0.000199980685506
0.000199980112583
0.000199979977865
0.00019998001509
0.000199979845505
0.000199979992685
0.000199980001749
0.000199980000261
0.000199979994412
0.000199979978904
0.000199979990854
0.00019997999746
0.000199979999791
0.000199979999996
0.000199980000094
0.000199980000008
0.000199979998829
0.000199980000249
0.000199979999969
0.000199979999987
0.000199979999996
0.000199979999997
0.000199980000002
0.000199980000034
0.000199980000281
0.000199980000006
0.00019998
0.000199979999997
0.000199979999998
0.000199979999998
0.000199979999997
0.000199979999995
0.000199979999997
0.000199980000051
0.000199979999994
0.000199979999996
0.000199979999997
0.000199979999998
0.000199979999999
0.000199979999998
0.000199979999997
0.000199979999994
0.000199979999983
0.000199979999971
0.000199979999995
0.000199979999997
0.000199979999998
0.000199979999999
0.000199979999999
0.000199979999998
0.000199979999997
0.000199979999993
0.000199979999982
0.000199979999996
0.000199979999997
0.000199979999998
0.000199979999999
0.000199979999998
0.000199979999997
0.000199979999996
0.000199979999993
0.000199979999997
0.000199979999998
0.000199979999998
0.000199979999998
0.000199979999997
0.000199979999996
0.000199979999994
0.000199979999997
0.000199979999998
0.000199979999998
0.000199979999998
0.000199979999997
0.000199979999995
0.000199979999997
0.000199979999998
0.000199979999998
0.000199979999997
0.000199979999996
0.000199979999998
0.000199979999998
0.000199979999998
0.000199979999997
0.000199979999998
0.000199979999998
0.000199979999998
0.000199979999999
0.000199979999998
0.000199979999999
0.000228824786948
0.000209767549935
0.000201363113068
0.000202755830722
0.000200560945594
0.000200053991265
0.000200433712143
0.000200074241406
0.000200001546383
0.000199999554484
0.000200010616904
0.000199987938808
0.000199981172971
0.000199980369269
0.000199982247977
0.000199979699029
0.000199980205806
0.000199980042218
0.000199979994841
0.000199979941097
0.000199980015074
0.000199979883041
0.000199979982456
0.000199979999537
0.000199980000158
0.0001999800001
0.000199979994413
0.000199979995389
0.000199979998927
0.000199979998879
0.000199979999868
0.000199979999991
0.000199980000007
0.000199980000094
0.000199980000044
0.000199980006001
0.000199980000184
0.000199980000019
0.000199979999995
0.000199979999997
0.000199979999998
0.000199979999997
0.000199979999997
0.000199980000189
0.000199980002671
0.000199979999995
0.000199979999998
0.000199979999997
0.000199979999998
0.000199979999998
0.000199979999998
0.000199979999997
0.000199979999979
0.000199980000047
0.000199980000469
0.000199979999995
0.000199979999997
0.000199979999998
0.000199979999998
0.000199979999999
0.000199979999998
0.000199979999996
0.000199979999973
0.000199979999941
0.000199979999996
0.000199979999997
0.000199979999998
0.000199979999999
0.000199979999998
0.000199979999997
0.000199979999995
0.000199979999982
0.000199979999996
0.000199979999997
0.000199979999998
0.000199979999998
0.000199979999997
0.000199979999996
0.000199979999994
0.000199979999997
0.000199979999998
0.000199979999998
0.000199979999997
0.000199979999996
0.000199979999995
0.000199979999997
0.000199979999998
0.000199979999998
0.000199979999997
0.000199979999995
0.000199979999997
0.000199979999998
0.000199979999997
0.000199979999996
0.000199979999998
0.000199979999998
0.000199979999997
0.000199979999998
0.000199979999998
0.000199979999998
0.000315366277002
0.000232134666326
0.000206314914265
0.000211568600132
0.000202042026719
0.000199691486552
0.000202712984008
0.000200495041889
0.000200079023519
0.000199985484475
0.000200292855913
0.000200045899406
0.000199989433328
0.000199986070326
0.000199996597375
0.00019999010985
0.000199983980437
0.000199980523408
0.000199979980299
0.000199980023908
0.000199982247751
0.00019997914747
0.000199979974893
0.000199980011188
0.000199980001505
0.00019997998934
0.000199979941099
0.000199980179147
0.00019997995175
0.000199979986152
0.000199979999135
0.000199979999991
0.000199980000112
0.0001999800001
0.000199979996667
0.000199980086731
0.000199980001406
0.000199979999722
0.000199979999933
0.000199979999994
0.000199979999998
0.000199980000007
0.000199980000072
0.000199980002972
0.000199980045793
0.000199980000039
0.000199980000023
0.000199979999997
0.000199979999997
0.000199979999998
0.000199979999998
0.000199979999995
0.000199979999912
0.000199980002281
0.000199980012814
0.000199979999997
0.000199979999997
0.000199979999998
0.000199979999998
0.000199979999998
0.000199979999997
0.00019997999999
0.000199979999809
0.000199980000468
0.000199979999996
0.000199979999997
0.000199979999998
0.000199979999998
0.000199979999998
0.000199979999997
0.00019997999999
0.000199979999851
0.000199979999996
0.000199979999997
0.000199979999998
0.000199979999998
0.000199979999997
0.000199979999996
0.000199979999994
0.000199979999997
0.000199979999997
0.000199979999998
0.000199979999997
0.000199979999996
0.000199979999994
0.000199979999997
0.000199979999998
0.000199979999998
0.000199979999996
0.000199979999995
0.000199979999997
0.000199979999998
0.000199979999997
0.000199979999996
0.000199979999997
0.000199979999997
0.000199979999996
0.000199979999998
0.000199979999997
0.000199979999998
0.000596993315981
0.000300899043728
0.000241309862656
0.000241412479978
0.000206766434851
0.000199068819834
0.000213379364283
0.00020232762219
0.000200273923317
0.000199399480074
0.000202277792341
0.000200410905093
0.000200039923545
0.000200015667883
0.000199981134556
0.000200150219776
0.000200023029004
0.000199984765668
0.000199980603946
0.000199984206778
0.000199996596087
0.000199978711306
0.00019998143045
0.000199980228785
0.000199980012396
0.000199979898246
0.000199980023881
0.000199983225864
0.000199979364573
0.000199979903505
0.000199979999495
0.000199980000406
0.00019997999999
0.000199979989341
0.000199979977861
0.000199980995445
0.00019997999778
0.000199979992212
0.000199979999235
0.000199979999975
0.000199980000008
0.000199980000112
0.000199980000261
0.000199980033657
0.000199980518045
0.000199980000759
0.000199980000085
0.000199979999953
0.000199979999995
0.000199979999998
0.000199979999998
0.000199979999996
0.000199980000127
0.000199980034785
0.000199980188155
0.000199980000026
0.000199979999999
0.000199979999997
0.000199979999998
0.000199979999998
0.000199979999996
0.000199979999945
0.000199979999155
0.000199980015009
0.000199979999996
0.000199979999997
0.000199979999998
0.000199979999998
0.000199979999998
0.000199979999995
0.00019997999991
0.000199979998813
0.000199979999996
0.000199979999997
0.000199979999998
0.000199979999998
0.000199979999997
0.000199979999995
0.000199979999955
0.000199979999996
0.000199979999997
0.000199979999998
0.000199979999997
0.000199979999996
0.000199979999995
0.000199979999997
0.000199979999997
0.000199979999997
0.000199979999996
0.000199979999994
0.000199979999997
0.000199979999997
0.000199979999997
0.000199979999995
0.000199979999997
0.000199979999997
0.000199979999996
0.000199979999997
0.000199979999997
0.000199979999997
0.00132724977149
0.00049803176934
0.000404703858365
0.00033162184439
0.000225299326921
0.000212380079901
0.000255557338466
0.000209467179101
0.000200697759946
0.000197250195034
0.000213303729862
0.000202364101171
0.000200301990849
0.00020005481692
0.000199353011399
0.000201606059502
0.000200327425141
0.000200016006461
0.000199988325323
0.000200009647739
0.000199981133662
0.000200037547794
0.000200004522433
0.000199982701704
0.000199980167607
0.000199979861263
0.000199984206376
0.000199999549116
0.000199975250947
0.000199980035678
0.000199980095489
0.000199980007394
0.000199979990976
0.00019997989825
0.000199980369034
0.000199988354857
0.000199979788648
0.000199979903027
0.000199979995288
0.00019998000001
0.000199980000055
0.00019997999999
0.000199979994845
0.000199980346693
0.000199984584145
0.000199980008249
0.00019997999676
0.000199979999051
0.000199979999965
0.000199979999998
0.000199980000008
0.000199980000158
0.000199980008219
0.000199980370373
0.000199981916113
0.000199980000347
0.00019997999996
0.000199979999989
0.000199979999998
0.000199979999998
0.000199979999991
0.0001999799998
0.000199980003777
0.000199980210723
0.000199980000008
0.000199979999997
0.000199979999998
0.000199979999998
0.000199979999997
0.00019997999997
0.000199979999256
0.000199979995686
0.000199979999996
0.000199979999997
0.000199979999998
0.000199979999998
0.000199979999996
0.000199979999963
0.000199979999338
0.000199979999996
0.000199979999997
0.000199979999998
0.000199979999997
0.000199979999996
0.000199979999991
0.000199979999996
0.000199979999997
0.000199979999997
0.000199979999996
0.000199979999995
0.000199979999996
0.000199979999997
0.000199979999996
0.000199979999994
0.000199979999997
0.000199979999997
0.000199979999995
0.000199979999997
0.000199979999996
0.000199979999996
0.00111276176288
0.000928464007928
0.00229093665067
0.000580509254947
0.000304887095824
0.000315202692488
0.000400133082326
0.000236408258075
0.000204490569147
0.000203431534943
0.000264266539763
0.000211675007
0.000201670814432
0.00019987668755
0.000196707137797
0.000211397893067
0.000202307701149
0.000200235548637
0.000200042711354
0.000200037907021
0.000199353044478
0.000200883587339
0.000200239073719
0.00020000616086
0.000199982240112
0.000199983337477
0.000200009645497
0.000199985477751
0.000199971126419
0.000199991045228
0.000199981791781
0.000199980103944
0.000199979941302
0.000199979861232
0.000199986068107
0.000200020892604
0.000199976759255
0.000199979351837
0.00019998003446
0.000199980003688
0.000199979999869
0.000199979990977
0.000199979980284
0.000199983190512
0.000200011277038
0.000199980047144
0.000199979921118
0.000199979988133
0.00019997999977
0.000199980000004
0.000199980000055
0.000199980001506
0.000199980112591
0.000199983256165
0.000199995555741
0.000199980002288
0.000199979998437
0.000199979999812
0.000199979999993
0.000199979999998
0.000199979999991
0.00019998000175
0.000199980121448
0.000199982080965
0.000199980000122
0.000199979999978
0.000199979999994
0.000199979999998
0.000199979999994
0.000199979999791
0.000199979997716
0.000199980040575
0.000199980000002
0.000199979999997
0.000199979999998
0.000199979999997
0.000199979999987
0.000199979999515
0.000199979994516
0.000199979999996
0.000199979999997
0.000199979999997
0.000199979999997
0.000199979999993
0.000199979999722
0.000199979999996
0.000199979999997
0.000199979999997
0.000199979999996
0.000199980000003
0.000199979999996
0.000199979999997
0.000199979999996
0.000199979999994
0.000199979999996
0.000199979999996
0.000199979999995
0.000199979999996
0.000199979999995
0.000199979999996
0.00136077608321
0.000679054302835
0.00257281971689
0.000727730750402
0.00173183231471
0.00265365793316
0.00526114976339
0.00083516200475
0.000337698395546
0.000237843621045
0.00028845858572
0.000466359313485
0.000253265824954
0.00020987279378
0.000200911065624
0.000200753502613
0.000264435444374
0.000213778432466
0.000201840742805
0.00020045017198
0.000199770184971
0.000196707303806