/*--------------------------------*- C++ -*----------------------------------*\
| =========                 |                                                 |
| \\      /  F ield         | OpenFOAM: The Open Source CFD Toolbox           |
|  \\    /   O peration     | Version:  dev                                   |
|   \\  /    A nd           | Web:      www.OpenFOAM.org                      |
|    \\/     M anipulation  |                                                 |
\*---------------------------------------------------------------------------*/
FoamFile
{
    version     2.0;
    format      ascii;
    class       volScalarField;
    location    "0.075";
    object      AR;
}
// * * * * * * * * * * * * * * * * * * * * * * * * * * * * * * * * * * * * * //

dimensions      [0 0 0 0 0 0 0];

internalField   nonuniform List<scalar> 
1997
(
0.692449
0.692449
0.692448
0.692447
0.692446
0.692446
0.692445
0.692445
0.692444
0.692444
0.692444
0.692444
0.692444
0.692444
0.692444
0.692444
0.692444
0.692443
0.692439
0.692439
0.692438
0.692437
0.692436
0.692436
0.692435
0.692435
0.692435
0.692434
0.692434
0.692434
0.692434
0.692434
0.692434
0.692434
0.692434
0.692434
0.692434
0.692434
0.692434
0.692434
0.692434
0.692434
0.692434
0.692434
0.692434
0.692434
0.69243
0.692429
0.692428
0.692427
0.692426
0.692426
0.692425
0.692425
0.692424
0.692424
0.692424
0.692424
0.692424
0.692424
0.692424
0.692424
0.692424
0.692424
0.692423
0.692423
0.692423
0.692423
0.692423
0.692423
0.692423
0.692423
0.692423
0.692423
0.692423
0.692423
0.692423
0.692423
0.692424
0.692424
0.692424
0.692424
0.692424
0.692424
0.692424
0.692424
0.692419
0.692419
0.692418
0.692417
0.692416
0.692415
0.692414
0.692414
0.692414
0.692413
0.692413
0.692413
0.692413
0.692413
0.692413
0.692413
0.692413
0.692413
0.692413
0.692413
0.692413
0.692413
0.692413
0.692413
0.692413
0.692413
0.692413
0.692413
0.692413
0.692413
0.692413
0.692413
0.692413
0.692413
0.692413
0.692413
0.692413
0.692413
0.692413
0.692413
0.692413
0.692414
0.692414
0.692414
0.692415
0.692416
0.692417
0.692418
0.692419
0.692419
0.692408
0.692408
0.692407
0.692406
0.692405
0.692404
0.692403
0.692403
0.692402
0.692402
0.692402
0.692402
0.692402
0.692402
0.692401
0.692401
0.692401
0.692401
0.692401
0.692401
0.692401
0.692401
0.692401
0.692401
0.692401
0.692401
0.692401
0.692401
0.692401
0.692401
0.692401
0.692401
0.692401
0.692401
0.692401
0.692401
0.692402
0.692402
0.692402
0.692402
0.692402
0.692402
0.692403
0.692403
0.692404
0.692404
0.692406
0.692407
0.692408
0.692408
0.692397
0.692396
0.692395
0.692394
0.692392
0.692392
0.692391
0.692391
0.69239
0.69239
0.69239
0.69239
0.692389
0.692389
0.692389
0.692389
0.692389
0.692389
0.692389
0.692389
0.692389
0.692389
0.692389
0.692389
0.692389
0.692389
0.692389
0.692389
0.692389
0.692389
0.692389
0.692389
0.692389
0.692389
0.692389
0.692389
0.692389
0.692389
0.69239
0.69239
0.69239
0.69239
0.692391
0.692391
0.692392
0.692392
0.692394
0.692395
0.692396
0.692397
0.692385
0.692384
0.692382
0.692381
0.69238
0.692379
0.692378
0.692378
0.692378
0.692377
0.692377
0.692377
0.692377
0.692377
0.692377
0.692376
0.692376
0.692376
0.692376
0.692376
0.692376
0.692376
0.692376
0.692376
0.692376
0.692376
0.692376
0.692376
0.692376
0.692376
0.692376
0.692376
0.692376
0.692376
0.692376
0.692377
0.692377
0.692377
0.692377
0.692377
0.692377
0.692378
0.692378
0.692378
0.692379
0.69238
0.692381
0.692382
0.692384
0.692384
0.692372
0.692371
0.692369
0.692368
0.692367
0.692366
0.692365
0.692365
0.692364
0.692364
0.692364
0.692364
0.692363
0.692363
0.692363
0.692363
0.692363
0.692363
0.692363
0.692363
0.692363
0.692363
0.692363
0.692363
0.692363
0.692363
0.692363
0.692363
0.692363
0.692363
0.692363
0.692363
0.692363
0.692363
0.692363
0.692363
0.692363
0.692363
0.692363
0.692364
0.692364
0.692364
0.692365
0.692365
0.692366
0.692367
0.692368
0.692369
0.692371
0.692372
0.692358
0.692358
0.692356
0.692355
0.692353
0.692352
0.692351
0.692351
0.69235
0.69235
0.69235
0.692349
0.692349
0.692349
0.692349
0.692349
0.692349
0.692349
0.692349
0.692349
0.692349
0.692349
0.692349
0.692349
0.692349
0.692349
0.692349
0.692349
0.692349
0.692349
0.692349
0.692349
0.692349
0.692349
0.692349
0.692349
0.692349
0.692349
0.692349
0.69235
0.69235
0.69235
0.692351
0.692351
0.692352
0.692353
0.692354
0.692356
0.692358
0.692358
0.692344
0.692343
0.692341
0.69234
0.692338
0.692337
0.692336
0.692336
0.692335
0.692335
0.692335
0.692334
0.692334
0.692334
0.692334
0.692334
0.692334
0.692334
0.692334
0.692334
0.692334
0.692334
0.692334
0.692334
0.692334
0.692334
0.692334
0.692334
0.692334
0.692334
0.692334
0.692334
0.692334
0.692334
0.692334
0.692334
0.692334
0.692334
0.692334
0.692335
0.692335
0.692335
0.692336
0.692336
0.692337
0.692338
0.69234
0.692341
0.692343
0.692344
0.692329
0.692328
0.692325
0.692324
0.692322
0.692321
0.69232
0.69232
0.692319
0.692319
0.692319
0.692318
0.692318
0.692318
0.692318
0.692318
0.692318
0.692318
0.692318
0.692318
0.692318
0.692318
0.692318
0.692318
0.692318
0.692318
0.692318
0.692318
0.692318
0.692318
0.692318
0.692318
0.692318
0.692318
0.692318
0.692318
0.692318
0.692318
0.692318
0.692319
0.692319
0.692319
0.69232
0.69232
0.692321
0.692322
0.692324
0.692325
0.692328
0.692329
0.692313
0.692312
0.69231
0.692308
0.692306
0.692305
0.692304
0.692303
0.692303
0.692303
0.692302
0.692302
0.692302
0.692302
0.692302
0.692302
0.692301
0.692301
0.692301
0.692301
0.692301
0.692301
0.692301
0.692301
0.692301
0.692301
0.692301
0.692301
0.692301
0.692301
0.692301
0.692301
0.692301
0.692301
0.692302
0.692302
0.692302
0.692302
0.692302
0.692302
0.692303
0.692303
0.692303
0.692304
0.692305
0.692306
0.692308
0.692309
0.692312
0.692313
0.692296
0.692295
0.692293
0.692291
0.692289
0.692288
0.692287
0.692286
0.692286
0.692285
0.692285
0.692285
0.692285
0.692285
0.692284
0.692284
0.692284
0.692284
0.692284
0.692284
0.692284
0.692284
0.692284
0.692284
0.692284
0.692284
0.692284
0.692284
0.692284
0.692284
0.692284
0.692284
0.692284
0.692284
0.692284
0.692284
0.692285
0.692285
0.692285
0.692285
0.692285
0.692286
0.692286
0.692287
0.692288
0.692289
0.692291
0.692293
0.692295
0.692296
0.692279
0.692278
0.692275
0.692273
0.692271
0.69227
0.692269
0.692268
0.692268
0.692267
0.692267
0.692267
0.692267
0.692266
0.692266
0.692266
0.692266
0.692266
0.692266
0.692266
0.692266
0.692266
0.692266
0.692266
0.692266
0.692266
0.692266
0.692266
0.692266
0.692266
0.692266
0.692266
0.692266
0.692266
0.692266
0.692266
0.692266
0.692267
0.692267
0.692267
0.692267
0.692268
0.692268
0.692269
0.69227
0.692271
0.692273
0.692275
0.692278
0.692279
0.692261
0.692259
0.692256
0.692254
0.692252
0.692251
0.69225
0.692249
0.692248
0.692248
0.692248
0.692247
0.692247
0.692247
0.692247
0.692247
0.692247
0.692247
0.692247
0.692246
0.692246
0.692246
0.692246
0.692246
0.692246
0.692246
0.692246
0.692246
0.692246
0.692246
0.692246
0.692247
0.692247
0.692247
0.692247
0.692247
0.692247
0.692247
0.692247
0.692248
0.692248
0.692248
0.692249
0.69225
0.692251
0.692252
0.692254
0.692256
0.692259
0.692261
0.692241
0.69224
0.692237
0.692235
0.692232
0.692231
0.69223
0.692229
0.692228
0.692228
0.692228
0.692227
0.692227
0.692227
0.692227
0.692227
0.692227
0.692227
0.692227
0.692227
0.692226
0.692226
0.692226
0.692226
0.692226
0.692226
0.692226
0.692226
0.692226
0.692226
0.692227
0.692227
0.692227
0.692227
0.692227
0.692227
0.692227
0.692227
0.692227
0.692228
0.692228
0.692228
0.692229
0.69223
0.692231
0.692232
0.692235
0.692237
0.69224
0.692241
0.692221
0.69222
0.692216
0.692214
0.692212
0.69221
0.692209
0.692208
0.692207
0.692207
0.692206
0.692206
0.692206
0.692206
0.692206
0.692206
0.692205
0.692205
0.692205
0.692205
0.692205
0.692205
0.692205
0.692205
0.692205
0.692205
0.692205
0.692205
0.692205
0.692205
0.692205
0.692205
0.692205
0.692205
0.692206
0.692206
0.692206
0.692206
0.692206
0.692206
0.692207
0.692207
0.692208
0.692209
0.69221
0.692211
0.692214
0.692216
0.69222
0.692221
0.6922
0.692198
0.692194
0.692192
0.692189
0.692188
0.692186
0.692185
0.692185
0.692184
0.692184
0.692184
0.692183
0.692183
0.692183
0.692183
0.692183
0.692183
0.692183
0.692183
0.692183
0.692183
0.692183
0.692183
0.692183
0.692183
0.692183
0.692183
0.692183
0.692183
0.692183
0.692183
0.692183
0.692183
0.692183
0.692183
0.692183
0.692183
0.692184
0.692184
0.692184
0.692185
0.692185
0.692186
0.692188
0.692189
0.692192
0.692194
0.692198
0.6922
0.692178
0.692176
0.692172
0.692169
0.692166
0.692165
0.692164
0.692163
0.692162
0.692161
0.692161
0.692161
0.69216
0.69216
0.69216
0.69216
0.69216
0.69216
0.69216
0.69216
0.69216
0.69216
0.69216
0.69216
0.69216
0.69216
0.69216
0.69216
0.69216
0.69216
0.69216
0.69216
0.69216
0.69216
0.69216
0.69216
0.69216
0.69216
0.692161
0.692161
0.692161
0.692162
0.692162
0.692163
0.692165
0.692166
0.692169
0.692171
0.692176
0.692178
0.692154
0.692152
0.692147
0.692145
0.692142
0.69214
0.692139
0.692138
0.692137
0.692137
0.692136
0.692136
0.692136
0.692136
0.692135
0.692135
0.692135
0.692135
0.692135
0.692135
0.692135
0.692135
0.692135
0.692135
0.692135
0.692135
0.692135
0.692135
0.692135
0.692135
0.692135
0.692135
0.692135
0.692135
0.692135
0.692135
0.692136
0.692136
0.692136
0.692136
0.692137
0.692137
0.692138
0.692139
0.69214
0.692142
0.692145
0.692147
0.692152
0.692154
0.692129
0.692127
0.692123
0.69212
0.692117
0.692115
0.692114
0.692113
0.692112
0.692111
0.692111
0.692111
0.69211
0.69211
0.69211
0.69211
0.69211
0.69211
0.69211
0.69211
0.69211
0.69211
0.69211
0.69211
0.69211
0.69211
0.69211
0.69211
0.69211
0.69211
0.69211
0.69211
0.69211
0.69211
0.69211
0.69211
0.69211
0.69211
0.692111
0.692111
0.692111
0.692112
0.692113
0.692114
0.692115
0.692117
0.69212
0.692123
0.692127
0.692129
0.692104
0.692101
0.692097
0.692094
0.692091
0.692089
0.692088
0.692086
0.692086
0.692085
0.692085
0.692084
0.692084
0.692084
0.692084
0.692084
0.692083
0.692083
0.692083
0.692083
0.692083
0.692083
0.692083
0.692083
0.692083
0.692083
0.692083
0.692083
0.692083
0.692083
0.692083
0.692083
0.692083
0.692083
0.692084
0.692084
0.692084
0.692084
0.692084
0.692085
0.692085
0.692086
0.692086
0.692088
0.692089
0.692091
0.692094
0.692097
0.692101
0.692104
0.692077
0.692074
0.692069
0.692066
0.692063
0.692061
0.692059
0.692058
0.692057
0.692057
0.692056
0.692056
0.692056
0.692056
0.692055
0.692055
0.692055
0.692055
0.692055
0.692055
0.692055
0.692055
0.692055
0.692055
0.692055
0.692055
0.692055
0.692055
0.692055
0.692055
0.692055
0.692055
0.692055
0.692055
0.692055
0.692055
0.692056
0.692056
0.692056
0.692056
0.692057
0.692057
0.692058
0.692059
0.692061
0.692063
0.692066
0.692069
0.692074
0.692077
0.692048
0.692046
0.692041
0.692038
0.692034
0.692032
0.692031
0.692029
0.692029
0.692028
0.692028
0.692027
0.692027
0.692027
0.692027
0.692026
0.692026
0.692026
0.692026
0.692026
0.692026
0.692026
0.692026
0.692026
0.692026
0.692026
0.692026
0.692026
0.692026
0.692026
0.692026
0.692026
0.692026
0.692026
0.692026
0.692027
0.692027
0.692027
0.692027
0.692028
0.692028
0.692029
0.692029
0.692031
0.692032
0.692034
0.692038
0.692041
0.692046
0.692048
0.692019
0.692016
0.692011
0.692008
0.692004
0.692002
0.692001
0.691999
0.691999
0.691998
0.691997
0.691997
0.691997
0.691997
0.691996
0.691996
0.691996
0.691996
0.691996
0.691996
0.691996
0.691996
0.691996
0.691996
0.691996
0.691996
0.691996
0.691996
0.691996
0.691996
0.691996
0.691996
0.691996
0.691996
0.691996
0.691996
0.691997
0.691997
0.691997
0.691997
0.691998
0.691999
0.691999
0.692001
0.692002
0.692004
0.692008
0.692011
0.692016
0.692019
0.691989
0.691985
0.69198
0.691976
0.691973
0.69197
0.691969
0.691967
0.691966
0.691966
0.691965
0.691965
0.691964
0.691964
0.691964
0.691964
0.691964
0.691964
0.691964
0.691964
0.691963
0.691963
0.691963
0.691963
0.691963
0.691963
0.691963
0.691963
0.691963
0.691963
0.691964
0.691964
0.691964
0.691964
0.691964
0.691964
0.691964
0.691964
0.691965
0.691965
0.691966
0.691966
0.691967
0.691969
0.69197
0.691973
0.691976
0.69198
0.691985
0.691989
0.691956
0.691953
0.691947
0.691944
0.69194
0.691938
0.691936
0.691934
0.691934
0.691933
0.691932
0.691932
0.691932
0.691931
0.691931
0.691931
0.691931
0.691931
0.691931
0.691931
0.691931
0.691931
0.69193
0.69193
0.69193
0.69193
0.69193
0.69193
0.69193
0.691931
0.691931
0.691931
0.691931
0.691931
0.691931
0.691931
0.691931
0.691932
0.691932
0.691932
0.691933
0.691933
0.691934
0.691936
0.691937
0.69194
0.691944
0.691947
0.691953
0.691956
0.691923
0.69192
0.691913
0.69191
0.691905
0.691903
0.691901
0.6919
0.691899
0.691898
0.691897
0.691897
0.691897
0.691896
0.691896
0.691896
0.691896
0.691896
0.691896
0.691896
0.691896
0.691896
0.691895
0.691895
0.691895
0.691895
0.691895
0.691895
0.691895
0.691896
0.691896
0.691896
0.691896
0.691896
0.691896
0.691896
0.691896
0.691897
0.691897
0.691897
0.691898
0.691899
0.6919
0.691901
0.691903
0.691905
0.69191
0.691913
0.69192
0.691923
0.691888
0.691885
0.691878
0.691874
0.69187
0.691867
0.691865
0.691864
0.691863
0.691862
0.691862
0.691861
0.691861
0.691861
0.69186
0.69186
0.69186
0.69186
0.69186
0.69186
0.69186
0.69186
0.69186
0.69186
0.69186
0.69186
0.69186
0.69186
0.69186
0.69186
0.69186
0.69186
0.69186
0.69186
0.69186
0.69186
0.691861
0.691861
0.691861
0.691862
0.691862
0.691863
0.691864
0.691865
0.691867
0.69187
0.691874
0.691878
0.691885
0.691888
0.691852
0.691849
0.691842
0.691838
0.691833
0.69183
0.691828
0.691827
0.691826
0.691825
0.691824
0.691824
0.691823
0.691823
0.691823
0.691823
0.691823
0.691822
0.691822
0.691822
0.691822
0.691822
0.691822
0.691822
0.691822
0.691822
0.691822
0.691822
0.691822
0.691822
0.691822
0.691822
0.691822
0.691823
0.691823
0.691823
0.691823
0.691823
0.691824
0.691824
0.691825
0.691826
0.691827
0.691828
0.69183
0.691833
0.691838
0.691842
0.691849
0.691852
0.691814
0.69181
0.691804
0.691799
0.691795
0.691791
0.69179
0.691788
0.691787
0.691786
0.691785
0.691785
0.691785
0.691784
0.691784
0.691784
0.691784
0.691784
0.691784
0.691783
0.691783
0.691783
0.691783
0.691783
0.691783
0.691783
0.691783
0.691783
0.691783
0.691783
0.691783
0.691784
0.691784
0.691784
0.691784
0.691784
0.691784
0.691785
0.691785
0.691785
0.691786
0.691787
0.691788
0.69179
0.691791
0.691794
0.691799
0.691804
0.69181
0.691814
0.691775
0.691771
0.691764
0.691759
0.691754
0.691751
0.691749
0.691747
0.691746
0.691745
0.691744
0.691744
0.691744
0.691743
0.691743
0.691743
0.691743
0.691743
0.691742
0.691742
0.691742
0.691742
0.691742
0.691742
0.691742
0.691742
0.691742
0.691742
0.691742
0.691742
0.691742
0.691742
0.691743
0.691743
0.691743
0.691743
0.691743
0.691744
0.691744
0.691744
0.691745
0.691746
0.691747
0.691749
0.691751
0.691754
0.691759
0.691764
0.691771
0.691775
0.691733
0.691729
0.691721
0.691717
0.691712
0.691709
0.691707
0.691705
0.691704
0.691703
0.691703
0.691702
0.691702
0.691701
0.691701
0.691701
0.691701
0.691701
0.6917
0.6917
0.6917
0.6917
0.6917
0.6917
0.6917
0.6917
0.6917
0.6917
0.6917
0.6917
0.6917
0.6917
0.691701
0.691701
0.691701
0.691701
0.691701
0.691702
0.691702
0.691702
0.691703
0.691704
0.691705
0.691707
0.691709
0.691712
0.691717
0.691721
0.691729
0.691733
0.691691
0.691686
0.691678
0.691674
0.691669
0.691665
0.691663
0.691661
0.69166
0.691659
0.691659
0.691658
0.691658
0.691658
0.691657
0.691657
0.691657
0.691657
0.691657
0.691656
0.691656
0.691656
0.691656
0.691656
0.691656
0.691656
0.691656
0.691656
0.691656
0.691656
0.691656
0.691657
0.691657
0.691657
0.691657
0.691657
0.691657
0.691658
0.691658
0.691659
0.691659
0.69166
0.691661
0.691663
0.691665
0.691669
0.691674
0.691678
0.691686
0.691691
0.691646
0.691642
0.691634
0.691629
0.691624
0.69162
0.691618
0.691616
0.691615
0.691614
0.691613
0.691613
0.691612
0.691612
0.691612
0.691612
0.691612
0.691611
0.691611
0.691611
0.691611
0.691611
0.691611
0.691611
0.691611
0.691611
0.691611
0.691611
0.691611
0.691611
0.691611
0.691611
0.691611
0.691611
0.691612
0.691612
0.691612
0.691612
0.691613
0.691613
0.691614
0.691615
0.691616
0.691618
0.69162
0.691624
0.691629
0.691633
0.691642
0.691646
0.691601
0.691596
0.691587
0.691582
0.691577
0.691573
0.691571
0.691569
0.691568
0.691567
0.691566
0.691566
0.691565
0.691565
0.691565
0.691564
0.691564
0.691564
0.691564
0.691564
0.691564
0.691564
0.691563
0.691563
0.691563
0.691563
0.691563
0.691563
0.691564
0.691564
0.691564
0.691564
0.691564
0.691564
0.691564
0.691565
0.691565
0.691565
0.691566
0.691566
0.691567
0.691568
0.691569
0.691571
0.691573
0.691577
0.691582
0.691587
0.691596
0.691601
0.691553
0.691548
0.691539
0.691534
0.691529
0.691525
0.691523
0.69152
0.691519
0.691518
0.691517
0.691517
0.691516
0.691516
0.691516
0.691516
0.691515
0.691515
0.691515
0.691515
0.691515
0.691515
0.691515
0.691515
0.691515
0.691515
0.691515
0.691515
0.691515
0.691515
0.691515
0.691515
0.691515
0.691515
0.691516
0.691516
0.691516
0.691516
0.691517
0.691517
0.691518
0.691519
0.69152
0.691523
0.691525
0.691529
0.691534
0.691539
0.691548
0.691553
0.691504
0.691499
0.691489
0.691484
0.691479
0.691474
0.691472
0.69147
0.691469
0.691468
0.691467
0.691466
0.691466
0.691466
0.691465
0.691465
0.691465
0.691465
0.691464
0.691464
0.691464
0.691464
0.691464
0.691464
0.691464
0.691464
0.691464
0.691464
0.691464
0.691464
0.691464
0.691464
0.691465
0.691465
0.691465
0.691465
0.691466
0.691466
0.691466
0.691467
0.691468
0.691469
0.69147
0.691472
0.691474
0.691479
0.691484
0.691489
0.691499
0.691504
0.691453
0.691447
0.691437
0.691432
0.691427
0.691422
0.69142
0.691418
0.691416
0.691415
0.691415
0.691414
0.691413
0.691413
0.691413
0.691413
0.691412
0.691412
0.691412
0.691412
0.691412
0.691412
0.691412
0.691412
0.691412
0.691412
0.691412
0.691412
0.691412
0.691412
0.691412
0.691412
0.691412
0.691412
0.691413
0.691413
0.691413
0.691413
0.691414
0.691414
0.691415
0.691416
0.691418
0.69142
0.691422
0.691427
0.691432
0.691437
0.691447
0.691453
0.6914
0.691394
0.691384
0.691378
0.691373
0.691368
0.691366
0.691364
0.691362
0.691361
0.69136
0.69136
0.691359
0.691359
0.691359
0.691358
0.691358
0.691358
0.691358
0.691358
0.691358
0.691357
0.691357
0.691357
0.691357
0.691357
0.691357
0.691357
0.691357
0.691358
0.691358
0.691358
0.691358
0.691358
0.691358
0.691359
0.691359
0.691359
0.69136
0.69136
0.691361
0.691362
0.691364
0.691366
0.691368
0.691373
0.691378
0.691384
0.691394
0.6914
0.691345
0.691339
0.691328
0.691322
0.691317
0.691312
0.69131
0.691308
0.691306
0.691305
0.691304
0.691304
0.691303
0.691303
0.691302
0.691302
0.691302
0.691302
0.691302
0.691302
0.691301
0.691301
0.691301
0.691301
0.691301
0.691301
0.691301
0.691301
0.691301
0.691301
0.691302
0.691302
0.691302
0.691302
0.691302
0.691302
0.691303
0.691303
0.691304
0.691304
0.691305
0.691306
0.691308
0.69131
0.691312
0.691317
0.691322
0.691328
0.691339
0.691345
0.691288
0.691282
0.691271
0.691265
0.691259
0.691255
0.691252
0.69125
0.691248
0.691247
0.691246
)
;

boundaryField
{
    fuel
    {
        type            fixedValue;
        value           nonuniform 0();
    }
    wall
    {
        type            zeroGradient;
    }
    outlet
    {
        type            zeroGradient;
    }
    frontAndBack
    {
        type            empty;
    }
    procBoundary2to0
    {
        type            processor;
        value           nonuniform List<scalar> 
53
(
0.692457
0.692458
0.692457
0.692456
0.692455
0.692455
0.692454
0.692454
0.692454
0.692453
0.692453
0.692453
0.692453
0.692453
0.692453
0.692453
0.692453
0.692453
0.692443
0.692443
0.692443
0.692443
0.692443
0.692443
0.692443
0.692443
0.692443
0.692443
0.692443
0.692434
0.692434
0.692434
0.692434
0.692434
0.692434
0.692434
0.692434
0.692434
0.692434
0.692434
0.692434
0.692434
0.692424
0.692424
0.692424
0.692425
0.692425
0.692426
0.692426
0.692427
0.692428
0.692429
0.69243
)
;
    }
    procBoundary2to3
    {
        type            processor;
        value           nonuniform List<scalar> 
51
(
0.691246
0.691245
0.691245
0.691244
0.691244
0.691244
0.691244
0.691244
0.691244
0.691243
0.691243
0.691243
0.691243
0.691243
0.691243
0.691243
0.691243
0.691243
0.691243
0.691244
0.691244
0.691244
0.691244
0.691244
0.691244
0.691245
0.691245
0.691246
0.691246
0.691247
0.691248
0.69125
0.691252
0.691254
0.691259
0.691265
0.691271
0.691282
0.691288
0.69123
0.691223
0.691211
0.691205
0.6912
0.691195
0.691192
0.69119
0.691188
0.691187
0.691246
0.691186
)
;
    }
}


// ************************************************************************* //
