/*--------------------------------*- C++ -*----------------------------------*\
| =========                 |                                                 |
| \\      /  F ield         | OpenFOAM: The Open Source CFD Toolbox           |
|  \\    /   O peration     | Version:  dev                                   |
|   \\  /    A nd           | Web:      www.OpenFOAM.org                      |
|    \\/     M anipulation  |                                                 |
\*---------------------------------------------------------------------------*/
FoamFile
{
    version     2.0;
    format      ascii;
    class       volScalarField;
    location    "0.075";
    object      C6H8;
}
// * * * * * * * * * * * * * * * * * * * * * * * * * * * * * * * * * * * * * //

dimensions      [0 0 0 0 0 0 0];

internalField   nonuniform List<scalar> 
1997
(
9.60738e-13
9.62299e-13
9.6365e-13
9.64511e-13
9.65028e-13
9.65383e-13
9.65549e-13
9.65679e-13
9.65746e-13
9.65814e-13
9.65851e-13
9.65894e-13
9.65917e-13
9.65946e-13
9.6596e-13
9.6598e-13
9.65989e-13
9.66002e-13
9.57276e-13
9.5878e-13
9.60099e-13
9.60956e-13
9.61493e-13
9.61847e-13
9.62027e-13
9.62162e-13
9.62237e-13
9.62308e-13
9.6235e-13
9.62394e-13
9.6242e-13
9.6245e-13
9.62465e-13
9.62485e-13
9.62495e-13
9.62508e-13
9.62514e-13
9.62522e-13
9.62525e-13
9.62529e-13
9.6253e-13
9.62533e-13
9.62533e-13
9.62533e-13
9.62533e-13
9.6253e-13
9.54266e-13
9.55716e-13
9.57006e-13
9.57858e-13
9.58415e-13
9.58767e-13
9.58959e-13
9.591e-13
9.59181e-13
9.59256e-13
9.59301e-13
9.59347e-13
9.59375e-13
9.59405e-13
9.59423e-13
9.59443e-13
9.59453e-13
9.59467e-13
9.59473e-13
9.59481e-13
9.59484e-13
9.59488e-13
9.5949e-13
9.59492e-13
9.59492e-13
9.59492e-13
9.59492e-13
9.5949e-13
9.59488e-13
9.59484e-13
9.5948e-13
9.59472e-13
9.59466e-13
9.59453e-13
9.59442e-13
9.59422e-13
9.59405e-13
9.59375e-13
9.59347e-13
9.59301e-13
9.51681e-13
9.53078e-13
9.54342e-13
9.55187e-13
9.55765e-13
9.56114e-13
9.56318e-13
9.56463e-13
9.56551e-13
9.56628e-13
9.56677e-13
9.56724e-13
9.56754e-13
9.56785e-13
9.56803e-13
9.56823e-13
9.56835e-13
9.56848e-13
9.56855e-13
9.56862e-13
9.56866e-13
9.5687e-13
9.56872e-13
9.56874e-13
9.56875e-13
9.56875e-13
9.56874e-13
9.56872e-13
9.5687e-13
9.56866e-13
9.56862e-13
9.56854e-13
9.56848e-13
9.56835e-13
9.56823e-13
9.56803e-13
9.56784e-13
9.56754e-13
9.56724e-13
9.56677e-13
9.56628e-13
9.5655e-13
9.56462e-13
9.56317e-13
9.56113e-13
9.55763e-13
9.55185e-13
9.5434e-13
9.53076e-13
9.51679e-13
9.49492e-13
9.50837e-13
9.52079e-13
9.52913e-13
9.53513e-13
9.53857e-13
9.54071e-13
9.54221e-13
9.54314e-13
9.54393e-13
9.54445e-13
9.54493e-13
9.54526e-13
9.54557e-13
9.54577e-13
9.54597e-13
9.54609e-13
9.54622e-13
9.54629e-13
9.54637e-13
9.54641e-13
9.54645e-13
9.54647e-13
9.54649e-13
9.5465e-13
9.5465e-13
9.54649e-13
9.54647e-13
9.54645e-13
9.5464e-13
9.54637e-13
9.54629e-13
9.54621e-13
9.54609e-13
9.54596e-13
9.54576e-13
9.54556e-13
9.54525e-13
9.54493e-13
9.54445e-13
9.54393e-13
9.54313e-13
9.5422e-13
9.5407e-13
9.53856e-13
9.53511e-13
9.52911e-13
9.52076e-13
9.50835e-13
9.4949e-13
9.4764e-13
9.48939e-13
9.50157e-13
9.50979e-13
9.51595e-13
9.51932e-13
9.52154e-13
9.52306e-13
9.52403e-13
9.52485e-13
9.52539e-13
9.52587e-13
9.52621e-13
9.52652e-13
9.52673e-13
9.52693e-13
9.52706e-13
9.52719e-13
9.52727e-13
9.52734e-13
9.52738e-13
9.52743e-13
9.52745e-13
9.52747e-13
9.52747e-13
9.52747e-13
9.52747e-13
9.52745e-13
9.52742e-13
9.52738e-13
9.52734e-13
9.52726e-13
9.52719e-13
9.52706e-13
9.52693e-13
9.52673e-13
9.52652e-13
9.52621e-13
9.52587e-13
9.52539e-13
9.52484e-13
9.52403e-13
9.52305e-13
9.52153e-13
9.51931e-13
9.51594e-13
9.50977e-13
9.50155e-13
9.48937e-13
9.47638e-13
9.46127e-13
9.47379e-13
9.48574e-13
9.49382e-13
9.50014e-13
9.50343e-13
9.50573e-13
9.50727e-13
9.50828e-13
9.50911e-13
9.50967e-13
9.51016e-13
9.51052e-13
9.51083e-13
9.51105e-13
9.51125e-13
9.51138e-13
9.51151e-13
9.51159e-13
9.51166e-13
9.51171e-13
9.51175e-13
9.51177e-13
9.51179e-13
9.5118e-13
9.5118e-13
9.51179e-13
9.51177e-13
9.51175e-13
9.51171e-13
9.51166e-13
9.51159e-13
9.5115e-13
9.51138e-13
9.51124e-13
9.51104e-13
9.51082e-13
9.51051e-13
9.51016e-13
9.50967e-13
9.5091e-13
9.50827e-13
9.50726e-13
9.50572e-13
9.50342e-13
9.50013e-13
9.4938e-13
9.48572e-13
9.47376e-13
9.46125e-13
9.44889e-13
9.46095e-13
9.47267e-13
9.48059e-13
9.487e-13
9.4902e-13
9.49256e-13
9.4941e-13
9.49513e-13
9.49596e-13
9.49654e-13
9.49703e-13
9.49739e-13
9.4977e-13
9.49793e-13
9.49812e-13
9.49826e-13
9.49838e-13
9.49847e-13
9.49854e-13
9.49859e-13
9.49863e-13
9.49865e-13
9.49867e-13
9.49868e-13
9.49868e-13
9.49867e-13
9.49865e-13
9.49862e-13
9.49858e-13
9.49854e-13
9.49846e-13
9.49838e-13
9.49826e-13
9.49811e-13
9.49792e-13
9.49769e-13
9.49738e-13
9.49702e-13
9.49653e-13
9.49595e-13
9.49512e-13
9.49409e-13
9.49255e-13
9.49019e-13
9.48699e-13
9.48057e-13
9.47264e-13
9.46092e-13
9.44887e-13
9.43885e-13
9.45046e-13
9.46191e-13
9.46965e-13
9.4761e-13
9.4792e-13
9.4816e-13
9.48312e-13
9.48416e-13
9.485e-13
9.48558e-13
9.48607e-13
9.48644e-13
9.48674e-13
9.48698e-13
9.48717e-13
9.48732e-13
9.48743e-13
9.48752e-13
9.48759e-13
9.48764e-13
9.48768e-13
9.4877e-13
9.48772e-13
9.48773e-13
9.48773e-13
9.48772e-13
9.4877e-13
9.48768e-13
9.48764e-13
9.48759e-13
9.48752e-13
9.48743e-13
9.48731e-13
9.48716e-13
9.48697e-13
9.48674e-13
9.48643e-13
9.48606e-13
9.48558e-13
9.48499e-13
9.48416e-13
9.48312e-13
9.48159e-13
9.47919e-13
9.47608e-13
9.46963e-13
9.46189e-13
9.45043e-13
9.43883e-13
9.43063e-13
9.44178e-13
9.45294e-13
9.46046e-13
9.46687e-13
9.46985e-13
9.47225e-13
9.47375e-13
9.47478e-13
9.47561e-13
9.47619e-13
9.47667e-13
9.47704e-13
9.47734e-13
9.47757e-13
9.47776e-13
9.47791e-13
9.47802e-13
9.47811e-13
9.47818e-13
9.47823e-13
9.47827e-13
9.47829e-13
9.47831e-13
9.47832e-13
9.47832e-13
9.47831e-13
9.47829e-13
9.47826e-13
9.47823e-13
9.47818e-13
9.47811e-13
9.47802e-13
9.4779e-13
9.47775e-13
9.47757e-13
9.47733e-13
9.47703e-13
9.47666e-13
9.47618e-13
9.4756e-13
9.47477e-13
9.47374e-13
9.47224e-13
9.46984e-13
9.46685e-13
9.46044e-13
9.45291e-13
9.44176e-13
9.4306e-13
9.42361e-13
9.4343e-13
9.4451e-13
9.45237e-13
9.45865e-13
9.46151e-13
9.46388e-13
9.46533e-13
9.46634e-13
9.46714e-13
9.46771e-13
9.46818e-13
9.46855e-13
9.46884e-13
9.46907e-13
9.46925e-13
9.4694e-13
9.46951e-13
9.4696e-13
9.46967e-13
9.46972e-13
9.46975e-13
9.46978e-13
9.4698e-13
9.46981e-13
9.46981e-13
9.4698e-13
9.46978e-13
9.46975e-13
9.46972e-13
9.46966e-13
9.4696e-13
9.46951e-13
9.46939e-13
9.46925e-13
9.46906e-13
9.46883e-13
9.46854e-13
9.46817e-13
9.46771e-13
9.46714e-13
9.46633e-13
9.46532e-13
9.46386e-13
9.46149e-13
9.45863e-13
9.45235e-13
9.44507e-13
9.43428e-13
9.42358e-13
9.4171e-13
9.42735e-13
9.43773e-13
9.44472e-13
9.45078e-13
9.45349e-13
9.45579e-13
9.45719e-13
9.45815e-13
9.45892e-13
9.45947e-13
9.45992e-13
9.46027e-13
9.46056e-13
9.46078e-13
9.46096e-13
9.4611e-13
9.46121e-13
9.4613e-13
9.46136e-13
9.46141e-13
9.46145e-13
9.46148e-13
9.46149e-13
9.4615e-13
9.4615e-13
9.46149e-13
9.46148e-13
9.46145e-13
9.46141e-13
9.46136e-13
9.4613e-13
9.46121e-13
9.4611e-13
9.46095e-13
9.46078e-13
9.46055e-13
9.46027e-13
9.45991e-13
9.45946e-13
9.45892e-13
9.45814e-13
9.45718e-13
9.45578e-13
9.45347e-13
9.45076e-13
9.4447e-13
9.43771e-13
9.42732e-13
9.41708e-13
9.41038e-13
9.42016e-13
9.43006e-13
9.43673e-13
9.44247e-13
9.44501e-13
9.4472e-13
9.44852e-13
9.44942e-13
9.45015e-13
9.45067e-13
9.45109e-13
9.45143e-13
9.4517e-13
9.45192e-13
9.45209e-13
9.45223e-13
9.45233e-13
9.45242e-13
9.45248e-13
9.45253e-13
9.45256e-13
9.45259e-13
9.4526e-13
9.45261e-13
9.45261e-13
9.4526e-13
9.45259e-13
9.45256e-13
9.45253e-13
9.45247e-13
9.45241e-13
9.45232e-13
9.45222e-13
9.45208e-13
9.45191e-13
9.45169e-13
9.45142e-13
9.45108e-13
9.45066e-13
9.45015e-13
9.44941e-13
9.44851e-13
9.44719e-13
9.445e-13
9.44245e-13
9.4367e-13
9.43004e-13
9.42013e-13
9.41035e-13
9.40283e-13
9.41211e-13
9.42146e-13
9.42775e-13
9.43309e-13
9.43545e-13
9.43749e-13
9.43871e-13
9.43953e-13
9.44021e-13
9.44068e-13
9.44107e-13
9.44139e-13
9.44164e-13
9.44185e-13
9.44201e-13
9.44215e-13
9.44225e-13
9.44233e-13
9.44239e-13
9.44244e-13
9.44247e-13
9.44249e-13
9.44251e-13
9.44252e-13
9.44252e-13
9.44251e-13
9.44249e-13
9.44247e-13
9.44243e-13
9.44238e-13
9.44232e-13
9.44224e-13
9.44214e-13
9.442e-13
9.44184e-13
9.44164e-13
9.44138e-13
9.44107e-13
9.44067e-13
9.4402e-13
9.43952e-13
9.4387e-13
9.43747e-13
9.43544e-13
9.43307e-13
9.42773e-13
9.42144e-13
9.41208e-13
9.4028e-13
9.39365e-13
9.40239e-13
9.41108e-13
9.41693e-13
9.42176e-13
9.42389e-13
9.42573e-13
9.42683e-13
9.42755e-13
9.42816e-13
9.42857e-13
9.42893e-13
9.42922e-13
9.42945e-13
9.42965e-13
9.4298e-13
9.42992e-13
9.43001e-13
9.43009e-13
9.43015e-13
9.43019e-13
9.43023e-13
9.43025e-13
9.43026e-13
9.43027e-13
9.43027e-13
9.43026e-13
9.43025e-13
9.43022e-13
9.43019e-13
9.43014e-13
9.43009e-13
9.43001e-13
9.42991e-13
9.42979e-13
9.42964e-13
9.42944e-13
9.42921e-13
9.42892e-13
9.42857e-13
9.42815e-13
9.42754e-13
9.42682e-13
9.42571e-13
9.42387e-13
9.42174e-13
9.4169e-13
9.41105e-13
9.40237e-13
9.39362e-13
9.38216e-13
9.39032e-13
9.39825e-13
9.40359e-13
9.40785e-13
9.40971e-13
9.41133e-13
9.4123e-13
9.4129e-13
9.41343e-13
9.41379e-13
9.4141e-13
9.41436e-13
9.41457e-13
9.41474e-13
9.41488e-13
9.415e-13
9.41508e-13
9.41516e-13
9.41521e-13
9.41525e-13
9.41528e-13
9.41531e-13
9.41532e-13
9.41533e-13
9.41533e-13
9.41532e-13
9.41531e-13
9.41528e-13
9.41525e-13
9.41521e-13
9.41515e-13
9.41508e-13
9.41499e-13
9.41487e-13
9.41474e-13
9.41456e-13
9.41435e-13
9.41409e-13
9.41378e-13
9.41342e-13
9.41289e-13
9.41229e-13
9.41132e-13
9.40969e-13
9.40783e-13
9.40356e-13
9.39822e-13
9.39029e-13
9.38213e-13
9.36743e-13
9.37497e-13
9.382e-13
9.38674e-13
9.39036e-13
9.39187e-13
9.39323e-13
9.39401e-13
9.39447e-13
9.3949e-13
9.39518e-13
9.39545e-13
9.39566e-13
9.39585e-13
9.396e-13
9.39613e-13
9.39623e-13
9.39631e-13
9.39637e-13
9.39642e-13
9.39646e-13
9.39649e-13
9.39651e-13
9.39653e-13
9.39653e-13
9.39653e-13
9.39653e-13
9.39651e-13
9.39649e-13
9.39646e-13
9.39642e-13
9.39637e-13
9.3963e-13
9.39622e-13
9.39612e-13
9.39599e-13
9.39584e-13
9.39566e-13
9.39544e-13
9.39517e-13
9.39489e-13
9.39446e-13
9.394e-13
9.39322e-13
9.39185e-13
9.39034e-13
9.38671e-13
9.38197e-13
9.37494e-13
9.3674e-13
9.34841e-13
9.35522e-13
9.36119e-13
9.36524e-13
9.36815e-13
9.36926e-13
9.37032e-13
9.37088e-13
9.37119e-13
9.37152e-13
9.37171e-13
9.37192e-13
9.3721e-13
9.37225e-13
9.37238e-13
9.37249e-13
9.37257e-13
9.37265e-13
9.37271e-13
9.37275e-13
9.37279e-13
9.37281e-13
9.37283e-13
9.37285e-13
9.37285e-13
9.37285e-13
9.37285e-13
9.37283e-13
9.37281e-13
9.37278e-13
9.37275e-13
9.3727e-13
9.37264e-13
9.37257e-13
9.37248e-13
9.37237e-13
9.37225e-13
9.37209e-13
9.37191e-13
9.3717e-13
9.37151e-13
9.37118e-13
9.37087e-13
9.37031e-13
9.36925e-13
9.36813e-13
9.36521e-13
9.36116e-13
9.35519e-13
9.34838e-13
9.32484e-13
9.3309e-13
9.33564e-13
9.33892e-13
9.34109e-13
9.34175e-13
9.34246e-13
9.34278e-13
9.34293e-13
9.34314e-13
9.34324e-13
9.34339e-13
9.34352e-13
9.34364e-13
9.34374e-13
9.34383e-13
9.3439e-13
9.34397e-13
9.34402e-13
9.34406e-13
9.34409e-13
9.34412e-13
9.34413e-13
9.34415e-13
9.34415e-13
9.34415e-13
9.34415e-13
9.34413e-13
9.34411e-13
9.34409e-13
9.34406e-13
9.34401e-13
9.34396e-13
9.34389e-13
9.34383e-13
9.34373e-13
9.34364e-13
9.34351e-13
9.34338e-13
9.34323e-13
9.34313e-13
9.34292e-13
9.34277e-13
9.34245e-13
9.34174e-13
9.34107e-13
9.33889e-13
9.33561e-13
9.33087e-13
9.32481e-13
9.29505e-13
9.30026e-13
9.30347e-13
9.30588e-13
9.30721e-13
9.30734e-13
9.30765e-13
9.30769e-13
9.30765e-13
9.30772e-13
9.30772e-13
9.3078e-13
9.30787e-13
9.30796e-13
9.30802e-13
9.3081e-13
9.30815e-13
9.30821e-13
9.30824e-13
9.30828e-13
9.30831e-13
9.30833e-13
9.30834e-13
9.30836e-13
9.30836e-13
9.30836e-13
9.30836e-13
9.30834e-13
9.30833e-13
9.3083e-13
9.30828e-13
9.30824e-13
9.3082e-13
9.30814e-13
9.30809e-13
9.30801e-13
9.30795e-13
9.30786e-13
9.30779e-13
9.30771e-13
9.30771e-13
9.30764e-13
9.30768e-13
9.30764e-13
9.30733e-13
9.30719e-13
9.30585e-13
9.30344e-13
9.30023e-13
9.29502e-13
9.25839e-13
9.26263e-13
9.26502e-13
9.26652e-13
9.26701e-13
9.26658e-13
9.26649e-13
9.26622e-13
9.26601e-13
9.26592e-13
9.26583e-13
9.26584e-13
9.26584e-13
9.2659e-13
9.26592e-13
9.26599e-13
9.26601e-13
9.26607e-13
9.26609e-13
9.26613e-13
9.26615e-13
9.26617e-13
9.26618e-13
9.26619e-13
9.2662e-13
9.2662e-13
9.26619e-13
9.26618e-13
9.26617e-13
9.26614e-13
9.26613e-13
9.26609e-13
9.26606e-13
9.26601e-13
9.26598e-13
9.26592e-13
9.26589e-13
9.26583e-13
9.26583e-13
9.26581e-13
9.26591e-13
9.266e-13
9.26622e-13
9.26648e-13
9.26656e-13
9.26698e-13
9.2665e-13
9.265e-13
9.26261e-13
9.25836e-13
9.21524e-13
9.21842e-13
9.21912e-13
9.21966e-13
9.21924e-13
9.2182e-13
9.21771e-13
9.21712e-13
9.21672e-13
9.21648e-13
9.21627e-13
9.21622e-13
9.21615e-13
9.21618e-13
9.21616e-13
9.21621e-13
9.21622e-13
9.21626e-13
9.21627e-13
9.21631e-13
9.21632e-13
9.21634e-13
9.21635e-13
9.21636e-13
9.21636e-13
9.21636e-13
9.21636e-13
9.21634e-13
9.21634e-13
9.21631e-13
9.2163e-13
9.21627e-13
9.21626e-13
9.21621e-13
9.21621e-13
9.21616e-13
9.21617e-13
9.21614e-13
9.2162e-13
9.21626e-13
9.21647e-13
9.2167e-13
9.21712e-13
9.2177e-13
9.21819e-13
9.21922e-13
9.21963e-13
9.21909e-13
9.21839e-13
9.21521e-13
9.16337e-13
9.16519e-13
9.16422e-13
9.16372e-13
9.16232e-13
9.16061e-13
9.15967e-13
9.15874e-13
9.15812e-13
9.15771e-13
9.1574e-13
9.15726e-13
9.15713e-13
9.15712e-13
9.15707e-13
9.1571e-13
9.15707e-13
9.15711e-13
9.15711e-13
9.15714e-13
9.15714e-13
9.15717e-13
9.15717e-13
9.15718e-13
9.15718e-13
9.15718e-13
9.15718e-13
9.15717e-13
9.15716e-13
9.15714e-13
9.15714e-13
9.1571e-13
9.15711e-13
9.15707e-13
9.15709e-13
9.15706e-13
9.15711e-13
9.15712e-13
9.15725e-13
9.15738e-13
9.1577e-13
9.15811e-13
9.15874e-13
9.15967e-13
9.1606e-13
9.1623e-13
9.16369e-13
9.16419e-13
9.16516e-13
9.16334e-13
9.10263e-13
9.10447e-13
9.10189e-13
9.10039e-13
9.09805e-13
9.0957e-13
9.09434e-13
9.09308e-13
9.09226e-13
9.09169e-13
9.09128e-13
9.09108e-13
9.09089e-13
9.09084e-13
9.09075e-13
9.09076e-13
9.09072e-13
9.09075e-13
9.09073e-13
9.09076e-13
9.09076e-13
9.09078e-13
9.09078e-13
9.09079e-13
9.09079e-13
9.09079e-13
9.09079e-13
9.09077e-13
9.09078e-13
9.09075e-13
9.09076e-13
9.09073e-13
9.09075e-13
9.09071e-13
9.09076e-13
9.09074e-13
9.09083e-13
9.09087e-13
9.09106e-13
9.09126e-13
9.09168e-13
9.09225e-13
9.09307e-13
9.09433e-13
9.09568e-13
9.09803e-13
9.10037e-13
9.10187e-13
9.10444e-13
9.1026e-13
9.03484e-13
9.03525e-13
9.03112e-13
9.02865e-13
9.02538e-13
9.0224e-13
9.02065e-13
9.01907e-13
9.01805e-13
9.01729e-13
9.01675e-13
9.01646e-13
9.01619e-13
9.01611e-13
9.01596e-13
9.01596e-13
9.01589e-13
9.01592e-13
9.01588e-13
9.01591e-13
9.01589e-13
9.01591e-13
9.01591e-13
9.01592e-13
9.01592e-13
9.01592e-13
9.01592e-13
9.0159e-13
9.01591e-13
9.01589e-13
9.0159e-13
9.01587e-13
9.01591e-13
9.01588e-13
9.01596e-13
9.01596e-13
9.0161e-13
9.01618e-13
9.01644e-13
9.01673e-13
9.01728e-13
9.01804e-13
9.01907e-13
9.02065e-13
9.02239e-13
9.02536e-13
9.02862e-13
9.03109e-13
9.03522e-13
9.03481e-13
8.95768e-13
8.95648e-13
8.95074e-13
8.94726e-13
8.94305e-13
8.93944e-13
8.93731e-13
8.93541e-13
8.9342e-13
8.93329e-13
8.93266e-13
8.9323e-13
8.93198e-13
8.93186e-13
8.93168e-13
8.93167e-13
8.93157e-13
8.93159e-13
8.93154e-13
8.93157e-13
8.93154e-13
8.93157e-13
8.93156e-13
8.93157e-13
8.93157e-13
8.93157e-13
8.93157e-13
8.93155e-13
8.93156e-13
8.93154e-13
8.93156e-13
8.93154e-13
8.93159e-13
8.93156e-13
8.93166e-13
8.93167e-13
8.93185e-13
8.93197e-13
8.93228e-13
8.93264e-13
8.93328e-13
8.93419e-13
8.9354e-13
8.9373e-13
8.93942e-13
8.94303e-13
8.94724e-13
8.95072e-13
8.95644e-13
8.95764e-13
8.87206e-13
8.87149e-13
8.86453e-13
8.86029e-13
8.85539e-13
8.85132e-13
8.8489e-13
8.84678e-13
8.84544e-13
8.84443e-13
8.84373e-13
8.84332e-13
8.84296e-13
8.84282e-13
8.84261e-13
8.84259e-13
8.84248e-13
8.84249e-13
8.84243e-13
8.84246e-13
8.84243e-13
8.84245e-13
8.84244e-13
8.84245e-13
8.84245e-13
8.84245e-13
8.84245e-13
8.84244e-13
8.84245e-13
8.84243e-13
8.84246e-13
8.84243e-13
8.84249e-13
8.84247e-13
8.84258e-13
8.84261e-13
8.84281e-13
8.84295e-13
8.8433e-13
8.8437e-13
8.84441e-13
8.84543e-13
8.84677e-13
8.8489e-13
8.8513e-13
8.85537e-13
8.86027e-13
8.86451e-13
8.87146e-13
8.87203e-13
8.78249e-13
8.78061e-13
8.7721e-13
8.76702e-13
8.76138e-13
8.7569e-13
8.75421e-13
8.75189e-13
8.75044e-13
8.74933e-13
8.74858e-13
8.74813e-13
8.74773e-13
8.74758e-13
8.74735e-13
8.74731e-13
8.74719e-13
8.7472e-13
8.74713e-13
8.74716e-13
8.74713e-13
8.74715e-13
8.74713e-13
8.74714e-13
8.74714e-13
8.74714e-13
8.74714e-13
8.74713e-13
8.74714e-13
8.74712e-13
8.74715e-13
8.74713e-13
8.7472e-13
8.74718e-13
8.74731e-13
8.74734e-13
8.74757e-13
8.74772e-13
8.74812e-13
8.74856e-13
8.74932e-13
8.75043e-13
8.75189e-13
8.7542e-13
8.75688e-13
8.76136e-13
8.76699e-13
8.77208e-13
8.78057e-13
8.78246e-13
8.68755e-13
8.68686e-13
8.67798e-13
8.67272e-13
8.66699e-13
8.66252e-13
8.65984e-13
8.65755e-13
8.65611e-13
8.65502e-13
8.65428e-13
8.65384e-13
8.65345e-13
8.65329e-13
8.65307e-13
8.65303e-13
8.65291e-13
8.65292e-13
8.65286e-13
8.65288e-13
8.65285e-13
8.65287e-13
8.65285e-13
8.65287e-13
8.65286e-13
8.65286e-13
8.65287e-13
8.65285e-13
8.65287e-13
8.65284e-13
8.65288e-13
8.65285e-13
8.65292e-13
8.6529e-13
8.65302e-13
8.65306e-13
8.65328e-13
8.65344e-13
8.65382e-13
8.65426e-13
8.65501e-13
8.6561e-13
8.65754e-13
8.65983e-13
8.6625e-13
8.66697e-13
8.6727e-13
8.67795e-13
8.68683e-13
8.68752e-13
8.596e-13
8.59514e-13
8.58673e-13
8.58188e-13
8.57651e-13
8.57231e-13
8.56976e-13
8.56766e-13
8.56632e-13
8.56533e-13
8.56465e-13
8.56425e-13
8.56389e-13
8.56375e-13
8.56355e-13
8.56352e-13
8.56341e-13
8.56342e-13
8.56337e-13
8.56339e-13
8.56336e-13
8.56338e-13
8.56337e-13
8.56338e-13
8.56338e-13
8.56338e-13
8.56338e-13
8.56337e-13
8.56338e-13
8.56336e-13
8.56338e-13
8.56336e-13
8.56341e-13
8.5634e-13
8.56351e-13
8.56354e-13
8.56374e-13
8.56388e-13
8.56423e-13
8.56463e-13
8.56531e-13
8.56631e-13
8.56766e-13
8.56976e-13
8.5723e-13
8.57649e-13
8.58186e-13
8.58671e-13
8.59511e-13
8.59597e-13
8.51184e-13
8.51171e-13
8.50692e-13
8.50343e-13
8.49943e-13
8.49648e-13
8.49456e-13
8.49313e-13
8.49214e-13
8.49147e-13
8.491e-13
8.49074e-13
8.4905e-13
8.49041e-13
8.49029e-13
8.49028e-13
8.49023e-13
8.49024e-13
8.49022e-13
8.49023e-13
8.49023e-13
8.49024e-13
8.49024e-13
8.49025e-13
8.49025e-13
8.49025e-13
8.49025e-13
8.49024e-13
8.49024e-13
8.49022e-13
8.49023e-13
8.49021e-13
8.49023e-13
8.49022e-13
8.49027e-13
8.49029e-13
8.4904e-13
8.49049e-13
8.49072e-13
8.49099e-13
8.49146e-13
8.49214e-13
8.49312e-13
8.49455e-13
8.49646e-13
8.49941e-13
8.50341e-13
8.5069e-13
8.51168e-13
8.51181e-13
8.45026e-13
8.45244e-13
8.45202e-13
8.45117e-13
8.44982e-13
8.44927e-13
8.44852e-13
8.44837e-13
8.44805e-13
8.448e-13
8.4479e-13
8.4479e-13
8.44789e-13
8.4479e-13
8.44794e-13
8.44796e-13
8.448e-13
8.44802e-13
8.44806e-13
8.44807e-13
8.4481e-13
8.44811e-13
8.44813e-13
8.44813e-13
8.44814e-13
8.44814e-13
8.44813e-13
8.44813e-13
8.44811e-13
8.4481e-13
8.44807e-13
8.44805e-13
8.44801e-13
8.448e-13
8.44795e-13
8.44793e-13
8.44789e-13
8.44788e-13
8.4479e-13
8.44791e-13
8.44798e-13
8.44805e-13
8.44836e-13
8.44852e-13
8.44926e-13
8.44981e-13
8.45115e-13
8.452e-13
8.45241e-13
8.45023e-13
8.42888e-13
8.43575e-13
8.44435e-13
8.44876e-13
8.45234e-13
8.45616e-13
8.4575e-13
8.45962e-13
8.46048e-13
8.46152e-13
8.46208e-13
8.46253e-13
8.46291e-13
8.4631e-13
8.4634e-13
8.46348e-13
8.4637e-13
8.46372e-13
8.46387e-13
8.46387e-13
8.46397e-13
8.46396e-13
8.46401e-13
8.46401e-13
8.46403e-13
8.46403e-13
8.46401e-13
8.46401e-13
8.46396e-13
8.46396e-13
8.46387e-13
8.46386e-13
8.46372e-13
8.46369e-13
8.46347e-13
8.46339e-13
8.46309e-13
8.4629e-13
8.46254e-13
8.46211e-13
8.46147e-13
8.46047e-13
8.45961e-13
8.45749e-13
8.45615e-13
8.45233e-13
8.44874e-13
8.44433e-13
8.43573e-13
8.42885e-13
8.47988e-13
8.49503e-13
8.51904e-13
8.53225e-13
8.54396e-13
8.55537e-13
8.56027e-13
8.56631e-13
8.56915e-13
8.57207e-13
8.57375e-13
8.57498e-13
8.57604e-13
8.57652e-13
8.57728e-13
8.57745e-13
8.57796e-13
8.578e-13
8.57833e-13
8.57831e-13
8.57851e-13
8.57849e-13
8.5786e-13
8.57858e-13
8.57862e-13
8.57862e-13
8.57858e-13
8.5786e-13
8.57848e-13
8.57851e-13
8.57831e-13
8.57832e-13
8.57799e-13
8.57795e-13
8.57744e-13
8.57726e-13
8.57651e-13
8.57603e-13
8.575e-13
8.57384e-13
8.57199e-13
8.56915e-13
8.5663e-13
8.56026e-13
8.55537e-13
8.54395e-13
8.53224e-13
8.51902e-13
8.49502e-13
8.47987e-13
8.65456e-13
8.68202e-13
8.73123e-13
8.75898e-13
8.78356e-13
8.80712e-13
8.8176e-13
8.82988e-13
8.83583e-13
8.84171e-13
8.84516e-13
8.84761e-13
8.84972e-13
8.85066e-13
8.85213e-13
8.85245e-13
8.85342e-13
8.85348e-13
8.8541e-13
8.85405e-13
8.85443e-13
8.85436e-13
8.85457e-13
8.85452e-13
8.8546e-13
8.8546e-13
8.85453e-13
8.85457e-13
8.85436e-13
8.85443e-13
8.85405e-13
8.85409e-13
8.85347e-13
8.85341e-13
8.85244e-13
8.85212e-13
8.85065e-13
8.84972e-13
8.84766e-13
8.84534e-13
8.84158e-13
8.83583e-13
8.82987e-13
8.8176e-13
8.80712e-13
8.78357e-13
8.75899e-13
8.73122e-13
8.68202e-13
8.65456e-13
9.02693e-13
9.0772e-13
9.16762e-13
9.21915e-13
9.26403e-13
9.30697e-13
9.32749e-13
9.35057e-13
9.36194e-13
9.37293e-13
9.37944e-13
9.38398e-13
9.38794e-13
9.38965e-13
9.39236e-13
9.39293e-13
9.3947e-13
9.39477e-13
9.3959e-13
9.39579e-13
9.39647e-13
9.39633e-13
9.39671e-13
9.39662e-13
9.39675e-13
9.39676e-13
9.39663e-13
9.39672e-13
9.39634e-13
9.39648e-13
9.39579e-13
9.39589e-13
9.39476e-13
9.39468e-13
9.39291e-13
9.39233e-13
9.38964e-13
9.38793e-13
9.38409e-13
9.37976e-13
9.37272e-13
9.36194e-13
9.35057e-13
9.3275e-13
9.307e-13
9.26404e-13
9.21919e-13
9.16762e-13
9.07724e-13
9.02695e-13
9.7209e-13
9.80797e-13
9.96356e-13
1.00531e-12
1.01294e-12
1.02027e-12
1.02375e-12
1.02762e-12
1.02954e-12
1.03138e-12
1.03248e-12
1.03323e-12
1.03389e-12
1.03417e-12
1.03462e-12
1.03471e-12
1.03501e-12
1.03501e-12
1.0352e-12
1.03518e-12
1.03529e-12
1.03527e-12
1.03533e-12
1.03531e-12
1.03534e-12
1.03534e-12
1.03531e-12
1.03533e-12
1.03527e-12
1.03529e-12
1.03518e-12
1.0352e-12
1.03501e-12
1.035e-12
1.03471e-12
1.03462e-12
1.03417e-12
1.03389e-12
1.03325e-12
1.03253e-12
1.03135e-12
1.02954e-12
1.02763e-12
1.02375e-12
1.02027e-12
1.01295e-12
1.00531e-12
9.96358e-13
9.80804e-13
9.72097e-13
1.09246e-12
1.10698e-12
1.13276e-12
1.14764e-12
1.16011e-12
1.1721e-12
1.17778e-12
1.18411e-12
1.1872e-12
1.19019e-12
1.19198e-12
1.19319e-12
1.19426e-12
1.1947e-12
1.19543e-12
1.19556e-12
1.19604e-12
1.19605e-12
1.19635e-12
1.19631e-12
1.19649e-12
1.19645e-12
1.19655e-12
1.19652e-12
1.19656e-12
1.19656e-12
1.19652e-12
1.19655e-12
1.19645e-12
1.19649e-12
1.19631e-12
1.19635e-12
1.19604e-12
1.19604e-12
1.19556e-12
1.19542e-12
1.1947e-12
1.19426e-12
1.19322e-12
1.19205e-12
1.19014e-12
1.1872e-12
1.18411e-12
1.17779e-12
1.1721e-12
1.16012e-12
1.14766e-12
1.13277e-12
1.10699e-12
1.09248e-12
1.29251e-12
1.31603e-12
1.35768e-12
1.38161e-12
1.40145e-12
1.42045e-12
1.4295e-12
1.43959e-12
1.44445e-12
1.44917e-12
1.45201e-12
1.45391e-12
1.45561e-12
1.45628e-12
1.45743e-12
1.45763e-12
1.45838e-12
1.45838e-12
1.45886e-12
1.45879e-12
1.45908e-12
1.45901e-12
1.45916e-12
1.45912e-12
1.45918e-12
1.45918e-12
1.45912e-12
1.45917e-12
1.45901e-12
1.45908e-12
1.45879e-12
1.45886e-12
1.45838e-12
1.45838e-12
1.45763e-12
1.45742e-12
1.45628e-12
1.45561e-12
1.45397e-12
1.45213e-12
1.4491e-12
1.44444e-12
1.4396e-12
1.42951e-12
1.42047e-12
1.40148e-12
1.38163e-12
1.35769e-12
1.31606e-12
1.29254e-12
1.61594e-12
1.65433e-12
1.7185e-12
1.75608e-12
1.78698e-12
1.81644e-12
1.83051e-12
1.84626e-12
1.85373e-12
1.86105e-12
1.86545e-12
1.86839e-12
1.87101e-12
1.87203e-12
1.8738e-12
1.8741e-12
1.87525e-12
1.87524e-12
1.87598e-12
1.87587e-12
1.87631e-12
1.87619e-12
1.87644e-12
1.87637e-12
1.87645e-12
1.87646e-12
1.87637e-12
1.87644e-12
1.8762e-12
1.87632e-12
1.87587e-12
1.87598e-12
1.87524e-12
1.87525e-12
1.87409e-12
1.87379e-12
1.87203e-12
1.87101e-12
1.86848e-12
1.86565e-12
1.86093e-12
1.85372e-12
1.84629e-12
1.83053e-12
1.81647e-12
1.78702e-12
1.75611e-12
1.71852e-12
1.65437e-12
1.61599e-12
2.12547e-12
2.18529e-12
2.28457e-12
2.34283e-12
2.38997e-12
2.43499e-12
2.45634e-12
2.48051e-12
2.49175e-12
2.50288e-12
2.50958e-12
2.51404e-12
2.51802e-12
2.51954e-12
2.52223e-12
2.52265e-12
2.5244e-12
2.52437e-12
2.52549e-12
2.52531e-12
2.52598e-12
2.5258e-12
2.52617e-12
2.52606e-12
2.52619e-12
2.52619e-12
2.52606e-12
2.52618e-12
2.52581e-12
2.52599e-12
2.52531e-12
2.52549e-12
2.52436e-12
2.5244e-12
2.52263e-12
2.52222e-12
2.51953e-12
2.51803e-12
2.51418e-12
2.5099e-12
2.5027e-12
2.49172e-12
2.48057e-12
2.45637e-12
2.43503e-12
2.39004e-12
2.34289e-12
2.28461e-12
2.18536e-12
2.12554e-12
2.91431e-12
3.00589e-12
3.15711e-12
3.24548e-12
3.31607e-12
3.38383e-12
3.41557e-12
3.45208e-12
3.46864e-12
3.4853e-12
3.49536e-12
)
;

boundaryField
{
    fuel
    {
        type            fixedValue;
        value           nonuniform 0();
    }
    wall
    {
        type            zeroGradient;
    }
    outlet
    {
        type            zeroGradient;
    }
    frontAndBack
    {
        type            empty;
    }
    procBoundary2to0
    {
        type            processor;
        value           nonuniform List<scalar> 
53
(
9.64675e-13
9.66295e-13
9.67684e-13
9.68548e-13
9.69045e-13
9.694e-13
9.69553e-13
9.69676e-13
9.69735e-13
9.698e-13
9.69832e-13
9.69874e-13
9.69894e-13
9.69922e-13
9.69935e-13
9.69955e-13
9.69962e-13
9.69975e-13
9.66007e-13
9.66007e-13
9.66015e-13
9.66018e-13
9.66022e-13
9.66023e-13
9.66026e-13
9.66026e-13
9.66026e-13
9.66026e-13
9.66023e-13
9.62529e-13
9.62529e-13
9.62524e-13
9.62522e-13
9.62513e-13
9.62508e-13
9.62495e-13
9.62485e-13
9.62465e-13
9.62449e-13
9.62419e-13
9.62394e-13
9.6235e-13
9.59256e-13
9.59256e-13
9.59181e-13
9.59099e-13
9.58958e-13
9.58766e-13
9.58413e-13
9.57856e-13
9.57004e-13
9.55714e-13
9.54265e-13
)
;
    }
    procBoundary2to3
    {
        type            processor;
        value           nonuniform List<scalar> 
51
(
3.50203e-12
3.50796e-12
3.51017e-12
3.5142e-12
3.51477e-12
3.51741e-12
3.51732e-12
3.519e-12
3.5187e-12
3.51971e-12
3.51942e-12
3.51998e-12
3.51981e-12
3.52001e-12
3.52001e-12
3.51982e-12
3.52e-12
3.51944e-12
3.51973e-12
3.51871e-12
3.51899e-12
3.51731e-12
3.5174e-12
3.51475e-12
3.51418e-12
3.51016e-12
3.50797e-12
3.50224e-12
3.49586e-12
3.48505e-12
3.46862e-12
3.45215e-12
3.41563e-12
3.3839e-12
3.31618e-12
3.24557e-12
3.15719e-12
3.006e-12
2.91442e-12
4.11464e-12
4.25245e-12
4.47917e-12
4.61073e-12
4.71463e-12
4.81503e-12
4.86135e-12
4.91559e-12
4.93962e-12
4.96419e-12
3.50203e-12
4.97898e-12
)
;
    }
}


// ************************************************************************* //
