/*--------------------------------*- C++ -*----------------------------------*\
| =========                 |                                                 |
| \\      /  F ield         | OpenFOAM: The Open Source CFD Toolbox           |
|  \\    /   O peration     | Version:  dev                                   |
|   \\  /    A nd           | Web:      www.OpenFOAM.org                      |
|    \\/     M anipulation  |                                                 |
\*---------------------------------------------------------------------------*/
FoamFile
{
    version     2.0;
    format      ascii;
    class       volScalarField;
    location    "0.075";
    object      CH3;
}
// * * * * * * * * * * * * * * * * * * * * * * * * * * * * * * * * * * * * * //

dimensions      [0 0 0 0 0 0 0];

internalField   nonuniform List<scalar> 
250
(
7.29329e-07
0.000706884
0.00067837
0.000675555
0.000675699
0.000675588
0.000675698
0.000675699
0.000675149
6.11902e-07
0.000542358
0.000512232
0.000509946
0.00050984
0.00050959
0.000509743
0.000509744
0.000509549
5.39402e-07
0.000388138
0.000365843
0.000364321
0.000364191
0.000363975
0.000364136
0.000364072
0.000363999
5.13358e-07
0.000280416
0.000266563
0.000265994
0.000265897
0.000265727
0.000265866
0.000265794
0.000265769
6.00591e-07
0.000208802
0.000204457
0.000204714
0.000204752
0.000204668
0.000204773
0.00020472
0.000204712
1.03674e-06
0.000161657
0.000165375
0.000166882
0.00016649
0.000166221
0.000166317
0.000166232
0.000166236
2.24461e-06
0.000128639
0.000142327
0.000144532
0.000144228
0.000143982
0.000144052
0.000143982
0.000143988
4.12108e-06
0.000107041
0.000128284
0.000131058
0.000130761
0.000130473
0.000130523
0.000130464
0.000130471
5.32911e-06
9.43168e-05
0.000118996
0.00012232
0.000122367
0.000121935
0.000121997
0.000121912
0.00012194
5.07112e-06
8.49712e-05
0.000112695
0.000116324
0.000116409
0.000116507
0.000116567
0.000116481
0.000116513
4.97555e-06
7.90653e-05
0.000108927
0.000112715
0.000112807
0.000112796
0.000112869
0.00011275
0.000112807
0.000112754
6.20586e-06
7.57456e-05
0.000105999
0.000109761
0.000109806
0.000109717
0.000109798
0.000109662
0.000109734
0.000109668
8.64736e-06
7.44837e-05
0.000103659
0.000107323
0.000107365
0.000107211
0.000107304
0.000107147
0.000107235
0.000107155
1.20356e-05
7.43018e-05
0.000101707
0.000105182
0.00010521
0.000104997
0.000105106
0.000104923
0.00010503
0.000104936
1.61091e-05
7.4837e-05
9.99578e-05
0.00010318
0.000103188
0.00010292
0.000103045
0.000102834
0.000102961
0.000102852
2.08255e-05
7.57916e-05
9.82968e-05
0.000101227
0.000101209
0.000100888
0.000101031
0.00010079
0.000100939
0.000100813
2.61837e-05
7.70379e-05
9.6648e-05
9.92645e-05
9.92196e-05
9.88477e-05
9.90098e-05
9.87366e-05
9.89086e-05
9.87645e-05
3.21429e-05
7.83443e-05
9.49573e-05
9.7256e-05
9.71833e-05
9.67623e-05
9.69434e-05
9.66374e-05
9.68324e-05
9.66697e-05
3.85551e-05
7.93675e-05
9.31821e-05
9.51704e-05
9.50706e-05
9.4602e-05
9.48023e-05
9.44629e-05
9.46809e-05
9.44987e-05
4.51378e-05
8.01468e-05
9.12843e-05
9.2979e-05
9.28532e-05
9.23387e-05
9.25582e-05
9.21848e-05
9.24258e-05
9.22231e-05
5.15001e-05
8.05826e-05
8.92213e-05
9.06491e-05
9.04996e-05
8.99402e-05
9.01788e-05
8.97716e-05
9.00351e-05
8.98112e-05
5.72276e-05
8.06105e-05
8.72255e-05
8.8138e-05
8.79687e-05
8.7365e-05
8.76226e-05
8.71822e-05
8.74675e-05
8.7222e-05
6.19722e-05
8.0181e-05
8.48357e-05
8.5761e-05
8.55417e-05
8.48976e-05
8.51736e-05
8.46977e-05
8.50075e-05
8.47382e-05
6.55066e-05
7.92691e-05
8.24462e-05
8.32229e-05
8.28581e-05
8.20978e-05
8.24276e-05
8.18638e-05
8.22298e-05
8.19065e-05
6.77325e-05
7.78594e-05
7.95854e-05
8.01764e-05
8.00356e-05
7.92158e-05
7.95738e-05
7.89601e-05
7.93608e-05
7.90035e-05
6.86573e-05
7.59345e-05
7.66665e-05
7.71594e-05
7.6923e-05
7.60882e-05
7.64781e-05
7.58093e-05
7.62494e-05
7.58535e-05
)
;

boundaryField
{
    fuel
    {
        type            fixedValue;
        value           uniform 0;
    }
    wall
    {
        type            zeroGradient;
    }
    outlet
    {
        type            zeroGradient;
    }
    frontAndBack
    {
        type            empty;
    }
    procBoundary2to0
    {
        type            processor;
        value           nonuniform List<scalar> 
12
(
7.91128e-05
6.83353e-05
7.3351e-05
7.34535e-05
7.38648e-05
7.35776e-05
7.26834e-05
7.31086e-05
7.23795e-05
7.28641e-05
7.59761e-05
7.24247e-05
)
;
    }
    procBoundary2to3
    {
        type            processor;
        value           nonuniform List<scalar> 
25
(
0.000675685
0.000509759
0.000364109
0.000265828
0.000204748
0.000166243
0.00014399
0.00013047
0.000121911
0.000116478
0.000116478
0.000112759
0.00010968
0.000107173
0.000104958
0.000102879
0.000100845
9.88017e-05
9.67126e-05
9.45479e-05
9.22793e-05
8.98751e-05
8.72941e-05
8.4819e-05
8.20041e-05
)
;
    }
}


// ************************************************************************* //
