/*--------------------------------*- C++ -*----------------------------------*\
| =========                 |                                                 |
| \\      /  F ield         | OpenFOAM: The Open Source CFD Toolbox           |
|  \\    /   O peration     | Version:  dev                                   |
|   \\  /    A nd           | Web:      www.OpenFOAM.org                      |
|    \\/     M anipulation  |                                                 |
\*---------------------------------------------------------------------------*/
FoamFile
{
    version     2.0;
    format      ascii;
    class       volScalarField;
    location    "0.075";
    object      dQ;
}
// * * * * * * * * * * * * * * * * * * * * * * * * * * * * * * * * * * * * * //

dimensions      [1 2 -3 0 0 0 0];

internalField   nonuniform List<scalar> 
250
(
0.01167
33.494
34.1672
34.231
34.2294
34.2206
34.2327
34.2232
34.2311
0.0110233
8.2162
7.65435
7.63166
7.63106
7.62487
7.6297
7.62735
7.62737
0.00868969
2.43641
2.01274
1.99736
1.9965
1.99392
1.99587
1.99479
1.99481
0.00700544
0.922926
0.664209
0.655878
0.655212
0.654201
0.655022
0.654556
0.654607
0.00670005
0.419179
0.26136
0.255786
0.255745
0.255566
0.255912
0.255757
0.255785
0.00862581
0.216962
0.111208
0.108368
0.106889
0.10627
0.106477
0.106298
0.10633
0.0136974
0.117306
0.0510443
0.0485175
0.0475214
0.0471892
0.0472782
0.0472004
0.0472137
0.0208766
0.0708623
0.0238211
0.0214942
0.0206449
0.0203804
0.0204057
0.0203858
0.0203825
0.0261109
0.0459209
0.00994077
0.00792115
0.00763557
0.0072603
0.00728363
0.00725653
0.00726745
0.0251502
0.0297795
0.0026436
0.000791475
0.000566222
0.000825599
0.00082837
0.000828168
0.000826532
0.0209522
0.0198346
-0.000672692
-0.00235309
-0.00254844
-0.00240638
-0.00240804
-0.00241107
-0.00240699
-0.00239972
0.0173131
0.0134714
-0.0025544
-0.00409257
-0.00427811
-0.00419006
-0.00419975
-0.00418909
-0.00419294
-0.00418236
0.0143134
0.00969617
-0.00355932
-0.00492896
-0.00507567
-0.00501217
-0.00502673
-0.00500702
-0.00501643
-0.00500337
0.01196
0.00698896
-0.004057
-0.00526633
-0.0053831
-0.00532948
-0.00534726
-0.00532088
-0.00533464
-0.00531934
0.0105591
0.0049551
-0.00427667
-0.00533232
-0.00542504
-0.00537386
-0.00539401
-0.00536223
-0.00537966
-0.00536214
0.0100976
0.00336251
-0.00433627
-0.00524492
-0.00531763
-0.00526513
-0.00528717
-0.0052507
-0.00527136
-0.00525163
0.0101432
0.00204704
-0.00429675
-0.00506605
-0.00512162
-0.00506593
-0.00508958
-0.00504889
-0.00507244
-0.00505049
0.0100713
0.000954288
-0.00418921
-0.00482852
-0.00486908
-0.00480933
-0.00483438
-0.00478978
-0.00481597
-0.00479177
0.00945718
8.3679e-05
-0.00402974
-0.00455014
-0.00457726
-0.00451305
-0.00453937
-0.00449107
-0.0045197
-0.0044932
0.00822385
-0.000609785
-0.00382905
-0.00424172
-0.00425642
-0.0041875
-0.00421508
-0.0041631
-0.00419409
-0.00416518
0.00655683
-0.00113966
-0.0035997
-0.00391283
-0.00391548
-0.00384147
-0.0038705
-0.0038145
-0.00384809
-0.00381641
0.00474434
-0.0015107
-0.00330048
-0.00357943
-0.00356906
-0.00348913
-0.00352026
-0.00345897
-0.00349607
-0.00346076
0.00304664
-0.00173111
-0.0029964
-0.00318216
-0.00316336
-0.00307377
-0.003109
-0.00303978
-0.00308198
-0.00304136
0.00163442
-0.00180901
-0.00261645
-0.0027455
-0.00274387
-0.00265939
-0.00269248
-0.00262443
-0.00266645
-0.00262535
0.000584704
-0.00175328
-0.00223744
-0.00232931
-0.0022806
-0.00219355
-0.00222951
-0.00215527
-0.00220187
-0.0021559
-9.63432e-05
-0.00159887
-0.0017823
-0.00183358
-0.00178867
-0.00169228
-0.00173074
-0.00165079
-0.00170202
-0.00165116
)
;

boundaryField
{
    fuel
    {
        type            calculated;
        value           uniform 0;
    }
    wall
    {
        type            calculated;
        value           nonuniform 0();
    }
    outlet
    {
        type            calculated;
        value           uniform 0;
    }
    frontAndBack
    {
        type            empty;
    }
    procBoundary2to0
    {
        type            processor;
        value           uniform 0;
    }
    procBoundary2to3
    {
        type            processor;
        value           uniform 0;
    }
}


// ************************************************************************* //
