/*--------------------------------*- C++ -*----------------------------------*\
| =========                 |                                                 |
| \\      /  F ield         | OpenFOAM: The Open Source CFD Toolbox           |
|  \\    /   O peration     | Version:  dev                                   |
|   \\  /    A nd           | Web:      www.OpenFOAM.org                      |
|    \\/     M anipulation  |                                                 |
\*---------------------------------------------------------------------------*/
FoamFile
{
    version     2.0;
    format      ascii;
    class       volScalarField;
    location    "0.075";
    object      H2;
}
// * * * * * * * * * * * * * * * * * * * * * * * * * * * * * * * * * * * * * //

dimensions      [0 0 0 0 0 0 0];

internalField   nonuniform List<scalar> 
25
(
0.00840618
0.00834297
0.00827958
0.00821295
0.00814415
0.0080752
0.00800417
0.00793094
0.00785539
0.0077774
0.00769682
0.00761351
0.00752732
0.0074381
0.00734568
0.0072484
0.00714897
0.00704584
0.00693884
0.00682606
0.00671075
0.00659111
0.00646695
0.00633808
0.00620447
)
;

boundaryField
{
    wall
    {
        type            zeroGradient;
    }
    fuel
    {
        type            fixedValue;
        value           nonuniform 0();
    }
    outlet
    {
        type            inletOutlet;
        inletValue      nonuniform 0();
        value           nonuniform 0();
    }
    procBoundary2to1
    {
        type            processor;
        value           uniform 0.00846643;
    }
    procBoundary2to3
    {
        type            processor;
        value           uniform 0.00606596;
    }
}


// ************************************************************************* //
