/*--------------------------------*- C++ -*----------------------------------*\
| =========                 |                                                 |
| \\      /  F ield         | OpenFOAM: The Open Source CFD Toolbox           |
|  \\    /   O peration     | Version:  dev                                   |
|   \\  /    A nd           | Web:      www.OpenFOAM.org                      |
|    \\/     M anipulation  |                                                 |
\*---------------------------------------------------------------------------*/
FoamFile
{
    version     2.0;
    format      ascii;
    class       volScalarField;
    location    "0.075";
    object      H2;
}
// * * * * * * * * * * * * * * * * * * * * * * * * * * * * * * * * * * * * * //

dimensions      [0 0 0 0 0 0 0];

internalField   nonuniform List<scalar> 
1997
(
0.00899734
0.00899593
0.00899528
0.00899484
0.00899486
0.00899481
0.00899497
0.00899505
0.00899517
0.00899523
0.0089953
0.00899532
0.00899537
0.00899537
0.0089954
0.0089954
0.00899541
0.00899541
0.00900525
0.00900391
0.00900332
0.0090029
0.00900292
0.0090029
0.00900304
0.00900313
0.00900325
0.0090033
0.00900337
0.0090034
0.00900344
0.00900345
0.00900347
0.00900347
0.00900348
0.00900348
0.00900349
0.00900348
0.00900349
0.00900349
0.00900349
0.00900349
0.00900349
0.00900349
0.00900349
0.00900349
0.00901295
0.00901167
0.00901114
0.00901075
0.00901077
0.00901076
0.0090109
0.00901099
0.0090111
0.00901116
0.00901122
0.00901125
0.00901129
0.0090113
0.00901132
0.00901132
0.00901133
0.00901133
0.00901134
0.00901133
0.00901134
0.00901134
0.00901134
0.00901134
0.00901134
0.00901134
0.00901134
0.00901134
0.00901133
0.00901134
0.00901133
0.00901133
0.00901132
0.00901133
0.00901131
0.00901131
0.00901129
0.00901128
0.00901124
0.00901122
0.00902043
0.00901922
0.00901874
0.00901837
0.00901841
0.0090184
0.00901854
0.00901863
0.00901874
0.00901879
0.00901886
0.00901888
0.00901892
0.00901893
0.00901895
0.00901895
0.00901896
0.00901896
0.00901897
0.00901896
0.00901897
0.00901897
0.00901897
0.00901897
0.00901897
0.00901897
0.00901897
0.00901897
0.00901896
0.00901897
0.00901896
0.00901896
0.00901896
0.00901896
0.00901895
0.00901895
0.00901892
0.00901892
0.00901888
0.00901885
0.00901878
0.00901873
0.00901862
0.00901853
0.00901839
0.0090184
0.00901836
0.00901873
0.00901921
0.00902042
0.00902771
0.00902656
0.00902613
0.00902579
0.00902582
0.00902583
0.00902597
0.00902606
0.00902616
0.00902621
0.00902628
0.0090263
0.00902634
0.00902635
0.00902637
0.00902637
0.00902638
0.00902638
0.00902638
0.00902638
0.00902638
0.00902638
0.00902639
0.00902638
0.00902638
0.00902638
0.00902638
0.00902638
0.00902638
0.00902638
0.00902638
0.00902638
0.00902637
0.00902637
0.00902636
0.00902636
0.00902634
0.00902633
0.0090263
0.00902627
0.00902621
0.00902615
0.00902605
0.00902596
0.00902582
0.00902581
0.00902578
0.00902612
0.00902655
0.0090277
0.00903489
0.00903379
0.00903341
0.00903309
0.00903315
0.00903317
0.00903332
0.00903341
0.00903351
0.00903357
0.00903363
0.00903366
0.00903369
0.0090337
0.00903372
0.00903372
0.00903373
0.00903373
0.00903374
0.00903373
0.00903374
0.00903374
0.00903374
0.00903374
0.00903374
0.00903374
0.00903374
0.00903374
0.00903373
0.00903374
0.00903373
0.00903373
0.00903372
0.00903373
0.00903371
0.00903372
0.00903369
0.00903369
0.00903365
0.00903362
0.00903356
0.0090335
0.0090334
0.00903331
0.00903316
0.00903314
0.00903308
0.0090334
0.00903378
0.00903488
0.00904176
0.00904073
0.00904039
0.00904009
0.00904016
0.00904019
0.00904033
0.00904042
0.00904052
0.00904058
0.00904064
0.00904066
0.0090407
0.0090407
0.00904072
0.00904072
0.00904074
0.00904073
0.00904074
0.00904074
0.00904074
0.00904074
0.00904074
0.00904074
0.00904074
0.00904074
0.00904074
0.00904074
0.00904074
0.00904074
0.00904073
0.00904074
0.00904073
0.00904073
0.00904072
0.00904072
0.0090407
0.00904069
0.00904065
0.00904063
0.00904057
0.00904051
0.00904041
0.00904032
0.00904018
0.00904015
0.00904008
0.00904038
0.00904072
0.00904175
0.00904843
0.00904746
0.00904717
0.00904689
0.00904697
0.009047
0.00904714
0.00904723
0.00904734
0.00904739
0.00904746
0.00904748
0.00904752
0.00904753
0.00904755
0.00904755
0.00904756
0.00904756
0.00904756
0.00904756
0.00904756
0.00904756
0.00904756
0.00904756
0.00904756
0.00904756
0.00904756
0.00904756
0.00904756
0.00904756
0.00904756
0.00904756
0.00904755
0.00904755
0.00904754
0.00904754
0.00904752
0.00904751
0.00904747
0.00904745
0.00904738
0.00904733
0.00904722
0.00904713
0.00904699
0.00904696
0.00904688
0.00904716
0.00904745
0.00904842
0.00905491
0.009054
0.00905374
0.00905349
0.00905357
0.00905361
0.00905375
0.00905384
0.00905394
0.009054
0.00905405
0.00905408
0.00905412
0.00905412
0.00905414
0.00905414
0.00905416
0.00905415
0.00905416
0.00905416
0.00905416
0.00905416
0.00905416
0.00905416
0.00905416
0.00905416
0.00905416
0.00905416
0.00905416
0.00905416
0.00905415
0.00905416
0.00905415
0.00905415
0.00905414
0.00905414
0.00905412
0.00905411
0.00905407
0.00905405
0.00905399
0.00905393
0.00905383
0.00905374
0.0090536
0.00905356
0.00905348
0.00905373
0.00905399
0.0090549
0.0090613
0.00906042
0.00906021
0.00905998
0.00906007
0.00906012
0.00906027
0.00906036
0.00906046
0.00906052
0.00906058
0.0090606
0.00906064
0.00906065
0.00906067
0.00906067
0.00906068
0.00906068
0.00906068
0.00906068
0.00906068
0.00906068
0.00906068
0.00906068
0.00906068
0.00906068
0.00906068
0.00906068
0.00906068
0.00906068
0.00906068
0.00906068
0.00906067
0.00906067
0.00906066
0.00906066
0.00906064
0.00906063
0.0090606
0.00906057
0.00906051
0.00906045
0.00906035
0.00906026
0.00906011
0.00906006
0.00905997
0.0090602
0.00906041
0.00906129
0.00906759
0.00906678
0.0090666
0.00906639
0.00906648
0.00906654
0.00906668
0.00906677
0.00906687
0.00906693
0.00906698
0.00906701
0.00906704
0.00906705
0.00906707
0.00906707
0.00906708
0.00906708
0.00906708
0.00906708
0.00906708
0.00906708
0.00906709
0.00906708
0.00906709
0.00906708
0.00906708
0.00906708
0.00906708
0.00906708
0.00906708
0.00906708
0.00906707
0.00906707
0.00906706
0.00906706
0.00906704
0.00906703
0.009067
0.00906697
0.00906692
0.00906686
0.00906676
0.00906667
0.00906653
0.00906647
0.00906638
0.00906659
0.00906677
0.00906758
0.00907352
0.00907276
0.00907261
0.00907242
0.00907252
0.00907258
0.00907272
0.00907281
0.0090729
0.00907296
0.00907301
0.00907304
0.00907307
0.00907308
0.0090731
0.0090731
0.00907311
0.00907311
0.00907311
0.00907311
0.00907311
0.00907311
0.00907311
0.00907311
0.00907311
0.00907311
0.00907311
0.00907311
0.00907311
0.00907311
0.00907311
0.00907311
0.0090731
0.0090731
0.00907309
0.00907309
0.00907307
0.00907306
0.00907303
0.00907301
0.00907295
0.00907289
0.0090728
0.00907271
0.00907257
0.00907251
0.00907241
0.0090726
0.00907275
0.00907351
0.00907926
0.00907856
0.00907844
0.00907827
0.00907837
0.00907843
0.00907857
0.00907866
0.00907875
0.0090788
0.00907886
0.00907888
0.00907891
0.00907892
0.00907894
0.00907894
0.00907895
0.00907895
0.00907895
0.00907895
0.00907895
0.00907895
0.00907895
0.00907895
0.00907895
0.00907895
0.00907895
0.00907895
0.00907895
0.00907895
0.00907895
0.00907895
0.00907894
0.00907894
0.00907893
0.00907893
0.00907891
0.00907891
0.00907887
0.00907885
0.0090788
0.00907874
0.00907865
0.00907856
0.00907842
0.00907836
0.00907826
0.00907843
0.00907855
0.00907925
0.00908483
0.00908417
0.00908409
0.00908393
0.00908403
0.0090841
0.00908423
0.00908432
0.00908441
0.00908446
0.00908451
0.00908454
0.00908457
0.00908457
0.00908459
0.00908459
0.0090846
0.0090846
0.00908461
0.0090846
0.00908461
0.0090846
0.00908461
0.00908461
0.00908461
0.00908461
0.00908461
0.00908461
0.0090846
0.0090846
0.0090846
0.0090846
0.00908459
0.0090846
0.00908459
0.00908459
0.00908457
0.00908456
0.00908453
0.00908451
0.00908445
0.0090844
0.00908431
0.00908422
0.00908409
0.00908402
0.00908392
0.00908407
0.00908416
0.00908482
0.00909032
0.00908972
0.00908967
0.00908954
0.00908965
0.00908973
0.00908986
0.00908995
0.00909004
0.00909009
0.00909014
0.00909016
0.00909019
0.0090902
0.00909022
0.00909022
0.00909023
0.00909022
0.00909023
0.00909023
0.00909023
0.00909023
0.00909023
0.00909023
0.00909023
0.00909023
0.00909023
0.00909023
0.00909023
0.00909023
0.00909022
0.00909022
0.00909022
0.00909022
0.00909021
0.00909021
0.00909019
0.00909018
0.00909015
0.00909013
0.00909008
0.00909003
0.00908994
0.00908985
0.00908972
0.00908964
0.00908953
0.00908966
0.00908971
0.00909031
0.00909554
0.00909498
0.00909496
0.00909485
0.00909496
0.00909504
0.00909517
0.00909526
0.00909534
0.00909539
0.00909544
0.00909546
0.00909549
0.0090955
0.00909551
0.00909551
0.00909552
0.00909552
0.00909553
0.00909552
0.00909553
0.00909553
0.00909553
0.00909553
0.00909553
0.00909553
0.00909553
0.00909553
0.00909552
0.00909552
0.00909552
0.00909552
0.00909552
0.00909552
0.00909551
0.00909551
0.00909549
0.00909548
0.00909545
0.00909543
0.00909538
0.00909533
0.00909525
0.00909516
0.00909503
0.00909495
0.00909484
0.00909495
0.00909497
0.00909552
0.00910063
0.0091001
0.00910012
0.00910002
0.00910014
0.00910023
0.00910035
0.00910045
0.00910053
0.00910058
0.00910063
0.00910065
0.00910068
0.00910068
0.0091007
0.0091007
0.00910071
0.00910071
0.00910071
0.00910071
0.00910071
0.00910071
0.00910072
0.00910071
0.00910072
0.00910072
0.00910071
0.00910071
0.00910071
0.00910071
0.00910071
0.00910071
0.0091007
0.00910071
0.00910069
0.00910069
0.00910068
0.00910067
0.00910064
0.00910062
0.00910057
0.00910052
0.00910044
0.00910034
0.00910021
0.00910013
0.00910001
0.00910011
0.00910009
0.00910061
0.00910565
0.00910518
0.00910521
0.00910513
0.00910524
0.00910533
0.00910546
0.00910555
0.00910562
0.00910568
0.00910572
0.00910574
0.00910577
0.00910578
0.00910579
0.00910579
0.0091058
0.0091058
0.0091058
0.0091058
0.0091058
0.0091058
0.0091058
0.0091058
0.0091058
0.0091058
0.0091058
0.0091058
0.0091058
0.0091058
0.0091058
0.0091058
0.00910579
0.00910579
0.00910579
0.00910578
0.00910577
0.00910576
0.00910573
0.00910571
0.00910567
0.00910561
0.00910554
0.00910545
0.00910532
0.00910523
0.00910511
0.0091052
0.00910516
0.00910563
0.00911036
0.00910993
0.00910999
0.00910992
0.00911003
0.00911013
0.00911025
0.00911034
0.00911041
0.00911046
0.0091105
0.00911052
0.00911055
0.00911055
0.00911057
0.00911057
0.00911058
0.00911057
0.00911058
0.00911058
0.00911058
0.00911058
0.00911058
0.00911058
0.00911058
0.00911058
0.00911058
0.00911058
0.00911058
0.00911058
0.00911057
0.00911058
0.00911057
0.00911057
0.00911056
0.00911056
0.00911055
0.00911054
0.00911051
0.00911049
0.00911045
0.0091104
0.00911033
0.00911023
0.00911012
0.00911002
0.00910991
0.00910998
0.00910992
0.00911035
0.00911501
0.00911462
0.00911471
0.00911465
0.00911477
0.00911487
0.00911498
0.00911507
0.00911514
0.00911519
0.00911523
0.00911525
0.00911528
0.00911528
0.0091153
0.0091153
0.00911531
0.0091153
0.00911531
0.00911531
0.00911531
0.00911531
0.00911531
0.00911531
0.00911531
0.00911531
0.00911531
0.00911531
0.00911531
0.00911531
0.0091153
0.0091153
0.0091153
0.0091153
0.00911529
0.00911529
0.00911528
0.00911527
0.00911524
0.00911522
0.00911518
0.00911513
0.00911506
0.00911497
0.00911485
0.00911476
0.00911464
0.0091147
0.00911461
0.00911499
0.00911951
0.00911917
0.00911916
0.0091191
0.00911922
0.00911932
0.00911943
0.00911952
0.00911959
0.00911963
0.00911967
0.00911969
0.00911971
0.00911972
0.00911973
0.00911973
0.00911974
0.00911974
0.00911974
0.00911974
0.00911974
0.00911974
0.00911975
0.00911974
0.00911975
0.00911975
0.00911974
0.00911974
0.00911974
0.00911974
0.00911974
0.00911974
0.00911973
0.00911974
0.00911973
0.00911973
0.00911971
0.00911971
0.00911968
0.00911966
0.00911962
0.00911957
0.00911951
0.00911942
0.00911931
0.00911921
0.00911909
0.00911914
0.00911916
0.0091195
0.00912373
0.00912343
0.00912343
0.00912339
0.0091235
0.0091236
0.00912371
0.00912379
0.00912386
0.0091239
0.00912394
0.00912395
0.00912398
0.00912398
0.009124
0.009124
0.009124
0.009124
0.009124
0.009124
0.00912401
0.009124
0.00912401
0.00912401
0.00912401
0.00912401
0.00912401
0.00912401
0.009124
0.009124
0.009124
0.009124
0.009124
0.009124
0.00912399
0.00912399
0.00912398
0.00912397
0.00912395
0.00912393
0.00912389
0.00912384
0.00912378
0.00912369
0.00912359
0.00912349
0.00912338
0.00912342
0.00912342
0.00912372
0.00912786
0.00912761
0.00912763
0.00912759
0.00912771
0.0091278
0.00912791
0.00912799
0.00912805
0.00912809
0.00912813
0.00912815
0.00912817
0.00912817
0.00912818
0.00912818
0.00912819
0.00912819
0.00912819
0.00912819
0.00912819
0.00912819
0.0091282
0.0091282
0.0091282
0.0091282
0.00912819
0.00912819
0.00912819
0.00912819
0.00912819
0.00912819
0.00912818
0.00912819
0.00912818
0.00912818
0.00912817
0.00912816
0.00912814
0.00912812
0.00912809
0.00912804
0.00912798
0.00912789
0.00912779
0.0091277
0.00912758
0.00912761
0.0091276
0.00912785
0.00913185
0.00913154
0.00913156
0.00913153
0.00913165
0.00913174
0.00913184
0.00913192
0.00913198
0.00913202
0.00913205
0.00913207
0.00913209
0.00913209
0.0091321
0.0091321
0.00913211
0.00913211
0.00913211
0.00913211
0.00913211
0.00913211
0.00913211
0.00913211
0.00913211
0.00913211
0.00913211
0.00913211
0.00913211
0.00913211
0.00913211
0.00913211
0.0091321
0.0091321
0.0091321
0.0091321
0.00913208
0.00913208
0.00913206
0.00913204
0.00913201
0.00913197
0.00913191
0.00913183
0.00913173
0.00913164
0.00913152
0.00913155
0.00913153
0.00913184
0.00913557
0.00913529
0.00913533
0.0091353
0.00913541
0.0091355
0.0091356
0.00913567
0.00913573
0.00913577
0.0091358
0.00913582
0.00913584
0.00913584
0.00913585
0.00913585
0.00913586
0.00913586
0.00913586
0.00913586
0.00913586
0.00913586
0.00913586
0.00913586
0.00913586
0.00913586
0.00913586
0.00913586
0.00913586
0.00913586
0.00913586
0.00913586
0.00913585
0.00913586
0.00913585
0.00913585
0.00913584
0.00913583
0.00913581
0.00913579
0.00913576
0.00913572
0.00913566
0.00913558
0.00913549
0.0091354
0.00913529
0.00913531
0.00913528
0.00913556
0.00913918
0.00913895
0.00913899
0.00913898
0.00913909
0.00913918
0.00913926
0.00913934
0.00913939
0.00913943
0.00913946
0.00913948
0.00913949
0.0091395
0.00913951
0.00913951
0.00913952
0.00913951
0.00913952
0.00913952
0.00913952
0.00913952
0.00913952
0.00913952
0.00913952
0.00913952
0.00913952
0.00913952
0.00913952
0.00913952
0.00913951
0.00913951
0.00913951
0.00913951
0.0091395
0.0091395
0.00913949
0.00913949
0.00913947
0.00913945
0.00913942
0.00913938
0.00913932
0.00913925
0.00913916
0.00913907
0.00913896
0.00913898
0.00913894
0.00913916
0.00914265
0.00914236
0.00914241
0.0091424
0.0091425
0.00914259
0.00914267
0.00914274
0.00914279
0.00914283
0.00914285
0.00914287
0.00914288
0.00914289
0.0091429
0.0091429
0.0091429
0.0091429
0.00914291
0.00914291
0.00914291
0.00914291
0.00914291
0.00914291
0.00914291
0.00914291
0.00914291
0.00914291
0.0091429
0.00914291
0.0091429
0.0091429
0.0091429
0.0091429
0.00914289
0.00914289
0.00914288
0.00914288
0.00914286
0.00914284
0.00914282
0.00914278
0.00914273
0.00914266
0.00914258
0.00914249
0.00914238
0.0091424
0.00914235
0.00914263
0.00914585
0.0091456
0.00914568
0.00914568
0.00914579
0.00914587
0.00914595
0.00914602
0.00914607
0.0091461
0.00914613
0.00914614
0.00914616
0.00914616
0.00914617
0.00914617
0.00914618
0.00914618
0.00914618
0.00914618
0.00914618
0.00914618
0.00914618
0.00914618
0.00914618
0.00914618
0.00914618
0.00914618
0.00914618
0.00914618
0.00914617
0.00914617
0.00914617
0.00914617
0.00914617
0.00914617
0.00914616
0.00914615
0.00914613
0.00914612
0.00914609
0.00914606
0.00914601
0.00914594
0.00914586
0.00914577
0.00914566
0.00914566
0.00914559
0.00914584
0.00914895
0.00914866
0.00914874
0.00914874
0.00914884
0.00914892
0.00914899
0.00914906
0.0091491
0.00914913
0.00914916
0.00914917
0.00914918
0.00914919
0.0091492
0.0091492
0.0091492
0.0091492
0.0091492
0.0091492
0.00914921
0.0091492
0.00914921
0.00914921
0.00914921
0.00914921
0.00914921
0.00914921
0.0091492
0.0091492
0.0091492
0.0091492
0.0091492
0.0091492
0.00914919
0.00914919
0.00914918
0.00914918
0.00914916
0.00914915
0.00914912
0.00914909
0.00914904
0.00914898
0.00914891
0.00914883
0.00914872
0.00914872
0.00914865
0.00914894
0.0091518
0.00915154
0.00915161
0.00915161
0.00915171
0.0091518
0.00915186
0.00915193
0.00915197
0.009152
0.00915202
0.00915203
0.00915205
0.00915205
0.00915206
0.00915206
0.00915207
0.00915206
0.00915207
0.00915207
0.00915207
0.00915207
0.00915207
0.00915207
0.00915207
0.00915207
0.00915207
0.00915207
0.00915207
0.00915207
0.00915206
0.00915206
0.00915206
0.00915206
0.00915206
0.00915205
0.00915205
0.00915204
0.00915203
0.00915201
0.00915199
0.00915196
0.00915191
0.00915185
0.00915178
0.0091517
0.0091516
0.0091516
0.00915152
0.00915179
0.00915452
0.00915428
0.0091543
0.00915429
0.00915439
0.00915447
0.00915453
0.00915459
0.00915463
0.00915466
0.00915468
0.00915469
0.0091547
0.0091547
0.00915471
0.00915471
0.00915471
0.00915471
0.00915472
0.00915471
0.00915472
0.00915472
0.00915472
0.00915472
0.00915472
0.00915472
0.00915472
0.00915472
0.00915471
0.00915471
0.00915471
0.00915471
0.00915471
0.00915471
0.0091547
0.0091547
0.0091547
0.00915469
0.00915468
0.00915467
0.00915465
0.00915462
0.00915458
0.00915452
0.00915446
0.00915438
0.00915428
0.00915429
0.00915427
0.00915451
0.00915701
0.00915679
0.00915681
0.00915681
0.00915691
0.00915699
0.00915704
0.0091571
0.00915713
0.00915716
0.00915718
0.00915719
0.0091572
0.0091572
0.00915721
0.00915721
0.00915721
0.00915721
0.00915721
0.00915721
0.00915721
0.00915721
0.00915722
0.00915722
0.00915722
0.00915722
0.00915722
0.00915721
0.00915721
0.00915721
0.00915721
0.00915721
0.00915721
0.00915721
0.0091572
0.0091572
0.00915719
0.00915719
0.00915718
0.00915717
0.00915715
0.00915712
0.00915708
0.00915703
0.00915697
0.0091569
0.0091568
0.0091568
0.00915677
0.00915699
0.00915936
0.00915916
0.00915917
0.00915917
0.0091592
0.00915927
0.00915932
0.00915937
0.0091594
0.00915943
0.00915944
0.00915945
0.00915946
0.00915946
0.00915947
0.00915947
0.00915947
0.00915947
0.00915947
0.00915947
0.00915947
0.00915947
0.00915948
0.00915948
0.00915948
0.00915948
0.00915947
0.00915947
0.00915947
0.00915947
0.00915947
0.00915947
0.00915947
0.00915947
0.00915946
0.00915946
0.00915945
0.00915945
0.00915944
0.00915943
0.00915941
0.00915939
0.00915936
0.00915931
0.00915926
0.00915919
0.00915915
0.00915916
0.00915914
0.00915934
0.00916146
0.00916127
0.00916128
0.00916127
0.0091613
0.00916136
0.00916141
0.00916145
0.00916148
0.0091615
0.00916152
0.00916152
0.00916153
0.00916154
0.00916154
0.00916154
0.00916154
0.00916154
0.00916155
0.00916154
0.00916155
0.00916155
0.00916155
0.00916155
0.00916155
0.00916155
0.00916155
0.00916155
0.00916154
0.00916154
0.00916154
0.00916154
0.00916154
0.00916154
0.00916153
0.00916153
0.00916153
0.00916153
0.00916152
0.00916151
0.00916149
0.00916147
0.00916144
0.00916139
0.00916135
0.00916129
0.00916125
0.00916127
0.00916126
0.00916145
0.00916339
0.0091632
0.00916319
0.00916317
0.00916319
0.00916325
0.00916328
0.00916332
0.00916335
0.00916337
0.00916338
0.00916338
0.00916339
0.00916339
0.0091634
0.0091634
0.0091634
0.0091634
0.0091634
0.0091634
0.0091634
0.0091634
0.0091634
0.0091634
0.0091634
0.0091634
0.0091634
0.0091634
0.0091634
0.0091634
0.0091634
0.0091634
0.00916339
0.0091634
0.00916339
0.00916339
0.00916339
0.00916338
0.00916338
0.00916337
0.00916335
0.00916333
0.00916331
0.00916327
0.00916323
0.00916318
0.00916315
0.00916317
0.00916318
0.00916338
0.0091651
0.00916491
0.00916489
0.00916486
0.00916488
0.00916492
0.00916496
0.00916499
0.00916502
0.00916503
0.00916504
0.00916505
0.00916505
0.00916506
0.00916506
0.00916506
0.00916506
0.00916506
0.00916506
0.00916506
0.00916506
0.00916506
0.00916507
0.00916507
0.00916507
0.00916507
0.00916507
0.00916506
0.00916506
0.00916506
0.00916506
0.00916506
0.00916506
0.00916506
0.00916505
0.00916505
0.00916505
0.00916505
0.00916504
0.00916503
0.00916502
0.009165
0.00916498
0.00916494
0.00916491
0.00916486
0.00916485
0.00916488
0.0091649
0.00916509
0.00916661
0.00916642
0.00916639
0.00916635
0.00916636
0.00916639
0.00916642
0.00916645
0.00916647
0.00916648
0.00916649
0.00916649
0.0091665
0.0091665
0.0091665
0.0091665
0.0091665
0.0091665
0.00916651
0.0091665
0.00916651
0.00916651
0.00916651
0.00916651
0.00916651
0.00916651
0.00916651
0.00916651
0.0091665
0.0091665
0.0091665
0.0091665
0.0091665
0.0091665
0.0091665
0.0091665
0.00916649
0.00916649
0.00916648
0.00916648
0.00916647
0.00916645
0.00916643
0.0091664
0.00916638
0.00916634
0.00916634
0.00916637
0.00916641
0.00916659
0.00916791
0.00916773
0.00916767
0.00916763
0.00916762
0.00916765
0.00916767
0.00916769
0.00916771
0.00916772
0.00916773
0.00916773
0.00916773
0.00916773
0.00916774
0.00916773
0.00916774
0.00916774
0.00916774
0.00916774
0.00916774
0.00916774
0.00916774
0.00916774
0.00916774
0.00916774
0.00916774
0.00916774
0.00916774
0.00916774
0.00916773
0.00916773
0.00916773
0.00916773
0.00916773
0.00916773
0.00916773
0.00916772
0.00916772
0.00916772
0.00916771
0.00916769
0.00916768
0.00916765
0.00916764
0.00916761
0.00916761
0.00916766
0.00916771
0.00916789
0.009169
0.00916882
0.00916875
0.0091687
0.00916868
0.0091687
0.00916871
0.00916873
0.00916874
0.00916875
0.00916875
0.00916875
0.00916875
0.00916875
0.00916876
0.00916876
0.00916876
0.00916876
0.00916876
0.00916876
0.00916876
0.00916876
0.00916876
0.00916876
0.00916876
0.00916876
0.00916876
0.00916876
0.00916876
0.00916876
0.00916875
0.00916875
0.00916875
0.00916875
0.00916875
0.00916875
0.00916875
0.00916875
0.00916874
0.00916874
0.00916873
0.00916872
0.00916871
0.00916869
0.00916868
0.00916867
0.00916868
0.00916873
0.00916881
0.00916898
0.00916988
0.00916971
0.00916961
0.00916955
0.00916953
0.00916953
0.00916954
0.00916955
0.00916956
0.00916956
0.00916957
0.00916956
0.00916956
0.00916956
0.00916957
0.00916956
0.00916957
0.00916956
0.00916957
0.00916957
0.00916957
0.00916957
0.00916957
0.00916957
0.00916957
0.00916957
0.00916957
0.00916957
0.00916957
0.00916956
0.00916956
0.00916956
0.00916956
0.00916956
0.00916956
0.00916956
0.00916956
0.00916956
0.00916955
0.00916955
0.00916955
0.00916954
0.00916953
0.00916952
0.00916952
0.00916951
0.00916954
0.0091696
0.00916969
0.00916987
0.00917056
0.00917038
0.00917027
0.00917019
0.00917016
0.00917015
0.00917015
0.00917016
0.00917016
0.00917017
0.00917017
0.00917016
0.00917016
0.00917016
0.00917016
0.00917016
0.00917016
0.00917016
0.00917016
0.00917016
0.00917016
0.00917016
0.00917017
0.00917017
0.00917017
0.00917017
0.00917017
0.00917016
0.00917016
0.00917016
0.00917016
0.00917016
0.00917016
0.00917016
0.00917016
0.00917016
0.00917016
0.00917016
0.00917015
0.00917015
0.00917015
0.00917015
0.00917014
0.00917014
0.00917014
0.00917014
0.00917018
0.00917025
0.00917036
0.00917054
0.00917103
0.00917084
0.00917071
0.00917063
0.00917058
0.00917056
0.00917056
0.00917056
0.00917056
0.00917056
0.00917056
)
;

boundaryField
{
    fuel
    {
        type            fixedValue;
        value           nonuniform 0();
    }
    wall
    {
        type            zeroGradient;
    }
    outlet
    {
        type            zeroGradient;
    }
    frontAndBack
    {
        type            empty;
    }
    procBoundary2to0
    {
        type            processor;
        value           nonuniform List<scalar> 
53
(
0.00898922
0.00898774
0.00898702
0.00898656
0.00898657
0.00898651
0.00898666
0.00898675
0.00898687
0.00898693
0.008987
0.00898703
0.00898707
0.00898708
0.0089871
0.0089871
0.00898712
0.00898711
0.00899542
0.00899542
0.00899541
0.00899542
0.00899542
0.00899542
0.00899542
0.00899542
0.00899542
0.00899542
0.00899542
0.00900349
0.00900349
0.00900349
0.00900348
0.00900349
0.00900348
0.00900348
0.00900347
0.00900347
0.00900344
0.00900343
0.00900339
0.00900337
0.00901115
0.00901115
0.00901109
0.00901098
0.0090109
0.00901075
0.00901077
0.00901074
0.00901113
0.00901166
0.00901294
)
;
    }
    procBoundary2to3
    {
        type            processor;
        value           nonuniform List<scalar> 
51
(
0.00917056
0.00917056
0.00917056
0.00917056
0.00917056
0.00917056
0.00917056
0.00917056
0.00917056
0.00917056
0.00917056
0.00917056
0.00917057
0.00917057
0.00917057
0.00917056
0.00917056
0.00917056
0.00917056
0.00917056
0.00917056
0.00917056
0.00917056
0.00917056
0.00917056
0.00917056
0.00917056
0.00917055
0.00917056
0.00917056
0.00917055
0.00917055
0.00917055
0.00917056
0.00917058
0.00917062
0.0091707
0.00917084
0.00917102
0.0091713
0.00917111
0.00917096
0.00917086
0.0091708
0.00917078
0.00917077
0.00917076
0.00917076
0.00917076
0.00917056
0.00917076
)
;
    }
}


// ************************************************************************* //
