/*--------------------------------*- C++ -*----------------------------------*\
| =========                 |                                                 |
| \\      /  F ield         | OpenFOAM: The Open Source CFD Toolbox           |
|  \\    /   O peration     | Version:  dev                                   |
|   \\  /    A nd           | Web:      www.OpenFOAM.org                      |
|    \\/     M anipulation  |                                                 |
\*---------------------------------------------------------------------------*/
FoamFile
{
    version     2.0;
    format      ascii;
    class       volScalarField;
    location    "0.075";
    object      HCCO;
}
// * * * * * * * * * * * * * * * * * * * * * * * * * * * * * * * * * * * * * //

dimensions      [0 0 0 0 0 0 0];

internalField   nonuniform List<scalar> 
250
(
2.16171e-08
0.000152863
0.000150519
0.00015019
0.000150143
0.000150137
0.000150135
0.000150137
0.000150139
1.60317e-08
5.90229e-05
5.62043e-05
5.58421e-05
5.57991e-05
5.57918e-05
5.57865e-05
5.57895e-05
5.57895e-05
8.52137e-09
2.35293e-05
2.12761e-05
2.10696e-05
2.1056e-05
2.10492e-05
2.10449e-05
2.10456e-05
2.10454e-05
5.62096e-09
1.19357e-05
9.59316e-06
9.46732e-06
9.46475e-06
9.46038e-06
9.45672e-06
9.45479e-06
9.45651e-06
5.4861e-09
7.78304e-06
5.27673e-06
5.16615e-06
5.16928e-06
5.16635e-06
5.16376e-06
5.15631e-06
5.16286e-06
1.12719e-08
5.97682e-06
3.32751e-06
3.35177e-06
3.36054e-06
3.35864e-06
3.35713e-06
3.33592e-06
3.35531e-06
1.0094e-07
4.95811e-06
2.47487e-06
2.45551e-06
2.45679e-06
2.45423e-06
2.45336e-06
2.47306e-06
2.44825e-06
1.86602e-06
4.21728e-06
1.98783e-06
2.017e-06
2.01961e-06
2.01735e-06
2.01708e-06
2.02676e-06
2.00909e-06
1.35482e-05
3.58063e-06
1.72756e-06
1.74305e-06
1.75335e-06
1.75301e-06
1.75368e-06
1.75841e-06
1.73827e-06
2.91535e-05
3.00125e-06
1.55209e-06
1.57043e-06
1.5799e-06
1.57969e-06
1.58055e-06
1.58236e-06
1.57824e-06
3.02699e-05
2.49559e-06
1.41929e-06
1.44908e-06
1.45809e-06
1.4579e-06
1.45882e-06
1.45919e-06
1.46633e-06
1.44575e-06
2.47493e-05
2.07639e-06
1.31666e-06
1.35465e-06
1.36338e-06
1.36315e-06
1.36401e-06
1.36365e-06
1.36914e-06
1.36371e-06
1.87466e-05
1.7192e-06
1.23186e-06
1.27544e-06
1.28393e-06
1.28359e-06
1.28434e-06
1.28362e-06
1.2879e-06
1.28538e-06
1.39717e-05
1.46427e-06
1.15863e-06
1.20561e-06
1.21376e-06
1.21329e-06
1.21388e-06
1.21299e-06
1.21633e-06
1.21536e-06
1.02218e-05
1.26374e-06
1.09329e-06
1.14205e-06
1.14969e-06
1.14905e-06
1.14951e-06
1.14851e-06
1.15114e-06
1.15083e-06
7.63879e-06
1.10269e-06
1.03353e-06
1.08295e-06
1.08989e-06
1.08905e-06
1.08939e-06
1.08829e-06
1.09041e-06
1.09031e-06
5.71479e-06
9.64392e-07
9.77591e-07
1.02713e-06
1.03315e-06
1.03209e-06
1.03233e-06
1.03113e-06
1.0329e-06
1.03279e-06
4.28533e-06
8.63774e-07
9.31934e-07
9.73761e-07
9.78587e-07
9.77317e-07
9.77472e-07
9.76165e-07
9.77724e-07
9.77522e-07
3.22121e-06
7.81862e-07
8.84707e-07
9.22109e-07
9.25483e-07
9.24015e-07
9.24097e-07
9.22698e-07
9.24132e-07
9.23817e-07
2.4273e-06
7.09583e-07
8.37751e-07
8.71577e-07
8.73172e-07
8.7156e-07
8.71574e-07
8.70112e-07
8.71472e-07
8.71049e-07
1.83555e-06
6.50761e-07
7.92123e-07
8.21635e-07
8.20982e-07
8.19324e-07
8.19263e-07
8.1778e-07
8.19089e-07
8.18567e-07
1.39645e-06
6.01777e-07
7.47156e-07
7.71761e-07
7.74656e-07
7.72871e-07
7.72805e-07
7.7129e-07
7.72573e-07
7.72014e-07
1.07251e-06
5.59647e-07
7.02118e-07
7.26982e-07
7.28523e-07
7.26375e-07
7.26316e-07
7.245e-07
7.25967e-07
7.25151e-07
8.37127e-07
5.26047e-07
6.55936e-07
6.78168e-07
6.77645e-07
6.75419e-07
6.75294e-07
6.73371e-07
6.74905e-07
6.73904e-07
6.68564e-07
4.95778e-07
6.14195e-07
6.32486e-07
6.30867e-07
6.28526e-07
6.28393e-07
6.26404e-07
6.27973e-07
6.26886e-07
5.37255e-07
4.65859e-07
5.71544e-07
5.86327e-07
5.83744e-07
5.81294e-07
5.81156e-07
5.79089e-07
5.80706e-07
5.79519e-07
)
;

boundaryField
{
    fuel
    {
        type            fixedValue;
        value           uniform 0;
    }
    wall
    {
        type            zeroGradient;
    }
    outlet
    {
        type            zeroGradient;
    }
    frontAndBack
    {
        type            empty;
    }
    procBoundary2to0
    {
        type            processor;
        value           nonuniform List<scalar> 
12
(
6.25599e-07
4.48401e-07
4.3518e-07
5.28636e-07
5.39584e-07
5.36225e-07
5.33668e-07
5.33534e-07
5.31381e-07
5.33053e-07
5.78241e-07
5.3176e-07
)
;
    }
    procBoundary2to3
    {
        type            processor;
        value           nonuniform List<scalar> 
25
(
0.00015014
5.5791e-05
2.10474e-05
9.45819e-06
5.16436e-06
3.35682e-06
2.45057e-06
2.01238e-06
1.74382e-06
1.56323e-06
1.56323e-06
1.45886e-06
1.36336e-06
1.28329e-06
1.2126e-06
1.14804e-06
1.08775e-06
1.03054e-06
9.7553e-07
9.22041e-07
8.69457e-07
8.17166e-07
7.7067e-07
7.23713e-07
6.72581e-07
)
;
    }
}


// ************************************************************************* //
