/*--------------------------------*- C++ -*----------------------------------*\
| =========                 |                                                 |
| \\      /  F ield         | OpenFOAM: The Open Source CFD Toolbox           |
|  \\    /   O peration     | Version:  dev                                   |
|   \\  /    A nd           | Web:      www.OpenFOAM.org                      |
|    \\/     M anipulation  |                                                 |
\*---------------------------------------------------------------------------*/
FoamFile
{
    version     2.0;
    format      ascii;
    class       volScalarField;
    location    "0.075";
    object      HCCOH;
}
// * * * * * * * * * * * * * * * * * * * * * * * * * * * * * * * * * * * * * //

dimensions      [0 0 0 0 0 0 0];

internalField   nonuniform List<scalar> 
25
(
6.58535e-10
6.86115e-10
7.10494e-10
7.31897e-10
7.49054e-10
7.6095e-10
7.67775e-10
7.69322e-10
7.65469e-10
7.56199e-10
7.41605e-10
7.21882e-10
6.97329e-10
6.68338e-10
6.35391e-10
5.98513e-10
5.5925e-10
5.17765e-10
4.74751e-10
4.3026e-10
3.86181e-10
3.42575e-10
3.00089e-10
2.59299e-10
2.20691e-10
)
;

boundaryField
{
    wall
    {
        type            zeroGradient;
    }
    fuel
    {
        type            fixedValue;
        value           nonuniform 0();
    }
    outlet
    {
        type            inletOutlet;
        inletValue      nonuniform 0();
        value           nonuniform 0();
    }
    procBoundary2to1
    {
        type            processor;
        value           uniform 6.27722e-10;
    }
    procBoundary2to3
    {
        type            processor;
        value           uniform 1.85136e-10;
    }
}


// ************************************************************************* //
