/*--------------------------------*- C++ -*----------------------------------*\
| =========                 |                                                 |
| \\      /  F ield         | OpenFOAM: The Open Source CFD Toolbox           |
|  \\    /   O peration     | Version:  dev                                   |
|   \\  /    A nd           | Web:      www.OpenFOAM.org                      |
|    \\/     M anipulation  |                                                 |
\*---------------------------------------------------------------------------*/
FoamFile
{
    version     2.0;
    format      ascii;
    class       volScalarField;
    location    "0.075";
    object      HCCOH;
}
// * * * * * * * * * * * * * * * * * * * * * * * * * * * * * * * * * * * * * //

dimensions      [0 0 0 0 0 0 0];

internalField   nonuniform List<scalar> 
250
(
5.94384e-07
1.90848e-05
2.0005e-05
2.01047e-05
2.01187e-05
2.01209e-05
2.0119e-05
2.01191e-05
2.01189e-05
1.37112e-06
1.97272e-05
2.02282e-05
2.02412e-05
2.02426e-05
2.0243e-05
2.02393e-05
2.02393e-05
2.02401e-05
1.92305e-06
1.78811e-05
1.84307e-05
1.84039e-05
1.84006e-05
1.83994e-05
1.83938e-05
1.83921e-05
1.83948e-05
2.30437e-06
1.63307e-05
1.70697e-05
1.70164e-05
1.70108e-05
1.70081e-05
1.70011e-05
1.69949e-05
1.70008e-05
2.55365e-06
1.50545e-05
1.60218e-05
1.59441e-05
1.59372e-05
1.5933e-05
1.59254e-05
1.59106e-05
1.59216e-05
2.67439e-06
1.39624e-05
1.50612e-05
1.5055e-05
1.50475e-05
1.50416e-05
1.50347e-05
1.50056e-05
1.50241e-05
2.62098e-06
1.30127e-05
1.42966e-05
1.42369e-05
1.42127e-05
1.42027e-05
1.41975e-05
1.42185e-05
1.41726e-05
2.30591e-06
1.21818e-05
1.3542e-05
1.35555e-05
1.35246e-05
1.35116e-05
1.35088e-05
1.35222e-05
1.34662e-05
1.95817e-06
1.14535e-05
1.29192e-05
1.28679e-05
1.28518e-05
1.2841e-05
1.28421e-05
1.28494e-05
1.27677e-05
1.87666e-06
1.08156e-05
1.23288e-05
1.22368e-05
1.22123e-05
1.21994e-05
1.22021e-05
1.22036e-05
1.218e-05
1.9454e-06
1.02604e-05
1.17532e-05
1.16582e-05
1.16261e-05
1.16109e-05
1.16144e-05
1.16122e-05
1.16497e-05
1.15355e-05
2.02957e-06
9.76912e-06
1.12256e-05
1.11244e-05
1.10858e-05
1.10685e-05
1.10718e-05
1.10675e-05
1.11003e-05
1.1069e-05
2.09739e-06
9.30188e-06
1.0739e-05
1.06294e-05
1.0585e-05
1.05658e-05
1.05683e-05
1.05629e-05
1.05906e-05
1.05762e-05
2.16182e-06
8.92809e-06
1.0287e-05
1.01682e-05
1.01184e-05
1.00973e-05
1.00989e-05
1.00929e-05
1.01155e-05
1.01107e-05
2.24243e-06
8.59921e-06
9.86362e-06
9.73634e-06
9.6812e-06
9.65844e-06
9.65913e-06
9.65263e-06
9.67084e-06
9.67036e-06
2.34055e-06
8.30029e-06
9.46312e-06
9.32986e-06
9.26935e-06
9.24499e-06
9.24489e-06
9.23791e-06
9.2527e-06
9.25367e-06
2.46307e-06
8.00749e-06
9.07953e-06
8.94522e-06
8.87916e-06
8.85335e-06
8.85258e-06
8.84507e-06
8.85742e-06
8.85843e-06
2.60931e-06
7.76635e-06
8.76009e-06
8.57922e-06
8.50715e-06
8.48012e-06
8.4788e-06
8.47075e-06
8.48149e-06
8.48198e-06
2.77604e-06
7.54024e-06
8.42666e-06
8.22854e-06
8.15001e-06
8.12211e-06
8.12033e-06
8.11184e-06
8.12156e-06
8.1214e-06
2.95844e-06
7.30538e-06
8.09345e-06
7.8903e-06
7.80448e-06
7.77625e-06
7.77408e-06
7.76533e-06
7.77439e-06
7.77361e-06
3.15078e-06
7.07933e-06
7.76943e-06
7.56187e-06
7.46706e-06
7.4393e-06
7.43671e-06
7.428e-06
7.43656e-06
7.43524e-06
3.34635e-06
6.85683e-06
7.4518e-06
7.24057e-06
7.1725e-06
7.14478e-06
7.14221e-06
7.13346e-06
7.14171e-06
7.14023e-06
3.53761e-06
6.63338e-06
7.13722e-06
6.95647e-06
6.88568e-06
6.85676e-06
6.85429e-06
6.84394e-06
6.85311e-06
6.85021e-06
3.71656e-06
6.43116e-06
6.82009e-06
6.65497e-06
6.57843e-06
6.55016e-06
6.54738e-06
6.53659e-06
6.54599e-06
6.54212e-06
3.87462e-06
6.22822e-06
6.53627e-06
6.37666e-06
6.29949e-06
6.27157e-06
6.26879e-06
6.25773e-06
6.26722e-06
6.26288e-06
4.01178e-06
6.0101e-06
6.25064e-06
6.09948e-06
6.02244e-06
5.99487e-06
5.99208e-06
5.98061e-06
5.9903e-06
5.98536e-06
)
;

boundaryField
{
    fuel
    {
        type            fixedValue;
        value           uniform 0;
    }
    wall
    {
        type            zeroGradient;
    }
    outlet
    {
        type            zeroGradient;
    }
    frontAndBack
    {
        type            empty;
    }
    procBoundary2to0
    {
        type            processor;
        value           nonuniform List<scalar> 
12
(
6.25441e-06
4.10777e-06
5.77277e-06
5.96652e-06
5.82109e-06
5.74513e-06
5.71786e-06
5.71511e-06
5.70308e-06
5.71307e-06
5.97713e-06
5.70741e-06
)
;
    }
    procBoundary2to3
    {
        type            processor;
        value           nonuniform List<scalar> 
25
(
2.01186e-05
2.024e-05
1.83952e-05
1.7002e-05
1.59242e-05
1.50288e-05
1.41812e-05
1.34788e-05
1.27842e-05
1.21024e-05
1.21024e-05
1.16111e-05
1.10663e-05
1.05614e-05
1.00909e-05
9.65024e-06
9.23517e-06
8.84208e-06
8.46763e-06
8.10872e-06
7.76237e-06
7.42544e-06
7.13099e-06
6.84062e-06
6.53332e-06
)
;
    }
}


// ************************************************************************* //
