/*--------------------------------*- C++ -*----------------------------------*\
| =========                 |                                                 |
| \\      /  F ield         | OpenFOAM: The Open Source CFD Toolbox           |
|  \\    /   O peration     | Version:  dev                                   |
|   \\  /    A nd           | Web:      www.OpenFOAM.org                      |
|    \\/     M anipulation  |                                                 |
\*---------------------------------------------------------------------------*/
FoamFile
{
    version     2.0;
    format      ascii;
    class       volScalarField;
    location    "0.075";
    object      i-A1C2H2;
}
// * * * * * * * * * * * * * * * * * * * * * * * * * * * * * * * * * * * * * //

dimensions      [0 0 0 0 0 0 0];

internalField   nonuniform List<scalar> 
25
(
1.79889e-18
2.31452e-18
2.97127e-18
3.83039e-18
4.90814e-18
6.18542e-18
7.69769e-18
9.44075e-18
1.14018e-17
1.35664e-17
1.59274e-17
1.84966e-17
2.13155e-17
2.44637e-17
2.80664e-17
3.23621e-17
3.74548e-17
4.36799e-17
5.13694e-17
6.10661e-17
7.29725e-17
8.77846e-17
1.06182e-16
1.28975e-16
1.57048e-16
)
;

boundaryField
{
    wall
    {
        type            zeroGradient;
    }
    fuel
    {
        type            fixedValue;
        value           nonuniform 0();
    }
    outlet
    {
        type            inletOutlet;
        inletValue      nonuniform 0();
        value           nonuniform 0();
    }
    procBoundary2to1
    {
        type            processor;
        value           uniform 1.41166e-18;
    }
    procBoundary2to3
    {
        type            processor;
        value           uniform 1.91373e-16;
    }
}


// ************************************************************************* //
