/*--------------------------------*- C++ -*----------------------------------*\
| =========                 |                                                 |
| \\      /  F ield         | OpenFOAM: The Open Source CFD Toolbox           |
|  \\    /   O peration     | Version:  dev                                   |
|   \\  /    A nd           | Web:      www.OpenFOAM.org                      |
|    \\/     M anipulation  |                                                 |
\*---------------------------------------------------------------------------*/
FoamFile
{
    version     2.0;
    format      ascii;
    class       volScalarField;
    location    "0.075";
    object      i-A1C2H2;
}
// * * * * * * * * * * * * * * * * * * * * * * * * * * * * * * * * * * * * * //

dimensions      [0 0 0 0 0 0 0];

internalField   nonuniform List<scalar> 
250
(
1.34663e-09
7.83249e-09
4.96515e-09
4.77817e-09
4.75106e-09
4.75353e-09
4.75569e-09
4.75097e-09
4.75618e-09
3.03074e-09
4.87225e-09
2.64376e-09
2.50213e-09
2.48753e-09
2.48655e-09
2.48774e-09
2.4861e-09
2.48683e-09
3.81075e-09
3.09584e-09
1.33802e-09
1.23766e-09
1.22817e-09
1.22666e-09
1.2274e-09
1.2267e-09
1.22687e-09
3.94598e-09
2.10205e-09
7.07702e-10
6.36453e-10
6.29719e-10
6.28527e-10
6.28977e-10
6.28596e-10
6.28663e-10
4.08152e-09
1.50603e-09
4.08302e-10
3.55539e-10
3.50724e-10
3.49987e-10
3.5023e-10
3.50032e-10
3.50065e-10
4.67602e-09
1.1163e-09
2.54418e-10
2.15704e-10
2.10193e-10
2.08861e-10
2.09046e-10
2.0878e-10
2.0882e-10
5.71499e-09
8.26194e-10
1.74051e-10
1.43494e-10
1.38817e-10
1.37627e-10
1.37719e-10
1.37534e-10
1.3756e-10
6.54557e-09
6.18387e-10
1.27487e-10
1.02671e-10
9.83886e-11
9.71272e-11
9.71531e-11
9.70272e-11
9.70412e-11
6.14175e-09
4.8136e-10
9.66055e-11
7.66195e-11
7.36591e-11
7.20641e-11
7.21181e-11
7.19443e-11
7.20052e-11
4.06679e-09
3.65676e-10
7.50009e-11
5.87388e-11
5.6146e-11
5.62584e-11
5.62943e-11
5.61493e-11
5.62038e-11
1.95335e-09
2.75817e-10
6.17761e-11
4.82068e-11
4.58257e-11
4.57164e-11
4.57679e-11
4.55703e-11
4.56737e-11
4.56102e-11
9.09076e-10
2.07381e-10
5.14787e-11
4.00722e-11
3.77735e-11
3.75289e-11
3.75776e-11
3.7389e-11
3.74944e-11
3.74196e-11
4.71962e-10
1.63689e-10
4.36136e-11
3.40647e-11
3.19731e-11
3.16353e-11
3.16854e-11
3.14997e-11
3.16098e-11
3.15288e-11
2.70817e-10
1.30493e-10
3.76514e-11
2.95545e-11
2.76406e-11
2.72387e-11
2.72927e-11
2.71072e-11
2.72228e-11
2.71377e-11
1.70692e-10
1.05168e-10
3.30146e-11
2.60533e-11
2.42945e-11
2.38506e-11
2.39092e-11
2.37235e-11
2.38439e-11
2.37566e-11
1.17814e-10
8.59701e-11
2.93245e-11
2.32539e-11
2.16332e-11
2.1165e-11
2.12278e-11
2.10429e-11
2.11666e-11
2.10787e-11
8.90096e-11
7.01496e-11
2.63255e-11
2.09606e-11
1.94652e-11
1.89872e-11
1.90529e-11
1.8871e-11
1.89958e-11
1.89089e-11
7.28169e-11
5.76915e-11
2.38502e-11
1.90465e-11
1.76666e-11
1.71909e-11
1.72575e-11
1.70814e-11
1.72047e-11
1.71204e-11
6.33848e-11
4.92426e-11
2.17833e-11
1.7428e-11
1.61559e-11
1.56927e-11
1.57579e-11
1.55907e-11
1.57096e-11
1.56297e-11
5.765e-11
4.26863e-11
2.00366e-11
1.60485e-11
1.48783e-11
1.44358e-11
1.44971e-11
1.43421e-11
1.4454e-11
1.43801e-11
5.40073e-11
3.76444e-11
1.85453e-11
1.48685e-11
1.37955e-11
1.33805e-11
1.34355e-11
1.32959e-11
1.3398e-11
1.3332e-11
5.16196e-11
3.37756e-11
1.74215e-11
1.38591e-11
1.28801e-11
1.24981e-11
1.25443e-11
1.24238e-11
1.25132e-11
1.2457e-11
5.00555e-11
3.07898e-11
1.63816e-11
1.31196e-11
1.22093e-11
1.18596e-11
1.18965e-11
1.17937e-11
1.18714e-11
1.18245e-11
4.90834e-11
2.84671e-11
1.55974e-11
1.25265e-11
1.16603e-11
1.13311e-11
1.13636e-11
1.12716e-11
1.1341e-11
1.12999e-11
4.85619e-11
2.66571e-11
1.49053e-11
1.20151e-11
1.12581e-11
1.09618e-11
1.09834e-11
1.09112e-11
1.09668e-11
1.09368e-11
4.84263e-11
2.52283e-11
1.4414e-11
1.1685e-11
1.09786e-11
1.07209e-11
1.07305e-11
1.06796e-11
1.07203e-11
1.07025e-11
)
;

boundaryField
{
    fuel
    {
        type            fixedValue;
        value           uniform 0;
    }
    wall
    {
        type            zeroGradient;
    }
    outlet
    {
        type            zeroGradient;
    }
    frontAndBack
    {
        type            empty;
    }
    procBoundary2to0
    {
        type            processor;
        value           nonuniform List<scalar> 
12
(
1.09442e-11
4.83996e-11
2.40502e-11
1.40632e-11
1.14851e-11
1.08288e-11
1.06059e-11
1.06024e-11
1.05741e-11
1.05989e-11
1.07074e-11
1.05945e-11
)
;
    }
    procBoundary2to3
    {
        type            processor;
        value           nonuniform List<scalar> 
25
(
4.75598e-09
2.48724e-09
1.22707e-09
6.28772e-10
3.50156e-10
2.08843e-10
1.37585e-10
9.70723e-11
7.19679e-11
5.61686e-11
5.61686e-11
4.55859e-11
3.74135e-11
3.15327e-11
2.71477e-11
2.37702e-11
2.10943e-11
1.89254e-11
1.71372e-11
1.56462e-11
1.43959e-11
1.33466e-11
1.247e-11
1.18357e-11
1.13098e-11
)
;
    }
}


// ************************************************************************* //
