/*--------------------------------*- C++ -*----------------------------------*\
| =========                 |                                                 |
| \\      /  F ield         | OpenFOAM: The Open Source CFD Toolbox           |
|  \\    /   O peration     | Version:  dev                                   |
|   \\  /    A nd           | Web:      www.OpenFOAM.org                      |
|    \\/     M anipulation  |                                                 |
\*---------------------------------------------------------------------------*/
FoamFile
{
    version     2.0;
    format      ascii;
    class       volScalarField;
    location    "0.075";
    object      n-C6H7;
}
// * * * * * * * * * * * * * * * * * * * * * * * * * * * * * * * * * * * * * //

dimensions      [0 0 0 0 0 0 0];

internalField   nonuniform List<scalar> 
250
(
1.50881e-13
2.98172e-11
2.58914e-11
2.54411e-11
2.53769e-11
2.53674e-11
2.53681e-11
2.53688e-11
2.53705e-11
8.70141e-14
1.44224e-11
1.35895e-11
1.34453e-11
1.34261e-11
1.34234e-11
1.34207e-11
1.34214e-11
1.34217e-11
4.91105e-14
7.73491e-12
6.7866e-12
6.64816e-12
6.63393e-12
6.6307e-12
6.62864e-12
6.62859e-12
6.6292e-12
3.07224e-14
4.22342e-12
3.32833e-12
3.2114e-12
3.20243e-12
3.19946e-12
3.19803e-12
3.19635e-12
3.19836e-12
2.21641e-14
2.57137e-12
1.79207e-12
1.68714e-12
1.68174e-12
1.67926e-12
1.67832e-12
1.67363e-12
1.67842e-12
2.20003e-14
1.75286e-12
1.03372e-12
9.92798e-13
9.90086e-13
9.88091e-13
9.87538e-13
9.77216e-13
9.87325e-13
4.62419e-14
1.29829e-12
6.88218e-13
6.32411e-13
6.26271e-13
6.24011e-13
6.23677e-13
6.31529e-13
6.22138e-13
2.814e-13
1.01401e-12
4.83062e-13
4.49415e-13
4.43563e-13
4.41432e-13
4.41315e-13
4.45478e-13
4.38596e-13
2.16127e-12
8.20131e-13
3.71944e-13
3.3207e-13
3.29411e-13
3.28156e-13
3.28414e-13
3.30657e-13
3.22528e-13
6.73867e-12
6.76977e-13
2.9873e-13
2.5954e-13
2.56403e-13
2.55267e-13
2.55583e-13
2.56604e-13
2.55161e-13
5.87335e-12
5.60981e-13
2.47184e-13
2.12414e-13
2.09006e-13
2.07963e-13
2.08275e-13
2.08656e-13
2.11347e-13
2.04096e-13
3.25606e-12
4.68481e-13
2.11592e-13
1.8021e-13
1.76689e-13
1.75716e-13
1.7598e-13
1.76033e-13
1.7791e-13
1.75983e-13
1.57208e-12
3.92143e-13
1.85824e-13
1.57167e-13
1.53622e-13
1.52702e-13
1.52896e-13
1.52803e-13
1.54123e-13
1.53256e-13
7.61351e-13
3.39059e-13
1.6633e-13
1.39942e-13
1.36419e-13
1.35537e-13
1.35661e-13
1.35517e-13
1.36442e-13
1.36134e-13
3.87166e-13
2.9776e-13
1.50922e-13
1.26526e-13
1.23045e-13
1.22191e-13
1.22255e-13
1.22102e-13
1.22749e-13
1.22691e-13
2.40436e-13
2.64159e-13
1.38214e-13
1.15675e-13
1.12244e-13
1.11412e-13
1.11429e-13
1.1128e-13
1.11736e-13
1.11771e-13
1.81515e-13
2.3436e-13
1.27286e-13
1.06605e-13
1.03225e-13
1.02411e-13
1.02396e-13
1.02253e-13
1.02582e-13
1.02637e-13
1.60206e-13
2.11857e-13
1.18942e-13
9.88104e-14
9.54794e-14
9.46822e-14
9.46449e-14
9.4506e-14
9.47547e-14
9.48042e-14
1.53279e-13
1.92428e-13
1.10822e-13
9.19517e-14
8.86689e-14
8.78922e-14
8.78405e-14
8.7705e-14
8.7903e-14
8.79398e-14
1.5032e-13
1.73869e-13
1.0318e-13
8.58039e-14
8.25629e-14
8.18145e-14
8.17533e-14
8.16231e-14
8.17883e-14
8.18131e-14
1.47071e-13
1.57436e-13
9.61442e-14
8.02137e-14
7.69945e-14
7.62873e-14
7.62188e-14
7.60977e-14
7.62397e-14
7.62553e-14
1.42181e-13
1.42577e-13
8.95975e-14
7.50708e-14
7.24541e-14
7.17779e-14
7.17105e-14
7.15964e-14
7.17233e-14
7.17373e-14
1.35587e-13
1.28895e-13
8.34424e-14
7.08036e-14
6.83064e-14
6.76436e-14
6.75791e-14
6.74492e-14
6.7581e-14
6.75758e-14
1.27862e-13
1.17563e-13
7.75601e-14
6.65249e-14
6.41214e-14
6.35026e-14
6.34358e-14
6.33083e-14
6.34345e-14
6.3419e-14
1.196e-13
1.07235e-13
7.25884e-14
6.28131e-14
6.05666e-14
5.9985e-14
5.992e-14
5.97967e-14
5.99166e-14
5.9898e-14
1.10071e-13
9.7253e-14
6.78483e-14
5.93218e-14
5.7243e-14
5.66979e-14
5.66348e-14
5.65131e-14
5.66289e-14
5.66054e-14
)
;

boundaryField
{
    fuel
    {
        type            fixedValue;
        value           uniform 0;
    }
    wall
    {
        type            zeroGradient;
    }
    outlet
    {
        type            zeroGradient;
    }
    frontAndBack
    {
        type            empty;
    }
    procBoundary2to0
    {
        type            processor;
        value           nonuniform List<scalar> 
12
(
5.97772e-14
1.01155e-13
8.75949e-14
6.33809e-14
5.59894e-14
5.40879e-14
5.35771e-14
5.35166e-14
5.33933e-14
5.35072e-14
5.64939e-14
5.34766e-14
)
;
    }
    procBoundary2to3
    {
        type            processor;
        value           nonuniform List<scalar> 
25
(
2.53716e-11
1.34217e-11
6.62968e-12
3.19899e-12
1.67906e-12
9.88028e-13
6.23279e-13
4.40313e-13
3.25504e-13
2.49856e-13
2.49856e-13
2.08638e-13
1.76049e-13
1.52823e-13
1.35526e-13
1.22095e-13
1.1126e-13
1.02224e-13
9.44729e-14
8.76723e-14
8.15948e-14
7.60783e-14
7.1581e-14
6.74239e-14
6.32867e-14
)
;
    }
}


// ************************************************************************* //
