/*--------------------------------*- C++ -*----------------------------------*\
| =========                 |                                                 |
| \\      /  F ield         | OpenFOAM: The Open Source CFD Toolbox           |
|  \\    /   O peration     | Version:  dev                                   |
|   \\  /    A nd           | Web:      www.OpenFOAM.org                      |
|    \\/     M anipulation  |                                                 |
\*---------------------------------------------------------------------------*/
FoamFile
{
    version     2.0;
    format      ascii;
    class       volScalarField;
    location    "0.075";
    object      P2;
}
// * * * * * * * * * * * * * * * * * * * * * * * * * * * * * * * * * * * * * //

dimensions      [0 0 0 0 0 0 0];

internalField   nonuniform List<scalar> 
250
(
3.97911e-09
1.06699e-07
9.52793e-08
9.31523e-08
9.28395e-08
9.27866e-08
9.27621e-08
9.27645e-08
9.27713e-08
9.56533e-09
1.33337e-07
1.03181e-07
9.84688e-08
9.78044e-08
9.76949e-08
9.76545e-08
9.76538e-08
9.76742e-08
1.3124e-08
1.1128e-07
7.45716e-08
6.91067e-08
6.83934e-08
6.8265e-08
6.82224e-08
6.82062e-08
6.82413e-08
1.50484e-08
8.16625e-08
4.69452e-08
4.18829e-08
4.12874e-08
4.11678e-08
4.11312e-08
4.10836e-08
4.11439e-08
1.5947e-08
5.8089e-08
2.84194e-08
2.40779e-08
2.36365e-08
2.35379e-08
2.35104e-08
2.34113e-08
2.35154e-08
1.62273e-08
4.19672e-08
1.63881e-08
1.37749e-08
1.34748e-08
1.33991e-08
1.33815e-08
1.31934e-08
1.33781e-08
1.59737e-08
3.14985e-08
1.00909e-08
7.78943e-09
7.51428e-09
7.44857e-09
7.43832e-09
7.55917e-09
7.41196e-09
1.47731e-08
2.47237e-08
6.20173e-09
4.72197e-09
4.50895e-09
4.4564e-09
4.45178e-09
4.51506e-09
4.40982e-09
1.18084e-08
2.02244e-08
4.15866e-09
2.88113e-09
2.75989e-09
2.72915e-09
2.73104e-09
2.76289e-09
2.64987e-09
9.1856e-09
1.7088e-08
2.90963e-09
1.8648e-09
1.76608e-09
1.74302e-09
1.74577e-09
1.75897e-09
1.74043e-09
9.26716e-09
1.4774e-08
2.1138e-09
1.28798e-09
1.20561e-09
1.18772e-09
1.19027e-09
1.19487e-09
1.22307e-09
1.14658e-09
1.15133e-08
1.29322e-08
1.62024e-09
9.45207e-10
8.75157e-10
8.60753e-10
8.62651e-10
8.63521e-10
8.8121e-10
8.6225e-10
1.52365e-08
1.12704e-08
1.29854e-09
7.30863e-10
6.70135e-10
6.58126e-10
6.59288e-10
6.58787e-10
6.69954e-10
6.62301e-10
1.97154e-08
9.9779e-09
1.07796e-09
5.89672e-10
5.36078e-10
5.2576e-10
5.26298e-10
5.2545e-10
5.32518e-10
5.30121e-10
2.45674e-08
8.84272e-09
9.18527e-10
4.91932e-10
4.43929e-10
4.34847e-10
4.34929e-10
4.34112e-10
4.38594e-10
4.38326e-10
2.84975e-08
7.79785e-09
7.97162e-10
4.212e-10
3.77693e-10
3.6955e-10
3.69333e-10
3.6864e-10
3.71505e-10
3.7195e-10
3.12351e-08
6.75931e-09
6.99988e-10
3.68048e-10
3.28257e-10
3.20858e-10
3.2046e-10
3.19889e-10
3.21757e-10
3.22355e-10
3.24208e-08
5.90301e-09
6.30573e-10
3.26908e-10
2.90248e-10
2.83464e-10
2.82966e-10
2.82492e-10
2.83753e-10
2.84319e-10
3.20252e-08
5.11515e-09
5.67313e-10
2.94324e-10
2.60384e-10
2.54134e-10
2.53587e-10
2.53194e-10
2.54083e-10
2.54582e-10
3.02773e-08
4.33628e-09
5.11632e-10
2.68167e-10
2.36606e-10
2.30844e-10
2.30278e-10
2.29963e-10
2.30616e-10
2.31059e-10
2.75532e-08
3.64664e-09
4.64073e-10
2.47106e-10
2.17584e-10
2.12294e-10
2.11721e-10
2.11496e-10
2.11983e-10
2.12397e-10
2.42608e-08
3.04393e-09
4.23512e-10
2.30302e-10
2.04316e-10
1.99385e-10
1.98831e-10
1.98685e-10
1.9906e-10
1.99483e-10
2.0761e-08
2.52372e-09
3.89189e-10
2.1869e-10
1.94423e-10
1.89777e-10
1.8924e-10
1.89129e-10
1.89447e-10
1.89856e-10
1.7366e-08
2.12856e-09
3.60499e-10
2.09676e-10
1.87007e-10
1.82704e-10
1.82171e-10
1.82159e-10
1.82386e-10
1.8283e-10
1.42798e-08
1.80448e-09
3.40005e-10
2.04529e-10
1.83289e-10
1.79264e-10
1.78735e-10
1.78831e-10
1.78967e-10
1.79473e-10
1.13357e-08
1.52832e-09
3.24505e-10
2.02673e-10
1.82721e-10
1.78945e-10
1.78409e-10
1.78627e-10
1.78664e-10
1.7925e-10
)
;

boundaryField
{
    fuel
    {
        type            fixedValue;
        value           uniform 0;
    }
    wall
    {
        type            zeroGradient;
    }
    outlet
    {
        type            zeroGradient;
    }
    frontAndBack
    {
        type            empty;
    }
    procBoundary2to0
    {
        type            processor;
        value           nonuniform List<scalar> 
12
(
1.79173e-10
9.01923e-09
1.29811e-09
3.14307e-10
2.04274e-10
1.85476e-10
1.81925e-10
1.81373e-10
1.81727e-10
1.81653e-10
1.79027e-10
1.82337e-10
)
;
    }
    procBoundary2to3
    {
        type            processor;
        value           nonuniform List<scalar> 
25
(
9.27733e-08
9.76805e-08
6.82527e-08
4.11584e-08
2.35312e-08
1.33948e-08
7.43449e-09
4.43867e-09
2.69407e-09
1.67998e-09
1.67998e-09
1.19496e-09
8.63939e-10
6.59227e-10
5.25787e-10
4.34327e-10
3.68767e-10
3.1997e-10
2.82561e-10
2.53278e-10
2.30083e-10
2.1167e-10
1.98899e-10
1.89358e-10
1.82445e-10
)
;
    }
}


// ************************************************************************* //
