/*--------------------------------*- C++ -*----------------------------------*\
| =========                 |                                                 |
| \\      /  F ield         | OpenFOAM: The Open Source CFD Toolbox           |
|  \\    /   O peration     | Version:  dev                                   |
|   \\  /    A nd           | Web:      www.OpenFOAM.org                      |
|    \\/     M anipulation  |                                                 |
\*---------------------------------------------------------------------------*/
FoamFile
{
    version     2.0;
    format      ascii;
    class       volVectorField;
    location    "0.075";
    object      U;
}
// * * * * * * * * * * * * * * * * * * * * * * * * * * * * * * * * * * * * * //

dimensions      [0 1 -1 0 0 0 0];

internalField   nonuniform List<vector> 
25
(
(4.31751e-13 -4.31751e-13 0.253682)
(4.29601e-13 -4.29601e-13 0.252961)
(4.2743e-13 -4.2743e-13 0.252656)
(4.25191e-13 -4.25191e-13 0.251788)
(4.22821e-13 -4.22821e-13 0.251226)
(4.20375e-13 -4.20375e-13 0.250447)
(4.17852e-13 -4.17852e-13 0.249786)
(4.15244e-13 -4.15244e-13 0.249049)
(4.12545e-13 -4.12545e-13 0.248322)
(4.09751e-13 -4.09751e-13 0.247571)
(4.06855e-13 -4.06855e-13 0.246809)
(4.03853e-13 -4.03853e-13 0.24603)
(4.00737e-13 -4.00737e-13 0.245234)
(3.97503e-13 -3.97503e-13 0.244412)
(3.94142e-13 -3.94142e-13 0.243551)
(3.90647e-13 -3.90647e-13 0.242669)
(3.8701e-13 -3.8701e-13 0.24178)
(3.83223e-13 -3.83223e-13 0.240862)
(3.79275e-13 -3.79275e-13 0.239897)
(3.75156e-13 -3.75156e-13 0.238908)
(3.70853e-13 -3.70853e-13 0.23792)
(3.66354e-13 -3.66354e-13 0.236858)
(3.61642e-13 -3.61642e-13 0.235745)
(3.56703e-13 -3.56703e-13 0.23446)
(3.51518e-13 -3.51518e-13 0.233643)
)
;

boundaryField
{
    wall
    {
        type            zeroGradient;
    }
    fuel
    {
        type            fixedValue;
        value           nonuniform 0();
    }
    outlet
    {
        type            pressureInletOutletVelocity;
        value           nonuniform 0();
    }
    procBoundary2to1
    {
        type            processor;
        value           uniform (4.3383e-13 -4.3383e-13 0.254309);
    }
    procBoundary2to3
    {
        type            processor;
        value           uniform (3.46073e-13 -3.46073e-13 0.232558);
    }
}


// ************************************************************************* //
