/*--------------------------------*- C++ -*----------------------------------*\
| =========                 |                                                 |
| \\      /  F ield         | OpenFOAM: The Open Source CFD Toolbox           |
|  \\    /   O peration     | Version:  dev                                   |
|   \\  /    A nd           | Web:      www.OpenFOAM.org                      |
|    \\/     M anipulation  |                                                 |
\*---------------------------------------------------------------------------*/
FoamFile
{
    version     2.0;
    format      ascii;
    class       volScalarField;
    location    "0.085";
    object      A2C2H22;
}
// * * * * * * * * * * * * * * * * * * * * * * * * * * * * * * * * * * * * * //

dimensions      [0 0 0 0 0 0 0];

internalField   nonuniform List<scalar> 
25
(
3.20454e-22
2.60285e-22
2.09727e-22
1.67297e-22
1.32094e-22
1.03347e-22
8.04855e-23
6.20866e-23
4.72748e-23
3.58528e-23
2.69387e-23
2.00521e-23
1.47767e-23
1.07607e-23
7.7514e-24
5.51978e-24
3.87266e-24
2.6881e-24
1.84145e-24
1.23606e-24
8.2122e-25
5.36621e-25
3.44562e-25
2.17181e-25
1.34266e-25
)
;

boundaryField
{
    wall
    {
        type            zeroGradient;
    }
    fuel
    {
        type            fixedValue;
        value           nonuniform 0();
    }
    outlet
    {
        type            inletOutlet;
        inletValue      nonuniform 0();
        value           nonuniform 0();
    }
    procBoundary2to1
    {
        type            processor;
        value           uniform 3.9112e-22;
    }
    procBoundary2to3
    {
        type            processor;
        value           uniform 8.13126e-26;
    }
}


// ************************************************************************* //
