/*--------------------------------*- C++ -*----------------------------------*\
| =========                 |                                                 |
| \\      /  F ield         | OpenFOAM: The Open Source CFD Toolbox           |
|  \\    /   O peration     | Version:  dev                                   |
|   \\  /    A nd           | Web:      www.OpenFOAM.org                      |
|    \\/     M anipulation  |                                                 |
\*---------------------------------------------------------------------------*/
FoamFile
{
    version     2.0;
    format      ascii;
    class       volScalarField;
    location    "0.085";
    object      C;
}
// * * * * * * * * * * * * * * * * * * * * * * * * * * * * * * * * * * * * * //

dimensions      [0 0 0 0 0 0 0];

internalField   nonuniform List<scalar> 
25
(
3.96024e-12
3.06098e-12
2.37018e-12
1.83443e-12
1.4198e-12
1.10112e-12
8.6055e-13
6.74581e-13
5.29137e-13
4.19268e-13
3.34161e-13
2.67994e-13
2.16156e-13
1.75097e-13
1.426e-13
1.16699e-13
9.57476e-14
7.89507e-14
6.53085e-14
5.39864e-14
4.48322e-14
3.72744e-14
3.10155e-14
2.58206e-14
2.15041e-14
)
;

boundaryField
{
    wall
    {
        type            zeroGradient;
    }
    fuel
    {
        type            fixedValue;
        value           nonuniform 0();
    }
    outlet
    {
        type            inletOutlet;
        inletValue      nonuniform 0();
        value           nonuniform 0();
    }
    procBoundary2to1
    {
        type            processor;
        value           uniform 5.12625e-12;
    }
    procBoundary2to3
    {
        type            processor;
        value           uniform 1.78965e-14;
    }
}


// ************************************************************************* //
