/*--------------------------------*- C++ -*----------------------------------*\
| =========                 |                                                 |
| \\      /  F ield         | OpenFOAM: The Open Source CFD Toolbox           |
|  \\    /   O peration     | Version:  dev                                   |
|   \\  /    A nd           | Web:      www.OpenFOAM.org                      |
|    \\/     M anipulation  |                                                 |
\*---------------------------------------------------------------------------*/
FoamFile
{
    version     2.0;
    format      ascii;
    class       volScalarField;
    location    "0.085";
    object      HCO;
}
// * * * * * * * * * * * * * * * * * * * * * * * * * * * * * * * * * * * * * //

dimensions      [0 0 0 0 0 0 0];

internalField   nonuniform List<scalar> 
25
(
1.60114e-08
1.55186e-08
1.50548e-08
1.46102e-08
1.41829e-08
1.37739e-08
1.33901e-08
1.30169e-08
1.26467e-08
1.22956e-08
1.19504e-08
1.16077e-08
1.12644e-08
1.09201e-08
1.05724e-08
1.02206e-08
9.86045e-09
9.50231e-09
9.14557e-09
8.78499e-09
8.44042e-09
8.10835e-09
7.7929e-09
7.49817e-09
7.22759e-09
)
;

boundaryField
{
    wall
    {
        type            zeroGradient;
    }
    fuel
    {
        type            fixedValue;
        value           nonuniform 0();
    }
    outlet
    {
        type            inletOutlet;
        inletValue      nonuniform 0();
        value           nonuniform 0();
    }
    procBoundary2to1
    {
        type            processor;
        value           uniform 1.65378e-08;
    }
    procBoundary2to3
    {
        type            processor;
        value           uniform 6.9845e-09;
    }
}


// ************************************************************************* //
