/*--------------------------------*- C++ -*----------------------------------*\
| =========                 |                                                 |
| \\      /  F ield         | OpenFOAM: The Open Source CFD Toolbox           |
|  \\    /   O peration     | Version:  dev                                   |
|   \\  /    A nd           | Web:      www.OpenFOAM.org                      |
|    \\/     M anipulation  |                                                 |
\*---------------------------------------------------------------------------*/
FoamFile
{
    version     2.0;
    format      ascii;
    class       volScalarField;
    location    "0.085";
    object      i-A1C2H2;
}
// * * * * * * * * * * * * * * * * * * * * * * * * * * * * * * * * * * * * * //

dimensions      [0 0 0 0 0 0 0];

internalField   nonuniform List<scalar> 
25
(
2.95238e-20
3.64335e-20
4.51078e-20
5.61556e-20
6.94576e-20
8.42878e-20
1.01007e-19
1.19048e-19
1.37618e-19
1.55747e-19
1.724e-19
1.86615e-19
1.97644e-19
2.05063e-19
2.08832e-19
2.093e-19
2.07156e-19
2.03324e-19
1.98808e-19
1.94585e-19
1.91851e-19
1.91623e-19
1.94565e-19
2.01255e-19
2.12042e-19
)
;

boundaryField
{
    wall
    {
        type            zeroGradient;
    }
    fuel
    {
        type            fixedValue;
        value           nonuniform 0();
    }
    outlet
    {
        type            inletOutlet;
        inletValue      nonuniform 0();
        value           nonuniform 0();
    }
    procBoundary2to1
    {
        type            processor;
        value           uniform 2.40603e-20;
    }
    procBoundary2to3
    {
        type            processor;
        value           uniform 2.27146e-19;
    }
}


// ************************************************************************* //
