/*--------------------------------*- C++ -*----------------------------------*\
| =========                 |                                                 |
| \\      /  F ield         | OpenFOAM: The Open Source CFD Toolbox           |
|  \\    /   O peration     | Version:  dev                                   |
|   \\  /    A nd           | Web:      www.OpenFOAM.org                      |
|    \\/     M anipulation  |                                                 |
\*---------------------------------------------------------------------------*/
FoamFile
{
    version     2.0;
    format      ascii;
    class       volScalarField;
    location    "0.085";
    object      naphthyne;
}
// * * * * * * * * * * * * * * * * * * * * * * * * * * * * * * * * * * * * * //

dimensions      [0 0 0 0 0 0 0];

internalField   nonuniform List<scalar> 
25
(
4.39088e-17
5.44623e-17
6.77076e-17
8.4534e-17
1.04628e-16
1.26674e-16
1.50977e-16
1.76308e-16
2.01035e-16
2.23254e-16
2.41019e-16
2.52639e-16
2.56942e-16
2.53465e-16
2.42528e-16
2.25156e-16
2.02903e-16
1.7757e-16
1.50932e-16
1.24645e-16
1.00196e-16
7.8993e-17
6.10996e-17
4.65558e-17
3.51242e-17
)
;

boundaryField
{
    wall
    {
        type            zeroGradient;
    }
    fuel
    {
        type            fixedValue;
        value           nonuniform 0();
    }
    outlet
    {
        type            inletOutlet;
        inletValue      nonuniform 0();
        value           nonuniform 0();
    }
    procBoundary2to1
    {
        type            processor;
        value           uniform 3.55641e-17;
    }
    procBoundary2to3
    {
        type            processor;
        value           uniform 2.62319e-17;
    }
}


// ************************************************************************* //
