/*--------------------------------*- C++ -*----------------------------------*\
| =========                 |                                                 |
| \\      /  F ield         | OpenFOAM: The Open Source CFD Toolbox           |
|  \\    /   O peration     | Version:  dev                                   |
|   \\  /    A nd           | Web:      www.OpenFOAM.org                      |
|    \\/     M anipulation  |                                                 |
\*---------------------------------------------------------------------------*/
FoamFile
{
    version     2.0;
    format      ascii;
    class       volScalarField;
    location    "0.135";
    object      A2-1;
}
// * * * * * * * * * * * * * * * * * * * * * * * * * * * * * * * * * * * * * //

dimensions      [0 0 0 0 0 0 0];

internalField   nonuniform List<scalar> 
250
(
7.76657e-11
7.78376e-11
7.77026e-11
7.82218e-11
7.76477e-11
8.08096e-11
8.65049e-11
1.34333e-10
4.76693e-10
4.39926e-09
7.68402e-11
7.68738e-11
7.68972e-11
7.70938e-11
7.68804e-11
7.92381e-11
8.5298e-11
1.2852e-10
4.52678e-10
4.33274e-09
9.968e-10
3.72305e-10
1.18719e-10
8.49827e-11
7.86087e-11
7.73679e-11
7.72805e-11
7.75261e-11
7.73245e-11
7.74834e-11
7.73303e-11
7.72028e-11
7.74156e-11
7.7251e-11
7.74508e-11
7.89283e-11
8.54739e-11
1.24437e-10
4.25511e-10
4.11817e-09
8.3847e-10
3.20539e-10
1.16064e-10
8.60846e-11
8.03848e-11
7.92174e-11
7.91405e-11
7.94414e-11
7.92104e-11
7.94092e-11
7.93246e-11
7.90084e-11
7.94473e-11
7.88715e-11
7.95468e-11
8.00324e-11
8.72188e-11
1.21893e-10
3.98519e-10
3.79389e-09
7.02927e-10
2.78813e-10
1.15633e-10
8.89031e-11
8.3863e-11
8.27694e-11
8.27055e-11
8.30721e-11
8.27985e-11
8.3051e-11
8.30439e-11
8.2511e-11
8.3213e-11
8.21753e-11
8.33864e-11
8.27661e-11
9.07423e-11
1.21067e-10
3.71565e-10
3.39957e-09
5.89785e-10
2.50681e-10
1.17554e-10
9.3634e-11
8.92454e-11
8.82218e-11
8.8171e-11
8.86106e-11
8.82821e-11
8.86e-11
8.86753e-11
8.79083e-11
8.88976e-11
8.73686e-11
8.91491e-11
8.73501e-11
9.62082e-11
1.22138e-10
3.43498e-10
2.93473e-09
4.97707e-10
2.29731e-10
1.21801e-10
1.0036e-10
9.65889e-11
9.56325e-11
9.55913e-11
9.60998e-11
9.57107e-11
9.60974e-11
9.62511e-11
9.52608e-11
9.65256e-11
9.45353e-11
9.685e-11
9.39116e-11
1.03606e-10
1.25215e-10
3.19017e-10
2.46102e-09
4.24576e-10
2.15677e-10
1.28056e-10
1.08873e-10
1.05632e-10
1.04741e-10
1.04701e-10
1.05253e-10
1.04811e-10
1.05254e-10
1.05466e-10
1.04315e-10
1.05778e-10
1.03463e-10
1.06155e-10
1.03091e-10
1.12566e-10
1.30205e-10
2.96683e-10
2.01647e-09
3.6742e-10
2.06323e-10
1.35512e-10
1.18473e-10
1.15971e-10
1.15039e-10
1.15e-10
1.15616e-10
1.15116e-10
1.15616e-10
1.15807e-10
1.1461e-10
1.16126e-10
1.13739e-10
1.16486e-10
1.1281e-10
1.22151e-10
1.36644e-10
2.76359e-10
1.61073e-09
3.22672e-10
1.99688e-10
1.42753e-10
1.27822e-10
1.25382e-10
1.24479e-10
1.24408e-10
1.24919e-10
1.24453e-10
1.24909e-10
1.2506e-10
1.24039e-10
1.2533e-10
1.23324e-10
1.25652e-10
1.2255e-10
1.30841e-10
1.43563e-10
2.55653e-10
1.29345e-09
2.8647e-10
1.93467e-10
1.47837e-10
1.35029e-10
1.32327e-10
1.3143e-10
1.31309e-10
1.31614e-10
1.31254e-10
1.31587e-10
1.31635e-10
1.3102e-10
1.31797e-10
1.30644e-10
1.32024e-10
1.30476e-10
1.36673e-10
1.4972e-10
2.3582e-10
1.02361e-09
2.55052e-10
1.85296e-10
1.48696e-10
1.38022e-10
1.34797e-10
1.33895e-10
1.33717e-10
1.33733e-10
1.33548e-10
1.33684e-10
1.33576e-10
1.33563e-10
1.33577e-10
1.33672e-10
1.33664e-10
1.34491e-10
1.37714e-10
1.52028e-10
2.14273e-10
7.93301e-10
2.25264e-10
1.73263e-10
1.4377e-10
1.35188e-10
1.31344e-10
1.30446e-10
1.30216e-10
1.29913e-10
1.29941e-10
1.29844e-10
1.29557e-10
1.30233e-10
1.29372e-10
1.30881e-10
1.29297e-10
1.32858e-10
1.3272e-10
1.49219e-10
1.90219e-10
6.07501e-10
1.19426e-10
1.20729e-10
1.19069e-10
1.21851e-10
1.18847e-10
1.24866e-10
1.21647e-10
1.40289e-10
1.63728e-10
4.56203e-10
)
;

boundaryField
{
    fuel
    {
        type            fixedValue;
        value           nonuniform 0();
    }
    wall
    {
        type            zeroGradient;
    }
    outlet
    {
        type            zeroGradient;
    }
    frontAndBack
    {
        type            empty;
    }
    procBoundary0to1
    {
        type            processor;
        value           nonuniform List<scalar> 
21
(
1.95093e-10
1.56479e-10
1.32623e-10
1.26004e-10
1.21672e-10
1.20803e-10
1.20539e-10
1.19955e-10
1.20193e-10
1.19871e-10
1.19871e-10
1.04324e-10
1.06059e-10
1.03847e-10
1.07495e-10
1.03522e-10
1.11172e-10
1.05737e-10
1.2551e-10
1.3583e-10
3.3519e-10
)
;
    }
    procBoundary0to2
    {
        type            processor;
        value           nonuniform List<scalar> 
12
(
7.79286e-11
1.17778e-09
4.32117e-10
1.23448e-10
8.53827e-11
7.8316e-11
7.69994e-11
7.69055e-11
7.71045e-11
7.69208e-11
7.70527e-11
7.70527e-11
)
;
    }
    procBoundary0to3
    {
        type            processor;
        value           nonuniform List<scalar> 10(7.96771e-11 7.99707e-11 7.97028e-11 8.05183e-11 7.96222e-11 8.35069e-11 8.8957e-11 1.41104e-10 5.02583e-10 4.2896e-09);
    }
}


// ************************************************************************* //
