/*--------------------------------*- C++ -*----------------------------------*\
| =========                 |                                                 |
| \\      /  F ield         | OpenFOAM: The Open Source CFD Toolbox           |
|  \\    /   O peration     | Version:  dev                                   |
|   \\  /    A nd           | Web:      www.OpenFOAM.org                      |
|    \\/     M anipulation  |                                                 |
\*---------------------------------------------------------------------------*/
FoamFile
{
    version     2.0;
    format      ascii;
    class       volScalarField;
    location    "0.135";
    object      A4-;
}
// * * * * * * * * * * * * * * * * * * * * * * * * * * * * * * * * * * * * * //

dimensions      [0 0 0 0 0 0 0];

internalField   nonuniform List<scalar> 
50
(
7.0978e-12
8.73383e-12
7.43393e-12
6.02914e-12
4.86463e-12
3.92113e-12
3.14671e-12
2.50073e-12
1.96901e-12
1.53621e-12
1.19208e-12
9.1779e-13
7.04046e-13
5.39419e-13
4.13763e-13
3.19293e-13
2.47556e-13
1.93639e-13
1.52681e-13
1.21635e-13
9.78236e-14
7.92204e-14
6.47841e-14
5.32992e-14
4.41146e-14
3.66621e-14
3.05053e-14
2.54174e-14
2.12291e-14
1.76981e-14
1.47397e-14
1.22839e-14
1.02083e-14
8.46518e-15
7.00683e-15
5.78912e-15
4.77468e-15
3.93167e-15
3.23292e-15
2.65527e-15
2.17892e-15
1.78705e-15
1.46538e-15
1.20183e-15
9.86221e-16
8.1001e-16
6.66044e-16
5.48354e-16
4.51973e-16
3.72796e-16
)
;

boundaryField
{
    wall
    {
        type            zeroGradient;
    }
    fuel
    {
        type            fixedValue;
        value           uniform 0;
    }
    outlet
    {
        type            inletOutlet;
        inletValue      nonuniform 0();
        value           nonuniform 0();
    }
    procBoundary0to1
    {
        type            processor;
        value           uniform 3.0874e-16;
    }
}


// ************************************************************************* //
