/*--------------------------------*- C++ -*----------------------------------*\
| =========                 |                                                 |
| \\      /  F ield         | OpenFOAM: The Open Source CFD Toolbox           |
|  \\    /   O peration     | Version:  dev                                   |
|   \\  /    A nd           | Web:      www.OpenFOAM.org                      |
|    \\/     M anipulation  |                                                 |
\*---------------------------------------------------------------------------*/
FoamFile
{
    version     2.0;
    format      ascii;
    class       volScalarField;
    location    "0.135";
    object      A4-;
}
// * * * * * * * * * * * * * * * * * * * * * * * * * * * * * * * * * * * * * //

dimensions      [0 0 0 0 0 0 0];

internalField   nonuniform List<scalar> 
250
(
7.63416e-10
7.65514e-10
7.65264e-10
7.67943e-10
7.70633e-10
7.82752e-10
8.51784e-10
1.01869e-09
1.41335e-09
6.5657e-10
6.98478e-10
7.00505e-10
7.00238e-10
7.02908e-10
7.05584e-10
7.16669e-10
7.80358e-10
9.25994e-10
1.28392e-09
6.75532e-10
1.70591e-09
1.37551e-09
9.0973e-10
7.147e-10
6.73524e-10
6.37214e-10
6.49178e-10
6.33189e-10
6.41661e-10
6.32933e-10
6.36463e-10
6.3843e-10
6.38091e-10
6.40789e-10
6.43399e-10
6.5346e-10
7.12035e-10
8.38069e-10
1.16309e-09
6.88126e-10
1.53967e-09
1.21839e-09
8.20936e-10
6.47274e-10
6.1153e-10
5.77568e-10
5.89045e-10
5.73549e-10
5.82012e-10
5.73504e-10
5.76975e-10
5.78884e-10
5.78439e-10
5.81181e-10
5.83674e-10
5.92732e-10
6.46289e-10
7.54423e-10
1.03814e-09
6.90808e-10
1.36635e-09
1.08232e-09
7.34782e-10
5.82182e-10
5.51784e-10
5.20079e-10
5.31123e-10
5.16134e-10
5.24565e-10
5.16265e-10
5.19687e-10
5.21536e-10
5.20973e-10
5.23753e-10
5.26078e-10
5.3417e-10
5.82753e-10
6.74696e-10
9.13332e-10
6.81209e-10
1.19383e-09
9.47121e-10
6.51426e-10
5.19232e-10
4.94077e-10
4.64526e-10
4.75179e-10
4.60706e-10
4.69086e-10
4.60982e-10
4.64372e-10
4.66152e-10
4.65483e-10
4.68269e-10
4.70372e-10
4.77593e-10
5.2118e-10
5.98687e-10
8.07639e-10
6.58529e-10
1.02814e-09
8.19691e-10
5.71156e-10
4.58369e-10
4.38411e-10
4.10841e-10
4.21107e-10
4.07153e-10
4.15469e-10
4.07548e-10
4.10933e-10
4.1263e-10
4.11882e-10
4.14625e-10
4.16443e-10
4.22934e-10
4.61479e-10
5.26251e-10
7.03603e-10
6.22718e-10
8.61526e-10
7.01895e-10
4.94352e-10
3.99685e-10
3.81291e-10
3.59259e-10
3.68982e-10
3.55521e-10
3.63789e-10
3.56012e-10
3.59455e-10
3.61049e-10
3.6026e-10
3.62895e-10
3.64332e-10
3.7032e-10
4.03702e-10
4.57492e-10
6.08513e-10
5.75177e-10
7.19013e-10
5.86366e-10
4.21521e-10
3.43581e-10
3.2942e-10
3.08717e-10
3.17442e-10
3.06028e-10
3.12843e-10
3.06595e-10
3.08607e-10
3.10217e-10
3.09203e-10
3.11969e-10
3.14253e-10
3.18034e-10
3.48178e-10
3.91068e-10
5.18898e-10
5.18126e-10
5.9021e-10
4.82676e-10
3.53355e-10
2.90507e-10
2.79992e-10
2.61744e-10
2.69749e-10
2.59103e-10
2.65622e-10
2.59714e-10
2.61663e-10
2.63143e-10
2.62149e-10
2.64708e-10
2.66649e-10
2.69893e-10
2.9541e-10
3.25504e-10
4.35174e-10
4.54511e-10
4.70841e-10
3.9314e-10
2.90637e-10
2.41055e-10
2.3359e-10
2.17648e-10
2.25003e-10
2.15283e-10
2.21366e-10
2.15907e-10
2.17738e-10
2.19075e-10
2.18129e-10
2.20435e-10
2.22064e-10
2.24755e-10
2.46005e-10
2.69069e-10
3.58191e-10
3.87686e-10
3.71264e-10
3.12697e-10
2.34112e-10
1.95878e-10
1.90872e-10
1.77199e-10
1.83836e-10
1.75172e-10
1.80698e-10
1.75781e-10
1.77449e-10
1.78631e-10
1.77762e-10
1.79778e-10
1.8112e-10
1.83281e-10
2.00631e-10
2.17723e-10
2.88641e-10
3.21078e-10
2.86514e-10
2.42921e-10
1.84373e-10
1.55586e-10
1.52473e-10
1.41017e-10
1.46851e-10
1.39334e-10
1.44209e-10
1.39903e-10
1.41375e-10
1.42394e-10
1.41622e-10
1.43331e-10
1.44413e-10
1.46091e-10
1.59937e-10
1.72139e-10
2.27203e-10
2.57851e-10
1.09946e-10
1.108e-10
1.10138e-10
1.11539e-10
1.12391e-10
1.13655e-10
1.24425e-10
1.32776e-10
1.74364e-10
2.00592e-10
)
;

boundaryField
{
    fuel
    {
        type            fixedValue;
        value           nonuniform 0();
    }
    wall
    {
        type            zeroGradient;
    }
    outlet
    {
        type            zeroGradient;
    }
    frontAndBack
    {
        type            empty;
    }
    procBoundary0to1
    {
        type            processor;
        value           nonuniform List<scalar> 
21
(
2.15863e-10
1.84157e-10
1.41754e-10
1.20623e-10
1.18885e-10
1.09536e-10
1.14515e-10
1.08181e-10
1.12348e-10
1.0869e-10
1.0869e-10
8.3345e-11
8.40407e-11
8.34923e-11
8.46029e-11
8.52572e-11
8.61837e-11
9.43331e-11
9.97785e-11
1.30254e-10
1.5103e-10
)
;
    }
    procBoundary0to2
    {
        type            processor;
        value           nonuniform List<scalar> 
12
(
7.5975e-10
1.85422e-09
1.51336e-09
1.00098e-09
7.8474e-10
7.38134e-10
6.9934e-10
7.11845e-10
6.95388e-10
7.03835e-10
6.94876e-10
6.94876e-10
)
;
    }
    procBoundary0to3
    {
        type            processor;
        value           nonuniform List<scalar> 10(8.31706e-10 8.33913e-10 8.33601e-10 8.3633e-10 8.38977e-10 8.52146e-10 9.26735e-10 1.12718e-09 1.54653e-09 6.34643e-10);
    }
}


// ************************************************************************* //
