/*--------------------------------*- C++ -*----------------------------------*\
| =========                 |                                                 |
| \\      /  F ield         | OpenFOAM: The Open Source CFD Toolbox           |
|  \\    /   O peration     | Version:  dev                                   |
|   \\  /    A nd           | Web:      www.OpenFOAM.org                      |
|    \\/     M anipulation  |                                                 |
\*---------------------------------------------------------------------------*/
FoamFile
{
    version     2.0;
    format      ascii;
    class       volScalarField;
    location    "0.135";
    object      AR;
}
// * * * * * * * * * * * * * * * * * * * * * * * * * * * * * * * * * * * * * //

dimensions      [0 0 0 0 0 0 0];

internalField   nonuniform List<scalar> 
50
(
0.692404
0.692106
0.691823
0.691543
0.691262
0.690979
0.690693
0.6904
0.690104
0.689803
0.689501
0.689192
0.688879
0.68856
0.688237
0.687913
0.687582
0.687248
0.686907
0.686564
0.686215
0.685859
0.6855
0.685136
0.684768
0.684394
0.684012
0.683625
0.683235
0.682836
0.68243
0.682023
0.681606
0.681182
0.680752
0.680314
0.679871
0.67942
0.678963
0.678498
0.678027
0.677548
0.677061
0.676568
0.676067
0.675558
0.675041
0.674516
0.673984
0.673442
)
;

boundaryField
{
    wall
    {
        type            zeroGradient;
    }
    fuel
    {
        type            fixedValue;
        value           uniform 0.6926;
    }
    outlet
    {
        type            inletOutlet;
        inletValue      nonuniform 0();
        value           nonuniform 0();
    }
    procBoundary0to1
    {
        type            processor;
        value           uniform 0.672893;
    }
}


// ************************************************************************* //
