/*--------------------------------*- C++ -*----------------------------------*\
| =========                 |                                                 |
| \\      /  F ield         | OpenFOAM: The Open Source CFD Toolbox           |
|  \\    /   O peration     | Version:  dev                                   |
|   \\  /    A nd           | Web:      www.OpenFOAM.org                      |
|    \\/     M anipulation  |                                                 |
\*---------------------------------------------------------------------------*/
FoamFile
{
    version     2.0;
    format      ascii;
    class       volScalarField;
    location    "0.135";
    object      C6H5OH;
}
// * * * * * * * * * * * * * * * * * * * * * * * * * * * * * * * * * * * * * //

dimensions      [0 0 0 0 0 0 0];

internalField   nonuniform List<scalar> 
250
(
1.78735e-08
1.79103e-08
1.78765e-08
1.79798e-08
1.78611e-08
1.83798e-08
1.90421e-08
2.49057e-08
5.2686e-08
2.62801e-07
1.76461e-08
1.76654e-08
1.76512e-08
1.77127e-08
1.76405e-08
1.80513e-08
1.87573e-08
2.40491e-08
5.00097e-08
2.59339e-07
9.51007e-08
4.37131e-08
2.24641e-08
1.8655e-08
1.77799e-08
1.7602e-08
1.75881e-08
1.76177e-08
1.75905e-08
1.76089e-08
1.75791e-08
1.758e-08
1.7587e-08
1.7606e-08
1.75826e-08
1.78844e-08
1.86355e-08
2.34041e-08
4.71936e-08
2.49043e-07
7.88651e-08
3.97117e-08
2.20465e-08
1.86402e-08
1.78511e-08
1.76851e-08
1.7672e-08
1.77053e-08
1.76767e-08
1.76977e-08
1.7676e-08
1.76577e-08
1.7687e-08
1.76631e-08
1.76899e-08
1.78803e-08
1.86802e-08
2.29281e-08
4.45747e-08
2.33351e-07
6.70144e-08
3.63614e-08
2.18366e-08
1.87942e-08
1.80878e-08
1.7934e-08
1.79217e-08
1.79586e-08
1.79281e-08
1.79522e-08
1.79389e-08
1.79011e-08
1.79535e-08
1.7887e-08
1.79639e-08
1.80432e-08
1.8893e-08
2.26288e-08
4.21101e-08
2.13934e-07
5.82093e-08
3.40213e-08
2.18349e-08
1.91178e-08
1.84912e-08
1.83489e-08
1.83376e-08
1.83781e-08
1.83449e-08
1.83729e-08
1.83677e-08
1.83107e-08
1.83862e-08
1.82785e-08
1.8404e-08
1.83758e-08
1.92732e-08
2.25117e-08
3.96775e-08
1.90571e-07
5.16007e-08
3.22044e-08
2.20363e-08
1.96091e-08
1.90586e-08
1.89274e-08
1.89169e-08
1.8961e-08
1.89247e-08
1.89568e-08
1.89595e-08
1.88841e-08
1.89818e-08
1.88357e-08
1.90063e-08
1.88763e-08
1.98167e-08
2.25805e-08
3.76974e-08
1.6637e-07
4.66496e-08
3.09549e-08
2.24337e-08
2.02636e-08
1.97843e-08
1.9664e-08
1.96541e-08
1.97014e-08
1.96617e-08
1.96981e-08
1.97081e-08
1.9616e-08
1.9734e-08
1.95536e-08
1.97644e-08
1.95875e-08
2.05175e-08
2.28354e-08
3.60474e-08
1.43351e-07
4.2996e-08
3.01687e-08
2.30204e-08
2.10774e-08
2.0691e-08
2.05745e-08
2.05663e-08
2.06217e-08
2.05761e-08
2.06196e-08
2.06337e-08
2.05248e-08
2.06634e-08
2.045e-08
2.06966e-08
2.04182e-08
2.1371e-08
2.32766e-08
3.47613e-08
1.22112e-07
4.03956e-08
2.98056e-08
2.37975e-08
2.2055e-08
2.17309e-08
2.16245e-08
2.1617e-08
2.16755e-08
2.16259e-08
2.16747e-08
2.16948e-08
2.15711e-08
2.17279e-08
2.14864e-08
2.1765e-08
2.14169e-08
2.23845e-08
2.39078e-08
3.37634e-08
1.0552e-07
3.86881e-08
2.98489e-08
2.47857e-08
2.32193e-08
2.29568e-08
2.28605e-08
2.28541e-08
2.29171e-08
2.28626e-08
2.29179e-08
2.29442e-08
2.28037e-08
2.29812e-08
2.27087e-08
2.30221e-08
2.26032e-08
2.35875e-08
2.47876e-08
3.32591e-08
9.15296e-08
3.77844e-08
3.03163e-08
2.60375e-08
2.46245e-08
2.44258e-08
2.43404e-08
2.43356e-08
2.44054e-08
2.43442e-08
2.44083e-08
2.44416e-08
2.42796e-08
2.44838e-08
2.41719e-08
2.45292e-08
2.40282e-08
2.50424e-08
2.58761e-08
3.3222e-08
7.98535e-08
3.76569e-08
3.12645e-08
2.76399e-08
2.63592e-08
2.62276e-08
2.61537e-08
2.61512e-08
2.62301e-08
2.61604e-08
2.62354e-08
2.62769e-08
2.60876e-08
2.6326e-08
2.59635e-08
2.63775e-08
2.57775e-08
2.68415e-08
2.73049e-08
3.37222e-08
7.08713e-08
2.85267e-08
2.83091e-08
2.85835e-08
2.8168e-08
2.8642e-08
2.79424e-08
2.9062e-08
2.91707e-08
3.48168e-08
6.41459e-08
)
;

boundaryField
{
    fuel
    {
        type            fixedValue;
        value           nonuniform 0();
    }
    wall
    {
        type            zeroGradient;
    }
    outlet
    {
        type            zeroGradient;
    }
    frontAndBack
    {
        type            empty;
    }
    procBoundary0to1
    {
        type            processor;
        value           nonuniform List<scalar> 
21
(
3.83122e-08
3.2764e-08
2.96816e-08
2.8514e-08
2.84452e-08
2.83822e-08
2.83817e-08
2.84695e-08
2.83914e-08
2.84772e-08
2.84772e-08
3.11482e-08
3.09164e-08
3.12096e-08
3.07675e-08
3.12737e-08
3.05267e-08
3.16581e-08
3.15124e-08
3.64584e-08
5.94366e-08
)
;
    }
    procBoundary0to2
    {
        type            processor;
        value           nonuniform List<scalar> 
12
(
1.79178e-08
1.1786e-07
4.81924e-08
2.30869e-08
1.88353e-08
1.78716e-08
1.76819e-08
1.76678e-08
1.76934e-08
1.76669e-08
1.76834e-08
1.76834e-08
)
;
    }
    procBoundary0to3
    {
        type            processor;
        value           nonuniform List<scalar> 10(1.82592e-08 1.83125e-08 1.8261e-08 1.84051e-08 1.82425e-08 1.88602e-08 1.94865e-08 2.58633e-08 5.58005e-08 2.58629e-07);
    }
}


// ************************************************************************* //
