/*--------------------------------*- C++ -*----------------------------------*\
| =========                 |                                                 |
| \\      /  F ield         | OpenFOAM: The Open Source CFD Toolbox           |
|  \\    /   O peration     | Version:  dev                                   |
|   \\  /    A nd           | Web:      www.OpenFOAM.org                      |
|    \\/     M anipulation  |                                                 |
\*---------------------------------------------------------------------------*/
FoamFile
{
    version     2.0;
    format      ascii;
    class       volScalarField;
    location    "0.135";
    object      C6H8;
}
// * * * * * * * * * * * * * * * * * * * * * * * * * * * * * * * * * * * * * //

dimensions      [0 0 0 0 0 0 0];

internalField   nonuniform List<scalar> 
250
(
6.77452e-13
6.77283e-13
6.78111e-13
6.78115e-13
6.78771e-13
6.84824e-13
7.19051e-13
8.50505e-13
1.59362e-12
1.84948e-12
6.64885e-13
6.64647e-13
6.65509e-13
6.6536e-13
6.66022e-13
6.71757e-13
7.03026e-13
8.20173e-13
1.44693e-12
1.68495e-12
2.87484e-12
1.30671e-12
8.13905e-13
6.93917e-13
6.67851e-13
6.56999e-13
6.58578e-13
6.56295e-13
6.56761e-13
6.55797e-13
6.56469e-13
6.56165e-13
6.57046e-13
6.56776e-13
6.57432e-13
6.62839e-13
6.91261e-13
7.95242e-13
1.3241e-12
1.57836e-12
2.88807e-12
1.26973e-12
7.98083e-13
6.86046e-13
6.614e-13
6.52384e-13
6.5315e-13
6.51738e-13
6.51735e-13
6.51255e-13
6.51726e-13
6.51363e-13
6.52245e-13
6.51897e-13
6.52546e-13
6.57615e-13
6.83329e-13
7.75262e-13
1.21177e-12
1.48379e-12
2.85909e-12
1.23521e-12
7.8498e-13
6.81236e-13
6.58077e-13
6.50669e-13
6.50765e-13
6.50065e-13
6.49678e-13
6.49594e-13
6.49888e-13
6.49491e-13
6.50349e-13
6.49976e-13
6.50627e-13
6.55352e-13
6.7857e-13
7.59514e-13
1.11336e-12
1.3916e-12
2.78102e-12
1.1965e-12
7.73532e-13
6.78416e-13
6.56849e-13
6.50686e-13
6.50338e-13
6.50079e-13
6.49475e-13
6.4963e-13
6.49795e-13
6.49402e-13
6.50206e-13
6.49874e-13
6.5055e-13
6.54945e-13
6.75949e-13
7.4692e-13
1.0401e-12
1.30231e-12
2.65548e-12
1.15355e-12
7.62341e-13
6.76038e-13
6.56266e-13
6.50784e-13
6.50321e-13
6.50109e-13
6.49541e-13
6.49706e-13
6.49822e-13
6.49486e-13
6.50196e-13
6.49986e-13
6.50715e-13
6.5481e-13
6.7397e-13
7.3587e-13
9.76375e-13
1.21763e-12
2.47539e-12
1.10572e-12
7.49594e-13
6.72093e-13
6.54612e-13
6.48886e-13
6.48731e-13
6.48054e-13
6.47872e-13
6.47731e-13
6.47935e-13
6.47716e-13
6.4829e-13
6.48285e-13
6.49068e-13
6.52946e-13
6.70656e-13
7.2435e-13
9.2321e-13
1.13852e-12
2.27305e-12
1.0485e-12
7.33233e-13
6.6431e-13
6.49023e-13
6.42647e-13
6.43347e-13
6.41682e-13
6.42246e-13
6.4148e-13
6.41913e-13
6.41866e-13
6.42262e-13
6.42537e-13
6.43361e-13
6.47064e-13
6.63788e-13
7.09915e-13
8.75034e-13
1.06448e-12
2.04658e-12
9.84639e-13
7.11589e-13
6.50958e-13
6.37894e-13
6.30729e-13
6.32307e-13
6.29539e-13
6.30909e-13
6.29472e-13
6.30116e-13
6.30252e-13
6.30453e-13
6.31028e-13
6.31938e-13
6.35385e-13
6.51461e-13
6.89967e-13
8.28712e-13
9.94279e-13
1.79973e-12
9.18292e-13
6.85357e-13
6.33215e-13
6.2202e-13
6.15122e-13
6.16784e-13
6.13925e-13
6.15354e-13
6.13875e-13
6.14487e-13
6.14643e-13
6.14783e-13
6.15435e-13
6.1635e-13
6.19447e-13
6.34264e-13
6.67001e-13
7.83187e-13
9.2799e-13
1.57772e-12
8.56064e-13
6.65028e-13
6.24372e-13
6.12974e-13
6.12695e-13
6.09853e-13
6.12422e-13
6.0988e-13
6.11712e-13
6.11108e-13
6.10434e-13
6.11236e-13
6.10844e-13
6.11277e-13
6.138e-13
6.23211e-13
6.52548e-13
7.45747e-13
8.73946e-13
1.43401e-12
8.42122e-13
7.01606e-13
6.88216e-13
6.6744e-13
7.01368e-13
6.73918e-13
7.05669e-13
6.81746e-13
7.01296e-13
6.94392e-13
6.89284e-13
6.93834e-13
6.87818e-13
6.85848e-13
6.86805e-13
6.72862e-13
7.06936e-13
7.57986e-13
8.75486e-13
1.1727e-12
1.14901e-12
1.16945e-12
1.14038e-12
1.12879e-12
1.124e-12
1.01629e-12
1.08456e-12
1.00147e-12
1.11592e-12
)
;

boundaryField
{
    fuel
    {
        type            fixedValue;
        value           nonuniform 0();
    }
    wall
    {
        type            zeroGradient;
    }
    outlet
    {
        type            zeroGradient;
    }
    frontAndBack
    {
        type            empty;
    }
    procBoundary0to1
    {
        type            processor;
        value           nonuniform List<scalar> 
21
(
1.58292e-12
1.05508e-12
1.01407e-12
1.09159e-12
1.02762e-12
1.20221e-12
1.0719e-12
1.22544e-12
1.11188e-12
1.20572e-12
1.20572e-12
3.20841e-12
3.11746e-12
3.19552e-12
3.08489e-12
3.03851e-12
3.01257e-12
2.56333e-12
2.76452e-12
2.19657e-12
2.30207e-12
)
;
    }
    procBoundary0to2
    {
        type            processor;
        value           nonuniform List<scalar> 
12
(
6.76399e-13
2.80518e-12
1.33629e-12
8.32739e-13
7.05593e-13
6.78093e-13
6.6531e-13
6.67751e-13
6.64543e-13
6.65496e-13
6.64014e-13
6.64014e-13
)
;
    }
    procBoundary0to3
    {
        type            processor;
        value           nonuniform List<scalar> 10(6.94484e-13 6.94393e-13 6.9517e-13 6.9535e-13 6.95973e-13 7.02338e-13 7.39529e-13 8.90476e-13 1.76027e-12 2.25556e-12);
    }
}


// ************************************************************************* //
