/*--------------------------------*- C++ -*----------------------------------*\
| =========                 |                                                 |
| \\      /  F ield         | OpenFOAM: The Open Source CFD Toolbox           |
|  \\    /   O peration     | Version:  dev                                   |
|   \\  /    A nd           | Web:      www.OpenFOAM.org                      |
|    \\/     M anipulation  |                                                 |
\*---------------------------------------------------------------------------*/
FoamFile
{
    version     2.0;
    format      ascii;
    class       volScalarField;
    location    "0.135";
    object      H2O;
}
// * * * * * * * * * * * * * * * * * * * * * * * * * * * * * * * * * * * * * //

dimensions      [0 0 0 0 0 0 0];

internalField   nonuniform List<scalar> 
250
(
0.0595531
0.0595572
0.0595579
0.0595637
0.0595682
0.0595929
0.0597305
0.059937
0.0605967
0.0605521
0.0593844
0.0593886
0.0593893
0.059395
0.0593999
0.0594238
0.0595573
0.0597535
0.0603699
0.0603862
0.0606886
0.0602267
0.0596768
0.0593762
0.0593175
0.0592225
0.0592596
0.0592152
0.0592375
0.0592139
0.059224
0.0592282
0.0592288
0.0592347
0.0592398
0.0592628
0.0593922
0.0595774
0.0601577
0.0602149
0.0605194
0.0599991
0.0595008
0.059215
0.059161
0.0590697
0.0591053
0.059062
0.0590843
0.0590612
0.0590711
0.0590754
0.0590757
0.0590819
0.0590871
0.0591092
0.0592341
0.0594081
0.0599369
0.0600407
0.0603373
0.0598026
0.0593308
0.0590608
0.0590116
0.0589239
0.0589581
0.0589159
0.0589381
0.0589155
0.0589253
0.0589295
0.0589295
0.0589361
0.0589413
0.0589625
0.0590824
0.0592452
0.0597141
0.0598659
0.0601456
0.0596045
0.0591667
0.058913
0.0588689
0.0587847
0.0588174
0.0587764
0.0587986
0.0587763
0.0587861
0.0587903
0.0587899
0.0587969
0.0588019
0.0588224
0.0589366
0.0590889
0.0595244
0.0596932
0.0599482
0.0594142
0.0590086
0.0587715
0.058733
0.0586519
0.0586832
0.0586434
0.0586654
0.0586436
0.0586534
0.0586576
0.0586568
0.0586641
0.0586687
0.0586888
0.0587964
0.0589391
0.0593358
0.0595234
0.0597328
0.059234
0.0588569
0.0586364
0.0585942
0.0585262
0.0585557
0.058517
0.0585389
0.0585174
0.0585273
0.0585314
0.0585305
0.0585379
0.0585418
0.058562
0.058662
0.0587963
0.059162
0.0593577
0.0595338
0.0590513
0.058712
0.0585083
0.0584703
0.0584049
0.058431
0.0583978
0.0584157
0.0583983
0.0584043
0.0584087
0.058407
0.0584151
0.0584217
0.0584374
0.0585341
0.0586574
0.0589962
0.0591968
0.0593391
0.0588814
0.0585751
0.0583883
0.0583541
0.0582942
0.0583177
0.0582867
0.0583037
0.0582873
0.0582929
0.0582971
0.0582953
0.0583033
0.0583094
0.0583248
0.0584136
0.0585186
0.058839
0.0590415
0.0591422
0.0587283
0.0584475
0.0582775
0.0582467
0.0581923
0.0582134
0.0581849
0.0582006
0.0581855
0.0581906
0.0581946
0.0581929
0.0582006
0.0582062
0.058221
0.0583018
0.058399
0.0586918
0.058893
0.0589638
0.0585841
0.0583308
0.0581774
0.0581495
0.0581008
0.0581194
0.0580939
0.0581079
0.0580943
0.0580988
0.0581027
0.058101
0.0581083
0.0581133
0.0581275
0.0582002
0.0582896
0.0585556
0.0587527
0.058798
0.0584521
0.0582264
0.0580892
0.0580638
0.0580211
0.0580369
0.0580146
0.0580268
0.0580149
0.0580188
0.0580223
0.0580209
0.0580275
0.0580321
0.0580455
0.05811
0.0581919
0.0584317
0.0586221
0.0579512
0.0579546
0.0579533
0.0579593
0.0579633
0.0579759
0.0580324
0.0581069
0.0583212
0.0585026
)
;

boundaryField
{
    fuel
    {
        type            fixedValue;
        value           nonuniform 0();
    }
    wall
    {
        type            zeroGradient;
    }
    outlet
    {
        type            zeroGradient;
    }
    frontAndBack
    {
        type            empty;
    }
    procBoundary0to1
    {
        type            processor;
        value           nonuniform List<scalar> 
21
(
0.0586462
0.0583341
0.0581354
0.0580138
0.0579907
0.057954
0.0579669
0.0579481
0.0579583
0.0579481
0.0579481
0.0578966
0.0578996
0.0578986
0.0579039
0.0579074
0.0579191
0.0579678
0.0580352
0.0582248
0.0583952
)
;
    }
    procBoundary0to2
    {
        type            processor;
        value           nonuniform List<scalar> 
12
(
0.0595427
0.0608407
0.0604266
0.0598587
0.059545
0.0594818
0.0593827
0.0594214
0.0593761
0.0593983
0.0593741
0.0593741
)
;
    }
    procBoundary0to3
    {
        type            processor;
        value           nonuniform List<scalar> 10(0.0597306 0.0597348 0.0597353 0.0597412 0.0597454 0.0597708 0.0599122 0.0601495 0.0608299 0.0607088);
    }
}


// ************************************************************************* //
