/*--------------------------------*- C++ -*----------------------------------*\
| =========                 |                                                 |
| \\      /  F ield         | OpenFOAM: The Open Source CFD Toolbox           |
|  \\    /   O peration     | Version:  dev                                   |
|   \\  /    A nd           | Web:      www.OpenFOAM.org                      |
|    \\/     M anipulation  |                                                 |
\*---------------------------------------------------------------------------*/
FoamFile
{
    version     2.0;
    format      ascii;
    class       volScalarField;
    location    "0.135";
    object      HCCO;
}
// * * * * * * * * * * * * * * * * * * * * * * * * * * * * * * * * * * * * * //

dimensions      [0 0 0 0 0 0 0];

internalField   nonuniform List<scalar> 
250
(
6.26656e-07
6.32365e-07
6.25968e-07
6.3895e-07
6.23964e-07
6.55588e-07
6.24199e-07
6.70074e-07
5.28717e-07
5.65929e-07
5.79189e-07
5.85019e-07
5.78401e-07
5.91508e-07
5.76393e-07
6.07761e-07
5.76988e-07
6.21548e-07
4.94243e-07
5.11489e-07
3.5719e-07
4.49681e-07
5.32316e-07
5.51195e-07
5.39767e-07
5.37427e-07
5.36581e-07
5.34726e-07
5.34968e-07
5.33593e-07
5.31355e-07
5.37284e-07
5.30467e-07
5.43678e-07
5.28516e-07
5.5993e-07
5.29373e-07
5.75397e-07
4.57747e-07
4.64446e-07
3.21803e-07
4.21789e-07
4.88903e-07
5.03523e-07
4.91606e-07
4.89375e-07
4.8849e-07
4.86441e-07
4.86878e-07
4.85397e-07
4.83213e-07
4.89208e-07
4.82227e-07
4.95492e-07
4.80376e-07
5.1168e-07
4.81439e-07
5.28735e-07
4.2245e-07
4.22799e-07
2.94236e-07
3.90309e-07
4.44458e-07
4.55398e-07
4.43225e-07
4.41112e-07
4.40211e-07
4.38001e-07
4.38624e-07
4.3706e-07
4.3494e-07
4.40954e-07
4.33867e-07
4.47091e-07
4.32137e-07
4.63166e-07
4.33345e-07
4.81607e-07
3.86721e-07
3.8493e-07
2.7129e-07
3.59708e-07
3.99228e-07
4.07063e-07
3.94936e-07
3.92936e-07
3.92044e-07
3.89731e-07
3.90513e-07
3.88898e-07
3.8685e-07
3.92818e-07
3.85713e-07
3.98757e-07
3.84104e-07
4.14697e-07
3.85375e-07
4.34141e-07
3.47699e-07
3.46706e-07
2.50353e-07
3.25772e-07
3.53619e-07
3.58938e-07
3.47202e-07
3.45297e-07
3.44439e-07
3.42097e-07
3.42999e-07
3.41371e-07
3.39406e-07
3.45246e-07
3.38233e-07
3.50919e-07
3.36738e-07
3.6678e-07
3.3795e-07
3.86619e-07
3.1078e-07
3.0981e-07
2.29534e-07
2.90814e-07
3.08236e-07
3.11596e-07
3.00644e-07
2.98785e-07
2.97987e-07
2.95707e-07
2.96678e-07
2.95085e-07
2.93214e-07
2.98825e-07
2.9204e-07
3.04156e-07
2.90644e-07
3.15487e-07
2.91616e-07
3.39491e-07
2.73747e-07
2.74436e-07
2.0763e-07
2.54673e-07
2.6385e-07
2.65734e-07
2.54148e-07
2.52728e-07
2.51943e-07
2.49459e-07
2.50609e-07
2.48935e-07
2.47358e-07
2.52702e-07
2.46199e-07
2.57633e-07
2.45052e-07
2.69546e-07
2.47213e-07
2.93417e-07
2.37236e-07
2.3956e-07
1.84227e-07
2.18308e-07
2.21352e-07
2.22255e-07
2.11835e-07
2.10507e-07
2.09811e-07
2.07509e-07
2.08644e-07
2.07074e-07
2.05647e-07
2.10556e-07
2.04556e-07
2.14989e-07
2.03541e-07
2.25884e-07
2.05484e-07
2.49056e-07
1.9907e-07
2.08916e-07
1.59611e-07
1.82803e-07
1.81655e-07
1.81959e-07
1.72828e-07
1.71647e-07
1.7105e-07
1.68981e-07
1.70059e-07
1.68625e-07
1.67363e-07
1.71762e-07
1.66361e-07
1.75647e-07
1.65476e-07
1.85307e-07
1.67154e-07
2.03641e-07
1.65066e-07
1.79245e-07
1.3457e-07
1.49252e-07
1.45586e-07
1.45561e-07
1.37784e-07
1.36777e-07
1.3628e-07
1.34479e-07
1.35465e-07
1.34194e-07
1.33106e-07
1.36939e-07
1.32213e-07
1.40251e-07
1.31457e-07
1.48549e-07
1.32864e-07
1.64972e-07
1.33693e-07
1.5019e-07
1.10146e-07
1.18629e-07
1.13772e-07
1.13601e-07
1.07176e-07
1.06346e-07
1.05946e-07
1.04429e-07
1.05298e-07
1.04204e-07
1.03295e-07
1.06535e-07
1.02525e-07
1.09275e-07
1.01897e-07
1.16171e-07
1.03042e-07
1.30383e-07
1.05563e-07
1.23381e-07
7.81075e-08
8.07552e-08
7.74669e-08
8.29517e-08
7.69591e-08
8.84891e-08
7.78569e-08
1.00359e-07
8.10987e-08
9.8742e-08
)
;

boundaryField
{
    fuel
    {
        type            fixedValue;
        value           nonuniform 0();
    }
    wall
    {
        type            zeroGradient;
    }
    outlet
    {
        type            zeroGradient;
    }
    frontAndBack
    {
        type            empty;
    }
    procBoundary0to1
    {
        type            processor;
        value           nonuniform List<scalar> 
21
(
8.7356e-08
9.16424e-08
8.65721e-08
8.63607e-08
8.1226e-08
8.05636e-08
8.02503e-08
7.90161e-08
7.97528e-08
7.88417e-08
7.88417e-08
5.74656e-08
5.95564e-08
5.69517e-08
6.12647e-08
5.65558e-08
6.55464e-08
5.72433e-08
7.50741e-08
6.05541e-08
7.67534e-08
)
;
    }
    procBoundary0to2
    {
        type            processor;
        value           nonuniform List<scalar> 
12
(
6.2897e-07
4.06455e-07
4.73743e-07
5.74581e-07
5.98243e-07
5.8755e-07
5.85099e-07
5.84317e-07
5.82656e-07
5.82715e-07
5.8147e-07
5.8147e-07
)
;
    }
    procBoundary0to3
    {
        type            processor;
        value           nonuniform List<scalar> 10(6.73795e-07 6.7939e-07 6.73215e-07 6.86096e-07 6.71311e-07 7.02604e-07 6.71131e-07 7.15455e-07 5.70082e-07 6.27532e-07);
    }
}


// ************************************************************************* //
