/*--------------------------------*- C++ -*----------------------------------*\
| =========                 |                                                 |
| \\      /  F ield         | OpenFOAM: The Open Source CFD Toolbox           |
|  \\    /   O peration     | Version:  dev                                   |
|   \\  /    A nd           | Web:      www.OpenFOAM.org                      |
|    \\/     M anipulation  |                                                 |
\*---------------------------------------------------------------------------*/
FoamFile
{
    version     2.0;
    format      ascii;
    class       volScalarField;
    location    "0.135";
    object      HO2;
}
// * * * * * * * * * * * * * * * * * * * * * * * * * * * * * * * * * * * * * //

dimensions      [0 0 0 0 0 0 0];

internalField   nonuniform List<scalar> 
250
(
3.08183e-11
3.12121e-11
3.07652e-11
3.16443e-11
3.06336e-11
3.25263e-11
2.97243e-11
3.09589e-11
9.40513e-11
1.95103e-09
2.75073e-11
2.79123e-11
2.74469e-11
2.83445e-11
2.73148e-11
2.92427e-11
2.65589e-11
2.83053e-11
9.80699e-11
2.16072e-09
6.80705e-09
2.20758e-10
2.52822e-11
2.48141e-11
2.45921e-11
2.45605e-11
2.45112e-11
2.43591e-11
2.4396e-11
2.42876e-11
2.41556e-11
2.45657e-11
2.40888e-11
2.49923e-11
2.39611e-11
2.59195e-11
2.33519e-11
2.56813e-11
9.97101e-11
2.2901e-09
4.15999e-09
1.4551e-10
2.15908e-11
2.15849e-11
2.12564e-11
2.12156e-11
2.11648e-11
2.10069e-11
2.10541e-11
2.09434e-11
2.08142e-11
2.12213e-11
2.07426e-11
2.16352e-11
2.06228e-11
2.25721e-11
2.01496e-11
2.29585e-11
9.88399e-11
2.32777e-09
2.52269e-09
9.44757e-11
1.81835e-11
1.83836e-11
1.79807e-11
1.79332e-11
1.7883e-11
1.77244e-11
1.77797e-11
1.76698e-11
1.7546e-11
1.79407e-11
1.74718e-11
1.83335e-11
1.73623e-11
1.92592e-11
1.70102e-11
2.01687e-11
9.54224e-11
2.26951e-09
1.51597e-09
6.38314e-11
1.50343e-11
1.52773e-11
1.48363e-11
1.47845e-11
1.4737e-11
1.45837e-11
1.46439e-11
1.45383e-11
1.44224e-11
1.47947e-11
1.43485e-11
1.51576e-11
1.42505e-11
1.60519e-11
1.40011e-11
1.73581e-11
8.90738e-11
2.11193e-09
9.03478e-10
4.27842e-11
1.21348e-11
1.23413e-11
1.18992e-11
1.18451e-11
1.18023e-11
1.16606e-11
1.17217e-11
1.16238e-11
1.15184e-11
1.18583e-11
1.14479e-11
1.21832e-11
1.1362e-11
1.30332e-11
1.11935e-11
1.45921e-11
8.11264e-11
1.88023e-09
5.35035e-10
2.89816e-11
9.51171e-12
9.65151e-12
9.24442e-12
9.18842e-12
9.15186e-12
9.02768e-12
9.08557e-12
8.99898e-12
8.9058e-12
9.20447e-12
8.84176e-12
9.48482e-12
8.76787e-12
1.00439e-11
8.65552e-12
1.19459e-11
7.18585e-11
1.60933e-09
3.15552e-10
1.96256e-11
7.20317e-12
7.27518e-12
6.84963e-12
6.81274e-12
6.78034e-12
6.66234e-12
6.72059e-12
6.64082e-12
6.56986e-12
6.8232e-12
6.51389e-12
7.05521e-12
6.45894e-12
7.5934e-12
6.45175e-12
9.50039e-12
6.20693e-11
1.32496e-09
1.85727e-10
1.32291e-11
5.24556e-12
5.26641e-12
4.91709e-12
4.88337e-12
4.8582e-12
4.76368e-12
4.81286e-12
4.74802e-12
4.69141e-12
4.89443e-12
4.64565e-12
5.0771e-12
4.60295e-12
5.51373e-12
4.61837e-12
7.32355e-12
5.17324e-11
1.0834e-09
1.09218e-10
8.82657e-12
3.65944e-12
3.64822e-12
3.3782e-12
3.35074e-12
3.33233e-12
3.26064e-12
3.2997e-12
3.24972e-12
3.20685e-12
3.3613e-12
3.17136e-12
3.49781e-12
3.13964e-12
3.83151e-12
3.16575e-12
5.33445e-12
4.26259e-11
8.66953e-10
6.41214e-11
5.794e-12
2.44068e-12
2.41377e-12
2.218e-12
2.19759e-12
2.18495e-12
2.13371e-12
2.16279e-12
2.12645e-12
2.09586e-12
2.20672e-12
2.06993e-12
2.30304e-12
2.04759e-12
2.54253e-12
2.07691e-12
3.8409e-12
3.43762e-11
6.76628e-10
3.74041e-11
3.72084e-12
1.55843e-12
1.52749e-12
1.39477e-12
1.3808e-12
1.37266e-12
1.33829e-12
1.35851e-12
1.33367e-12
1.31323e-12
1.38793e-12
1.2955e-12
1.45183e-12
1.28068e-12
1.61273e-12
1.30872e-12
2.69157e-12
2.71502e-11
5.2152e-10
7.96897e-13
8.43987e-13
7.85593e-13
8.83774e-13
7.76395e-13
9.84875e-13
8.0098e-13
1.85296e-12
2.10068e-11
3.96204e-10
)
;

boundaryField
{
    fuel
    {
        type            fixedValue;
        value           nonuniform 0();
    }
    wall
    {
        type            zeroGradient;
    }
    outlet
    {
        type            zeroGradient;
    }
    frontAndBack
    {
        type            empty;
    }
    procBoundary0to1
    {
        type            processor;
        value           nonuniform List<scalar> 
21
(
2.17077e-11
2.34611e-12
9.60907e-13
9.31975e-13
8.47875e-13
8.39021e-13
8.34074e-13
8.12451e-13
8.25576e-13
8.0965e-13
8.0965e-13
4.78798e-13
5.06663e-13
4.72072e-13
5.30029e-13
4.66751e-13
5.89662e-13
4.87532e-13
1.27419e-12
1.60114e-11
2.96702e-10
)
;
    }
    procBoundary0to2
    {
        type            processor;
        value           nonuniform List<scalar> 
12
(
3.09504e-11
1.11405e-08
3.28007e-10
2.93652e-11
2.80158e-11
2.79269e-11
2.79059e-11
2.78605e-11
2.77173e-11
2.77435e-11
2.76403e-11
2.76403e-11
)
;
    }
    procBoundary0to3
    {
        type            processor;
        value           nonuniform List<scalar> 10(3.40505e-11 3.44292e-11 3.40058e-11 3.48583e-11 3.38803e-11 3.56836e-11 3.28132e-11 3.32938e-11 8.3741e-11 1.59358e-09);
    }
}


// ************************************************************************* //
