/*--------------------------------*- C++ -*----------------------------------*\
| =========                 |                                                 |
| \\      /  F ield         | OpenFOAM: The Open Source CFD Toolbox           |
|  \\    /   O peration     | Version:  dev                                   |
|   \\  /    A nd           | Web:      www.OpenFOAM.org                      |
|    \\/     M anipulation  |                                                 |
\*---------------------------------------------------------------------------*/
FoamFile
{
    version     2.0;
    format      ascii;
    class       volScalarField;
    location    "0.135";
    object      naphthyne;
}
// * * * * * * * * * * * * * * * * * * * * * * * * * * * * * * * * * * * * * //

dimensions      [0 0 0 0 0 0 0];

internalField   nonuniform List<scalar> 
50
(
4.8583e-09
2.90335e-09
1.48244e-09
7.31928e-10
3.57379e-10
1.73707e-10
8.43135e-11
4.06658e-11
1.95695e-11
9.39844e-12
4.53453e-12
2.17572e-12
1.04324e-12
5.00185e-13
2.39938e-13
1.16168e-13
5.65762e-14
2.80973e-14
1.43471e-14
7.71243e-15
4.46199e-15
2.82311e-15
1.97889e-15
1.51133e-15
1.2312e-15
1.04483e-15
9.0674e-16
7.96677e-16
7.04945e-16
6.24412e-16
5.53148e-16
4.90292e-16
4.33708e-16
3.83087e-16
3.37999e-16
2.97948e-16
2.62474e-16
2.31143e-16
2.03541e-16
1.79281e-16
1.57998e-16
1.39355e-16
1.23043e-16
1.08781e-16
9.63146e-17
8.54158e-17
7.58813e-17
6.75298e-17
6.02001e-17
5.37487e-17
)
;

boundaryField
{
    wall
    {
        type            zeroGradient;
    }
    fuel
    {
        type            fixedValue;
        value           uniform 0;
    }
    outlet
    {
        type            inletOutlet;
        inletValue      nonuniform 0();
        value           nonuniform 0();
    }
    procBoundary0to1
    {
        type            processor;
        value           uniform 4.80375e-17;
    }
}


// ************************************************************************* //
