/*--------------------------------*- C++ -*----------------------------------*\
| =========                 |                                                 |
| \\      /  F ield         | OpenFOAM: The Open Source CFD Toolbox           |
|  \\    /   O peration     | Version:  dev                                   |
|   \\  /    A nd           | Web:      www.OpenFOAM.org                      |
|    \\/     M anipulation  |                                                 |
\*---------------------------------------------------------------------------*/
FoamFile
{
    version     2.0;
    format      ascii;
    class       volScalarField;
    location    "0.135";
    object      O;
}
// * * * * * * * * * * * * * * * * * * * * * * * * * * * * * * * * * * * * * //

dimensions      [0 0 0 0 0 0 0];

internalField   nonuniform List<scalar> 
250
(
5.76379e-08
5.8301e-08
5.75435e-08
5.90132e-08
5.73186e-08
6.03351e-08
5.51687e-08
5.26325e-08
2.89393e-08
1.81843e-08
5.2003e-08
5.27044e-08
5.18938e-08
5.3439e-08
5.16629e-08
5.48498e-08
4.98335e-08
4.83233e-08
2.70562e-08
1.62739e-08
1.57598e-08
2.29069e-08
4.01952e-08
4.68107e-08
4.68405e-08
4.68566e-08
4.67755e-08
4.64953e-08
4.65708e-08
4.63715e-08
4.61485e-08
4.68758e-08
4.60258e-08
4.76209e-08
4.57969e-08
4.91425e-08
4.42786e-08
4.3984e-08
2.49031e-08
1.47988e-08
1.28033e-08
2.17052e-08
3.58772e-08
4.11654e-08
4.09075e-08
4.08939e-08
4.08078e-08
4.05137e-08
4.06077e-08
4.04025e-08
4.01774e-08
4.0915e-08
4.00437e-08
4.16554e-08
3.98237e-08
4.32512e-08
3.8601e-08
3.94048e-08
2.26734e-08
1.35735e-08
1.08871e-08
2.00413e-08
3.13389e-08
3.54401e-08
3.4961e-08
3.49223e-08
3.48351e-08
3.45365e-08
3.46456e-08
3.44396e-08
3.42178e-08
3.4947e-08
3.40772e-08
3.56649e-08
3.38713e-08
3.72936e-08
3.29188e-08
3.46501e-08
2.02868e-08
1.24575e-08
9.58007e-09
1.81746e-08
2.66951e-08
2.97705e-08
2.91465e-08
2.9088e-08
2.90038e-08
2.87122e-08
2.88308e-08
2.86303e-08
2.84175e-08
2.91176e-08
2.82754e-08
2.9794e-08
2.80872e-08
3.14142e-08
2.73699e-08
2.98092e-08
1.75794e-08
1.12709e-08
8.5564e-09
1.5921e-08
2.20887e-08
2.43115e-08
2.36227e-08
2.35491e-08
2.34718e-08
2.31992e-08
2.33201e-08
2.31321e-08
2.29337e-08
2.35839e-08
2.27963e-08
2.42005e-08
2.26279e-08
2.5782e-08
2.21027e-08
2.49994e-08
1.49636e-08
1.00284e-08
7.59837e-09
1.35035e-08
1.76802e-08
1.92228e-08
1.85485e-08
1.84618e-08
1.83945e-08
1.81529e-08
1.82683e-08
1.80998e-08
1.79205e-08
1.85013e-08
1.77939e-08
1.90426e-08
1.76461e-08
2.00845e-08
1.72621e-08
2.03578e-08
1.23482e-08
8.73357e-09
6.5871e-09
1.10009e-08
1.36286e-08
1.46504e-08
1.38881e-08
1.38319e-08
1.37706e-08
1.35366e-08
1.36543e-08
1.34962e-08
1.33575e-08
1.38587e-08
1.32451e-08
1.43147e-08
1.31334e-08
1.53498e-08
1.2991e-08
1.60341e-08
9.84193e-09
7.37217e-09
5.49483e-09
8.56697e-09
1.00712e-08
1.07183e-08
1.007e-08
1.00137e-08
9.96513e-09
9.77473e-09
9.87551e-09
9.74482e-09
9.63191e-09
1.00405e-08
9.53855e-09
1.04059e-08
9.45031e-09
1.12647e-08
9.37846e-09
1.21582e-08
7.37474e-09
6.12596e-09
4.36277e-09
6.34642e-09
7.10143e-09
7.49227e-09
6.97522e-09
6.92643e-09
6.89019e-09
6.74331e-09
6.8247e-09
6.72212e-09
6.63473e-09
6.95139e-09
6.56103e-09
7.22956e-09
6.49427e-09
7.90023e-09
6.46436e-09
8.57791e-09
5.35539e-09
4.90815e-09
3.26954e-09
4.4505e-09
4.75587e-09
4.98018e-09
4.59421e-09
4.5561e-09
4.53066e-09
4.42374e-09
4.48548e-09
4.4094e-09
4.34554e-09
4.57754e-09
4.29058e-09
4.77769e-09
4.2426e-09
5.26964e-09
4.23552e-09
5.89058e-09
3.69392e-09
3.74171e-09
2.29762e-09
2.94044e-09
3.01111e-09
3.13326e-09
2.86435e-09
2.83704e-09
2.82027e-09
2.74718e-09
2.79102e-09
2.73792e-09
2.69415e-09
2.85396e-09
2.65567e-09
2.98945e-09
2.62314e-09
3.32719e-09
2.62622e-09
3.82991e-09
2.40714e-09
2.72336e-09
1.57415e-09
1.67707e-09
1.549e-09
1.76299e-09
1.52829e-09
1.97917e-09
1.53403e-09
2.3455e-09
1.47377e-09
1.86973e-09
)
;

boundaryField
{
    fuel
    {
        type            fixedValue;
        value           nonuniform 0();
    }
    wall
    {
        type            zeroGradient;
    }
    outlet
    {
        type            zeroGradient;
    }
    frontAndBack
    {
        type            empty;
    }
    procBoundary0to1
    {
        type            processor;
        value           nonuniform List<scalar> 
21
(
1.50559e-09
1.82162e-09
1.79416e-09
1.85717e-09
1.68298e-09
1.66492e-09
1.65452e-09
1.60782e-09
1.63684e-09
1.60215e-09
1.60215e-09
8.62785e-10
9.24459e-10
8.47503e-10
9.75377e-10
8.35204e-10
1.10377e-09
8.40288e-10
1.34565e-09
8.43548e-10
1.20243e-09
)
;
    }
    procBoundary0to2
    {
        type            processor;
        value           nonuniform List<scalar> 
12
(
5.78447e-08
2.05123e-08
2.37013e-08
4.42063e-08
5.22598e-08
5.26361e-08
5.26842e-08
5.26116e-08
5.2351e-08
5.24077e-08
5.22196e-08
5.22196e-08
)
;
    }
    procBoundary0to3
    {
        type            processor;
        value           nonuniform List<scalar> 10(6.29762e-08 6.35948e-08 6.28978e-08 6.42768e-08 6.26897e-08 6.54397e-08 6.02262e-08 5.64187e-08 3.10403e-08 2.06752e-08);
    }
}


// ************************************************************************* //
