/*--------------------------------*- C++ -*----------------------------------*\
| =========                 |                                                 |
| \\      /  F ield         | OpenFOAM: The Open Source CFD Toolbox           |
|  \\    /   O peration     | Version:  dev                                   |
|   \\  /    A nd           | Web:      www.OpenFOAM.org                      |
|    \\/     M anipulation  |                                                 |
\*---------------------------------------------------------------------------*/
FoamFile
{
    version     2.0;
    format      ascii;
    class       volScalarField;
    location    "0.135";
    object      O2;
}
// * * * * * * * * * * * * * * * * * * * * * * * * * * * * * * * * * * * * * //

dimensions      [0 0 0 0 0 0 0];

internalField   nonuniform List<scalar> 
250
(
3.12904e-08
3.14226e-08
3.13511e-08
3.15037e-08
3.15475e-08
3.15149e-08
3.19269e-08
6.04512e-08
2.17079e-06
7.72374e-05
2.82951e-08
2.84253e-08
2.83516e-08
2.85112e-08
2.85641e-08
2.8543e-08
2.89806e-08
4.78997e-08
1.40824e-06
4.76581e-05
2.28446e-07
3.03374e-08
2.37936e-08
2.52775e-08
2.62336e-08
2.51786e-08
2.58383e-08
2.50696e-08
2.55224e-08
2.50867e-08
2.52445e-08
2.53716e-08
2.52963e-08
2.5461e-08
2.55191e-08
2.55098e-08
2.59994e-08
3.82725e-08
9.14121e-07
2.87605e-05
2.69763e-07
3.10847e-08
2.13463e-08
2.23337e-08
2.31832e-08
2.2114e-08
2.27677e-08
2.19924e-08
2.24592e-08
2.20182e-08
2.21807e-08
2.23031e-08
2.22271e-08
2.23936e-08
2.2453e-08
2.24553e-08
2.29976e-08
3.07484e-08
5.72919e-07
1.70214e-05
3.22175e-07
3.26992e-08
1.89331e-08
1.94087e-08
2.01563e-08
1.90929e-08
1.97303e-08
1.89659e-08
1.9435e-08
1.89979e-08
1.91625e-08
1.92782e-08
1.92029e-08
1.93667e-08
1.94236e-08
1.94367e-08
2.00157e-08
2.4791e-08
3.49002e-07
9.91948e-06
3.82333e-07
3.52824e-08
1.66091e-08
1.65674e-08
1.72208e-08
1.61849e-08
1.67939e-08
1.60587e-08
1.65179e-08
1.60943e-08
1.62584e-08
1.6365e-08
1.62926e-08
1.64487e-08
1.64989e-08
1.65228e-08
1.71126e-08
2.00347e-08
2.21955e-07
5.71747e-06
4.47979e-07
3.87475e-08
1.44399e-08
1.38795e-08
1.44529e-08
1.34629e-08
1.40306e-08
1.3341e-08
1.37793e-08
1.33777e-08
1.35397e-08
1.36348e-08
1.3568e-08
1.37111e-08
1.37501e-08
1.37863e-08
1.4356e-08
1.61461e-08
1.39342e-07
3.2733e-06
5.23002e-07
4.31136e-08
1.24939e-08
1.14106e-08
1.17363e-08
1.10001e-08
1.15091e-08
1.08763e-08
1.12863e-08
1.09122e-08
1.10722e-08
1.11539e-08
1.10952e-08
1.12208e-08
1.12432e-08
1.12962e-08
1.18128e-08
1.29431e-08
8.91563e-08
1.86876e-06
5.94315e-07
4.87965e-08
1.08325e-08
9.22288e-09
9.46519e-09
8.78878e-09
9.20651e-09
8.71334e-09
9.02192e-09
8.74695e-09
8.83104e-09
8.90482e-09
8.84523e-09
8.96487e-09
9.03031e-09
9.01524e-09
9.54127e-09
1.0239e-08
5.75729e-08
1.06766e-06
6.65557e-07
5.5385e-08
9.4962e-09
7.35205e-09
7.51599e-09
6.95338e-09
7.29662e-09
6.88096e-09
7.14373e-09
6.91084e-09
6.98354e-09
7.04366e-09
6.99362e-09
7.09321e-09
7.14541e-09
7.13763e-09
7.58429e-09
7.90277e-09
3.75879e-08
6.12217e-07
7.38202e-07
6.25211e-08
8.49662e-09
5.80938e-09
5.90099e-09
5.442e-09
5.72087e-09
5.38159e-09
5.59796e-09
5.40699e-09
5.468e-09
5.51547e-09
5.47494e-09
5.55503e-09
5.59519e-09
5.5922e-09
5.95813e-09
6.15976e-09
2.48418e-08
3.53115e-07
8.0372e-07
7.0272e-08
7.80978e-09
4.58059e-09
4.60791e-09
4.24127e-09
4.46329e-09
4.19385e-09
4.36689e-09
4.21473e-09
4.26448e-09
4.30105e-09
4.26915e-09
4.33178e-09
4.36178e-09
4.36173e-09
4.65265e-09
4.789e-09
1.66397e-08
2.05113e-07
8.65448e-07
7.82595e-08
7.37905e-09
3.62985e-09
3.60333e-09
3.31381e-09
3.48805e-09
3.27806e-09
3.41354e-09
3.29491e-09
3.33452e-09
3.36237e-09
3.33771e-09
3.3858e-09
3.40773e-09
3.40948e-09
3.63602e-09
3.73797e-09
1.13187e-08
1.19941e-07
2.62917e-09
2.65051e-09
2.6315e-09
2.66824e-09
2.68406e-09
2.68707e-09
2.86217e-09
2.94922e-09
7.83707e-09
7.02322e-08
)
;

boundaryField
{
    fuel
    {
        type            fixedValue;
        value           nonuniform 0();
    }
    wall
    {
        type            zeroGradient;
    }
    outlet
    {
        type            inletOutlet;
        inletValue      uniform 0;
        value           nonuniform List<scalar> 
25
(
2.28446e-07
2.69763e-07
3.22175e-07
3.82333e-07
4.47979e-07
5.23002e-07
5.94315e-07
6.65557e-07
7.38202e-07
8.0372e-07
8.65448e-07
7.72374e-05
4.76581e-05
2.87605e-05
1.70214e-05
9.91948e-06
5.71747e-06
3.2733e-06
1.86876e-06
1.06766e-06
6.12217e-07
3.53115e-07
2.05113e-07
1.19941e-07
7.02322e-08
)
;
    }
    frontAndBack
    {
        type            empty;
    }
    procBoundary0to1
    {
        type            processor;
        value           nonuniform List<scalar> 
21
(
8.90596e-07
8.36136e-08
7.03635e-09
2.90839e-09
2.83841e-09
2.61145e-09
2.74674e-09
2.58483e-09
2.6896e-09
2.59818e-09
2.59818e-09
2.09755e-09
2.11427e-09
2.09948e-09
2.1277e-09
2.13915e-09
2.14313e-09
2.27938e-09
2.36694e-09
5.6009e-09
4.14157e-08
)
;
    }
    procBoundary0to2
    {
        type            processor;
        value           nonuniform List<scalar> 
12
(
3.115e-08
1.86147e-07
3.01675e-08
2.62166e-08
2.82083e-08
2.92517e-08
2.82332e-08
2.88833e-08
2.81407e-08
2.85673e-08
2.81449e-08
2.81449e-08
)
;
    }
    procBoundary0to3
    {
        type            processor;
        value           nonuniform List<scalar> 10(3.42132e-08 3.43463e-08 3.4279e-08 3.44224e-08 3.44527e-08 3.44086e-08 3.48372e-08 7.92834e-08 3.32365e-06 0.000124515);
    }
}


// ************************************************************************* //
