/*--------------------------------*- C++ -*----------------------------------*\
| =========                 |                                                 |
| \\      /  F ield         | OpenFOAM: The Open Source CFD Toolbox           |
|  \\    /   O peration     | Version:  dev                                   |
|   \\  /    A nd           | Web:      www.OpenFOAM.org                      |
|    \\/     M anipulation  |                                                 |
\*---------------------------------------------------------------------------*/
FoamFile
{
    version     2.0;
    format      ascii;
    class       surfaceScalarField;
    location    "0.135";
    object      phi;
}
// * * * * * * * * * * * * * * * * * * * * * * * * * * * * * * * * * * * * * //

dimensions      [1 0 -1 0 0 0 0];

internalField   nonuniform List<scalar> 
11
(
4.70532e-06
5.15048e-06
5.65547e-06
6.16363e-06
6.63285e-06
7.05271e-06
7.4244e-06
7.75343e-06
8.04744e-06
8.3153e-06
8.56582e-06
)
;

boundaryField
{
    wall
    {
        type            calculated;
        value           nonuniform List<scalar> 
48
(
2.70672e-20
5.27517e-20
7.53866e-20
9.2654e-20
1.11251e-19
1.25139e-19
1.40131e-19
1.53867e-19
1.68379e-19
1.82943e-19
1.98698e-19
2.11699e-19
-2.70672e-20
-5.27517e-20
-7.53866e-20
-9.2654e-20
-1.11251e-19
-1.25139e-19
-1.40131e-19
-1.53867e-19
-1.68379e-19
-1.82943e-19
-1.98698e-19
-2.11699e-19
2.70672e-20
5.27517e-20
7.53866e-20
9.2654e-20
1.11251e-19
1.25139e-19
1.40131e-19
1.53867e-19
1.68379e-19
1.82943e-19
1.98698e-19
2.11699e-19
-2.70672e-20
-5.27517e-20
-7.53866e-20
-9.2654e-20
-1.11251e-19
-1.25139e-19
-1.40131e-19
-1.53867e-19
-1.68379e-19
-1.82943e-19
-1.98698e-19
-2.11699e-19
)
;
    }
    fuel
    {
        type            calculated;
        value           uniform -4.44417e-06;
    }
    outlet
    {
        type            calculated;
        value           nonuniform 0();
    }
    procBoundary0to1
    {
        type            processor;
        value           uniform 8.80756e-06;
    }
}


// ************************************************************************* //
