/*--------------------------------*- C++ -*----------------------------------*\
| =========                 |                                                 |
| \\      /  F ield         | OpenFOAM: The Open Source CFD Toolbox           |
|  \\    /   O peration     | Version:  dev                                   |
|   \\  /    A nd           | Web:      www.OpenFOAM.org                      |
|    \\/     M anipulation  |                                                 |
\*---------------------------------------------------------------------------*/
FoamFile
{
    version     2.0;
    format      ascii;
    class       volScalarField;
    location    "0.175";
    object      A3C2H;
}
// * * * * * * * * * * * * * * * * * * * * * * * * * * * * * * * * * * * * * //

dimensions      [0 0 0 0 0 0 0];

internalField   nonuniform List<scalar> 
250
(
6.9837e-11
2.65954e-11
1.69419e-11
1.37351e-11
1.33063e-11
1.28388e-11
1.30063e-11
1.27939e-11
1.29169e-11
1.28103e-11
5.44748e-11
2.26957e-11
1.52823e-11
1.25821e-11
1.22788e-11
1.18157e-11
1.20035e-11
1.17757e-11
1.19125e-11
1.17965e-11
1.18351e-11
1.18664e-11
1.18469e-11
1.18979e-11
1.19402e-11
1.20749e-11
1.27785e-11
1.43668e-11
2.05969e-11
3.05013e-11
4.23146e-11
1.91954e-11
1.35879e-11
1.13409e-11
1.11452e-11
1.06941e-11
1.08964e-11
1.06594e-11
1.08052e-11
1.06837e-11
1.07232e-11
1.07559e-11
1.07337e-11
1.07842e-11
1.08224e-11
1.09359e-11
1.15546e-11
1.28372e-11
1.79809e-11
2.63832e-11
3.27499e-11
1.60726e-11
1.1894e-11
1.00533e-11
9.94177e-12
9.51517e-12
9.72245e-12
9.48612e-12
9.63313e-12
9.51204e-12
9.55073e-12
9.58313e-12
9.55991e-12
9.60762e-12
9.64094e-12
9.73437e-12
1.02691e-11
1.12847e-11
1.54861e-11
2.24804e-11
2.52964e-11
1.33333e-11
1.02604e-11
8.76073e-12
8.71826e-12
8.34483e-12
8.52543e-12
8.32154e-12
8.45968e-12
8.34693e-12
8.38241e-12
8.41234e-12
8.39019e-12
8.43245e-12
8.46044e-12
8.5356e-12
8.97398e-12
9.77666e-12
1.31647e-11
1.88826e-11
1.94905e-11
1.10105e-11
8.77155e-12
7.59632e-12
7.58183e-12
7.26926e-12
7.42497e-12
7.25091e-12
7.36954e-12
7.27325e-12
7.30306e-12
7.32841e-12
7.30938e-12
7.34392e-12
7.36644e-12
7.42575e-12
7.77894e-12
8.40241e-12
1.10456e-11
1.56244e-11
1.50612e-11
9.14304e-12
7.51638e-12
6.62436e-12
6.61333e-12
6.37383e-12
6.4933e-12
6.35938e-12
6.45066e-12
6.37662e-12
6.39904e-12
6.41846e-12
6.40396e-12
6.42966e-12
6.44705e-12
6.49333e-12
6.76533e-12
7.25224e-12
9.31422e-12
1.29651e-11
1.1946e-11
7.74783e-12
6.56105e-12
5.90433e-12
5.88268e-12
5.71612e-12
5.79595e-12
5.70443e-12
5.76617e-12
5.71569e-12
5.73037e-12
5.74387e-12
5.73412e-12
5.75155e-12
5.76455e-12
5.80079e-12
6.00153e-12
6.3875e-12
7.98096e-12
1.08876e-11
9.77748e-12
6.7933e-12
5.91951e-12
5.44447e-12
5.4098e-12
5.30356e-12
5.34899e-12
5.29361e-12
5.32982e-12
5.2994e-12
5.30744e-12
5.31639e-12
5.31043e-12
5.32156e-12
5.33116e-12
5.36011e-12
5.50462e-12
5.8156e-12
7.04481e-12
9.36796e-12
8.32305e-12
6.19548e-12
5.54474e-12
5.19952e-12
5.15706e-12
5.09217e-12
5.11366e-12
5.08322e-12
5.10165e-12
5.08498e-12
5.08832e-12
5.09472e-12
5.09098e-12
5.09834e-12
5.10553e-12
5.12934e-12
5.23404e-12
5.48683e-12
6.43939e-12
8.30393e-12
7.36883e-12
5.8457e-12
5.35361e-12
5.09668e-12
5.05288e-12
5.01214e-12
5.01999e-12
5.00375e-12
5.01208e-12
5.00304e-12
5.00357e-12
5.00915e-12
5.00624e-12
5.01186e-12
5.01746e-12
5.03761e-12
5.11621e-12
5.32204e-12
6.06528e-12
7.56377e-12
6.75652e-12
5.6472e-12
5.26412e-12
5.06506e-12
5.02394e-12
4.99545e-12
4.99708e-12
4.98741e-12
4.99117e-12
4.98545e-12
4.98457e-12
4.99031e-12
4.9874e-12
4.99251e-12
4.99712e-12
5.01463e-12
5.07702e-12
5.24583e-12
5.83412e-12
7.04691e-12
6.40535e-12
5.53935e-12
5.21978e-12
5.0553e-12
5.01679e-12
4.99442e-12
4.99339e-12
4.98659e-12
4.98846e-12
4.98406e-12
4.98252e-12
4.98856e-12
4.98549e-12
4.99049e-12
4.99452e-12
5.01035e-12
5.06342e-12
5.20809e-12
5.69738e-12
6.72222e-12
)
;

boundaryField
{
    fuel
    {
        type            fixedValue;
        value           nonuniform 0();
    }
    wall
    {
        type            zeroGradient;
    }
    outlet
    {
        type            zeroGradient;
    }
    frontAndBack
    {
        type            empty;
    }
    procBoundary1to0
    {
        type            processor;
        value           nonuniform List<scalar> 
21
(
8.90852e-11
3.09368e-11
1.85506e-11
1.47796e-11
1.42128e-11
1.37436e-11
1.38887e-11
1.36945e-11
1.38015e-11
1.37059e-11
1.28469e-11
1.28469e-11
1.28757e-11
1.286e-11
1.29096e-11
1.29553e-11
1.31117e-11
1.39022e-11
1.58331e-11
2.33248e-11
3.47958e-11
)
;
    }
}


// ************************************************************************* //
