/*--------------------------------*- C++ -*----------------------------------*\
| =========                 |                                                 |
| \\      /  F ield         | OpenFOAM: The Open Source CFD Toolbox           |
|  \\    /   O peration     | Version:  dev                                   |
|   \\  /    A nd           | Web:      www.OpenFOAM.org                      |
|    \\/     M anipulation  |                                                 |
\*---------------------------------------------------------------------------*/
FoamFile
{
    version     2.0;
    format      ascii;
    class       volScalarField;
    location    "0.175";
    object      A4-;
}
// * * * * * * * * * * * * * * * * * * * * * * * * * * * * * * * * * * * * * //

dimensions      [0 0 0 0 0 0 0];

internalField   nonuniform List<scalar> 
250
(
1.98328e-10
1.73572e-10
1.34595e-10
1.25255e-10
1.14817e-10
1.13227e-10
1.12556e-10
1.10833e-10
1.11833e-10
1.10492e-10
1.49484e-10
1.29393e-10
1.0099e-10
9.47879e-11
8.6921e-11
8.57597e-11
8.52267e-11
8.38512e-11
8.46882e-11
8.35837e-11
8.30449e-11
8.55028e-11
8.24801e-11
8.75822e-11
8.20711e-11
9.38903e-11
8.50565e-11
1.2126e-10
1.10835e-10
1.81914e-10
1.08987e-10
9.37844e-11
7.37186e-11
6.9787e-11
6.40324e-11
6.32131e-11
6.27897e-11
6.17252e-11
6.24017e-11
6.1521e-11
6.11073e-11
6.30335e-11
6.06527e-11
6.46601e-11
6.03213e-11
6.94064e-11
6.22766e-11
8.88403e-11
7.95348e-11
1.32793e-10
7.67392e-11
6.59234e-11
5.21866e-11
4.98416e-11
4.57676e-11
4.52121e-11
4.48589e-11
4.40617e-11
4.45902e-11
4.39096e-11
4.36019e-11
4.5065e-11
4.32484e-11
4.63248e-11
4.29892e-11
4.97607e-11
4.42549e-11
6.31595e-11
5.54631e-11
9.35079e-11
5.19888e-11
4.47312e-11
3.56103e-11
3.41962e-11
3.13269e-11
3.09657e-11
3.08801e-11
3.03046e-11
3.07031e-11
3.01942e-11
2.99734e-11
3.10477e-11
2.97076e-11
3.18044e-11
2.95097e-11
3.43014e-11
3.01108e-11
4.3334e-11
3.707e-11
6.33136e-11
3.32198e-11
2.86909e-11
2.317e-11
2.24285e-11
2.05304e-11
2.03087e-11
2.02509e-11
1.9853e-11
2.0141e-11
1.97756e-11
1.96236e-11
2.03811e-11
1.94322e-11
2.09081e-11
1.92889e-11
2.25851e-11
1.96165e-11
2.8412e-11
2.38028e-11
4.09655e-11
2.0047e-11
1.73937e-11
1.41082e-11
1.37635e-11
1.25745e-11
1.24473e-11
1.24101e-11
1.21507e-11
1.23473e-11
1.20991e-11
1.20002e-11
1.25056e-11
1.18699e-11
1.28519e-11
1.17723e-11
1.39157e-11
1.19326e-11
1.74889e-11
1.4316e-11
2.46307e-11
1.10086e-11
9.59168e-12
7.79132e-12
7.65908e-12
6.97313e-12
6.90696e-12
6.88457e-12
6.72968e-12
6.85266e-12
6.69803e-12
6.63886e-12
6.94898e-12
6.55724e-12
7.15702e-12
6.49612e-12
7.77847e-12
6.56276e-12
9.80706e-12
7.81383e-12
1.36691e-11
5.24049e-12
4.58154e-12
3.71689e-12
3.68098e-12
3.3351e-12
3.30552e-12
3.2935e-12
3.21332e-12
3.27997e-12
3.19646e-12
3.16557e-12
3.33128e-12
3.121e-12
3.43948e-12
3.08771e-12
3.75713e-12
3.10909e-12
4.7713e-12
3.68584e-12
6.61357e-12
2.03099e-12
1.78225e-12
1.44503e-12
1.44057e-12
1.29972e-12
1.28909e-12
1.28379e-12
1.25054e-12
1.27938e-12
1.24331e-12
1.23037e-12
1.30141e-12
1.21087e-12
1.34638e-12
1.19644e-12
1.47734e-12
1.20115e-12
1.88907e-12
1.41932e-12
2.60646e-12
5.94267e-13
5.21543e-13
4.21983e-13
4.22676e-13
3.79729e-13
3.76846e-13
3.75053e-13
3.64794e-13
3.74077e-13
3.62445e-13
3.58458e-13
3.81064e-13
3.52162e-13
3.94886e-13
3.476e-13
4.35063e-13
3.48284e-13
5.60782e-13
4.11867e-13
7.72764e-13
1.18143e-13
1.03893e-13
8.4588e-14
8.48108e-14
7.63793e-14
7.58379e-14
7.54581e-14
7.34312e-14
7.53113e-14
7.29438e-14
7.21504e-14
7.67398e-14
7.08569e-14
7.94688e-14
6.99491e-14
8.73559e-14
7.00853e-14
1.11906e-13
8.26635e-14
1.53108e-13
3.05537e-14
2.71311e-14
2.25878e-14
2.26012e-14
2.06063e-14
2.0479e-14
2.03727e-14
1.98841e-14
2.03543e-14
1.97477e-14
1.95952e-14
2.06357e-14
1.93245e-14
2.12317e-14
1.91604e-14
2.3014e-14
1.92637e-14
2.86761e-14
2.2317e-14
3.80981e-14
)
;

boundaryField
{
    fuel
    {
        type            fixedValue;
        value           nonuniform 0();
    }
    wall
    {
        type            zeroGradient;
    }
    outlet
    {
        type            zeroGradient;
    }
    frontAndBack
    {
        type            empty;
    }
    procBoundary1to0
    {
        type            processor;
        value           nonuniform List<scalar> 
21
(
2.54769e-10
2.26758e-10
1.74831e-10
1.61298e-10
1.4783e-10
1.45723e-10
1.44897e-10
1.42801e-10
1.43956e-10
1.42378e-10
1.09811e-10
1.09811e-10
1.1285e-10
1.09134e-10
1.15445e-10
1.08648e-10
1.23552e-10
1.13076e-10
1.61066e-10
1.50385e-10
2.40814e-10
)
;
    }
}


// ************************************************************************* //
