/*--------------------------------*- C++ -*----------------------------------*\
| =========                 |                                                 |
| \\      /  F ield         | OpenFOAM: The Open Source CFD Toolbox           |
|  \\    /   O peration     | Version:  dev                                   |
|   \\  /    A nd           | Web:      www.OpenFOAM.org                      |
|    \\/     M anipulation  |                                                 |
\*---------------------------------------------------------------------------*/
FoamFile
{
    version     2.0;
    format      ascii;
    class       volScalarField;
    location    "0.175";
    object      AC3H4;
}
// * * * * * * * * * * * * * * * * * * * * * * * * * * * * * * * * * * * * * //

dimensions      [0 0 0 0 0 0 0];

internalField   nonuniform List<scalar> 
50
(
2.84906e-16
1.75869e-16
1.08886e-16
6.76395e-17
4.21735e-17
2.64037e-17
1.66059e-17
1.04964e-17
6.67144e-18
4.26609e-18
2.74614e-18
1.78056e-18
1.16359e-18
7.66866e-19
5.10022e-19
3.42509e-19
2.32392e-19
1.59394e-19
1.1057e-19
7.76069e-20
5.51337e-20
3.96559e-20
2.88838e-20
2.13061e-20
1.59171e-20
1.20422e-20
9.22493e-21
7.15375e-21
5.61416e-21
4.45712e-21
3.57812e-21
2.90323e-21
2.37965e-21
1.96932e-21
1.6446e-21
1.3852e-21
1.1761e-21
1.00609e-21
8.66721e-22
7.51589e-22
6.55779e-22
5.75493e-22
5.07775e-22
4.51053e-22
4.02274e-22
3.60231e-22
3.2397e-22
2.9251e-22
2.65039e-22
2.40871e-22
)
;

boundaryField
{
    wall
    {
        type            zeroGradient;
    }
    fuel
    {
        type            fixedValue;
        value           nonuniform 0();
    }
    outlet
    {
        type            inletOutlet;
        inletValue      nonuniform 0();
        value           nonuniform 0();
    }
    procBoundary1to0
    {
        type            processor;
        value           uniform 4.98286e-16;
    }
    procBoundary1to2
    {
        type            processor;
        value           uniform 2.20085e-22;
    }
}


// ************************************************************************* //
