/*--------------------------------*- C++ -*----------------------------------*\
| =========                 |                                                 |
| \\      /  F ield         | OpenFOAM: The Open Source CFD Toolbox           |
|  \\    /   O peration     | Version:  dev                                   |
|   \\  /    A nd           | Web:      www.OpenFOAM.org                      |
|    \\/     M anipulation  |                                                 |
\*---------------------------------------------------------------------------*/
FoamFile
{
    version     2.0;
    format      ascii;
    class       volScalarField;
    location    "0.175";
    object      CH3O;
}
// * * * * * * * * * * * * * * * * * * * * * * * * * * * * * * * * * * * * * //

dimensions      [0 0 0 0 0 0 0];

internalField   nonuniform List<scalar> 
250
(
3.01299e-11
3.36135e-11
3.12736e-11
3.21636e-11
2.9543e-11
2.93123e-11
2.91418e-11
2.84773e-11
2.89015e-11
2.83716e-11
2.10673e-11
2.27811e-11
2.07584e-11
2.13268e-11
1.95057e-11
1.93473e-11
1.92234e-11
1.87615e-11
1.90663e-11
1.86882e-11
1.84974e-11
1.93576e-11
1.82864e-11
2.0077e-11
1.80809e-11
2.20769e-11
1.80482e-11
2.64426e-11
1.7962e-11
2.42282e-11
1.41065e-11
1.48581e-11
1.33058e-11
1.3663e-11
1.24582e-11
1.23549e-11
1.22649e-11
1.19575e-11
1.21666e-11
1.19084e-11
1.17835e-11
1.23584e-11
1.16406e-11
1.28406e-11
1.15057e-11
1.41565e-11
1.14985e-11
1.71853e-11
1.16717e-11
1.65355e-11
9.07422e-12
9.35077e-12
8.25613e-12
8.47956e-12
7.72157e-12
7.65773e-12
7.58834e-12
7.39257e-12
7.52972e-12
7.36067e-12
7.28294e-12
7.65013e-12
7.19087e-12
7.96619e-12
7.10679e-12
8.78529e-12
7.11787e-12
1.07704e-11
7.35091e-12
1.08436e-11
5.637e-12
5.7059e-12
4.97921e-12
5.09139e-12
4.6195e-12
4.58166e-12
4.57248e-12
4.45325e-12
4.53939e-12
4.43305e-12
4.38711e-12
4.61131e-12
4.33056e-12
4.77033e-12
4.28031e-12
5.27536e-12
4.25973e-12
6.52519e-12
4.46163e-12
6.84267e-12
3.36043e-12
3.35215e-12
2.93981e-12
3.00306e-12
2.72957e-12
2.70834e-12
2.70291e-12
2.63319e-12
2.68514e-12
2.62066e-12
2.59488e-12
2.72601e-12
2.56187e-12
2.81772e-12
2.53365e-12
3.10392e-12
2.5242e-12
3.84191e-12
2.67346e-12
4.17578e-12
1.98342e-12
1.95654e-12
1.71582e-12
1.75018e-12
1.5975e-12
1.58586e-12
1.58251e-12
1.54306e-12
1.57339e-12
1.53536e-12
1.52158e-12
1.59561e-12
1.50315e-12
1.64661e-12
1.48817e-12
1.80187e-12
1.48437e-12
2.21688e-12
1.58363e-12
2.44557e-12
1.15707e-12
1.13176e-12
9.96007e-13
1.01418e-12
9.30945e-13
9.24612e-13
9.2252e-13
9.0059e-13
9.1801e-13
8.95864e-13
8.8873e-13
9.29764e-13
8.7872e-13
9.57336e-13
8.71062e-13
1.03931e-12
8.69768e-13
1.26411e-12
9.31627e-13
1.4169e-12
6.62568e-13
6.44222e-13
5.69697e-13
5.79264e-13
5.34586e-13
5.31178e-13
5.29866e-13
5.17815e-13
5.27729e-13
5.14934e-13
5.113e-13
5.33897e-13
5.05924e-13
5.48533e-13
5.0205e-13
5.91256e-13
5.01653e-13
7.09959e-13
5.38353e-13
8.02841e-13
3.6557e-13
3.54395e-13
3.15468e-13
3.20435e-13
2.97303e-13
2.95535e-13
2.94743e-13
2.88339e-13
2.93801e-13
2.86649e-13
2.84865e-13
2.96955e-13
2.82068e-13
3.04446e-13
2.80167e-13
3.26076e-13
2.80061e-13
3.86345e-13
3.00414e-13
4.38023e-13
1.91151e-13
1.83979e-13
1.64018e-13
1.66381e-13
1.54739e-13
1.53855e-13
1.53377e-13
1.50081e-13
1.53026e-13
1.49115e-13
1.48287e-13
1.54572e-13
1.46884e-13
1.58258e-13
1.45991e-13
1.68899e-13
1.46038e-13
1.98624e-13
1.57269e-13
2.27206e-13
8.56695e-14
7.918e-14
6.99234e-14
7.06975e-14
6.58384e-14
6.54685e-14
6.52304e-14
6.38368e-14
6.51471e-14
6.33783e-14
6.30845e-14
6.57438e-14
6.25282e-14
6.72119e-14
6.22138e-14
7.15183e-14
6.23448e-14
8.38531e-14
6.78308e-14
1.00765e-13
5.71179e-14
3.66377e-14
2.92604e-14
2.90187e-14
2.72448e-14
2.70998e-14
2.69943e-14
2.64736e-14
2.69919e-14
2.62685e-14
2.62213e-14
2.71228e-14
2.6081e-14
2.75743e-14
2.60457e-14
2.89818e-14
2.62207e-14
3.33649e-14
2.97988e-14
5.57285e-14
)
;

boundaryField
{
    fuel
    {
        type            fixedValue;
        value           nonuniform 0();
    }
    wall
    {
        type            zeroGradient;
    }
    outlet
    {
        type            zeroGradient;
    }
    frontAndBack
    {
        type            empty;
    }
    procBoundary1to0
    {
        type            processor;
        value           nonuniform List<scalar> 
21
(
4.11917e-11
4.7662e-11
4.54382e-11
4.67974e-11
4.3208e-11
4.28887e-11
4.26629e-11
4.17467e-11
4.23091e-11
4.15994e-11
2.80943e-11
2.80943e-11
2.93239e-11
2.77979e-11
3.03568e-11
2.75007e-11
3.32425e-11
2.74264e-11
3.91813e-11
2.66991e-11
3.41015e-11
)
;
    }
}


// ************************************************************************* //
