/*--------------------------------*- C++ -*----------------------------------*\
| =========                 |                                                 |
| \\      /  F ield         | OpenFOAM: The Open Source CFD Toolbox           |
|  \\    /   O peration     | Version:  dev                                   |
|   \\  /    A nd           | Web:      www.OpenFOAM.org                      |
|    \\/     M anipulation  |                                                 |
\*---------------------------------------------------------------------------*/
FoamFile
{
    version     2.0;
    format      ascii;
    class       volScalarField;
    location    "0.175";
    object      HO2;
}
// * * * * * * * * * * * * * * * * * * * * * * * * * * * * * * * * * * * * * //

dimensions      [0 0 0 0 0 0 0];

internalField   nonuniform List<scalar> 
50
(
8.27289e-09
8.04256e-09
7.81473e-09
7.58953e-09
7.36712e-09
7.14763e-09
6.93119e-09
6.71791e-09
6.50791e-09
6.30128e-09
6.09811e-09
5.89849e-09
5.70249e-09
5.51016e-09
5.32157e-09
5.13676e-09
4.95577e-09
4.77864e-09
4.6054e-09
4.43607e-09
4.27067e-09
4.1092e-09
3.95167e-09
3.79809e-09
3.64844e-09
3.50273e-09
3.36093e-09
3.22303e-09
3.08901e-09
2.95885e-09
2.83251e-09
2.70995e-09
2.59116e-09
2.47608e-09
2.36467e-09
2.25689e-09
2.15269e-09
2.05201e-09
1.9548e-09
1.86101e-09
1.77055e-09
1.68338e-09
1.59943e-09
1.51967e-09
1.44237e-09
1.36777e-09
1.29618e-09
1.22751e-09
1.1617e-09
1.09867e-09
)
;

boundaryField
{
    wall
    {
        type            zeroGradient;
    }
    fuel
    {
        type            fixedValue;
        value           nonuniform 0();
    }
    outlet
    {
        type            inletOutlet;
        inletValue      nonuniform 0();
        value           nonuniform 0();
    }
    procBoundary1to0
    {
        type            processor;
        value           uniform 8.50554e-09;
    }
    procBoundary1to2
    {
        type            processor;
        value           uniform 1.0385e-09;
    }
}


// ************************************************************************* //
