/*--------------------------------*- C++ -*----------------------------------*\
| =========                 |                                                 |
| \\      /  F ield         | OpenFOAM: The Open Source CFD Toolbox           |
|  \\    /   O peration     | Version:  dev                                   |
|   \\  /    A nd           | Web:      www.OpenFOAM.org                      |
|    \\/     M anipulation  |                                                 |
\*---------------------------------------------------------------------------*/
FoamFile
{
    version     2.0;
    format      ascii;
    class       volScalarField;
    location    "0.175";
    object      l-C6H6;
}
// * * * * * * * * * * * * * * * * * * * * * * * * * * * * * * * * * * * * * //

dimensions      [0 0 0 0 0 0 0];

internalField   nonuniform List<scalar> 
250
(
6.55917e-10
5.83369e-10
5.22014e-10
5.0353e-10
4.94347e-10
4.92143e-10
4.91817e-10
4.91796e-10
4.91073e-10
4.9172e-10
6.57259e-10
5.94407e-10
5.74518e-10
5.5227e-10
5.67556e-10
5.67447e-10
5.69469e-10
5.7665e-10
5.70387e-10
5.77952e-10
5.80697e-10
5.66612e-10
5.84671e-10
5.57233e-10
5.88845e-10
5.39951e-10
5.97279e-10
5.40568e-10
6.49778e-10
8.52253e-10
8.57947e-10
8.09701e-10
8.64035e-10
8.28984e-10
8.92216e-10
8.95482e-10
9.02599e-10
9.24486e-10
9.06157e-10
9.28634e-10
9.37115e-10
8.9412e-10
9.4893e-10
8.63517e-10
9.60574e-10
8.00348e-10
9.70779e-10
7.11557e-10
9.81929e-10
8.93418e-10
1.49204e-09
1.47457e-09
1.67445e-09
1.61107e-09
1.76729e-09
1.77602e-09
1.79373e-09
1.84427e-09
1.80124e-09
1.85412e-09
1.87356e-09
1.77308e-09
1.90119e-09
1.70023e-09
1.92774e-09
1.54933e-09
1.9413e-09
1.28375e-09
1.87156e-09
1.30973e-09
3.03152e-09
3.08416e-09
3.55925e-09
3.46238e-09
3.80353e-09
3.82142e-09
3.81994e-09
3.9209e-09
3.83232e-09
3.94107e-09
3.97953e-09
3.77544e-09
4.03603e-09
3.66144e-09
4.08977e-09
3.33475e-09
4.15037e-09
2.72514e-09
3.92144e-09
2.48161e-09
6.38319e-09
6.58338e-09
7.42172e-09
7.25467e-09
7.85774e-09
7.88612e-09
7.89581e-09
8.07185e-09
7.91185e-09
8.1078e-09
8.17441e-09
7.81108e-09
8.27572e-09
7.59991e-09
8.37085e-09
7.02925e-09
8.45929e-09
5.87176e-09
7.95798e-09
5.12704e-09
1.25154e-08
1.29566e-08
1.43475e-08
1.4099e-08
1.50105e-08
1.50469e-08
1.50678e-08
1.53288e-08
1.50814e-08
1.53831e-08
1.5482e-08
1.4928e-08
1.56379e-08
1.4607e-08
1.57836e-08
1.3748e-08
1.59105e-08
1.18841e-08
1.50469e-08
1.04847e-08
2.23146e-08
2.30477e-08
2.49051e-08
2.45972e-08
2.57241e-08
2.57577e-08
2.57866e-08
2.61023e-08
2.57865e-08
2.61687e-08
2.629e-08
2.5593e-08
2.64887e-08
2.51983e-08
2.6676e-08
2.41329e-08
2.68379e-08
2.16809e-08
2.56572e-08
1.94004e-08
3.51713e-08
3.60998e-08
3.80164e-08
3.77138e-08
3.87891e-08
3.88036e-08
3.88308e-08
3.91251e-08
3.88064e-08
3.91873e-08
3.93037e-08
3.86147e-08
3.95031e-08
3.82415e-08
3.96981e-08
3.72131e-08
3.98723e-08
3.47201e-08
3.86317e-08
3.19125e-08
4.82211e-08
4.91031e-08
5.0549e-08
5.03225e-08
5.10599e-08
5.10459e-08
5.10591e-08
5.12565e-08
5.10101e-08
5.1298e-08
5.13798e-08
5.08711e-08
5.15286e-08
5.06188e-08
5.16887e-08
4.98975e-08
5.18435e-08
4.80693e-08
5.08818e-08
4.55391e-08
5.769e-08
5.83256e-08
5.90922e-08
5.89584e-08
5.92914e-08
5.92553e-08
5.92497e-08
5.93386e-08
5.91873e-08
5.93573e-08
5.93945e-08
5.91222e-08
5.94717e-08
5.90155e-08
5.95772e-08
5.8676e-08
5.96942e-08
5.77739e-08
5.91595e-08
5.61263e-08
6.19342e-08
6.23378e-08
6.26709e-08
6.2591e-08
6.2694e-08
6.2651e-08
6.26333e-08
6.26653e-08
6.25688e-08
6.26745e-08
6.26799e-08
6.25585e-08
6.27055e-08
6.25428e-08
6.27686e-08
6.24383e-08
6.28492e-08
6.21166e-08
6.26038e-08
6.12298e-08
6.28734e-08
6.31851e-08
6.33977e-08
6.33352e-08
6.33822e-08
6.33412e-08
6.33202e-08
6.33417e-08
6.32568e-08
6.33524e-08
6.33434e-08
6.32716e-08
6.33471e-08
6.32878e-08
6.33899e-08
6.32596e-08
6.34468e-08
6.31058e-08
6.32938e-08
6.25185e-08
)
;

boundaryField
{
    fuel
    {
        type            fixedValue;
        value           nonuniform 0();
    }
    wall
    {
        type            zeroGradient;
    }
    outlet
    {
        type            zeroGradient;
    }
    frontAndBack
    {
        type            empty;
    }
    procBoundary1to0
    {
        type            processor;
        value           nonuniform List<scalar> 
21
(
7.45626e-10
6.64364e-10
5.74292e-10
5.54262e-10
5.31939e-10
5.28303e-10
5.26881e-10
5.23373e-10
5.25069e-10
5.22612e-10
4.91607e-10
4.91607e-10
4.91354e-10
4.91929e-10
4.9219e-10
4.92561e-10
4.98282e-10
5.00818e-10
5.46131e-10
5.81718e-10
1.01309e-09
)
;
    }
}


// ************************************************************************* //
