/*--------------------------------*- C++ -*----------------------------------*\
| =========                 |                                                 |
| \\      /  F ield         | OpenFOAM: The Open Source CFD Toolbox           |
|  \\    /   O peration     | Version:  dev                                   |
|   \\  /    A nd           | Web:      www.OpenFOAM.org                      |
|    \\/     M anipulation  |                                                 |
\*---------------------------------------------------------------------------*/
FoamFile
{
    version     2.0;
    format      ascii;
    class       volScalarField;
    location    "0.175";
    object      n-A1C2H2;
}
// * * * * * * * * * * * * * * * * * * * * * * * * * * * * * * * * * * * * * //

dimensions      [0 0 0 0 0 0 0];

internalField   nonuniform List<scalar> 
250
(
2.2738e-11
1.90453e-11
1.66685e-11
1.58477e-11
1.55881e-11
1.55117e-11
1.55006e-11
1.55054e-11
1.54819e-11
1.55025e-11
2.24e-11
1.92074e-11
1.72169e-11
1.64934e-11
1.62875e-11
1.622e-11
1.6214e-11
1.62258e-11
1.61957e-11
1.62259e-11
1.62296e-11
1.61891e-11
1.62434e-11
1.61749e-11
1.62652e-11
1.62139e-11
1.65542e-11
1.7275e-11
1.95597e-11
3.42525e-11
2.26543e-11
1.98877e-11
1.82651e-11
1.76198e-11
1.74867e-11
1.7428e-11
1.74286e-11
1.74535e-11
1.74104e-11
1.7458e-11
1.74665e-11
1.73968e-11
1.74879e-11
1.73628e-11
1.75167e-11
1.73616e-11
1.77732e-11
1.81719e-11
2.01566e-11
3.09528e-11
2.379e-11
2.13968e-11
2.0124e-11
1.95422e-11
1.94899e-11
1.94377e-11
1.94435e-11
1.94833e-11
1.94232e-11
1.94927e-11
1.95069e-11
1.94003e-11
1.95386e-11
1.93438e-11
1.95773e-11
1.92953e-11
1.98103e-11
1.98439e-11
2.16565e-11
2.93402e-11
2.61021e-11
2.4036e-11
2.30489e-11
2.25409e-11
2.25547e-11
2.2505e-11
2.24839e-11
2.253e-11
2.24571e-11
2.25425e-11
2.256e-11
2.24274e-11
2.26002e-11
2.23869e-11
2.26477e-11
2.23002e-11
2.28953e-11
2.2632e-11
2.42937e-11
2.95525e-11
2.97571e-11
2.79646e-11
2.70763e-11
2.66268e-11
2.6614e-11
2.65594e-11
2.655e-11
2.65815e-11
2.65113e-11
2.65926e-11
2.66072e-11
2.64832e-11
2.66478e-11
2.64471e-11
2.66975e-11
2.64081e-11
2.69238e-11
2.67019e-11
2.80117e-11
3.16829e-11
3.45274e-11
3.28999e-11
3.1985e-11
3.16088e-11
3.14731e-11
3.14071e-11
3.14025e-11
3.13926e-11
3.13484e-11
3.13959e-11
3.14001e-11
3.13332e-11
3.14289e-11
3.13401e-11
3.1472e-11
3.14275e-11
3.16831e-11
3.19269e-11
3.26291e-11
3.56541e-11
4.02614e-11
3.86683e-11
3.75245e-11
3.72337e-11
3.68934e-11
3.68126e-11
3.68081e-11
3.67349e-11
3.67386e-11
3.67251e-11
3.6713e-11
3.67462e-11
3.67187e-11
3.68252e-11
3.67473e-11
3.71035e-11
3.6945e-11
3.80416e-11
3.79134e-11
4.10989e-11
4.73086e-11
4.56708e-11
4.42372e-11
4.40289e-11
4.34883e-11
4.33938e-11
4.33886e-11
4.32544e-11
4.33069e-11
4.32306e-11
4.32072e-11
4.33312e-11
4.31943e-11
4.34771e-11
4.32148e-11
4.3935e-11
4.34108e-11
4.53788e-11
4.44558e-11
4.82432e-11
6.0319e-11
5.88337e-11
5.75515e-11
5.73413e-11
5.68789e-11
5.67726e-11
5.6779e-11
5.66549e-11
5.66849e-11
5.66269e-11
5.6641e-11
5.66487e-11
5.66843e-11
5.67467e-11
5.67695e-11
5.71021e-11
5.70504e-11
5.85147e-11
5.79119e-11
6.08853e-11
1.02135e-10
1.0063e-10
9.91133e-11
9.87244e-11
9.80859e-11
9.78915e-11
9.7894e-11
9.76663e-11
9.77642e-11
9.75686e-11
9.76733e-11
9.7575e-11
9.78383e-11
9.76241e-11
9.80873e-11
9.7929e-11
9.87139e-11
9.95519e-11
1.00131e-10
1.01423e-10
1.96274e-10
1.89645e-10
1.79469e-10
1.79312e-10
1.74146e-10
1.73624e-10
1.73353e-10
1.71833e-10
1.73231e-10
1.71266e-10
1.71209e-10
1.73352e-10
1.70956e-10
1.74553e-10
1.71048e-10
1.78423e-10
1.72168e-10
1.90477e-10
1.8016e-10
2.05023e-10
2.40558e-10
2.25435e-10
2.03523e-10
2.04013e-10
1.93261e-10
1.92573e-10
1.91837e-10
1.88879e-10
1.91957e-10
1.87737e-10
1.87513e-10
1.92474e-10
1.86685e-10
1.94946e-10
1.86545e-10
2.03153e-10
1.87945e-10
2.29393e-10
2.03251e-10
2.66277e-10
)
;

boundaryField
{
    fuel
    {
        type            fixedValue;
        value           nonuniform 0();
    }
    wall
    {
        type            zeroGradient;
    }
    outlet
    {
        type            zeroGradient;
    }
    frontAndBack
    {
        type            empty;
    }
    procBoundary1to0
    {
        type            processor;
        value           nonuniform List<scalar> 
21
(
2.34747e-11
1.91799e-11
1.63745e-11
1.54374e-11
1.51399e-11
1.50552e-11
1.50413e-11
1.50446e-11
1.5023e-11
1.504e-11
1.55035e-11
1.55035e-11
1.54784e-11
1.55138e-11
1.54742e-11
1.55325e-11
1.5535e-11
1.58615e-11
1.68236e-11
1.95908e-11
3.91941e-11
)
;
    }
}


// ************************************************************************* //
