/*--------------------------------*- C++ -*----------------------------------*\
| =========                 |                                                 |
| \\      /  F ield         | OpenFOAM: The Open Source CFD Toolbox           |
|  \\    /   O peration     | Version:  dev                                   |
|   \\  /    A nd           | Web:      www.OpenFOAM.org                      |
|    \\/     M anipulation  |                                                 |
\*---------------------------------------------------------------------------*/
FoamFile
{
    version     2.0;
    format      ascii;
    class       volVectorField;
    location    "0.02";
    object      U;
}
// * * * * * * * * * * * * * * * * * * * * * * * * * * * * * * * * * * * * * //

dimensions      [0 1 -1 0 0 0 0];

internalField   nonuniform List<vector> 
13
(
(3.00994e-14 -3.00994e-14 0.14948)
(2.67718e-14 -2.67718e-14 0.151657)
(2.36964e-14 -2.36964e-14 0.153856)
(2.08676e-14 -2.08676e-14 0.156035)
(1.82803e-14 -1.82803e-14 0.158167)
(1.59292e-14 -1.59292e-14 0.160144)
(1.38068e-14 -1.38068e-14 0.162025)
(1.19024e-14 -1.19024e-14 0.163989)
(1.02025e-14 -1.02025e-14 0.165593)
(8.6934e-15 -8.6934e-15 0.166856)
(7.36221e-15 -7.36221e-15 0.168318)
(6.19771e-15 -6.19771e-15 0.169774)
(5.18673e-15 -5.18673e-15 0.17106)
)
;

boundaryField
{
    wall
    {
        type            zeroGradient;
    }
    fuel
    {
        type            fixedValue;
        value           nonuniform 0();
    }
    outlet
    {
        type            pressureInletOutletVelocity;
        value           nonuniform 0();
    }
    procBoundary5to4
    {
        type            processor;
        value           uniform (3.36863e-14 -3.36863e-14 0.147239);
    }
    procBoundary5to6
    {
        type            processor;
        value           uniform (4.3121e-15 -4.3121e-15 0.172283);
    }
}


// ************************************************************************* //
