/*--------------------------------*- C++ -*----------------------------------*\
| =========                 |                                                 |
| \\      /  F ield         | OpenFOAM: The Open Source CFD Toolbox           |
|  \\    /   O peration     | Version:  dev                                   |
|   \\  /    A nd           | Web:      www.OpenFOAM.org                      |
|    \\/     M anipulation  |                                                 |
\*---------------------------------------------------------------------------*/
FoamFile
{
    version     2.0;
    format      ascii;
    class       volScalarField;
    location    "0.01";
    object      H;
}
// * * * * * * * * * * * * * * * * * * * * * * * * * * * * * * * * * * * * * //

dimensions      [0 0 0 0 0 0 0];

internalField   nonuniform List<scalar> 
25
(
2.59017e-08
2.0296e-08
1.58006e-08
1.22128e-08
9.30745e-09
7.13755e-09
5.44657e-09
4.14146e-09
3.12144e-09
2.36003e-09
1.77834e-09
1.33486e-09
9.97765e-10
7.42651e-10
5.49715e-10
4.03126e-10
2.9368e-10
2.12521e-10
1.52316e-10
1.11835e-10
8.0576e-11
5.77322e-11
3.82577e-11
2.24288e-11
1.04241e-11
)
;

boundaryField
{
    wall
    {
        type            zeroGradient;
    }
    fuel
    {
        type            fixedValue;
        value           nonuniform 0();
    }
    outlet
    {
        type            inletOutlet;
        inletValue      uniform 0;
        value           uniform 1.04241e-11;
    }
    procBoundary3to2
    {
        type            processor;
        value           uniform 3.28522e-08;
    }
}


// ************************************************************************* //
