/*--------------------------------*- C++ -*----------------------------------*\
| =========                 |                                                 |
| \\      /  F ield         | OpenFOAM: The Open Source CFD Toolbox           |
|  \\    /   O peration     | Version:  dev                                   |
|   \\  /    A nd           | Web:      www.OpenFOAM.org                      |
|    \\/     M anipulation  |                                                 |
\*---------------------------------------------------------------------------*/
FoamFile
{
    version     2.0;
    format      ascii;
    class       volScalarField;
    location    "0.01";
    object      i-C4H3;
}
// * * * * * * * * * * * * * * * * * * * * * * * * * * * * * * * * * * * * * //

dimensions      [0 0 0 0 0 0 0];

internalField   nonuniform List<scalar> 
25
(
9.27796e-11
8.26407e-11
7.38743e-11
6.62551e-11
5.94528e-11
5.37867e-11
4.8804e-11
4.44103e-11
4.04317e-11
3.69436e-11
3.37735e-11
3.08628e-11
2.81602e-11
2.56199e-11
2.31964e-11
2.0827e-11
1.85184e-11
1.62691e-11
1.4024e-11
1.1978e-11
9.82649e-12
7.71888e-12
5.44279e-12
3.27967e-12
1.53047e-12
)
;

boundaryField
{
    wall
    {
        type            zeroGradient;
    }
    fuel
    {
        type            fixedValue;
        value           nonuniform 0();
    }
    outlet
    {
        type            inletOutlet;
        inletValue      uniform 0;
        value           uniform 1.53047e-12;
    }
    procBoundary3to2
    {
        type            processor;
        value           uniform 1.04544e-10;
    }
}


// ************************************************************************* //
