/*--------------------------------*- C++ -*----------------------------------*\
| =========                 |                                                 |
| \\      /  F ield         | OpenFOAM: The Open Source CFD Toolbox           |
|  \\    /   O peration     | Version:  dev                                   |
|   \\  /    A nd           | Web:      www.OpenFOAM.org                      |
|    \\/     M anipulation  |                                                 |
\*---------------------------------------------------------------------------*/
FoamFile
{
    version     2.0;
    format      ascii;
    class       volScalarField;
    location    "0.01";
    object      n-C6H5;
}
// * * * * * * * * * * * * * * * * * * * * * * * * * * * * * * * * * * * * * //

dimensions      [0 0 0 0 0 0 0];

internalField   nonuniform List<scalar> 
25
(
1.63167e-17
1.58949e-17
1.55931e-17
1.54135e-17
1.53646e-17
1.54876e-17
1.57862e-17
1.62863e-17
1.70464e-17
1.81149e-17
1.95821e-17
2.15702e-17
2.42886e-17
2.80214e-17
3.30603e-17
3.94722e-17
4.61313e-17
5.10995e-17
5.23638e-17
4.95476e-17
4.3127e-17
3.47489e-17
2.4716e-17
1.49004e-17
6.94429e-18
)
;

boundaryField
{
    wall
    {
        type            zeroGradient;
    }
    fuel
    {
        type            fixedValue;
        value           nonuniform 0();
    }
    outlet
    {
        type            inletOutlet;
        inletValue      uniform 0;
        value           uniform 6.94429e-18;
    }
    procBoundary3to2
    {
        type            processor;
        value           uniform 1.68696e-17;
    }
}


// ************************************************************************* //
