/*--------------------------------*- C++ -*----------------------------------*\
| =========                 |                                                 |
| \\      /  F ield         | OpenFOAM: The Open Source CFD Toolbox           |
|  \\    /   O peration     | Version:  dev                                   |
|   \\  /    A nd           | Web:      www.OpenFOAM.org                      |
|    \\/     M anipulation  |                                                 |
\*---------------------------------------------------------------------------*/
FoamFile
{
    version     2.0;
    format      ascii;
    class       volScalarField;
    location    "0.14";
    object      A2C2HB;
}
// * * * * * * * * * * * * * * * * * * * * * * * * * * * * * * * * * * * * * //

dimensions      [0 0 0 0 0 0 0];

internalField   nonuniform List<scalar> 
250
(
5.95036e-08
5.95046e-08
5.95051e-08
5.95068e-08
5.95095e-08
5.94941e-08
5.95806e-08
5.97275e-08
6.14006e-08
6.76665e-08
2.76532e-09
5.03281e-08
5.03293e-08
5.03301e-08
5.03298e-08
5.03389e-08
5.03202e-08
5.04558e-08
5.07118e-08
5.35858e-08
6.68239e-08
6.30053e-09
3.1736e-08
3.17385e-08
3.17412e-08
3.17389e-08
3.17516e-08
3.17303e-08
3.18886e-08
3.20831e-08
3.50686e-08
4.73131e-08
9.26545e-09
2.04913e-08
2.04945e-08
2.04988e-08
2.04953e-08
2.05078e-08
2.04865e-08
2.06523e-08
2.07855e-08
2.36446e-08
3.40567e-08
1.50742e-08
1.39351e-08
1.39386e-08
1.39437e-08
1.39396e-08
1.39485e-08
1.39311e-08
1.40931e-08
1.41861e-08
1.69164e-08
2.61582e-08
4.09285e-08
9.88797e-09
9.89152e-09
9.89555e-09
9.89191e-09
9.89549e-09
9.88345e-09
1.00288e-08
1.0095e-08
1.23956e-08
2.13134e-08
4.80116e-08
7.18388e-09
7.1905e-09
7.19941e-09
7.19459e-09
7.18248e-09
7.19054e-09
7.35049e-09
7.42351e-09
9.54226e-09
1.79675e-08
5.14793e-08
5.38701e-09
5.39344e-09
5.40092e-09
5.39672e-09
5.3864e-09
5.39334e-09
5.53025e-09
5.61925e-09
7.55272e-09
1.57383e-08
5.93136e-08
4.13496e-09
4.13864e-09
4.14505e-09
4.14113e-09
4.14586e-09
4.13847e-09
4.24105e-09
4.23431e-09
6.03348e-09
1.42704e-08
7.08204e-08
3.20431e-09
3.20821e-09
3.21542e-09
3.21064e-09
3.22892e-09
3.21141e-09
3.30845e-09
3.35124e-09
4.88385e-09
1.30885e-08
8.2336e-08
2.52181e-09
2.52787e-09
2.52257e-09
2.53795e-09
2.52575e-09
2.60491e-09
2.65937e-09
4.03156e-09
1.21486e-08
9.03082e-08
2.02669e-09
2.03158e-09
2.02482e-09
2.03664e-09
2.03082e-09
2.09687e-09
2.15913e-09
3.38054e-09
1.12554e-08
9.29322e-08
1.66339e-09
1.66707e-09
1.6574e-09
1.70416e-09
1.66735e-09
1.72287e-09
1.78979e-09
2.86197e-09
1.04013e-08
9.03743e-08
1.39201e-09
1.39444e-09
1.37921e-09
1.41832e-09
1.39508e-09
1.44246e-09
1.51235e-09
2.52302e-09
9.57501e-09
8.40656e-08
1.18567e-09
1.18699e-09
1.19176e-09
1.20125e-09
1.18762e-09
1.22859e-09
1.29986e-09
2.24205e-09
8.82571e-09
7.57944e-08
1.02596e-09
1.02627e-09
1.02887e-09
1.0347e-09
1.02685e-09
1.06268e-09
1.13374e-09
1.98564e-09
8.10782e-09
6.7074e-08
9.0012e-10
8.99647e-10
9.00503e-10
9.04741e-10
9.0019e-10
9.31775e-10
1.00133e-09
1.77015e-09
7.39182e-09
5.88979e-08
7.99214e-10
7.9822e-10
7.97515e-10
8.01427e-10
7.98773e-10
8.26784e-10
8.93808e-10
1.58363e-09
6.70338e-09
5.17591e-08
7.1699e-10
7.15723e-10
7.13382e-10
7.17878e-10
7.16346e-10
7.41276e-10
8.04994e-10
1.45165e-09
6.05693e-09
4.58601e-08
6.49056e-10
6.47693e-10
6.43389e-10
6.49317e-10
6.48459e-10
6.70667e-10
7.30173e-10
1.32604e-09
5.4521e-09
3.99788e-08
5.92303e-10
5.90922e-10
5.91543e-10
5.92403e-10
5.9192e-10
6.11637e-10
6.73017e-10
1.20804e-09
4.89054e-09
3.58288e-08
5.44472e-10
5.42974e-10
5.45528e-10
5.44573e-10
5.44397e-10
5.61609e-10
6.215e-10
1.10416e-09
4.37172e-09
3.22787e-08
5.08814e-10
5.07029e-10
5.09854e-10
5.09091e-10
5.08942e-10
5.24773e-10
5.806e-10
1.01201e-09
3.89451e-09
2.84141e-08
4.76939e-10
4.7744e-10
4.77877e-10
4.77303e-10
4.77341e-10
4.91516e-10
5.44086e-10
9.29703e-10
3.46136e-09
2.53535e-08
)
;

boundaryField
{
    fuel
    {
        type            fixedValue;
        value           uniform 0;
    }
    wall
    {
        type            zeroGradient;
    }
    outlet
    {
        type            zeroGradient;
    }
    frontAndBack
    {
        type            empty;
    }
    procBoundary3to0
    {
        type            processor;
        value           nonuniform List<scalar> 10(4.53443e-10 4.53827e-10 4.54234e-10 4.53832e-10 4.53985e-10 4.66736e-10 5.15975e-10 8.55362e-10 3.07108e-09 2.25603e-08);
    }
    procBoundary3to2
    {
        type            processor;
        value           nonuniform List<scalar> 
25
(
5.94973e-08
5.03255e-08
3.17379e-08
2.04949e-08
1.39392e-08
9.89177e-09
7.19082e-09
5.39338e-09
4.13842e-09
3.20785e-09
2.5183e-09
2.5183e-09
2.0244e-09
1.663e-09
1.3934e-09
1.18831e-09
1.02929e-09
9.03692e-10
8.02716e-10
7.20213e-10
6.51884e-10
5.94691e-10
5.46427e-10
5.10435e-10
4.78243e-10
)
;
    }
}


// ************************************************************************* //
