/*--------------------------------*- C++ -*----------------------------------*\
| =========                 |                                                 |
| \\      /  F ield         | OpenFOAM: The Open Source CFD Toolbox           |
|  \\    /   O peration     | Version:  dev                                   |
|   \\  /    A nd           | Web:      www.OpenFOAM.org                      |
|    \\/     M anipulation  |                                                 |
\*---------------------------------------------------------------------------*/
FoamFile
{
    version     2.0;
    format      ascii;
    class       volScalarField;
    location    "0.14";
    object      A2C2H22;
}
// * * * * * * * * * * * * * * * * * * * * * * * * * * * * * * * * * * * * * //

dimensions      [0 0 0 0 0 0 0];

internalField   nonuniform List<scalar> 
250
(
1.05715e-12
1.05723e-12
1.05726e-12
1.05731e-12
1.05733e-12
1.05694e-12
1.05864e-12
1.05874e-12
1.07856e-12
1.08204e-12
2.30113e-15
1.49165e-12
1.49179e-12
1.49189e-12
1.49189e-12
1.49214e-12
1.49148e-12
1.49622e-12
1.50151e-12
1.58328e-12
1.86125e-12
4.64742e-15
1.03704e-12
1.03723e-12
1.03742e-12
1.03735e-12
1.03767e-12
1.03705e-12
1.04293e-12
1.04738e-12
1.14371e-12
1.43015e-12
4.89531e-15
6.98448e-13
6.98675e-13
6.98947e-13
6.98814e-13
6.99065e-13
6.98551e-13
7.04732e-13
7.07641e-13
8.02995e-13
1.04598e-12
1.76614e-13
4.85051e-13
4.85291e-13
4.85597e-13
4.85428e-13
4.85507e-13
4.85188e-13
4.91195e-13
4.92974e-13
5.84576e-13
7.96245e-13
1.47827e-12
3.46622e-13
3.46867e-13
3.47137e-13
3.46966e-13
3.46837e-13
3.46732e-13
3.52092e-13
3.53075e-13
4.29164e-13
6.31971e-13
1.94199e-12
2.51259e-13
2.51614e-13
2.52052e-13
2.51827e-13
2.51174e-13
2.51749e-13
2.57569e-13
2.58912e-13
3.27926e-13
5.1089e-13
1.9924e-12
1.8703e-13
1.87369e-13
1.87743e-13
1.87533e-13
1.87048e-13
1.87477e-13
1.9238e-13
1.94376e-13
2.56244e-13
4.25539e-13
2.1e-12
1.42203e-13
1.42432e-13
1.42754e-13
1.42547e-13
1.4269e-13
1.42518e-13
1.46114e-13
1.44727e-13
2.01274e-13
3.6675e-13
2.23601e-12
1.09053e-13
1.09282e-13
1.09617e-13
1.09372e-13
1.10017e-13
1.09469e-13
1.12839e-13
1.13282e-13
1.59727e-13
3.18943e-13
2.27853e-12
8.49795e-14
8.52547e-14
8.49866e-14
8.55376e-14
8.51711e-14
8.7879e-14
8.87951e-14
1.29098e-13
2.81658e-13
2.16858e-12
6.75482e-14
6.77659e-14
6.7443e-14
6.78902e-14
6.77285e-14
6.9956e-14
7.11884e-14
1.05881e-13
2.48296e-13
1.92834e-12
5.47936e-14
5.49543e-14
5.45333e-14
5.61964e-14
5.49509e-14
5.68001e-14
5.82224e-14
8.75872e-14
2.18866e-13
1.62113e-12
4.52569e-14
4.53635e-14
4.47677e-14
4.61381e-14
4.53706e-14
4.6932e-14
4.84702e-14
7.57029e-14
1.92775e-13
1.30926e-12
3.79703e-14
3.80312e-14
3.81513e-14
3.84831e-14
3.80373e-14
3.9374e-14
4.09632e-14
6.58726e-14
1.70932e-13
1.03299e-12
3.22812e-14
3.23037e-14
3.2348e-14
3.25683e-14
3.23086e-14
3.34652e-14
3.50463e-14
5.69314e-14
1.51503e-13
8.08864e-13
2.77433e-14
2.77376e-14
2.77211e-14
2.78999e-14
2.77432e-14
2.87513e-14
3.02787e-14
4.94516e-14
1.33431e-13
6.37257e-13
2.40486e-14
2.40256e-14
2.39548e-14
2.41328e-14
2.4034e-14
2.4917e-14
2.63573e-14
4.30263e-14
1.17123e-13
5.10626e-13
2.0983e-14
2.09516e-14
2.08266e-14
2.10307e-14
2.09655e-14
2.17407e-14
2.30706e-14
3.8479e-14
1.02669e-13
4.20244e-13
1.83965e-14
1.83622e-14
1.81777e-14
1.84298e-14
1.83845e-14
1.90643e-14
2.02585e-14
3.41596e-14
8.98039e-14
3.42609e-13
1.61817e-14
1.61464e-14
1.61571e-14
1.62149e-14
1.61803e-14
1.67728e-14
1.80555e-14
3.01143e-14
7.83528e-14
2.95005e-13
1.4259e-14
1.42188e-14
1.43064e-14
1.42955e-14
1.42704e-14
1.47755e-14
1.60204e-14
2.65518e-14
6.81439e-14
2.59171e-13
1.2751e-14
1.27006e-14
1.27972e-14
1.2796e-14
1.27704e-14
1.32311e-14
1.4337e-14
2.3379e-14
5.90254e-14
2.24137e-13
1.13232e-14
1.13675e-14
1.13643e-14
1.13727e-14
1.13532e-14
1.17595e-14
1.27602e-14
2.05185e-14
5.09278e-14
1.9865e-13
)
;

boundaryField
{
    fuel
    {
        type            fixedValue;
        value           uniform 0;
    }
    wall
    {
        type            zeroGradient;
    }
    outlet
    {
        type            zeroGradient;
    }
    frontAndBack
    {
        type            empty;
    }
    procBoundary3to0
    {
        type            processor;
        value           nonuniform List<scalar> 10(1.01566e-14 1.01949e-14 1.01912e-14 1.0209e-14 1.01919e-14 1.05551e-14 1.14401e-14 1.79048e-14 4.37492e-14 1.76555e-13);
    }
    procBoundary3to2
    {
        type            processor;
        value           nonuniform List<scalar> 
25
(
1.05703e-12
1.49166e-12
1.03722e-12
6.98701e-13
4.85313e-13
3.46872e-13
2.5162e-13
1.87361e-13
1.4242e-13
1.09269e-13
8.47818e-14
8.47818e-14
6.74223e-14
5.47528e-14
4.52885e-14
3.805e-14
3.23867e-14
2.78579e-14
2.41606e-14
2.10849e-14
1.84842e-14
1.62539e-14
1.4316e-14
1.27963e-14
1.13572e-14
)
;
    }
}


// ************************************************************************* //
