/*--------------------------------*- C++ -*----------------------------------*\
| =========                 |                                                 |
| \\      /  F ield         | OpenFOAM: The Open Source CFD Toolbox           |
|  \\    /   O peration     | Version:  dev                                   |
|   \\  /    A nd           | Web:      www.OpenFOAM.org                      |
|    \\/     M anipulation  |                                                 |
\*---------------------------------------------------------------------------*/
FoamFile
{
    version     2.0;
    format      ascii;
    class       volScalarField;
    location    "0.14";
    object      A2R5;
}
// * * * * * * * * * * * * * * * * * * * * * * * * * * * * * * * * * * * * * //

dimensions      [0 0 0 0 0 0 0];

internalField   nonuniform List<scalar> 
50
(
8.14246e-17
8.02682e-17
7.90549e-17
7.80021e-17
7.69771e-17
7.60296e-17
7.51481e-17
7.42084e-17
7.32856e-17
7.23787e-17
7.15991e-17
7.08189e-17
6.99666e-17
6.91727e-17
6.83801e-17
6.7564e-17
6.67631e-17
6.58501e-17
6.49519e-17
6.40906e-17
6.31901e-17
6.22586e-17
6.11834e-17
6.01808e-17
5.91626e-17
5.79599e-17
5.6841e-17
5.5567e-17
5.43118e-17
5.30031e-17
5.16342e-17
5.02045e-17
4.87164e-17
4.71908e-17
4.53959e-17
4.37386e-17
4.18439e-17
4.00458e-17
3.79594e-17
3.58852e-17
3.36982e-17
3.13864e-17
2.89417e-17
2.63535e-17
2.36089e-17
2.0693e-17
1.75882e-17
1.42649e-17
1.06787e-17
7.13232e-18
)
;

boundaryField
{
    wall
    {
        type            zeroGradient;
    }
    fuel
    {
        type            fixedValue;
        value           nonuniform 0();
    }
    outlet
    {
        type            inletOutlet;
        inletValue      uniform 0;
        value           uniform 7.13232e-18;
    }
    procBoundary3to2
    {
        type            processor;
        value           uniform 8.2765e-17;
    }
}


// ************************************************************************* //
