/*--------------------------------*- C++ -*----------------------------------*\
| =========                 |                                                 |
| \\      /  F ield         | OpenFOAM: The Open Source CFD Toolbox           |
|  \\    /   O peration     | Version:  dev                                   |
|   \\  /    A nd           | Web:      www.OpenFOAM.org                      |
|    \\/     M anipulation  |                                                 |
\*---------------------------------------------------------------------------*/
FoamFile
{
    version     2.0;
    format      ascii;
    class       volScalarField;
    location    "0.14";
    object      H2C4O;
}
// * * * * * * * * * * * * * * * * * * * * * * * * * * * * * * * * * * * * * //

dimensions      [0 0 0 0 0 0 0];

internalField   nonuniform List<scalar> 
50
(
3.19317e-22
2.81315e-22
2.42473e-22
2.09977e-22
1.7989e-22
1.53708e-22
1.31085e-22
1.09137e-22
8.98294e-23
7.31153e-23
6.05719e-23
4.9785e-23
3.98431e-23
3.20707e-23
2.56788e-23
2.03445e-23
1.6144e-23
1.24037e-23
9.54089e-24
7.43412e-24
5.74334e-24
4.41705e-24
3.28041e-24
2.48666e-24
1.88804e-24
1.37607e-24
1.02843e-24
7.45259e-25
5.43772e-25
3.94354e-25
2.84552e-25
2.05068e-25
1.48663e-25
1.09809e-25
8.04272e-26
6.33292e-26
5.09129e-26
4.34261e-26
3.77068e-26
3.36541e-26
3.03539e-26
2.74151e-26
2.46042e-26
2.17856e-26
1.89013e-26
1.59618e-26
1.30286e-26
1.01672e-26
7.38794e-27
4.85294e-27
)
;

boundaryField
{
    wall
    {
        type            zeroGradient;
    }
    fuel
    {
        type            fixedValue;
        value           nonuniform 0();
    }
    outlet
    {
        type            inletOutlet;
        inletValue      uniform 0;
        value           uniform 4.85294e-27;
    }
    procBoundary3to2
    {
        type            processor;
        value           uniform 3.63341e-22;
    }
}


// ************************************************************************* //
