/*--------------------------------*- C++ -*----------------------------------*\
| =========                 |                                                 |
| \\      /  F ield         | OpenFOAM: The Open Source CFD Toolbox           |
|  \\    /   O peration     | Version:  dev                                   |
|   \\  /    A nd           | Web:      www.OpenFOAM.org                      |
|    \\/     M anipulation  |                                                 |
\*---------------------------------------------------------------------------*/
FoamFile
{
    version     2.0;
    format      ascii;
    class       volScalarField;
    location    "0.14";
    object      H2O;
}
// * * * * * * * * * * * * * * * * * * * * * * * * * * * * * * * * * * * * * //

dimensions      [0 0 0 0 0 0 0];

internalField   nonuniform List<scalar> 
250
(
0.0607375
0.0607374
0.0607379
0.0607376
0.0607372
0.0607367
0.0607373
0.0607342
0.0606934
0.0601021
0.00521148
0.0677543
0.0677549
0.0677568
0.0677563
0.0677541
0.0677544
0.0677566
0.0677665
0.0678322
0.0679997
0.0141962
0.0679357
0.0679364
0.0679368
0.0679356
0.0679347
0.067936
0.0679396
0.0679604
0.06809
0.0685872
0.0232091
0.067192
0.0671943
0.0671936
0.0671919
0.0671905
0.0671925
0.0671988
0.0672284
0.0674033
0.068041
0.0315114
0.0664258
0.0664313
0.0664282
0.0664261
0.0664238
0.0664264
0.0664371
0.0664737
0.066686
0.0673875
0.0386179
0.0657565
0.0657681
0.0657599
0.0657571
0.065755
0.0657571
0.0657752
0.0658143
0.0660193
0.0667972
0.0443596
0.0651863
0.0651848
0.0651907
0.0651872
0.0651579
0.0651859
0.0651965
0.0652452
0.0654733
0.0662841
0.0488246
0.0646308
0.0646341
0.0646362
0.0646317
0.0646451
0.0646423
0.0646482
0.0647484
0.0650027
0.0658327
0.0522241
0.0641914
0.0641982
0.0641979
0.0641922
0.0641975
0.0642022
0.0642143
0.0643111
0.0645308
0.0654255
0.0547958
0.0637386
0.0637476
0.0637462
0.0637382
0.0637435
0.0637498
0.0637652
0.063869
0.0641506
0.0650506
0.0567338
0.0633305
0.0633286
0.0633179
0.0633241
0.0633324
0.063351
0.063462
0.0637504
0.0646988
0.0581805
0.0629459
0.0629437
0.0629291
0.0629353
0.0629484
0.0629692
0.0630889
0.0633731
0.0643678
0.0592459
0.0625888
0.0625865
0.062566
0.0625707
0.0625925
0.062615
0.0627429
0.0630157
0.0640261
0.0600153
0.0622548
0.0622527
0.0622234
0.0622725
0.0622604
0.0622839
0.0624194
0.0627209
0.0637163
0.0605565
0.0619404
0.0619388
0.061941
0.0619578
0.0619479
0.0619724
0.0621146
0.0624195
0.0633526
0.0609205
0.0616431
0.0616419
0.0616412
0.0616598
0.0616522
0.0616779
0.0618255
0.062121
0.0630436
0.061147
0.0613607
0.0613599
0.0613562
0.0613765
0.0613714
0.0613983
0.06155
0.0618361
0.0627432
0.061266
0.0610915
0.0610912
0.0610841
0.0611065
0.0611039
0.0611318
0.061286
0.0615633
0.0624514
0.061302
0.0608342
0.0608344
0.0608231
0.0608486
0.0608482
0.060877
0.0610313
0.0613013
0.062169
0.0612752
0.0605877
0.0605882
0.0605712
0.0606021
0.0606032
0.0606325
0.0607838
0.0610493
0.0618973
0.0612018
0.0603509
0.0603513
0.0603565
0.0603658
0.0603678
0.0603969
0.0605404
0.0608068
0.0616029
0.0610942
0.0601225
0.060122
0.0601314
0.060138
0.0601405
0.0601684
0.0603312
0.0605737
0.0613012
0.0609633
0.0599283
0.0599254
0.0599354
0.0599439
0.0599467
0.0599718
0.060131
0.0603493
0.0610513
0.0608183
0.0597278
0.0597384
0.0597338
0.0597443
0.0597472
0.0597839
0.0599336
0.0601316
0.0608126
0.0606647
)
;

boundaryField
{
    fuel
    {
        type            fixedValue;
        value           uniform 0;
    }
    wall
    {
        type            zeroGradient;
    }
    outlet
    {
        type            zeroGradient;
    }
    frontAndBack
    {
        type            empty;
    }
    procBoundary3to0
    {
        type            processor;
        value           nonuniform List<scalar> 10(0.0595508 0.0595607 0.0595557 0.0595671 0.0595701 0.0596048 0.0597507 0.0599442 0.0605849 0.0605064);
    }
    procBoundary3to2
    {
        type            processor;
        value           nonuniform List<scalar> 
25
(
0.0607367
0.0677546
0.067937
0.0671952
0.0664314
0.065765
0.0651979
0.0646453
0.064209
0.063759
0.0633204
0.0633204
0.0629351
0.0625776
0.0622435
0.0619293
0.0616323
0.0613504
0.0610819
0.0608254
0.0605799
0.0603442
0.0601169
0.0599228
0.0597221
)
;
    }
}


// ************************************************************************* //
