/*--------------------------------*- C++ -*----------------------------------*\
| =========                 |                                                 |
| \\      /  F ield         | OpenFOAM: The Open Source CFD Toolbox           |
|  \\    /   O peration     | Version:  dev                                   |
|   \\  /    A nd           | Web:      www.OpenFOAM.org                      |
|    \\/     M anipulation  |                                                 |
\*---------------------------------------------------------------------------*/
FoamFile
{
    version     2.0;
    format      ascii;
    class       volScalarField;
    location    "0.14";
    object      i-A1C2H2;
}
// * * * * * * * * * * * * * * * * * * * * * * * * * * * * * * * * * * * * * //

dimensions      [0 0 0 0 0 0 0];

internalField   nonuniform List<scalar> 
50
(
2.65901e-23
2.52223e-23
2.36388e-23
2.21959e-23
2.07224e-23
1.93362e-23
1.80518e-23
1.6685e-23
1.53853e-23
1.41811e-23
1.32496e-23
1.24143e-23
1.15909e-23
1.09388e-23
1.04037e-23
9.96114e-24
9.63959e-24
9.36032e-24
9.19784e-24
9.12477e-24
9.11544e-24
9.15657e-24
9.21776e-24
9.30328e-24
9.38916e-24
9.42419e-24
9.41045e-24
9.2702e-24
9.01829e-24
8.62103e-24
8.06764e-24
7.36834e-24
6.55506e-24
5.68281e-24
4.6808e-24
3.83232e-24
2.98667e-24
2.32497e-24
1.72235e-24
1.26805e-24
9.18415e-25
6.56629e-25
4.6562e-25
3.28803e-25
2.31482e-25
1.61576e-25
1.0989e-25
7.03073e-26
4.01242e-26
2.06442e-26
)
;

boundaryField
{
    wall
    {
        type            zeroGradient;
    }
    fuel
    {
        type            fixedValue;
        value           nonuniform 0();
    }
    outlet
    {
        type            inletOutlet;
        inletValue      uniform 0;
        value           uniform 2.06442e-26;
    }
    procBoundary3to2
    {
        type            processor;
        value           uniform 2.80768e-23;
    }
}


// ************************************************************************* //
