/*--------------------------------*- C++ -*----------------------------------*\
| =========                 |                                                 |
| \\      /  F ield         | OpenFOAM: The Open Source CFD Toolbox           |
|  \\    /   O peration     | Version:  dev                                   |
|   \\  /    A nd           | Web:      www.OpenFOAM.org                      |
|    \\/     M anipulation  |                                                 |
\*---------------------------------------------------------------------------*/
FoamFile
{
    version     2.0;
    format      ascii;
    class       volScalarField;
    location    "0.14";
    object      naphthyne;
}
// * * * * * * * * * * * * * * * * * * * * * * * * * * * * * * * * * * * * * //

dimensions      [0 0 0 0 0 0 0];

internalField   nonuniform List<scalar> 
250
(
7.66878e-08
7.66897e-08
7.6691e-08
7.66919e-08
7.66939e-08
7.66783e-08
7.67596e-08
7.68498e-08
7.81587e-08
8.19188e-08
3.38029e-09
7.31009e-08
7.31047e-08
7.31079e-08
7.3107e-08
7.31143e-08
7.30967e-08
7.326e-08
7.35008e-08
7.65772e-08
8.83921e-08
7.95993e-09
5.56832e-08
5.56904e-08
5.56978e-08
5.56938e-08
5.5705e-08
5.56835e-08
5.59219e-08
5.6171e-08
6.03093e-08
7.45034e-08
1.28691e-08
4.13417e-08
4.13518e-08
4.13637e-08
4.13563e-08
4.13677e-08
4.13436e-08
4.16436e-08
4.18524e-08
4.66521e-08
6.13867e-08
2.60041e-08
3.04713e-08
3.04836e-08
3.0498e-08
3.04881e-08
3.04937e-08
3.04731e-08
3.08066e-08
3.09648e-08
3.61532e-08
5.12282e-08
7.2329e-08
2.24294e-08
2.24429e-08
2.24558e-08
2.24454e-08
2.24412e-08
2.24287e-08
2.27537e-08
2.28636e-08
2.75561e-08
4.3684e-08
8.37084e-08
1.64448e-08
1.6466e-08
1.64904e-08
1.64763e-08
1.64394e-08
1.64687e-08
1.6842e-08
1.69715e-08
2.14552e-08
3.76573e-08
9.13303e-08
1.22616e-08
1.22822e-08
1.23034e-08
1.22901e-08
1.22626e-08
1.22842e-08
1.26081e-08
1.27792e-08
1.69259e-08
3.31736e-08
1.06906e-07
9.31078e-09
9.32438e-09
9.34287e-09
9.32989e-09
9.34182e-09
9.32633e-09
9.56715e-09
9.51448e-09
1.33732e-08
2.99581e-08
1.28656e-07
7.14111e-09
7.15475e-09
7.17479e-09
7.15939e-09
7.20315e-09
7.16473e-09
7.38951e-09
7.45652e-09
1.06734e-08
2.71998e-08
1.49981e-07
5.58804e-09
5.60493e-09
5.58791e-09
5.62454e-09
5.59961e-09
5.78004e-09
5.87709e-09
8.69294e-09
2.49316e-08
1.64635e-07
4.48314e-09
4.49679e-09
4.47614e-09
4.50476e-09
4.49474e-09
4.64336e-09
4.75935e-09
7.20527e-09
2.27574e-08
1.69567e-07
3.68594e-09
3.69618e-09
3.6692e-09
3.77349e-09
3.6964e-09
3.82047e-09
3.9467e-09
6.04073e-09
2.06956e-08
1.65061e-07
3.09495e-09
3.10175e-09
3.0635e-09
3.14953e-09
3.10263e-09
3.20835e-09
3.33991e-09
5.2894e-09
1.87317e-08
1.53495e-07
2.64469e-09
2.64847e-09
2.65518e-09
2.67578e-09
2.64918e-09
2.74074e-09
2.87368e-09
4.66997e-09
1.69806e-08
1.37907e-07
2.29284e-09
2.29399e-09
2.29652e-09
2.30949e-09
2.29448e-09
2.37468e-09
2.50556e-09
4.10417e-09
1.53293e-08
1.20975e-07
2.01174e-09
2.01093e-09
2.00995e-09
2.01998e-09
2.01129e-09
2.082e-09
2.20828e-09
3.6277e-09
1.37099e-08
1.04592e-07
1.7832e-09
1.78113e-09
1.7769e-09
1.7867e-09
1.7815e-09
1.84403e-09
1.96396e-09
3.21533e-09
1.21846e-08
8.98394e-08
1.59509e-09
1.5924e-09
1.58475e-09
1.5961e-09
1.59294e-09
1.6482e-09
1.76064e-09
2.92474e-09
1.07876e-08
7.73309e-08
1.43925e-09
1.43632e-09
1.4247e-09
1.43915e-09
1.43721e-09
1.48588e-09
1.58948e-09
2.64965e-09
9.51681e-09
6.46833e-08
1.30998e-09
1.30698e-09
1.30725e-09
1.30967e-09
1.3084e-09
1.35093e-09
1.46017e-09
2.39433e-09
8.37335e-09
5.58198e-08
1.20316e-09
1.19987e-09
1.20497e-09
1.20287e-09
1.20222e-09
1.23857e-09
1.34599e-09
2.1742e-09
7.35268e-09
4.84491e-08
1.12625e-09
1.12233e-09
1.12825e-09
1.12627e-09
1.12569e-09
1.15848e-09
1.25841e-09
1.98479e-09
6.44795e-09
4.08651e-08
1.061e-09
1.06174e-09
1.06286e-09
1.06108e-09
1.06094e-09
1.08958e-09
1.18406e-09
1.82228e-09
5.65766e-09
3.52412e-08
)
;

boundaryField
{
    fuel
    {
        type            fixedValue;
        value           uniform 0;
    }
    wall
    {
        type            zeroGradient;
    }
    outlet
    {
        type            zeroGradient;
    }
    frontAndBack
    {
        type            empty;
    }
    procBoundary3to0
    {
        type            processor;
        value           nonuniform List<scalar> 10(1.01659e-09 1.01704e-09 1.01815e-09 1.01659e-09 1.01677e-09 1.0419e-09 1.13086e-09 1.68302e-09 4.97275e-09 3.04587e-08);
    }
    procBoundary3to2
    {
        type            processor;
        value           nonuniform List<scalar> 
25
(
7.66819e-08
7.31019e-08
5.56902e-08
4.13521e-08
3.04834e-08
2.24419e-08
1.64652e-08
1.22808e-08
9.32285e-09
7.15318e-09
5.5759e-09
5.5759e-09
4.47482e-09
3.68266e-09
3.09616e-09
2.64906e-09
2.29908e-09
2.01886e-09
1.79046e-09
1.60199e-09
1.44546e-09
1.31535e-09
1.20767e-09
1.13007e-09
1.06414e-09
)
;
    }
}


// ************************************************************************* //
