/*--------------------------------*- C++ -*----------------------------------*\
| =========                 |                                                 |
| \\      /  F ield         | OpenFOAM: The Open Source CFD Toolbox           |
|  \\    /   O peration     | Version:  dev                                   |
|   \\  /    A nd           | Web:      www.OpenFOAM.org                      |
|    \\/     M anipulation  |                                                 |
\*---------------------------------------------------------------------------*/
FoamFile
{
    version     2.0;
    format      ascii;
    class       volScalarField;
    location    "0.14";
    object      p;
}
// * * * * * * * * * * * * * * * * * * * * * * * * * * * * * * * * * * * * * //

dimensions      [1 -1 -2 0 0 0 0];

internalField   nonuniform List<scalar> 
50
(
99936.5
99937.8
99939
99940.2
99941.5
99942.7
99944
99945.2
99946.5
99947.8
99949.1
99950.3
99951.6
99952.9
99954.3
99955.6
99956.9
99958.2
99959.4
99960.8
99962.1
99963.4
99964.8
99966.1
99967.5
99968.9
99970.2
99971.6
99973
99974.3
99975.7
99977.1
99978.4
99979.8
99981.2
99982.6
99983.6
99985
99986.4
99987.8
99989.2
99990.5
99991.9
99993.2
99994.5
99995.8
99997
99998.2
99999.4
100000
)
;

boundaryField
{
    wall
    {
        type            zeroGradient;
    }
    fuel
    {
        type            zeroGradient;
    }
    outlet
    {
        type            totalPressure;
        rho             none;
        psi             none;
        gamma           1;
        p0              uniform 100000;
        value           uniform 100000;
    }
    procBoundary3to2
    {
        type            processor;
        value           uniform 99935.2;
    }
}


// ************************************************************************* //
