/*--------------------------------*- C++ -*----------------------------------*\
| =========                 |                                                 |
| \\      /  F ield         | OpenFOAM: The Open Source CFD Toolbox           |
|  \\    /   O peration     | Version:  dev                                   |
|   \\  /    A nd           | Web:      www.OpenFOAM.org                      |
|    \\/     M anipulation  |                                                 |
\*---------------------------------------------------------------------------*/
FoamFile
{
    version     2.0;
    format      ascii;
    class       volScalarField;
    location    "0.14";
    object      P2;
}
// * * * * * * * * * * * * * * * * * * * * * * * * * * * * * * * * * * * * * //

dimensions      [0 0 0 0 0 0 0];

internalField   nonuniform List<scalar> 
250
(
9.46872e-08
9.46842e-08
9.46796e-08
9.46797e-08
9.46777e-08
9.4728e-08
9.47499e-08
9.52296e-08
9.93686e-08
1.32249e-07
3.19481e-09
8.59752e-08
8.59373e-08
8.59012e-08
8.58975e-08
8.59304e-08
8.60067e-08
8.60405e-08
8.68375e-08
9.37323e-08
1.58063e-07
7.22913e-09
6.02796e-08
6.02728e-08
6.02635e-08
6.02571e-08
6.02596e-08
6.02973e-08
6.03732e-08
6.12174e-08
6.87814e-08
1.49602e-07
9.89869e-09
3.78507e-08
3.78656e-08
3.78517e-08
3.78446e-08
3.78421e-08
3.78572e-08
3.7946e-08
3.86993e-08
4.56737e-08
1.30781e-07
1.15798e-08
2.26211e-08
2.26623e-08
2.26285e-08
2.26223e-08
2.26222e-08
2.26204e-08
2.27195e-08
2.3314e-08
2.92668e-08
1.11422e-07
1.25592e-08
1.33185e-08
1.34044e-08
1.3328e-08
1.3323e-08
1.33442e-08
1.33127e-08
1.34397e-08
1.38377e-08
1.81641e-08
9.45247e-08
1.30872e-08
7.96655e-09
7.9286e-09
7.9764e-09
7.97238e-09
7.80136e-09
7.9485e-09
7.97211e-09
8.27781e-09
1.16861e-08
8.04455e-08
1.33978e-08
4.63768e-09
4.62852e-09
4.64589e-09
4.64327e-09
4.72276e-09
4.6749e-09
4.66067e-09
5.08875e-09
7.81102e-09
6.87053e-08
1.35932e-08
2.97645e-09
2.97931e-09
2.98373e-09
2.98137e-09
3.00687e-09
2.99822e-09
3.00402e-09
3.28118e-09
5.20881e-09
5.87097e-08
1.36203e-08
1.91969e-09
1.92606e-09
1.92581e-09
1.92284e-09
1.93324e-09
1.93269e-09
1.9432e-09
2.13686e-09
3.78738e-09
5.00246e-08
1.32776e-08
1.3127e-09
1.31123e-09
1.30814e-09
1.31387e-09
1.31501e-09
1.32701e-09
1.46849e-09
2.77361e-09
4.23631e-08
1.24338e-08
9.475e-10
9.45996e-10
9.42305e-10
9.45336e-10
9.48604e-10
9.59849e-10
1.07024e-09
2.10465e-09
3.5628e-08
1.12644e-08
7.20634e-10
7.19371e-10
7.14435e-10
7.14086e-10
7.21551e-10
7.31599e-10
8.21441e-10
1.64355e-09
2.92257e-08
1.01033e-08
5.72633e-10
5.71629e-10
5.64353e-10
5.79489e-10
5.73766e-10
5.82581e-10
6.57948e-10
1.35113e-09
2.39702e-08
9.13232e-09
4.71177e-10
4.70425e-10
4.72733e-10
4.76107e-10
4.72467e-10
4.80334e-10
5.44883e-10
1.11553e-09
1.85372e-08
8.34997e-09
3.98392e-10
3.97818e-10
3.99106e-10
4.01994e-10
3.9976e-10
4.06899e-10
4.63003e-10
9.29253e-10
1.45559e-08
7.71454e-09
3.44128e-10
3.43678e-10
3.44238e-10
3.46774e-10
3.45512e-10
3.52074e-10
4.01346e-10
7.8406e-10
1.12894e-08
7.1485e-09
3.02444e-10
3.02076e-10
3.02072e-10
3.0438e-10
3.038e-10
3.09883e-10
3.53429e-10
6.68648e-10
8.66531e-09
6.59072e-09
2.69751e-10
2.69432e-10
2.68927e-10
2.7116e-10
2.7105e-10
2.76713e-10
3.15278e-10
5.75818e-10
6.60502e-09
6.00994e-09
2.43822e-10
2.43521e-10
2.42461e-10
2.4485e-10
2.45042e-10
2.50316e-10
2.84354e-10
5.00708e-10
5.02874e-09
5.40171e-09
2.23244e-10
2.22926e-10
2.23722e-10
2.24012e-10
2.24364e-10
2.29252e-10
2.58962e-10
4.39677e-10
3.70768e-09
4.77728e-09
2.07111e-10
2.06713e-10
2.0774e-10
2.07662e-10
2.08098e-10
2.12591e-10
2.40759e-10
3.90686e-10
2.68243e-09
4.16135e-09
1.96327e-10
1.95768e-10
1.96798e-10
1.9668e-10
1.97156e-10
2.01234e-10
2.26592e-10
3.52239e-10
2.03983e-09
3.57996e-09
1.88364e-10
1.88229e-10
1.88728e-10
1.88533e-10
1.89019e-10
1.93272e-10
2.1586e-10
3.2255e-10
1.57837e-09
3.05009e-09
)
;

boundaryField
{
    fuel
    {
        type            fixedValue;
        value           uniform 0;
    }
    wall
    {
        type            zeroGradient;
    }
    outlet
    {
        type            zeroGradient;
    }
    frontAndBack
    {
        type            empty;
    }
    procBoundary3to0
    {
        type            processor;
        value           nonuniform List<scalar> 10(1.84292e-10 1.84005e-10 1.84567e-10 1.84236e-10 1.84722e-10 1.88621e-10 2.09072e-10 3.02907e-10 1.24835e-09 2.58436e-09);
    }
    procBoundary3to2
    {
        type            processor;
        value           nonuniform List<scalar> 
25
(
9.46812e-08
8.597e-08
6.02851e-08
3.78703e-08
2.26518e-08
1.33545e-08
8.0036e-09
4.66873e-09
3.00364e-09
1.94164e-09
1.30665e-09
1.30665e-09
9.42493e-10
7.16646e-10
5.69465e-10
4.68642e-10
3.96345e-10
3.42466e-10
3.01095e-10
2.68665e-10
2.42964e-10
2.22589e-10
2.06637e-10
1.95954e-10
1.8808e-10
)
;
    }
}


// ************************************************************************* //
