/*--------------------------------*- C++ -*----------------------------------*\
| =========                 |                                                 |
| \\      /  F ield         | OpenFOAM: The Open Source CFD Toolbox           |
|  \\    /   O peration     | Version:  dev                                   |
|   \\  /    A nd           | Web:      www.OpenFOAM.org                      |
|    \\/     M anipulation  |                                                 |
\*---------------------------------------------------------------------------*/
FoamFile
{
    version     2.0;
    format      ascii;
    class       volScalarField;
    location    "0.14";
    object      P2-;
}
// * * * * * * * * * * * * * * * * * * * * * * * * * * * * * * * * * * * * * //

dimensions      [0 0 0 0 0 0 0];

internalField   nonuniform List<scalar> 
250
(
4.74839e-09
4.74307e-09
4.74348e-09
4.74286e-09
4.7431e-09
4.74588e-09
4.74581e-09
4.76303e-09
4.90809e-09
5.85797e-09
6.97969e-11
4.62036e-09
4.61931e-09
4.61869e-09
4.61816e-09
4.61924e-09
4.62122e-09
4.6243e-09
4.65843e-09
4.96207e-09
7.51814e-09
1.15194e-10
2.95663e-09
2.95632e-09
2.95624e-09
2.9556e-09
2.95602e-09
2.95725e-09
2.96069e-09
2.99498e-09
3.29656e-09
6.16321e-09
8.14423e-11
1.62124e-09
1.62185e-09
1.62142e-09
1.62087e-09
1.6211e-09
1.62144e-09
1.62477e-09
1.65126e-09
1.88872e-09
4.38885e-09
3.89155e-11
8.47064e-10
8.48682e-10
8.47439e-10
8.47055e-10
8.47295e-10
8.47013e-10
8.50373e-10
8.68286e-10
1.04361e-09
3.02309e-09
1.59213e-11
4.46596e-10
4.49775e-10
4.46991e-10
4.46738e-10
4.47758e-10
4.46388e-10
4.50582e-10
4.60591e-10
5.67879e-10
2.10895e-09
7.00252e-12
2.47142e-10
2.45828e-10
2.47503e-10
2.47327e-10
2.41638e-10
2.46531e-10
2.46959e-10
2.54127e-10
3.31807e-10
1.51363e-09
3.92445e-12
1.36587e-10
1.36291e-10
1.36863e-10
1.36754e-10
1.39301e-10
1.37741e-10
1.37079e-10
1.4841e-10
2.07608e-10
1.11917e-09
2.79654e-12
8.54641e-11
8.55525e-11
8.56971e-11
8.56059e-11
8.64064e-11
8.61132e-11
8.61417e-11
9.30073e-11
1.32072e-10
8.48785e-10
2.56456e-12
5.44568e-11
5.46494e-11
5.4648e-11
5.45451e-11
5.48663e-11
5.48367e-11
5.50444e-11
5.96772e-11
9.34425e-11
6.57147e-10
3.04404e-12
3.70841e-11
3.70457e-11
3.69429e-11
3.71202e-11
3.71466e-11
3.74181e-11
4.07417e-11
6.71105e-11
5.16931e-10
4.54302e-12
2.67143e-11
2.66747e-11
2.65568e-11
2.6655e-11
2.67443e-11
2.70067e-11
2.95873e-11
5.02448e-11
4.12362e-10
6.9243e-12
2.02649e-11
2.02321e-11
2.00802e-11
2.00826e-11
2.02912e-11
2.05281e-11
2.26268e-11
3.88578e-11
3.26179e-10
9.34569e-12
1.603e-11
1.60047e-11
1.57875e-11
1.6232e-11
1.60638e-11
1.62717e-11
1.80322e-11
3.17347e-11
2.62913e-10
1.1569e-11
1.31002e-11
1.30822e-11
1.31417e-11
1.32475e-11
1.31396e-11
1.33251e-11
1.48316e-11
2.60604e-11
2.02674e-10
1.37087e-11
1.09757e-11
1.09631e-11
1.09928e-11
1.10856e-11
1.10184e-11
1.11867e-11
1.24935e-11
2.15945e-11
1.60657e-10
1.58224e-11
9.37188e-12
9.36315e-12
9.37159e-12
9.45526e-12
9.41629e-12
9.5707e-12
1.07146e-11
1.81226e-11
1.27056e-10
1.76943e-11
8.12064e-12
8.11472e-12
8.10666e-12
8.18483e-12
8.16553e-12
8.3083e-12
9.31444e-12
1.53602e-11
1.00206e-10
1.9133e-11
7.11882e-12
7.11482e-12
7.09205e-12
7.1693e-12
7.16347e-12
7.29571e-12
8.18053e-12
1.31261e-11
7.88907e-11
2.007e-11
6.30084e-12
6.2979e-12
6.25836e-12
6.34201e-12
6.34471e-12
6.46671e-12
7.23959e-12
1.12989e-11
6.21968e-11
2.05468e-11
5.62343e-12
5.62052e-12
5.64057e-12
5.65892e-12
5.66593e-12
5.77729e-12
6.44079e-12
9.79026e-12
4.76851e-11
2.06314e-11
5.05638e-12
5.05155e-12
5.0784e-12
5.08744e-12
5.09666e-12
5.19647e-12
5.83702e-12
8.54642e-12
3.58939e-11
2.03959e-11
4.63266e-12
4.62304e-12
4.64894e-12
4.65971e-12
4.67e-12
4.75669e-12
5.32747e-12
7.52515e-12
2.81553e-11
1.98849e-11
4.2533e-12
4.26635e-12
4.26592e-12
4.27807e-12
4.28844e-12
4.38834e-12
4.88628e-12
6.68037e-12
2.23279e-11
1.90969e-11
)
;

boundaryField
{
    fuel
    {
        type            fixedValue;
        value           uniform 0;
    }
    wall
    {
        type            zeroGradient;
    }
    outlet
    {
        type            zeroGradient;
    }
    frontAndBack
    {
        type            empty;
    }
    procBoundary3to0
    {
        type            processor;
        value           nonuniform List<scalar> 10(3.96204e-12 3.97209e-12 3.97175e-12 3.98333e-12 3.99354e-12 4.08246e-12 4.52806e-12 6.05446e-12 1.79516e-11 1.80634e-11);
    }
    procBoundary3to2
    {
        type            processor;
        value           nonuniform List<scalar> 
25
(
4.7467e-09
4.61983e-09
2.9568e-09
1.6221e-09
8.48316e-10
4.4792e-10
2.48391e-10
1.37562e-10
8.62847e-11
5.51047e-11
3.69048e-11
3.69048e-11
2.65666e-11
2.01474e-11
1.59366e-11
1.30253e-11
1.09152e-11
9.32277e-12
8.0808e-12
7.08677e-12
6.27545e-12
5.60376e-12
5.04155e-12
4.61991e-12
4.24205e-12
)
;
    }
}


// ************************************************************************* //
