/*--------------------------------*- C++ -*----------------------------------*\
| =========                 |                                                 |
| \\      /  F ield         | OpenFOAM: The Open Source CFD Toolbox           |
|  \\    /   O peration     | Version:  dev                                   |
|   \\  /    A nd           | Web:      www.OpenFOAM.org                      |
|    \\/     M anipulation  |                                                 |
\*---------------------------------------------------------------------------*/
FoamFile
{
    version     2.0;
    format      ascii;
    class       volScalarField;
    location    "0.05";
    object      A1C2H-;
}
// * * * * * * * * * * * * * * * * * * * * * * * * * * * * * * * * * * * * * //

dimensions      [0 0 0 0 0 0 0];

internalField   nonuniform List<scalar> 
1997
(
5.73337e-09
5.75055e-09
5.75801e-09
5.76348e-09
5.76339e-09
5.76291e-09
5.76084e-09
5.75963e-09
5.7581e-09
5.75733e-09
5.75641e-09
5.75606e-09
5.75553e-09
5.75542e-09
5.75511e-09
5.75512e-09
5.75495e-09
5.755e-09
5.62651e-09
5.64264e-09
5.64912e-09
5.65397e-09
5.65349e-09
5.65278e-09
5.65062e-09
5.64933e-09
5.64779e-09
5.64699e-09
5.64607e-09
5.6457e-09
5.64517e-09
5.64505e-09
5.64474e-09
5.64475e-09
5.64457e-09
5.64461e-09
5.64449e-09
5.64454e-09
5.64447e-09
5.64451e-09
5.64447e-09
5.6445e-09
5.64449e-09
5.64449e-09
5.6445e-09
5.64447e-09
5.52472e-09
5.53974e-09
5.54533e-09
5.54969e-09
5.54898e-09
5.54813e-09
5.54598e-09
5.54466e-09
5.54315e-09
5.54234e-09
5.54144e-09
5.54107e-09
5.54055e-09
5.54043e-09
5.54013e-09
5.54013e-09
5.53995e-09
5.53999e-09
5.53987e-09
5.53992e-09
5.53985e-09
5.53989e-09
5.53986e-09
5.53988e-09
5.53987e-09
5.53987e-09
5.53988e-09
5.53986e-09
5.53989e-09
5.53985e-09
5.53991e-09
5.53987e-09
5.53999e-09
5.53995e-09
5.54012e-09
5.54012e-09
5.54042e-09
5.54054e-09
5.54106e-09
5.54143e-09
5.42581e-09
5.43976e-09
5.44449e-09
5.44835e-09
5.44742e-09
5.44642e-09
5.44426e-09
5.44292e-09
5.44142e-09
5.4406e-09
5.43972e-09
5.43934e-09
5.43883e-09
5.43871e-09
5.43842e-09
5.43841e-09
5.43824e-09
5.43828e-09
5.43816e-09
5.4382e-09
5.43814e-09
5.43817e-09
5.43814e-09
5.43816e-09
5.43815e-09
5.43815e-09
5.43816e-09
5.43814e-09
5.43817e-09
5.43813e-09
5.43819e-09
5.43815e-09
5.43827e-09
5.43824e-09
5.43841e-09
5.43841e-09
5.4387e-09
5.43883e-09
5.43934e-09
5.43971e-09
5.44059e-09
5.4414e-09
5.44289e-09
5.44424e-09
5.44639e-09
5.44739e-09
5.44832e-09
5.44446e-09
5.43974e-09
5.42579e-09
5.32944e-09
5.34233e-09
5.34625e-09
5.34961e-09
5.34845e-09
5.34729e-09
5.34513e-09
5.34374e-09
5.34227e-09
5.34144e-09
5.34056e-09
5.34018e-09
5.33968e-09
5.33955e-09
5.33927e-09
5.33926e-09
5.33909e-09
5.33912e-09
5.339e-09
5.33904e-09
5.33898e-09
5.33901e-09
5.33898e-09
5.339e-09
5.33899e-09
5.33899e-09
5.339e-09
5.33898e-09
5.33901e-09
5.33897e-09
5.33903e-09
5.339e-09
5.33912e-09
5.33908e-09
5.33925e-09
5.33926e-09
5.33954e-09
5.33967e-09
5.34017e-09
5.34055e-09
5.34142e-09
5.34224e-09
5.34372e-09
5.3451e-09
5.34726e-09
5.34842e-09
5.34957e-09
5.34622e-09
5.34232e-09
5.32942e-09
5.23447e-09
5.24668e-09
5.24972e-09
5.25249e-09
5.25083e-09
5.24942e-09
5.24708e-09
5.24558e-09
5.24404e-09
5.24316e-09
5.24226e-09
5.24185e-09
5.24134e-09
5.2412e-09
5.2409e-09
5.24088e-09
5.24071e-09
5.24074e-09
5.2406e-09
5.24064e-09
5.24058e-09
5.24061e-09
5.24057e-09
5.24059e-09
5.24058e-09
5.24059e-09
5.24059e-09
5.24057e-09
5.2406e-09
5.24057e-09
5.24063e-09
5.2406e-09
5.24073e-09
5.24071e-09
5.24088e-09
5.24089e-09
5.24119e-09
5.24133e-09
5.24185e-09
5.24225e-09
5.24314e-09
5.24402e-09
5.24556e-09
5.24706e-09
5.24939e-09
5.2508e-09
5.25247e-09
5.2497e-09
5.24666e-09
5.23445e-09
5.14204e-09
5.15327e-09
5.15552e-09
5.15778e-09
5.15585e-09
5.15426e-09
5.15189e-09
5.15033e-09
5.14879e-09
5.14789e-09
5.14699e-09
5.14658e-09
5.14607e-09
5.14592e-09
5.14562e-09
5.1456e-09
5.14543e-09
5.14545e-09
5.14532e-09
5.14534e-09
5.14528e-09
5.14531e-09
5.14528e-09
5.1453e-09
5.14529e-09
5.14529e-09
5.1453e-09
5.14528e-09
5.14531e-09
5.14528e-09
5.14534e-09
5.14531e-09
5.14544e-09
5.14542e-09
5.1456e-09
5.14562e-09
5.14591e-09
5.14606e-09
5.14657e-09
5.14698e-09
5.14787e-09
5.14877e-09
5.15031e-09
5.15187e-09
5.15424e-09
5.15582e-09
5.15775e-09
5.15549e-09
5.15325e-09
5.14201e-09
5.05103e-09
5.06131e-09
5.06277e-09
5.06452e-09
5.0623e-09
5.06054e-09
5.05811e-09
5.05649e-09
5.05494e-09
5.05401e-09
5.05312e-09
5.05269e-09
5.05218e-09
5.05202e-09
5.05173e-09
5.0517e-09
5.05153e-09
5.05154e-09
5.0514e-09
5.05143e-09
5.05137e-09
5.0514e-09
5.05137e-09
5.05139e-09
5.05138e-09
5.05138e-09
5.05139e-09
5.05137e-09
5.05139e-09
5.05136e-09
5.05142e-09
5.0514e-09
5.05154e-09
5.05152e-09
5.05169e-09
5.05172e-09
5.05201e-09
5.05217e-09
5.05268e-09
5.0531e-09
5.05399e-09
5.05492e-09
5.05646e-09
5.05808e-09
5.06051e-09
5.06227e-09
5.06449e-09
5.06274e-09
5.06129e-09
5.051e-09
4.96107e-09
4.97043e-09
4.97111e-09
4.97233e-09
4.96981e-09
4.96786e-09
4.96536e-09
4.96367e-09
4.96211e-09
4.96115e-09
4.96025e-09
4.95981e-09
4.9593e-09
4.95913e-09
4.95884e-09
4.95881e-09
4.95864e-09
4.95864e-09
4.9585e-09
4.95852e-09
4.95846e-09
4.95849e-09
4.95846e-09
4.95847e-09
4.95846e-09
4.95846e-09
4.95847e-09
4.95845e-09
4.95848e-09
4.95845e-09
4.95851e-09
4.95849e-09
4.95864e-09
4.95863e-09
4.9588e-09
4.95883e-09
4.95912e-09
4.95929e-09
4.9598e-09
4.96024e-09
4.96113e-09
4.96208e-09
4.96365e-09
4.96533e-09
4.96783e-09
4.96978e-09
4.9723e-09
4.97108e-09
4.97042e-09
4.96105e-09
4.87181e-09
4.88026e-09
4.88015e-09
4.88084e-09
4.878e-09
4.87586e-09
4.87327e-09
4.87151e-09
4.86993e-09
4.86893e-09
4.86803e-09
4.86757e-09
4.86705e-09
4.86688e-09
4.86659e-09
4.86655e-09
4.86638e-09
4.86638e-09
4.86622e-09
4.86624e-09
4.86618e-09
4.86621e-09
4.86618e-09
4.86619e-09
4.86619e-09
4.86619e-09
4.86619e-09
4.86618e-09
4.8662e-09
4.86618e-09
4.86624e-09
4.86622e-09
4.86637e-09
4.86637e-09
4.86654e-09
4.86658e-09
4.86687e-09
4.86705e-09
4.86756e-09
4.86802e-09
4.86891e-09
4.8699e-09
4.87149e-09
4.87325e-09
4.87583e-09
4.87797e-09
4.88081e-09
4.88012e-09
4.88025e-09
4.87179e-09
4.78175e-09
4.78951e-09
4.78848e-09
4.78854e-09
4.78522e-09
4.78276e-09
4.77996e-09
4.77806e-09
4.77639e-09
4.77533e-09
4.77439e-09
4.7739e-09
4.77336e-09
4.77317e-09
4.77286e-09
4.77281e-09
4.77263e-09
4.77262e-09
4.77245e-09
4.77246e-09
4.7724e-09
4.77243e-09
4.77239e-09
4.77241e-09
4.7724e-09
4.7724e-09
4.77241e-09
4.77239e-09
4.77242e-09
4.7724e-09
4.77246e-09
4.77245e-09
4.77262e-09
4.77262e-09
4.77281e-09
4.77285e-09
4.77316e-09
4.77335e-09
4.77389e-09
4.77437e-09
4.77531e-09
4.77637e-09
4.77803e-09
4.77994e-09
4.78273e-09
4.78519e-09
4.7885e-09
4.78845e-09
4.78949e-09
4.78173e-09
4.69266e-09
4.69954e-09
4.6977e-09
4.69719e-09
4.69353e-09
4.69084e-09
4.68793e-09
4.68594e-09
4.68423e-09
4.68312e-09
4.68216e-09
4.68166e-09
4.68111e-09
4.68091e-09
4.68059e-09
4.68054e-09
4.68036e-09
4.68034e-09
4.68016e-09
4.68017e-09
4.6801e-09
4.68013e-09
4.68009e-09
4.68011e-09
4.6801e-09
4.6801e-09
4.68011e-09
4.68009e-09
4.68012e-09
4.6801e-09
4.68016e-09
4.68015e-09
4.68034e-09
4.68035e-09
4.68053e-09
4.68059e-09
4.6809e-09
4.6811e-09
4.68165e-09
4.68215e-09
4.6831e-09
4.6842e-09
4.68591e-09
4.6879e-09
4.69081e-09
4.6935e-09
4.69716e-09
4.69767e-09
4.69952e-09
4.69263e-09
4.60151e-09
4.60773e-09
4.60503e-09
4.6039e-09
4.59981e-09
4.59679e-09
4.59365e-09
4.59152e-09
4.58973e-09
4.58855e-09
4.58756e-09
4.58702e-09
4.58645e-09
4.58624e-09
4.58591e-09
4.58585e-09
4.58566e-09
4.58564e-09
4.58543e-09
4.58543e-09
4.58537e-09
4.58539e-09
4.58536e-09
4.58537e-09
4.58536e-09
4.58536e-09
4.58537e-09
4.58536e-09
4.58539e-09
4.58536e-09
4.58543e-09
4.58542e-09
4.58563e-09
4.58565e-09
4.58584e-09
4.5859e-09
4.58623e-09
4.58645e-09
4.58702e-09
4.58755e-09
4.58853e-09
4.58971e-09
4.59149e-09
4.59363e-09
4.59676e-09
4.59978e-09
4.60387e-09
4.605e-09
4.60772e-09
4.60148e-09
4.511e-09
4.51641e-09
4.51285e-09
4.51114e-09
4.50667e-09
4.50339e-09
4.50011e-09
4.49786e-09
4.49603e-09
4.49478e-09
4.49377e-09
4.49321e-09
4.49263e-09
4.4924e-09
4.49206e-09
4.492e-09
4.4918e-09
4.49177e-09
4.49155e-09
4.49155e-09
4.49148e-09
4.4915e-09
4.49147e-09
4.49148e-09
4.49147e-09
4.49147e-09
4.49148e-09
4.49146e-09
4.4915e-09
4.49147e-09
4.49154e-09
4.49154e-09
4.49177e-09
4.49179e-09
4.49199e-09
4.49206e-09
4.4924e-09
4.49262e-09
4.4932e-09
4.49376e-09
4.49476e-09
4.496e-09
4.49783e-09
4.50008e-09
4.50335e-09
4.50664e-09
4.51111e-09
4.51282e-09
4.51639e-09
4.51098e-09
4.41833e-09
4.42293e-09
4.41822e-09
4.41572e-09
4.41068e-09
4.40698e-09
4.40343e-09
4.40099e-09
4.39905e-09
4.3977e-09
4.39664e-09
4.39604e-09
4.39543e-09
4.39519e-09
4.39483e-09
4.39475e-09
4.39454e-09
4.39451e-09
4.39425e-09
4.39425e-09
4.39418e-09
4.3942e-09
4.39416e-09
4.39417e-09
4.39416e-09
4.39416e-09
4.39417e-09
4.39416e-09
4.39419e-09
4.39417e-09
4.39424e-09
4.39424e-09
4.3945e-09
4.39454e-09
4.39475e-09
4.39482e-09
4.39518e-09
4.39543e-09
4.39604e-09
4.39663e-09
4.39768e-09
4.39902e-09
4.40096e-09
4.40341e-09
4.40694e-09
4.41065e-09
4.41569e-09
4.41819e-09
4.42292e-09
4.41831e-09
4.32225e-09
4.32597e-09
4.3204e-09
4.31725e-09
4.3118e-09
4.30781e-09
4.30409e-09
4.30153e-09
4.29953e-09
4.2981e-09
4.29702e-09
4.29639e-09
4.29577e-09
4.29551e-09
4.29514e-09
4.29506e-09
4.29484e-09
4.2948e-09
4.29451e-09
4.29451e-09
4.29443e-09
4.29445e-09
4.29442e-09
4.29443e-09
4.29442e-09
4.29442e-09
4.29443e-09
4.29442e-09
4.29445e-09
4.29443e-09
4.2945e-09
4.29451e-09
4.29479e-09
4.29483e-09
4.29505e-09
4.29514e-09
4.2955e-09
4.29576e-09
4.29639e-09
4.29701e-09
4.29808e-09
4.2995e-09
4.3015e-09
4.30407e-09
4.30778e-09
4.31178e-09
4.31722e-09
4.32038e-09
4.32596e-09
4.32223e-09
4.22402e-09
4.22686e-09
4.22043e-09
4.21662e-09
4.21075e-09
4.20644e-09
4.20256e-09
4.19987e-09
4.1978e-09
4.19629e-09
4.19518e-09
4.19452e-09
4.19388e-09
4.19361e-09
4.19324e-09
4.19314e-09
4.19292e-09
4.19287e-09
4.19255e-09
4.19254e-09
4.19247e-09
4.19249e-09
4.19245e-09
4.19246e-09
4.19245e-09
4.19245e-09
4.19246e-09
4.19245e-09
4.19248e-09
4.19246e-09
4.19254e-09
4.19255e-09
4.19287e-09
4.19291e-09
4.19314e-09
4.19323e-09
4.19361e-09
4.19388e-09
4.19452e-09
4.19517e-09
4.19627e-09
4.19777e-09
4.19984e-09
4.20254e-09
4.20641e-09
4.21072e-09
4.21659e-09
4.22041e-09
4.22685e-09
4.224e-09
4.12322e-09
4.1252e-09
4.1179e-09
4.11342e-09
4.10711e-09
4.10248e-09
4.09845e-09
4.09563e-09
4.09349e-09
4.09188e-09
4.09074e-09
4.09006e-09
4.08941e-09
4.08912e-09
4.08873e-09
4.08863e-09
4.0884e-09
4.08835e-09
4.08799e-09
4.08798e-09
4.0879e-09
4.08792e-09
4.08788e-09
4.08789e-09
4.08788e-09
4.08788e-09
4.08789e-09
4.08788e-09
4.08792e-09
4.0879e-09
4.08798e-09
4.08799e-09
4.08834e-09
4.0884e-09
4.08863e-09
4.08873e-09
4.08912e-09
4.0894e-09
4.09006e-09
4.09074e-09
4.09186e-09
4.09345e-09
4.09561e-09
4.09843e-09
4.10244e-09
4.10708e-09
4.11339e-09
4.11787e-09
4.12519e-09
4.1232e-09
4.02247e-09
4.02369e-09
4.01547e-09
4.01035e-09
4.00357e-09
3.99861e-09
3.99443e-09
3.99148e-09
3.98927e-09
3.98757e-09
3.98639e-09
3.98568e-09
3.98501e-09
3.98472e-09
3.98432e-09
3.98421e-09
3.98397e-09
3.98392e-09
3.98351e-09
3.9835e-09
3.98342e-09
3.98343e-09
3.98339e-09
3.98341e-09
3.9834e-09
3.9834e-09
3.98341e-09
3.98339e-09
3.98343e-09
3.98341e-09
3.98349e-09
3.9835e-09
3.98391e-09
3.98396e-09
3.9842e-09
3.98431e-09
3.98471e-09
3.98501e-09
3.98569e-09
3.98639e-09
3.98754e-09
3.98923e-09
3.99146e-09
3.99441e-09
3.99857e-09
4.00355e-09
4.01032e-09
4.01544e-09
4.02367e-09
4.02245e-09
3.91885e-09
3.91932e-09
3.91021e-09
3.90444e-09
3.89719e-09
3.8919e-09
3.88722e-09
3.88394e-09
3.88151e-09
3.87961e-09
3.87833e-09
3.87755e-09
3.87682e-09
3.87649e-09
3.87606e-09
3.87593e-09
3.87567e-09
3.8756e-09
3.87509e-09
3.87507e-09
3.87498e-09
3.875e-09
3.87496e-09
3.87497e-09
3.87496e-09
3.87496e-09
3.87497e-09
3.87496e-09
3.875e-09
3.87498e-09
3.87507e-09
3.87509e-09
3.8756e-09
3.87567e-09
3.87593e-09
3.87605e-09
3.87649e-09
3.87682e-09
3.87755e-09
3.87833e-09
3.87958e-09
3.88147e-09
3.88391e-09
3.8872e-09
3.89187e-09
3.89717e-09
3.90441e-09
3.91018e-09
3.9193e-09
3.91883e-09
3.81166e-09
3.81079e-09
3.80013e-09
3.79335e-09
3.78536e-09
3.77962e-09
3.77467e-09
3.77116e-09
3.7686e-09
3.76653e-09
3.7652e-09
3.76437e-09
3.76361e-09
3.76326e-09
3.7628e-09
3.76267e-09
3.76239e-09
3.76232e-09
3.76171e-09
3.76169e-09
3.76159e-09
3.76161e-09
3.76156e-09
3.76158e-09
3.76156e-09
3.76156e-09
3.76158e-09
3.76156e-09
3.76161e-09
3.76159e-09
3.76168e-09
3.7617e-09
3.76232e-09
3.76239e-09
3.76266e-09
3.7628e-09
3.76326e-09
3.76361e-09
3.76438e-09
3.7652e-09
3.76651e-09
3.76856e-09
3.77113e-09
3.77465e-09
3.77958e-09
3.78534e-09
3.79332e-09
3.80011e-09
3.81077e-09
3.81164e-09
3.70191e-09
3.70028e-09
3.68871e-09
3.68124e-09
3.67281e-09
3.6667e-09
3.66166e-09
3.65797e-09
3.65536e-09
3.65313e-09
3.65177e-09
3.65091e-09
3.65014e-09
3.64977e-09
3.6493e-09
3.64916e-09
3.64888e-09
3.64881e-09
3.64809e-09
3.64808e-09
3.64798e-09
3.648e-09
3.64795e-09
3.64796e-09
3.64795e-09
3.64795e-09
3.64796e-09
3.64795e-09
3.64799e-09
3.64798e-09
3.64807e-09
3.64809e-09
3.64881e-09
3.64888e-09
3.64916e-09
3.6493e-09
3.64977e-09
3.65014e-09
3.65092e-09
3.65177e-09
3.6531e-09
3.65531e-09
3.65795e-09
3.66164e-09
3.66667e-09
3.67279e-09
3.68122e-09
3.68869e-09
3.70025e-09
3.70188e-09
3.58853e-09
3.58631e-09
3.57358e-09
3.56529e-09
3.55713e-09
3.55068e-09
3.54558e-09
3.54171e-09
3.53906e-09
3.53664e-09
3.53525e-09
3.53436e-09
3.53358e-09
3.5332e-09
3.53272e-09
3.53258e-09
3.53229e-09
3.53223e-09
3.53137e-09
3.53136e-09
3.53126e-09
3.53128e-09
3.53123e-09
3.53124e-09
3.53123e-09
3.53122e-09
3.53124e-09
3.53123e-09
3.53127e-09
3.53126e-09
3.53135e-09
3.53137e-09
3.53222e-09
3.53228e-09
3.53257e-09
3.53272e-09
3.5332e-09
3.53358e-09
3.53438e-09
3.53525e-09
3.53661e-09
3.53901e-09
3.54169e-09
3.54556e-09
3.55065e-09
3.55711e-09
3.56527e-09
3.57356e-09
3.58628e-09
3.58851e-09
3.47249e-09
3.46956e-09
3.45595e-09
3.44694e-09
3.4381e-09
3.43096e-09
3.42554e-09
3.42136e-09
3.41857e-09
3.41586e-09
3.4144e-09
3.41345e-09
3.41263e-09
3.41223e-09
3.41172e-09
3.41156e-09
3.41125e-09
3.4112e-09
3.41163e-09
3.41163e-09
3.41153e-09
3.41155e-09
3.4115e-09
3.41151e-09
3.4115e-09
3.41149e-09
3.41151e-09
3.4115e-09
3.41155e-09
3.41153e-09
3.41163e-09
3.41163e-09
3.4112e-09
3.41125e-09
3.41156e-09
3.41171e-09
3.41223e-09
3.41263e-09
3.41347e-09
3.4144e-09
3.41583e-09
3.41853e-09
3.42134e-09
3.42552e-09
3.43093e-09
3.43808e-09
3.44692e-09
3.45592e-09
3.46953e-09
3.47247e-09
3.35343e-09
3.3498e-09
3.33538e-09
3.32563e-09
3.31648e-09
3.30899e-09
3.30354e-09
3.29919e-09
3.29638e-09
3.29341e-09
3.29193e-09
3.29095e-09
3.29012e-09
3.28971e-09
3.28919e-09
3.28903e-09
3.28872e-09
3.28868e-09
3.28889e-09
3.28889e-09
3.28879e-09
3.2888e-09
3.28875e-09
3.28876e-09
3.28875e-09
3.28874e-09
3.28876e-09
3.28875e-09
3.2888e-09
3.28878e-09
3.28889e-09
3.28889e-09
3.28868e-09
3.28872e-09
3.28903e-09
3.28919e-09
3.28971e-09
3.29012e-09
3.29098e-09
3.29192e-09
3.29337e-09
3.29633e-09
3.29916e-09
3.30352e-09
3.30896e-09
3.31646e-09
3.32561e-09
3.33535e-09
3.34977e-09
3.35341e-09
3.2295e-09
3.22495e-09
3.20965e-09
3.20157e-09
3.19215e-09
3.18434e-09
3.17887e-09
3.17436e-09
3.17157e-09
3.16829e-09
3.16679e-09
3.1658e-09
3.16496e-09
3.16455e-09
3.16401e-09
3.16385e-09
3.16354e-09
3.1635e-09
3.16366e-09
3.16367e-09
3.16356e-09
3.16358e-09
3.16352e-09
3.16353e-09
3.16352e-09
3.16352e-09
3.16353e-09
3.16352e-09
3.16357e-09
3.16356e-09
3.16366e-09
3.16365e-09
3.1635e-09
3.16353e-09
3.16385e-09
3.16401e-09
3.16455e-09
3.16496e-09
3.16583e-09
3.16679e-09
3.16825e-09
3.17153e-09
3.17434e-09
3.17885e-09
3.1843e-09
3.19214e-09
3.20155e-09
3.20963e-09
3.22492e-09
3.22948e-09
3.10482e-09
3.09959e-09
3.0837e-09
3.07487e-09
3.06468e-09
3.0562e-09
3.05046e-09
3.04569e-09
3.04282e-09
3.03904e-09
3.03748e-09
3.03645e-09
3.03558e-09
3.03514e-09
3.03459e-09
3.03442e-09
3.03409e-09
3.03406e-09
3.03417e-09
3.03418e-09
3.03407e-09
3.03408e-09
3.03403e-09
3.03404e-09
3.03402e-09
3.03402e-09
3.03404e-09
3.03402e-09
3.03408e-09
3.03406e-09
3.03417e-09
3.03416e-09
3.03406e-09
3.03409e-09
3.03442e-09
3.03459e-09
3.03515e-09
3.03558e-09
3.03648e-09
3.03749e-09
3.03899e-09
3.04278e-09
3.04568e-09
3.05045e-09
3.05616e-09
3.06467e-09
3.07485e-09
3.08368e-09
3.09956e-09
3.1048e-09
2.97529e-09
2.96914e-09
2.9524e-09
2.94283e-09
2.93234e-09
2.92357e-09
2.91783e-09
2.913e-09
2.91019e-09
2.90935e-09
2.90781e-09
2.90676e-09
2.90589e-09
2.90545e-09
2.90489e-09
2.90472e-09
2.90439e-09
2.90436e-09
2.90443e-09
2.90445e-09
2.90434e-09
2.90435e-09
2.9043e-09
2.90431e-09
2.90429e-09
2.90429e-09
2.90431e-09
2.90429e-09
2.90435e-09
2.90433e-09
2.90445e-09
2.90443e-09
2.90436e-09
2.90439e-09
2.90472e-09
2.90489e-09
2.90545e-09
2.90589e-09
2.90679e-09
2.90781e-09
2.9093e-09
2.91016e-09
2.91298e-09
2.91782e-09
2.92353e-09
2.93233e-09
2.94282e-09
2.95237e-09
2.9691e-09
2.97526e-09
2.84608e-09
2.83934e-09
2.82211e-09
2.8121e-09
2.80149e-09
2.79249e-09
2.78673e-09
2.78187e-09
2.7791e-09
2.77802e-09
2.77648e-09
2.77543e-09
2.77456e-09
2.77413e-09
2.77356e-09
2.77339e-09
2.77306e-09
2.77304e-09
2.77307e-09
2.77309e-09
2.77298e-09
2.773e-09
2.77294e-09
2.77295e-09
2.77293e-09
2.77293e-09
2.77295e-09
2.77294e-09
2.77299e-09
2.77298e-09
2.77309e-09
2.77307e-09
2.77303e-09
2.77305e-09
2.77339e-09
2.77356e-09
2.77413e-09
2.77456e-09
2.77546e-09
2.77649e-09
2.77796e-09
2.77907e-09
2.78185e-09
2.78671e-09
2.79245e-09
2.80148e-09
2.81209e-09
2.82209e-09
2.83931e-09
2.84606e-09
2.71528e-09
2.70801e-09
2.69038e-09
2.68001e-09
2.66919e-09
2.65962e-09
2.65365e-09
2.64861e-09
2.64581e-09
2.64443e-09
2.64286e-09
2.64179e-09
2.6409e-09
2.64045e-09
2.63988e-09
2.6397e-09
2.63935e-09
2.63934e-09
2.63934e-09
2.63936e-09
2.63925e-09
2.63927e-09
2.6392e-09
2.63922e-09
2.6392e-09
2.6392e-09
2.63922e-09
2.6392e-09
2.63926e-09
2.63924e-09
2.63936e-09
2.63934e-09
2.63933e-09
2.63935e-09
2.6397e-09
2.63988e-09
2.64046e-09
2.6409e-09
2.64182e-09
2.64288e-09
2.64438e-09
2.64578e-09
2.6486e-09
2.65364e-09
2.65959e-09
2.66918e-09
2.67999e-09
2.69035e-09
2.70798e-09
2.71526e-09
2.5834e-09
2.57566e-09
2.55772e-09
2.54708e-09
2.53626e-09
2.52647e-09
2.52051e-09
2.51548e-09
2.51274e-09
2.51121e-09
2.50965e-09
2.50859e-09
2.50771e-09
2.50727e-09
2.50669e-09
2.50652e-09
2.50617e-09
2.50616e-09
2.50614e-09
2.50616e-09
2.50605e-09
2.50606e-09
2.506e-09
2.50602e-09
2.506e-09
2.506e-09
2.50602e-09
2.506e-09
2.50606e-09
2.50604e-09
2.50616e-09
2.50613e-09
2.50615e-09
2.50617e-09
2.50651e-09
2.50669e-09
2.50727e-09
2.50771e-09
2.50861e-09
2.50967e-09
2.51115e-09
2.51272e-09
2.51547e-09
2.5205e-09
2.52643e-09
2.53625e-09
2.54707e-09
2.55769e-09
2.57563e-09
2.58337e-09
2.44991e-09
2.44139e-09
2.42268e-09
2.41158e-09
2.4006e-09
2.39038e-09
2.38434e-09
2.3793e-09
2.37659e-09
2.37492e-09
2.37336e-09
2.37229e-09
2.37142e-09
2.37097e-09
2.3704e-09
2.37022e-09
2.36988e-09
2.36986e-09
2.36982e-09
2.36985e-09
2.36973e-09
2.36975e-09
2.36969e-09
2.3697e-09
2.36968e-09
2.36968e-09
2.3697e-09
2.36968e-09
2.36975e-09
2.36973e-09
2.36984e-09
2.36982e-09
2.36986e-09
2.36987e-09
2.37022e-09
2.3704e-09
2.37098e-09
2.37142e-09
2.37231e-09
2.37339e-09
2.37486e-09
2.37657e-09
2.37929e-09
2.38434e-09
2.39035e-09
2.40059e-09
2.41156e-09
2.42266e-09
2.44136e-09
2.44989e-09
2.31393e-09
2.305e-09
2.28628e-09
2.27508e-09
2.26427e-09
2.25718e-09
2.25123e-09
2.24626e-09
2.24362e-09
2.24185e-09
2.24032e-09
2.23927e-09
2.23841e-09
2.23798e-09
2.23741e-09
2.23724e-09
2.2369e-09
2.23689e-09
2.23683e-09
2.23685e-09
2.23674e-09
2.23676e-09
2.2367e-09
2.23671e-09
2.23669e-09
2.23669e-09
2.23671e-09
2.2367e-09
2.23676e-09
2.23674e-09
2.23685e-09
2.23682e-09
2.23688e-09
2.2369e-09
2.23724e-09
2.23741e-09
2.23798e-09
2.23842e-09
2.23929e-09
2.24035e-09
2.24179e-09
2.2436e-09
2.24625e-09
2.25122e-09
2.25715e-09
2.26426e-09
2.27507e-09
2.28625e-09
2.30498e-09
2.31391e-09
2.18183e-09
2.17263e-09
2.15387e-09
2.14261e-09
2.13206e-09
2.12474e-09
2.11879e-09
2.11377e-09
2.11114e-09
2.10925e-09
2.10771e-09
2.10667e-09
2.10582e-09
2.10539e-09
2.10481e-09
2.10464e-09
2.1043e-09
2.10429e-09
2.10421e-09
2.10424e-09
2.10412e-09
2.10414e-09
2.10408e-09
2.10409e-09
2.10408e-09
2.10407e-09
2.10409e-09
2.10408e-09
2.10414e-09
2.10412e-09
2.10423e-09
2.10421e-09
2.10428e-09
2.1043e-09
2.10464e-09
2.10481e-09
2.10539e-09
2.10582e-09
2.10668e-09
2.10775e-09
2.10919e-09
2.11112e-09
2.11376e-09
2.11878e-09
2.12471e-09
2.13206e-09
2.1426e-09
2.15385e-09
2.17261e-09
2.18181e-09
2.05086e-09
2.04146e-09
2.02278e-09
2.01154e-09
2.00129e-09
1.99394e-09
1.98818e-09
1.98327e-09
1.98072e-09
1.97879e-09
1.97729e-09
1.97628e-09
1.97545e-09
1.97503e-09
1.97447e-09
1.97431e-09
1.97397e-09
1.97396e-09
1.97387e-09
1.9739e-09
1.97378e-09
1.9738e-09
1.97374e-09
1.97376e-09
1.97374e-09
1.97374e-09
1.97376e-09
1.97374e-09
1.9738e-09
1.97378e-09
1.97389e-09
1.97386e-09
1.97396e-09
1.97397e-09
1.9743e-09
1.97447e-09
1.97503e-09
1.97545e-09
1.97629e-09
1.97733e-09
1.97872e-09
1.9807e-09
1.98326e-09
1.98817e-09
1.99392e-09
2.00128e-09
2.01153e-09
2.02276e-09
2.04144e-09
2.05084e-09
1.92163e-09
1.91211e-09
1.89362e-09
1.88235e-09
1.87213e-09
1.86455e-09
1.85895e-09
1.85408e-09
1.85156e-09
1.84962e-09
1.84814e-09
1.84716e-09
1.84633e-09
1.84592e-09
1.84537e-09
1.84521e-09
1.84488e-09
1.84487e-09
1.84477e-09
1.84479e-09
1.84468e-09
1.8447e-09
1.84464e-09
1.84466e-09
1.84464e-09
1.84464e-09
1.84465e-09
1.84464e-09
1.8447e-09
1.84468e-09
1.84479e-09
1.84476e-09
1.84486e-09
1.84487e-09
1.84521e-09
1.84537e-09
1.84592e-09
1.84633e-09
1.84716e-09
1.84818e-09
1.84956e-09
1.85155e-09
1.85407e-09
1.85894e-09
1.86453e-09
1.87214e-09
1.88234e-09
1.8936e-09
1.9121e-09
1.92161e-09
1.79474e-09
1.78518e-09
1.76699e-09
1.75589e-09
1.74601e-09
1.73853e-09
1.73319e-09
1.72847e-09
1.72604e-09
1.72409e-09
1.72268e-09
1.72173e-09
1.72093e-09
1.72054e-09
1.72e-09
1.71985e-09
1.71953e-09
1.71952e-09
1.71941e-09
1.71944e-09
1.71933e-09
1.71935e-09
1.71929e-09
1.7193e-09
1.71928e-09
1.71928e-09
1.7193e-09
1.71929e-09
1.71934e-09
1.71932e-09
1.71943e-09
1.7194e-09
1.71951e-09
1.71952e-09
1.71985e-09
1.72e-09
1.72054e-09
1.72093e-09
1.72173e-09
1.72271e-09
1.72403e-09
1.72602e-09
1.72847e-09
1.73318e-09
1.73851e-09
1.74603e-09
1.75586e-09
1.76696e-09
1.78516e-09
1.79472e-09
1.66968e-09
1.65987e-09
1.6418e-09
1.63073e-09
1.62118e-09
1.61374e-09
1.60865e-09
1.60407e-09
1.60171e-09
1.59976e-09
1.59841e-09
1.5975e-09
1.59672e-09
1.59634e-09
1.59582e-09
1.59567e-09
1.59536e-09
1.59535e-09
1.59524e-09
1.59526e-09
1.59516e-09
1.59518e-09
1.59512e-09
1.59514e-09
1.59512e-09
1.59512e-09
1.59513e-09
1.59512e-09
1.59518e-09
1.59515e-09
1.59526e-09
1.59523e-09
1.59535e-09
1.59536e-09
1.59567e-09
1.59582e-09
1.59634e-09
1.59672e-09
1.59749e-09
1.59844e-09
1.5997e-09
1.60169e-09
1.60406e-09
1.60864e-09
1.61373e-09
1.62118e-09
1.63071e-09
1.64177e-09
1.65985e-09
1.66966e-09
1.54903e-09
1.53931e-09
1.52172e-09
1.51092e-09
1.50181e-09
1.49456e-09
1.48976e-09
1.48537e-09
1.4831e-09
1.48119e-09
1.47992e-09
1.47905e-09
1.4783e-09
1.47794e-09
1.47744e-09
1.47731e-09
1.47701e-09
1.477e-09
1.47688e-09
1.4769e-09
1.4768e-09
1.47682e-09
1.47677e-09
1.47678e-09
1.47676e-09
1.47676e-09
1.47678e-09
1.47677e-09
1.47682e-09
1.4768e-09
1.4769e-09
1.47687e-09
1.47699e-09
1.477e-09
1.4773e-09
1.47744e-09
1.47794e-09
1.4783e-09
1.47904e-09
1.47994e-09
1.48114e-09
1.48309e-09
1.48536e-09
1.48975e-09
1.49454e-09
1.50181e-09
1.51091e-09
1.5217e-09
1.53929e-09
1.54901e-09
1.43225e-09
1.42267e-09
1.40567e-09
1.39518e-09
1.38652e-09
1.37951e-09
1.37501e-09
1.37083e-09
1.36868e-09
1.36682e-09
1.36562e-09
1.3648e-09
1.36408e-09
1.36374e-09
1.36327e-09
1.36314e-09
1.36285e-09
1.36284e-09
1.36272e-09
1.36275e-09
1.36265e-09
1.36267e-09
1.36262e-09
1.36263e-09
1.36261e-09
1.36261e-09
1.36263e-09
1.36262e-09
1.36267e-09
1.36265e-09
1.36274e-09
1.36272e-09
1.36284e-09
1.36285e-09
1.36314e-09
1.36327e-09
1.36374e-09
1.36408e-09
1.36479e-09
1.36564e-09
1.36677e-09
1.36866e-09
1.37082e-09
1.375e-09
1.37949e-09
1.38652e-09
1.39517e-09
1.40565e-09
1.42266e-09
1.43223e-09
1.31974e-09
1.31038e-09
1.29366e-09
1.28318e-09
1.27475e-09
1.26786e-09
1.26357e-09
1.25954e-09
1.25746e-09
1.25564e-09
1.2545e-09
1.2537e-09
1.25301e-09
1.25268e-09
1.25223e-09
1.25211e-09
1.25183e-09
1.25182e-09
1.2517e-09
1.25172e-09
1.25163e-09
1.25165e-09
1.2516e-09
1.25161e-09
1.25159e-09
1.25159e-09
1.25161e-09
1.25159e-09
1.25164e-09
1.25162e-09
1.25172e-09
1.25169e-09
1.25181e-09
1.25183e-09
1.2521e-09
1.25223e-09
1.25268e-09
1.25301e-09
1.25369e-09
1.2545e-09
1.25559e-09
1.25744e-09
1.25953e-09
1.26356e-09
1.26785e-09
1.27475e-09
1.28317e-09
1.29364e-09
1.31037e-09
1.31972e-09
1.21187e-09
1.2028e-09
1.18677e-09
1.17665e-09
1.16869e-09
1.16211e-09
1.15813e-09
1.15433e-09
1.15236e-09
1.15063e-09
1.14956e-09
)
;

boundaryField
{
    fuel
    {
        type            fixedValue;
        value           nonuniform 0();
    }
    wall
    {
        type            zeroGradient;
    }
    outlet
    {
        type            zeroGradient;
    }
    frontAndBack
    {
        type            empty;
    }
    procBoundary2to0
    {
        type            processor;
        value           nonuniform List<scalar> 
53
(
5.84189e-09
5.86025e-09
5.86869e-09
5.87466e-09
5.87479e-09
5.87444e-09
5.87234e-09
5.87115e-09
5.86958e-09
5.86881e-09
5.86786e-09
5.86752e-09
5.86697e-09
5.86686e-09
5.86654e-09
5.86656e-09
5.86637e-09
5.86643e-09
5.75488e-09
5.75488e-09
5.75493e-09
5.75486e-09
5.7549e-09
5.75486e-09
5.75489e-09
5.75488e-09
5.75488e-09
5.75489e-09
5.75486e-09
5.64451e-09
5.64451e-09
5.64447e-09
5.64453e-09
5.64449e-09
5.64461e-09
5.64456e-09
5.64474e-09
5.64474e-09
5.64504e-09
5.64516e-09
5.64569e-09
5.64606e-09
5.54232e-09
5.54232e-09
5.54313e-09
5.54464e-09
5.54595e-09
5.5481e-09
5.54895e-09
5.54966e-09
5.5453e-09
5.53973e-09
5.5247e-09
)
;
    }
    procBoundary2to3
    {
        type            processor;
        value           nonuniform List<scalar> 
51
(
1.14883e-09
1.14818e-09
1.14788e-09
1.14745e-09
1.14733e-09
1.14707e-09
1.14706e-09
1.14694e-09
1.14697e-09
1.14688e-09
1.1469e-09
1.14685e-09
1.14686e-09
1.14684e-09
1.14684e-09
1.14686e-09
1.14684e-09
1.14689e-09
1.14687e-09
1.14696e-09
1.14694e-09
1.14706e-09
1.14707e-09
1.14733e-09
1.14745e-09
1.14788e-09
1.14818e-09
1.14883e-09
1.14958e-09
1.1506e-09
1.15237e-09
1.15433e-09
1.15814e-09
1.16212e-09
1.1687e-09
1.17666e-09
1.18678e-09
1.20281e-09
1.21187e-09
1.10895e-09
1.10018e-09
1.08498e-09
1.07516e-09
1.06772e-09
1.06146e-09
1.05779e-09
1.05421e-09
1.05237e-09
1.05073e-09
1.14883e-09
1.04974e-09
)
;
    }
}


// ************************************************************************* //
