/*--------------------------------*- C++ -*----------------------------------*\
| =========                 |                                                 |
| \\      /  F ield         | OpenFOAM: The Open Source CFD Toolbox           |
|  \\    /   O peration     | Version:  dev                                   |
|   \\  /    A nd           | Web:      www.OpenFOAM.org                      |
|    \\/     M anipulation  |                                                 |
\*---------------------------------------------------------------------------*/
FoamFile
{
    version     2.0;
    format      ascii;
    class       volScalarField;
    location    "0.05";
    object      A2C2HA;
}
// * * * * * * * * * * * * * * * * * * * * * * * * * * * * * * * * * * * * * //

dimensions      [0 0 0 0 0 0 0];

internalField   nonuniform List<scalar> 
250
(
1.06095e-09
4.45203e-08
3.05113e-08
2.882e-08
2.86191e-08
2.86172e-08
2.86032e-08
2.86111e-08
2.86082e-08
2.12511e-09
3.56626e-08
2.00202e-08
1.83517e-08
1.81526e-08
1.81394e-08
1.8133e-08
1.81354e-08
1.81354e-08
2.7298e-09
2.76468e-08
1.2518e-08
1.10571e-08
1.08839e-08
1.08692e-08
1.0866e-08
1.08665e-08
1.08672e-08
3.10289e-09
2.33533e-08
8.52454e-09
7.2122e-09
7.06055e-09
7.0468e-09
7.04482e-09
7.04458e-09
7.04555e-09
3.38104e-09
2.11341e-08
6.30465e-09
5.0954e-09
4.9629e-09
4.95092e-09
4.94953e-09
4.94896e-09
4.95006e-09
3.62595e-09
1.99087e-08
4.95229e-09
3.77019e-09
3.6277e-09
3.61453e-09
3.61326e-09
3.61189e-09
3.61359e-09
3.86389e-09
1.91146e-08
4.06013e-09
2.93567e-09
2.80753e-09
2.79644e-09
2.79547e-09
2.79405e-09
2.79577e-09
4.09178e-09
1.84506e-08
3.41687e-09
2.36262e-09
2.21802e-09
2.20309e-09
2.20179e-09
2.19959e-09
2.20184e-09
4.27402e-09
1.77503e-08
2.9139e-09
1.93444e-09
1.819e-09
1.80535e-09
1.80416e-09
1.80193e-09
1.80418e-09
4.34792e-09
1.69281e-08
2.56328e-09
1.59414e-09
1.48872e-09
1.47628e-09
1.47509e-09
1.473e-09
1.47509e-09
4.28518e-09
1.59493e-08
2.2446e-09
1.36898e-09
1.2722e-09
1.2608e-09
1.25964e-09
1.25759e-09
1.25962e-09
1.25885e-09
4.18713e-09
1.48171e-08
1.97783e-09
1.19257e-09
1.09346e-09
1.08175e-09
1.08044e-09
1.07828e-09
1.08038e-09
1.07957e-09
4.20971e-09
1.35595e-08
1.77975e-09
1.04296e-09
9.51441e-10
9.40421e-10
9.39063e-10
9.36992e-10
9.38974e-10
9.38186e-10
4.41386e-09
1.22173e-08
1.59027e-09
9.23922e-10
8.39302e-10
8.28886e-10
8.2747e-10
8.25475e-10
8.27356e-10
8.26583e-10
4.75556e-09
1.08372e-08
1.41738e-09
8.27064e-10
7.48775e-10
7.38897e-10
7.37425e-10
7.35497e-10
7.37289e-10
7.36525e-10
5.14711e-09
9.26347e-09
1.28019e-09
7.46612e-10
6.74126e-10
6.64739e-10
6.63217e-10
6.61351e-10
6.63061e-10
6.62303e-10
5.50129e-09
7.77441e-09
1.14947e-09
6.78446e-10
6.11368e-10
6.02437e-10
6.00875e-10
5.99068e-10
6.007e-10
5.9995e-10
5.74189e-09
6.59006e-09
1.02556e-09
6.19745e-10
5.57713e-10
5.4921e-10
5.47622e-10
5.45876e-10
5.47429e-10
5.46691e-10
5.8141e-09
5.48709e-09
9.28415e-10
5.68576e-10
5.11195e-10
5.031e-10
5.015e-10
4.9982e-10
5.01291e-10
5.00571e-10
5.69889e-09
4.54581e-09
8.36596e-10
5.23481e-10
4.70417e-10
4.62711e-10
4.61114e-10
4.59513e-10
4.60891e-10
4.60201e-10
5.40932e-09
3.72994e-09
7.51711e-10
4.8345e-10
4.3437e-10
4.27035e-10
4.2546e-10
4.23953e-10
4.25224e-10
4.24579e-10
4.98185e-09
3.03584e-09
6.76797e-10
4.47784e-10
4.02309e-10
3.95331e-10
3.93795e-10
3.92406e-10
3.93547e-10
3.92971e-10
4.46556e-09
2.46907e-09
6.11593e-10
4.1598e-10
3.77067e-10
3.70449e-10
3.68954e-10
3.67669e-10
3.68703e-10
3.68193e-10
3.91033e-09
2.01558e-09
5.55393e-10
3.91183e-10
3.54153e-10
3.4783e-10
3.4637e-10
3.4509e-10
3.46101e-10
3.45564e-10
3.35998e-09
1.65745e-09
5.07271e-10
3.67882e-10
3.35524e-10
3.29543e-10
3.28146e-10
3.26995e-10
3.27876e-10
3.27433e-10
2.84864e-09
1.37798e-09
4.71172e-10
3.49964e-10
3.20294e-10
3.14653e-10
3.13332e-10
3.1234e-10
3.13063e-10
3.12745e-10
)
;

boundaryField
{
    fuel
    {
        type            fixedValue;
        value           uniform 0;
    }
    wall
    {
        type            zeroGradient;
    }
    outlet
    {
        type            zeroGradient;
    }
    frontAndBack
    {
        type            empty;
    }
    procBoundary2to0
    {
        type            processor;
        value           nonuniform List<scalar> 
12
(
3.27393e-10
2.40171e-09
1.16336e-09
4.42238e-10
3.35833e-10
3.08714e-10
3.03388e-10
3.02154e-10
3.01362e-10
3.0189e-10
3.12718e-10
3.0174e-10
)
;
    }
    procBoundary2to3
    {
        type            processor;
        value           nonuniform List<scalar> 
25
(
2.86122e-08
1.81361e-08
1.0867e-08
7.04511e-09
4.94959e-09
3.61286e-09
2.79506e-09
2.20098e-09
1.80335e-09
1.47437e-09
1.47437e-09
1.25836e-09
1.0791e-09
9.37752e-10
8.26189e-10
7.3617e-10
6.61988e-10
5.99673e-10
5.46452e-10
5.0037e-10
4.60035e-10
4.24448e-10
3.92872e-10
3.68117e-10
3.45514e-10
)
;
    }
}


// ************************************************************************* //
