/*--------------------------------*- C++ -*----------------------------------*\
| =========                 |                                                 |
| \\      /  F ield         | OpenFOAM: The Open Source CFD Toolbox           |
|  \\    /   O peration     | Version:  dev                                   |
|   \\  /    A nd           | Web:      www.OpenFOAM.org                      |
|    \\/     M anipulation  |                                                 |
\*---------------------------------------------------------------------------*/
FoamFile
{
    version     2.0;
    format      ascii;
    class       volScalarField;
    location    "0.05";
    object      A2R5;
}
// * * * * * * * * * * * * * * * * * * * * * * * * * * * * * * * * * * * * * //

dimensions      [0 0 0 0 0 0 0];

internalField   nonuniform List<scalar> 
1997
(
8.817e-08
8.83513e-08
8.84549e-08
8.85327e-08
8.85587e-08
8.8572e-08
8.85676e-08
8.85681e-08
8.8563e-08
8.85628e-08
8.85596e-08
8.85604e-08
8.85587e-08
8.856e-08
8.8559e-08
8.85604e-08
8.85598e-08
8.85611e-08
8.73649e-08
8.75394e-08
8.7639e-08
8.77146e-08
8.77408e-08
8.77539e-08
8.77505e-08
8.77514e-08
8.77469e-08
8.7747e-08
8.77442e-08
8.77451e-08
8.77436e-08
8.77449e-08
8.77441e-08
8.77455e-08
8.7745e-08
8.77463e-08
8.77461e-08
8.7747e-08
8.77468e-08
8.77474e-08
8.77473e-08
8.77476e-08
8.77476e-08
8.77476e-08
8.77476e-08
8.77473e-08
8.66258e-08
8.67929e-08
8.68895e-08
8.69639e-08
8.69917e-08
8.70054e-08
8.70038e-08
8.70055e-08
8.7002e-08
8.70025e-08
8.70003e-08
8.70015e-08
8.70003e-08
8.70017e-08
8.70011e-08
8.70025e-08
8.70022e-08
8.70035e-08
8.70033e-08
8.70043e-08
8.70041e-08
8.70047e-08
8.70046e-08
8.70049e-08
8.70049e-08
8.70049e-08
8.70049e-08
8.70046e-08
8.70046e-08
8.7004e-08
8.70042e-08
8.70032e-08
8.70033e-08
8.7002e-08
8.70023e-08
8.70009e-08
8.70015e-08
8.7e-08
8.70012e-08
8.70001e-08
8.59384e-08
8.60983e-08
8.61924e-08
8.62659e-08
8.62953e-08
8.63098e-08
8.63099e-08
8.63125e-08
8.63101e-08
8.63111e-08
8.63094e-08
8.63108e-08
8.631e-08
8.63115e-08
8.63111e-08
8.63126e-08
8.63124e-08
8.63137e-08
8.63136e-08
8.63146e-08
8.63145e-08
8.6315e-08
8.6315e-08
8.63153e-08
8.63153e-08
8.63153e-08
8.63153e-08
8.6315e-08
8.6315e-08
8.63144e-08
8.63144e-08
8.63135e-08
8.63135e-08
8.63122e-08
8.63124e-08
8.63109e-08
8.63113e-08
8.63097e-08
8.63105e-08
8.63092e-08
8.63107e-08
8.63097e-08
8.63121e-08
8.63095e-08
8.63094e-08
8.62949e-08
8.62653e-08
8.61919e-08
8.60977e-08
8.59378e-08
8.53023e-08
8.54553e-08
8.55475e-08
8.56201e-08
8.56514e-08
8.56667e-08
8.56687e-08
8.56721e-08
8.56707e-08
8.56722e-08
8.56712e-08
8.56728e-08
8.56723e-08
8.56739e-08
8.56737e-08
8.56752e-08
8.56752e-08
8.56764e-08
8.56765e-08
8.56775e-08
8.56774e-08
8.5678e-08
8.5678e-08
8.56783e-08
8.56783e-08
8.56783e-08
8.56783e-08
8.5678e-08
8.56779e-08
8.56773e-08
8.56773e-08
8.56764e-08
8.56763e-08
8.5675e-08
8.5675e-08
8.56735e-08
8.56737e-08
8.5672e-08
8.56725e-08
8.56709e-08
8.56718e-08
8.56703e-08
8.56717e-08
8.56682e-08
8.56663e-08
8.56509e-08
8.56195e-08
8.55469e-08
8.54547e-08
8.53016e-08
8.47121e-08
8.48608e-08
8.49511e-08
8.50225e-08
8.5054e-08
8.50697e-08
8.50725e-08
8.50764e-08
8.50757e-08
8.50775e-08
8.50768e-08
8.50785e-08
8.50782e-08
8.50799e-08
8.50799e-08
8.50814e-08
8.50814e-08
8.50827e-08
8.50829e-08
8.50838e-08
8.50838e-08
8.50844e-08
8.50844e-08
8.50847e-08
8.50847e-08
8.50847e-08
8.50847e-08
8.50844e-08
8.50843e-08
8.50837e-08
8.50837e-08
8.50827e-08
8.50825e-08
8.50812e-08
8.50812e-08
8.50797e-08
8.50797e-08
8.5078e-08
8.50782e-08
8.50765e-08
8.50771e-08
8.50753e-08
8.5076e-08
8.50721e-08
8.50692e-08
8.50535e-08
8.50219e-08
8.49505e-08
8.48601e-08
8.47114e-08
8.4177e-08
8.43197e-08
8.44089e-08
8.44798e-08
8.45132e-08
8.45299e-08
8.45346e-08
8.45394e-08
8.45397e-08
8.4542e-08
8.45419e-08
8.45438e-08
8.45439e-08
8.45457e-08
8.45459e-08
8.45474e-08
8.45476e-08
8.45489e-08
8.45491e-08
8.45501e-08
8.45501e-08
8.45507e-08
8.45507e-08
8.4551e-08
8.4551e-08
8.4551e-08
8.4551e-08
8.45507e-08
8.45506e-08
8.455e-08
8.45499e-08
8.4549e-08
8.45487e-08
8.45474e-08
8.45472e-08
8.45457e-08
8.45455e-08
8.45437e-08
8.45436e-08
8.45416e-08
8.45416e-08
8.45393e-08
8.4539e-08
8.45341e-08
8.45294e-08
8.45127e-08
8.44793e-08
8.44083e-08
8.4319e-08
8.41764e-08
8.3692e-08
8.38289e-08
8.39175e-08
8.39881e-08
8.40233e-08
8.40412e-08
8.40477e-08
8.40535e-08
8.40548e-08
8.40576e-08
8.40581e-08
8.40603e-08
8.40607e-08
8.40626e-08
8.4063e-08
8.40646e-08
8.40648e-08
8.40661e-08
8.40665e-08
8.40675e-08
8.40676e-08
8.40681e-08
8.40682e-08
8.40685e-08
8.40685e-08
8.40685e-08
8.40685e-08
8.40682e-08
8.4068e-08
8.40675e-08
8.40673e-08
8.40664e-08
8.4066e-08
8.40646e-08
8.40643e-08
8.40627e-08
8.40624e-08
8.40604e-08
8.406e-08
8.40578e-08
8.40573e-08
8.40544e-08
8.40531e-08
8.40473e-08
8.40407e-08
8.40228e-08
8.39875e-08
8.39169e-08
8.38282e-08
8.36913e-08
8.32563e-08
8.33878e-08
8.34762e-08
8.35466e-08
8.35838e-08
8.36029e-08
8.36114e-08
8.36181e-08
8.36204e-08
8.36237e-08
8.36247e-08
8.36272e-08
8.36279e-08
8.36299e-08
8.36305e-08
8.36322e-08
8.36326e-08
8.36339e-08
8.36344e-08
8.36353e-08
8.36355e-08
8.3636e-08
8.36361e-08
8.36364e-08
8.36364e-08
8.36365e-08
8.36364e-08
8.36361e-08
8.3636e-08
8.36354e-08
8.36352e-08
8.36342e-08
8.36337e-08
8.36324e-08
8.36319e-08
8.36303e-08
8.36297e-08
8.36277e-08
8.36269e-08
8.36244e-08
8.36234e-08
8.362e-08
8.36177e-08
8.36109e-08
8.36024e-08
8.35833e-08
8.3546e-08
8.34756e-08
8.33871e-08
8.32556e-08
8.28694e-08
8.29958e-08
8.30844e-08
8.31548e-08
8.31939e-08
8.32143e-08
8.32247e-08
8.32324e-08
8.32357e-08
8.32396e-08
8.32411e-08
8.32438e-08
8.32449e-08
8.3247e-08
8.32478e-08
8.32495e-08
8.325e-08
8.32513e-08
8.3252e-08
8.32529e-08
8.32531e-08
8.32537e-08
8.32538e-08
8.32541e-08
8.32541e-08
8.32541e-08
8.32541e-08
8.32538e-08
8.32536e-08
8.3253e-08
8.32528e-08
8.32518e-08
8.32512e-08
8.32498e-08
8.32493e-08
8.32476e-08
8.32468e-08
8.32446e-08
8.32435e-08
8.32408e-08
8.32392e-08
8.32353e-08
8.3232e-08
8.32242e-08
8.32138e-08
8.31933e-08
8.31542e-08
8.30838e-08
8.29951e-08
8.28687e-08
8.25261e-08
8.26486e-08
8.27373e-08
8.28075e-08
8.28478e-08
8.28693e-08
8.28812e-08
8.28897e-08
8.28938e-08
8.28981e-08
8.29001e-08
8.2903e-08
8.29044e-08
8.29066e-08
8.29075e-08
8.29092e-08
8.29099e-08
8.29112e-08
8.29119e-08
8.29128e-08
8.29131e-08
8.29136e-08
8.29138e-08
8.2914e-08
8.29141e-08
8.29141e-08
8.29141e-08
8.29138e-08
8.29136e-08
8.2913e-08
8.29127e-08
8.29118e-08
8.2911e-08
8.29097e-08
8.2909e-08
8.29073e-08
8.29063e-08
8.29041e-08
8.29027e-08
8.28998e-08
8.28978e-08
8.28934e-08
8.28893e-08
8.28807e-08
8.28688e-08
8.28473e-08
8.28068e-08
8.27366e-08
8.26478e-08
8.25254e-08
8.2234e-08
8.23522e-08
8.24416e-08
8.25121e-08
8.25543e-08
8.25773e-08
8.25911e-08
8.26006e-08
8.26056e-08
8.26105e-08
8.2613e-08
8.26161e-08
8.26177e-08
8.262e-08
8.26212e-08
8.26229e-08
8.26237e-08
8.2625e-08
8.26259e-08
8.26268e-08
8.26271e-08
8.26276e-08
8.26278e-08
8.26281e-08
8.26282e-08
8.26282e-08
8.26281e-08
8.26278e-08
8.26276e-08
8.2627e-08
8.26267e-08
8.26257e-08
8.26249e-08
8.26235e-08
8.26227e-08
8.2621e-08
8.26198e-08
8.26175e-08
8.26158e-08
8.26126e-08
8.26101e-08
8.26052e-08
8.26001e-08
8.25905e-08
8.25767e-08
8.25537e-08
8.25115e-08
8.2441e-08
8.23514e-08
8.22333e-08
8.19836e-08
8.20984e-08
8.21888e-08
8.22597e-08
8.23033e-08
8.23277e-08
8.23431e-08
8.23535e-08
8.23594e-08
8.23648e-08
8.23677e-08
8.23711e-08
8.2373e-08
8.23754e-08
8.23767e-08
8.23785e-08
8.23794e-08
8.23807e-08
8.23817e-08
8.23826e-08
8.2383e-08
8.23835e-08
8.23837e-08
8.2384e-08
8.2384e-08
8.2384e-08
8.2384e-08
8.23837e-08
8.23834e-08
8.23829e-08
8.23825e-08
8.23815e-08
8.23806e-08
8.23792e-08
8.23783e-08
8.23765e-08
8.23752e-08
8.23727e-08
8.23708e-08
8.23674e-08
8.23644e-08
8.2359e-08
8.23531e-08
8.23425e-08
8.23272e-08
8.23027e-08
8.2259e-08
8.21881e-08
8.20976e-08
8.19829e-08
8.17826e-08
8.18937e-08
8.19854e-08
8.20568e-08
8.2102e-08
8.2128e-08
8.21452e-08
8.21567e-08
8.21635e-08
8.21693e-08
8.21727e-08
8.21764e-08
8.21786e-08
8.21811e-08
8.21826e-08
8.21844e-08
8.21854e-08
8.21867e-08
8.21878e-08
8.21887e-08
8.21891e-08
8.21897e-08
8.21899e-08
8.21901e-08
8.21902e-08
8.21902e-08
8.21901e-08
8.21899e-08
8.21896e-08
8.2189e-08
8.21886e-08
8.21877e-08
8.21866e-08
8.21852e-08
8.21841e-08
8.21823e-08
8.21808e-08
8.21783e-08
8.2176e-08
8.21724e-08
8.2169e-08
8.2163e-08
8.21562e-08
8.21446e-08
8.21275e-08
8.21014e-08
8.20561e-08
8.19847e-08
8.1893e-08
8.17819e-08
8.16237e-08
8.17315e-08
8.18241e-08
8.18957e-08
8.19423e-08
8.19697e-08
8.19885e-08
8.20009e-08
8.20085e-08
8.20148e-08
8.20186e-08
8.20225e-08
8.20249e-08
8.20275e-08
8.20292e-08
8.2031e-08
8.20321e-08
8.20335e-08
8.20347e-08
8.20356e-08
8.2036e-08
8.20365e-08
8.20368e-08
8.20371e-08
8.20371e-08
8.20372e-08
8.20371e-08
8.20368e-08
8.20365e-08
8.20359e-08
8.20355e-08
8.20345e-08
8.20333e-08
8.20319e-08
8.20308e-08
8.20289e-08
8.20273e-08
8.20246e-08
8.20221e-08
8.20183e-08
8.20144e-08
8.2008e-08
8.20004e-08
8.19879e-08
8.19691e-08
8.19417e-08
8.1895e-08
8.18234e-08
8.17307e-08
8.1623e-08
8.15053e-08
8.16099e-08
8.17042e-08
8.17764e-08
8.18247e-08
8.18536e-08
8.18742e-08
8.18876e-08
8.1896e-08
8.1903e-08
8.19072e-08
8.19113e-08
8.1914e-08
8.19167e-08
8.19185e-08
8.19204e-08
8.19216e-08
8.1923e-08
8.19243e-08
8.19252e-08
8.19257e-08
8.19262e-08
8.19265e-08
8.19267e-08
8.19268e-08
8.19268e-08
8.19267e-08
8.19264e-08
8.19261e-08
8.19256e-08
8.19251e-08
8.19241e-08
8.19228e-08
8.19214e-08
8.19201e-08
8.19183e-08
8.19164e-08
8.19137e-08
8.19109e-08
8.19068e-08
8.19026e-08
8.18956e-08
8.18871e-08
8.18736e-08
8.1853e-08
8.18241e-08
8.17757e-08
8.17035e-08
8.16091e-08
8.15046e-08
8.1429e-08
8.15307e-08
8.16267e-08
8.16994e-08
8.17495e-08
8.17799e-08
8.18022e-08
8.18165e-08
8.18258e-08
8.18333e-08
8.18379e-08
8.18423e-08
8.18452e-08
8.1848e-08
8.185e-08
8.18518e-08
8.18532e-08
8.18546e-08
8.1856e-08
8.18569e-08
8.18574e-08
8.18579e-08
8.18582e-08
8.18585e-08
8.18586e-08
8.18586e-08
8.18585e-08
8.18582e-08
8.18579e-08
8.18574e-08
8.18568e-08
8.18559e-08
8.18544e-08
8.1853e-08
8.18516e-08
8.18497e-08
8.18477e-08
8.18449e-08
8.18419e-08
8.18375e-08
8.18329e-08
8.18254e-08
8.18161e-08
8.18016e-08
8.17794e-08
8.17488e-08
8.16988e-08
8.1626e-08
8.15299e-08
8.14283e-08
8.13931e-08
8.14922e-08
8.159e-08
8.16633e-08
8.1715e-08
8.17469e-08
8.17707e-08
8.17859e-08
8.17961e-08
8.18041e-08
8.18091e-08
8.18136e-08
8.18168e-08
8.18196e-08
8.18218e-08
8.18237e-08
8.18251e-08
8.18265e-08
8.18281e-08
8.1829e-08
8.18295e-08
8.183e-08
8.18303e-08
8.18306e-08
8.18307e-08
8.18307e-08
8.18306e-08
8.18303e-08
8.183e-08
8.18295e-08
8.18289e-08
8.18279e-08
8.18263e-08
8.18249e-08
8.18235e-08
8.18216e-08
8.18194e-08
8.18165e-08
8.18132e-08
8.18087e-08
8.18037e-08
8.17957e-08
8.17854e-08
8.17701e-08
8.17463e-08
8.17143e-08
8.16626e-08
8.15893e-08
8.14914e-08
8.13924e-08
8.1396e-08
8.14926e-08
8.15923e-08
8.16659e-08
8.17192e-08
8.17525e-08
8.17776e-08
8.17938e-08
8.18046e-08
8.18131e-08
8.18185e-08
8.18233e-08
8.18266e-08
8.18295e-08
8.18318e-08
8.18338e-08
8.18353e-08
8.18366e-08
8.18383e-08
8.18392e-08
8.18398e-08
8.18403e-08
8.18406e-08
8.18409e-08
8.1841e-08
8.1841e-08
8.18409e-08
8.18406e-08
8.18403e-08
8.18398e-08
8.18391e-08
8.18382e-08
8.18365e-08
8.18351e-08
8.18336e-08
8.18316e-08
8.18293e-08
8.18263e-08
8.18228e-08
8.18181e-08
8.18128e-08
8.18042e-08
8.17933e-08
8.1777e-08
8.1752e-08
8.17186e-08
8.16653e-08
8.15916e-08
8.14918e-08
8.13952e-08
8.14345e-08
8.15291e-08
8.16303e-08
8.17044e-08
8.17592e-08
8.17938e-08
8.18203e-08
8.18374e-08
8.18489e-08
8.1858e-08
8.18637e-08
8.18687e-08
8.18722e-08
8.18752e-08
8.18776e-08
8.18796e-08
8.18812e-08
8.18825e-08
8.18844e-08
8.18853e-08
8.18859e-08
8.18864e-08
8.18867e-08
8.1887e-08
8.18871e-08
8.18871e-08
8.1887e-08
8.18867e-08
8.18863e-08
8.18858e-08
8.18852e-08
8.18843e-08
8.18824e-08
8.1881e-08
8.18794e-08
8.18774e-08
8.18749e-08
8.18719e-08
8.18682e-08
8.18633e-08
8.18576e-08
8.18485e-08
8.18369e-08
8.18197e-08
8.17932e-08
8.17586e-08
8.17038e-08
8.16296e-08
8.15283e-08
8.14338e-08
8.15072e-08
8.16001e-08
8.17034e-08
8.17781e-08
8.18345e-08
8.18704e-08
8.18979e-08
8.1916e-08
8.19282e-08
8.19378e-08
8.19438e-08
8.1949e-08
8.19527e-08
8.19557e-08
8.19583e-08
8.19603e-08
8.19619e-08
8.19633e-08
8.19653e-08
8.19661e-08
8.19668e-08
8.19673e-08
8.19676e-08
8.19679e-08
8.1968e-08
8.1968e-08
8.19679e-08
8.19676e-08
8.19672e-08
8.19667e-08
8.19661e-08
8.19652e-08
8.19632e-08
8.19618e-08
8.19601e-08
8.19581e-08
8.19555e-08
8.19524e-08
8.19485e-08
8.19434e-08
8.19374e-08
8.19278e-08
8.19155e-08
8.18973e-08
8.18698e-08
8.18339e-08
8.17774e-08
8.17027e-08
8.15993e-08
8.15065e-08
8.16111e-08
8.17021e-08
8.18069e-08
8.1882e-08
8.19395e-08
8.19766e-08
8.20048e-08
8.20238e-08
8.20365e-08
8.20466e-08
8.20529e-08
8.20582e-08
8.20621e-08
8.20652e-08
8.20678e-08
8.20698e-08
8.20716e-08
8.20729e-08
8.2075e-08
8.20758e-08
8.20765e-08
8.2077e-08
8.20774e-08
8.20776e-08
8.20777e-08
8.20777e-08
8.20776e-08
8.20774e-08
8.20769e-08
8.20765e-08
8.20757e-08
8.20749e-08
8.20727e-08
8.20714e-08
8.20696e-08
8.20676e-08
8.20649e-08
8.20618e-08
8.20577e-08
8.20525e-08
8.20462e-08
8.20361e-08
8.20233e-08
8.20042e-08
8.1976e-08
8.19388e-08
8.18813e-08
8.18062e-08
8.17013e-08
8.16104e-08
8.17449e-08
8.18338e-08
8.19404e-08
8.20159e-08
8.20734e-08
8.21117e-08
8.21403e-08
8.21603e-08
8.21733e-08
8.2184e-08
8.21905e-08
8.2196e-08
8.21999e-08
8.22031e-08
8.22058e-08
8.22078e-08
8.22096e-08
8.22109e-08
8.22132e-08
8.2214e-08
8.22147e-08
8.22151e-08
8.22155e-08
8.22157e-08
8.22159e-08
8.22159e-08
8.22157e-08
8.22155e-08
8.22151e-08
8.22146e-08
8.22139e-08
8.2213e-08
8.22107e-08
8.22094e-08
8.22076e-08
8.22056e-08
8.22028e-08
8.21996e-08
8.21955e-08
8.21901e-08
8.21837e-08
8.21729e-08
8.21597e-08
8.21397e-08
8.21112e-08
8.20727e-08
8.20152e-08
8.19397e-08
8.18331e-08
8.17441e-08
8.1905e-08
8.19921e-08
8.21e-08
8.21757e-08
8.22342e-08
8.22741e-08
8.23034e-08
8.23244e-08
8.23378e-08
8.23492e-08
8.2356e-08
8.23616e-08
8.23657e-08
8.23688e-08
8.23717e-08
8.23737e-08
8.23756e-08
8.23768e-08
8.23772e-08
8.2378e-08
8.23787e-08
8.23792e-08
8.23796e-08
8.23798e-08
8.23799e-08
8.238e-08
8.23798e-08
8.23796e-08
8.23791e-08
8.23787e-08
8.23779e-08
8.23771e-08
8.23767e-08
8.23754e-08
8.23735e-08
8.23715e-08
8.23686e-08
8.23653e-08
8.2361e-08
8.23555e-08
8.23489e-08
8.23374e-08
8.23238e-08
8.23028e-08
8.22736e-08
8.22335e-08
8.2175e-08
8.20993e-08
8.19913e-08
8.19043e-08
8.20896e-08
8.21751e-08
8.22838e-08
8.23595e-08
8.24184e-08
8.24594e-08
8.24888e-08
8.25106e-08
8.25242e-08
8.25362e-08
8.2543e-08
8.25488e-08
8.25529e-08
8.25561e-08
8.25591e-08
8.2561e-08
8.25629e-08
8.25641e-08
8.25648e-08
8.25656e-08
8.25663e-08
8.25667e-08
8.25672e-08
8.25674e-08
8.25676e-08
8.25676e-08
8.25674e-08
8.25672e-08
8.25667e-08
8.25663e-08
8.25655e-08
8.25647e-08
8.2564e-08
8.25628e-08
8.25608e-08
8.25588e-08
8.25559e-08
8.25526e-08
8.25482e-08
8.25426e-08
8.25358e-08
8.25238e-08
8.251e-08
8.24882e-08
8.24588e-08
8.24177e-08
8.23587e-08
8.22831e-08
8.21743e-08
8.20889e-08
8.22995e-08
8.23842e-08
8.24929e-08
8.25646e-08
8.26238e-08
8.26657e-08
8.26952e-08
8.27176e-08
8.27313e-08
8.27439e-08
8.27509e-08
8.27567e-08
8.27608e-08
8.2764e-08
8.2767e-08
8.2769e-08
8.27709e-08
8.27721e-08
8.27728e-08
8.27736e-08
8.27743e-08
8.27747e-08
8.27752e-08
8.27754e-08
8.27755e-08
8.27756e-08
8.27754e-08
8.27752e-08
8.27747e-08
8.27743e-08
8.27735e-08
8.27727e-08
8.2772e-08
8.27708e-08
8.27688e-08
8.27668e-08
8.27638e-08
8.27605e-08
8.27561e-08
8.27504e-08
8.27435e-08
8.27308e-08
8.27171e-08
8.26945e-08
8.26652e-08
8.26231e-08
8.25639e-08
8.24922e-08
8.23835e-08
8.22988e-08
8.25254e-08
8.2609e-08
8.2717e-08
8.27889e-08
8.2849e-08
8.28923e-08
8.29222e-08
8.29454e-08
8.29592e-08
8.29727e-08
8.29799e-08
8.29857e-08
8.299e-08
8.29932e-08
8.29963e-08
8.29982e-08
8.30002e-08
8.30013e-08
8.30021e-08
8.30028e-08
8.30036e-08
8.3004e-08
8.30044e-08
8.30046e-08
8.30048e-08
8.30048e-08
8.30047e-08
8.30044e-08
8.3004e-08
8.30035e-08
8.30027e-08
8.3002e-08
8.30012e-08
8.3e-08
8.2998e-08
8.2996e-08
8.2993e-08
8.29897e-08
8.29851e-08
8.29793e-08
8.29724e-08
8.29588e-08
8.29448e-08
8.29216e-08
8.28917e-08
8.28483e-08
8.27881e-08
8.27163e-08
8.26082e-08
8.25246e-08
8.27726e-08
8.28554e-08
8.29632e-08
8.30351e-08
8.30952e-08
8.3139e-08
8.3169e-08
8.31923e-08
8.3206e-08
8.32139e-08
8.3221e-08
8.32269e-08
8.32312e-08
8.32344e-08
8.32375e-08
8.32394e-08
8.32414e-08
8.32425e-08
8.32433e-08
8.3244e-08
8.32447e-08
8.32451e-08
8.32456e-08
8.32458e-08
8.3246e-08
8.3246e-08
8.32458e-08
8.32456e-08
8.32451e-08
8.32447e-08
8.32439e-08
8.32432e-08
8.32424e-08
8.32412e-08
8.32392e-08
8.32372e-08
8.32341e-08
8.32309e-08
8.32263e-08
8.32205e-08
8.32135e-08
8.32056e-08
8.31917e-08
8.31683e-08
8.31385e-08
8.30944e-08
8.30343e-08
8.29624e-08
8.28546e-08
8.27718e-08
8.3029e-08
8.31105e-08
8.32173e-08
8.32886e-08
8.33483e-08
8.33923e-08
8.34223e-08
8.34457e-08
8.34593e-08
8.34675e-08
8.34747e-08
8.34805e-08
8.34847e-08
8.34879e-08
8.3491e-08
8.3493e-08
8.34949e-08
8.3496e-08
8.34969e-08
8.34975e-08
8.34983e-08
8.34987e-08
8.34991e-08
8.34993e-08
8.34995e-08
8.34995e-08
8.34993e-08
8.34991e-08
8.34986e-08
8.34982e-08
8.34974e-08
8.34968e-08
8.34959e-08
8.34948e-08
8.34928e-08
8.34908e-08
8.34877e-08
8.34844e-08
8.34799e-08
8.34741e-08
8.34672e-08
8.34588e-08
8.34451e-08
8.34217e-08
8.33917e-08
8.33476e-08
8.32879e-08
8.32165e-08
8.31097e-08
8.30282e-08
8.32965e-08
8.33766e-08
8.34821e-08
8.35527e-08
8.3612e-08
8.36566e-08
8.36871e-08
8.37107e-08
8.37243e-08
8.3733e-08
8.37402e-08
8.3746e-08
8.37503e-08
8.37535e-08
8.37566e-08
8.37585e-08
8.37605e-08
8.37616e-08
8.37625e-08
8.37631e-08
8.37638e-08
8.37642e-08
8.37647e-08
8.37649e-08
8.37651e-08
8.37651e-08
8.37649e-08
8.37647e-08
8.37642e-08
8.37638e-08
8.3763e-08
8.37624e-08
8.37614e-08
8.37604e-08
8.37583e-08
8.37564e-08
8.37533e-08
8.375e-08
8.37455e-08
8.37396e-08
8.37327e-08
8.37238e-08
8.37101e-08
8.36864e-08
8.3656e-08
8.36112e-08
8.35519e-08
8.34813e-08
8.33758e-08
8.32957e-08
8.35723e-08
8.36509e-08
8.37548e-08
8.38244e-08
8.38828e-08
8.39272e-08
8.39577e-08
8.39811e-08
8.39945e-08
8.40035e-08
8.40106e-08
8.40163e-08
8.40205e-08
8.40237e-08
8.40268e-08
8.40286e-08
8.40306e-08
8.40316e-08
8.40326e-08
8.40332e-08
8.40339e-08
8.40343e-08
8.40347e-08
8.40349e-08
8.40351e-08
8.40351e-08
8.4035e-08
8.40348e-08
8.40343e-08
8.40339e-08
8.40331e-08
8.40325e-08
8.40315e-08
8.40305e-08
8.40285e-08
8.40266e-08
8.40234e-08
8.40202e-08
8.40158e-08
8.40099e-08
8.40031e-08
8.3994e-08
8.39805e-08
8.3957e-08
8.39266e-08
8.38821e-08
8.38236e-08
8.37541e-08
8.36501e-08
8.35716e-08
8.38561e-08
8.39338e-08
8.40371e-08
8.41059e-08
8.41638e-08
8.42081e-08
8.42388e-08
8.4262e-08
8.42751e-08
8.42843e-08
8.42914e-08
8.4297e-08
8.43012e-08
8.43043e-08
8.43074e-08
8.43092e-08
8.43112e-08
8.43122e-08
8.43131e-08
8.43137e-08
8.43145e-08
8.43148e-08
8.43153e-08
8.43155e-08
8.43157e-08
8.43157e-08
8.43155e-08
8.43153e-08
8.43148e-08
8.43144e-08
8.43137e-08
8.43131e-08
8.43121e-08
8.43111e-08
8.43091e-08
8.43072e-08
8.43041e-08
8.43009e-08
8.42966e-08
8.42907e-08
8.42839e-08
8.42746e-08
8.42613e-08
8.42381e-08
8.42075e-08
8.4163e-08
8.41052e-08
8.40363e-08
8.39331e-08
8.38554e-08
8.41484e-08
8.42244e-08
8.43253e-08
8.43926e-08
8.44491e-08
8.44859e-08
8.45163e-08
8.45389e-08
8.45518e-08
8.45611e-08
8.45681e-08
8.45736e-08
8.45777e-08
8.45807e-08
8.45837e-08
8.45855e-08
8.45875e-08
8.45884e-08
8.45894e-08
8.459e-08
8.45907e-08
8.45911e-08
8.45915e-08
8.45917e-08
8.45919e-08
8.45919e-08
8.45917e-08
8.45915e-08
8.4591e-08
8.45907e-08
8.45899e-08
8.45893e-08
8.45883e-08
8.45873e-08
8.45854e-08
8.45835e-08
8.45805e-08
8.45774e-08
8.45732e-08
8.45673e-08
8.45607e-08
8.45513e-08
8.45383e-08
8.45155e-08
8.44853e-08
8.44483e-08
8.43918e-08
8.43246e-08
8.42236e-08
8.41476e-08
8.4434e-08
8.45082e-08
8.46067e-08
8.46725e-08
8.47272e-08
8.47637e-08
8.47938e-08
8.48162e-08
8.48289e-08
8.48384e-08
8.48454e-08
8.48507e-08
8.48547e-08
8.48577e-08
8.48607e-08
8.48624e-08
8.48643e-08
8.48653e-08
8.48663e-08
8.48668e-08
8.48675e-08
8.48679e-08
8.48683e-08
8.48685e-08
8.48687e-08
8.48687e-08
8.48685e-08
8.48683e-08
8.48679e-08
8.48675e-08
8.48668e-08
8.48662e-08
8.48652e-08
8.48642e-08
8.48623e-08
8.48605e-08
8.48574e-08
8.48544e-08
8.48503e-08
8.48445e-08
8.4838e-08
8.48284e-08
8.48155e-08
8.47931e-08
8.4763e-08
8.47264e-08
8.46717e-08
8.4606e-08
8.45074e-08
8.44333e-08
8.47179e-08
8.479e-08
8.4886e-08
8.495e-08
8.50028e-08
8.50386e-08
8.50679e-08
8.50897e-08
8.51021e-08
8.51115e-08
8.51184e-08
8.51234e-08
8.51274e-08
8.51303e-08
8.51332e-08
8.51349e-08
8.51368e-08
8.51377e-08
8.51387e-08
8.51392e-08
8.51399e-08
8.51403e-08
8.51407e-08
8.51409e-08
8.51411e-08
8.51411e-08
8.51409e-08
8.51407e-08
8.51403e-08
8.51399e-08
8.51392e-08
8.51386e-08
8.51376e-08
8.51367e-08
8.51348e-08
8.5133e-08
8.51301e-08
8.51271e-08
8.51231e-08
8.51175e-08
8.51111e-08
8.51015e-08
8.5089e-08
8.50671e-08
8.50379e-08
8.5002e-08
8.49493e-08
8.48852e-08
8.47892e-08
8.47171e-08
8.49977e-08
8.50676e-08
8.51608e-08
8.52232e-08
8.52746e-08
8.53102e-08
8.53385e-08
8.536e-08
8.53721e-08
8.53814e-08
8.53881e-08
8.5393e-08
8.53968e-08
8.53997e-08
8.54025e-08
8.54042e-08
8.54061e-08
8.5407e-08
8.54079e-08
8.54084e-08
8.54092e-08
8.54095e-08
8.54099e-08
8.54101e-08
8.54103e-08
8.54103e-08
8.54101e-08
8.54099e-08
8.54095e-08
8.54091e-08
8.54084e-08
8.54079e-08
8.54069e-08
8.54059e-08
8.54041e-08
8.54024e-08
8.53995e-08
8.53966e-08
8.53927e-08
8.53872e-08
8.53809e-08
8.53715e-08
8.53592e-08
8.53378e-08
8.53095e-08
8.52738e-08
8.52224e-08
8.516e-08
8.50668e-08
8.49969e-08
8.52714e-08
8.5339e-08
8.54291e-08
8.54894e-08
8.55389e-08
8.55734e-08
8.56006e-08
8.56213e-08
8.56332e-08
8.56423e-08
8.56488e-08
8.56534e-08
8.56571e-08
8.56599e-08
8.56627e-08
8.56643e-08
8.56661e-08
8.5667e-08
8.56679e-08
8.56684e-08
8.56691e-08
8.56694e-08
8.56698e-08
8.567e-08
8.56702e-08
8.56702e-08
8.567e-08
8.56698e-08
8.56694e-08
8.56691e-08
8.56684e-08
8.56678e-08
8.56669e-08
8.5666e-08
8.56642e-08
8.56625e-08
8.56597e-08
8.56569e-08
8.56531e-08
8.56478e-08
8.56418e-08
8.56325e-08
8.56206e-08
8.55999e-08
8.55727e-08
8.5538e-08
8.54887e-08
8.54283e-08
8.53382e-08
8.52706e-08
8.55393e-08
8.56052e-08
8.56924e-08
8.5751e-08
8.57984e-08
8.58321e-08
8.58581e-08
8.5878e-08
8.58896e-08
8.58986e-08
8.59048e-08
8.59091e-08
8.59128e-08
8.59155e-08
8.59181e-08
8.59197e-08
8.59214e-08
8.59223e-08
8.59232e-08
8.59237e-08
8.59244e-08
8.59247e-08
8.59251e-08
8.59253e-08
8.59255e-08
8.59255e-08
8.59253e-08
8.59251e-08
8.59247e-08
8.59244e-08
8.59237e-08
8.59232e-08
8.59222e-08
8.59213e-08
8.59196e-08
8.5918e-08
8.59153e-08
8.59126e-08
8.59089e-08
8.59038e-08
8.5898e-08
8.58889e-08
8.58773e-08
8.58573e-08
8.58314e-08
8.57975e-08
8.57502e-08
8.56917e-08
8.56043e-08
8.55385e-08
8.57953e-08
8.58586e-08
8.59424e-08
8.59987e-08
8.60439e-08
8.60764e-08
8.6101e-08
8.61202e-08
8.61313e-08
8.61401e-08
8.6146e-08
8.61501e-08
8.61536e-08
8.61562e-08
8.61588e-08
8.61603e-08
8.61619e-08
8.61628e-08
8.61637e-08
8.61642e-08
8.61648e-08
8.61651e-08
8.61655e-08
8.61657e-08
8.61659e-08
8.61659e-08
8.61657e-08
8.61655e-08
8.61651e-08
8.61648e-08
8.61641e-08
8.61636e-08
8.61627e-08
8.61618e-08
8.61601e-08
8.61586e-08
8.6156e-08
8.61534e-08
8.61499e-08
8.6145e-08
8.61395e-08
8.61306e-08
8.61194e-08
8.61002e-08
8.60757e-08
8.6043e-08
8.59979e-08
8.59416e-08
8.58578e-08
8.57945e-08
8.60399e-08
8.61007e-08
8.61808e-08
8.62347e-08
8.62776e-08
8.63089e-08
8.63321e-08
8.63503e-08
8.63611e-08
8.63696e-08
8.63752e-08
8.6379e-08
8.63824e-08
8.63849e-08
8.63873e-08
8.63888e-08
8.63904e-08
8.63912e-08
8.63921e-08
8.63925e-08
8.63932e-08
8.63934e-08
8.63938e-08
8.6394e-08
8.63942e-08
8.63942e-08
8.6394e-08
8.63938e-08
8.63934e-08
8.63931e-08
8.63925e-08
8.6392e-08
8.63911e-08
8.63903e-08
8.63887e-08
8.63872e-08
8.63847e-08
8.63822e-08
8.63788e-08
8.63742e-08
8.63689e-08
8.63603e-08
8.63496e-08
8.63313e-08
8.63081e-08
8.62768e-08
8.62339e-08
8.618e-08
8.60999e-08
8.60391e-08
8.6272e-08
8.63301e-08
8.6407e-08
8.64593e-08
8.65004e-08
8.65304e-08
8.65526e-08
8.65699e-08
8.65803e-08
8.65886e-08
8.65939e-08
8.65974e-08
8.66007e-08
8.66031e-08
8.66055e-08
8.66069e-08
8.66084e-08
8.66092e-08
8.661e-08
8.66105e-08
8.66111e-08
8.66114e-08
8.66117e-08
8.66119e-08
8.66121e-08
8.66121e-08
8.66119e-08
8.66118e-08
8.66114e-08
8.66111e-08
8.66104e-08
8.661e-08
8.66091e-08
8.66083e-08
8.66067e-08
8.66053e-08
8.66029e-08
8.66006e-08
8.65973e-08
8.65929e-08
8.65878e-08
8.65795e-08
8.65691e-08
8.65517e-08
8.65296e-08
8.64995e-08
8.64585e-08
8.64063e-08
8.63292e-08
8.62712e-08
8.64902e-08
8.65455e-08
8.66186e-08
8.66684e-08
8.67072e-08
8.67357e-08
8.67565e-08
8.67729e-08
8.67828e-08
8.67907e-08
8.67958e-08
)
;

boundaryField
{
    fuel
    {
        type            fixedValue;
        value           nonuniform 0();
    }
    wall
    {
        type            zeroGradient;
    }
    outlet
    {
        type            zeroGradient;
    }
    frontAndBack
    {
        type            empty;
    }
    procBoundary2to0
    {
        type            processor;
        value           nonuniform List<scalar> 
53
(
8.90123e-08
8.92016e-08
8.93094e-08
8.93885e-08
8.94133e-08
8.94261e-08
8.94201e-08
8.94198e-08
8.94136e-08
8.9413e-08
8.94093e-08
8.94099e-08
8.94077e-08
8.9409e-08
8.94078e-08
8.94092e-08
8.94085e-08
8.94097e-08
8.85608e-08
8.85608e-08
8.85618e-08
8.85615e-08
8.85621e-08
8.8562e-08
8.85623e-08
8.85623e-08
8.85623e-08
8.85623e-08
8.8562e-08
8.77473e-08
8.77473e-08
8.77467e-08
8.77469e-08
8.7746e-08
8.77462e-08
8.77449e-08
8.77454e-08
8.77439e-08
8.77448e-08
8.77434e-08
8.77449e-08
8.7744e-08
8.70022e-08
8.70022e-08
8.70017e-08
8.70051e-08
8.70034e-08
8.7005e-08
8.69913e-08
8.69634e-08
8.6889e-08
8.67923e-08
8.66253e-08
)
;
    }
    procBoundary2to3
    {
        type            processor;
        value           nonuniform List<scalar> 
51
(
8.68e-08
8.68032e-08
8.68054e-08
8.68077e-08
8.6809e-08
8.68105e-08
8.68112e-08
8.6812e-08
8.68125e-08
8.68131e-08
8.68133e-08
8.68137e-08
8.68139e-08
8.6814e-08
8.6814e-08
8.68139e-08
8.68137e-08
8.68133e-08
8.6813e-08
8.68124e-08
8.6812e-08
8.68111e-08
8.68104e-08
8.68089e-08
8.68075e-08
8.68053e-08
8.6803e-08
8.67999e-08
8.67957e-08
8.67909e-08
8.6783e-08
8.67731e-08
8.67567e-08
8.67359e-08
8.67074e-08
8.66686e-08
8.66188e-08
8.65456e-08
8.64904e-08
8.66948e-08
8.67473e-08
8.68161e-08
8.68638e-08
8.69001e-08
8.6927e-08
8.69465e-08
8.69619e-08
8.69714e-08
8.69789e-08
8.68e-08
8.69837e-08
)
;
    }
}


// ************************************************************************* //
