/*--------------------------------*- C++ -*----------------------------------*\
| =========                 |                                                 |
| \\      /  F ield         | OpenFOAM: The Open Source CFD Toolbox           |
|  \\    /   O peration     | Version:  dev                                   |
|   \\  /    A nd           | Web:      www.OpenFOAM.org                      |
|    \\/     M anipulation  |                                                 |
\*---------------------------------------------------------------------------*/
FoamFile
{
    version     2.0;
    format      ascii;
    class       volScalarField;
    location    "0.05";
    object      A3C2H2;
}
// * * * * * * * * * * * * * * * * * * * * * * * * * * * * * * * * * * * * * //

dimensions      [0 0 0 0 0 0 0];

internalField   nonuniform List<scalar> 
1997
(
3.1019e-16
3.11116e-16
3.11428e-16
3.11691e-16
3.11634e-16
3.11588e-16
3.11453e-16
3.11382e-16
3.11292e-16
3.11251e-16
3.112e-16
3.11183e-16
3.11153e-16
3.11149e-16
3.11132e-16
3.11135e-16
3.11124e-16
3.11128e-16
3.03851e-16
3.0472e-16
3.04983e-16
3.05214e-16
3.05135e-16
3.05078e-16
3.04941e-16
3.04865e-16
3.04776e-16
3.04733e-16
3.04681e-16
3.04664e-16
3.04634e-16
3.0463e-16
3.04613e-16
3.04615e-16
3.04604e-16
3.04608e-16
3.04601e-16
3.04604e-16
3.046e-16
3.04603e-16
3.04601e-16
3.04602e-16
3.04602e-16
3.04602e-16
3.04602e-16
3.04601e-16
2.9785e-16
2.98658e-16
2.98877e-16
2.99083e-16
2.98994e-16
2.98932e-16
2.98798e-16
2.98721e-16
2.98634e-16
2.98591e-16
2.98541e-16
2.98524e-16
2.98495e-16
2.9849e-16
2.98474e-16
2.98475e-16
2.98466e-16
2.98469e-16
2.98462e-16
2.98465e-16
2.98461e-16
2.98464e-16
2.98462e-16
2.98463e-16
2.98463e-16
2.98463e-16
2.98463e-16
2.98462e-16
2.98463e-16
2.98461e-16
2.98465e-16
2.98461e-16
2.98468e-16
2.98465e-16
2.98474e-16
2.98473e-16
2.98489e-16
2.98494e-16
2.98523e-16
2.9854e-16
2.92056e-16
2.92805e-16
2.92982e-16
2.93164e-16
2.93066e-16
2.92999e-16
2.92867e-16
2.9279e-16
2.92705e-16
2.92662e-16
2.92613e-16
2.92595e-16
2.92568e-16
2.92563e-16
2.92547e-16
2.92548e-16
2.92539e-16
2.92542e-16
2.92535e-16
2.92538e-16
2.92534e-16
2.92537e-16
2.92535e-16
2.92536e-16
2.92535e-16
2.92535e-16
2.92536e-16
2.92535e-16
2.92536e-16
2.92534e-16
2.92537e-16
2.92534e-16
2.92541e-16
2.92538e-16
2.92547e-16
2.92546e-16
2.92562e-16
2.92567e-16
2.92594e-16
2.92612e-16
2.9266e-16
2.92703e-16
2.92788e-16
2.92865e-16
2.92997e-16
2.93064e-16
2.93162e-16
2.9298e-16
2.92803e-16
2.92054e-16
2.86451e-16
2.87143e-16
2.87281e-16
2.87439e-16
2.87332e-16
2.8726e-16
2.87129e-16
2.87052e-16
2.86969e-16
2.86926e-16
2.86878e-16
2.8686e-16
2.86833e-16
2.86828e-16
2.86813e-16
2.86814e-16
2.86805e-16
2.86808e-16
2.86801e-16
2.86804e-16
2.868e-16
2.86802e-16
2.868e-16
2.86802e-16
2.86801e-16
2.86801e-16
2.86802e-16
2.868e-16
2.86802e-16
2.86799e-16
2.86803e-16
2.868e-16
2.86807e-16
2.86804e-16
2.86813e-16
2.86812e-16
2.86827e-16
2.86832e-16
2.86859e-16
2.86877e-16
2.86924e-16
2.86967e-16
2.8705e-16
2.87127e-16
2.87258e-16
2.8733e-16
2.87437e-16
2.87279e-16
2.87141e-16
2.8645e-16
2.80971e-16
2.81629e-16
2.81725e-16
2.81855e-16
2.81723e-16
2.8164e-16
2.81501e-16
2.81419e-16
2.81333e-16
2.81288e-16
2.81239e-16
2.8122e-16
2.81193e-16
2.81187e-16
2.81171e-16
2.81172e-16
2.81162e-16
2.81165e-16
2.81157e-16
2.8116e-16
2.81156e-16
2.81159e-16
2.81157e-16
2.81158e-16
2.81157e-16
2.81157e-16
2.81158e-16
2.81157e-16
2.81158e-16
2.81156e-16
2.8116e-16
2.81157e-16
2.81164e-16
2.81162e-16
2.81171e-16
2.8117e-16
2.81186e-16
2.81192e-16
2.81219e-16
2.81239e-16
2.81286e-16
2.81332e-16
2.81417e-16
2.815e-16
2.81638e-16
2.81721e-16
2.81853e-16
2.81723e-16
2.81627e-16
2.8097e-16
2.7569e-16
2.76295e-16
2.76355e-16
2.76462e-16
2.7632e-16
2.76231e-16
2.76094e-16
2.7601e-16
2.75926e-16
2.7588e-16
2.75832e-16
2.75813e-16
2.75786e-16
2.7578e-16
2.75764e-16
2.75765e-16
2.75756e-16
2.75758e-16
2.7575e-16
2.75753e-16
2.75749e-16
2.75751e-16
2.75749e-16
2.75751e-16
2.7575e-16
2.7575e-16
2.75751e-16
2.75749e-16
2.75751e-16
2.75749e-16
2.75752e-16
2.7575e-16
2.75757e-16
2.75755e-16
2.75764e-16
2.75764e-16
2.75779e-16
2.75785e-16
2.75812e-16
2.75832e-16
2.75879e-16
2.75924e-16
2.76008e-16
2.76092e-16
2.7623e-16
2.76319e-16
2.7646e-16
2.76354e-16
2.76294e-16
2.75689e-16
2.70547e-16
2.71102e-16
2.71127e-16
2.7121e-16
2.71059e-16
2.70964e-16
2.70827e-16
2.70742e-16
2.70659e-16
2.70613e-16
2.70566e-16
2.70546e-16
2.70519e-16
2.70513e-16
2.70498e-16
2.70498e-16
2.70489e-16
2.70491e-16
2.70484e-16
2.70486e-16
2.70482e-16
2.70484e-16
2.70483e-16
2.70484e-16
2.70483e-16
2.70483e-16
2.70484e-16
2.70483e-16
2.70484e-16
2.70482e-16
2.70486e-16
2.70483e-16
2.70491e-16
2.70489e-16
2.70498e-16
2.70498e-16
2.70513e-16
2.70519e-16
2.70546e-16
2.70565e-16
2.70611e-16
2.70657e-16
2.7074e-16
2.70825e-16
2.70963e-16
2.71058e-16
2.71209e-16
2.71126e-16
2.71101e-16
2.70546e-16
2.65525e-16
2.66033e-16
2.66023e-16
2.66084e-16
2.65923e-16
2.65822e-16
2.65684e-16
2.65598e-16
2.65516e-16
2.65469e-16
2.65423e-16
2.65403e-16
2.65377e-16
2.65371e-16
2.65355e-16
2.65356e-16
2.65347e-16
2.65348e-16
2.65341e-16
2.65343e-16
2.65339e-16
2.65341e-16
2.65339e-16
2.6534e-16
2.6534e-16
2.6534e-16
2.65341e-16
2.65339e-16
2.65341e-16
2.65339e-16
2.65342e-16
2.6534e-16
2.65348e-16
2.65346e-16
2.65355e-16
2.65355e-16
2.6537e-16
2.65376e-16
2.65403e-16
2.65423e-16
2.65468e-16
2.65515e-16
2.65597e-16
2.65683e-16
2.65821e-16
2.65922e-16
2.66082e-16
2.66022e-16
2.66032e-16
2.65524e-16
2.6061e-16
2.61071e-16
2.61028e-16
2.61066e-16
2.60896e-16
2.60788e-16
2.6065e-16
2.60562e-16
2.60481e-16
2.60434e-16
2.60388e-16
2.60368e-16
2.60342e-16
2.60335e-16
2.6032e-16
2.6032e-16
2.60311e-16
2.60313e-16
2.60305e-16
2.60306e-16
2.60303e-16
2.60305e-16
2.60303e-16
2.60304e-16
2.60304e-16
2.60304e-16
2.60304e-16
2.60303e-16
2.60305e-16
2.60303e-16
2.60306e-16
2.60304e-16
2.60312e-16
2.60311e-16
2.6032e-16
2.6032e-16
2.60335e-16
2.60341e-16
2.60367e-16
2.60387e-16
2.60433e-16
2.6048e-16
2.60561e-16
2.60649e-16
2.60787e-16
2.60894e-16
2.61065e-16
2.61027e-16
2.6107e-16
2.60609e-16
2.55723e-16
2.5615e-16
2.56068e-16
2.56079e-16
2.5589e-16
2.5577e-16
2.55624e-16
2.55532e-16
2.55448e-16
2.55398e-16
2.55352e-16
2.5533e-16
2.55303e-16
2.55296e-16
2.55281e-16
2.5528e-16
2.55271e-16
2.55272e-16
2.55263e-16
2.55265e-16
2.55261e-16
2.55263e-16
2.55261e-16
2.55262e-16
2.55262e-16
2.55262e-16
2.55262e-16
2.55261e-16
2.55263e-16
2.55261e-16
2.55265e-16
2.55263e-16
2.55272e-16
2.55271e-16
2.5528e-16
2.55281e-16
2.55296e-16
2.55303e-16
2.5533e-16
2.55351e-16
2.55397e-16
2.55447e-16
2.5553e-16
2.55623e-16
2.55769e-16
2.55889e-16
2.56077e-16
2.56067e-16
2.5615e-16
2.55722e-16
2.5097e-16
2.51355e-16
2.5124e-16
2.51228e-16
2.5103e-16
2.50903e-16
2.50755e-16
2.5066e-16
2.50577e-16
2.50526e-16
2.5048e-16
2.50458e-16
2.50431e-16
2.50424e-16
2.50408e-16
2.50408e-16
2.50398e-16
2.50399e-16
2.5039e-16
2.50391e-16
2.50388e-16
2.50389e-16
2.50388e-16
2.50389e-16
2.50388e-16
2.50388e-16
2.50389e-16
2.50388e-16
2.50389e-16
2.50387e-16
2.50391e-16
2.5039e-16
2.50399e-16
2.50398e-16
2.50407e-16
2.50408e-16
2.50423e-16
2.50431e-16
2.50457e-16
2.50479e-16
2.50525e-16
2.50575e-16
2.50659e-16
2.50753e-16
2.50901e-16
2.51028e-16
2.51227e-16
2.51239e-16
2.51355e-16
2.50969e-16
2.46192e-16
2.46547e-16
2.46398e-16
2.46361e-16
2.4615e-16
2.46011e-16
2.45855e-16
2.45756e-16
2.45671e-16
2.45618e-16
2.45571e-16
2.45548e-16
2.45521e-16
2.45513e-16
2.45497e-16
2.45497e-16
2.45487e-16
2.45487e-16
2.45477e-16
2.45478e-16
2.45475e-16
2.45476e-16
2.45474e-16
2.45475e-16
2.45475e-16
2.45475e-16
2.45476e-16
2.45474e-16
2.45476e-16
2.45474e-16
2.45478e-16
2.45477e-16
2.45487e-16
2.45487e-16
2.45496e-16
2.45497e-16
2.45513e-16
2.45521e-16
2.45548e-16
2.4557e-16
2.45617e-16
2.4567e-16
2.45755e-16
2.45854e-16
2.46009e-16
2.46149e-16
2.4636e-16
2.46397e-16
2.46547e-16
2.46192e-16
2.41543e-16
2.41859e-16
2.41678e-16
2.41618e-16
2.41397e-16
2.41249e-16
2.41091e-16
2.40989e-16
2.40904e-16
2.4085e-16
2.40803e-16
2.4078e-16
2.40752e-16
2.40744e-16
2.40729e-16
2.40728e-16
2.40718e-16
2.40718e-16
2.40707e-16
2.40708e-16
2.40704e-16
2.40706e-16
2.40704e-16
2.40705e-16
2.40704e-16
2.40704e-16
2.40705e-16
2.40704e-16
2.40706e-16
2.40704e-16
2.40708e-16
2.40707e-16
2.40718e-16
2.40718e-16
2.40727e-16
2.40728e-16
2.40744e-16
2.40752e-16
2.40779e-16
2.40802e-16
2.40849e-16
2.40903e-16
2.40988e-16
2.4109e-16
2.41248e-16
2.41396e-16
2.41617e-16
2.41677e-16
2.41859e-16
2.41542e-16
2.36875e-16
2.37154e-16
2.36926e-16
2.36834e-16
2.36593e-16
2.3643e-16
2.36263e-16
2.36155e-16
2.36066e-16
2.36009e-16
2.35961e-16
2.35936e-16
2.35908e-16
2.35899e-16
2.35883e-16
2.35882e-16
2.35872e-16
2.35871e-16
2.35859e-16
2.35859e-16
2.35856e-16
2.35857e-16
2.35855e-16
2.35856e-16
2.35856e-16
2.35856e-16
2.35856e-16
2.35855e-16
2.35857e-16
2.35856e-16
2.35859e-16
2.35858e-16
2.35871e-16
2.35871e-16
2.35881e-16
2.35883e-16
2.35899e-16
2.35908e-16
2.35936e-16
2.3596e-16
2.36008e-16
2.36065e-16
2.36153e-16
2.36262e-16
2.36428e-16
2.36592e-16
2.36833e-16
2.36925e-16
2.37154e-16
2.36874e-16
2.32131e-16
2.32368e-16
2.32112e-16
2.31996e-16
2.31744e-16
2.31572e-16
2.31402e-16
2.31291e-16
2.31203e-16
2.31143e-16
2.31095e-16
2.3107e-16
2.31042e-16
2.31033e-16
2.31017e-16
2.31015e-16
2.31005e-16
2.31005e-16
2.30991e-16
2.30991e-16
2.30988e-16
2.30989e-16
2.30987e-16
2.30988e-16
2.30988e-16
2.30988e-16
2.30988e-16
2.30987e-16
2.30989e-16
2.30987e-16
2.30991e-16
2.3099e-16
2.31004e-16
2.31005e-16
2.31015e-16
2.31017e-16
2.31033e-16
2.31042e-16
2.3107e-16
2.31095e-16
2.31142e-16
2.31202e-16
2.3129e-16
2.31401e-16
2.31571e-16
2.31743e-16
2.31995e-16
2.32111e-16
2.32368e-16
2.3213e-16
2.27384e-16
2.27582e-16
2.27298e-16
2.27158e-16
2.26896e-16
2.26715e-16
2.26542e-16
2.26429e-16
2.26339e-16
2.26278e-16
2.2623e-16
2.26204e-16
2.26176e-16
2.26167e-16
2.2615e-16
2.26148e-16
2.26139e-16
2.26138e-16
2.26122e-16
2.26122e-16
2.26119e-16
2.2612e-16
2.26118e-16
2.26119e-16
2.26119e-16
2.26119e-16
2.26119e-16
2.26118e-16
2.2612e-16
2.26119e-16
2.26122e-16
2.26122e-16
2.26137e-16
2.26138e-16
2.26148e-16
2.2615e-16
2.26167e-16
2.26176e-16
2.26204e-16
2.2623e-16
2.26277e-16
2.26338e-16
2.26427e-16
2.26541e-16
2.26713e-16
2.26894e-16
2.27157e-16
2.27297e-16
2.27582e-16
2.27383e-16
2.22625e-16
2.22785e-16
2.22473e-16
2.2231e-16
2.22036e-16
2.21846e-16
2.21671e-16
2.21555e-16
2.21465e-16
2.21401e-16
2.21353e-16
2.21327e-16
2.21299e-16
2.21289e-16
2.21273e-16
2.21271e-16
2.21261e-16
2.2126e-16
2.21242e-16
2.21242e-16
2.21239e-16
2.2124e-16
2.21238e-16
2.21239e-16
2.21238e-16
2.21238e-16
2.21239e-16
2.21238e-16
2.2124e-16
2.21238e-16
2.21242e-16
2.21242e-16
2.21259e-16
2.2126e-16
2.2127e-16
2.21273e-16
2.21289e-16
2.21299e-16
2.21327e-16
2.21353e-16
2.214e-16
2.21463e-16
2.21554e-16
2.2167e-16
2.21844e-16
2.22035e-16
2.22309e-16
2.22472e-16
2.22784e-16
2.22624e-16
2.17985e-16
2.18112e-16
2.17771e-16
2.17586e-16
2.17299e-16
2.17099e-16
2.16922e-16
2.16803e-16
2.16711e-16
2.16645e-16
2.16597e-16
2.1657e-16
2.16542e-16
2.16532e-16
2.16515e-16
2.16513e-16
2.16503e-16
2.16501e-16
2.16481e-16
2.16481e-16
2.16478e-16
2.16479e-16
2.16477e-16
2.16478e-16
2.16478e-16
2.16478e-16
2.16478e-16
2.16477e-16
2.16479e-16
2.16478e-16
2.16481e-16
2.16481e-16
2.16501e-16
2.16502e-16
2.16512e-16
2.16515e-16
2.16532e-16
2.16542e-16
2.1657e-16
2.16596e-16
2.16644e-16
2.1671e-16
2.16802e-16
2.16921e-16
2.17097e-16
2.17297e-16
2.17584e-16
2.17769e-16
2.18111e-16
2.17984e-16
2.13321e-16
2.13416e-16
2.13046e-16
2.12839e-16
2.12539e-16
2.1233e-16
2.12133e-16
2.12002e-16
2.11902e-16
2.11827e-16
2.11776e-16
2.11746e-16
2.11716e-16
2.11704e-16
2.11686e-16
2.11683e-16
2.11673e-16
2.11671e-16
2.11645e-16
2.11645e-16
2.11641e-16
2.11643e-16
2.11641e-16
2.11642e-16
2.11641e-16
2.11641e-16
2.11642e-16
2.11641e-16
2.11643e-16
2.11641e-16
2.11645e-16
2.11645e-16
2.11671e-16
2.11672e-16
2.11683e-16
2.11686e-16
2.11704e-16
2.11716e-16
2.11746e-16
2.11775e-16
2.11826e-16
2.119e-16
2.12e-16
2.12132e-16
2.12328e-16
2.12537e-16
2.12838e-16
2.13045e-16
2.13415e-16
2.1332e-16
2.086e-16
2.08635e-16
2.08207e-16
2.0796e-16
2.07634e-16
2.0741e-16
2.07205e-16
2.07065e-16
2.06962e-16
2.06881e-16
2.06828e-16
2.06796e-16
2.06765e-16
2.06753e-16
2.06735e-16
2.06731e-16
2.0672e-16
2.06718e-16
2.06688e-16
2.06687e-16
2.06683e-16
2.06685e-16
2.06683e-16
2.06683e-16
2.06683e-16
2.06683e-16
2.06684e-16
2.06683e-16
2.06685e-16
2.06683e-16
2.06687e-16
2.06688e-16
2.06718e-16
2.0672e-16
2.06731e-16
2.06735e-16
2.06753e-16
2.06765e-16
2.06796e-16
2.06827e-16
2.0688e-16
2.0696e-16
2.07064e-16
2.07204e-16
2.07408e-16
2.07633e-16
2.07959e-16
2.08206e-16
2.08634e-16
2.08599e-16
2.03864e-16
2.03868e-16
2.0341e-16
2.03139e-16
2.028e-16
2.02565e-16
2.0236e-16
2.02215e-16
2.02111e-16
2.02024e-16
2.0197e-16
2.01937e-16
2.01907e-16
2.01894e-16
2.01875e-16
2.01872e-16
2.0186e-16
2.01858e-16
2.01824e-16
2.01824e-16
2.0182e-16
2.01821e-16
2.01819e-16
2.0182e-16
2.01819e-16
2.01819e-16
2.0182e-16
2.01819e-16
2.01821e-16
2.0182e-16
2.01824e-16
2.01824e-16
2.01858e-16
2.0186e-16
2.01872e-16
2.01875e-16
2.01894e-16
2.01907e-16
2.01938e-16
2.0197e-16
2.02022e-16
2.02108e-16
2.02214e-16
2.02359e-16
2.02564e-16
2.02799e-16
2.03138e-16
2.03409e-16
2.03866e-16
2.03863e-16
1.99064e-16
1.99044e-16
1.98547e-16
1.98246e-16
1.97926e-16
1.9768e-16
1.97475e-16
1.97326e-16
1.9722e-16
1.97126e-16
1.97071e-16
1.97038e-16
1.97007e-16
1.96995e-16
1.96976e-16
1.96972e-16
1.9696e-16
1.96959e-16
1.9692e-16
1.9692e-16
1.96916e-16
1.96917e-16
1.96915e-16
1.96916e-16
1.96915e-16
1.96915e-16
1.96916e-16
1.96915e-16
1.96917e-16
1.96916e-16
1.9692e-16
1.9692e-16
1.96959e-16
1.9696e-16
1.96972e-16
1.96976e-16
1.96995e-16
1.97007e-16
1.97039e-16
1.97071e-16
1.97124e-16
1.97218e-16
1.97324e-16
1.97474e-16
1.97678e-16
1.97925e-16
1.98245e-16
1.98546e-16
1.99043e-16
1.99063e-16
1.94237e-16
1.9419e-16
1.93664e-16
1.93337e-16
1.92994e-16
1.92722e-16
1.92507e-16
1.92346e-16
1.92236e-16
1.92128e-16
1.92072e-16
1.92036e-16
1.92004e-16
1.9199e-16
1.9197e-16
1.91966e-16
1.91954e-16
1.91953e-16
1.91972e-16
1.91973e-16
1.91969e-16
1.9197e-16
1.91968e-16
1.91969e-16
1.91968e-16
1.91968e-16
1.91969e-16
1.91968e-16
1.9197e-16
1.91968e-16
1.91973e-16
1.91972e-16
1.91953e-16
1.91954e-16
1.91966e-16
1.9197e-16
1.9199e-16
1.92004e-16
1.92037e-16
1.92071e-16
1.92127e-16
1.92234e-16
1.92344e-16
1.92506e-16
1.92721e-16
1.92993e-16
1.93336e-16
1.93663e-16
1.94188e-16
1.94236e-16
1.89361e-16
1.89286e-16
1.88735e-16
1.88383e-16
1.88032e-16
1.87748e-16
1.87534e-16
1.87366e-16
1.87257e-16
1.87138e-16
1.87081e-16
1.87045e-16
1.87012e-16
1.86999e-16
1.86978e-16
1.86974e-16
1.86962e-16
1.86961e-16
1.86973e-16
1.86974e-16
1.86969e-16
1.86971e-16
1.86968e-16
1.86969e-16
1.86969e-16
1.86969e-16
1.86969e-16
1.86968e-16
1.8697e-16
1.86969e-16
1.86974e-16
1.86973e-16
1.86961e-16
1.86962e-16
1.86974e-16
1.86978e-16
1.86999e-16
1.87012e-16
1.87046e-16
1.87081e-16
1.87136e-16
1.87255e-16
1.87365e-16
1.87533e-16
1.87746e-16
1.88031e-16
1.88382e-16
1.88733e-16
1.89284e-16
1.8936e-16
1.8435e-16
1.84237e-16
1.83657e-16
1.83384e-16
1.83024e-16
1.82728e-16
1.82516e-16
1.82343e-16
1.82235e-16
1.82103e-16
1.82045e-16
1.82008e-16
1.81976e-16
1.81962e-16
1.81942e-16
1.81937e-16
1.81925e-16
1.81925e-16
1.81935e-16
1.81936e-16
1.81931e-16
1.81933e-16
1.8193e-16
1.81931e-16
1.81931e-16
1.81931e-16
1.81931e-16
1.8193e-16
1.81933e-16
1.81931e-16
1.81936e-16
1.81934e-16
1.81925e-16
1.81925e-16
1.81937e-16
1.81942e-16
1.81962e-16
1.81976e-16
1.8201e-16
1.82045e-16
1.82101e-16
1.82233e-16
1.82342e-16
1.82515e-16
1.82726e-16
1.83023e-16
1.83382e-16
1.83656e-16
1.84235e-16
1.84348e-16
1.79369e-16
1.79229e-16
1.78631e-16
1.78331e-16
1.77942e-16
1.77618e-16
1.77396e-16
1.77213e-16
1.77103e-16
1.76952e-16
1.76892e-16
1.76854e-16
1.7682e-16
1.76805e-16
1.76784e-16
1.76779e-16
1.76766e-16
1.76767e-16
1.76775e-16
1.76776e-16
1.76771e-16
1.76773e-16
1.7677e-16
1.76771e-16
1.7677e-16
1.7677e-16
1.76771e-16
1.7677e-16
1.76773e-16
1.76771e-16
1.76776e-16
1.76774e-16
1.76767e-16
1.76766e-16
1.76779e-16
1.76784e-16
1.76805e-16
1.7682e-16
1.76855e-16
1.76892e-16
1.7695e-16
1.77101e-16
1.77212e-16
1.77395e-16
1.77616e-16
1.77941e-16
1.7833e-16
1.7863e-16
1.79227e-16
1.79368e-16
1.7424e-16
1.74062e-16
1.73433e-16
1.73105e-16
1.72704e-16
1.72367e-16
1.72147e-16
1.71962e-16
1.71855e-16
1.7183e-16
1.71771e-16
1.71732e-16
1.71698e-16
1.71683e-16
1.71662e-16
1.71657e-16
1.71644e-16
1.71645e-16
1.71651e-16
1.71652e-16
1.71648e-16
1.71649e-16
1.71647e-16
1.71648e-16
1.71647e-16
1.71647e-16
1.71648e-16
1.71647e-16
1.71649e-16
1.71648e-16
1.71652e-16
1.71651e-16
1.71644e-16
1.71644e-16
1.71657e-16
1.71662e-16
1.71683e-16
1.71699e-16
1.71733e-16
1.71771e-16
1.71827e-16
1.71853e-16
1.71961e-16
1.72146e-16
1.72365e-16
1.72703e-16
1.73104e-16
1.73432e-16
1.7406e-16
1.74239e-16
1.69168e-16
1.68964e-16
1.68318e-16
1.67973e-16
1.67565e-16
1.67219e-16
1.66997e-16
1.66811e-16
1.66706e-16
1.66674e-16
1.66616e-16
1.66577e-16
1.66543e-16
1.66528e-16
1.66506e-16
1.66501e-16
1.66488e-16
1.66489e-16
1.66494e-16
1.66496e-16
1.66491e-16
1.66493e-16
1.6649e-16
1.66491e-16
1.6649e-16
1.6649e-16
1.66491e-16
1.6649e-16
1.66492e-16
1.66491e-16
1.66496e-16
1.66494e-16
1.66489e-16
1.66488e-16
1.66501e-16
1.66506e-16
1.66528e-16
1.66543e-16
1.66578e-16
1.66616e-16
1.66672e-16
1.66704e-16
1.6681e-16
1.66996e-16
1.67217e-16
1.67565e-16
1.67972e-16
1.68317e-16
1.68962e-16
1.69166e-16
1.64061e-16
1.63834e-16
1.63172e-16
1.62811e-16
1.62395e-16
1.62022e-16
1.61791e-16
1.61597e-16
1.6149e-16
1.61447e-16
1.61387e-16
1.61347e-16
1.61313e-16
1.61297e-16
1.61274e-16
1.61269e-16
1.61256e-16
1.61257e-16
1.6126e-16
1.61262e-16
1.61257e-16
1.61258e-16
1.61256e-16
1.61257e-16
1.61256e-16
1.61256e-16
1.61257e-16
1.61256e-16
1.61258e-16
1.61257e-16
1.61262e-16
1.6126e-16
1.61257e-16
1.61256e-16
1.61269e-16
1.61274e-16
1.61297e-16
1.61313e-16
1.61348e-16
1.61388e-16
1.61445e-16
1.61489e-16
1.61596e-16
1.6179e-16
1.6202e-16
1.62394e-16
1.6281e-16
1.63171e-16
1.63832e-16
1.64059e-16
1.58925e-16
1.58678e-16
1.58001e-16
1.57626e-16
1.57207e-16
1.56823e-16
1.56591e-16
1.56396e-16
1.56291e-16
1.56241e-16
1.56182e-16
1.56141e-16
1.56107e-16
1.56091e-16
1.56069e-16
1.56063e-16
1.5605e-16
1.56051e-16
1.56053e-16
1.56055e-16
1.5605e-16
1.56052e-16
1.56049e-16
1.5605e-16
1.56049e-16
1.56049e-16
1.5605e-16
1.56049e-16
1.56051e-16
1.5605e-16
1.56055e-16
1.56053e-16
1.56051e-16
1.5605e-16
1.56063e-16
1.56069e-16
1.56091e-16
1.56107e-16
1.56142e-16
1.56182e-16
1.56239e-16
1.5629e-16
1.56395e-16
1.5659e-16
1.56821e-16
1.57206e-16
1.57625e-16
1.57999e-16
1.58676e-16
1.58924e-16
1.53724e-16
1.5344e-16
1.52727e-16
1.5233e-16
1.51901e-16
1.51498e-16
1.51261e-16
1.51064e-16
1.50959e-16
1.50902e-16
1.50842e-16
1.508e-16
1.50766e-16
1.5075e-16
1.50727e-16
1.50722e-16
1.50708e-16
1.50709e-16
1.5071e-16
1.50712e-16
1.50708e-16
1.50709e-16
1.50707e-16
1.50707e-16
1.50707e-16
1.50707e-16
1.50707e-16
1.50706e-16
1.50709e-16
1.50708e-16
1.50712e-16
1.5071e-16
1.50709e-16
1.50708e-16
1.50722e-16
1.50727e-16
1.5075e-16
1.50766e-16
1.50801e-16
1.50842e-16
1.50899e-16
1.50958e-16
1.51063e-16
1.5126e-16
1.51496e-16
1.519e-16
1.52329e-16
1.52726e-16
1.53438e-16
1.53722e-16
1.48406e-16
1.48101e-16
1.4738e-16
1.46974e-16
1.46548e-16
1.46275e-16
1.46038e-16
1.45842e-16
1.4574e-16
1.45677e-16
1.45616e-16
1.45575e-16
1.45541e-16
1.45526e-16
1.45503e-16
1.45497e-16
1.45484e-16
1.45485e-16
1.45485e-16
1.45487e-16
1.45482e-16
1.45484e-16
1.45481e-16
1.45482e-16
1.45481e-16
1.45481e-16
1.45482e-16
1.45481e-16
1.45483e-16
1.45482e-16
1.45487e-16
1.45485e-16
1.45485e-16
1.45484e-16
1.45497e-16
1.45503e-16
1.45526e-16
1.45542e-16
1.45576e-16
1.45617e-16
1.45673e-16
1.45738e-16
1.45841e-16
1.46037e-16
1.46273e-16
1.46547e-16
1.46973e-16
1.47379e-16
1.48099e-16
1.48404e-16
1.43224e-16
1.42902e-16
1.42172e-16
1.41757e-16
1.41336e-16
1.41055e-16
1.40814e-16
1.40613e-16
1.40509e-16
1.40439e-16
1.40378e-16
1.40336e-16
1.40302e-16
1.40286e-16
1.40263e-16
1.40257e-16
1.40243e-16
1.40244e-16
1.40243e-16
1.40245e-16
1.40241e-16
1.40242e-16
1.40239e-16
1.4024e-16
1.40239e-16
1.40239e-16
1.4024e-16
1.40239e-16
1.40242e-16
1.4024e-16
1.40245e-16
1.40243e-16
1.40244e-16
1.40243e-16
1.40257e-16
1.40263e-16
1.40286e-16
1.40302e-16
1.40337e-16
1.40379e-16
1.40436e-16
1.40508e-16
1.40612e-16
1.40813e-16
1.41053e-16
1.41335e-16
1.41755e-16
1.4217e-16
1.429e-16
1.43222e-16
1.38054e-16
1.37717e-16
1.36979e-16
1.36558e-16
1.36143e-16
1.35857e-16
1.35621e-16
1.3542e-16
1.35319e-16
1.35244e-16
1.35183e-16
1.35142e-16
1.35108e-16
1.35092e-16
1.35069e-16
1.35064e-16
1.3505e-16
1.35051e-16
1.35049e-16
1.35051e-16
1.35047e-16
1.35048e-16
1.35046e-16
1.35046e-16
1.35046e-16
1.35046e-16
1.35046e-16
1.35045e-16
1.35048e-16
1.35046e-16
1.35051e-16
1.35049e-16
1.35051e-16
1.3505e-16
1.35064e-16
1.35069e-16
1.35092e-16
1.35108e-16
1.35143e-16
1.35185e-16
1.35241e-16
1.35317e-16
1.35419e-16
1.35619e-16
1.35856e-16
1.36142e-16
1.36556e-16
1.36977e-16
1.37715e-16
1.38052e-16
1.32906e-16
1.32556e-16
1.31813e-16
1.31382e-16
1.30961e-16
1.3066e-16
1.30425e-16
1.30222e-16
1.3012e-16
1.30042e-16
1.29981e-16
1.2994e-16
1.29906e-16
1.2989e-16
1.29867e-16
1.29861e-16
1.29847e-16
1.29848e-16
1.29846e-16
1.29848e-16
1.29843e-16
1.29845e-16
1.29842e-16
1.29843e-16
1.29842e-16
1.29842e-16
1.29843e-16
1.29842e-16
1.29844e-16
1.29843e-16
1.29848e-16
1.29846e-16
1.29848e-16
1.29847e-16
1.29861e-16
1.29867e-16
1.2989e-16
1.29906e-16
1.29941e-16
1.29983e-16
1.30039e-16
1.30118e-16
1.30221e-16
1.30424e-16
1.30658e-16
1.3096e-16
1.3138e-16
1.31811e-16
1.32554e-16
1.32904e-16
1.27791e-16
1.2743e-16
1.26684e-16
1.26249e-16
1.25835e-16
1.25531e-16
1.25302e-16
1.25102e-16
1.25e-16
1.2492e-16
1.2486e-16
1.2482e-16
1.24786e-16
1.2477e-16
1.24747e-16
1.24742e-16
1.24728e-16
1.24729e-16
1.24726e-16
1.24728e-16
1.24723e-16
1.24725e-16
1.24722e-16
1.24723e-16
1.24722e-16
1.24722e-16
1.24723e-16
1.24722e-16
1.24725e-16
1.24723e-16
1.24728e-16
1.24726e-16
1.24729e-16
1.24728e-16
1.24742e-16
1.24747e-16
1.2477e-16
1.24786e-16
1.2482e-16
1.24861e-16
1.24917e-16
1.24998e-16
1.25101e-16
1.253e-16
1.25529e-16
1.25835e-16
1.26247e-16
1.26682e-16
1.27428e-16
1.27789e-16
1.22674e-16
1.22292e-16
1.21532e-16
1.21087e-16
1.20677e-16
1.20367e-16
1.20143e-16
1.19944e-16
1.19843e-16
1.1976e-16
1.19702e-16
1.19661e-16
1.19628e-16
1.19612e-16
1.19589e-16
1.19584e-16
1.1957e-16
1.19571e-16
1.19567e-16
1.19569e-16
1.19565e-16
1.19566e-16
1.19564e-16
1.19565e-16
1.19564e-16
1.19564e-16
1.19565e-16
1.19564e-16
1.19566e-16
1.19565e-16
1.19569e-16
1.19567e-16
1.19571e-16
1.1957e-16
1.19584e-16
1.19589e-16
1.19612e-16
1.19628e-16
1.19661e-16
1.19702e-16
1.19757e-16
1.19841e-16
1.19943e-16
1.20142e-16
1.20365e-16
1.20676e-16
1.21086e-16
1.2153e-16
1.2229e-16
1.22672e-16
1.17657e-16
1.17267e-16
1.16508e-16
1.16062e-16
1.15661e-16
1.1535e-16
1.15134e-16
1.14938e-16
1.14838e-16
1.14754e-16
1.14697e-16
1.14658e-16
1.14624e-16
1.14609e-16
1.14587e-16
1.14581e-16
1.14568e-16
1.14569e-16
1.14565e-16
1.14566e-16
1.14562e-16
1.14563e-16
1.14561e-16
1.14562e-16
1.14561e-16
1.14561e-16
1.14562e-16
1.14561e-16
1.14563e-16
1.14562e-16
1.14566e-16
1.14564e-16
1.14568e-16
1.14568e-16
1.14581e-16
1.14587e-16
1.14609e-16
1.14624e-16
1.14657e-16
1.14698e-16
1.1475e-16
1.14836e-16
1.14936e-16
1.15132e-16
1.15348e-16
1.15659e-16
1.1606e-16
1.16506e-16
1.17265e-16
1.17655e-16
1.1271e-16
1.12313e-16
1.11558e-16
1.1111e-16
1.10718e-16
1.10408e-16
1.10199e-16
1.10008e-16
1.09909e-16
1.09825e-16
1.0977e-16
1.09731e-16
1.09699e-16
1.09684e-16
1.09662e-16
1.09657e-16
1.09644e-16
1.09644e-16
1.0964e-16
1.09642e-16
1.09637e-16
1.09639e-16
1.09636e-16
1.09637e-16
1.09636e-16
1.09636e-16
1.09637e-16
1.09636e-16
1.09638e-16
1.09637e-16
1.09641e-16
1.09639e-16
1.09644e-16
1.09643e-16
1.09657e-16
1.09662e-16
1.09684e-16
1.09699e-16
1.09731e-16
1.0977e-16
1.09822e-16
1.09907e-16
1.10006e-16
1.10198e-16
1.10406e-16
1.10717e-16
1.11109e-16
1.11556e-16
1.12311e-16
1.12707e-16
1.07841e-16
1.0744e-16
1.06673e-16
1.06208e-16
1.05814e-16
1.05499e-16
1.05293e-16
1.05102e-16
1.05004e-16
1.04918e-16
1.04865e-16
1.04826e-16
1.04793e-16
1.04778e-16
1.04756e-16
1.04751e-16
1.04738e-16
1.04739e-16
1.04734e-16
1.04736e-16
1.04731e-16
1.04733e-16
1.0473e-16
1.04731e-16
1.0473e-16
1.0473e-16
1.04731e-16
1.0473e-16
1.04732e-16
1.04731e-16
1.04735e-16
1.04734e-16
1.04738e-16
1.04738e-16
1.04751e-16
1.04756e-16
1.04778e-16
1.04793e-16
1.04825e-16
1.04864e-16
1.04915e-16
1.05002e-16
1.051e-16
1.05292e-16
1.05498e-16
1.05813e-16
1.06207e-16
1.06671e-16
1.07438e-16
1.07839e-16
1.03061e-16
1.02659e-16
1.01897e-16
1.01431e-16
1.01045e-16
1.00735e-16
1.00537e-16
1.0035e-16
1.00254e-16
1.00169e-16
1.00117e-16
)
;

boundaryField
{
    fuel
    {
        type            fixedValue;
        value           nonuniform 0();
    }
    wall
    {
        type            zeroGradient;
    }
    outlet
    {
        type            zeroGradient;
    }
    frontAndBack
    {
        type            empty;
    }
    procBoundary2to0
    {
        type            processor;
        value           nonuniform List<scalar> 
53
(
3.16655e-16
3.17647e-16
3.18009e-16
3.18298e-16
3.1825e-16
3.18209e-16
3.18071e-16
3.18e-16
3.17908e-16
3.17866e-16
3.17813e-16
3.17796e-16
3.17766e-16
3.17762e-16
3.17744e-16
3.17747e-16
3.17736e-16
3.17741e-16
3.11122e-16
3.11122e-16
3.11125e-16
3.11121e-16
3.11124e-16
3.11122e-16
3.11123e-16
3.11123e-16
3.11123e-16
3.11123e-16
3.11122e-16
3.04603e-16
3.04603e-16
3.046e-16
3.04604e-16
3.04601e-16
3.04608e-16
3.04604e-16
3.04614e-16
3.04612e-16
3.04629e-16
3.04634e-16
3.04663e-16
3.04681e-16
2.9859e-16
2.9859e-16
2.98633e-16
2.9872e-16
2.98796e-16
2.98931e-16
2.98992e-16
2.99081e-16
2.98875e-16
2.98656e-16
2.97849e-16
)
;
    }
    procBoundary2to3
    {
        type            processor;
        value           nonuniform List<scalar> 
51
(
1.00081e-16
1.0005e-16
1.00035e-16
1.00014e-16
1.00009e-16
9.99961e-17
9.99965e-17
9.99913e-17
9.99931e-17
9.99888e-17
9.99902e-17
9.99879e-17
9.99887e-17
9.9988e-17
9.9988e-17
9.99887e-17
9.99878e-17
9.99901e-17
9.99886e-17
9.99929e-17
9.99911e-17
9.99963e-17
9.9996e-17
1.00009e-16
1.00014e-16
1.00035e-16
1.0005e-16
1.00081e-16
1.00119e-16
1.00168e-16
1.00254e-16
1.00351e-16
1.00537e-16
1.00735e-16
1.01047e-16
1.01432e-16
1.01898e-16
1.0266e-16
1.03062e-16
9.83819e-17
9.7978e-17
9.72283e-17
9.67568e-17
9.63834e-17
9.60763e-17
9.58863e-17
9.57046e-17
9.56109e-17
9.55273e-17
1.00081e-16
9.54773e-17
)
;
    }
}


// ************************************************************************* //
