/*--------------------------------*- C++ -*----------------------------------*\
| =========                 |                                                 |
| \\      /  F ield         | OpenFOAM: The Open Source CFD Toolbox           |
|  \\    /   O peration     | Version:  dev                                   |
|   \\  /    A nd           | Web:      www.OpenFOAM.org                      |
|    \\/     M anipulation  |                                                 |
\*---------------------------------------------------------------------------*/
FoamFile
{
    version     2.0;
    format      ascii;
    class       volScalarField;
    location    "0.05";
    object      A3C2H;
}
// * * * * * * * * * * * * * * * * * * * * * * * * * * * * * * * * * * * * * //

dimensions      [0 0 0 0 0 0 0];

internalField   nonuniform List<scalar> 
250
(
3.25642e-11
1.23609e-09
7.83517e-10
7.27279e-10
7.20624e-10
7.1994e-10
7.20006e-10
7.19879e-10
7.19933e-10
7.58864e-11
1.68072e-09
8.83474e-10
7.92231e-10
7.8151e-10
7.8048e-10
7.8042e-10
7.80387e-10
7.80463e-10
1.07548e-10
1.85965e-09
8.15022e-10
7.02448e-10
6.89439e-10
6.88202e-10
6.88108e-10
6.88081e-10
6.88164e-10
1.31334e-10
1.91849e-09
7.10368e-10
5.85767e-10
5.71773e-10
5.7048e-10
5.70374e-10
5.70317e-10
5.70423e-10
1.51535e-10
1.90931e-09
6.07419e-10
4.77469e-10
4.63456e-10
4.62211e-10
4.62111e-10
4.6202e-10
4.62156e-10
1.70544e-10
1.85935e-09
5.17127e-10
3.82187e-10
3.66464e-10
3.65065e-10
3.64959e-10
3.6479e-10
3.64993e-10
1.88666e-10
1.7843e-09
4.41634e-10
3.08159e-10
2.93182e-10
2.91936e-10
2.9185e-10
2.91669e-10
2.91884e-10
2.03273e-10
1.69278e-09
3.77968e-10
2.50002e-10
2.32903e-10
2.31209e-10
2.31081e-10
2.30813e-10
2.31089e-10
2.08741e-10
1.58969e-09
3.22742e-10
2.02508e-10
1.88576e-10
1.8701e-10
1.8689e-10
1.86619e-10
1.86895e-10
1.98704e-10
1.47843e-09
2.81563e-10
1.6256e-10
1.49829e-10
1.48405e-10
1.48284e-10
1.48034e-10
1.48288e-10
1.73034e-10
1.36157e-09
2.42523e-10
1.35352e-10
1.23736e-10
1.22451e-10
1.22332e-10
1.22094e-10
1.22336e-10
1.22241e-10
1.41875e-10
1.24156e-09
2.09165e-10
1.13738e-10
1.01952e-10
1.00645e-10
1.00511e-10
1.00267e-10
1.00509e-10
1.00414e-10
1.18974e-10
1.12081e-09
1.84278e-10
9.54182e-11
8.47287e-11
8.35287e-11
8.33905e-11
8.31659e-11
8.33866e-11
8.32982e-11
1.09955e-10
1.00142e-09
1.60582e-10
8.10529e-11
7.13867e-11
7.02831e-11
7.01413e-11
6.99346e-11
7.01355e-11
7.0053e-11
1.12603e-10
8.85256e-10
1.3927e-10
6.96616e-11
6.09419e-11
5.99249e-11
5.97805e-11
5.95897e-11
5.97727e-11
5.96954e-11
1.22233e-10
7.57738e-10
1.22716e-10
6.05202e-11
5.2664e-11
5.17249e-11
5.15789e-11
5.14024e-11
5.15692e-11
5.14964e-11
1.34661e-10
6.39663e-10
1.07269e-10
5.30811e-11
4.60158e-11
4.51469e-11
4.50008e-11
4.4837e-11
4.49892e-11
4.49206e-11
1.46507e-10
5.46494e-10
9.29483e-11
4.69489e-11
4.06038e-11
3.97985e-11
3.96535e-11
3.95014e-11
3.96402e-11
3.95756e-11
1.55248e-10
4.59478e-10
8.19852e-11
4.18376e-11
3.61392e-11
3.5392e-11
3.52493e-11
3.51082e-11
3.52344e-11
3.5174e-11
1.59691e-10
3.84369e-10
7.18536e-11
3.75258e-11
3.24094e-11
3.17153e-11
3.15762e-11
3.1446e-11
3.156e-11
3.1504e-11
1.59606e-10
3.1809e-10
6.26966e-11
3.38517e-11
2.92561e-11
2.86109e-11
2.84765e-11
2.83573e-11
2.8459e-11
2.84082e-11
1.55444e-10
2.60429e-10
5.47923e-11
3.06955e-11
2.65578e-11
2.59581e-11
2.58296e-11
2.57221e-11
2.5811e-11
2.57663e-11
1.48082e-10
2.12211e-10
4.80465e-11
2.79629e-11
2.44923e-11
2.39347e-11
2.38116e-11
2.3713e-11
2.37925e-11
2.37526e-11
1.38482e-10
1.72642e-10
4.2318e-11
2.58684e-11
2.26476e-11
2.21259e-11
2.20073e-11
2.19084e-11
2.19865e-11
2.1943e-11
1.27557e-10
1.40585e-10
3.74435e-11
2.39044e-11
2.11411e-11
2.06573e-11
2.05447e-11
2.04535e-11
2.05235e-11
2.04842e-11
1.16115e-10
1.14926e-10
3.3746e-11
2.2352e-11
1.98598e-11
1.94128e-11
1.93064e-11
1.92227e-11
1.92849e-11
1.92499e-11
)
;

boundaryField
{
    fuel
    {
        type            fixedValue;
        value           uniform 0;
    }
    wall
    {
        type            zeroGradient;
    }
    outlet
    {
        type            zeroGradient;
    }
    frontAndBack
    {
        type            empty;
    }
    procBoundary2to0
    {
        type            processor;
        value           nonuniform List<scalar> 
12
(
2.04813e-11
1.04876e-10
9.46908e-11
3.06567e-11
2.10259e-11
1.87744e-11
1.83615e-11
1.82614e-11
1.81849e-11
1.82398e-11
1.92483e-11
1.82088e-11
)
;
    }
    procBoundary2to3
    {
        type            processor;
        value           nonuniform List<scalar> 
25
(
7.19921e-10
7.8043e-10
6.88127e-10
5.70377e-10
4.62098e-10
3.64905e-10
2.91793e-10
2.3098e-10
1.86791e-10
1.482e-10
1.482e-10
1.22184e-10
1.0036e-10
8.32497e-11
7.00103e-11
5.96581e-11
5.14644e-11
4.48934e-11
3.95529e-11
3.51554e-11
3.14891e-11
2.83967e-11
2.57578e-11
2.37464e-11
2.1939e-11
)
;
    }
}


// ************************************************************************* //
