/*--------------------------------*- C++ -*----------------------------------*\
| =========                 |                                                 |
| \\      /  F ield         | OpenFOAM: The Open Source CFD Toolbox           |
|  \\    /   O peration     | Version:  dev                                   |
|   \\  /    A nd           | Web:      www.OpenFOAM.org                      |
|    \\/     M anipulation  |                                                 |
\*---------------------------------------------------------------------------*/
FoamFile
{
    version     2.0;
    format      ascii;
    class       volScalarField;
    location    "0.05";
    object      AC3H4;
}
// * * * * * * * * * * * * * * * * * * * * * * * * * * * * * * * * * * * * * //

dimensions      [0 0 0 0 0 0 0];

internalField   nonuniform List<scalar> 
250
(
2.83996e-06
1.74856e-05
1.44962e-05
1.41777e-05
1.41179e-05
1.41129e-05
1.41143e-05
1.41136e-05
1.41141e-05
7.0756e-06
4.12605e-06
3.58181e-06
3.49858e-06
3.48977e-06
3.48563e-06
3.48709e-06
3.48633e-06
3.48666e-06
1.46021e-05
2.14887e-06
1.92936e-06
1.88182e-06
1.87848e-06
1.87559e-06
1.87636e-06
1.8759e-06
1.87609e-06
4.73191e-05
1.82592e-06
1.62262e-06
1.57821e-06
1.57466e-06
1.57218e-06
1.57252e-06
1.57226e-06
1.57235e-06
1.84501e-05
1.74328e-06
1.5358e-06
1.48657e-06
1.4823e-06
1.47952e-06
1.47971e-06
1.47949e-06
1.47955e-06
5.56227e-06
1.70511e-06
1.49013e-06
1.43346e-06
1.42842e-06
1.42491e-06
1.42508e-06
1.42483e-06
1.42487e-06
2.99867e-06
1.68654e-06
1.45246e-06
1.38734e-06
1.38129e-06
1.37683e-06
1.37703e-06
1.3767e-06
1.37673e-06
2.57672e-06
1.67279e-06
1.41688e-06
1.34277e-06
1.33502e-06
1.32977e-06
1.33004e-06
1.32962e-06
1.32966e-06
2.6483e-06
1.65865e-06
1.37625e-06
1.29288e-06
1.28933e-06
1.28382e-06
1.2842e-06
1.2837e-06
1.28375e-06
2.86028e-06
1.64018e-06
1.3345e-06
1.24991e-06
1.24451e-06
1.23764e-06
1.23814e-06
1.23749e-06
1.23755e-06
3.11242e-06
1.61729e-06
1.29219e-06
1.20336e-06
1.19672e-06
1.18932e-06
1.18984e-06
1.18912e-06
1.18918e-06
1.18915e-06
3.36047e-06
1.58989e-06
1.25791e-06
1.15843e-06
1.15066e-06
1.14273e-06
1.14328e-06
1.14248e-06
1.14256e-06
1.1426e-06
3.57644e-06
1.55781e-06
1.22193e-06
1.11545e-06
1.10666e-06
1.09832e-06
1.09889e-06
1.09802e-06
1.09812e-06
1.09822e-06
3.74029e-06
1.52121e-06
1.18372e-06
1.07468e-06
1.06496e-06
1.05634e-06
1.05691e-06
1.05599e-06
1.05611e-06
1.05625e-06
3.83145e-06
1.48327e-06
1.14672e-06
1.0363e-06
1.02568e-06
1.01691e-06
1.01747e-06
1.01651e-06
1.01665e-06
1.01683e-06
3.838e-06
1.44236e-06
1.11105e-06
1.00034e-06
9.889e-07
9.80068e-07
9.80607e-07
9.79609e-07
9.79786e-07
9.79985e-07
3.75731e-06
1.39651e-06
1.07675e-06
9.66766e-07
9.54584e-07
9.45784e-07
9.46284e-07
9.45271e-07
9.45476e-07
9.45693e-07
3.59996e-06
1.349e-06
1.04385e-06
9.35502e-07
9.22674e-07
9.13988e-07
9.14437e-07
9.13423e-07
9.13655e-07
9.13884e-07
3.36007e-06
1.30063e-06
1.01234e-06
9.06437e-07
8.93073e-07
8.84583e-07
8.84971e-07
8.8397e-07
8.84226e-07
8.84464e-07
3.10658e-06
1.25225e-06
9.82216e-07
8.79455e-07
8.65665e-07
8.57458e-07
8.57774e-07
8.56803e-07
8.57078e-07
8.57322e-07
2.8178e-06
1.20446e-06
9.53462e-07
8.54444e-07
8.40309e-07
8.32492e-07
8.32718e-07
8.31798e-07
8.32087e-07
8.32334e-07
2.56867e-06
1.15793e-06
9.26092e-07
8.31298e-07
8.16811e-07
8.09546e-07
8.0965e-07
8.08812e-07
8.09103e-07
8.09354e-07
2.28254e-06
1.11297e-06
9.00135e-07
8.12094e-07
7.97918e-07
7.90888e-07
7.9097e-07
7.90158e-07
7.90456e-07
7.90709e-07
2.0697e-06
1.07014e-06
8.75472e-07
7.93503e-07
7.79394e-07
7.7274e-07
7.72748e-07
7.71973e-07
7.72279e-07
7.72518e-07
1.88802e-06
1.02959e-06
8.51824e-07
7.77735e-07
7.63984e-07
7.57711e-07
7.57667e-07
7.56943e-07
7.57244e-07
7.5748e-07
1.71432e-06
9.91511e-07
8.32787e-07
7.63649e-07
7.50304e-07
7.44441e-07
7.4434e-07
7.4367e-07
7.43964e-07
7.44195e-07
)
;

boundaryField
{
    fuel
    {
        type            fixedValue;
        value           uniform 0;
    }
    wall
    {
        type            zeroGradient;
    }
    outlet
    {
        type            zeroGradient;
    }
    frontAndBack
    {
        type            empty;
    }
    procBoundary2to0
    {
        type            processor;
        value           nonuniform List<scalar> 
12
(
7.56862e-07
1.55795e-06
9.55826e-07
8.15106e-07
7.51077e-07
7.38228e-07
7.32769e-07
7.32617e-07
7.31999e-07
7.32283e-07
7.43639e-07
7.32505e-07
)
;
    }
    procBoundary2to3
    {
        type            processor;
        value           nonuniform List<scalar> 
25
(
1.41164e-05
3.48676e-06
1.87603e-06
1.5723e-06
1.4795e-06
1.42481e-06
1.37667e-06
1.3296e-06
1.28369e-06
1.23746e-06
1.23746e-06
1.18887e-06
1.14216e-06
1.09764e-06
1.05556e-06
1.01604e-06
9.79126e-07
9.44779e-07
9.12933e-07
8.835e-07
8.56372e-07
8.31428e-07
8.08524e-07
7.89951e-07
7.71823e-07
)
;
    }
}


// ************************************************************************* //
