/*--------------------------------*- C++ -*----------------------------------*\
| =========                 |                                                 |
| \\      /  F ield         | OpenFOAM: The Open Source CFD Toolbox           |
|  \\    /   O peration     | Version:  dev                                   |
|   \\  /    A nd           | Web:      www.OpenFOAM.org                      |
|    \\/     M anipulation  |                                                 |
\*---------------------------------------------------------------------------*/
FoamFile
{
    version     2.0;
    format      ascii;
    class       volScalarField;
    location    "0.05";
    object      C4H6;
}
// * * * * * * * * * * * * * * * * * * * * * * * * * * * * * * * * * * * * * //

dimensions      [0 0 0 0 0 0 0];

internalField   nonuniform List<scalar> 
25
(
5.51954e-13
6.15704e-13
6.82528e-13
7.46485e-13
8.1312e-13
8.85543e-13
9.69432e-13
1.07362e-12
1.21133e-12
1.40237e-12
1.67685e-12
2.08081e-12
2.68365e-12
3.58809e-12
5.04849e-12
7.21605e-12
1.07032e-11
1.61457e-11
2.48895e-11
3.90362e-11
6.20923e-11
9.98762e-11
1.6198e-10
2.64253e-10
4.3386e-10
)
;

boundaryField
{
    wall
    {
        type            zeroGradient;
    }
    fuel
    {
        type            fixedValue;
        value           nonuniform 0();
    }
    outlet
    {
        type            inletOutlet;
        inletValue      nonuniform 0();
        value           nonuniform 0();
    }
    procBoundary2to1
    {
        type            processor;
        value           uniform 4.88638e-13;
    }
    procBoundary2to3
    {
        type            processor;
        value           uniform 7.05991e-10;
    }
}


// ************************************************************************* //
