/*--------------------------------*- C++ -*----------------------------------*\
| =========                 |                                                 |
| \\      /  F ield         | OpenFOAM: The Open Source CFD Toolbox           |
|  \\    /   O peration     | Version:  dev                                   |
|   \\  /    A nd           | Web:      www.OpenFOAM.org                      |
|    \\/     M anipulation  |                                                 |
\*---------------------------------------------------------------------------*/
FoamFile
{
    version     2.0;
    format      ascii;
    class       volScalarField;
    location    "0.05";
    object      C6H2;
}
// * * * * * * * * * * * * * * * * * * * * * * * * * * * * * * * * * * * * * //

dimensions      [0 0 0 0 0 0 0];

internalField   nonuniform List<scalar> 
250
(
2.6597e-06
7.02488e-05
7.48118e-05
7.49829e-05
7.5085e-05
7.50658e-05
7.50656e-05
7.50634e-05
7.50645e-05
6.09024e-06
7.59071e-05
7.4471e-05
7.33973e-05
7.33857e-05
7.33065e-05
7.33165e-05
7.33077e-05
7.33118e-05
8.17899e-06
6.27284e-05
5.97439e-05
5.80043e-05
5.79733e-05
5.78458e-05
5.78634e-05
5.78484e-05
5.78537e-05
1.22412e-05
5.32587e-05
4.99283e-05
4.77526e-05
4.77154e-05
4.75509e-05
4.75705e-05
4.75528e-05
4.75577e-05
6.57312e-05
4.68196e-05
4.33016e-05
4.0792e-05
4.07453e-05
4.0546e-05
4.05663e-05
4.05466e-05
4.05508e-05
8.27884e-05
4.20617e-05
3.83664e-05
3.55914e-05
3.55234e-05
3.52878e-05
3.53089e-05
3.52868e-05
3.52902e-05
7.71484e-05
3.79609e-05
3.44513e-05
3.14522e-05
3.13387e-05
3.1068e-05
3.10899e-05
3.10651e-05
3.10679e-05
7.10514e-05
3.453e-05
3.12646e-05
2.80515e-05
2.78464e-05
2.7559e-05
2.75824e-05
2.75557e-05
2.7558e-05
6.54438e-05
3.17723e-05
2.81486e-05
2.48005e-05
2.48783e-05
2.46106e-05
2.46373e-05
2.46098e-05
2.46119e-05
5.96064e-05
2.91686e-05
2.53532e-05
2.23433e-05
2.2321e-05
2.2012e-05
2.20423e-05
2.20099e-05
2.20125e-05
5.34337e-05
2.68016e-05
2.28437e-05
1.9975e-05
1.99002e-05
1.95985e-05
1.9627e-05
1.95946e-05
1.95972e-05
1.95931e-05
4.71584e-05
2.4659e-05
2.10058e-05
1.79147e-05
1.78016e-05
1.75044e-05
1.75318e-05
1.74989e-05
1.75017e-05
1.75013e-05
4.10945e-05
2.27041e-05
1.9248e-05
1.61171e-05
1.59766e-05
1.56873e-05
1.57136e-05
1.56804e-05
1.56838e-05
1.56859e-05
3.5451e-05
2.09104e-05
1.75384e-05
1.45469e-05
1.43859e-05
1.4108e-05
1.41329e-05
1.40998e-05
1.41039e-05
1.41076e-05
3.05e-05
1.93691e-05
1.60126e-05
1.31735e-05
1.29965e-05
1.27323e-05
1.27554e-05
1.27229e-05
1.27277e-05
1.27322e-05
2.62815e-05
1.79558e-05
1.46483e-05
1.19697e-05
1.17802e-05
1.15307e-05
1.15518e-05
1.15202e-05
1.15257e-05
1.15306e-05
2.27986e-05
1.65799e-05
1.34249e-05
1.09113e-05
1.07124e-05
1.04783e-05
1.04973e-05
1.04668e-05
1.04729e-05
1.04779e-05
2.00292e-05
1.53155e-05
1.23246e-05
9.97734e-06
9.77218e-06
9.5538e-06
9.57065e-06
9.54146e-06
9.54808e-06
9.55304e-06
1.76832e-05
1.41518e-05
1.13321e-05
9.15005e-06
8.94154e-06
8.73907e-06
8.75371e-06
8.72603e-06
8.73306e-06
8.73786e-06
1.59881e-05
1.3079e-05
1.0434e-05
8.41428e-06
8.20476e-06
8.01859e-06
8.03097e-06
8.00501e-06
8.01232e-06
8.01687e-06
1.45653e-05
1.20882e-05
9.61921e-06
7.75715e-06
7.54785e-06
7.37888e-06
7.3888e-06
7.36487e-06
7.3723e-06
7.37656e-06
1.35538e-05
1.11725e-05
8.87862e-06
7.16763e-06
6.95729e-06
6.80778e-06
6.81463e-06
6.79326e-06
6.80059e-06
6.80456e-06
1.25313e-05
1.03255e-05
8.20471e-06
6.69056e-06
6.49367e-06
6.35367e-06
6.3601e-06
6.33967e-06
6.34704e-06
6.35073e-06
1.17953e-05
9.54289e-06
7.58721e-06
6.23557e-06
6.04467e-06
5.91659e-06
5.92146e-06
5.90206e-06
5.90955e-06
5.91259e-06
1.11525e-05
8.82074e-06
7.01301e-06
5.85368e-06
5.67415e-06
5.55679e-06
5.56071e-06
5.54255e-06
5.5499e-06
5.55262e-06
1.04922e-05
8.15726e-06
6.56313e-06
5.51307e-06
5.34443e-06
5.23755e-06
5.2405e-06
5.22357e-06
5.23075e-06
5.23312e-06
)
;

boundaryField
{
    fuel
    {
        type            fixedValue;
        value           uniform 0;
    }
    wall
    {
        type            zeroGradient;
    }
    outlet
    {
        type            zeroGradient;
    }
    frontAndBack
    {
        type            empty;
    }
    procBoundary2to0
    {
        type            processor;
        value           nonuniform List<scalar> 
12
(
5.53767e-06
9.83344e-06
7.54443e-06
6.15271e-06
5.2076e-06
5.05041e-06
4.95315e-06
4.95529e-06
4.93947e-06
4.94644e-06
5.21947e-06
4.94846e-06
)
;
    }
    procBoundary2to3
    {
        type            processor;
        value           nonuniform List<scalar> 
25
(
7.50574e-05
7.33043e-05
5.78441e-05
4.75469e-05
4.05398e-05
3.52797e-05
3.10587e-05
2.75504e-05
2.46055e-05
2.20058e-05
2.20058e-05
1.95838e-05
1.74856e-05
1.56654e-05
1.40838e-05
1.27065e-05
1.15038e-05
1.04507e-05
9.526e-06
8.71156e-06
7.99192e-06
7.35355e-06
6.78402e-06
6.3323e-06
5.89584e-06
)
;
    }
}


// ************************************************************************* //
