/*--------------------------------*- C++ -*----------------------------------*\
| =========                 |                                                 |
| \\      /  F ield         | OpenFOAM: The Open Source CFD Toolbox           |
|  \\    /   O peration     | Version:  dev                                   |
|   \\  /    A nd           | Web:      www.OpenFOAM.org                      |
|    \\/     M anipulation  |                                                 |
\*---------------------------------------------------------------------------*/
FoamFile
{
    version     2.0;
    format      ascii;
    class       volScalarField;
    location    "0.05";
    object      CH2;
}
// * * * * * * * * * * * * * * * * * * * * * * * * * * * * * * * * * * * * * //

dimensions      [0 0 0 0 0 0 0];

internalField   nonuniform List<scalar> 
1997
(
3.78065e-07
3.78503e-07
3.77805e-07
3.77377e-07
3.76571e-07
3.76059e-07
3.75516e-07
3.75146e-07
3.74818e-07
3.74606e-07
3.74416e-07
3.74303e-07
3.74192e-07
3.74135e-07
3.74069e-07
3.74043e-07
3.74004e-07
3.73991e-07
3.66409e-07
3.66795e-07
3.66014e-07
3.65531e-07
3.64659e-07
3.64124e-07
3.6356e-07
3.63176e-07
3.62841e-07
3.62622e-07
3.62429e-07
3.62314e-07
3.62201e-07
3.62142e-07
3.62076e-07
3.62048e-07
3.62009e-07
3.61996e-07
3.61969e-07
3.61963e-07
3.61948e-07
3.61946e-07
3.61938e-07
3.61937e-07
3.61935e-07
3.61935e-07
3.61937e-07
3.61938e-07
3.54846e-07
3.55167e-07
3.54313e-07
3.53787e-07
3.52875e-07
3.52324e-07
3.51752e-07
3.51362e-07
3.51024e-07
3.50803e-07
3.5061e-07
3.50494e-07
3.5038e-07
3.50322e-07
3.50255e-07
3.50228e-07
3.50188e-07
3.50174e-07
3.50147e-07
3.50141e-07
3.50126e-07
3.50124e-07
3.50116e-07
3.50115e-07
3.50112e-07
3.50113e-07
3.50115e-07
3.50116e-07
3.50125e-07
3.50127e-07
3.50142e-07
3.50149e-07
3.50177e-07
3.5019e-07
3.5023e-07
3.50258e-07
3.50325e-07
3.50384e-07
3.50498e-07
3.50614e-07
3.43184e-07
3.4344e-07
3.42516e-07
3.41947e-07
3.40999e-07
3.40434e-07
3.39854e-07
3.39458e-07
3.39119e-07
3.38896e-07
3.38703e-07
3.38586e-07
3.38473e-07
3.38414e-07
3.38347e-07
3.3832e-07
3.3828e-07
3.38266e-07
3.38238e-07
3.38232e-07
3.38217e-07
3.38215e-07
3.38207e-07
3.38206e-07
3.38203e-07
3.38203e-07
3.38206e-07
3.38207e-07
3.38216e-07
3.38218e-07
3.38233e-07
3.3824e-07
3.38269e-07
3.38283e-07
3.38323e-07
3.38351e-07
3.38418e-07
3.38477e-07
3.3859e-07
3.38707e-07
3.38901e-07
3.39123e-07
3.39462e-07
3.39859e-07
3.40439e-07
3.41004e-07
3.41953e-07
3.42523e-07
3.4345e-07
3.43193e-07
3.31435e-07
3.31626e-07
3.30635e-07
3.30024e-07
3.29046e-07
3.28467e-07
3.2788e-07
3.27479e-07
3.2714e-07
3.26916e-07
3.26723e-07
3.26606e-07
3.26493e-07
3.26435e-07
3.26368e-07
3.2634e-07
3.263e-07
3.26286e-07
3.26257e-07
3.2625e-07
3.26236e-07
3.26233e-07
3.26226e-07
3.26225e-07
3.26222e-07
3.26222e-07
3.26225e-07
3.26226e-07
3.26235e-07
3.26237e-07
3.26252e-07
3.26259e-07
3.26289e-07
3.26303e-07
3.26343e-07
3.26371e-07
3.26438e-07
3.26497e-07
3.2661e-07
3.26727e-07
3.2692e-07
3.27145e-07
3.27484e-07
3.27885e-07
3.28472e-07
3.29052e-07
3.30031e-07
3.30642e-07
3.31637e-07
3.31445e-07
3.19515e-07
3.19685e-07
3.1862e-07
3.1796e-07
3.16923e-07
3.16317e-07
3.15706e-07
3.15292e-07
3.14944e-07
3.14715e-07
3.14518e-07
3.14399e-07
3.14284e-07
3.14224e-07
3.14156e-07
3.14128e-07
3.14087e-07
3.14073e-07
3.14042e-07
3.14035e-07
3.14019e-07
3.14017e-07
3.14009e-07
3.14008e-07
3.14006e-07
3.14006e-07
3.14009e-07
3.14009e-07
3.14018e-07
3.14021e-07
3.14037e-07
3.14044e-07
3.14076e-07
3.1409e-07
3.14132e-07
3.1416e-07
3.14228e-07
3.14288e-07
3.14403e-07
3.14523e-07
3.14719e-07
3.14949e-07
3.15297e-07
3.15712e-07
3.16323e-07
3.16929e-07
3.17967e-07
3.18629e-07
3.19696e-07
3.19525e-07
3.07629e-07
3.07737e-07
3.06612e-07
3.05913e-07
3.04853e-07
3.04234e-07
3.03618e-07
3.032e-07
3.02853e-07
3.02623e-07
3.02427e-07
3.02308e-07
3.02194e-07
3.02135e-07
3.02067e-07
3.02039e-07
3.01998e-07
3.01984e-07
3.01952e-07
3.01944e-07
3.01929e-07
3.01927e-07
3.01919e-07
3.01918e-07
3.01916e-07
3.01916e-07
3.01918e-07
3.01919e-07
3.01928e-07
3.01931e-07
3.01946e-07
3.01954e-07
3.01987e-07
3.02001e-07
3.02043e-07
3.02071e-07
3.02139e-07
3.02198e-07
3.02313e-07
3.02432e-07
3.02628e-07
3.02858e-07
3.03205e-07
3.03624e-07
3.0424e-07
3.04859e-07
3.0592e-07
3.0662e-07
3.07748e-07
3.07639e-07
2.95699e-07
2.95748e-07
2.94565e-07
2.9383e-07
2.92752e-07
2.92121e-07
2.91501e-07
2.9108e-07
2.90735e-07
2.90505e-07
2.90311e-07
2.90192e-07
2.90079e-07
2.9002e-07
2.89952e-07
2.89925e-07
2.89884e-07
2.89869e-07
2.89836e-07
2.89829e-07
2.89814e-07
2.89812e-07
2.89804e-07
2.89803e-07
2.898e-07
2.898e-07
2.89803e-07
2.89804e-07
2.89813e-07
2.89815e-07
2.89831e-07
2.89839e-07
2.89872e-07
2.89887e-07
2.89929e-07
2.89956e-07
2.90024e-07
2.90083e-07
2.90197e-07
2.90316e-07
2.9051e-07
2.9074e-07
2.91086e-07
2.91507e-07
2.92127e-07
2.92758e-07
2.93838e-07
2.94574e-07
2.95759e-07
2.9571e-07
2.83746e-07
2.83735e-07
2.825e-07
2.81732e-07
2.8064e-07
2.79998e-07
2.79375e-07
2.78954e-07
2.78611e-07
2.78381e-07
2.78189e-07
2.78071e-07
2.77959e-07
2.779e-07
2.77833e-07
2.77806e-07
2.77766e-07
2.77751e-07
2.77717e-07
2.77709e-07
2.77694e-07
2.77692e-07
2.77684e-07
2.77684e-07
2.77681e-07
2.77681e-07
2.77684e-07
2.77684e-07
2.77693e-07
2.77696e-07
2.77711e-07
2.77719e-07
2.77754e-07
2.77769e-07
2.7781e-07
2.77837e-07
2.77905e-07
2.77963e-07
2.78076e-07
2.78194e-07
2.78386e-07
2.78616e-07
2.78959e-07
2.79381e-07
2.80004e-07
2.80646e-07
2.81739e-07
2.82508e-07
2.83747e-07
2.83756e-07
2.71788e-07
2.7172e-07
2.70438e-07
2.69639e-07
2.68539e-07
2.67888e-07
2.67264e-07
2.66842e-07
2.66503e-07
2.66273e-07
2.66084e-07
2.65967e-07
2.65856e-07
2.65799e-07
2.65732e-07
2.65706e-07
2.65665e-07
2.6565e-07
2.65615e-07
2.65608e-07
2.65593e-07
2.65591e-07
2.65583e-07
2.65582e-07
2.6558e-07
2.6558e-07
2.65583e-07
2.65583e-07
2.65592e-07
2.65594e-07
2.6561e-07
2.65618e-07
2.65653e-07
2.65669e-07
2.65709e-07
2.65736e-07
2.65803e-07
2.65861e-07
2.65972e-07
2.66089e-07
2.66278e-07
2.66507e-07
2.66847e-07
2.6727e-07
2.67893e-07
2.68545e-07
2.69646e-07
2.70446e-07
2.71732e-07
2.71798e-07
2.59699e-07
2.59603e-07
2.58263e-07
2.57425e-07
2.56304e-07
2.5563e-07
2.5499e-07
2.54562e-07
2.54221e-07
2.53989e-07
2.53799e-07
2.53681e-07
2.5357e-07
2.53513e-07
2.53446e-07
2.53419e-07
2.53378e-07
2.53363e-07
2.53326e-07
2.53318e-07
2.53303e-07
2.53301e-07
2.53293e-07
2.53292e-07
2.53289e-07
2.53289e-07
2.53292e-07
2.53293e-07
2.53302e-07
2.53304e-07
2.5332e-07
2.53328e-07
2.53366e-07
2.53381e-07
2.53422e-07
2.5345e-07
2.53517e-07
2.53575e-07
2.53686e-07
2.53804e-07
2.53993e-07
2.54225e-07
2.54567e-07
2.54996e-07
2.55635e-07
2.56309e-07
2.57432e-07
2.58271e-07
2.59614e-07
2.59709e-07
2.47792e-07
2.47644e-07
2.46267e-07
2.45404e-07
2.44286e-07
2.43606e-07
2.42966e-07
2.42541e-07
2.42204e-07
2.41974e-07
2.41787e-07
2.41672e-07
2.41562e-07
2.41506e-07
2.4144e-07
2.41414e-07
2.41374e-07
2.41358e-07
2.4132e-07
2.41312e-07
2.41297e-07
2.41295e-07
2.41287e-07
2.41287e-07
2.41284e-07
2.41284e-07
2.41287e-07
2.41287e-07
2.41296e-07
2.41298e-07
2.41314e-07
2.41322e-07
2.41361e-07
2.41377e-07
2.41417e-07
2.41444e-07
2.4151e-07
2.41567e-07
2.41676e-07
2.41792e-07
2.41978e-07
2.42208e-07
2.42545e-07
2.42972e-07
2.4361e-07
2.44292e-07
2.45411e-07
2.46275e-07
2.47655e-07
2.47802e-07
2.35739e-07
2.35569e-07
2.34157e-07
2.33267e-07
2.3215e-07
2.31453e-07
2.30805e-07
2.30378e-07
2.30043e-07
2.29812e-07
2.29627e-07
2.29512e-07
2.29404e-07
2.29348e-07
2.29283e-07
2.29257e-07
2.29217e-07
2.29202e-07
2.29161e-07
2.29153e-07
2.29138e-07
2.29137e-07
2.29129e-07
2.29128e-07
2.29125e-07
2.29125e-07
2.29128e-07
2.29129e-07
2.29137e-07
2.29139e-07
2.29155e-07
2.29163e-07
2.29204e-07
2.2922e-07
2.2926e-07
2.29286e-07
2.29352e-07
2.29408e-07
2.29517e-07
2.29632e-07
2.29815e-07
2.30046e-07
2.30382e-07
2.30811e-07
2.31457e-07
2.32156e-07
2.33274e-07
2.34164e-07
2.3558e-07
2.35748e-07
2.23976e-07
2.23761e-07
2.22325e-07
2.21418e-07
2.20313e-07
2.19611e-07
2.1897e-07
2.18546e-07
2.18218e-07
2.17989e-07
2.17809e-07
2.17697e-07
2.17591e-07
2.17536e-07
2.17472e-07
2.17447e-07
2.17408e-07
2.17393e-07
2.1735e-07
2.17343e-07
2.17328e-07
2.17326e-07
2.17319e-07
2.17318e-07
2.17316e-07
2.17316e-07
2.17318e-07
2.17319e-07
2.17327e-07
2.17329e-07
2.17344e-07
2.17352e-07
2.17395e-07
2.1741e-07
2.1745e-07
2.17476e-07
2.1754e-07
2.17595e-07
2.17701e-07
2.17814e-07
2.17993e-07
2.18221e-07
2.1855e-07
2.18976e-07
2.19615e-07
2.20319e-07
2.21424e-07
2.22332e-07
2.23772e-07
2.23985e-07
2.12205e-07
2.11951e-07
2.10462e-07
2.09519e-07
2.08408e-07
2.07688e-07
2.07042e-07
2.06614e-07
2.06288e-07
2.06057e-07
2.0588e-07
2.05768e-07
2.05663e-07
2.0561e-07
2.05546e-07
2.05521e-07
2.05482e-07
2.05467e-07
2.05422e-07
2.05414e-07
2.05399e-07
2.05398e-07
2.0539e-07
2.0539e-07
2.05387e-07
2.05387e-07
2.0539e-07
2.0539e-07
2.05399e-07
2.054e-07
2.05416e-07
2.05424e-07
2.05469e-07
2.05484e-07
2.05524e-07
2.05549e-07
2.05613e-07
2.05667e-07
2.05773e-07
2.05885e-07
2.06061e-07
2.06291e-07
2.06618e-07
2.07048e-07
2.07692e-07
2.08413e-07
2.09525e-07
2.10468e-07
2.11961e-07
2.12214e-07
2.00354e-07
2.00053e-07
1.98561e-07
1.97609e-07
1.96518e-07
1.95802e-07
1.95165e-07
1.94746e-07
1.94428e-07
1.942e-07
1.94029e-07
1.9392e-07
1.93819e-07
1.93767e-07
1.93705e-07
1.93681e-07
1.93643e-07
1.93628e-07
1.93581e-07
1.93574e-07
1.93559e-07
1.93558e-07
1.93551e-07
1.9355e-07
1.93548e-07
1.93548e-07
1.9355e-07
1.93551e-07
1.93559e-07
1.9356e-07
1.93575e-07
1.93583e-07
1.9363e-07
1.93645e-07
1.93683e-07
1.93708e-07
1.9377e-07
1.93823e-07
1.93925e-07
1.94034e-07
1.94203e-07
1.94431e-07
1.94749e-07
1.95171e-07
1.95806e-07
1.96522e-07
1.97614e-07
1.98567e-07
2.00063e-07
2.00361e-07
1.88663e-07
1.88321e-07
1.86833e-07
1.85877e-07
1.84808e-07
1.84098e-07
1.83477e-07
1.83067e-07
1.82758e-07
1.82533e-07
1.82368e-07
1.82262e-07
1.82165e-07
1.82114e-07
1.82054e-07
1.82031e-07
1.81994e-07
1.8198e-07
1.81931e-07
1.81924e-07
1.8191e-07
1.81909e-07
1.81902e-07
1.81901e-07
1.81899e-07
1.81899e-07
1.81902e-07
1.81902e-07
1.8191e-07
1.81911e-07
1.81925e-07
1.81933e-07
1.81981e-07
1.81997e-07
1.82034e-07
1.82057e-07
1.82117e-07
1.82168e-07
1.82267e-07
1.82373e-07
1.82535e-07
1.8276e-07
1.83069e-07
1.83482e-07
1.84101e-07
1.84812e-07
1.85882e-07
1.86839e-07
1.8833e-07
1.8867e-07
1.77156e-07
1.76778e-07
1.75303e-07
1.74348e-07
1.73302e-07
1.72601e-07
1.71999e-07
1.716e-07
1.713e-07
1.71079e-07
1.70921e-07
1.70818e-07
1.70725e-07
1.70676e-07
1.70619e-07
1.70596e-07
1.70561e-07
1.70547e-07
1.70496e-07
1.70489e-07
1.70476e-07
1.70475e-07
1.70468e-07
1.70468e-07
1.70466e-07
1.70466e-07
1.70468e-07
1.70468e-07
1.70476e-07
1.70477e-07
1.70491e-07
1.70498e-07
1.70549e-07
1.70563e-07
1.70599e-07
1.70621e-07
1.70679e-07
1.70728e-07
1.70823e-07
1.70925e-07
1.71081e-07
1.71302e-07
1.71603e-07
1.72004e-07
1.72604e-07
1.73307e-07
1.74353e-07
1.75308e-07
1.76786e-07
1.77163e-07
1.66182e-07
1.6578e-07
1.64315e-07
1.63368e-07
1.62344e-07
1.61652e-07
1.61072e-07
1.60683e-07
1.60394e-07
1.60176e-07
1.60025e-07
1.59925e-07
1.59836e-07
1.59789e-07
1.59734e-07
1.59712e-07
1.59678e-07
1.59665e-07
1.59612e-07
1.59606e-07
1.59593e-07
1.59592e-07
1.59585e-07
1.59585e-07
1.59583e-07
1.59583e-07
1.59585e-07
1.59585e-07
1.59592e-07
1.59593e-07
1.59607e-07
1.59613e-07
1.59666e-07
1.5968e-07
1.59714e-07
1.59736e-07
1.59792e-07
1.59839e-07
1.5993e-07
1.60028e-07
1.60178e-07
1.60395e-07
1.60686e-07
1.61077e-07
1.61655e-07
1.62348e-07
1.63372e-07
1.6432e-07
1.65787e-07
1.66187e-07
1.55449e-07
1.55029e-07
1.53584e-07
1.52648e-07
1.51649e-07
1.50971e-07
1.50378e-07
1.49981e-07
1.49688e-07
1.49464e-07
1.49312e-07
1.49212e-07
1.49123e-07
1.49076e-07
1.49021e-07
1.48999e-07
1.48965e-07
1.48952e-07
1.48891e-07
1.48885e-07
1.48872e-07
1.48871e-07
1.48865e-07
1.48864e-07
1.48862e-07
1.48862e-07
1.48864e-07
1.48865e-07
1.48872e-07
1.48873e-07
1.48886e-07
1.48893e-07
1.48953e-07
1.48967e-07
1.49001e-07
1.49023e-07
1.49079e-07
1.49126e-07
1.49217e-07
1.49316e-07
1.49466e-07
1.49688e-07
1.49983e-07
1.50382e-07
1.50974e-07
1.51653e-07
1.52652e-07
1.53589e-07
1.55034e-07
1.55454e-07
1.44932e-07
1.44439e-07
1.42959e-07
1.42004e-07
1.41007e-07
1.40334e-07
1.39756e-07
1.39363e-07
1.39077e-07
1.38853e-07
1.38706e-07
1.38608e-07
1.38522e-07
1.38477e-07
1.38423e-07
1.38402e-07
1.38369e-07
1.38356e-07
1.3829e-07
1.38284e-07
1.38272e-07
1.38271e-07
1.38265e-07
1.38264e-07
1.38262e-07
1.38262e-07
1.38264e-07
1.38265e-07
1.38271e-07
1.38273e-07
1.38285e-07
1.38291e-07
1.38357e-07
1.38371e-07
1.38404e-07
1.38425e-07
1.38479e-07
1.38525e-07
1.38612e-07
1.38709e-07
1.38855e-07
1.39077e-07
1.39365e-07
1.39759e-07
1.40336e-07
1.41011e-07
1.42007e-07
1.42963e-07
1.44444e-07
1.44936e-07
1.34764e-07
1.34259e-07
1.32811e-07
1.31871e-07
1.30908e-07
1.3025e-07
1.29703e-07
1.29319e-07
1.29047e-07
1.28824e-07
1.28684e-07
1.2859e-07
1.28509e-07
1.28466e-07
1.28415e-07
1.28395e-07
1.28363e-07
1.28352e-07
1.28281e-07
1.28276e-07
1.28264e-07
1.28264e-07
1.28257e-07
1.28257e-07
1.28255e-07
1.28255e-07
1.28257e-07
1.28258e-07
1.28264e-07
1.28265e-07
1.28277e-07
1.28282e-07
1.28353e-07
1.28365e-07
1.28397e-07
1.28417e-07
1.28468e-07
1.28512e-07
1.28595e-07
1.28688e-07
1.28826e-07
1.29047e-07
1.29322e-07
1.29706e-07
1.30252e-07
1.30911e-07
1.31874e-07
1.32815e-07
1.34263e-07
1.34768e-07
1.24876e-07
1.24378e-07
1.22945e-07
1.22013e-07
1.21144e-07
1.20504e-07
1.19991e-07
1.19619e-07
1.19362e-07
1.19139e-07
1.19006e-07
1.18916e-07
1.1884e-07
1.18799e-07
1.1875e-07
1.18732e-07
1.18702e-07
1.18692e-07
1.18615e-07
1.1861e-07
1.18599e-07
1.18599e-07
1.18593e-07
1.18593e-07
1.18591e-07
1.18591e-07
1.18593e-07
1.18593e-07
1.18599e-07
1.186e-07
1.18611e-07
1.18616e-07
1.18693e-07
1.18703e-07
1.18733e-07
1.18752e-07
1.18801e-07
1.18842e-07
1.18921e-07
1.19009e-07
1.1914e-07
1.19362e-07
1.19621e-07
1.19994e-07
1.20506e-07
1.21148e-07
1.22016e-07
1.22948e-07
1.24381e-07
1.2488e-07
1.15373e-07
1.14874e-07
1.13482e-07
1.12569e-07
1.11715e-07
1.11068e-07
1.10569e-07
1.10198e-07
1.09949e-07
1.09719e-07
1.0959e-07
1.09502e-07
1.09428e-07
1.09389e-07
1.09341e-07
1.09323e-07
1.09294e-07
1.09286e-07
1.09312e-07
1.09309e-07
1.09299e-07
1.09299e-07
1.09293e-07
1.09293e-07
1.09291e-07
1.09291e-07
1.09293e-07
1.09293e-07
1.09299e-07
1.09299e-07
1.0931e-07
1.09313e-07
1.09287e-07
1.09295e-07
1.09325e-07
1.09343e-07
1.0939e-07
1.09431e-07
1.09507e-07
1.09593e-07
1.09719e-07
1.09949e-07
1.102e-07
1.10572e-07
1.11069e-07
1.11718e-07
1.12572e-07
1.13485e-07
1.14877e-07
1.15376e-07
1.06238e-07
1.05739e-07
1.04397e-07
1.03504e-07
1.02693e-07
1.02066e-07
1.01602e-07
1.01244e-07
1.01012e-07
1.00779e-07
1.00658e-07
1.00575e-07
1.00505e-07
1.00468e-07
1.00423e-07
1.00407e-07
1.00379e-07
1.00373e-07
1.00384e-07
1.00382e-07
1.00372e-07
1.00372e-07
1.00366e-07
1.00366e-07
1.00364e-07
1.00364e-07
1.00366e-07
1.00366e-07
1.00372e-07
1.00372e-07
1.00382e-07
1.00385e-07
1.00374e-07
1.0038e-07
1.00408e-07
1.00425e-07
1.0047e-07
1.00507e-07
1.00579e-07
1.0066e-07
1.00779e-07
1.01012e-07
1.01246e-07
1.01604e-07
1.02067e-07
1.02696e-07
1.03506e-07
1.044e-07
1.05742e-07
1.0624e-07
9.73452e-08
9.68337e-08
9.55422e-08
9.48353e-08
9.40695e-08
9.3466e-08
9.30361e-08
9.26932e-08
9.24785e-08
9.2241e-08
9.21276e-08
9.20494e-08
9.19848e-08
9.19501e-08
9.19081e-08
9.18924e-08
9.18669e-08
9.18616e-08
9.18698e-08
9.18682e-08
9.18589e-08
9.18586e-08
9.18536e-08
9.18537e-08
9.1852e-08
9.1852e-08
9.18537e-08
9.18536e-08
9.18588e-08
9.18591e-08
9.18686e-08
9.18704e-08
9.18624e-08
9.18679e-08
9.18936e-08
9.19095e-08
9.19517e-08
9.19868e-08
9.2054e-08
9.21299e-08
9.22408e-08
9.24785e-08
9.26949e-08
9.30382e-08
9.34668e-08
9.40722e-08
9.48378e-08
9.55444e-08
9.68356e-08
9.73475e-08
8.89945e-08
8.84878e-08
8.72632e-08
8.65703e-08
8.58156e-08
8.52144e-08
8.4801e-08
8.44665e-08
8.42634e-08
8.40101e-08
8.39019e-08
8.3827e-08
8.37652e-08
8.37321e-08
8.36918e-08
8.36769e-08
8.36525e-08
8.36479e-08
8.36533e-08
8.36521e-08
8.36433e-08
8.36431e-08
8.36383e-08
8.36384e-08
8.36368e-08
8.36367e-08
8.36384e-08
8.36383e-08
8.36432e-08
8.36435e-08
8.36525e-08
8.36538e-08
8.36486e-08
8.36534e-08
8.3678e-08
8.36931e-08
8.37335e-08
8.37671e-08
8.38312e-08
8.39042e-08
8.40096e-08
8.42635e-08
8.44682e-08
8.4803e-08
8.52151e-08
8.58181e-08
8.65726e-08
8.72651e-08
8.84893e-08
8.89964e-08
8.09064e-08
8.03924e-08
7.92185e-08
7.85417e-08
7.78289e-08
7.72558e-08
7.68748e-08
7.65613e-08
7.63775e-08
7.6312e-08
7.6212e-08
7.61424e-08
7.60852e-08
7.60545e-08
7.60169e-08
7.60032e-08
7.59805e-08
7.59768e-08
7.59798e-08
7.59791e-08
7.59709e-08
7.59708e-08
7.59663e-08
7.59665e-08
7.5965e-08
7.5965e-08
7.59665e-08
7.59663e-08
7.59709e-08
7.59711e-08
7.59794e-08
7.59802e-08
7.59774e-08
7.59813e-08
7.60041e-08
7.6018e-08
7.60558e-08
7.60868e-08
7.61462e-08
7.62144e-08
7.63112e-08
7.63778e-08
7.65629e-08
7.68767e-08
7.72563e-08
7.78312e-08
7.85439e-08
7.92202e-08
8.03935e-08
8.0908e-08
7.3393e-08
7.28922e-08
7.1786e-08
7.11399e-08
7.04756e-08
6.99334e-08
6.95798e-08
6.92885e-08
6.9121e-08
6.90504e-08
6.89584e-08
6.88941e-08
6.88413e-08
6.8813e-08
6.87782e-08
6.87656e-08
6.87446e-08
6.87416e-08
6.87428e-08
6.87424e-08
6.87348e-08
6.87348e-08
6.87307e-08
6.87309e-08
6.87295e-08
6.87294e-08
6.87309e-08
6.87307e-08
6.87349e-08
6.87349e-08
6.87426e-08
6.87431e-08
6.87421e-08
6.87453e-08
6.87665e-08
6.87792e-08
6.88142e-08
6.88428e-08
6.88975e-08
6.89608e-08
6.90495e-08
6.91214e-08
6.929e-08
6.95816e-08
6.99339e-08
7.04776e-08
7.11418e-08
7.17875e-08
7.28931e-08
7.33944e-08
6.63134e-08
6.58294e-08
6.47912e-08
6.41789e-08
6.35562e-08
6.30268e-08
6.26895e-08
6.24113e-08
6.2255e-08
6.21767e-08
6.20901e-08
6.20297e-08
6.19799e-08
6.19533e-08
6.19204e-08
6.19086e-08
6.18888e-08
6.18862e-08
6.18859e-08
6.18857e-08
6.18786e-08
6.18787e-08
6.18748e-08
6.1875e-08
6.18737e-08
6.18736e-08
6.1875e-08
6.18748e-08
6.18787e-08
6.18787e-08
6.18859e-08
6.18862e-08
6.18866e-08
6.18894e-08
6.19094e-08
6.19213e-08
6.19544e-08
6.19812e-08
6.20325e-08
6.20927e-08
6.21758e-08
6.22554e-08
6.24128e-08
6.26912e-08
6.30272e-08
6.3558e-08
6.41806e-08
6.47925e-08
6.58302e-08
6.63147e-08
5.96734e-08
5.92095e-08
5.82396e-08
5.76638e-08
5.70895e-08
5.65896e-08
5.62785e-08
5.60216e-08
5.58802e-08
5.5801e-08
5.57217e-08
5.56663e-08
5.56208e-08
5.55966e-08
5.55662e-08
5.55556e-08
5.55373e-08
5.55352e-08
5.55337e-08
5.55338e-08
5.55273e-08
5.55274e-08
5.55238e-08
5.55241e-08
5.55228e-08
5.55228e-08
5.5524e-08
5.55238e-08
5.55275e-08
5.55274e-08
5.55339e-08
5.5534e-08
5.55355e-08
5.55379e-08
5.55563e-08
5.55671e-08
5.55975e-08
5.5622e-08
5.56686e-08
5.57243e-08
5.58e-08
5.58807e-08
5.60229e-08
5.628e-08
5.65899e-08
5.70911e-08
5.76653e-08
5.82406e-08
5.92102e-08
5.96744e-08
5.34266e-08
5.29674e-08
5.20419e-08
5.14922e-08
5.09566e-08
5.04759e-08
5.01854e-08
4.99479e-08
4.98189e-08
4.97397e-08
4.96665e-08
4.96154e-08
4.95738e-08
4.95515e-08
4.95235e-08
4.95137e-08
4.94969e-08
4.9495e-08
4.94928e-08
4.9493e-08
4.9487e-08
4.94872e-08
4.94839e-08
4.94841e-08
4.9483e-08
4.9483e-08
4.94841e-08
4.94839e-08
4.94872e-08
4.9487e-08
4.94931e-08
4.9493e-08
4.94953e-08
4.94974e-08
4.95143e-08
4.95242e-08
4.95523e-08
4.95748e-08
4.96172e-08
4.96693e-08
4.97385e-08
4.98194e-08
4.99491e-08
5.01868e-08
5.04762e-08
5.09579e-08
5.14935e-08
5.20428e-08
5.29681e-08
5.34275e-08
4.75167e-08
4.70803e-08
4.62289e-08
4.57201e-08
4.52342e-08
4.4916e-08
4.46513e-08
4.44349e-08
4.43188e-08
4.42419e-08
4.41751e-08
4.41289e-08
4.40913e-08
4.40711e-08
4.40457e-08
4.40369e-08
4.40216e-08
4.402e-08
4.40172e-08
4.40174e-08
4.40121e-08
4.40123e-08
4.40093e-08
4.40095e-08
4.40085e-08
4.40085e-08
4.40095e-08
4.40092e-08
4.40123e-08
4.40121e-08
4.40175e-08
4.40173e-08
4.40203e-08
4.4022e-08
4.40374e-08
4.40463e-08
4.40719e-08
4.40922e-08
4.41304e-08
4.41779e-08
4.42406e-08
4.43193e-08
4.44361e-08
4.46525e-08
4.49163e-08
4.52354e-08
4.57212e-08
4.62296e-08
4.70809e-08
4.75175e-08
4.21855e-08
4.1775e-08
4.09898e-08
4.05189e-08
4.00812e-08
3.97812e-08
3.95368e-08
3.93354e-08
3.92289e-08
3.91532e-08
3.90915e-08
3.90491e-08
3.90145e-08
3.8996e-08
3.89725e-08
3.89645e-08
3.89504e-08
3.8949e-08
3.89456e-08
3.89459e-08
3.8941e-08
3.89412e-08
3.89384e-08
3.89387e-08
3.89377e-08
3.89377e-08
3.89387e-08
3.89384e-08
3.89412e-08
3.8941e-08
3.8946e-08
3.89457e-08
3.89492e-08
3.89507e-08
3.8965e-08
3.8973e-08
3.89966e-08
3.90152e-08
3.90502e-08
3.90942e-08
3.91518e-08
3.92293e-08
3.93364e-08
3.95377e-08
3.97814e-08
4.00823e-08
4.05198e-08
4.09903e-08
4.17756e-08
4.21862e-08
3.7278e-08
3.68943e-08
3.61739e-08
3.57409e-08
3.53486e-08
3.5072e-08
3.48534e-08
3.46712e-08
3.45757e-08
3.45041e-08
3.44484e-08
3.44106e-08
3.43794e-08
3.43629e-08
3.43417e-08
3.43347e-08
3.43219e-08
3.43207e-08
3.43171e-08
3.43175e-08
3.4313e-08
3.43133e-08
3.43108e-08
3.4311e-08
3.43102e-08
3.43101e-08
3.4311e-08
3.43107e-08
3.43133e-08
3.4313e-08
3.43175e-08
3.43172e-08
3.43208e-08
3.43221e-08
3.4335e-08
3.43422e-08
3.43635e-08
3.43801e-08
3.44114e-08
3.4451e-08
3.45028e-08
3.45761e-08
3.46721e-08
3.48541e-08
3.50723e-08
3.53497e-08
3.57416e-08
3.61743e-08
3.68949e-08
3.72786e-08
3.27832e-08
3.24271e-08
3.17697e-08
3.13702e-08
3.10105e-08
3.07486e-08
3.05524e-08
3.03856e-08
3.02985e-08
3.02321e-08
3.01816e-08
3.01476e-08
3.01191e-08
3.01042e-08
3.00849e-08
3.00786e-08
3.00669e-08
3.00658e-08
3.00623e-08
3.00627e-08
3.00586e-08
3.00589e-08
3.00566e-08
3.00568e-08
3.0056e-08
3.0056e-08
3.00568e-08
3.00565e-08
3.00588e-08
3.00585e-08
3.00627e-08
3.00623e-08
3.00659e-08
3.00671e-08
3.00789e-08
3.00853e-08
3.01046e-08
3.01196e-08
3.01481e-08
3.01838e-08
3.0231e-08
3.02989e-08
3.03864e-08
3.0553e-08
3.07489e-08
3.10116e-08
3.13707e-08
3.177e-08
3.24276e-08
3.27837e-08
2.86881e-08
2.83599e-08
2.77638e-08
2.7401e-08
2.70804e-08
2.68419e-08
2.6669e-08
2.65199e-08
2.64422e-08
2.63807e-08
2.6336e-08
2.63059e-08
2.62803e-08
2.62672e-08
2.62499e-08
2.62444e-08
2.6234e-08
2.62331e-08
2.62295e-08
2.62299e-08
2.62262e-08
2.62265e-08
2.62245e-08
2.62247e-08
2.6224e-08
2.6224e-08
2.62247e-08
2.62245e-08
2.62265e-08
2.62262e-08
2.62299e-08
2.62296e-08
2.62331e-08
2.62342e-08
2.62447e-08
2.62503e-08
2.62676e-08
2.62808e-08
2.63062e-08
2.63379e-08
2.63798e-08
2.64425e-08
2.65206e-08
2.66696e-08
2.68422e-08
2.70818e-08
2.7401e-08
2.7764e-08
2.83604e-08
2.86885e-08
2.49458e-08
2.46376e-08
2.40928e-08
2.37602e-08
2.34747e-08
2.32566e-08
2.31048e-08
2.29715e-08
2.29018e-08
2.28451e-08
2.28059e-08
2.27791e-08
2.27562e-08
2.27445e-08
2.27292e-08
2.27243e-08
2.2715e-08
2.27142e-08
2.27108e-08
2.27111e-08
2.27079e-08
2.27081e-08
2.27063e-08
2.27065e-08
2.27059e-08
2.27059e-08
2.27065e-08
2.27063e-08
2.27081e-08
2.27078e-08
2.27111e-08
2.27108e-08
2.27143e-08
2.27152e-08
2.27246e-08
2.27295e-08
2.27449e-08
2.27566e-08
2.27793e-08
2.28074e-08
2.28444e-08
2.2902e-08
2.2972e-08
2.31053e-08
2.32569e-08
2.34757e-08
2.37605e-08
2.40929e-08
2.46379e-08
2.49461e-08
2.15995e-08
2.13188e-08
2.08301e-08
2.05311e-08
2.028e-08
2.00839e-08
1.99521e-08
1.9834e-08
1.97725e-08
1.97211e-08
1.9687e-08
1.96634e-08
1.96432e-08
1.9633e-08
1.96194e-08
1.96152e-08
1.9607e-08
1.96063e-08
1.9603e-08
1.96033e-08
1.96004e-08
1.96007e-08
1.95991e-08
1.95993e-08
1.95988e-08
1.95987e-08
1.95993e-08
1.95991e-08
1.96007e-08
1.96004e-08
1.96033e-08
1.9603e-08
1.96063e-08
1.96071e-08
1.96154e-08
1.96197e-08
1.96333e-08
1.96435e-08
1.96635e-08
1.96882e-08
1.97204e-08
1.97727e-08
1.98343e-08
1.99525e-08
2.00841e-08
2.02807e-08
2.05313e-08
2.08302e-08
2.1319e-08
2.15997e-08
1.85993e-08
1.83452e-08
1.79102e-08
1.76429e-08
1.74234e-08
1.72484e-08
1.71347e-08
1.70313e-08
1.69772e-08
1.69312e-08
1.69016e-08
1.6881e-08
1.68632e-08
1.68543e-08
1.68425e-08
1.68389e-08
1.68316e-08
1.6831e-08
1.68279e-08
1.68282e-08
1.68257e-08
1.6826e-08
1.68246e-08
1.68248e-08
1.68243e-08
1.68243e-08
1.68247e-08
1.68245e-08
1.6826e-08
1.68257e-08
1.68282e-08
1.68279e-08
1.6831e-08
1.68317e-08
1.6839e-08
1.68427e-08
1.68546e-08
1.68635e-08
1.6881e-08
1.69025e-08
1.69306e-08
1.69773e-08
1.70315e-08
1.7135e-08
1.72486e-08
1.74239e-08
1.76431e-08
1.79102e-08
1.83454e-08
1.85994e-08
1.59246e-08
1.56963e-08
1.53033e-08
1.50582e-08
1.48622e-08
1.47043e-08
1.46048e-08
1.4513e-08
1.44651e-08
1.44238e-08
1.43977e-08
1.43796e-08
1.43638e-08
1.4356e-08
1.43455e-08
1.43424e-08
1.43359e-08
1.43354e-08
1.43325e-08
1.43328e-08
1.43306e-08
1.43308e-08
1.43296e-08
1.43298e-08
1.43293e-08
1.43293e-08
1.43297e-08
1.43295e-08
1.43308e-08
1.43305e-08
1.43328e-08
1.43325e-08
1.43354e-08
1.4336e-08
1.43425e-08
1.43457e-08
1.43562e-08
1.4364e-08
1.43796e-08
1.43984e-08
1.44232e-08
1.44651e-08
1.45132e-08
1.4605e-08
1.47044e-08
1.48626e-08
1.50583e-08
1.53032e-08
1.56964e-08
1.59245e-08
1.35539e-08
1.33507e-08
1.30043e-08
1.27869e-08
1.26168e-08
1.24783e-08
1.23934e-08
1.23137e-08
1.22723e-08
1.2236e-08
1.22136e-08
)
;

boundaryField
{
    fuel
    {
        type            fixedValue;
        value           nonuniform 0();
    }
    wall
    {
        type            zeroGradient;
    }
    outlet
    {
        type            zeroGradient;
    }
    frontAndBack
    {
        type            empty;
    }
    procBoundary2to0
    {
        type            processor;
        value           nonuniform List<scalar> 
53
(
3.89392e-07
3.89895e-07
3.89274e-07
3.88891e-07
3.88129e-07
3.87634e-07
3.87101e-07
3.86739e-07
3.86414e-07
3.86204e-07
3.86015e-07
3.85903e-07
3.85793e-07
3.85736e-07
3.85671e-07
3.85644e-07
3.85606e-07
3.85594e-07
3.73965e-07
3.73965e-07
3.73959e-07
3.73945e-07
3.73943e-07
3.73935e-07
3.73935e-07
3.73932e-07
3.73932e-07
3.73935e-07
3.73936e-07
3.61947e-07
3.61947e-07
3.61949e-07
3.61964e-07
3.61971e-07
3.61998e-07
3.62011e-07
3.62051e-07
3.62079e-07
3.62146e-07
3.62204e-07
3.62317e-07
3.62433e-07
3.50807e-07
3.50807e-07
3.51028e-07
3.51366e-07
3.51756e-07
3.52329e-07
3.52879e-07
3.53793e-07
3.5432e-07
3.55176e-07
3.54854e-07
)
;
    }
    procBoundary2to3
    {
        type            processor;
        value           nonuniform List<scalar> 
51
(
1.2198e-08
1.21843e-08
1.21776e-08
1.21685e-08
1.21659e-08
1.21603e-08
1.21598e-08
1.21572e-08
1.21575e-08
1.21555e-08
1.21558e-08
1.21547e-08
1.21548e-08
1.21545e-08
1.21544e-08
1.21548e-08
1.21546e-08
1.21557e-08
1.21555e-08
1.21575e-08
1.21572e-08
1.21598e-08
1.21603e-08
1.2166e-08
1.21687e-08
1.21778e-08
1.21845e-08
1.2198e-08
1.22141e-08
1.22355e-08
1.22724e-08
1.23139e-08
1.23936e-08
1.24785e-08
1.26171e-08
1.27872e-08
1.30044e-08
1.33509e-08
1.3554e-08
1.14655e-08
1.12854e-08
1.09838e-08
1.07904e-08
1.06445e-08
1.05235e-08
1.04516e-08
1.03829e-08
1.03473e-08
1.03157e-08
1.2198e-08
1.02966e-08
)
;
    }
}


// ************************************************************************* //
