/*--------------------------------*- C++ -*----------------------------------*\
| =========                 |                                                 |
| \\      /  F ield         | OpenFOAM: The Open Source CFD Toolbox           |
|  \\    /   O peration     | Version:  dev                                   |
|   \\  /    A nd           | Web:      www.OpenFOAM.org                      |
|    \\/     M anipulation  |                                                 |
\*---------------------------------------------------------------------------*/
FoamFile
{
    version     2.0;
    format      ascii;
    class       volScalarField;
    location    "0.05";
    object      CH2O;
}
// * * * * * * * * * * * * * * * * * * * * * * * * * * * * * * * * * * * * * //

dimensions      [0 0 0 0 0 0 0];

internalField   nonuniform List<scalar> 
250
(
4.42077e-05
0.000122429
0.000111167
0.000109814
0.000109642
0.000109675
0.000109628
0.000109655
0.000109654
9.25902e-05
6.97097e-05
6.40003e-05
6.33633e-05
6.327e-05
6.32763e-05
6.32663e-05
6.32695e-05
6.32721e-05
0.000121927
3.78657e-05
3.46943e-05
3.44463e-05
3.43965e-05
3.43986e-05
3.43984e-05
3.43954e-05
3.43992e-05
0.000140584
2.17468e-05
1.95382e-05
1.94771e-05
1.94548e-05
1.94569e-05
1.94593e-05
1.94551e-05
1.94588e-05
0.000152531
1.38675e-05
1.21093e-05
1.21623e-05
1.21703e-05
1.21746e-05
1.21775e-05
1.21739e-05
1.21769e-05
0.000159881
9.82527e-06
8.41849e-06
8.42641e-06
8.39467e-06
8.39371e-06
8.39592e-06
8.39175e-06
8.39528e-06
0.000165244
7.56045e-06
6.49909e-06
6.55787e-06
6.55143e-06
6.55394e-06
6.55615e-06
6.55285e-06
6.55572e-06
0.000171926
6.16752e-06
5.41325e-06
5.53463e-06
5.49903e-06
5.49515e-06
5.4964e-06
5.49247e-06
5.49573e-06
0.000181896
5.24065e-06
4.73698e-06
4.91266e-06
4.91346e-06
4.91134e-06
4.91249e-06
4.90881e-06
4.91188e-06
0.000188072
4.575e-06
4.34861e-06
4.49431e-06
4.50071e-06
4.49962e-06
4.50055e-06
4.49707e-06
4.49994e-06
0.000172606
4.0437e-06
4.04722e-06
4.24239e-06
4.2525e-06
4.25208e-06
4.25283e-06
4.24929e-06
4.25221e-06
4.25065e-06
0.000134222
3.58594e-06
3.8207e-06
4.05159e-06
4.0525e-06
4.05105e-06
4.05144e-06
4.04754e-06
4.05074e-06
4.04898e-06
8.873e-05
3.19342e-06
3.6624e-06
3.88579e-06
3.88708e-06
3.8856e-06
3.88571e-06
3.88159e-06
3.88494e-06
3.88299e-06
5.19022e-05
2.87625e-06
3.5159e-06
3.7439e-06
3.74417e-06
3.74252e-06
3.74231e-06
3.7379e-06
3.74146e-06
3.73928e-06
2.81167e-05
2.63608e-06
3.38322e-06
3.61584e-06
3.61403e-06
3.61209e-06
3.61154e-06
3.6068e-06
3.6106e-06
3.60815e-06
1.4712e-05
2.43958e-06
3.27663e-06
3.4959e-06
3.49111e-06
3.48881e-06
3.48789e-06
3.48279e-06
3.48686e-06
3.48409e-06
7.77275e-06
2.30095e-06
3.17115e-06
3.38052e-06
3.3721e-06
3.36936e-06
3.36807e-06
3.36256e-06
3.36692e-06
3.36382e-06
4.35035e-06
2.21546e-06
3.06463e-06
3.26743e-06
3.25479e-06
3.25157e-06
3.2499e-06
3.24397e-06
3.24863e-06
3.24516e-06
2.69214e-06
2.15289e-06
2.97406e-06
3.15497e-06
3.13757e-06
3.13381e-06
3.13178e-06
3.1254e-06
3.13038e-06
3.12651e-06
1.88406e-06
2.1092e-06
2.87897e-06
3.04165e-06
3.01904e-06
3.01471e-06
3.01232e-06
3.00548e-06
3.01078e-06
3.00649e-06
1.4841e-06
2.07586e-06
2.77914e-06
2.92611e-06
2.89779e-06
2.89287e-06
2.89014e-06
2.88285e-06
2.88846e-06
2.88374e-06
1.28614e-06
2.04775e-06
2.67683e-06
2.80698e-06
2.77218e-06
2.76667e-06
2.76363e-06
2.75591e-06
2.76181e-06
2.75663e-06
1.19397e-06
2.02103e-06
2.57086e-06
2.68262e-06
2.65573e-06
2.64994e-06
2.64662e-06
2.63844e-06
2.64471e-06
2.63906e-06
1.1605e-06
1.99179e-06
2.45955e-06
2.56727e-06
2.52901e-06
2.52266e-06
2.51896e-06
2.50958e-06
2.51687e-06
2.51003e-06
1.16006e-06
1.95661e-06
2.34031e-06
2.43518e-06
2.40234e-06
2.396e-06
2.39205e-06
2.3821e-06
2.38989e-06
2.38243e-06
1.17647e-06
1.91275e-06
2.22572e-06
2.30706e-06
2.26971e-06
2.26356e-06
2.25941e-06
2.24889e-06
2.25722e-06
2.2491e-06
)
;

boundaryField
{
    fuel
    {
        type            fixedValue;
        value           uniform 0;
    }
    wall
    {
        type            zeroGradient;
    }
    outlet
    {
        type            zeroGradient;
    }
    frontAndBack
    {
        type            empty;
    }
    procBoundary2to0
    {
        type            processor;
        value           nonuniform List<scalar> 
12
(
2.38274e-06
1.19826e-06
1.85761e-06
2.10309e-06
2.17203e-06
2.13073e-06
2.12479e-06
2.12047e-06
2.10942e-06
2.11829e-06
2.24952e-06
2.1095e-06
)
;
    }
    procBoundary2to3
    {
        type            processor;
        value           nonuniform List<scalar> 
25
(
0.000109657
6.32708e-05
3.43969e-05
1.94565e-05
1.21751e-05
8.39336e-06
6.55416e-06
5.49411e-06
4.91034e-06
4.49846e-06
4.49846e-06
4.25007e-06
4.04838e-06
3.8824e-06
3.73871e-06
3.60761e-06
3.4836e-06
3.36337e-06
3.24477e-06
3.1262e-06
3.00626e-06
2.8836e-06
2.75662e-06
2.63914e-06
2.51023e-06
)
;
    }
}


// ************************************************************************* //
