/*--------------------------------*- C++ -*----------------------------------*\
| =========                 |                                                 |
| \\      /  F ield         | OpenFOAM: The Open Source CFD Toolbox           |
|  \\    /   O peration     | Version:  dev                                   |
|   \\  /    A nd           | Web:      www.OpenFOAM.org                      |
|    \\/     M anipulation  |                                                 |
\*---------------------------------------------------------------------------*/
FoamFile
{
    version     2.0;
    format      ascii;
    class       volScalarField;
    location    "0.05";
    object      CH4;
}
// * * * * * * * * * * * * * * * * * * * * * * * * * * * * * * * * * * * * * //

dimensions      [0 0 0 0 0 0 0];

internalField   nonuniform List<scalar> 
25
(
1.91144e-05
2.14344e-05
2.40167e-05
2.66114e-05
2.93494e-05
3.22054e-05
3.51686e-05
3.82336e-05
4.1393e-05
4.46373e-05
4.79573e-05
5.13434e-05
5.47724e-05
5.82075e-05
6.1813e-05
6.52416e-05
6.87307e-05
7.21233e-05
7.54812e-05
7.87794e-05
8.19983e-05
8.51178e-05
8.81165e-05
9.09726e-05
9.36668e-05
)
;

boundaryField
{
    wall
    {
        type            zeroGradient;
    }
    fuel
    {
        type            fixedValue;
        value           nonuniform 0();
    }
    outlet
    {
        type            inletOutlet;
        inletValue      nonuniform 0();
        value           nonuniform 0();
    }
    procBoundary2to1
    {
        type            processor;
        value           uniform 1.69595e-05;
    }
    procBoundary2to3
    {
        type            processor;
        value           uniform 9.6186e-05;
    }
}


// ************************************************************************* //
