/*--------------------------------*- C++ -*----------------------------------*\
| =========                 |                                                 |
| \\      /  F ield         | OpenFOAM: The Open Source CFD Toolbox           |
|  \\    /   O peration     | Version:  dev                                   |
|   \\  /    A nd           | Web:      www.OpenFOAM.org                      |
|    \\/     M anipulation  |                                                 |
\*---------------------------------------------------------------------------*/
FoamFile
{
    version     2.0;
    format      ascii;
    class       volScalarField;
    location    "0.05";
    object      CH4;
}
// * * * * * * * * * * * * * * * * * * * * * * * * * * * * * * * * * * * * * //

dimensions      [0 0 0 0 0 0 0];

internalField   nonuniform List<scalar> 
250
(
0.000113317
0.00101322
0.000906896
0.000893444
0.000891677
0.000891968
0.00089151
0.00089201
0.000892035
0.000308658
0.00093094
0.000837725
0.000825054
0.000823442
0.000823399
0.000823258
0.000823395
0.000823403
0.000504249
0.000952145
0.00084957
0.000834364
0.000832431
0.000832252
0.00083217
0.000832246
0.000832221
0.0006819
0.00101033
0.000889365
0.000870282
0.000867801
0.000867519
0.000867434
0.0008675
0.000867461
0.000830901
0.00106924
0.000926237
0.000902767
0.000899562
0.000899176
0.000899076
0.000899133
0.000899097
0.00094897
0.00111929
0.000953413
0.000926472
0.00092294
0.000922499
0.000922387
0.00092244
0.000922407
0.00104144
0.00115926
0.000971729
0.000940764
0.000936434
0.000935876
0.000935751
0.000935786
0.000935767
0.00111948
0.00119007
0.000983858
0.000948921
0.000944172
0.000943557
0.000943426
0.00094345
0.000943442
0.00119847
0.00121295
0.000991818
0.000953193
0.000947584
0.000946856
0.000946715
0.000946719
0.000946727
0.00129425
0.00122891
0.000995992
0.000954808
0.000948493
0.000947642
0.00094749
0.000947472
0.000947499
0.00140447
0.00123866
0.000998265
0.000954626
0.000947736
0.000946782
0.000946618
0.000946582
0.000946624
0.000946622
0.00149776
0.00124266
0.000998708
0.000953338
0.000945763
0.000944684
0.000944504
0.000944447
0.000944508
0.000944499
0.00154322
0.00124135
0.00099786
0.000951095
0.000942975
0.000941788
0.00094159
0.000941518
0.000941593
0.00094158
0.00154074
0.00123534
0.00099576
0.000948311
0.000939734
0.000938448
0.000938231
0.000938147
0.000938233
0.00093822
0.00150848
0.00122543
0.000992635
0.000945201
0.000936266
0.00093489
0.000934655
0.000934564
0.000934657
0.000934645
0.00146273
0.00121044
0.000989266
0.000941942
0.00093275
0.000931297
0.000931043
0.000930951
0.000931047
0.00093104
0.00141344
0.00119298
0.000985213
0.000938684
0.000929346
0.000927828
0.000927558
0.000927471
0.000927563
0.000927566
0.00136597
0.00117651
0.000980631
0.000935568
0.000926202
0.000924632
0.000924348
0.000924274
0.000924355
0.000924374
0.00132281
0.00115863
0.000976581
0.000932741
0.000923461
0.000921853
0.00092156
0.000921507
0.00092157
0.000921611
0.00128477
0.001141
0.000972415
0.000930342
0.000921268
0.000919638
0.00091934
0.000919319
0.000919354
0.000919426
0.00125174
0.00112344
0.000968412
0.000928523
0.000919773
0.000918135
0.000917838
0.00091786
0.000917857
0.000917969
0.00122317
0.00110634
0.000964973
0.000927438
0.000919126
0.000917496
0.000917206
0.000917281
0.00091723
0.000917391
0.00119845
0.00109051
0.000962334
0.000927247
0.000919439
0.00091783
0.000917551
0.000917683
0.000917581
0.000917794
0.00117698
0.00107627
0.000960697
0.000927999
0.000920827
0.000919255
0.000918994
0.000919202
0.00091903
0.000919315
0.00115831
0.00106385
0.000960238
0.000929961
0.000923253
0.000921718
0.000921478
0.000921761
0.00092152
0.000921873
0.00114215
0.0010534
0.000960998
0.000932884
0.000926836
0.000925343
0.000925127
0.000925488
0.000925173
0.0009256
)
;

boundaryField
{
    fuel
    {
        type            fixedValue;
        value           uniform 0;
    }
    wall
    {
        type            zeroGradient;
    }
    outlet
    {
        type            zeroGradient;
    }
    frontAndBack
    {
        type            empty;
    }
    procBoundary2to0
    {
        type            processor;
        value           nonuniform List<scalar> 
12
(
0.000921849
0.00112835
0.00104503
0.000963002
0.000936967
0.000931591
0.000930149
0.000929961
0.000930402
0.000930009
0.000925572
0.000930513
)
;
    }
    procBoundary2to3
    {
        type            processor;
        value           nonuniform List<scalar> 
25
(
0.000891989
0.000823383
0.000832232
0.000867486
0.000899122
0.000922431
0.000935786
0.000943456
0.000946736
0.000947502
0.000947502
0.000946609
0.000944484
0.000941563
0.000938201
0.000934624
0.000931019
0.000927545
0.000924353
0.000921591
0.000919407
0.00091795
0.000917372
0.000917774
0.000919293
)
;
    }
}


// ************************************************************************* //
