/*--------------------------------*- C++ -*----------------------------------*\
| =========                 |                                                 |
| \\      /  F ield         | OpenFOAM: The Open Source CFD Toolbox           |
|  \\    /   O peration     | Version:  dev                                   |
|   \\  /    A nd           | Web:      www.OpenFOAM.org                      |
|    \\/     M anipulation  |                                                 |
\*---------------------------------------------------------------------------*/
FoamFile
{
    version     2.0;
    format      ascii;
    class       volScalarField;
    location    "0.05";
    object      H2C4O;
}
// * * * * * * * * * * * * * * * * * * * * * * * * * * * * * * * * * * * * * //

dimensions      [0 0 0 0 0 0 0];

internalField   nonuniform List<scalar> 
1997
(
1.42808e-06
1.43101e-06
1.43227e-06
1.43322e-06
1.4332e-06
1.43313e-06
1.43278e-06
1.43257e-06
1.43231e-06
1.43218e-06
1.43201e-06
1.43195e-06
1.43186e-06
1.43184e-06
1.43178e-06
1.43178e-06
1.43175e-06
1.43176e-06
1.41061e-06
1.41339e-06
1.41451e-06
1.41536e-06
1.41528e-06
1.41518e-06
1.41482e-06
1.41461e-06
1.41434e-06
1.4142e-06
1.41404e-06
1.41398e-06
1.41388e-06
1.41386e-06
1.41381e-06
1.41381e-06
1.41377e-06
1.41378e-06
1.41376e-06
1.41377e-06
1.41376e-06
1.41376e-06
1.41376e-06
1.41376e-06
1.41376e-06
1.41376e-06
1.41376e-06
1.41376e-06
1.39397e-06
1.39658e-06
1.39757e-06
1.39835e-06
1.39825e-06
1.39813e-06
1.39778e-06
1.39756e-06
1.3973e-06
1.39716e-06
1.39701e-06
1.39694e-06
1.39685e-06
1.39683e-06
1.39678e-06
1.39678e-06
1.39674e-06
1.39675e-06
1.39673e-06
1.39674e-06
1.39673e-06
1.39673e-06
1.39673e-06
1.39673e-06
1.39673e-06
1.39673e-06
1.39673e-06
1.39673e-06
1.39673e-06
1.39673e-06
1.39674e-06
1.39673e-06
1.39675e-06
1.39674e-06
1.39677e-06
1.39677e-06
1.39683e-06
1.39685e-06
1.39694e-06
1.39701e-06
1.37782e-06
1.38027e-06
1.38113e-06
1.38185e-06
1.38172e-06
1.38159e-06
1.38124e-06
1.38102e-06
1.38077e-06
1.38064e-06
1.38048e-06
1.38042e-06
1.38033e-06
1.38031e-06
1.38026e-06
1.38026e-06
1.38023e-06
1.38023e-06
1.38021e-06
1.38022e-06
1.38021e-06
1.38022e-06
1.38021e-06
1.38021e-06
1.38021e-06
1.38021e-06
1.38021e-06
1.38021e-06
1.38021e-06
1.38021e-06
1.38022e-06
1.38021e-06
1.38023e-06
1.38022e-06
1.38025e-06
1.38025e-06
1.38031e-06
1.38033e-06
1.38042e-06
1.38048e-06
1.38063e-06
1.38077e-06
1.38102e-06
1.38123e-06
1.38158e-06
1.38171e-06
1.38185e-06
1.38113e-06
1.38026e-06
1.37782e-06
1.36214e-06
1.36443e-06
1.36518e-06
1.36584e-06
1.36568e-06
1.36553e-06
1.36519e-06
1.36497e-06
1.36473e-06
1.36459e-06
1.36445e-06
1.36438e-06
1.3643e-06
1.36428e-06
1.36423e-06
1.36423e-06
1.3642e-06
1.3642e-06
1.36418e-06
1.36419e-06
1.36418e-06
1.36418e-06
1.36418e-06
1.36418e-06
1.36418e-06
1.36418e-06
1.36418e-06
1.36418e-06
1.36418e-06
1.36418e-06
1.36419e-06
1.36418e-06
1.3642e-06
1.36419e-06
1.36422e-06
1.36422e-06
1.36427e-06
1.36429e-06
1.36438e-06
1.36444e-06
1.36459e-06
1.36472e-06
1.36497e-06
1.36518e-06
1.36553e-06
1.36567e-06
1.36583e-06
1.36517e-06
1.36443e-06
1.36214e-06
1.34679e-06
1.34898e-06
1.34961e-06
1.35018e-06
1.34996e-06
1.34979e-06
1.34942e-06
1.34919e-06
1.34895e-06
1.34881e-06
1.34866e-06
1.34859e-06
1.3485e-06
1.34848e-06
1.34843e-06
1.34843e-06
1.3484e-06
1.3484e-06
1.34838e-06
1.34839e-06
1.34838e-06
1.34838e-06
1.34838e-06
1.34838e-06
1.34838e-06
1.34838e-06
1.34838e-06
1.34838e-06
1.34838e-06
1.34838e-06
1.34839e-06
1.34838e-06
1.3484e-06
1.3484e-06
1.34843e-06
1.34843e-06
1.34848e-06
1.3485e-06
1.34859e-06
1.34865e-06
1.3488e-06
1.34894e-06
1.34919e-06
1.34942e-06
1.34978e-06
1.34995e-06
1.35018e-06
1.3496e-06
1.34897e-06
1.34678e-06
1.33198e-06
1.33402e-06
1.33455e-06
1.33506e-06
1.33481e-06
1.33463e-06
1.33427e-06
1.33404e-06
1.33379e-06
1.33365e-06
1.33351e-06
1.33344e-06
1.33336e-06
1.33334e-06
1.33329e-06
1.33329e-06
1.33326e-06
1.33326e-06
1.33324e-06
1.33325e-06
1.33324e-06
1.33324e-06
1.33324e-06
1.33324e-06
1.33324e-06
1.33324e-06
1.33324e-06
1.33324e-06
1.33324e-06
1.33323e-06
1.33324e-06
1.33324e-06
1.33326e-06
1.33325e-06
1.33328e-06
1.33328e-06
1.33333e-06
1.33336e-06
1.33344e-06
1.3335e-06
1.33365e-06
1.33379e-06
1.33403e-06
1.33426e-06
1.33462e-06
1.33481e-06
1.33505e-06
1.33454e-06
1.33402e-06
1.33197e-06
1.31756e-06
1.31947e-06
1.3199e-06
1.32035e-06
1.32008e-06
1.31988e-06
1.31952e-06
1.31929e-06
1.31905e-06
1.31892e-06
1.31877e-06
1.31871e-06
1.31863e-06
1.3186e-06
1.31856e-06
1.31855e-06
1.31853e-06
1.31853e-06
1.31851e-06
1.31852e-06
1.31851e-06
1.31851e-06
1.31851e-06
1.31851e-06
1.31851e-06
1.31851e-06
1.31851e-06
1.31851e-06
1.31851e-06
1.3185e-06
1.31851e-06
1.31851e-06
1.31853e-06
1.31852e-06
1.31855e-06
1.31855e-06
1.3186e-06
1.31862e-06
1.31871e-06
1.31877e-06
1.31891e-06
1.31905e-06
1.31928e-06
1.31951e-06
1.31987e-06
1.32007e-06
1.32034e-06
1.31989e-06
1.31946e-06
1.31756e-06
1.30353e-06
1.3053e-06
1.30563e-06
1.30603e-06
1.30574e-06
1.30552e-06
1.30517e-06
1.30494e-06
1.3047e-06
1.30457e-06
1.30443e-06
1.30436e-06
1.30428e-06
1.30426e-06
1.30422e-06
1.30421e-06
1.30419e-06
1.30419e-06
1.30417e-06
1.30417e-06
1.30416e-06
1.30417e-06
1.30416e-06
1.30417e-06
1.30417e-06
1.30417e-06
1.30417e-06
1.30416e-06
1.30417e-06
1.30416e-06
1.30417e-06
1.30417e-06
1.30419e-06
1.30418e-06
1.30421e-06
1.30421e-06
1.30426e-06
1.30428e-06
1.30436e-06
1.30442e-06
1.30456e-06
1.3047e-06
1.30493e-06
1.30516e-06
1.30551e-06
1.30573e-06
1.30602e-06
1.30562e-06
1.30529e-06
1.30352e-06
1.28985e-06
1.29149e-06
1.29173e-06
1.29207e-06
1.29176e-06
1.29153e-06
1.29118e-06
1.29095e-06
1.29072e-06
1.29058e-06
1.29045e-06
1.29038e-06
1.29031e-06
1.29028e-06
1.29024e-06
1.29024e-06
1.29021e-06
1.29021e-06
1.29019e-06
1.2902e-06
1.29019e-06
1.29019e-06
1.29019e-06
1.29019e-06
1.29019e-06
1.29019e-06
1.29019e-06
1.29019e-06
1.29019e-06
1.29018e-06
1.29019e-06
1.29019e-06
1.29021e-06
1.29021e-06
1.29023e-06
1.29023e-06
1.29028e-06
1.2903e-06
1.29038e-06
1.29044e-06
1.29058e-06
1.29071e-06
1.29094e-06
1.29117e-06
1.29152e-06
1.29175e-06
1.29206e-06
1.29172e-06
1.29148e-06
1.28984e-06
1.27633e-06
1.27787e-06
1.27801e-06
1.27828e-06
1.27792e-06
1.27767e-06
1.2773e-06
1.27706e-06
1.27683e-06
1.27669e-06
1.27655e-06
1.27649e-06
1.27641e-06
1.27639e-06
1.27634e-06
1.27634e-06
1.27631e-06
1.27632e-06
1.27629e-06
1.2763e-06
1.27629e-06
1.27629e-06
1.27629e-06
1.27629e-06
1.27629e-06
1.27629e-06
1.27629e-06
1.27629e-06
1.27629e-06
1.27628e-06
1.27629e-06
1.27629e-06
1.27631e-06
1.27631e-06
1.27634e-06
1.27634e-06
1.27638e-06
1.27641e-06
1.27649e-06
1.27655e-06
1.27668e-06
1.27682e-06
1.27705e-06
1.27729e-06
1.27766e-06
1.27792e-06
1.27827e-06
1.278e-06
1.27787e-06
1.27632e-06
1.26328e-06
1.2647e-06
1.26475e-06
1.26496e-06
1.26459e-06
1.26432e-06
1.26395e-06
1.26371e-06
1.26349e-06
1.26334e-06
1.26321e-06
1.26315e-06
1.26307e-06
1.26305e-06
1.263e-06
1.263e-06
1.26297e-06
1.26298e-06
1.26295e-06
1.26296e-06
1.26295e-06
1.26295e-06
1.26295e-06
1.26295e-06
1.26295e-06
1.26295e-06
1.26295e-06
1.26295e-06
1.26295e-06
1.26294e-06
1.26295e-06
1.26295e-06
1.26297e-06
1.26297e-06
1.263e-06
1.263e-06
1.26304e-06
1.26307e-06
1.26314e-06
1.26321e-06
1.26334e-06
1.26348e-06
1.2637e-06
1.26395e-06
1.26431e-06
1.26458e-06
1.26495e-06
1.26474e-06
1.26469e-06
1.26327e-06
1.25027e-06
1.2516e-06
1.25157e-06
1.25172e-06
1.25132e-06
1.25102e-06
1.25065e-06
1.2504e-06
1.25017e-06
1.25003e-06
1.24989e-06
1.24983e-06
1.24975e-06
1.24973e-06
1.24968e-06
1.24968e-06
1.24966e-06
1.24966e-06
1.24963e-06
1.24963e-06
1.24962e-06
1.24963e-06
1.24962e-06
1.24963e-06
1.24963e-06
1.24963e-06
1.24963e-06
1.24962e-06
1.24963e-06
1.24962e-06
1.24963e-06
1.24963e-06
1.24965e-06
1.24965e-06
1.24968e-06
1.24968e-06
1.24972e-06
1.24975e-06
1.24982e-06
1.24989e-06
1.25002e-06
1.25016e-06
1.25039e-06
1.25064e-06
1.25101e-06
1.25131e-06
1.25171e-06
1.25156e-06
1.25159e-06
1.25026e-06
1.23773e-06
1.23895e-06
1.23885e-06
1.23894e-06
1.23852e-06
1.23821e-06
1.23783e-06
1.23758e-06
1.23736e-06
1.23721e-06
1.23708e-06
1.23702e-06
1.23694e-06
1.23692e-06
1.23688e-06
1.23687e-06
1.23685e-06
1.23685e-06
1.23682e-06
1.23682e-06
1.23682e-06
1.23682e-06
1.23682e-06
1.23682e-06
1.23682e-06
1.23682e-06
1.23682e-06
1.23682e-06
1.23682e-06
1.23681e-06
1.23682e-06
1.23682e-06
1.23685e-06
1.23684e-06
1.23687e-06
1.23687e-06
1.23692e-06
1.23694e-06
1.23702e-06
1.23708e-06
1.23721e-06
1.23735e-06
1.23757e-06
1.23783e-06
1.2382e-06
1.23851e-06
1.23893e-06
1.23884e-06
1.23894e-06
1.23772e-06
1.22529e-06
1.2264e-06
1.22618e-06
1.2262e-06
1.22574e-06
1.22539e-06
1.225e-06
1.22474e-06
1.22451e-06
1.22436e-06
1.22423e-06
1.22416e-06
1.22409e-06
1.22406e-06
1.22402e-06
1.22402e-06
1.22399e-06
1.22399e-06
1.22396e-06
1.22396e-06
1.22395e-06
1.22396e-06
1.22395e-06
1.22396e-06
1.22395e-06
1.22395e-06
1.22396e-06
1.22395e-06
1.22396e-06
1.22395e-06
1.22396e-06
1.22396e-06
1.22399e-06
1.22399e-06
1.22401e-06
1.22402e-06
1.22406e-06
1.22408e-06
1.22416e-06
1.22423e-06
1.22435e-06
1.2245e-06
1.22473e-06
1.22499e-06
1.22538e-06
1.22573e-06
1.22619e-06
1.22618e-06
1.22639e-06
1.22528e-06
1.2128e-06
1.2138e-06
1.21352e-06
1.21348e-06
1.213e-06
1.21264e-06
1.21225e-06
1.21198e-06
1.21176e-06
1.2116e-06
1.21148e-06
1.21141e-06
1.21134e-06
1.21131e-06
1.21127e-06
1.21126e-06
1.21124e-06
1.21124e-06
1.2112e-06
1.21121e-06
1.2112e-06
1.2112e-06
1.2112e-06
1.2112e-06
1.2112e-06
1.2112e-06
1.2112e-06
1.2112e-06
1.2112e-06
1.2112e-06
1.21121e-06
1.2112e-06
1.21124e-06
1.21124e-06
1.21126e-06
1.21126e-06
1.21131e-06
1.21133e-06
1.21141e-06
1.21147e-06
1.2116e-06
1.21175e-06
1.21197e-06
1.21224e-06
1.21263e-06
1.21299e-06
1.21347e-06
1.21351e-06
1.21379e-06
1.21279e-06
1.20047e-06
1.20136e-06
1.20102e-06
1.20092e-06
1.20042e-06
1.20004e-06
1.19965e-06
1.19939e-06
1.19916e-06
1.19901e-06
1.19888e-06
1.19882e-06
1.19874e-06
1.19872e-06
1.19868e-06
1.19867e-06
1.19865e-06
1.19865e-06
1.19861e-06
1.19861e-06
1.1986e-06
1.19861e-06
1.19861e-06
1.19861e-06
1.19861e-06
1.19861e-06
1.19861e-06
1.1986e-06
1.19861e-06
1.1986e-06
1.19861e-06
1.19861e-06
1.19864e-06
1.19864e-06
1.19867e-06
1.19867e-06
1.19872e-06
1.19874e-06
1.19881e-06
1.19888e-06
1.199e-06
1.19916e-06
1.19938e-06
1.19964e-06
1.20003e-06
1.20041e-06
1.20091e-06
1.20101e-06
1.20135e-06
1.20046e-06
1.18826e-06
1.18904e-06
1.18864e-06
1.18849e-06
1.18797e-06
1.18757e-06
1.18719e-06
1.18692e-06
1.1867e-06
1.18654e-06
1.18642e-06
1.18635e-06
1.18628e-06
1.18625e-06
1.18621e-06
1.18621e-06
1.18618e-06
1.18618e-06
1.18614e-06
1.18614e-06
1.18614e-06
1.18614e-06
1.18614e-06
1.18614e-06
1.18614e-06
1.18614e-06
1.18614e-06
1.18614e-06
1.18614e-06
1.18613e-06
1.18614e-06
1.18614e-06
1.18618e-06
1.18618e-06
1.1862e-06
1.18621e-06
1.18625e-06
1.18627e-06
1.18635e-06
1.18641e-06
1.18653e-06
1.18669e-06
1.18691e-06
1.18718e-06
1.18756e-06
1.18796e-06
1.18848e-06
1.18863e-06
1.18903e-06
1.18825e-06
1.17649e-06
1.17718e-06
1.17671e-06
1.1765e-06
1.17596e-06
1.17555e-06
1.17517e-06
1.17489e-06
1.17467e-06
1.17451e-06
1.17439e-06
1.17432e-06
1.17425e-06
1.17423e-06
1.17419e-06
1.17418e-06
1.17416e-06
1.17416e-06
1.17411e-06
1.17412e-06
1.17411e-06
1.17411e-06
1.17411e-06
1.17411e-06
1.17411e-06
1.17411e-06
1.17411e-06
1.17411e-06
1.17411e-06
1.17411e-06
1.17411e-06
1.17411e-06
1.17415e-06
1.17415e-06
1.17418e-06
1.17418e-06
1.17422e-06
1.17425e-06
1.17432e-06
1.17438e-06
1.1745e-06
1.17466e-06
1.17488e-06
1.17516e-06
1.17554e-06
1.17595e-06
1.17649e-06
1.1767e-06
1.17717e-06
1.17648e-06
1.16479e-06
1.16539e-06
1.16486e-06
1.16461e-06
1.16404e-06
1.16361e-06
1.16318e-06
1.16288e-06
1.16265e-06
1.16247e-06
1.16234e-06
1.16227e-06
1.1622e-06
1.16217e-06
1.16213e-06
1.16212e-06
1.16209e-06
1.16209e-06
1.16204e-06
1.16204e-06
1.16203e-06
1.16203e-06
1.16203e-06
1.16203e-06
1.16203e-06
1.16203e-06
1.16203e-06
1.16203e-06
1.16203e-06
1.16203e-06
1.16204e-06
1.16203e-06
1.16209e-06
1.16209e-06
1.16212e-06
1.16212e-06
1.16216e-06
1.16219e-06
1.16227e-06
1.16234e-06
1.16246e-06
1.16264e-06
1.16287e-06
1.16318e-06
1.1636e-06
1.16403e-06
1.1646e-06
1.16485e-06
1.16538e-06
1.16478e-06
1.15308e-06
1.15353e-06
1.15287e-06
1.15252e-06
1.15189e-06
1.15143e-06
1.15099e-06
1.15068e-06
1.15044e-06
1.15025e-06
1.15012e-06
1.15004e-06
1.14997e-06
1.14994e-06
1.1499e-06
1.14989e-06
1.14986e-06
1.14986e-06
1.1498e-06
1.1498e-06
1.14979e-06
1.14979e-06
1.14979e-06
1.14979e-06
1.14979e-06
1.14979e-06
1.14979e-06
1.14979e-06
1.14979e-06
1.14979e-06
1.1498e-06
1.14979e-06
1.14986e-06
1.14986e-06
1.14989e-06
1.14989e-06
1.14994e-06
1.14996e-06
1.15004e-06
1.15011e-06
1.15024e-06
1.15043e-06
1.15067e-06
1.15098e-06
1.15142e-06
1.15189e-06
1.15251e-06
1.15286e-06
1.15352e-06
1.15307e-06
1.14145e-06
1.14181e-06
1.14109e-06
1.14068e-06
1.14003e-06
1.13955e-06
1.13911e-06
1.13879e-06
1.13855e-06
1.13834e-06
1.13822e-06
1.13814e-06
1.13807e-06
1.13804e-06
1.13799e-06
1.13799e-06
1.13796e-06
1.13796e-06
1.13789e-06
1.13789e-06
1.13788e-06
1.13789e-06
1.13788e-06
1.13788e-06
1.13788e-06
1.13788e-06
1.13788e-06
1.13788e-06
1.13788e-06
1.13788e-06
1.13789e-06
1.13788e-06
1.13796e-06
1.13796e-06
1.13798e-06
1.13799e-06
1.13803e-06
1.13806e-06
1.13814e-06
1.13821e-06
1.13834e-06
1.13854e-06
1.13878e-06
1.1391e-06
1.13954e-06
1.14002e-06
1.14067e-06
1.14108e-06
1.1418e-06
1.14144e-06
1.12976e-06
1.13006e-06
1.12924e-06
1.12876e-06
1.12816e-06
1.12765e-06
1.12722e-06
1.12689e-06
1.12665e-06
1.12643e-06
1.12631e-06
1.12623e-06
1.12616e-06
1.12613e-06
1.12608e-06
1.12608e-06
1.12605e-06
1.12605e-06
1.12597e-06
1.12597e-06
1.12596e-06
1.12596e-06
1.12596e-06
1.12596e-06
1.12596e-06
1.12596e-06
1.12596e-06
1.12596e-06
1.12596e-06
1.12596e-06
1.12597e-06
1.12596e-06
1.12605e-06
1.12605e-06
1.12607e-06
1.12608e-06
1.12612e-06
1.12615e-06
1.12623e-06
1.1263e-06
1.12642e-06
1.12664e-06
1.12688e-06
1.12721e-06
1.12764e-06
1.12815e-06
1.12875e-06
1.12923e-06
1.13005e-06
1.12975e-06
1.11809e-06
1.11831e-06
1.11742e-06
1.11688e-06
1.11623e-06
1.11566e-06
1.1152e-06
1.11485e-06
1.1146e-06
1.11436e-06
1.11422e-06
1.11414e-06
1.11407e-06
1.11404e-06
1.11399e-06
1.11398e-06
1.11396e-06
1.11396e-06
1.114e-06
1.11401e-06
1.114e-06
1.11401e-06
1.114e-06
1.114e-06
1.114e-06
1.114e-06
1.114e-06
1.114e-06
1.114e-06
1.114e-06
1.11401e-06
1.114e-06
1.11396e-06
1.11395e-06
1.11398e-06
1.11399e-06
1.11403e-06
1.11406e-06
1.11414e-06
1.11422e-06
1.11435e-06
1.11459e-06
1.11484e-06
1.1152e-06
1.11565e-06
1.11622e-06
1.11687e-06
1.11741e-06
1.1183e-06
1.11808e-06
1.10636e-06
1.1065e-06
1.10555e-06
1.10494e-06
1.10426e-06
1.10367e-06
1.10322e-06
1.10285e-06
1.1026e-06
1.10234e-06
1.1022e-06
1.10212e-06
1.10205e-06
1.10202e-06
1.10197e-06
1.10196e-06
1.10194e-06
1.10194e-06
1.10196e-06
1.10197e-06
1.10196e-06
1.10197e-06
1.10196e-06
1.10196e-06
1.10196e-06
1.10196e-06
1.10196e-06
1.10196e-06
1.10196e-06
1.10196e-06
1.10197e-06
1.10196e-06
1.10194e-06
1.10193e-06
1.10196e-06
1.10197e-06
1.10201e-06
1.10204e-06
1.10212e-06
1.1022e-06
1.10233e-06
1.10259e-06
1.10284e-06
1.10321e-06
1.10366e-06
1.10425e-06
1.10493e-06
1.10554e-06
1.10648e-06
1.10635e-06
1.09435e-06
1.09438e-06
1.09336e-06
1.09291e-06
1.09221e-06
1.09159e-06
1.09114e-06
1.09076e-06
1.09052e-06
1.09023e-06
1.09009e-06
1.09001e-06
1.08994e-06
1.0899e-06
1.08986e-06
1.08985e-06
1.08982e-06
1.08983e-06
1.08985e-06
1.08985e-06
1.08985e-06
1.08985e-06
1.08985e-06
1.08985e-06
1.08985e-06
1.08985e-06
1.08985e-06
1.08985e-06
1.08985e-06
1.08984e-06
1.08985e-06
1.08985e-06
1.08983e-06
1.08982e-06
1.08985e-06
1.08986e-06
1.0899e-06
1.08993e-06
1.09001e-06
1.09009e-06
1.09022e-06
1.09051e-06
1.09075e-06
1.09113e-06
1.09158e-06
1.0922e-06
1.0929e-06
1.09335e-06
1.09437e-06
1.09434e-06
1.08241e-06
1.08236e-06
1.08128e-06
1.08075e-06
1.07998e-06
1.0793e-06
1.07882e-06
1.07842e-06
1.07817e-06
1.07783e-06
1.07769e-06
1.07761e-06
1.07753e-06
1.0775e-06
1.07745e-06
1.07744e-06
1.07741e-06
1.07742e-06
1.07743e-06
1.07744e-06
1.07743e-06
1.07743e-06
1.07743e-06
1.07743e-06
1.07743e-06
1.07743e-06
1.07743e-06
1.07743e-06
1.07743e-06
1.07743e-06
1.07744e-06
1.07743e-06
1.07741e-06
1.07741e-06
1.07744e-06
1.07745e-06
1.07749e-06
1.07753e-06
1.0776e-06
1.07769e-06
1.07782e-06
1.07816e-06
1.07841e-06
1.07881e-06
1.07928e-06
1.07997e-06
1.08074e-06
1.08127e-06
1.08235e-06
1.0824e-06
1.07009e-06
1.06994e-06
1.06876e-06
1.06815e-06
1.06735e-06
1.06663e-06
1.06616e-06
1.06575e-06
1.06551e-06
1.06545e-06
1.06531e-06
1.06522e-06
1.06515e-06
1.06512e-06
1.06507e-06
1.06506e-06
1.06503e-06
1.06503e-06
1.06505e-06
1.06505e-06
1.06504e-06
1.06505e-06
1.06505e-06
1.06505e-06
1.06505e-06
1.06505e-06
1.06505e-06
1.06504e-06
1.06505e-06
1.06504e-06
1.06505e-06
1.06505e-06
1.06503e-06
1.06503e-06
1.06506e-06
1.06506e-06
1.06511e-06
1.06515e-06
1.06522e-06
1.06531e-06
1.06544e-06
1.0655e-06
1.06574e-06
1.06615e-06
1.06662e-06
1.06734e-06
1.06815e-06
1.06875e-06
1.06992e-06
1.07008e-06
1.05783e-06
1.0576e-06
1.05635e-06
1.05569e-06
1.05486e-06
1.05412e-06
1.05364e-06
1.05322e-06
1.05298e-06
1.0529e-06
1.05276e-06
1.05268e-06
1.0526e-06
1.05257e-06
1.05252e-06
1.05251e-06
1.05248e-06
1.05248e-06
1.05249e-06
1.0525e-06
1.05249e-06
1.0525e-06
1.05249e-06
1.0525e-06
1.05249e-06
1.05249e-06
1.05249e-06
1.05249e-06
1.05249e-06
1.05249e-06
1.0525e-06
1.05249e-06
1.05248e-06
1.05248e-06
1.0525e-06
1.05251e-06
1.05256e-06
1.0526e-06
1.05267e-06
1.05276e-06
1.05289e-06
1.05298e-06
1.05321e-06
1.05363e-06
1.05411e-06
1.05485e-06
1.05568e-06
1.05634e-06
1.05758e-06
1.05782e-06
1.04538e-06
1.04506e-06
1.04375e-06
1.04304e-06
1.04217e-06
1.04136e-06
1.04086e-06
1.04042e-06
1.04017e-06
1.04006e-06
1.03992e-06
1.03982e-06
1.03974e-06
1.03971e-06
1.03966e-06
1.03965e-06
1.03962e-06
1.03962e-06
1.03963e-06
1.03964e-06
1.03963e-06
1.03963e-06
1.03963e-06
1.03963e-06
1.03963e-06
1.03963e-06
1.03963e-06
1.03963e-06
1.03963e-06
1.03963e-06
1.03963e-06
1.03963e-06
1.03962e-06
1.03962e-06
1.03965e-06
1.03966e-06
1.03971e-06
1.03974e-06
1.03982e-06
1.03991e-06
1.04005e-06
1.04016e-06
1.04041e-06
1.04085e-06
1.04135e-06
1.04216e-06
1.04303e-06
1.04374e-06
1.04505e-06
1.04537e-06
1.03271e-06
1.03232e-06
1.03094e-06
1.03017e-06
1.02929e-06
1.02843e-06
1.02792e-06
1.02747e-06
1.02723e-06
1.0271e-06
1.02696e-06
1.02686e-06
1.02678e-06
1.02675e-06
1.0267e-06
1.02669e-06
1.02666e-06
1.02666e-06
1.02666e-06
1.02667e-06
1.02666e-06
1.02667e-06
1.02666e-06
1.02667e-06
1.02666e-06
1.02666e-06
1.02667e-06
1.02666e-06
1.02667e-06
1.02666e-06
1.02667e-06
1.02666e-06
1.02666e-06
1.02665e-06
1.02668e-06
1.02669e-06
1.02674e-06
1.02678e-06
1.02686e-06
1.02695e-06
1.02709e-06
1.02722e-06
1.02747e-06
1.02791e-06
1.02842e-06
1.02928e-06
1.03016e-06
1.03093e-06
1.03231e-06
1.0327e-06
1.0197e-06
1.0192e-06
1.01769e-06
1.01684e-06
1.01591e-06
1.015e-06
1.01447e-06
1.01401e-06
1.01376e-06
1.01361e-06
1.01346e-06
1.01336e-06
1.01328e-06
1.01325e-06
1.01319e-06
1.01318e-06
1.01315e-06
1.01316e-06
1.01316e-06
1.01317e-06
1.01316e-06
1.01316e-06
1.01316e-06
1.01316e-06
1.01316e-06
1.01316e-06
1.01316e-06
1.01316e-06
1.01316e-06
1.01315e-06
1.01316e-06
1.01316e-06
1.01316e-06
1.01315e-06
1.01318e-06
1.01319e-06
1.01324e-06
1.01328e-06
1.01336e-06
1.01346e-06
1.01359e-06
1.01375e-06
1.014e-06
1.01446e-06
1.01499e-06
1.0159e-06
1.01683e-06
1.01768e-06
1.01919e-06
1.01969e-06
1.00618e-06
1.00559e-06
1.00402e-06
1.00312e-06
1.00218e-06
1.00155e-06
1.00101e-06
1.00054e-06
1.0003e-06
1.00013e-06
9.99983e-07
9.99884e-07
9.99803e-07
9.99766e-07
9.99714e-07
9.99703e-07
9.99672e-07
9.99676e-07
9.99675e-07
9.99682e-07
9.99673e-07
9.99678e-07
9.99673e-07
9.99677e-07
9.99676e-07
9.99676e-07
9.99676e-07
9.99673e-07
9.99676e-07
9.99671e-07
9.9968e-07
9.99672e-07
9.99674e-07
9.9967e-07
9.997e-07
9.99711e-07
9.99763e-07
9.998e-07
9.99882e-07
9.99981e-07
1.00012e-06
1.00029e-06
1.00054e-06
1.001e-06
1.00154e-06
1.00217e-06
1.00311e-06
1.00401e-06
1.00558e-06
1.00617e-06
9.92701e-07
9.9204e-07
9.9039e-07
9.8943e-07
9.88479e-07
9.87799e-07
9.8724e-07
9.8675e-07
9.86496e-07
9.86308e-07
9.86156e-07
9.86054e-07
9.8597e-07
9.85932e-07
9.85877e-07
9.85866e-07
9.85834e-07
9.85838e-07
9.85834e-07
9.85841e-07
9.85831e-07
9.85837e-07
9.85832e-07
9.85835e-07
9.85834e-07
9.85834e-07
9.85835e-07
9.85831e-07
9.85835e-07
9.8583e-07
9.85839e-07
9.85831e-07
9.85835e-07
9.85831e-07
9.85863e-07
9.85875e-07
9.85929e-07
9.85967e-07
9.86051e-07
9.86154e-07
9.86295e-07
9.86487e-07
9.86742e-07
9.87231e-07
9.87788e-07
9.8847e-07
9.8942e-07
9.90379e-07
9.92029e-07
9.92691e-07
9.78911e-07
9.78173e-07
9.76446e-07
9.75431e-07
9.74465e-07
9.73748e-07
9.73187e-07
9.72688e-07
9.72432e-07
9.72231e-07
9.72077e-07
9.71975e-07
9.7189e-07
9.71851e-07
9.71796e-07
9.71784e-07
9.71752e-07
9.71756e-07
9.71749e-07
9.71756e-07
9.71747e-07
9.71752e-07
9.71748e-07
9.71751e-07
9.7175e-07
9.7175e-07
9.71751e-07
9.71747e-07
9.71751e-07
9.71745e-07
9.71754e-07
9.71747e-07
9.71753e-07
9.71749e-07
9.71781e-07
9.71793e-07
9.71848e-07
9.71887e-07
9.71971e-07
9.72075e-07
9.72217e-07
9.72423e-07
9.7268e-07
9.73178e-07
9.73738e-07
9.74457e-07
9.75421e-07
9.76435e-07
9.78163e-07
9.78901e-07
9.64786e-07
9.63972e-07
9.62165e-07
9.61082e-07
9.60068e-07
9.59284e-07
9.58713e-07
9.58195e-07
9.5793e-07
9.57718e-07
9.5756e-07
9.57455e-07
9.57367e-07
9.57327e-07
9.5727e-07
9.57258e-07
9.57225e-07
9.57228e-07
9.5722e-07
9.57227e-07
9.57217e-07
9.57223e-07
9.57218e-07
9.57221e-07
9.5722e-07
9.5722e-07
9.57221e-07
9.57217e-07
9.57221e-07
9.57216e-07
9.57225e-07
9.57218e-07
9.57226e-07
9.57222e-07
9.57255e-07
9.57267e-07
9.57325e-07
9.57364e-07
9.57452e-07
9.57558e-07
9.57705e-07
9.57921e-07
9.58187e-07
9.58704e-07
9.59274e-07
9.6006e-07
9.61072e-07
9.62154e-07
9.63962e-07
9.64776e-07
9.50303e-07
9.49413e-07
9.47527e-07
9.46389e-07
9.45355e-07
9.44536e-07
9.43966e-07
9.43438e-07
9.43169e-07
9.42946e-07
9.42788e-07
9.42682e-07
9.42592e-07
9.42552e-07
9.42494e-07
9.42482e-07
9.42448e-07
9.42451e-07
9.42442e-07
9.42449e-07
9.42439e-07
9.42444e-07
9.42439e-07
9.42443e-07
9.42441e-07
9.42441e-07
9.42442e-07
9.42438e-07
9.42443e-07
9.42437e-07
9.42447e-07
9.42439e-07
9.42449e-07
9.42445e-07
9.42479e-07
9.42491e-07
9.4255e-07
9.42589e-07
9.42678e-07
9.42785e-07
9.42933e-07
9.4316e-07
9.4343e-07
9.43957e-07
9.44526e-07
9.45349e-07
9.46378e-07
9.47516e-07
9.49403e-07
9.50293e-07
9.3531e-07
9.34308e-07
9.32305e-07
9.31088e-07
9.30025e-07
9.29159e-07
9.28584e-07
9.28043e-07
9.27767e-07
9.27531e-07
9.27372e-07
9.27264e-07
9.27171e-07
9.27131e-07
9.27071e-07
9.27059e-07
9.27024e-07
9.27027e-07
9.27015e-07
9.27022e-07
9.27012e-07
9.27017e-07
9.27012e-07
9.27016e-07
9.27014e-07
9.27014e-07
9.27015e-07
9.27011e-07
9.27016e-07
9.2701e-07
9.2702e-07
9.27013e-07
9.27024e-07
9.27021e-07
9.27056e-07
9.27068e-07
9.27128e-07
9.27168e-07
9.27259e-07
9.27369e-07
9.27518e-07
9.27758e-07
9.28035e-07
9.28576e-07
9.29149e-07
9.30018e-07
9.31078e-07
9.32295e-07
9.34298e-07
9.353e-07
9.20028e-07
9.18947e-07
9.16863e-07
9.15586e-07
9.14506e-07
9.13604e-07
9.13031e-07
9.12479e-07
9.12199e-07
9.11954e-07
9.11795e-07
9.11686e-07
9.11591e-07
9.1155e-07
9.1149e-07
9.11477e-07
9.11442e-07
9.11445e-07
9.11431e-07
9.11438e-07
9.11428e-07
9.11433e-07
9.11428e-07
9.11432e-07
9.1143e-07
9.1143e-07
9.11431e-07
9.11427e-07
9.11432e-07
9.11426e-07
9.11436e-07
9.11429e-07
9.11442e-07
9.11439e-07
9.11475e-07
9.11487e-07
9.11548e-07
9.11588e-07
9.11681e-07
9.11791e-07
9.11941e-07
9.12191e-07
9.12471e-07
9.13023e-07
9.13595e-07
9.14498e-07
9.15577e-07
9.16852e-07
9.18937e-07
9.20018e-07
9.04308e-07
9.03148e-07
9.00983e-07
8.99645e-07
8.98546e-07
8.9761e-07
8.97038e-07
8.96478e-07
8.96194e-07
8.9594e-07
8.95781e-07
8.9567e-07
8.95575e-07
8.95533e-07
8.95472e-07
8.95459e-07
8.95423e-07
8.95426e-07
8.95411e-07
8.95418e-07
8.95407e-07
8.95412e-07
8.95407e-07
8.95411e-07
8.95409e-07
8.95409e-07
8.95411e-07
8.95406e-07
8.95411e-07
8.95405e-07
8.95416e-07
8.95408e-07
8.95423e-07
8.9542e-07
8.95457e-07
8.95469e-07
8.9553e-07
8.95571e-07
8.95666e-07
8.95776e-07
8.95928e-07
8.96185e-07
8.9647e-07
8.9703e-07
8.97602e-07
8.98539e-07
8.99636e-07
9.00973e-07
9.03139e-07
9.04299e-07
8.88125e-07
8.86885e-07
8.84584e-07
8.8313e-07
8.81976e-07
8.80984e-07
8.80398e-07
8.79816e-07
8.79522e-07
8.79257e-07
8.79093e-07
8.78979e-07
8.7888e-07
8.78837e-07
8.78773e-07
8.7876e-07
8.78722e-07
8.78725e-07
8.78708e-07
8.78715e-07
8.78704e-07
8.7871e-07
8.78704e-07
8.78708e-07
8.78706e-07
8.78706e-07
8.78707e-07
8.78703e-07
8.78708e-07
8.78702e-07
8.78713e-07
8.78706e-07
8.78722e-07
8.78719e-07
8.78758e-07
8.7877e-07
8.78834e-07
8.78877e-07
8.78974e-07
8.79088e-07
8.79244e-07
8.79514e-07
8.79809e-07
8.8039e-07
8.80976e-07
8.81969e-07
8.83122e-07
8.84575e-07
8.86876e-07
8.88116e-07
8.7145e-07
8.70133e-07
8.67748e-07
8.66224e-07
8.65047e-07
8.64024e-07
8.63439e-07
8.62848e-07
8.62551e-07
8.62278e-07
8.62114e-07
)
;

boundaryField
{
    fuel
    {
        type            fixedValue;
        value           nonuniform 0();
    }
    wall
    {
        type            zeroGradient;
    }
    outlet
    {
        type            zeroGradient;
    }
    frontAndBack
    {
        type            empty;
    }
    procBoundary2to0
    {
        type            processor;
        value           nonuniform List<scalar> 
53
(
1.44576e-06
1.44887e-06
1.45028e-06
1.4513e-06
1.45131e-06
1.45126e-06
1.4509e-06
1.45069e-06
1.45042e-06
1.45029e-06
1.45012e-06
1.45006e-06
1.44996e-06
1.44994e-06
1.44988e-06
1.44988e-06
1.44985e-06
1.44986e-06
1.43173e-06
1.43173e-06
1.43174e-06
1.43173e-06
1.43174e-06
1.43173e-06
1.43174e-06
1.43173e-06
1.43173e-06
1.43174e-06
1.43173e-06
1.41376e-06
1.41376e-06
1.41376e-06
1.41377e-06
1.41376e-06
1.41378e-06
1.41377e-06
1.4138e-06
1.41381e-06
1.41386e-06
1.41388e-06
1.41398e-06
1.41404e-06
1.39716e-06
1.39716e-06
1.3973e-06
1.39755e-06
1.39777e-06
1.39813e-06
1.39824e-06
1.39835e-06
1.39756e-06
1.39658e-06
1.39397e-06
)
;
    }
    procBoundary2to3
    {
        type            processor;
        value           nonuniform List<scalar> 
51
(
8.62006e-07
8.61905e-07
8.61862e-07
8.61797e-07
8.61785e-07
8.61746e-07
8.61748e-07
8.6173e-07
8.61737e-07
8.61725e-07
8.61731e-07
8.61725e-07
8.61729e-07
8.61728e-07
8.61728e-07
8.61729e-07
8.61724e-07
8.6173e-07
8.61723e-07
8.61735e-07
8.61728e-07
8.61745e-07
8.61743e-07
8.61782e-07
8.61794e-07
8.6186e-07
8.61902e-07
8.62001e-07
8.62115e-07
8.62272e-07
8.6255e-07
8.62848e-07
8.63439e-07
8.64024e-07
8.65048e-07
8.66225e-07
8.67748e-07
8.70132e-07
8.71449e-07
8.54266e-07
8.52866e-07
8.50413e-07
8.48804e-07
8.47611e-07
8.46553e-07
8.45971e-07
8.45368e-07
8.45069e-07
8.44791e-07
8.62006e-07
8.44626e-07
)
;
    }
}


// ************************************************************************* //
