/*--------------------------------*- C++ -*----------------------------------*\
| =========                 |                                                 |
| \\      /  F ield         | OpenFOAM: The Open Source CFD Toolbox           |
|  \\    /   O peration     | Version:  dev                                   |
|   \\  /    A nd           | Web:      www.OpenFOAM.org                      |
|    \\/     M anipulation  |                                                 |
\*---------------------------------------------------------------------------*/
FoamFile
{
    version     2.0;
    format      ascii;
    class       volScalarField;
    location    "0.05";
    object      H2O2;
}
// * * * * * * * * * * * * * * * * * * * * * * * * * * * * * * * * * * * * * //

dimensions      [0 0 0 0 0 0 0];

internalField   nonuniform List<scalar> 
1997
(
3.67738e-11
3.68153e-11
3.67574e-11
3.67232e-11
3.66548e-11
3.66118e-11
3.65654e-11
3.65339e-11
3.65057e-11
3.64875e-11
3.64711e-11
3.64614e-11
3.64518e-11
3.64469e-11
3.64412e-11
3.64389e-11
3.64355e-11
3.64345e-11
3.57785e-11
3.58156e-11
3.57504e-11
3.57113e-11
3.5637e-11
3.55919e-11
3.55437e-11
3.55109e-11
3.5482e-11
3.54632e-11
3.54464e-11
3.54365e-11
3.54267e-11
3.54217e-11
3.54159e-11
3.54135e-11
3.54101e-11
3.5409e-11
3.54066e-11
3.54061e-11
3.54048e-11
3.54047e-11
3.5404e-11
3.54039e-11
3.54037e-11
3.54037e-11
3.54039e-11
3.5404e-11
3.47899e-11
3.48214e-11
3.47497e-11
3.47068e-11
3.46288e-11
3.45824e-11
3.45332e-11
3.44998e-11
3.44707e-11
3.44517e-11
3.44349e-11
3.44248e-11
3.4415e-11
3.441e-11
3.44041e-11
3.44017e-11
3.43983e-11
3.43971e-11
3.43947e-11
3.43942e-11
3.43929e-11
3.43927e-11
3.4392e-11
3.4392e-11
3.43918e-11
3.43918e-11
3.4392e-11
3.43921e-11
3.43927e-11
3.43929e-11
3.43943e-11
3.43948e-11
3.43972e-11
3.43983e-11
3.44019e-11
3.44042e-11
3.44101e-11
3.44152e-11
3.4425e-11
3.44351e-11
3.37912e-11
3.3817e-11
3.3739e-11
3.36923e-11
3.3611e-11
3.35632e-11
3.35134e-11
3.34794e-11
3.34501e-11
3.34308e-11
3.3414e-11
3.34039e-11
3.3394e-11
3.3389e-11
3.33831e-11
3.33807e-11
3.33772e-11
3.33761e-11
3.33736e-11
3.33731e-11
3.33718e-11
3.33716e-11
3.33709e-11
3.33708e-11
3.33706e-11
3.33706e-11
3.33709e-11
3.33709e-11
3.33716e-11
3.33718e-11
3.33731e-11
3.33737e-11
3.33762e-11
3.33773e-11
3.33809e-11
3.33833e-11
3.33891e-11
3.33942e-11
3.34041e-11
3.34142e-11
3.3431e-11
3.34502e-11
3.34796e-11
3.35136e-11
3.35635e-11
3.36112e-11
3.36926e-11
3.37394e-11
3.38176e-11
3.37917e-11
3.27829e-11
3.28032e-11
3.2719e-11
3.26686e-11
3.25844e-11
3.25353e-11
3.24848e-11
3.24503e-11
3.24209e-11
3.24015e-11
3.23846e-11
3.23745e-11
3.23646e-11
3.23595e-11
3.23536e-11
3.23513e-11
3.23477e-11
3.23466e-11
3.2344e-11
3.23435e-11
3.23422e-11
3.2342e-11
3.23413e-11
3.23413e-11
3.2341e-11
3.2341e-11
3.23413e-11
3.23413e-11
3.2342e-11
3.23422e-11
3.23436e-11
3.23442e-11
3.23467e-11
3.23479e-11
3.23514e-11
3.23538e-11
3.23597e-11
3.23648e-11
3.23747e-11
3.23849e-11
3.24017e-11
3.2421e-11
3.24505e-11
3.2485e-11
3.25356e-11
3.25847e-11
3.2669e-11
3.27195e-11
3.28038e-11
3.27835e-11
3.17575e-11
3.1776e-11
3.16852e-11
3.16303e-11
3.15405e-11
3.1489e-11
3.14362e-11
3.14005e-11
3.13702e-11
3.13503e-11
3.1333e-11
3.13227e-11
3.13126e-11
3.13074e-11
3.13014e-11
3.1299e-11
3.12954e-11
3.12942e-11
3.12914e-11
3.12909e-11
3.12895e-11
3.12893e-11
3.12886e-11
3.12886e-11
3.12883e-11
3.12883e-11
3.12886e-11
3.12886e-11
3.12894e-11
3.12896e-11
3.1291e-11
3.12916e-11
3.12943e-11
3.12955e-11
3.12992e-11
3.13016e-11
3.13076e-11
3.13128e-11
3.1323e-11
3.13333e-11
3.13505e-11
3.13704e-11
3.14007e-11
3.14365e-11
3.14894e-11
3.15409e-11
3.16307e-11
3.16857e-11
3.17767e-11
3.17581e-11
3.07328e-11
3.07459e-11
3.06494e-11
3.0591e-11
3.0499e-11
3.04462e-11
3.03928e-11
3.03566e-11
3.03263e-11
3.03063e-11
3.02891e-11
3.02787e-11
3.02686e-11
3.02635e-11
3.02575e-11
3.02551e-11
3.02514e-11
3.02502e-11
3.02474e-11
3.02468e-11
3.02455e-11
3.02453e-11
3.02446e-11
3.02445e-11
3.02443e-11
3.02443e-11
3.02445e-11
3.02446e-11
3.02453e-11
3.02455e-11
3.02469e-11
3.02476e-11
3.02504e-11
3.02516e-11
3.02553e-11
3.02577e-11
3.02637e-11
3.02689e-11
3.0279e-11
3.02894e-11
3.03066e-11
3.03266e-11
3.03569e-11
3.03931e-11
3.04466e-11
3.04994e-11
3.05915e-11
3.065e-11
3.07467e-11
3.07335e-11
2.97017e-11
2.97096e-11
2.96078e-11
2.9546e-11
2.9452e-11
2.93981e-11
2.93442e-11
2.93077e-11
2.92774e-11
2.92573e-11
2.92402e-11
2.92298e-11
2.92198e-11
2.92147e-11
2.92087e-11
2.92063e-11
2.92026e-11
2.92014e-11
2.91985e-11
2.91979e-11
2.91965e-11
2.91964e-11
2.91956e-11
2.91956e-11
2.91954e-11
2.91954e-11
2.91956e-11
2.91957e-11
2.91964e-11
2.91966e-11
2.9198e-11
2.91987e-11
2.92016e-11
2.92028e-11
2.92065e-11
2.92089e-11
2.92149e-11
2.92201e-11
2.92302e-11
2.92406e-11
2.92576e-11
2.92777e-11
2.9308e-11
2.93445e-11
2.93985e-11
2.94524e-11
2.95466e-11
2.96084e-11
2.97104e-11
2.97025e-11
2.86657e-11
2.86683e-11
2.85615e-11
2.84966e-11
2.84011e-11
2.8346e-11
2.82917e-11
2.8255e-11
2.82249e-11
2.82047e-11
2.81877e-11
2.81774e-11
2.81674e-11
2.81623e-11
2.81563e-11
2.8154e-11
2.81503e-11
2.81491e-11
2.81461e-11
2.81455e-11
2.81441e-11
2.8144e-11
2.81432e-11
2.81432e-11
2.8143e-11
2.8143e-11
2.81432e-11
2.81433e-11
2.8144e-11
2.81442e-11
2.81456e-11
2.81463e-11
2.81493e-11
2.81506e-11
2.81542e-11
2.81566e-11
2.81626e-11
2.81677e-11
2.81777e-11
2.81881e-11
2.8205e-11
2.82252e-11
2.82553e-11
2.82921e-11
2.83464e-11
2.84015e-11
2.84972e-11
2.85621e-11
2.86692e-11
2.86664e-11
2.7626e-11
2.76235e-11
2.75121e-11
2.74442e-11
2.73476e-11
2.72916e-11
2.72369e-11
2.72e-11
2.71701e-11
2.715e-11
2.71332e-11
2.71229e-11
2.7113e-11
2.71079e-11
2.7102e-11
2.70997e-11
2.70961e-11
2.70948e-11
2.70917e-11
2.70911e-11
2.70897e-11
2.70896e-11
2.70888e-11
2.70888e-11
2.70886e-11
2.70886e-11
2.70888e-11
2.70889e-11
2.70896e-11
2.70898e-11
2.70912e-11
2.70919e-11
2.7095e-11
2.70963e-11
2.70999e-11
2.71023e-11
2.71082e-11
2.71133e-11
2.71232e-11
2.71335e-11
2.71503e-11
2.71705e-11
2.72004e-11
2.72373e-11
2.7292e-11
2.73481e-11
2.74448e-11
2.75127e-11
2.76244e-11
2.76268e-11
2.65709e-11
2.65659e-11
2.64488e-11
2.63772e-11
2.62782e-11
2.62199e-11
2.61635e-11
2.6126e-11
2.60958e-11
2.60753e-11
2.60584e-11
2.6048e-11
2.60381e-11
2.6033e-11
2.6027e-11
2.60246e-11
2.60209e-11
2.60196e-11
2.60163e-11
2.60157e-11
2.60143e-11
2.60141e-11
2.60134e-11
2.60134e-11
2.60131e-11
2.60131e-11
2.60134e-11
2.60134e-11
2.60142e-11
2.60144e-11
2.60158e-11
2.60165e-11
2.60198e-11
2.60212e-11
2.60248e-11
2.60272e-11
2.60332e-11
2.60384e-11
2.60484e-11
2.60588e-11
2.60756e-11
2.60961e-11
2.61264e-11
2.6164e-11
2.62203e-11
2.62786e-11
2.63777e-11
2.64494e-11
2.65668e-11
2.65716e-11
2.5528e-11
2.55184e-11
2.53974e-11
2.53231e-11
2.5224e-11
2.51649e-11
2.51082e-11
2.50708e-11
2.50409e-11
2.50205e-11
2.50038e-11
2.49935e-11
2.49837e-11
2.49786e-11
2.49727e-11
2.49704e-11
2.49668e-11
2.49654e-11
2.4962e-11
2.49614e-11
2.496e-11
2.49598e-11
2.49591e-11
2.49591e-11
2.49588e-11
2.49588e-11
2.49591e-11
2.49591e-11
2.49599e-11
2.49601e-11
2.49615e-11
2.49622e-11
2.49656e-11
2.4967e-11
2.49706e-11
2.4973e-11
2.49789e-11
2.4984e-11
2.49939e-11
2.50042e-11
2.50208e-11
2.50412e-11
2.50711e-11
2.51087e-11
2.51652e-11
2.52245e-11
2.53236e-11
2.5398e-11
2.55193e-11
2.55288e-11
2.44675e-11
2.44559e-11
2.43311e-11
2.42541e-11
2.41546e-11
2.40936e-11
2.40359e-11
2.39981e-11
2.39681e-11
2.39476e-11
2.3931e-11
2.39207e-11
2.3911e-11
2.3906e-11
2.39e-11
2.38977e-11
2.38941e-11
2.38928e-11
2.38891e-11
2.38885e-11
2.38871e-11
2.38869e-11
2.38862e-11
2.38862e-11
2.38859e-11
2.38859e-11
2.38862e-11
2.38862e-11
2.3887e-11
2.38872e-11
2.38886e-11
2.38893e-11
2.38929e-11
2.38943e-11
2.3898e-11
2.39003e-11
2.39063e-11
2.39113e-11
2.39211e-11
2.39314e-11
2.39479e-11
2.39684e-11
2.39984e-11
2.40363e-11
2.40939e-11
2.4155e-11
2.42546e-11
2.43317e-11
2.44568e-11
2.44683e-11
2.34283e-11
2.34126e-11
2.3285e-11
2.32058e-11
2.3107e-11
2.30452e-11
2.29877e-11
2.295e-11
2.29205e-11
2.29001e-11
2.28839e-11
2.28737e-11
2.28641e-11
2.28592e-11
2.28534e-11
2.28511e-11
2.28475e-11
2.28462e-11
2.28424e-11
2.28418e-11
2.28404e-11
2.28402e-11
2.28395e-11
2.28395e-11
2.28393e-11
2.28393e-11
2.28395e-11
2.28395e-11
2.28403e-11
2.28405e-11
2.28419e-11
2.28426e-11
2.28464e-11
2.28477e-11
2.28514e-11
2.28536e-11
2.28595e-11
2.28644e-11
2.28741e-11
2.28843e-11
2.29004e-11
2.29208e-11
2.29503e-11
2.29882e-11
2.30454e-11
2.31074e-11
2.32063e-11
2.32855e-11
2.34135e-11
2.34291e-11
2.23828e-11
2.23634e-11
2.223e-11
2.21472e-11
2.20471e-11
2.19833e-11
2.1925e-11
2.18868e-11
2.18573e-11
2.18366e-11
2.18205e-11
2.18103e-11
2.18008e-11
2.17959e-11
2.179e-11
2.17878e-11
2.17842e-11
2.17829e-11
2.17788e-11
2.17781e-11
2.17768e-11
2.17766e-11
2.17759e-11
2.17759e-11
2.17756e-11
2.17756e-11
2.17759e-11
2.17759e-11
2.17767e-11
2.17768e-11
2.17782e-11
2.17789e-11
2.1783e-11
2.17844e-11
2.1788e-11
2.17903e-11
2.17962e-11
2.18011e-11
2.18107e-11
2.18208e-11
2.18369e-11
2.18575e-11
2.1887e-11
2.19255e-11
2.19836e-11
2.20475e-11
2.21476e-11
2.22306e-11
2.23643e-11
2.23835e-11
2.13233e-11
2.12995e-11
2.1165e-11
2.10807e-11
2.09818e-11
2.0918e-11
2.08601e-11
2.08224e-11
2.07935e-11
2.0773e-11
2.07574e-11
2.07474e-11
2.07381e-11
2.07333e-11
2.07276e-11
2.07254e-11
2.07219e-11
2.07206e-11
2.07163e-11
2.07156e-11
2.07143e-11
2.07142e-11
2.07135e-11
2.07135e-11
2.07132e-11
2.07132e-11
2.07135e-11
2.07135e-11
2.07142e-11
2.07144e-11
2.07157e-11
2.07164e-11
2.07207e-11
2.07221e-11
2.07257e-11
2.07279e-11
2.07336e-11
2.07384e-11
2.07478e-11
2.07577e-11
2.07733e-11
2.07937e-11
2.08226e-11
2.08605e-11
2.09182e-11
2.09822e-11
2.10811e-11
2.11655e-11
2.13003e-11
2.1324e-11
2.02716e-11
2.02438e-11
2.01088e-11
2.00235e-11
1.9926e-11
1.98622e-11
1.98054e-11
1.97683e-11
1.974e-11
1.97197e-11
1.97046e-11
1.96948e-11
1.96858e-11
1.96812e-11
1.96756e-11
1.96735e-11
1.96701e-11
1.96687e-11
1.96642e-11
1.96636e-11
1.96623e-11
1.96622e-11
1.96615e-11
1.96614e-11
1.96612e-11
1.96612e-11
1.96615e-11
1.96615e-11
1.96622e-11
1.96623e-11
1.96637e-11
1.96643e-11
1.96689e-11
1.96702e-11
1.96737e-11
1.96758e-11
1.96814e-11
1.96861e-11
1.96952e-11
1.97049e-11
1.97199e-11
1.97402e-11
1.97685e-11
1.98058e-11
1.98624e-11
1.99263e-11
2.00239e-11
2.01093e-11
2.02446e-11
2.02723e-11
1.92302e-11
1.91986e-11
1.90639e-11
1.8978e-11
1.8882e-11
1.88185e-11
1.87631e-11
1.87267e-11
1.86991e-11
1.8679e-11
1.86644e-11
1.86549e-11
1.86462e-11
1.86417e-11
1.86363e-11
1.86342e-11
1.86309e-11
1.86296e-11
1.86248e-11
1.86242e-11
1.86229e-11
1.86228e-11
1.86222e-11
1.86222e-11
1.86219e-11
1.86219e-11
1.86222e-11
1.86222e-11
1.86229e-11
1.8623e-11
1.86243e-11
1.8625e-11
1.86297e-11
1.86311e-11
1.86344e-11
1.86365e-11
1.86419e-11
1.86465e-11
1.86553e-11
1.86647e-11
1.86792e-11
1.86992e-11
1.8727e-11
1.87635e-11
1.88187e-11
1.88823e-11
1.89784e-11
1.90643e-11
1.91994e-11
1.92308e-11
1.82315e-11
1.81974e-11
1.80626e-11
1.79767e-11
1.7882e-11
1.78189e-11
1.7765e-11
1.77293e-11
1.77024e-11
1.76825e-11
1.76683e-11
1.76591e-11
1.76507e-11
1.76463e-11
1.76411e-11
1.76391e-11
1.76359e-11
1.76346e-11
1.76295e-11
1.76289e-11
1.76277e-11
1.76276e-11
1.7627e-11
1.7627e-11
1.76268e-11
1.76268e-11
1.7627e-11
1.7627e-11
1.76277e-11
1.76278e-11
1.7629e-11
1.76297e-11
1.76348e-11
1.76361e-11
1.76393e-11
1.76413e-11
1.76466e-11
1.7651e-11
1.76595e-11
1.76687e-11
1.76827e-11
1.77025e-11
1.77295e-11
1.77653e-11
1.78191e-11
1.78823e-11
1.79771e-11
1.8063e-11
1.8198e-11
1.8232e-11
1.72483e-11
1.72119e-11
1.70779e-11
1.69922e-11
1.68989e-11
1.68366e-11
1.67809e-11
1.6744e-11
1.67165e-11
1.66959e-11
1.66816e-11
1.66721e-11
1.66637e-11
1.66593e-11
1.6654e-11
1.6652e-11
1.66487e-11
1.66474e-11
1.66415e-11
1.66409e-11
1.66397e-11
1.66396e-11
1.66389e-11
1.66389e-11
1.66387e-11
1.66387e-11
1.66389e-11
1.6639e-11
1.66396e-11
1.66397e-11
1.6641e-11
1.66416e-11
1.66476e-11
1.66489e-11
1.66522e-11
1.66542e-11
1.66595e-11
1.66639e-11
1.66725e-11
1.66819e-11
1.6696e-11
1.67166e-11
1.67443e-11
1.67812e-11
1.68368e-11
1.68992e-11
1.69926e-11
1.70783e-11
1.72125e-11
1.72487e-11
1.62773e-11
1.62335e-11
1.60948e-11
1.60062e-11
1.59122e-11
1.58497e-11
1.57948e-11
1.5758e-11
1.57309e-11
1.57099e-11
1.56959e-11
1.56866e-11
1.56784e-11
1.5674e-11
1.56689e-11
1.56669e-11
1.56637e-11
1.56624e-11
1.56559e-11
1.56553e-11
1.56541e-11
1.5654e-11
1.56534e-11
1.56534e-11
1.56531e-11
1.56531e-11
1.56534e-11
1.56534e-11
1.5654e-11
1.56541e-11
1.56554e-11
1.5656e-11
1.56626e-11
1.56639e-11
1.56671e-11
1.56691e-11
1.56743e-11
1.56786e-11
1.5687e-11
1.56962e-11
1.57101e-11
1.57309e-11
1.57582e-11
1.57951e-11
1.58499e-11
1.59125e-11
1.60066e-11
1.60951e-11
1.6234e-11
1.62777e-11
1.53309e-11
1.52855e-11
1.51483e-11
1.50602e-11
1.49684e-11
1.49067e-11
1.48542e-11
1.48179e-11
1.47918e-11
1.47707e-11
1.47572e-11
1.47482e-11
1.47403e-11
1.47362e-11
1.47312e-11
1.47293e-11
1.47262e-11
1.47251e-11
1.4718e-11
1.47174e-11
1.47163e-11
1.47162e-11
1.47156e-11
1.47156e-11
1.47154e-11
1.47154e-11
1.47156e-11
1.47156e-11
1.47162e-11
1.47163e-11
1.47175e-11
1.4718e-11
1.47252e-11
1.47264e-11
1.47295e-11
1.47314e-11
1.47364e-11
1.47406e-11
1.47486e-11
1.47575e-11
1.47708e-11
1.47918e-11
1.48181e-11
1.48545e-11
1.49068e-11
1.49687e-11
1.50605e-11
1.51486e-11
1.52859e-11
1.53313e-11
1.44023e-11
1.4357e-11
1.42197e-11
1.41313e-11
1.40478e-11
1.39871e-11
1.39374e-11
1.39018e-11
1.38768e-11
1.38553e-11
1.38424e-11
1.38337e-11
1.38262e-11
1.38222e-11
1.38174e-11
1.38156e-11
1.38127e-11
1.38117e-11
1.38039e-11
1.38035e-11
1.38024e-11
1.38023e-11
1.38018e-11
1.38018e-11
1.38016e-11
1.38016e-11
1.38018e-11
1.38018e-11
1.38024e-11
1.38024e-11
1.38036e-11
1.3804e-11
1.38118e-11
1.38128e-11
1.38158e-11
1.38176e-11
1.38224e-11
1.38264e-11
1.38341e-11
1.38427e-11
1.38554e-11
1.38768e-11
1.39019e-11
1.39376e-11
1.39872e-11
1.40481e-11
1.41316e-11
1.422e-11
1.43573e-11
1.44027e-11
1.35014e-11
1.34554e-11
1.33206e-11
1.32329e-11
1.31499e-11
1.30877e-11
1.30388e-11
1.30028e-11
1.29783e-11
1.29557e-11
1.2943e-11
1.29344e-11
1.2927e-11
1.29232e-11
1.29184e-11
1.29167e-11
1.29138e-11
1.2913e-11
1.29156e-11
1.29153e-11
1.29142e-11
1.29142e-11
1.29136e-11
1.29136e-11
1.29134e-11
1.29134e-11
1.29136e-11
1.29136e-11
1.29142e-11
1.29143e-11
1.29153e-11
1.29157e-11
1.29131e-11
1.29139e-11
1.29168e-11
1.29186e-11
1.29233e-11
1.29273e-11
1.29348e-11
1.29433e-11
1.29557e-11
1.29783e-11
1.3003e-11
1.3039e-11
1.30878e-11
1.31502e-11
1.32332e-11
1.33209e-11
1.34557e-11
1.35017e-11
1.26262e-11
1.25797e-11
1.24482e-11
1.23615e-11
1.22818e-11
1.22207e-11
1.21747e-11
1.21395e-11
1.21163e-11
1.20929e-11
1.20809e-11
1.20726e-11
1.20656e-11
1.2062e-11
1.20575e-11
1.20558e-11
1.2053e-11
1.20524e-11
1.20537e-11
1.20534e-11
1.20524e-11
1.20524e-11
1.20518e-11
1.20518e-11
1.20517e-11
1.20517e-11
1.20518e-11
1.20518e-11
1.20524e-11
1.20524e-11
1.20535e-11
1.20538e-11
1.20525e-11
1.20531e-11
1.20559e-11
1.20576e-11
1.20621e-11
1.20659e-11
1.20731e-11
1.20811e-11
1.20929e-11
1.21163e-11
1.21396e-11
1.21749e-11
1.22208e-11
1.22821e-11
1.23618e-11
1.24484e-11
1.258e-11
1.26265e-11
1.17642e-11
1.17157e-11
1.15875e-11
1.15188e-11
1.14425e-11
1.13828e-11
1.13396e-11
1.13053e-11
1.12837e-11
1.12594e-11
1.1248e-11
1.12401e-11
1.12335e-11
1.123e-11
1.12257e-11
1.12242e-11
1.12216e-11
1.1221e-11
1.1222e-11
1.12219e-11
1.12209e-11
1.12209e-11
1.12204e-11
1.12204e-11
1.12202e-11
1.12202e-11
1.12204e-11
1.12204e-11
1.12209e-11
1.12209e-11
1.12219e-11
1.12221e-11
1.12211e-11
1.12217e-11
1.12243e-11
1.12259e-11
1.12302e-11
1.12337e-11
1.12406e-11
1.12482e-11
1.12594e-11
1.12837e-11
1.13055e-11
1.13398e-11
1.13828e-11
1.14427e-11
1.15191e-11
1.15877e-11
1.17158e-11
1.17644e-11
1.09452e-11
1.08964e-11
1.07733e-11
1.07053e-11
1.06288e-11
1.05683e-11
1.05262e-11
1.04923e-11
1.04715e-11
1.04454e-11
1.04344e-11
1.04267e-11
1.04203e-11
1.04169e-11
1.04127e-11
1.04112e-11
1.04087e-11
1.04082e-11
1.0409e-11
1.04088e-11
1.04079e-11
1.04079e-11
1.04074e-11
1.04074e-11
1.04072e-11
1.04072e-11
1.04074e-11
1.04074e-11
1.04079e-11
1.04079e-11
1.04089e-11
1.0409e-11
1.04083e-11
1.04088e-11
1.04113e-11
1.04129e-11
1.04171e-11
1.04205e-11
1.04271e-11
1.04346e-11
1.04454e-11
1.04715e-11
1.04924e-11
1.05264e-11
1.05683e-11
1.06291e-11
1.07055e-11
1.07735e-11
1.08965e-11
1.09454e-11
1.01414e-11
1.00909e-11
9.97124e-12
9.90371e-12
9.83033e-12
9.77157e-12
9.73221e-12
9.69989e-12
9.68083e-12
9.67435e-12
9.66397e-12
9.65669e-12
9.6507e-12
9.64751e-12
9.64357e-12
9.64215e-12
9.63975e-12
9.63938e-12
9.63988e-12
9.6398e-12
9.63892e-12
9.63892e-12
9.63844e-12
9.63846e-12
9.63829e-12
9.63829e-12
9.63846e-12
9.63844e-12
9.63893e-12
9.63894e-12
9.63984e-12
9.63992e-12
9.63945e-12
9.63983e-12
9.64225e-12
9.64369e-12
9.64765e-12
9.65088e-12
9.65712e-12
9.66419e-12
9.67426e-12
9.68084e-12
9.70004e-12
9.73239e-12
9.77161e-12
9.83056e-12
9.90393e-12
9.97141e-12
1.0091e-11
1.01415e-11
9.38497e-12
9.33497e-12
9.22056e-12
9.15507e-12
9.08552e-12
9.02887e-12
8.99174e-12
8.96122e-12
8.94359e-12
8.93672e-12
8.92702e-12
8.92019e-12
8.91457e-12
8.91159e-12
8.90786e-12
8.90654e-12
8.90428e-12
8.90399e-12
8.90427e-12
8.90424e-12
8.90342e-12
8.90342e-12
8.90297e-12
8.90299e-12
8.90284e-12
8.90283e-12
8.90299e-12
8.90297e-12
8.90343e-12
8.90343e-12
8.90427e-12
8.90431e-12
8.90404e-12
8.90436e-12
8.90663e-12
8.90797e-12
8.91171e-12
8.91473e-12
8.92057e-12
8.92726e-12
8.93662e-12
8.94361e-12
8.96136e-12
8.99191e-12
9.0289e-12
9.08572e-12
9.15526e-12
9.22071e-12
9.33504e-12
9.3851e-12
8.6621e-12
8.61296e-12
8.50388e-12
8.44077e-12
8.37441e-12
8.31794e-12
8.28186e-12
8.25218e-12
8.23546e-12
8.22767e-12
8.21838e-12
8.21183e-12
8.20645e-12
8.20359e-12
8.20001e-12
8.19875e-12
8.19658e-12
8.19632e-12
8.19644e-12
8.19643e-12
8.19564e-12
8.19565e-12
8.19522e-12
8.19524e-12
8.19509e-12
8.19509e-12
8.19524e-12
8.19521e-12
8.19566e-12
8.19565e-12
8.19645e-12
8.19647e-12
8.19637e-12
8.19665e-12
8.19884e-12
8.20011e-12
8.20371e-12
8.2066e-12
8.21216e-12
8.21864e-12
8.22756e-12
8.2355e-12
8.25232e-12
8.28203e-12
8.31796e-12
8.37459e-12
8.44094e-12
8.50401e-12
8.61301e-12
8.66221e-12
7.97355e-12
7.9256e-12
7.82193e-12
7.76151e-12
7.69914e-12
7.6447e-12
7.61076e-12
7.58285e-12
7.56745e-12
7.55935e-12
7.55068e-12
7.54456e-12
7.53955e-12
7.53689e-12
7.53353e-12
7.53237e-12
7.53034e-12
7.53012e-12
7.5301e-12
7.53011e-12
7.52938e-12
7.5294e-12
7.52899e-12
7.52902e-12
7.52888e-12
7.52888e-12
7.52901e-12
7.52899e-12
7.5294e-12
7.52938e-12
7.53013e-12
7.53013e-12
7.53017e-12
7.5304e-12
7.53245e-12
7.53362e-12
7.537e-12
7.53968e-12
7.54484e-12
7.55096e-12
7.55923e-12
7.5675e-12
7.58298e-12
7.61092e-12
7.64472e-12
7.6993e-12
7.76166e-12
7.82204e-12
7.92564e-12
7.97365e-12
7.31455e-12
7.26605e-12
7.16519e-12
7.10634e-12
7.04698e-12
6.99376e-12
6.96137e-12
6.93503e-12
6.92071e-12
6.91237e-12
6.90419e-12
6.89842e-12
6.89375e-12
6.89125e-12
6.88809e-12
6.887e-12
6.88509e-12
6.8849e-12
6.88477e-12
6.8848e-12
6.88411e-12
6.88414e-12
6.88376e-12
6.88378e-12
6.88365e-12
6.88365e-12
6.88378e-12
6.88375e-12
6.88414e-12
6.88412e-12
6.88481e-12
6.8848e-12
6.88494e-12
6.88515e-12
6.88707e-12
6.88818e-12
6.89135e-12
6.89387e-12
6.89866e-12
6.9045e-12
6.91222e-12
6.92077e-12
6.93516e-12
6.96151e-12
6.99377e-12
7.04712e-12
7.10648e-12
7.16529e-12
7.2661e-12
7.31464e-12
6.67933e-12
6.63224e-12
6.53756e-12
6.48196e-12
6.42697e-12
6.39145e-12
6.36124e-12
6.33673e-12
6.32358e-12
6.31521e-12
6.30759e-12
6.30225e-12
6.29794e-12
6.29564e-12
6.29269e-12
6.29169e-12
6.28992e-12
6.28976e-12
6.28954e-12
6.28958e-12
6.28895e-12
6.28897e-12
6.28862e-12
6.28865e-12
6.28853e-12
6.28853e-12
6.28865e-12
6.28862e-12
6.28898e-12
6.28895e-12
6.28959e-12
6.28956e-12
6.28979e-12
6.28997e-12
6.29176e-12
6.29277e-12
6.29572e-12
6.29805e-12
6.30245e-12
6.30791e-12
6.31504e-12
6.32363e-12
6.33685e-12
6.36136e-12
6.39145e-12
6.42709e-12
6.48208e-12
6.53764e-12
6.63229e-12
6.67941e-12
6.09611e-12
6.05087e-12
5.96168e-12
5.90913e-12
5.85853e-12
5.82456e-12
5.79597e-12
5.77264e-12
5.7603e-12
5.75179e-12
5.74457e-12
5.73956e-12
5.7355e-12
5.73334e-12
5.73056e-12
5.72963e-12
5.72795e-12
5.72781e-12
5.72751e-12
5.72756e-12
5.72696e-12
5.727e-12
5.72666e-12
5.72669e-12
5.72658e-12
5.72658e-12
5.72669e-12
5.72666e-12
5.727e-12
5.72696e-12
5.72757e-12
5.72752e-12
5.72784e-12
5.72799e-12
5.72969e-12
5.73063e-12
5.73342e-12
5.7356e-12
5.73972e-12
5.7449e-12
5.7516e-12
5.76034e-12
5.77275e-12
5.79607e-12
5.82456e-12
5.85864e-12
5.90923e-12
5.96174e-12
6.05092e-12
6.09618e-12
5.54876e-12
5.50553e-12
5.42182e-12
5.37241e-12
5.32599e-12
5.29402e-12
5.26777e-12
5.24612e-12
5.23479e-12
5.22648e-12
5.21981e-12
5.21521e-12
5.21147e-12
5.20949e-12
5.20692e-12
5.20607e-12
5.20452e-12
5.2044e-12
5.20405e-12
5.2041e-12
5.20355e-12
5.20359e-12
5.20328e-12
5.20331e-12
5.20321e-12
5.20321e-12
5.20331e-12
5.20328e-12
5.20359e-12
5.20355e-12
5.20411e-12
5.20406e-12
5.20442e-12
5.20456e-12
5.20613e-12
5.20698e-12
5.20957e-12
5.21156e-12
5.21533e-12
5.22012e-12
5.22629e-12
5.23482e-12
5.24622e-12
5.26784e-12
5.29402e-12
5.32609e-12
5.37248e-12
5.42186e-12
5.50557e-12
5.54881e-12
5.03687e-12
4.99579e-12
4.91754e-12
4.87081e-12
4.82715e-12
4.79609e-12
4.77188e-12
4.75153e-12
4.74092e-12
4.73296e-12
4.72675e-12
4.7225e-12
4.71899e-12
4.71715e-12
4.71475e-12
4.71397e-12
4.71251e-12
4.7124e-12
4.71204e-12
4.71209e-12
4.71158e-12
4.71162e-12
4.71133e-12
4.71136e-12
4.71126e-12
4.71126e-12
4.71136e-12
4.71132e-12
4.71162e-12
4.71158e-12
4.7121e-12
4.71205e-12
4.71242e-12
4.71255e-12
4.71401e-12
4.7148e-12
4.71722e-12
4.71907e-12
4.72259e-12
4.72703e-12
4.7328e-12
4.74095e-12
4.75162e-12
4.77194e-12
4.7961e-12
4.82727e-12
4.87086e-12
4.91756e-12
4.99582e-12
5.03691e-12
4.55993e-12
4.52107e-12
4.44823e-12
4.40469e-12
4.36469e-12
4.33561e-12
4.31366e-12
4.29495e-12
4.28519e-12
4.27758e-12
4.27192e-12
4.26805e-12
4.26482e-12
4.26314e-12
4.26093e-12
4.26023e-12
4.25889e-12
4.2588e-12
4.25841e-12
4.25847e-12
4.258e-12
4.25804e-12
4.25777e-12
4.2578e-12
4.25771e-12
4.25771e-12
4.2578e-12
4.25777e-12
4.25804e-12
4.258e-12
4.25847e-12
4.25842e-12
4.25882e-12
4.25892e-12
4.26027e-12
4.26099e-12
4.2632e-12
4.26488e-12
4.26811e-12
4.27217e-12
4.27744e-12
4.28521e-12
4.29502e-12
4.3137e-12
4.33562e-12
4.36484e-12
4.40467e-12
4.44824e-12
4.5211e-12
4.55995e-12
4.11332e-12
4.07574e-12
4.0072e-12
3.96612e-12
3.92944e-12
3.90203e-12
3.88215e-12
3.86491e-12
3.85588e-12
3.84862e-12
3.84349e-12
3.83994e-12
3.83695e-12
3.83542e-12
3.8334e-12
3.83276e-12
3.83153e-12
3.83144e-12
3.83104e-12
3.8311e-12
3.83066e-12
3.83071e-12
3.83046e-12
3.83049e-12
3.83041e-12
3.83041e-12
3.83049e-12
3.83046e-12
3.8307e-12
3.83066e-12
3.8311e-12
3.83105e-12
3.83145e-12
3.83155e-12
3.83279e-12
3.83344e-12
3.83548e-12
3.83701e-12
3.83998e-12
3.8437e-12
3.84849e-12
3.85588e-12
3.86495e-12
3.88218e-12
3.90204e-12
3.92954e-12
3.96614e-12
4.0072e-12
4.07576e-12
4.11332e-12
3.70381e-12
3.66855e-12
3.60514e-12
3.56707e-12
3.53378e-12
3.50834e-12
3.4905e-12
3.47474e-12
3.4665e-12
3.45967e-12
3.45507e-12
3.45185e-12
3.44911e-12
3.44773e-12
3.44588e-12
3.44531e-12
3.44419e-12
3.44411e-12
3.44371e-12
3.44377e-12
3.44337e-12
3.44341e-12
3.44319e-12
3.44322e-12
3.44314e-12
3.44314e-12
3.44322e-12
3.44319e-12
3.44341e-12
3.44337e-12
3.44377e-12
3.44371e-12
3.44412e-12
3.44421e-12
3.44534e-12
3.44592e-12
3.44778e-12
3.44917e-12
3.45187e-12
3.45523e-12
3.45955e-12
3.46649e-12
3.47475e-12
3.49053e-12
3.50833e-12
3.53385e-12
3.56708e-12
3.60513e-12
3.66856e-12
3.7038e-12
3.32661e-12
3.29367e-12
3.2353e-12
3.20009e-12
3.16998e-12
3.1465e-12
3.13055e-12
3.11625e-12
3.10875e-12
3.10241e-12
3.09827e-12
3.09535e-12
3.09286e-12
3.09162e-12
3.08994e-12
3.08943e-12
3.08841e-12
3.08834e-12
3.08795e-12
3.088e-12
3.08764e-12
3.08769e-12
3.08748e-12
3.08751e-12
3.08744e-12
3.08744e-12
3.08751e-12
3.08748e-12
3.08768e-12
3.08764e-12
3.088e-12
3.08795e-12
3.08835e-12
3.08843e-12
3.08946e-12
3.08998e-12
3.09166e-12
3.09291e-12
3.09537e-12
3.0984e-12
3.1023e-12
3.10872e-12
3.11625e-12
3.13056e-12
3.1465e-12
3.17003e-12
3.2001e-12
3.23528e-12
3.29367e-12
3.32659e-12
2.98046e-12
2.94986e-12
2.89514e-12
2.86159e-12
2.83368e-12
2.81168e-12
2.79718e-12
2.78403e-12
2.7771e-12
2.77117e-12
2.76741e-12
2.76474e-12
2.76244e-12
2.76131e-12
2.75977e-12
2.75931e-12
2.75837e-12
2.7583e-12
2.75792e-12
2.75797e-12
2.75764e-12
2.75768e-12
2.75749e-12
2.75752e-12
2.75746e-12
2.75746e-12
2.75752e-12
2.75749e-12
2.75768e-12
2.75764e-12
2.75797e-12
2.75792e-12
2.75831e-12
2.75838e-12
2.75933e-12
2.7598e-12
2.76134e-12
2.76248e-12
2.76474e-12
2.7675e-12
2.77107e-12
2.77708e-12
2.78402e-12
2.79719e-12
2.81169e-12
2.83373e-12
2.8616e-12
2.89512e-12
2.94985e-12
2.98044e-12
2.66398e-12
2.63574e-12
2.58555e-12
2.55456e-12
2.52933e-12
2.50927e-12
2.49637e-12
2.48449e-12
2.47823e-12
2.4728e-12
2.46943e-12
)
;

boundaryField
{
    fuel
    {
        type            fixedValue;
        value           nonuniform 0();
    }
    wall
    {
        type            zeroGradient;
    }
    outlet
    {
        type            zeroGradient;
    }
    frontAndBack
    {
        type            empty;
    }
    procBoundary2to0
    {
        type            processor;
        value           nonuniform List<scalar> 
53
(
3.77389e-11
3.7786e-11
3.7735e-11
3.77046e-11
3.76402e-11
3.75987e-11
3.75532e-11
3.75224e-11
3.74946e-11
3.74766e-11
3.74603e-11
3.74507e-11
3.74412e-11
3.74363e-11
3.74307e-11
3.74284e-11
3.7425e-11
3.7424e-11
3.64322e-11
3.64322e-11
3.64318e-11
3.64305e-11
3.64303e-11
3.64297e-11
3.64296e-11
3.64294e-11
3.64294e-11
3.64296e-11
3.64297e-11
3.54047e-11
3.54047e-11
3.54049e-11
3.54062e-11
3.54067e-11
3.54091e-11
3.54102e-11
3.54137e-11
3.5416e-11
3.54219e-11
3.54269e-11
3.54367e-11
3.54467e-11
3.44519e-11
3.44519e-11
3.44709e-11
3.45e-11
3.45335e-11
3.45826e-11
3.4629e-11
3.47071e-11
3.47501e-11
3.48219e-11
3.47904e-11
)
;
    }
    procBoundary2to3
    {
        type            processor;
        value           nonuniform List<scalar> 
51
(
2.46707e-12
2.465e-12
2.46398e-12
2.46259e-12
2.46219e-12
2.46133e-12
2.46128e-12
2.46091e-12
2.46096e-12
2.46066e-12
2.4607e-12
2.46053e-12
2.46056e-12
2.4605e-12
2.4605e-12
2.46056e-12
2.46053e-12
2.4607e-12
2.46066e-12
2.46096e-12
2.46091e-12
2.46128e-12
2.46135e-12
2.46221e-12
2.46262e-12
2.46401e-12
2.46503e-12
2.46708e-12
2.46954e-12
2.47274e-12
2.47825e-12
2.48451e-12
2.49641e-12
2.50931e-12
2.5294e-12
2.55461e-12
2.58559e-12
2.63577e-12
2.664e-12
2.37571e-12
2.34967e-12
2.30408e-12
2.27522e-12
2.25268e-12
2.23439e-12
2.22296e-12
2.21227e-12
2.20665e-12
2.20171e-12
2.46707e-12
2.19871e-12
)
;
    }
}


// ************************************************************************* //
