/*--------------------------------*- C++ -*----------------------------------*\
| =========                 |                                                 |
| \\      /  F ield         | OpenFOAM: The Open Source CFD Toolbox           |
|  \\    /   O peration     | Version:  dev                                   |
|   \\  /    A nd           | Web:      www.OpenFOAM.org                      |
|    \\/     M anipulation  |                                                 |
\*---------------------------------------------------------------------------*/
FoamFile
{
    version     2.0;
    format      ascii;
    class       volScalarField;
    location    "0.05";
    object      N2;
}
// * * * * * * * * * * * * * * * * * * * * * * * * * * * * * * * * * * * * * //

dimensions      [0 0 0 0 0 0 0];

internalField   nonuniform List<scalar> 
250
(
0.00122969
0.000226085
2.90715e-05
3.4169e-06
5.59474e-07
2.27465e-07
1.95861e-07
1.84168e-07
0
0.00351344
0.000438077
5.57302e-05
6.55309e-06
1.12002e-06
4.89954e-07
4.27956e-07
4.09058e-07
0
0.00588977
0.000683996
8.58483e-05
1.02376e-05
1.856e-06
8.86346e-07
7.86558e-07
7.63306e-07
0
0.00773635
0.000956994
0.000118217
1.45069e-05
2.79641e-06
1.44326e-06
1.29697e-06
1.27169e-06
4.78048e-07
0.00885168
0.00124318
0.000150897
1.93256e-05
3.96217e-06
2.18411e-06
1.98246e-06
1.95672e-06
1.33071e-06
0.00981502
0.00151611
0.000182366
2.46367e-05
5.37164e-06
3.13653e-06
2.87136e-06
2.84649e-06
2.38731e-06
0.0106977
0.00179406
0.000212045
3.03789e-05
7.05484e-06
4.33939e-06
4.00334e-06
3.98125e-06
3.65067e-06
0.0115089
0.00204713
0.000240147
3.65004e-05
9.06356e-06
5.84474e-06
5.43064e-06
5.41451e-06
5.16384e-06
0.0122424
0.00224809
0.000273332
4.39673e-05
1.14511e-05
7.7091e-06
7.21024e-06
7.20604e-06
6.99155e-06
0.0128824
0.00242325
0.000308739
5.09967e-05
1.43208e-05
1.01396e-05
9.5461e-06
9.56906e-06
9.35539e-06
0.0134085
0.00256149
0.000344094
5.94246e-05
1.81914e-05
1.35167e-05
1.28208e-05
1.28838e-05
1.26496e-05
1.3432e-05
0.0138005
0.00266055
0.000371456
6.85395e-05
2.29818e-05
1.78829e-05
1.70778e-05
1.72024e-05
1.69412e-05
1.76495e-05
0.0140424
0.00272133
0.000398425
7.85121e-05
2.89411e-05
2.35106e-05
2.25901e-05
2.28024e-05
2.25178e-05
2.31307e-05
0.0141244
0.00274582
0.000424905
8.95735e-05
3.6388e-05
3.07485e-05
2.97061e-05
3.00378e-05
2.97346e-05
3.033e-05
0.0140413
0.00273764
0.000448335
0.000102047
4.57288e-05
4.00356e-05
3.88641e-05
3.93537e-05
3.90319e-05
3.96638e-05
0.013796
0.00270204
0.000468863
0.000116386
5.74788e-05
5.19206e-05
5.06118e-05
5.13051e-05
5.0958e-05
5.16558e-05
0.0134009
0.00263962
0.000486914
0.000133202
7.22874e-05
6.70846e-05
6.56291e-05
6.65807e-05
6.6193e-05
6.69803e-05
0.0128791
0.0025575
0.000503221
0.00015328
9.09678e-05
8.63681e-05
8.47556e-05
8.60295e-05
8.55774e-05
8.64827e-05
0.0121834
0.00246075
0.000518817
0.000177613
0.000114534
0.000110801
0.000109023
0.000110692
0.000110143
0.000111204
0.0114619
0.00235494
0.00053505
0.000207421
0.000144248
0.000141637
0.000139691
0.000141836
0.000141148
0.000142416
0.0106085
0.00224505
0.000553574
0.000244175
0.000181679
0.000180389
0.000178293
0.000180993
0.000180118
0.000181654
0.00981853
0.00213635
0.00057636
0.000289575
0.000228789
0.00022885
0.000226675
0.000229994
0.000228879
0.000230762
0.00881737
0.00203318
0.000605717
0.000339724
0.00027968
0.000282005
0.000279499
0.000283635
0.000282216
0.000284491
0.00800335
0.00194101
0.000644778
0.000405071
0.000347542
0.000352506
0.000349754
0.000354963
0.000353097
0.000355964
0.00725074
0.00186383
0.000697579
0.000479232
0.000423532
0.00043134
0.000428222
0.000434553
0.000432206
0.000435688
0.00648285
0.00180554
0.000756187
0.000568315
0.000514842
0.000525818
0.00052229
0.00052992
0.000526987
0.000531213
)
;

boundaryField
{
    fuel
    {
        type            fixedValue;
        value           uniform 0;
    }
    wall
    {
        type            zeroGradient;
    }
    outlet
    {
        type            zeroGradient;
    }
    frontAndBack
    {
        type            empty;
    }
    procBoundary2to0
    {
        type            processor;
        value           nonuniform List<scalar> 
12
(
0.000439775
0.00575844
0.00177158
0.00083077
0.00067522
0.000623815
0.000638582
0.000634501
0.000643676
0.000640037
0.000536163
0.000645148
)
;
    }
    procBoundary2to3
    {
        type            processor;
        value           nonuniform List<scalar> 
25
(
0
0
0
5.05908e-07
1.39045e-06
2.49127e-06
3.81545e-06
5.42661e-06
7.43028e-06
1.00304e-05
1.00304e-05
1.313e-05
1.75154e-05
2.32022e-05
3.05516e-05
4.00159e-05
5.21571e-05
6.76685e-05
8.74004e-05
0.000112392
0.000143908
0.000183485
0.000232971
0.000287135
0.000359332
)
;
    }
}


// ************************************************************************* //
