/*--------------------------------*- C++ -*----------------------------------*\
| =========                 |                                                 |
| \\      /  F ield         | OpenFOAM: The Open Source CFD Toolbox           |
|  \\    /   O peration     | Version:  dev                                   |
|   \\  /    A nd           | Web:      www.OpenFOAM.org                      |
|    \\/     M anipulation  |                                                 |
\*---------------------------------------------------------------------------*/
FoamFile
{
    version     2.0;
    format      ascii;
    class       volScalarField;
    location    "0.05";
    object      O2;
}
// * * * * * * * * * * * * * * * * * * * * * * * * * * * * * * * * * * * * * //

dimensions      [0 0 0 0 0 0 0];

internalField   nonuniform List<scalar> 
25
(
1.72123e-07
1.47876e-07
1.26713e-07
1.10622e-07
9.85046e-08
9.07053e-08
8.77204e-08
9.0326e-08
9.96648e-08
1.17311e-07
1.45332e-07
1.86295e-07
2.43079e-07
3.1847e-07
4.21592e-07
5.46881e-07
7.07015e-07
8.99997e-07
1.13357e-06
1.41124e-06
1.73615e-06
2.1104e-06
2.53417e-06
3.00555e-06
3.5243e-06
)
;

boundaryField
{
    wall
    {
        type            zeroGradient;
    }
    fuel
    {
        type            fixedValue;
        value           nonuniform 0();
    }
    outlet
    {
        type            inletOutlet;
        inletValue      nonuniform 0();
        value           nonuniform 0();
    }
    procBoundary2to1
    {
        type            processor;
        value           uniform 2.00544e-07;
    }
    procBoundary2to3
    {
        type            processor;
        value           uniform 4.08332e-06;
    }
}


// ************************************************************************* //
