/*--------------------------------*- C++ -*----------------------------------*\
| =========                 |                                                 |
| \\      /  F ield         | OpenFOAM: The Open Source CFD Toolbox           |
|  \\    /   O peration     | Version:  dev                                   |
|   \\  /    A nd           | Web:      www.OpenFOAM.org                      |
|    \\/     M anipulation  |                                                 |
\*---------------------------------------------------------------------------*/
FoamFile
{
    version     2.0;
    format      ascii;
    class       volScalarField;
    location    "0.05";
    object      PC3H4;
}
// * * * * * * * * * * * * * * * * * * * * * * * * * * * * * * * * * * * * * //

dimensions      [0 0 0 0 0 0 0];

internalField   nonuniform List<scalar> 
250
(
1.52018e-06
1.76705e-06
1.55704e-06
1.53321e-06
1.529e-06
1.52855e-06
1.52865e-06
1.5286e-06
1.52864e-06
3.35883e-06
5.56398e-07
5.05607e-07
4.96443e-07
4.95624e-07
4.95124e-07
4.95279e-07
4.95195e-07
4.95233e-07
4.82621e-06
3.61149e-07
3.29028e-07
3.21467e-07
3.20886e-07
3.20453e-07
3.20546e-07
3.20486e-07
3.20511e-07
5.70166e-06
3.25654e-07
2.90952e-07
2.82443e-07
2.81728e-07
2.81266e-07
2.81318e-07
2.81273e-07
2.81288e-07
2.18057e-06
3.15264e-07
2.75845e-07
2.65726e-07
2.6488e-07
2.64301e-07
2.64342e-07
2.64296e-07
2.64308e-07
7.68403e-07
3.09603e-07
2.6532e-07
2.53488e-07
2.52502e-07
2.51758e-07
2.51801e-07
2.51744e-07
2.51754e-07
4.834e-07
3.05748e-07
2.56263e-07
2.4276e-07
2.41566e-07
2.40639e-07
2.40688e-07
2.40616e-07
2.40625e-07
4.49043e-07
3.02428e-07
2.4817e-07
2.33007e-07
2.31455e-07
2.30392e-07
2.3045e-07
2.30365e-07
2.30373e-07
4.75925e-07
2.99179e-07
2.3953e-07
2.22732e-07
2.22023e-07
2.20937e-07
2.21012e-07
2.20915e-07
2.20923e-07
5.20312e-07
2.95241e-07
2.31088e-07
2.14243e-07
2.13146e-07
2.11815e-07
2.1191e-07
2.11785e-07
2.11797e-07
5.67748e-07
2.906e-07
2.22816e-07
2.05297e-07
2.03948e-07
2.02536e-07
2.02633e-07
2.02497e-07
2.02509e-07
2.02505e-07
6.10085e-07
2.85181e-07
2.16253e-07
1.96823e-07
1.95257e-07
1.9376e-07
1.9386e-07
1.93711e-07
1.93725e-07
1.93734e-07
6.41805e-07
2.78898e-07
2.09454e-07
1.88824e-07
1.87069e-07
1.85508e-07
1.8561e-07
1.8545e-07
1.85468e-07
1.85488e-07
6.60071e-07
2.7175e-07
2.02303e-07
1.81315e-07
1.79391e-07
1.77791e-07
1.77893e-07
1.77724e-07
1.77746e-07
1.77773e-07
6.63879e-07
2.64343e-07
1.95432e-07
1.74306e-07
1.72227e-07
1.70609e-07
1.70708e-07
1.70532e-07
1.70559e-07
1.70592e-07
6.54406e-07
2.56356e-07
1.88853e-07
1.67792e-07
1.6557e-07
1.63953e-07
1.64046e-07
1.63867e-07
1.63898e-07
1.63936e-07
6.33986e-07
2.47412e-07
1.82565e-07
1.61755e-07
1.59409e-07
1.57807e-07
1.57892e-07
1.57712e-07
1.57748e-07
1.57788e-07
6.05657e-07
2.38163e-07
1.76568e-07
1.56174e-07
1.53722e-07
1.52149e-07
1.52225e-07
1.52046e-07
1.52087e-07
1.52129e-07
5.68452e-07
2.28776e-07
1.70857e-07
1.51022e-07
1.48486e-07
1.46957e-07
1.47021e-07
1.46846e-07
1.46891e-07
1.46935e-07
5.31321e-07
2.19413e-07
1.65426e-07
1.46275e-07
1.43675e-07
1.42205e-07
1.42256e-07
1.42087e-07
1.42135e-07
1.4218e-07
4.89464e-07
2.10203e-07
1.60273e-07
1.41908e-07
1.3926e-07
1.37867e-07
1.37901e-07
1.37743e-07
1.37793e-07
1.37838e-07
4.52534e-07
2.0127e-07
1.55398e-07
1.37901e-07
1.35204e-07
1.33916e-07
1.33928e-07
1.33786e-07
1.33835e-07
1.33882e-07
4.07799e-07
1.92686e-07
1.50807e-07
1.34612e-07
1.3198e-07
1.3074e-07
1.30748e-07
1.30612e-07
1.30662e-07
1.30709e-07
3.72878e-07
1.84549e-07
1.46476e-07
1.31458e-07
1.28851e-07
1.27684e-07
1.27678e-07
1.2755e-07
1.27601e-07
1.27646e-07
3.41534e-07
1.76897e-07
1.42358e-07
1.2882e-07
1.26287e-07
1.25192e-07
1.25177e-07
1.25059e-07
1.25109e-07
1.25153e-07
3.1021e-07
1.69761e-07
1.3908e-07
1.265e-07
1.24048e-07
1.23031e-07
1.23005e-07
1.22898e-07
1.22945e-07
1.22989e-07
)
;

boundaryField
{
    fuel
    {
        type            fixedValue;
        value           uniform 0;
    }
    wall
    {
        type            zeroGradient;
    }
    outlet
    {
        type            zeroGradient;
    }
    frontAndBack
    {
        type            empty;
    }
    procBoundary2to0
    {
        type            processor;
        value           nonuniform List<scalar> 
12
(
1.25051e-07
2.8103e-07
1.63124e-07
1.36068e-07
1.24466e-07
1.22111e-07
1.21169e-07
1.21134e-07
1.21037e-07
1.21082e-07
1.22899e-07
1.21125e-07
)
;
    }
    procBoundary2to3
    {
        type            processor;
        value           nonuniform List<scalar> 
25
(
1.52879e-06
4.95231e-07
3.20501e-07
2.81279e-07
2.64296e-07
2.51739e-07
2.4061e-07
2.3036e-07
2.20912e-07
2.11782e-07
2.11782e-07
2.02452e-07
1.93654e-07
1.85382e-07
1.77648e-07
1.7045e-07
1.63782e-07
1.57625e-07
1.51961e-07
1.46765e-07
1.42014e-07
1.37682e-07
1.33739e-07
1.3058e-07
1.2753e-07
)
;
    }
}


// ************************************************************************* //
