/*--------------------------------*- C++ -*----------------------------------*\
| =========                 |                                                 |
| \\      /  F ield         | OpenFOAM: The Open Source CFD Toolbox           |
|  \\    /   O peration     | Version:  dev                                   |
|   \\  /    A nd           | Web:      www.OpenFOAM.org                      |
|    \\/     M anipulation  |                                                 |
\*---------------------------------------------------------------------------*/
FoamFile
{
    version     2.0;
    format      ascii;
    class       volVectorField;
    location    "0.05";
    object      U;
}
// * * * * * * * * * * * * * * * * * * * * * * * * * * * * * * * * * * * * * //

dimensions      [0 1 -1 0 0 0 0];

internalField   nonuniform List<vector> 
1997
(
(0 1.21275 0.480044)
(0 1.14251 0.494494)
(0 1.12483 0.48551)
(0 1.05683 0.488948)
(0 1.02741 0.484331)
(0 0.964079 0.484352)
(0 0.9268 0.481957)
(0 0.867964 0.481763)
(0 0.825937 0.48048)
(0 0.770181 0.480464)
(0 0.725316 0.47967)
(0 0.671543 0.479807)
(0 0.624947 0.479259)
(0 0.572443 0.479458)
(0 0.524764 0.47907)
(0 0.473087 0.479267)
(0 0.424708 0.478997)
(0 0.373577 0.47916)
(0 1.22498 0.476731)
(0 1.15366 0.490977)
(0 1.13568 0.481708)
(0 1.0669 0.48501)
(0 1.03711 0.480336)
(0 0.973183 0.480257)
(0 0.935471 0.477875)
(0 0.876114 0.47763)
(0 0.833633 0.476361)
(0 0.777385 0.47632)
(0 0.732061 0.475534)
(0 0.677809 0.47566)
(0 0.630754 0.475115)
(0 0.577778 0.47531)
(0 0.529639 0.474923)
(0 0.477492 0.475118)
(0 0.428653 0.474848)
(0 0.377053 0.47501)
(0 0.327759 0.474829)
(0 0.276515 0.474946)
(0 0.226934 0.474831)
(0 0.175913 0.474904)
(0 0.12616 0.47484)
(0 0.075263 0.474876)
(0 0.0254298 0.474856)
(0 -0.0254281 0.474856)
(0 -0.0752623 0.474876)
(0 -0.126158 0.474841)
(0 1.23708 0.473356)
(0 1.16469 0.487393)
(0 1.1464 0.477838)
(0 1.07684 0.481013)
(0 1.04669 0.476287)
(0 0.982175 0.476101)
(0 0.944035 0.473741)
(0 0.884162 0.473441)
(0 0.841232 0.472184)
(0 0.784499 0.472125)
(0 0.738722 0.471339)
(0 0.683997 0.471462)
(0 0.636488 0.470915)
(0 0.583044 0.471109)
(0 0.534452 0.47072)
(0 0.48184 0.470916)
(0 0.432548 0.470644)
(0 0.380485 0.470807)
(0 0.330737 0.470625)
(0 0.279032 0.470741)
(0 0.228995 0.470625)
(0 0.177515 0.470699)
(0 0.127305 0.470635)
(0 0.0759487 0.47067)
(0 0.0256596 0.47065)
(0 -0.0256579 0.47065)
(0 -0.0759481 0.47067)
(0 -0.127304 0.470635)
(0 -0.177513 0.470699)
(0 -0.228995 0.470625)
(0 -0.279031 0.470742)
(0 -0.330736 0.470624)
(0 -0.380484 0.470807)
(0 -0.432548 0.470644)
(0 -0.48184 0.470916)
(0 -0.534452 0.470721)
(0 -0.583044 0.471108)
(0 -0.636487 0.470916)
(0 -0.683997 0.471459)
(0 -0.73872 0.47134)
(0 1.24907 0.469915)
(0 1.17559 0.483733)
(0 1.157 0.473913)
(0 1.08667 0.47695)
(0 1.05616 0.472178)
(0 0.991054 0.471888)
(0 0.95249 0.469543)
(0 0.892107 0.469192)
(0 0.848734 0.46795)
(0 0.791521 0.467867)
(0 0.745296 0.46709)
(0 0.690104 0.467202)
(0 0.642148 0.466658)
(0 0.588242 0.466849)
(0 0.539202 0.46646)
(0 0.486132 0.466656)
(0 0.436392 0.466383)
(0 0.383873 0.466546)
(0 0.333676 0.466363)
(0 0.281515 0.466482)
(0 0.231029 0.466366)
(0 0.179095 0.466439)
(0 0.128436 0.466375)
(0 0.0766254 0.466411)
(0 0.0258864 0.46639)
(0 -0.0258847 0.46639)
(0 -0.0766248 0.466411)
(0 -0.128434 0.466374)
(0 -0.179093 0.466438)
(0 -0.231029 0.466364)
(0 -0.281515 0.46648)
(0 -0.333675 0.466363)
(0 -0.383872 0.466546)
(0 -0.436392 0.466383)
(0 -0.486132 0.466655)
(0 -0.539202 0.466461)
(0 -0.588242 0.466848)
(0 -0.642147 0.466659)
(0 -0.690104 0.467201)
(0 -0.745295 0.46709)
(0 -0.791519 0.467866)
(0 -0.848735 0.467948)
(0 -0.892108 0.46919)
(0 -0.952493 0.469541)
(0 -0.991056 0.471883)
(0 -1.05616 0.472175)
(0 -1.08668 0.476943)
(0 -1.15701 0.473909)
(0 -1.1756 0.483729)
(0 -1.24908 0.469914)
(0 1.26092 0.466406)
(0 1.18636 0.48)
(0 1.16748 0.469919)
(0 1.09638 0.472819)
(0 1.0655 0.468009)
(0 0.999817 0.46761)
(0 0.960834 0.465288)
(0 0.899946 0.464883)
(0 0.856135 0.463656)
(0 0.798448 0.463551)
(0 0.751781 0.46278)
(0 0.696129 0.462884)
(0 0.647731 0.462341)
(0 0.59337 0.46253)
(0 0.543889 0.462141)
(0 0.490366 0.462336)
(0 0.440184 0.462064)
(0 0.387214 0.462226)
(0 0.336575 0.462043)
(0 0.283965 0.46216)
(0 0.233036 0.462044)
(0 0.180653 0.462117)
(0 0.129551 0.462053)
(0 0.0772929 0.462089)
(0 0.0261101 0.462068)
(0 -0.0261085 0.462068)
(0 -0.0772924 0.462089)
(0 -0.129549 0.462053)
(0 -0.180652 0.462118)
(0 -0.233036 0.462044)
(0 -0.283965 0.462161)
(0 -0.336574 0.462043)
(0 -0.387213 0.462227)
(0 -0.440184 0.462064)
(0 -0.490366 0.462337)
(0 -0.543889 0.462143)
(0 -0.59337 0.462531)
(0 -0.64773 0.462343)
(0 -0.696129 0.462885)
(0 -0.75178 0.46278)
(0 -0.798447 0.46355)
(0 -0.856136 0.463654)
(0 -0.899947 0.464881)
(0 -0.960837 0.465284)
(0 -0.99982 0.467605)
(0 -1.0655 0.468004)
(0 -1.09638 0.472809)
(0 -1.16749 0.469916)
(0 -1.18637 0.479993)
(0 -1.26093 0.466405)
(0 1.27264 0.462828)
(0 1.19701 0.47619)
(0 1.17783 0.465859)
(0 1.10596 0.468622)
(0 1.07472 0.463777)
(0 1.00846 0.463269)
(0 0.969065 0.460971)
(0 0.907678 0.460512)
(0 0.863434 0.459301)
(0 0.805279 0.459173)
(0 0.758177 0.458409)
(0 0.70207 0.458505)
(0 0.653236 0.457964)
(0 0.598426 0.458151)
(0 0.548509 0.457761)
(0 0.494541 0.457956)
(0 0.443923 0.457683)
(0 0.390509 0.457845)
(0 0.339434 0.457661)
(0 0.286381 0.457778)
(0 0.235015 0.457662)
(0 0.18219 0.457736)
(0 0.130651 0.457672)
(0 0.077951 0.457707)
(0 0.0263308 0.457687)
(0 -0.0263292 0.457687)
(0 -0.0779505 0.457708)
(0 -0.130649 0.457671)
(0 -0.182189 0.457736)
(0 -0.235015 0.457661)
(0 -0.286381 0.457779)
(0 -0.339433 0.457661)
(0 -0.390508 0.457845)
(0 -0.443924 0.457682)
(0 -0.49454 0.457956)
(0 -0.548509 0.457762)
(0 -0.598426 0.458151)
(0 -0.653235 0.457965)
(0 -0.70207 0.458504)
(0 -0.758176 0.458409)
(0 -0.805278 0.459172)
(0 -0.863435 0.4593)
(0 -0.907679 0.460509)
(0 -0.969068 0.46097)
(0 -1.00846 0.463264)
(0 -1.07473 0.463773)
(0 -1.10596 0.468616)
(0 -1.17784 0.465852)
(0 -1.19701 0.476185)
(0 -1.27265 0.462828)
(0 1.28423 0.459182)
(0 1.20751 0.472304)
(0 1.18804 0.461733)
(0 1.1154 0.464357)
(0 1.08382 0.459486)
(0 1.01699 0.458866)
(0 0.97718 0.456594)
(0 0.915299 0.456082)
(0 0.870628 0.454888)
(0 0.812012 0.454737)
(0 0.76448 0.45398)
(0 0.707925 0.454068)
(0 0.658662 0.453529)
(0 0.603409 0.453713)
(0 0.553063 0.453324)
(0 0.498655 0.453518)
(0 0.447607 0.453244)
(0 0.393756 0.453406)
(0 0.342251 0.453222)
(0 0.288762 0.453339)
(0 0.236966 0.453223)
(0 0.183705 0.453297)
(0 0.131735 0.453232)
(0 0.0785996 0.453268)
(0 0.0265483 0.453248)
(0 -0.0265468 0.453248)
(0 -0.0785991 0.453269)
(0 -0.131733 0.453232)
(0 -0.183703 0.453297)
(0 -0.236966 0.453222)
(0 -0.288762 0.45334)
(0 -0.34225 0.453222)
(0 -0.393755 0.453407)
(0 -0.447608 0.453244)
(0 -0.498654 0.453518)
(0 -0.553063 0.453325)
(0 -0.603409 0.453713)
(0 -0.658661 0.45353)
(0 -0.707924 0.454068)
(0 -0.764479 0.45398)
(0 -0.812011 0.454736)
(0 -0.87063 0.454885)
(0 -0.9153 0.456079)
(0 -0.977183 0.456592)
(0 -1.01699 0.458862)
(0 -1.08383 0.459482)
(0 -1.11541 0.46435)
(0 -1.18805 0.461729)
(0 -1.20752 0.472299)
(0 -1.28424 0.459182)
(0 1.29568 0.455468)
(0 1.21788 0.468343)
(0 1.19813 0.457542)
(0 1.12472 0.460025)
(0 1.09279 0.455134)
(0 1.02539 0.454402)
(0 0.985177 0.452159)
(0 0.922809 0.451592)
(0 0.877716 0.450416)
(0 0.818645 0.450243)
(0 0.77069 0.449493)
(0 0.713692 0.449574)
(0 0.664006 0.449036)
(0 0.608317 0.449218)
(0 0.557549 0.448829)
(0 0.502707 0.449022)
(0 0.451237 0.448749)
(0 0.396954 0.448911)
(0 0.345026 0.448726)
(0 0.291106 0.448843)
(0 0.238887 0.448727)
(0 0.185197 0.448801)
(0 0.132802 0.448736)
(0 0.0792383 0.448772)
(0 0.0267625 0.448752)
(0 -0.0267611 0.448752)
(0 -0.0792379 0.448773)
(0 -0.132801 0.448736)
(0 -0.185195 0.448801)
(0 -0.238887 0.448726)
(0 -0.291106 0.448844)
(0 -0.345025 0.448726)
(0 -0.396953 0.448911)
(0 -0.451238 0.448748)
(0 -0.502707 0.449023)
(0 -0.557549 0.44883)
(0 -0.608317 0.449218)
(0 -0.664005 0.449037)
(0 -0.713692 0.449573)
(0 -0.770689 0.449493)
(0 -0.818644 0.450242)
(0 -0.877718 0.450414)
(0 -0.922809 0.451589)
(0 -0.985179 0.452157)
(0 -1.02539 0.454397)
(0 -1.0928 0.45513)
(0 -1.12473 0.460018)
(0 -1.19813 0.457537)
(0 -1.21789 0.468338)
(0 -1.29569 0.455467)
(0 1.30699 0.451683)
(0 1.2281 0.464304)
(0 1.20807 0.453283)
(0 1.1339 0.455626)
(0 1.10163 0.450721)
(0 1.03366 0.449874)
(0 0.993052 0.447663)
(0 0.930203 0.447041)
(0 0.884695 0.445884)
(0 0.825176 0.445689)
(0 0.776803 0.444947)
(0 0.71937 0.445019)
(0 0.669268 0.444484)
(0 0.613149 0.444664)
(0 0.561965 0.444275)
(0 0.506696 0.444468)
(0 0.454811 0.444194)
(0 0.400102 0.444355)
(0 0.347758 0.444171)
(0 0.293415 0.444288)
(0 0.240778 0.444171)
(0 0.186665 0.444245)
(0 0.133853 0.444181)
(0 0.0798672 0.444217)
(0 0.0269734 0.444196)
(0 -0.0269721 0.444196)
(0 -0.0798668 0.444217)
(0 -0.133852 0.44418)
(0 -0.186664 0.444246)
(0 -0.240778 0.44417)
(0 -0.293415 0.444289)
(0 -0.347757 0.44417)
(0 -0.400102 0.444356)
(0 -0.454812 0.444193)
(0 -0.506696 0.444468)
(0 -0.561966 0.444276)
(0 -0.613149 0.444664)
(0 -0.669267 0.444485)
(0 -0.71937 0.445019)
(0 -0.776802 0.444946)
(0 -0.825175 0.445687)
(0 -0.884697 0.445882)
(0 -0.930204 0.447038)
(0 -0.993055 0.447661)
(0 -1.03366 0.449869)
(0 -1.10163 0.450717)
(0 -1.13391 0.455618)
(0 -1.20808 0.453279)
(0 -1.22811 0.464299)
(0 -1.307 0.451682)
(0 1.31815 0.447825)
(0 1.23818 0.460186)
(0 1.21787 0.448955)
(0 1.14295 0.451155)
(0 1.11033 0.446244)
(0 1.0418 0.445281)
(0 1.0008 0.443104)
(0 0.93748 0.442426)
(0 0.891563 0.441289)
(0 0.831602 0.441071)
(0 0.782819 0.440337)
(0 0.724956 0.440402)
(0 0.674445 0.439869)
(0 0.617903 0.440047)
(0 0.56631 0.439658)
(0 0.510621 0.439851)
(0 0.458326 0.439576)
(0 0.4032 0.439738)
(0 0.350446 0.439553)
(0 0.295686 0.43967)
(0 0.242639 0.439553)
(0 0.18811 0.439628)
(0 0.134887 0.439563)
(0 0.0804858 0.439599)
(0 0.027181 0.439578)
(0 -0.0271797 0.439578)
(0 -0.0804855 0.439599)
(0 -0.134886 0.439562)
(0 -0.188109 0.439628)
(0 -0.242639 0.439552)
(0 -0.295686 0.439671)
(0 -0.350445 0.439552)
(0 -0.403199 0.439739)
(0 -0.458328 0.439576)
(0 -0.510621 0.439851)
(0 -0.566311 0.439659)
(0 -0.617903 0.440047)
(0 -0.674445 0.43987)
(0 -0.724956 0.440402)
(0 -0.782818 0.440337)
(0 -0.831601 0.44107)
(0 -0.891565 0.441287)
(0 -0.937481 0.442423)
(0 -1.00081 0.443101)
(0 -1.04181 0.445275)
(0 -1.11034 0.446239)
(0 -1.14295 0.451148)
(0 -1.21788 0.448951)
(0 -1.23819 0.460181)
(0 -1.31816 0.447824)
(0 1.32915 0.443893)
(0 1.24811 0.455989)
(0 1.22752 0.444559)
(0 1.15185 0.446615)
(0 1.1189 0.441702)
(0 1.04982 0.440621)
(0 1.00843 0.438481)
(0 0.944637 0.437748)
(0 0.898317 0.436631)
(0 0.837921 0.436391)
(0 0.788734 0.435665)
(0 0.73045 0.435723)
(0 0.679536 0.435191)
(0 0.622577 0.435368)
(0 0.570583 0.434979)
(0 0.51448 0.435171)
(0 0.461784 0.434896)
(0 0.406245 0.435058)
(0 0.353089 0.434872)
(0 0.297919 0.43499)
(0 0.244468 0.434873)
(0 0.189531 0.434947)
(0 0.135904 0.434882)
(0 0.081094 0.434918)
(0 0.0273851 0.434898)
(0 -0.0273839 0.434898)
(0 -0.0810938 0.434919)
(0 -0.135903 0.434882)
(0 -0.18953 0.434947)
(0 -0.244468 0.434871)
(0 -0.297919 0.43499)
(0 -0.353088 0.434872)
(0 -0.406245 0.435059)
(0 -0.461785 0.434896)
(0 -0.51448 0.435171)
(0 -0.570584 0.43498)
(0 -0.622577 0.435368)
(0 -0.679536 0.435193)
(0 -0.73045 0.435722)
(0 -0.788733 0.435665)
(0 -0.83792 0.436389)
(0 -0.898319 0.436628)
(0 -0.944638 0.437744)
(0 -1.00843 0.438478)
(0 -1.04982 0.440616)
(0 -1.1189 0.441698)
(0 -1.15185 0.446607)
(0 -1.22753 0.444554)
(0 -1.24812 0.455984)
(0 -1.32916 0.443893)
(0 1.34001 0.439889)
(0 1.25789 0.451713)
(0 1.23702 0.440094)
(0 1.1606 0.442004)
(0 1.12733 0.437098)
(0 1.0577 0.435897)
(0 1.01593 0.433797)
(0 0.951672 0.433007)
(0 0.904956 0.431912)
(0 0.844131 0.431649)
(0 0.794547 0.430932)
(0 0.735848 0.430982)
(0 0.684539 0.430453)
(0 0.62717 0.430628)
(0 0.574782 0.430239)
(0 0.518272 0.430431)
(0 0.465181 0.430156)
(0 0.409238 0.430318)
(0 0.355686 0.430132)
(0 0.300113 0.430249)
(0 0.246266 0.430132)
(0 0.190927 0.430206)
(0 0.136903 0.430142)
(0 0.0816917 0.430178)
(0 0.0275857 0.430157)
(0 -0.0275846 0.430157)
(0 -0.0816915 0.430178)
(0 -0.136902 0.430141)
(0 -0.190926 0.430207)
(0 -0.246266 0.430131)
(0 -0.300113 0.43025)
(0 -0.355686 0.430131)
(0 -0.409238 0.430318)
(0 -0.465182 0.430155)
(0 -0.518272 0.430431)
(0 -0.574782 0.43024)
(0 -0.62717 0.430628)
(0 -0.684539 0.430455)
(0 -0.735848 0.430982)
(0 -0.794547 0.430932)
(0 -0.84413 0.431647)
(0 -0.904957 0.431909)
(0 -0.951673 0.433003)
(0 -1.01593 0.433794)
(0 -1.0577 0.435892)
(0 -1.12733 0.437093)
(0 -1.16061 0.441997)
(0 -1.23703 0.440088)
(0 -1.2579 0.451707)
(0 -1.34002 0.439888)
(0 1.3507 0.43581)
(0 1.2675 0.447357)
(0 1.24638 0.43556)
(0 1.16921 0.437324)
(0 1.13561 0.43243)
(0 1.06544 0.431109)
(0 1.02329 0.42905)
(0 0.958581 0.428204)
(0 0.911476 0.427132)
(0 0.85023 0.426846)
(0 0.800256 0.426139)
(0 0.741149 0.426181)
(0 0.689452 0.425655)
(0 0.63168 0.425828)
(0 0.578905 0.425439)
(0 0.521995 0.425631)
(0 0.468517 0.425355)
(0 0.412176 0.425517)
(0 0.358236 0.425331)
(0 0.302267 0.425448)
(0 0.248032 0.425331)
(0 0.192297 0.425406)
(0 0.137884 0.425341)
(0 0.0822785 0.425377)
(0 0.0277827 0.425356)
(0 -0.0277817 0.425356)
(0 -0.0822783 0.425378)
(0 -0.137883 0.42534)
(0 -0.192296 0.425406)
(0 -0.248032 0.42533)
(0 -0.302268 0.425449)
(0 -0.358236 0.42533)
(0 -0.412176 0.425518)
(0 -0.468518 0.425355)
(0 -0.521996 0.425631)
(0 -0.578905 0.42544)
(0 -0.631681 0.425828)
(0 -0.689452 0.425656)
(0 -0.741149 0.426181)
(0 -0.800256 0.426138)
(0 -0.850229 0.426844)
(0 -0.911477 0.427129)
(0 -0.958583 0.4282)
(0 -1.02329 0.429048)
(0 -1.06544 0.431103)
(0 -1.13561 0.432425)
(0 -1.16922 0.437316)
(0 -1.24638 0.435554)
(0 -1.26751 0.447351)
(0 -1.35071 0.43581)
(0 1.36123 0.431658)
(0 1.27696 0.442921)
(0 1.25557 0.430956)
(0 1.17767 0.432573)
(0 1.14375 0.427698)
(0 1.07303 0.426255)
(0 1.03052 0.424242)
(0 0.965363 0.423338)
(0 0.917875 0.42229)
(0 0.856215 0.421981)
(0 0.805858 0.421283)
(0 0.74635 0.421319)
(0 0.694273 0.420795)
(0 0.636106 0.420966)
(0 0.58295 0.420578)
(0 0.525649 0.420769)
(0 0.47179 0.420494)
(0 0.415059 0.420656)
(0 0.360738 0.420468)
(0 0.304381 0.420586)
(0 0.249764 0.420468)
(0 0.193642 0.420543)
(0 0.138847 0.420479)
(0 0.0828542 0.420515)
(0 0.0279761 0.420494)
(0 -0.0279752 0.420494)
(0 -0.0828541 0.420515)
(0 -0.138846 0.420478)
(0 -0.193641 0.420544)
(0 -0.249764 0.420467)
(0 -0.304382 0.420587)
(0 -0.360739 0.420468)
(0 -0.41506 0.420656)
(0 -0.471791 0.420493)
(0 -0.525649 0.420769)
(0 -0.582951 0.420578)
(0 -0.636106 0.420966)
(0 -0.694273 0.420796)
(0 -0.746351 0.421319)
(0 -0.805858 0.421282)
(0 -0.856214 0.421979)
(0 -0.917876 0.422287)
(0 -0.965364 0.423334)
(0 -1.03052 0.424238)
(0 -1.07304 0.426249)
(0 -1.14375 0.427693)
(0 -1.17768 0.432565)
(0 -1.25558 0.430951)
(0 -1.27697 0.442915)
(0 -1.36124 0.431658)
(0 1.37159 0.427427)
(0 1.28625 0.4384)
(0 1.2646 0.426279)
(0 1.18597 0.427746)
(0 1.15173 0.422897)
(0 1.08049 0.421329)
(0 1.03761 0.419364)
(0 0.972014 0.418404)
(0 0.92415 0.41738)
(0 0.862083 0.417048)
(0 0.811352 0.41636)
(0 0.75145 0.416389)
(0 0.699 0.415868)
(0 0.640445 0.416037)
(0 0.586917 0.415649)
(0 0.529231 0.415841)
(0 0.474999 0.415565)
(0 0.417886 0.415727)
(0 0.363192 0.41554)
(0 0.306454 0.415657)
(0 0.251462 0.415539)
(0 0.19496 0.415615)
(0 0.139791 0.41555)
(0 0.0834186 0.415586)
(0 0.0281657 0.415565)
(0 -0.0281649 0.415565)
(0 -0.0834186 0.415586)
(0 -0.13979 0.415549)
(0 -0.19496 0.415615)
(0 -0.251463 0.415538)
(0 -0.306454 0.415658)
(0 -0.363192 0.415539)
(0 -0.417886 0.415728)
(0 -0.475001 0.415564)
(0 -0.529231 0.415841)
(0 -0.586918 0.41565)
(0 -0.640445 0.416038)
(0 -0.699 0.415869)
(0 -0.751451 0.416389)
(0 -0.811352 0.416359)
(0 -0.862083 0.417046)
(0 -0.924152 0.417377)
(0 -0.972015 0.418399)
(0 -1.03761 0.419361)
(0 -1.08049 0.421324)
(0 -1.15174 0.422892)
(0 -1.18598 0.427738)
(0 -1.26461 0.426273)
(0 -1.28626 0.438393)
(0 -1.3716 0.427426)
(0 1.38178 0.42311)
(0 1.29538 0.433788)
(0 1.27347 0.421522)
(0 1.19411 0.422839)
(0 1.15956 0.418022)
(0 1.0878 0.416331)
(0 1.04456 0.414417)
(0 0.978531 0.413399)
(0 0.930299 0.412401)
(0 0.867833 0.412046)
(0 0.816734 0.411368)
(0 0.756447 0.411391)
(0 0.703631 0.410872)
(0 0.644696 0.41104)
(0 0.590803 0.410653)
(0 0.53274 0.410844)
(0 0.478144 0.410568)
(0 0.420655 0.41073)
(0 0.365596 0.410542)
(0 0.308484 0.41066)
(0 0.253126 0.410542)
(0 0.196252 0.410617)
(0 0.140715 0.410553)
(0 0.0839715 0.410589)
(0 0.0283514 0.410568)
(0 -0.0283508 0.410568)
(0 -0.0839716 0.410589)
(0 -0.140715 0.410552)
(0 -0.196251 0.410618)
(0 -0.253127 0.410541)
(0 -0.308484 0.410661)
(0 -0.365596 0.410541)
(0 -0.420656 0.410731)
(0 -0.478145 0.410568)
(0 -0.53274 0.410844)
(0 -0.590804 0.410654)
(0 -0.644696 0.411041)
(0 -0.703631 0.410873)
(0 -0.756447 0.41139)
(0 -0.816734 0.411367)
(0 -0.867833 0.412044)
(0 -0.930301 0.412398)
(0 -0.978533 0.413394)
(0 -1.04456 0.414413)
(0 -1.0878 0.416325)
(0 -1.15957 0.418017)
(0 -1.19412 0.422831)
(0 -1.27348 0.421516)
(0 -1.29539 0.433781)
(0 -1.38179 0.423109)
(0 1.39179 0.418712)
(0 1.30432 0.429089)
(0 1.28217 0.416691)
(0 1.20209 0.417857)
(0 1.16724 0.41308)
(0 1.09495 0.411263)
(0 1.05137 0.409404)
(0 0.984912 0.408329)
(0 0.936319 0.407358)
(0 0.873462 0.40698)
(0 0.822003 0.406313)
(0 0.761337 0.406328)
(0 0.708165 0.405813)
(0 0.648856 0.40598)
(0 0.594608 0.405593)
(0 0.536174 0.405784)
(0 0.481221 0.405508)
(0 0.423366 0.405671)
(0 0.367949 0.405482)
(0 0.310471 0.4056)
(0 0.254755 0.405482)
(0 0.197516 0.405557)
(0 0.14162 0.405492)
(0 0.0845126 0.405528)
(0 0.0285333 0.405508)
(0 -0.0285327 0.405508)
(0 -0.0845128 0.405529)
(0 -0.14162 0.405491)
(0 -0.197516 0.405557)
(0 -0.254756 0.405481)
(0 -0.310472 0.4056)
(0 -0.367949 0.405481)
(0 -0.423366 0.405671)
(0 -0.481223 0.405507)
(0 -0.536175 0.405784)
(0 -0.594609 0.405594)
(0 -0.648857 0.40598)
(0 -0.708164 0.405814)
(0 -0.761338 0.406328)
(0 -0.822003 0.406312)
(0 -0.873461 0.406978)
(0 -0.936321 0.407355)
(0 -0.984914 0.408324)
(0 -1.05137 0.4094)
(0 -1.09496 0.411258)
(0 -1.16724 0.413075)
(0 -1.2021 0.417849)
(0 -1.28218 0.416685)
(0 -1.30434 0.429082)
(0 -1.3918 0.418711)
(0 1.40162 0.414242)
(0 1.3131 0.424315)
(0 1.29069 0.411795)
(0 1.2099 0.412809)
(0 1.17475 0.408078)
(0 1.10196 0.406136)
(0 1.05803 0.404334)
(0 0.991154 0.403201)
(0 0.942207 0.402259)
(0 0.878966 0.401857)
(0 0.827156 0.401201)
(0 0.76612 0.40121)
(0 0.712598 0.400698)
(0 0.652924 0.400864)
(0 0.598328 0.400477)
(0 0.539532 0.400669)
(0 0.484231 0.400392)
(0 0.426016 0.400555)
(0 0.37025 0.400366)
(0 0.312414 0.400484)
(0 0.256348 0.400366)
(0 0.198752 0.400441)
(0 0.142506 0.400377)
(0 0.0850416 0.400413)
(0 0.0287112 0.400392)
(0 -0.0287108 0.400392)
(0 -0.0850419 0.400413)
(0 -0.142505 0.400376)
(0 -0.198752 0.400442)
(0 -0.256349 0.400365)
(0 -0.312415 0.400484)
(0 -0.37025 0.400365)
(0 -0.426017 0.400555)
(0 -0.484233 0.400392)
(0 -0.539533 0.400669)
(0 -0.598329 0.400478)
(0 -0.652925 0.400864)
(0 -0.712598 0.400699)
(0 -0.76612 0.40121)
(0 -0.827156 0.4012)
(0 -0.878966 0.401855)
(0 -0.942209 0.402255)
(0 -0.991155 0.403196)
(0 -1.05803 0.40433)
(0 -1.10196 0.40613)
(0 -1.17475 0.408073)
(0 -1.20991 0.412801)
(0 -1.2907 0.411789)
(0 -1.31311 0.424308)
(0 -1.40163 0.414242)
(0 1.41127 0.409706)
(0 1.32169 0.419471)
(0 1.29904 0.40684)
(0 1.21755 0.407701)
(0 1.1821 0.403022)
(0 1.1088 0.400953)
(0 1.06454 0.39921)
(0 0.997252 0.39802)
(0 0.947961 0.397106)
(0 0.884344 0.396681)
(0 0.83219 0.396035)
(0 0.770791 0.396039)
(0 0.716929 0.39553)
(0 0.656898 0.395695)
(0 0.601962 0.395308)
(0 0.542812 0.3955)
(0 0.487171 0.395224)
(0 0.428605 0.395387)
(0 0.372497 0.395197)
(0 0.314312 0.395315)
(0 0.257904 0.395197)
(0 0.199959 0.395272)
(0 0.14337 0.395208)
(0 0.0855584 0.395244)
(0 0.028885 0.395223)
(0 -0.0288847 0.395223)
(0 -0.0855588 0.395244)
(0 -0.14337 0.395207)
(0 -0.199959 0.395272)
(0 -0.257905 0.395196)
(0 -0.314313 0.395315)
(0 -0.372498 0.395196)
(0 -0.428605 0.395387)
(0 -0.487173 0.395223)
(0 -0.542814 0.3955)
(0 -0.601963 0.395309)
(0 -0.656899 0.395695)
(0 -0.716929 0.395531)
(0 -0.770792 0.396039)
(0 -0.83219 0.396034)
(0 -0.884344 0.396679)
(0 -0.947963 0.397103)
(0 -0.997254 0.398015)
(0 -1.06454 0.399206)
(0 -1.1088 0.400947)
(0 -1.1821 0.403016)
(0 -1.21755 0.407692)
(0 -1.29905 0.406833)
(0 -1.3217 0.419463)
(0 -1.41128 0.409706)
(0 1.42072 0.405097)
(0 1.33009 0.414548)
(0 1.3072 0.401816)
(0 1.22501 0.402523)
(0 1.18927 0.397902)
(0 1.11548 0.395705)
(0 1.07089 0.394024)
(0 1.0032 0.392776)
(0 0.953577 0.391891)
(0 0.889593 0.391443)
(0 0.837103 0.390808)
(0 0.77535 0.390805)
(0 0.721155 0.390299)
(0 0.660776 0.390463)
(0 0.605508 0.390077)
(0 0.546013 0.390269)
(0 0.49004 0.389993)
(0 0.431131 0.390156)
(0 0.374691 0.389965)
(0 0.316164 0.390083)
(0 0.259422 0.389965)
(0 0.201137 0.390041)
(0 0.144214 0.389976)
(0 0.0860625 0.390012)
(0 0.0290546 0.389992)
(0 -0.0290545 0.389992)
(0 -0.0860631 0.390013)
(0 -0.144214 0.389975)
(0 -0.201137 0.390041)
(0 -0.259423 0.389964)
(0 -0.316165 0.390084)
(0 -0.374692 0.389964)
(0 -0.431132 0.390156)
(0 -0.490042 0.389992)
(0 -0.546014 0.390269)
(0 -0.605509 0.390078)
(0 -0.660777 0.390464)
(0 -0.721156 0.3903)
(0 -0.775351 0.390805)
(0 -0.837103 0.390807)
(0 -0.889592 0.391441)
(0 -0.953578 0.391888)
(0 -1.00321 0.392771)
(0 -1.0709 0.39402)
(0 -1.11549 0.395699)
(0 -1.18928 0.397896)
(0 -1.22502 0.402514)
(0 -1.30721 0.40181)
(0 -1.3301 0.41454)
(0 -1.42073 0.405097)
(0 1.42998 0.40041)
(0 1.3383 0.409543)
(0 1.31518 0.39672)
(0 1.2323 0.397269)
(0 1.19628 0.392712)
(0 1.122 0.390387)
(0 1.07709 0.388772)
(0 1.00901 0.387466)
(0 0.959052 0.386611)
(0 0.894708 0.38614)
(0 0.841892 0.385516)
(0 0.779793 0.385507)
(0 0.725275 0.385005)
(0 0.664555 0.385167)
(0 0.608965 0.384782)
(0 0.549132 0.384974)
(0 0.492837 0.384698)
(0 0.433592 0.384861)
(0 0.376829 0.38467)
(0 0.317968 0.384788)
(0 0.260902 0.38467)
(0 0.202285 0.384745)
(0 0.145037 0.384681)
(0 0.0865538 0.384717)
(0 0.02922 0.384697)
(0 -0.02922 0.384696)
(0 -0.0865545 0.384718)
(0 -0.145037 0.38468)
(0 -0.202286 0.384745)
(0 -0.260903 0.384669)
(0 -0.31797 0.384788)
(0 -0.37683 0.384669)
(0 -0.433593 0.384862)
(0 -0.492839 0.384697)
(0 -0.549134 0.384974)
(0 -0.608966 0.384783)
(0 -0.664556 0.385168)
(0 -0.725275 0.385006)
(0 -0.779794 0.385508)
(0 -0.841892 0.385515)
(0 -0.894708 0.386138)
(0 -0.959053 0.386608)
(0 -1.00901 0.38746)
(0 -1.07709 0.388768)
(0 -1.122 0.390381)
(0 -1.19628 0.392706)
(0 -1.23231 0.39726)
(0 -1.31519 0.396713)
(0 -1.33831 0.409534)
(0 -1.42999 0.400409)
(0 1.43903 0.395644)
(0 1.34632 0.404456)
(0 1.32297 0.391554)
(0 1.23941 0.391946)
(0 1.20311 0.387462)
(0 1.12835 0.385007)
(0 1.08313 0.383462)
(0 1.01466 0.382098)
(0 0.964383 0.381276)
(0 0.899689 0.380781)
(0 0.846554 0.380168)
(0 0.784118 0.380154)
(0 0.729286 0.379655)
(0 0.668233 0.379817)
(0 0.61233 0.379433)
(0 0.552169 0.379625)
(0 0.495559 0.379348)
(0 0.435988 0.379512)
(0 0.37891 0.37932)
(0 0.319725 0.379438)
(0 0.262343 0.37932)
(0 0.203403 0.379396)
(0 0.145837 0.379331)
(0 0.087032 0.379368)
(0 0.0293811 0.379347)
(0 -0.0293813 0.379347)
(0 -0.0870328 0.379368)
(0 -0.145837 0.379331)
(0 -0.203403 0.379396)
(0 -0.262344 0.379319)
(0 -0.319726 0.379438)
(0 -0.378911 0.379319)
(0 -0.43599 0.379512)
(0 -0.495561 0.379348)
(0 -0.55217 0.379625)
(0 -0.612331 0.379433)
(0 -0.668235 0.379818)
(0 -0.729286 0.379656)
(0 -0.784119 0.380154)
(0 -0.846555 0.380167)
(0 -0.899689 0.380778)
(0 -0.964385 0.381272)
(0 -1.01466 0.382093)
(0 -1.08313 0.383458)
(0 -1.12835 0.385001)
(0 -1.20311 0.387455)
(0 -1.23942 0.391936)
(0 -1.32298 0.391547)
(0 -1.34633 0.404448)
(0 -1.43904 0.395643)
(0 1.44787 0.390799)
(0 1.35413 0.39929)
(0 1.33056 0.386321)
(0 1.24633 0.386553)
(0 1.20975 0.38215)
(0 1.13452 0.379565)
(0 1.089 0.378093)
(0 1.02015 0.376671)
(0 0.969567 0.375882)
(0 0.904531 0.375364)
(0 0.851087 0.374762)
(0 0.788322 0.374744)
(0 0.733184 0.374248)
(0 0.671809 0.374409)
(0 0.615601 0.374026)
(0 0.55512 0.374218)
(0 0.498205 0.373942)
(0 0.438317 0.374106)
(0 0.380933 0.373916)
(0 0.321433 0.374035)
(0 0.263743 0.373917)
(0 0.204489 0.373992)
(0 0.146616 0.373928)
(0 0.0874968 0.373964)
(0 0.0295377 0.373944)
(0 -0.029538 0.373944)
(0 -0.0874977 0.373965)
(0 -0.146616 0.373927)
(0 -0.204489 0.373992)
(0 -0.263744 0.373915)
(0 -0.321434 0.374035)
(0 -0.380934 0.373916)
(0 -0.438319 0.374106)
(0 -0.498208 0.373941)
(0 -0.555122 0.374218)
(0 -0.615603 0.374026)
(0 -0.67181 0.37441)
(0 -0.733185 0.374249)
(0 -0.788323 0.374744)
(0 -0.851088 0.374761)
(0 -0.904531 0.375361)
(0 -0.969569 0.375879)
(0 -1.02016 0.376665)
(0 -1.089 0.378088)
(0 -1.13453 0.379559)
(0 -1.20976 0.382143)
(0 -1.24634 0.386544)
(0 -1.33057 0.386314)
(0 -1.35414 0.399281)
(0 -1.44789 0.390798)
(0 1.4565 0.385874)
(0 1.36174 0.394041)
(0 1.33795 0.381019)
(0 1.25305 0.381091)
(0 1.21621 0.376773)
(0 1.14052 0.374058)
(0 1.0947 0.37266)
(0 1.02549 0.37118)
(0 0.9746 0.370425)
(0 0.909231 0.369884)
(0 0.855488 0.369294)
(0 0.792403 0.369271)
(0 0.736969 0.368778)
(0 0.675279 0.368939)
(0 0.618776 0.368557)
(0 0.557984 0.368749)
(0 0.500774 0.368473)
(0 0.440578 0.368638)
(0 0.382897 0.368453)
(0 0.32309 0.368571)
(0 0.265102 0.368453)
(0 0.205543 0.368529)
(0 0.147371 0.368465)
(0 0.0879478 0.368501)
(0 0.0296897 0.368481)
(0 -0.0296903 0.368481)
(0 -0.0879488 0.368501)
(0 -0.147372 0.368464)
(0 -0.205544 0.368529)
(0 -0.265104 0.368452)
(0 -0.323091 0.368571)
(0 -0.382898 0.368452)
(0 -0.440579 0.368638)
(0 -0.500777 0.368472)
(0 -0.557986 0.368749)
(0 -0.618778 0.368557)
(0 -0.675281 0.36894)
(0 -0.73697 0.36878)
(0 -0.792404 0.369271)
(0 -0.855489 0.369293)
(0 -0.909232 0.369882)
(0 -0.974602 0.370422)
(0 -1.02549 0.371175)
(0 -1.0947 0.372656)
(0 -1.14052 0.374051)
(0 -1.21622 0.376766)
(0 -1.25306 0.381081)
(0 -1.33796 0.381011)
(0 -1.36175 0.394033)
(0 -1.45652 0.385874)
(0 1.46492 0.380867)
(0 1.36914 0.388705)
(0 1.34513 0.375642)
(0 1.25958 0.375558)
(0 1.22248 0.371332)
(0 1.14634 0.368486)
(0 1.10023 0.367167)
(0 1.03066 0.365629)
(0 0.97948 0.36491)
(0 0.913787 0.364345)
(0 0.859754 0.363767)
(0 0.796358 0.363739)
(0 0.740638 0.36325)
(0 0.678642 0.363411)
(0 0.621854 0.363029)
(0 0.56076 0.363222)
(0 0.503264 0.362946)
(0 0.442768 0.363111)
(0 0.384799 0.362928)
(0 0.324695 0.363047)
(0 0.26642 0.362929)
(0 0.206564 0.363005)
(0 0.148103 0.36294)
(0 0.0883847 0.362977)
(0 0.0298372 0.362956)
(0 -0.0298379 0.362956)
(0 -0.0883859 0.362977)
(0 -0.148104 0.36294)
(0 -0.206565 0.363004)
(0 -0.266421 0.362928)
(0 -0.324697 0.363047)
(0 -0.384801 0.362927)
(0 -0.44277 0.363111)
(0 -0.503266 0.362945)
(0 -0.560762 0.363222)
(0 -0.621856 0.36303)
(0 -0.678644 0.363412)
(0 -0.740639 0.363251)
(0 -0.796359 0.363739)
(0 -0.859755 0.363766)
(0 -0.913788 0.364343)
(0 -0.979482 0.364907)
(0 -1.03066 0.365623)
(0 -1.10023 0.367162)
(0 -1.14634 0.36848)
(0 -1.22249 0.371325)
(0 -1.25959 0.375549)
(0 -1.34514 0.375634)
(0 -1.36915 0.388697)
(0 -1.46493 0.380867)
(0 1.4731 0.375774)
(0 1.37632 0.38328)
(0 1.3521 0.370188)
(0 1.26591 0.369952)
(0 1.22856 0.365824)
(0 1.15197 0.362848)
(0 1.10559 0.361608)
(0 1.03566 0.360013)
(0 0.984202 0.359331)
(0 0.918195 0.358745)
(0 0.863881 0.358178)
(0 0.800183 0.358146)
(0 0.744187 0.357661)
(0 0.681895 0.357821)
(0 0.624831 0.35744)
(0 0.563444 0.357633)
(0 0.505672 0.357357)
(0 0.444886 0.357523)
(0 0.38664 0.357339)
(0 0.326249 0.357458)
(0 0.267694 0.357341)
(0 0.207552 0.357416)
(0 0.148812 0.357352)
(0 0.0888073 0.357389)
(0 0.0299798 0.357368)
(0 -0.0299807 0.357368)
(0 -0.0888087 0.357389)
(0 -0.148813 0.357352)
(0 -0.207553 0.357416)
(0 -0.267696 0.35734)
(0 -0.32625 0.357458)
(0 -0.386642 0.357338)
(0 -0.444888 0.357523)
(0 -0.505675 0.357357)
(0 -0.563447 0.357633)
(0 -0.624834 0.357441)
(0 -0.681897 0.357822)
(0 -0.744188 0.357662)
(0 -0.800184 0.358146)
(0 -0.863882 0.358176)
(0 -0.918196 0.358742)
(0 -0.984204 0.359328)
(0 -1.03567 0.360007)
(0 -1.10559 0.361603)
(0 -1.15197 0.362841)
(0 -1.22856 0.365817)
(0 -1.26592 0.369942)
(0 -1.35211 0.370179)
(0 -1.37633 0.383273)
(0 -1.47311 0.375775)
(0 1.48106 0.370599)
(0 1.38328 0.37777)
(0 1.35885 0.364659)
(0 1.27203 0.364266)
(0 1.23444 0.360243)
(0 1.15741 0.357135)
(0 1.11076 0.355978)
(0 1.0405 0.354325)
(0 0.988763 0.353681)
(0 0.922451 0.353081)
(0 0.867867 0.352526)
(0 0.803876 0.35249)
(0 0.747614 0.352008)
(0 0.685035 0.352169)
(0 0.627706 0.351789)
(0 0.566036 0.351982)
(0 0.507998 0.351707)
(0 0.446931 0.351872)
(0 0.388418 0.351688)
(0 0.327748 0.351808)
(0 0.268925 0.35169)
(0 0.208506 0.351766)
(0 0.149496 0.351702)
(0 0.0892153 0.351738)
(0 0.0301177 0.351718)
(0 -0.0301188 0.351718)
(0 -0.0892168 0.351739)
(0 -0.149497 0.351701)
(0 -0.208507 0.351766)
(0 -0.268927 0.351689)
(0 -0.32775 0.351807)
(0 -0.38842 0.351687)
(0 -0.446934 0.351872)
(0 -0.508001 0.351706)
(0 -0.566039 0.351982)
(0 -0.627709 0.351789)
(0 -0.685038 0.35217)
(0 -0.747616 0.35201)
(0 -0.803878 0.35249)
(0 -0.867868 0.352524)
(0 -0.922452 0.353078)
(0 -0.988765 0.353678)
(0 -1.0405 0.354319)
(0 -1.11076 0.355973)
(0 -1.15741 0.357129)
(0 -1.23444 0.360236)
(0 -1.27204 0.364256)
(0 -1.35886 0.36465)
(0 -1.38329 0.377763)
(0 -1.48107 0.3706)
(0 1.48878 0.365343)
(0 1.39001 0.372177)
(0 1.36538 0.359059)
(0 1.27794 0.358503)
(0 1.24011 0.354592)
(0 1.16265 0.351354)
(0 1.11575 0.35028)
(0 1.04516 0.348571)
(0 0.99316 0.347966)
(0 0.926552 0.347359)
(0 0.871708 0.346816)
(0 0.807435 0.346777)
(0 0.750917 0.346299)
(0 0.688061 0.34646)
(0 0.630477 0.346081)
(0 0.568533 0.346275)
(0 0.510239 0.346)
(0 0.448902 0.346165)
(0 0.390131 0.345981)
(0 0.329193 0.346101)
(0 0.270111 0.345984)
(0 0.209425 0.346059)
(0 0.150155 0.345995)
(0 0.0896082 0.346031)
(0 0.0302506 0.346011)
(0 -0.0302519 0.346011)
(0 -0.08961 0.346032)
(0 -0.150156 0.345995)
(0 -0.209426 0.346059)
(0 -0.270113 0.345982)
(0 -0.329195 0.346101)
(0 -0.390133 0.34598)
(0 -0.448904 0.346165)
(0 -0.510242 0.345999)
(0 -0.568536 0.346275)