/*--------------------------------*- C++ -*----------------------------------*\
| =========                 |                                                 |
| \\      /  F ield         | OpenFOAM: The Open Source CFD Toolbox           |
|  \\    /   O peration     | Version:  dev                                   |
|   \\  /    A nd           | Web:      www.OpenFOAM.org                      |
|    \\/     M anipulation  |                                                 |
\*---------------------------------------------------------------------------*/
FoamFile
{
    version     2.0;
    format      ascii;
    class       volScalarField;
    location    "0.12";
    object      A2;
}
// * * * * * * * * * * * * * * * * * * * * * * * * * * * * * * * * * * * * * //

dimensions      [0 0 0 0 0 0 0];

internalField   nonuniform List<scalar> 
250
(
1.37495e-07
5.22629e-08
3.65832e-08
3.87794e-08
3.58251e-08
3.7848e-08
3.67892e-08
3.77283e-08
3.7219e-08
3.76194e-08
1.20977e-07
5.48477e-08
4.13886e-08
4.33324e-08
4.06817e-08
4.24801e-08
4.15324e-08
4.23793e-08
4.19189e-08
4.22863e-08
4.22804e-08
4.18657e-08
4.22211e-08
4.17829e-08
4.18459e-08
4.18486e-08
4.14595e-08
4.43316e-08
5.02061e-08
7.19458e-08
1.07903e-07
5.70404e-08
4.57999e-08
4.73435e-08
4.50738e-08
4.6586e-08
4.5778e-08
4.6508e-08
4.61126e-08
4.64356e-08
4.6439e-08
4.60595e-08
4.63801e-08
4.59852e-08
4.60448e-08
4.60578e-08
4.57756e-08
4.84307e-08
5.43245e-08
7.52889e-08
9.75043e-08
5.87884e-08
4.96408e-08
5.07292e-08
4.88659e-08
5.00764e-08
4.94125e-08
5.00218e-08
4.96973e-08
4.9972e-08
4.99841e-08
4.96467e-08
4.99261e-08
4.95855e-08
4.96317e-08
4.96575e-08
4.94786e-08
5.18675e-08
5.76527e-08
7.74113e-08
8.92372e-08
6.01303e-08
5.28366e-08
5.35349e-08
5.20427e-08
5.29463e-08
5.24669e-08
5.29128e-08
5.2657e-08
5.28853e-08
5.29045e-08
5.26109e-08
5.2848e-08
5.25757e-08
5.26446e-08
5.26307e-08
5.25609e-08
5.46341e-08
6.01559e-08
7.8327e-08
8.27114e-08
6.10901e-08
5.53973e-08
5.57385e-08
5.45907e-08
5.52492e-08
5.48898e-08
5.52345e-08
5.50398e-08
5.52274e-08
5.52516e-08
5.49999e-08
5.51968e-08
5.49766e-08
5.50305e-08
5.50227e-08
5.50203e-08
5.67909e-08
6.18989e-08
7.81854e-08
7.75026e-08
6.17788e-08
5.7399e-08
5.74806e-08
5.66164e-08
5.70805e-08
5.68199e-08
5.7081e-08
5.6937e-08
5.70916e-08
5.71188e-08
5.69047e-08
5.70655e-08
5.6885e-08
5.69301e-08
5.69256e-08
5.6968e-08
5.84451e-08
6.30135e-08
7.72223e-08
7.36139e-08
6.23032e-08
5.89614e-08
5.88823e-08
5.82386e-08
5.85602e-08
5.83753e-08
5.8572e-08
5.84672e-08
5.85968e-08
5.8625e-08
5.84431e-08
5.85732e-08
5.84249e-08
5.84625e-08
5.84591e-08
5.85254e-08
5.97313e-08
6.36728e-08
7.57204e-08
7.07767e-08
6.27761e-08
6.0229e-08
6.00723e-08
5.95919e-08
5.98159e-08
5.96855e-08
5.98355e-08
5.97595e-08
5.98712e-08
5.98987e-08
5.9744e-08
5.98485e-08
5.97268e-08
5.9757e-08
5.97541e-08
5.98279e-08
6.07935e-08
6.40688e-08
7.39805e-08
6.88761e-08
6.32948e-08
6.13438e-08
6.11608e-08
6.08001e-08
6.09581e-08
6.08665e-08
6.09825e-08
6.09279e-08
6.10266e-08
6.10519e-08
6.09213e-08
6.10035e-08
6.09053e-08
6.09282e-08
6.09265e-08
6.09992e-08
6.17594e-08
6.43845e-08
7.22893e-08
6.78025e-08
6.39027e-08
6.23995e-08
6.22003e-08
6.19329e-08
6.20394e-08
6.19791e-08
6.2067e-08
6.20306e-08
6.21179e-08
6.21397e-08
6.20333e-08
6.20935e-08
6.20184e-08
6.2034e-08
6.20353e-08
6.21078e-08
6.26987e-08
6.47495e-08
7.08781e-08
6.73707e-08
6.45186e-08
6.33573e-08
6.31141e-08
6.29297e-08
6.2984e-08
6.29548e-08
6.30141e-08
6.29964e-08
6.30714e-08
6.30888e-08
6.3009e-08
6.30454e-08
6.29944e-08
6.30032e-08
6.30093e-08
6.30909e-08
6.35488e-08
6.51606e-08
6.98563e-08
6.72023e-08
6.48774e-08
6.39415e-08
6.36439e-08
6.3523e-08
6.35335e-08
6.35305e-08
6.3566e-08
6.3564e-08
6.36285e-08
6.36422e-08
6.35841e-08
6.3601e-08
6.35692e-08
6.35731e-08
6.35829e-08
6.36769e-08
6.40478e-08
6.53932e-08
6.91587e-08
)
;

boundaryField
{
    fuel
    {
        type            fixedValue;
        value           nonuniform 0();
    }
    wall
    {
        type            zeroGradient;
    }
    outlet
    {
        type            zeroGradient;
    }
    frontAndBack
    {
        type            empty;
    }
    procBoundary1to0
    {
        type            processor;
        value           nonuniform List<scalar> 
21
(
1.5853e-07
4.94193e-08
3.16473e-08
3.38639e-08
3.07356e-08
3.28759e-08
3.17582e-08
3.2744e-08
3.22115e-08
3.26265e-08
3.76045e-08
3.76045e-08
3.71681e-08
3.7546e-08
3.70783e-08
3.71402e-08
3.71353e-08
3.66563e-08
3.96745e-08
4.54582e-08
6.75476e-08
)
;
    }
}


// ************************************************************************* //
