/*--------------------------------*- C++ -*----------------------------------*\
| =========                 |                                                 |
| \\      /  F ield         | OpenFOAM: The Open Source CFD Toolbox           |
|  \\    /   O peration     | Version:  dev                                   |
|   \\  /    A nd           | Web:      www.OpenFOAM.org                      |
|    \\/     M anipulation  |                                                 |
\*---------------------------------------------------------------------------*/
FoamFile
{
    version     2.0;
    format      ascii;
    class       volScalarField;
    location    "0.12";
    object      A2C2HB*;
}
// * * * * * * * * * * * * * * * * * * * * * * * * * * * * * * * * * * * * * //

dimensions      [0 0 0 0 0 0 0];

internalField   nonuniform List<scalar> 
250
(
3.14042e-12
8.16416e-13
7.59971e-13
5.58576e-13
6.03031e-13
5.452e-13
5.7063e-13
5.47945e-13
5.59781e-13
5.50837e-13
2.09477e-12
5.95985e-13
5.93558e-13
4.3014e-13
4.72256e-13
4.21628e-13
4.44427e-13
4.24107e-13
4.34845e-13
4.2682e-13
4.27596e-13
4.35243e-13
4.28668e-13
4.37593e-13
4.37906e-13
4.4345e-13
4.79457e-13
5.03474e-13
7.33347e-13
1.10528e-12
1.35407e-12
4.21332e-13
4.44713e-13
3.17762e-13
3.54126e-13
3.12542e-13
3.31696e-13
3.14618e-13
3.23692e-13
3.16968e-13
3.17546e-13
3.2409e-13
3.18391e-13
3.25949e-13
3.26134e-13
3.30012e-13
3.57968e-13
3.71301e-13
5.38989e-13
8.01547e-13
8.46196e-13
2.87751e-13
3.1877e-13
2.24959e-13
2.53917e-13
2.21772e-13
2.3702e-13
2.23395e-13
2.30575e-13
2.25292e-13
2.25686e-13
2.3094e-13
2.26323e-13
2.32239e-13
2.32567e-13
2.3497e-13
2.55705e-13
2.62126e-13
3.78927e-13
5.54646e-13
5.09658e-13
1.87487e-13
2.17693e-13
1.51003e-13
1.72902e-13
1.50003e-13
1.60425e-13
1.51208e-13
1.56553e-13
1.52645e-13
1.52887e-13
1.56865e-13
1.53344e-13
1.57409e-13
1.57022e-13
1.59412e-13
1.7358e-13
1.76429e-13
2.53708e-13
3.64406e-13
2.94298e-13
1.16682e-13
1.40502e-13
9.61993e-14
1.11405e-13
9.58043e-14
1.03071e-13
9.6637e-14
1.00376e-13
9.76566e-14
9.77876e-14
1.00625e-13
9.81004e-14
1.00822e-13
1.0065e-13
1.02125e-13
1.11549e-13
1.12202e-13
1.60396e-13
2.25281e-13
1.58304e-13
6.76003e-14
8.42967e-14
5.67729e-14
6.65874e-14
5.66847e-14
6.13985e-14
5.72194e-14
5.96572e-14
5.7892e-14
5.79511e-14
5.98383e-14
5.81528e-14
5.99068e-14
5.98065e-14
6.0647e-14
6.65148e-14
6.62047e-14
9.41576e-14
1.28857e-13
7.89809e-14
3.52323e-14
4.55714e-14
2.9985e-14
3.57284e-14
3.00195e-14
3.27894e-14
3.03323e-14
3.17757e-14
3.07347e-14
3.07543e-14
3.18929e-14
3.0873e-14
3.19107e-14
3.18496e-14
3.22776e-14
3.56067e-14
3.50522e-14
4.97443e-14
6.61103e-14
3.43112e-14
1.56212e-14
2.10199e-14
1.34088e-14
1.62867e-14
1.34632e-14
1.48551e-14
1.36208e-14
1.43532e-14
1.38271e-14
1.38299e-14
1.44165e-14
1.38896e-14
1.44152e-14
1.43841e-14
1.45677e-14
1.61928e-14
1.57554e-14
2.24e-14
2.88271e-14
1.19467e-14
5.49052e-15
7.65281e-15
4.74055e-15
5.86175e-15
4.77251e-15
5.31679e-15
4.8344e-15
5.12395e-15
4.91684e-15
4.91529e-15
5.15033e-15
4.93874e-15
5.1456e-15
5.13403e-15
5.1948e-15
5.81625e-15
5.59716e-15
7.96735e-15
9.90774e-15
2.9688e-15
1.3627e-15
1.95486e-15
1.17603e-15
1.4794e-15
1.18607e-15
1.33432e-15
1.20283e-15
1.28273e-15
1.22575e-15
1.22438e-15
1.29075e-15
1.23096e-15
1.2881e-15
1.28521e-15
1.29934e-15
1.46669e-15
1.39818e-15
2.00012e-15
2.41015e-15
3.93787e-16
1.81479e-16
2.63125e-16
1.56309e-16
1.97901e-16
1.57666e-16
1.78233e-16
1.59963e-16
1.71201e-16
1.63205e-16
1.6291e-16
1.724e-16
1.63856e-16
1.71849e-16
1.71502e-16
1.73206e-16
1.96279e-16
1.86214e-16
2.6644e-16
3.14521e-16
2.58486e-17
1.29692e-17
1.79482e-17
1.12799e-17
1.39025e-17
1.1348e-17
1.26729e-17
1.14926e-17
1.22268e-17
1.17065e-17
1.16841e-17
1.23045e-17
1.17475e-17
1.22635e-17
1.2244e-17
1.23482e-17
1.3818e-17
1.31904e-17
1.82116e-17
2.1254e-17
)
;

boundaryField
{
    fuel
    {
        type            fixedValue;
        value           nonuniform 0();
    }
    wall
    {
        type            zeroGradient;
    }
    outlet
    {
        type            zeroGradient;
    }
    frontAndBack
    {
        type            empty;
    }
    procBoundary1to0
    {
        type            processor;
        value           nonuniform List<scalar> 
21
(
4.5732e-12
1.08569e-12
9.36506e-13
6.96372e-13
7.38328e-13
6.76263e-13
7.0273e-13
6.79076e-13
6.9119e-13
6.81895e-13
5.51805e-13
5.51805e-13
5.60134e-13
5.53102e-13
5.62947e-13
5.63536e-13
5.7092e-13
6.15201e-13
6.54615e-13
9.57252e-13
1.45929e-12
)
;
    }
}


// ************************************************************************* //
