/*--------------------------------*- C++ -*----------------------------------*\
| =========                 |                                                 |
| \\      /  F ield         | OpenFOAM: The Open Source CFD Toolbox           |
|  \\    /   O peration     | Version:  dev                                   |
|   \\  /    A nd           | Web:      www.OpenFOAM.org                      |
|    \\/     M anipulation  |                                                 |
\*---------------------------------------------------------------------------*/
FoamFile
{
    version     2.0;
    format      ascii;
    class       volScalarField;
    location    "0.12";
    object      A2C2HB*;
}
// * * * * * * * * * * * * * * * * * * * * * * * * * * * * * * * * * * * * * //

dimensions      [0 0 0 0 0 0 0];

internalField   nonuniform List<scalar> 
50
(
1.65756e-18
1.3886e-18
1.16384e-18
9.75966e-19
8.18887e-19
6.87502e-19
5.77562e-19
4.8552e-19
4.08422e-19
3.43807e-19
2.89622e-19
2.44157e-19
2.05987e-19
1.73921e-19
1.46968e-19
1.24298e-19
1.05219e-19
8.91514e-20
7.56115e-20
6.41937e-20
5.45584e-20
4.64214e-20
3.95443e-20
3.37273e-20
2.88027e-20
2.463e-20
2.1091e-20
1.80865e-20
1.55334e-20
1.33614e-20
1.15116e-20
9.93448e-21
8.58824e-21
7.43767e-21
6.45309e-21
5.60944e-21
4.88559e-21
4.26364e-21
3.72848e-21
3.26733e-21
2.86932e-21
2.52526e-21
2.22734e-21
1.97149e-21
1.74761e-21
1.55226e-21
1.38193e-21
1.23312e-21
1.10283e-21
9.88459e-22
)
;

boundaryField
{
    wall
    {
        type            zeroGradient;
    }
    fuel
    {
        type            fixedValue;
        value           nonuniform 0();
    }
    outlet
    {
        type            inletOutlet;
        inletValue      nonuniform 0();
        value           nonuniform 0();
    }
    procBoundary1to0
    {
        type            processor;
        value           uniform 1.99275e-18;
    }
    procBoundary1to2
    {
        type            processor;
        value           uniform 8.86068e-22;
    }
}


// ************************************************************************* //
