/*--------------------------------*- C++ -*----------------------------------*\
| =========                 |                                                 |
| \\      /  F ield         | OpenFOAM: The Open Source CFD Toolbox           |
|  \\    /   O peration     | Version:  dev                                   |
|   \\  /    A nd           | Web:      www.OpenFOAM.org                      |
|    \\/     M anipulation  |                                                 |
\*---------------------------------------------------------------------------*/
FoamFile
{
    version     2.0;
    format      ascii;
    class       volScalarField;
    location    "0.12";
    object      A2C2HA*;
}
// * * * * * * * * * * * * * * * * * * * * * * * * * * * * * * * * * * * * * //

dimensions      [0 0 0 0 0 0 0];

internalField   nonuniform List<scalar> 
50
(
3.34113e-17
2.91463e-17
2.54318e-17
2.21963e-17
1.93779e-17
1.69226e-17
1.47831e-17
1.29187e-17
1.12936e-17
9.87683e-18
8.64143e-18
7.5639e-18
6.62384e-18
5.80347e-18
5.08734e-18
4.46201e-18
3.91578e-18
3.43847e-18
3.02123e-18
2.65634e-18
2.3371e-18
2.05767e-18
1.81297e-18
1.59856e-18
1.41059e-18
1.24572e-18
1.10101e-18
9.73912e-19
8.62219e-19
7.63992e-19
6.77547e-19
6.01415e-19
5.34314e-19
4.75127e-19
4.22879e-19
3.76718e-19
3.35901e-19
2.99778e-19
2.67782e-19
2.39416e-19
2.14245e-19
1.9189e-19
1.72015e-19
1.54508e-19
1.38804e-19
1.24769e-19
1.12249e-19
1.01068e-19
9.10744e-20
8.21335e-20
)
;

boundaryField
{
    wall
    {
        type            zeroGradient;
    }
    fuel
    {
        type            fixedValue;
        value           nonuniform 0();
    }
    outlet
    {
        type            inletOutlet;
        inletValue      nonuniform 0();
        value           nonuniform 0();
    }
    procBoundary1to0
    {
        type            processor;
        value           uniform 3.8312e-17;
    }
    procBoundary1to2
    {
        type            processor;
        value           uniform 7.41389e-20;
    }
}


// ************************************************************************* //
