/*--------------------------------*- C++ -*----------------------------------*\
| =========                 |                                                 |
| \\      /  F ield         | OpenFOAM: The Open Source CFD Toolbox           |
|  \\    /   O peration     | Version:  dev                                   |
|   \\  /    A nd           | Web:      www.OpenFOAM.org                      |
|    \\/     M anipulation  |                                                 |
\*---------------------------------------------------------------------------*/
FoamFile
{
    version     2.0;
    format      ascii;
    class       volScalarField;
    location    "0.12";
    object      A4-;
}
// * * * * * * * * * * * * * * * * * * * * * * * * * * * * * * * * * * * * * //

dimensions      [0 0 0 0 0 0 0];

internalField   nonuniform List<scalar> 
50
(
4.07831e-16
3.40519e-16
2.84535e-16
2.37949e-16
1.99158e-16
1.66835e-16
1.39881e-16
1.17386e-16
9.85962e-17
8.28887e-17
6.97465e-17
5.87415e-17
4.95185e-17
4.17826e-17
3.52887e-17
2.98332e-17
2.52462e-17
2.13865e-17
1.81362e-17
1.53967e-17
1.30859e-17
1.1135e-17
9.48654e-18
8.09235e-18
6.91211e-18
5.91203e-18
5.06377e-18
4.34355e-18
3.73139e-18
3.2105e-18
2.76679e-18
2.38837e-18
2.06526e-18
1.78903e-18
1.55257e-18
1.34989e-18
1.17594e-18
1.02643e-18
8.97745e-19
7.8682e-19
6.91057e-19
6.08251e-19
5.36527e-19
4.74916e-19
4.20993e-19
3.73931e-19
3.32891e-19
2.97035e-19
2.65646e-19
2.38111e-19
)
;

boundaryField
{
    wall
    {
        type            zeroGradient;
    }
    fuel
    {
        type            fixedValue;
        value           nonuniform 0();
    }
    outlet
    {
        type            inletOutlet;
        inletValue      nonuniform 0();
        value           nonuniform 0();
    }
    procBoundary1to0
    {
        type            processor;
        value           uniform 4.92171e-16;
    }
    procBoundary1to2
    {
        type            processor;
        value           uniform 2.13513e-19;
    }
}


// ************************************************************************* //
