/*--------------------------------*- C++ -*----------------------------------*\
| =========                 |                                                 |
| \\      /  F ield         | OpenFOAM: The Open Source CFD Toolbox           |
|  \\    /   O peration     | Version:  dev                                   |
|   \\  /    A nd           | Web:      www.OpenFOAM.org                      |
|    \\/     M anipulation  |                                                 |
\*---------------------------------------------------------------------------*/
FoamFile
{
    version     2.0;
    format      ascii;
    class       volScalarField;
    location    "0.12";
    object      CH;
}
// * * * * * * * * * * * * * * * * * * * * * * * * * * * * * * * * * * * * * //

dimensions      [0 0 0 0 0 0 0];

internalField   nonuniform List<scalar> 
250
(
9.17869e-11
1.0988e-10
9.50352e-11
1.01366e-10
8.76304e-11
8.67444e-11
8.57976e-11
8.25153e-11
8.51506e-11
8.15686e-11
4.98549e-11
5.66096e-11
4.69901e-11
5.00392e-11
4.27853e-11
4.2373e-11
4.186e-11
4.01478e-11
4.15564e-11
3.96546e-11
3.97922e-11
4.11272e-11
3.98946e-11
4.1623e-11
4.08217e-11
4.40723e-11
4.28359e-11
5.41768e-11
3.91191e-11
4.41259e-11
2.47356e-11
2.68085e-11
2.14591e-11
2.28337e-11
1.93284e-11
1.91708e-11
1.8903e-11
1.80857e-11
1.87753e-11
1.785e-11
1.79169e-11
1.85717e-11
1.79607e-11
1.87996e-11
1.83974e-11
1.9952e-11
1.94105e-11
2.50886e-11
1.84659e-11
2.27029e-11
1.11868e-11
1.16252e-11
9.02054e-12
9.60197e-12
8.05306e-12
8.01653e-12
7.87634e-12
7.52128e-12
7.82895e-12
7.4184e-12
7.44795e-12
7.74082e-12
7.465e-12
7.83568e-12
7.65229e-12
8.32568e-12
8.12191e-12
1.06698e-11
8.02161e-12
1.06101e-11
4.61252e-12
4.60182e-12
3.48493e-12
3.67687e-12
3.09003e-12
3.03908e-12
3.02489e-12
2.88538e-12
3.00982e-12
2.84457e-12
2.85642e-12
2.97523e-12
2.8624e-12
3.01071e-12
2.93511e-12
3.19772e-12
3.0884e-12
4.1555e-12
3.17304e-12
4.49028e-12
1.70123e-12
1.66415e-12
1.24285e-12
1.30734e-12
1.09755e-12
1.08165e-12
1.07579e-12
1.02637e-12
1.07179e-12
1.01172e-12
1.01601e-12
1.05954e-12
1.01789e-12
1.07141e-12
1.04333e-12
1.13548e-12
1.09925e-12
1.4863e-12
1.16706e-12
1.72534e-12
5.91483e-13
5.59166e-13
4.16454e-13
4.35397e-13
3.67737e-13
3.63341e-13
3.61104e-13
3.45302e-13
3.60278e-13
3.40541e-13
3.41943e-13
3.56369e-13
3.42463e-13
3.59919e-13
3.50503e-13
3.79805e-13
3.69087e-13
4.95509e-13
4.03334e-13
6.10219e-13
1.98135e-13
1.81912e-13
1.37144e-13
1.41929e-13
1.21814e-13
1.20687e-13
1.19913e-13
1.15249e-13
1.19811e-13
1.13815e-13
1.14236e-13
1.18661e-13
1.14364e-13
1.19633e-13
1.16713e-13
1.25404e-13
1.22492e-13
1.60577e-13
1.36759e-13
2.06107e-13
6.79654e-14
6.12533e-14
4.74568e-14
4.8561e-14
4.26445e-14
4.23541e-14
4.20938e-14
4.07238e-14
4.21082e-14
4.02922e-14
4.04176e-14
4.17715e-14
4.04475e-14
4.20324e-14
4.11327e-14
4.37175e-14
4.29313e-14
5.42385e-14
4.83601e-14
7.06588e-14
2.46565e-14
2.21303e-14
1.7668e-14
1.79602e-14
1.60755e-14
1.59968e-14
1.59032e-14
1.54623e-14
1.59234e-14
1.53187e-14
1.53607e-14
1.58138e-14
1.53686e-14
1.58884e-14
1.55882e-14
1.64232e-14
1.61865e-14
1.97708e-14
1.81826e-14
2.5481e-14
8.7311e-15
7.83792e-15
6.34824e-15
6.4482e-15
5.80932e-15
5.78908e-15
5.75296e-15
5.60079e-15
5.7668e-15
5.5485e-15
5.56477e-15
5.72735e-15
5.56754e-15
5.74895e-15
5.643e-15
5.92822e-15
5.8495e-15
7.04098e-15
6.55953e-15
8.96909e-15
2.19615e-15
1.96496e-15
1.59632e-15
1.62267e-15
1.46243e-15
1.45881e-15
1.44867e-15
1.4099e-15
1.45405e-15
1.39568e-15
1.40056e-15
1.44338e-15
1.40145e-15
1.44778e-15
1.42053e-15
1.49222e-15
1.47265e-15
1.7663e-15
1.6539e-15
2.24451e-15
2.93271e-16
2.63015e-16
2.18543e-16
2.21208e-16
2.01811e-16
2.01392e-16
2.00015e-16
1.95191e-16
2.00878e-16
1.93256e-16
1.94029e-16
1.99379e-16
1.94228e-16
1.99763e-16
1.96666e-16
2.0496e-16
2.03522e-16
2.37162e-16
2.27247e-16
2.94385e-16
)
;

boundaryField
{
    fuel
    {
        type            fixedValue;
        value           nonuniform 0();
    }
    wall
    {
        type            zeroGradient;
    }
    outlet
    {
        type            zeroGradient;
    }
    frontAndBack
    {
        type            empty;
    }
    procBoundary1to0
    {
        type            processor;
        value           nonuniform List<scalar> 
21
(
1.54631e-10
1.96668e-10
1.7828e-10
1.90511e-10
1.66684e-10
1.65021e-10
1.63368e-10
1.57593e-10
1.6212e-10
1.55923e-10
8.18205e-11
8.18205e-11
8.43204e-11
8.20376e-11
8.5312e-11
8.38281e-11
9.01025e-11
8.74265e-11
1.08102e-10
7.63378e-11
7.84697e-11
)
;
    }
}


// ************************************************************************* //
