/*--------------------------------*- C++ -*----------------------------------*\
| =========                 |                                                 |
| \\      /  F ield         | OpenFOAM: The Open Source CFD Toolbox           |
|  \\    /   O peration     | Version:  dev                                   |
|   \\  /    A nd           | Web:      www.OpenFOAM.org                      |
|    \\/     M anipulation  |                                                 |
\*---------------------------------------------------------------------------*/
FoamFile
{
    version     2.0;
    format      ascii;
    class       volScalarField;
    location    "0.12";
    object      CH2CO;
}
// * * * * * * * * * * * * * * * * * * * * * * * * * * * * * * * * * * * * * //

dimensions      [0 0 0 0 0 0 0];

internalField   nonuniform List<scalar> 
250
(
1.18792e-05
1.16485e-05
1.10405e-05
1.09478e-05
1.06955e-05
1.06612e-05
1.06442e-05
1.05951e-05
1.06313e-05
1.05797e-05
1.10917e-05
1.08374e-05
1.02683e-05
1.01906e-05
9.95622e-06
9.92634e-06
9.90979e-06
9.86265e-06
9.89846e-06
9.8479e-06
9.85253e-06
9.88733e-06
9.8558e-06
9.89999e-06
9.88365e-06
9.97712e-06
1.00053e-05
1.04102e-05
1.03605e-05
1.11396e-05
1.03065e-05
1.00369e-05
9.50878e-06
9.44354e-06
9.22849e-06
9.20368e-06
9.18699e-06
9.14275e-06
9.17748e-06
9.12882e-06
9.13334e-06
9.16684e-06
9.13619e-06
9.17829e-06
9.1623e-06
9.2483e-06
9.2743e-06
9.64393e-06
9.61056e-06
1.03363e-05
9.5361e-06
9.25818e-06
8.77601e-06
8.72068e-06
8.52755e-06
8.50874e-06
8.49131e-06
8.45121e-06
8.48372e-06
8.4384e-06
8.44266e-06
8.47385e-06
8.44512e-06
8.48376e-06
8.4688e-06
8.54523e-06
8.57102e-06
8.89995e-06
8.8877e-06
9.55533e-06
8.80405e-06
8.52402e-06
8.09673e-06
8.04145e-06
7.88109e-06
7.85629e-06
7.85058e-06
7.81604e-06
7.8449e-06
7.80474e-06
7.80857e-06
7.83614e-06
7.8107e-06
7.84423e-06
7.83123e-06
7.89568e-06
7.91241e-06
8.20357e-06
8.20892e-06
8.81336e-06
8.12926e-06
7.87003e-06
7.50771e-06
7.45635e-06
7.32577e-06
7.30588e-06
7.30067e-06
7.27271e-06
7.29664e-06
7.26319e-06
7.26647e-06
7.28924e-06
7.26835e-06
7.2954e-06
7.28525e-06
7.33614e-06
7.35429e-06
7.59208e-06
7.62223e-06
8.14174e-06
7.57986e-06
7.33732e-06
7.04258e-06
6.99352e-06
6.89337e-06
6.87752e-06
6.873e-06
6.85179e-06
6.87022e-06
6.8441e-06
6.84678e-06
6.86424e-06
6.84855e-06
6.86858e-06
6.86184e-06
6.89921e-06
6.91906e-06
7.10175e-06
7.15368e-06
7.57768e-06
7.16772e-06
6.94918e-06
6.71726e-06
6.6702e-06
6.59735e-06
6.58446e-06
6.58076e-06
6.56547e-06
6.57878e-06
6.55933e-06
6.56146e-06
6.57404e-06
6.56329e-06
6.57688e-06
6.57351e-06
6.59912e-06
6.62032e-06
6.7527e-06
6.82017e-06
7.14914e-06
6.89274e-06
6.70053e-06
6.52118e-06
6.47684e-06
6.4253e-06
6.41443e-06
6.4115e-06
6.4006e-06
6.41e-06
6.39556e-06
6.39723e-06
6.40613e-06
6.39927e-06
6.40792e-06
6.40727e-06
6.42406e-06
6.44577e-06
6.53825e-06
6.61312e-06
6.85988e-06
6.72758e-06
6.56008e-06
6.42083e-06
6.38031e-06
6.34345e-06
6.33391e-06
6.33162e-06
6.32349e-06
6.33041e-06
6.31907e-06
6.32039e-06
6.32709e-06
6.32271e-06
6.32821e-06
6.32932e-06
6.34049e-06
6.36159e-06
6.4265e-06
6.50104e-06
6.68563e-06
6.63122e-06
6.4849e-06
6.37463e-06
6.33857e-06
6.31105e-06
6.30248e-06
6.30066e-06
6.2941e-06
6.29968e-06
6.28998e-06
6.291e-06
6.29669e-06
6.29361e-06
6.29743e-06
6.2994e-06
6.30749e-06
6.32704e-06
6.37488e-06
6.44386e-06
6.58599e-06
6.56289e-06
6.43352e-06
6.34422e-06
6.31231e-06
6.29102e-06
6.28321e-06
6.28177e-06
6.27621e-06
6.28095e-06
6.2723e-06
6.27303e-06
6.27826e-06
6.27586e-06
6.27876e-06
6.28105e-06
6.28751e-06
6.30506e-06
6.34241e-06
6.40421e-06
6.51866e-06
6.52632e-06
6.40833e-06
6.33223e-06
6.30321e-06
6.28559e-06
6.27828e-06
6.27709e-06
6.27211e-06
6.27637e-06
6.26833e-06
6.26882e-06
6.27388e-06
6.27181e-06
6.27424e-06
6.27663e-06
6.28223e-06
6.2983e-06
6.32966e-06
6.38607e-06
6.484e-06
)
;

boundaryField
{
    fuel
    {
        type            fixedValue;
        value           nonuniform 0();
    }
    wall
    {
        type            zeroGradient;
    }
    outlet
    {
        type            zeroGradient;
    }
    frontAndBack
    {
        type            empty;
    }
    procBoundary1to0
    {
        type            processor;
        value           nonuniform List<scalar> 
21
(
1.26595e-05
1.24643e-05
1.18208e-05
1.17096e-05
1.14402e-05
1.14019e-05
1.13841e-05
1.13337e-05
1.13698e-05
1.13179e-05
1.05843e-05
1.05843e-05
1.06198e-05
1.0588e-05
1.06335e-05
1.0617e-05
1.07175e-05
1.07481e-05
1.11887e-05
1.11229e-05
1.19669e-05
)
;
    }
}


// ************************************************************************* //
