/*--------------------------------*- C++ -*----------------------------------*\
| =========                 |                                                 |
| \\      /  F ield         | OpenFOAM: The Open Source CFD Toolbox           |
|  \\    /   O peration     | Version:  dev                                   |
|   \\  /    A nd           | Web:      www.OpenFOAM.org                      |
|    \\/     M anipulation  |                                                 |
\*---------------------------------------------------------------------------*/
FoamFile
{
    version     2.0;
    format      ascii;
    class       volScalarField;
    location    "0.12";
    object      CO;
}
// * * * * * * * * * * * * * * * * * * * * * * * * * * * * * * * * * * * * * //

dimensions      [0 0 0 0 0 0 0];

internalField   nonuniform List<scalar> 
250
(
0.180263
0.182968
0.183759
0.184152
0.184313
0.184313
0.184336
0.184321
0.184332
0.184325
0.180826
0.183086
0.183761
0.184101
0.18424
0.184243
0.184262
0.18425
0.184259
0.184253
0.184255
0.184261
0.184254
0.184258
0.184251
0.184217
0.184109
0.183767
0.182896
0.181689
0.181321
0.183196
0.183767
0.184062
0.184181
0.184187
0.184203
0.184193
0.184201
0.184196
0.184198
0.184202
0.184197
0.1842
0.184194
0.184164
0.184068
0.18377
0.183006
0.181933
0.181756
0.183301
0.183779
0.184037
0.184136
0.184145
0.184158
0.184151
0.184157
0.184153
0.184154
0.184158
0.184154
0.184156
0.184151
0.184124
0.184039
0.183783
0.183117
0.182173
0.182138
0.183403
0.183799
0.184023
0.184105
0.184116
0.184126
0.184121
0.184126
0.184123
0.184124
0.184127
0.184124
0.184125
0.18412
0.184098
0.184024
0.183805
0.183231
0.18241
0.182473
0.183498
0.183826
0.184019
0.184086
0.184098
0.184106
0.184103
0.184106
0.184104
0.184105
0.184108
0.184105
0.184106
0.184102
0.184082
0.184019
0.183834
0.183346
0.182641
0.182772
0.183588
0.183858
0.184021
0.184076
0.184089
0.184095
0.184094
0.184096
0.184094
0.184095
0.184097
0.184095
0.184096
0.184092
0.184076
0.184021
0.183867
0.183458
0.18286
0.183024
0.183671
0.183891
0.184028
0.184073
0.184086
0.18409
0.184089
0.184091
0.18409
0.18409
0.184092
0.184091
0.184091
0.184088
0.184074
0.184028
0.183902
0.183564
0.183065
0.183239
0.183744
0.183925
0.184037
0.184074
0.184085
0.184088
0.184088
0.184089
0.184088
0.184089
0.18409
0.18409
0.18409
0.184088
0.184076
0.184038
0.183935
0.183662
0.183251
0.183418
0.183807
0.183955
0.184046
0.184076
0.184086
0.184088
0.184089
0.184089
0.184089
0.184089
0.18409
0.18409
0.18409
0.184088
0.184079
0.184048
0.183965
0.183748
0.183415
0.183562
0.18386
0.183981
0.184054
0.184079
0.184087
0.184089
0.184089
0.18409
0.184089
0.184089
0.184091
0.18409
0.184091
0.184089
0.184082
0.184057
0.18399
0.18382
0.183553
0.183671
0.1839
0.184002
0.184061
0.184081
0.184088
0.18409
0.18409
0.18409
0.18409
0.18409
0.184091
0.184091
0.184092
0.18409
0.184084
0.184063
0.184009
0.183876
0.183661
0.183738
0.183925
0.184015
0.184065
0.184082
0.184089
0.18409
0.18409
0.184091
0.18409
0.18409
0.184091
0.184091
0.184092
0.184091
0.184085
0.184068
0.184022
0.183911
0.18373
)
;

boundaryField
{
    fuel
    {
        type            fixedValue;
        value           nonuniform 0();
    }
    wall
    {
        type            zeroGradient;
    }
    outlet
    {
        type            zeroGradient;
    }
    frontAndBack
    {
        type            empty;
    }
    procBoundary1to0
    {
        type            processor;
        value           nonuniform List<scalar> 
21
(
0.179622
0.18284
0.183756
0.184214
0.184395
0.184395
0.18442
0.184403
0.184416
0.184408
0.184327
0.184327
0.184333
0.184325
0.184329
0.184323
0.184284
0.184162
0.183773
0.182788
0.181443
)
;
    }
}


// ************************************************************************* //
