/*--------------------------------*- C++ -*----------------------------------*\
| =========                 |                                                 |
| \\      /  F ield         | OpenFOAM: The Open Source CFD Toolbox           |
|  \\    /   O peration     | Version:  dev                                   |
|   \\  /    A nd           | Web:      www.OpenFOAM.org                      |
|    \\/     M anipulation  |                                                 |
\*---------------------------------------------------------------------------*/
FoamFile
{
    version     2.0;
    format      ascii;
    class       volScalarField;
    location    "0.12";
    object      dQ;
}
// * * * * * * * * * * * * * * * * * * * * * * * * * * * * * * * * * * * * * //

dimensions      [1 2 -3 0 0 0 0];

internalField   nonuniform List<scalar> 
250
(
0.00319203
0.00350063
0.003469
0.00355635
0.00342779
0.00341889
0.00341231
0.00337606
0.00340405
0.00336701
0.00303387
0.00325505
0.00314684
0.00322014
0.00308196
0.00307281
0.00306499
0.00302767
0.00305745
0.00301799
0.00302289
0.00304896
0.00302486
0.00305922
0.00304447
0.00310557
0.0030786
0.00325369
0.00292507
0.00290819
0.0028095
0.00294761
0.00280644
0.00286286
0.00273676
0.00272974
0.00272129
0.0026883
0.00271513
0.00267965
0.00268346
0.00270683
0.00268513
0.00271553
0.00270249
0.00275633
0.00273843
0.00290715
0.00265403
0.00269967
0.00260519
0.00268418
0.00254916
0.00259076
0.00248838
0.00248615
0.00247582
0.00244997
0.002471
0.00244323
0.00244627
0.00246436
0.00244757
0.00247099
0.00246121
0.00250226
0.00249482
0.00262875
0.00245082
0.00251407
0.00249539
0.00254128
0.00243256
0.00245698
0.00238517
0.00237532
0.00237554
0.00235626
0.00237154
0.00235133
0.00235365
0.00236652
0.00235464
0.00237145
0.00236497
0.00239366
0.00238472
0.00248752
0.00235984
0.00241235
0.00249187
0.00253638
0.00245384
0.00247346
0.00241639
0.00240812
0.00240824
0.00239251
0.00240447
0.00238852
0.00239038
0.00240032
0.00239123
0.00240443
0.0023999
0.00242115
0.00241651
0.00249255
0.00239446
0.00242377
0.00259237
0.00263571
0.00256055
0.00258137
0.00252514
0.00251735
0.00251712
0.00250106
0.00251336
0.00249682
0.00249863
0.00250909
0.00249948
0.00251326
0.0025085
0.00252889
0.0025253
0.00259761
0.00250556
0.00253098
0.00271999
0.00275815
0.00266261
0.00268975
0.00261936
0.00261185
0.00261054
0.00259022
0.00260706
0.00258446
0.00258664
0.00260169
0.00258761
0.00260657
0.00259881
0.00262556
0.00261974
0.00271559
0.00261178
0.00267315
0.00273474
0.00275193
0.00260775
0.00264462
0.00254808
0.00254153
0.00253821
0.0025109
0.00253594
0.00250259
0.00250549
0.00252885
0.00250652
0.00253461
0.00252096
0.00256066
0.00254884
0.00269374
0.00256657
0.00271549
0.00240619
0.00239213
0.00220812
0.00225072
0.00213803
0.00213367
0.00212843
0.00209752
0.00212823
0.00208756
0.00209094
0.00212031
0.00209184
0.00212595
0.00210757
0.00215643
0.00213888
0.00232059
0.00218215
0.00241918
0.00168984
0.00165724
0.00149185
0.0015271
0.0014313
0.00142936
0.00142397
0.00139822
0.00142544
0.0013894
0.0013925
0.00141876
0.00139316
0.00142273
0.00140597
0.00144857
0.00143237
0.00159184
0.00148242
0.00171396
0.000808746
0.000779567
0.000686479
0.000703897
0.000652806
0.000652301
0.000648993
0.000635448
0.000650552
0.000630472
0.000632376
0.000646874
0.000632754
0.000648573
0.000639413
0.000662297
0.000653849
0.000740096
0.000687303
0.000822279
0.000243037
0.000231629
0.000205008
0.000209101
0.000195038
0.000194871
0.000193824
0.000189994
0.000194434
0.000188427
0.000189149
0.000193216
0.000189363
0.000193543
0.000191335
0.000197112
0.000195937
0.000217952
0.000207391
0.000242749
)
;

boundaryField
{
    fuel
    {
        type            calculated;
        value           nonuniform 0();
    }
    wall
    {
        type            calculated;
        value           uniform 0;
    }
    outlet
    {
        type            calculated;
        value           uniform 0;
    }
    frontAndBack
    {
        type            empty;
    }
    procBoundary1to0
    {
        type            processor;
        value           uniform 0;
    }
}


// ************************************************************************* //
