/*--------------------------------*- C++ -*----------------------------------*\
| =========                 |                                                 |
| \\      /  F ield         | OpenFOAM: The Open Source CFD Toolbox           |
|  \\    /   O peration     | Version:  dev                                   |
|   \\  /    A nd           | Web:      www.OpenFOAM.org                      |
|    \\/     M anipulation  |                                                 |
\*---------------------------------------------------------------------------*/
FoamFile
{
    version     2.0;
    format      ascii;
    class       volScalarField;
    location    "0.12";
    object      n-C4H3;
}
// * * * * * * * * * * * * * * * * * * * * * * * * * * * * * * * * * * * * * //

dimensions      [0 0 0 0 0 0 0];

internalField   nonuniform List<scalar> 
250
(
8.1672e-09
7.10206e-09
7.21924e-09
6.71404e-09
6.79364e-09
6.64993e-09
6.70292e-09
6.65487e-09
6.67683e-09
6.65853e-09
7.87452e-09
7.04149e-09
7.12807e-09
6.72183e-09
6.77586e-09
6.66515e-09
6.7019e-09
6.66772e-09
6.68269e-09
6.66992e-09
6.6708e-09
6.68266e-09
6.67399e-09
6.69104e-09
6.69202e-09
6.72193e-09
6.83422e-09
6.9479e-09
7.40846e-09
7.68972e-09
7.7577e-09
7.14545e-09
7.19899e-09
6.88866e-09
6.91501e-09
6.83691e-09
6.85669e-09
6.83679e-09
6.84408e-09
6.83716e-09
6.83781e-09
6.84407e-09
6.84015e-09
6.85272e-09
6.85284e-09
6.87945e-09
6.9672e-09
7.06777e-09
7.43402e-09
7.66115e-09
7.86186e-09
7.45434e-09
7.47593e-09
7.25317e-09
7.2516e-09
7.20307e-09
7.20718e-09
7.19984e-09
7.19922e-09
7.19811e-09
7.1984e-09
7.19965e-09
7.2002e-09
7.21115e-09
7.21001e-09
7.23313e-09
7.30006e-09
7.39004e-09
7.67181e-09
7.8451e-09
8.2497e-09
8.02784e-09
8.01663e-09
7.87109e-09
7.84072e-09
7.82026e-09
7.80853e-09
7.81352e-09
7.80455e-09
7.80934e-09
7.80906e-09
7.80593e-09
7.81059e-09
7.81684e-09
7.81756e-09
7.83903e-09
7.88861e-09
7.97136e-09
8.18036e-09
8.30239e-09
9.02607e-09
8.97002e-09
8.92179e-09
8.84623e-09
8.78358e-09
8.79432e-09
8.76197e-09
8.78315e-09
8.76445e-09
8.77589e-09
8.77469e-09
8.76734e-09
8.77618e-09
8.77711e-09
8.7767e-09
8.80146e-09
8.83472e-09
8.91614e-09
9.06242e-09
9.13851e-09
1.03963e-08
1.04818e-08
1.03897e-08
1.03791e-08
1.02799e-08
1.03217e-08
1.02684e-08
1.0305e-08
1.02754e-08
1.02939e-08
1.02914e-08
1.02804e-08
1.02932e-08
1.02904e-08
1.02885e-08
1.03176e-08
1.0338e-08
1.04225e-08
1.05174e-08
1.0555e-08
1.27161e-08
1.28744e-08
1.27795e-08
1.27691e-08
1.26604e-08
1.27041e-08
1.26439e-08
1.26823e-08
1.2649e-08
1.26689e-08
1.26647e-08
1.26575e-08
1.26681e-08
1.26695e-08
1.26646e-08
1.27021e-08
1.27275e-08
1.2812e-08
1.28987e-08
1.29058e-08
1.65617e-08
1.64028e-08
1.65444e-08
1.62273e-08
1.6256e-08
1.6161e-08
1.61679e-08
1.61419e-08
1.61448e-08
1.61365e-08
1.61297e-08
1.61611e-08
1.6139e-08
1.61767e-08
1.61653e-08
1.62216e-08
1.63267e-08
1.6374e-08
1.66304e-08
1.66162e-08
2.21246e-08
2.05166e-08
2.15659e-08
2.0101e-08
2.06629e-08
2.00564e-08
2.03304e-08
2.0063e-08
2.0212e-08
2.00959e-08
2.00825e-08
2.02481e-08
2.01086e-08
2.02647e-08
2.0241e-08
2.03338e-08
2.07168e-08
2.06165e-08
2.15348e-08
2.15271e-08
2.62104e-08
2.1108e-08
2.40106e-08
2.01918e-08
2.17798e-08
2.01957e-08
2.09849e-08
2.02578e-08
2.06927e-08
2.03684e-08
2.03376e-08
2.07709e-08
2.03939e-08
2.07715e-08
2.07336e-08
2.08684e-08
2.1798e-08
2.14064e-08
2.38011e-08
2.39907e-08
1.84786e-08
1.31245e-08
1.58346e-08
1.2281e-08
1.37019e-08
1.22902e-08
1.29999e-08
1.23478e-08
1.27451e-08
1.24499e-08
1.24146e-08
1.28242e-08
1.2466e-08
1.28094e-08
1.27788e-08
1.28787e-08
1.3724e-08
1.33493e-08
1.56924e-08
1.60474e-08
7.82247e-09
5.60936e-09
6.63537e-09
5.21874e-09
5.74827e-09
5.20399e-09
5.47246e-09
5.21862e-09
5.3741e-09
5.25646e-09
5.23131e-09
5.4224e-09
5.25668e-09
5.41202e-09
5.39564e-09
5.4415e-09
5.7966e-09
5.6546e-09
6.67203e-09
6.92287e-09
)
;

boundaryField
{
    fuel
    {
        type            fixedValue;
        value           nonuniform 0();
    }
    wall
    {
        type            zeroGradient;
    }
    outlet
    {
        type            zeroGradient;
    }
    frontAndBack
    {
        type            empty;
    }
    procBoundary1to0
    {
        type            processor;
        value           nonuniform List<scalar> 
21
(
8.60048e-09
7.29604e-09
7.4335e-09
6.83171e-09
6.93245e-09
6.75798e-09
6.82525e-09
6.76506e-09
6.79301e-09
6.76978e-09
6.65979e-09
6.65979e-09
6.67712e-09
6.66402e-09
6.6869e-09
6.6884e-09
6.722e-09
6.86076e-09
6.99091e-09
7.55073e-09
7.88368e-09
)
;
    }
}


// ************************************************************************* //
