/*--------------------------------*- C++ -*----------------------------------*\
| =========                 |                                                 |
| \\      /  F ield         | OpenFOAM: The Open Source CFD Toolbox           |
|  \\    /   O peration     | Version:  dev                                   |
|   \\  /    A nd           | Web:      www.OpenFOAM.org                      |
|    \\/     M anipulation  |                                                 |
\*---------------------------------------------------------------------------*/
FoamFile
{
    version     2.0;
    format      ascii;
    class       volScalarField;
    location    "0.12";
    object      N2;
}
// * * * * * * * * * * * * * * * * * * * * * * * * * * * * * * * * * * * * * //

dimensions      [0 0 0 0 0 0 0];

internalField   nonuniform List<scalar> 
250
(
0.000750822
0.000350904
0.00010936
3.28318e-05
1.02604e-05
4.91607e-06
3.53627e-06
3.20822e-06
3.04641e-06
3.0788e-06
0.000670078
0.00031302
9.8317e-05
3.04234e-05
1.01889e-05
5.29371e-06
4.01184e-06
3.70301e-06
3.54636e-06
3.58357e-06
3.63946e-06
3.67438e-06
3.80871e-06
4.09011e-06
5.2503e-06
9.68084e-06
2.67012e-05
8.87355e-05
0.000247142
0.000680125
0.00059413
0.000277339
8.78636e-05
2.8138e-05
1.01595e-05
5.71299e-06
4.53355e-06
4.24521e-06
4.09438e-06
4.13673e-06
4.19619e-06
4.22275e-06
4.35502e-06
4.61627e-06
5.69175e-06
9.69092e-06
2.47784e-05
7.85485e-05
0.000213521
0.000568056
0.000522781
0.000243799
7.8041e-05
2.60015e-05
1.01822e-05
6.17966e-06
5.10527e-06
4.83901e-06
4.69439e-06
4.74252e-06
4.80198e-06
4.81974e-06
4.94889e-06
5.1903e-06
6.17899e-06
9.76393e-06
2.30437e-05
6.93421e-05
0.000183978
0.000473561
0.000455933
0.000212348
6.88894e-05
2.40147e-05
1.02641e-05
6.70693e-06
5.72784e-06
5.48521e-06
5.34701e-06
5.40164e-06
5.45818e-06
5.46693e-06
5.59197e-06
5.81346e-06
6.71441e-06
9.90298e-06
2.14754e-05
6.10775e-05
0.000157779
0.000393916
0.000392066
0.000182996
6.04528e-05
2.22352e-05
1.04085e-05
7.2743e-06
6.39811e-06
6.18033e-06
6.04866e-06
6.11045e-06
6.16251e-06
6.16226e-06
6.28227e-06
6.48364e-06
7.29713e-06
1.01082e-05
2.01214e-05
5.37133e-05
0.00013506
0.000326925
0.000334103
0.000155981
5.27739e-05
2.06586e-05
1.06154e-05
7.88584e-06
7.10933e-06
6.91694e-06
6.79188e-06
6.86123e-06
6.90826e-06
6.89921e-06
7.01332e-06
7.1947e-06
7.92204e-06
1.03766e-05
1.89572e-05
4.72001e-05
0.000115222
0.000270659
0.000280938
0.000131435
4.58917e-05
1.92951e-05
1.08813e-05
8.5325e-06
7.85092e-06
7.68363e-06
7.56529e-06
7.64222e-06
7.68424e-06
7.66674e-06
7.77412e-06
7.93623e-06
8.57983e-06
1.07019e-05
1.79785e-05
4.14908e-05
9.79853e-05
0.000223475
0.000232894
0.000109465
3.98413e-05
1.81505e-05
1.11978e-05
9.20036e-06
8.60738e-06
8.46405e-06
8.35258e-06
8.43671e-06
8.47403e-06
8.44857e-06
8.54856e-06
8.69267e-06
9.25629e-06
1.10732e-05
1.71789e-05
3.65463e-05
8.31336e-05
0.000184053
0.000190451
9.02452e-05
3.46586e-05
1.72249e-05
1.15501e-05
9.86856e-06
9.35606e-06
9.2348e-06
9.13024e-06
9.22086e-06
9.25398e-06
9.22126e-06
9.3134e-06
9.44136e-06
9.93043e-06
1.14739e-05
1.65493e-05
3.23428e-05
7.05259e-05
0.00015143
0.000154341
7.4055e-05
3.03903e-05
1.65138e-05
1.19144e-05
1.05056e-05
1.00632e-05
9.96132e-06
9.86346e-06
9.95959e-06
9.98915e-06
9.95017e-06
1.00343e-05
1.01486e-05
1.05708e-05
1.18784e-05
1.60776e-05
2.88824e-05
6.013e-05
0.000125056
0.000125799
6.13817e-05
2.71234e-05
1.60107e-05
1.2252e-05
1.10615e-05
1.06756e-05
1.05894e-05
1.04975e-05
1.05978e-05
1.06246e-05
1.05808e-05
1.06574e-05
1.07612e-05
1.11277e-05
1.22468e-05
1.57516e-05
2.6218e-05
5.20983e-05
0.000104961
0.000107422
5.32852e-05
2.50776e-05
1.57189e-05
1.24958e-05
1.14473e-05
1.10982e-05
1.10222e-05
1.09347e-05
1.10375e-05
1.10626e-05
1.10158e-05
1.10867e-05
1.11842e-05
1.1513e-05
1.251e-05
1.55654e-05
2.45327e-05
4.70041e-05
9.23136e-05
)
;

boundaryField
{
    fuel
    {
        type            fixedValue;
        value           nonuniform 0();
    }
    wall
    {
        type            zeroGradient;
    }
    outlet
    {
        type            zeroGradient;
    }
    frontAndBack
    {
        type            empty;
    }
    procBoundary1to0
    {
        type            processor;
        value           nonuniform List<scalar> 
21
(
0.0008359
0.00039078
0.000120907
3.533e-05
1.03657e-05
4.57439e-06
3.1034e-06
2.75541e-06
2.59074e-06
2.61675e-06
3.12929e-06
3.12929e-06
3.171e-06
3.30738e-06
3.60678e-06
4.85337e-06
9.71834e-06
2.88172e-05
9.9975e-05
0.00028531
0.000815539
)
;
    }
}


// ************************************************************************* //
