/*--------------------------------*- C++ -*----------------------------------*\
| =========                 |                                                 |
| \\      /  F ield         | OpenFOAM: The Open Source CFD Toolbox           |
|  \\    /   O peration     | Version:  dev                                   |
|   \\  /    A nd           | Web:      www.OpenFOAM.org                      |
|    \\/     M anipulation  |                                                 |
\*---------------------------------------------------------------------------*/
FoamFile
{
    version     2.0;
    format      ascii;
    class       volScalarField;
    location    "0.12";
    object      O2;
}
// * * * * * * * * * * * * * * * * * * * * * * * * * * * * * * * * * * * * * //

dimensions      [0 0 0 0 0 0 0];

internalField   nonuniform List<scalar> 
250
(
9.16623e-08
9.3582e-09
3.01283e-09
2.86367e-09
2.69438e-09
2.68475e-09
2.67365e-09
2.62928e-09
2.66263e-09
2.61685e-09
5.53052e-08
6.66374e-09
2.41384e-09
2.28271e-09
2.15015e-09
2.14229e-09
2.13358e-09
2.09923e-09
2.12521e-09
2.08942e-09
2.09233e-09
2.11662e-09
2.09479e-09
2.12655e-09
2.11344e-09
2.1694e-09
2.2296e-09
5.06891e-09
6.4044e-08
1.17102e-06
3.42011e-08
4.93859e-09
1.9725e-09
1.84354e-09
1.73732e-09
1.73096e-09
1.72365e-09
1.69667e-09
1.71724e-09
1.68874e-09
1.69137e-09
1.71042e-09
1.69329e-09
1.71779e-09
1.70802e-09
1.74979e-09
1.80853e-09
4.07003e-09
4.71725e-08
7.83351e-07
2.20737e-08
3.8569e-09
1.64345e-09
1.50555e-09
1.41738e-09
1.41261e-09
1.40575e-09
1.38419e-09
1.40083e-09
1.37759e-09
1.38001e-09
1.39526e-09
1.38159e-09
1.4008e-09
1.39348e-09
1.42492e-09
1.47923e-09
3.24873e-09
3.43592e-08
5.21482e-07
1.52968e-08
3.19973e-09
1.39138e-09
1.23488e-09
1.16164e-09
1.1538e-09
1.15161e-09
1.13411e-09
1.14789e-09
1.12848e-09
1.13075e-09
1.14321e-09
1.13211e-09
1.14742e-09
1.14188e-09
1.16577e-09
1.20974e-09
2.56589e-09
2.45191e-08
3.43533e-07
1.16132e-08
2.81177e-09
1.19014e-09
1.01485e-09
9.50627e-10
9.4389e-10
9.41838e-10
9.27467e-10
9.39073e-10
9.22604e-10
9.2474e-10
9.35088e-10
9.25954e-10
9.38297e-10
9.34064e-10
9.52366e-10
9.88817e-10
1.99698e-09
1.71555e-08
2.22593e-07
9.80862e-09
2.57997e-09
1.02077e-09
8.28567e-10
7.71609e-10
7.65792e-10
7.63895e-10
7.5207e-10
7.61923e-10
7.4785e-10
7.49851e-10
7.58503e-10
7.50951e-10
7.60938e-10
7.57691e-10
7.71807e-10
8.00619e-10
1.52523e-09
1.16693e-08
1.40864e-07
8.94864e-09
2.41845e-09
8.70162e-10
6.67233e-10
6.16915e-10
6.11916e-10
6.10216e-10
6.00556e-10
6.08901e-10
5.96922e-10
5.98773e-10
6.0598e-10
5.99774e-10
6.07791e-10
6.05326e-10
6.16232e-10
6.37999e-10
1.13861e-09
7.6693e-09
8.633e-08
8.47709e-09
2.26423e-09
7.3015e-10
5.25969e-10
4.82375e-10
4.78137e-10
4.7668e-10
4.68923e-10
4.75899e-10
4.65848e-10
4.67527e-10
4.73436e-10
4.68432e-10
4.74736e-10
4.72925e-10
4.81271e-10
4.97057e-10
8.27327e-10
4.83604e-09
5.07009e-08
8.0448e-09
2.07705e-09
5.97119e-10
4.02768e-10
3.66266e-10
3.62758e-10
3.61578e-10
3.55511e-10
3.61208e-10
3.52978e-10
3.54465e-10
3.59173e-10
3.55272e-10
3.60056e-10
3.58813e-10
3.6503e-10
3.76126e-10
5.82655e-10
2.90294e-09
2.81462e-08
7.46606e-09
1.84155e-09
4.72033e-10
2.97878e-10
2.687e-10
2.65889e-10
2.64992e-10
2.60403e-10
2.64915e-10
2.58385e-10
2.59668e-10
2.63273e-10
2.60377e-10
2.63825e-10
2.6308e-10
2.67491e-10
2.75192e-10
3.9678e-10
1.64763e-09
1.45149e-08
6.70991e-09
1.57232e-09
3.61137e-10
2.13812e-10
1.91607e-10
1.89424e-10
1.88788e-10
1.8542e-10
1.8889e-10
1.8386e-10
1.84944e-10
1.87586e-10
1.85562e-10
1.87893e-10
1.87569e-10
1.90488e-10
1.95956e-10
2.63667e-10
8.90316e-10
6.86128e-09
5.94666e-09
1.33031e-09
2.79786e-10
1.57553e-10
1.40737e-10
1.3902e-10
1.38579e-10
1.36063e-10
1.38761e-10
1.34842e-10
1.35769e-10
1.377e-10
1.36314e-10
1.37856e-10
1.37838e-10
1.3969e-10
1.4394e-10
1.82834e-10
5.04568e-10
3.23221e-09
)
;

boundaryField
{
    fuel
    {
        type            fixedValue;
        value           nonuniform 0();
    }
    wall
    {
        type            zeroGradient;
    }
    outlet
    {
        type            inletOutlet;
        inletValue      uniform 0;
        value           nonuniform List<scalar> 
25
(
9.16623e-08
5.53052e-08
3.42011e-08
2.20737e-08
1.52968e-08
1.16132e-08
9.80862e-09
8.94864e-09
8.47709e-09
8.0448e-09
7.46606e-09
6.70991e-09
5.94666e-09
1.17102e-06
7.83351e-07
5.21482e-07
3.43533e-07
2.22593e-07
1.40864e-07
8.633e-08
5.07009e-08
2.81462e-08
1.45149e-08
6.86128e-09
3.23221e-09
)
;
    }
    frontAndBack
    {
        type            empty;
    }
    procBoundary1to0
    {
        type            processor;
        value           nonuniform List<scalar> 
21
(
1.55827e-07
1.36124e-08
3.82789e-09
3.63427e-09
3.41689e-09
3.40506e-09
3.39046e-09
3.33301e-09
3.3759e-09
3.31706e-09
2.62001e-09
2.62001e-09
2.65146e-09
2.6233e-09
2.66505e-09
2.6472e-09
2.7234e-09
2.77921e-09
6.31436e-09
8.66953e-08
1.76161e-06
)
;
    }
}


// ************************************************************************* //
