/*--------------------------------*- C++ -*----------------------------------*\
| =========                 |                                                 |
| \\      /  F ield         | OpenFOAM: The Open Source CFD Toolbox           |
|  \\    /   O peration     | Version:  dev                                   |
|   \\  /    A nd           | Web:      www.OpenFOAM.org                      |
|    \\/     M anipulation  |                                                 |
\*---------------------------------------------------------------------------*/
FoamFile
{
    version     2.0;
    format      ascii;
    class       surfaceScalarField;
    location    "0.12";
    object      phi;
}
// * * * * * * * * * * * * * * * * * * * * * * * * * * * * * * * * * * * * * //

dimensions      [1 0 -1 0 0 0 0];

internalField   nonuniform List<scalar> 
467
(
-2.12758e-06
7.17002e-06
-1.80223e-06
3.69972e-06
-1.52224e-06
5.71988e-06
-1.32409e-06
2.78185e-06
-1.05616e-06
4.89451e-06
-8.63639e-07
3.08867e-06
-6.23123e-07
4.32579e-06
-4.19151e-07
3.3969e-06
-1.94413e-07
4.00653e-06
3.61254e-06
-2.18345e-06
6.7531e-06
-1.86105e-06
3.41018e-06
-1.56487e-06
5.41289e-06
-1.36634e-06
2.57956e-06
-1.08704e-06
4.62231e-06
-8.9153e-07
2.88373e-06
-6.41559e-07
4.08213e-06
-4.32932e-07
3.18076e-06
-2.00213e-07
3.77594e-06
1.54278e-08
3.39203e-06
2.41081e-07
3.56541e-06
4.61155e-07
3.52373e-06
6.82859e-07
3.50524e-06
9.05605e-07
3.55878e-06
1.12995e-06
3.56275e-06
1.34924e-06
3.48815e-06
1.59888e-06
4.0082e-06
1.83291e-06
3.41993e-06
2.14127e-06
4.89117e-06
4.324e-06
-2.24468e-06
6.31335e-06
-1.92435e-06
3.12551e-06
-1.61135e-06
5.08919e-06
-1.41223e-06
2.37601e-06
-1.12061e-06
4.33895e-06
-9.21863e-07
2.67449e-06
-6.61599e-07
3.82924e-06
-4.48011e-07
2.95892e-06
-2.06544e-07
3.53717e-06
1.53385e-08
3.16493e-06
2.48487e-07
3.33193e-06
4.75598e-07
3.2919e-06
7.04471e-07
3.27556e-06
9.34661e-07
3.32251e-06
1.16614e-06
3.32997e-06
1.39273e-06
3.25766e-06
1.65116e-06
3.74802e-06
1.88876e-06
3.18209e-06
2.20748e-06
4.56566e-06
4.05455e-06
-2.31287e-06
5.85104e-06
-1.9937e-06
2.8448e-06
-1.66288e-06
4.74802e-06
-1.46294e-06
2.17106e-06
-1.15774e-06
4.04334e-06
-9.55427e-07
2.46042e-06
-6.83754e-07
3.56584e-06
-4.64794e-07
2.73084e-06
-2.13575e-07
3.28929e-06
1.51921e-08
2.93057e-06
2.56628e-07
3.0904e-06
4.91487e-07
3.05202e-06
7.2834e-07
3.0381e-06
9.66707e-07
3.07647e-06
1.20606e-06
3.08944e-06
1.44067e-06
3.01903e-06
1.70872e-06
3.47831e-06
1.95063e-06
2.94001e-06
2.28026e-06
4.22862e-06
3.77209e-06
-2.39073e-06
5.36627e-06
-2.0718e-06
2.56243e-06
-1.72145e-06
4.38794e-06
-1.52065e-06
1.96271e-06
-1.19982e-06
3.73435e-06
-9.9359e-07
2.24098e-06
-7.08987e-07
3.29036e-06
-4.83845e-07
2.49556e-06
-2.2154e-07
3.03105e-06
1.49807e-08
2.688e-06
2.65762e-07
2.83979e-06
5.09326e-07
2.8031e-06
7.55252e-07
2.79183e-06
1.00307e-06
2.82719e-06
1.25129e-06
2.84015e-06
1.49475e-06
2.77149e-06
1.77354e-06
3.19783e-06
2.02068e-06
2.69278e-06
2.36207e-06
3.87897e-06
3.47539e-06
-2.48077e-06
4.85808e-06
-2.16102e-06
2.2813e-06
-1.78897e-06
4.00721e-06
-1.58684e-06
1.75185e-06
-1.24828e-06
3.4096e-06
-1.03748e-06
2.01529e-06
-7.37928e-07
3.00088e-06
-5.05969e-07
2.2523e-06
-2.30783e-07
2.76075e-06
1.46925e-08
2.43596e-06
2.76259e-07
2.57867e-06
5.2984e-07
2.54375e-06
7.86278e-07
2.53531e-06
1.04457e-06
2.56639e-06
1.30316e-06
2.58062e-06
1.55683e-06
2.51366e-06
1.84789e-06
2.90517e-06
2.10191e-06
2.43874e-06
2.45642e-06
3.51517e-06
3.16282e-06
-2.58972e-06
4.32323e-06
-2.26652e-06
1.99907e-06
-1.86938e-06
3.60287e-06
-1.66549e-06
1.53763e-06
-1.30589e-06
3.06606e-06
-1.08968e-06
1.78228e-06
-7.72355e-07
2.69513e-06
-5.32363e-07
1.99966e-06
-2.41816e-07
2.47602e-06
1.4311e-08
2.17267e-06
2.88668e-07
2.30506e-06
5.54118e-07
2.27204e-06
8.23063e-07
2.26657e-06
1.09362e-06
2.29141e-06
1.36465e-06
2.30872e-06
1.63032e-06
2.2437e-06
1.9358e-06
2.59814e-06
2.19881e-06
2.1758e-06
2.56851e-06
3.13494e-06
2.83216e-06
-2.72297e-06
3.76082e-06
-2.39568e-06
1.71465e-06
-1.96845e-06
3.17046e-06
-1.76212e-06
1.31891e-06
-1.37673e-06
2.69944e-06
-1.15384e-06
1.54042e-06
-8.1472e-07
2.36961e-06
-5.64877e-07
1.7356e-06
-2.5544e-07
2.17346e-06
1.38152e-08
1.89555e-06
3.03851e-07
2.0161e-06
5.83861e-07
1.98513e-06
8.68178e-07
1.98278e-06
1.1536e-06
2.00034e-06
1.44006e-06
2.02142e-06
1.72033e-06
1.95888e-06
2.04331e-06
2.27355e-06
2.31836e-06
1.90093e-06
2.70642e-06
2.73491e-06
2.48021e-06
-2.89455e-06
3.166e-06
-2.56075e-06
1.42493e-06
-2.09581e-06
2.703e-06
-1.8858e-06
1.09399e-06
-1.46761e-06
2.30325e-06
-1.23594e-06
1.28731e-06
-8.69059e-07
2.01875e-06
-6.06526e-07
1.45704e-06
-2.72971e-07
1.84795e-06
1.3187e-08
1.60071e-06
3.23242e-07
1.70745e-06
6.21899e-07
1.67877e-06
9.25879e-07
1.67967e-06
1.23011e-06
1.68961e-06
1.53649e-06
1.71422e-06
1.83529e-06
1.65513e-06
2.18049e-06
1.92664e-06
2.47211e-06
1.60961e-06
2.88357e-06
2.30983e-06
2.10209e-06
-3.12793e-06
2.5303e-06
-2.7836e-06
1.12522e-06
-2.26875e-06
2.18901e-06
-2.05258e-06
8.59946e-07
-1.59063e-06
1.86706e-06
-1.34647e-06
1.01888e-06
-9.42537e-07
1.63344e-06
-6.62577e-07
1.15896e-06
-2.96716e-07
1.49141e-06
1.24402e-08
1.28189e-06
3.49434e-07
1.37217e-06
6.73311e-07
1.34616e-06
1.00377e-06
1.3504e-06
1.33311e-06
1.35291e-06
1.66663e-06
1.37989e-06
1.99028e-06
1.32601e-06
2.36533e-06
1.54968e-06
2.68071e-06
1.2947e-06
3.12395e-06
1.85112e-06
1.68991e-06
-3.47044e-06
1.83627e-06
-3.10764e-06
8.06683e-07
-2.52173e-06
1.60804e-06
-2.29386e-06
6.10885e-07
-1.76976e-06
1.37271e-06
-1.50589e-06
7.27637e-07
-1.04924e-06
1.198e-06
-7.43185e-07
8.32409e-07
-3.31147e-07
1.08991e-06
1.17102e-08
9.28223e-07
3.87639e-07
9.9813e-07
7.48118e-07
9.75666e-07
1.11691e-06
9.82985e-07
1.48246e-06
9.79027e-07
1.85557e-06
1.00584e-06
2.21517e-06
9.60339e-07
2.63359e-06
1.12904e-06
2.98511e-06
9.43819e-07
3.47547e-06
1.34326e-06
1.2296e-06
-4.03325e-06
1.04099e-06
-3.63284e-06
4.48516e-07
-2.9347e-06
9.18765e-07
-2.68096e-06
3.33082e-07
-2.05989e-06
7.84238e-07
-1.76076e-06
3.9851e-07
-1.22129e-06
6.81361e-07
-8.71058e-07
4.59509e-07
-3.86384e-07
6.16314e-07
1.15174e-08
5.1827e-07
4.49957e-07
5.61261e-07
8.69436e-07
5.44738e-07
1.29996e-06
5.53572e-07
1.72384e-06
5.45749e-07
2.16096e-06
5.67354e-07
2.57861e-06
5.36021e-07
3.06773e-06
6.37163e-07
3.4798e-06
5.32458e-07
4.04968e-06
7.54212e-07
6.925e-07
-5.1561e-06
-4.67403e-06
-3.74779e-06
-3.43581e-06
-2.62546e-06
-2.25365e-06
-1.55464e-06
-1.11626e-06
-4.92533e-07
1.35488e-08
5.7394e-07
1.10677e-06
1.65922e-06
2.19526e-06
2.75965e-06
3.28888e-06
3.92234e-06
4.45482e-06
5.19198e-06
)
;

boundaryField
{
    fuel
    {
        type            calculated;
        value           nonuniform 0();
    }
    wall
    {
        type            calculated;
        value           uniform 0;
    }
    outlet
    {
        type            calculated;
        value           nonuniform List<scalar> 
25
(
2.48676e-06
2.56044e-06
2.64006e-06
2.72754e-06
2.82553e-06
2.93773e-06
3.0726e-06
3.23438e-06
3.44025e-06
3.71778e-06
4.1236e-06
4.79431e-06
6.17043e-06
2.39792e-06
2.47697e-06
2.56321e-06
2.6594e-06
2.76951e-06
2.89938e-06
3.05814e-06
3.26089e-06
3.53471e-06
3.93368e-06
4.5841e-06
5.88185e-06
)
;
    }
    frontAndBack
    {
        type            empty;
        value           nonuniform 0();
    }
    procBoundary1to0
    {
        type            processor;
        value           nonuniform List<scalar> 
21
(
-7.56327e-06
-3.99468e-06
-6.01052e-06
-2.98309e-06
-5.15647e-06
-3.28967e-06
-4.5611e-06
-3.60772e-06
-4.22964e-06
-3.82699e-06
1.5467e-08
-3.7916e-06
-3.74824e-06
-3.72792e-06
-3.78603e-06
-3.78845e-06
-3.71115e-06
-4.25962e-06
-3.6543e-06
-5.20587e-06
-4.58143e-06
)
;
    }
}


// ************************************************************************* //
