/*--------------------------------*- C++ -*----------------------------------*\
| =========                 |                                                 |
| \\      /  F ield         | OpenFOAM: The Open Source CFD Toolbox           |
|  \\    /   O peration     | Version:  dev                                   |
|   \\  /    A nd           | Web:      www.OpenFOAM.org                      |
|    \\/     M anipulation  |                                                 |
\*---------------------------------------------------------------------------*/
FoamFile
{
    version     2.0;
    format      ascii;
    class       volScalarField;
    location    "0.025";
    object      n-C6H7;
}
// * * * * * * * * * * * * * * * * * * * * * * * * * * * * * * * * * * * * * //

dimensions      [0 0 0 0 0 0 0];

internalField   nonuniform List<scalar> 
12
(
9.85485e-16
9.49519e-16
9.03471e-16
8.4771e-16
7.84647e-16
7.18337e-16
6.52413e-16
5.90431e-16
5.34397e-16
4.84925e-16
4.41957e-16
4.05202e-16
)
;

boundaryField
{
    wall
    {
        type            zeroGradient;
    }
    fuel
    {
        type            fixedValue;
        value           nonuniform 0();
    }
    outlet
    {
        type            inletOutlet;
        inletValue      nonuniform 0();
        value           nonuniform 0();
    }
    procBoundary4to3
    {
        type            processor;
        value           uniform 1.01283e-15;
    }
    procBoundary4to5
    {
        type            processor;
        value           uniform 3.73989e-16;
    }
}


// ************************************************************************* //
