/*--------------------------------*- C++ -*----------------------------------*\
| =========                 |                                                 |
| \\      /  F ield         | OpenFOAM: The Open Source CFD Toolbox           |
|  \\    /   O peration     | Version:  dev                                   |
|   \\  /    A nd           | Web:      www.OpenFOAM.org                      |
|    \\/     M anipulation  |                                                 |
\*---------------------------------------------------------------------------*/
FoamFile
{
    version     2.0;
    format      ascii;
    class       volScalarField;
    location    "0.024";
    object      moment.2.populationBalance;
}
// * * * * * * * * * * * * * * * * * * * * * * * * * * * * * * * * * * * * * //

dimensions      [0 3 0 0 0 0 0];

internalField   nonuniform List<scalar> 
251
(
2.67112e+11
2.60176e+11
2.53407e+11
2.46803e+11
2.40359e+11
2.34072e+11
2.27939e+11
2.21956e+11
2.16121e+11
2.10429e+11
2.04878e+11
1.99465e+11
1.94186e+11
1.89039e+11
1.8402e+11
1.79127e+11
1.74357e+11
1.69707e+11
1.65175e+11
1.60757e+11
1.56451e+11
1.52255e+11
1.48166e+11
1.44181e+11
1.40299e+11
1.36516e+11
1.3283e+11
1.2924e+11
1.25743e+11
1.22336e+11
1.19018e+11
1.15787e+11
1.12639e+11
1.09574e+11
1.0659e+11
1.03684e+11
1.00854e+11
9.80994e+10
9.54174e+10
9.28065e+10
9.0265e+10
8.77911e+10
8.53831e+10
8.30394e+10
8.07585e+10
7.85387e+10
7.63786e+10
7.42766e+10
7.22312e+10
7.02411e+10
6.83048e+10
6.64209e+10
6.45882e+10
6.28053e+10
6.1071e+10
5.9384e+10
5.7743e+10
5.6147e+10
5.45947e+10
5.3085e+10
5.16168e+10
5.0189e+10
4.88006e+10
4.74505e+10
4.61378e+10
4.48614e+10
4.36204e+10
4.24138e+10
4.12408e+10
4.01004e+10
3.89919e+10
3.79142e+10
3.68667e+10
3.58485e+10
3.48588e+10
3.38968e+10
3.29619e+10
3.20532e+10
3.117e+10
3.03116e+10
2.94773e+10
2.86665e+10
2.78784e+10
2.71124e+10
2.63677e+10
2.56436e+10
2.49394e+10
2.42543e+10
2.35875e+10
2.29381e+10
2.23052e+10
2.16877e+10
2.10846e+10
2.04946e+10
1.99163e+10
1.93484e+10
1.87893e+10
1.82374e+10
1.76908e+10
1.71478e+10
1.66066e+10
1.60654e+10
1.55225e+10
1.49761e+10
1.4425e+10
1.38678e+10
1.33038e+10
1.27324e+10
1.21535e+10
1.15674e+10
1.09751e+10
1.03777e+10
9.77697e+09
9.17518e+09
8.57483e+09
7.97878e+09
7.39013e+09
6.81208e+09
6.24789e+09
5.70074e+09
5.17365e+09
4.66939e+09
4.19039e+09
3.73868e+09
3.31587e+09
2.92307e+09
2.56093e+09
2.22963e+09
1.92887e+09
1.65796e+09
1.41585e+09
1.20117e+09
1.01231e+09
8.47461e+08
7.04703e+08
5.82045e+08
4.77483e+08
3.89043e+08
3.14822e+08
2.5302e+08
2.01957e+08
1.60094e+08
1.26037e+08
9.85427e+07
7.65167e+07
5.90054e+07
4.51891e+07
3.43703e+07
2.59624e+07
1.94769e+07
1.45115e+07
1.07382e+07
7.89185e+06
5.76052e+06
4.17625e+06
3.00718e+06
2.15075e+06
1.52786e+06
1.07807e+06
755602
526049
363795
249916
170547
115617
77862.9
52093.4
34624.9
22864.2
15000.1
9777.26
6331.85
4074.23
2604.79
1654.7
1044.48
655.121
408.314
252.889
155.645
95.1969
57.8631
34.9528
20.9833
12.5195
7.42388
4.37538
2.56301
1.49227
0.863598
0.496772
0.284047
0.161445
0.0912147
0.0512299
0.0286028
0.0158756
0.00875986
0.00480528
0.00262062
0.0014209
0.000765953
0.000410519
0.000218758
0.000115905
6.10603e-05
3.19846e-05
1.66594e-05
8.62817e-06
4.44355e-06
2.27563e-06
1.15889e-06
5.86895e-07
2.95572e-07
1.48033e-07
7.37321e-08
3.65227e-08
1.79923e-08
8.8153e-09
4.29556e-09
2.08181e-09
1.00348e-09
4.81091e-10
2.294e-10
1.08792e-10
5.13097e-11
2.40609e-11
1.12128e-11
5.18687e-12
2.37519e-12
1.06978e-12
4.66149e-13
1.8796e-13
5.84608e-14
0
0
0
0
0
0
0
0
0
0
0
0
0
0
0
0
0
)
;

boundaryField
{
    wall
    {
        type            zeroGradient;
    }
    fuel
    {
        type            fixedValue;
        value           uniform 2.7422e+11;
    }
    outlet
    {
        type            inletOutlet;
        inletValue      nonuniform 0();
        value           nonuniform 0();
    }
    procBoundary0to1
    {
        type            processor;
        value           uniform 0;
    }
}


// ************************************************************************* //
