/*--------------------------------*- C++ -*----------------------------------*\
| =========                 |                                                 |
| \\      /  F ield         | OpenFOAM: The Open Source CFD Toolbox           |
|  \\    /   O peration     | Version:  dev                                   |
|   \\  /    A nd           | Web:      www.OpenFOAM.org                      |
|    \\/     M anipulation  |                                                 |
\*---------------------------------------------------------------------------*/
FoamFile
{
    version     2.0;
    format      ascii;
    class       volScalarField;
    location    "0.095";
    object      A2-2;
}
// * * * * * * * * * * * * * * * * * * * * * * * * * * * * * * * * * * * * * //

dimensions      [0 0 0 0 0 0 0];

internalField   nonuniform List<scalar> 
25
(
2.07701e-15
1.96154e-15
1.83146e-15
1.68553e-15
1.53501e-15
1.37828e-15
1.21961e-15
1.06117e-15
9.05385e-16
7.53603e-16
6.16601e-16
4.91003e-16
3.79182e-16
2.82597e-16
2.01984e-16
1.37402e-16
8.80746e-17
5.25425e-17
2.87427e-17
1.41895e-17
6.24634e-18
2.46451e-18
9.09817e-19
3.3941e-19
1.20839e-19
)
;

boundaryField
{
    wall
    {
        type            zeroGradient;
    }
    fuel
    {
        type            fixedValue;
        value           nonuniform 0();
    }
    outlet
    {
        type            inletOutlet;
        inletValue      uniform 0;
        value           uniform 1.20839e-19;
    }
    procBoundary3to2
    {
        type            processor;
        value           uniform 2.17594e-15;
    }
}


// ************************************************************************* //
