/*--------------------------------*- C++ -*----------------------------------*\
| =========                 |                                                 |
| \\      /  F ield         | OpenFOAM: The Open Source CFD Toolbox           |
|  \\    /   O peration     | Version:  dev                                   |
|   \\  /    A nd           | Web:      www.OpenFOAM.org                      |
|    \\/     M anipulation  |                                                 |
\*---------------------------------------------------------------------------*/
FoamFile
{
    version     2.0;
    format      ascii;
    class       volScalarField;
    location    "0.095";
    object      AC3H4;
}
// * * * * * * * * * * * * * * * * * * * * * * * * * * * * * * * * * * * * * //

dimensions      [0 0 0 0 0 0 0];

internalField   nonuniform List<scalar> 
25
(
1.0371e-08
1.00152e-08
9.64077e-09
9.25048e-09
8.83677e-09
8.43223e-09
8.01949e-09
7.60218e-09
7.17363e-09
6.75278e-09
6.33004e-09
5.9065e-09
5.48276e-09
5.0583e-09
4.63192e-09
4.19741e-09
3.76036e-09
3.32416e-09
2.88018e-09
2.46939e-09
2.03216e-09
1.59991e-09
1.13007e-09
6.81642e-10
3.1823e-10
)
;

boundaryField
{
    wall
    {
        type            zeroGradient;
    }
    fuel
    {
        type            fixedValue;
        value           nonuniform 0();
    }
    outlet
    {
        type            inletOutlet;
        inletValue      uniform 0;
        value           uniform 3.1823e-10;
    }
    procBoundary3to2
    {
        type            processor;
        value           uniform 1.07045e-08;
    }
}


// ************************************************************************* //
