/*--------------------------------*- C++ -*----------------------------------*\
| =========                 |                                                 |
| \\      /  F ield         | OpenFOAM: The Open Source CFD Toolbox           |
|  \\    /   O peration     | Version:  dev                                   |
|   \\  /    A nd           | Web:      www.OpenFOAM.org                      |
|    \\/     M anipulation  |                                                 |
\*---------------------------------------------------------------------------*/
FoamFile
{
    version     2.0;
    format      ascii;
    class       volScalarField;
    location    "0.095";
    object      C2O;
}
// * * * * * * * * * * * * * * * * * * * * * * * * * * * * * * * * * * * * * //

dimensions      [0 0 0 0 0 0 0];

internalField   nonuniform List<scalar> 
25
(
1.0086e-11
8.55152e-12
7.10787e-12
5.74626e-12
4.56443e-12
3.52627e-12
2.64821e-12
1.9236e-12
1.34135e-12
8.89842e-13
5.73362e-13
3.53047e-13
2.08986e-13
1.21419e-13
7.29429e-14
4.93963e-14
3.99413e-14
3.67268e-14
3.45573e-14
3.0732e-14
2.47951e-14
1.78326e-14
1.13501e-14
6.30347e-15
2.68956e-15
)
;

boundaryField
{
    wall
    {
        type            zeroGradient;
    }
    fuel
    {
        type            fixedValue;
        value           nonuniform 0();
    }
    outlet
    {
        type            inletOutlet;
        inletValue      uniform 0;
        value           uniform 2.68956e-15;
    }
    procBoundary3to2
    {
        type            processor;
        value           uniform 1.1755e-11;
    }
}


// ************************************************************************* //
