/*--------------------------------*- C++ -*----------------------------------*\
| =========                 |                                                 |
| \\      /  F ield         | OpenFOAM: The Open Source CFD Toolbox           |
|  \\    /   O peration     | Version:  dev                                   |
|   \\  /    A nd           | Web:      www.OpenFOAM.org                      |
|    \\/     M anipulation  |                                                 |
\*---------------------------------------------------------------------------*/
FoamFile
{
    version     2.0;
    format      ascii;
    class       volScalarField;
    location    "0.095";
    object      HO2;
}
// * * * * * * * * * * * * * * * * * * * * * * * * * * * * * * * * * * * * * //

dimensions      [0 0 0 0 0 0 0];

internalField   nonuniform List<scalar> 
25
(
5.84172e-10
6.58273e-10
7.37724e-10
8.21225e-10
9.09219e-10
9.93214e-10
1.07507e-09
1.15201e-09
1.22284e-09
1.2821e-09
1.32907e-09
1.36135e-09
1.37675e-09
1.3732e-09
1.34908e-09
1.30255e-09
1.23421e-09
1.1456e-09
1.03506e-09
9.15942e-10
7.73474e-10
6.20236e-10
4.4405e-10
2.69935e-10
1.26431e-10
)
;

boundaryField
{
    wall
    {
        type            zeroGradient;
    }
    fuel
    {
        type            fixedValue;
        value           nonuniform 0();
    }
    outlet
    {
        type            inletOutlet;
        inletValue      uniform 0;
        value           uniform 1.26431e-10;
    }
    procBoundary3to2
    {
        type            processor;
        value           uniform 5.16493e-10;
    }
}


// ************************************************************************* //
