/*--------------------------------*- C++ -*----------------------------------*\
| =========                 |                                                 |
| \\      /  F ield         | OpenFOAM: The Open Source CFD Toolbox           |
|  \\    /   O peration     | Version:  dev                                   |
|   \\  /    A nd           | Web:      www.OpenFOAM.org                      |
|    \\/     M anipulation  |                                                 |
\*---------------------------------------------------------------------------*/
FoamFile
{
    version     2.0;
    format      ascii;
    class       volScalarField;
    location    "0.095";
    object      n-C6H7;
}
// * * * * * * * * * * * * * * * * * * * * * * * * * * * * * * * * * * * * * //

dimensions      [0 0 0 0 0 0 0];

internalField   nonuniform List<scalar> 
25
(
2.30487e-17
2.68052e-17
3.11072e-17
3.60792e-17
4.2033e-17
4.87472e-17
5.66599e-17
6.59447e-17
7.70372e-17
8.97099e-17
1.04314e-16
1.2086e-16
1.39217e-16
1.59015e-16
1.79417e-16
1.99124e-16
2.15376e-16
2.25972e-16
2.27231e-16
2.16547e-16
1.89822e-16
1.48378e-16
9.33525e-17
4.23616e-17
1.15446e-17
)
;

boundaryField
{
    wall
    {
        type            zeroGradient;
    }
    fuel
    {
        type            fixedValue;
        value           nonuniform 0();
    }
    outlet
    {
        type            inletOutlet;
        inletValue      uniform 0;
        value           uniform 1.15446e-17;
    }
    procBoundary3to2
    {
        type            processor;
        value           uniform 1.97776e-17;
    }
}


// ************************************************************************* //
