/*--------------------------------*- C++ -*----------------------------------*\
| =========                 |                                                 |
| \\      /  F ield         | OpenFOAM: The Open Source CFD Toolbox           |
|  \\    /   O peration     | Version:  dev                                   |
|   \\  /    A nd           | Web:      www.OpenFOAM.org                      |
|    \\/     M anipulation  |                                                 |
\*---------------------------------------------------------------------------*/
FoamFile
{
    version     2.0;
    format      ascii;
    class       volScalarField;
    location    "0.095";
    object      O;
}
// * * * * * * * * * * * * * * * * * * * * * * * * * * * * * * * * * * * * * //

dimensions      [0 0 0 0 0 0 0];

internalField   nonuniform List<scalar> 
25
(
1.20275e-11
1.29222e-11
1.39104e-11
1.49876e-11
1.61805e-11
1.74002e-11
1.869e-11
2.00294e-11
2.14271e-11
2.27963e-11
2.41271e-11
2.53612e-11
2.64411e-11
2.72954e-11
2.78183e-11
2.79138e-11
2.74918e-11
2.6494e-11
2.48092e-11
2.26132e-11
1.96011e-11
1.60284e-11
1.164e-11
7.12547e-12
3.3415e-12
)
;

boundaryField
{
    wall
    {
        type            zeroGradient;
    }
    fuel
    {
        type            fixedValue;
        value           nonuniform 0();
    }
    outlet
    {
        type            inletOutlet;
        inletValue      uniform 0;
        value           uniform 3.3415e-12;
    }
    procBoundary3to2
    {
        type            processor;
        value           uniform 1.12471e-11;
    }
}


// ************************************************************************* //
