/*--------------------------------*- C++ -*----------------------------------*\
| =========                 |                                                 |
| \\      /  F ield         | OpenFOAM: The Open Source CFD Toolbox           |
|  \\    /   O peration     | Version:  dev                                   |
|   \\  /    A nd           | Web:      www.OpenFOAM.org                      |
|    \\/     M anipulation  |                                                 |
\*---------------------------------------------------------------------------*/
FoamFile
{
    version     2.0;
    format      ascii;
    class       volScalarField;
    location    "0.095";
    object      OH;
}
// * * * * * * * * * * * * * * * * * * * * * * * * * * * * * * * * * * * * * //

dimensions      [0 0 0 0 0 0 0];

internalField   nonuniform List<scalar> 
25
(
6.03944e-11
3.89177e-11
2.5218e-11
1.65488e-11
1.10044e-11
7.70754e-12
5.6406e-12
4.33298e-12
3.47083e-12
2.90266e-12
2.49772e-12
2.19111e-12
1.94447e-12
1.73546e-12
1.55135e-12
1.38293e-12
1.22822e-12
1.08526e-12
9.49757e-13
8.30911e-13
7.07036e-13
5.80824e-13
4.3175e-13
2.7196e-13
1.29361e-13
)
;

boundaryField
{
    wall
    {
        type            zeroGradient;
    }
    fuel
    {
        type            fixedValue;
        value           nonuniform 0();
    }
    outlet
    {
        type            inletOutlet;
        inletValue      uniform 0;
        value           uniform 1.29361e-13;
    }
    procBoundary3to2
    {
        type            processor;
        value           uniform 9.3389e-11;
    }
}


// ************************************************************************* //
