/*--------------------------------*- C++ -*----------------------------------*\
| =========                 |                                                 |
| \\      /  F ield         | OpenFOAM: The Open Source CFD Toolbox           |
|  \\    /   O peration     | Version:  dev                                   |
|   \\  /    A nd           | Web:      www.OpenFOAM.org                      |
|    \\/     M anipulation  |                                                 |
\*---------------------------------------------------------------------------*/
FoamFile
{
    version     2.0;
    format      ascii;
    class       volScalarField;
    location    "0.095";
    object      P2-H;
}
// * * * * * * * * * * * * * * * * * * * * * * * * * * * * * * * * * * * * * //

dimensions      [0 0 0 0 0 0 0];

internalField   nonuniform List<scalar> 
25
(
8.50884e-22
8.99229e-22
9.54505e-22
1.01896e-21
1.09757e-21
1.19078e-21
1.30641e-21
1.45109e-21
1.63871e-21
1.87827e-21
2.19339e-21
2.61386e-21
3.18967e-21
3.99854e-21
5.168e-21
6.92968e-21
9.52685e-21
1.31216e-20
1.72077e-20
1.99916e-20
2.05087e-20
1.83521e-20
1.39093e-20
8.61299e-21
4.04025e-21
)
;

boundaryField
{
    wall
    {
        type            zeroGradient;
    }
    fuel
    {
        type            fixedValue;
        value           nonuniform 0();
    }
    outlet
    {
        type            inletOutlet;
        inletValue      uniform 0;
        value           uniform 4.04025e-21;
    }
    procBoundary3to2
    {
        type            processor;
        value           uniform 8.08424e-22;
    }
}


// ************************************************************************* //
