/*--------------------------------*- C++ -*----------------------------------*\
| =========                 |                                                 |
| \\      /  F ield         | OpenFOAM: The Open Source CFD Toolbox           |
|  \\    /   O peration     | Version:  dev                                   |
|   \\  /    A nd           | Web:      www.OpenFOAM.org                      |
|    \\/     M anipulation  |                                                 |
\*---------------------------------------------------------------------------*/
FoamFile
{
    version     2.0;
    format      ascii;
    class       surfaceScalarField;
    location    "0.095";
    object      phi;
}
// * * * * * * * * * * * * * * * * * * * * * * * * * * * * * * * * * * * * * //

dimensions      [1 0 -1 0 0 0 0];

internalField   nonuniform List<scalar> 
24
(
0.000152368
0.000156208
0.00016053
0.000164747
0.000169289
0.000174327
0.000179565
0.000185093
0.000192044
0.000198605
0.000205803
0.000213764
0.00022254
0.00023226
0.000243107
0.000255321
0.000269209
0.000285182
0.000303806
0.000325892
0.000352626
0.000385718
0.000427628
0.000483698
)
;

boundaryField
{
    wall
    {
        type            calculated;
        value           nonuniform List<scalar> 
100
(
2.49716e-19
2.50686e-19
2.51542e-19
2.5243e-19
2.5307e-19
2.53598e-19
2.53946e-19
2.54045e-19
2.54145e-19
2.53868e-19
2.53361e-19
2.52105e-19
2.50491e-19
2.48331e-19
2.452e-19
2.41102e-19
2.35875e-19
2.29373e-19
2.20838e-19
2.09439e-19
1.94173e-19
1.73122e-19
1.43602e-19
1.02336e-19
5.70439e-20
-2.49716e-19
-2.50686e-19
-2.51542e-19
-2.5243e-19
-2.5307e-19
-2.53598e-19
-2.53946e-19
-2.54045e-19
-2.54145e-19
-2.53868e-19
-2.53361e-19
-2.52105e-19
-2.50491e-19
-2.48331e-19
-2.452e-19
-2.41102e-19
-2.35875e-19
-2.29373e-19
-2.20838e-19
-2.09439e-19
-1.94173e-19
-1.73122e-19
-1.43602e-19
-1.02336e-19
-5.70439e-20
2.49716e-19
2.50686e-19
2.51542e-19
2.5243e-19
2.5307e-19
2.53598e-19
2.53946e-19
2.54045e-19
2.54145e-19
2.53868e-19
2.53361e-19
2.52105e-19
2.50491e-19
2.48331e-19
2.452e-19
2.41102e-19
2.35875e-19
2.29373e-19
2.20838e-19
2.09439e-19
1.94173e-19
1.73122e-19
1.43602e-19
1.02336e-19
5.70439e-20
-2.49716e-19
-2.50686e-19
-2.51542e-19
-2.5243e-19
-2.5307e-19
-2.53598e-19
-2.53946e-19
-2.54045e-19
-2.54145e-19
-2.53868e-19
-2.53361e-19
-2.52105e-19
-2.50491e-19
-2.48331e-19
-2.452e-19
-2.41102e-19
-2.35875e-19
-2.29373e-19
-2.20838e-19
-2.09439e-19
-1.94173e-19
-1.73122e-19
-1.43602e-19
-1.02336e-19
-5.70439e-20
)
;
    }
    fuel
    {
        type            calculated;
        value           nonuniform 0();
    }
    outlet
    {
        type            calculated;
        value           uniform 0.000660978;
    }
    procBoundary3to2
    {
        type            processor;
        value           uniform -0.000148787;
    }
}


// ************************************************************************* //
