/*--------------------------------*- C++ -*----------------------------------*\
| =========                 |                                                 |
| \\      /  F ield         | OpenFOAM: The Open Source CFD Toolbox           |
|  \\    /   O peration     | Version:  dev                                   |
|   \\  /    A nd           | Web:      www.OpenFOAM.org                      |
|    \\/     M anipulation  |                                                 |
\*---------------------------------------------------------------------------*/
FoamFile
{
    version     2.0;
    format      ascii;
    class       volScalarField;
    location    "0.095";
    object      AR;
}
// * * * * * * * * * * * * * * * * * * * * * * * * * * * * * * * * * * * * * //

dimensions      [0 0 0 0 0 0 0];

internalField   nonuniform List<scalar> 
250
(
0.692574
0.692572
0.69257
0.69257
0.692569
0.692569
0.692569
0.692568
0.692568
0.692568
0.69257
0.692568
0.692566
0.692565
0.692564
0.692564
0.692564
0.692563
0.692564
0.692563
0.692563
0.692564
0.692563
0.692564
0.692563
0.692565
0.692564
0.692568
0.692566
0.692573
0.692565
0.692563
0.692561
0.69256
0.692559
0.692559
0.692559
0.692558
0.692558
0.692558
0.692558
0.692559
0.692558
0.692559
0.692558
0.69256
0.692558
0.692563
0.692561
0.692569
0.69256
0.692557
0.692555
0.692554
0.692553
0.692553
0.692553
0.692552
0.692553
0.692552
0.692552
0.692553
0.692552
0.692553
0.692552
0.692554
0.692553
0.692558
0.692555
0.692563
0.692554
0.692551
0.692549
0.692548
0.692547
0.692547
0.692547
0.692546
0.692546
0.692546
0.692546
0.692546
0.692546
0.692547
0.692546
0.692548
0.692546
0.692551
0.692549
0.692557
0.692547
0.692545
0.692542
0.692542
0.69254
0.69254
0.69254
0.692539
0.69254
0.692539
0.692539
0.69254
0.692539
0.69254
0.692539
0.692541
0.69254
0.692545
0.692542
0.69255
0.69254
0.692538
0.692535
0.692535
0.692533
0.692533
0.692533
0.692532
0.692533
0.692532
0.692532
0.692533
0.692532
0.692533
0.692532
0.692534
0.692533
0.692538
0.692536
0.692543
0.692533
0.69253
0.692528
0.692527
0.692526
0.692526
0.692526
0.692525
0.692525
0.692525
0.692525
0.692525
0.692525
0.692526
0.692525
0.692527
0.692526
0.69253
0.692528
0.692535
0.692525
0.692523
0.692521
0.69252
0.692519
0.692518
0.692518
0.692518
0.692518
0.692517
0.692517
0.692518
0.692517
0.692518
0.692518
0.692519
0.692518
0.692522
0.692521
0.692527
0.692518
0.692515
0.692513
0.692513
0.692511
0.692511
0.692511
0.69251
0.692511
0.69251
0.69251
0.692511
0.69251
0.692511
0.69251
0.692512
0.692511
0.692515
0.692514
0.692519
0.692511
0.692508
0.692506
0.692506
0.692505
0.692504
0.692504
0.692504
0.692504
0.692503
0.692503
0.692504
0.692503
0.692504
0.692504
0.692505
0.692504
0.692507
0.692507
0.692512
0.692504
0.692502
0.6925
0.6925
0.692499
0.692498
0.692498
0.692498
0.692498
0.692497
0.692497
0.692498
0.692497
0.692498
0.692498
0.692499
0.692498
0.692501
0.692501
0.692505
0.6925
0.692498
0.692496
0.692495
0.692494
0.692494
0.692494
0.692493
0.692494
0.692493
0.692493
0.692494
0.692493
0.692494
0.692494
0.692494
0.692495
0.692496
0.692497
0.6925
)
;

boundaryField
{
    fuel
    {
        type            fixedValue;
        value           nonuniform 0();
    }
    wall
    {
        type            zeroGradient;
    }
    outlet
    {
        type            zeroGradient;
    }
    frontAndBack
    {
        type            empty;
    }
    procBoundary1to0
    {
        type            processor;
        value           nonuniform List<scalar> 
21
(
0.692578
0.692576
0.692575
0.692574
0.692573
0.692573
0.692573
0.692572
0.692573
0.692572
0.692568
0.692568
0.692568
0.692568
0.692569
0.692568
0.69257
0.692568
0.692573
0.692571
0.692578
)
;
    }
}


// ************************************************************************* //
