/*--------------------------------*- C++ -*----------------------------------*\
| =========                 |                                                 |
| \\      /  F ield         | OpenFOAM: The Open Source CFD Toolbox           |
|  \\    /   O peration     | Version:  dev                                   |
|   \\  /    A nd           | Web:      www.OpenFOAM.org                      |
|    \\/     M anipulation  |                                                 |
\*---------------------------------------------------------------------------*/
FoamFile
{
    version     2.0;
    format      ascii;
    class       volScalarField;
    location    "0.095";
    object      c-C6H4;
}
// * * * * * * * * * * * * * * * * * * * * * * * * * * * * * * * * * * * * * //

dimensions      [0 0 0 0 0 0 0];

internalField   nonuniform List<scalar> 
2000
(
4.16445e-07
4.17119e-07
4.17925e-07
4.18258e-07
4.18316e-07
4.18375e-07
4.18352e-07
4.18377e-07
4.18354e-07
4.18371e-07
4.18355e-07
4.18367e-07
4.18357e-07
4.18364e-07
4.18358e-07
4.18363e-07
4.18358e-07
4.18362e-07
4.18359e-07
4.18361e-07
4.18359e-07
4.18361e-07
4.1836e-07
4.1836e-07
4.1836e-07
4.1836e-07
4.1836e-07
4.1836e-07
4.18361e-07
4.18359e-07
4.18361e-07
4.18359e-07
4.18362e-07
4.18358e-07
4.18363e-07
4.18358e-07
4.18364e-07
4.18357e-07
4.18367e-07
4.18355e-07
4.18371e-07
4.18354e-07
4.18377e-07
4.18352e-07
4.18375e-07
4.18316e-07
4.18257e-07
4.17925e-07
4.17119e-07
4.16445e-07
8.16769e-07
8.17853e-07
8.19265e-07
8.1984e-07
8.19936e-07
8.20039e-07
8.19995e-07
8.2004e-07
8.19999e-07
8.20028e-07
8.20001e-07
8.20022e-07
8.20003e-07
8.20017e-07
8.20005e-07
8.20014e-07
8.20005e-07
8.20012e-07
8.20007e-07
8.20011e-07
8.20008e-07
8.2001e-07
8.20008e-07
8.2001e-07
8.20009e-07
8.20009e-07
8.2001e-07
8.20008e-07
8.2001e-07
8.20008e-07
8.20011e-07
8.20007e-07
8.20012e-07
8.20005e-07
8.20014e-07
8.20005e-07
8.20017e-07
8.20003e-07
8.20022e-07
8.20001e-07
8.20028e-07
8.19998e-07
8.2004e-07
8.19995e-07
8.20039e-07
8.19936e-07
8.1984e-07
8.19265e-07
8.17853e-07
8.16769e-07
1.46804e-06
1.47054e-06
1.47364e-06
1.47493e-06
1.47511e-06
1.47536e-06
1.47524e-06
1.47536e-06
1.47526e-06
1.47533e-06
1.47526e-06
1.47532e-06
1.47527e-06
1.4753e-06
1.47527e-06
1.4753e-06
1.47528e-06
1.47529e-06
1.47528e-06
1.47529e-06
1.47528e-06
1.47529e-06
1.47528e-06
1.47529e-06
1.47529e-06
1.47529e-06
1.47529e-06
1.47528e-06
1.47529e-06
1.47528e-06
1.47529e-06
1.47528e-06
1.47529e-06
1.47528e-06
1.4753e-06
1.47527e-06
1.47531e-06
1.47527e-06
1.47532e-06
1.47526e-06
1.47533e-06
1.47526e-06
1.47536e-06
1.47524e-06
1.47536e-06
1.47511e-06
1.47493e-06
1.47364e-06
1.47054e-06
1.46804e-06
2.63511e-06
2.64014e-06
2.64619e-06
2.64873e-06
2.64901e-06
2.64954e-06
2.64927e-06
2.64953e-06
2.6493e-06
2.64947e-06
2.64931e-06
2.64943e-06
2.64933e-06
2.64941e-06
2.64934e-06
2.6494e-06
2.64935e-06
2.64939e-06
2.64936e-06
2.64938e-06
2.64936e-06
2.64937e-06
2.64936e-06
2.64937e-06
2.64937e-06
2.64937e-06
2.64937e-06
2.64936e-06
2.64937e-06
2.64936e-06
2.64938e-06
2.64936e-06
2.64939e-06
2.64935e-06
2.6494e-06
2.64934e-06
2.64941e-06
2.64933e-06
2.64943e-06
2.64931e-06
2.64947e-06
2.6493e-06
2.64953e-06
2.64927e-06
2.64953e-06
2.64901e-06
2.64873e-06
2.64619e-06
2.64014e-06
2.63511e-06
4.16818e-06
4.17577e-06
4.18492e-06
4.18869e-06
4.189e-06
4.18982e-06
4.18937e-06
4.18979e-06
4.18941e-06
4.18969e-06
4.18944e-06
4.18964e-06
4.18947e-06
4.1896e-06
4.18949e-06
4.18958e-06
4.18949e-06
4.18956e-06
4.18951e-06
4.18955e-06
4.18952e-06
4.18954e-06
4.18952e-06
4.18954e-06
4.18953e-06
4.18953e-06
4.18954e-06
4.18952e-06
4.18954e-06
4.18952e-06
4.18955e-06
4.18951e-06
4.18956e-06
4.1895e-06
4.18958e-06
4.18949e-06
4.1896e-06
4.18947e-06
4.18964e-06
4.18944e-06
4.18969e-06
4.18941e-06
4.18979e-06
4.18937e-06
4.18982e-06
4.189e-06
4.18869e-06
4.18492e-06
4.17577e-06
4.16818e-06
5.73029e-06
5.73976e-06
5.75151e-06
5.75621e-06
5.75651e-06
5.75755e-06
5.75693e-06
5.75748e-06
5.75697e-06
5.75735e-06
5.75701e-06
5.75728e-06
5.75705e-06
5.75722e-06
5.75707e-06
5.75719e-06
5.75708e-06
5.75717e-06
5.75711e-06
5.75716e-06
5.75712e-06
5.75715e-06
5.75712e-06
5.75714e-06
5.75713e-06
5.75713e-06
5.75714e-06
5.75712e-06
5.75715e-06
5.75712e-06
5.75716e-06
5.75711e-06
5.75717e-06
5.75709e-06
5.75719e-06
5.75707e-06
5.75722e-06
5.75705e-06
5.75727e-06
5.75701e-06
5.75735e-06
5.75697e-06
5.75748e-06
5.75693e-06
5.75755e-06
5.75651e-06
5.75621e-06
5.75151e-06
5.73976e-06
5.73029e-06
7.10622e-06
7.11697e-06
7.13091e-06
7.13626e-06
7.13654e-06
7.13774e-06
7.13697e-06
7.13762e-06
7.137e-06
7.13745e-06
7.13704e-06
7.13736e-06
7.13709e-06
7.1373e-06
7.13712e-06
7.13726e-06
7.13713e-06
7.13724e-06
7.13716e-06
7.13722e-06
7.13717e-06
7.13721e-06
7.13718e-06
7.1372e-06
7.13719e-06
7.13719e-06
7.1372e-06
7.13718e-06
7.13721e-06
7.13717e-06
7.13722e-06
7.13716e-06
7.13724e-06
7.13713e-06
7.13726e-06
7.13712e-06
7.1373e-06
7.13709e-06
7.13736e-06
7.13705e-06
7.13745e-06
7.137e-06
7.13762e-06
7.13697e-06
7.13774e-06
7.13654e-06
7.13626e-06
7.13091e-06
7.11697e-06
7.10622e-06
8.20319e-06
8.21488e-06
8.2308e-06
8.23668e-06
8.23693e-06
8.23824e-06
8.23734e-06
8.23807e-06
8.23735e-06
8.23787e-06
8.2374e-06
8.23777e-06
8.23746e-06
8.23769e-06
8.23749e-06
8.23765e-06
8.23751e-06
8.23763e-06
8.23754e-06
8.23761e-06
8.23755e-06
8.23759e-06
8.23756e-06
8.23758e-06
8.23757e-06
8.23757e-06
8.23758e-06
8.23756e-06
8.23759e-06
8.23755e-06
8.23761e-06
8.23754e-06
8.23763e-06
8.23751e-06
8.23766e-06
8.23749e-06
8.23769e-06
8.23746e-06
8.23777e-06
8.23741e-06
8.23787e-06
8.23735e-06
8.23807e-06
8.23734e-06
8.23824e-06
8.23693e-06
8.23668e-06
8.2308e-06
8.21488e-06
8.20319e-06
8.99983e-06
9.01232e-06
9.0302e-06
9.03654e-06
9.03677e-06
9.0382e-06
9.03715e-06
9.03797e-06
9.03715e-06
9.03774e-06
9.03721e-06
9.03762e-06
9.03726e-06
9.03753e-06
9.0373e-06
9.03749e-06
9.03732e-06
9.03746e-06
9.03736e-06
9.03744e-06
9.03737e-06
9.03742e-06
9.03738e-06
9.03741e-06
9.0374e-06
9.0374e-06
9.03741e-06
9.03738e-06
9.03742e-06
9.03737e-06
9.03744e-06
9.03736e-06
9.03746e-06
9.03732e-06
9.03749e-06
9.0373e-06
9.03753e-06
9.03727e-06
9.03762e-06
9.03721e-06
9.03774e-06
9.03715e-06
9.03797e-06
9.03715e-06
9.03819e-06
9.03677e-06
9.03653e-06
9.0302e-06
9.01232e-06
8.99983e-06
9.51848e-06
9.53182e-06
9.55174e-06
9.55858e-06
9.55881e-06
9.56036e-06
9.55917e-06
9.56008e-06
9.55915e-06
9.55981e-06
9.55921e-06
9.55967e-06
9.55928e-06
9.55958e-06
9.55932e-06
9.55953e-06
9.55934e-06
9.5595e-06
9.55938e-06
9.55947e-06
9.5594e-06
9.55945e-06
9.55941e-06
9.55944e-06
9.55942e-06
9.55942e-06
9.55944e-06
9.55941e-06
9.55945e-06
9.5594e-06
9.55947e-06
9.55938e-06
9.5595e-06
9.55934e-06
9.55953e-06
9.55932e-06
9.55958e-06
9.55928e-06
9.55967e-06
9.55922e-06
9.55981e-06
9.55915e-06
9.56008e-06
9.55918e-06
9.56036e-06
9.55881e-06
9.55858e-06
9.55174e-06
9.53182e-06
9.51849e-06
9.78994e-06
9.80418e-06
9.82612e-06
9.8335e-06
9.83375e-06
9.83543e-06
9.8341e-06
9.8351e-06
9.83406e-06
9.83479e-06
9.83413e-06
9.83463e-06
9.83419e-06
9.83452e-06
9.83424e-06
9.83447e-06
9.83426e-06
9.83444e-06
9.83431e-06
9.83441e-06
9.83433e-06
9.83438e-06
9.83434e-06
9.83437e-06
9.83436e-06
9.83436e-06
9.83437e-06
9.83434e-06
9.83439e-06
9.83433e-06
9.83441e-06
9.83431e-06
9.83444e-06
9.83427e-06
9.83447e-06
9.83424e-06
9.83453e-06
9.8342e-06
9.83463e-06
9.83413e-06
9.83479e-06
9.83406e-06
9.83509e-06
9.8341e-06
9.83542e-06
9.83375e-06
9.8335e-06
9.82612e-06
9.80418e-06
9.78994e-06
9.85809e-06
9.87333e-06
9.8973e-06
9.90527e-06
9.90556e-06
9.90738e-06
9.90592e-06
9.907e-06
9.90586e-06
9.90665e-06
9.90592e-06
9.90648e-06
9.906e-06
9.90636e-06
9.90605e-06
9.9063e-06
9.90607e-06
9.90626e-06
9.90612e-06
9.90623e-06
9.90614e-06
9.90621e-06
9.90615e-06
9.90619e-06
9.90617e-06
9.90617e-06
9.90619e-06
9.90615e-06
9.90621e-06
9.90614e-06
9.90623e-06
9.90612e-06
9.90626e-06
9.90608e-06
9.9063e-06
9.90605e-06
9.90636e-06
9.906e-06
9.90648e-06
9.90593e-06
9.90666e-06
9.90586e-06
9.907e-06
9.90592e-06
9.90738e-06
9.90556e-06
9.90527e-06
9.8973e-06
9.87333e-06
9.85809e-06
9.76361e-06
9.7798e-06
9.80549e-06
9.81401e-06
9.81439e-06
9.81634e-06
9.81475e-06
9.81592e-06
9.81468e-06
9.81553e-06
9.81474e-06
9.81534e-06
9.81482e-06
9.81521e-06
9.81487e-06
9.81515e-06
9.8149e-06
9.81511e-06
9.81495e-06
9.81507e-06
9.81497e-06
9.81504e-06
9.81499e-06
9.81502e-06
9.81501e-06
9.81501e-06
9.81502e-06
9.81499e-06
9.81504e-06
9.81497e-06
9.81507e-06
9.81495e-06
9.8151e-06
9.8149e-06
9.81515e-06
9.81487e-06
9.81521e-06
9.81482e-06
9.81534e-06
9.81475e-06
9.81554e-06
9.81468e-06
9.81592e-06
9.81476e-06
9.81633e-06
9.81439e-06
9.81401e-06
9.80549e-06
9.7798e-06
9.76361e-06
9.54577e-06
9.56183e-06
9.5881e-06
9.5969e-06
9.59753e-06
9.5995e-06
9.59793e-06
9.59909e-06
9.59783e-06
9.59868e-06
9.59789e-06
9.59848e-06
9.59796e-06
9.59835e-06
9.59801e-06
9.59828e-06
9.59803e-06
9.59824e-06
9.59808e-06
9.5982e-06
9.5981e-06
9.59817e-06
9.59812e-06
9.59815e-06
9.59814e-06
9.59814e-06
9.59815e-06
9.59812e-06
9.59817e-06
9.5981e-06
9.5982e-06
9.59808e-06
9.59824e-06
9.59803e-06
9.59828e-06
9.59801e-06
9.59835e-06
9.59796e-06
9.59848e-06
9.59789e-06
9.59869e-06
9.59783e-06
9.59908e-06
9.59793e-06
9.5995e-06
9.59753e-06
9.59689e-06
9.5881e-06
9.56183e-06
9.54577e-06
9.22771e-06
9.24453e-06
9.27166e-06
9.28086e-06
9.28164e-06
9.28368e-06
9.28205e-06
9.28324e-06
9.28193e-06
9.28281e-06
9.28198e-06
9.2826e-06
9.28205e-06
9.28245e-06
9.2821e-06
9.28238e-06
9.28213e-06
9.28234e-06
9.28218e-06
9.2823e-06
9.2822e-06
9.28227e-06
9.28221e-06
9.28225e-06
9.28223e-06
9.28223e-06
9.28225e-06
9.28221e-06
9.28227e-06
9.2822e-06
9.2823e-06
9.28218e-06
9.28234e-06
9.28213e-06
9.28238e-06
9.2821e-06
9.28246e-06
9.28206e-06
9.2826e-06
9.28199e-06
9.28281e-06
9.28193e-06
9.28324e-06
9.28206e-06
9.28368e-06
9.28164e-06
9.28086e-06
9.27166e-06
9.24453e-06
9.22771e-06
8.86061e-06
8.87844e-06
8.90648e-06
8.91614e-06
8.91707e-06
8.9192e-06
8.91752e-06
8.91874e-06
8.91737e-06
8.91828e-06
8.91742e-06
8.91806e-06
8.91749e-06
8.9179e-06
8.91754e-06
8.91783e-06
8.91756e-06
8.91778e-06
8.91762e-06
8.91775e-06
8.91764e-06
8.91771e-06
8.91765e-06
8.91769e-06
8.91767e-06
8.91767e-06
8.91769e-06
8.91765e-06
8.91771e-06
8.91764e-06
8.91775e-06
8.91762e-06
8.91778e-06
8.91756e-06
8.91783e-06
8.91754e-06
8.91791e-06
8.91749e-06
8.91805e-06
8.91743e-06
8.91828e-06
8.91737e-06
8.91874e-06
8.91752e-06
8.9192e-06
8.91707e-06
8.91614e-06
8.90648e-06
8.87844e-06
8.86061e-06
8.43996e-06
8.45955e-06
8.48908e-06
8.49971e-06
8.50098e-06
8.5033e-06
8.50155e-06
8.50282e-06
8.50138e-06
8.50232e-06
8.50141e-06
8.50207e-06
8.50147e-06
8.5019e-06
8.50152e-06
8.50182e-06
8.50154e-06
8.50177e-06
8.50159e-06
8.50173e-06
8.50162e-06
8.5017e-06
8.50163e-06
8.50167e-06
8.50165e-06
8.50165e-06
8.50167e-06
8.50163e-06
8.5017e-06
8.50162e-06
8.50173e-06
8.50159e-06
8.50177e-06
8.50154e-06
8.50182e-06
8.50152e-06
8.5019e-06
8.50147e-06
8.50206e-06
8.50141e-06
8.50232e-06
8.50138e-06
8.50282e-06
8.50155e-06
8.50329e-06
8.50098e-06
8.49971e-06
8.48908e-06
8.45956e-06
8.43996e-06
8.012e-06
8.03277e-06
8.06274e-06
8.07377e-06
8.07521e-06
8.0776e-06
8.07581e-06
8.0771e-06
8.07563e-06
8.07658e-06
8.07565e-06
8.07632e-06
8.07571e-06
8.07615e-06
8.07575e-06
8.07606e-06
8.07578e-06
8.07601e-06
8.07583e-06
8.07597e-06
8.07586e-06
8.07594e-06
8.07587e-06
8.07591e-06
8.07589e-06
8.07589e-06
8.07591e-06
8.07587e-06
8.07594e-06
8.07586e-06
8.07597e-06
8.07583e-06
8.07601e-06
8.07578e-06
8.07606e-06
8.07575e-06
8.07615e-06
8.07571e-06
8.07632e-06
8.07566e-06
8.07658e-06
8.07563e-06
8.0771e-06
8.07581e-06
8.07759e-06
8.07521e-06
8.07377e-06
8.06274e-06
8.03277e-06
8.012e-06
7.55922e-06
7.58226e-06
7.61375e-06
7.62575e-06
7.62727e-06
7.62986e-06
7.62791e-06
7.62931e-06
7.62771e-06
7.62874e-06
7.62774e-06
7.62846e-06
7.62781e-06
7.62828e-06
7.62786e-06
7.62819e-06
7.62788e-06
7.62813e-06
7.62794e-06
7.62809e-06
7.62797e-06
7.62805e-06
7.62798e-06
7.62803e-06
7.62801e-06
7.62801e-06
7.62803e-06
7.62798e-06
7.62805e-06
7.62797e-06
7.62809e-06
7.62794e-06
7.62813e-06
7.62788e-06
7.62819e-06
7.62785e-06
7.62828e-06
7.62781e-06
7.62846e-06
7.62775e-06
7.62874e-06
7.62771e-06
7.62931e-06
7.62791e-06
7.62985e-06
7.62727e-06
7.62575e-06
7.61375e-06
7.58226e-06
7.55922e-06
7.1077e-06
7.13182e-06
7.16283e-06
7.17493e-06
7.17657e-06
7.17915e-06
7.17722e-06
7.17859e-06
7.177e-06
7.17802e-06
7.17703e-06
7.17774e-06
7.17709e-06
7.17755e-06
7.17713e-06
7.17746e-06
7.17716e-06
7.17741e-06
7.17722e-06
7.17736e-06
7.17724e-06
7.17733e-06
7.17725e-06
7.1773e-06
7.17728e-06
7.17728e-06
7.1773e-06
7.17725e-06
7.17733e-06
7.17724e-06
7.17736e-06
7.17721e-06
7.17741e-06
7.17716e-06
7.17746e-06
7.17713e-06
7.17755e-06
7.17709e-06
7.17773e-06
7.17703e-06
7.17802e-06
7.177e-06
7.17859e-06
7.17722e-06
7.17914e-06
7.17656e-06
7.17493e-06
7.16283e-06
7.13182e-06
7.10771e-06
6.68289e-06
6.70838e-06
6.73909e-06
6.75137e-06
6.75312e-06
6.75573e-06
6.7538e-06
6.75517e-06
6.75357e-06
6.75458e-06
6.75359e-06
6.75429e-06
6.75365e-06
6.75411e-06
6.75369e-06
6.75402e-06
6.75371e-06
6.75396e-06
6.75377e-06
6.75392e-06
6.75379e-06
6.75388e-06
6.75381e-06
6.75385e-06
6.75383e-06
6.75383e-06
6.75385e-06
6.75381e-06
6.75388e-06
6.7538e-06
6.75392e-06
6.75377e-06
6.75396e-06
6.75371e-06
6.75402e-06
6.75369e-06
6.75411e-06
6.75365e-06
6.75429e-06
6.75359e-06
6.75458e-06
6.75357e-06
6.75516e-06
6.75381e-06
6.75572e-06
6.75312e-06
6.75137e-06
6.73909e-06
6.70838e-06
6.68289e-06
6.27418e-06
6.30106e-06
6.3313e-06
6.34369e-06
6.34553e-06
6.34815e-06
6.34623e-06
6.34758e-06
6.34599e-06
6.34698e-06
6.346e-06
6.34669e-06
6.34605e-06
6.34651e-06
6.34609e-06
6.34642e-06
6.34611e-06
6.34636e-06
6.34617e-06
6.34632e-06
6.3462e-06
6.34628e-06
6.34621e-06
6.34625e-06
6.34623e-06
6.34623e-06
6.34625e-06
6.34621e-06
6.34628e-06
6.3462e-06
6.34632e-06
6.34617e-06
6.34636e-06
6.34611e-06
6.34642e-06
6.34609e-06
6.34651e-06
6.34605e-06
6.34669e-06
6.346e-06
6.34699e-06
6.34599e-06
6.34758e-06
6.34623e-06
6.34814e-06
6.34553e-06
6.34368e-06
6.3313e-06
6.30106e-06
6.27418e-06
5.88542e-06
5.90214e-06
5.93032e-06
5.94233e-06
5.94453e-06
5.94709e-06
5.94536e-06
5.94658e-06
5.94509e-06
5.94597e-06
5.94504e-06
5.94566e-06
5.94506e-06
5.94546e-06
5.94507e-06
5.94537e-06
5.94508e-06
5.94531e-06
5.94513e-06
5.94527e-06
5.94515e-06
5.94523e-06
5.94516e-06
5.9452e-06
5.94518e-06
5.94518e-06
5.9452e-06
5.94516e-06
5.94523e-06
5.94515e-06
5.94527e-06
5.94513e-06
5.94531e-06
5.94508e-06
5.94537e-06
5.94507e-06
5.94547e-06
5.94506e-06
5.94566e-06
5.94505e-06
5.94597e-06
5.94508e-06
5.94658e-06
5.94536e-06
5.94709e-06
5.94453e-06
5.94233e-06
5.93032e-06
5.90214e-06
5.88542e-06
5.5191e-06
5.53633e-06
5.56368e-06
5.5756e-06
5.57788e-06
5.58041e-06
5.57872e-06
5.57991e-06
5.57844e-06
5.57929e-06
5.57839e-06
5.57898e-06
5.57839e-06
5.57879e-06
5.5784e-06
5.57869e-06
5.57841e-06
5.57863e-06
5.57846e-06
5.57859e-06
5.57848e-06
5.57855e-06
5.57849e-06
5.57853e-06
5.57851e-06
5.57851e-06
5.57853e-06
5.57849e-06
5.57856e-06
5.57848e-06
5.57859e-06
5.57846e-06
5.57863e-06
5.57841e-06
5.57869e-06
5.5784e-06
5.57879e-06
5.57839e-06
5.57898e-06
5.57839e-06
5.5793e-06
5.57844e-06
5.57991e-06
5.57872e-06
5.58041e-06
5.57787e-06
5.5756e-06
5.56367e-06
5.53633e-06
5.5191e-06
5.16313e-06
5.18101e-06
5.20806e-06
5.22028e-06
5.22274e-06
5.22533e-06
5.22366e-06
5.22482e-06
5.22335e-06
5.22418e-06
5.22328e-06
5.22386e-06
5.22327e-06
5.22366e-06
5.22328e-06
5.22356e-06
5.22328e-06
5.2235e-06
5.22333e-06
5.22346e-06
5.22335e-06
5.22342e-06
5.22336e-06
5.2234e-06
5.22338e-06
5.22338e-06
5.2234e-06
5.22336e-06
5.22342e-06
5.22335e-06
5.22346e-06
5.22333e-06
5.2235e-06
5.22328e-06
5.22356e-06
5.22328e-06
5.22366e-06
5.22327e-06
5.22386e-06
5.22328e-06
5.22418e-06
5.22335e-06
5.22482e-06
5.22366e-06
5.22533e-06
5.22274e-06
5.22027e-06
5.20805e-06
5.18101e-06
5.16313e-06
4.83151e-06
4.84946e-06
4.87522e-06
4.88712e-06
4.88962e-06
4.89213e-06
4.89053e-06
4.89162e-06
4.89022e-06
4.891e-06
4.89013e-06
4.89068e-06
4.89012e-06
4.89048e-06
4.89012e-06
4.89038e-06
4.89012e-06
4.89033e-06
4.89016e-06
4.89029e-06
4.89018e-06
4.89025e-06
4.89019e-06
4.89023e-06
4.89021e-06
4.89021e-06
4.89023e-06
4.89019e-06
4.89025e-06
4.89018e-06
4.89029e-06
4.89016e-06
4.89033e-06
4.89012e-06
4.89038e-06
4.89012e-06
4.89048e-06
4.89012e-06
4.89068e-06
4.89013e-06
4.891e-06
4.89022e-06
4.89162e-06
4.89053e-06
4.89212e-06
4.88961e-06
4.88712e-06
4.87521e-06
4.84946e-06
4.83151e-06
4.5241e-06
4.54204e-06
4.56648e-06
4.57802e-06
4.58053e-06
4.58296e-06
4.58144e-06
4.58246e-06
4.58112e-06
4.58185e-06
4.58102e-06
4.58153e-06
4.581e-06
4.58134e-06
4.58099e-06
4.58124e-06
4.58099e-06
4.58119e-06
4.58103e-06
4.58115e-06
4.58105e-06
4.58112e-06
4.58106e-06
4.58109e-06
4.58108e-06
4.58108e-06
4.58109e-06
4.58106e-06
4.58112e-06
4.58105e-06
4.58115e-06
4.58103e-06
4.58119e-06
4.58099e-06
4.58124e-06
4.58099e-06
4.58134e-06
4.581e-06
4.58153e-06
4.58102e-06
4.58185e-06
4.58112e-06
4.58246e-06
4.58144e-06
4.58295e-06
4.58053e-06
4.57802e-06
4.56648e-06
4.54204e-06
4.5241e-06
4.24029e-06
4.25812e-06
4.28128e-06
4.29241e-06
4.29491e-06
4.29725e-06
4.29581e-06
4.29677e-06
4.29549e-06
4.29616e-06
4.29538e-06
4.29585e-06
4.29534e-06
4.29566e-06
4.29533e-06
4.29557e-06
4.29533e-06
4.29552e-06
4.29537e-06
4.29548e-06
4.29538e-06
4.29545e-06
4.29539e-06
4.29543e-06
4.29541e-06
4.29541e-06
4.29543e-06
4.29539e-06
4.29545e-06
4.29538e-06
4.29548e-06
4.29537e-06
4.29552e-06
4.29533e-06
4.29557e-06
4.29533e-06
4.29567e-06
4.29534e-06
4.29585e-06
4.29538e-06
4.29616e-06
4.29549e-06
4.29676e-06
4.29581e-06
4.29724e-06
4.29491e-06
4.2924e-06
4.28127e-06
4.25812e-06
4.24029e-06
3.97912e-06
3.99674e-06
4.01866e-06
4.02934e-06
4.03183e-06
4.03408e-06
4.03271e-06
4.03361e-06
4.03239e-06
4.03301e-06
4.03227e-06
4.03271e-06
4.03223e-06
4.03253e-06
4.03221e-06
4.03244e-06
4.03221e-06
4.03239e-06
4.03224e-06
4.03235e-06
4.03226e-06
4.03232e-06
4.03226e-06
4.0323e-06
4.03228e-06
4.03228e-06
4.0323e-06
4.03226e-06
4.03232e-06
4.03226e-06
4.03235e-06
4.03224e-06
4.03239e-06
4.03221e-06
4.03244e-06
4.03221e-06
4.03253e-06
4.03223e-06
4.03271e-06
4.03227e-06
4.03301e-06
4.03239e-06
4.0336e-06
4.03271e-06
4.03407e-06
4.03183e-06
4.02934e-06
4.01866e-06
3.99674e-06
3.97912e-06
3.73939e-06
3.75672e-06
3.77745e-06
3.78767e-06
3.79013e-06
3.79228e-06
3.79099e-06
3.79182e-06
3.79067e-06
3.79124e-06
3.79054e-06
3.79094e-06
3.79049e-06
3.79077e-06
3.79047e-06
3.79068e-06
3.79046e-06
3.79063e-06
3.79049e-06
3.79059e-06
3.79051e-06
3.79056e-06
3.79051e-06
3.79054e-06
3.79053e-06
3.79053e-06
3.79054e-06
3.79051e-06
3.79056e-06
3.79051e-06
3.79059e-06
3.79049e-06
3.79063e-06
3.79047e-06
3.79068e-06
3.79047e-06
3.79077e-06
3.79049e-06
3.79094e-06
3.79054e-06
3.79124e-06
3.79067e-06
3.79182e-06
3.79099e-06
3.79227e-06
3.79012e-06
3.78767e-06
3.77745e-06
3.75672e-06
3.73939e-06
3.51975e-06
3.53672e-06
3.55631e-06
3.56607e-06
3.56848e-06
3.57054e-06
3.56933e-06
3.57009e-06
3.56901e-06
3.56953e-06
3.56887e-06
3.56924e-06
3.56881e-06
3.56906e-06
3.56879e-06
3.56898e-06
3.56878e-06
3.56893e-06
3.5688e-06
3.5689e-06
3.56882e-06
3.56887e-06
3.56882e-06
3.56885e-06
3.56884e-06
3.56884e-06
3.56885e-06
3.56882e-06
3.56887e-06
3.56882e-06
3.5689e-06
3.5688e-06
3.56893e-06
3.56878e-06
3.56898e-06
3.56879e-06
3.56906e-06
3.56881e-06
3.56924e-06
3.56887e-06
3.56953e-06
3.56901e-06
3.57009e-06
3.56933e-06
3.57053e-06
3.56848e-06
3.56606e-06
3.55631e-06
3.53672e-06
3.51975e-06
3.31879e-06
3.33536e-06
3.35385e-06
3.36314e-06
3.36551e-06
3.36747e-06
3.36634e-06
3.36704e-06
3.36601e-06
3.36649e-06
3.36586e-06
3.3662e-06
3.3658e-06
3.36603e-06
3.36577e-06
3.36595e-06
3.36576e-06
3.3659e-06
3.36579e-06
3.36587e-06
3.36579e-06
3.36584e-06
3.3658e-06
3.36583e-06
3.36581e-06
3.36581e-06
3.36583e-06
3.3658e-06
3.36584e-06
3.36579e-06
3.36587e-06
3.36578e-06
3.3659e-06
3.36576e-06
3.36595e-06
3.36577e-06
3.36603e-06
3.3658e-06
3.3662e-06
3.36586e-06
3.36649e-06
3.36601e-06
3.36704e-06
3.36634e-06
3.36747e-06
3.36551e-06
3.36314e-06
3.35385e-06
3.33536e-06
3.31879e-06
3.13507e-06
3.15119e-06
3.16864e-06
3.17748e-06
3.17979e-06
3.18166e-06
3.1806e-06
3.18124e-06
3.18027e-06
3.1807e-06
3.18011e-06
3.18042e-06
3.18004e-06
3.18026e-06
3.18001e-06
3.18017e-06
3.18e-06
3.18013e-06
3.18002e-06
3.1801e-06
3.18003e-06
3.18008e-06
3.18003e-06
3.18006e-06
3.18005e-06
3.18005e-06
3.18006e-06
3.18003e-06
3.18008e-06
3.18003e-06
3.1801e-06
3.18002e-06
3.18013e-06
3.18e-06
3.18018e-06
3.18001e-06
3.18026e-06
3.18004e-06
3.18042e-06
3.18011e-06
3.1807e-06
3.18027e-06
3.18124e-06
3.1806e-06
3.18166e-06
3.17979e-06
3.17748e-06
3.16864e-06
3.15119e-06
3.13507e-06
2.96718e-06
2.98282e-06
2.99929e-06
3.00768e-06
3.00993e-06
3.01171e-06
3.01071e-06
3.0113e-06
3.01039e-06
3.01077e-06
3.01022e-06
3.0105e-06
3.01014e-06
3.01034e-06
3.01011e-06
3.01026e-06
3.0101e-06
3.01022e-06
3.01011e-06
3.01019e-06
3.01012e-06
3.01016e-06
3.01012e-06
3.01015e-06
3.01014e-06
3.01014e-06
3.01015e-06
3.01012e-06
3.01016e-06
3.01012e-06
3.01019e-06
3.01011e-06
3.01022e-06
3.0101e-06
3.01026e-06
3.01011e-06
3.01034e-06
3.01014e-06
3.0105e-06
3.01022e-06
3.01077e-06
3.01039e-06
3.0113e-06
3.01071e-06
3.01171e-06
3.00993e-06
3.00768e-06
2.99929e-06
2.98282e-06
2.96718e-06
2.81374e-06
2.82888e-06
2.84442e-06
2.85239e-06
2.85457e-06
2.85626e-06
2.85533e-06
2.85586e-06
2.85501e-06
2.85535e-06
2.85483e-06
2.85508e-06
2.85475e-06
2.85493e-06
2.85471e-06
2.85485e-06
2.85469e-06
2.85481e-06
2.85471e-06
2.85478e-06
2.85472e-06
2.85476e-06
2.85472e-06
2.85474e-06
2.85473e-06
2.85473e-06
2.85474e-06
2.85472e-06
2.85476e-06
2.85472e-06
2.85478e-06
2.85471e-06
2.85481e-06
2.8547e-06
2.85485e-06
2.85471e-06
2.85493e-06
2.85475e-06
2.85508e-06
2.85483e-06
2.85535e-06
2.85501e-06
2.85586e-06
2.85533e-06
2.85626e-06
2.85457e-06
2.85239e-06
2.84442e-06
2.82888e-06
2.81374e-06
2.67348e-06
2.68809e-06
2.70276e-06
2.71032e-06
2.71243e-06
2.71403e-06
2.71316e-06
2.71364e-06
2.71284e-06
2.71315e-06
2.71265e-06
2.71288e-06
2.71257e-06
2.71273e-06
2.71252e-06
2.71265e-06
2.71251e-06
2.71261e-06
2.71252e-06
2.71259e-06
2.71253e-06
2.71257e-06
2.71253e-06
2.71255e-06
2.71254e-06
2.71254e-06
2.71255e-06
2.71253e-06
2.71257e-06
2.71253e-06
2.71259e-06
2.71252e-06
2.71261e-06
2.71251e-06
2.71265e-06
2.71252e-06
2.71273e-06
2.71257e-06
2.71288e-06
2.71265e-06
2.71315e-06
2.71284e-06
2.71364e-06
2.71316e-06
2.71403e-06
2.71243e-06
2.71032e-06
2.70275e-06
2.68809e-06
2.67348e-06
2.54516e-06
2.55922e-06
2.57308e-06
2.58026e-06
2.58229e-06
2.58381e-06
2.58299e-06
2.58343e-06
2.58267e-06
2.58294e-06
2.58248e-06
2.58269e-06
2.58239e-06
2.58254e-06
2.58234e-06
2.58246e-06
2.58233e-06
2.58242e-06
2.58234e-06
2.5824e-06
2.58234e-06
2.58238e-06
2.58234e-06
2.58236e-06
2.58235e-06
2.58235e-06
2.58236e-06
2.58235e-06
2.58238e-06
2.58234e-06
2.5824e-06
2.58234e-06
2.58242e-06
2.58233e-06
2.58246e-06
2.58234e-06
2.58254e-06
2.58239e-06
2.58268e-06
2.58248e-06
2.58294e-06
2.58267e-06
2.58343e-06
2.58299e-06
2.58381e-06
2.58229e-06
2.58025e-06
2.57308e-06
2.55922e-06
2.54516e-06
2.42766e-06
2.44115e-06
2.45426e-06
2.46107e-06
2.46303e-06
2.46447e-06
2.4637e-06
2.46409e-06
2.46338e-06
2.46362e-06
2.46318e-06
2.46337e-06
2.46309e-06
2.46322e-06
2.46304e-06
2.46315e-06
2.46302e-06
2.46311e-06
2.46303e-06
2.46309e-06
2.46303e-06
2.46307e-06
2.46304e-06
2.46305e-06
2.46305e-06
2.46305e-06
2.46305e-06
2.46304e-06
2.46307e-06
2.46304e-06
2.46309e-06
2.46303e-06
2.46311e-06
2.46302e-06
2.46315e-06
2.46304e-06
2.46322e-06
2.46309e-06
2.46337e-06
2.46318e-06
2.46362e-06
2.46338e-06
2.46409e-06
2.4637e-06
2.46447e-06
2.46303e-06
2.46107e-06
2.45426e-06
2.44115e-06
2.42766e-06
2.31995e-06
2.33283e-06
2.34526e-06
2.35172e-06
2.3536e-06
2.35497e-06
2.35424e-06
2.3546e-06
2.35392e-06
2.35414e-06
2.35372e-06
2.35389e-06
2.35362e-06
2.35374e-06
2.35357e-06
2.35367e-06
2.35355e-06
2.35364e-06
2.35356e-06
2.35361e-06
2.35356e-06
2.35359e-06
2.35356e-06
2.35358e-06
2.35357e-06
2.35357e-06
2.35358e-06
2.35357e-06
2.35359e-06
2.35356e-06
2.35361e-06
2.35356e-06
2.35364e-06
2.35355e-06
2.35367e-06
2.35357e-06
2.35374e-06
2.35362e-06
2.35389e-06
2.35372e-06
2.35414e-06
2.35392e-06
2.3546e-06
2.35424e-06
2.35497e-06
2.3536e-06
2.35172e-06
2.34526e-06
2.33283e-06
2.31995e-06
2.22103e-06
2.23335e-06
2.24513e-06
2.25125e-06
2.25306e-06
2.25435e-06
2.25367e-06
2.25399e-06
2.25335e-06
2.25354e-06
2.25314e-06
2.25329e-06
2.25304e-06
2.25315e-06
2.25299e-06
2.25308e-06
2.25297e-06
2.25304e-06
2.25297e-06
2.25302e-06
2.25298e-06
2.253e-06
2.25298e-06
2.25299e-06
2.25298e-06
2.25298e-06
2.25299e-06
2.25298e-06
2.253e-06
2.25298e-06
2.25302e-06
2.25297e-06
2.25304e-06
2.25297e-06
2.25308e-06
2.25299e-06
2.25315e-06
2.25304e-06
2.25329e-06
2.25315e-06
2.25354e-06
2.25335e-06
2.25399e-06
2.25367e-06
2.25435e-06
2.25305e-06
2.25125e-06
2.24512e-06
2.23335e-06
2.22103e-06
)
;

boundaryField
{
    fuel
    {
        type            fixedValue;
        value           uniform 0;
    }
    wall
    {
        type            zeroGradient;
    }
    outlet
    {
        type            zeroGradient;
    }
    frontAndBack
    {
        type            empty;
    }
    procBoundary1to0
    {
        type            processor;
        value           nonuniform List<scalar> 
50
(
2.13004e-06
2.14185e-06
2.15299e-06
2.15879e-06
2.16053e-06
2.16175e-06
2.16111e-06
2.16139e-06
2.16079e-06
2.16095e-06
2.16058e-06
2.16071e-06
2.16047e-06
2.16057e-06
2.16042e-06
2.1605e-06
2.1604e-06
2.16047e-06
2.1604e-06
2.16045e-06
2.1604e-06
2.16043e-06
2.1604e-06
2.16042e-06
2.16041e-06
2.16041e-06
2.16042e-06
2.1604e-06
2.16043e-06
2.1604e-06
2.16045e-06
2.1604e-06
2.16047e-06
2.1604e-06
2.1605e-06
2.16042e-06
2.16057e-06
2.16047e-06
2.16071e-06
2.16058e-06
2.16095e-06
2.16079e-06
2.16139e-06
2.16111e-06
2.16175e-06
2.16053e-06
2.15879e-06
2.15299e-06
2.14185e-06
2.13004e-06
)
;
    }
}


// ************************************************************************* //
