/*--------------------------------*- C++ -*----------------------------------*\
| =========                 |                                                 |
| \\      /  F ield         | OpenFOAM: The Open Source CFD Toolbox           |
|  \\    /   O peration     | Version:  dev                                   |
|   \\  /    A nd           | Web:      www.OpenFOAM.org                      |
|    \\/     M anipulation  |                                                 |
\*---------------------------------------------------------------------------*/
FoamFile
{
    version     2.0;
    format      ascii;
    class       volScalarField;
    location    "0.095";
    object      C2H;
}
// * * * * * * * * * * * * * * * * * * * * * * * * * * * * * * * * * * * * * //

dimensions      [0 0 0 0 0 0 0];

internalField   nonuniform List<scalar> 
25
(
2.91004e-09
2.36592e-09
1.93371e-09
1.58112e-09
1.28884e-09
1.04981e-09
8.50418e-10
6.85178e-10
5.49456e-10
4.39069e-10
3.50163e-10
2.79205e-10
2.23015e-10
1.78806e-10
1.44198e-10
1.16867e-10
9.53028e-11
7.87693e-11
6.57333e-11
5.53888e-11
4.71157e-11
4.044e-11
3.49951e-11
3.05222e-11
2.68035e-11
)
;

boundaryField
{
    wall
    {
        type            zeroGradient;
    }
    fuel
    {
        type            fixedValue;
        value           nonuniform 0();
    }
    outlet
    {
        type            inletOutlet;
        inletValue      nonuniform 0();
        value           nonuniform 0();
    }
    procBoundary1to0
    {
        type            processor;
        value           uniform 3.67834e-09;
    }
    procBoundary1to2
    {
        type            processor;
        value           uniform 2.37099e-11;
    }
}


// ************************************************************************* //
