/*--------------------------------*- C++ -*----------------------------------*\
| =========                 |                                                 |
| \\      /  F ield         | OpenFOAM: The Open Source CFD Toolbox           |
|  \\    /   O peration     | Version:  dev                                   |
|   \\  /    A nd           | Web:      www.OpenFOAM.org                      |
|    \\/     M anipulation  |                                                 |
\*---------------------------------------------------------------------------*/
FoamFile
{
    version     2.0;
    format      ascii;
    class       volScalarField;
    location    "0.095";
    object      C4H4;
}
// * * * * * * * * * * * * * * * * * * * * * * * * * * * * * * * * * * * * * //

dimensions      [0 0 0 0 0 0 0];

internalField   nonuniform List<scalar> 
2000
(
0.000136662
0.000136757
0.000136856
0.000136896
0.000136899
0.000136908
0.000136903
0.000136908
0.000136904
0.000136907
0.000136904
0.000136906
0.000136905
0.000136906
0.000136905
0.000136906
0.000136905
0.000136906
0.000136905
0.000136905
0.000136905
0.000136905
0.000136905
0.000136905
0.000136905
0.000136905
0.000136905
0.000136905
0.000136905
0.000136905
0.000136905
0.000136905
0.000136906
0.000136905
0.000136906
0.000136905
0.000136906
0.000136905
0.000136906
0.000136904
0.000136907
0.000136904
0.000136908
0.000136903
0.000136908
0.000136899
0.000136896
0.000136856
0.000136757
0.000136662
0.000282482
0.000282645
0.000282816
0.000282882
0.000282884
0.0002829
0.000282891
0.0002829
0.000282892
0.000282898
0.000282893
0.000282897
0.000282894
0.000282896
0.000282894
0.000282896
0.000282894
0.000282896
0.000282895
0.000282895
0.000282895
0.000282895
0.000282895
0.000282895
0.000282895
0.000282895
0.000282895
0.000282895
0.000282895
0.000282895
0.000282895
0.000282895
0.000282896
0.000282894
0.000282896
0.000282894
0.000282896
0.000282894
0.000282897
0.000282893
0.000282898
0.000282892
0.0002829
0.000282891
0.0002829
0.000282884
0.000282881
0.000282816
0.000282645
0.000282482
0.000262231
0.000262129
0.000261997
0.000261924
0.000261891
0.000261886
0.000261879
0.000261881
0.000261879
0.000261881
0.00026188
0.000261881
0.00026188
0.000261881
0.000261881
0.000261881
0.000261881
0.000261881
0.000261881
0.000261881
0.000261881
0.000261881
0.000261881
0.000261881
0.000261881
0.000261881
0.000261881
0.000261881
0.000261881
0.000261881
0.000261881
0.000261881
0.000261881
0.000261881
0.000261881
0.000261881
0.000261881
0.00026188
0.000261881
0.00026188
0.000261881
0.000261879
0.000261881
0.000261879
0.000261886
0.000261891
0.000261924
0.000261997
0.000262129
0.000262231
0.000163781
0.000163638
0.000163474
0.000163384
0.00016335
0.00016334
0.000163335
0.000163335
0.000163335
0.000163335
0.000163335
0.000163335
0.000163335
0.000163336
0.000163336
0.000163336
0.000163336
0.000163336
0.000163336
0.000163336
0.000163336
0.000163336
0.000163336
0.000163336
0.000163336
0.000163336
0.000163336
0.000163336
0.000163336
0.000163336
0.000163336
0.000163336
0.000163336
0.000163336
0.000163336
0.000163336
0.000163336
0.000163335
0.000163335
0.000163335
0.000163335
0.000163335
0.000163335
0.000163335
0.00016334
0.00016335
0.000163384
0.000163474
0.000163637
0.000163781
9.35048e-05
9.34139e-05
9.33204e-05
9.32616e-05
9.32375e-05
9.32319e-05
9.32278e-05
9.32285e-05
9.32274e-05
9.32285e-05
9.32278e-05
9.32285e-05
9.32281e-05
9.32286e-05
9.32283e-05
9.32286e-05
9.32284e-05
9.32286e-05
9.32285e-05
9.32286e-05
9.32285e-05
9.32286e-05
9.32285e-05
9.32286e-05
9.32286e-05
9.32285e-05
9.32286e-05
9.32285e-05
9.32286e-05
9.32285e-05
9.32286e-05
9.32285e-05
9.32286e-05
9.32284e-05
9.32286e-05
9.32283e-05
9.32286e-05
9.32281e-05
9.32285e-05
9.32278e-05
9.32284e-05
9.32274e-05
9.32285e-05
9.32278e-05
9.32319e-05
9.32376e-05
9.32616e-05
9.33204e-05
9.34139e-05
9.35048e-05
5.41894e-05
5.41416e-05
5.41007e-05
5.40681e-05
5.40526e-05
5.40504e-05
5.40467e-05
5.40481e-05
5.40465e-05
5.40479e-05
5.40469e-05
5.40478e-05
5.40472e-05
5.40477e-05
5.40474e-05
5.40477e-05
5.40474e-05
5.40477e-05
5.40475e-05
5.40476e-05
5.40476e-05
5.40476e-05
5.40476e-05
5.40476e-05
5.40476e-05
5.40476e-05
5.40476e-05
5.40476e-05
5.40476e-05
5.40476e-05
5.40476e-05
5.40475e-05
5.40477e-05
5.40474e-05
5.40477e-05
5.40473e-05
5.40477e-05
5.40472e-05
5.40478e-05
5.40469e-05
5.40478e-05
5.40466e-05
5.40481e-05
5.40468e-05
5.40504e-05
5.40526e-05
5.40681e-05
5.41007e-05
5.41416e-05
5.41894e-05
3.30932e-05
3.30696e-05
3.30564e-05
3.30392e-05
3.30293e-05
3.30288e-05
3.30258e-05
3.30273e-05
3.30257e-05
3.3027e-05
3.3026e-05
3.30269e-05
3.30262e-05
3.30268e-05
3.30264e-05
3.30267e-05
3.30265e-05
3.30267e-05
3.30265e-05
3.30267e-05
3.30266e-05
3.30267e-05
3.30266e-05
3.30266e-05
3.30266e-05
3.30266e-05
3.30266e-05
3.30266e-05
3.30267e-05
3.30266e-05
3.30267e-05
3.30265e-05
3.30267e-05
3.30265e-05
3.30268e-05
3.30264e-05
3.30268e-05
3.30263e-05
3.30269e-05
3.3026e-05
3.3027e-05
3.30257e-05
3.30273e-05
3.30258e-05
3.30288e-05
3.30293e-05
3.30392e-05
3.30564e-05
3.30696e-05
3.30932e-05
2.16413e-05
2.16304e-05
2.16302e-05
2.16214e-05
2.1615e-05
2.16153e-05
2.16129e-05
2.16141e-05
2.16128e-05
2.16139e-05
2.1613e-05
2.16138e-05
2.16132e-05
2.16137e-05
2.16133e-05
2.16136e-05
2.16134e-05
2.16136e-05
2.16134e-05
2.16136e-05
2.16135e-05
2.16135e-05
2.16135e-05
2.16135e-05
2.16135e-05
2.16135e-05
2.16135e-05
2.16135e-05
2.16135e-05
2.16135e-05
2.16136e-05
2.16134e-05
2.16136e-05
2.16134e-05
2.16136e-05
2.16133e-05
2.16137e-05
2.16132e-05
2.16137e-05
2.1613e-05
2.16139e-05
2.16128e-05
2.16141e-05
2.16129e-05
2.16153e-05
2.1615e-05
2.16214e-05
2.16302e-05
2.16304e-05
2.16413e-05
1.52303e-05
1.52262e-05
1.52319e-05
1.52277e-05
1.52235e-05
1.52241e-05
1.52221e-05
1.52233e-05
1.52221e-05
1.5223e-05
1.52223e-05
1.52229e-05
1.52224e-05
1.52228e-05
1.52225e-05
1.52228e-05
1.52225e-05
1.52227e-05
1.52226e-05
1.52227e-05
1.52226e-05
1.52227e-05
1.52226e-05
1.52227e-05
1.52227e-05
1.52227e-05
1.52227e-05
1.52226e-05
1.52227e-05
1.52226e-05
1.52227e-05
1.52226e-05
1.52227e-05
1.52225e-05
1.52228e-05
1.52225e-05
1.52228e-05
1.52224e-05
1.52229e-05
1.52223e-05
1.5223e-05
1.52221e-05
1.52233e-05
1.52221e-05
1.52241e-05
1.52235e-05
1.52277e-05
1.52319e-05
1.52262e-05
1.52303e-05
1.14803e-05
1.148e-05
1.14885e-05
1.14869e-05
1.14841e-05
1.14848e-05
1.14832e-05
1.14841e-05
1.14831e-05
1.14839e-05
1.14833e-05
1.14838e-05
1.14834e-05
1.14837e-05
1.14834e-05
1.14837e-05
1.14835e-05
1.14837e-05
1.14835e-05
1.14836e-05
1.14835e-05
1.14836e-05
1.14836e-05
1.14836e-05
1.14836e-05
1.14836e-05
1.14836e-05
1.14836e-05
1.14836e-05
1.14835e-05
1.14836e-05
1.14835e-05
1.14837e-05
1.14835e-05
1.14837e-05
1.14834e-05
1.14837e-05
1.14834e-05
1.14838e-05
1.14833e-05
1.14839e-05
1.14831e-05
1.14841e-05
1.14832e-05
1.14848e-05
1.14841e-05
1.14869e-05
1.14885e-05
1.148e-05
1.14803e-05
9.19397e-06
9.19606e-06
9.20595e-06
9.20607e-06
9.20406e-06
9.20485e-06
9.20344e-06
9.20433e-06
9.20341e-06
9.20411e-06
9.20352e-06
9.204e-06
9.20362e-06
9.20392e-06
9.20368e-06
9.20389e-06
9.20371e-06
9.20387e-06
9.20375e-06
9.20384e-06
9.20377e-06
9.20382e-06
9.20378e-06
9.20381e-06
9.2038e-06
9.2038e-06
9.20381e-06
9.20378e-06
9.20382e-06
9.20377e-06
9.20384e-06
9.20375e-06
9.20386e-06
9.20371e-06
9.20389e-06
9.20368e-06
9.20393e-06
9.20362e-06
9.204e-06
9.20352e-06
9.20411e-06
9.20341e-06
9.20433e-06
9.20345e-06
9.20485e-06
9.20406e-06
9.20607e-06
9.20596e-06
9.19606e-06
9.19397e-06
7.68493e-06
7.6881e-06
7.69753e-06
7.69841e-06
7.69699e-06
7.69772e-06
7.69654e-06
7.69728e-06
7.6965e-06
7.69708e-06
7.69659e-06
7.69699e-06
7.69666e-06
7.69692e-06
7.69671e-06
7.69689e-06
7.69674e-06
7.69687e-06
7.69677e-06
7.69685e-06
7.69679e-06
7.69684e-06
7.6968e-06
7.69682e-06
7.69682e-06
7.69681e-06
7.69682e-06
7.6968e-06
7.69684e-06
7.69679e-06
7.69685e-06
7.69677e-06
7.69687e-06
7.69674e-06
7.6969e-06
7.69671e-06
7.69692e-06
7.69667e-06
7.69699e-06
7.69659e-06
7.69708e-06
7.6965e-06
7.69728e-06
7.69655e-06
7.69772e-06
7.69699e-06
7.6984e-06
7.69753e-06
7.6881e-06
7.68493e-06
6.71687e-06
6.72146e-06
6.73147e-06
6.73315e-06
6.73211e-06
6.73289e-06
6.7318e-06
6.7325e-06
6.73175e-06
6.7323e-06
6.73182e-06
6.7322e-06
6.73189e-06
6.73214e-06
6.73194e-06
6.73211e-06
6.73196e-06
6.73209e-06
6.732e-06
6.73207e-06
6.73201e-06
6.73206e-06
6.73202e-06
6.73204e-06
6.73203e-06
6.73203e-06
6.73204e-06
6.73202e-06
6.73206e-06
6.73201e-06
6.73207e-06
6.732e-06
6.73209e-06
6.73196e-06
6.73211e-06
6.73194e-06
6.73214e-06
6.7319e-06
6.7322e-06
6.73183e-06
6.7323e-06
6.73175e-06
6.7325e-06
6.7318e-06
6.73289e-06
6.73211e-06
6.73315e-06
6.73147e-06
6.72146e-06
6.71687e-06
6.04282e-06
6.04572e-06
6.05372e-06
6.05528e-06
6.05488e-06
6.05546e-06
6.05472e-06
6.0552e-06
6.05466e-06
6.05503e-06
6.0547e-06
6.05496e-06
6.05474e-06
6.05491e-06
6.05477e-06
6.05489e-06
6.05478e-06
6.05487e-06
6.05481e-06
6.05486e-06
6.05482e-06
6.05485e-06
6.05482e-06
6.05484e-06
6.05483e-06
6.05483e-06
6.05484e-06
6.05482e-06
6.05485e-06
6.05482e-06
6.05486e-06
6.05481e-06
6.05487e-06
6.05478e-06
6.05489e-06
6.05477e-06
6.05491e-06
6.05474e-06
6.05496e-06
6.0547e-06
6.05503e-06
6.05466e-06
6.05519e-06
6.05472e-06
6.05546e-06
6.05488e-06
6.05528e-06
6.05372e-06
6.04572e-06
6.04282e-06
5.54329e-06
5.54683e-06
5.55456e-06
5.5564e-06
5.55621e-06
5.55677e-06
5.55611e-06
5.55653e-06
5.55605e-06
5.55638e-06
5.55607e-06
5.5563e-06
5.55611e-06
5.55626e-06
5.55613e-06
5.55624e-06
5.55614e-06
5.55622e-06
5.55616e-06
5.55621e-06
5.55617e-06
5.5562e-06
5.55618e-06
5.55619e-06
5.55619e-06
5.55619e-06
5.55619e-06
5.55618e-06
5.5562e-06
5.55617e-06
5.55621e-06
5.55616e-06
5.55622e-06
5.55614e-06
5.55624e-06
5.55613e-06
5.55626e-06
5.55611e-06
5.5563e-06
5.55607e-06
5.55638e-06
5.55605e-06
5.55653e-06
5.55611e-06
5.55677e-06
5.55621e-06
5.5564e-06
5.55456e-06
5.54683e-06
5.54329e-06
5.18489e-06
5.1891e-06
5.19686e-06
5.199e-06
5.19898e-06
5.19955e-06
5.19894e-06
5.19933e-06
5.19887e-06
5.19917e-06
5.19889e-06
5.1991e-06
5.19892e-06
5.19906e-06
5.19894e-06
5.19904e-06
5.19895e-06
5.19902e-06
5.19897e-06
5.19901e-06
5.19898e-06
5.199e-06
5.19898e-06
5.19899e-06
5.19899e-06
5.19899e-06
5.19899e-06
5.19898e-06
5.199e-06
5.19898e-06
5.19901e-06
5.19897e-06
5.19902e-06
5.19895e-06
5.19904e-06
5.19894e-06
5.19906e-06
5.19892e-06
5.1991e-06
5.19889e-06
5.19918e-06
5.19887e-06
5.19933e-06
5.19894e-06
5.19955e-06
5.19898e-06
5.199e-06
5.19686e-06
5.1891e-06
5.18489e-06
4.89997e-06
4.90516e-06
4.91338e-06
4.91609e-06
4.91632e-06
4.91697e-06
4.91638e-06
4.91676e-06
4.9163e-06
4.91659e-06
4.91631e-06
4.91652e-06
4.91633e-06
4.91647e-06
4.91635e-06
4.91644e-06
4.91636e-06
4.91643e-06
4.91638e-06
4.91642e-06
4.91638e-06
4.91641e-06
4.91639e-06
4.9164e-06
4.9164e-06
4.9164e-06
4.9164e-06
4.91639e-06
4.91641e-06
4.91638e-06
4.91642e-06
4.91637e-06
4.91643e-06
4.91636e-06
4.91644e-06
4.91635e-06
4.91647e-06
4.91633e-06
4.91651e-06
4.91631e-06
4.91659e-06
4.9163e-06
4.91676e-06
4.91638e-06
4.91697e-06
4.91632e-06
4.91609e-06
4.91338e-06
4.90516e-06
4.89997e-06
4.68144e-06
4.68712e-06
4.69528e-06
4.69817e-06
4.69853e-06
4.69918e-06
4.69863e-06
4.69899e-06
4.69855e-06
4.69882e-06
4.69855e-06
4.69874e-06
4.69857e-06
4.69869e-06
4.69858e-06
4.69867e-06
4.69859e-06
4.69866e-06
4.6986e-06
4.69864e-06
4.69861e-06
4.69864e-06
4.69862e-06
4.69863e-06
4.69862e-06
4.69862e-06
4.69863e-06
4.69862e-06
4.69864e-06
4.69861e-06
4.69864e-06
4.6986e-06
4.69866e-06
4.69859e-06
4.69867e-06
4.69858e-06
4.69869e-06
4.69857e-06
4.69874e-06
4.69855e-06
4.69882e-06
4.69855e-06
4.69899e-06
4.69864e-06
4.69918e-06
4.69853e-06
4.69817e-06
4.69528e-06
4.68712e-06
4.68144e-06
4.49648e-06
4.50305e-06
4.51167e-06
4.51496e-06
4.51541e-06
4.51613e-06
4.51555e-06
4.51593e-06
4.51546e-06
4.51575e-06
4.51546e-06
4.51566e-06
4.51548e-06
4.51561e-06
4.51549e-06
4.51559e-06
4.5155e-06
4.51557e-06
4.51552e-06
4.51556e-06
4.51553e-06
4.51555e-06
4.51553e-06
4.51554e-06
4.51554e-06
4.51554e-06
4.51554e-06
4.51553e-06
4.51555e-06
4.51553e-06
4.51556e-06
4.51552e-06
4.51557e-06
4.5155e-06
4.51559e-06
4.51549e-06
4.51561e-06
4.51548e-06
4.51566e-06
4.51546e-06
4.51575e-06
4.51546e-06
4.51593e-06
4.51555e-06
4.51612e-06
4.51541e-06
4.51496e-06
4.51167e-06
4.50305e-06
4.49648e-06
4.34096e-06
4.34796e-06
4.35639e-06
4.35977e-06
4.36032e-06
4.36102e-06
4.36049e-06
4.36083e-06
4.36039e-06
4.36065e-06
4.36038e-06
4.36057e-06
4.36039e-06
4.36052e-06
4.3604e-06
4.36049e-06
4.36041e-06
4.36048e-06
4.36043e-06
4.36047e-06
4.36044e-06
4.36046e-06
4.36044e-06
4.36045e-06
4.36045e-06
4.36045e-06
4.36045e-06
4.36044e-06
4.36046e-06
4.36044e-06
4.36047e-06
4.36043e-06
4.36048e-06
4.36041e-06
4.36049e-06
4.3604e-06
4.36052e-06
4.36039e-06
4.36057e-06
4.36038e-06
4.36065e-06
4.36039e-06
4.36083e-06
4.36049e-06
4.36102e-06
4.36032e-06
4.35977e-06
4.35639e-06
4.34796e-06
4.34096e-06
4.21191e-06
4.21944e-06
4.22785e-06
4.23137e-06
4.232e-06
4.23272e-06
4.2322e-06
4.23253e-06
4.2321e-06
4.23235e-06
4.23208e-06
4.23226e-06
4.23209e-06
4.23221e-06
4.2321e-06
4.23219e-06
4.23211e-06
4.23217e-06
4.23212e-06
4.23216e-06
4.23213e-06
4.23215e-06
4.23214e-06
4.23215e-06
4.23214e-06
4.23214e-06
4.23215e-06
4.23214e-06
4.23215e-06
4.23213e-06
4.23216e-06
4.23212e-06
4.23217e-06
4.23211e-06
4.23219e-06
4.2321e-06
4.23221e-06
4.23209e-06
4.23226e-06
4.23208e-06
4.23235e-06
4.2321e-06
4.23253e-06
4.2322e-06
4.23272e-06
4.232e-06
4.23136e-06
4.22785e-06
4.21944e-06
4.21191e-06
4.0984e-06
4.10652e-06
4.11492e-06
4.11857e-06
4.11929e-06
4.12002e-06
4.11951e-06
4.11984e-06
4.11941e-06
4.11965e-06
4.11939e-06
4.11956e-06
4.11939e-06
4.11951e-06
4.1194e-06
4.11948e-06
4.11941e-06
4.11947e-06
4.11942e-06
4.11946e-06
4.11943e-06
4.11945e-06
4.11943e-06
4.11944e-06
4.11944e-06
4.11944e-06
4.11944e-06
4.11943e-06
4.11945e-06
4.11943e-06
4.11946e-06
4.11942e-06
4.11947e-06
4.11941e-06
4.11948e-06
4.1194e-06
4.11951e-06
4.11939e-06
4.11956e-06
4.11939e-06
4.11965e-06
4.11941e-06
4.11984e-06
4.11951e-06
4.12002e-06
4.11929e-06
4.11857e-06
4.11492e-06
4.10652e-06
4.0984e-06
3.99668e-06
4.00242e-06
4.0105e-06
4.01417e-06
4.01503e-06
4.01577e-06
4.01531e-06
4.0156e-06
4.01519e-06
4.0154e-06
4.01516e-06
4.01531e-06
4.01515e-06
4.01525e-06
4.01515e-06
4.01523e-06
4.01515e-06
4.01521e-06
4.01517e-06
4.0152e-06
4.01517e-06
4.01519e-06
4.01518e-06
4.01519e-06
4.01518e-06
4.01518e-06
4.01519e-06
4.01518e-06
4.01519e-06
4.01517e-06
4.0152e-06
4.01517e-06
4.01521e-06
4.01516e-06
4.01523e-06
4.01515e-06
4.01525e-06
4.01515e-06
4.01531e-06
4.01516e-06
4.0154e-06
4.01519e-06
4.0156e-06
4.01531e-06
4.01576e-06
4.01503e-06
4.01417e-06
4.0105e-06
4.00243e-06
3.99668e-06
3.9041e-06
3.91026e-06
3.91834e-06
3.92212e-06
3.92305e-06
3.92381e-06
3.92336e-06
3.92364e-06
3.92324e-06
3.92344e-06
3.9232e-06
3.92335e-06
3.92319e-06
3.92329e-06
3.92319e-06
3.92326e-06
3.92319e-06
3.92325e-06
3.9232e-06
3.92324e-06
3.92321e-06
3.92323e-06
3.92321e-06
3.92322e-06
3.92322e-06
3.92322e-06
3.92322e-06
3.92321e-06
3.92323e-06
3.92321e-06
3.92324e-06
3.9232e-06
3.92325e-06
3.92319e-06
3.92326e-06
3.92319e-06
3.92329e-06
3.92319e-06
3.92334e-06
3.9232e-06
3.92344e-06
3.92324e-06
3.92364e-06
3.92336e-06
3.92381e-06
3.92305e-06
3.92212e-06
3.91834e-06
3.91026e-06
3.9041e-06
3.8154e-06
3.82203e-06
3.83031e-06
3.8343e-06
3.83533e-06
3.83612e-06
3.83568e-06
3.83596e-06
3.83555e-06
3.83575e-06
3.8355e-06
3.83564e-06
3.83548e-06
3.83558e-06
3.83548e-06
3.83556e-06
3.83548e-06
3.83554e-06
3.8355e-06
3.83553e-06
3.8355e-06
3.83552e-06
3.8355e-06
3.83551e-06
3.83551e-06
3.83551e-06
3.83551e-06
3.8355e-06
3.83552e-06
3.8355e-06
3.83553e-06
3.8355e-06
3.83554e-06
3.83548e-06
3.83556e-06
3.83548e-06
3.83558e-06
3.83548e-06
3.83564e-06
3.8355e-06
3.83575e-06
3.83555e-06
3.83596e-06
3.83568e-06
3.83612e-06
3.83533e-06
3.8343e-06
3.83031e-06
3.82203e-06
3.8154e-06
3.73259e-06
3.73955e-06
3.74779e-06
3.75184e-06
3.75293e-06
3.75374e-06
3.7533e-06
3.75357e-06
3.75317e-06
3.75336e-06
3.75311e-06
3.75325e-06
3.75309e-06
3.75319e-06
3.75309e-06
3.75316e-06
3.75309e-06
3.75315e-06
3.7531e-06
3.75314e-06
3.75311e-06
3.75313e-06
3.75311e-06
3.75312e-06
3.75311e-06
3.75311e-06
3.75312e-06
3.75311e-06
3.75313e-06
3.75311e-06
3.75314e-06
3.7531e-06
3.75315e-06
3.75309e-06
3.75316e-06
3.75309e-06
3.75319e-06
3.75309e-06
3.75325e-06
3.75311e-06
3.75336e-06
3.75317e-06
3.75357e-06
3.7533e-06
3.75373e-06
3.75293e-06
3.75184e-06
3.74778e-06
3.73955e-06
3.73259e-06
3.65461e-06
3.66189e-06
3.67009e-06
3.67421e-06
3.67535e-06
3.67616e-06
3.67574e-06
3.676e-06
3.6756e-06
3.67578e-06
3.67554e-06
3.67567e-06
3.67552e-06
3.67561e-06
3.67551e-06
3.67558e-06
3.67551e-06
3.67557e-06
3.67552e-06
3.67556e-06
3.67553e-06
3.67555e-06
3.67553e-06
3.67554e-06
3.67554e-06
3.67554e-06
3.67554e-06
3.67553e-06
3.67555e-06
3.67553e-06
3.67556e-06
3.67552e-06
3.67557e-06
3.67551e-06
3.67558e-06
3.67551e-06
3.67561e-06
3.67552e-06
3.67567e-06
3.67554e-06
3.67578e-06
3.6756e-06
3.676e-06
3.67574e-06
3.67616e-06
3.67535e-06
3.67421e-06
3.67009e-06
3.66189e-06
3.65461e-06
3.58075e-06
3.58832e-06
3.5965e-06
3.60065e-06
3.60184e-06
3.60266e-06
3.60225e-06
3.60251e-06
3.60211e-06
3.60228e-06
3.60204e-06
3.60217e-06
3.60201e-06
3.6021e-06
3.60201e-06
3.60207e-06
3.602e-06
3.60206e-06
3.60202e-06
3.60205e-06
3.60202e-06
3.60204e-06
3.60202e-06
3.60203e-06
3.60203e-06
3.60203e-06
3.60203e-06
3.60202e-06
3.60204e-06
3.60202e-06
3.60205e-06
3.60202e-06
3.60206e-06
3.60201e-06
3.60207e-06
3.60201e-06
3.6021e-06
3.60201e-06
3.60217e-06
3.60204e-06
3.60228e-06
3.60211e-06
3.6025e-06
3.60225e-06
3.60266e-06
3.60184e-06
3.60065e-06
3.59649e-06
3.58832e-06
3.58075e-06
3.51046e-06
3.51827e-06
3.52644e-06
3.53062e-06
3.53185e-06
3.53269e-06
3.53229e-06
3.53253e-06
3.53213e-06
3.5323e-06
3.53206e-06
3.53218e-06
3.53203e-06
3.53212e-06
3.53202e-06
3.53209e-06
3.53202e-06
3.53208e-06
3.53203e-06
3.53207e-06
3.53204e-06
3.53206e-06
3.53204e-06
3.53205e-06
3.53204e-06
3.53204e-06
3.53205e-06
3.53204e-06
3.53206e-06
3.53204e-06
3.53207e-06
3.53203e-06
3.53208e-06
3.53202e-06
3.53209e-06
3.53202e-06
3.53212e-06
3.53203e-06
3.53218e-06
3.53206e-06
3.5323e-06
3.53213e-06
3.53253e-06
3.53229e-06
3.53269e-06
3.53185e-06
3.53062e-06
3.52644e-06
3.51827e-06
3.51046e-06
3.44332e-06
3.45136e-06
3.45952e-06
3.46371e-06
3.46498e-06
3.46582e-06
3.46543e-06
3.46567e-06
3.46528e-06
3.46543e-06
3.4652e-06
3.46532e-06
3.46517e-06
3.46525e-06
3.46515e-06
3.46522e-06
3.46515e-06
3.4652e-06
3.46516e-06
3.46519e-06
3.46517e-06
3.46518e-06
3.46517e-06
3.46518e-06
3.46517e-06
3.46517e-06
3.46518e-06
3.46517e-06
3.46518e-06
3.46517e-06
3.46519e-06
3.46516e-06
3.4652e-06
3.46515e-06
3.46522e-06
3.46515e-06
3.46525e-06
3.46517e-06
3.46531e-06
3.4652e-06
3.46543e-06
3.46528e-06
3.46567e-06
3.46543e-06
3.46582e-06
3.46498e-06
3.46371e-06
3.45952e-06
3.45136e-06
3.44332e-06
3.37904e-06
3.38726e-06
3.39542e-06
3.39961e-06
3.40091e-06
3.40176e-06
3.40137e-06
3.4016e-06
3.40121e-06
3.40136e-06
3.40113e-06
3.40124e-06
3.4011e-06
3.40118e-06
3.40108e-06
3.40114e-06
3.40108e-06
3.40113e-06
3.40109e-06
3.40112e-06
3.40109e-06
3.40111e-06
3.40109e-06
3.4011e-06
3.4011e-06
3.4011e-06
3.4011e-06
3.40109e-06
3.40111e-06
3.40109e-06
3.40112e-06
3.40109e-06
3.40113e-06
3.40108e-06
3.40115e-06
3.40108e-06
3.40118e-06
3.4011e-06
3.40124e-06
3.40113e-06
3.40136e-06
3.40121e-06
3.4016e-06
3.40137e-06
3.40176e-06
3.40091e-06
3.3996e-06
3.39542e-06
3.38726e-06
3.37904e-06
3.31736e-06
3.32574e-06
3.33388e-06
3.33806e-06
3.33938e-06
3.34024e-06
3.33987e-06
3.34009e-06
3.3397e-06
3.33984e-06
3.33961e-06
3.33972e-06
3.33957e-06
3.33965e-06
3.33956e-06
3.33962e-06
3.33956e-06
3.33961e-06
3.33956e-06
3.3396e-06
3.33957e-06
3.33959e-06
3.33957e-06
3.33958e-06
3.33958e-06
3.33958e-06
3.33958e-06
3.33957e-06
3.33959e-06
3.33957e-06
3.3396e-06
3.33956e-06
3.33961e-06
3.33956e-06
3.33962e-06
3.33956e-06
3.33965e-06
3.33957e-06
3.33972e-06
3.33961e-06
3.33984e-06
3.3397e-06
3.34009e-06
3.33987e-06
3.34024e-06
3.33938e-06
3.33806e-06
3.33387e-06
3.32574e-06
3.31736e-06
3.25807e-06
3.26658e-06
3.2747e-06
3.27886e-06
3.28021e-06
3.28107e-06
3.2807e-06
3.28092e-06
3.28054e-06
3.28067e-06
3.28044e-06
3.28055e-06
3.2804e-06
3.28048e-06
3.28038e-06
3.28044e-06
3.28038e-06
3.28043e-06
3.28039e-06
3.28042e-06
3.28039e-06
3.28041e-06
3.28039e-06
3.2804e-06
3.2804e-06
3.2804e-06
3.2804e-06
3.28039e-06
3.28041e-06
3.28039e-06
3.28042e-06
3.28039e-06
3.28043e-06
3.28038e-06
3.28044e-06
3.28038e-06
3.28048e-06
3.2804e-06
3.28054e-06
3.28044e-06
3.28067e-06
3.28054e-06
3.28092e-06
3.2807e-06
3.28107e-06
3.28021e-06
3.27886e-06
3.27469e-06
3.26658e-06
3.25807e-06
3.20102e-06
3.20963e-06
3.21771e-06
3.22185e-06
3.22322e-06
3.22408e-06
3.22372e-06
3.22392e-06
3.22355e-06
3.22368e-06
3.22345e-06
3.22355e-06
3.22341e-06
3.22348e-06
3.22339e-06
3.22344e-06
3.22338e-06
3.22343e-06
3.22339e-06
3.22342e-06
3.22339e-06
3.22341e-06
3.22339e-06
3.2234e-06
3.2234e-06
3.2234e-06
3.2234e-06
3.22339e-06
3.22341e-06
3.22339e-06
3.22342e-06
3.22339e-06
3.22343e-06
3.22338e-06
3.22344e-06
3.22339e-06
3.22348e-06
3.22341e-06
3.22355e-06
3.22345e-06
3.22368e-06
3.22355e-06
3.22392e-06
3.22372e-06
3.22408e-06
3.22322e-06
3.22185e-06
3.21771e-06
3.20963e-06
3.20102e-06
3.14606e-06
3.15473e-06
3.16277e-06
3.16689e-06
3.16826e-06
3.16912e-06
3.16877e-06
3.16897e-06
3.1686e-06
3.16871e-06
3.16849e-06
3.16858e-06
3.16844e-06
3.16851e-06
3.16842e-06
3.16848e-06
3.16842e-06
3.16846e-06
3.16843e-06
3.16846e-06
3.16843e-06
3.16845e-06
3.16843e-06
3.16844e-06
3.16843e-06
3.16843e-06
3.16844e-06
3.16843e-06
3.16845e-06
3.16843e-06
3.16845e-06
3.16843e-06
3.16846e-06
3.16842e-06
3.16848e-06
3.16842e-06
3.16851e-06
3.16844e-06
3.16858e-06
3.16849e-06
3.16871e-06
3.1686e-06
3.16897e-06
3.16877e-06
3.16912e-06
3.16826e-06
3.16689e-06
3.16277e-06
3.15473e-06
3.14606e-06
3.09306e-06
3.10176e-06
3.10975e-06
3.11383e-06
3.11521e-06
3.11607e-06
3.11573e-06
3.11592e-06
3.11555e-06
3.11566e-06
3.11544e-06
3.11553e-06
3.11539e-06
3.11546e-06
3.11537e-06
3.11542e-06
3.11536e-06
3.11541e-06
3.11537e-06
3.1154e-06
3.11537e-06
3.11539e-06
3.11537e-06
3.11538e-06
3.11538e-06
3.11538e-06
3.11538e-06
3.11537e-06
3.11539e-06
3.11537e-06
3.1154e-06
3.11537e-06
3.11541e-06
3.11536e-06
3.11542e-06
3.11537e-06
3.11546e-06
3.11539e-06
3.11553e-06
3.11544e-06
3.11566e-06
3.11555e-06
3.11592e-06
3.11573e-06
3.11607e-06
3.11521e-06
3.11383e-06
3.10975e-06
3.10176e-06
3.09306e-06
3.04192e-06
3.0506e-06
3.05854e-06
3.06258e-06
3.06396e-06
3.06482e-06
3.06448e-06
3.06466e-06
3.0643e-06
3.06441e-06
3.06419e-06
3.06427e-06
3.06414e-06
3.0642e-06
3.06411e-06
3.06417e-06
3.06411e-06
3.06415e-06
3.06411e-06
3.06414e-06
3.06412e-06
3.06413e-06
3.06412e-06
3.06413e-06
3.06412e-06
3.06412e-06
3.06413e-06
3.06412e-06
3.06413e-06
3.06412e-06
3.06414e-06
3.06411e-06
3.06415e-06
3.06411e-06
3.06417e-06
3.06411e-06
3.0642e-06
3.06414e-06
3.06427e-06
3.06419e-06
3.06441e-06
3.0643e-06
3.06466e-06
3.06448e-06
3.06482e-06
3.06396e-06
3.06258e-06
3.05854e-06
3.0506e-06
3.04192e-06
2.99252e-06
3.00115e-06
3.00904e-06
3.01304e-06
3.01441e-06
3.01527e-06
3.01494e-06
3.01511e-06
3.01475e-06
3.01485e-06
3.01463e-06
3.01471e-06
3.01458e-06
3.01464e-06
3.01455e-06
3.01461e-06
3.01455e-06
3.01459e-06
3.01455e-06
3.01458e-06
3.01456e-06
3.01457e-06
3.01456e-06
3.01457e-06
3.01456e-06
3.01456e-06
3.01457e-06
3.01456e-06
3.01457e-06
3.01456e-06
3.01458e-06
3.01455e-06
3.01459e-06
3.01455e-06
3.01461e-06
3.01455e-06
3.01464e-06
3.01458e-06
3.01471e-06
3.01464e-06
3.01485e-06
3.01475e-06
3.01511e-06
3.01494e-06
3.01527e-06
3.01441e-06
3.01304e-06
3.00904e-06
3.00115e-06
2.99252e-06
2.94479e-06
2.95333e-06
2.96116e-06
2.96511e-06
2.96647e-06
2.96732e-06
2.967e-06
2.96716e-06
2.96681e-06
2.9669e-06
2.96669e-06
2.96677e-06
2.96663e-06
2.96669e-06
2.96661e-06
2.96666e-06
2.9666e-06
2.96664e-06
2.9666e-06
2.96663e-06
2.96661e-06
2.96662e-06
2.96661e-06
2.96662e-06
2.96661e-06
2.96661e-06
2.96662e-06
2.96661e-06
2.96662e-06
2.96661e-06
2.96663e-06
2.9666e-06
2.96664e-06
2.9666e-06
2.96666e-06
2.96661e-06
2.96669e-06
2.96663e-06
2.96677e-06
2.96669e-06
2.9669e-06
2.96681e-06
2.96716e-06
2.967e-06
2.96732e-06
2.96647e-06
2.96511e-06
2.96116e-06
2.95333e-06
2.94479e-06
2.89861e-06
2.90707e-06
2.91482e-06
2.91871e-06
2.92007e-06
2.92091e-06
2.92059e-06
2.92075e-06
2.9204e-06
2.92048e-06
2.92028e-06
2.92035e-06
2.92022e-06
2.92027e-06
2.92019e-06
2.92024e-06
2.92018e-06
2.92022e-06
2.92019e-06
2.92021e-06
2.92019e-06
2.9202e-06
2.92019e-06
2.9202e-06
2.92019e-06
2.92019e-06
2.9202e-06
2.92019e-06
2.9202e-06
2.92019e-06
2.92021e-06
2.92019e-06
2.92022e-06
2.92018e-06
2.92024e-06
2.92019e-06
2.92027e-06
2.92022e-06
2.92035e-06
2.92028e-06
2.92048e-06
2.9204e-06
2.92074e-06
2.92059e-06
2.9209e-06
2.92007e-06
2.91871e-06
2.91482e-06
2.90707e-06
2.89861e-06
)
;

boundaryField
{
    fuel
    {
        type            fixedValue;
        value           uniform 0;
    }
    wall
    {
        type            zeroGradient;
    }
    outlet
    {
        type            zeroGradient;
    }
    frontAndBack
    {
        type            empty;
    }
    procBoundary1to0
    {
        type            processor;
        value           nonuniform List<scalar> 
50
(
2.85393e-06
2.8623e-06
2.86995e-06
2.87378e-06
2.87512e-06
2.87595e-06
2.87564e-06
2.87579e-06
2.87545e-06
2.87553e-06
2.87532e-06
2.87539e-06
2.87526e-06
2.87531e-06
2.87523e-06
2.87528e-06
2.87522e-06
2.87526e-06
2.87523e-06
2.87525e-06
2.87523e-06
2.87525e-06
2.87523e-06
2.87524e-06
2.87524e-06
2.87524e-06
2.87524e-06
2.87523e-06
2.87525e-06
2.87523e-06
2.87525e-06
2.87523e-06
2.87526e-06
2.87522e-06
2.87528e-06
2.87523e-06
2.87531e-06
2.87526e-06
2.87539e-06
2.87532e-06
2.87553e-06
2.87545e-06
2.87579e-06
2.87564e-06
2.87595e-06
2.87512e-06
2.87378e-06
2.86995e-06
2.8623e-06
2.85393e-06
)
;
    }
}


// ************************************************************************* //
