/*--------------------------------*- C++ -*----------------------------------*\
| =========                 |                                                 |
| \\      /  F ield         | OpenFOAM: The Open Source CFD Toolbox           |
|  \\    /   O peration     | Version:  dev                                   |
|   \\  /    A nd           | Web:      www.OpenFOAM.org                      |
|    \\/     M anipulation  |                                                 |
\*---------------------------------------------------------------------------*/
FoamFile
{
    version     2.0;
    format      ascii;
    class       volScalarField;
    location    "0.095";
    object      C5H5O;
}
// * * * * * * * * * * * * * * * * * * * * * * * * * * * * * * * * * * * * * //

dimensions      [0 0 0 0 0 0 0];

internalField   nonuniform List<scalar> 
2000
(
1.46947e-06
1.46846e-06
1.46864e-06
1.46849e-06
1.46853e-06
1.46844e-06
1.46847e-06
1.46843e-06
1.46846e-06
1.46843e-06
1.46845e-06
1.46844e-06
1.46845e-06
1.46844e-06
1.46845e-06
1.46844e-06
1.46845e-06
1.46845e-06
1.46845e-06
1.46845e-06
1.46845e-06
1.46845e-06
1.46845e-06
1.46845e-06
1.46845e-06
1.46845e-06
1.46845e-06
1.46845e-06
1.46845e-06
1.46845e-06
1.46845e-06
1.46845e-06
1.46845e-06
1.46845e-06
1.46844e-06
1.46845e-06
1.46844e-06
1.46845e-06
1.46844e-06
1.46845e-06
1.46843e-06
1.46846e-06
1.46843e-06
1.46847e-06
1.46844e-06
1.46853e-06
1.46849e-06
1.46864e-06
1.46846e-06
1.46947e-06
7.18839e-07
7.17712e-07
7.16881e-07
7.16412e-07
7.16307e-07
7.16211e-07
7.16224e-07
7.16192e-07
7.16213e-07
7.16196e-07
7.16212e-07
7.162e-07
7.16211e-07
7.16204e-07
7.16211e-07
7.16206e-07
7.16211e-07
7.16207e-07
7.1621e-07
7.16208e-07
7.1621e-07
7.16209e-07
7.1621e-07
7.16209e-07
7.16209e-07
7.16209e-07
7.16209e-07
7.1621e-07
7.16209e-07
7.1621e-07
7.16208e-07
7.1621e-07
7.16207e-07
7.16211e-07
7.16206e-07
7.16211e-07
7.16204e-07
7.16211e-07
7.162e-07
7.16212e-07
7.16196e-07
7.16213e-07
7.16192e-07
7.16224e-07
7.16211e-07
7.16307e-07
7.16412e-07
7.16882e-07
7.17712e-07
7.18839e-07
2.88823e-07
2.88446e-07
2.8815e-07
2.87972e-07
2.87911e-07
2.87884e-07
2.87877e-07
2.87874e-07
2.87874e-07
2.87874e-07
2.87875e-07
2.87875e-07
2.87876e-07
2.87875e-07
2.87876e-07
2.87876e-07
2.87876e-07
2.87876e-07
2.87876e-07
2.87876e-07
2.87876e-07
2.87876e-07
2.87876e-07
2.87876e-07
2.87876e-07
2.87876e-07
2.87876e-07
2.87876e-07
2.87876e-07
2.87876e-07
2.87876e-07
2.87876e-07
2.87876e-07
2.87876e-07
2.87876e-07
2.87876e-07
2.87875e-07
2.87876e-07
2.87875e-07
2.87875e-07
2.87874e-07
2.87874e-07
2.87874e-07
2.87878e-07
2.87884e-07
2.87911e-07
2.87972e-07
2.8815e-07
2.88446e-07
2.88823e-07
1.19787e-07
1.19684e-07
1.19612e-07
1.19554e-07
1.19522e-07
1.19518e-07
1.19509e-07
1.19513e-07
1.19509e-07
1.19512e-07
1.19509e-07
1.19512e-07
1.1951e-07
1.19511e-07
1.1951e-07
1.19511e-07
1.19511e-07
1.19511e-07
1.19511e-07
1.19511e-07
1.19511e-07
1.19511e-07
1.19511e-07
1.19511e-07
1.19511e-07
1.19511e-07
1.19511e-07
1.19511e-07
1.19511e-07
1.19511e-07
1.19511e-07
1.19511e-07
1.19511e-07
1.19511e-07
1.19511e-07
1.1951e-07
1.19511e-07
1.1951e-07
1.19512e-07
1.19509e-07
1.19512e-07
1.19508e-07
1.19513e-07
1.19509e-07
1.19518e-07
1.19522e-07
1.19554e-07
1.19612e-07
1.19684e-07
1.19787e-07
5.12923e-08
5.12733e-08
5.12716e-08
5.12555e-08
5.12387e-08
5.12409e-08
5.1234e-08
5.1238e-08
5.12341e-08
5.12373e-08
5.12347e-08
5.12369e-08
5.12352e-08
5.12366e-08
5.12355e-08
5.12365e-08
5.12357e-08
5.12364e-08
5.12359e-08
5.12362e-08
5.1236e-08
5.12362e-08
5.1236e-08
5.12361e-08
5.12361e-08
5.12361e-08
5.12361e-08
5.1236e-08
5.12362e-08
5.1236e-08
5.12362e-08
5.12359e-08
5.12364e-08
5.12357e-08
5.12365e-08
5.12355e-08
5.12366e-08
5.12352e-08
5.12368e-08
5.12347e-08
5.12372e-08
5.12341e-08
5.1238e-08
5.1234e-08
5.12409e-08
5.12387e-08
5.12555e-08
5.12716e-08
5.12733e-08
5.1292e-08
2.25487e-08
2.25513e-08
2.25654e-08
2.25624e-08
2.25539e-08
2.25565e-08
2.25521e-08
2.2555e-08
2.25523e-08
2.25544e-08
2.25527e-08
2.25542e-08
2.2553e-08
2.25539e-08
2.25532e-08
2.25538e-08
2.25533e-08
2.25537e-08
2.25534e-08
2.25537e-08
2.25535e-08
2.25536e-08
2.25535e-08
2.25536e-08
2.25535e-08
2.25535e-08
2.25536e-08
2.25535e-08
2.25536e-08
2.25535e-08
2.25537e-08
2.25534e-08
2.25537e-08
2.25533e-08
2.25538e-08
2.25531e-08
2.25539e-08
2.2553e-08
2.25541e-08
2.25527e-08
2.25544e-08
2.25523e-08
2.2555e-08
2.25521e-08
2.25564e-08
2.25539e-08
2.25624e-08
2.25654e-08
2.25513e-08
2.25486e-08
1.01455e-08
1.01513e-08
1.01647e-08
1.01652e-08
1.01609e-08
1.01627e-08
1.01602e-08
1.0162e-08
1.01603e-08
1.01616e-08
1.01605e-08
1.01614e-08
1.01607e-08
1.01613e-08
1.01608e-08
1.01612e-08
1.01609e-08
1.01612e-08
1.0161e-08
1.01611e-08
1.0161e-08
1.01611e-08
1.0161e-08
1.01611e-08
1.0161e-08
1.0161e-08
1.01611e-08
1.0161e-08
1.01611e-08
1.0161e-08
1.01611e-08
1.0161e-08
1.01612e-08
1.01609e-08
1.01612e-08
1.01608e-08
1.01613e-08
1.01607e-08
1.01614e-08
1.01605e-08
1.01616e-08
1.01603e-08
1.0162e-08
1.01602e-08
1.01627e-08
1.01609e-08
1.01652e-08
1.01647e-08
1.01512e-08
1.01454e-08
4.67674e-09
4.68119e-09
4.6907e-09
4.69167e-09
4.6895e-09
4.69065e-09
4.68921e-09
4.69023e-09
4.68928e-09
4.69004e-09
4.68941e-09
4.68993e-09
4.68951e-09
4.68984e-09
4.68957e-09
4.6898e-09
4.6896e-09
4.68977e-09
4.68965e-09
4.68974e-09
4.68967e-09
4.68973e-09
4.68968e-09
4.68971e-09
4.6897e-09
4.6897e-09
4.68971e-09
4.68968e-09
4.68973e-09
4.68967e-09
4.68974e-09
4.68965e-09
4.68977e-09
4.6896e-09
4.6898e-09
4.68957e-09
4.68984e-09
4.68951e-09
4.68992e-09
4.68941e-09
4.69004e-09
4.68928e-09
4.69023e-09
4.6892e-09
4.69064e-09
4.68949e-09
4.69166e-09
4.69069e-09
4.68119e-09
4.6767e-09
2.21278e-09
2.21557e-09
2.22154e-09
2.22231e-09
2.2212e-09
2.22186e-09
2.22106e-09
2.22163e-09
2.2211e-09
2.22152e-09
2.22117e-09
2.22146e-09
2.22123e-09
2.22141e-09
2.22126e-09
2.22139e-09
2.22127e-09
2.22137e-09
2.2213e-09
2.22136e-09
2.22131e-09
2.22135e-09
2.22132e-09
2.22134e-09
2.22133e-09
2.22133e-09
2.22134e-09
2.22132e-09
2.22135e-09
2.22131e-09
2.22136e-09
2.2213e-09
2.22137e-09
2.22127e-09
2.22139e-09
2.22126e-09
2.22141e-09
2.22123e-09
2.22146e-09
2.22117e-09
2.22152e-09
2.2211e-09
2.22163e-09
2.22106e-09
2.22185e-09
2.22119e-09
2.2223e-09
2.22154e-09
2.21557e-09
2.21276e-09
1.08595e-09
1.08755e-09
1.09114e-09
1.09163e-09
1.09105e-09
1.09142e-09
1.09097e-09
1.09129e-09
1.09099e-09
1.09123e-09
1.09103e-09
1.09119e-09
1.09106e-09
1.09117e-09
1.09108e-09
1.09115e-09
1.09109e-09
1.09114e-09
1.09111e-09
1.09114e-09
1.09111e-09
1.09113e-09
1.09112e-09
1.09112e-09
1.09112e-09
1.09112e-09
1.09112e-09
1.09112e-09
1.09113e-09
1.09111e-09
1.09114e-09
1.09111e-09
1.09114e-09
1.09109e-09
1.09115e-09
1.09108e-09
1.09117e-09
1.09106e-09
1.09119e-09
1.09103e-09
1.09123e-09
1.09099e-09
1.09129e-09
1.09097e-09
1.09142e-09
1.09105e-09
1.09163e-09
1.09114e-09
1.08756e-09
1.08594e-09
5.57785e-10
5.58714e-10
5.60891e-10
5.61195e-10
5.60872e-10
5.61082e-10
5.60823e-10
5.61008e-10
5.60832e-10
5.6097e-10
5.60855e-10
5.6095e-10
5.60873e-10
5.60933e-10
5.60885e-10
5.60926e-10
5.6089e-10
5.60921e-10
5.60898e-10
5.60916e-10
5.60902e-10
5.60913e-10
5.60904e-10
5.60909e-10
5.60907e-10
5.60907e-10
5.60909e-10
5.60904e-10
5.60913e-10
5.60902e-10
5.60916e-10
5.60898e-10
5.60921e-10
5.6089e-10
5.60927e-10
5.60884e-10
5.60933e-10
5.60873e-10
5.60948e-10
5.60855e-10
5.6097e-10
5.60831e-10
5.61007e-10
5.60823e-10
5.61081e-10
5.60871e-10
5.61194e-10
5.60891e-10
5.58714e-10
5.5778e-10
2.94353e-10
2.94816e-10
2.95986e-10
2.96125e-10
2.95938e-10
2.96044e-10
2.959e-10
2.95999e-10
2.95902e-10
2.95978e-10
2.95915e-10
2.95967e-10
2.95926e-10
2.95959e-10
2.95932e-10
2.95955e-10
2.95935e-10
2.95952e-10
2.9594e-10
2.95949e-10
2.95942e-10
2.95948e-10
2.95943e-10
2.95946e-10
2.95945e-10
2.95945e-10
2.95946e-10
2.95943e-10
2.95948e-10
2.95942e-10
2.95949e-10
2.9594e-10
2.95952e-10
2.95935e-10
2.95955e-10
2.95932e-10
2.95959e-10
2.95926e-10
2.95966e-10
2.95915e-10
2.95978e-10
2.95902e-10
2.95999e-10
2.959e-10
2.96044e-10
2.95938e-10
2.96124e-10
2.95986e-10
2.94817e-10
2.94351e-10
1.66574e-10
1.66907e-10
1.67682e-10
1.6778e-10
1.67658e-10
1.67725e-10
1.67629e-10
1.67694e-10
1.6763e-10
1.6768e-10
1.67638e-10
1.67672e-10
1.67645e-10
1.67667e-10
1.6765e-10
1.67665e-10
1.67652e-10
1.67663e-10
1.67655e-10
1.67661e-10
1.67656e-10
1.6766e-10
1.67657e-10
1.67659e-10
1.67658e-10
1.67658e-10
1.67659e-10
1.67657e-10
1.6766e-10
1.67656e-10
1.67661e-10
1.67655e-10
1.67663e-10
1.67652e-10
1.67665e-10
1.67649e-10
1.67667e-10
1.67645e-10
1.67672e-10
1.67638e-10
1.6768e-10
1.6763e-10
1.67694e-10
1.67629e-10
1.67725e-10
1.67658e-10
1.6778e-10
1.67682e-10
1.66907e-10
1.66573e-10
9.9113e-11
9.91485e-11
9.95016e-11
9.95195e-11
9.94657e-11
9.9492e-11
9.9448e-11
9.94768e-11
9.94472e-11
9.94698e-11
9.9451e-11
9.94664e-11
9.94541e-11
9.94639e-11
9.9456e-11
9.94628e-11
9.94569e-11
9.9462e-11
9.94583e-11
9.94612e-11
9.9459e-11
9.94607e-11
9.94594e-11
9.94602e-11
9.94598e-11
9.94598e-11
9.94602e-11
9.94594e-11
9.94607e-11
9.9459e-11
9.94612e-11
9.94583e-11
9.9462e-11
9.94569e-11
9.94629e-11
9.94559e-11
9.94639e-11
9.94541e-11
9.94662e-11
9.9451e-11
9.94698e-11
9.94472e-11
9.94767e-11
9.94481e-11
9.94919e-11
9.94657e-11
9.95194e-11
9.95017e-11
9.91487e-11
9.91127e-11
6.09092e-11
6.09252e-11
6.11389e-11
6.11441e-11
6.11075e-11
6.1122e-11
6.10935e-11
6.11113e-11
6.10925e-11
6.11068e-11
6.10949e-11
6.11047e-11
6.1097e-11
6.11032e-11
6.10983e-11
6.11026e-11
6.10989e-11
6.11021e-11
6.10998e-11
6.11016e-11
6.11002e-11
6.11013e-11
6.11005e-11
6.1101e-11
6.11008e-11
6.11008e-11
6.1101e-11
6.11005e-11
6.11013e-11
6.11002e-11
6.11016e-11
6.10998e-11
6.11021e-11
6.10989e-11
6.11026e-11
6.10982e-11
6.11033e-11
6.1097e-11
6.11046e-11
6.1095e-11
6.11068e-11
6.10925e-11
6.11112e-11
6.10935e-11
6.1122e-11
6.11075e-11
6.1144e-11
6.11389e-11
6.09253e-11
6.0909e-11
3.95642e-11
3.95801e-11
3.9729e-11
3.97328e-11
3.97069e-11
3.97164e-11
3.9696e-11
3.97085e-11
3.96952e-11
3.97053e-11
3.9697e-11
3.97039e-11
3.96985e-11
3.97029e-11
3.96994e-11
3.97025e-11
3.96999e-11
3.97022e-11
3.97005e-11
3.97018e-11
3.97008e-11
3.97016e-11
3.9701e-11
3.97014e-11
3.97012e-11
3.97012e-11
3.97014e-11
3.9701e-11
3.97016e-11
3.97008e-11
3.97018e-11
3.97005e-11
3.97021e-11
3.96999e-11
3.97025e-11
3.96994e-11
3.97029e-11
3.96985e-11
3.97038e-11
3.9697e-11
3.97053e-11
3.96952e-11
3.97085e-11
3.96961e-11
3.97164e-11
3.97069e-11
3.97328e-11
3.9729e-11
3.95801e-11
3.95642e-11
2.62004e-11
2.62329e-11
2.63585e-11
2.63748e-11
2.6361e-11
2.637e-11
2.63549e-11
2.63643e-11
2.6354e-11
2.63615e-11
2.63551e-11
2.63602e-11
2.63561e-11
2.63594e-11
2.63567e-11
2.6359e-11
2.6357e-11
2.63587e-11
2.63575e-11
2.63585e-11
2.63577e-11
2.63583e-11
2.63578e-11
2.63581e-11
2.6358e-11
2.6358e-11
2.63581e-11
2.63578e-11
2.63583e-11
2.63577e-11
2.63585e-11
2.63575e-11
2.63587e-11
2.6357e-11
2.6359e-11
2.63567e-11
2.63594e-11
2.63561e-11
2.63602e-11
2.63551e-11
2.63615e-11
2.6354e-11
2.63643e-11
2.63549e-11
2.637e-11
2.6361e-11
2.63748e-11
2.63586e-11
2.62329e-11
2.62004e-11
1.80206e-11
1.80504e-11
1.8144e-11
1.81577e-11
1.81485e-11
1.81551e-11
1.81441e-11
1.81509e-11
1.81433e-11
1.81488e-11
1.81441e-11
1.81478e-11
1.81448e-11
1.81472e-11
1.81453e-11
1.8147e-11
1.81455e-11
1.81468e-11
1.81458e-11
1.81466e-11
1.8146e-11
1.81464e-11
1.81461e-11
1.81463e-11
1.81462e-11
1.81462e-11
1.81463e-11
1.81461e-11
1.81464e-11
1.8146e-11
1.81466e-11
1.81458e-11
1.81467e-11
1.81455e-11
1.8147e-11
1.81453e-11
1.81472e-11
1.81448e-11
1.81478e-11
1.81441e-11
1.81488e-11
1.81433e-11
1.81509e-11
1.81441e-11
1.81551e-11
1.81485e-11
1.81577e-11
1.8144e-11
1.80504e-11
1.80206e-11
1.24831e-11
1.25215e-11
1.26058e-11
1.2624e-11
1.26171e-11
1.26237e-11
1.26141e-11
1.26201e-11
1.26135e-11
1.26183e-11
1.26142e-11
1.26175e-11
1.26148e-11
1.2617e-11
1.26152e-11
1.26167e-11
1.26154e-11
1.26166e-11
1.26157e-11
1.26164e-11
1.26159e-11
1.26163e-11
1.2616e-11
1.26162e-11
1.26161e-11
1.26161e-11
1.26162e-11
1.2616e-11
1.26163e-11
1.26159e-11
1.26164e-11
1.26157e-11
1.26165e-11
1.26155e-11
1.26167e-11
1.26152e-11
1.2617e-11
1.26148e-11
1.26175e-11
1.26142e-11
1.26183e-11
1.26135e-11
1.26201e-11
1.26141e-11
1.26237e-11
1.26172e-11
1.2624e-11
1.26058e-11
1.25215e-11
1.24831e-11
8.75492e-12
8.78923e-12
8.85196e-12
8.86652e-12
8.86174e-12
8.86661e-12
8.85945e-12
8.86392e-12
8.85899e-12
8.86254e-12
8.85951e-12
8.86196e-12
8.85998e-12
8.86157e-12
8.86029e-12
8.8614e-12
8.86045e-12
8.86127e-12
8.86067e-12
8.86115e-12
8.86078e-12
8.86106e-12
8.86084e-12
8.86099e-12
8.86092e-12
8.86092e-12
8.86099e-12
8.86084e-12
8.86106e-12
8.86078e-12
8.86115e-12
8.86067e-12
8.86127e-12
8.86046e-12
8.8614e-12
8.86028e-12
8.86158e-12
8.85999e-12
8.86195e-12
8.85952e-12
8.86254e-12
8.85899e-12
8.86391e-12
8.85946e-12
8.8666e-12
8.86175e-12
8.86652e-12
8.85196e-12
8.78924e-12
8.75492e-12
6.27894e-12
6.31273e-12
6.36233e-12
6.37495e-12
6.37165e-12
6.37556e-12
6.36998e-12
6.37347e-12
6.36963e-12
6.37239e-12
6.37003e-12
6.37194e-12
6.3704e-12
6.37165e-12
6.37064e-12
6.37151e-12
6.37077e-12
6.37141e-12
6.37094e-12
6.37132e-12
6.37103e-12
6.37125e-12
6.37108e-12
6.37119e-12
6.37114e-12
6.37114e-12
6.37119e-12
6.37108e-12
6.37125e-12
6.37103e-12
6.37132e-12
6.37094e-12
6.37141e-12
6.37077e-12
6.37151e-12
6.37064e-12
6.37165e-12
6.37041e-12
6.37194e-12
6.37004e-12
6.3724e-12
6.36963e-12
6.37347e-12
6.36999e-12
6.37555e-12
6.37165e-12
6.37495e-12
6.36233e-12
6.31274e-12
6.27894e-12
4.54597e-12
4.58108e-12
4.6208e-12
4.63173e-12
4.62937e-12
4.63254e-12
4.62813e-12
4.6309e-12
4.62786e-12
4.63005e-12
4.62819e-12
4.62971e-12
4.62849e-12
4.62948e-12
4.62869e-12
4.62937e-12
4.62879e-12
4.6293e-12
4.62893e-12
4.62923e-12
4.62899e-12
4.62917e-12
4.62904e-12
4.62913e-12
4.62909e-12
4.62909e-12
4.62913e-12
4.62904e-12
4.62917e-12
4.629e-12
4.62923e-12
4.62893e-12
4.6293e-12
4.62879e-12
4.62938e-12
4.62868e-12
4.62948e-12
4.62849e-12
4.6297e-12
4.6282e-12
4.63006e-12
4.62785e-12
4.6309e-12
4.62813e-12
4.63254e-12
4.62937e-12
4.63173e-12
4.62081e-12
4.58108e-12
4.54597e-12
3.31854e-12
3.32173e-12
3.34947e-12
3.35768e-12
3.35674e-12
3.35917e-12
3.35613e-12
3.35805e-12
3.35586e-12
3.35735e-12
3.35601e-12
3.35704e-12
3.35617e-12
3.35684e-12
3.35627e-12
3.35674e-12
3.35633e-12
3.35668e-12
3.35641e-12
3.35662e-12
3.35645e-12
3.35658e-12
3.35648e-12
3.35654e-12
3.35652e-12
3.35652e-12
3.35654e-12
3.35648e-12
3.35658e-12
3.35645e-12
3.35662e-12
3.35641e-12
3.35668e-12
3.35633e-12
3.35674e-12
3.35627e-12
3.35684e-12
3.35617e-12
3.35703e-12
3.35601e-12
3.35735e-12
3.35586e-12
3.35804e-12
3.35613e-12
3.35916e-12
3.35674e-12
3.35768e-12
3.34947e-12
3.32173e-12
3.31854e-12
2.44217e-12
2.44641e-12
2.46818e-12
2.47501e-12
2.47444e-12
2.4764e-12
2.47402e-12
2.47552e-12
2.47381e-12
2.47497e-12
2.47392e-12
2.47473e-12
2.47404e-12
2.47457e-12
2.47412e-12
2.47449e-12
2.47417e-12
2.47444e-12
2.47423e-12
2.4744e-12
2.47427e-12
2.47436e-12
2.47429e-12
2.47434e-12
2.47432e-12
2.47432e-12
2.47434e-12
2.47429e-12
2.47436e-12
2.47427e-12
2.4744e-12
2.47423e-12
2.47444e-12
2.47417e-12
2.47449e-12
2.47412e-12
2.47457e-12
2.47404e-12
2.47472e-12
2.47393e-12
2.47497e-12
2.4738e-12
2.47552e-12
2.47402e-12
2.47639e-12
2.47444e-12
2.47501e-12
2.46817e-12
2.44641e-12
2.44217e-12
1.78932e-12
1.79435e-12
1.81242e-12
1.81878e-12
1.81868e-12
1.82039e-12
1.81849e-12
1.8197e-12
1.8183e-12
1.81923e-12
1.81837e-12
1.81901e-12
1.81846e-12
1.81888e-12
1.81852e-12
1.81881e-12
1.81855e-12
1.81877e-12
1.81861e-12
1.81874e-12
1.81863e-12
1.81871e-12
1.81865e-12
1.81869e-12
1.81867e-12
1.81867e-12
1.81869e-12
1.81865e-12
1.81871e-12
1.81863e-12
1.81874e-12
1.8186e-12
1.81877e-12
1.81855e-12
1.81882e-12
1.81852e-12
1.81888e-12
1.81846e-12
1.81901e-12
1.81838e-12
1.81923e-12
1.8183e-12
1.8197e-12
1.81849e-12
1.82039e-12
1.81868e-12
1.81878e-12
1.81242e-12
1.79435e-12
1.78932e-12
1.31733e-12
1.32202e-12
1.33592e-12
1.34104e-12
1.34105e-12
1.3424e-12
1.34094e-12
1.34186e-12
1.34079e-12
1.34149e-12
1.34084e-12
1.34133e-12
1.3409e-12
1.34122e-12
1.34095e-12
1.34117e-12
1.34097e-12
1.34114e-12
1.34101e-12
1.34111e-12
1.34103e-12
1.34109e-12
1.34105e-12
1.34108e-12
1.34106e-12
1.34106e-12
1.34108e-12
1.34105e-12
1.34109e-12
1.34103e-12
1.34111e-12
1.34101e-12
1.34114e-12
1.34097e-12
1.34118e-12
1.34095e-12
1.34123e-12
1.3409e-12
1.34133e-12
1.34084e-12
1.34149e-12
1.34079e-12
1.34186e-12
1.34094e-12
1.34239e-12
1.34105e-12
1.34104e-12
1.33592e-12
1.32203e-12
1.31733e-12
9.74315e-13
9.78549e-13
9.89229e-13
9.93335e-13
9.9342e-13
9.94472e-13
9.93351e-13
9.9406e-13
9.93233e-13
9.93772e-13
9.93271e-13
9.93644e-13
9.93317e-13
9.93563e-13
9.9335e-13
9.93524e-13
9.93369e-13
9.93499e-13
9.934e-13
9.93478e-13
9.93415e-13
9.93461e-13
9.93425e-13
9.93448e-13
9.93438e-13
9.93438e-13
9.93448e-13
9.93425e-13
9.93461e-13
9.93416e-13
9.93478e-13
9.934e-13
9.93499e-13
9.93369e-13
9.93525e-13
9.93349e-13
9.93564e-13
9.93318e-13
9.93643e-13
9.93273e-13
9.93773e-13
9.93232e-13
9.94059e-13
9.93352e-13
9.9447e-13
9.93419e-13
9.93334e-13
9.89228e-13
9.7855e-13
9.74316e-13
7.23932e-13
7.27646e-13
7.35863e-13
7.39144e-13
7.39263e-13
7.4009e-13
7.39228e-13
7.39771e-13
7.39134e-13
7.39546e-13
7.3916e-13
7.39446e-13
7.39195e-13
7.39383e-13
7.39218e-13
7.39352e-13
7.39233e-13
7.39333e-13
7.39257e-13
7.39317e-13
7.39268e-13
7.39304e-13
7.39276e-13
7.39294e-13
7.39286e-13
7.39286e-13
7.39294e-13
7.39276e-13
7.39304e-13
7.39269e-13
7.39317e-13
7.39256e-13
7.39333e-13
7.39233e-13
7.39353e-13
7.39218e-13
7.39383e-13
7.39195e-13
7.39445e-13
7.39162e-13
7.39546e-13
7.39134e-13
7.3977e-13
7.39229e-13
7.40088e-13
7.39263e-13
7.39144e-13
7.35863e-13
7.27646e-13
7.23932e-13
5.40445e-13
5.43639e-13
5.49973e-13
5.52586e-13
5.52718e-13
5.53368e-13
5.52704e-13
5.5312e-13
5.5263e-13
5.52944e-13
5.52648e-13
5.52865e-13
5.52672e-13
5.52816e-13
5.5269e-13
5.52793e-13
5.52701e-13
5.52778e-13
5.52719e-13
5.52766e-13
5.52728e-13
5.52755e-13
5.52734e-13
5.52748e-13
5.52741e-13
5.52741e-13
5.52748e-13
5.52734e-13
5.52755e-13
5.52728e-13
5.52766e-13
5.52719e-13
5.52778e-13
5.52701e-13
5.52793e-13
5.5269e-13
5.52817e-13
5.52673e-13
5.52865e-13
5.52649e-13
5.52944e-13
5.52629e-13
5.5312e-13
5.52705e-13
5.53366e-13
5.52718e-13
5.52586e-13
5.49973e-13
5.4364e-13
5.40446e-13
4.05506e-13
4.08214e-13
4.13104e-13
4.1518e-13
4.15313e-13
4.15823e-13
4.15312e-13
4.15631e-13
4.15253e-13
4.15492e-13
4.15264e-13
4.15431e-13
4.15282e-13
4.15393e-13
4.15295e-13
4.15374e-13
4.15303e-13
4.15363e-13
4.15317e-13
4.15353e-13
4.15324e-13
4.15345e-13
4.15328e-13
4.15339e-13
4.15334e-13
4.15334e-13
4.15339e-13
4.15328e-13
4.15345e-13
4.15324e-13
4.15353e-13
4.15317e-13
4.15363e-13
4.15304e-13
4.15374e-13
4.15295e-13
4.15393e-13
4.15282e-13
4.1543e-13
4.15265e-13
4.15493e-13
4.15252e-13
4.15631e-13
4.15312e-13
4.15822e-13
4.15313e-13
4.1518e-13
4.13104e-13
4.08215e-13
4.05506e-13
3.05941e-13
3.08216e-13
3.11996e-13
3.13643e-13
3.13769e-13
3.14171e-13
3.13777e-13
3.14021e-13
3.1373e-13
3.13912e-13
3.13737e-13
3.13864e-13
3.13749e-13
3.13834e-13
3.13759e-13
3.13819e-13
3.13765e-13
3.13811e-13
3.13776e-13
3.13803e-13
3.13781e-13
3.13797e-13
3.13784e-13
3.13792e-13
3.13789e-13
3.13789e-13
3.13793e-13
3.13784e-13
3.13797e-13
3.13781e-13
3.13803e-13
3.13776e-13
3.13811e-13
3.13765e-13
3.1382e-13
3.13759e-13
3.13834e-13
3.1375e-13
3.13864e-13
3.13737e-13
3.13913e-13
3.13729e-13
3.14021e-13
3.13777e-13
3.1417e-13
3.13769e-13
3.13643e-13
3.11995e-13
3.08216e-13
3.05941e-13
2.32245e-13
2.34142e-13
2.37069e-13
2.38377e-13
2.38492e-13
2.38808e-13
2.38504e-13
2.38692e-13
2.38467e-13
2.38606e-13
2.38471e-13
2.38568e-13
2.38479e-13
2.38544e-13
2.38486e-13
2.38533e-13
2.38491e-13
2.38526e-13
2.38499e-13
2.3852e-13
2.38503e-13
2.38515e-13
2.38505e-13
2.38512e-13
2.38509e-13
2.38509e-13
2.38512e-13
2.38505e-13
2.38515e-13
2.38503e-13
2.3852e-13
2.38499e-13
2.38526e-13
2.38491e-13
2.38533e-13
2.38486e-13
2.38544e-13
2.38479e-13
2.38567e-13
2.38471e-13
2.38606e-13
2.38466e-13
2.38692e-13
2.38504e-13
2.38808e-13
2.38492e-13
2.38377e-13
2.37069e-13
2.34142e-13
2.32245e-13
1.77525e-13
1.791e-13
1.81371e-13
1.8241e-13
1.82514e-13
1.82763e-13
1.82528e-13
1.82672e-13
1.82498e-13
1.82604e-13
1.825e-13
1.82574e-13
1.82506e-13
1.82556e-13
1.82511e-13
1.82546e-13
1.82514e-13
1.82541e-13
1.8252e-13
1.82537e-13
1.82523e-13
1.82533e-13
1.82525e-13
1.8253e-13
1.82528e-13
1.82528e-13
1.8253e-13
1.82525e-13
1.82533e-13
1.82523e-13
1.82537e-13
1.8252e-13
1.82541e-13
1.82514e-13
1.82547e-13
1.82511e-13
1.82556e-13
1.82506e-13
1.82574e-13
1.825e-13
1.82605e-13
1.82498e-13
1.82672e-13
1.82528e-13
1.82763e-13
1.82514e-13
1.8241e-13
1.81371e-13
1.791e-13
1.77525e-13
1.36766e-13
1.38069e-13
1.39837e-13
1.40664e-13
1.40755e-13
1.40953e-13
1.40771e-13
1.40881e-13
1.40746e-13
1.40828e-13
1.40746e-13
1.40803e-13
1.4075e-13
1.40789e-13
1.40754e-13
1.40781e-13
1.40756e-13
1.40777e-13
1.40761e-13
1.40774e-13
1.40763e-13
1.40771e-13
1.40765e-13
1.40769e-13
1.40767e-13
1.40767e-13
1.40769e-13
1.40765e-13
1.40771e-13
1.40763e-13
1.40774e-13
1.40761e-13
1.40777e-13
1.40756e-13
1.40781e-13
1.40754e-13
1.40789e-13
1.4075e-13
1.40803e-13
1.40747e-13
1.40828e-13
1.40746e-13
1.40881e-13
1.40771e-13
1.40952e-13
1.40755e-13
1.40664e-13
1.39837e-13
1.38069e-13
1.36766e-13
1.06304e-13
1.07381e-13
1.08762e-13
1.09422e-13
1.09502e-13
1.09658e-13
1.09517e-13
1.09602e-13
1.09497e-13
1.09559e-13
1.09496e-13
1.0954e-13
1.09499e-13
1.09528e-13
1.09501e-13
1.09522e-13
1.09503e-13
1.09519e-13
1.09506e-13
1.09516e-13
1.09508e-13
1.09514e-13
1.09509e-13
1.09512e-13
1.09511e-13
1.09511e-13
1.09512e-13
1.09509e-13
1.09514e-13
1.09508e-13
1.09516e-13
1.09506e-13
1.09519e-13
1.09503e-13
1.09522e-13
1.09501e-13
1.09528e-13
1.09499e-13
1.0954e-13
1.09497e-13
1.09559e-13
1.09497e-13
1.09602e-13
1.09517e-13
1.09658e-13
1.09502e-13
1.09422e-13
1.08762e-13
1.07381e-13
1.06304e-13
8.34565e-14
8.43461e-14
8.54302e-14
8.5958e-14
8.60277e-14
8.61523e-14
8.60426e-14
8.61081e-14
8.60263e-14
8.60736e-14
8.60246e-14
8.60578e-14
8.60259e-14
8.60484e-14
8.60274e-14
8.60438e-14
8.60286e-14
8.60411e-14
8.60314e-14
8.6039e-14
8.60327e-14
8.60372e-14
8.60335e-14
8.60359e-14
8.60348e-14
8.60348e-14
8.60359e-14
8.60335e-14
8.60372e-14
8.60327e-14
8.6039e-14
8.60313e-14
8.60411e-14
8.60286e-14
8.60438e-14
8.60274e-14
8.60485e-14
8.60259e-14
8.60577e-14
8.60248e-14
8.60737e-14
8.60262e-14
8.61081e-14
8.60427e-14
8.61521e-14
8.60277e-14
8.59579e-14
8.54302e-14
8.43461e-14
8.34565e-14
6.62522e-14
6.69874e-14
6.78434e-14
6.82677e-14
6.83283e-14
6.84279e-14
6.83424e-14
6.83929e-14
6.83288e-14
6.8365e-14
6.83266e-14
6.83521e-14
6.83271e-14
6.83445e-14
6.8328e-14
6.83407e-14
6.83288e-14
6.83386e-14
6.83309e-14
6.83369e-14
6.83319e-14
6.83355e-14
6.83325e-14
6.83344e-14
6.83336e-14
6.83335e-14
6.83344e-14
6.83326e-14
6.83355e-14
6.8332e-14
6.83369e-14
6.83309e-14
6.83386e-14
6.83289e-14
6.83407e-14
6.8328e-14
6.83445e-14
6.83271e-14
6.8352e-14
6.83268e-14
6.83651e-14
6.83288e-14
6.83929e-14
6.83424e-14
6.84277e-14
6.83283e-14
6.82676e-14
6.78434e-14
6.69875e-14
6.62523e-14
5.32409e-14
5.38491e-14
5.45299e-14
5.48728e-14
5.49254e-14
5.50054e-14
5.49385e-14
5.49775e-14
5.49272e-14
5.49548e-14
5.49246e-14
5.49441e-14
5.49245e-14
5.49379e-14
5.49249e-14
5.49348e-14
5.49255e-14
5.4933e-14
5.4927e-14
5.49317e-14
5.49278e-14
5.49306e-14
5.49283e-14
5.49297e-14
5.49291e-14
5.49291e-14
5.49297e-14
5.49283e-14
5.49306e-14
5.49278e-14
5.49317e-14
5.4927e-14
5.4933e-14
5.49255e-14
5.49348e-14
5.49249e-14
5.49379e-14
5.49245e-14
5.49441e-14
5.49247e-14
5.49548e-14
5.49271e-14
5.49775e-14
5.49386e-14
5.50053e-14
5.49254e-14
5.48727e-14
5.45299e-14
5.38491e-14
5.32409e-14
4.33522e-14
4.38557e-14
4.44022e-14
4.4681e-14
4.47268e-14
4.47914e-14
4.47389e-14
4.4769e-14
4.47292e-14
4.47503e-14
4.47264e-14
4.47414e-14
4.47259e-14
4.47362e-14
4.4726e-14
4.47336e-14
4.47263e-14
4.47322e-14
4.47275e-14
4.47311e-14
4.47281e-14
4.47302e-14
4.47284e-14
4.47295e-14
4.4729e-14
4.4729e-14
4.47295e-14
4.47284e-14
4.47302e-14
4.47281e-14
4.47311e-14
4.47275e-14
4.47322e-14
4.47263e-14
4.47337e-14
4.4726e-14
4.47363e-14
4.47259e-14
4.47414e-14
4.47265e-14
4.47503e-14
4.47291e-14
4.4769e-14
4.47389e-14
4.47913e-14
4.47268e-14
4.46809e-14
4.44021e-14
4.38557e-14
4.33522e-14
3.57937e-14
3.62133e-14
3.66554e-14
3.68836e-14
3.69237e-14
3.69762e-14
3.69347e-14
3.6958e-14
3.69263e-14
3.69425e-14
3.69234e-14
3.69349e-14
3.69226e-14
3.69306e-14
3.69224e-14
3.69284e-14
3.69226e-14
3.69272e-14
3.69234e-14
3.69263e-14
3.69239e-14
3.69256e-14
3.69241e-14
3.6925e-14
3.69246e-14
3.69246e-14
3.6925e-14
3.69241e-14
3.69256e-14
3.69239e-14
3.69263e-14
3.69234e-14
3.69272e-14
3.69226e-14
3.69284e-14
3.69224e-14
3.69306e-14
3.69226e-14
3.69349e-14
3.69235e-14
3.69425e-14
3.69263e-14
3.6958e-14
3.69347e-14
3.69761e-14
3.69237e-14
3.68835e-14
3.66553e-14
3.62133e-14
3.57937e-14
)
;

boundaryField
{
    fuel
    {
        type            fixedValue;
        value           uniform 0;
    }
    wall
    {
        type            zeroGradient;
    }
    outlet
    {
        type            zeroGradient;
    }
    frontAndBack
    {
        type            empty;
    }
    procBoundary1to0
    {
        type            processor;
        value           nonuniform List<scalar> 
50
(
2.99795e-14
3.03319e-14
3.06925e-14
3.08807e-14
3.0916e-14
3.0959e-14
3.0926e-14
3.09441e-14
3.09186e-14
3.0931e-14
3.09156e-14
3.09245e-14
3.09146e-14
3.09208e-14
3.09143e-14
3.09189e-14
3.09143e-14
3.09179e-14
3.09149e-14
3.09172e-14
3.09152e-14
3.09166e-14
3.09154e-14
3.09161e-14
3.09158e-14
3.09158e-14
3.09161e-14
3.09154e-14
3.09166e-14
3.09153e-14
3.09172e-14
3.09149e-14
3.09179e-14
3.09143e-14
3.09189e-14
3.09143e-14
3.09208e-14
3.09146e-14
3.09245e-14
3.09157e-14
3.0931e-14
3.09186e-14
3.09441e-14
3.0926e-14
3.09589e-14
3.0916e-14
3.08807e-14
3.06925e-14
3.03319e-14
2.99795e-14
)
;
    }
}


// ************************************************************************* //
