/*--------------------------------*- C++ -*----------------------------------*\
| =========                 |                                                 |
| \\      /  F ield         | OpenFOAM: The Open Source CFD Toolbox           |
|  \\    /   O peration     | Version:  dev                                   |
|   \\  /    A nd           | Web:      www.OpenFOAM.org                      |
|    \\/     M anipulation  |                                                 |
\*---------------------------------------------------------------------------*/
FoamFile
{
    version     2.0;
    format      ascii;
    class       volScalarField;
    location    "0.095";
    object      CH2;
}
// * * * * * * * * * * * * * * * * * * * * * * * * * * * * * * * * * * * * * //

dimensions      [0 0 0 0 0 0 0];

internalField   nonuniform List<scalar> 
250
(
2.85354e-08
3.41669e-08
2.83573e-08
2.87847e-08
2.75615e-08
2.56285e-08
2.68024e-08
2.48534e-08
2.63348e-08
2.49356e-08
1.80933e-08
2.14658e-08
1.73173e-08
1.75484e-08
1.67451e-08
1.54827e-08
1.62747e-08
1.49747e-08
1.59731e-08
1.50295e-08
1.53215e-08
1.555e-08
1.53372e-08
1.56898e-08
1.58885e-08
1.59322e-08
1.78695e-08
1.70374e-08
2.02496e-08
1.88077e-08
1.07623e-08
1.26316e-08
9.90981e-09
1.0026e-08
9.54079e-09
8.76454e-09
9.26868e-09
8.455e-09
9.08166e-09
8.48982e-09
8.67311e-09
8.81542e-09
8.68347e-09
8.89536e-09
9.02305e-09
9.05048e-09
1.02284e-08
9.73213e-09
1.18822e-08
1.13144e-08
5.94807e-09
6.89564e-09
5.26192e-09
5.31965e-09
5.05177e-09
4.60405e-09
4.90681e-09
4.42983e-09
4.79153e-09
4.45064e-09
4.55695e-09
4.63882e-09
4.56326e-09
4.68058e-09
4.7535e-09
4.77776e-09
5.43804e-09
5.15539e-09
6.45989e-09
6.28291e-09
3.01374e-09
3.4464e-09
2.55755e-09
2.56376e-09
2.42658e-09
2.21386e-09
2.353e-09
2.12462e-09
2.31391e-09
2.13622e-09
2.1926e-09
2.23557e-09
2.19611e-09
2.25514e-09
2.28872e-09
2.28244e-09
2.63068e-09
2.49886e-09
3.21908e-09
3.17965e-09
1.3562e-09
1.54815e-09
1.11688e-09
1.11712e-09
1.05564e-09
9.56186e-10
1.02325e-09
9.14982e-10
1.00395e-09
9.20822e-10
9.47702e-10
9.67932e-10
9.4946e-10
9.75995e-10
9.90411e-10
9.8873e-10
1.14975e-09
1.0878e-09
1.42171e-09
1.44005e-09
5.37995e-10
6.08408e-10
4.26028e-10
4.2531e-10
4.01187e-10
3.60447e-10
3.88774e-10
3.4375e-10
3.80589e-10
3.4632e-10
3.57543e-10
3.65864e-10
3.58315e-10
3.687e-10
3.74605e-10
3.73988e-10
4.39214e-10
4.1347e-10
5.5524e-10
5.68696e-10
1.79479e-10
2.00751e-10
1.36016e-10
1.35576e-10
1.27597e-10
1.13611e-10
1.23635e-10
1.07922e-10
1.20809e-10
1.08867e-10
1.12797e-10
1.15662e-10
1.13083e-10
1.16472e-10
1.18621e-10
1.18321e-10
1.40534e-10
1.31509e-10
1.81414e-10
1.88055e-10
4.76242e-11
5.24941e-11
3.43556e-11
3.42109e-11
3.21144e-11
2.8349e-11
3.11284e-11
2.6821e-11
3.03794e-11
2.70928e-11
2.81734e-11
2.89466e-11
2.82568e-11
2.91217e-11
2.97501e-11
2.96289e-11
3.55929e-11
3.31024e-11
4.68514e-11
4.91904e-11
9.67964e-12
1.0348e-11
6.60126e-12
6.56923e-12
6.1583e-12
5.4132e-12
5.97837e-12
5.10904e-12
5.8341e-12
5.16625e-12
5.38502e-12
5.53903e-12
5.40312e-12
5.56567e-12
5.70141e-12
5.66831e-12
6.85014e-12
6.34863e-12
9.12398e-12
9.70489e-12
1.58143e-12
1.52477e-12
9.55732e-13
9.47471e-13
8.88963e-13
7.81944e-13
8.65084e-13
7.37836e-13
8.45133e-13
7.46615e-13
7.78647e-13
8.01087e-13
7.81576e-13
8.03754e-13
8.24944e-13
8.19047e-13
9.88585e-13
9.1821e-13
1.32526e-12
1.44357e-12
2.4586e-13
1.61033e-13
9.62578e-14
9.43405e-14
8.88354e-14
7.87972e-14
8.67315e-14
7.46037e-14
8.49407e-14
7.54776e-14
7.85168e-14
8.06811e-14
7.88335e-14
8.08248e-14
8.29575e-14
8.23364e-14
9.82116e-14
9.23356e-14
1.33886e-13
1.60662e-13
7.0276e-14
1.71805e-14
7.28273e-15
6.72579e-15
6.39793e-15
5.77555e-15
6.2667e-15
5.51861e-15
6.15948e-15
5.57464e-15
5.75783e-15
5.89972e-15
5.78176e-15
5.90392e-15
6.03713e-15
6.005e-15
6.96724e-15
6.8882e-15
1.16983e-14
2.45918e-14
)
;

boundaryField
{
    fuel
    {
        type            fixedValue;
        value           nonuniform 0();
    }
    wall
    {
        type            zeroGradient;
    }
    outlet
    {
        type            zeroGradient;
    }
    frontAndBack
    {
        type            empty;
    }
    procBoundary1to0
    {
        type            processor;
        value           nonuniform List<scalar> 
21
(
4.26075e-08
5.13596e-08
4.38198e-08
4.45889e-08
4.28327e-08
4.00537e-08
4.16858e-08
3.8944e-08
4.10012e-08
3.9058e-08
2.53674e-08
2.53674e-08
2.57088e-08
2.53898e-08
2.59341e-08
2.62234e-08
2.62959e-08
2.92608e-08
2.7929e-08
3.22368e-08
2.90902e-08
)
;
    }
}


// ************************************************************************* //
