/*--------------------------------*- C++ -*----------------------------------*\
| =========                 |                                                 |
| \\      /  F ield         | OpenFOAM: The Open Source CFD Toolbox           |
|  \\    /   O peration     | Version:  dev                                   |
|   \\  /    A nd           | Web:      www.OpenFOAM.org                      |
|    \\/     M anipulation  |                                                 |
\*---------------------------------------------------------------------------*/
FoamFile
{
    version     2.0;
    format      ascii;
    class       volScalarField;
    location    "0.095";
    object      CO2;
}
// * * * * * * * * * * * * * * * * * * * * * * * * * * * * * * * * * * * * * //

dimensions      [0 0 0 0 0 0 0];

internalField   nonuniform List<scalar> 
250
(
0.0485437
0.0480339
0.0477608
0.0476191
0.0475867
0.047602
0.0475839
0.0476121
0.0475933
0.047614
0.0485434
0.0481013
0.0478646
0.0477438
0.0477142
0.0477269
0.0477115
0.0477355
0.0477197
0.0477375
0.0477317
0.0477247
0.0477281
0.0477204
0.0477194
0.0477286
0.0477349
0.0478492
0.0480521
0.048365
0.0485298
0.0481504
0.0479447
0.0478425
0.0478155
0.0478254
0.0478127
0.0478323
0.0478199
0.0478346
0.0478298
0.0478235
0.0478263
0.0478197
0.0478191
0.0478269
0.047835
0.0479327
0.0481104
0.0483829
0.0485027
0.0481802
0.0480014
0.0479155
0.0478909
0.0478983
0.0478882
0.0479037
0.0478944
0.0479061
0.0479023
0.0478968
0.0478989
0.0478935
0.0478931
0.0478995
0.0479093
0.047992
0.0481487
0.0483855
0.0484635
0.0481915
0.0480367
0.0479657
0.0479437
0.0479483
0.0479413
0.0479524
0.0479459
0.0479548
0.047952
0.0479472
0.0479487
0.0479442
0.0479442
0.0479499
0.0479606
0.0480296
0.0481676
0.0483728
0.0484138
0.0481873
0.0480545
0.047996
0.0479765
0.0479793
0.0479743
0.0479825
0.0479782
0.0479849
0.0479829
0.0479786
0.0479797
0.047976
0.0479762
0.0479807
0.0479919
0.0480491
0.0481698
0.0483467
0.0483591
0.0481716
0.0480592
0.0480115
0.0479946
0.0479962
0.0479927
0.0479986
0.047996
0.048001
0.0479996
0.0479958
0.0479965
0.0479934
0.0479937
0.0479972
0.0480081
0.0480552
0.0481594
0.0483107
0.0483027
0.0481488
0.0480556
0.048017
0.0480028
0.0480035
0.0480012
0.0480054
0.048004
0.0480078
0.0480068
0.0480035
0.0480039
0.0480013
0.0480015
0.0480042
0.0480143
0.0480526
0.048141
0.0482691
0.0482482
0.0481234
0.0480478
0.0480169
0.0480052
0.0480054
0.0480039
0.048007
0.0480063
0.0480093
0.0480086
0.0480056
0.0480059
0.0480036
0.0480038
0.0480058
0.0480146
0.0480455
0.048119
0.0482262
0.0481991
0.0480989
0.0480389
0.0480143
0.048005
0.0480048
0.048004
0.0480062
0.048006
0.0480084
0.0480079
0.0480052
0.0480054
0.0480034
0.0480035
0.048005
0.0480125
0.048037
0.0480969
0.0481856
0.0481573
0.0480776
0.0480307
0.0480112
0.0480038
0.0480035
0.0480031
0.0480047
0.0480048
0.0480069
0.0480065
0.0480041
0.0480041
0.0480024
0.0480024
0.0480035
0.0480097
0.0480291
0.0480772
0.0481499
0.0481248
0.0480608
0.0480241
0.0480084
0.0480026
0.0480021
0.048002
0.0480033
0.0480035
0.0480053
0.0480051
0.0480029
0.0480028
0.0480013
0.0480013
0.048002
0.0480072
0.0480227
0.0480614
0.0481214
0.0481042
0.0480501
0.0480198
0.0480064
0.0480017
0.0480011
0.0480013
0.0480022
0.0480026
0.0480043
0.0480041
0.048002
0.0480018
0.0480005
0.0480004
0.048001
0.0480054
0.0480185
0.0480511
0.0481029
)
;

boundaryField
{
    fuel
    {
        type            fixedValue;
        value           nonuniform 0();
    }
    wall
    {
        type            zeroGradient;
    }
    outlet
    {
        type            zeroGradient;
    }
    frontAndBack
    {
        type            empty;
    }
    procBoundary1to0
    {
        type            processor;
        value           nonuniform List<scalar> 
21
(
0.0485324
0.0479515
0.0476354
0.0474707
0.0474347
0.0474522
0.0474317
0.0474636
0.0474422
0.0474653
0.0476073
0.0476073
0.0475995
0.0476035
0.0475946
0.0475934
0.0476039
0.0476089
0.0477414
0.0479755
0.0483342
)
;
    }
}


// ************************************************************************* //
