/*--------------------------------*- C++ -*----------------------------------*\
| =========                 |                                                 |
| \\      /  F ield         | OpenFOAM: The Open Source CFD Toolbox           |
|  \\    /   O peration     | Version:  dev                                   |
|   \\  /    A nd           | Web:      www.OpenFOAM.org                      |
|    \\/     M anipulation  |                                                 |
\*---------------------------------------------------------------------------*/
FoamFile
{
    version     2.0;
    format      ascii;
    class       volScalarField;
    location    "0.095";
    object      O;
}
// * * * * * * * * * * * * * * * * * * * * * * * * * * * * * * * * * * * * * //

dimensions      [0 0 0 0 0 0 0];

internalField   nonuniform List<scalar> 
250
(
1.42328e-09
1.7215e-09
1.79416e-09
1.81659e-09
1.6724e-09
1.65564e-09
1.65333e-09
1.60839e-09
1.63938e-09
1.60498e-09
8.68621e-10
9.94022e-10
1.0027e-09
1.00777e-09
9.20586e-10
9.10762e-10
9.10029e-10
8.83205e-10
9.01963e-10
8.81063e-10
8.65801e-10
9.21318e-10
8.47199e-10
9.64918e-10
8.31332e-10
1.09218e-09
8.20194e-10
1.37426e-09
7.96855e-10
1.26321e-09
4.89489e-10
5.3269e-10
5.21797e-10
5.2128e-10
4.72498e-10
4.67435e-10
4.67382e-10
4.52549e-10
4.63074e-10
4.51282e-10
4.42705e-10
4.73611e-10
4.32281e-10
4.97096e-10
4.23452e-10
5.65991e-10
4.18077e-10
7.31292e-10
4.22866e-10
7.49672e-10
2.52818e-10
2.62852e-10
2.50825e-10
2.49519e-10
2.24265e-10
2.22203e-10
2.2236e-10
2.14817e-10
2.20244e-10
2.14124e-10
2.0969e-10
2.2549e-10
2.04308e-10
2.37066e-10
1.99771e-10
2.71064e-10
1.97051e-10
3.59164e-10
2.0703e-10
4.10101e-10
1.1845e-10
1.17967e-10
1.09924e-10
1.08141e-10
9.70988e-11
9.50944e-11
9.52009e-11
9.16786e-11
9.42775e-11
9.13186e-11
8.92716e-11
9.6648e-11
8.6791e-11
1.01929e-10
8.47651e-11
1.18092e-10
8.40576e-11
1.60734e-10
9.10729e-11
2.04451e-10
4.86087e-11
4.71582e-11
4.29862e-11
4.20883e-11
3.75096e-11
3.66844e-11
3.67564e-11
3.52984e-11
3.63937e-11
3.51366e-11
3.42818e-11
3.73522e-11
3.32471e-11
3.94683e-11
3.24139e-11
4.59991e-11
3.21186e-11
6.42363e-11
3.60717e-11
9.16195e-11
1.73252e-11
1.6206e-11
1.44571e-11
1.40869e-11
1.24485e-11
1.21576e-11
1.2194e-11
1.16727e-11
1.20719e-11
1.1611e-11
1.13018e-11
1.24104e-11
1.09286e-11
1.3145e-11
1.06317e-11
1.54316e-11
1.05264e-11
2.21491e-11
1.22812e-11
3.51961e-11
5.02004e-12
4.5119e-12
3.93542e-12
3.81362e-12
3.33686e-12
3.25319e-12
3.26719e-12
3.11537e-12
3.23395e-12
3.09667e-12
3.0052e-12
3.33299e-12
2.89543e-12
3.54219e-12
2.809e-12
4.19796e-12
2.77842e-12
6.21941e-12
3.39556e-12
1.15928e-11
1.09103e-12
9.31614e-13
7.92873e-13
7.63318e-13
6.60769e-13
6.4282e-13
6.46661e-13
6.13904e-13
6.39957e-13
6.09832e-13
5.89637e-13
6.61848e-13
5.65641e-13
7.06465e-13
5.46914e-13
8.46927e-13
5.40311e-13
1.30118e-12
7.10078e-13
3.14144e-12
1.72571e-13
1.32457e-13
1.08792e-13
1.03784e-13
8.91385e-14
8.65427e-14
8.72199e-14
8.25088e-14
8.6303e-14
8.1931e-14
7.89369e-14
8.95699e-14
7.54208e-14
9.59723e-14
7.27057e-14
1.16114e-13
7.18165e-14
1.84926e-13
1.14327e-13
7.84099e-13
3.19058e-14
1.57764e-14
1.07999e-14
9.92289e-15
8.54951e-15
8.30234e-15
8.37148e-15
7.93511e-15
8.29001e-15
7.87746e-15
7.59731e-15
8.59305e-15
7.27066e-15
9.17674e-15
7.02645e-15
1.10105e-14
7.00721e-15
1.84713e-14
2.27602e-14
2.80125e-13
1.95649e-14
5.63277e-15
2.18951e-15
1.70108e-15
1.51876e-15
1.49156e-15
1.49352e-15
1.4476e-15
1.48867e-15
1.43347e-15
1.41061e-15
1.50057e-15
1.38405e-15
1.5442e-15
1.36972e-15
1.69547e-15
1.41295e-15
3.03962e-15
1.00422e-14
1.50669e-13
2.43934e-14
6.38584e-15
1.99832e-15
1.40671e-15
1.25947e-15
1.24262e-15
1.23884e-15
1.20935e-15
1.24036e-15
1.19347e-15
1.18528e-15
1.23131e-15
1.17591e-15
1.24395e-15
1.17662e-15
1.30959e-15
1.22372e-15
2.19898e-15
7.51397e-15
1.05001e-13
)
;

boundaryField
{
    fuel
    {
        type            fixedValue;
        value           nonuniform 0();
    }
    wall
    {
        type            zeroGradient;
    }
    outlet
    {
        type            zeroGradient;
    }
    frontAndBack
    {
        type            empty;
    }
    procBoundary1to0
    {
        type            processor;
        value           nonuniform List<scalar> 
21
(
2.16494e-09
2.78061e-09
3.00663e-09
3.06939e-09
2.84917e-09
2.82326e-09
2.81812e-09
2.7481e-09
2.79558e-09
2.74312e-09
1.57988e-09
1.57988e-09
1.67262e-09
1.54892e-09
1.74754e-09
1.52249e-09
1.96401e-09
1.50089e-09
2.39839e-09
1.39934e-09
1.96866e-09
)
;
    }
}


// ************************************************************************* //
