/*--------------------------------*- C++ -*----------------------------------*\
| =========                 |                                                 |
| \\      /  F ield         | OpenFOAM: The Open Source CFD Toolbox           |
|  \\    /   O peration     | Version:  dev                                   |
|   \\  /    A nd           | Web:      www.OpenFOAM.org                      |
|    \\/     M anipulation  |                                                 |
\*---------------------------------------------------------------------------*/
FoamFile
{
    version     2.0;
    format      ascii;
    class       volScalarField;
    location    "0.095";
    object      O2;
}
// * * * * * * * * * * * * * * * * * * * * * * * * * * * * * * * * * * * * * //

dimensions      [0 0 0 0 0 0 0];

internalField   nonuniform List<scalar> 
25
(
4.48096e-06
4.10053e-06
3.74387e-06
3.41151e-06
3.10284e-06
2.8226e-06
2.56352e-06
2.32481e-06
2.10546e-06
1.90437e-06
1.72038e-06
1.55232e-06
1.39907e-06
1.25957e-06
1.13286e-06
1.01662e-06
9.10212e-07
8.15982e-07
7.30692e-07
6.53603e-07
5.84014e-07
5.21259e-07
4.64636e-07
4.13689e-07
3.67679e-07
)
;

boundaryField
{
    wall
    {
        type            zeroGradient;
    }
    fuel
    {
        type            fixedValue;
        value           nonuniform 0();
    }
    outlet
    {
        type            inletOutlet;
        inletValue      nonuniform 0();
        value           nonuniform 0();
    }
    procBoundary1to0
    {
        type            processor;
        value           uniform 4.8956e-06;
    }
    procBoundary1to2
    {
        type            processor;
        value           uniform 3.26589e-07;
    }
}


// ************************************************************************* //
