/*--------------------------------*- C++ -*----------------------------------*\
| =========                 |                                                 |
| \\      /  F ield         | OpenFOAM: The Open Source CFD Toolbox           |
|  \\    /   O peration     | Version:  dev                                   |
|   \\  /    A nd           | Web:      www.OpenFOAM.org                      |
|    \\/     M anipulation  |                                                 |
\*---------------------------------------------------------------------------*/
FoamFile
{
    version     2.0;
    format      ascii;
    class       volScalarField;
    location    "0.095";
    object      PC3H4;
}
// * * * * * * * * * * * * * * * * * * * * * * * * * * * * * * * * * * * * * //

dimensions      [0 0 0 0 0 0 0];

internalField   nonuniform List<scalar> 
2000
(
5.39258e-06
5.40154e-06
5.40642e-06
5.40847e-06
5.40853e-06
5.40906e-06
5.40877e-06
5.40905e-06
5.40881e-06
5.409e-06
5.40884e-06
5.40897e-06
5.40886e-06
5.40894e-06
5.40887e-06
5.40893e-06
5.40888e-06
5.40892e-06
5.40889e-06
5.40892e-06
5.4089e-06
5.40891e-06
5.4089e-06
5.40891e-06
5.4089e-06
5.4089e-06
5.40891e-06
5.4089e-06
5.40891e-06
5.4089e-06
5.40892e-06
5.40889e-06
5.40892e-06
5.40888e-06
5.40893e-06
5.40887e-06
5.40894e-06
5.40886e-06
5.40897e-06
5.40884e-06
5.409e-06
5.40881e-06
5.40905e-06
5.40877e-06
5.40906e-06
5.40853e-06
5.40847e-06
5.40642e-06
5.40154e-06
5.39258e-06
6.13632e-06
6.1394e-06
6.14064e-06
6.14105e-06
6.14062e-06
6.14092e-06
6.14063e-06
6.14085e-06
6.14066e-06
6.14082e-06
6.14069e-06
6.1408e-06
6.14071e-06
6.14078e-06
6.14072e-06
6.14077e-06
6.14073e-06
6.14076e-06
6.14074e-06
6.14076e-06
6.14074e-06
6.14075e-06
6.14074e-06
6.14075e-06
6.14075e-06
6.14075e-06
6.14075e-06
6.14074e-06
6.14075e-06
6.14074e-06
6.14076e-06
6.14074e-06
6.14076e-06
6.14073e-06
6.14077e-06
6.14072e-06
6.14078e-06
6.14071e-06
6.14079e-06
6.14069e-06
6.14082e-06
6.14066e-06
6.14085e-06
6.14063e-06
6.14092e-06
6.14063e-06
6.14105e-06
6.14064e-06
6.1394e-06
6.13632e-06
4.0139e-06
4.01338e-06
4.0116e-06
4.01062e-06
4.00991e-06
4.00995e-06
4.00973e-06
4.00986e-06
4.00974e-06
4.00984e-06
4.00976e-06
4.00983e-06
4.00978e-06
4.00982e-06
4.00979e-06
4.00982e-06
4.0098e-06
4.00982e-06
4.0098e-06
4.00981e-06
4.0098e-06
4.00981e-06
4.0098e-06
4.00981e-06
4.00981e-06
4.00981e-06
4.00981e-06
4.0098e-06
4.00981e-06
4.0098e-06
4.00981e-06
4.0098e-06
4.00982e-06
4.0098e-06
4.00982e-06
4.00979e-06
4.00982e-06
4.00978e-06
4.00983e-06
4.00976e-06
4.00984e-06
4.00974e-06
4.00986e-06
4.00973e-06
4.00995e-06
4.00991e-06
4.01062e-06
4.0116e-06
4.01338e-06
4.0139e-06
2.25438e-06
2.2539e-06
2.25284e-06
2.25214e-06
2.25163e-06
2.25166e-06
2.2515e-06
2.25159e-06
2.25151e-06
2.25158e-06
2.25152e-06
2.25157e-06
2.25153e-06
2.25157e-06
2.25154e-06
2.25156e-06
2.25155e-06
2.25156e-06
2.25155e-06
2.25156e-06
2.25155e-06
2.25156e-06
2.25155e-06
2.25156e-06
2.25155e-06
2.25155e-06
2.25155e-06
2.25155e-06
2.25156e-06
2.25155e-06
2.25156e-06
2.25155e-06
2.25156e-06
2.25155e-06
2.25156e-06
2.25154e-06
2.25157e-06
2.25153e-06
2.25157e-06
2.25152e-06
2.25158e-06
2.25151e-06
2.25159e-06
2.2515e-06
2.25166e-06
2.25163e-06
2.25214e-06
2.25284e-06
2.25389e-06
2.25438e-06
1.30856e-06
1.30833e-06
1.30795e-06
1.30758e-06
1.30726e-06
1.3073e-06
1.30718e-06
1.30725e-06
1.30719e-06
1.30724e-06
1.3072e-06
1.30723e-06
1.3072e-06
1.30723e-06
1.30721e-06
1.30723e-06
1.30721e-06
1.30722e-06
1.30721e-06
1.30722e-06
1.30722e-06
1.30722e-06
1.30722e-06
1.30722e-06
1.30722e-06
1.30722e-06
1.30722e-06
1.30722e-06
1.30722e-06
1.30722e-06
1.30722e-06
1.30722e-06
1.30722e-06
1.30721e-06
1.30723e-06
1.30721e-06
1.30723e-06
1.3072e-06
1.30723e-06
1.3072e-06
1.30724e-06
1.30719e-06
1.30725e-06
1.30718e-06
1.30729e-06
1.30726e-06
1.30758e-06
1.30795e-06
1.30833e-06
1.30856e-06
8.34804e-07
8.3466e-07
8.34559e-07
8.34341e-07
8.34149e-07
8.34172e-07
8.34099e-07
8.34142e-07
8.341e-07
8.34135e-07
8.34107e-07
8.3413e-07
8.34112e-07
8.34127e-07
8.34116e-07
8.34126e-07
8.34117e-07
8.34125e-07
8.34119e-07
8.34123e-07
8.3412e-07
8.34123e-07
8.34121e-07
8.34122e-07
8.34122e-07
8.34121e-07
8.34122e-07
8.34121e-07
8.34123e-07
8.3412e-07
8.34123e-07
8.34119e-07
8.34125e-07
8.34117e-07
8.34126e-07
8.34116e-07
8.34127e-07
8.34112e-07
8.3413e-07
8.34107e-07
8.34134e-07
8.341e-07
8.34142e-07
8.34099e-07
8.34172e-07
8.34149e-07
8.3434e-07
8.34559e-07
8.3466e-07
8.34802e-07
5.96437e-07
5.96291e-07
5.96254e-07
5.96102e-07
5.95983e-07
5.95991e-07
5.95946e-07
5.95971e-07
5.95946e-07
5.95966e-07
5.9595e-07
5.95964e-07
5.95953e-07
5.95962e-07
5.95955e-07
5.95961e-07
5.95956e-07
5.95961e-07
5.95957e-07
5.9596e-07
5.95958e-07
5.9596e-07
5.95958e-07
5.95959e-07
5.95959e-07
5.95959e-07
5.95959e-07
5.95958e-07
5.9596e-07
5.95958e-07
5.9596e-07
5.95957e-07
5.95961e-07
5.95956e-07
5.95961e-07
5.95955e-07
5.95962e-07
5.95953e-07
5.95963e-07
5.9595e-07
5.95966e-07
5.95946e-07
5.95971e-07
5.95946e-07
5.95991e-07
5.95983e-07
5.96101e-07
5.96254e-07
5.9629e-07
5.96436e-07
4.73903e-07
4.73739e-07
4.73696e-07
4.73571e-07
4.73494e-07
4.73491e-07
4.73464e-07
4.73476e-07
4.73462e-07
4.73473e-07
4.73464e-07
4.73472e-07
4.73466e-07
4.73471e-07
4.73467e-07
4.7347e-07
4.73468e-07
4.7347e-07
4.73468e-07
4.7347e-07
4.73469e-07
4.7347e-07
4.73469e-07
4.73469e-07
4.73469e-07
4.73469e-07
4.73469e-07
4.73469e-07
4.7347e-07
4.73469e-07
4.7347e-07
4.73468e-07
4.7347e-07
4.73468e-07
4.73471e-07
4.73467e-07
4.73471e-07
4.73466e-07
4.73471e-07
4.73464e-07
4.73473e-07
4.73462e-07
4.73476e-07
4.73464e-07
4.73491e-07
4.73494e-07
4.73571e-07
4.73696e-07
4.73739e-07
4.73903e-07
4.08576e-07
4.08404e-07
4.08346e-07
4.08236e-07
4.08182e-07
4.08172e-07
4.08155e-07
4.0816e-07
4.08152e-07
4.08158e-07
4.08153e-07
4.08157e-07
4.08155e-07
4.08157e-07
4.08155e-07
4.08157e-07
4.08156e-07
4.08157e-07
4.08156e-07
4.08157e-07
4.08157e-07
4.08157e-07
4.08157e-07
4.08157e-07
4.08157e-07
4.08157e-07
4.08157e-07
4.08157e-07
4.08157e-07
4.08157e-07
4.08157e-07
4.08156e-07
4.08157e-07
4.08156e-07
4.08157e-07
4.08155e-07
4.08157e-07
4.08155e-07
4.08157e-07
4.08153e-07
4.08158e-07
4.08152e-07
4.0816e-07
4.08155e-07
4.08172e-07
4.08182e-07
4.08236e-07
4.08346e-07
4.08404e-07
4.08576e-07
3.72122e-07
3.71958e-07
3.71898e-07
3.71801e-07
3.7176e-07
3.71748e-07
3.71736e-07
3.71737e-07
3.71732e-07
3.71735e-07
3.71732e-07
3.71735e-07
3.71733e-07
3.71735e-07
3.71734e-07
3.71735e-07
3.71734e-07
3.71735e-07
3.71734e-07
3.71735e-07
3.71735e-07
3.71735e-07
3.71735e-07
3.71735e-07
3.71735e-07
3.71735e-07
3.71735e-07
3.71735e-07
3.71735e-07
3.71735e-07
3.71735e-07
3.71734e-07
3.71735e-07
3.71734e-07
3.71735e-07
3.71734e-07
3.71735e-07
3.71733e-07
3.71735e-07
3.71732e-07
3.71735e-07
3.71732e-07
3.71737e-07
3.71736e-07
3.71748e-07
3.7176e-07
3.71801e-07
3.71898e-07
3.71958e-07
3.72122e-07
3.50365e-07
3.50224e-07
3.50178e-07
3.50096e-07
3.50064e-07
3.50052e-07
3.50041e-07
3.50042e-07
3.50037e-07
3.5004e-07
3.50038e-07
3.50039e-07
3.50038e-07
3.50039e-07
3.50039e-07
3.50039e-07
3.50039e-07
3.50039e-07
3.50039e-07
3.50039e-07
3.50039e-07
3.50039e-07
3.50039e-07
3.50039e-07
3.50039e-07
3.50039e-07
3.50039e-07
3.50039e-07
3.50039e-07
3.50039e-07
3.50039e-07
3.50039e-07
3.50039e-07
3.50039e-07
3.50039e-07
3.50039e-07
3.50039e-07
3.50038e-07
3.50039e-07
3.50038e-07
3.5004e-07
3.50037e-07
3.50042e-07
3.50041e-07
3.50052e-07
3.50064e-07
3.50096e-07
3.50178e-07
3.50224e-07
3.50365e-07
3.35701e-07
3.35588e-07
3.35559e-07
3.35492e-07
3.35465e-07
3.35454e-07
3.35444e-07
3.35444e-07
3.3544e-07
3.35442e-07
3.3544e-07
3.35441e-07
3.3544e-07
3.35441e-07
3.35441e-07
3.35441e-07
3.35441e-07
3.35442e-07
3.35441e-07
3.35442e-07
3.35441e-07
3.35442e-07
3.35442e-07
3.35442e-07
3.35442e-07
3.35442e-07
3.35442e-07
3.35441e-07
3.35442e-07
3.35441e-07
3.35442e-07
3.35441e-07
3.35442e-07
3.35441e-07
3.35441e-07
3.35441e-07
3.35441e-07
3.3544e-07
3.35441e-07
3.3544e-07
3.35442e-07
3.3544e-07
3.35444e-07
3.35444e-07
3.35454e-07
3.35465e-07
3.35492e-07
3.35559e-07
3.35588e-07
3.35701e-07
3.25578e-07
3.25507e-07
3.25514e-07
3.25468e-07
3.25445e-07
3.25438e-07
3.25427e-07
3.25428e-07
3.25422e-07
3.25425e-07
3.25422e-07
3.25424e-07
3.25423e-07
3.25424e-07
3.25423e-07
3.25424e-07
3.25423e-07
3.25424e-07
3.25424e-07
3.25424e-07
3.25424e-07
3.25424e-07
3.25424e-07
3.25424e-07
3.25424e-07
3.25424e-07
3.25424e-07
3.25424e-07
3.25424e-07
3.25424e-07
3.25424e-07
3.25424e-07
3.25424e-07
3.25423e-07
3.25424e-07
3.25423e-07
3.25424e-07
3.25423e-07
3.25424e-07
3.25422e-07
3.25425e-07
3.25422e-07
3.25428e-07
3.25427e-07
3.25438e-07
3.25445e-07
3.25468e-07
3.25514e-07
3.25507e-07
3.25578e-07
3.17601e-07
3.17541e-07
3.17561e-07
3.17528e-07
3.17514e-07
3.17508e-07
3.17498e-07
3.17499e-07
3.17493e-07
3.17495e-07
3.17493e-07
3.17495e-07
3.17493e-07
3.17494e-07
3.17493e-07
3.17494e-07
3.17494e-07
3.17494e-07
3.17494e-07
3.17494e-07
3.17494e-07
3.17494e-07
3.17494e-07
3.17494e-07
3.17494e-07
3.17494e-07
3.17494e-07
3.17494e-07
3.17494e-07
3.17494e-07
3.17494e-07
3.17494e-07
3.17494e-07
3.17494e-07
3.17494e-07
3.17493e-07
3.17494e-07
3.17493e-07
3.17495e-07
3.17493e-07
3.17495e-07
3.17493e-07
3.17499e-07
3.17498e-07
3.17508e-07
3.17514e-07
3.17528e-07
3.17561e-07
3.1754e-07
3.17601e-07
3.10653e-07
3.10636e-07
3.10693e-07
3.1068e-07
3.10671e-07
3.10668e-07
3.10657e-07
3.10659e-07
3.10652e-07
3.10655e-07
3.10652e-07
3.10654e-07
3.10652e-07
3.10653e-07
3.10652e-07
3.10653e-07
3.10652e-07
3.10653e-07
3.10653e-07
3.10653e-07
3.10653e-07
3.10653e-07
3.10653e-07
3.10653e-07
3.10653e-07
3.10653e-07
3.10653e-07
3.10653e-07
3.10653e-07
3.10653e-07
3.10653e-07
3.10653e-07
3.10653e-07
3.10652e-07
3.10653e-07
3.10652e-07
3.10653e-07
3.10652e-07
3.10654e-07
3.10652e-07
3.10655e-07
3.10652e-07
3.10659e-07
3.10657e-07
3.10668e-07
3.10671e-07
3.1068e-07
3.10693e-07
3.10635e-07
3.10653e-07
3.04698e-07
3.04725e-07
3.04823e-07
3.04832e-07
3.04827e-07
3.04829e-07
3.04816e-07
3.0482e-07
3.04811e-07
3.04815e-07
3.04811e-07
3.04814e-07
3.04811e-07
3.04813e-07
3.04811e-07
3.04813e-07
3.04811e-07
3.04812e-07
3.04812e-07
3.04812e-07
3.04812e-07
3.04812e-07
3.04812e-07
3.04812e-07
3.04812e-07
3.04812e-07
3.04812e-07
3.04812e-07
3.04812e-07
3.04812e-07
3.04812e-07
3.04812e-07
3.04812e-07
3.04811e-07
3.04813e-07
3.04811e-07
3.04813e-07
3.04811e-07
3.04814e-07
3.04811e-07
3.04815e-07
3.04811e-07
3.0482e-07
3.04816e-07
3.04829e-07
3.04827e-07
3.04832e-07
3.04823e-07
3.04725e-07
3.04698e-07
2.99023e-07
2.99105e-07
2.99254e-07
2.99291e-07
2.99294e-07
2.99302e-07
2.99287e-07
2.99292e-07
2.99282e-07
2.99287e-07
2.99281e-07
2.99285e-07
2.99281e-07
2.99284e-07
2.99281e-07
2.99283e-07
2.99282e-07
2.99283e-07
2.99282e-07
2.99283e-07
2.99282e-07
2.99283e-07
2.99282e-07
2.99283e-07
2.99282e-07
2.99282e-07
2.99283e-07
2.99282e-07
2.99283e-07
2.99282e-07
2.99283e-07
2.99282e-07
2.99283e-07
2.99282e-07
2.99283e-07
2.99281e-07
2.99284e-07
2.99281e-07
2.99285e-07
2.99281e-07
2.99287e-07
2.99282e-07
2.99292e-07
2.99287e-07
2.99302e-07
2.99294e-07
2.99291e-07
2.99254e-07
2.99105e-07
2.99023e-07
2.93867e-07
2.93993e-07
2.94179e-07
2.94237e-07
2.94246e-07
2.94257e-07
2.94241e-07
2.94248e-07
2.94236e-07
2.94242e-07
2.94235e-07
2.94239e-07
2.94235e-07
2.94238e-07
2.94235e-07
2.94237e-07
2.94235e-07
2.94237e-07
2.94236e-07
2.94237e-07
2.94236e-07
2.94237e-07
2.94236e-07
2.94236e-07
2.94236e-07
2.94236e-07
2.94236e-07
2.94236e-07
2.94237e-07
2.94236e-07
2.94237e-07
2.94236e-07
2.94237e-07
2.94235e-07
2.94237e-07
2.94235e-07
2.94238e-07
2.94235e-07
2.94239e-07
2.94235e-07
2.94242e-07
2.94236e-07
2.94248e-07
2.94241e-07
2.94257e-07
2.94246e-07
2.94237e-07
2.94179e-07
2.93993e-07
2.93867e-07
2.88775e-07
2.88959e-07
2.89195e-07
2.8928e-07
2.89294e-07
2.89311e-07
2.89292e-07
2.89301e-07
2.89286e-07
2.89294e-07
2.89285e-07
2.89291e-07
2.89285e-07
2.89289e-07
2.89286e-07
2.89288e-07
2.89286e-07
2.89288e-07
2.89286e-07
2.89288e-07
2.89287e-07
2.89287e-07
2.89287e-07
2.89287e-07
2.89287e-07
2.89287e-07
2.89287e-07
2.89287e-07
2.89287e-07
2.89287e-07
2.89288e-07
2.89286e-07
2.89288e-07
2.89286e-07
2.89288e-07
2.89286e-07
2.89289e-07
2.89285e-07
2.89291e-07
2.89285e-07
2.89294e-07
2.89286e-07
2.89301e-07
2.89292e-07
2.89311e-07
2.89294e-07
2.8928e-07
2.89195e-07
2.88959e-07
2.88775e-07
2.83886e-07
2.84113e-07
2.84377e-07
2.84481e-07
2.845e-07
2.84521e-07
2.84501e-07
2.84511e-07
2.84495e-07
2.84503e-07
2.84494e-07
2.845e-07
2.84494e-07
2.84498e-07
2.84494e-07
2.84497e-07
2.84494e-07
2.84497e-07
2.84495e-07
2.84496e-07
2.84495e-07
2.84496e-07
2.84495e-07
2.84496e-07
2.84496e-07
2.84496e-07
2.84496e-07
2.84495e-07
2.84496e-07
2.84495e-07
2.84496e-07
2.84495e-07
2.84497e-07
2.84495e-07
2.84497e-07
2.84494e-07
2.84498e-07
2.84494e-07
2.845e-07
2.84494e-07
2.84503e-07
2.84495e-07
2.84511e-07
2.84501e-07
2.8452e-07
2.845e-07
2.84481e-07
2.84377e-07
2.84113e-07
2.83886e-07
2.79358e-07
2.79629e-07
2.79922e-07
2.80044e-07
2.80069e-07
2.80093e-07
2.80073e-07
2.80083e-07
2.80066e-07
2.80075e-07
2.80065e-07
2.80071e-07
2.80065e-07
2.80069e-07
2.80065e-07
2.80068e-07
2.80065e-07
2.80068e-07
2.80066e-07
2.80067e-07
2.80066e-07
2.80067e-07
2.80066e-07
2.80067e-07
2.80066e-07
2.80066e-07
2.80067e-07
2.80066e-07
2.80067e-07
2.80066e-07
2.80067e-07
2.80066e-07
2.80068e-07
2.80065e-07
2.80068e-07
2.80065e-07
2.80069e-07
2.80065e-07
2.80071e-07
2.80065e-07
2.80075e-07
2.80066e-07
2.80083e-07
2.80073e-07
2.80093e-07
2.80069e-07
2.80044e-07
2.79922e-07
2.79629e-07
2.79358e-07
2.75001e-07
2.75316e-07
2.75635e-07
2.75774e-07
2.75804e-07
2.75831e-07
2.7581e-07
2.75821e-07
2.75804e-07
2.75812e-07
2.75802e-07
2.75808e-07
2.75802e-07
2.75806e-07
2.75802e-07
2.75805e-07
2.75802e-07
2.75804e-07
2.75803e-07
2.75804e-07
2.75803e-07
2.75804e-07
2.75803e-07
2.75803e-07
2.75803e-07
2.75803e-07
2.75803e-07
2.75803e-07
2.75804e-07
2.75803e-07
2.75804e-07
2.75803e-07
2.75804e-07
2.75802e-07
2.75805e-07
2.75802e-07
2.75806e-07
2.75802e-07
2.75808e-07
2.75802e-07
2.75812e-07
2.75804e-07
2.75821e-07
2.7581e-07
2.75831e-07
2.75804e-07
2.75774e-07
2.75635e-07
2.75316e-07
2.75001e-07
2.70803e-07
2.71038e-07
2.71366e-07
2.71517e-07
2.71555e-07
2.71585e-07
2.71566e-07
2.71576e-07
2.71558e-07
2.71566e-07
2.71556e-07
2.71562e-07
2.71555e-07
2.71559e-07
2.71555e-07
2.71558e-07
2.71555e-07
2.71558e-07
2.71556e-07
2.71557e-07
2.71556e-07
2.71557e-07
2.71556e-07
2.71557e-07
2.71556e-07
2.71556e-07
2.71557e-07
2.71556e-07
2.71557e-07
2.71556e-07
2.71557e-07
2.71556e-07
2.71558e-07
2.71555e-07
2.71558e-07
2.71555e-07
2.71559e-07
2.71555e-07
2.71562e-07
2.71556e-07
2.71566e-07
2.71558e-07
2.71576e-07
2.71566e-07
2.71585e-07
2.71555e-07
2.71517e-07
2.71366e-07
2.71038e-07
2.70803e-07
2.66757e-07
2.67025e-07
2.67374e-07
2.67539e-07
2.67582e-07
2.67615e-07
2.67595e-07
2.67606e-07
2.67587e-07
2.67596e-07
2.67585e-07
2.67591e-07
2.67584e-07
2.67588e-07
2.67584e-07
2.67587e-07
2.67584e-07
2.67586e-07
2.67584e-07
2.67586e-07
2.67584e-07
2.67585e-07
2.67584e-07
2.67585e-07
2.67585e-07
2.67585e-07
2.67585e-07
2.67584e-07
2.67585e-07
2.67584e-07
2.67586e-07
2.67584e-07
2.67586e-07
2.67584e-07
2.67587e-07
2.67584e-07
2.67588e-07
2.67584e-07
2.67591e-07
2.67585e-07
2.67596e-07
2.67587e-07
2.67606e-07
2.67595e-07
2.67615e-07
2.67582e-07
2.67539e-07
2.67374e-07
2.67025e-07
2.66757e-07
2.62702e-07
2.63005e-07
2.6338e-07
2.63563e-07
2.63613e-07
2.63649e-07
2.63629e-07
2.6364e-07
2.63621e-07
2.63629e-07
2.63618e-07
2.63624e-07
2.63617e-07
2.63621e-07
2.63616e-07
2.63619e-07
2.63616e-07
2.63619e-07
2.63617e-07
2.63618e-07
2.63617e-07
2.63618e-07
2.63617e-07
2.63618e-07
2.63617e-07
2.63617e-07
2.63618e-07
2.63617e-07
2.63618e-07
2.63617e-07
2.63618e-07
2.63617e-07
2.63619e-07
2.63616e-07
2.63619e-07
2.63616e-07
2.63621e-07
2.63617e-07
2.63624e-07
2.63618e-07
2.63629e-07
2.63621e-07
2.6364e-07
2.63629e-07
2.63649e-07
2.63613e-07
2.63563e-07
2.6338e-07
2.63005e-07
2.62702e-07
2.58779e-07
2.5911e-07
2.59498e-07
2.59692e-07
2.59746e-07
2.59785e-07
2.59764e-07
2.59776e-07
2.59756e-07
2.59764e-07
2.59752e-07
2.59758e-07
2.59751e-07
2.59755e-07
2.5975e-07
2.59754e-07
2.5975e-07
2.59753e-07
2.59751e-07
2.59753e-07
2.59751e-07
2.59752e-07
2.59751e-07
2.59752e-07
2.59752e-07
2.59752e-07
2.59752e-07
2.59751e-07
2.59752e-07
2.59751e-07
2.59753e-07
2.59751e-07
2.59753e-07
2.5975e-07
2.59754e-07
2.59751e-07
2.59755e-07
2.59751e-07
2.59758e-07
2.59752e-07
2.59764e-07
2.59756e-07
2.59776e-07
2.59764e-07
2.59785e-07
2.59746e-07
2.59692e-07
2.59498e-07
2.5911e-07
2.58779e-07
2.5498e-07
2.55338e-07
2.55737e-07
2.55939e-07
2.55998e-07
2.56039e-07
2.56018e-07
2.5603e-07
2.5601e-07
2.56018e-07
2.56006e-07
2.56012e-07
2.56004e-07
2.56009e-07
2.56004e-07
2.56007e-07
2.56004e-07
2.56006e-07
2.56004e-07
2.56006e-07
2.56004e-07
2.56005e-07
2.56004e-07
2.56005e-07
2.56005e-07
2.56005e-07
2.56005e-07
2.56004e-07
2.56005e-07
2.56004e-07
2.56006e-07
2.56004e-07
2.56006e-07
2.56004e-07
2.56007e-07
2.56004e-07
2.56009e-07
2.56004e-07
2.56012e-07
2.56006e-07
2.56018e-07
2.5601e-07
2.5603e-07
2.56018e-07
2.56039e-07
2.55998e-07
2.55939e-07
2.55737e-07
2.55338e-07
2.5498e-07
2.513e-07
2.51681e-07
2.5209e-07
2.523e-07
2.52363e-07
2.52405e-07
2.52385e-07
2.52396e-07
2.52376e-07
2.52384e-07
2.52372e-07
2.52378e-07
2.5237e-07
2.52374e-07
2.52369e-07
2.52373e-07
2.52369e-07
2.52372e-07
2.5237e-07
2.52371e-07
2.5237e-07
2.52371e-07
2.5237e-07
2.5237e-07
2.5237e-07
2.5237e-07
2.5237e-07
2.5237e-07
2.52371e-07
2.5237e-07
2.52371e-07
2.5237e-07
2.52372e-07
2.52369e-07
2.52373e-07
2.52369e-07
2.52374e-07
2.5237e-07
2.52378e-07
2.52372e-07
2.52384e-07
2.52376e-07
2.52396e-07
2.52385e-07
2.52405e-07
2.52363e-07
2.523e-07
2.5209e-07
2.51681e-07
2.513e-07
2.47732e-07
2.48134e-07
2.48552e-07
2.48768e-07
2.48835e-07
2.48878e-07
2.48858e-07
2.48869e-07
2.48849e-07
2.48856e-07
2.48844e-07
2.4885e-07
2.48842e-07
2.48846e-07
2.48841e-07
2.48845e-07
2.48841e-07
2.48844e-07
2.48842e-07
2.48843e-07
2.48842e-07
2.48843e-07
2.48842e-07
2.48842e-07
2.48842e-07
2.48842e-07
2.48842e-07
2.48842e-07
2.48843e-07
2.48842e-07
2.48843e-07
2.48842e-07
2.48844e-07
2.48841e-07
2.48845e-07
2.48841e-07
2.48846e-07
2.48842e-07
2.4885e-07
2.48844e-07
2.48856e-07
2.48849e-07
2.48869e-07
2.48858e-07
2.48878e-07
2.48835e-07
2.48768e-07
2.48552e-07
2.48134e-07
2.47732e-07
2.4427e-07
2.44691e-07
2.45116e-07
2.45337e-07
2.45407e-07
2.45452e-07
2.45431e-07
2.45443e-07
2.45422e-07
2.45429e-07
2.45417e-07
2.45423e-07
2.45415e-07
2.45419e-07
2.45414e-07
2.45417e-07
2.45414e-07
2.45416e-07
2.45414e-07
2.45416e-07
2.45414e-07
2.45415e-07
2.45414e-07
2.45415e-07
2.45415e-07
2.45415e-07
2.45415e-07
2.45414e-07
2.45415e-07
2.45414e-07
2.45416e-07
2.45414e-07
2.45416e-07
2.45414e-07
2.45417e-07
2.45414e-07
2.45419e-07
2.45415e-07
2.45423e-07
2.45417e-07
2.4543e-07
2.45422e-07
2.45443e-07
2.45431e-07
2.45451e-07
2.45407e-07
2.45337e-07
2.45116e-07
2.44691e-07
2.4427e-07
2.40909e-07
2.41345e-07
2.41777e-07
2.42002e-07
2.42075e-07
2.4212e-07
2.421e-07
2.42112e-07
2.42091e-07
2.42098e-07
2.42085e-07
2.42091e-07
2.42083e-07
2.42087e-07
2.42082e-07
2.42085e-07
2.42082e-07
2.42084e-07
2.42082e-07
2.42084e-07
2.42082e-07
2.42083e-07
2.42082e-07
2.42083e-07
2.42083e-07
2.42083e-07
2.42083e-07
2.42082e-07
2.42083e-07
2.42082e-07
2.42084e-07
2.42082e-07
2.42084e-07
2.42082e-07
2.42085e-07
2.42082e-07
2.42087e-07
2.42083e-07
2.42091e-07
2.42086e-07
2.42098e-07
2.42091e-07
2.42112e-07
2.421e-07
2.4212e-07
2.42075e-07
2.42002e-07
2.41777e-07
2.41345e-07
2.40909e-07
2.37643e-07
2.38094e-07
2.38531e-07
2.38759e-07
2.38833e-07
2.3888e-07
2.3886e-07
2.38871e-07
2.3885e-07
2.38857e-07
2.38845e-07
2.3885e-07
2.38842e-07
2.38846e-07
2.38841e-07
2.38844e-07
2.3884e-07
2.38843e-07
2.38841e-07
2.38842e-07
2.38841e-07
2.38842e-07
2.38841e-07
2.38842e-07
2.38841e-07
2.38841e-07
2.38842e-07
2.38841e-07
2.38842e-07
2.38841e-07
2.38842e-07
2.38841e-07
2.38843e-07
2.3884e-07
2.38844e-07
2.38841e-07
2.38846e-07
2.38842e-07
2.3885e-07
2.38845e-07
2.38857e-07
2.3885e-07
2.38871e-07
2.3886e-07
2.3888e-07
2.38833e-07
2.38759e-07
2.38531e-07
2.38094e-07
2.37643e-07
2.34468e-07
2.34931e-07
2.35372e-07
2.35602e-07
2.35678e-07
2.35726e-07
2.35706e-07
2.35717e-07
2.35696e-07
2.35703e-07
2.3569e-07
2.35695e-07
2.35687e-07
2.35691e-07
2.35686e-07
2.35689e-07
2.35685e-07
2.35688e-07
2.35686e-07
2.35687e-07
2.35686e-07
2.35687e-07
2.35686e-07
2.35686e-07
2.35686e-07
2.35686e-07
2.35686e-07
2.35686e-07
2.35687e-07
2.35686e-07
2.35687e-07
2.35686e-07
2.35688e-07
2.35685e-07
2.35689e-07
2.35686e-07
2.35691e-07
2.35687e-07
2.35695e-07
2.3569e-07
2.35703e-07
2.35696e-07
2.35717e-07
2.35706e-07
2.35726e-07
2.35678e-07
2.35602e-07
2.35372e-07
2.34931e-07
2.34468e-07
2.3138e-07
2.31853e-07
2.32297e-07
2.32528e-07
2.32606e-07
2.32654e-07
2.32635e-07
2.32645e-07
2.32624e-07
2.3263e-07
2.32618e-07
2.32623e-07
2.32615e-07
2.32618e-07
2.32613e-07
2.32616e-07
2.32613e-07
2.32615e-07
2.32613e-07
2.32615e-07
2.32613e-07
2.32614e-07
2.32613e-07
2.32614e-07
2.32614e-07
2.32614e-07
2.32614e-07
2.32613e-07
2.32614e-07
2.32613e-07
2.32615e-07
2.32613e-07
2.32615e-07
2.32613e-07
2.32616e-07
2.32613e-07
2.32618e-07
2.32615e-07
2.32623e-07
2.32618e-07
2.3263e-07
2.32624e-07
2.32645e-07
2.32635e-07
2.32654e-07
2.32606e-07
2.32528e-07
2.32297e-07
2.31853e-07
2.3138e-07
2.28376e-07
2.28855e-07
2.29302e-07
2.29533e-07
2.29612e-07
2.29661e-07
2.29642e-07
2.29652e-07
2.29631e-07
2.29637e-07
2.29624e-07
2.29629e-07
2.29621e-07
2.29625e-07
2.29619e-07
2.29622e-07
2.29619e-07
2.29621e-07
2.29619e-07
2.29621e-07
2.29619e-07
2.2962e-07
2.29619e-07
2.2962e-07
2.2962e-07
2.2962e-07
2.2962e-07
2.29619e-07
2.2962e-07
2.29619e-07
2.29621e-07
2.29619e-07
2.29621e-07
2.29619e-07
2.29622e-07
2.29619e-07
2.29625e-07
2.29621e-07
2.29629e-07
2.29624e-07
2.29637e-07
2.29631e-07
2.29652e-07
2.29642e-07
2.29661e-07
2.29612e-07
2.29533e-07
2.29301e-07
2.28855e-07
2.28376e-07
2.25451e-07
2.25936e-07
2.26383e-07
2.26615e-07
2.26695e-07
2.26744e-07
2.26725e-07
2.26734e-07
2.26714e-07
2.26719e-07
2.26706e-07
2.26711e-07
2.26703e-07
2.26706e-07
2.26701e-07
2.26704e-07
2.26701e-07
2.26703e-07
2.26701e-07
2.26702e-07
2.26701e-07
2.26702e-07
2.26701e-07
2.26702e-07
2.26701e-07
2.26701e-07
2.26702e-07
2.26701e-07
2.26702e-07
2.26701e-07
2.26702e-07
2.26701e-07
2.26703e-07
2.26701e-07
2.26704e-07
2.26701e-07
2.26706e-07
2.26703e-07
2.26711e-07
2.26706e-07
2.26719e-07
2.26714e-07
2.26734e-07
2.26725e-07
2.26744e-07
2.26695e-07
2.26615e-07
2.26383e-07
2.25936e-07
2.25451e-07
2.22603e-07
2.23091e-07
2.23538e-07
2.2377e-07
2.2385e-07
2.23899e-07
2.2388e-07
2.23889e-07
2.23869e-07
2.23874e-07
2.23861e-07
2.23865e-07
2.23857e-07
2.23861e-07
2.23856e-07
2.23858e-07
2.23855e-07
2.23857e-07
2.23855e-07
2.23857e-07
2.23855e-07
2.23856e-07
2.23855e-07
2.23856e-07
2.23856e-07
2.23856e-07
2.23856e-07
2.23855e-07
2.23856e-07
2.23855e-07
2.23857e-07
2.23855e-07
2.23857e-07
2.23855e-07
2.23858e-07
2.23856e-07
2.23861e-07
2.23857e-07
2.23865e-07
2.23861e-07
2.23874e-07
2.23869e-07
2.23889e-07
2.2388e-07
2.23899e-07
2.2385e-07
2.23769e-07
2.23538e-07
2.23091e-07
2.22603e-07
2.19829e-07
2.20317e-07
2.20764e-07
2.20995e-07
2.21075e-07
2.21124e-07
2.21105e-07
2.21114e-07
2.21094e-07
2.21098e-07
2.21086e-07
2.2109e-07
2.21082e-07
2.21085e-07
2.2108e-07
2.21083e-07
2.21079e-07
2.21082e-07
2.2108e-07
2.21081e-07
2.2108e-07
2.21081e-07
2.2108e-07
2.2108e-07
2.2108e-07
2.2108e-07
2.2108e-07
2.2108e-07
2.21081e-07
2.2108e-07
2.21081e-07
2.2108e-07
2.21082e-07
2.21079e-07
2.21083e-07
2.2108e-07
2.21085e-07
2.21082e-07
2.2109e-07
2.21086e-07
2.21098e-07
2.21094e-07
2.21114e-07
2.21105e-07
2.21124e-07
2.21075e-07
2.20995e-07
2.20764e-07
2.20317e-07
2.19829e-07
2.17126e-07
2.17612e-07
2.18059e-07
2.18288e-07
2.18368e-07
2.18417e-07
2.18398e-07
2.18407e-07
2.18386e-07
2.18391e-07
2.18378e-07
2.18382e-07
2.18374e-07
2.18377e-07
2.18372e-07
2.18375e-07
2.18371e-07
2.18374e-07
2.18372e-07
2.18373e-07
2.18372e-07
2.18372e-07
2.18372e-07
2.18372e-07
2.18372e-07
2.18372e-07
2.18372e-07
2.18372e-07
2.18372e-07
2.18372e-07
2.18373e-07
2.18372e-07
2.18374e-07
2.18371e-07
2.18375e-07
2.18372e-07
2.18377e-07
2.18374e-07
2.18382e-07
2.18378e-07
2.18391e-07
2.18386e-07
2.18407e-07
2.18398e-07
2.18417e-07
2.18368e-07
2.18288e-07
2.18059e-07
2.17612e-07
2.17126e-07
2.14492e-07
2.14975e-07
2.1542e-07
2.15646e-07
2.15726e-07
2.15775e-07
2.15757e-07
2.15765e-07
2.15745e-07
2.15748e-07
2.15736e-07
2.15739e-07
2.15732e-07
2.15735e-07
2.1573e-07
2.15732e-07
2.15729e-07
2.15731e-07
2.15729e-07
2.15731e-07
2.15729e-07
2.1573e-07
2.15729e-07
2.1573e-07
2.15729e-07
2.15729e-07
2.1573e-07
2.15729e-07
2.1573e-07
2.15729e-07
2.15731e-07
2.15729e-07
2.15731e-07
2.15729e-07
2.15732e-07
2.1573e-07
2.15735e-07
2.15732e-07
2.15739e-07
2.15736e-07
2.15748e-07
2.15745e-07
2.15765e-07
2.15757e-07
2.15775e-07
2.15726e-07
2.15646e-07
2.1542e-07
2.14975e-07
2.14492e-07
)
;

boundaryField
{
    fuel
    {
        type            fixedValue;
        value           uniform 0;
    }
    wall
    {
        type            zeroGradient;
    }
    outlet
    {
        type            zeroGradient;
    }
    frontAndBack
    {
        type            empty;
    }
    procBoundary1to0
    {
        type            processor;
        value           nonuniform List<scalar> 
50
(
2.11923e-07
2.12404e-07
2.12845e-07
2.13069e-07
2.13149e-07
2.13197e-07
2.13179e-07
2.13186e-07
2.13166e-07
2.1317e-07
2.13157e-07
2.13161e-07
2.13153e-07
2.13156e-07
2.13151e-07
2.13153e-07
2.1315e-07
2.13152e-07
2.1315e-07
2.13152e-07
2.1315e-07
2.13151e-07
2.1315e-07
2.13151e-07
2.1315e-07
2.1315e-07
2.13151e-07
2.1315e-07
2.13151e-07
2.1315e-07
2.13152e-07
2.1315e-07
2.13152e-07
2.1315e-07
2.13153e-07
2.13151e-07
2.13156e-07
2.13153e-07
2.13161e-07
2.13157e-07
2.1317e-07
2.13166e-07
2.13186e-07
2.13179e-07
2.13197e-07
2.13149e-07
2.13069e-07
2.12845e-07
2.12404e-07
2.11923e-07
)
;
    }
}


// ************************************************************************* //
