/*--------------------------------*- C++ -*----------------------------------*\
| =========                 |                                                 |
| \\      /  F ield         | OpenFOAM: The Open Source CFD Toolbox           |
|  \\    /   O peration     | Version:  dev                                   |
|   \\  /    A nd           | Web:      www.OpenFOAM.org                      |
|    \\/     M anipulation  |                                                 |
\*---------------------------------------------------------------------------*/
FoamFile
{
    version     2.0;
    format      ascii;
    class       surfaceScalarField;
    location    "0.095";
    object      phi;
}
// * * * * * * * * * * * * * * * * * * * * * * * * * * * * * * * * * * * * * //

dimensions      [1 0 -1 0 0 0 0];

internalField   nonuniform List<scalar> 
3910
(
-2.80149e-08
2.86722e-06
-1.88833e-08
2.88072e-06
-1.54191e-08
2.88642e-06
-1.56804e-08
2.89016e-06
-1.38788e-08
2.88811e-06
-1.40469e-08
2.89009e-06
-1.26156e-08
2.88849e-06
-1.25119e-08
2.88982e-06
-1.12956e-08
2.88871e-06
-1.09903e-08
2.88962e-06
-9.92709e-09
2.88886e-06
-9.49444e-09
2.88949e-06
-8.54859e-09
2.88898e-06
-8.00799e-09
2.88939e-06
-7.13907e-09
2.88906e-06
-6.54774e-09
2.88934e-06
-5.70721e-09
2.88909e-06
-5.07636e-09
2.88929e-06
-4.29373e-09
2.88914e-06
-3.62774e-09
2.88926e-06
-2.87043e-09
2.88916e-06
-2.18099e-09
2.88923e-06
-1.43474e-09
2.88918e-06
-7.24674e-10
2.88921e-06
2.54732e-13
2.8892e-06
7.24968e-10
2.8892e-06
1.43505e-09
2.88921e-06
2.1811e-09
2.88918e-06
2.8701e-09
2.88923e-06
3.6275e-09
2.88917e-06
4.29395e-09
2.88926e-06
5.07656e-09
2.88914e-06
5.70878e-09
2.88929e-06
6.54816e-09
2.88909e-06
7.13678e-09
2.88934e-06
8.00952e-09
2.88905e-06
8.5489e-09
2.88939e-06
9.49148e-09
2.88898e-06
9.92883e-09
2.88949e-06
1.09899e-08
2.88886e-06
1.1292e-08
2.88962e-06
1.25105e-08
2.88871e-06
1.26159e-08
2.88982e-06
1.40452e-08
2.88849e-06
1.38806e-08
2.89008e-06
1.56802e-08
2.88811e-06
1.54203e-08
2.89016e-06
1.8886e-08
2.88642e-06
2.80138e-08
2.88073e-06
2.86721e-06
-3.52752e-08
2.84783e-06
-2.36033e-08
2.86864e-06
-2.0458e-08
2.88286e-06
-1.97701e-08
2.88907e-06
-1.8265e-08
2.88621e-06
-1.78092e-08
2.88924e-06
-1.652e-08
2.88681e-06
-1.59289e-08
2.88884e-06
-1.47417e-08
2.88713e-06
-1.40363e-08
2.88852e-06
-1.29292e-08
2.88736e-06
-1.2154e-08
2.88833e-06
-1.11073e-08
2.88754e-06
-1.02716e-08
2.88817e-06
-9.26357e-09
2.88766e-06
-8.40076e-09
2.88809e-06
-7.40724e-09
2.88771e-06
-6.52487e-09
2.88802e-06
-5.56358e-09
2.88779e-06
-4.66309e-09
2.88797e-06
-3.7143e-09
2.88782e-06
-2.80072e-09
2.88793e-06
-1.85704e-09
2.88784e-06
-9.32245e-10
2.8879e-06
1.75131e-13
2.88788e-06
9.3243e-10
2.88788e-06
1.85723e-09
2.8879e-06
2.80081e-09
2.88784e-06
3.71413e-09
2.88793e-06
4.66285e-09
2.88782e-06
5.56363e-09
2.88796e-06
6.52511e-09
2.88779e-06
7.40829e-09
2.88802e-06
8.401e-09
2.88771e-06
9.26239e-09
2.88809e-06
1.02725e-08
2.88766e-06
1.11073e-08
2.88817e-06
1.21521e-08
2.88755e-06
1.29301e-08
2.88832e-06
1.40361e-08
2.88737e-06
1.47393e-08
2.88853e-06
1.59277e-08
2.88713e-06
1.65202e-08
2.88884e-06
1.78079e-08
2.88682e-06
1.82658e-08
2.88923e-06
1.97703e-08
2.88621e-06
2.0459e-08
2.88907e-06
2.36051e-08
2.88286e-06
3.52746e-08
2.86865e-06
2.84783e-06
-3.94181e-08
2.83058e-06
-2.73804e-08
2.85552e-06
-2.42478e-08
2.87863e-06
-2.30551e-08
2.88677e-06
-2.15958e-08
2.88365e-06
-2.0806e-08
2.88736e-06
-1.95011e-08
2.88441e-06
-1.86356e-08
2.88688e-06
-1.7384e-08
2.88479e-06
-1.644e-08
2.88649e-06
-1.5237e-08
2.88507e-06
-1.42458e-08
2.88624e-06
-1.30801e-08
2.88529e-06
-1.20481e-08
2.88604e-06
-1.09054e-08
2.88543e-06
-9.85534e-09
2.88595e-06
-8.72164e-09
2.88548e-06
-7.65949e-09
2.88587e-06
-6.54705e-09
2.88558e-06
-5.47359e-09
2.8858e-06
-4.36874e-09
2.88562e-06
-3.28629e-09
2.88575e-06
-2.1844e-09
2.88565e-06
-1.09459e-09
2.88572e-06
1.25595e-13
2.88569e-06
1.09471e-09
2.88569e-06
2.18452e-09
2.88572e-06
3.28634e-09
2.88565e-06
4.36862e-09
2.88575e-06
5.47337e-09
2.88562e-06
6.54703e-09
2.8858e-06
7.65971e-09
2.88558e-06
8.7224e-09
2.88586e-06
9.85549e-09
2.88548e-06
1.09047e-08
2.88595e-06
1.20485e-08
2.88542e-06
1.308e-08
2.88604e-06
1.42445e-08
2.88529e-06
1.52376e-08
2.88624e-06
1.64398e-08
2.88507e-06
1.73823e-08
2.88649e-06
1.86346e-08
2.88479e-06
1.95011e-08
2.88688e-06
2.08049e-08
2.88442e-06
2.15963e-08
2.88735e-06
2.30555e-08
2.88365e-06
2.42486e-08
2.88677e-06
2.73818e-08
2.87862e-06
3.94179e-08
2.85553e-06
2.83057e-06
-4.31435e-08
2.81574e-06
-3.14654e-08
2.84336e-06
-2.81702e-08
2.87484e-06
-2.66224e-08
2.88474e-06
-2.50775e-08
2.88162e-06
-2.40419e-08
2.88584e-06
-2.26304e-08
2.88252e-06
-2.15464e-08
2.88531e-06
-2.01659e-08
2.88293e-06
-1.90176e-08
2.88486e-06
-1.76708e-08
2.88324e-06
-1.64842e-08
2.88457e-06
-1.51645e-08
2.88348e-06
-1.39456e-08
2.88434e-06
-1.26422e-08
2.88365e-06
-1.14089e-08
2.88423e-06
-1.01121e-08
2.8837e-06
-8.86947e-09
2.88414e-06
-7.58869e-09
2.88382e-06
-6.33773e-09
2.88406e-06
-5.06254e-09
2.88386e-06
-3.80435e-09
2.88401e-06
-2.53137e-09
2.88389e-06
-1.26755e-09
2.88397e-06
9.80912e-14
2.88394e-06
1.26764e-09
2.88394e-06
2.53146e-09
2.88397e-06
3.80438e-09
2.88389e-06
5.06244e-09
2.88401e-06
6.3375e-09
2.88386e-06
7.58865e-09
2.88406e-06
8.86968e-09
2.88381e-06
1.01126e-08
2.88414e-06
1.1409e-08
2.88371e-06
1.26417e-08
2.88423e-06
1.39459e-08
2.88364e-06
1.51644e-08
2.88434e-06
1.64831e-08
2.88349e-06
1.76712e-08
2.88457e-06
1.90173e-08
2.88324e-06
2.01645e-08
2.88486e-06
2.15455e-08
2.88292e-06
2.26304e-08
2.88531e-06
2.40408e-08
2.88252e-06
2.50779e-08
2.88583e-06
2.6623e-08
2.88162e-06
2.81708e-08
2.88473e-06
3.14667e-08
2.87484e-06
4.31438e-08
2.84338e-06
2.81573e-06
-4.69289e-08
2.80242e-06
-3.58344e-08
2.83204e-06
-3.23241e-08
2.87109e-06
-3.04682e-08
2.88264e-06
-2.87852e-08
2.8797e-06
-2.75243e-08
2.88434e-06
-2.59676e-08
2.88073e-06
-2.46746e-08
2.88379e-06
-2.3135e-08
2.88116e-06
-2.17848e-08
2.88327e-06
-2.02701e-08
2.88149e-06
-1.88857e-08
2.88296e-06
-1.7392e-08
2.88176e-06
-1.59802e-08
2.8827e-06
-1.44986e-08
2.88193e-06
-1.30743e-08
2.88257e-06
-1.15979e-08
2.882e-06
-1.01658e-08
2.88247e-06
-8.7024e-09
2.88212e-06
-7.26362e-09
2.88239e-06
-5.80468e-09
2.88217e-06
-4.35966e-09
2.88233e-06
-2.90248e-09
2.8822e-06
-1.45282e-09
2.88228e-06
8.36903e-14
2.88225e-06
1.4529e-09
2.88225e-06
2.90256e-09
2.88228e-06
4.35968e-09
2.8822e-06
5.8046e-09
2.88233e-06
7.26341e-09
2.88217e-06
8.70236e-09
2.88239e-06
1.0166e-08
2.88212e-06
1.15983e-08
2.88247e-06
1.30744e-08
2.882e-06
1.44983e-08
2.88258e-06
1.59803e-08
2.88193e-06
1.73918e-08
2.8827e-06
1.88849e-08
2.88177e-06
2.02703e-08
2.88295e-06
2.17844e-08
2.8815e-06
2.31338e-08
2.88328e-06
2.46738e-08
2.88115e-06
2.59675e-08
2.88379e-06
2.75233e-08
2.88074e-06
2.87856e-08
2.88433e-06
3.04689e-08
2.8797e-06
3.23246e-08
2.88264e-06
3.58354e-08
2.87108e-06
4.69296e-08
2.83205e-06
2.80241e-06
-5.08762e-08
2.79019e-06
-4.04205e-08
2.82147e-06
-3.66799e-08
2.86724e-06
-3.45376e-08
2.88039e-06
-3.26884e-08
2.87774e-06
-3.1207e-08
2.88275e-06
-2.94828e-08
2.8789e-06
-2.79804e-08
2.88218e-06
-2.62636e-08
2.87933e-06
-2.47078e-08
2.88161e-06
-2.30096e-08
2.87969e-06
-2.14219e-08
2.88126e-06
-1.97404e-08
2.87997e-06
-1.81281e-08
2.88098e-06
-1.64559e-08
2.88015e-06
-1.48323e-08
2.88085e-06
-1.31642e-08
2.88022e-06
-1.1534e-08
2.88074e-06
-9.87678e-09
2.88035e-06
-8.24081e-09
2.88064e-06
-6.5874e-09
2.88041e-06
-4.94586e-09
2.88058e-06
-3.29387e-09
2.88044e-06
-1.64831e-09
2.88053e-06
7.50977e-14
2.88049e-06
1.64839e-09
2.88049e-06
3.29395e-09
2.88053e-06
4.94588e-09
2.88044e-06
6.58733e-09
2.88058e-06
8.24062e-09
2.88041e-06
9.87674e-09
2.88064e-06
1.15342e-08
2.88035e-06
1.31646e-08
2.88073e-06
1.48324e-08
2.88022e-06
1.64556e-08
2.88085e-06
1.81282e-08
2.88015e-06
1.97402e-08
2.88098e-06
2.14212e-08
2.87998e-06
2.30097e-08
2.88125e-06
2.47073e-08
2.87969e-06
2.62626e-08
2.88162e-06
2.79797e-08
2.87933e-06
2.94826e-08
2.88218e-06
3.12059e-08
2.87891e-06
3.26888e-08
2.88274e-06
3.45384e-08
2.87774e-06
3.66802e-08
2.88039e-06
4.04214e-08
2.86723e-06
5.08771e-08
2.82148e-06
2.79019e-06
-5.49616e-08
2.77886e-06
-4.51442e-08
2.8116e-06
-4.11761e-08
2.86322e-06
-3.87628e-08
2.87793e-06
-3.67308e-08
2.87567e-06
-3.50295e-08
2.88101e-06
-3.31244e-08
2.87696e-06
-3.14106e-08
2.88043e-06
-2.95052e-08
2.87739e-06
-2.77399e-08
2.87981e-06
-2.58483e-08
2.87776e-06
-2.40524e-08
2.87943e-06
-2.21742e-08
2.87806e-06
-2.03557e-08
2.87913e-06
-1.84844e-08
2.87825e-06
-1.66555e-08
2.87898e-06
-1.47875e-08
2.87832e-06
-1.29527e-08
2.87886e-06
-1.1094e-08
2.87846e-06
-9.25411e-09
2.87876e-06
-7.39875e-09
2.87851e-06
-5.55377e-09
2.87869e-06
-3.69959e-09
2.87855e-06
-1.85102e-09
2.87864e-06
6.88014e-14
2.8786e-06
1.8511e-09
2.8786e-06
3.69966e-09
2.87864e-06
5.55379e-09
2.87855e-06
7.3987e-09
2.8787e-06
9.25394e-09
2.87851e-06
1.1094e-08
2.87876e-06
1.29528e-08
2.87845e-06
1.47879e-08
2.87886e-06
1.66556e-08
2.87832e-06
1.84843e-08
2.87898e-06
2.03557e-08
2.87824e-06
2.21739e-08
2.87913e-06
2.40519e-08
2.87806e-06
2.58485e-08
2.87942e-06
2.77394e-08
2.87776e-06
2.95043e-08
2.87982e-06
3.141e-08
2.87739e-06
3.31242e-08
2.88043e-06
3.50285e-08
2.87697e-06
3.67311e-08
2.881e-06
3.87635e-08
2.87567e-06
4.11764e-08
2.87793e-06
4.5145e-08
2.86321e-06
5.49627e-08
2.81161e-06
2.77885e-06
-5.91466e-08
2.76829e-06
-4.99446e-08
2.80239e-06
-4.57611e-08
2.85903e-06
-4.30901e-08
2.87525e-06
-4.08654e-08
2.87344e-06
-3.89446e-08
2.87909e-06
-3.68498e-08
2.87486e-06
-3.49228e-08
2.87851e-06
-3.28217e-08
2.87529e-06
-3.08441e-08
2.87783e-06
-2.87529e-08
2.87567e-06
-2.67453e-08
2.87742e-06
-2.46645e-08
2.87598e-06
-2.2636e-08
2.8771e-06
-2.05602e-08
2.87617e-06
-1.85217e-08
2.87694e-06
-1.64486e-08
2.87625e-06
-1.44047e-08
2.87682e-06
-1.23396e-08
2.87639e-06
-1.02913e-08
2.87672e-06
-8.22904e-09
2.87645e-06
-6.17603e-09
2.87664e-06
-4.11477e-09
2.87648e-06
-2.0585e-09
2.87659e-06
6.34632e-14
2.87654e-06
2.05858e-09
2.87655e-06
4.11485e-09
2.87659e-06
6.17605e-09
2.87649e-06
8.229e-09
2.87664e-06
1.02911e-08
2.87645e-06
1.23396e-08
2.87671e-06
1.44049e-08
2.87639e-06
1.64489e-08
2.87682e-06
1.85218e-08
2.87625e-06
2.05601e-08
2.87695e-06
2.26359e-08
2.87617e-06
2.46642e-08
2.8771e-06
2.67449e-08
2.87598e-06
2.87529e-08
2.87741e-06
3.08435e-08
2.87567e-06
3.28209e-08
2.87784e-06
3.49223e-08
2.87529e-06
3.68496e-08
2.8785e-06
3.89436e-08
2.87487e-06
4.08657e-08
2.87908e-06
4.30908e-08
2.87344e-06
4.57613e-08
2.87525e-06
4.99453e-08
2.85902e-06
5.91478e-08
2.8024e-06
2.76828e-06
-6.34033e-08
2.75838e-06
-5.4782e-08
2.79377e-06
-5.03992e-08
2.85465e-06
-4.74833e-08
2.87235e-06
-4.50596e-08
2.87104e-06
-4.29198e-08
2.87698e-06
-4.06296e-08
2.8726e-06
-3.84884e-08
2.87639e-06
-3.61867e-08
2.87301e-06
-3.39949e-08
2.87567e-06
-3.17e-08
2.8734e-06
-2.94787e-08
2.87523e-06
-2.71915e-08
2.87371e-06
-2.49503e-08
2.87488e-06
-2.26665e-08
2.87391e-06
-2.04158e-08
2.87471e-06
-1.81342e-08
2.87399e-06
-1.58785e-08
2.87459e-06
-1.36037e-08
2.87414e-06
-1.13439e-08
2.87448e-06
-9.07162e-09
2.8742e-06
-6.80758e-09
2.8744e-06
-4.5361e-09
2.87423e-06
-2.26906e-09
2.87434e-06
5.84326e-14
2.8743e-06
2.26915e-09
2.8743e-06
4.53618e-09
2.87434e-06
6.8076e-09
2.87424e-06
9.07159e-09
2.8744e-06
1.13438e-08
2.8742e-06
1.36036e-08
2.87448e-06
1.58787e-08
2.87413e-06
1.81344e-08
2.87458e-06
2.04159e-08
2.87399e-06
2.26665e-08
2.87472e-06
2.49503e-08
2.87391e-06
2.71912e-08
2.87489e-06
2.94783e-08
2.87372e-06
3.17e-08
2.87521e-06
3.39942e-08
2.8734e-06
3.6186e-08
2.87567e-06
3.84879e-08
2.87301e-06
4.06294e-08
2.87638e-06
4.29188e-08
2.87261e-06
4.506e-08
2.87696e-06
4.7484e-08
2.87104e-06
5.03994e-08
2.87235e-06
5.47826e-08
2.85464e-06
6.34046e-08
2.79378e-06
2.75838e-06
-6.77136e-08
2.74906e-06
-5.96322e-08
2.7857e-06
-5.50671e-08
2.85011e-06
-5.19185e-08
2.86923e-06
-4.92922e-08
2.86844e-06
-4.69341e-08
2.87465e-06
-4.44444e-08
2.87014e-06
-4.20883e-08
2.87407e-06
-3.95829e-08
2.87054e-06
-3.71758e-08
2.87329e-06
-3.46745e-08
2.87093e-06
-3.22381e-08
2.87282e-06
-2.97421e-08
2.87125e-06
-2.72867e-08
2.87246e-06
-2.47926e-08
2.87145e-06
-2.23279e-08
2.87228e-06
-1.98354e-08
2.87153e-06
-1.73662e-08
2.87215e-06
-1.48795e-08
2.87168e-06
-1.24065e-08
2.87204e-06
-9.9221e-09
2.87175e-06
-7.44513e-09
2.87195e-06
-4.96138e-09
2.87178e-06
-2.48161e-09
2.8719e-06
5.32834e-14
2.87185e-06
2.48171e-09
2.87185e-06
4.96145e-09
2.8719e-06
7.44515e-09
2.87178e-06
9.92207e-09
2.87196e-06
1.24064e-08
2.87175e-06
1.48795e-08
2.87204e-06
1.73664e-08
2.87168e-06
1.98357e-08
2.87215e-06
2.2328e-08
2.87153e-06
2.47925e-08
2.87229e-06
2.72866e-08
2.87145e-06
2.97418e-08
2.87246e-06
3.22378e-08
2.87126e-06
3.46745e-08
2.87281e-06
3.71751e-08
2.87094e-06
3.95823e-08
2.8733e-06
4.20878e-08
2.87054e-06
4.44441e-08
2.87406e-06
4.69331e-08
2.87015e-06
4.92925e-08
2.87463e-06
5.19191e-08
2.86844e-06
5.50673e-08
2.86923e-06
5.96328e-08
2.8501e-06
6.77149e-08
2.78571e-06
2.74906e-06
-7.20661e-08
2.74027e-06
-6.44809e-08
2.77813e-06
-5.97502e-08
2.84541e-06
-5.63801e-08
2.86589e-06
-5.3549e-08
2.86565e-06
-5.09736e-08
2.87212e-06
-4.82816e-08
2.86749e-06
-4.57103e-08
2.87154e-06
-4.29991e-08
2.86787e-06
-4.0376e-08
2.87071e-06
-3.76665e-08
2.86826e-06
-3.50142e-08
2.87021e-06
-3.23077e-08
2.86858e-06
-2.96371e-08
2.86983e-06
-2.69312e-08
2.86879e-06
-2.42516e-08
2.86965e-06
-2.15468e-08
2.86886e-06
-1.88628e-08
2.86951e-06
-1.61629e-08
2.86902e-06
-1.34755e-08
2.86939e-06
-1.07776e-08
2.86909e-06
-8.0865e-09
2.8693e-06
-5.38918e-09
2.86913e-06
-2.69544e-09
2.86924e-06
4.7694e-14
2.86919e-06
2.69554e-09
2.86919e-06
5.38926e-09
2.86924e-06
8.08652e-09
2.86913e-06
1.07776e-08
2.8693e-06
1.34754e-08
2.86909e-06
1.61629e-08
2.86939e-06
1.8863e-08
2.86902e-06
2.1547e-08
2.8695e-06
2.42517e-08
2.86886e-06
2.69312e-08
2.86965e-06
2.9637e-08
2.86878e-06
3.23074e-08
2.86983e-06
3.50139e-08
2.86859e-06
3.76665e-08
2.8702e-06
4.03752e-08
2.86827e-06
4.29986e-08
2.87072e-06
4.57099e-08
2.86787e-06
4.82813e-08
2.87153e-06
5.09727e-08
2.8675e-06
5.35493e-08
2.8721e-06
5.63807e-08
2.86565e-06
5.97504e-08
2.8659e-06
6.44814e-08
2.8454e-06
7.20674e-08
2.77814e-06
2.74027e-06
-7.64469e-08
2.73196e-06
-6.93139e-08
2.77102e-06
-6.44333e-08
2.84056e-06
-6.08525e-08
2.86235e-06
-5.78157e-08
2.86265e-06
-5.50244e-08
2.86937e-06
-5.21282e-08
2.86464e-06
-4.93419e-08
2.8688e-06
-4.64237e-08
2.865e-06
-4.35845e-08
2.86792e-06
-4.06659e-08
2.86539e-06
-3.77975e-08
2.86739e-06
-3.48797e-08
2.86571e-06
-3.19937e-08
2.86699e-06
-2.90751e-08
2.86592e-06
-2.61802e-08
2.8668e-06
-2.32624e-08
2.86599e-06
-2.03633e-08
2.86665e-06
-1.74496e-08
2.86615e-06
-1.45472e-08
2.86653e-06
-1.16353e-08
2.86622e-06
-8.72952e-09
2.86644e-06
-5.81806e-09
2.86626e-06
-2.90982e-09
2.86638e-06
4.15844e-14
2.86633e-06
2.90992e-09
2.86633e-06
5.81813e-09
2.86638e-06
8.72954e-09
2.86626e-06
1.16353e-08
2.86644e-06
1.45471e-08
2.86622e-06
1.74496e-08
2.86653e-06
2.03635e-08
2.86615e-06
2.32625e-08
2.86665e-06
2.61803e-08
2.86599e-06
2.90752e-08
2.8668e-06
3.19935e-08
2.86591e-06
3.48794e-08
2.867e-06
3.77973e-08
2.86572e-06
4.06658e-08
2.86738e-06
4.35837e-08
2.8654e-06
4.64232e-08
2.86792e-06
4.93415e-08
2.865e-06
5.21279e-08
2.86879e-06
5.50236e-08
2.86465e-06
5.7816e-08
2.86935e-06
6.0853e-08
2.86266e-06
6.44335e-08
2.86236e-06
6.93144e-08
2.84055e-06
7.64482e-08
2.77103e-06
2.73196e-06
-8.08621e-08
2.72406e-06
-7.4137e-08
2.76432e-06
-6.91198e-08
2.83558e-06
-6.53378e-08
2.85861e-06
-6.20947e-08
2.85945e-06
-5.90886e-08
2.86641e-06
-5.59865e-08
2.86159e-06
-5.2985e-08
2.86584e-06
-4.98586e-08
2.86192e-06
-4.68031e-08
2.86491e-06
-4.36743e-08
2.86231e-06
-4.05896e-08
2.86435e-06
-3.74595e-08
2.86263e-06
-3.43575e-08
2.86394e-06
-3.12256e-08
2.86283e-06
-2.81148e-08
2.86373e-06
-2.49832e-08
2.86291e-06
-2.18684e-08
2.86358e-06
-1.87401e-08
2.86307e-06
-1.56222e-08
2.86346e-06
-1.24956e-08
2.86314e-06
-9.37453e-09
2.86336e-06
-6.24824e-09
2.86318e-06
-3.12485e-09
2.8633e-06
3.50167e-14
2.86325e-06
3.12496e-09
2.86325e-06
6.24831e-09
2.8633e-06
9.37455e-09
2.86318e-06
1.24956e-08
2.86337e-06
1.56222e-08
2.86314e-06
1.87401e-08
2.86346e-06
2.18686e-08
2.86307e-06
2.49833e-08
2.86358e-06
2.81149e-08
2.86291e-06
3.12256e-08
2.86374e-06
3.43573e-08
2.86282e-06
3.74591e-08
2.86394e-06
4.05894e-08
2.86264e-06
4.36742e-08
2.86434e-06
4.68023e-08
2.86232e-06
4.98582e-08
2.86492e-06
5.29847e-08
2.86192e-06
5.59861e-08
2.86584e-06
5.90878e-08
2.8616e-06
6.2095e-08
2.86639e-06
6.53381e-08
2.85946e-06
6.912e-08
2.85861e-06
7.41375e-08
2.83557e-06
8.08634e-08
2.76433e-06
2.72406e-06
-8.53014e-08
2.71653e-06
-7.89415e-08
2.75799e-06
-7.37995e-08
2.83047e-06
-6.98248e-08
2.85468e-06
-6.63759e-08
2.85605e-06
-6.31564e-08
2.86324e-06
-5.98473e-08
2.85833e-06
-5.66309e-08
2.86268e-06
-5.32958e-08
2.85864e-06
-5.00241e-08
2.86169e-06
-4.66847e-08
2.85901e-06
-4.33837e-08
2.8611e-06
-4.0041e-08
2.85934e-06
-3.67231e-08
2.86067e-06
-3.33774e-08
2.85953e-06
-3.00509e-08
2.86046e-06
-2.67052e-08
2.85961e-06
-2.33746e-08
2.8603e-06
-2.00316e-08
2.85977e-06
-1.66981e-08
2.86017e-06
-1.33565e-08
2.85985e-06
-1.002e-08
2.86008e-06
-6.67871e-09
2.85988e-06
-3.34004e-09
2.86001e-06
2.8113e-14
2.85995e-06
3.34015e-09
2.85996e-06
6.67877e-09
2.86001e-06
1.002e-08
2.85988e-06
1.33565e-08
2.86008e-06
1.6698e-08
2.85985e-06
2.00315e-08
2.86017e-06
2.33747e-08
2.85977e-06
2.67052e-08
2.8603e-06
3.0051e-08
2.85961e-06
3.33775e-08
2.86046e-06
3.67229e-08
2.85953e-06
4.00406e-08
2.86067e-06
4.33836e-08
2.85934e-06
4.66846e-08
2.86109e-06
5.00232e-08
2.85902e-06
5.32954e-08
2.86169e-06
5.66306e-08
2.85863e-06
5.98468e-08
2.86267e-06
6.31558e-08
2.85834e-06
6.63762e-08
2.86322e-06
6.98251e-08
2.85605e-06
7.37998e-08
2.85468e-06
7.8942e-08
2.83046e-06
8.53026e-08
2.75799e-06
2.71653e-06
-8.97602e-08
2.70933e-06
-8.37255e-08
2.75198e-06
-7.8469e-08
2.82525e-06
-7.43094e-08
2.85056e-06
-7.06556e-08
2.85244e-06
-6.72241e-08
2.85986e-06
-6.37072e-08
2.85486e-06
-6.02762e-08
2.85929e-06
-5.67321e-08
2.85514e-06
-5.32446e-08
2.85825e-06
-4.96944e-08
2.85551e-06
-4.61773e-08
2.85763e-06
-4.26219e-08
2.85583e-06
-3.90882e-08
2.85719e-06
-3.55288e-08
2.85602e-06
-3.19865e-08
2.85696e-06
-2.84267e-08
2.8561e-06
-2.48805e-08
2.8568e-06
-2.13227e-08
2.85626e-06
-1.77737e-08
2.85667e-06
-1.42172e-08
2.85634e-06
-1.06654e-08
2.85657e-06
-7.10908e-09
2.85638e-06
-3.55519e-09
2.8565e-06
2.10378e-14
2.85645e-06
3.55529e-09
2.85645e-06
7.10914e-09
2.8565e-06
1.06654e-08
2.85638e-06
1.42172e-08
2.85657e-06
1.77737e-08
2.85634e-06
2.13227e-08
2.85667e-06
2.48806e-08
2.85626e-06
2.84268e-08
2.8568e-06
3.19866e-08
2.8561e-06
3.5529e-08
2.85697e-06
3.9088e-08
2.85602e-06
4.26215e-08
2.85719e-06
4.61773e-08
2.85583e-06
4.96942e-08
2.85762e-06
5.32437e-08
2.85552e-06
5.67318e-08
2.85825e-06
6.0276e-08
2.85514e-06
6.37067e-08
2.85929e-06
6.72236e-08
2.85487e-06
7.06558e-08
2.85983e-06
7.43096e-08
2.85245e-06
7.84694e-08
2.85056e-06
8.37259e-08
2.82524e-06
8.97613e-08
2.75198e-06
2.70934e-06
-9.42415e-08
2.70242e-06
-8.84934e-08
2.74625e-06
-8.31309e-08
2.81992e-06
-7.87932e-08
2.84626e-06
-7.49351e-08
2.84863e-06
-7.12931e-08
2.85626e-06
-6.75676e-08
2.85118e-06
-6.39222e-08
2.8557e-06
-6.01688e-08
2.85144e-06
-5.64657e-08
2.85459e-06
-5.27044e-08
2.8518e-06
-4.89715e-08
2.85395e-06
-4.52031e-08
2.85211e-06
-4.14538e-08
2.85348e-06
-3.76805e-08
2.8523e-06
-3.39225e-08
2.85325e-06
-3.01485e-08
2.85237e-06
-2.63866e-08
2.85309e-06
-2.2614e-08
2.85254e-06
-1.88495e-08
2.85295e-06
-1.5078e-08
2.85261e-06
-1.13108e-08
2.85285e-06
-7.5395e-09
2.85265e-06
-3.77036e-09
2.85278e-06
1.39811e-14
2.85272e-06
3.77047e-09
2.85272e-06
7.53956e-09
2.85278e-06
1.13108e-08
2.85265e-06
1.5078e-08
2.85285e-06
1.88495e-08
2.85261e-06
2.2614e-08
2.85295e-06
2.63868e-08
2.85254e-06
3.01485e-08
2.85309e-06
3.39226e-08
2.85237e-06
3.76806e-08
2.85326e-06
4.14535e-08
2.85229e-06
4.52027e-08
2.85349e-06
4.89715e-08
2.85211e-06
5.27042e-08
2.85393e-06
5.64649e-08
2.85181e-06
6.01686e-08
2.8546e-06
6.3922e-08
2.85143e-06
6.75671e-08
2.85569e-06
7.12926e-08
2.85119e-06
7.49353e-08
2.85624e-06
7.87933e-08
2.84863e-06
8.31313e-08
2.84627e-06
8.84939e-08
2.81991e-06
9.42426e-08
2.74626e-06
2.70243e-06
-9.87382e-08
2.69577e-06
-9.3241e-08
2.74078e-06
-8.77795e-08
2.81449e-06
-8.32699e-08
2.84179e-06
-7.92089e-08
2.84461e-06
-7.53576e-08
2.85246e-06
-7.14234e-08
2.8473e-06
-6.75639e-08
2.85189e-06
-6.36013e-08
2.84752e-06
-5.96831e-08
2.85072e-06
-5.57106e-08
2.84788e-06
-5.17624e-08
2.85005e-06
-4.77811e-08
2.84817e-06
-4.38165e-08
2.84957e-06
-3.98295e-08
2.84836e-06
-3.58562e-08
2.84933e-06
-3.18681e-08
2.84843e-06
-2.78909e-08
2.84916e-06
-2.39037e-08
2.8486e-06
-1.9924e-08
2.84902e-06
-1.59377e-08
2.84867e-06
-1.19555e-08
2.84891e-06
-7.96939e-09
2.84871e-06
-3.98528e-09
2.84884e-06
7.13198e-15
2.84878e-06
3.98538e-09
2.84878e-06
7.96945e-09
2.84884e-06
1.19555e-08
2.84871e-06
1.59377e-08
2.84892e-06
1.9924e-08
2.84867e-06
2.39037e-08
2.84902e-06
2.78911e-08
2.84859e-06
3.18681e-08
2.84916e-06
3.58563e-08
2.84843e-06
3.98296e-08
2.84933e-06
4.38162e-08
2.84835e-06
4.77808e-08
2.84957e-06
5.17624e-08
2.84818e-06
5.57105e-08
2.85003e-06
5.96823e-08
2.84789e-06
6.36012e-08
2.85073e-06
6.75636e-08
2.84752e-06
7.14228e-08
2.85188e-06
7.53572e-08
2.84731e-06
7.9209e-08
2.85243e-06
8.32699e-08
2.84462e-06
8.77799e-08
2.8418e-06
9.32415e-08
2.81448e-06
9.87393e-08
2.74078e-06
2.69577e-06
-1.03253e-07
2.68933e-06
-9.79723e-08
2.73552e-06
-9.24171e-08
2.80897e-06
-8.77408e-08
2.83716e-06
-8.34781e-08
2.84039e-06
-7.94188e-08
2.84844e-06
-7.52755e-08
2.8432e-06
-7.12022e-08
2.84786e-06
-6.70306e-08
2.8434e-06
-6.28977e-08
2.84664e-06
-5.87141e-08
2.84374e-06
-5.45507e-08
2.84593e-06
-5.03567e-08
2.84403e-06
-4.61771e-08
2.84543e-06
-4.19765e-08
2.84421e-06
-3.77881e-08
2.84518e-06
-3.35861e-08
2.84427e-06
-2.93938e-08
2.84501e-06
-2.51923e-08
2.84444e-06
-2.09975e-08
2.84487e-06
-1.67967e-08
2.84452e-06
-1.25995e-08
2.84476e-06
-8.39888e-09
2.84456e-06
-4.19999e-09
2.84469e-06
6.63477e-16
2.84463e-06
4.2001e-09
2.84463e-06
8.39893e-09
2.84469e-06
1.25996e-08
2.84456e-06
1.67967e-08
2.84476e-06
2.09975e-08
2.84452e-06
2.51922e-08
2.84487e-06
2.9394e-08
2.84444e-06
3.35861e-08
2.84501e-06
3.77882e-08
2.84428e-06
4.19766e-08
2.84519e-06
4.61768e-08
2.8442e-06
5.03563e-08
2.84544e-06
5.45507e-08
2.84403e-06
5.87139e-08
2.84592e-06
6.28969e-08
2.84375e-06
6.70305e-08
2.84664e-06
7.1202e-08
2.84339e-06
7.52749e-08
2.84786e-06
7.94186e-08
2.84321e-06
8.34782e-08
2.84842e-06
8.77407e-08
2.8404e-06
9.24175e-08
2.83716e-06
9.79728e-08
2.80896e-06
1.03254e-07
2.73553e-06
2.68933e-06
-1.0778e-07
2.68307e-06
-1.02685e-07
2.73045e-06
-9.70402e-08
2.80336e-06
-9.2202e-08
2.83236e-06
-8.77391e-08
2.83597e-06
-8.34731e-08
2.84422e-06
-7.91207e-08
2.83889e-06
-7.4834e-08
2.84362e-06
-7.04537e-08
2.83907e-06
-6.61067e-08
2.84234e-06
-6.17121e-08
2.83939e-06
-5.73342e-08
2.8416e-06
-5.29276e-08
2.83967e-06
-4.85334e-08
2.84109e-06
-4.41195e-08
2.83984e-06
-3.97166e-08
2.84083e-06
-3.53009e-08
2.8399e-06
-3.08941e-08
2.84065e-06
-2.64784e-08
2.84007e-06
-2.20691e-08
2.8405e-06
-1.76541e-08
2.84014e-06
-1.32425e-08
2.84039e-06
-8.82759e-09
2.84018e-06
-4.41432e-09
2.84032e-06
-5.25278e-15
2.84026e-06
4.41442e-09
2.84026e-06
8.82763e-09
2.84032e-06
1.32425e-08
2.84019e-06
1.76541e-08
2.8404e-06
2.20691e-08
2.84015e-06
2.64784e-08
2.8405e-06
3.08942e-08
2.84007e-06
3.53009e-08
2.84065e-06
3.97167e-08
2.83991e-06
4.41197e-08
2.84083e-06
4.85331e-08
2.83983e-06
5.29273e-08
2.84109e-06
5.73342e-08
2.83967e-06
6.17118e-08
2.84159e-06
6.61058e-08
2.8394e-06
7.04536e-08
2.84234e-06
7.48338e-08
2.83906e-06
7.91201e-08
2.84362e-06
8.3473e-08
2.8389e-06
8.77391e-08
2.8442e-06
9.22019e-08
2.83598e-06
9.70407e-08
2.83236e-06
1.02685e-07
2.80335e-06
1.07781e-07
2.73045e-06
2.68308e-06
-1.12319e-07
2.67698e-06
-1.07381e-07
2.72553e-06
-1.0165e-07
2.79766e-06
-9.66535e-08
2.8274e-06
-9.19918e-08
2.83136e-06
-8.75203e-08
2.8398e-06
-8.29589e-08
2.83438e-06
-7.84592e-08
2.83917e-06
-7.38705e-08
2.83452e-06
-6.93098e-08
2.83782e-06
-6.47045e-08
2.83483e-06
-6.01126e-08
2.83705e-06
-5.54938e-08
2.83509e-06
-5.08855e-08
2.83652e-06
-4.62586e-08
2.83526e-06
-4.16415e-08
2.83626e-06
-3.70126e-08
2.83532e-06
-3.23915e-08
2.83607e-06
-2.77622e-08
2.83549e-06
-2.31387e-08
2.83592e-06
-1.85099e-08
2.83556e-06
-1.38842e-08
2.83581e-06
-9.2555e-09
2.8356e-06
-4.62826e-09
2.83574e-06
-1.02302e-14
2.83568e-06
4.62835e-09
2.83568e-06
9.25554e-09
2.83574e-06
1.38842e-08
2.8356e-06
1.85098e-08
2.83581e-06
2.31388e-08
2.83556e-06
2.77622e-08
2.83592e-06
3.23917e-08
2.83548e-06
3.70126e-08
2.83607e-06
4.16416e-08
2.83532e-06
4.62588e-08
2.83626e-06
5.08852e-08
2.83525e-06
5.54934e-08
2.83653e-06
6.01126e-08
2.8351e-06
6.47042e-08
2.83704e-06
6.9309e-08
2.83484e-06
7.38704e-08
2.83782e-06
7.8459e-08
2.83452e-06
8.29583e-08
2.83916e-06
8.75203e-08
2.83439e-06
9.19917e-08
2.83977e-06
9.66533e-08
2.83136e-06
1.0165e-07
2.8274e-06
1.07381e-07
2.79765e-06
1.1232e-07
2.72554e-06
2.67699e-06
-1.16871e-07
2.67102e-06
-1.12062e-07
2.72075e-06
-1.06247e-07
2.79188e-06
-1.01096e-07
2.82229e-06
-9.62369e-08
2.82654e-06
-9.1561e-08
2.83516e-06
-8.67907e-08
2.82965e-06
-8.20784e-08
2.8345e-06
-7.72815e-08
2.82977e-06
-7.25078e-08
2.83309e-06
-6.76919e-08
2.83006e-06
-6.28864e-08
2.83229e-06
-5.80556e-08
2.83031e-06
-5.32337e-08
2.83175e-06
-4.83941e-08
2.83046e-06
-4.35633e-08
2.83147e-06
-3.87214e-08
2.83052e-06
-3.38865e-08
2.83128e-06
-2.90438e-08
2.83069e-06
-2.42065e-08
2.83113e-06
-1.93642e-08
2.83076e-06
-1.45249e-08
2.83102e-06
-9.68268e-09
2.8308e-06
-4.84183e-09
2.83094e-06
-1.42466e-14
2.83088e-06
4.84192e-09
2.83088e-06
9.68272e-09
2.83094e-06
1.45249e-08
2.8308e-06
1.93642e-08
2.83102e-06
2.42066e-08
2.83076e-06
2.90438e-08
2.83113e-06
3.38866e-08
2.83068e-06
3.87214e-08
2.83128e-06
4.35633e-08
2.83052e-06
4.83943e-08
2.83147e-06
5.32334e-08
2.83046e-06
5.80553e-08
2.83175e-06
6.28864e-08
2.83031e-06
6.76917e-08
2.83228e-06
7.2507e-08
2.83007e-06
7.72815e-08
2.83309e-06
8.20782e-08
2.82977e-06
8.67901e-08
2.8345e-06
9.15611e-08
2.82966e-06
9.62368e-08
2.83514e-06
1.01096e-07
2.82654e-06
1.06247e-07
2.82229e-06
1.12063e-07
2.79187e-06
1.16872e-07
2.72075e-06
2.67103e-06
-1.21434e-07
2.66517e-06
-1.16729e-07
2.71606e-06
-1.1083e-07
2.78601e-06
-1.05528e-07
2.81702e-06
-1.00473e-07
2.82152e-06
-9.55933e-08
2.83033e-06
-9.06144e-08
2.82472e-06
-8.56899e-08
2.82962e-06
-8.06853e-08
2.82481e-06
-7.5699e-08
2.82815e-06
-7.06729e-08
2.82508e-06
-6.56544e-08
2.82731e-06
-6.0612e-08
2.82531e-06
-5.55769e-08
2.82675e-06
-5.0525e-08
2.82545e-06
-4.54809e-08
2.82647e-06
-4.04265e-08
2.82551e-06
-3.53783e-08
2.82628e-06
-3.03227e-08
2.82567e-06
-2.52721e-08
2.82612e-06
-2.02167e-08
2.82575e-06
-1.51642e-08
2.82601e-06
-1.0109e-08
2.82579e-06
-5.05495e-09
2.82593e-06
-1.72434e-14
2.82586e-06
5.05503e-09
2.82586e-06
1.0109e-08
2.82593e-06
1.51642e-08
2.82579e-06
2.02167e-08
2.82601e-06
2.52722e-08
2.82575e-06
3.03227e-08
2.82612e-06
3.53784e-08
2.82567e-06
4.04264e-08
2.82627e-06
4.5481e-08
2.82551e-06
5.05252e-08
2.82647e-06
5.55765e-08
2.82545e-06
6.06116e-08
2.82676e-06
6.56544e-08
2.82531e-06
7.06727e-08
2.8273e-06
7.56982e-08
2.82509e-06
8.06853e-08
2.82815e-06
8.56897e-08
2.8248e-06
9.06138e-08
2.82962e-06
9.55935e-08
2.82472e-06
1.00472e-07
2.8303e-06
1.05527e-07
2.82153e-06
1.1083e-07
2.81702e-06
1.16729e-07
2.786e-06
1.21435e-07
2.71607e-06
2.66518e-06
-1.26005e-07
2.65941e-06
-1.21381e-07
2.71146e-06
-1.15398e-07
2.78006e-06
-1.09947e-07
2.81161e-06
-1.04697e-07
2.81631e-06
-9.96157e-08
2.82529e-06
-9.44287e-08
2.81957e-06
-8.92925e-08
2.82453e-06
-8.40806e-08
2.81964e-06
-7.88824e-08
2.823e-06
-7.36465e-08
2.81988e-06
-6.84155e-08
2.82213e-06
-6.31619e-08
2.8201e-06
-5.79142e-08
2.82155e-06
-5.26506e-08
2.82023e-06
-4.73938e-08
2.82125e-06
-4.21273e-08
2.82029e-06
-3.68663e-08
2.82106e-06
-3.15983e-08
2.82045e-06
-2.6335e-08
2.8209e-06
-2.10671e-08
2.82052e-06
-1.58019e-08
2.82078e-06
-1.05341e-08
2.82056e-06
-5.26753e-09
2.8207e-06
-1.91016e-14
2.82064e-06
5.26761e-09
2.82064e-06
1.05342e-08
2.8207e-06
1.58019e-08
2.82056e-06
2.10671e-08
2.82078e-06
2.63351e-08
2.82052e-06
3.15983e-08
2.8209e-06
3.68664e-08
2.82044e-06
4.21272e-08
2.82105e-06
4.73938e-08
2.82029e-06
5.26508e-08
2.82126e-06
5.79139e-08
2.82023e-06
6.31616e-08
2.82155e-06
6.84155e-08
2.8201e-06
7.36462e-08
2.82212e-06
7.88816e-08
2.8199e-06
8.40806e-08
2.82299e-06
8.92922e-08
2.81964e-06
9.4428e-08
2.82453e-06
9.96159e-08
2.81958e-06
1.04697e-07
2.82526e-06
1.09947e-07
2.81632e-06
1.15399e-07
2.81161e-06
1.21381e-07
2.78005e-06
1.26006e-07
2.71146e-06
2.65941e-06
-1.30585e-07
2.65371e-06
-1.2602e-07
2.70691e-06
-1.19954e-07
2.77402e-06
-1.14355e-07
2.80604e-06
-1.08912e-07
2.81091e-06
-1.03629e-07
2.82004e-06
-9.82344e-08
2.81422e-06
-9.2887e-08
2.81922e-06
-8.74684e-08
2.81427e-06
-8.20588e-08
2.81763e-06
-7.66134e-08
2.81448e-06
-7.11704e-08
2.81672e-06
-6.57061e-08
2.81467e-06
-6.02464e-08
2.81613e-06
-5.47714e-08
2.8148e-06
-4.93023e-08
2.81582e-06
-4.38243e-08
2.81485e-06
-3.8351e-08
2.81562e-06
-3.28711e-08
2.81501e-06
-2.73955e-08
2.81546e-06
-2.19156e-08
2.81508e-06
-1.64382e-08
2.81534e-06
-1.09584e-08
2.81512e-06
-5.47963e-09
2.81526e-06
-1.97159e-14
2.8152e-06
5.47971e-09
2.8152e-06
1.09584e-08
2.81526e-06
1.64382e-08
2.81512e-06
2.19156e-08
2.81535e-06
2.73956e-08
2.81508e-06
3.28711e-08
2.81546e-06
3.83511e-08
2.815e-06
4.38242e-08
2.81562e-06
4.93024e-08
2.81485e-06
5.47716e-08
2.81583e-06
6.0246e-08
2.8148e-06
6.57058e-08
2.81613e-06
7.11705e-08
2.81468e-06
7.66131e-08
2.81671e-06
8.20581e-08
2.81449e-06
8.74684e-08
2.81763e-06
9.28868e-08
2.81426e-06
9.82338e-08
2.81922e-06
1.03629e-07
2.81423e-06
1.08912e-07
2.82002e-06
1.14355e-07
2.81091e-06
1.19954e-07
2.80604e-06
1.2602e-07
2.77401e-06
1.30586e-07
2.70692e-06
2.65372e-06
-1.35171e-07
2.64807e-06
-1.30645e-07
2.70241e-06
-1.24495e-07
2.7679e-06
-1.1875e-07
2.80033e-06
-1.13115e-07
2.80531e-06
-1.07632e-07
2.8146e-06
-1.0203e-07
2.80866e-06
-9.64719e-08
2.81371e-06
-9.08469e-08
2.80868e-06
-8.52266e-08
2.81205e-06
-7.95722e-08
2.80887e-06
-7.39179e-08