/*--------------------------------*- C++ -*----------------------------------*\
| =========                 |                                                 |
| \\      /  F ield         | OpenFOAM: The Open Source CFD Toolbox           |
|  \\    /   O peration     | Version:  dev                                   |
|   \\  /    A nd           | Web:      www.OpenFOAM.org                      |
|    \\/     M anipulation  |                                                 |
\*---------------------------------------------------------------------------*/
FoamFile
{
    version     2.0;
    format      ascii;
    class       surfaceScalarField;
    location    "0.06";
    object      phi;
}
// * * * * * * * * * * * * * * * * * * * * * * * * * * * * * * * * * * * * * //

dimensions      [1 0 -1 0 0 0 0];

internalField   nonuniform List<scalar> 
12
(
3.67751e-06
3.81835e-06
3.96753e-06
4.12645e-06
4.29216e-06
4.46542e-06
4.64816e-06
4.83628e-06
5.03079e-06
5.28677e-06
5.63145e-06
6.14312e-06
)
;

boundaryField
{
    front
    {
        type            wedge;
        value           nonuniform List<scalar> 
13
(
-1.8272e-17
-1.92431e-17
-1.91017e-17
-1.8895e-17
-1.72816e-17
-1.55408e-17
-1.3781e-17
-1.19442e-17
-1.00654e-17
-8.01421e-18
-5.93671e-18
-3.91611e-18
-2.30044e-18
)
;
    }
    back
    {
        type            wedge;
        value           nonuniform List<scalar> 
13
(
1.82728e-17
1.92431e-17
1.91017e-17
1.8895e-17
1.72816e-17
1.55408e-17
1.3781e-17
1.19442e-17
1.00654e-17
8.01421e-18
5.93671e-18
3.91611e-18
2.30044e-18
)
;
    }
    wall
    {
        type            calculated;
        value           nonuniform List<scalar> 
13
(
-3.53144e-12
-3.34364e-12
-3.14374e-12
-2.92724e-12
-2.70126e-12
-2.45951e-12
-2.20931e-12
-1.94212e-12
-1.66294e-12
-1.34874e-12
-1.0207e-12
-6.94885e-13
-4.25594e-13
)
;
    }
    fuel
    {
        type            calculated;
        value           nonuniform 0();
    }
    outlet
    {
        type            calculated;
        value           uniform 6.95042e-06;
    }
    axis
    {
        type            empty;
        value           nonuniform 0();
    }
    procBoundary7to6
    {
        type            processor;
        value           uniform -3.5444e-06;
    }
}


// ************************************************************************* //
