/*--------------------------------*- C++ -*----------------------------------*\
| =========                 |                                                 |
| \\      /  F ield         | OpenFOAM: The Open Source CFD Toolbox           |
|  \\    /   O peration     | Version:  dev                                   |
|   \\  /    A nd           | Web:      www.OpenFOAM.org                      |
|    \\/     M anipulation  |                                                 |
\*---------------------------------------------------------------------------*/
FoamFile
{
    version     2.0;
    format      ascii;
    class       volScalarField;
    location    "0.1";
    object      A2C2HA*;
}
// * * * * * * * * * * * * * * * * * * * * * * * * * * * * * * * * * * * * * //

dimensions      [0 0 0 0 0 0 0];

internalField   nonuniform List<scalar> 
25
(
9.61634e-19
7.99709e-19
6.51164e-19
5.15041e-19
4.00386e-19
3.02757e-19
2.22913e-19
1.59174e-19
1.09488e-19
7.20826e-20
4.64354e-20
2.87941e-20
1.72063e-20
9.92604e-21
5.54723e-21
3.0162e-21
1.60255e-21
8.32117e-22
4.18497e-22
1.99554e-22
8.75683e-23
3.4696e-23
1.2756e-23
4.74191e-24
1.70384e-24
)
;

boundaryField
{
    wall
    {
        type            zeroGradient;
    }
    fuel
    {
        type            fixedValue;
        value           nonuniform 0();
    }
    outlet
    {
        type            inletOutlet;
        inletValue      uniform 0;
        value           uniform 1.70384e-24;
    }
    procBoundary3to2
    {
        type            processor;
        value           uniform 1.14137e-18;
    }
}


// ************************************************************************* //
