/*--------------------------------*- C++ -*----------------------------------*\
| =========                 |                                                 |
| \\      /  F ield         | OpenFOAM: The Open Source CFD Toolbox           |
|  \\    /   O peration     | Version:  dev                                   |
|   \\  /    A nd           | Web:      www.OpenFOAM.org                      |
|    \\/     M anipulation  |                                                 |
\*---------------------------------------------------------------------------*/
FoamFile
{
    version     2.0;
    format      ascii;
    class       volScalarField;
    location    "0.1";
    object      C2H;
}
// * * * * * * * * * * * * * * * * * * * * * * * * * * * * * * * * * * * * * //

dimensions      [0 0 0 0 0 0 0];

internalField   nonuniform List<scalar> 
250
(
6.54202e-06
6.54272e-06
6.54278e-06
6.54314e-06
6.54271e-06
6.54268e-06
6.54225e-06
6.5202e-06
6.42113e-06
5.57993e-06
1.38854e-09
9.60088e-06
9.602e-06
9.60202e-06
9.60261e-06
9.60239e-06
9.60113e-06
9.606e-06
9.57708e-06
9.51044e-06
8.69438e-06
3.94355e-09
6.64023e-06
6.64146e-06
6.64178e-06
6.64186e-06
6.64317e-06
6.63917e-06
6.65201e-06
6.61729e-06
6.61508e-06
6.06071e-06
6.7514e-09
4.38535e-06
4.38654e-06
4.38718e-06
4.38695e-06
4.38858e-06
4.38408e-06
4.39966e-06
4.36299e-06
4.39105e-06
4.01096e-06
2.56849e-07
3.12798e-06
3.12917e-06
3.12998e-06
3.12965e-06
3.13065e-06
3.12662e-06
3.14163e-06
3.10636e-06
3.1476e-06
2.83601e-06
6.68847e-06
2.44219e-06
2.44347e-06
2.44426e-06
2.44393e-06
2.44395e-06
2.43847e-06
2.45318e-06
2.41906e-06
2.41929e-06
2.14661e-06
1.03094e-05
2.0385e-06
2.04084e-06
2.04236e-06
2.04193e-06
2.03899e-06
2.0442e-06
2.05377e-06
2.02613e-06
2.01962e-06
1.68765e-06
7.9811e-06
1.79805e-06
1.801e-06
1.80253e-06
1.80204e-06
1.79903e-06
1.80216e-06
1.81277e-06
1.78789e-06
1.76969e-06
1.38719e-06
5.28047e-06
1.63629e-06
1.63894e-06
1.64059e-06
1.63999e-06
1.64109e-06
1.63959e-06
1.64339e-06
1.61258e-06
1.59564e-06
1.19243e-06
3.40611e-06
1.51975e-06
1.52347e-06
1.52546e-06
1.52455e-06
1.52727e-06
1.52449e-06
1.53008e-06
1.50192e-06
1.46392e-06
1.0426e-06
2.2255e-06
1.42941e-06
1.43153e-06
1.43034e-06
1.43177e-06
1.43059e-06
1.43561e-06
1.40927e-06
1.36178e-06
9.34776e-07
1.49108e-06
1.35194e-06
1.35418e-06
1.3527e-06
1.35218e-06
1.35327e-06
1.35803e-06
1.33222e-06
1.2767e-06
8.46335e-07
1.03096e-06
1.28413e-06
1.28646e-06
1.28482e-06
1.28147e-06
1.28562e-06
1.29026e-06
1.26482e-06
1.20118e-06
7.74842e-07
7.38796e-07
1.22222e-06
1.22458e-06
1.22312e-06
1.22435e-06
1.22397e-06
1.22852e-06
1.20353e-06
1.14471e-06
7.16557e-07
5.4836e-07
1.16406e-06
1.1664e-06
1.1654e-06
1.17142e-06
1.16614e-06
1.17066e-06
1.14619e-06
1.09287e-06
6.71468e-07
4.22988e-07
1.1083e-06
1.11056e-06
1.11006e-06
1.1151e-06
1.11073e-06
1.11532e-06
1.0914e-06
1.0385e-06
6.33827e-07
3.38305e-07
1.054e-06
1.05612e-06
1.05599e-06
1.06026e-06
1.05689e-06
1.06158e-06
1.03826e-06
9.86341e-07
6.00347e-07
2.80536e-07
1.00045e-06
1.00237e-06
1.00245e-06
1.00675e-06
1.00399e-06
1.00877e-06
9.86115e-07
9.35744e-07
5.71523e-07
2.41743e-07
9.46877e-07
9.48762e-07
9.48931e-07
9.53918e-07
9.51502e-07
9.56341e-07
9.34409e-07
8.95195e-07
5.46579e-07
2.11853e-07
8.99042e-07
8.9477e-07
8.94959e-07
9.01227e-07
8.98985e-07
9.03802e-07
8.82533e-07
8.51098e-07
5.2436e-07
1.94293e-07
8.47571e-07
8.46432e-07
8.46548e-07
8.48192e-07
8.46014e-07
8.50637e-07
8.35327e-07
8.05416e-07
5.03902e-07
1.8235e-07
7.93166e-07
7.94336e-07
7.92076e-07
7.94164e-07
7.92142e-07
7.96151e-07
7.84342e-07
7.59772e-07
4.84352e-07
1.75184e-07
7.43627e-07
7.45051e-07
7.42609e-07
7.45064e-07
7.43011e-07
7.46812e-07
7.36269e-07
7.13559e-07
4.64928e-07
1.70348e-07
6.88683e-07
6.90235e-07
6.87916e-07
6.90499e-07
6.8869e-07
6.95624e-07
6.84129e-07
6.65915e-07
4.44895e-07
1.68257e-07
)
;

boundaryField
{
    fuel
    {
        type            fixedValue;
        value           uniform 0;
    }
    wall
    {
        type            zeroGradient;
    }
    outlet
    {
        type            zeroGradient;
    }
    frontAndBack
    {
        type            empty;
    }
    procBoundary3to0
    {
        type            processor;
        value           nonuniform List<scalar> 10(6.37059e-07 6.38653e-07 6.36511e-07 6.3923e-07 6.3752e-07 6.44397e-07 6.34204e-07 6.16072e-07 4.23664e-07 1.67526e-07);
    }
    procBoundary3to2
    {
        type            processor;
        value           nonuniform List<scalar> 
25
(
6.54261e-06
9.60187e-06
6.64143e-06
4.38659e-06
3.12919e-06
2.44341e-06
2.04061e-06
1.80059e-06
1.63832e-06
1.52243e-06
1.42558e-06
1.42558e-06
1.34869e-06
1.28162e-06
1.22064e-06
1.16496e-06
1.10955e-06
1.05394e-06
1.00481e-06
9.56433e-07
9.02567e-07
8.48439e-07
7.93585e-07
7.43801e-07
6.88783e-07
)
;
    }
}


// ************************************************************************* //
