/*--------------------------------*- C++ -*----------------------------------*\
| =========                 |                                                 |
| \\      /  F ield         | OpenFOAM: The Open Source CFD Toolbox           |
|  \\    /   O peration     | Version:  dev                                   |
|   \\  /    A nd           | Web:      www.OpenFOAM.org                      |
|    \\/     M anipulation  |                                                 |
\*---------------------------------------------------------------------------*/
FoamFile
{
    version     2.0;
    format      ascii;
    class       volScalarField;
    location    "0.1";
    object      C2O;
}
// * * * * * * * * * * * * * * * * * * * * * * * * * * * * * * * * * * * * * //

dimensions      [0 0 0 0 0 0 0];

internalField   nonuniform List<scalar> 
1989
(
1.60645e-08
1.60563e-08
1.60526e-08
1.60474e-08
1.60461e-08
1.60428e-08
1.60426e-08
1.60406e-08
1.60408e-08
1.60396e-08
1.60398e-08
1.60392e-08
1.60394e-08
1.60392e-08
1.60392e-08
1.60394e-08
1.60392e-08
1.60398e-08
1.60396e-08
1.60407e-08
1.60406e-08
1.60426e-08
1.60428e-08
1.60461e-08
1.60474e-08
1.60526e-08
1.60564e-08
1.60645e-08
1.60738e-08
1.60881e-08
1.61099e-08
1.61347e-08
1.61802e-08
1.62264e-08
1.63188e-08
1.64198e-08
1.65374e-08
1.6741e-08
1.68551e-08
1.55484e-08
1.54416e-08
1.52506e-08
1.51427e-08
1.50512e-08
1.4967e-08
1.49248e-08
1.48833e-08
1.48611e-08
1.48411e-08
1.48282e-08
1.48197e-08
1.48123e-08
1.4809e-08
1.48042e-08
1.48031e-08
1.48002e-08
1.48e-08
1.47982e-08
1.47983e-08
1.47973e-08
1.47975e-08
1.47969e-08
1.47971e-08
1.47969e-08
1.47969e-08
1.47971e-08
1.47969e-08
1.47975e-08
1.47972e-08
1.47983e-08
1.47982e-08
1.48e-08
1.48002e-08
1.48031e-08
1.48043e-08
1.48091e-08
1.48124e-08
1.48197e-08
1.48282e-08
1.48412e-08
1.4861e-08
1.48833e-08
1.49247e-08
1.49669e-08
1.50511e-08
1.51426e-08
1.52505e-08
1.54415e-08
1.55482e-08
1.43398e-08
1.42401e-08
1.40607e-08
1.39619e-08
1.38791e-08
1.38026e-08
1.3764e-08
1.37264e-08
1.37064e-08
1.36883e-08
1.36766e-08
1.36689e-08
1.36622e-08
1.36592e-08
1.36548e-08
1.36539e-08
1.36512e-08
1.36511e-08
1.36494e-08
1.36496e-08
1.36486e-08
1.36488e-08
1.36483e-08
1.36484e-08
1.36483e-08
1.36483e-08
1.36484e-08
1.36483e-08
1.36488e-08
1.36486e-08
1.36496e-08
1.36494e-08
1.3651e-08
1.36512e-08
1.36539e-08
1.36549e-08
1.36592e-08
1.36622e-08
1.36689e-08
1.36765e-08
1.36883e-08
1.37063e-08
1.37263e-08
1.37639e-08
1.38025e-08
1.38791e-08
1.39618e-08
1.40606e-08
1.424e-08
1.43396e-08
1.32115e-08
1.31177e-08
1.29473e-08
1.28563e-08
1.2781e-08
1.27109e-08
1.26759e-08
1.26413e-08
1.26234e-08
1.26068e-08
1.25961e-08
1.25891e-08
1.2583e-08
1.25803e-08
1.25764e-08
1.25755e-08
1.25731e-08
1.2573e-08
1.25715e-08
1.25717e-08
1.25708e-08
1.2571e-08
1.25705e-08
1.25706e-08
1.25705e-08
1.25705e-08
1.25706e-08
1.25705e-08
1.25709e-08
1.25707e-08
1.25716e-08
1.25715e-08
1.2573e-08
1.25731e-08
1.25755e-08
1.25764e-08
1.25804e-08
1.25831e-08
1.25891e-08
1.2596e-08
1.26069e-08
1.26233e-08
1.26412e-08
1.26758e-08
1.27108e-08
1.2781e-08
1.28562e-08
1.29472e-08
1.31175e-08
1.32113e-08
1.21532e-08
1.20665e-08
1.19278e-08
1.18454e-08
1.17774e-08
1.17134e-08
1.16822e-08
1.16505e-08
1.16344e-08
1.16194e-08
1.16096e-08
1.16034e-08
1.15978e-08
1.15955e-08
1.15918e-08
1.15911e-08
1.15889e-08
1.15888e-08
1.15875e-08
1.15876e-08
1.15868e-08
1.1587e-08
1.15866e-08
1.15867e-08
1.15866e-08
1.15866e-08
1.15867e-08
1.15866e-08
1.1587e-08
1.15868e-08
1.15876e-08
1.15874e-08
1.15888e-08
1.15889e-08
1.15911e-08
1.15919e-08
1.15955e-08
1.15979e-08
1.16034e-08
1.16096e-08
1.16195e-08
1.16344e-08
1.16504e-08
1.16821e-08
1.17134e-08
1.17774e-08
1.18453e-08
1.19277e-08
1.20663e-08
1.2153e-08
1.1194e-08
1.11135e-08
1.09816e-08
1.09032e-08
1.08396e-08
1.07797e-08
1.07511e-08
1.07213e-08
1.07066e-08
1.06927e-08
1.06836e-08
1.06779e-08
1.06728e-08
1.06706e-08
1.06672e-08
1.06666e-08
1.06645e-08
1.06645e-08
1.06632e-08
1.06634e-08
1.06626e-08
1.06628e-08
1.06624e-08
1.06626e-08
1.06624e-08
1.06624e-08
1.06626e-08
1.06624e-08
1.06628e-08
1.06626e-08
1.06634e-08
1.06632e-08
1.06645e-08
1.06645e-08
1.06666e-08
1.06673e-08
1.06706e-08
1.06728e-08
1.06779e-08
1.06836e-08
1.06928e-08
1.07066e-08
1.07212e-08
1.0751e-08
1.07797e-08
1.08396e-08
1.09031e-08
1.09815e-08
1.11134e-08
1.11939e-08
1.03043e-08
1.02289e-08
1.01064e-08
1.00342e-08
9.97655e-09
9.92179e-09
9.89626e-09
9.86881e-09
9.85569e-09
9.84303e-09
9.83472e-09
9.8296e-09
9.82494e-09
9.82296e-09
9.81991e-09
9.81935e-09
9.81747e-09
9.81746e-09
9.81631e-09
9.81648e-09
9.81579e-09
9.81598e-09
9.81562e-09
9.81573e-09
9.81561e-09
9.8156e-09
9.81572e-09
9.8156e-09
9.81596e-09
9.81577e-09
9.81646e-09
9.81629e-09
9.81745e-09
9.81747e-09
9.81935e-09
9.81993e-09
9.823e-09
9.82497e-09
9.82959e-09
9.83466e-09
9.84313e-09
9.85564e-09
9.86875e-09
9.8962e-09
9.92173e-09
9.97649e-09
1.00341e-08
1.01064e-08
1.02288e-08
1.03042e-08
9.47798e-09
9.4068e-09
9.29417e-09
9.22678e-09
9.17478e-09
9.12458e-09
9.10184e-09
9.07653e-09
9.06482e-09
9.05332e-09
9.04568e-09
9.04111e-09
9.03687e-09
9.0351e-09
9.03231e-09
9.03184e-09
9.03012e-09
9.03014e-09
9.02908e-09
9.02925e-09
9.02862e-09
9.0288e-09
9.02847e-09
9.02858e-09
9.02847e-09
9.02846e-09
9.02857e-09
9.02846e-09
9.02878e-09
9.0286e-09
9.02924e-09
9.02906e-09
9.03013e-09
9.03011e-09
9.03184e-09
9.03233e-09
9.03513e-09
9.0369e-09
9.04111e-09
9.04562e-09
9.0534e-09
9.06478e-09
9.07648e-09
9.10178e-09
9.12452e-09
9.17472e-09
9.22672e-09
9.2941e-09
9.40671e-09
9.47786e-09
8.70592e-09
8.63835e-09
8.5336e-09
8.46916e-09
8.4215e-09
8.37478e-09
8.3542e-09
8.33051e-09
8.31988e-09
8.30924e-09
8.30214e-09
8.29799e-09
8.29407e-09
8.29246e-09
8.28988e-09
8.28947e-09
8.28789e-09
8.28793e-09
8.28695e-09
8.28713e-09
8.28655e-09
8.28672e-09
8.28642e-09
8.28652e-09
8.28642e-09
8.28642e-09
8.28652e-09
8.2864e-09
8.28671e-09
8.28653e-09
8.28711e-09
8.28694e-09
8.28792e-09
8.28788e-09
8.28947e-09
8.2899e-09
8.29249e-09
8.2941e-09
8.29799e-09
8.30208e-09
8.30931e-09
8.31983e-09
8.33045e-09
8.35414e-09
8.37472e-09
8.42145e-09
8.4691e-09
8.53353e-09
8.63826e-09
8.70582e-09
7.97484e-09
7.91175e-09
7.81677e-09
7.7558e-09
7.71288e-09
7.67038e-09
7.65206e-09
7.63036e-09
7.6209e-09
7.61122e-09
7.60479e-09
7.60107e-09
7.59753e-09
7.59607e-09
7.59374e-09
7.59338e-09
7.59195e-09
7.592e-09
7.59112e-09
7.59129e-09
7.59077e-09
7.59093e-09
7.59066e-09
7.59076e-09
7.59066e-09
7.59066e-09
7.59075e-09
7.59064e-09
7.59092e-09
7.59075e-09
7.59128e-09
7.59111e-09
7.59199e-09
7.59195e-09
7.59339e-09
7.59375e-09
7.5961e-09
7.59755e-09
7.60108e-09
7.60472e-09
7.6113e-09
7.62084e-09
7.63031e-09
7.65201e-09
7.67033e-09
7.71283e-09
7.75575e-09
7.81671e-09
7.91167e-09
7.97474e-09
7.29402e-09
7.23527e-09
7.14923e-09
7.10312e-09
7.06441e-09
7.02545e-09
7.00922e-09
6.98918e-09
6.98075e-09
6.97193e-09
6.96606e-09
6.96273e-09
6.95951e-09
6.95821e-09
6.95607e-09
6.95578e-09
6.95447e-09
6.95454e-09
6.95374e-09
6.9539e-09
6.95342e-09
6.95358e-09
6.95333e-09
6.95343e-09
6.95334e-09
6.95334e-09
6.95342e-09
6.95332e-09
6.95357e-09
6.95341e-09
6.95389e-09
6.95372e-09
6.95453e-09
6.95447e-09
6.95578e-09
6.95608e-09
6.95824e-09
6.95953e-09
6.96274e-09
6.96601e-09
6.97197e-09
6.98071e-09
6.98913e-09
7.00917e-09
7.0254e-09
7.06437e-09
7.10307e-09
7.14917e-09
7.2352e-09
7.29393e-09
6.67102e-09
6.6164e-09
6.53776e-09
6.49491e-09
6.46004e-09
6.42437e-09
6.41005e-09
6.39155e-09
6.38409e-09
6.37605e-09
6.37068e-09
6.36767e-09
6.36459e-09
6.36335e-09
6.36128e-09
6.36101e-09
6.35975e-09
6.35982e-09
6.35905e-09
6.35922e-09
6.35876e-09
6.35891e-09
6.35867e-09
6.35876e-09
6.35868e-09
6.35868e-09
6.35876e-09
6.35866e-09
6.3589e-09
6.35874e-09
6.3592e-09
6.35904e-09
6.35982e-09
6.35975e-09
6.36101e-09
6.36129e-09
6.36338e-09
6.36462e-09
6.36768e-09
6.37067e-09
6.37607e-09
6.38405e-09
6.39151e-09
6.41001e-09
6.42432e-09
6.46e-09
6.49486e-09
6.53771e-09
6.61634e-09
6.67094e-09
6.08526e-09
6.03331e-09
5.95989e-09
5.91984e-09
5.88795e-09
5.85571e-09
5.8431e-09
5.8262e-09
5.81961e-09
5.81234e-09
5.80748e-09
5.80479e-09
5.80201e-09
5.80089e-09
5.799e-09
5.79877e-09
5.79763e-09
5.79771e-09
5.79701e-09
5.79717e-09
5.79675e-09
5.79689e-09
5.79668e-09
5.79676e-09
5.79669e-09
5.79669e-09
5.79676e-09
5.79667e-09
5.79688e-09
5.79674e-09
5.79715e-09
5.797e-09
5.7977e-09
5.79763e-09
5.79877e-09
5.79902e-09
5.80092e-09
5.80203e-09
5.8048e-09
5.80747e-09
5.81235e-09
5.81957e-09
5.82616e-09
5.84306e-09
5.85566e-09
5.88792e-09
5.91979e-09
5.95984e-09
6.03325e-09
6.08519e-09
5.53591e-09
5.48768e-09
5.42147e-09
5.38477e-09
5.35609e-09
5.32713e-09
5.31609e-09
5.30073e-09
5.29493e-09
5.28837e-09
5.28402e-09
5.28162e-09
5.27913e-09
5.27812e-09
5.2764e-09
5.2762e-09
5.27518e-09
5.27525e-09
5.27463e-09
5.27478e-09
5.2744e-09
5.27454e-09
5.27434e-09
5.27442e-09
5.27435e-09
5.27435e-09
5.27442e-09
5.27433e-09
5.27452e-09
5.27439e-09
5.27476e-09
5.27462e-09
5.27525e-09
5.27518e-09
5.2762e-09
5.27642e-09
5.27814e-09
5.27915e-09
5.28164e-09
5.28402e-09
5.28837e-09
5.2949e-09
5.30069e-09
5.31605e-09
5.32709e-09
5.35606e-09
5.38473e-09
5.42143e-09
5.48762e-09
5.53584e-09
5.0355e-09
4.99052e-09
4.93121e-09
4.8974e-09
4.87186e-09
4.8457e-09
4.83616e-09
4.82216e-09
4.81711e-09
4.81117e-09
4.80733e-09
4.80518e-09
4.80294e-09
4.80205e-09
4.80047e-09
4.80031e-09
4.79938e-09
4.79946e-09
4.7989e-09
4.79904e-09
4.7987e-09
4.79883e-09
4.79865e-09
4.79873e-09
4.79867e-09
4.79867e-09
4.79872e-09
4.79865e-09
4.79882e-09
4.79869e-09
4.79903e-09
4.79889e-09
4.79946e-09
4.79938e-09
4.80031e-09
4.80049e-09
4.80207e-09
4.80295e-09
4.80519e-09
4.80734e-09
4.81117e-09
4.81708e-09
4.82213e-09
4.83613e-09
4.84567e-09
4.87183e-09
4.89736e-09
4.93117e-09
4.99048e-09
5.03544e-09
4.57331e-09
4.53224e-09
4.47941e-09
4.44822e-09
4.42549e-09
4.40114e-09
4.39272e-09
4.37969e-09
4.37522e-09
4.36974e-09
4.36627e-09
4.36431e-09
4.36226e-09
4.36145e-09
4.35999e-09
4.35985e-09
4.359e-09
4.35908e-09
4.35856e-09
4.3587e-09
4.35839e-09
4.35851e-09
4.35835e-09
4.35842e-09
4.35836e-09
4.35836e-09
4.35841e-09
4.35834e-09
4.3585e-09
4.35838e-09
4.35869e-09
4.35855e-09
4.35908e-09
4.359e-09
4.35985e-09
4.36e-09
4.36147e-09
4.36227e-09
4.36432e-09
4.36628e-09
4.36973e-09
4.37518e-09
4.37966e-09
4.39269e-09
4.40111e-09
4.42546e-09
4.44819e-09
4.47937e-09
4.5322e-09
4.57325e-09
4.14932e-09
4.11211e-09
4.06535e-09
4.03687e-09
4.01708e-09
3.99519e-09
3.98804e-09
3.97628e-09
3.97243e-09
3.96754e-09
3.96449e-09
3.96276e-09
3.96094e-09
3.96023e-09
3.9589e-09
3.95878e-09
3.95802e-09
3.95811e-09
3.95764e-09
3.95777e-09
3.9575e-09
3.95761e-09
3.95747e-09
3.95753e-09
3.95748e-09
3.95748e-09
3.95753e-09
3.95746e-09
3.9576e-09
3.95749e-09
3.95777e-09
3.95763e-09
3.9581e-09
3.95802e-09
3.95879e-09
3.95892e-09
3.96025e-09
3.96095e-09
3.96278e-09
3.9645e-09
3.96754e-09
3.97241e-09
3.97625e-09
3.98801e-09
3.99516e-09
4.01706e-09
4.03685e-09
4.06531e-09
4.11207e-09
4.14927e-09
3.76309e-09
3.72966e-09
3.68861e-09
3.66291e-09
3.64583e-09
3.62631e-09
3.62032e-09
3.60979e-09
3.60652e-09
3.6022e-09
3.59952e-09
3.59801e-09
3.5964e-09
3.59579e-09
3.59459e-09
3.59449e-09
3.59381e-09
3.5939e-09
3.59348e-09
3.59361e-09
3.59336e-09
3.59347e-09
3.59334e-09
3.5934e-09
3.59336e-09
3.59336e-09
3.5934e-09
3.59333e-09
3.59346e-09
3.59335e-09
3.5936e-09
3.59348e-09
3.59389e-09
3.59381e-09
3.59449e-09
3.59461e-09
3.5958e-09
3.59642e-09
3.59802e-09
3.59953e-09
3.60219e-09
3.6065e-09
3.60976e-09
3.62029e-09
3.62628e-09
3.64581e-09
3.66289e-09
3.68858e-09
3.72963e-09
3.76305e-09
3.41338e-09
3.38284e-09
3.3464e-09
3.32313e-09
3.30824e-09
3.29085e-09
3.2858e-09
3.27637e-09
3.27358e-09
3.26977e-09
3.26739e-09
3.26609e-09
3.26467e-09
3.26413e-09
3.26306e-09
3.26295e-09
3.26235e-09
3.26243e-09
3.26207e-09
3.26218e-09
3.26197e-09
3.26206e-09
3.26195e-09
3.26201e-09
3.26197e-09
3.26197e-09
3.26201e-09
3.26195e-09
3.26206e-09
3.26196e-09
3.26218e-09
3.26206e-09
3.26243e-09
3.26235e-09
3.26295e-09
3.26307e-09
3.26415e-09
3.26469e-09
3.2661e-09
3.2674e-09
3.26976e-09
3.27356e-09
3.27635e-09
3.28578e-09
3.29082e-09
3.30823e-09
3.32311e-09
3.34638e-09
3.38281e-09
3.41334e-09
3.10102e-09
3.07395e-09
3.04249e-09
3.02194e-09
3.00929e-09
2.99405e-09
2.98997e-09
2.98166e-09
2.97934e-09
2.97603e-09
2.97397e-09
2.97286e-09
2.97164e-09
2.97118e-09
2.97022e-09
2.97012e-09
2.9696e-09
2.96968e-09
2.96936e-09
2.96946e-09
2.96928e-09
2.96936e-09
2.96927e-09
2.96932e-09
2.96928e-09
2.96928e-09
2.96931e-09
2.96926e-09
2.96936e-09
2.96927e-09
2.96946e-09
2.96935e-09
2.96967e-09
2.9696e-09
2.97012e-09
2.97024e-09
2.97119e-09
2.97165e-09
2.97287e-09
2.97398e-09
2.97602e-09
2.97932e-09
2.98164e-09
2.98995e-09
2.99403e-09
3.00928e-09
3.02193e-09
3.04247e-09
3.07393e-09
3.10099e-09
2.82435e-09
2.80053e-09
2.77367e-09
2.75575e-09
2.74511e-09
2.7319e-09
2.72868e-09
2.72143e-09
2.71953e-09
2.71669e-09
2.71493e-09
2.71399e-09
2.71295e-09
2.71256e-09
2.71172e-09
2.7116e-09
2.71115e-09
2.71123e-09
2.71095e-09
2.71105e-09
2.71089e-09
2.71097e-09
2.71088e-09
2.71093e-09
2.7109e-09
2.7109e-09
2.71093e-09
2.71088e-09
2.71096e-09
2.71088e-09
2.71104e-09
2.71095e-09
2.71122e-09
2.71115e-09
2.7116e-09
2.71174e-09
2.71257e-09
2.71296e-09
2.714e-09
2.71494e-09
2.71668e-09
2.71952e-09
2.72141e-09
2.72867e-09
2.73188e-09
2.74509e-09
2.75573e-09
2.77365e-09
2.8005e-09
2.82432e-09
2.5821e-09
2.56125e-09
2.53862e-09
2.5232e-09
2.51434e-09
2.50302e-09
2.50059e-09
2.49431e-09
2.49278e-09
2.49036e-09
2.48889e-09
2.48809e-09
2.48722e-09
2.48689e-09
2.48618e-09
2.48603e-09
2.48564e-09
2.48571e-09
2.48548e-09
2.48556e-09
2.48543e-09
2.4855e-09
2.48543e-09
2.48547e-09
2.48544e-09
2.48544e-09
2.48547e-09
2.48542e-09
2.48549e-09
2.48542e-09
2.48556e-09
2.48547e-09
2.48571e-09
2.48564e-09
2.48603e-09
2.48619e-09
2.4869e-09
2.48723e-09
2.4881e-09
2.48889e-09
2.49035e-09
2.49277e-09
2.4943e-09
2.50057e-09
2.503e-09
2.51433e-09
2.52318e-09
2.53861e-09
2.56123e-09
2.58207e-09
2.37257e-09
2.35454e-09
2.33572e-09
2.3226e-09
2.3153e-09
2.30569e-09
2.30398e-09
2.29861e-09
2.2974e-09
2.29535e-09
2.29415e-09
2.29348e-09
2.29275e-09
2.29249e-09
2.29188e-09
2.29169e-09
2.29136e-09
2.29142e-09
2.29123e-09
2.2913e-09
2.29119e-09
2.29125e-09
2.2912e-09
2.29123e-09
2.29121e-09
2.29121e-09
2.29123e-09
2.29119e-09
2.29125e-09
2.29119e-09
2.2913e-09
2.29122e-09
2.29142e-09
2.29136e-09
2.29169e-09
2.2919e-09
2.2925e-09
2.29276e-09
2.29348e-09
2.29415e-09
2.29535e-09
2.29739e-09
2.29859e-09
2.30397e-09
2.30568e-09
2.31529e-09
2.32259e-09
2.33571e-09
2.35453e-09
2.37255e-09
2.19359e-09
2.17855e-09
2.16295e-09
2.15194e-09
2.14581e-09
2.13791e-09
2.13561e-09
2.1308e-09
2.12979e-09
2.12807e-09
2.12708e-09
2.12651e-09
2.12592e-09
2.1257e-09
2.1252e-09
2.12493e-09
2.12466e-09
2.12471e-09
2.12455e-09
2.12461e-09
2.12452e-09
2.12458e-09
2.12453e-09
2.12456e-09
2.12454e-09
2.12454e-09
2.12456e-09
2.12453e-09
2.12457e-09
2.12452e-09
2.12461e-09
2.12454e-09
2.12471e-09
2.12466e-09
2.12493e-09
2.12521e-09
2.12571e-09
2.12592e-09
2.12652e-09
2.12708e-09
2.12807e-09
2.12978e-09
2.13078e-09
2.1356e-09
2.1379e-09
2.1458e-09
2.15193e-09
2.16294e-09
2.17854e-09
2.19358e-09
2.04331e-09
2.0308e-09
2.01804e-09
2.00894e-09
2.00393e-09
1.99741e-09
1.99563e-09
1.9915e-09
1.99072e-09
1.98931e-09
1.98851e-09
1.98804e-09
1.98756e-09
1.9874e-09
1.98701e-09
1.98662e-09
1.9864e-09
1.98645e-09
1.98632e-09
1.98637e-09
1.9863e-09
1.98635e-09
1.98631e-09
1.98634e-09
1.98633e-09
1.98633e-09
1.98634e-09
1.98631e-09
1.98635e-09
1.9863e-09
1.98637e-09
1.98632e-09
1.98645e-09
1.9864e-09
1.98662e-09
1.98701e-09
1.9874e-09
1.98757e-09
1.98805e-09
1.98851e-09
1.9893e-09
1.99071e-09
1.99149e-09
1.99562e-09
1.9974e-09
2.00392e-09
2.00893e-09
2.01803e-09
2.03079e-09
2.04331e-09
1.91913e-09
1.90881e-09
1.89845e-09
1.89076e-09
1.88651e-09
1.8811e-09
1.87968e-09
1.87601e-09
1.8754e-09
1.87422e-09
1.87358e-09
1.8732e-09
1.87281e-09
1.87268e-09
1.87239e-09
1.87271e-09
1.87253e-09
1.87257e-09
1.87247e-09
1.87251e-09
1.87246e-09
1.8725e-09
1.87247e-09
1.8725e-09
1.87249e-09
1.87249e-09
1.8725e-09
1.87247e-09
1.8725e-09
1.87246e-09
1.87251e-09
1.87246e-09
1.87257e-09
1.87253e-09
1.87271e-09
1.87239e-09
1.87269e-09
1.87281e-09
1.8732e-09
1.87359e-09
1.87422e-09
1.87539e-09
1.876e-09
1.87967e-09
1.88109e-09
1.88651e-09
1.89076e-09
1.89844e-09
1.9088e-09
1.91912e-09
1.8171e-09
1.80858e-09
1.80028e-09
1.79412e-09
1.79054e-09
1.78625e-09
1.78515e-09
1.78318e-09
1.78272e-09
1.78176e-09
1.78126e-09
1.78095e-09
1.78065e-09
1.78055e-09
1.78035e-09
1.78057e-09
1.78044e-09
1.78047e-09
1.78039e-09
1.78043e-09
1.78038e-09
1.78042e-09
1.7804e-09
1.78042e-09
1.78042e-09
1.78042e-09
1.78042e-09
1.7804e-09
1.78042e-09
1.78038e-09
1.78042e-09
1.78039e-09
1.78047e-09
1.78044e-09
1.78057e-09
1.78035e-09
1.78056e-09
1.78065e-09
1.78096e-09
1.78127e-09
1.78176e-09
1.78271e-09
1.78317e-09
1.78514e-09
1.78624e-09
1.79054e-09
1.79412e-09
1.80028e-09
1.80857e-09
1.81709e-09
1.73566e-09
1.72881e-09
1.72227e-09
1.71746e-09
1.71545e-09
1.71204e-09
1.71121e-09
1.70962e-09
1.70927e-09
1.70851e-09
1.70812e-09
1.70787e-09
1.70763e-09
1.70757e-09
1.70743e-09
1.70758e-09
1.70748e-09
1.70751e-09
1.70744e-09
1.70747e-09
1.70743e-09
1.70745e-09
1.70742e-09
1.70743e-09
1.70742e-09
1.70742e-09
1.70743e-09
1.70742e-09
1.70745e-09
1.70743e-09
1.70747e-09
1.70744e-09
1.70751e-09
1.70748e-09
1.70758e-09
1.70743e-09
1.70757e-09
1.70764e-09
1.70787e-09
1.70813e-09
1.70851e-09
1.70927e-09
1.70962e-09
1.7112e-09
1.71203e-09
1.71544e-09
1.71746e-09
1.72227e-09
1.72881e-09
1.73565e-09
1.67326e-09
1.66779e-09
1.66267e-09
1.65888e-09
1.65729e-09
1.65462e-09
1.65398e-09
1.65272e-09
1.65246e-09
1.65185e-09
1.65156e-09
1.65135e-09
1.65116e-09
1.65112e-09
1.65103e-09
1.65113e-09
1.65105e-09
1.65108e-09
1.65103e-09
1.65105e-09
1.65102e-09
1.65103e-09
1.65101e-09
1.65102e-09
1.65101e-09
1.65101e-09
1.65102e-09
1.65101e-09
1.65103e-09
1.65102e-09
1.65105e-09
1.65103e-09
1.65108e-09
1.65105e-09
1.65113e-09
1.65103e-09
1.65112e-09
1.65117e-09
1.65135e-09
1.65156e-09
1.65185e-09
1.65245e-09
1.65272e-09
1.65398e-09
1.65461e-09
1.65728e-09
1.65888e-09
1.66267e-09
1.66779e-09
1.67325e-09
1.62606e-09
1.62167e-09
1.6177e-09
1.61473e-09
1.61347e-09
1.6114e-09
1.6109e-09
1.60991e-09
1.6097e-09
1.60923e-09
1.609e-09
1.60882e-09
1.60868e-09
1.60866e-09
1.6086e-09
1.60866e-09
1.6086e-09
1.60862e-09
1.60859e-09
1.60861e-09
1.60858e-09
1.60859e-09
1.60858e-09
1.60858e-09
1.60858e-09
1.60858e-09
1.60858e-09
1.60858e-09
1.60859e-09
1.60858e-09
1.60861e-09
1.60859e-09
1.60862e-09
1.6086e-09
1.60866e-09
1.6086e-09
1.60866e-09
1.60869e-09
1.60882e-09
1.60901e-09
1.60923e-09
1.6097e-09
1.60991e-09
1.6109e-09
1.61139e-09
1.61347e-09
1.61473e-09
1.6177e-09
1.62167e-09
1.62605e-09
1.59138e-09
1.58792e-09
1.5848e-09
1.58247e-09
1.58148e-09
1.57987e-09
1.57947e-09
1.5787e-09
1.57853e-09
1.57816e-09
1.57799e-09
1.57782e-09
1.57772e-09
1.5777e-09
1.57767e-09
1.5777e-09
1.57766e-09
1.57767e-09
1.57765e-09
1.57766e-09
1.57764e-09
1.57765e-09
1.57764e-09
1.57765e-09
1.57764e-09
1.57764e-09
1.57765e-09
1.57764e-09
1.57765e-09
1.57764e-09
1.57766e-09
1.57765e-09
1.57767e-09
1.57766e-09
1.5777e-09
1.57766e-09
1.5777e-09
1.57772e-09
1.57782e-09
1.578e-09
1.57816e-09
1.57853e-09
1.5787e-09
1.57947e-09
1.57987e-09
1.58147e-09
1.58247e-09
1.5848e-09
1.58792e-09
1.59137e-09
1.56675e-09
1.56385e-09
1.56151e-09
1.55967e-09
1.55874e-09
1.5575e-09
1.55716e-09
1.55657e-09
1.55642e-09
1.55614e-09
1.55601e-09
1.55597e-09
1.55589e-09
1.55588e-09
1.55586e-09
1.55588e-09
1.55585e-09
1.55586e-09
1.55584e-09
1.55585e-09
1.55584e-09
1.55585e-09
1.55584e-09
1.55585e-09
1.55584e-09
1.55584e-09
1.55584e-09
1.55584e-09
1.55585e-09
1.55584e-09
1.55585e-09
1.55584e-09
1.55586e-09
1.55585e-09
1.55588e-09
1.55586e-09
1.55588e-09
1.55589e-09
1.55597e-09
1.55601e-09
1.55614e-09
1.55641e-09
1.55657e-09
1.55716e-09
1.5575e-09
1.55874e-09
1.55967e-09
1.56151e-09
1.56385e-09
1.56674e-09
1.54968e-09
1.54743e-09
1.54556e-09
1.5441e-09
1.54331e-09
1.54235e-09
1.54204e-09
1.54159e-09
1.54145e-09
1.54123e-09
1.54114e-09
1.54109e-09
1.54104e-09
1.54103e-09
1.54101e-09
1.54102e-09
1.541e-09
1.54101e-09
1.541e-09
1.54101e-09
1.541e-09
1.541e-09
1.541e-09
1.541e-09
1.541e-09
1.541e-09
1.541e-09
1.541e-09
1.541e-09
1.541e-09
1.54101e-09
1.541e-09
1.54101e-09
1.541e-09
1.54102e-09
1.54101e-09
1.54103e-09
1.54104e-09
1.54109e-09
1.54114e-09
1.54123e-09
1.54145e-09
1.54158e-09
1.54204e-09
1.54234e-09
1.54331e-09
1.5441e-09
1.54556e-09
1.54743e-09
1.54968e-09
1.5384e-09
1.53651e-09
1.53499e-09
1.5338e-09
1.53312e-09
1.53235e-09
1.53208e-09
1.5317e-09
1.53159e-09
1.5314e-09
1.53133e-09
1.53128e-09
1.53124e-09
1.53123e-09
1.53122e-09
1.53122e-09
1.53121e-09
1.53122e-09
1.53121e-09
1.53121e-09
1.53121e-09
1.53121e-09
1.53121e-09
1.53121e-09
1.53121e-09
1.53121e-09
1.53121e-09
1.53121e-09
1.53121e-09
1.53121e-09
1.53121e-09
1.53121e-09
1.53122e-09
1.53121e-09
1.53122e-09
1.53122e-09
1.53123e-09
1.53124e-09
1.53128e-09
1.53133e-09
1.5314e-09
1.53158e-09
1.5317e-09
1.53208e-09
1.53235e-09
1.53311e-09
1.5338e-09
1.53499e-09
1.53651e-09
1.53839e-09
1.53108e-09
1.52944e-09
1.52818e-09
1.52719e-09
1.52659e-09
1.52596e-09
1.52571e-09
1.5254e-09
1.5253e-09
1.52515e-09
1.52509e-09
1.52505e-09
1.52501e-09
1.525e-09
1.52499e-09
1.52499e-09
1.52498e-09
1.52499e-09
1.52498e-09
1.52499e-09
1.52498e-09
1.52499e-09
1.52498e-09
1.52499e-09
1.52498e-09
1.52498e-09
1.52498e-09
1.52498e-09
1.52499e-09
1.52498e-09
1.52499e-09
1.52498e-09
1.52499e-09
1.52498e-09
1.52499e-09
1.52499e-09
1.525e-09
1.52501e-09
1.52505e-09
1.52509e-09
1.52515e-09
1.5253e-09
1.5254e-09
1.52571e-09
1.52596e-09
1.52658e-09
1.52719e-09
1.52818e-09
1.52944e-09
1.53107e-09
1.52646e-09
1.52498e-09
1.52393e-09
1.52308e-09
1.52254e-09
1.52202e-09
1.52178e-09
1.52153e-09
1.52142e-09
1.5213e-09
1.52125e-09
1.52121e-09
1.52118e-09
1.52117e-09
1.52116e-09
1.52116e-09
1.52115e-09
1.52116e-09
1.52115e-09
1.52116e-09
1.52115e-09
1.52116e-09
1.52115e-09
1.52116e-09
1.52115e-09
1.52115e-09
1.52116e-09
1.52115e-09
1.52116e-09
1.52115e-09
1.52115e-09
1.52115e-09
1.52116e-09
1.52115e-09
1.52116e-09
1.52116e-09
1.52117e-09
1.52118e-09
1.52121e-09
1.52125e-09
1.5213e-09
1.52142e-09
1.52153e-09
1.52178e-09
1.52202e-09
1.52253e-09
1.52308e-09
1.52393e-09
1.52498e-09
1.52645e-09
1.52359e-09
1.52227e-09
1.52136e-09
1.52061e-09
1.52012e-09
1.51967e-09
1.51945e-09
1.51923e-09
1.51913e-09
1.51903e-09
1.51898e-09
1.51895e-09
1.51892e-09
1.51891e-09
1.5189e-09
1.5189e-09
1.51889e-09
1.5189e-09
1.51889e-09
1.5189e-09
1.5189e-09
1.5189e-09
1.5189e-09
1.5189e-09
1.5189e-09
1.5189e-09
1.5189e-09
1.5189e-09
1.5189e-09
1.51889e-09
1.5189e-09
1.51889e-09
1.5189e-09
1.51889e-09
1.5189e-09
1.5189e-09
1.51891e-09
1.51892e-09
1.51895e-09
1.51898e-09
1.51903e-09
1.51913e-09
1.51923e-09
1.51945e-09
1.51967e-09
1.52012e-09
1.52061e-09
1.52136e-09
1.52227e-09
1.52359e-09
1.5219e-09
1.52067e-09
1.51988e-09
1.51921e-09
1.51874e-09
1.51836e-09
1.51815e-09
1.51795e-09
1.51786e-09
1.51777e-09
1.51773e-09
1.51769e-09
1.51767e-09
1.51766e-09
1.51765e-09
1.51765e-09
1.51764e-09
1.51764e-09
1.51764e-09
1.51764e-09
1.51764e-09
1.51764e-09
1.51764e-09
1.51764e-09
1.51764e-09
1.51764e-09
1.51764e-09
1.51764e-09
1.51764e-09
1.51764e-09
1.51764e-09
1.51764e-09
1.51764e-09
1.51764e-09
1.51765e-09
1.51765e-09
1.51766e-09
1.51767e-09
1.51769e-09
1.51773e-09
1.51777e-09
1.51786e-09
1.51795e-09
1.51815e-09
1.51836e-09
1.51874e-09
1.5192e-09
1.51987e-09
1.52067e-09
1.5219e-09
1.52096e-09
1.51977e-09
1.51907e-09
1.51846e-09
1.51802e-09
1.51767e-09
1.51747e-09
1.5173e-09
1.51721e-09
1.51713e-09
1.51708e-09
1.51705e-09
1.51703e-09
1.51702e-09
1.51701e-09
1.51701e-09
1.517e-09
1.517e-09
1.517e-09
1.517e-09
1.517e-09
1.517e-09
1.517e-09
1.517e-09
1.517e-09
1.517e-09
1.517e-09
1.517e-09
1.517e-09
1.517e-09
1.517e-09
1.517e-09
1.517e-09
1.517e-09
1.51701e-09
1.51701e-09
1.51702e-09
1.51703e-09
1.51705e-09
1.51708e-09
1.51713e-09
1.51721e-09
1.5173e-09
1.51747e-09
1.51767e-09
1.51802e-09
1.51846e-09
1.51907e-09
1.51976e-09
1.52097e-09
1.52056e-09
1.51933e-09
1.51871e-09
1.51813e-09
1.51771e-09
1.51739e-09
1.51719e-09
1.51702e-09
1.51694e-09
1.51686e-09
1.51682e-09
1.51679e-09
1.51677e-09
1.51676e-09
1.51675e-09
1.51674e-09
1.51674e-09
1.51674e-09
1.51673e-09
1.51674e-09
1.51674e-09
1.51674e-09
1.51674e-09
1.51674e-09
1.51674e-09
1.51674e-09
1.51674e-09
1.51674e-09
1.51674e-09
1.51674e-09
1.51674e-09
1.51673e-09
1.51674e-09
1.51674e-09
1.51674e-09
1.51675e-09
1.51676e-09
1.51677e-09
1.51679e-09
1.51682e-09
1.51686e-09
1.51694e-09
1.51702e-09
1.51719e-09
1.51739e-09
1.51771e-09
1.51813e-09
1.51871e-09
1.51932e-09
1.52056e-09
)
;

boundaryField
{
    fuel
    {
        type            fixedValue;
        value           nonuniform 0();
    }
    wall
    {
        type            zeroGradient;
    }
    outlet
    {
        type            zeroGradient;
    }
    frontAndBack
    {
        type            empty;
    }
    procBoundary3to2
    {
        type            processor;
        value           nonuniform List<scalar> 
51
(
1.74103e-08
1.74013e-08
1.73972e-08
1.73914e-08
1.739e-08
1.73864e-08
1.73861e-08
1.7384e-08
1.73841e-08
1.73828e-08
1.73831e-08
1.73824e-08
1.73825e-08
1.73823e-08
1.73823e-08
1.73825e-08
1.73824e-08
1.7383e-08
1.73828e-08
1.73841e-08
1.73839e-08
1.73861e-08
1.73864e-08
1.739e-08
1.73915e-08
1.73972e-08
1.74014e-08
1.74104e-08
1.74206e-08
1.74363e-08
1.74602e-08
1.74877e-08
1.75376e-08
1.75881e-08
1.76894e-08
1.78007e-08
1.79284e-08
1.81459e-08
1.82674e-08
1.68553e-08
1.67412e-08
1.65376e-08
1.64199e-08
1.63188e-08
1.62265e-08
1.61802e-08
1.61347e-08
1.611e-08
1.6088e-08
1.60738e-08
1.60738e-08
)
;
    }
}


// ************************************************************************* //
