/*--------------------------------*- C++ -*----------------------------------*\
| =========                 |                                                 |
| \\      /  F ield         | OpenFOAM: The Open Source CFD Toolbox           |
|  \\    /   O peration     | Version:  dev                                   |
|   \\  /    A nd           | Web:      www.OpenFOAM.org                      |
|    \\/     M anipulation  |                                                 |
\*---------------------------------------------------------------------------*/
FoamFile
{
    version     2.0;
    format      ascii;
    class       volScalarField;
    location    "0.1";
    object      CH3;
}
// * * * * * * * * * * * * * * * * * * * * * * * * * * * * * * * * * * * * * //

dimensions      [0 0 0 0 0 0 0];

internalField   nonuniform List<scalar> 
1989
(
1.43483e-05
1.43408e-05
1.43372e-05
1.43323e-05
1.4331e-05
1.4328e-05
1.43277e-05
1.43258e-05
1.43259e-05
1.43248e-05
1.4325e-05
1.43244e-05
1.43245e-05
1.43243e-05
1.43243e-05
1.43245e-05
1.43244e-05
1.4325e-05
1.43248e-05
1.43259e-05
1.43258e-05
1.43277e-05
1.4328e-05
1.4331e-05
1.43323e-05
1.43373e-05
1.43408e-05
1.43484e-05
1.43571e-05
1.43703e-05
1.43904e-05
1.44135e-05
1.44553e-05
1.44981e-05
1.45832e-05
1.46772e-05
1.47851e-05
1.4971e-05
1.50756e-05
1.39261e-05
1.3825e-05
1.36446e-05
1.35425e-05
1.34543e-05
1.33742e-05
1.33337e-05
1.32943e-05
1.32729e-05
1.32538e-05
1.32415e-05
1.32332e-05
1.32261e-05
1.32229e-05
1.32182e-05
1.32171e-05
1.32142e-05
1.32139e-05
1.32122e-05
1.32123e-05
1.32112e-05
1.32114e-05
1.32108e-05
1.3211e-05
1.32108e-05
1.32108e-05
1.3211e-05
1.32108e-05
1.32114e-05
1.32112e-05
1.32122e-05
1.32121e-05
1.32139e-05
1.32142e-05
1.32171e-05
1.32182e-05
1.32229e-05
1.32262e-05
1.32333e-05
1.32414e-05
1.32539e-05
1.32728e-05
1.32943e-05
1.33336e-05
1.33742e-05
1.34542e-05
1.35424e-05
1.36445e-05
1.38249e-05
1.39259e-05
1.28308e-05
1.27336e-05
1.25589e-05
1.24626e-05
1.23804e-05
1.23053e-05
1.22669e-05
1.22301e-05
1.22103e-05
1.21924e-05
1.21808e-05
1.21731e-05
1.21665e-05
1.21635e-05
1.21591e-05
1.21581e-05
1.21553e-05
1.21551e-05
1.21535e-05
1.21536e-05
1.21526e-05
1.21528e-05
1.21523e-05
1.21524e-05
1.21522e-05
1.21522e-05
1.21524e-05
1.21522e-05
1.21528e-05
1.21526e-05
1.21536e-05
1.21535e-05
1.21551e-05
1.21553e-05
1.21581e-05
1.21591e-05
1.21635e-05
1.21665e-05
1.21731e-05
1.21808e-05
1.21924e-05
1.22102e-05
1.22301e-05
1.22668e-05
1.23052e-05
1.23803e-05
1.24625e-05
1.25588e-05
1.27334e-05
1.28306e-05
1.17804e-05
1.16866e-05
1.15163e-05
1.14252e-05
1.13483e-05
1.12775e-05
1.12417e-05
1.1207e-05
1.11886e-05
1.11717e-05
1.11609e-05
1.11537e-05
1.11475e-05
1.11447e-05
1.11406e-05
1.11397e-05
1.11371e-05
1.11369e-05
1.11354e-05
1.11355e-05
1.11346e-05
1.11348e-05
1.11343e-05
1.11344e-05
1.11342e-05
1.11342e-05
1.11344e-05
1.11342e-05
1.11347e-05
1.11345e-05
1.11355e-05
1.11354e-05
1.11369e-05
1.11371e-05
1.11397e-05
1.11406e-05
1.11447e-05
1.11475e-05
1.11537e-05
1.11608e-05
1.11718e-05
1.11885e-05
1.12069e-05
1.12416e-05
1.12775e-05
1.13482e-05
1.14251e-05
1.15162e-05
1.16864e-05
1.17802e-05
1.0772e-05
1.06832e-05
1.05403e-05
1.04559e-05
1.03846e-05
1.03185e-05
1.02856e-05
1.0253e-05
1.02361e-05
1.02205e-05
1.02103e-05
1.02037e-05
1.01979e-05
1.01954e-05
1.01916e-05
1.01907e-05
1.01883e-05
1.01882e-05
1.01867e-05
1.01869e-05
1.0186e-05
1.01862e-05
1.01857e-05
1.01858e-05
1.01857e-05
1.01857e-05
1.01858e-05
1.01857e-05
1.01862e-05
1.0186e-05
1.01868e-05
1.01867e-05
1.01882e-05
1.01883e-05
1.01907e-05
1.01916e-05
1.01954e-05
1.0198e-05
1.02037e-05
1.02103e-05
1.02206e-05
1.0236e-05
1.0253e-05
1.02856e-05
1.03184e-05
1.03846e-05
1.04558e-05
1.05402e-05
1.06831e-05
1.07718e-05
9.84071e-06
9.7567e-06
9.6181e-06
9.5364e-06
9.46831e-06
9.40521e-06
9.37443e-06
9.34325e-06
9.32741e-06
9.31265e-06
9.30302e-06
9.29684e-06
9.29138e-06
9.28897e-06
9.28538e-06
9.28459e-06
9.28235e-06
9.28224e-06
9.28086e-06
9.28099e-06
9.28016e-06
9.28034e-06
9.2799e-06
9.28001e-06
9.27986e-06
9.27986e-06
9.28e-06
9.27988e-06
9.28032e-06
9.28014e-06
9.28097e-06
9.28083e-06
9.28223e-06
9.28234e-06
9.28459e-06
9.2854e-06
9.289e-06
9.29141e-06
9.29684e-06
9.30296e-06
9.31275e-06
9.32736e-06
9.34319e-06
9.37437e-06
9.40515e-06
9.46826e-06
9.53633e-06
9.61801e-06
9.7566e-06
9.84058e-06
8.96408e-06
8.8842e-06
8.75332e-06
8.67687e-06
8.61398e-06
8.55535e-06
8.52731e-06
8.49815e-06
8.48371e-06
8.47006e-06
8.46108e-06
8.45545e-06
8.45039e-06
8.44819e-06
8.44487e-06
8.44417e-06
8.44209e-06
8.44201e-06
8.44072e-06
8.44086e-06
8.44009e-06
8.44026e-06
8.43985e-06
8.43996e-06
8.43982e-06
8.43982e-06
8.43995e-06
8.43984e-06
8.44024e-06
8.44007e-06
8.44084e-06
8.4407e-06
8.442e-06
8.44208e-06
8.44417e-06
8.44488e-06
8.44823e-06
8.45042e-06
8.45543e-06
8.461e-06
8.47018e-06
8.48366e-06
8.49809e-06
8.52726e-06
8.5553e-06
8.61393e-06
8.6768e-06
8.75324e-06
8.8841e-06
8.96395e-06
8.14132e-06
8.06498e-06
7.94305e-06
7.87093e-06
7.81335e-06
7.75893e-06
7.73351e-06
7.70632e-06
7.69322e-06
7.68066e-06
7.67228e-06
7.66718e-06
7.66253e-06
7.66053e-06
7.65746e-06
7.65685e-06
7.65492e-06
7.65487e-06
7.65368e-06
7.65382e-06
7.6531e-06
7.65327e-06
7.65289e-06
7.653e-06
7.65287e-06
7.65286e-06
7.65299e-06
7.65287e-06
7.65325e-06
7.65308e-06
7.6538e-06
7.65366e-06
7.65486e-06
7.65492e-06
7.65685e-06
7.65748e-06
7.66057e-06
7.66256e-06
7.66718e-06
7.67221e-06
7.68077e-06
7.69318e-06
7.70627e-06
7.73346e-06
7.75888e-06
7.8133e-06
7.87087e-06
7.94298e-06
8.06489e-06
8.1412e-06
7.36758e-06
7.29458e-06
7.18023e-06
7.11083e-06
7.05753e-06
7.00651e-06
6.98321e-06
6.95759e-06
6.94556e-06
6.93386e-06
6.926e-06
6.92132e-06
6.917e-06
6.91516e-06
6.9123e-06
6.91176e-06
6.90997e-06
6.90994e-06
6.90883e-06
6.90898e-06
6.90832e-06
6.90848e-06
6.90813e-06
6.90823e-06
6.90811e-06
6.90811e-06
6.90822e-06
6.90811e-06
6.90846e-06
6.90829e-06
6.90896e-06
6.90882e-06
6.90993e-06
6.90996e-06
6.91176e-06
6.91232e-06
6.91519e-06
6.91702e-06
6.92132e-06
6.92591e-06
6.93395e-06
6.94552e-06
6.95754e-06
6.98315e-06
7.00646e-06
7.05749e-06
7.11077e-06
7.18016e-06
7.29448e-06
7.36747e-06
6.6329e-06
6.5644e-06
6.46006e-06
6.39423e-06
6.34583e-06
6.29918e-06
6.27819e-06
6.25464e-06
6.24381e-06
6.23311e-06
6.22593e-06
6.22171e-06
6.21778e-06
6.21611e-06
6.21352e-06
6.21303e-06
6.21141e-06
6.21139e-06
6.21039e-06
6.21053e-06
6.20992e-06
6.21008e-06
6.20976e-06
6.20985e-06
6.20974e-06
6.20974e-06
6.20985e-06
6.20974e-06
6.21006e-06
6.2099e-06
6.21051e-06
6.21037e-06
6.21138e-06
6.21141e-06
6.21304e-06
6.21353e-06
6.21614e-06
6.21781e-06
6.22171e-06
6.22585e-06
6.23321e-06
6.24376e-06
6.25459e-06
6.27814e-06
6.29913e-06
6.34579e-06
6.39417e-06
6.46e-06
6.56431e-06
6.6328e-06
5.94934e-06
5.88542e-06
5.79057e-06
5.74005e-06
5.69617e-06
5.65333e-06
5.63456e-06
5.6128e-06
5.60308e-06
5.5933e-06
5.58671e-06
5.58292e-06
5.57934e-06
5.57785e-06
5.57547e-06
5.57506e-06
5.57357e-06
5.57358e-06
5.57266e-06
5.57279e-06
5.57224e-06
5.57239e-06
5.5721e-06
5.57219e-06
5.57209e-06
5.57208e-06
5.57218e-06
5.57208e-06
5.57237e-06
5.57222e-06
5.57278e-06
5.57264e-06
5.57357e-06
5.57357e-06
5.57506e-06
5.57549e-06
5.57788e-06
5.57937e-06
5.58293e-06
5.58666e-06
5.59337e-06
5.60304e-06
5.61275e-06
5.63451e-06
5.65328e-06
5.69613e-06
5.74e-06
5.7905e-06
5.88534e-06
5.94925e-06
5.32618e-06
5.26674e-06
5.17998e-06
5.13321e-06
5.09354e-06
5.05436e-06
5.03767e-06
5.01762e-06
5.00896e-06
5.00006e-06
4.99401e-06
4.99058e-06
4.98717e-06
4.98575e-06
4.98347e-06
4.98309e-06
4.98167e-06
4.98168e-06
4.9808e-06
4.98094e-06
4.98041e-06
4.98055e-06
4.98027e-06
4.98036e-06
4.98026e-06
4.98026e-06
4.98035e-06
4.98026e-06
4.98053e-06
4.98039e-06
4.98092e-06
4.98079e-06
4.98167e-06
4.98167e-06
4.98309e-06
4.98349e-06
4.98578e-06
4.98719e-06
4.99059e-06
4.99398e-06
5.00009e-06
5.00892e-06
5.01758e-06
5.03763e-06
5.05431e-06
5.0935e-06
5.13317e-06
5.17992e-06
5.26667e-06
5.32609e-06
4.74335e-06
4.687e-06
4.60619e-06
4.56275e-06
4.52646e-06
4.49111e-06
4.47632e-06
4.45806e-06
4.45037e-06
4.44233e-06
4.43683e-06
4.43378e-06
4.4307e-06
4.42942e-06
4.42735e-06
4.42701e-06
4.42573e-06
4.42575e-06
4.42495e-06
4.42508e-06
4.4246e-06
4.42473e-06
4.42448e-06
4.42456e-06
4.42448e-06
4.42447e-06
4.42456e-06
4.42447e-06
4.42472e-06
4.42459e-06
4.42507e-06
4.42494e-06
4.42574e-06
4.42573e-06
4.42701e-06
4.42736e-06
4.42945e-06
4.43072e-06
4.43379e-06
4.43682e-06
4.44234e-06
4.45033e-06
4.45802e-06
4.47628e-06
4.49107e-06
4.52643e-06
4.56271e-06
4.60614e-06
4.68694e-06
4.74327e-06
4.19991e-06
4.14766e-06
4.07484e-06
4.03519e-06
4.00249e-06
3.97082e-06
3.95778e-06
3.94123e-06
3.93443e-06
3.92719e-06
3.92226e-06
3.91954e-06
3.91677e-06
3.91563e-06
3.91375e-06
3.91345e-06
3.9123e-06
3.91232e-06
3.91161e-06
3.91173e-06
3.9113e-06
3.91142e-06
3.91119e-06
3.91127e-06
3.91119e-06
3.91119e-06
3.91126e-06
3.91118e-06
3.91141e-06
3.91128e-06
3.91172e-06
3.9116e-06
3.91232e-06
3.9123e-06
3.91346e-06
3.91376e-06
3.91565e-06
3.91679e-06
3.91955e-06
3.92226e-06
3.9272e-06
3.9344e-06
3.94119e-06
3.95775e-06
3.97078e-06
4.00246e-06
4.03515e-06
4.07479e-06
4.1476e-06
4.19983e-06
3.70747e-06
3.65877e-06
3.59358e-06
3.55717e-06
3.52797e-06
3.49942e-06
3.48807e-06
3.47301e-06
3.46706e-06
3.4605e-06
3.45615e-06
3.4537e-06
3.45122e-06
3.4502e-06
3.44849e-06
3.44823e-06
3.44719e-06
3.44722e-06
3.44658e-06
3.44669e-06
3.44631e-06
3.44642e-06
3.44622e-06
3.44629e-06
3.44622e-06
3.44621e-06
3.44628e-06
3.44621e-06
3.44641e-06
3.44629e-06
3.44668e-06
3.44657e-06
3.44722e-06
3.44719e-06
3.44824e-06
3.4485e-06
3.45022e-06
3.45123e-06
3.45371e-06
3.45615e-06
3.46051e-06
3.46703e-06
3.47298e-06
3.48803e-06
3.49939e-06
3.52795e-06
3.55713e-06
3.59354e-06
3.65872e-06
3.7074e-06
3.25415e-06
3.20962e-06
3.15156e-06
3.11796e-06
3.09195e-06
3.06546e-06
3.05539e-06
3.04143e-06
3.03614e-06
3.0301e-06
3.02617e-06
3.02394e-06
3.02168e-06
3.02075e-06
3.01917e-06
3.01895e-06
3.01799e-06
3.01803e-06
3.01744e-06
3.01755e-06
3.0172e-06
3.01731e-06
3.01712e-06
3.01718e-06
3.01712e-06
3.01712e-06
3.01718e-06
3.01711e-06
3.0173e-06
3.01718e-06
3.01754e-06
3.01743e-06
3.01802e-06
3.01799e-06
3.01895e-06
3.01919e-06
3.02077e-06
3.02169e-06
3.02396e-06
3.02618e-06
3.0301e-06
3.03611e-06
3.0414e-06
3.05536e-06
3.06543e-06
3.09192e-06
3.11793e-06
3.15152e-06
3.20958e-06
3.25409e-06
2.8385e-06
2.79802e-06
2.74653e-06
2.71579e-06
2.69302e-06
2.66917e-06
2.66051e-06
2.64789e-06
2.6433e-06
2.6379e-06
2.63442e-06
2.63245e-06
2.63043e-06
2.62961e-06
2.62818e-06
2.62798e-06
2.62713e-06
2.62717e-06
2.62664e-06
2.62675e-06
2.62643e-06
2.62653e-06
2.62636e-06
2.62642e-06
2.62637e-06
2.62636e-06
2.62642e-06
2.62635e-06
2.62652e-06
2.62642e-06
2.62674e-06
2.62663e-06
2.62716e-06
2.62713e-06
2.62798e-06
2.62819e-06
2.62963e-06
2.63045e-06
2.63246e-06
2.63443e-06
2.6379e-06
2.64328e-06
2.64787e-06
2.66049e-06
2.66914e-06
2.693e-06
2.71576e-06
2.7465e-06
2.79798e-06
2.83845e-06
2.45867e-06
2.42207e-06
2.37669e-06
2.34878e-06
2.32898e-06
2.30763e-06
2.30028e-06
2.28892e-06
2.28498e-06
2.28018e-06
2.2771e-06
2.27537e-06
2.27358e-06
2.27286e-06
2.27157e-06
2.27139e-06
2.27063e-06
2.27067e-06
2.2702e-06
2.2703e-06
2.27002e-06
2.27011e-06
2.26997e-06
2.27002e-06
2.26997e-06
2.26997e-06
2.27002e-06
2.26996e-06
2.27011e-06
2.27001e-06
2.27029e-06
2.27019e-06
2.27067e-06
2.27063e-06
2.27139e-06
2.27158e-06
2.27288e-06
2.2736e-06
2.27538e-06
2.27711e-06
2.28017e-06
2.28495e-06
2.2889e-06
2.30025e-06
2.3076e-06
2.32896e-06
2.34875e-06
2.37666e-06
2.42204e-06
2.45862e-06
2.11216e-06
2.07852e-06
2.03807e-06
2.01261e-06
1.99525e-06
1.97611e-06
1.96984e-06
1.95961e-06
1.9562e-06
1.95195e-06
1.94919e-06
1.94768e-06
1.9461e-06
1.94546e-06
1.94429e-06
1.94411e-06
1.94344e-06
1.94348e-06
1.94306e-06
1.94315e-06
1.9429e-06
1.94299e-06
1.94286e-06
1.94291e-06
1.94287e-06
1.94287e-06
1.94291e-06
1.94285e-06
1.94298e-06
1.9429e-06
1.94315e-06
1.94305e-06
1.94348e-06
1.94344e-06
1.94412e-06
1.9443e-06
1.94548e-06
1.94612e-06
1.94769e-06
1.9492e-06
1.95194e-06
1.95618e-06
1.95959e-06
1.96982e-06
1.97609e-06
1.99524e-06
2.01259e-06
2.03804e-06
2.07849e-06
2.11212e-06
1.79896e-06
1.76883e-06
1.73361e-06
1.71089e-06
1.69599e-06
1.67908e-06
1.67391e-06
1.6648e-06
1.66193e-06
1.6582e-06
1.65578e-06
1.65449e-06
1.65311e-06
1.65256e-06
1.6515e-06
1.65133e-06
1.65073e-06
1.65077e-06
1.6504e-06
1.65049e-06
1.65027e-06
1.65035e-06
1.65024e-06
1.65029e-06
1.65025e-06
1.65024e-06
1.65028e-06
1.65023e-06
1.65035e-06
1.65027e-06
1.65048e-06
1.6504e-06
1.65077e-06
1.65073e-06
1.65133e-06
1.65151e-06
1.65257e-06
1.65312e-06
1.65449e-06
1.65579e-06
1.65819e-06
1.66191e-06
1.66478e-06
1.67389e-06
1.67906e-06
1.69597e-06
1.71087e-06
1.73359e-06
1.7688e-06
1.79892e-06
1.51705e-06
1.49022e-06
1.45987e-06
1.43981e-06
1.42713e-06
1.41233e-06
1.40817e-06
1.40012e-06
1.39773e-06
1.39449e-06
1.3924e-06
1.39129e-06
1.3901e-06
1.38963e-06
1.38869e-06
1.3885e-06
1.38798e-06
1.38802e-06
1.3877e-06
1.38778e-06
1.38759e-06
1.38767e-06
1.38757e-06
1.38761e-06
1.38757e-06
1.38757e-06
1.38761e-06
1.38756e-06
1.38766e-06
1.38759e-06
1.38778e-06
1.38769e-06
1.38802e-06
1.38798e-06
1.3885e-06
1.3887e-06
1.38964e-06
1.39011e-06
1.3913e-06
1.39241e-06
1.39448e-06
1.39771e-06
1.4001e-06
1.40815e-06
1.41231e-06
1.42712e-06
1.43979e-06
1.45985e-06
1.49019e-06
1.51702e-06
1.26537e-06
1.24161e-06
1.21578e-06
1.1983e-06
1.18764e-06
1.17481e-06
1.17158e-06
1.16453e-06
1.16258e-06
1.15979e-06
1.15802e-06
1.15706e-06
1.15606e-06
1.15566e-06
1.15484e-06
1.15462e-06
1.15417e-06
1.15421e-06
1.15393e-06
1.154e-06
1.15384e-06
1.15391e-06
1.15382e-06
1.15386e-06
1.15383e-06
1.15383e-06
1.15386e-06
1.15382e-06
1.1539e-06
1.15383e-06
1.154e-06
1.15392e-06
1.1542e-06
1.15417e-06
1.15462e-06
1.15485e-06
1.15567e-06
1.15607e-06
1.15707e-06
1.15802e-06
1.15978e-06
1.16257e-06
1.16452e-06
1.17157e-06
1.1748e-06
1.18763e-06
1.19829e-06
1.21577e-06
1.24159e-06
1.26533e-06
1.04295e-06
1.02218e-06
1.00052e-06
9.85487e-07
9.76633e-07
9.65655e-07
9.63295e-07
9.57181e-07
9.55623e-07
9.53242e-07
9.51767e-07
9.50957e-07
9.50116e-07
9.49787e-07
9.49086e-07
9.48813e-07
9.48427e-07
9.48465e-07
9.48228e-07
9.48293e-07
9.48157e-07
9.48216e-07
9.48146e-07
9.48179e-07
9.48155e-07
9.48154e-07
9.48178e-07
9.48142e-07
9.48212e-07
9.48153e-07
9.48289e-07
9.48224e-07
9.48462e-07
9.48427e-07
9.48814e-07
9.49099e-07
9.49797e-07
9.50124e-07
9.50963e-07
9.51774e-07
9.53236e-07
9.5561e-07
9.5717e-07
9.63284e-07
9.65642e-07
9.76625e-07
9.85476e-07
1.00051e-06
1.02217e-06
1.04292e-06
8.48743e-07
8.31315e-07
8.1327e-07
8.00559e-07
7.9312e-07
7.84034e-07
7.81136e-07
7.7563e-07
7.74335e-07
7.72325e-07
7.71099e-07
7.70412e-07
7.69718e-07
7.69446e-07
7.68859e-07
7.68502e-07
7.68176e-07
7.68209e-07
7.6801e-07
7.68066e-07
7.67954e-07
7.68006e-07
7.67948e-07
7.67978e-07
7.67958e-07
7.67957e-07
7.67977e-07
7.67945e-07
7.68002e-07
7.6795e-07
7.68062e-07
7.68006e-07
7.68207e-07
7.68176e-07
7.68503e-07
7.6887e-07
7.69455e-07
7.69725e-07
7.70417e-07
7.71106e-07
7.7232e-07
7.74325e-07
7.75618e-07
7.81124e-07
7.84023e-07
7.9311e-07
8.00549e-07
8.13259e-07
8.31302e-07
8.48729e-07
6.82397e-07
6.67896e-07
6.53131e-07
6.42603e-07
6.36552e-07
6.29049e-07
6.26817e-07
6.22075e-07
6.21076e-07
6.19416e-07
6.18428e-07
6.17861e-07
6.17301e-07
6.17088e-07
6.16623e-07
6.16154e-07
6.15885e-07
6.15914e-07
6.1575e-07
6.15797e-07
6.15707e-07
6.15753e-07
6.15707e-07
6.15733e-07
6.15717e-07
6.15716e-07
6.15732e-07
6.15704e-07
6.1575e-07
6.15704e-07
6.15794e-07
6.15747e-07
6.15912e-07
6.15885e-07
6.16154e-07
6.1663e-07
6.17095e-07
6.17307e-07
6.17865e-07
6.18435e-07
6.19411e-07
6.21067e-07
6.22065e-07
6.26808e-07
6.2904e-07
6.36543e-07
6.42595e-07
6.53122e-07
6.67886e-07
6.82387e-07
5.42625e-07
5.30751e-07
5.18858e-07
5.1001e-07
5.04959e-07
4.98757e-07
4.97013e-07
4.92815e-07
4.9204e-07
4.9067e-07
4.89878e-07
4.89414e-07
4.88962e-07
4.88794e-07
4.8844e-07
4.88759e-07
4.88544e-07
4.88568e-07
4.88435e-07
4.88474e-07
4.88403e-07
4.88444e-07
4.88409e-07
4.88431e-07
4.88419e-07
4.88418e-07
4.8843e-07
4.88407e-07
4.88442e-07
4.88401e-07
4.88471e-07
4.88433e-07
4.88567e-07
4.88544e-07
4.8876e-07
4.88444e-07
4.888e-07
4.88967e-07
4.89417e-07
4.89884e-07
4.90667e-07
4.92032e-07
4.92807e-07
4.97005e-07
4.98749e-07
5.04952e-07
5.10004e-07
5.1885e-07
5.30744e-07
5.42615e-07
4.2634e-07
4.16685e-07
4.07292e-07
4.00283e-07
3.9612e-07
3.91252e-07
3.89948e-07
3.87701e-07
3.87127e-07
3.8603e-07
3.85414e-07
3.85043e-07
3.8469e-07
3.84564e-07
3.84311e-07
3.84531e-07
3.84361e-07
3.84381e-07
3.84275e-07
3.84306e-07
3.84252e-07
3.84289e-07
3.84263e-07
3.84283e-07
3.84274e-07
3.84274e-07
3.84282e-07
3.84262e-07
3.84287e-07
3.8425e-07
3.84304e-07
3.84273e-07
3.8438e-07
3.84361e-07
3.84531e-07
3.84311e-07
3.84569e-07
3.84693e-07
3.85046e-07
3.85419e-07
3.86028e-07
3.87121e-07
3.87695e-07
3.89942e-07
3.91246e-07
3.96115e-07
4.00278e-07
4.07287e-07
4.16681e-07
4.26329e-07
3.32606e-07
3.25035e-07
3.17778e-07
3.12406e-07
3.10134e-07
3.06335e-07
3.05392e-07
3.03605e-07
3.03186e-07
3.02321e-07
3.0185e-07
3.01553e-07
3.01281e-07
3.0119e-07
3.01017e-07
3.01158e-07
3.01026e-07
3.01041e-07
3.00959e-07
3.00982e-07
3.00928e-07
3.00939e-07
3.00909e-07
3.00917e-07
3.00906e-07
3.00906e-07
3.00916e-07
3.00907e-07
3.00937e-07
3.00926e-07
3.00981e-07
3.00958e-07
3.01041e-07
3.01026e-07
3.01158e-07
3.01014e-07
3.01193e-07
3.01284e-07
3.01555e-07
3.01855e-07
3.0232e-07
3.03181e-07
3.03601e-07
3.05387e-07
3.0633e-07
3.1013e-07
3.12403e-07
3.17774e-07
3.25032e-07
3.32596e-07
2.60068e-07
2.54184e-07
2.48653e-07
2.44507e-07
2.42793e-07
2.39871e-07
2.39192e-07
2.37794e-07
2.37489e-07
2.36816e-07
2.36461e-07
2.36217e-07
2.36012e-07
2.35947e-07
2.35831e-07
2.35916e-07
2.35815e-07
2.35826e-07
2.35763e-07
2.3578e-07
2.35737e-07
2.35746e-07
2.35722e-07
2.35729e-07
2.35721e-07
2.3572e-07
2.35728e-07
2.35721e-07
2.35744e-07
2.35735e-07
2.35779e-07
2.35762e-07
2.35826e-07
2.35815e-07
2.35916e-07
2.35828e-07
2.35949e-07
2.36014e-07
2.36219e-07
2.36465e-07
2.36816e-07
2.37485e-07
2.37791e-07
2.39189e-07
2.39868e-07
2.4279e-07
2.44504e-07
2.4865e-07
2.54182e-07
2.6006e-07
2.04324e-07
1.99754e-07
1.95578e-07
1.92405e-07
1.91127e-07
1.88901e-07
1.8841e-07
1.87327e-07
1.87101e-07
1.86586e-07
1.86321e-07
1.86109e-07
1.85955e-07
1.85909e-07
1.85833e-07
1.85879e-07
1.85803e-07
1.85812e-07
1.85763e-07
1.85775e-07
1.85742e-07
1.85748e-07
1.85731e-07
1.85735e-07
1.85729e-07
1.85729e-07
1.85735e-07
1.8573e-07
1.85747e-07
1.85741e-07
1.85774e-07
1.85762e-07
1.85811e-07
1.85803e-07
1.85879e-07
1.8583e-07
1.85911e-07
1.85956e-07
1.86111e-07
1.86324e-07
1.86586e-07
1.87098e-07
1.87325e-07
1.88407e-07
1.88898e-07
1.91125e-07
1.92403e-07
1.95576e-07
1.99755e-07
2.04316e-07
1.62234e-07
1.58763e-07
1.55565e-07
1.53141e-07
1.52201e-07
1.5051e-07
1.5015e-07
1.49317e-07
1.49145e-07
1.48754e-07
1.4856e-07
1.48356e-07
1.48241e-07
1.48208e-07
1.48158e-07
1.48181e-07
1.48123e-07
1.48129e-07
1.48093e-07
1.48101e-07
1.48075e-07
1.4808e-07
1.48067e-07
1.4807e-07
1.48066e-07
1.48066e-07
1.4807e-07
1.48066e-07
1.48079e-07
1.48074e-07
1.481e-07
1.48092e-07
1.48129e-07
1.48123e-07
1.48181e-07
1.48156e-07
1.4821e-07
1.48242e-07
1.48357e-07
1.48562e-07
1.48754e-07
1.49143e-07
1.49315e-07
1.50148e-07
1.50508e-07
1.52199e-07
1.5314e-07
1.55563e-07
1.58763e-07
1.62228e-07
1.31005e-07
1.28153e-07
1.25873e-07
1.24013e-07
1.23145e-07
1.2187e-07
1.21589e-07
1.20957e-07
1.20819e-07
1.20526e-07
1.20391e-07
1.20353e-07
1.20266e-07
1.20244e-07
1.20209e-07
1.20218e-07
1.20174e-07
1.20179e-07
1.20151e-07
1.20156e-07
1.20136e-07
1.2014e-07
1.2013e-07
1.20133e-07
1.20129e-07
1.20129e-07
1.20132e-07
1.20129e-07
1.2014e-07
1.20136e-07
1.20155e-07
1.2015e-07
1.20178e-07
1.20174e-07
1.20218e-07
1.20207e-07
1.20244e-07
1.20267e-07
1.20354e-07
1.20391e-07
1.20526e-07
1.20817e-07
1.20956e-07
1.21587e-07
1.21868e-07
1.23143e-07
1.24011e-07
1.25872e-07
1.28153e-07
1.31e-07
1.07985e-07
1.05912e-07
1.04162e-07
1.02719e-07
1.02036e-07
1.01062e-07
1.00839e-07
1.00356e-07
1.00239e-07
1.00021e-07
9.99281e-08
9.98842e-08
9.98188e-08
9.98019e-08
9.97758e-08
9.97776e-08
9.97448e-08
9.97475e-08
9.97261e-08
9.97294e-08
9.97145e-08
9.97172e-08
9.97093e-08
9.97113e-08
9.97086e-08
9.97085e-08
9.97112e-08
9.97089e-08
9.97167e-08
9.9714e-08
9.9729e-08
9.97257e-08
9.97473e-08
9.97449e-08
9.97776e-08
9.9775e-08
9.98026e-08
9.98195e-08
9.98847e-08
9.99269e-08
1.00021e-07
1.00238e-07
1.00355e-07
1.00838e-07
1.0106e-07
1.02035e-07
1.02718e-07
1.04161e-07
1.05912e-07
1.07981e-07
9.15048e-08
8.98471e-08
8.84802e-08
8.73497e-08
8.67961e-08
8.60437e-08
8.58591e-08
8.54599e-08
8.5384e-08
8.51922e-08
8.5127e-08
8.5081e-08
8.50309e-08
8.50177e-08
8.4996e-08
8.49939e-08
8.49687e-08
8.49701e-08
8.49533e-08
8.49552e-08
8.49436e-08
8.49456e-08
8.49394e-08
8.49409e-08
8.49387e-08
8.49386e-08
8.49408e-08
8.49391e-08
8.49452e-08
8.49432e-08
8.49549e-08
8.4953e-08
8.49699e-08
8.49687e-08
8.49939e-08
8.49957e-08
8.50182e-08
8.50314e-08
8.50813e-08
8.51256e-08
8.51919e-08
8.53832e-08
8.5459e-08
8.58583e-08
8.60428e-08
8.67953e-08
8.73489e-08
8.84794e-08
8.98485e-08
9.1501e-08
7.96693e-08
7.82991e-08
7.72158e-08
7.63071e-08
7.5846e-08
7.52538e-08
7.50946e-08
7.4777e-08
7.47098e-08
7.45586e-08
7.45104e-08
7.44661e-08
7.44272e-08
7.44161e-08
7.43965e-08
7.43923e-08
7.43728e-08
7.43732e-08
7.43598e-08
7.43608e-08
7.43516e-08
7.4353e-08
7.43481e-08
7.43493e-08
7.43475e-08
7.43474e-08
7.43491e-08
7.43478e-08
7.43527e-08
7.43513e-08
7.43605e-08
7.43595e-08
7.43731e-08
7.43728e-08
7.43923e-08
7.43965e-08
7.44165e-08
7.44276e-08
7.44664e-08
7.45094e-08
7.45583e-08
7.47092e-08
7.47763e-08
7.50939e-08
7.52532e-08
7.58454e-08
7.63064e-08
7.72151e-08
7.83001e-08
7.96664e-08
7.10515e-08
6.98677e-08
6.89981e-08
6.82491e-08
6.78548e-08
6.73779e-08
6.72365e-08
6.69775e-08
6.69169e-08
6.67948e-08
6.67567e-08
6.67163e-08
6.66854e-08
6.66752e-08
6.6656e-08
6.66506e-08
6.66354e-08
6.66349e-08
6.6624e-08
6.66243e-08
6.66169e-08
6.66179e-08
6.66139e-08
6.66148e-08
6.66133e-08
6.66132e-08
6.66147e-08
6.66136e-08
6.66177e-08
6.66166e-08
6.66241e-08
6.66238e-08
6.66348e-08
6.66353e-08
6.66506e-08
6.6656e-08
6.66756e-08
6.66857e-08
6.67165e-08
6.67562e-08
6.67946e-08
6.69165e-08
6.6977e-08
6.7236e-08
6.73773e-08
6.78544e-08
6.82486e-08
6.89975e-08
6.98684e-08
7.10488e-08
6.44722e-08
6.34568e-08
6.27268e-08
6.2092e-08
6.17472e-08
6.13529e-08
6.12249e-08
6.10078e-08
6.09528e-08
6.08516e-08
6.08197e-08
6.07836e-08
6.07586e-08
6.07486e-08
6.07349e-08
6.07318e-08
6.07197e-08
6.07187e-08
6.07096e-08
6.07094e-08
6.07033e-08
6.0704e-08
6.07007e-08
6.07014e-08
6.07001e-08
6.07001e-08
6.07013e-08
6.07005e-08
6.07038e-08
6.07031e-08
6.07092e-08
6.07094e-08
6.07186e-08
6.07197e-08
6.07318e-08
6.0735e-08
6.07489e-08
6.07588e-08
6.07837e-08
6.08195e-08
6.08515e-08
6.09524e-08
6.10074e-08
6.12245e-08
6.13524e-08
6.17468e-08
6.20916e-08
6.27262e-08
6.34567e-08
6.447e-08
5.9176e-08
5.82759e-08
5.76627e-08
5.71177e-08
5.68133e-08
5.64819e-08
5.63652e-08
5.61804e-08
5.61304e-08
5.60453e-08
5.60175e-08
5.59858e-08
5.59652e-08
5.59549e-08
5.59412e-08
5.59379e-08
5.59284e-08
5.59268e-08
5.59192e-08
5.59186e-08
5.59137e-08
5.59141e-08
5.59113e-08
5.59118e-08
5.59107e-08
5.59107e-08
5.59117e-08
5.59111e-08
5.59139e-08
5.59135e-08
5.59185e-08
5.5919e-08
5.59267e-08
5.59283e-08
5.59379e-08
5.59413e-08
5.59552e-08
5.59653e-08
5.59858e-08
5.60175e-08
5.60453e-08
5.61302e-08
5.618e-08
5.63648e-08
5.64815e-08
5.68129e-08
5.71173e-08
5.76619e-08
5.82744e-08
5.91746e-08
5.48639e-08
5.40383e-08
5.35217e-08
5.30484e-08
5.27761e-08
5.24991e-08
5.23915e-08
5.22321e-08
5.21863e-08
5.21136e-08
5.20888e-08
5.20607e-08
5.20427e-08
5.20328e-08
5.20198e-08
5.20161e-08
5.20084e-08
5.20066e-08
5.20001e-08
5.19993e-08
5.19952e-08
5.19954e-08
5.1993e-08
5.19935e-08
5.19925e-08
5.19924e-08
5.19934e-08
5.19928e-08
5.19952e-08
5.1995e-08
5.19992e-08
5.19999e-08
5.20065e-08
5.20084e-08
5.20161e-08
5.20199e-08
5.2033e-08
5.20429e-08
5.20607e-08
5.20888e-08
5.21135e-08
5.21861e-08
5.22318e-08
5.23912e-08
5.24988e-08
5.27759e-08
5.3048e-08
5.35214e-08
5.40345e-08
5.48669e-08
5.19039e-08
5.10936e-08
5.06624e-08
5.02384e-08
4.99881e-08
4.97437e-08
4.96419e-08
4.95002e-08
4.94571e-08
4.93927e-08
4.93698e-08
4.93443e-08
4.93284e-08
4.93183e-08
4.93062e-08
4.93021e-08
4.92957e-08
4.92937e-08
4.92879e-08
4.92871e-08
4.92834e-08
4.92836e-08
4.92814e-08
4.92818e-08
4.92809e-08
4.92808e-08
4.92817e-08
4.92812e-08
4.92834e-08
4.92832e-08
4.92869e-08
4.92877e-08
4.92936e-08
4.92956e-08
4.93021e-08
4.93062e-08
4.93185e-08
4.93285e-08
4.93443e-08
4.93698e-08
4.93927e-08
4.94569e-08
4.95e-08
4.96416e-08
4.97434e-08
4.99879e-08
5.02382e-08
5.0662e-08
5.10924e-08
5.19044e-08
)
;

boundaryField
{
    fuel
    {
        type            fixedValue;
        value           nonuniform 0();
    }
    wall
    {
        type            zeroGradient;
    }
    outlet
    {
        type            zeroGradient;
    }
    frontAndBack
    {
        type            empty;
    }
    procBoundary3to2
    {
        type            processor;
        value           nonuniform List<scalar> 
51
(
1.55176e-05
1.55095e-05
1.55057e-05
1.55005e-05
1.54991e-05
1.54959e-05
1.54955e-05
1.54936e-05
1.54936e-05
1.54925e-05
1.54927e-05
1.5492e-05
1.54922e-05
1.5492e-05
1.54919e-05
1.54922e-05
1.5492e-05
1.54926e-05
1.54924e-05
1.54936e-05
1.54935e-05
1.54955e-05
1.54959e-05
1.54991e-05
1.55005e-05
1.55058e-05
1.55095e-05
1.55176e-05
1.55268e-05
1.55408e-05
1.55621e-05
1.55868e-05
1.56311e-05
1.56762e-05
1.57661e-05
1.58661e-05
1.59792e-05
1.61709e-05
1.62785e-05
1.50758e-05
1.49712e-05
1.47852e-05
1.46773e-05
1.45832e-05
1.44982e-05
1.44554e-05
1.44136e-05
1.43905e-05
1.43702e-05
1.43571e-05
1.43571e-05
)
;
    }
}


// ************************************************************************* //
