/*--------------------------------*- C++ -*----------------------------------*\
| =========                 |                                                 |
| \\      /  F ield         | OpenFOAM: The Open Source CFD Toolbox           |
|  \\    /   O peration     | Version:  dev                                   |
|   \\  /    A nd           | Web:      www.OpenFOAM.org                      |
|    \\/     M anipulation  |                                                 |
\*---------------------------------------------------------------------------*/
FoamFile
{
    version     2.0;
    format      ascii;
    class       volScalarField;
    location    "0.1";
    object      H;
}
// * * * * * * * * * * * * * * * * * * * * * * * * * * * * * * * * * * * * * //

dimensions      [0 0 0 0 0 0 0];

internalField   nonuniform List<scalar> 
1989
(
3.06257e-06
3.06088e-06
3.06009e-06
3.059e-06
3.05871e-06
3.05803e-06
3.05796e-06
3.05754e-06
3.05756e-06
3.05731e-06
3.05735e-06
3.05722e-06
3.05725e-06
3.0572e-06
3.0572e-06
3.05725e-06
3.05721e-06
3.05735e-06
3.05731e-06
3.05756e-06
3.05754e-06
3.05796e-06
3.05803e-06
3.05871e-06
3.05901e-06
3.0601e-06
3.06089e-06
3.06257e-06
3.0645e-06
3.06743e-06
3.07188e-06
3.07699e-06
3.08622e-06
3.09568e-06
3.11444e-06
3.13523e-06
3.15907e-06
3.20011e-06
3.22328e-06
2.97154e-06
2.94926e-06
2.90963e-06
2.88715e-06
2.86776e-06
2.85017e-06
2.84125e-06
2.83261e-06
2.82788e-06
2.82368e-06
2.82096e-06
2.81914e-06
2.81757e-06
2.81684e-06
2.81582e-06
2.81556e-06
2.81492e-06
2.81486e-06
2.81447e-06
2.81449e-06
2.81425e-06
2.81429e-06
2.81417e-06
2.81419e-06
2.81415e-06
2.81415e-06
2.81419e-06
2.81416e-06
2.81429e-06
2.81425e-06
2.81448e-06
2.81446e-06
2.81486e-06
2.81492e-06
2.81556e-06
2.81582e-06
2.81685e-06
2.81758e-06
2.81915e-06
2.82095e-06
2.82369e-06
2.82786e-06
2.8326e-06
2.84123e-06
2.85016e-06
2.86774e-06
2.88713e-06
2.9096e-06
2.94923e-06
2.9715e-06
2.73266e-06
2.71133e-06
2.67314e-06
2.65204e-06
2.63402e-06
2.61761e-06
2.6092e-06
2.60116e-06
2.5968e-06
2.59288e-06
2.59034e-06
2.58865e-06
2.58719e-06
2.58652e-06
2.58556e-06
2.58532e-06
2.58473e-06
2.58468e-06
2.58431e-06
2.58433e-06
2.58411e-06
2.58415e-06
2.58404e-06
2.58406e-06
2.58402e-06
2.58402e-06
2.58406e-06
2.58403e-06
2.58415e-06
2.58411e-06
2.58433e-06
2.5843e-06
2.58468e-06
2.58472e-06
2.58533e-06
2.58557e-06
2.58653e-06
2.58719e-06
2.58865e-06
2.59033e-06
2.59289e-06
2.59678e-06
2.60114e-06
2.60919e-06
2.61759e-06
2.63401e-06
2.65202e-06
2.67311e-06
2.71131e-06
2.73262e-06
2.50449e-06
2.484e-06
2.44691e-06
2.42706e-06
2.41027e-06
2.39487e-06
2.38705e-06
2.37949e-06
2.37546e-06
2.3718e-06
2.36942e-06
2.36785e-06
2.36649e-06
2.36587e-06
2.36498e-06
2.36476e-06
2.3642e-06
2.36416e-06
2.36382e-06
2.36384e-06
2.36364e-06
2.36368e-06
2.36357e-06
2.36359e-06
2.36356e-06
2.36356e-06
2.36359e-06
2.36356e-06
2.36367e-06
2.36363e-06
2.36384e-06
2.36382e-06
2.36416e-06
2.3642e-06
2.36476e-06
2.36498e-06
2.36588e-06
2.3665e-06
2.36785e-06
2.36941e-06
2.37181e-06
2.37545e-06
2.37948e-06
2.38703e-06
2.39486e-06
2.41026e-06
2.42704e-06
2.44689e-06
2.48397e-06
2.50446e-06
2.28628e-06
2.26698e-06
2.23595e-06
2.21762e-06
2.20213e-06
2.18779e-06
2.18065e-06
2.17357e-06
2.16989e-06
2.16649e-06
2.16429e-06
2.16284e-06
2.16158e-06
2.16102e-06
2.16019e-06
2.16e-06
2.15948e-06
2.15945e-06
2.15913e-06
2.15915e-06
2.15896e-06
2.159e-06
2.1589e-06
2.15892e-06
2.15889e-06
2.15889e-06
2.15892e-06
2.15889e-06
2.15899e-06
2.15895e-06
2.15915e-06
2.15912e-06
2.15944e-06
2.15948e-06
2.16e-06
2.16019e-06
2.16102e-06
2.16159e-06
2.16284e-06
2.16427e-06
2.16651e-06
2.16988e-06
2.17356e-06
2.18064e-06
2.18778e-06
2.20212e-06
2.2176e-06
2.23593e-06
2.26695e-06
2.28625e-06
2.08549e-06
2.06729e-06
2.03732e-06
2.01965e-06
2.00492e-06
1.99128e-06
1.98462e-06
1.97788e-06
1.97445e-06
1.97125e-06
1.96916e-06
1.96782e-06
1.96663e-06
1.96611e-06
1.96533e-06
1.96515e-06
1.96466e-06
1.96464e-06
1.96433e-06
1.96436e-06
1.96418e-06
1.96422e-06
1.96412e-06
1.96415e-06
1.96411e-06
1.96411e-06
1.96414e-06
1.96412e-06
1.96421e-06
1.96418e-06
1.96436e-06
1.96433e-06
1.96463e-06
1.96466e-06
1.96515e-06
1.96533e-06
1.96611e-06
1.96664e-06
1.96782e-06
1.96915e-06
1.97127e-06
1.97443e-06
1.97787e-06
1.9846e-06
1.99127e-06
2.0049e-06
2.01963e-06
2.0373e-06
2.06726e-06
2.08546e-06
1.89713e-06
1.87989e-06
1.85169e-06
1.83522e-06
1.82166e-06
1.80904e-06
1.80298e-06
1.7967e-06
1.79358e-06
1.79064e-06
1.7887e-06
1.78748e-06
1.78639e-06
1.78591e-06
1.78519e-06
1.78503e-06
1.78458e-06
1.78456e-06
1.78428e-06
1.78431e-06
1.78414e-06
1.78418e-06
1.78409e-06
1.78411e-06
1.78408e-06
1.78408e-06
1.78411e-06
1.78408e-06
1.78417e-06
1.78414e-06
1.7843e-06
1.78428e-06
1.78456e-06
1.78458e-06
1.78503e-06
1.78519e-06
1.78591e-06
1.78639e-06
1.78747e-06
1.78868e-06
1.79066e-06
1.79357e-06
1.79669e-06
1.80297e-06
1.80902e-06
1.82164e-06
1.8352e-06
1.85167e-06
1.87987e-06
1.8971e-06
1.72093e-06
1.70451e-06
1.67833e-06
1.66284e-06
1.65046e-06
1.63879e-06
1.63332e-06
1.62748e-06
1.62466e-06
1.62196e-06
1.62016e-06
1.61906e-06
1.61805e-06
1.61762e-06
1.61696e-06
1.61682e-06
1.6164e-06
1.61639e-06
1.61613e-06
1.61616e-06
1.61601e-06
1.61604e-06
1.61596e-06
1.61598e-06
1.61595e-06
1.61595e-06
1.61598e-06
1.61596e-06
1.61604e-06
1.616e-06
1.61616e-06
1.61613e-06
1.61639e-06
1.6164e-06
1.61682e-06
1.61696e-06
1.61763e-06
1.61806e-06
1.61905e-06
1.62014e-06
1.62198e-06
1.62465e-06
1.62747e-06
1.63331e-06
1.63878e-06
1.65045e-06
1.66283e-06
1.67831e-06
1.70449e-06
1.7209e-06
1.55574e-06
1.54009e-06
1.51561e-06
1.50076e-06
1.48934e-06
1.47843e-06
1.47343e-06
1.46795e-06
1.46537e-06
1.46286e-06
1.46117e-06
1.46017e-06
1.45924e-06
1.45884e-06
1.45823e-06
1.45811e-06
1.45772e-06
1.45771e-06
1.45747e-06
1.4575e-06
1.45736e-06
1.45739e-06
1.45732e-06
1.45734e-06
1.45731e-06
1.45731e-06
1.45734e-06
1.45732e-06
1.45739e-06
1.45736e-06
1.4575e-06
1.45747e-06
1.45771e-06
1.45772e-06
1.45811e-06
1.45823e-06
1.45885e-06
1.45924e-06
1.46017e-06
1.46115e-06
1.46288e-06
1.46536e-06
1.46794e-06
1.47342e-06
1.47842e-06
1.48933e-06
1.50075e-06
1.5156e-06
1.54007e-06
1.55571e-06
1.39935e-06
1.38471e-06
1.36244e-06
1.34839e-06
1.33806e-06
1.32811e-06
1.32362e-06
1.31859e-06
1.31628e-06
1.31399e-06
1.31245e-06
1.31155e-06
1.31071e-06
1.31035e-06
1.30979e-06
1.30968e-06
1.30933e-06
1.30933e-06
1.30911e-06
1.30914e-06
1.30901e-06
1.30904e-06
1.30897e-06
1.30899e-06
1.30897e-06
1.30897e-06
1.30899e-06
1.30897e-06
1.30904e-06
1.30901e-06
1.30914e-06
1.30911e-06
1.30933e-06
1.30933e-06
1.30968e-06
1.30979e-06
1.31035e-06
1.31071e-06
1.31155e-06
1.31243e-06
1.31401e-06
1.31627e-06
1.31858e-06
1.32361e-06
1.3281e-06
1.33805e-06
1.34838e-06
1.36243e-06
1.38469e-06
1.39933e-06
1.25424e-06
1.24062e-06
1.22043e-06
1.20967e-06
1.20032e-06
1.19121e-06
1.18721e-06
1.18258e-06
1.1805e-06
1.17842e-06
1.17701e-06
1.1762e-06
1.17544e-06
1.17511e-06
1.17461e-06
1.17452e-06
1.1742e-06
1.1742e-06
1.174e-06
1.17403e-06
1.17391e-06
1.17394e-06
1.17388e-06
1.1739e-06
1.17387e-06
1.17387e-06
1.17389e-06
1.17387e-06
1.17394e-06
1.17391e-06
1.17402e-06
1.174e-06
1.1742e-06
1.1742e-06
1.17452e-06
1.17461e-06
1.17512e-06
1.17544e-06
1.1762e-06
1.177e-06
1.17843e-06
1.18049e-06
1.18257e-06
1.1872e-06
1.1912e-06
1.20032e-06
1.20966e-06
1.22042e-06
1.2406e-06
1.25422e-06
1.12229e-06
1.10966e-06
1.09123e-06
1.0813e-06
1.07287e-06
1.06455e-06
1.061e-06
1.05675e-06
1.0549e-06
1.05301e-06
1.05172e-06
1.05099e-06
1.05026e-06
1.04996e-06
1.04947e-06
1.04939e-06
1.04909e-06
1.04909e-06
1.0489e-06
1.04893e-06
1.04881e-06
1.04884e-06
1.04878e-06
1.0488e-06
1.04878e-06
1.04878e-06
1.0488e-06
1.04878e-06
1.04884e-06
1.04881e-06
1.04892e-06
1.0489e-06
1.04909e-06
1.04909e-06
1.04939e-06
1.04948e-06
1.04997e-06
1.05027e-06
1.05099e-06
1.05171e-06
1.05302e-06
1.05489e-06
1.05674e-06
1.06099e-06
1.06454e-06
1.07286e-06
1.08129e-06
1.09122e-06
1.10964e-06
1.12227e-06
9.99159e-07
9.87211e-07
9.7009e-07
9.60885e-07
9.53188e-07
9.45702e-07
9.42561e-07
9.38692e-07
9.37057e-07
9.35351e-07
9.34183e-07
9.33533e-07
9.3288e-07
9.32606e-07
9.32166e-07
9.32092e-07
9.31819e-07
9.31821e-07
9.31652e-07
9.31678e-07
9.31576e-07
9.31604e-07
9.3155e-07
9.31567e-07
9.31548e-07
9.31548e-07
9.31565e-07
9.31547e-07
9.31601e-07
9.31573e-07
9.31675e-07
9.31649e-07
9.3182e-07
9.31819e-07
9.32092e-07
9.32169e-07
9.32612e-07
9.32884e-07
9.33535e-07
9.3418e-07
9.35355e-07
9.37049e-07
9.38684e-07
9.42552e-07
9.45693e-07
9.53181e-07
9.60876e-07
9.70079e-07
9.87197e-07
9.99142e-07
8.84572e-07
8.73514e-07
8.58114e-07
8.4973e-07
8.42806e-07
8.36111e-07
8.33347e-07
8.29847e-07
8.28405e-07
8.2687e-07
8.25825e-07
8.25246e-07
8.2466e-07
8.24415e-07
8.24018e-07
8.23953e-07
8.23708e-07
8.23711e-07
8.23559e-07
8.23584e-07
8.23493e-07
8.23518e-07
8.23469e-07
8.23485e-07
8.23468e-07
8.23468e-07
8.23484e-07
8.23467e-07
8.23515e-07
8.2349e-07
8.23581e-07
8.23557e-07
8.2371e-07
8.23708e-07
8.23953e-07
8.2402e-07
8.2442e-07
8.24664e-07
8.25248e-07
8.25824e-07
8.26872e-07
8.28398e-07
8.29839e-07
8.33339e-07
8.36103e-07
8.428e-07
8.49722e-07
8.58105e-07
8.73502e-07
8.84556e-07
7.80905e-07
7.70614e-07
7.56848e-07
7.49158e-07
7.42986e-07
7.36959e-07
7.34553e-07
7.31375e-07
7.30114e-07
7.28727e-07
7.27804e-07
7.27285e-07
7.26759e-07
7.26542e-07
7.26181e-07
7.26125e-07
7.25904e-07
7.25909e-07
7.25773e-07
7.25796e-07
7.25714e-07
7.25738e-07
7.25694e-07
7.25709e-07
7.25694e-07
7.25693e-07
7.25708e-07
7.25692e-07
7.25735e-07
7.25711e-07
7.25794e-07
7.2577e-07
7.25908e-07
7.25904e-07
7.26125e-07
7.26183e-07
7.26546e-07
7.26763e-07
7.27287e-07
7.27804e-07
7.28728e-07
7.30107e-07
7.31368e-07
7.34547e-07
7.36952e-07
7.4298e-07
7.49151e-07
7.56839e-07
7.70603e-07
7.80891e-07
6.85581e-07
6.76183e-07
6.63933e-07
6.56846e-07
6.51351e-07
6.45767e-07
6.43636e-07
6.40693e-07
6.39572e-07
6.38297e-07
6.37465e-07
6.36993e-07
6.36513e-07
6.36316e-07
6.35983e-07
6.35934e-07
6.35732e-07
6.35739e-07
6.35613e-07
6.35636e-07
6.35561e-07
6.35584e-07
6.35544e-07
6.35558e-07
6.35544e-07
6.35544e-07
6.35557e-07
6.35542e-07
6.35582e-07
6.35559e-07
6.35634e-07
6.35611e-07
6.35737e-07
6.35732e-07
6.35934e-07
6.35986e-07
6.3632e-07
6.36517e-07
6.36995e-07
6.37466e-07
6.38297e-07
6.39565e-07
6.40686e-07
6.4363e-07
6.4576e-07
6.51346e-07
6.5684e-07
6.63925e-07
6.76173e-07
6.85568e-07
5.98232e-07
5.89692e-07
5.78837e-07
5.72354e-07
5.67548e-07
5.62521e-07
5.60691e-07
5.58031e-07
5.5706e-07
5.55919e-07
5.55183e-07
5.54766e-07
5.54339e-07
5.54164e-07
5.53862e-07
5.53819e-07
5.53638e-07
5.53646e-07
5.53534e-07
5.53556e-07
5.53489e-07
5.5351e-07
5.53474e-07
5.53487e-07
5.53475e-07
5.53474e-07
5.53486e-07
5.53473e-07
5.53508e-07
5.53486e-07
5.53554e-07
5.53532e-07
5.53645e-07
5.53638e-07
5.53819e-07
5.53865e-07
5.54168e-07
5.54342e-07
5.54768e-07
5.55184e-07
5.55919e-07
5.57054e-07
5.58025e-07
5.60685e-07
5.62515e-07
5.67544e-07
5.72348e-07
5.7883e-07
5.89684e-07
5.98221e-07
5.18401e-07
5.10682e-07
5.01113e-07
4.95228e-07
4.9105e-07
4.86548e-07
4.84994e-07
4.826e-07
4.81765e-07
4.80752e-07
4.80101e-07
4.79735e-07
4.79357e-07
4.79204e-07
4.7893e-07
4.78892e-07
4.78731e-07
4.78739e-07
4.78639e-07
4.7866e-07
4.78601e-07
4.7862e-07
4.78589e-07
4.786e-07
4.7859e-07
4.78589e-07
4.786e-07
4.78587e-07
4.78618e-07
4.78599e-07
4.78659e-07
4.78638e-07
4.78738e-07
4.78731e-07
4.78892e-07
4.78933e-07
4.79208e-07
4.7936e-07
4.79737e-07
4.80102e-07
4.80751e-07
4.8176e-07
4.82594e-07
4.84989e-07
4.86542e-07
4.91046e-07
4.95223e-07
5.01107e-07
5.10674e-07
5.18392e-07
4.45504e-07
4.38404e-07
4.2987e-07
4.24498e-07
4.20832e-07
4.16794e-07
4.15469e-07
4.13309e-07
4.12588e-07
4.11689e-07
4.11106e-07
4.10787e-07
4.10453e-07
4.10317e-07
4.10068e-07
4.1003e-07
4.09887e-07
4.09895e-07
4.09806e-07
4.09826e-07
4.09773e-07
4.09791e-07
4.09763e-07
4.09774e-07
4.09765e-07
4.09764e-07
4.09774e-07
4.09762e-07
4.0979e-07
4.09771e-07
4.09824e-07
4.09805e-07
4.09894e-07
4.09887e-07
4.1003e-07
4.1007e-07
4.1032e-07
4.10455e-07
4.10789e-07
4.11108e-07
4.11688e-07
4.12584e-07
4.13305e-07
4.15464e-07
4.16789e-07
4.20829e-07
4.24494e-07
4.29865e-07
4.38398e-07
4.45495e-07
3.79472e-07
3.73102e-07
3.65663e-07
3.6086e-07
3.5771e-07
3.54137e-07
3.53043e-07
3.51117e-07
3.50509e-07
3.4972e-07
3.49208e-07
3.48933e-07
3.48641e-07
3.48524e-07
3.483e-07
3.48262e-07
3.48136e-07
3.48144e-07
3.48066e-07
3.48084e-07
3.48038e-07
3.48055e-07
3.48031e-07
3.4804e-07
3.48032e-07
3.48032e-07
3.4804e-07
3.48029e-07
3.48053e-07
3.48037e-07
3.48083e-07
3.48065e-07
3.48144e-07
3.48136e-07
3.48262e-07
3.48303e-07
3.48527e-07
3.48644e-07
3.48935e-07
3.4921e-07
3.49718e-07
3.50505e-07
3.51113e-07
3.53039e-07
3.54133e-07
3.57707e-07
3.60856e-07
3.65659e-07
3.73097e-07
3.79464e-07
3.19824e-07
3.14137e-07
3.07713e-07
3.03462e-07
3.00778e-07
2.97643e-07
2.96762e-07
2.95055e-07
2.94549e-07
2.93861e-07
2.93419e-07
2.93182e-07
2.9293e-07
2.92829e-07
2.9263e-07
2.92589e-07
2.92478e-07
2.92487e-07
2.92419e-07
2.92435e-07
2.92395e-07
2.92411e-07
2.9239e-07
2.92399e-07
2.92391e-07
2.92391e-07
2.92398e-07
2.92389e-07
2.92409e-07
2.92394e-07
2.92434e-07
2.92417e-07
2.92486e-07
2.92478e-07
2.9259e-07
2.92633e-07
2.92832e-07
2.92933e-07
2.93183e-07
2.9342e-07
2.9386e-07
2.94546e-07
2.95051e-07
2.96758e-07
2.97639e-07
3.00776e-07
3.03459e-07
3.07709e-07
3.14132e-07
3.19816e-07
2.66293e-07
2.61243e-07
2.55763e-07
2.52046e-07
2.49784e-07
2.4706e-07
2.46376e-07
2.44876e-07
2.44462e-07
2.43868e-07
2.43491e-07
2.43288e-07
2.43074e-07
2.42989e-07
2.42815e-07
2.42766e-07
2.4267e-07
2.42679e-07
2.42619e-07
2.42635e-07
2.426e-07
2.42614e-07
2.42596e-07
2.42604e-07
2.42598e-07
2.42598e-07
2.42604e-07
2.42596e-07
2.42613e-07
2.42599e-07
2.42634e-07
2.42618e-07
2.42678e-07
2.4267e-07
2.42767e-07
2.42818e-07
2.42991e-07
2.43076e-07
2.4329e-07
2.43493e-07
2.43867e-07
2.44459e-07
2.44873e-07
2.46373e-07
2.47057e-07
2.49782e-07
2.52043e-07
2.5576e-07
2.61238e-07
2.66286e-07
2.18662e-07
2.14237e-07
2.09628e-07
2.0642e-07
2.0454e-07
2.02201e-07
2.01703e-07
2.00396e-07
2.00066e-07
1.99559e-07
1.99244e-07
1.99072e-07
1.98893e-07
1.98822e-07
1.98673e-07
1.98614e-07
1.98531e-07
1.98539e-07
1.98488e-07
1.98502e-07
1.98473e-07
1.98486e-07
1.98471e-07
1.98478e-07
1.98473e-07
1.98472e-07
1.98477e-07
1.9847e-07
1.98485e-07
1.98472e-07
1.98501e-07
1.98487e-07
1.98538e-07
1.98531e-07
1.98614e-07
1.98676e-07
1.98825e-07
1.98894e-07
1.99073e-07
1.99246e-07
1.99557e-07
2.00064e-07
2.00394e-07
2.017e-07
2.02198e-07
2.04538e-07
2.06418e-07
2.09625e-07
2.14233e-07
2.18656e-07
1.76734e-07
1.7301e-07
1.69164e-07
1.66445e-07
1.64865e-07
1.62925e-07
1.62313e-07
1.61133e-07
1.6086e-07
1.6043e-07
1.60169e-07
1.60022e-07
1.59874e-07
1.59816e-07
1.59691e-07
1.59614e-07
1.59544e-07
1.59551e-07
1.59508e-07
1.5952e-07
1.59496e-07
1.59507e-07
1.59495e-07
1.59501e-07
1.59497e-07
1.59497e-07
1.59501e-07
1.59494e-07
1.59506e-07
1.59495e-07
1.59519e-07
1.59507e-07
1.5955e-07
1.59544e-07
1.59614e-07
1.59694e-07
1.59818e-07
1.59875e-07
1.60023e-07
1.6017e-07
1.60429e-07
1.60857e-07
1.6113e-07
1.6231e-07
1.62923e-07
1.64863e-07
1.66443e-07
1.69161e-07
1.73007e-07
1.76731e-07
1.40488e-07
1.37386e-07
1.3424e-07
1.31986e-07
1.30705e-07
1.29102e-07
1.28636e-07
1.27619e-07
1.2741e-07
1.27055e-07
1.26845e-07
1.26724e-07
1.26605e-07
1.2656e-07
1.26462e-07
1.26359e-07
1.26302e-07
1.26308e-07
1.26273e-07
1.26283e-07
1.26263e-07
1.26273e-07
1.26263e-07
1.26269e-07
1.26266e-07
1.26265e-07
1.26269e-07
1.26263e-07
1.26273e-07
1.26263e-07
1.26282e-07
1.26272e-07
1.26307e-07
1.26302e-07
1.26359e-07
1.26463e-07
1.26562e-07
1.26606e-07
1.26725e-07
1.26846e-07
1.27054e-07
1.27408e-07
1.27617e-07
1.28634e-07
1.291e-07
1.30703e-07
1.31984e-07
1.34238e-07
1.37384e-07
1.40486e-07
1.09723e-07
1.07189e-07
1.04662e-07
1.0277e-07
1.01709e-07
1.00387e-07
1.00029e-07
9.91285e-08
9.8969e-08
9.86771e-08
9.85092e-08
9.841e-08
9.83148e-08
9.828e-08
9.82056e-08
9.82738e-08
9.82277e-08
9.82327e-08
9.82044e-08
9.82124e-08
9.81975e-08
9.82062e-08
9.81987e-08
9.82035e-08
9.82009e-08
9.82008e-08
9.82033e-08
9.81983e-08
9.82057e-08
9.81969e-08
9.8212e-08
9.82039e-08
9.82325e-08
9.82278e-08
9.82739e-08
9.82063e-08
9.82812e-08
9.83158e-08
9.84107e-08
9.85105e-08
9.86765e-08
9.89674e-08
9.91268e-08
1.00027e-07
1.00385e-07
1.01707e-07
1.02769e-07
1.0466e-07
1.07187e-07
1.09721e-07
8.38343e-08
8.1785e-08
7.98042e-08
7.83145e-08
7.74504e-08
7.64191e-08
7.61597e-08
7.56843e-08
7.55697e-08
7.53376e-08
7.52084e-08
7.51292e-08
7.50558e-08
7.50304e-08
7.49778e-08
7.50232e-08
7.49869e-08
7.4991e-08
7.49686e-08
7.49749e-08
7.49635e-08
7.49713e-08
7.4966e-08
7.49702e-08
7.49683e-08
7.49683e-08
7.49701e-08
7.49657e-08
7.49709e-08
7.49631e-08
7.49745e-08
7.49682e-08
7.49908e-08
7.4987e-08
7.50232e-08
7.49778e-08
7.50314e-08
7.50566e-08
7.51298e-08
7.52097e-08
7.53373e-08
7.55683e-08
7.5683e-08
7.61584e-08
7.64178e-08
7.74493e-08
7.83135e-08
7.98031e-08
8.1784e-08
8.38321e-08
6.2651e-08
6.10632e-08
5.95548e-08
5.8425e-08
5.79804e-08
5.71843e-08
5.70065e-08
5.66296e-08
5.65499e-08
5.63695e-08
5.62726e-08
5.62093e-08
5.6154e-08
5.61363e-08
5.61005e-08
5.61286e-08
5.61006e-08
5.61038e-08
5.60865e-08
5.60911e-08
5.60796e-08
5.60818e-08
5.60755e-08
5.60771e-08
5.6075e-08
5.60749e-08
5.6077e-08
5.60752e-08
5.60815e-08
5.60793e-08
5.60908e-08
5.60861e-08
5.61036e-08
5.61007e-08
5.61286e-08
5.61001e-08
5.6137e-08
5.61546e-08
5.62098e-08
5.62737e-08
5.63694e-08
5.65487e-08
5.66287e-08
5.70055e-08
5.71833e-08
5.79795e-08
5.84242e-08
5.95539e-08
6.10626e-08
6.2649e-08
4.59015e-08
4.46934e-08
4.35713e-08
4.2715e-08
4.23954e-08
4.17948e-08
4.16778e-08
4.13862e-08
4.13326e-08
4.11959e-08
4.11255e-08
4.10738e-08
4.10333e-08
4.10214e-08
4.09978e-08
4.10136e-08
4.09925e-08
4.09949e-08
4.09818e-08
4.0985e-08
4.09762e-08
4.09779e-08
4.09732e-08
4.09744e-08
4.09728e-08
4.09727e-08
4.09743e-08
4.09729e-08
4.09776e-08
4.09759e-08
4.09848e-08
4.09815e-08
4.09947e-08
4.09925e-08
4.10136e-08
4.09972e-08
4.10219e-08
4.10337e-08
4.10742e-08
4.11265e-08
4.11959e-08
4.13318e-08
4.13855e-08
4.16771e-08
4.1794e-08
4.23947e-08
4.27145e-08
4.35706e-08
4.4693e-08
4.58998e-08
3.26721e-08
3.17711e-08
3.09595e-08
3.03267e-08
3.01076e-08
2.96661e-08
2.95932e-08
2.93735e-08
2.93388e-08
2.92389e-08
2.91897e-08
2.91454e-08
2.91165e-08
2.91089e-08
2.90935e-08
2.91015e-08
2.90859e-08
2.90876e-08
2.9078e-08
2.90802e-08
2.90736e-08
2.90748e-08
2.90714e-08
2.90723e-08
2.90711e-08
2.90711e-08
2.90722e-08
2.90712e-08
2.90746e-08
2.90734e-08
2.908e-08
2.90778e-08
2.90875e-08
2.90859e-08
2.91015e-08
2.9093e-08
2.91092e-08
2.91169e-08
2.91456e-08
2.91906e-08
2.92389e-08
2.93382e-08
2.93729e-08
2.95926e-08
2.96655e-08
3.01071e-08
3.03263e-08
3.0959e-08
3.1771e-08
3.26705e-08
2.24169e-08
2.17821e-08
2.12056e-08
2.07533e-08
2.06147e-08
2.0301e-08
2.02589e-08
2.00991e-08
2.00778e-08
2.00079e-08
1.9976e-08
1.99343e-08
1.99146e-08
1.99099e-08
1.98999e-08
1.99033e-08
1.98922e-08
1.98933e-08
1.98865e-08
1.98879e-08
1.98832e-08
1.98841e-08
1.98817e-08
1.98824e-08
1.98815e-08
1.98815e-08
1.98823e-08
1.98816e-08
1.9884e-08
1.98831e-08
1.98878e-08
1.98864e-08
1.98933e-08
1.98922e-08
1.99033e-08
1.98996e-08
1.99101e-08
1.99149e-08
1.99344e-08
1.99765e-08
2.00079e-08
2.00774e-08
2.00988e-08
2.02585e-08
2.03006e-08
2.06144e-08
2.0753e-08
2.12053e-08
2.17819e-08
2.24159e-08
1.47179e-08
1.42469e-08
1.38963e-08
1.35868e-08
1.34685e-08
1.32582e-08
1.32345e-08
1.31258e-08
1.31126e-08
1.30672e-08
1.30492e-08
1.30469e-08
1.30342e-08
1.30314e-08
1.30249e-08
1.30259e-08
1.30184e-08
1.30191e-08
1.30146e-08
1.30154e-08
1.30122e-08
1.30128e-08
1.30112e-08
1.30117e-08
1.30111e-08
1.30111e-08
1.30116e-08
1.30112e-08
1.30127e-08
1.30121e-08
1.30153e-08
1.30145e-08
1.30191e-08
1.30185e-08
1.30259e-08
1.30247e-08
1.30315e-08
1.30344e-08
1.3047e-08
1.30492e-08
1.30671e-08
1.31124e-08
1.31256e-08
1.32343e-08
1.3258e-08
1.34683e-08
1.35866e-08
1.3896e-08
1.42466e-08
1.47172e-08
9.154e-09
8.88341e-09
8.66447e-09
8.46483e-09
8.39331e-09
8.25915e-09
8.24776e-09
8.17804e-09
8.16988e-09
8.14267e-09
8.13361e-09
8.13003e-09
8.12237e-09
8.12069e-09
8.11658e-09
8.11656e-09
8.1118e-09
8.1122e-09
8.1093e-09
8.10975e-09
8.10778e-09
8.10814e-09
8.10716e-09
8.10742e-09
8.10708e-09
8.10707e-09
8.1074e-09
8.10711e-09
8.10808e-09
8.10772e-09
8.1097e-09
8.10923e-09
8.11217e-09
8.11181e-09
8.11656e-09
8.11651e-09
8.1208e-09
8.12247e-09
8.13008e-09
8.13345e-09
8.14263e-09
8.16972e-09
8.17789e-09
8.2476e-09
8.25899e-09
8.39315e-09
8.46471e-09
8.66434e-09
8.88317e-09
9.15356e-09
5.41569e-09
5.25356e-09
5.12551e-09
5.00591e-09
4.96523e-09
4.88545e-09
4.88059e-09
4.83433e-09
4.83408e-09
4.81408e-09
4.81e-09
4.80661e-09
4.80226e-09
4.80129e-09
4.7987e-09
4.79831e-09
4.79548e-09
4.79567e-09
4.79394e-09
4.79416e-09
4.79301e-09
4.79321e-09
4.79264e-09
4.79279e-09
4.79259e-09
4.79258e-09
4.79278e-09
4.79261e-09
4.79317e-09
4.79297e-09
4.79414e-09
4.79391e-09
4.79565e-09
4.79549e-09
4.79831e-09
4.79869e-09
4.80136e-09
4.80231e-09
4.80663e-09
4.80984e-09
4.81405e-09
4.83399e-09
4.83423e-09
4.8805e-09
4.88535e-09
4.96516e-09
5.00584e-09
5.12543e-09
5.2534e-09
5.41538e-09
3.03408e-09
2.94312e-09
2.87415e-09
2.80709e-09
2.78555e-09
2.74131e-09
2.73955e-09
2.71342e-09
2.71369e-09
2.7027e-09
2.70104e-09
2.69858e-09
2.69631e-09
2.69575e-09
2.69416e-09
2.69374e-09
2.69221e-09
2.69229e-09
2.69134e-09
2.69144e-09
2.69081e-09
2.69092e-09
2.69061e-09
2.69069e-09
2.69058e-09
2.69058e-09
2.69068e-09
2.69059e-09
2.6909e-09
2.69079e-09
2.69142e-09
2.69132e-09
2.69228e-09
2.69222e-09
2.69374e-09
2.69417e-09
2.69579e-09
2.69633e-09
2.69859e-09
2.70094e-09
2.70268e-09
2.71364e-09
2.71337e-09
2.7395e-09
2.74126e-09
2.7855e-09
2.80705e-09
2.87411e-09
2.94295e-09
3.03392e-09
1.60498e-09
1.5568e-09
1.52283e-09
1.48799e-09
1.47736e-09
1.45458e-09
1.45408e-09
1.44041e-09
1.44074e-09
1.43512e-09
1.43449e-09
1.433e-09
1.43191e-09
1.4316e-09
1.43055e-09
1.43023e-09
1.42947e-09
1.42949e-09
1.42901e-09
1.42905e-09
1.42874e-09
1.42878e-09
1.42863e-09
1.42867e-09
1.42862e-09
1.42862e-09
1.42867e-09
1.42862e-09
1.42877e-09
1.42873e-09
1.42904e-09
1.429e-09
1.42949e-09
1.42948e-09
1.43023e-09
1.43056e-09
1.43162e-09
1.43193e-09
1.433e-09
1.43445e-09
1.43511e-09
1.44071e-09
1.44039e-09
1.45405e-09
1.45456e-09
1.47734e-09
1.48797e-09
1.52281e-09
1.55666e-09
1.6049e-09
7.91098e-10
7.68202e-10
7.52423e-10
7.3558e-10
7.30639e-10
7.19753e-10
7.19623e-10
7.13023e-10
7.13242e-10
7.10578e-10
7.10343e-10
7.09559e-10
7.09086e-10
7.0891e-10
7.08728e-10
7.08728e-10
7.08397e-10
7.08393e-10
7.08174e-10
7.08181e-10
7.0804e-10
7.08059e-10
7.0799e-10
7.08007e-10
7.07982e-10
7.07981e-10
7.08005e-10
7.07986e-10
7.08054e-10
7.08036e-10
7.08177e-10
7.08169e-10
7.08391e-10
7.08399e-10
7.08728e-10
7.08731e-10
7.0892e-10
7.0909e-10
7.0956e-10
7.10333e-10
7.10574e-10
7.1323e-10
7.1301e-10
7.19611e-10
7.1974e-10
7.3063e-10
7.35571e-10
7.52406e-10
7.68074e-10
7.91079e-10
3.54639e-10
3.44917e-10
3.38491e-10
3.31351e-10
3.29299e-10
3.24673e-10
3.24629e-10
3.21835e-10
3.2194e-10
3.20823e-10
3.20739e-10
3.20387e-10
3.20213e-10
3.20117e-10
3.20014e-10
3.20023e-10
3.19899e-10
3.19891e-10
3.19802e-10
3.19801e-10
3.19745e-10
3.1975e-10
3.19723e-10
3.19729e-10
3.19719e-10
3.19719e-10
3.19729e-10
3.19721e-10
3.19748e-10
3.19743e-10
3.198e-10
3.198e-10
3.1989e-10
3.199e-10
3.20023e-10
3.20015e-10
3.20121e-10
3.20214e-10
3.20387e-10
3.20737e-10
3.20822e-10
3.21935e-10
3.2183e-10
3.24624e-10
3.24668e-10
3.29295e-10
3.31347e-10
3.38474e-10
3.44791e-10
3.54667e-10
1.42862e-10
1.39175e-10
1.36945e-10
1.34406e-10
1.33638e-10
1.32114e-10
1.32069e-10
1.3108e-10
1.31106e-10
1.3071e-10
1.30679e-10
1.30546e-10
1.30478e-10
1.30448e-10
1.30405e-10
1.30406e-10
1.30368e-10
1.30363e-10
1.30332e-10
1.3033e-10
1.30311e-10
1.30312e-10
1.30303e-10
1.30305e-10
1.30301e-10
1.30301e-10
1.30304e-10
1.30302e-10
1.30311e-10
1.3031e-10
1.3033e-10
1.30331e-10
1.30362e-10
1.30369e-10
1.30406e-10
1.30405e-10
1.3045e-10
1.30479e-10
1.30546e-10
1.30679e-10
1.30709e-10
1.31104e-10
1.31078e-10
1.32067e-10
1.32113e-10
1.33637e-10
1.34404e-10
1.36949e-10
1.39203e-10
1.42842e-10
5.33935e-11
5.21895e-11
5.15495e-11
5.07996e-11
5.05376e-11
5.00939e-11
5.00518e-11
4.97668e-11
4.97617e-11
4.9645e-11
4.96321e-11
4.95908e-11
4.9571e-11
4.95592e-11
4.95447e-11
4.95432e-11
4.95333e-11
4.95307e-11
4.95217e-11
4.95206e-11
4.95149e-11
4.95151e-11
4.95123e-11
4.95128e-11
4.95117e-11
4.95116e-11
4.95127e-11
4.95121e-11
4.95149e-11
4.95147e-11
4.95204e-11
4.95215e-11
4.95306e-11
4.95333e-11
4.95432e-11
4.95448e-11
4.95597e-11
4.95713e-11
4.95908e-11
4.96321e-11
4.96449e-11
4.97612e-11
4.97663e-11
5.00513e-11
5.00934e-11
5.05372e-11
5.07992e-11
5.15495e-11
5.21946e-11
5.33906e-11
)
;

boundaryField
{
    fuel
    {
        type            fixedValue;
        value           nonuniform 0();
    }
    wall
    {
        type            zeroGradient;
    }
    outlet
    {
        type            zeroGradient;
    }
    frontAndBack
    {
        type            empty;
    }
    procBoundary3to2
    {
        type            processor;
        value           nonuniform List<scalar> 
51
(
3.31887e-06
3.31707e-06
3.31622e-06
3.31506e-06
3.31474e-06
3.31402e-06
3.31394e-06
3.3135e-06
3.31351e-06
3.31325e-06
3.31329e-06
3.31315e-06
3.31317e-06
3.31313e-06
3.31313e-06
3.31317e-06
3.31314e-06
3.31328e-06
3.31324e-06
3.3135e-06
3.31349e-06
3.31394e-06
3.31402e-06
3.31474e-06
3.31506e-06
3.31623e-06
3.31708e-06
3.31888e-06
3.32093e-06
3.32405e-06
3.32878e-06
3.33428e-06
3.3441e-06
3.35411e-06
3.37404e-06
3.39625e-06
3.42137e-06
3.46389e-06
3.48785e-06
3.22332e-06
3.20014e-06
3.1591e-06
3.13525e-06
3.11445e-06
3.0957e-06
3.08623e-06
3.07701e-06
3.0719e-06
3.06741e-06
3.0645e-06
3.0645e-06
)
;
    }
}


// ************************************************************************* //
