/*--------------------------------*- C++ -*----------------------------------*\
| =========                 |                                                 |
| \\      /  F ield         | OpenFOAM: The Open Source CFD Toolbox           |
|  \\    /   O peration     | Version:  dev                                   |
|   \\  /    A nd           | Web:      www.OpenFOAM.org                      |
|    \\/     M anipulation  |                                                 |
\*---------------------------------------------------------------------------*/
FoamFile
{
    version     2.0;
    format      ascii;
    class       volScalarField;
    location    "0.1";
    object      H;
}
// * * * * * * * * * * * * * * * * * * * * * * * * * * * * * * * * * * * * * //

dimensions      [0 0 0 0 0 0 0];

internalField   nonuniform List<scalar> 
25
(
1.76968e-05
1.64588e-05
1.52587e-05
1.4064e-05
1.29457e-05
1.18599e-05
1.08215e-05
9.82125e-06
8.84563e-06
7.89496e-06
7.02018e-06
6.18391e-06
5.39002e-06
4.64034e-06
3.93712e-06
3.28337e-06
2.68264e-06
2.13895e-06
1.65681e-06
1.24087e-06
8.95049e-07
6.20228e-07
4.10502e-07
2.50843e-07
1.17208e-07
)
;

boundaryField
{
    wall
    {
        type            zeroGradient;
    }
    fuel
    {
        type            fixedValue;
        value           nonuniform 0();
    }
    outlet
    {
        type            inletOutlet;
        inletValue      uniform 0;
        value           uniform 1.17208e-07;
    }
    procBoundary3to2
    {
        type            processor;
        value           uniform 1.90129e-05;
    }
}


// ************************************************************************* //
