/*--------------------------------*- C++ -*----------------------------------*\
| =========                 |                                                 |
| \\      /  F ield         | OpenFOAM: The Open Source CFD Toolbox           |
|  \\    /   O peration     | Version:  dev                                   |
|   \\  /    A nd           | Web:      www.OpenFOAM.org                      |
|    \\/     M anipulation  |                                                 |
\*---------------------------------------------------------------------------*/
FoamFile
{
    version     2.0;
    format      ascii;
    class       volScalarField;
    location    "0.1";
    object      H2;
}
// * * * * * * * * * * * * * * * * * * * * * * * * * * * * * * * * * * * * * //

dimensions      [0 0 0 0 0 0 0];

internalField   nonuniform List<scalar> 
25
(
0.0062635
0.00612154
0.00597346
0.00581477
0.0056548
0.0054876
0.00531518
0.00513556
0.00494596
0.00474544
0.00454448
0.00433462
0.00411586
0.00388762
0.00364924
0.00339999
0.00313901
0.00286528
0.00257753
0.00227422
0.00195348
0.00161295
0.00124928
0.000857061
0.000424472
)
;

boundaryField
{
    wall
    {
        type            zeroGradient;
    }
    fuel
    {
        type            fixedValue;
        value           nonuniform 0();
    }
    outlet
    {
        type            inletOutlet;
        inletValue      uniform 0;
        value           uniform 0.000424472;
    }
    procBoundary3to2
    {
        type            processor;
        value           uniform 0.00640374;
    }
}


// ************************************************************************* //
