/*--------------------------------*- C++ -*----------------------------------*\
| =========                 |                                                 |
| \\      /  F ield         | OpenFOAM: The Open Source CFD Toolbox           |
|  \\    /   O peration     | Version:  dev                                   |
|   \\  /    A nd           | Web:      www.OpenFOAM.org                      |
|    \\/     M anipulation  |                                                 |
\*---------------------------------------------------------------------------*/
FoamFile
{
    version     2.0;
    format      ascii;
    class       volScalarField;
    location    "0.1";
    object      H2O;
}
// * * * * * * * * * * * * * * * * * * * * * * * * * * * * * * * * * * * * * //

dimensions      [0 0 0 0 0 0 0];

internalField   nonuniform List<scalar> 
1989
(
0.0587325
0.0587324
0.0587323
0.0587322
0.0587322
0.0587322
0.0587322
0.0587322
0.0587322
0.0587322
0.0587322
0.0587322
0.0587322
0.0587322
0.0587322
0.0587322
0.0587322
0.0587322
0.0587322
0.0587322
0.0587322
0.0587322
0.0587322
0.0587322
0.0587322
0.0587323
0.0587324
0.0587325
0.0587326
0.0587328
0.058733
0.0587334
0.0587339
0.0587344
0.0587354
0.0587364
0.0587374
0.0587389
0.0587394
0.0587254
0.0587249
0.0587234
0.0587226
0.0587216
0.0587207
0.0587202
0.0587197
0.0587194
0.0587192
0.058719
0.0587189
0.0587188
0.0587187
0.0587187
0.0587187
0.0587186
0.0587186
0.0587186
0.0587186
0.0587186
0.0587186
0.0587186
0.0587186
0.0587186
0.0587186
0.0587186
0.0587186
0.0587186
0.0587186
0.0587186
0.0587186
0.0587186
0.0587186
0.0587187
0.0587187
0.0587187
0.0587188
0.0587189
0.058719
0.0587192
0.0587194
0.0587197
0.0587202
0.0587207
0.0587216
0.0587226
0.0587234
0.0587249
0.0587254
0.0587125
0.058712
0.0587106
0.0587098
0.0587089
0.0587081
0.0587076
0.0587071
0.0587069
0.0587066
0.0587065
0.0587064
0.0587063
0.0587063
0.0587062
0.0587062
0.0587062
0.0587062
0.0587061
0.0587061
0.0587061
0.0587061
0.0587061
0.0587061
0.0587061
0.0587061
0.0587061
0.0587061
0.0587061
0.0587061
0.0587061
0.0587061
0.0587062
0.0587061
0.0587062
0.0587062
0.0587062
0.0587063
0.0587064
0.0587065
0.0587066
0.0587069
0.0587071
0.0587076
0.0587081
0.0587089
0.0587098
0.0587106
0.058712
0.0587125
0.0587005
0.0587001
0.0586987
0.0586979
0.0586971
0.0586963
0.0586959
0.0586955
0.0586952
0.058695
0.0586949
0.0586948
0.0586947
0.0586946
0.0586946
0.0586946
0.0586946
0.0586946
0.0586945
0.0586945
0.0586945
0.0586945
0.0586945
0.0586945
0.0586945
0.0586945
0.0586945
0.0586945
0.0586945
0.0586945
0.0586945
0.0586945
0.0586945
0.0586945
0.0586946
0.0586946
0.0586946
0.0586947
0.0586948
0.0586949
0.058695
0.0586952
0.0586955
0.0586959
0.0586963
0.0586971
0.0586979
0.0586987
0.0587001
0.0587005
0.0586894
0.058689
0.0586879
0.0586872
0.0586865
0.0586858
0.0586854
0.058685
0.0586847
0.0586845
0.0586844
0.0586843
0.0586842
0.0586842
0.0586842
0.0586841
0.0586841
0.0586841
0.0586841
0.0586841
0.0586841
0.0586841
0.0586841
0.0586841
0.0586841
0.0586841
0.0586841
0.0586841
0.0586841
0.0586841
0.0586841
0.0586841
0.0586841
0.0586841
0.0586841
0.0586841
0.0586842
0.0586842
0.0586843
0.0586844
0.0586845
0.0586847
0.058685
0.0586854
0.0586858
0.0586865
0.0586872
0.0586879
0.058689
0.0586894
0.0586795
0.0586791
0.0586781
0.0586774
0.0586767
0.0586761
0.0586757
0.0586753
0.0586751
0.0586749
0.0586748
0.0586747
0.0586746
0.0586746
0.0586746
0.0586745
0.0586745
0.0586745
0.0586745
0.0586745
0.0586745
0.0586745
0.0586745
0.0586745
0.0586745
0.0586745
0.0586745
0.0586745
0.0586745
0.0586745
0.0586745
0.0586745
0.0586745
0.0586745
0.0586745
0.0586745
0.0586746
0.0586746
0.0586747
0.0586748
0.0586749
0.0586751
0.0586753
0.0586757
0.0586761
0.0586767
0.0586774
0.0586781
0.0586791
0.0586795
0.0586705
0.0586702
0.0586692
0.0586686
0.058668
0.0586674
0.058667
0.0586667
0.0586665
0.0586663
0.0586662
0.0586661
0.058666
0.058666
0.058666
0.058666
0.058666
0.058666
0.0586659
0.0586659
0.0586659
0.0586659
0.0586659
0.0586659
0.0586659
0.0586659
0.0586659
0.0586659
0.0586659
0.0586659
0.0586659
0.0586659
0.0586659
0.0586659
0.058666
0.058666
0.058666
0.058666
0.0586661
0.0586662
0.0586663
0.0586665
0.0586667
0.058667
0.0586674
0.058668
0.0586686
0.0586692
0.0586702
0.0586705
0.0586624
0.0586621
0.0586612
0.0586606
0.0586601
0.0586595
0.0586592
0.0586589
0.0586587
0.0586586
0.0586585
0.0586584
0.0586583
0.0586583
0.0586583
0.0586583
0.0586582
0.0586582
0.0586582
0.0586582
0.0586582
0.0586582
0.0586582
0.0586582
0.0586582
0.0586582
0.0586582
0.0586582
0.0586582
0.0586582
0.0586582
0.0586582
0.0586582
0.0586582
0.0586583
0.0586583
0.0586583
0.0586583
0.0586584
0.0586585
0.0586586
0.0586587
0.0586589
0.0586592
0.0586595
0.0586601
0.0586606
0.0586612
0.0586621
0.0586624
0.0586551
0.0586548
0.058654
0.0586535
0.058653
0.0586524
0.0586521
0.0586519
0.0586517
0.0586515
0.0586514
0.0586514
0.0586513
0.0586513
0.0586513
0.0586513
0.0586513
0.0586513
0.0586512
0.0586513
0.0586512
0.0586513
0.0586513
0.0586513
0.0586513
0.0586513
0.0586513
0.0586513
0.0586513
0.0586512
0.0586513
0.0586512
0.0586513
0.0586513
0.0586513
0.0586513
0.0586513
0.0586513
0.0586514
0.0586514
0.0586515
0.0586517
0.0586519
0.0586521
0.0586524
0.058653
0.0586535
0.058654
0.0586548
0.0586551
0.0586485
0.0586482
0.0586475
0.058647
0.0586465
0.0586461
0.0586458
0.0586455
0.0586454
0.0586452
0.0586452
0.0586451
0.0586451
0.058645
0.058645
0.058645
0.058645
0.058645
0.058645
0.058645
0.058645
0.058645
0.058645
0.058645
0.058645
0.058645
0.058645
0.058645
0.058645
0.058645
0.058645
0.058645
0.058645
0.058645
0.058645
0.058645
0.058645
0.0586451
0.0586451
0.0586452
0.0586453
0.0586454
0.0586455
0.0586458
0.0586461
0.0586465
0.058647
0.0586475
0.0586482
0.0586485
0.0586426
0.0586423
0.0586417
0.0586413
0.0586409
0.0586405
0.0586403
0.05864
0.0586399
0.0586398
0.0586397
0.0586396
0.0586396
0.0586396
0.0586395
0.0586395
0.0586395
0.0586395
0.0586395
0.0586395
0.0586395
0.0586395
0.0586395
0.0586395
0.0586395
0.0586395
0.0586395
0.0586395
0.0586395
0.0586395
0.0586395
0.0586395
0.0586395
0.0586395
0.0586395
0.0586395
0.0586396
0.0586396
0.0586396
0.0586397
0.0586398
0.0586399
0.05864
0.0586403
0.0586405
0.0586409
0.0586413
0.0586417
0.0586423
0.0586426
0.0586375
0.0586372
0.0586367
0.0586363
0.058636
0.0586356
0.0586354
0.0586351
0.058635
0.0586349
0.0586348
0.0586348
0.0586347
0.0586347
0.0586347
0.0586347
0.0586347
0.0586347
0.0586347
0.0586347
0.0586347
0.0586347
0.0586347
0.0586347
0.0586347
0.0586347
0.0586347
0.0586347
0.0586347
0.0586347
0.0586347
0.0586347
0.0586347
0.0586347
0.0586347
0.0586347
0.0586347
0.0586347
0.0586348
0.0586348
0.0586349
0.058635
0.0586351
0.0586354
0.0586356
0.058636
0.0586363
0.0586367
0.0586372
0.0586375
0.0586329
0.0586327
0.0586322
0.0586318
0.0586315
0.0586312
0.058631
0.0586308
0.0586307
0.0586306
0.0586305
0.0586304
0.0586304
0.0586304
0.0586304
0.0586304
0.0586304
0.0586304
0.0586304
0.0586304
0.0586304
0.0586304
0.0586304
0.0586304
0.0586304
0.0586304
0.0586304
0.0586304
0.0586304
0.0586304
0.0586304
0.0586304
0.0586304
0.0586304
0.0586304
0.0586304
0.0586304
0.0586304
0.0586304
0.0586305
0.0586306
0.0586307
0.0586308
0.058631
0.0586312
0.0586315
0.0586318
0.0586322
0.0586327
0.0586329
0.0586288
0.0586286
0.0586282
0.0586279
0.0586276
0.0586273
0.0586271
0.0586269
0.0586268
0.0586267
0.0586267
0.0586266
0.0586266
0.0586266
0.0586266
0.0586266
0.0586266
0.0586266
0.0586266
0.0586266
0.0586266
0.0586266
0.0586266
0.0586266
0.0586266
0.0586266
0.0586266
0.0586266
0.0586266
0.0586266
0.0586266
0.0586265
0.0586266
0.0586265
0.0586266
0.0586266
0.0586266
0.0586266
0.0586266
0.0586267
0.0586267
0.0586268
0.0586269
0.0586271
0.0586273
0.0586276
0.0586279
0.0586282
0.0586286
0.0586289
0.0586254
0.0586252
0.0586248
0.0586245
0.0586242
0.0586239
0.0586238
0.0586236
0.0586235
0.0586234
0.0586234
0.0586233
0.0586233
0.0586233
0.0586233
0.0586233
0.0586233
0.0586233
0.0586233
0.0586233
0.0586233
0.0586233
0.0586233
0.0586233
0.0586233
0.0586233
0.0586233
0.0586233
0.0586233
0.0586233
0.0586233
0.0586233
0.0586233
0.0586233
0.0586233
0.0586233
0.0586233
0.0586233
0.0586233
0.0586234
0.0586234
0.0586235
0.0586236
0.0586238
0.0586239
0.0586242
0.0586245
0.0586248
0.0586252
0.0586254
0.0586223
0.0586221
0.0586217
0.0586215
0.0586212
0.058621
0.0586208
0.0586207
0.0586206
0.0586205
0.0586205
0.0586204
0.0586204
0.0586204
0.0586204
0.0586204
0.0586204
0.0586204
0.0586204
0.0586204
0.0586204
0.0586204
0.0586204
0.0586204
0.0586204
0.0586204
0.0586204
0.0586204
0.0586204
0.0586204
0.0586204
0.0586204
0.0586204
0.0586204
0.0586204
0.0586204
0.0586204
0.0586204
0.0586204
0.0586205
0.0586205
0.0586206
0.0586207
0.0586208
0.058621
0.0586212
0.0586215
0.0586217
0.0586221
0.0586223
0.0586196
0.0586194
0.0586191
0.0586189
0.0586186
0.0586184
0.0586183
0.0586181
0.058618
0.058618
0.0586179
0.0586179
0.0586179
0.0586179
0.0586179
0.0586179
0.0586178
0.0586178
0.0586178
0.0586178
0.0586178
0.0586179
0.0586179
0.0586179
0.0586179
0.0586179
0.0586179
0.0586179
0.0586179
0.0586178
0.0586178
0.0586178
0.0586178
0.0586178
0.0586178
0.0586178
0.0586179
0.0586179
0.0586179
0.0586179
0.058618
0.058618
0.0586181
0.0586183
0.0586184
0.0586186
0.0586189
0.0586191
0.0586194
0.0586196
0.0586172
0.0586171
0.0586168
0.0586166
0.0586163
0.0586161
0.058616
0.0586159
0.0586158
0.0586157
0.0586157
0.0586157
0.0586156
0.0586156
0.0586156
0.0586156
0.0586156
0.0586156
0.0586156
0.0586156
0.0586156
0.0586156
0.0586156
0.0586156
0.0586156
0.0586156
0.0586156
0.0586156
0.0586156
0.0586156
0.0586156
0.0586156
0.0586156
0.0586156
0.0586156
0.0586156
0.0586156
0.0586156
0.0586157
0.0586157
0.0586157
0.0586158
0.0586159
0.058616
0.0586161
0.0586163
0.0586166
0.0586168
0.0586171
0.0586172
0.0586151
0.058615
0.0586147
0.0586145
0.0586143
0.0586141
0.058614
0.0586139
0.0586138
0.0586137
0.0586137
0.0586137
0.0586137
0.0586136
0.0586136
0.0586136
0.0586136
0.0586136
0.0586136
0.0586136
0.0586136
0.0586136
0.0586136
0.0586136
0.0586136
0.0586136
0.0586136
0.0586136
0.0586136
0.0586136
0.0586136
0.0586136
0.0586136
0.0586136
0.0586136
0.0586136
0.0586136
0.0586137
0.0586137
0.0586137
0.0586137
0.0586138
0.0586139
0.058614
0.0586141
0.0586143
0.0586145
0.0586147
0.058615
0.0586151
0.0586133
0.0586131
0.0586129
0.0586127
0.0586125
0.0586123
0.0586122
0.0586121
0.058612
0.058612
0.0586119
0.0586119
0.0586119
0.0586119
0.0586119
0.0586119
0.0586119
0.0586119
0.0586119
0.0586119
0.0586119
0.0586119
0.0586119
0.0586119
0.0586119
0.0586119
0.0586119
0.0586119
0.0586119
0.0586119
0.0586119
0.0586119
0.0586119
0.0586119
0.0586119
0.0586119
0.0586119
0.0586119
0.0586119
0.0586119
0.058612
0.058612
0.0586121
0.0586122
0.0586123
0.0586125
0.0586127
0.0586129
0.0586131
0.0586133
0.0586116
0.0586114
0.0586112
0.058611
0.0586109
0.0586107
0.0586106
0.0586105
0.0586104
0.0586104
0.0586103
0.0586103
0.0586103
0.0586103
0.0586103
0.0586103
0.0586103
0.0586103
0.0586103
0.0586103
0.0586103
0.0586103
0.0586103
0.0586103
0.0586103
0.0586103
0.0586103
0.0586103
0.0586103
0.0586103
0.0586103
0.0586103
0.0586103
0.0586103
0.0586103
0.0586103
0.0586103
0.0586103
0.0586103
0.0586103
0.0586104
0.0586104
0.0586105
0.0586106
0.0586107
0.0586109
0.058611
0.0586112
0.0586114
0.0586116
0.0586101
0.0586099
0.0586097
0.0586095
0.0586094
0.0586092
0.0586091
0.058609
0.058609
0.0586089
0.0586089
0.0586089
0.0586089
0.0586089
0.0586088
0.0586088
0.0586088
0.0586088
0.0586088
0.0586089
0.0586089
0.0586089
0.0586089
0.0586089
0.0586089
0.0586089
0.0586089
0.0586089
0.0586089
0.0586089
0.0586088
0.0586088
0.0586088
0.0586088
0.0586088
0.0586088
0.0586089
0.0586089
0.0586089
0.0586089
0.0586089
0.058609
0.058609
0.0586091
0.0586092
0.0586094
0.0586095
0.0586097
0.0586099
0.0586101
0.0586087
0.0586085
0.0586083
0.0586081
0.058608
0.0586078
0.0586078
0.0586077
0.0586076
0.0586076
0.0586076
0.0586075
0.0586075
0.0586075
0.0586075
0.0586075
0.0586075
0.0586075
0.0586075
0.0586075
0.0586075
0.0586075
0.0586075
0.0586075
0.0586075
0.0586075
0.0586075
0.0586075
0.0586075
0.0586075
0.0586075
0.0586075
0.0586075
0.0586075
0.0586075
0.0586075
0.0586075
0.0586075
0.0586075
0.0586076
0.0586076
0.0586076
0.0586077
0.0586078
0.0586078
0.058608
0.0586081
0.0586083
0.0586085
0.0586087
0.0586074
0.0586072
0.058607
0.0586068
0.0586067
0.0586066
0.0586065
0.0586064
0.0586064
0.0586063
0.0586063
0.0586063
0.0586063
0.0586063
0.0586062
0.0586062
0.0586062
0.0586062
0.0586062
0.0586062
0.0586063
0.0586063
0.0586063
0.0586063
0.0586063
0.0586063
0.0586063
0.0586063
0.0586063
0.0586062
0.0586062
0.0586062
0.0586062
0.0586062
0.0586062
0.0586062
0.0586062
0.0586063
0.0586063
0.0586063
0.0586063
0.0586064
0.0586064
0.0586065
0.0586066
0.0586067
0.0586068
0.058607
0.0586072
0.0586074
0.0586061
0.058606
0.0586058
0.0586056
0.0586055
0.0586054
0.0586053
0.0586052
0.0586052
0.0586051
0.0586051
0.0586051
0.0586051
0.0586051
0.0586051
0.058605
0.058605
0.0586051
0.0586051
0.0586051
0.0586051
0.0586051
0.0586051
0.0586051
0.0586051
0.0586051
0.0586051
0.0586051
0.0586051
0.0586051
0.0586051
0.058605
0.058605
0.058605
0.058605
0.058605
0.0586051
0.0586051
0.0586051
0.0586051
0.0586051
0.0586052
0.0586052
0.0586053
0.0586054
0.0586055
0.0586056
0.0586058
0.058606
0.0586061
0.0586049
0.0586048
0.0586046
0.0586044
0.0586043
0.0586042
0.0586041
0.058604
0.058604
0.058604
0.0586039
0.0586039
0.0586039
0.0586039
0.0586039
0.0586039
0.0586039
0.0586039
0.0586039
0.0586039
0.0586039
0.0586039
0.0586039
0.0586039
0.0586039
0.0586039
0.0586039
0.0586039
0.0586039
0.0586039
0.0586039
0.0586039
0.0586039
0.0586039
0.0586039
0.0586039
0.0586039
0.0586039
0.0586039
0.0586039
0.058604
0.058604
0.058604
0.0586041
0.0586042
0.0586043
0.0586044
0.0586046
0.0586048
0.0586049
0.0586038
0.0586036
0.0586034
0.0586033
0.0586032
0.058603
0.058603
0.0586029
0.0586029
0.0586028
0.0586028
0.0586028
0.0586028
0.0586028
0.0586028
0.0586028
0.0586028
0.0586028
0.0586028
0.0586028
0.0586028
0.0586028
0.0586028
0.0586028
0.0586028
0.0586028
0.0586028
0.0586028
0.0586028
0.0586028
0.0586028
0.0586028
0.0586028
0.0586028
0.0586028
0.0586028
0.0586028
0.0586028
0.0586028
0.0586028
0.0586028
0.0586029
0.0586029
0.058603
0.058603
0.0586032
0.0586033
0.0586034
0.0586036
0.0586038
0.0586026
0.0586024
0.0586023
0.0586021
0.058602
0.0586019
0.0586019
0.0586018
0.0586018
0.0586017
0.0586017
0.0586017
0.0586017
0.0586017
0.0586017
0.0586017
0.0586017
0.0586017
0.0586017
0.0586017
0.0586017
0.0586017
0.0586017
0.0586017
0.0586017
0.0586017
0.0586017
0.0586017
0.0586017
0.0586017
0.0586017
0.0586017
0.0586017
0.0586017
0.0586017
0.0586017
0.0586017
0.0586017
0.0586017
0.0586017
0.0586017
0.0586018
0.0586018
0.0586019
0.0586019
0.058602
0.0586021
0.0586023
0.0586024
0.0586026
0.0586015
0.0586013
0.0586012
0.058601
0.0586009
0.0586008
0.0586008
0.0586007
0.0586007
0.0586007
0.0586006
0.0586006
0.0586006
0.0586006
0.0586006
0.0586006
0.0586006
0.0586006
0.0586006
0.0586006
0.0586006
0.0586006
0.0586006
0.0586006
0.0586006
0.0586006
0.0586006
0.0586006
0.0586006
0.0586006
0.0586006
0.0586006
0.0586006
0.0586006
0.0586006
0.0586006
0.0586006
0.0586006
0.0586006
0.0586006
0.0586007
0.0586007
0.0586007
0.0586008
0.0586008
0.0586009
0.058601
0.0586012
0.0586013
0.0586015
0.0586004
0.0586002
0.0586001
0.0586
0.0585999
0.0585998
0.0585997
0.0585997
0.0585996
0.0585996
0.0585996
0.0585996
0.0585996
0.0585996
0.0585996
0.0585996
0.0585996
0.0585996
0.0585996
0.0585996
0.0585996
0.0585996
0.0585996
0.0585996
0.0585996
0.0585996
0.0585996
0.0585996
0.0585996
0.0585996
0.0585996
0.0585996
0.0585996
0.0585995
0.0585995
0.0585995
0.0585995
0.0585996
0.0585996
0.0585996
0.0585996
0.0585996
0.0585996
0.0585997
0.0585998
0.0585999
0.0586
0.0586001
0.0586002
0.0586004
0.0585993
0.0585992
0.058599
0.0585989
0.0585988
0.0585987
0.0585987
0.0585986
0.0585986
0.0585986
0.0585985
0.0585985
0.0585985
0.0585985
0.0585985
0.0585985
0.0585985
0.0585985
0.0585985
0.0585985
0.0585985
0.0585985
0.0585985
0.0585985
0.0585985
0.0585985
0.0585985
0.0585985
0.0585985
0.0585985
0.0585985
0.0585985
0.0585985
0.0585985
0.0585985
0.0585985
0.0585985
0.0585985
0.0585985
0.0585985
0.0585985
0.0585986
0.0585986
0.0585987
0.0585987
0.0585988
0.0585989
0.058599
0.0585992
0.0585993
0.0585983
0.0585981
0.058598
0.0585978
0.0585978
0.0585977
0.0585976
0.0585976
0.0585976
0.0585975
0.0585975
0.0585975
0.0585975
0.0585975
0.0585975
0.0585975
0.0585975
0.0585975
0.0585975
0.0585975
0.0585975
0.0585975
0.0585975
0.0585975
0.0585975
0.0585975
0.0585975
0.0585975
0.0585975
0.0585975
0.0585975
0.0585975
0.0585975
0.0585975
0.0585975
0.0585975
0.0585975
0.0585975
0.0585975
0.0585975
0.0585975
0.0585975
0.0585976
0.0585976
0.0585977
0.0585978
0.0585978
0.058598
0.0585981
0.0585983
0.0585972
0.0585971
0.058597
0.0585968
0.0585968
0.0585967
0.0585966
0.0585966
0.0585966
0.0585965
0.0585965
0.0585965
0.0585965
0.0585965
0.0585965
0.0585965
0.0585965
0.0585965
0.0585965
0.0585965
0.0585965
0.0585965
0.0585965
0.0585965
0.0585965
0.0585965
0.0585965
0.0585965
0.0585965
0.0585965
0.0585965
0.0585965
0.0585965
0.0585965
0.0585965
0.0585965
0.0585965
0.0585965
0.0585965
0.0585965
0.0585965
0.0585966
0.0585966
0.0585966
0.0585967
0.0585968
0.0585968
0.058597
0.0585971
0.0585972
0.0585963
0.0585961
0.058596
0.0585959
0.0585958
0.0585957
0.0585957
0.0585956
0.0585956
0.0585956
0.0585956
0.0585956
0.0585955
0.0585955
0.0585955
0.0585955
0.0585955
0.0585956
0.0585956
0.0585956
0.0585956
0.0585956
0.0585956
0.0585956
0.0585956
0.0585956
0.0585956
0.0585956
0.0585956
0.0585956
0.0585956
0.0585956
0.0585955
0.0585955
0.0585955
0.0585955
0.0585955
0.0585955
0.0585955
0.0585956
0.0585956
0.0585956
0.0585956
0.0585957
0.0585957
0.0585958
0.0585959
0.058596
0.0585961
0.0585963
0.0585953
0.0585952
0.058595
0.0585949
0.0585949
0.0585948
0.0585947
0.0585947
0.0585947
0.0585947
0.0585946
0.0585946
0.0585946
0.0585946
0.0585946
0.0585946
0.0585946
0.0585946
0.0585946
0.0585946
0.0585947
0.0585947
0.0585947
0.0585947
0.0585947
0.0585947
0.0585947
0.0585947
0.0585947
0.0585946
0.0585946
0.0585946
0.0585946
0.0585946
0.0585946
0.0585946
0.0585946
0.0585946
0.0585946
0.0585946
0.0585947
0.0585947
0.0585947
0.0585947
0.0585948
0.0585949
0.0585949
0.058595
0.0585952
0.0585953
0.0585944
0.0585943
0.0585942
0.0585941
0.058594
0.0585939
0.0585939
0.0585938
0.0585938
0.0585938
0.0585938
0.0585938
0.0585938
0.0585938
0.0585938
0.0585938
0.0585938
0.0585938
0.0585938
0.0585938
0.0585938
0.0585938
0.0585938
0.0585938
0.0585938
0.0585938
0.0585938
0.0585938
0.0585938
0.0585938
0.0585938
0.0585938
0.0585938
0.0585938
0.0585938
0.0585938
0.0585938
0.0585938
0.0585938
0.0585938
0.0585938
0.0585938
0.0585938
0.0585939
0.0585939
0.058594
0.0585941
0.0585942
0.0585943
0.0585944
0.0585936
0.0585935
0.0585934
0.0585933
0.0585932
0.0585931
0.0585931
0.0585931
0.058593
0.058593
0.058593
0.058593
0.058593
0.058593
0.058593
0.058593
0.058593
0.058593
0.058593
0.058593
0.058593
0.058593
0.058593
0.058593
0.058593
0.058593
0.058593
0.058593
0.058593
0.058593
0.058593
0.058593
0.058593
0.058593
0.058593
0.058593
0.058593
0.058593
0.058593
0.058593
0.058593
0.058593
0.058593
0.0585931
0.0585931
0.0585932
0.0585933
0.0585934
0.0585935
0.0585936
0.0585929
0.0585928
0.0585927
0.0585926
0.0585925
0.0585924
0.0585924
0.0585924
0.0585924
0.0585923
0.0585923
0.0585923
0.0585923
0.0585923
0.0585923
0.0585923
0.0585923
0.0585923
0.0585923
0.0585923
0.0585923
0.0585923
0.0585923
0.0585923
0.0585923
0.0585923
0.0585923
0.0585923
0.0585923
0.0585923
0.0585923
0.0585923
0.0585923
0.0585923
0.0585923
0.0585923
0.0585923
0.0585923
0.0585923
0.0585923
0.0585923
0.0585923
0.0585924
0.0585924
0.0585924
0.0585925
0.0585926
0.0585927
0.0585928
0.0585929
0.0585923
0.0585922
0.0585921
0.058592
0.0585919
0.0585919
0.0585919
0.0585918
0.0585918
0.0585918
0.0585918
0.0585918
0.0585918
0.0585918
0.0585918
0.0585918
0.0585918
0.0585918
0.0585918
0.0585918
0.0585918
0.0585918
0.0585918
0.0585918
0.0585918
0.0585918
0.0585918
0.0585918
0.0585918
0.0585918
0.0585918
0.0585918
0.0585918
0.0585918
0.0585918
0.0585918
0.0585918
0.0585918
0.0585918
0.0585918
0.0585918
0.0585918
0.0585918
0.0585919
0.0585919
0.0585919
0.058592
0.0585921
0.0585922
0.0585923
0.058592
0.0585918
0.0585917
0.0585917
0.0585916
0.0585915
0.0585915
0.0585915
0.0585915
0.0585914
0.0585914
0.0585914
0.0585914
0.0585914
0.0585914
0.0585914
0.0585914
0.0585914
0.0585914
0.0585914
0.0585914
0.0585915
0.0585915
0.0585915
0.0585915
0.0585915
0.0585915
0.0585915
0.0585914
0.0585914
0.0585914
0.0585914
0.0585914
0.0585914
0.0585914
0.0585914
0.0585914
0.0585914
0.0585914
0.0585914
0.0585914
0.0585915
0.0585915
0.0585915
0.0585915
0.0585916
0.0585917
0.0585917
0.0585918
0.058592
)
;

boundaryField
{
    fuel
    {
        type            fixedValue;
        value           nonuniform 0();
    }
    wall
    {
        type            zeroGradient;
    }
    outlet
    {
        type            zeroGradient;
    }
    frontAndBack
    {
        type            empty;
    }
    procBoundary3to2
    {
        type            processor;
        value           nonuniform List<scalar> 
51
(
0.0587472
0.0587471
0.058747
0.0587469
0.0587469
0.0587469
0.0587469
0.0587469
0.0587469
0.0587468
0.0587469
0.0587468
0.0587468
0.0587468
0.0587468
0.0587468
0.0587468
0.0587469
0.0587468
0.0587469
0.0587468
0.0587469
0.0587469
0.0587469
0.0587469
0.058747
0.058747
0.0587472
0.0587473
0.0587475
0.0587478
0.0587481
0.0587487
0.0587493
0.0587504
0.0587514
0.0587524
0.0587541
0.0587545
0.0587394
0.058739
0.0587374
0.0587364
0.0587354
0.0587345
0.0587339
0.0587334
0.058733
0.0587328
0.0587326
0.0587326
)
;
    }
}


// ************************************************************************* //
