/*--------------------------------*- C++ -*----------------------------------*\
| =========                 |                                                 |
| \\      /  F ield         | OpenFOAM: The Open Source CFD Toolbox           |
|  \\    /   O peration     | Version:  dev                                   |
|   \\  /    A nd           | Web:      www.OpenFOAM.org                      |
|    \\/     M anipulation  |                                                 |
\*---------------------------------------------------------------------------*/
FoamFile
{
    version     2.0;
    format      ascii;
    class       volScalarField;
    location    "0.1";
    object      H2O2;
}
// * * * * * * * * * * * * * * * * * * * * * * * * * * * * * * * * * * * * * //

dimensions      [0 0 0 0 0 0 0];

internalField   nonuniform List<scalar> 
250
(
1.81552e-07
1.81535e-07
1.81522e-07
1.81523e-07
1.81529e-07
1.81528e-07
1.81565e-07
1.82161e-07
1.85324e-07
2.31696e-07
5.70218e-05
2.95366e-08
2.95359e-08
2.95333e-08
2.95325e-08
2.95418e-08
2.95251e-08
2.95667e-08
2.95996e-08
3.02453e-08
8.364e-08
0.000142918
6.56036e-09
6.56068e-09
6.56032e-09
6.55935e-09
6.56493e-09
6.55411e-09
6.58018e-09
6.56364e-09
6.88344e-09
9.58119e-08
0.000232686
2.00299e-09
2.00317e-09
2.00323e-09
2.00261e-09
2.00568e-09
1.9997e-09
2.01501e-09
1.99926e-09
2.22562e-09
9.88236e-08
0.000228992
7.89104e-10
7.89173e-10
7.8928e-10
7.88926e-10
7.90611e-10
7.87154e-10
7.96295e-10
7.85021e-10
8.84635e-10
2.02324e-08
2.22228e-05
3.85461e-10
3.85452e-10
3.85475e-10
3.8529e-10
3.86283e-10
3.83137e-10
3.89286e-10
3.80977e-10
4.14754e-10
3.12072e-09
2.46426e-06
2.2453e-10
2.24717e-10
2.2491e-10
2.24791e-10
2.24791e-10
2.25609e-10
2.28391e-10
2.23876e-10
2.42922e-10
6.87066e-10
2.86906e-07
1.56217e-10
1.56408e-10
1.56533e-10
1.56461e-10
1.56322e-10
1.56533e-10
1.58883e-10
1.55777e-10
1.66131e-10
3.02716e-10
3.63746e-08
1.22854e-10
1.22903e-10
1.23e-10
1.22951e-10
1.23301e-10
1.22869e-10
1.23555e-10
1.19967e-10
1.26484e-10
2.06039e-10
6.87785e-09
1.05127e-10
1.05255e-10
1.05371e-10
1.05312e-10
1.05805e-10
1.05267e-10
1.0594e-10
1.03347e-10
1.04474e-10
1.60813e-10
3.08703e-09
9.47739e-11
9.48847e-11
9.48241e-11
9.51097e-11
9.48044e-11
9.5225e-11
9.30833e-11
9.17641e-11
1.36315e-10
2.50879e-09
8.82611e-11
8.83744e-11
8.83037e-11
8.83848e-11
8.83081e-11
8.85834e-11
8.65939e-11
8.36074e-11
1.20126e-10
2.46385e-09
8.36886e-11
8.38063e-11
8.37299e-11
8.35912e-11
8.37494e-11
8.39384e-11
8.20058e-11
7.77155e-11
1.08935e-10
2.56356e-09
8.00942e-11
8.02162e-11
8.01488e-11
8.02482e-11
8.01731e-11
8.03108e-11
7.84007e-11
7.39045e-11
1.00365e-10
2.69829e-09
7.7001e-11
7.71252e-11
7.70802e-11
7.74153e-11
7.71008e-11
7.72107e-11
7.53077e-11
7.07386e-11
9.34823e-11
2.79836e-09
7.41553e-11
7.42793e-11
7.42587e-11
7.45272e-11
7.42781e-11
7.43779e-11
7.24758e-11
6.76227e-11
8.70172e-11
2.81673e-09
7.14124e-11
7.15325e-11
7.15299e-11
7.17553e-11
7.15644e-11
7.16646e-11
6.9765e-11
6.47479e-11
8.03147e-11
2.73073e-09
6.86781e-11
6.87923e-11
6.87996e-11
6.90304e-11
6.88718e-11
6.89788e-11
6.70877e-11
6.20058e-11
7.36368e-11
2.54794e-09
6.58742e-11
6.5992e-11
6.60044e-11
6.62806e-11
6.61388e-11
6.6256e-11
6.43808e-11
5.9841e-11
6.70776e-11
2.23581e-09
6.33137e-11
6.30763e-11
6.30911e-11
6.34516e-11
6.33164e-11
6.34436e-11
6.15858e-11
5.74647e-11
6.08747e-11
1.91893e-09
6.04446e-11
6.0394e-11
6.04063e-11
6.04957e-11
6.03608e-11
6.04906e-11
5.89782e-11
5.49687e-11
5.51113e-11
1.57314e-09
5.72775e-11
5.73737e-11
5.7235e-11
5.73567e-11
5.7228e-11
5.73343e-11
5.60426e-11
5.24292e-11
4.98373e-11
1.26084e-09
5.43076e-11
5.44198e-11
5.42682e-11
5.44176e-11
5.42834e-11
5.43899e-11
5.31896e-11
4.97948e-11
4.5108e-11
9.45079e-10
5.08521e-11
5.09729e-11
5.08275e-11
5.09893e-11
5.08673e-11
5.12067e-11
4.99576e-11
4.69938e-11
4.09485e-11
7.19518e-10
)
;

boundaryField
{
    fuel
    {
        type            fixedValue;
        value           uniform 0;
    }
    wall
    {
        type            zeroGradient;
    }
    outlet
    {
        type            zeroGradient;
    }
    frontAndBack
    {
        type            empty;
    }
    procBoundary3to0
    {
        type            processor;
        value           nonuniform List<scalar> 10(4.75076e-11 4.7632e-11 4.74953e-11 4.76706e-11 4.75513e-11 4.79091e-11 4.67691e-11 4.39519e-11 3.72469e-11 5.34965e-10);
    }
    procBoundary3to2
    {
        type            processor;
        value           nonuniform List<scalar> 
25
(
1.81538e-07
2.95363e-08
6.5608e-09
2.00328e-09
7.89263e-10
3.85518e-10
2.24749e-10
1.56419e-10
1.22899e-10
1.0521e-10
9.4649e-11
9.4649e-11
8.814e-11
8.3591e-11
8.00329e-11
7.70625e-11
7.42253e-11
7.1402e-11
6.89003e-11
6.63889e-11
6.34895e-11
6.04694e-11
5.72822e-11
5.43014e-11
5.08435e-11
)
;
    }
}


// ************************************************************************* //
