/*--------------------------------*- C++ -*----------------------------------*\
| =========                 |                                                 |
| \\      /  F ield         | OpenFOAM: The Open Source CFD Toolbox           |
|  \\    /   O peration     | Version:  dev                                   |
|   \\  /    A nd           | Web:      www.OpenFOAM.org                      |
|    \\/     M anipulation  |                                                 |
\*---------------------------------------------------------------------------*/
FoamFile
{
    version     2.0;
    format      ascii;
    class       volScalarField;
    location    "0.1";
    object      i-A1C2H2;
}
// * * * * * * * * * * * * * * * * * * * * * * * * * * * * * * * * * * * * * //

dimensions      [0 0 0 0 0 0 0];

internalField   nonuniform List<scalar> 
250
(
1.0244e-08
1.02436e-08
1.02428e-08
1.02431e-08
1.02435e-08
1.02429e-08
1.02496e-08
1.02737e-08
1.04682e-08
1.16034e-08
1.83054e-09
3.37937e-09
3.37931e-09
3.37908e-09
3.37899e-09
3.37991e-09
3.3783e-09
3.38528e-09
3.39399e-09
3.51812e-09
4.14872e-09
5.59349e-09
1.27637e-09
1.27642e-09
1.27638e-09
1.27623e-09
1.27708e-09
1.27553e-09
1.28167e-09
1.28376e-09
1.36989e-09
1.76307e-09
1.4054e-08
5.93573e-10
5.93634e-10
5.93665e-10
5.93536e-10
5.94154e-10
5.92991e-10
5.98001e-10
5.97986e-10
6.63319e-10
9.44671e-10
2.25173e-08
3.22962e-10
3.23022e-10
3.23062e-10
3.22967e-10
3.23334e-10
3.22466e-10
3.26478e-10
3.25956e-10
3.79073e-10
5.84987e-10
9.07873e-09
1.97277e-10
1.97332e-10
1.97344e-10
1.9728e-10
1.97426e-10
1.96396e-10
1.99865e-10
1.99158e-10
2.35858e-10
4.06517e-10
4.39864e-09
1.29627e-10
1.29813e-10
1.29923e-10
1.29864e-10
1.29509e-10
1.30289e-10
1.3261e-10
1.32802e-10
1.63448e-10
3.03956e-10
2.77423e-09
9.1954e-11
9.21741e-11
9.22578e-11
9.22103e-11
9.18522e-11
9.22808e-11
9.45758e-11
9.51347e-11
1.20672e-10
2.44252e-10
2.22932e-09
6.83983e-11
6.85088e-11
6.85788e-11
6.85386e-11
6.87969e-11
6.85244e-11
6.96529e-11
6.94171e-11
9.28111e-11
2.08794e-10
2.03399e-09
5.30742e-11
5.32683e-11
5.33566e-11
5.33003e-11
5.3779e-11
5.33215e-11
5.45401e-11
5.48075e-11
7.36643e-11
1.82591e-10
1.94296e-09
4.25262e-11
4.26029e-11
4.25412e-11
4.28526e-11
4.25837e-11
4.35869e-11
4.41878e-11
6.05624e-11
1.6398e-10
1.87075e-09
3.51327e-11
3.5201e-11
3.51284e-11
3.52329e-11
3.51916e-11
3.60361e-11
3.6786e-11
5.11263e-11
1.48176e-10
1.78979e-09
2.98262e-11
2.98865e-11
2.98086e-11
2.96689e-11
2.9883e-11
3.06064e-11
3.14492e-11
4.39231e-11
1.34475e-10
1.69357e-09
2.58708e-11
2.59232e-11
2.58553e-11
2.59746e-11
2.59281e-11
2.6557e-11
2.74627e-11
3.92684e-11
1.22207e-10
1.58004e-09
2.28216e-11
2.2866e-11
2.28214e-11
2.31468e-11
2.28802e-11
2.34356e-11
2.43755e-11
3.55355e-11
1.11732e-10
1.45192e-09
2.03995e-11
2.04367e-11
2.04162e-11
2.06423e-11
2.04588e-11
2.09575e-11
2.1905e-11
3.20755e-11
1.02017e-10
1.31126e-09
1.84267e-11
1.8457e-11
1.84528e-11
1.86022e-11
1.8489e-11
1.8941e-11
1.98757e-11
2.91179e-11
9.24333e-11
1.16414e-09
1.67869e-11
1.68108e-11
1.68145e-11
1.69288e-11
1.68581e-11
1.72685e-11
1.81756e-11
2.65363e-11
8.34323e-11
1.02045e-09
1.53986e-11
1.54219e-11
1.54286e-11
1.55372e-11
1.54915e-11
1.58634e-11
1.67318e-11
2.46848e-11
7.50891e-11
8.59277e-10
1.43607e-11
1.42387e-11
1.42469e-11
1.4371e-11
1.43393e-11
1.46738e-11
1.54918e-11
2.28622e-11
6.74216e-11
7.28714e-10
1.34214e-11
1.33591e-11
1.33673e-11
1.33916e-11
1.33674e-11
1.3664e-11
1.45418e-11
2.11683e-11
6.04121e-11
6.04332e-10
1.25977e-11
1.25745e-11
1.25429e-11
1.25694e-11
1.25516e-11
1.28057e-11
1.36775e-11
1.96757e-11
5.40568e-11
5.0007e-10
1.20019e-11
1.1983e-11
1.1949e-11
1.1977e-11
1.19618e-11
1.21854e-11
1.3016e-11
1.83675e-11
4.83513e-11
3.97696e-10
1.14846e-11
1.14666e-11
1.14368e-11
1.14616e-11
1.14526e-11
1.16823e-11
1.24434e-11
1.72251e-11
4.32904e-11
3.24102e-10
)
;

boundaryField
{
    fuel
    {
        type            fixedValue;
        value           uniform 0;
    }
    wall
    {
        type            zeroGradient;
    }
    outlet
    {
        type            zeroGradient;
    }
    frontAndBack
    {
        type            empty;
    }
    procBoundary3to0
    {
        type            processor;
        value           nonuniform List<scalar> 10(1.11372e-11 1.11177e-11 1.10944e-11 1.11152e-11 1.1111e-11 1.13138e-11 1.20371e-11 1.62293e-11 3.88325e-11 2.62253e-10);
    }
    procBoundary3to2
    {
        type            processor;
        value           nonuniform List<scalar> 
25
(
1.02438e-08
3.37943e-09
1.27648e-09
5.93678e-10
3.23048e-10
1.97343e-10
1.29805e-10
9.21518e-11
6.84725e-11
5.31928e-11
4.23438e-11
4.23438e-11
3.50044e-11
2.97536e-11
2.58441e-11
2.29137e-11
2.04977e-11
1.84592e-11
1.69426e-11
1.56784e-11
1.44815e-11
1.3474e-11
1.2632e-11
1.20266e-11
1.1504e-11
)
;
    }
}


// ************************************************************************* //
