/*--------------------------------*- C++ -*----------------------------------*\
| =========                 |                                                 |
| \\      /  F ield         | OpenFOAM: The Open Source CFD Toolbox           |
|  \\    /   O peration     | Version:  dev                                   |
|   \\  /    A nd           | Web:      www.OpenFOAM.org                      |
|    \\/     M anipulation  |                                                 |
\*---------------------------------------------------------------------------*/
FoamFile
{
    version     2.0;
    format      ascii;
    class       volScalarField;
    location    "0.1";
    object      N2;
}
// * * * * * * * * * * * * * * * * * * * * * * * * * * * * * * * * * * * * * //

dimensions      [0 0 0 0 0 0 0];

internalField   nonuniform List<scalar> 
1989
(
0.000254906
0.000254988
0.000255031
0.000255089
0.000255108
0.000255146
0.000255155
0.00025518
0.000255183
0.000255199
0.000255199
0.000255209
0.000255209
0.000255213
0.000255215
0.000255213
0.000255215
0.000255209
0.000255211
0.000255198
0.000255198
0.000255175
0.00025517
0.000255134
0.000255116
0.00025506
0.000255019
0.000254937
0.000254843
0.0002547
0.000254487
0.00025425
0.00025382
0.000253379
0.000252509
0.000251543
0.000250416
0.000248402
0.000247133
0.000258088
0.000259409
0.000261517
0.000262671
0.00026365
0.000264537
0.000264989
0.000265429
0.000265668
0.000265888
0.000266032
0.000266076
0.000266158
0.000266202
0.000266261
0.00026628
0.000266319
0.000266328
0.000266353
0.000266356
0.000266372
0.000266373
0.000266383
0.000266383
0.000266388
0.000266389
0.000266387
0.000266389
0.000266383
0.000266385
0.000266371
0.000266371
0.000266348
0.000266342
0.000266306
0.000266288
0.000266231
0.000266189
0.000266106
0.00026601
0.000265864
0.000265646
0.000265408
0.000264969
0.000264517
0.000263631
0.000262652
0.0002615
0.000259393
0.000258073
0.000269392
0.000270764
0.000272967
0.000274145
0.000275136
0.000276037
0.000276501
0.000276948
0.000277188
0.000277411
0.000277556
0.000277606
0.00027769
0.000277734
0.000277794
0.000277814
0.000277854
0.000277862
0.000277888
0.000277891
0.000277907
0.000277908
0.000277918
0.000277919
0.000277923
0.000277924
0.000277922
0.000277924
0.000277918
0.00027792
0.000277906
0.000277906
0.000277882
0.000277876
0.000277839
0.000277821
0.000277763
0.000277721
0.000277636
0.000277539
0.000277389
0.000277167
0.000276928
0.000276481
0.000276018
0.000275117
0.000274127
0.000272949
0.000270749
0.000269377
0.000281181
0.000282613
0.000284928
0.000286139
0.000287148
0.000288071
0.000288541
0.000289003
0.000289245
0.000289473
0.00028962
0.000289676
0.000289762
0.000289806
0.000289868
0.000289888
0.000289929
0.000289937
0.000289964
0.000289967
0.000289983
0.000289984
0.000289994
0.000289995
0.00029
0.000290001
0.000289999
0.000290001
0.000289994
0.000289996
0.000289981
0.000289981
0.000289957
0.000289951
0.000289913
0.000289895
0.000289835
0.000289792
0.000289706
0.000289607
0.000289453
0.000289226
0.000288983
0.000288522
0.000288052
0.000287129
0.000286121
0.000284911
0.000282597
0.000281166
0.000293515
0.000294991
0.000297135
0.00029836
0.000299379
0.000300321
0.000300789
0.000301264
0.000301506
0.000301737
0.000301886
0.000301947
0.000302034
0.000302079
0.000302142
0.000302162
0.000302204
0.000302212
0.000302239
0.000302242
0.000302259
0.00030226
0.00030227
0.000302271
0.000302276
0.000302277
0.000302275
0.000302277
0.000302269
0.000302271
0.000302257
0.000302257
0.000302232
0.000302226
0.000302187
0.000302169
0.000302108
0.000302065
0.000301977
0.000301878
0.000301719
0.000301488
0.000301245
0.000300771
0.000300302
0.000299361
0.000298343
0.000297118
0.000294976
0.000293501
0.000305956
0.000307482
0.000309738
0.000311031
0.000312093
0.000313073
0.000313551
0.000314048
0.000314296
0.000314534
0.000314689
0.000314756
0.000314846
0.000314892
0.000314957
0.000314977
0.00031502
0.000315029
0.000315057
0.00031506
0.000315078
0.000315078
0.000315089
0.00031509
0.000315095
0.000315096
0.000315094
0.000315096
0.000315088
0.00031509
0.000315075
0.000315074
0.000315049
0.000315043
0.000315003
0.000314984
0.000314921
0.000314876
0.000314786
0.000314685
0.000314518
0.00031428
0.000314031
0.000313534
0.000313056
0.000312076
0.000311014
0.000309722
0.000307467
0.000305942
0.000318776
0.000320362
0.000322678
0.000324005
0.000325078
0.000326073
0.000326549
0.000327059
0.000327307
0.000327548
0.000327705
0.000327776
0.000327867
0.000327914
0.00032798
0.000328001
0.000328044
0.000328053
0.000328081
0.000328084
0.000328102
0.000328103
0.000328114
0.000328115
0.00032812
0.000328122
0.000328119
0.000328121
0.000328113
0.000328115
0.000328099
0.000328099
0.000328073
0.000328067
0.000328026
0.000328008
0.000327943
0.000327898
0.000327806
0.000327705
0.000327533
0.000327292
0.000327043
0.000326533
0.000326057
0.000325061
0.000323989
0.000322662
0.000320348
0.000318762
0.000331975
0.000333635
0.000335983
0.000337358
0.000338435
0.000339448
0.00033992
0.000340443
0.00034069
0.000340933
0.000341095
0.000341168
0.000341261
0.000341309
0.000341376
0.000341396
0.000341441
0.000341449
0.000341478
0.000341481
0.000341499
0.0003415
0.000341512
0.000341513
0.000341518
0.000341519
0.000341516
0.000341518
0.00034151
0.000341512
0.000341495
0.000341496
0.000341469
0.000341463
0.000341421
0.000341403
0.000341337
0.000341291
0.000341198
0.000341098
0.000340921
0.000340677
0.000340429
0.000339906
0.000339433
0.000338419
0.000337342
0.000335969
0.000333621
0.000331962
0.000345625
0.000347357
0.00034976
0.000351209
0.000352305
0.000353348
0.000353823
0.000354365
0.000354615
0.000354865
0.000355032
0.000355109
0.000355205
0.000355253
0.000355323
0.000355343
0.000355389
0.000355396
0.000355426
0.000355429
0.000355448
0.000355449
0.000355461
0.000355462
0.000355467
0.000355468
0.000355466
0.000355467
0.000355458
0.00035546
0.000355444
0.000355444
0.000355417
0.000355411
0.000355368
0.00035535
0.000355282
0.000355235
0.000355138
0.000355038
0.000354856
0.000354604
0.000354353
0.00035381
0.000353334
0.00035229
0.000351195
0.000349746
0.000347344
0.000345613
0.000359901
0.000361688
0.000364093
0.000365598
0.000366696
0.000367747
0.00036822
0.00036877
0.000369019
0.000369271
0.00036944
0.00036952
0.000369617
0.000369666
0.000369736
0.000369757
0.000369803
0.000369811
0.000369841
0.000369844
0.000369863
0.000369864
0.000369876
0.000369877
0.000369883
0.000369884
0.000369881
0.000369883
0.000369874
0.000369876
0.000369859
0.000369859
0.000369831
0.000369826
0.000369782
0.000369764
0.000369695
0.000369647
0.000369549
0.000369449
0.000369264
0.00036901
0.00036876
0.000368208
0.000367735
0.000366683
0.000365585
0.000364079
0.000361676
0.000359889
0.000374555
0.000376394
0.0003788
0.000380093
0.000381194
0.000382258
0.000382724
0.000383287
0.000383533
0.000383788
0.00038396
0.000384042
0.00038414
0.00038419
0.000384262
0.000384282
0.000384329
0.000384337
0.000384368
0.00038437
0.00038439
0.000384391
0.000384403
0.000384404
0.00038441
0.000384411
0.000384408
0.00038441
0.0003844
0.000384402
0.000384385
0.000384385
0.000384357
0.000384352
0.000384308
0.000384289
0.000384219
0.000384171
0.000384071
0.00038397
0.000383784
0.000383526
0.000383278
0.000382713
0.000382246
0.000381181
0.000380081
0.000378788
0.000376382
0.000374544
0.000389314
0.000391202
0.000393627
0.000394958
0.00039606
0.000397136
0.000397594
0.000398169
0.000398412
0.00039867
0.000398845
0.000398931
0.000399034
0.000399087
0.000399162
0.000399184
0.000399233
0.000399241
0.000399273
0.000399276
0.000399296
0.000399297
0.00039931
0.000399311
0.000399317
0.000399319
0.000399315
0.000399317
0.000399307
0.000399309
0.000399291
0.000399291
0.000399261
0.000399256
0.000399209
0.00039919
0.000399115
0.000399064
0.00039896
0.000398857
0.000398669
0.000398408
0.000398161
0.000397585
0.000397125
0.000396049
0.000394946
0.000393615
0.000391191
0.000389303
0.000404591
0.000406564
0.000409054
0.000410432
0.000411552
0.00041263
0.000413082
0.000413665
0.000413906
0.000414166
0.000414343
0.00041443
0.000414534
0.000414588
0.000414666
0.000414687
0.000414737
0.000414745
0.000414777
0.00041478
0.000414801
0.000414802
0.000414815
0.000414816
0.000414822
0.000414824
0.00041482
0.000414822
0.000414812
0.000414813
0.000414795
0.000414795
0.000414765
0.00041476
0.000414713
0.000414693
0.000414617
0.000414565
0.000414459
0.000414356
0.000414168
0.000413904
0.000413659
0.000413074
0.000412621
0.000411542
0.000410422
0.000409044
0.000406554
0.000404581
0.000420379
0.000422412
0.000424894
0.000426301
0.000427426
0.000428502
0.000428947
0.000429538
0.000429776
0.000430038
0.000430216
0.000430305
0.00043041
0.000430465
0.000430544
0.000430566
0.000430616
0.000430624
0.000430657
0.00043066
0.000430681
0.000430682
0.000430695
0.000430697
0.000430703
0.000430704
0.000430701
0.000430702
0.000430692
0.000430694
0.000430675
0.000430675
0.000430645
0.000430639
0.000430592
0.000430572
0.000430494
0.000430441
0.000430335
0.000430231
0.000430043
0.000429776
0.000429534
0.000428941
0.000428495
0.000427417
0.000426292
0.000424884
0.000422403
0.000420371
0.000436256
0.000438359
0.000440819
0.000442266
0.000443385
0.00044447
0.000444904
0.000445505
0.00044574
0.000446006
0.000446181
0.000446274
0.00044638
0.000446436
0.000446517
0.000446539
0.00044659
0.000446598
0.000446631
0.000446634
0.000446655
0.000446656
0.00044667
0.000446671
0.000446677
0.000446679
0.000446675
0.000446677
0.000446666
0.000446668
0.000446649
0.000446649
0.000446618
0.000446613
0.000446565
0.000446544
0.000446465
0.000446411
0.000446304
0.000446199
0.000446012
0.000445741
0.000445503
0.0004449
0.000444464
0.000443377
0.000442258
0.00044081
0.000438351
0.000436248
0.000452507
0.000454645
0.000457083
0.00045858
0.000459693
0.00046082
0.000461252
0.000461876
0.000462111
0.000462385
0.000462564
0.000462661
0.00046277
0.000462827
0.000462911
0.000462934
0.000462986
0.000462994
0.000463028
0.000463031
0.000463053
0.000463054
0.000463068
0.000463069
0.000463076
0.000463077
0.000463073
0.000463075
0.000463064
0.000463066
0.000463046
0.000463046
0.000463015
0.000463009
0.00046296
0.000462939
0.000462856
0.0004628
0.000462691
0.000462583
0.000462394
0.000462115
0.000461875
0.000461249
0.000460815
0.000459687
0.000458573
0.000457076
0.000454637
0.0004525
0.000469098
0.00047127
0.000473686
0.000475224
0.000476318
0.000477458
0.000477877
0.00047851
0.000478741
0.000479017
0.000479197
0.000479295
0.000479405
0.000479463
0.00047955
0.000479574
0.000479626
0.000479634
0.000479669
0.000479671
0.000479693
0.000479694
0.000479708
0.00047971
0.000479717
0.000479718
0.000479714
0.000479715
0.000479704
0.000479706
0.000479686
0.000479687
0.000479655
0.000479649
0.000479599
0.000479577
0.000479492
0.000479435
0.000479325
0.000479217
0.000479028
0.000478747
0.000478512
0.000477876
0.000477455
0.000476313
0.000475218
0.00047368
0.000471264
0.000469092
0.000486017
0.000488224
0.000490614
0.000492186
0.000493261
0.00049441
0.000494815
0.000495458
0.000495684
0.000495962
0.000496143
0.000496242
0.000496352
0.00049641
0.0004965
0.000496525
0.000496578
0.000496587
0.000496621
0.000496624
0.000496646
0.000496647
0.000496661
0.000496663
0.00049667
0.000496671
0.000496667
0.000496669
0.000496657
0.000496659
0.000496639
0.000496639
0.000496607
0.000496601
0.000496551
0.000496527
0.00049644
0.000496383
0.000496273
0.000496165
0.000495974
0.000495692
0.000495462
0.000494816
0.000494409
0.000493258
0.000492181
0.00049061
0.000488219
0.000486012
0.000503286
0.000505568
0.000507969
0.000509587
0.000510658
0.000511824
0.000512219
0.000512877
0.0005131
0.00051338
0.000513566
0.000513666
0.000513776
0.000513835
0.000513928
0.000513956
0.00051401
0.000514019
0.000514054
0.000514056
0.000514079
0.00051408
0.000514094
0.000514096
0.000514103
0.000514105
0.0005141
0.000514102
0.00051409
0.000514092
0.000514072
0.000514072
0.000514039
0.000514033
0.000513982
0.000513955
0.000513865
0.000513807
0.000513697
0.000513589
0.000513395
0.00051311
0.000512882
0.000512221
0.000511824
0.000510656
0.000509584
0.000507966
0.000505564
0.000503283
0.000520813
0.000523134
0.000525503
0.000527141
0.000528194
0.000529365
0.000529742
0.000530409
0.000530627
0.000530907
0.000531095
0.000531195
0.000531305
0.000531364
0.000531459
0.000531491
0.000531545
0.000531554
0.000531589
0.000531592
0.000531615
0.000531616
0.00053163
0.000531632
0.000531639
0.000531641
0.000531637
0.000531638
0.000531626
0.000531628
0.000531607
0.000531608
0.000531575
0.000531568
0.000531517
0.000531486
0.000531394
0.000531336
0.000531226
0.000531119
0.000530924
0.000530639
0.000530417
0.000529746
0.000529366
0.000528194
0.000527139
0.000525501
0.000523131
0.000520811
0.000538612
0.000540976
0.000543307
0.000544959
0.000545993
0.000547166
0.000547523
0.000548201
0.000548412
0.000548693
0.000548881
0.000548982
0.000549091
0.00054915
0.000549247
0.000549284
0.000549338
0.000549347
0.000549383
0.000549386
0.000549408
0.00054941
0.000549424
0.000549426
0.000549434
0.000549435
0.000549431
0.000549432
0.00054942
0.000549421
0.000549401
0.000549401
0.000549368
0.000549361
0.000549309
0.000549274
0.00054918
0.000549122
0.000549014
0.000548906
0.000548712
0.000548426
0.00054821
0.000547529
0.00054717
0.000545995
0.000544959
0.000543306
0.000540975
0.000538611
0.000556658
0.000559072
0.000561357
0.000563016
0.000564032
0.000565205
0.000565539
0.000566227
0.000566432
0.000566714
0.0005669
0.000567003
0.00056711
0.000567169
0.000567265
0.00056731
0.000567365
0.000567375
0.00056741
0.000567413
0.000567436
0.000567437
0.000567452
0.000567454
0.000567462
0.000567463
0.000567459
0.00056746
0.000567448
0.000567449
0.000567429
0.000567429
0.000567396
0.000567388
0.000567336
0.000567292
0.000567199
0.000567141
0.000567035
0.000566926
0.000566734
0.000566447
0.000566238
0.000565547
0.00056521
0.000564035
0.000563017
0.000561357
0.000559071
0.000556659
0.000574935
0.000577385
0.000579622
0.000581285
0.000582284
0.000583454
0.000583763
0.000584461
0.000584658
0.000584941
0.000585124
0.00058523
0.000585335
0.000585393
0.000585488
0.000585543
0.000585598
0.000585608
0.000585644
0.000585648
0.000585671
0.000585672
0.000585687
0.000585689
0.000585696
0.000585698
0.000585693
0.000585694
0.000585682
0.000585684
0.000585664
0.000585663
0.000585629
0.000585622
0.000585569
0.000585515
0.000585423
0.000585366
0.000585262
0.000585152
0.000584963
0.000584675
0.000584474
0.000583772
0.000583461
0.000582288
0.000581288
0.000579624
0.000577386
0.000574937
0.00059344
0.000595867
0.000598075
0.000599734
0.000600736
0.000601882
0.0006023
0.000603038
0.000603235
0.000603521
0.000603703
0.000603812
0.000603915
0.000603972
0.000604064
0.000604135
0.00060419
0.000604201
0.000604237
0.000604241
0.000604264
0.000604265
0.00060428
0.000604283
0.00060429
0.000604292
0.000604287
0.000604288
0.000604276
0.000604277
0.000604257
0.000604256
0.000604222
0.000604214
0.000604161
0.000604092
0.000604002
0.000603947
0.000603845
0.000603731
0.000603544
0.000603254
0.000603053
0.000602312
0.00060189
0.000600742
0.000599739
0.000598078
0.000595869
0.000593442
0.000612087
0.000614507
0.000616678
0.000618327
0.000619313
0.000620449
0.000620843
0.000621595
0.000621783
0.00062207
0.000622248
0.00062236
0.00062246
0.000622515
0.000622601
0.00062269
0.000622745
0.000622757
0.000622793
0.000622798
0.00062282
0.000622822
0.000622837
0.000622839
0.000622847
0.000622848
0.000622844
0.000622844
0.000622832
0.000622834
0.000622814
0.000622812
0.000622778
0.000622769
0.000622716
0.000622629
0.000622546
0.000622492
0.000622393
0.000622277
0.000622095
0.000621804
0.000621612
0.000620856
0.000620459
0.000619322
0.000618333
0.000616683
0.000614511
0.000612091
0.000630849
0.000633266
0.000635399
0.000637074
0.000638072
0.000639212
0.000639591
0.000640375
0.000640558
0.000640848
0.000641025
0.000641139
0.000641238
0.000641292
0.000641371
0.000641343
0.000641398
0.000641411
0.000641447
0.000641453
0.000641475
0.000641477
0.000641491
0.000641494
0.000641502
0.000641503
0.000641499
0.000641499
0.000641487
0.000641488
0.000641469
0.000641466
0.000641432
0.000641422
0.00064137
0.0006414
0.000641323
0.000641271
0.000641172
0.000641054
0.000640874
0.00064058
0.000640393
0.000639606
0.000639224
0.000638082
0.000637082
0.000635405
0.000633271
0.000630854
0.000649916
0.000652353
0.000654441
0.000656082
0.000657079
0.000658188
0.000658545
0.000659087
0.000659262
0.000659551
0.000659723
0.00065984
0.000659937
0.000659989
0.00066006
0.000660048
0.000660103
0.000660116
0.000660152
0.000660159
0.000660181
0.000660183
0.000660198
0.0006602
0.000660208
0.00066021
0.000660205
0.000660206
0.000660194
0.000660195
0.000660175
0.000660171
0.000660137
0.000660127
0.000660074
0.00066009
0.00066002
0.00065997
0.000659873
0.000659754
0.000659578
0.000659286
0.000659108
0.000658562
0.000658202
0.00065709
0.000656092
0.00065445
0.000652359
0.000649924
0.000669079
0.000671488
0.000673521
0.000675107
0.000675832
0.000676917
0.000677248
0.000677797
0.000677964
0.00067825
0.000678417
0.000678538
0.000678633
0.000678683
0.000678748
0.000678749
0.000678804
0.000678818
0.000678855
0.000678862
0.000678889
0.000678896
0.000678913
0.000678918
0.000678927
0.000678929
0.000678923
0.000678921
0.000678907
0.000678902
0.000678879
0.000678874
0.00067884
0.000678828
0.000678776
0.000678778
0.000678714
0.000678666
0.000678572
0.000678448
0.000678278
0.00067799
0.000677819
0.000677267
0.000676933
0.000675845
0.000675118
0.000673531
0.000671496
0.000669089
0.000687921
0.000690296
0.000692259
0.000693818
0.000694524
0.000695581
0.00069589
0.000696441
0.000696601
0.000696882
0.000697042
0.000697171
0.000697264
0.000697313
0.000697374
0.000697386
0.00069744
0.000697455
0.000697492
0.000697501
0.000697527
0.000697535
0.000697552
0.000697557
0.000697566
0.000697568
0.000697562
0.00069756
0.000697546
0.000697541
0.000697517
0.000697511
0.000697477
0.000697464
0.000697413
0.000697404
0.000697344
0.000697297
0.000697205
0.000697074
0.000696912
0.000696629
0.000696465
0.000695911
0.000695599
0.000694539
0.000693831
0.00069227
0.000690305
0.000687933
0.000706637
0.000708984
0.000710871
0.0007124
0.000713082
0.000714108
0.000714399
0.000714948
0.000715103
0.000715375
0.000715525
0.000715667
0.000715757
0.000715805
0.000715865
0.000715885
0.000715939
0.000715955
0.000715991
0.000716002
0.000716028
0.000716036
0.000716053
0.000716059
0.000716067
0.000716069
0.000716064
0.000716061
0.000716047
0.000716042
0.000716018
0.000716011
0.000715977
0.000715963
0.000715913
0.000715895
0.000715837
0.000715791
0.000715702
0.000715558
0.000715406
0.000715132
0.000714973
0.000714422
0.000714128
0.0007131
0.000712415
0.000710884
0.000708994
0.000706651
0.000725172
0.000727438
0.000729271
0.000730768
0.000731423
0.000732414
0.00073269
0.000733232
0.000733384
0.000733643
0.00073378
0.000733941
0.000734028
0.000734077
0.000734136
0.000734163
0.000734216
0.000734233
0.000734269
0.00073428
0.000734306
0.000734314
0.000734331
0.000734337
0.000734346
0.000734348
0.000734342
0.000734339
0.000734325
0.00073432
0.000734297
0.000734288
0.000734255
0.00073424
0.00073419
0.000734167
0.000734109
0.000734063
0.000733976
0.000733814
0.000733676
0.000733414
0.000733259
0.000732714
0.000732435
0.000731442
0.000730784
0.000729286
0.000727451
0.000725186
0.000743394
0.00074571
0.000747359
0.000748821
0.000749566
0.000750513
0.000750783
0.000751309
0.000751461
0.000751706
0.000751825
0.000751893
0.000751978
0.000752027
0.000752087
0.000752118
0.00075217
0.000752189
0.000752224
0.000752236
0.000752261
0.00075227
0.000752287
0.000752293
0.000752302
0.000752304
0.000752298
0.000752295
0.000752281
0.000752275
0.000752253
0.000752243
0.000752211
0.000752195
0.000752146
0.000752117
0.000752059
0.000752012
0.000751929
0.000751861
0.000751739
0.000751492
0.000751338
0.000750809
0.000750536
0.000749586
0.000748839
0.000747376
0.000745725
0.00074341
0.000761335
0.000763439
0.000765014
0.000766433
0.000767154
0.00076806
0.000768323
0.000768832
0.000768984
0.000769214
0.000769318
0.000769403
0.000769486
0.000769537
0.000769597
0.000769631
0.000769682
0.000769702
0.000769736
0.00076975
0.000769774
0.000769783
0.0007698
0.000769806
0.000769815
0.000769817
0.000769811
0.000769808
0.000769794
0.000769788
0.000769766
0.000769756
0.000769724
0.000769707
0.000769659
0.000769628
0.000769569
0.000769521
0.00076944
0.000769356
0.000769249
0.000769017
0.000768862
0.00076835
0.000768085
0.000767176
0.000766454
0.000765032
0.000763455
0.000761353
0.000778541
0.000780597
0.000782092
0.000783459
0.000784159
0.000785019
0.000785279
0.000785799
0.00078592
0.00078617
0.000786266
0.000786362
0.000786443
0.000786495
0.000786557
0.000786594
0.000786643
0.000786664
0.000786698
0.000786712
0.000786735
0.000786745
0.000786762
0.000786768
0.000786777
0.000786779
0.000786774
0.00078677
0.000786757
0.00078675
0.000786729
0.000786718
0.000786687
0.000786668
0.000786622
0.000786587
0.000786528
0.000786478
0.000786399
0.000786304
0.000786206
0.000785954
0.000785831
0.000785308
0.000785046
0.000784183
0.000783481
0.000782113
0.000780614
0.000778562
0.000794979
0.000796999
0.000798401
0.000799714
0.000800394
0.000801208
0.000801467
0.000801965
0.000802086
0.000802324
0.000802415
0.000802518
0.000802596
0.00080265
0.000802713
0.000802752
0.000802799
0.000802821
0.000802854
0.000802869
0.000802891
0.000802902
0.000802918
0.000802925
0.000802934
0.000802936
0.00080293
0.000802926
0.000802913
0.000802906
0.000802886
0.000802874
0.000802844
0.000802825
0.000802781
0.000802743
0.000802683
0.000802631
0.000802555
0.000802454
0.000802361
0.000802122
0.000801998
0.000801498
0.000801236
0.00080042
0.000799738
0.000798423
0.000797019
0.000795
0.000810403
0.000812413
0.00081371
0.000814964
0.000815626
0.000816394
0.000816655
0.000817127
0.000817251
0.000817476
0.000817567
0.000817671
0.000817746
0.000817803
0.000817868
0.000817908
0.000817953
0.000817976
0.000818007
0.000818023
0.000818044
0.000818055
0.000818071
0.000818078
0.000818087
0.000818089
0.000818084
0.00081808
0.000818067
0.000818059
0.00081804
0.000818027
0.000817999
0.000817978
0.000817937
0.000817899
0.000817836
0.000817782
0.000817709
0.000817606
0.000817514
0.000817287
0.000817161
0.000816687
0.000816423
0.000815654
0.00081499
0.000813733
0.000812436
0.000810426
0.000824542
0.000826476
0.000827709
0.000828909
0.000829558
0.000830281
0.000830548
0.000830994
0.000831122
0.000831336
0.000831428
0.000831532
0.000831606
0.000831664
0.000831717
0.000831751
0.000831792
0.000831816
0.000831846
0.000831863
0.000831884
0.000831895
0.00083191
0.000831918
0.000831927
0.000831929
0.000831923
0.000831919
0.000831907
0.000831898
0.00083188
0.000831867
0.00083184
0.000831818
0.00083178
0.000831748
0.000831697
0.000831642
0.00083157
0.000831467
0.000831375
0.00083116
0.00083103
0.000830582
0.000830313
0.000829587
0.000828935
0.000827734
0.000826503
0.000824566
0.000836895
0.000838794
0.000839944
0.000841082
0.000841719
0.000842398
0.000842672
0.00084309
0.000843222
0.000843426
0.000843518
0.000843621
0.000843693
0.000843753
0.000843807
0.000843842
0.00084388
0.000843905
0.000843934
0.000843951
0.000843971
0.000843982
0.000843998
0.000844005
0.000844014
0.000844016
0.000844011
0.000844006
0.000843994
0.000843986
0.000843968
0.000843954
0.000843928
0.000843906
0.000843871
0.000843839
0.000843787
0.00084373
0.00084366
0.000843558
0.000843465
0.000843261
0.000843128
0.000842707
0.000842431
0.000841749
0.00084111
0.000839971
0.000838825
0.000836919
0.000846782
0.000848692
0.000849757
0.000850836
0.000851464
0.000852089
0.000852371
0.000852764
0.000852899
0.000853094
0.000853188
0.00085329
0.000853361
0.000853421
0.000853475
0.000853511
0.000853547
0.000853572
0.0008536
0.000853617
0.000853637
0.000853649
0.000853663
0.000853671
0.00085368
0.000853682
0.000853677
0.000853672
0.000853661
0.000853651
0.000853635
0.000853621
0.000853596
0.000853573
0.00085354
0.000853507
0.000853455
0.000853398
0.000853329
0.000853228
0.000853134
0.000852939
0.000852802
0.000852407
0.000852123
0.000851496
0.000850866
0.000849785
0.000848729
0.000846797
0.000852977
0.000854988
0.00085594
0.000856976
0.000857599
0.000858195
0.000858483
0.000858857
0.000858996
0.000859183
0.000859278
0.000859379
0.000859449
0.00085951
0.000859564
0.000859601
0.000859635
0.000859661
0.000859688
0.000859705
0.000859724
0.000859736
0.000859751
0.000859759
0.000859768
0.00085977
0.000859765
0.00085976
0.000859748
0.000859739
0.000859723
0.000859709
0.000859684
0.000859662
0.00085963
0.000859596
0.000859545
0.000859487
0.000859419
0.000859319
0.000859225
0.000859036
0.000858896
0.00085852
0.00085823
0.000857632
0.000857007
0.000855969
0.000855019
0.000852999
)
;

boundaryField
{
    fuel
    {
        type            fixedValue;
        value           nonuniform 0();
    }
    wall
    {
        type            zeroGradient;
    }
    outlet
    {
        type            zeroGradient;
    }
    frontAndBack
    {
        type            empty;
    }
    procBoundary3to2
    {
        type            processor;
        value           nonuniform List<scalar> 
51
(
0.000244042
0.000244123
0.000244165
0.000244222
0.000244241
0.000244279
0.000244288
0.000244312
0.000244315
0.000244331
0.000244331
0.00024434
0.000244341
0.000244345
0.000244346
0.000244345
0.000244347
0.000244341
0.000244343
0.000244331
0.00024433
0.000244308
0.000244303
0.000244268
0.00024425
0.000244196
0.000244155
0.000244075
0.000243983
0.000243843
0.000243634
0.0002434
0.000242978
0.00024255
0.000241695
0.000240742
0.000239645
0.000237719
0.000236503
0.000247094
0.000248364
0.000250379
0.000251507
0.000252474
0.000253345
0.000253786
0.000254218
0.000254455
0.000254672
0.000254815
0.000254815
)
;
    }
}


// ************************************************************************* //
