/*--------------------------------*- C++ -*----------------------------------*\
| =========                 |                                                 |
| \\      /  F ield         | OpenFOAM: The Open Source CFD Toolbox           |
|  \\    /   O peration     | Version:  dev                                   |
|   \\  /    A nd           | Web:      www.OpenFOAM.org                      |
|    \\/     M anipulation  |                                                 |
\*---------------------------------------------------------------------------*/
FoamFile
{
    version     2.0;
    format      ascii;
    class       surfaceScalarField;
    location    "0.1";
    object      phi;
}
// * * * * * * * * * * * * * * * * * * * * * * * * * * * * * * * * * * * * * //

dimensions      [1 0 -1 0 0 0 0];

internalField   nonuniform List<scalar> 
465
(
1.73072e-09
8.17757e-06
1.6357e-08
8.16931e-06
2.08138e-08
8.17796e-06
3.65819e-08
8.16899e-06
4.17782e-08
8.17997e-06
5.60085e-08
8.16937e-06
6.40003e-08
8.17578e-06
7.00021e-08
8.17852e-06
7.98886e-08
8.17592e-06
1.97171e-07
8.08916e-06
7.85557e-06
3.63248e-09
8.16559e-06
2.36844e-08
8.15053e-06
3.57131e-08
8.16692e-06
5.60524e-08
8.15e-06
6.8763e-08
8.16873e-06
8.76984e-08
8.15166e-06
1.03393e-07
8.16122e-06
1.09782e-07
8.17342e-06
1.24318e-07
8.16366e-06
1.47921e-07
8.08785e-06
7.43894e-06
5.82518e-09
8.14643e-06
3.12804e-08
8.12663e-06
5.12866e-08
8.14843e-06
7.64529e-08
8.12641e-06
9.62759e-08
8.15051e-06
1.20639e-07
8.12886e-06
1.43566e-07
8.1398e-06
1.50322e-07
8.16816e-06
1.65945e-07
8.15052e-06
6.39751e-08
8.21636e-06
7.14641e-06
7.85944e-09
8.1209e-06
3.80101e-08
8.09822e-06
6.4581e-08
8.12364e-06
9.5977e-08
8.09678e-06
1.23857e-07
8.12441e-06
1.53821e-07
8.10066e-06
1.83801e-07
8.11157e-06
1.90752e-07
8.16287e-06
2.07131e-07
8.13687e-06
2.40597e-08
8.43071e-06
7.07483e-06
1.03129e-08
8.08807e-06
4.59504e-08
8.06437e-06
7.94676e-08
8.09201e-06
1.16631e-07
8.06146e-06
1.51317e-07
8.09155e-06
1.86724e-07
8.06711e-06
2.2354e-07
8.07662e-06
2.30788e-07
8.15736e-06
2.48855e-07
8.12157e-06
1.78646e-08
8.69653e-06
7.24366e-06
1.29923e-08
8.04773e-06
5.37641e-08
8.02526e-06
9.43959e-08
8.05316e-06
1.37e-07
8.02038e-06
1.78417e-07
8.0515e-06
2.19148e-07
8.02795e-06
2.62569e-07
8.03489e-06
2.70514e-07
8.1507e-06
2.91289e-07
8.1033e-06
3.91214e-08
8.98506e-06
7.6226e-06
1.57175e-08
8.00096e-06
6.15989e-08
7.98081e-06
1.09096e-07
8.0084e-06
1.57167e-07
7.97365e-06
2.05104e-07
8.00434e-06
2.51059e-07
7.98336e-06
3.00871e-07
7.98658e-06
3.10153e-07
8.14237e-06
3.346e-07
8.08081e-06
8.72701e-08
9.2685e-06
8.10795e-06
1.83295e-08
7.94371e-06
6.93847e-08
7.93047e-06
1.23474e-07
7.9537e-06
1.77069e-07
7.92079e-06
2.31328e-07
7.95127e-06
2.82443e-07
7.93293e-06
3.38498e-07
7.93098e-06
3.49937e-07
8.13141e-06
3.79004e-07
8.05294e-06
1.6228e-07
9.51856e-06
8.55515e-06
2.06925e-08
7.88027e-06
7.7007e-08
7.87446e-06
1.37487e-07
7.89329e-06
1.96677e-07
7.86198e-06
2.57079e-07
7.89138e-06
3.13332e-07
7.87697e-06
3.7552e-07
7.86888e-06
3.90026e-07
8.11699e-06
4.24575e-07
8.01857e-06
2.5305e-07
9.71858e-06
8.83676e-06
2.26548e-08
8.43707e-08
7.81268e-06
1.51049e-07
7.82651e-06
2.15918e-07
7.79712e-06
2.82303e-07
7.8249e-06
3.43724e-07
7.81549e-06
4.12003e-07
7.8004e-06
4.30505e-07
8.09814e-06
4.71202e-07
7.97698e-06
3.40692e-07
9.87141e-06
8.99341e-06
9.13842e-08
7.74484e-06
1.64095e-07
7.75323e-06
2.34717e-07
7.72601e-06
3.06943e-07
7.75214e-06
3.73597e-07
7.74827e-06
4.47947e-07
7.72537e-06
4.71352e-07
8.07373e-06
5.18753e-07
7.9277e-06
4.24691e-07
9.98091e-06
9.06706e-06
9.79885e-08
7.67104e-06
1.76594e-07
7.67381e-06
2.53026e-07
7.6488e-06
3.3096e-07
7.67344e-06
4.02939e-07
7.67549e-06
4.83339e-07
7.64406e-06
5.12483e-07
8.04327e-06
5.67071e-07
7.86995e-06
5.07749e-07
1.00484e-05
9.07929e-06
1.04164e-07
7.59132e-06
1.88551e-07
7.58849e-06
2.70826e-07
7.5656e-06
3.54345e-07
7.58903e-06
4.31759e-07
7.59716e-06
5.18195e-07
7.55661e-06
5.53819e-07
8.00615e-06
6.15972e-07
7.80423e-06
5.89397e-07
1.00751e-05
9.04125e-06
1.09923e-07
7.50568e-06
2.00003e-07
7.49747e-06
2.88126e-07
7.47653e-06
3.77114e-07
7.49914e-06
4.60079e-07
7.51328e-06
5.52525e-07
7.46315e-06
5.95277e-07
7.96185e-06
6.65177e-07
7.72986e-06
6.68714e-07
1.00596e-05
8.9626e-06
1.1531e-07
7.41418e-06
2.11003e-07
7.40091e-06
3.04954e-07
7.38173e-06
3.99311e-07
7.40394e-06
4.87942e-07
7.42381e-06
5.8635e-07
7.3638e-06
6.36783e-07
7.90992e-06
7.14541e-07
7.64713e-06
7.45345e-07
1.00213e-05
8.8527e-06
1.20384e-07
7.31684e-06
2.21624e-07
7.29891e-06
3.21363e-07
7.28126e-06
4.21005e-07
7.30357e-06
5.15405e-07
7.32871e-06
6.19698e-07
7.25868e-06
6.78292e-07
7.84994e-06
7.64168e-07
7.55599e-06
8.19238e-07
9.95196e-06
8.71933e-06
1.25215e-07
7.21367e-06
2.31945e-07
7.19156e-06
3.37419e-07
7.17521e-06
4.42281e-07
7.19809e-06
5.42535e-07
7.22789e-06
6.52578e-07
7.14794e-06
7.19782e-07
7.78149e-06
8.13886e-07
7.45648e-06
8.904e-07
9.85638e-06
8.56872e-06
1.29879e-07
7.10472e-06
2.42045e-07
7.07891e-06
3.53191e-07
7.06363e-06
4.63229e-07
7.08755e-06
5.694e-07
7.12129e-06
6.84937e-07
7.03183e-06
7.61252e-07
7.70409e-06
8.6375e-07
7.34857e-06
9.59038e-07
9.73944e-06
8.4057e-06
1.34443e-07
6.99002e-06
2.51996e-07
6.96098e-06
3.68745e-07
6.94658e-06
4.83933e-07
6.97195e-06
5.9606e-07
7.00886e-06
7.16859e-07
6.91055e-06
8.02686e-07
7.61735e-06
9.1371e-07
7.23224e-06
1.02539e-06
9.60559e-06
8.23398e-06
1.38964e-07
6.8696e-06
2.61861e-07
6.83779e-06
3.84142e-07
6.82409e-06
5.04472e-07
6.85128e-06
6.22569e-07
6.89056e-06
7.48436e-07
6.78427e-06
8.44026e-07
7.52112e-06
9.63645e-07
7.10753e-06
1.0896e-06
9.45064e-06
8.05627e-06
1.43493e-07
6.74351e-06
2.71689e-07
6.70936e-06
3.99432e-07
6.69623e-06
5.24913e-07
6.7255e-06
6.48972e-07
6.76637e-06
7.79738e-07
6.65312e-06
8.85201e-07
7.41575e-06
1.01342e-06
6.97452e-06
1.15195e-06
9.27805e-06
7.87482e-06
1.48065e-07
6.61181e-06
2.8152e-07
6.57568e-06
4.14658e-07
6.56302e-06
5.4531e-07
6.59457e-06
6.75304e-07
6.63629e-06
8.10831e-07
6.51722e-06
9.26187e-07
7.3035e-06
1.06321e-06
6.83312e-06
1.21298e-06
9.11195e-06
7.69175e-06
1.52682e-07
6.47457e-06
2.91336e-07
6.43681e-06
4.29782e-07
6.42455e-06
5.65612e-07
6.45844e-06
7.01479e-07
6.50038e-06
8.41696e-07
6.37661e-06
9.66894e-07
7.17512e-06
1.11302e-06
6.68295e-06
1.27273e-06
8.93008e-06
7.50824e-06
1.57394e-07
3.01217e-07
4.4492e-07
5.85967e-07
7.27654e-07
8.72382e-07
1.00732e-06
1.16261e-06
1.33134e-06
)
;

boundaryField
{
    fuel
    {
        type            calculated;
        value           nonuniform List<scalar> 
11
(
-8.18322e-06
-8.18323e-06
-8.18322e-06
-8.18322e-06
-8.18322e-06
-8.18321e-06
-8.18321e-06
-8.18321e-06
-8.1832e-06
-8.18319e-06
-8.18317e-06
)
;
    }
    wall
    {
        type            calculated;
        value           nonuniform 0();
    }
    outlet
    {
        type            calculated;
        value           nonuniform List<scalar> 
24
(
2.70318e-07
1.58157e-07
-7.39157e-08
-3.12171e-07
-4.58689e-07
-5.04621e-07
-4.43454e-07
-2.4634e-07
2.73242e-08
1.4993e-07
2.65309e-07
3.78941e-07
4.89983e-07
5.96968e-07
6.99178e-07
7.96425e-07
8.8889e-07
9.76871e-07
1.06071e-06
1.14075e-06
1.21738e-06
1.29096e-06
1.36187e-06
1.43043e-06
)
;
    }
    frontAndBack
    {
        type            empty;
        value           nonuniform 0();
    }
    procBoundary3to0
    {
        type            processor;
        value           nonuniform List<scalar> 10(6.33191e-06 6.29282e-06 6.28092e-06 6.31714e-06 6.35874e-06 6.23149e-06 7.03947e-06 6.52398e-06 8.73947e-06 7.32534e-06);
    }
    procBoundary3to2
    {
        type            processor;
        value           nonuniform List<scalar> 
25
(
5.07922e-09
9.70684e-09
1.49262e-08
1.94324e-08
2.43253e-08
2.91449e-08
3.37648e-08
3.82584e-08
4.2786e-08
4.74752e-08
7.81002e-06
-2.41138e-08
-2.50211e-08
-2.538e-08
-2.5236e-08
-2.46669e-08
-2.37674e-08
-2.2638e-08
-2.13748e-08
-2.00617e-08
-1.87696e-08
-1.75547e-08
-1.64567e-08
-1.54976e-08
-1.46929e-08
)
;
    }
}


// ************************************************************************* //
