/*--------------------------------*- C++ -*----------------------------------*\
| =========                 |                                                 |
| \\      /  F ield         | OpenFOAM: The Open Source CFD Toolbox           |
|  \\    /   O peration     | Version:  dev                                   |
|   \\  /    A nd           | Web:      www.OpenFOAM.org                      |
|    \\/     M anipulation  |                                                 |
\*---------------------------------------------------------------------------*/
FoamFile
{
    version     2.0;
    format      ascii;
    class       volVectorField;
    location    "0.1";
    object      U;
}
// * * * * * * * * * * * * * * * * * * * * * * * * * * * * * * * * * * * * * //

dimensions      [0 1 -1 0 0 0 0];

internalField   nonuniform List<vector> 
250
(
(0 0.0156809 0.511038)
(0 0.00918522 0.511198)
(0 -0.00719301 0.511094)
(0 -0.00121219 0.511103)
(0 -0.0410527 0.511382)
(0 0.018488 0.510954)
(0 -0.113872 0.512245)
(0 0.117534 0.510702)
(0 -0.254415 0.517515)
(0 0.71299 0.472239)
(0 -0.448851 0.130071)
(0 0.025555 0.717273)
(0 0.014875 0.717524)
(0 -0.0108775 0.717634)
(0 -0.00249443 0.716994)
(0 -0.0643195 0.719252)
(0 0.0275425 0.715662)
(0 -0.181065 0.72373)
(0 0.193347 0.713193)
(0 -0.415229 0.748051)
(0 1.15457 0.625291)
(0 -0.810461 0.151672)
(0 0.0339459 0.759895)
(0 0.017938 0.760229)
(0 -0.016381 0.760695)
(0 -0.00901526 0.759279)
(0 -0.0871249 0.764464)
(0 0.0227867 0.756269)
(0 -0.236948 0.775011)
(0 0.2325 0.749808)
(0 -0.539878 0.828439)
(0 1.42875 0.58445)
(0 -1.08161 0.404942)
(0 0.0401493 0.752544)
(0 0.0188722 0.752829)
(0 -0.0226181 0.7538)
(0 -0.0179213 0.75158)
(0 -0.109873 0.758747)
(0 0.0103523 0.74688)
(0 -0.286844 0.776423)
(0 0.241884 0.735748)
(0 -0.641232 0.864303)
(0 1.53485 0.517395)
(0 -1.34868 1.42609)
(0 0.0459919 0.74676)
(0 0.0183877 0.746924)
(0 -0.0309612 0.7485)
(0 -0.0304463 0.745436)
(0 -0.133803 0.754954)
(0 -0.0100532 0.738894)
(0 -0.332159 0.780288)
(0 0.231462 0.722309)
(0 -0.728 0.903852)
(0 1.47623 0.48914)
(0 -1.54763 2.67922)
(0 0.0507948 0.744861)
(0 0.0167997 0.744908)
(0 -0.0401364 0.746986)
(0 -0.0444379 0.743268)
(0 -0.157756 0.754811)
(0 -0.0344191 0.735088)
(0 -0.374034 0.787732)
(0 0.205932 0.712991)
(0 -0.804827 0.945436)
(0 1.35074 0.475268)
(0 -1.63987 3.03064)
(0 0.0547415 0.742621)
(0 0.0144041 0.742558)
(0 -0.0498999 0.745063)
(0 -0.0593855 0.740823)
(0 -0.181651 0.754235)
(0 -0.0613354 0.731141)
(0 -0.413392 0.794473)
(0 0.170012 0.703482)
(0 -0.873374 0.984003)
(0 1.19868 0.462252)
(0 -1.69754 3.00376)
(0 0.0579949 0.739109)
(0 0.0114416 0.738918)
(0 -0.0600576 0.741802)
(0 -0.0749311 0.737121)
(0 -0.205397 0.752205)
(0 -0.0898823 0.726107)
(0 -0.450817 0.799339)
(0 0.126913 0.692852)
(0 -0.933467 1.01838)
(0 1.03997 0.446909)
(0 -1.73093 2.88913)
(0 0.0606864 0.734545)
(0 0.00809437 0.734242)
(0 -0.0704591 0.737471)
(0 -0.0908199 0.732408)
(0 -0.228913 0.748999)
(0 -0.119451 0.720288)
(0 -0.486681 0.802424)
(0 0.0788858 0.681597)
(0 -0.984698 1.04714)
(0 0.880874 0.432468)
(0 -1.76343 2.75059)
(0 0.0629237 0.729208)
(0 0.00449315 0.728829)
(0 -0.0809939 0.732388)
(0 -0.10688 0.726981)
(0 -0.252138 0.744941)
(0 -0.149632 0.713976)
(0 -0.521233 0.803967)
(0 0.0276017 0.670153)
(0 -1.02823 1.06881)
(0 0.724802 0.420937)
(0 -1.78191 2.62734)
(0 0.000737432 0.722812)
(0 -0.0915808 0.726693)
(0 -0.122991 0.720964)
(0 -0.275036 0.740133)
(0 -0.180154 0.707278)
(0 -0.55466 0.80414)
(0 -0.025724 0.658733)
(0 -1.06681 1.0841)
(0 0.576001 0.411471)
(0 -1.78798 2.51258)
(0 -0.00309406 0.716165)
(0 -0.102157 0.720363)
(0 -0.139067 0.714327)
(0 -0.297579 0.73455)
(0 -0.210817 0.700151)
(0 -0.587097 0.802894)
(0 -0.0802302 0.647408)
(0 -1.10212 1.09408)
(0 0.435494 0.403293)
(0 -1.78553 2.40584)
(0 -0.00694953 0.708871)
(0 -0.112672 0.713382)
(0 -0.155039 0.707043)
(0 -0.319745 0.728194)
(0 -0.241468 0.692554)
(0 -0.618648 0.800219)
(0 -0.135307 0.63618)
(0 -1.13512 1.09965)
(0 0.303136 0.395897)
(0 -1.77791 2.30649)
(0 -0.0107712 0.700929)
(0 -0.123082 0.705747)
(0 -0.170855 0.699105)
(0 -0.341513 0.721067)
(0 -0.271981 0.684464)
(0 -0.649381 0.79614)
(0 -0.190503 0.62504)
(0 -1.16638 1.10133)
(0 0.1784 0.389182)
(0 -1.7682 2.21487)
(0 -0.0145268 0.69234)
(0 -0.133348 0.697458)
(0 -0.186466 0.690513)
(0 -0.362859 0.71318)
(0 -0.302244 0.675862)
(0 -0.679343 0.790691)
(0 -0.245472 0.61397)
(0 -1.19629 1.0995)
(0 0.0605888 0.383147)
(0 -1.75901 2.13081)
(0 -0.0181863 0.683106)
(0 -0.143436 0.688513)
(0 -0.201829 0.681267)
(0 -0.383758 0.704546)
(0 -0.332161 0.666727)
(0 -0.708563 0.78391)
(0 -0.299935 0.602939)
(0 -1.22514 1.09444)
(0 -0.0509353 0.377756)
(0 -1.7524 2.05326)
(0 -0.0217255 0.673223)
(0 -0.153314 0.67891)
(0 -0.216905 0.671362)
(0 -0.404184 0.695167)
(0 -0.361637 0.657035)
(0 -0.737059 0.775834)
(0 -0.35367 0.591906)
(0 -1.25315 1.08643)
(0 -0.15677 0.372913)
(0 -1.74988 1.98144)
(0 -0.0251239 0.662686)
(0 -0.162953 0.668643)
(0 -0.231657 0.660791)
(0 -0.424109 0.685035)
(0 -0.390585 0.646766)
(0 -0.764839 0.766501)
(0 -0.406495 0.580825)
(0 -1.28046 1.07574)
(0 -0.257444 0.368524)
(0 -1.7524 1.91435)
(0 -0.0283643 0.651496)
(0 -0.172329 0.657712)
(0 -0.246053 0.649551)
(0 -0.443513 0.674153)
(0 -0.418931 0.635897)
(0 -0.791896 0.755945)
(0 -0.458261 0.569651)
(0 -1.3072 1.06259)
(0 -0.353408 0.36449)
(0 -1.76048 1.85062)
(0 -0.0314346 0.63966)
(0 -0.181421 0.64612)
(0 -0.260063 0.637645)
(0 -0.462375 0.662521)
(0 -0.446615 0.624406)
(0 -0.81821 0.744194)
(0 -0.508843 0.558332)
(0 -1.33344 1.04716)
(0 -0.445005 0.360693)
(0 -1.77418 1.78883)
(0 -0.0343281 0.627156)
(0 -0.190211 0.633875)
(0 -0.27366 0.625087)
(0 -0.480678 0.650134)
(0 -0.473586 0.61227)
(0 -0.843757 0.731282)
(0 -0.558136 0.546822)
(0 -1.35924 1.02956)
(0 -0.532514 0.357014)
(0 -1.79335 1.7293)
(0 -0.0370411 0.61395)
(0 -0.198688 0.620932)
(0 -0.28682 0.611847)
(0 -0.498399 0.636987)
(0 -0.499801 0.599492)
(0 -0.868514 0.71723)
(0 -0.606045 0.535016)
(0 -1.38461 1.0099)
(0 -0.616253 0.353252)
(0 -1.81746 1.67072)
(0 -0.0395681 0.60012)
(0 -0.206844 0.607306)
(0 -0.299527 0.597928)
(0 -0.515508 0.623175)
(0 -0.52523 0.586038)
(0 -0.89246 0.702086)
(0 -0.652493 0.522968)
(0 -1.40956 0.988332)
(0 -0.696339 0.349452)
(0 -1.846 1.61296)
(0 -0.0419109 0.585544)
(0 -0.214666 0.592922)
(0 -0.311763 0.583274)
(0 -0.531999 0.608516)
(0 -0.549776 0.571922)
(0 -0.915592 0.685973)
(0 -0.697406 0.510451)
(0 -1.43406 0.965009)
(0 -0.773018 0.345398)
(0 -1.878 1.55631)
)
;

boundaryField
{
    fuel
    {
        type            fixedValue;
        value           uniform (0 0 0.1055);
    }
    wall
    {
        type            slip;
    }
    outlet
    {
        type            pressureInletOutletVelocity;
        value           nonuniform List<vector> 
24
(
(0 -0.448851 0.130071)
(0 -0.810461 0.151672)
(0 -1.08161 0.404942)
(0 -1.34868 1.42609)
(0 -1.54763 2.67922)
(0 -1.63987 3.03064)
(0 -1.69754 3.00376)
(0 -1.73093 2.88913)
(0 -1.76343 2.75059)
(0 -1.78191 2.62734)
(0 -1.78798 2.51258)
(0 -1.78553 2.40584)
(0 -1.77791 2.30649)
(0 -1.7682 2.21487)
(0 -1.75901 2.13081)
(0 -1.7524 2.05326)
(0 -1.74988 1.98144)
(0 -1.7524 1.91435)
(0 -1.76048 1.85062)
(0 -1.77418 1.78883)
(0 -1.79335 1.7293)
(0 -1.81746 1.67072)
(0 -1.846 1.61296)
(0 -1.878 1.55631)
)
;
    }
    frontAndBack
    {
        type            empty;
    }
    procBoundary3to0
    {
        type            processor;
        value           nonuniform List<vector> 10((0 -0.0440659 0.570304) (0 -0.222158 0.577861) (0 -0.323519 0.56793) (0 -0.54786 0.593135) (0 -0.573428 0.557112) (0 -0.937855 0.668897) (0 -0.740719 0.497502) (0 -1.45806 0.93997) (0 -0.846346 0.340918) (0 -1.91282 1.49929));
    }
    procBoundary3to2
    {
        type            processor;
        value           nonuniform List<vector> 
25
(
(0 0.0268101 0.511181)
(0 0.043109 0.717542)
(0 0.0580903 0.760326)
(0 0.0702038 0.75307)
(0 0.0827811 0.747353)
(0 0.0942444 0.745502)
(0 0.104801 0.7433)
(0 0.114636 0.7398)
(0 0.123901 0.735261)
(0 0.13273 0.729993)
(0 0.0647971 0.723301)
(0 0.0647971 0.723301)
(0 0.0663827 0.716727)
(0 0.0677462 0.709562)
(0 0.0689444 0.701821)
(0 0.0700287 0.693375)
(0 0.0710425 0.684267)
(0 0.0720245 0.6745)
(0 0.0730083 0.66409)
(0 0.0740216 0.653031)
(0 0.075085 0.641287)
(0 0.076213 0.628846)
(0 0.0774155 0.615718)
(0 0.0786976 0.601916)
(0 0.0800486 0.587401)
)
;
    }
}


// ************************************************************************* //
