/*--------------------------------*- C++ -*----------------------------------*\
| =========                 |                                                 |
| \\      /  F ield         | OpenFOAM: The Open Source CFD Toolbox           |
|  \\    /   O peration     | Version:  dev                                   |
|   \\  /    A nd           | Web:      www.OpenFOAM.org                      |
|    \\/     M anipulation  |                                                 |
\*---------------------------------------------------------------------------*/
FoamFile
{
    version     2.0;
    format      ascii;
    class       volScalarField;
    location    "0.095";
    object      A1C2H;
}
// * * * * * * * * * * * * * * * * * * * * * * * * * * * * * * * * * * * * * //

dimensions      [0 0 0 0 0 0 0];

internalField   nonuniform List<scalar> 
250
(
1.6365e-05
1.63647e-05
1.63648e-05
1.63652e-05
1.63634e-05
1.63696e-05
1.6372e-05
1.6424e-05
1.68223e-05
1.95844e-05
5.76608e-07
1.47752e-05
1.47739e-05
1.47751e-05
1.47751e-05
1.47725e-05
1.47811e-05
1.47867e-05
1.48723e-05
1.55316e-05
2.03972e-05
1.3252e-06
1.20848e-05
1.2082e-05
1.20851e-05
1.20839e-05
1.20807e-05
1.20911e-05
1.20995e-05
1.22083e-05
1.30442e-05
1.9406e-05
1.9042e-06
9.67714e-06
9.67304e-06
9.67778e-06
9.67525e-06
9.67225e-06
9.68325e-06
9.69372e-06
9.81593e-06
1.07675e-05
1.82092e-05
2.35826e-06
7.65389e-06
7.64911e-06
7.65387e-06
7.65005e-06
7.65026e-06
7.65911e-06
7.67036e-06
7.79464e-06
8.80433e-06
1.69615e-05
2.72799e-06
5.9334e-06
5.9272e-06
5.92974e-06
5.92354e-06
5.93591e-06
5.93889e-06
5.95801e-06
6.128e-06
7.17388e-06
1.57672e-05
3.03837e-06
4.63981e-06
4.63129e-06
4.63209e-06
4.62394e-06
4.64619e-06
4.64459e-06
4.66465e-06
4.83506e-06
5.86226e-06
1.4522e-05
3.29824e-06
3.65611e-06
3.64014e-06
3.64064e-06
3.62979e-06
3.66344e-06
3.66034e-06
3.68152e-06
3.85361e-06
4.78288e-06
1.34955e-05
3.50296e-06
2.92127e-06
2.88287e-06
2.88416e-06
2.88609e-06
2.93113e-06
2.92698e-06
2.94008e-06
3.06491e-06
3.98077e-06
1.24815e-05
3.63472e-06
2.3191e-06
2.32919e-06
2.32717e-06
2.33873e-06
2.32393e-06
2.32101e-06
2.33362e-06
2.4498e-06
3.35187e-06
1.15697e-05
3.694e-06
1.91583e-06
1.92093e-06
1.94166e-06
1.93252e-06
1.93089e-06
1.94279e-06
2.05116e-06
2.8127e-06
1.06885e-05
3.74806e-06
1.6092e-06
1.62402e-06
1.61372e-06
1.60856e-06
1.60828e-06
1.6195e-06
1.72752e-06
2.44116e-06
9.82807e-06
3.87663e-06
1.37922e-06
1.37736e-06
1.36907e-06
1.36659e-06
1.36727e-06
1.37792e-06
1.47804e-06
2.14404e-06
8.98518e-06
4.07712e-06
1.19706e-06
1.18948e-06
1.18271e-06
1.18193e-06
1.18321e-06
1.19342e-06
1.28638e-06
1.87609e-06
8.12931e-06
4.27482e-06
1.04642e-06
1.04287e-06
1.03743e-06
1.03762e-06
1.03921e-06
1.0491e-06
1.13564e-06
1.68188e-06
7.32961e-06
4.41724e-06
9.27353e-07
9.2591e-07
9.21582e-07
9.2226e-07
9.23972e-07
9.33587e-07
1.01413e-06
1.50365e-06
6.4411e-06
4.48897e-06
8.31318e-07
8.30812e-07
8.27396e-07
8.28252e-07
8.2998e-07
8.39309e-07
9.14103e-07
1.34677e-06
5.5699e-06
4.49172e-06
7.52536e-07
7.52357e-07
7.49675e-07
7.5054e-07
7.52224e-07
7.61228e-07
8.30306e-07
1.21198e-06
4.86622e-06
4.42821e-06
6.8714e-07
6.87017e-07
6.8492e-07
6.8571e-07
6.87319e-07
6.95956e-07
7.58992e-07
1.09541e-06
4.21942e-06
4.2985e-06
6.3255e-07
6.32379e-07
6.30747e-07
6.31422e-07
6.32941e-07
6.41181e-07
6.97241e-07
9.94526e-07
3.63755e-06
4.1082e-06
5.87015e-07
5.86762e-07
5.855e-07
5.86042e-07
5.87457e-07
5.95307e-07
6.50222e-07
9.07634e-07
3.12437e-06
3.86843e-06
5.49312e-07
5.48957e-07
5.48001e-07
5.48389e-07
5.49691e-07
5.57154e-07
6.09736e-07
8.33344e-07
2.68228e-06
3.59355e-06
5.222e-07
5.2175e-07
5.21005e-07
5.21256e-07
5.22456e-07
5.29517e-07
5.74119e-07
7.70526e-07
2.27379e-06
3.29818e-06
5.00198e-07
4.99697e-07
4.99092e-07
4.99273e-07
5.00399e-07
5.07129e-07
5.48848e-07
7.18529e-07
1.95648e-06
2.99706e-06
)
;

boundaryField
{
    fuel
    {
        type            fixedValue;
        value           uniform 0;
    }
    wall
    {
        type            zeroGradient;
    }
    outlet
    {
        type            zeroGradient;
    }
    frontAndBack
    {
        type            empty;
    }
    procBoundary3to0
    {
        type            processor;
        value           nonuniform List<scalar> 10(4.85381e-07 4.84766e-07 4.84321e-07 4.84336e-07 4.85352e-07 4.9173e-07 5.28096e-07 6.76458e-07 1.69482e-06 2.70266e-06);
    }
    procBoundary3to2
    {
        type            processor;
        value           nonuniform List<scalar> 
25
(
1.63649e-05
1.47749e-05
1.20842e-05
9.67658e-06
7.65374e-06
5.93513e-06
4.64166e-06
3.65551e-06
2.91661e-06
2.32665e-06
1.93115e-06
1.93115e-06
1.608e-06
1.36327e-06
1.17138e-06
1.03504e-06
9.25335e-07
8.29471e-07
7.50928e-07
6.85708e-07
6.31234e-07
5.85807e-07
5.48236e-07
5.2126e-07
4.99375e-07
)
;
    }
}


// ************************************************************************* //
