/*--------------------------------*- C++ -*----------------------------------*\
| =========                 |                                                 |
| \\      /  F ield         | OpenFOAM: The Open Source CFD Toolbox           |
|  \\    /   O peration     | Version:  dev                                   |
|   \\  /    A nd           | Web:      www.OpenFOAM.org                      |
|    \\/     M anipulation  |                                                 |
\*---------------------------------------------------------------------------*/
FoamFile
{
    version     2.0;
    format      ascii;
    class       volScalarField;
    location    "0.095";
    object      A1C2H-;
}
// * * * * * * * * * * * * * * * * * * * * * * * * * * * * * * * * * * * * * //

dimensions      [0 0 0 0 0 0 0];

internalField   nonuniform List<scalar> 
1989
(
1.17982e-09
1.17919e-09
1.17889e-09
1.17847e-09
1.17836e-09
1.17809e-09
1.17806e-09
1.17789e-09
1.17789e-09
1.17779e-09
1.1778e-09
1.17775e-09
1.17776e-09
1.17774e-09
1.17774e-09
1.17776e-09
1.17775e-09
1.1778e-09
1.17779e-09
1.17789e-09
1.17789e-09
1.17806e-09
1.17809e-09
1.17836e-09
1.17847e-09
1.1789e-09
1.17919e-09
1.17982e-09
1.18053e-09
1.18165e-09
1.18338e-09
1.18532e-09
1.18885e-09
1.1925e-09
1.19968e-09
1.20754e-09
1.21681e-09
1.23273e-09
1.24164e-09
1.13714e-09
1.12849e-09
1.11305e-09
1.10425e-09
1.09687e-09
1.09011e-09
1.08664e-09
1.08333e-09
1.08152e-09
1.07989e-09
1.07884e-09
1.07817e-09
1.07758e-09
1.07731e-09
1.07691e-09
1.07681e-09
1.07655e-09
1.07653e-09
1.07637e-09
1.07637e-09
1.07628e-09
1.07629e-09
1.07624e-09
1.07625e-09
1.07623e-09
1.07623e-09
1.07625e-09
1.07624e-09
1.07629e-09
1.07628e-09
1.07637e-09
1.07637e-09
1.07653e-09
1.07655e-09
1.07681e-09
1.07691e-09
1.07731e-09
1.07759e-09
1.07817e-09
1.07884e-09
1.0799e-09
1.08152e-09
1.08332e-09
1.08663e-09
1.09011e-09
1.09687e-09
1.10424e-09
1.11304e-09
1.12848e-09
1.13712e-09
1.03772e-09
1.0294e-09
1.01444e-09
1.00616e-09
9.9928e-10
9.92932e-10
9.89669e-10
9.8657e-10
9.84902e-10
9.83382e-10
9.82393e-10
9.81771e-10
9.81223e-10
9.80972e-10
9.80599e-10
9.80508e-10
9.80267e-10
9.80244e-10
9.80093e-10
9.80098e-10
9.80008e-10
9.80021e-10
9.79973e-10
9.79982e-10
9.79966e-10
9.79966e-10
9.79981e-10
9.79972e-10
9.8002e-10
9.80007e-10
9.80098e-10
9.80093e-10
9.80244e-10
9.80267e-10
9.80509e-10
9.80601e-10
9.80975e-10
9.81226e-10
9.81771e-10
9.8239e-10
9.83388e-10
9.84899e-10
9.86566e-10
9.89661e-10
9.92925e-10
9.99274e-10
1.00616e-09
1.01444e-09
1.02939e-09
1.03771e-09
9.42669e-10
9.34633e-10
9.20056e-10
9.12258e-10
9.05816e-10
8.99848e-10
8.96819e-10
8.93898e-10
8.92358e-10
8.90935e-10
8.9001e-10
8.8943e-10
8.88921e-10
8.8869e-10
8.88342e-10
8.8826e-10
8.88034e-10
8.88014e-10
8.87873e-10
8.87879e-10
8.87795e-10
8.87807e-10
8.87762e-10
8.87771e-10
8.87756e-10
8.87755e-10
8.8777e-10
8.87761e-10
8.87806e-10
8.87794e-10
8.87879e-10
8.87873e-10
8.88015e-10
8.88035e-10
8.88261e-10
8.88345e-10
8.88694e-10
8.88924e-10
8.8943e-10
8.90004e-10
8.90944e-10
8.92355e-10
8.93893e-10
8.96811e-10
8.9984e-10
9.0581e-10
9.12251e-10
9.20052e-10
9.34625e-10
9.42652e-10
8.51828e-10
8.44246e-10
8.32106e-10
8.24913e-10
8.18956e-10
8.134e-10
8.10645e-10
8.07905e-10
8.065e-10
8.05183e-10
8.04323e-10
8.03791e-10
8.03321e-10
8.03112e-10
8.02789e-10
8.02716e-10
8.02506e-10
8.0249e-10
8.02358e-10
8.02365e-10
8.02286e-10
8.02298e-10
8.02257e-10
8.02265e-10
8.0225e-10
8.0225e-10
8.02264e-10
8.02255e-10
8.02297e-10
8.02285e-10
8.02364e-10
8.02358e-10
8.0249e-10
8.02506e-10
8.02716e-10
8.02791e-10
8.03115e-10
8.03324e-10
8.0379e-10
8.04317e-10
8.0519e-10
8.06498e-10
8.079e-10
8.10637e-10
8.13393e-10
8.1895e-10
8.24906e-10
8.32104e-10
8.44239e-10
8.51812e-10
7.68368e-10
7.61216e-10
7.49463e-10
7.42522e-10
7.36874e-10
7.31579e-10
7.29015e-10
7.26406e-10
7.25101e-10
7.23857e-10
7.23053e-10
7.22553e-10
7.22114e-10
7.2192e-10
7.21617e-10
7.21549e-10
7.21352e-10
7.21338e-10
7.21214e-10
7.21221e-10
7.21147e-10
7.21158e-10
7.21119e-10
7.21127e-10
7.21113e-10
7.21113e-10
7.21126e-10
7.21117e-10
7.21157e-10
7.21146e-10
7.2122e-10
7.21214e-10
7.21338e-10
7.21352e-10
7.2155e-10
7.21619e-10
7.21923e-10
7.22117e-10
7.22553e-10
7.23046e-10
7.23865e-10
7.25099e-10
7.26402e-10
7.29008e-10
7.31573e-10
7.36869e-10
7.42516e-10
7.49462e-10
7.61208e-10
7.68351e-10
6.90312e-10
6.83547e-10
6.72493e-10
6.66039e-10
6.60876e-10
6.55974e-10
6.5366e-10
6.51234e-10
6.50055e-10
6.48907e-10
6.48171e-10
6.47714e-10
6.47313e-10
6.47138e-10
6.46859e-10
6.468e-10
6.46619e-10
6.46607e-10
6.46493e-10
6.465e-10
6.46432e-10
6.46443e-10
6.46406e-10
6.46414e-10
6.46401e-10
6.46401e-10
6.46413e-10
6.46405e-10
6.46442e-10
6.46431e-10
6.465e-10
6.46493e-10
6.46608e-10
6.46619e-10
6.46801e-10
6.46861e-10
6.47141e-10
6.47315e-10
6.47714e-10
6.48163e-10
6.48918e-10
6.50053e-10
6.51229e-10
6.53653e-10
6.55967e-10
6.60872e-10
6.66033e-10
6.72494e-10
6.8354e-10
6.90296e-10
6.17627e-10
6.11209e-10
6.00957e-10
5.9493e-10
5.90237e-10
5.85717e-10
5.83642e-10
5.81395e-10
5.80338e-10
5.79283e-10
5.78614e-10
5.78197e-10
5.77832e-10
5.77677e-10
5.77422e-10
5.7737e-10
5.77204e-10
5.77195e-10
5.7709e-10
5.77098e-10
5.77034e-10
5.77045e-10
5.77012e-10
5.77018e-10
5.77007e-10
5.77007e-10
5.77018e-10
5.7701e-10
5.77044e-10
5.77034e-10
5.77097e-10
5.7709e-10
5.77195e-10
5.77204e-10
5.77371e-10
5.77423e-10
5.77679e-10
5.77835e-10
5.78197e-10
5.78606e-10
5.79293e-10
5.80337e-10
5.81391e-10
5.83635e-10
5.85711e-10
5.90233e-10
5.94924e-10
6.0096e-10
6.11201e-10
6.17611e-10
5.49132e-10
5.43087e-10
5.33634e-10
5.27948e-10
5.23674e-10
5.19516e-10
5.17648e-10
5.15572e-10
5.14621e-10
5.13649e-10
5.1304e-10
5.12659e-10
5.12328e-10
5.12188e-10
5.11956e-10
5.1191e-10
5.11759e-10
5.11752e-10
5.11656e-10
5.11664e-10
5.11606e-10
5.11617e-10
5.11585e-10
5.11592e-10
5.11581e-10
5.11581e-10
5.11591e-10
5.11584e-10
5.11616e-10
5.11605e-10
5.11663e-10
5.11656e-10
5.11752e-10
5.11759e-10
5.11911e-10
5.11957e-10
5.1219e-10
5.1233e-10
5.12659e-10
5.13034e-10
5.13655e-10
5.14618e-10
5.15568e-10
5.17642e-10
5.1951e-10
5.2367e-10
5.27943e-10
5.33638e-10
5.43079e-10
5.49117e-10
4.85483e-10
4.79865e-10
4.71337e-10
4.66e-10
4.62163e-10
4.58404e-10
4.56746e-10
4.5486e-10
4.54018e-10
4.53134e-10
4.5259e-10
4.5225e-10
4.51953e-10
4.51829e-10
4.51621e-10
4.51581e-10
4.51445e-10
4.5144e-10
4.51354e-10
4.51361e-10
4.51309e-10
4.51319e-10
4.51291e-10
4.51297e-10
4.51287e-10
4.51287e-10
4.51296e-10
4.5129e-10
4.51318e-10
4.51309e-10
4.51361e-10
4.51354e-10
4.5144e-10
4.51445e-10
4.51582e-10
4.51622e-10
4.51831e-10
4.51955e-10
4.5225e-10
4.52586e-10
4.53139e-10
4.54016e-10
4.54856e-10
4.5674e-10
4.58399e-10
4.62159e-10
4.65996e-10
4.71341e-10
4.79857e-10
4.85469e-10
4.26972e-10
4.21788e-10
4.14134e-10
4.10124e-10
4.06691e-10
4.03279e-10
4.0182e-10
4.001e-10
3.99356e-10
3.98559e-10
3.9807e-10
3.97766e-10
3.975e-10
3.97392e-10
3.97204e-10
3.97171e-10
3.97049e-10
3.97045e-10
3.96967e-10
3.96975e-10
3.96928e-10
3.96937e-10
3.96912e-10
3.96918e-10
3.96909e-10
3.96909e-10
3.96917e-10
3.96911e-10
3.96937e-10
3.96928e-10
3.96975e-10
3.96967e-10
3.97045e-10
3.97049e-10
3.97172e-10
3.97206e-10
3.97393e-10
3.97502e-10
3.97766e-10
3.98068e-10
3.98562e-10
3.99354e-10
4.00096e-10
4.01814e-10
4.03274e-10
4.06687e-10
4.10121e-10
4.14138e-10
4.21781e-10
4.2696e-10
3.74322e-10
3.69563e-10
3.6266e-10
3.58998e-10
3.55939e-10
3.5286e-10
3.51585e-10
3.50025e-10
3.49372e-10
3.48657e-10
3.48221e-10
3.47937e-10
3.47688e-10
3.47588e-10
3.47412e-10
3.47382e-10
3.47267e-10
3.47264e-10
3.47191e-10
3.47199e-10
3.47154e-10
3.47163e-10
3.47139e-10
3.47144e-10
3.47136e-10
3.47136e-10
3.47144e-10
3.47138e-10
3.47162e-10
3.47154e-10
3.47198e-10
3.47191e-10
3.47264e-10
3.47266e-10
3.47382e-10
3.47413e-10
3.47589e-10
3.47689e-10
3.47938e-10
3.48219e-10
3.48659e-10
3.4937e-10
3.50021e-10
3.51581e-10
3.52856e-10
3.55935e-10
3.58994e-10
3.62664e-10
3.69556e-10
3.74311e-10
3.25811e-10
3.21363e-10
3.15036e-10
3.11689e-10
3.08941e-10
3.06207e-10
3.05099e-10
3.03702e-10
3.03133e-10
3.02499e-10
3.02113e-10
3.01861e-10
3.0164e-10
3.01553e-10
3.01397e-10
3.01372e-10
3.01269e-10
3.01268e-10
3.01203e-10
3.0121e-10
3.01171e-10
3.01179e-10
3.01157e-10
3.01162e-10
3.01155e-10
3.01155e-10
3.01162e-10
3.01156e-10
3.01178e-10
3.0117e-10
3.0121e-10
3.01203e-10
3.01268e-10
3.01269e-10
3.01372e-10
3.01398e-10
3.01554e-10
3.01642e-10
3.01862e-10
3.02113e-10
3.025e-10
3.03132e-10
3.03699e-10
3.05095e-10
3.06203e-10
3.08938e-10
3.11686e-10
3.1504e-10
3.21356e-10
3.258e-10
2.81356e-10
2.7731e-10
2.7171e-10
2.68715e-10
2.66286e-10
2.6388e-10
2.62923e-10
2.61684e-10
2.61192e-10
2.60633e-10
2.60295e-10
2.60072e-10
2.59877e-10
2.59802e-10
2.59665e-10
2.59643e-10
2.59553e-10
2.59553e-10
2.59496e-10
2.59502e-10
2.59467e-10
2.59475e-10
2.59456e-10
2.5946e-10
2.59454e-10
2.59453e-10
2.5946e-10
2.59455e-10
2.59474e-10
2.59467e-10
2.59502e-10
2.59496e-10
2.59553e-10
2.59553e-10
2.59644e-10
2.59666e-10
2.59803e-10
2.59879e-10
2.60072e-10
2.60295e-10
2.60634e-10
2.6119e-10
2.61681e-10
2.6292e-10
2.63877e-10
2.66283e-10
2.68712e-10
2.71714e-10
2.77301e-10
2.81348e-10
2.41828e-10
2.38135e-10
2.33223e-10
2.30528e-10
2.28408e-10
2.26282e-10
2.25468e-10
2.24366e-10
2.23946e-10
2.23455e-10
2.2316e-10
2.22963e-10
2.22792e-10
2.22727e-10
2.22607e-10
2.22589e-10
2.2251e-10
2.22511e-10
2.2246e-10
2.22466e-10
2.22436e-10
2.22442e-10
2.22426e-10
2.2243e-10
2.22424e-10
2.22424e-10
2.22429e-10
2.22425e-10
2.22442e-10
2.22435e-10
2.22466e-10
2.2246e-10
2.22511e-10
2.2251e-10
2.2259e-10
2.22608e-10
2.22728e-10
2.22793e-10
2.22963e-10
2.23161e-10
2.23455e-10
2.23944e-10
2.24364e-10
2.25464e-10
2.26279e-10
2.28406e-10
2.30525e-10
2.33227e-10
2.38125e-10
2.41823e-10
2.06216e-10
2.02917e-10
1.98641e-10
1.96211e-10
1.94366e-10
1.92437e-10
1.91732e-10
1.90736e-10
1.90371e-10
1.89933e-10
1.89673e-10
1.89495e-10
1.89342e-10
1.89286e-10
1.89179e-10
1.89165e-10
1.89094e-10
1.89095e-10
1.8905e-10
1.89056e-10
1.89029e-10
1.89035e-10
1.8902e-10
1.89023e-10
1.89018e-10
1.89018e-10
1.89023e-10
1.89019e-10
1.89034e-10
1.89028e-10
1.89056e-10
1.8905e-10
1.89095e-10
1.89094e-10
1.89165e-10
1.8918e-10
1.89287e-10
1.89343e-10
1.89496e-10
1.89673e-10
1.89933e-10
1.9037e-10
1.90734e-10
1.91729e-10
1.92434e-10
1.94364e-10
1.96208e-10
1.98644e-10
2.02906e-10
2.06213e-10
1.74346e-10
1.71423e-10
1.67729e-10
1.65561e-10
1.63993e-10
1.62299e-10
1.61709e-10
1.60836e-10
1.60529e-10
1.60149e-10
1.59927e-10
1.5977e-10
1.59636e-10
1.59589e-10
1.59496e-10
1.59485e-10
1.59423e-10
1.59425e-10
1.59386e-10
1.59392e-10
1.59368e-10
1.59374e-10
1.5936e-10
1.59364e-10
1.59359e-10
1.59359e-10
1.59363e-10
1.5936e-10
1.59373e-10
1.59368e-10
1.59392e-10
1.59386e-10
1.59425e-10
1.59423e-10
1.59485e-10
1.59497e-10
1.5959e-10
1.59637e-10
1.5977e-10
1.59927e-10
1.60149e-10
1.60528e-10
1.60834e-10
1.61707e-10
1.62296e-10
1.63991e-10
1.65559e-10
1.67732e-10
1.71411e-10
1.74345e-10
1.46007e-10
1.43441e-10
1.40278e-10
1.38367e-10
1.37047e-10
1.35573e-10
1.35085e-10
1.34326e-10
1.34072e-10
1.33745e-10
1.33557e-10
1.33419e-10
1.33302e-10
1.33263e-10
1.33184e-10
1.33175e-10
1.33122e-10
1.33124e-10
1.33091e-10
1.33096e-10
1.33076e-10
1.33081e-10
1.33069e-10
1.33072e-10
1.33068e-10
1.33068e-10
1.33072e-10
1.33069e-10
1.3308e-10
1.33075e-10
1.33096e-10
1.33091e-10
1.33125e-10
1.33122e-10
1.33175e-10
1.33184e-10
1.33264e-10
1.33303e-10
1.3342e-10
1.33558e-10
1.33744e-10
1.34071e-10
1.34324e-10
1.35083e-10
1.3557e-10
1.37045e-10
1.38365e-10
1.40281e-10
1.43429e-10
1.46007e-10
1.20934e-10
1.1865e-10
1.15919e-10
1.14232e-10
1.13115e-10
1.11835e-10
1.11431e-10
1.10774e-10
1.10562e-10
1.10282e-10
1.10125e-10
1.10003e-10
1.099e-10
1.09867e-10
1.098e-10
1.09793e-10
1.09748e-10
1.0975e-10
1.09721e-10
1.09726e-10
1.09709e-10
1.09713e-10
1.09703e-10
1.09706e-10
1.09702e-10
1.09702e-10
1.09705e-10
1.09703e-10
1.09713e-10
1.09708e-10
1.09726e-10
1.09721e-10
1.0975e-10
1.09748e-10
1.09793e-10
1.098e-10
1.09868e-10
1.09901e-10
1.10004e-10
1.10125e-10
1.10282e-10
1.10561e-10
1.10773e-10
1.11429e-10
1.11833e-10
1.13114e-10
1.14231e-10
1.15921e-10
1.18637e-10
1.20935e-10
9.90343e-11
9.70612e-11
9.47698e-11
9.33174e-11
9.23964e-11
9.13055e-11
9.09806e-11
9.04212e-11
9.02498e-11
9.00146e-11
8.98855e-11
8.97814e-11
8.96888e-11
8.96626e-11
8.96057e-11
8.96009e-11
8.95628e-11
8.95653e-11
8.9541e-11
8.95456e-11
8.95306e-11
8.95345e-11
8.95263e-11
8.95284e-11
8.95256e-11
8.95255e-11
8.95281e-11
8.95259e-11
8.95342e-11
8.95304e-11
8.95455e-11
8.9541e-11
8.95654e-11
8.95627e-11
8.96009e-11
8.9606e-11
8.96632e-11
8.96894e-11
8.97818e-11
8.98858e-11
9.00144e-11
9.02489e-11
9.042e-11
9.0979e-11
9.13038e-11
9.23952e-11
9.33164e-11
9.47711e-11
9.70486e-11
9.90365e-11
8.00613e-11
7.83729e-11
7.64791e-11
7.52469e-11
7.44979e-11
7.35809e-11
7.33246e-11
7.28551e-11
7.27186e-11
7.2524e-11
7.24202e-11
7.23335e-11
7.2248e-11
7.22271e-11
7.21801e-11
7.21768e-11
7.21452e-11
7.21478e-11
7.21275e-11
7.21316e-11
7.21192e-11
7.21226e-11
7.21158e-11
7.21175e-11
7.21152e-11
7.21151e-11
7.21173e-11
7.21154e-11
7.21224e-11
7.2119e-11
7.21316e-11
7.21275e-11
7.21478e-11
7.21451e-11
7.21768e-11
7.21804e-11
7.22276e-11
7.22485e-11
7.23339e-11
7.24204e-11
7.25239e-11
7.27178e-11
7.2854e-11
7.33233e-11
7.35795e-11
7.44969e-11
7.52462e-11
7.64801e-11
7.83615e-11
8.00633e-11
6.38342e-11
6.24024e-11
6.08689e-11
5.98411e-11
5.92417e-11
5.84838e-11
5.82862e-11
5.78988e-11
5.7792e-11
5.76343e-11
5.75524e-11
5.74838e-11
5.7401e-11
5.73847e-11
5.73464e-11
5.73444e-11
5.73186e-11
5.73211e-11
5.73046e-11
5.73082e-11
5.7298e-11
5.73009e-11
5.72953e-11
5.72968e-11
5.72949e-11
5.72948e-11
5.72966e-11
5.7295e-11
5.73007e-11
5.72979e-11
5.73081e-11
5.73046e-11
5.73211e-11
5.73185e-11
5.73444e-11
5.73467e-11
5.73851e-11
5.74014e-11
5.74841e-11
5.75526e-11
5.76341e-11
5.77913e-11
5.78979e-11
5.82851e-11
5.84826e-11
5.92409e-11
5.98405e-11
6.08697e-11
6.23934e-11
6.38348e-11
5.01709e-11
4.89946e-11
4.77734e-11
4.69333e-11
4.64622e-11
4.58496e-11
4.57012e-11
4.53885e-11
4.53066e-11
4.51816e-11
4.51192e-11
4.50687e-11
4.4983e-11
4.49707e-11
4.49403e-11
4.49392e-11
4.49186e-11
4.49208e-11
4.49076e-11
4.49107e-11
4.49026e-11
4.4905e-11
4.49005e-11
4.49017e-11
4.49002e-11
4.49002e-11
4.49016e-11
4.49003e-11
4.49049e-11
4.49025e-11
4.49107e-11
4.49076e-11
4.49209e-11
4.49185e-11
4.49391e-11
4.49405e-11
4.4971e-11
4.49833e-11
4.50689e-11
4.51194e-11
4.51815e-11
4.53061e-11
4.53878e-11
4.57004e-11
4.58486e-11
4.64615e-11
4.69328e-11
4.7774e-11
4.89834e-11
5.01748e-11
3.89024e-11
3.79501e-11
3.69715e-11
3.62906e-11
3.59496e-11
3.54343e-11
3.53231e-11
3.50764e-11
3.50133e-11
3.49161e-11
3.48701e-11
3.48356e-11
3.48375e-11
3.48287e-11
3.48051e-11
3.48047e-11
3.47887e-11
3.47907e-11
3.47804e-11
3.4783e-11
3.47766e-11
3.47786e-11
3.47751e-11
3.47761e-11
3.47749e-11
3.47748e-11
3.47759e-11
3.47749e-11
3.47785e-11
3.47766e-11
3.47829e-11
3.47804e-11
3.47907e-11
3.47886e-11
3.48047e-11
3.48053e-11
3.4829e-11
3.48378e-11
3.48358e-11
3.48703e-11
3.4916e-11
3.50128e-11
3.50759e-11
3.53224e-11
3.54336e-11
3.5949e-11
3.62902e-11
3.69719e-11
3.79375e-11
3.89088e-11
2.99076e-11
2.91783e-11
2.8432e-11
2.79019e-11
2.76523e-11
2.72513e-11
2.71723e-11
2.69857e-11
2.69384e-11
2.68661e-11
2.6834e-11
2.68127e-11
2.6809e-11
2.68029e-11
2.67852e-11
2.67852e-11
2.67731e-11
2.67749e-11
2.67671e-11
2.67692e-11
2.67644e-11
2.67659e-11
2.67633e-11
2.6764e-11
2.67631e-11
2.67631e-11
2.67639e-11
2.67631e-11
2.67658e-11
2.67643e-11
2.67691e-11
2.67671e-11
2.67749e-11
2.67731e-11
2.67852e-11
2.67853e-11
2.68031e-11
2.68092e-11
2.68129e-11
2.68341e-11
2.68659e-11
2.6938e-11
2.69853e-11
2.71718e-11
2.72508e-11
2.76519e-11
2.79016e-11
2.84323e-11
2.9167e-11
2.99139e-11
2.30141e-11
2.24754e-11
2.19179e-11
2.15025e-11
2.13241e-11
2.10473e-11
2.0993e-11
2.08592e-11
2.08231e-11
2.0772e-11
2.07508e-11
2.07388e-11
2.07327e-11
2.07286e-11
2.0716e-11
2.07162e-11
2.07075e-11
2.07089e-11
2.07032e-11
2.07048e-11
2.07014e-11
2.07026e-11
2.07006e-11
2.07012e-11
2.07005e-11
2.07005e-11
2.07011e-11
2.07005e-11
2.07025e-11
2.07013e-11
2.07048e-11
2.07032e-11
2.07089e-11
2.07074e-11
2.07162e-11
2.0716e-11
2.07287e-11
2.07328e-11
2.07389e-11
2.07509e-11
2.07719e-11
2.08228e-11
2.08589e-11
2.09926e-11
2.10469e-11
2.13238e-11
2.15024e-11
2.19181e-11
2.24663e-11
2.30194e-11
1.7982e-11
1.75996e-11
1.72028e-11
1.69562e-11
1.68387e-11
1.66399e-11
1.66e-11
1.64952e-11
1.64857e-11
1.64523e-11
1.64395e-11
1.64335e-11
1.64276e-11
1.64251e-11
1.64166e-11
1.6417e-11
1.6411e-11
1.64121e-11
1.64082e-11
1.64094e-11
1.6407e-11
1.64079e-11
1.64066e-11
1.6407e-11
1.64065e-11
1.64065e-11
1.64069e-11
1.64065e-11
1.64079e-11
1.6407e-11
1.64094e-11
1.64082e-11
1.64121e-11
1.6411e-11
1.64169e-11
1.64166e-11
1.64252e-11
1.64276e-11
1.64336e-11
1.64395e-11
1.64522e-11
1.64855e-11
1.6495e-11
1.65997e-11
1.66396e-11
1.68385e-11
1.69561e-11
1.7203e-11
1.75927e-11
1.79862e-11
1.46778e-11
1.44249e-11
1.41963e-11
1.40326e-11
1.39348e-11
1.38233e-11
1.37952e-11
1.3727e-11
1.37158e-11
1.36872e-11
1.36746e-11
1.36689e-11
1.36623e-11
1.36592e-11
1.36527e-11
1.36522e-11
1.36478e-11
1.36481e-11
1.36454e-11
1.36459e-11
1.36442e-11
1.36447e-11
1.36437e-11
1.36439e-11
1.36436e-11
1.36436e-11
1.36439e-11
1.36436e-11
1.36446e-11
1.36442e-11
1.36459e-11
1.36454e-11
1.36481e-11
1.36478e-11
1.36522e-11
1.36528e-11
1.36593e-11
1.36623e-11
1.3669e-11
1.36747e-11
1.36872e-11
1.37158e-11
1.37268e-11
1.3795e-11
1.38231e-11
1.39347e-11
1.40325e-11
1.41965e-11
1.442e-11
1.46807e-11
1.28999e-11
1.27388e-11
1.25953e-11
1.24933e-11
1.24274e-11
1.23592e-11
1.23379e-11
1.22965e-11
1.22876e-11
1.22697e-11
1.22614e-11
1.22583e-11
1.22535e-11
1.22513e-11
1.22472e-11
1.22467e-11
1.22439e-11
1.2244e-11
1.22424e-11
1.22426e-11
1.22415e-11
1.22418e-11
1.22411e-11
1.22413e-11
1.22411e-11
1.22411e-11
1.22413e-11
1.22411e-11
1.22417e-11
1.22415e-11
1.22426e-11
1.22424e-11
1.2244e-11
1.22439e-11
1.22467e-11
1.22472e-11
1.22514e-11
1.22535e-11
1.22584e-11
1.22614e-11
1.22697e-11
1.22876e-11
1.22964e-11
1.23378e-11
1.23591e-11
1.24273e-11
1.24933e-11
1.25954e-11
1.27352e-11
1.2902e-11
1.23105e-11
1.22058e-11
1.21159e-11
1.20533e-11
1.20048e-11
1.19639e-11
1.19452e-11
1.19208e-11
1.19127e-11
1.19014e-11
1.18955e-11
1.18939e-11
1.18903e-11
1.18887e-11
1.18859e-11
1.18854e-11
1.18835e-11
1.18836e-11
1.18826e-11
1.18828e-11
1.18819e-11
1.18821e-11
1.18816e-11
1.18818e-11
1.18816e-11
1.18816e-11
1.18818e-11
1.18816e-11
1.18821e-11
1.18819e-11
1.18828e-11
1.18826e-11
1.18836e-11
1.18835e-11
1.18854e-11
1.18859e-11
1.18887e-11
1.18903e-11
1.18939e-11
1.18955e-11
1.19014e-11
1.19127e-11
1.19207e-11
1.19451e-11
1.19638e-11
1.20048e-11
1.20533e-11
1.2116e-11
1.22029e-11
1.23125e-11
1.25631e-11
1.24804e-11
1.24113e-11
1.2365e-11
1.23218e-11
1.22927e-11
1.22737e-11
1.22566e-11
1.22483e-11
1.22398e-11
1.22347e-11
1.22337e-11
1.22305e-11
1.2229e-11
1.22267e-11
1.22262e-11
1.22247e-11
1.22247e-11
1.22241e-11
1.22241e-11
1.22234e-11
1.22235e-11
1.22231e-11
1.22233e-11
1.22231e-11
1.22231e-11
1.22233e-11
1.22231e-11
1.22235e-11
1.22234e-11
1.22241e-11
1.22241e-11
1.22247e-11
1.22247e-11
1.22262e-11
1.22267e-11
1.22291e-11
1.22305e-11
1.22337e-11
1.22348e-11
1.22398e-11
1.22483e-11
1.22566e-11
1.22737e-11
1.22926e-11
1.23217e-11
1.2365e-11
1.24114e-11
1.24781e-11
1.25647e-11
1.32502e-11
1.31627e-11
1.30911e-11
1.30403e-11
1.29941e-11
1.29621e-11
1.29417e-11
1.29233e-11
1.29144e-11
1.29054e-11
1.29002e-11
1.28987e-11
1.28951e-11
1.28936e-11
1.2891e-11
1.28904e-11
1.28888e-11
1.28888e-11
1.28882e-11
1.28883e-11
1.28875e-11
1.28877e-11
1.28872e-11
1.28874e-11
1.28872e-11
1.28872e-11
1.28873e-11
1.28872e-11
1.28876e-11
1.28875e-11
1.28883e-11
1.28882e-11
1.28888e-11
1.28888e-11
1.28905e-11
1.2891e-11
1.28936e-11
1.28952e-11
1.28987e-11
1.29002e-11
1.29054e-11
1.29144e-11
1.29233e-11
1.29417e-11
1.29621e-11
1.2994e-11
1.30403e-11
1.30912e-11
1.31609e-11
1.32514e-11
1.39547e-11
1.38418e-11
1.37488e-11
1.36786e-11
1.36256e-11
1.35834e-11
1.35619e-11
1.35359e-11
1.35265e-11
1.35147e-11
1.35089e-11
1.35062e-11
1.35018e-11
1.34999e-11
1.34968e-11
1.34961e-11
1.3494e-11
1.3494e-11
1.34932e-11
1.34934e-11
1.34925e-11
1.34926e-11
1.34921e-11
1.34922e-11
1.3492e-11
1.3492e-11
1.34922e-11
1.34921e-11
1.34926e-11
1.34924e-11
1.34934e-11
1.34932e-11
1.3494e-11
1.3494e-11
1.34961e-11
1.34968e-11
1.35e-11
1.35018e-11
1.35062e-11
1.35089e-11
1.35147e-11
1.35264e-11
1.35358e-11
1.35618e-11
1.35833e-11
1.36255e-11
1.36786e-11
1.3749e-11
1.38404e-11
1.39555e-11
1.42834e-11
1.41367e-11
1.40208e-11
1.39242e-11
1.38648e-11
1.38069e-11
1.37855e-11
1.37489e-11
1.37396e-11
1.37239e-11
1.37176e-11
1.37132e-11
1.37079e-11
1.37057e-11
1.37017e-11
1.37011e-11
1.36984e-11
1.36984e-11
1.36971e-11
1.36974e-11
1.36963e-11
1.36965e-11
1.36958e-11
1.3696e-11
1.36957e-11
1.36957e-11
1.3696e-11
1.36958e-11
1.36965e-11
1.36962e-11
1.36974e-11
1.36971e-11
1.36984e-11
1.36984e-11
1.37011e-11
1.37018e-11
1.37057e-11
1.3708e-11
1.37133e-11
1.37176e-11
1.37239e-11
1.37396e-11
1.37488e-11
1.37854e-11
1.38068e-11
1.38647e-11
1.39242e-11
1.40211e-11
1.41357e-11
1.42839e-11
1.39295e-11
1.37523e-11
1.36169e-11
1.34958e-11
1.34336e-11
1.33605e-11
1.33409e-11
1.32941e-11
1.32859e-11
1.32666e-11
1.32599e-11
1.32539e-11
1.3248e-11
1.32454e-11
1.32409e-11
1.32402e-11
1.32372e-11
1.32371e-11
1.32352e-11
1.32354e-11
1.32341e-11
1.32343e-11
1.32336e-11
1.32338e-11
1.32335e-11
1.32335e-11
1.32338e-11
1.32336e-11
1.32343e-11
1.32341e-11
1.32353e-11
1.32352e-11
1.32371e-11
1.32372e-11
1.32402e-11
1.32409e-11
1.32454e-11
1.3248e-11
1.3254e-11
1.32599e-11
1.32666e-11
1.32858e-11
1.3294e-11
1.33408e-11
1.33604e-11
1.34335e-11
1.34957e-11
1.36172e-11
1.37516e-11
1.39298e-11
1.27245e-11
1.25313e-11
1.23889e-11
1.22546e-11
1.21949e-11
1.21134e-11
1.20971e-11
1.20446e-11
1.20379e-11
1.20167e-11
1.20101e-11
1.2003e-11
1.1997e-11
1.19942e-11
1.19896e-11
1.19888e-11
1.19857e-11
1.19856e-11
1.19833e-11
1.1983e-11
1.19817e-11
1.19819e-11
1.19812e-11
1.19813e-11
1.19811e-11
1.19811e-11
1.19813e-11
1.19811e-11
1.19819e-11
1.19816e-11
1.1983e-11
1.19833e-11
1.19857e-11
1.19857e-11
1.19888e-11
1.19896e-11
1.19942e-11
1.1997e-11
1.2003e-11
1.20102e-11
1.20167e-11
1.20378e-11
1.20444e-11
1.2097e-11
1.21132e-11
1.21947e-11
1.22545e-11
1.23892e-11
1.2531e-11
1.27245e-11
1.07977e-11
1.06114e-11
1.04796e-11
1.03494e-11
1.02969e-11
1.02184e-11
1.02055e-11
1.01546e-11
1.01495e-11
1.01291e-11
1.01231e-11
1.01156e-11
1.01102e-11
1.01074e-11
1.01033e-11
1.01025e-11
1.00997e-11
1.00996e-11
1.00985e-11
1.00995e-11
1.00985e-11
1.00987e-11
1.0098e-11
1.00981e-11
1.00979e-11
1.00979e-11
1.00981e-11
1.0098e-11
1.00987e-11
1.00985e-11
1.00995e-11
1.00985e-11
1.00996e-11
1.00997e-11
1.01025e-11
1.01033e-11
1.01075e-11
1.01103e-11
1.01156e-11
1.01231e-11
1.01291e-11
1.01495e-11
1.01545e-11
1.02054e-11
1.02183e-11
1.02968e-11
1.03493e-11
1.04799e-11
1.06113e-11
1.07974e-11
8.74469e-12
8.5846e-12
8.47889e-12
8.371e-12
8.32781e-12
8.26401e-12
8.25298e-12
8.2114e-12
8.20708e-12
8.19027e-12
8.18505e-12
8.17813e-12
8.17389e-12
8.17143e-12
8.16813e-12
8.16734e-12
8.16516e-12
8.16506e-12
8.16447e-12
8.16489e-12
8.16403e-12
8.16417e-12
8.16366e-12
8.16372e-12
8.16355e-12
8.16355e-12
8.1637e-12
8.16362e-12
8.16415e-12
8.16401e-12
8.16488e-12
8.16445e-12
8.16507e-12
8.16514e-12
8.16734e-12
8.16815e-12
8.17147e-12
8.17394e-12
8.17819e-12
8.18509e-12
8.19027e-12
8.20704e-12
8.21131e-12
8.25288e-12
8.2639e-12
8.32771e-12
8.37094e-12
8.47906e-12
8.58474e-12
8.74425e-12
7.37215e-12
7.24036e-12
7.15857e-12
7.07714e-12
7.04025e-12
6.99055e-12
6.97914e-12
6.94806e-12
6.94343e-12
6.93055e-12
6.9268e-12
6.92161e-12
6.91829e-12
6.91615e-12
6.91358e-12
6.91282e-12
6.91116e-12
6.91105e-12
6.91059e-12
6.91071e-12
6.90999e-12
6.91008e-12
6.90966e-12
6.90971e-12
6.90957e-12
6.90956e-12
6.90969e-12
6.90964e-12
6.91007e-12
6.90999e-12
6.9107e-12
6.91059e-12
6.91105e-12
6.91115e-12
6.91282e-12
6.91359e-12
6.91618e-12
6.91833e-12
6.92165e-12
6.92683e-12
6.93055e-12
6.9434e-12
6.94799e-12
6.97906e-12
6.99046e-12
7.04017e-12
7.07709e-12
7.15868e-12
7.24049e-12
7.37179e-12
6.96139e-12
6.83392e-12
6.76537e-12
6.69495e-12
6.65953e-12
6.61713e-12
6.60466e-12
6.57846e-12
6.57327e-12
6.56214e-12
6.55848e-12
6.5536e-12
6.55059e-12
6.54856e-12
6.54626e-12
6.5455e-12
6.54405e-12
6.54393e-12
6.54345e-12
6.54345e-12
6.54279e-12
6.54285e-12
6.54246e-12
6.5425e-12
6.54236e-12
6.54236e-12
6.54248e-12
6.54243e-12
6.54284e-12
6.54278e-12
6.54344e-12
6.54345e-12
6.54393e-12
6.54404e-12
6.54549e-12
6.54627e-12
6.54858e-12
6.55063e-12
6.55364e-12
6.55852e-12
6.56214e-12
6.57325e-12
6.5784e-12
6.60459e-12
6.61706e-12
6.65947e-12
6.6949e-12
6.76544e-12
6.83402e-12
6.96107e-12
)
;

boundaryField
{
    fuel
    {
        type            fixedValue;
        value           nonuniform 0();
    }
    wall
    {
        type            zeroGradient;
    }
    outlet
    {
        type            zeroGradient;
    }
    frontAndBack
    {
        type            empty;
    }
    procBoundary3to2
    {
        type            processor;
        value           nonuniform List<scalar> 
51
(
1.28651e-09
1.28583e-09
1.28551e-09
1.28507e-09
1.28495e-09
1.28466e-09
1.28463e-09
1.28445e-09
1.28445e-09
1.28434e-09
1.28436e-09
1.2843e-09
1.28431e-09
1.28429e-09
1.28429e-09
1.28431e-09
1.2843e-09
1.28436e-09
1.28434e-09
1.28445e-09
1.28445e-09
1.28463e-09
1.28466e-09
1.28495e-09
1.28507e-09
1.28552e-09
1.28584e-09
1.28651e-09
1.28726e-09
1.28844e-09
1.29027e-09
1.29235e-09
1.29609e-09
1.2999e-09
1.30749e-09
1.31581e-09
1.32549e-09
1.34189e-09
1.351e-09
1.24166e-09
1.23274e-09
1.21681e-09
1.20754e-09
1.19968e-09
1.1925e-09
1.18886e-09
1.18533e-09
1.18338e-09
1.18165e-09
1.18053e-09
1.18053e-09
)
;
    }
}


// ************************************************************************* //
