/*--------------------------------*- C++ -*----------------------------------*\
| =========                 |                                                 |
| \\      /  F ield         | OpenFOAM: The Open Source CFD Toolbox           |
|  \\    /   O peration     | Version:  dev                                   |
|   \\  /    A nd           | Web:      www.OpenFOAM.org                      |
|    \\/     M anipulation  |                                                 |
\*---------------------------------------------------------------------------*/
FoamFile
{
    version     2.0;
    format      ascii;
    class       volScalarField;
    location    "0.095";
    object      A2-2;
}
// * * * * * * * * * * * * * * * * * * * * * * * * * * * * * * * * * * * * * //

dimensions      [0 0 0 0 0 0 0];

internalField   nonuniform List<scalar> 
1989
(
2.01433e-10
2.0136e-10
2.01327e-10
2.01278e-10
2.01267e-10
2.01235e-10
2.01233e-10
2.01213e-10
2.01214e-10
2.01202e-10
2.01204e-10
2.01198e-10
2.01199e-10
2.01197e-10
2.01197e-10
2.01199e-10
2.01198e-10
2.01204e-10
2.01202e-10
2.01214e-10
2.01213e-10
2.01233e-10
2.01235e-10
2.01267e-10
2.01279e-10
2.01328e-10
2.0136e-10
2.01433e-10
2.01514e-10
2.01644e-10
2.01845e-10
2.0207e-10
2.02486e-10
2.02909e-10
2.03755e-10
2.04665e-10
2.05745e-10
2.07598e-10
2.08603e-10
1.95557e-10
1.94511e-10
1.92596e-10
1.91504e-10
1.90593e-10
1.89745e-10
1.89316e-10
1.88901e-10
1.88679e-10
1.88477e-10
1.88347e-10
1.88266e-10
1.88193e-10
1.88161e-10
1.88112e-10
1.88101e-10
1.88069e-10
1.88067e-10
1.88047e-10
1.88048e-10
1.88036e-10
1.88038e-10
1.88032e-10
1.88033e-10
1.88031e-10
1.88031e-10
1.88033e-10
1.88032e-10
1.88038e-10
1.88036e-10
1.88048e-10
1.88047e-10
1.88067e-10
1.88069e-10
1.88101e-10
1.88112e-10
1.88162e-10
1.88193e-10
1.88266e-10
1.88347e-10
1.88478e-10
1.88678e-10
1.889e-10
1.89315e-10
1.89744e-10
1.90592e-10
1.91503e-10
1.92595e-10
1.9451e-10
1.95555e-10
1.82434e-10
1.81365e-10
1.79401e-10
1.78312e-10
1.77412e-10
1.76571e-10
1.76146e-10
1.75734e-10
1.75518e-10
1.75318e-10
1.75189e-10
1.75109e-10
1.75037e-10
1.75006e-10
1.74958e-10
1.74947e-10
1.74915e-10
1.74913e-10
1.74893e-10
1.74895e-10
1.74883e-10
1.74885e-10
1.74879e-10
1.7488e-10
1.74878e-10
1.74878e-10
1.7488e-10
1.74878e-10
1.74885e-10
1.74883e-10
1.74895e-10
1.74893e-10
1.74913e-10
1.74915e-10
1.74947e-10
1.74958e-10
1.75007e-10
1.75038e-10
1.75109e-10
1.75189e-10
1.75319e-10
1.75517e-10
1.75734e-10
1.76144e-10
1.7657e-10
1.77412e-10
1.78311e-10
1.794e-10
1.81364e-10
1.82431e-10
1.69239e-10
1.68149e-10
1.66133e-10
1.65053e-10
1.64166e-10
1.63333e-10
1.62918e-10
1.6251e-10
1.62299e-10
1.62103e-10
1.61976e-10
1.61897e-10
1.61827e-10
1.61797e-10
1.61749e-10
1.61739e-10
1.61707e-10
1.61706e-10
1.61686e-10
1.61687e-10
1.61676e-10
1.61678e-10
1.61671e-10
1.61673e-10
1.61671e-10
1.61671e-10
1.61673e-10
1.61671e-10
1.61678e-10
1.61675e-10
1.61687e-10
1.61686e-10
1.61706e-10
1.61707e-10
1.61739e-10
1.61749e-10
1.61797e-10
1.61827e-10
1.61897e-10
1.61975e-10
1.62104e-10
1.62299e-10
1.62509e-10
1.62917e-10
1.63332e-10
1.64165e-10
1.65052e-10
1.66132e-10
1.68148e-10
1.69236e-10
1.56038e-10
1.54958e-10
1.53206e-10
1.52162e-10
1.51303e-10
1.50492e-10
1.50097e-10
1.49696e-10
1.49496e-10
1.49305e-10
1.49182e-10
1.49106e-10
1.49038e-10
1.4901e-10
1.48963e-10
1.48954e-10
1.48923e-10
1.48922e-10
1.48902e-10
1.48904e-10
1.48893e-10
1.48895e-10
1.48889e-10
1.4889e-10
1.48888e-10
1.48888e-10
1.4889e-10
1.48888e-10
1.48894e-10
1.48892e-10
1.48904e-10
1.48902e-10
1.48922e-10
1.48923e-10
1.48954e-10
1.48963e-10
1.4901e-10
1.49039e-10
1.49106e-10
1.49181e-10
1.49306e-10
1.49495e-10
1.49696e-10
1.50096e-10
1.50491e-10
1.51302e-10
1.52161e-10
1.53205e-10
1.54957e-10
1.56036e-10
1.43394e-10
1.4233e-10
1.40558e-10
1.39506e-10
1.38656e-10
1.3785e-10
1.37466e-10
1.37068e-10
1.36874e-10
1.36686e-10
1.36566e-10
1.36491e-10
1.36425e-10
1.36397e-10
1.36352e-10
1.36342e-10
1.36313e-10
1.36311e-10
1.36292e-10
1.36294e-10
1.36283e-10
1.36285e-10
1.36279e-10
1.3628e-10
1.36278e-10
1.36278e-10
1.3628e-10
1.36279e-10
1.36285e-10
1.36283e-10
1.36294e-10
1.36292e-10
1.36311e-10
1.36313e-10
1.36343e-10
1.36352e-10
1.36398e-10
1.36426e-10
1.36491e-10
1.36565e-10
1.36687e-10
1.36873e-10
1.37068e-10
1.37465e-10
1.37848e-10
1.38655e-10
1.39505e-10
1.40558e-10
1.42329e-10
1.43392e-10
1.31117e-10
1.3007e-10
1.28338e-10
1.27323e-10
1.26516e-10
1.25741e-10
1.25382e-10
1.24999e-10
1.24816e-10
1.24636e-10
1.24522e-10
1.24451e-10
1.24389e-10
1.24362e-10
1.24319e-10
1.24311e-10
1.24282e-10
1.24281e-10
1.24263e-10
1.24264e-10
1.24254e-10
1.24256e-10
1.2425e-10
1.24251e-10
1.24249e-10
1.24249e-10
1.24251e-10
1.2425e-10
1.24256e-10
1.24254e-10
1.24264e-10
1.24263e-10
1.24281e-10
1.24282e-10
1.24311e-10
1.24319e-10
1.24363e-10
1.24389e-10
1.24451e-10
1.24521e-10
1.24638e-10
1.24816e-10
1.24998e-10
1.25381e-10
1.2574e-10
1.26515e-10
1.27322e-10
1.28338e-10
1.30068e-10
1.31114e-10
1.19288e-10
1.18258e-10
1.16596e-10
1.15615e-10
1.14855e-10
1.14117e-10
1.13783e-10
1.13416e-10
1.13247e-10
1.13076e-10
1.12968e-10
1.12902e-10
1.12843e-10
1.12818e-10
1.12777e-10
1.1277e-10
1.12743e-10
1.12742e-10
1.12725e-10
1.12726e-10
1.12716e-10
1.12718e-10
1.12713e-10
1.12714e-10
1.12712e-10
1.12712e-10
1.12714e-10
1.12712e-10
1.12718e-10
1.12716e-10
1.12726e-10
1.12725e-10
1.12742e-10
1.12743e-10
1.1277e-10
1.12777e-10
1.12819e-10
1.12843e-10
1.12902e-10
1.12967e-10
1.13077e-10
1.13247e-10
1.13416e-10
1.13782e-10
1.14116e-10
1.14855e-10
1.15614e-10
1.16596e-10
1.18257e-10
1.19285e-10
1.07788e-10
1.06785e-10
1.05202e-10
1.04247e-10
1.03532e-10
1.02831e-10
1.02521e-10
1.02171e-10
1.02014e-10
1.01851e-10
1.0175e-10
1.01687e-10
1.01632e-10
1.01609e-10
1.0157e-10
1.01564e-10
1.01538e-10
1.01538e-10
1.01521e-10
1.01523e-10
1.01513e-10
1.01515e-10
1.0151e-10
1.01511e-10
1.0151e-10
1.0151e-10
1.01511e-10
1.0151e-10
1.01515e-10
1.01513e-10
1.01523e-10
1.01521e-10
1.01538e-10
1.01538e-10
1.01564e-10
1.01571e-10
1.0161e-10
1.01632e-10
1.01687e-10
1.01749e-10
1.01852e-10
1.02013e-10
1.02171e-10
1.0252e-10
1.0283e-10
1.03532e-10
1.04246e-10
1.05203e-10
1.06784e-10
1.07785e-10
9.6789e-11
9.58284e-11
9.43582e-11
9.34348e-11
9.27745e-11
9.2122e-11
9.18384e-11
9.15114e-11
9.13678e-11
9.12155e-11
9.11225e-11
9.10645e-11
9.10135e-11
9.0993e-11
9.09571e-11
9.0951e-11
9.09275e-11
9.0927e-11
9.09121e-11
9.09137e-11
9.09047e-11
9.09065e-11
9.09017e-11
9.09028e-11
9.09012e-11
9.09012e-11
9.09027e-11
9.09015e-11
9.09064e-11
9.09046e-11
9.09136e-11
9.09121e-11
9.0927e-11
9.09275e-11
9.0951e-11
9.09574e-11
9.09933e-11
9.10138e-11
9.10645e-11
9.11218e-11
9.12163e-11
9.13674e-11
9.15107e-11
9.18375e-11
9.21211e-11
9.27739e-11
9.3434e-11
9.43589e-11
9.58271e-11
9.67867e-11
8.64058e-11
8.54942e-11
8.41381e-11
8.34284e-11
8.28215e-11
8.22135e-11
8.19571e-11
8.16508e-11
8.15205e-11
8.13795e-11
8.12937e-11
8.12404e-11
8.11934e-11
8.1175e-11
8.11419e-11
8.11366e-11
8.11148e-11
8.11146e-11
8.11008e-11
8.11024e-11
8.10941e-11
8.10959e-11
8.10914e-11
8.10924e-11
8.10909e-11
8.10909e-11
8.10923e-11
8.10912e-11
8.10957e-11
8.1094e-11
8.11024e-11
8.11008e-11
8.11146e-11
8.11148e-11
8.11366e-11
8.11421e-11
8.11753e-11
8.11937e-11
8.12404e-11
8.12932e-11
8.138e-11
8.15201e-11
8.16502e-11
8.19562e-11
8.22126e-11
8.28209e-11
8.34277e-11
8.41388e-11
8.5493e-11
8.64036e-11
7.68302e-11
7.59718e-11
7.47176e-11
7.40523e-11
7.3498e-11
7.29358e-11
7.27061e-11
7.24213e-11
7.23041e-11
7.21744e-11
7.20958e-11
7.20448e-11
7.19996e-11
7.1982e-11
7.19501e-11
7.19451e-11
7.19241e-11
7.1924e-11
7.19107e-11
7.19123e-11
7.19042e-11
7.1906e-11
7.19016e-11
7.19027e-11
7.19012e-11
7.19011e-11
7.19026e-11
7.19014e-11
7.19058e-11
7.19041e-11
7.19122e-11
7.19107e-11
7.19241e-11
7.19241e-11
7.19452e-11
7.19503e-11
7.19823e-11
7.19999e-11
7.20448e-11
7.20955e-11
7.21747e-11
7.23037e-11
7.24207e-11
7.27053e-11
7.29349e-11
7.34974e-11
7.40517e-11
7.47184e-11
7.59706e-11
7.68281e-11
6.78037e-11
6.69817e-11
6.58041e-11
6.51812e-11
6.4671e-11
6.416e-11
6.39555e-11
6.36946e-11
6.359e-11
6.34722e-11
6.3401e-11
6.33546e-11
6.33135e-11
6.32978e-11
6.32689e-11
6.32646e-11
6.32455e-11
6.32455e-11
6.32334e-11
6.32349e-11
6.32276e-11
6.32292e-11
6.32252e-11
6.32262e-11
6.32248e-11
6.32248e-11
6.32261e-11
6.3225e-11
6.32291e-11
6.32275e-11
6.32349e-11
6.32334e-11
6.32455e-11
6.32455e-11
6.32646e-11
6.32691e-11
6.32981e-11
6.33138e-11
6.33546e-11
6.34009e-11
6.34724e-11
6.35897e-11
6.36941e-11
6.39547e-11
6.41593e-11
6.46705e-11
6.51806e-11
6.58049e-11
6.69804e-11
6.78016e-11
5.93518e-11
5.85867e-11
5.75211e-11
5.69509e-11
5.64899e-11
5.603e-11
5.58494e-11
5.56127e-11
5.55201e-11
5.5414e-11
5.53502e-11
5.53081e-11
5.52711e-11
5.52572e-11
5.52312e-11
5.52275e-11
5.52103e-11
5.52104e-11
5.51995e-11
5.52009e-11
5.51943e-11
5.51958e-11
5.51922e-11
5.51931e-11
5.51919e-11
5.51918e-11
5.5193e-11
5.51921e-11
5.51957e-11
5.51942e-11
5.52009e-11
5.51995e-11
5.52104e-11
5.52103e-11
5.52275e-11
5.52314e-11
5.52574e-11
5.52714e-11
5.53081e-11
5.53502e-11
5.54141e-11
5.55198e-11
5.56122e-11
5.58487e-11
5.60293e-11
5.64894e-11
5.69504e-11
5.75219e-11
5.85851e-11
5.93503e-11
5.16815e-11
5.0968e-11
5.00132e-11
4.94893e-11
4.90783e-11
4.86633e-11
4.85062e-11
4.82914e-11
4.82106e-11
4.81153e-11
4.80585e-11
4.80205e-11
4.79872e-11
4.79751e-11
4.79518e-11
4.79487e-11
4.79332e-11
4.79335e-11
4.79237e-11
4.79251e-11
4.79191e-11
4.79205e-11
4.79172e-11
4.7918e-11
4.79169e-11
4.79169e-11
4.7918e-11
4.79171e-11
4.79204e-11
4.7919e-11
4.7925e-11
4.79237e-11
4.79335e-11
4.79332e-11
4.79487e-11
4.79519e-11
4.79753e-11
4.79875e-11
4.80205e-11
4.80586e-11
4.81153e-11
4.82103e-11
4.8291e-11
4.85056e-11
4.86627e-11
4.90779e-11
4.94888e-11
5.0014e-11
5.09661e-11
5.16804e-11
4.46343e-11
4.39837e-11
4.31357e-11
4.26534e-11
4.22883e-11
4.19039e-11
4.1765e-11
4.15668e-11
4.14952e-11
4.14083e-11
4.13571e-11
4.1322e-11
4.12917e-11
4.12809e-11
4.12597e-11
4.12571e-11
4.1243e-11
4.12434e-11
4.12344e-11
4.12358e-11
4.12303e-11
4.12316e-11
4.12287e-11
4.12294e-11
4.12284e-11
4.12284e-11
4.12293e-11
4.12285e-11
4.12315e-11
4.12303e-11
4.12358e-11
4.12344e-11
4.12434e-11
4.1243e-11
4.12571e-11
4.12598e-11
4.12811e-11
4.12919e-11
4.13221e-11
4.13571e-11
4.14082e-11
4.14949e-11
4.15664e-11
4.17644e-11
4.19033e-11
4.22879e-11
4.2653e-11
4.31363e-11
4.39815e-11
4.46336e-11
3.82066e-11
3.76186e-11
3.68713e-11
3.64325e-11
3.61159e-11
3.57717e-11
3.56532e-11
3.54759e-11
3.54145e-11
3.53375e-11
3.52929e-11
3.52613e-11
3.52343e-11
3.5225e-11
3.52063e-11
3.52042e-11
3.51917e-11
3.51922e-11
3.51843e-11
3.51856e-11
3.51807e-11
3.51819e-11
3.51793e-11
3.51799e-11
3.5179e-11
3.5179e-11
3.51799e-11
3.51791e-11
3.51818e-11
3.51807e-11
3.51855e-11
3.51843e-11
3.51922e-11
3.51917e-11
3.52042e-11
3.52064e-11
3.52252e-11
3.52344e-11
3.52614e-11
3.5293e-11
3.53375e-11
3.54142e-11
3.54755e-11
3.56527e-11
3.57712e-11
3.61155e-11
3.64322e-11
3.68718e-11
3.76162e-11
3.82064e-11
3.23829e-11
3.18565e-11
3.12041e-11
3.08097e-11
3.05379e-11
3.02325e-11
3.01327e-11
2.99755e-11
2.99236e-11
2.98561e-11
2.98176e-11
2.97893e-11
2.97652e-11
2.97574e-11
2.9741e-11
2.97394e-11
2.97284e-11
2.9729e-11
2.9722e-11
2.97233e-11
2.9719e-11
2.97201e-11
2.97178e-11
2.97183e-11
2.97175e-11
2.97175e-11
2.97183e-11
2.97176e-11
2.972e-11
2.97189e-11
2.97232e-11
2.9722e-11
2.9729e-11
2.97284e-11
2.97394e-11
2.97411e-11
2.97576e-11
2.97654e-11
2.97894e-11
2.98177e-11
2.9856e-11
2.99233e-11
2.99752e-11
3.01323e-11
3.02321e-11
3.05375e-11
3.08094e-11
3.12046e-11
3.1854e-11
3.2383e-11
2.71331e-11
2.66551e-11
2.60808e-11
2.57257e-11
2.54911e-11
2.52208e-11
2.51363e-11
2.49976e-11
2.49534e-11
2.48945e-11
2.48616e-11
2.48362e-11
2.48144e-11
2.48077e-11
2.47934e-11
2.47922e-11
2.47827e-11
2.47832e-11
2.47772e-11
2.47783e-11
2.47745e-11
2.47755e-11
2.47735e-11
2.4774e-11
2.47733e-11
2.47733e-11
2.4774e-11
2.47734e-11
2.47755e-11
2.47745e-11
2.47783e-11
2.47772e-11
2.47833e-11
2.47826e-11
2.47922e-11
2.47935e-11
2.48079e-11
2.48145e-11
2.48362e-11
2.48617e-11
2.48945e-11
2.49532e-11
2.49973e-11
2.51359e-11
2.52204e-11
2.54908e-11
2.57254e-11
2.60811e-11
2.66524e-11
2.71335e-11
2.246e-11
2.20388e-11
2.15474e-11
2.12356e-11
2.10384e-11
2.08035e-11
2.07343e-11
2.06138e-11
2.05774e-11
2.05269e-11
2.04994e-11
2.04771e-11
2.04572e-11
2.04517e-11
2.04395e-11
2.04386e-11
2.04304e-11
2.04311e-11
2.04258e-11
2.04269e-11
2.04237e-11
2.04245e-11
2.04228e-11
2.04232e-11
2.04226e-11
2.04226e-11
2.04232e-11
2.04227e-11
2.04245e-11
2.04236e-11
2.04268e-11
2.04258e-11
2.04311e-11
2.04304e-11
2.04386e-11
2.04396e-11
2.04519e-11
2.04574e-11
2.04772e-11
2.04994e-11
2.05269e-11
2.05772e-11
2.06136e-11
2.07339e-11
2.08031e-11
2.10381e-11
2.12354e-11
2.15476e-11
2.20361e-11
2.24604e-11
1.83308e-11
1.7963e-11
1.75487e-11
1.72788e-11
1.71152e-11
1.69138e-11
1.68581e-11
1.6755e-11
1.67254e-11
1.66828e-11
1.66602e-11
1.66413e-11
1.66225e-11
1.6618e-11
1.66077e-11
1.66071e-11
1.66002e-11
1.66008e-11
1.65964e-11
1.65973e-11
1.65946e-11
1.65954e-11
1.65939e-11
1.65943e-11
1.65938e-11
1.65937e-11
1.65942e-11
1.65938e-11
1.65953e-11
1.65946e-11
1.65973e-11
1.65964e-11
1.66008e-11
1.66002e-11
1.66071e-11
1.66078e-11
1.66181e-11
1.66226e-11
1.66414e-11
1.66602e-11
1.66827e-11
1.67252e-11
1.67547e-11
1.68578e-11
1.69135e-11
1.7115e-11
1.72787e-11
1.7549e-11
1.79606e-11
1.83312e-11
1.47242e-11
1.44056e-11
1.4063e-11
1.38329e-11
1.36993e-11
1.35292e-11
1.34854e-11
1.33985e-11
1.33749e-11
1.33396e-11
1.33214e-11
1.33062e-11
1.32875e-11
1.3284e-11
1.32754e-11
1.3275e-11
1.32693e-11
1.32699e-11
1.32662e-11
1.3267e-11
1.32647e-11
1.32654e-11
1.32642e-11
1.32645e-11
1.32641e-11
1.32641e-11
1.32645e-11
1.32641e-11
1.32654e-11
1.32647e-11
1.3267e-11
1.32662e-11
1.32699e-11
1.32692e-11
1.3275e-11
1.32755e-11
1.3284e-11
1.32876e-11
1.33062e-11
1.33215e-11
1.33396e-11
1.33747e-11
1.33983e-11
1.34852e-11
1.35289e-11
1.36991e-11
1.38328e-11
1.40632e-11
1.44036e-11
1.47243e-11
1.16147e-11
1.13468e-11
1.10677e-11
1.0875e-11
1.07676e-11
1.06268e-11
1.05933e-11
1.05215e-11
1.0503e-11
1.04744e-11
1.04603e-11
1.04488e-11
1.0429e-11
1.04262e-11
1.04193e-11
1.04191e-11
1.04144e-11
1.04149e-11
1.04119e-11
1.04127e-11
1.04108e-11
1.04114e-11
1.04103e-11
1.04106e-11
1.04103e-11
1.04103e-11
1.04106e-11
1.04103e-11
1.04113e-11
1.04108e-11
1.04126e-11
1.04119e-11
1.04149e-11
1.04144e-11
1.04191e-11
1.04193e-11
1.04263e-11
1.0429e-11
1.04488e-11
1.04603e-11
1.04744e-11
1.05029e-11
1.05213e-11
1.05931e-11
1.06266e-11
1.07675e-11
1.08749e-11
1.10678e-11
1.13443e-11
1.16156e-11
8.97599e-12
8.75312e-12
8.52327e-12
8.36251e-12
8.28302e-12
8.16103e-12
8.13538e-12
8.07706e-12
8.06247e-12
8.03965e-12
8.02901e-12
8.02099e-12
8.02165e-12
8.01965e-12
8.01412e-12
8.01407e-12
8.0103e-12
8.01082e-12
8.0084e-12
8.00903e-12
8.00755e-12
8.00803e-12
8.0072e-12
8.00744e-12
8.00716e-12
8.00715e-12
8.00741e-12
8.00716e-12
8.008e-12
8.00753e-12
8.00902e-12
8.0084e-12
8.01083e-12
8.01029e-12
8.01407e-12
8.01416e-12
8.01971e-12
8.0217e-12
8.02104e-12
8.02904e-12
8.03962e-12
8.06236e-12
8.07693e-12
8.13522e-12
8.16085e-12
8.28288e-12
8.36243e-12
8.52336e-12
8.7502e-12
8.97747e-12
6.78848e-12
6.61198e-12
6.43086e-12
6.30099e-12
6.24123e-12
6.14276e-12
6.12423e-12
6.07848e-12
6.06729e-12
6.04976e-12
6.04218e-12
6.03709e-12
6.03626e-12
6.03485e-12
6.03057e-12
6.03063e-12
6.0277e-12
6.02815e-12
6.02626e-12
6.0268e-12
6.02564e-12
6.02604e-12
6.02539e-12
6.02558e-12
6.02536e-12
6.02536e-12
6.02555e-12
6.02535e-12
6.02601e-12
6.02563e-12
6.02679e-12
6.02626e-12
6.02816e-12
6.02768e-12
6.03062e-12
6.0306e-12
6.03489e-12
6.0363e-12
6.03713e-12
6.04221e-12
6.04973e-12
6.0672e-12
6.07838e-12
6.1241e-12
6.14262e-12
6.24113e-12
6.30093e-12
6.43093e-12
6.60931e-12
6.78998e-12
5.0161e-12
4.87973e-12
4.73836e-12
4.63116e-12
4.58707e-12
4.51573e-12
4.50287e-12
4.46838e-12
4.45964e-12
4.44671e-12
4.44162e-12
4.43862e-12
4.43708e-12
4.43615e-12
4.43295e-12
4.43308e-12
4.43088e-12
4.43127e-12
4.42984e-12
4.43028e-12
4.42941e-12
4.42972e-12
4.42923e-12
4.42938e-12
4.42922e-12
4.42921e-12
4.42936e-12
4.4292e-12
4.4297e-12
4.42939e-12
4.43027e-12
4.42984e-12
4.43128e-12
4.43087e-12
4.43308e-12
4.43298e-12
4.43618e-12
4.43712e-12
4.43865e-12
4.44163e-12
4.44668e-12
4.45956e-12
4.46829e-12
4.50278e-12
4.51562e-12
4.58699e-12
4.63111e-12
4.73841e-12
4.87755e-12
5.01737e-12
3.59999e-12
3.49677e-12
3.3898e-12
3.32194e-12
3.29213e-12
3.23685e-12
3.22739e-12
3.19804e-12
3.19651e-12
3.18757e-12
3.18449e-12
3.1829e-12
3.18131e-12
3.18077e-12
3.17849e-12
3.17868e-12
3.17708e-12
3.17743e-12
3.17637e-12
3.17673e-12
3.1761e-12
3.17635e-12
3.17599e-12
3.17611e-12
3.17599e-12
3.17599e-12
3.1761e-12
3.17597e-12
3.17634e-12
3.17609e-12
3.17673e-12
3.17637e-12
3.17743e-12
3.17707e-12
3.17867e-12
3.1785e-12
3.18079e-12
3.18133e-12
3.18292e-12
3.1845e-12
3.18754e-12
3.19644e-12
3.19798e-12
3.22731e-12
3.23676e-12
3.29208e-12
3.32191e-12
3.38984e-12
3.49508e-12
3.601e-12
2.50795e-12
2.43341e-12
2.36832e-12
2.3179e-12
2.29095e-12
2.2571e-12
2.25091e-12
2.22958e-12
2.2273e-12
2.21852e-12
2.21506e-12
2.21313e-12
2.21113e-12
2.2103e-12
2.20838e-12
2.20828e-12
2.207e-12
2.20711e-12
2.20628e-12
2.20646e-12
2.20597e-12
2.20611e-12
2.20583e-12
2.20589e-12
2.2058e-12
2.2058e-12
2.20588e-12
2.20581e-12
2.2061e-12
2.20597e-12
2.20646e-12
2.20628e-12
2.20711e-12
2.20699e-12
2.20828e-12
2.2084e-12
2.21032e-12
2.21115e-12
2.21315e-12
2.21508e-12
2.21852e-12
2.22728e-12
2.22953e-12
2.25085e-12
2.25705e-12
2.2909e-12
2.31788e-12
2.36836e-12
2.43223e-12
2.50865e-12
1.70156e-12
1.64878e-12
1.60405e-12
1.5678e-12
1.54981e-12
1.52566e-12
1.5218e-12
1.50676e-12
1.50534e-12
1.49924e-12
1.49698e-12
1.49567e-12
1.49415e-12
1.49358e-12
1.49226e-12
1.4922e-12
1.49131e-12
1.49139e-12
1.4908e-12
1.49094e-12
1.4906e-12
1.49069e-12
1.4905e-12
1.49054e-12
1.49048e-12
1.49048e-12
1.49053e-12
1.49049e-12
1.49069e-12
1.49059e-12
1.49093e-12
1.4908e-12
1.49139e-12
1.4913e-12
1.4922e-12
1.49227e-12
1.4936e-12
1.49416e-12
1.49569e-12
1.49699e-12
1.49924e-12
1.50532e-12
1.50672e-12
1.52177e-12
1.52562e-12
1.54978e-12
1.56778e-12
1.60407e-12
1.64799e-12
1.70204e-12
1.11376e-12
1.07749e-12
1.04783e-12
1.02275e-12
1.01123e-12
9.945e-13
9.9224e-13
9.81991e-13
9.81165e-13
9.77072e-13
9.75654e-13
9.7476e-13
9.73691e-13
9.7332e-13
9.72438e-13
9.72406e-13
9.7181e-13
9.71869e-13
9.71467e-13
9.71558e-13
9.71333e-13
9.71398e-13
9.71271e-13
9.71297e-13
9.71256e-13
9.71255e-13
9.71291e-13
9.71262e-13
9.71393e-13
9.7133e-13
9.71556e-13
9.71467e-13
9.7187e-13
9.71807e-13
9.72405e-13
9.72445e-13
9.7333e-13
9.73702e-13
9.74771e-13
9.75661e-13
9.77071e-13
9.81153e-13
9.8197e-13
9.92214e-13
9.94472e-13
1.01121e-12
1.02274e-12
1.04786e-12
1.0769e-12
1.11414e-12
6.99444e-13
6.75411e-13
6.57052e-13
6.40467e-13
6.33445e-13
6.22132e-13
6.20902e-13
6.14211e-13
6.13769e-13
6.11135e-13
6.10281e-13
6.09681e-13
6.08983e-13
6.08748e-13
6.08187e-13
6.0817e-13
6.07789e-13
6.07827e-13
6.07562e-13
6.07621e-13
6.07479e-13
6.07521e-13
6.0744e-13
6.07456e-13
6.07431e-13
6.0743e-13
6.07453e-13
6.07435e-13
6.07518e-13
6.07477e-13
6.0762e-13
6.07563e-13
6.07829e-13
6.07788e-13
6.08169e-13
6.08192e-13
6.08755e-13
6.0899e-13
6.09688e-13
6.10286e-13
6.11133e-13
6.13761e-13
6.14197e-13
6.20885e-13
6.22113e-13
6.3343e-13
6.40462e-13
6.57069e-13
6.75081e-13
6.99638e-13
4.19946e-13
4.05163e-13
3.92613e-13
3.82361e-13
3.78297e-13
3.72261e-13
3.71648e-13
3.67497e-13
3.67283e-13
3.65669e-13
3.6518e-13
3.64792e-13
3.64367e-13
3.64225e-13
3.63887e-13
3.63877e-13
3.63647e-13
3.6367e-13
3.63502e-13
3.63538e-13
3.63453e-13
3.63478e-13
3.6343e-13
3.63439e-13
3.63424e-13
3.63424e-13
3.63437e-13
3.63426e-13
3.63476e-13
3.63452e-13
3.63537e-13
3.63503e-13
3.6367e-13
3.63646e-13
3.63877e-13
3.63889e-13
3.64229e-13
3.64372e-13
3.64797e-13
3.65183e-13
3.65668e-13
3.67278e-13
3.67488e-13
3.71638e-13
3.72249e-13
3.78288e-13
3.82358e-13
3.92624e-13
4.05012e-13
4.19996e-13
2.39918e-13
2.31459e-13
2.25269e-13
2.19237e-13
2.17027e-13
2.13464e-13
2.13186e-13
2.1075e-13
2.10658e-13
2.09721e-13
2.09455e-13
2.09217e-13
2.08975e-13
2.08892e-13
2.08699e-13
2.08694e-13
2.08562e-13
2.08575e-13
2.08475e-13
2.08494e-13
2.08446e-13
2.08461e-13
2.08433e-13
2.08438e-13
2.0843e-13
2.08429e-13
2.08437e-13
2.08431e-13
2.08459e-13
2.08445e-13
2.08494e-13
2.08475e-13
2.08575e-13
2.08562e-13
2.08694e-13
2.08701e-13
2.08894e-13
2.08977e-13
2.0922e-13
2.09456e-13
2.0972e-13
2.10655e-13
2.10745e-13
2.1318e-13
2.13457e-13
2.17022e-13
2.19236e-13
2.25276e-13
2.31392e-13
2.39977e-13
1.33099e-13
1.28457e-13
1.25097e-13
1.2174e-13
1.20592e-13
1.18598e-13
1.1848e-13
1.17125e-13
1.1709e-13
1.16572e-13
1.16434e-13
1.16296e-13
1.16165e-13
1.16119e-13
1.16015e-13
1.16011e-13
1.1594e-13
1.15946e-13
1.15889e-13
1.15899e-13
1.15873e-13
1.15881e-13
1.15866e-13
1.15868e-13
1.15864e-13
1.15864e-13
1.15868e-13
1.15865e-13
1.1588e-13
1.15872e-13
1.15899e-13
1.15889e-13
1.15947e-13
1.1594e-13
1.16011e-13
1.16016e-13
1.1612e-13
1.16166e-13
1.16297e-13
1.16435e-13
1.16572e-13
1.17088e-13
1.17122e-13
1.18477e-13
1.18594e-13
1.20589e-13
1.21739e-13
1.25101e-13
1.2843e-13
1.33119e-13
7.31868e-14
7.07253e-14
6.89591e-14
6.71639e-14
6.65788e-14
6.55055e-14
6.54532e-14
6.47285e-14
6.47146e-14
6.44387e-14
6.43688e-14
6.42919e-14
6.42236e-14
6.41985e-14
6.41439e-14
6.41415e-14
6.41042e-14
6.4107e-14
6.40755e-14
6.40789e-14
6.40652e-14
6.40692e-14
6.40615e-14
6.40628e-14
6.40604e-14
6.40603e-14
6.40624e-14
6.40609e-14
6.40689e-14
6.4065e-14
6.40788e-14
6.40756e-14
6.41072e-14
6.4104e-14
6.41415e-14
6.41443e-14
6.41991e-14
6.42243e-14
6.42928e-14
6.43693e-14
6.44386e-14
6.47137e-14
6.4727e-14
6.54514e-14
6.55036e-14
6.65773e-14
6.71634e-14
6.89614e-14
7.07143e-14
7.31931e-14
4.18483e-14
4.05339e-14
3.95992e-14
3.86445e-14
3.83346e-14
3.77602e-14
3.77292e-14
3.73447e-14
3.73361e-14
3.71895e-14
3.71535e-14
3.71106e-14
3.70745e-14
3.70604e-14
3.70316e-14
3.70298e-14
3.70101e-14
3.70112e-14
3.69934e-14
3.6992e-14
3.69841e-14
3.69862e-14
3.6982e-14
3.69827e-14
3.69814e-14
3.69813e-14
3.69825e-14
3.69817e-14
3.6986e-14
3.6984e-14
3.6992e-14
3.69935e-14
3.70113e-14
3.701e-14
3.70298e-14
3.70318e-14
3.70607e-14
3.70749e-14
3.7111e-14
3.71537e-14
3.71894e-14
3.73356e-14
3.73439e-14
3.77282e-14
3.77592e-14
3.83338e-14
3.86442e-14
3.96005e-14
4.05296e-14
4.18498e-14
2.67594e-14
2.5997e-14
2.54595e-14
2.49178e-14
2.47291e-14
2.44023e-14
2.4373e-14
2.41578e-14
2.41479e-14
2.4065e-14
2.40442e-14
2.4018e-14
2.39972e-14
2.39883e-14
2.39718e-14
2.39702e-14
2.39588e-14
2.39592e-14
2.39529e-14
2.39576e-14
2.39538e-14
2.39549e-14
2.39524e-14
2.39528e-14
2.3952e-14
2.3952e-14
2.39527e-14
2.39522e-14
2.39548e-14
2.39538e-14
2.39575e-14
2.39528e-14
2.39593e-14
2.39588e-14
2.39702e-14
2.39719e-14
2.39885e-14
2.39974e-14
2.40183e-14
2.40443e-14
2.4065e-14
2.41476e-14
2.41573e-14
2.43725e-14
2.44018e-14
2.47287e-14
2.49176e-14
2.54604e-14
2.59955e-14
2.67593e-14
2.03783e-14
1.9846e-14
1.94882e-14
1.91368e-14
1.89952e-14
1.87839e-14
1.87497e-14
1.86136e-14
1.86005e-14
1.85469e-14
1.8532e-14
1.85128e-14
1.84986e-14
1.84919e-14
1.84807e-14
1.84791e-14
1.84714e-14
1.84714e-14
1.84679e-14
1.84698e-14
1.84668e-14
1.84674e-14
1.84656e-14
1.84659e-14
1.84653e-14
1.84653e-14
1.84658e-14
1.84655e-14
1.84674e-14
1.84668e-14
1.84697e-14
1.84678e-14
1.84714e-14
1.84714e-14
1.8479e-14
1.84808e-14
1.8492e-14
1.84988e-14
1.8513e-14
1.85321e-14
1.85469e-14
1.86004e-14
1.86133e-14
1.87494e-14
1.87835e-14
1.89949e-14
1.91367e-14
1.94888e-14
1.9846e-14
2.03774e-14
1.82699e-14
1.7815e-14
1.75289e-14
1.72562e-14
1.71272e-14
1.69622e-14
1.69213e-14
1.68186e-14
1.6802e-14
1.67604e-14
1.67477e-14
1.67313e-14
1.67197e-14
1.67134e-14
1.67043e-14
1.67024e-14
1.66962e-14
1.66959e-14
1.66933e-14
1.6694e-14
1.66913e-14
1.66918e-14
1.66902e-14
1.66904e-14
1.66899e-14
1.66899e-14
1.66904e-14
1.66901e-14
1.66917e-14
1.66913e-14
1.6694e-14
1.66933e-14
1.6696e-14
1.66962e-14
1.67024e-14
1.67044e-14
1.67135e-14
1.67198e-14
1.67314e-14
1.67478e-14
1.67604e-14
1.68019e-14
1.68184e-14
1.6921e-14
1.69619e-14
1.71269e-14
1.72561e-14
1.75293e-14
1.78153e-14
1.82689e-14
1.78692e-14
1.74081e-14
1.71585e-14
1.69116e-14
1.67834e-14
1.66355e-14
1.65898e-14
1.64992e-14
1.64803e-14
1.64427e-14
1.64298e-14
1.64136e-14
1.64027e-14
1.63964e-14
1.6388e-14
1.63857e-14
1.638e-14
1.63797e-14
1.63772e-14
1.63774e-14
1.63748e-14
1.63752e-14
1.63737e-14
1.63739e-14
1.63734e-14
1.63733e-14
1.63738e-14
1.63736e-14
1.63751e-14
1.63748e-14
1.63774e-14
1.63772e-14
1.63797e-14
1.638e-14
1.63857e-14
1.6388e-14
1.63965e-14
1.64028e-14
1.64137e-14
1.64299e-14
1.64427e-14
1.64802e-14
1.6499e-14
1.65895e-14
1.66353e-14
1.67831e-14
1.69115e-14
1.71589e-14
1.74084e-14
1.78682e-14
)
;

boundaryField
{
    fuel
    {
        type            fixedValue;
        value           nonuniform 0();
    }
    wall
    {
        type            zeroGradient;
    }
    outlet
    {
        type            zeroGradient;
    }
    frontAndBack
    {
        type            empty;
    }
    procBoundary3to2
    {
        type            processor;
        value           nonuniform List<scalar> 
51
(
2.14475e-10
2.14403e-10
2.1437e-10
2.14322e-10
2.14311e-10
2.1428e-10
2.14277e-10
2.14258e-10
2.14259e-10
2.14247e-10
2.14249e-10
2.14243e-10
2.14244e-10
2.14242e-10
2.14242e-10
2.14244e-10
2.14243e-10
2.14249e-10
2.14247e-10
2.14259e-10
2.14258e-10
2.14277e-10
2.1428e-10
2.14311e-10
2.14322e-10
2.14371e-10
2.14403e-10
2.14476e-10
2.14556e-10
2.14683e-10
2.14882e-10
2.15106e-10
2.15518e-10
2.15931e-10
2.16764e-10
2.17661e-10
2.18712e-10
2.20486e-10
2.21436e-10
2.08605e-10
2.07599e-10
2.05746e-10
2.04666e-10
2.03755e-10
2.0291e-10
2.02487e-10
2.0207e-10
2.01846e-10
2.01643e-10
2.01514e-10
2.01514e-10
)
;
    }
}


// ************************************************************************* //
