/*--------------------------------*- C++ -*----------------------------------*\
| =========                 |                                                 |
| \\      /  F ield         | OpenFOAM: The Open Source CFD Toolbox           |
|  \\    /   O peration     | Version:  dev                                   |
|   \\  /    A nd           | Web:      www.OpenFOAM.org                      |
|    \\/     M anipulation  |                                                 |
\*---------------------------------------------------------------------------*/
FoamFile
{
    version     2.0;
    format      ascii;
    class       volScalarField;
    location    "0.095";
    object      A2C2HB*;
}
// * * * * * * * * * * * * * * * * * * * * * * * * * * * * * * * * * * * * * //

dimensions      [0 0 0 0 0 0 0];

internalField   nonuniform List<scalar> 
25
(
1.3965e-18
1.30273e-18
1.20671e-18
1.10895e-18
1.00724e-18
9.04613e-19
8.05253e-19
7.05837e-19
6.1003e-19
5.17953e-19
4.30963e-19
3.50308e-19
2.77113e-19
2.12341e-19
1.56741e-19
1.10544e-19
7.37841e-20
4.60233e-20
2.63862e-20
1.36098e-20
6.15101e-21
2.37013e-21
7.72772e-22
2.30238e-22
7.19505e-23
)
;

boundaryField
{
    wall
    {
        type            zeroGradient;
    }
    fuel
    {
        type            fixedValue;
        value           nonuniform 0();
    }
    outlet
    {
        type            inletOutlet;
        inletValue      uniform 0;
        value           uniform 7.19505e-23;
    }
    procBoundary3to2
    {
        type            processor;
        value           uniform 1.4881e-18;
    }
}


// ************************************************************************* //
