/*--------------------------------*- C++ -*----------------------------------*\
| =========                 |                                                 |
| \\      /  F ield         | OpenFOAM: The Open Source CFD Toolbox           |
|  \\    /   O peration     | Version:  dev                                   |
|   \\  /    A nd           | Web:      www.OpenFOAM.org                      |
|    \\/     M anipulation  |                                                 |
\*---------------------------------------------------------------------------*/
FoamFile
{
    version     2.0;
    format      ascii;
    class       volScalarField;
    location    "0.095";
    object      A2C2HA*;
}
// * * * * * * * * * * * * * * * * * * * * * * * * * * * * * * * * * * * * * //

dimensions      [0 0 0 0 0 0 0];

internalField   nonuniform List<scalar> 
250
(
9.6537e-10
9.6532e-10
9.65354e-10
9.65378e-10
9.65224e-10
9.65873e-10
9.65998e-10
9.70735e-10
1.00679e-09
1.2547e-09
8.32494e-12
5.63863e-10
5.63791e-10
5.63864e-10
5.63842e-10
5.6374e-10
5.64209e-10
5.64477e-10
5.69352e-10
6.07414e-10
9.19174e-10
6.37752e-12
2.74362e-10
2.74257e-10
2.74387e-10
2.74315e-10
2.74259e-10
2.74554e-10
2.74779e-10
2.78227e-10
3.04964e-10
5.43467e-10
2.33059e-12
1.38378e-10
1.38275e-10
1.38407e-10
1.38326e-10
1.38301e-10
1.38487e-10
1.38654e-10
1.40956e-10
1.59161e-10
3.32261e-10
7.95951e-13
7.67782e-11
7.66939e-11
7.67962e-11
7.67239e-11
7.67328e-11
7.68397e-11
7.69493e-11
7.84325e-11
9.13998e-11
2.21657e-10
3.56197e-13
4.62064e-11
4.61287e-11
4.61854e-11
4.61089e-11
4.62318e-11
4.62631e-11
4.64382e-11
4.80891e-11
5.82659e-11
1.61461e-10
2.23733e-13
3.10135e-11
3.09351e-11
3.09647e-11
3.08904e-11
3.10658e-11
3.10566e-11
3.1206e-11
3.25335e-11
4.07782e-11
1.22064e-10
1.79742e-13
2.2441e-11
2.23245e-11
2.23441e-11
2.22621e-11
2.24952e-11
2.24766e-11
2.26166e-11
2.37899e-11
3.03172e-11
9.88099e-11
1.81189e-13
1.71888e-11
1.69382e-11
1.69587e-11
1.69678e-11
1.72568e-11
1.72328e-11
1.73097e-11
1.80807e-11
2.40412e-11
8.12295e-11
2.29825e-13
1.33849e-11
1.34378e-11
1.34369e-11
1.35038e-11
1.342e-11
1.34045e-11
1.34749e-11
1.41585e-11
1.9741e-11
6.84696e-11
3.61198e-13
1.0975e-11
1.10158e-11
1.11349e-11
1.10868e-11
1.10789e-11
1.11429e-11
1.17646e-11
1.63284e-11
5.82547e-11
6.21232e-13
9.18469e-12
9.28105e-12
9.21904e-12
9.19414e-12
9.19351e-12
9.25177e-12
9.86193e-12
1.40453e-11
4.98591e-11
1.07906e-12
7.83712e-12
7.83388e-12
7.78359e-12
7.7735e-12
7.77781e-12
7.83144e-12
8.38986e-12
1.22257e-11
4.28555e-11
1.68344e-12
6.75147e-12
6.71169e-12
6.67019e-12
6.66928e-12
6.67652e-12
6.72669e-12
7.23942e-12
1.05687e-11
3.67338e-11
2.3895e-12
5.83186e-12
5.81456e-12
5.7806e-12
5.78499e-12
5.79373e-12
5.84131e-12
6.31338e-12
9.34818e-12
3.17263e-11
3.21034e-12
5.08498e-12
5.07933e-12
5.05179e-12
5.05886e-12
5.06821e-12
5.11366e-12
5.54797e-12
8.20895e-12
2.67868e-11
4.12623e-12
4.4647e-12
4.46425e-12
4.44203e-12
4.45023e-12
4.45969e-12
4.50309e-12
4.90138e-12
7.19183e-12
2.23917e-11
5.05094e-12
3.93947e-12
3.94089e-12
3.923e-12
3.9315e-12
3.94083e-12
3.98208e-12
4.34482e-12
6.30738e-12
1.90939e-11
5.85659e-12
3.48746e-12
3.48934e-12
3.47491e-12
3.48335e-12
3.49244e-12
3.53139e-12
3.8567e-12
5.53323e-12
1.62244e-11
6.42909e-12
3.09337e-12
3.09522e-12
3.08353e-12
3.09177e-12
3.10056e-12
3.13712e-12
3.419e-12
4.85365e-12
1.37393e-11
6.72469e-12
2.74602e-12
2.74772e-12
2.73819e-12
2.74618e-12
2.75464e-12
2.78891e-12
3.07089e-12
4.25704e-12
1.15994e-11
6.76641e-12
2.4366e-12
2.4381e-12
2.43031e-12
2.43799e-12
2.44606e-12
2.47807e-12
2.75315e-12
3.73284e-12
9.77792e-12
6.61098e-12
2.19e-12
2.19138e-12
2.18468e-12
2.19217e-12
2.1999e-12
2.22936e-12
2.45001e-12
3.27165e-12
8.09642e-12
6.31507e-12
1.95798e-12
1.95987e-12
1.95354e-12
1.96172e-12
1.96947e-12
1.99702e-12
2.20841e-12
2.86687e-12
6.77988e-12
5.92554e-12
)
;

boundaryField
{
    fuel
    {
        type            fixedValue;
        value           uniform 0;
    }
    wall
    {
        type            zeroGradient;
    }
    outlet
    {
        type            zeroGradient;
    }
    frontAndBack
    {
        type            empty;
    }
    procBoundary3to0
    {
        type            processor;
        value           nonuniform List<scalar> 10(1.76206e-12 1.76386e-12 1.7582e-12 1.76614e-12 1.77352e-12 1.79867e-12 1.97276e-12 2.50935e-12 5.6761e-12 5.47632e-12);
    }
    procBoundary3to2
    {
        type            processor;
        value           nonuniform List<scalar> 
25
(
9.65362e-10
5.63856e-10
2.74345e-10
1.38362e-10
7.67671e-11
4.62195e-11
3.10266e-11
2.24374e-11
1.71602e-11
1.34291e-11
1.1072e-11
1.1072e-11
9.18353e-12
7.74562e-12
6.59766e-12
5.7631e-12
5.07389e-12
4.45406e-12
3.92993e-12
3.4787e-12
3.085e-12
2.73793e-12
2.42887e-12
2.18264e-12
1.95053e-12
)
;
    }
}


// ************************************************************************* //
