/*--------------------------------*- C++ -*----------------------------------*\
| =========                 |                                                 |
| \\      /  F ield         | OpenFOAM: The Open Source CFD Toolbox           |
|  \\    /   O peration     | Version:  dev                                   |
|   \\  /    A nd           | Web:      www.OpenFOAM.org                      |
|    \\/     M anipulation  |                                                 |
\*---------------------------------------------------------------------------*/
FoamFile
{
    version     2.0;
    format      ascii;
    class       volScalarField;
    location    "0.095";
    object      A2C2HA*;
}
// * * * * * * * * * * * * * * * * * * * * * * * * * * * * * * * * * * * * * //

dimensions      [0 0 0 0 0 0 0];

internalField   nonuniform List<scalar> 
250
(
1.02382e-09
1.02485e-09
1.02417e-09
1.02439e-09
1.02528e-09
1.02379e-09
1.02575e-09
1.02818e-09
1.04219e-09
1.02196e-09
7.59719e-13
6.34758e-10
6.34819e-10
6.34563e-10
6.34743e-10
6.34679e-10
6.34807e-10
6.35462e-10
6.39685e-10
6.55391e-10
6.94376e-10
1.32268e-12
3.10644e-10
3.10684e-10
3.10624e-10
3.10673e-10
3.10593e-10
3.10666e-10
3.11212e-10
3.14711e-10
3.25814e-10
3.53166e-10
1.21727e-12
1.5665e-10
1.56681e-10
1.56714e-10
1.56654e-10
1.5669e-10
1.56593e-10
1.57214e-10
1.59739e-10
1.67909e-10
1.81633e-10
8.81459e-13
8.66119e-11
8.668e-11
8.67597e-11
8.66291e-11
8.67199e-11
8.65098e-11
8.72449e-11
8.89282e-11
9.57946e-11
1.02195e-10
6.68897e-13
5.28772e-11
5.31042e-11
5.32018e-11
5.30421e-11
5.30365e-11
5.2819e-11
5.36672e-11
5.46664e-11
5.97034e-11
6.43219e-11
5.88464e-13
3.52912e-11
3.50672e-11
3.51965e-11
3.49887e-11
3.55089e-11
3.44245e-11
3.58942e-11
3.64761e-11
4.13448e-11
4.47771e-11
6.13549e-13
2.42282e-11
2.41445e-11
2.4263e-11
2.40719e-11
2.44169e-11
2.43607e-11
2.48903e-11
2.54251e-11
3.07947e-11
3.45848e-11
7.5521e-13
1.82466e-11
1.82078e-11
1.83217e-11
1.81392e-11
1.84328e-11
1.82127e-11
1.89168e-11
1.92337e-11
2.33922e-11
2.85948e-11
1.06303e-12
1.3894e-11
1.38709e-11
1.39819e-11
1.38138e-11
1.40888e-11
1.37789e-11
1.4537e-11
1.46599e-11
1.8941e-11
2.45301e-11
1.6452e-12
1.0858e-11
1.09554e-11
1.08106e-11
1.1049e-11
1.07352e-11
1.14671e-11
1.14624e-11
1.55862e-11
2.14225e-11
2.78907e-12
8.73393e-12
8.81897e-12
8.69531e-12
8.88287e-12
8.59323e-12
9.28193e-12
9.22721e-12
1.29844e-11
1.94481e-11
5.06302e-12
7.19593e-12
7.2703e-12
7.16511e-12
7.28361e-12
7.02545e-12
7.68403e-12
7.61579e-12
1.10192e-11
1.76641e-11
8.89503e-12
6.05326e-12
6.11862e-12
6.02953e-12
6.22616e-12
5.97914e-12
6.48701e-12
6.42063e-12
9.49257e-12
1.59633e-11
1.42553e-11
5.18241e-12
5.24023e-12
5.16438e-12
5.30567e-12
5.17494e-12
5.56744e-12
5.51009e-12
8.28072e-12
1.45957e-11
2.07065e-11
4.50176e-12
4.55323e-12
4.48846e-12
4.67111e-12
4.49283e-12
4.84298e-12
4.79802e-12
7.29903e-12
1.34275e-11
2.76905e-11
3.95636e-12
4.00239e-12
3.94651e-12
4.09973e-12
3.93486e-12
4.2586e-12
4.22669e-12
6.48741e-12
1.24001e-11
3.4747e-11
3.50854e-12
3.54979e-12
3.50116e-12
3.63195e-12
3.4778e-12
3.77635e-12
3.75653e-12
5.80146e-12
1.14834e-11
4.15358e-11
3.13199e-12
3.1691e-12
3.12645e-12
3.24044e-12
3.11856e-12
3.36926e-12
3.35961e-12
5.2078e-12
1.06352e-11
4.76852e-11
2.80804e-12
2.84208e-12
2.80404e-12
2.90554e-12
2.82546e-12
3.01619e-12
3.01506e-12
4.7532e-12
9.86819e-12
5.26724e-11
2.52293e-12
2.55803e-12
2.5204e-12
2.61307e-12
2.5383e-12
2.74379e-12
2.74357e-12
4.32049e-12
9.11394e-12
5.59292e-11
2.29551e-12
2.3172e-12
2.29398e-12
2.3526e-12
2.3086e-12
2.48057e-12
2.50156e-12
3.91147e-12
8.39862e-12
5.70907e-11
2.08707e-12
2.11693e-12
2.08812e-12
2.14496e-12
2.09905e-12
2.26301e-12
2.27734e-12
3.53208e-12
7.64444e-12
5.61427e-11
1.9027e-12
1.91496e-12
1.88748e-12
1.93921e-12
1.89659e-12
2.04879e-12
2.05844e-12
3.17527e-12
6.89002e-12
5.33853e-11
)
;

boundaryField
{
    fuel
    {
        type            fixedValue;
        value           uniform 0;
    }
    wall
    {
        type            zeroGradient;
    }
    outlet
    {
        type            zeroGradient;
    }
    frontAndBack
    {
        type            empty;
    }
    procBoundary3to0
    {
        type            processor;
        value           nonuniform List<scalar> 10(1.7355e-12 1.74639e-12 1.7208e-12 1.76768e-12 1.72858e-12 1.86786e-12 1.87626e-12 2.88163e-12 6.14636e-12 4.92224e-11);
    }
    procBoundary3to2
    {
        type            processor;
        value           nonuniform List<scalar> 
25
(
1.02404e-09
6.34573e-10
3.10619e-10
1.56642e-10
8.65924e-11
5.28514e-11
3.52946e-11
2.42324e-11
1.82447e-11
1.38923e-11
1.08738e-11
1.08738e-11
8.74534e-12
7.20409e-12
6.05849e-12
5.18499e-12
4.50294e-12
3.95993e-12
3.51956e-12
3.14642e-12
2.81954e-12
2.56131e-12
2.33228e-12
2.12441e-12
1.91998e-12
)
;
    }
}


// ************************************************************************* //
