/*--------------------------------*- C++ -*----------------------------------*\
| =========                 |                                                 |
| \\      /  F ield         | OpenFOAM: The Open Source CFD Toolbox           |
|  \\    /   O peration     | Version:  dev                                   |
|   \\  /    A nd           | Web:      www.OpenFOAM.org                      |
|    \\/     M anipulation  |                                                 |
\*---------------------------------------------------------------------------*/
FoamFile
{
    version     2.0;
    format      ascii;
    class       volScalarField;
    location    "0.095";
    object      A2R5-;
}
// * * * * * * * * * * * * * * * * * * * * * * * * * * * * * * * * * * * * * //

dimensions      [0 0 0 0 0 0 0];

internalField   nonuniform List<scalar> 
250
(
2.23977e-08
2.23942e-08
2.23987e-08
2.23975e-08
2.23928e-08
2.24115e-08
2.2424e-08
2.26161e-08
2.40984e-08
3.34728e-08
6.83757e-10
2.77172e-08
2.77104e-08
2.77194e-08
2.77162e-08
2.77094e-08
2.77358e-08
2.77616e-08
2.80779e-08
3.05389e-08
4.61386e-08
1.40089e-09
2.71983e-08
2.71875e-08
2.72017e-08
2.71951e-08
2.71892e-08
2.72183e-08
2.72534e-08
2.76337e-08
3.05408e-08
4.7804e-08
1.54227e-09
2.51447e-08
2.51307e-08
2.51481e-08
2.51384e-08
2.51367e-08
2.51655e-08
2.52074e-08
2.56191e-08
2.86886e-08
4.52734e-08
1.28512e-09
2.28676e-08
2.28516e-08
2.28681e-08
2.28561e-08
2.28644e-08
2.28888e-08
2.29357e-08
2.33587e-08
2.64328e-08
4.13845e-08
9.05851e-10
2.07023e-08
2.06827e-08
2.06941e-08
2.06792e-08
2.07114e-08
2.07267e-08
2.07881e-08
2.12803e-08
2.43125e-08
3.74117e-08
5.8408e-10
1.89481e-08
1.8921e-08
1.89282e-08
1.89117e-08
1.89665e-08
1.89752e-08
1.90421e-08
1.95494e-08
2.24801e-08
3.3366e-08
3.71559e-10
1.74813e-08
1.74335e-08
1.744e-08
1.74221e-08
1.75042e-08
1.75106e-08
1.7583e-08
1.81106e-08
2.08431e-08
3.01346e-08
2.55138e-10
1.62246e-08
1.61236e-08
1.61334e-08
1.61445e-08
1.62538e-08
1.62581e-08
1.63189e-08
1.67848e-08
1.94729e-08
2.713e-08
2.07201e-10
1.49841e-08
1.49741e-08
1.49827e-08
1.50226e-08
1.5005e-08
1.50108e-08
1.50726e-08
1.55445e-08
1.82165e-08
2.46232e-08
2.18587e-10
1.39141e-08
1.3954e-08
1.40211e-08
1.40138e-08
1.40216e-08
1.4083e-08
1.45588e-08
1.69212e-08
2.24206e-08
2.99053e-10
1.29324e-08
1.30151e-08
1.29768e-08
1.29776e-08
1.29879e-08
1.30489e-08
1.35553e-08
1.58434e-08
2.04905e-08
4.68605e-10
1.2017e-08
1.20314e-08
1.19944e-08
1.20017e-08
1.2014e-08
1.20747e-08
1.2584e-08
1.48077e-08
1.8803e-08
7.08568e-10
1.11235e-08
1.10998e-08
1.10642e-08
1.10763e-08
1.10899e-08
1.11506e-08
1.16603e-08
1.36979e-08
1.72703e-08
9.89499e-10
1.0224e-08
1.02152e-08
1.01818e-08
1.01968e-08
1.02112e-08
1.02721e-08
1.07798e-08
1.2765e-08
1.59724e-08
1.29521e-09
9.37659e-09
9.37592e-09
9.34537e-09
9.36192e-09
9.37668e-09
9.43757e-09
9.9396e-09
1.17892e-08
1.46369e-08
1.61231e-09
8.57868e-09
8.58177e-09
8.55431e-09
8.57144e-09
8.5864e-09
8.64694e-09
9.13871e-09
1.0827e-08
1.33849e-08
1.9237e-09
7.82835e-09
7.83269e-09
7.80834e-09
7.82555e-09
7.8406e-09
7.90029e-09
8.3757e-09
9.9126e-09
1.23906e-08
2.21029e-09
7.12384e-09
7.12835e-09
7.10694e-09
7.12404e-09
7.13911e-09
7.19743e-09
7.64691e-09
9.0471e-09
1.14619e-08
2.45739e-09
6.46344e-09
6.46778e-09
6.44901e-09
6.46595e-09
6.48099e-09
6.53754e-09
6.94504e-09
8.23178e-09
1.0587e-08
2.66392e-09
5.84499e-09
5.8491e-09
5.83266e-09
5.84941e-09
5.86433e-09
5.91903e-09
6.35334e-09
7.46814e-09
9.75668e-09
2.84017e-09
5.26513e-09
5.26896e-09
5.25462e-09
5.27107e-09
5.28572e-09
5.33837e-09
5.78569e-09
6.75492e-09
8.96881e-09
2.99988e-09
4.7822e-09
4.78589e-09
4.77288e-09
4.78923e-09
4.80365e-09
4.85317e-09
5.21933e-09
6.08975e-09
8.14719e-09
3.15119e-09
4.30978e-09
4.31463e-09
4.30172e-09
4.31982e-09
4.3347e-09
4.38216e-09
4.74895e-09
5.47114e-09
7.41957e-09
3.29438e-09
)
;

boundaryField
{
    fuel
    {
        type            fixedValue;
        value           uniform 0;
    }
    wall
    {
        type            zeroGradient;
    }
    outlet
    {
        type            zeroGradient;
    }
    frontAndBack
    {
        type            empty;
    }
    procBoundary3to0
    {
        type            processor;
        value           nonuniform List<scalar> 10(3.89552e-09 3.90039e-09 3.88833e-09 3.90635e-09 3.92088e-09 3.96492e-09 4.27236e-09 4.89248e-09 6.72738e-09 3.42014e-09);
    }
    procBoundary3to2
    {
        type            processor;
        value           nonuniform List<scalar> 
25
(
2.23985e-08
2.77183e-08
2.71991e-08
2.5146e-08
2.28705e-08
2.07095e-08
1.89567e-08
1.74852e-08
1.62192e-08
1.50025e-08
1.39959e-08
1.39959e-08
1.29523e-08
1.1953e-08
1.09797e-08
1.01479e-08
9.36092e-09
8.56136e-09
7.81144e-09
7.10742e-09
6.44721e-09
5.82892e-09
5.24943e-09
4.76692e-09
4.29397e-09
)
;
    }
}


// ************************************************************************* //
