/*--------------------------------*- C++ -*----------------------------------*\
| =========                 |                                                 |
| \\      /  F ield         | OpenFOAM: The Open Source CFD Toolbox           |
|  \\    /   O peration     | Version:  dev                                   |
|   \\  /    A nd           | Web:      www.OpenFOAM.org                      |
|    \\/     M anipulation  |                                                 |
\*---------------------------------------------------------------------------*/
FoamFile
{
    version     2.0;
    format      ascii;
    class       volScalarField;
    location    "0.095";
    object      A2R5-;
}
// * * * * * * * * * * * * * * * * * * * * * * * * * * * * * * * * * * * * * //

dimensions      [0 0 0 0 0 0 0];

internalField   nonuniform List<scalar> 
1989
(
5.29429e-10
5.29135e-10
5.28996e-10
5.28799e-10
5.28746e-10
5.28619e-10
5.28604e-10
5.28526e-10
5.28527e-10
5.2848e-10
5.28486e-10
5.28461e-10
5.28465e-10
5.28457e-10
5.28457e-10
5.28465e-10
5.2846e-10
5.28485e-10
5.28479e-10
5.28526e-10
5.28526e-10
5.28605e-10
5.28619e-10
5.28747e-10
5.288e-10
5.28997e-10
5.29137e-10
5.2943e-10
5.29763e-10
5.30284e-10
5.31089e-10
5.31998e-10
5.33641e-10
5.35342e-10
5.3868e-10
5.42353e-10
5.46688e-10
5.54119e-10
5.58307e-10
5.10008e-10
5.05989e-10
4.98875e-10
4.94808e-10
4.91401e-10
4.88293e-10
4.8669e-10
4.85167e-10
4.84332e-10
4.83583e-10
4.83097e-10
4.82787e-10
4.82516e-10
4.82388e-10
4.82205e-10
4.82158e-10
4.82039e-10
4.82026e-10
4.81953e-10
4.81954e-10
4.81911e-10
4.81916e-10
4.81893e-10
4.81897e-10
4.81889e-10
4.81889e-10
4.81897e-10
4.81892e-10
4.81916e-10
4.8191e-10
4.81954e-10
4.81953e-10
4.82027e-10
4.82039e-10
4.82158e-10
4.82206e-10
4.8239e-10
4.82517e-10
4.82788e-10
4.83096e-10
4.83585e-10
4.84331e-10
4.85165e-10
4.86686e-10
4.88289e-10
4.91399e-10
4.94804e-10
4.98872e-10
5.05985e-10
5.1e-10
4.64542e-10
4.60718e-10
4.53902e-10
4.50115e-10
4.4697e-10
4.4408e-10
4.42591e-10
4.41179e-10
4.40416e-10
4.39723e-10
4.39271e-10
4.38986e-10
4.38736e-10
4.3862e-10
4.3845e-10
4.38408e-10
4.38298e-10
4.38287e-10
4.38218e-10
4.3822e-10
4.3818e-10
4.38185e-10
4.38163e-10
4.38167e-10
4.3816e-10
4.3816e-10
4.38167e-10
4.38163e-10
4.38185e-10
4.38179e-10
4.3822e-10
4.38218e-10
4.38287e-10
4.38298e-10
4.38408e-10
4.38451e-10
4.38622e-10
4.38737e-10
4.38986e-10
4.3927e-10
4.39726e-10
4.40415e-10
4.41177e-10
4.42587e-10
4.44077e-10
4.46968e-10
4.50112e-10
4.539e-10
4.60715e-10
4.64534e-10
4.21491e-10
4.17836e-10
4.11255e-10
4.07722e-10
4.04807e-10
4.02114e-10
4.00745e-10
3.99425e-10
3.98727e-10
3.98084e-10
3.97665e-10
3.97402e-10
3.97172e-10
3.97066e-10
3.96909e-10
3.96871e-10
3.96769e-10
3.9676e-10
3.96696e-10
3.96699e-10
3.96661e-10
3.96666e-10
3.96646e-10
3.9665e-10
3.96643e-10
3.96643e-10
3.96649e-10
3.96645e-10
3.96666e-10
3.9666e-10
3.96698e-10
3.96696e-10
3.9676e-10
3.96769e-10
3.96871e-10
3.9691e-10
3.97068e-10
3.97173e-10
3.97402e-10
3.97663e-10
3.98088e-10
3.98726e-10
3.99423e-10
4.00741e-10
4.02111e-10
4.04804e-10
4.07719e-10
4.11253e-10
4.17833e-10
4.21483e-10
3.80699e-10
3.77281e-10
3.71835e-10
3.68603e-10
3.65929e-10
3.63441e-10
3.62205e-10
3.60977e-10
3.60346e-10
3.59755e-10
3.59368e-10
3.59128e-10
3.58918e-10
3.58823e-10
3.58678e-10
3.58645e-10
3.58551e-10
3.58543e-10
3.58484e-10
3.58487e-10
3.58452e-10
3.58457e-10
3.58438e-10
3.58442e-10
3.58436e-10
3.58435e-10
3.58442e-10
3.58438e-10
3.58457e-10
3.58451e-10
3.58487e-10
3.58484e-10
3.58543e-10
3.58551e-10
3.58645e-10
3.58679e-10
3.58824e-10
3.58919e-10
3.59128e-10
3.59366e-10
3.59758e-10
3.60345e-10
3.60975e-10
3.62202e-10
3.63438e-10
3.65926e-10
3.686e-10
3.71835e-10
3.77277e-10
3.80692e-10
3.4349e-10
3.40288e-10
3.35054e-10
3.31959e-10
3.29442e-10
3.27088e-10
3.25946e-10
3.24784e-10
3.24202e-10
3.23647e-10
3.23288e-10
3.23065e-10
3.22869e-10
3.22782e-10
3.22647e-10
3.22616e-10
3.22529e-10
3.22522e-10
3.22467e-10
3.2247e-10
3.22437e-10
3.22442e-10
3.22424e-10
3.22428e-10
3.22422e-10
3.22422e-10
3.22427e-10
3.22424e-10
3.22441e-10
3.22436e-10
3.22469e-10
3.22467e-10
3.22522e-10
3.22529e-10
3.22616e-10
3.22648e-10
3.22783e-10
3.2287e-10
3.23065e-10
3.23286e-10
3.23651e-10
3.24201e-10
3.24782e-10
3.25943e-10
3.27085e-10
3.2944e-10
3.31956e-10
3.35054e-10
3.40284e-10
3.43483e-10
3.08906e-10
3.05896e-10
3.01003e-10
2.98142e-10
2.95854e-10
2.93686e-10
2.92661e-10
2.91587e-10
2.91063e-10
2.90554e-10
2.90228e-10
2.90024e-10
2.89846e-10
2.89768e-10
2.89645e-10
2.89618e-10
2.89538e-10
2.89532e-10
2.89482e-10
2.89485e-10
2.89455e-10
2.8946e-10
2.89443e-10
2.89447e-10
2.89441e-10
2.89441e-10
2.89446e-10
2.89443e-10
2.89459e-10
2.89454e-10
2.89485e-10
2.89482e-10
2.89532e-10
2.89538e-10
2.89618e-10
2.89646e-10
2.89769e-10
2.89848e-10
2.90024e-10
2.90224e-10
2.90559e-10
2.91062e-10
2.91585e-10
2.92658e-10
2.93683e-10
2.95852e-10
2.98139e-10
3.01003e-10
3.05892e-10
3.08898e-10
2.76869e-10
2.74028e-10
2.69511e-10
2.66853e-10
2.64782e-10
2.62792e-10
2.61876e-10
2.60886e-10
2.60418e-10
2.59952e-10
2.59657e-10
2.59472e-10
2.59311e-10
2.59241e-10
2.59129e-10
2.59105e-10
2.59032e-10
2.59028e-10
2.58982e-10
2.58985e-10
2.58957e-10
2.58962e-10
2.58947e-10
2.5895e-10
2.58945e-10
2.58945e-10
2.5895e-10
2.58946e-10
2.58962e-10
2.58957e-10
2.58985e-10
2.58982e-10
2.59028e-10
2.59032e-10
2.59106e-10
2.59129e-10
2.59242e-10
2.59312e-10
2.59472e-10
2.59653e-10
2.59957e-10
2.60417e-10
2.60884e-10
2.61873e-10
2.62789e-10
2.64781e-10
2.66851e-10
2.69513e-10
2.74025e-10
2.76862e-10
2.46808e-10
2.44143e-10
2.39992e-10
2.37494e-10
2.35614e-10
2.33788e-10
2.32966e-10
2.32053e-10
2.31634e-10
2.31206e-10
2.30938e-10
2.30769e-10
2.30623e-10
2.30561e-10
2.30459e-10
2.30438e-10
2.30372e-10
2.30368e-10
2.30326e-10
2.3033e-10
2.30304e-10
2.30309e-10
2.30295e-10
2.30298e-10
2.30293e-10
2.30293e-10
2.30298e-10
2.30295e-10
2.30309e-10
2.30304e-10
2.30329e-10
2.30326e-10
2.30369e-10
2.30372e-10
2.30439e-10
2.30459e-10
2.30562e-10
2.30624e-10
2.30769e-10
2.30935e-10
2.31209e-10
2.31633e-10
2.32052e-10
2.32963e-10
2.33786e-10
2.35612e-10
2.37491e-10
2.39994e-10
2.44139e-10
2.46802e-10
2.18958e-10
2.16487e-10
2.12751e-10
2.1041e-10
2.08725e-10
2.07077e-10
2.06348e-10
2.05521e-10
2.0515e-10
2.04761e-10
2.04522e-10
2.04372e-10
2.04241e-10
2.04186e-10
2.04094e-10
2.04077e-10
2.04017e-10
2.04014e-10
2.03977e-10
2.0398e-10
2.03957e-10
2.03961e-10
2.03949e-10
2.03952e-10
2.03947e-10
2.03947e-10
2.03951e-10
2.03949e-10
2.03961e-10
2.03957e-10
2.0398e-10
2.03977e-10
2.04015e-10
2.04017e-10
2.04077e-10
2.04095e-10
2.04187e-10
2.04242e-10
2.04372e-10
2.0452e-10
2.04763e-10
2.05149e-10
2.05519e-10
2.06346e-10
2.07075e-10
2.08723e-10
2.10408e-10
2.12753e-10
2.16484e-10
2.18952e-10
1.93401e-10
1.91124e-10
1.87772e-10
1.86012e-10
1.84504e-10
1.83009e-10
1.82367e-10
1.81613e-10
1.81285e-10
1.80935e-10
1.8072e-10
1.80586e-10
1.80468e-10
1.8042e-10
1.80338e-10
1.80323e-10
1.80269e-10
1.80268e-10
1.80233e-10
1.80237e-10
1.80216e-10
1.8022e-10
1.80209e-10
1.80212e-10
1.80208e-10
1.80208e-10
1.80211e-10
1.80209e-10
1.8022e-10
1.80216e-10
1.80237e-10
1.80233e-10
1.80268e-10
1.80269e-10
1.80323e-10
1.80339e-10
1.80421e-10
1.80469e-10
1.80586e-10
1.80719e-10
1.80936e-10
1.81284e-10
1.81611e-10
1.82365e-10
1.83007e-10
1.84503e-10
1.8601e-10
1.87774e-10
1.9112e-10
1.93396e-10
1.70412e-10
1.68321e-10
1.65297e-10
1.63687e-10
1.62342e-10
1.60992e-10
1.60431e-10
1.59745e-10
1.59457e-10
1.59143e-10
1.5895e-10
1.58825e-10
1.58715e-10
1.58671e-10
1.58594e-10
1.5858e-10
1.58529e-10
1.58528e-10
1.58496e-10
1.58499e-10
1.5848e-10
1.58484e-10
1.58473e-10
1.58476e-10
1.58472e-10
1.58472e-10
1.58475e-10
1.58473e-10
1.58483e-10
1.5848e-10
1.58499e-10
1.58496e-10
1.58528e-10
1.58529e-10
1.5858e-10
1.58594e-10
1.58672e-10
1.58716e-10
1.58825e-10
1.5895e-10
1.59144e-10
1.59456e-10
1.59744e-10
1.60429e-10
1.6099e-10
1.62341e-10
1.63686e-10
1.65298e-10
1.68318e-10
1.70408e-10
1.49211e-10
1.47254e-10
1.44476e-10
1.43002e-10
1.41791e-10
1.40589e-10
1.40099e-10
1.39485e-10
1.39233e-10
1.38953e-10
1.38783e-10
1.38671e-10
1.38573e-10
1.38534e-10
1.38466e-10
1.38454e-10
1.38409e-10
1.38408e-10
1.3838e-10
1.38383e-10
1.38366e-10
1.38369e-10
1.3836e-10
1.38362e-10
1.38359e-10
1.38358e-10
1.38362e-10
1.38359e-10
1.38369e-10
1.38365e-10
1.38383e-10
1.3838e-10
1.38408e-10
1.38409e-10
1.38454e-10
1.38466e-10
1.38535e-10
1.38574e-10
1.38671e-10
1.38782e-10
1.38954e-10
1.39232e-10
1.39483e-10
1.40098e-10
1.40587e-10
1.4179e-10
1.43001e-10
1.44478e-10
1.47251e-10
1.49207e-10
1.29737e-10
1.27951e-10
1.25483e-10
1.2416e-10
1.23085e-10
1.22023e-10
1.21598e-10
1.2105e-10
1.20832e-10
1.20584e-10
1.20434e-10
1.20335e-10
1.20249e-10
1.20215e-10
1.20154e-10
1.20144e-10
1.20105e-10
1.20104e-10
1.20079e-10
1.20082e-10
1.20066e-10
1.2007e-10
1.20061e-10
1.20063e-10
1.2006e-10
1.2006e-10
1.20063e-10
1.20061e-10
1.20069e-10
1.20066e-10
1.20082e-10
1.20079e-10
1.20104e-10
1.20105e-10
1.20145e-10
1.20155e-10
1.20215e-10
1.20249e-10
1.20335e-10
1.20434e-10
1.20584e-10
1.20831e-10
1.21049e-10
1.21597e-10
1.22021e-10
1.23084e-10
1.24158e-10
1.25485e-10
1.27947e-10
1.29734e-10
1.12355e-10
1.10717e-10
1.08541e-10
1.07345e-10
1.06402e-10
1.05458e-10
1.05094e-10
1.04605e-10
1.04417e-10
1.04198e-10
1.04067e-10
1.03979e-10
1.03902e-10
1.03873e-10
1.0382e-10
1.03812e-10
1.03776e-10
1.03776e-10
1.03754e-10
1.03757e-10
1.03743e-10
1.03746e-10
1.03739e-10
1.0374e-10
1.03738e-10
1.03738e-10
1.0374e-10
1.03738e-10
1.03746e-10
1.03743e-10
1.03757e-10
1.03754e-10
1.03776e-10
1.03776e-10
1.03812e-10
1.0382e-10
1.03874e-10
1.03903e-10
1.03979e-10
1.04067e-10
1.04198e-10
1.04416e-10
1.04604e-10
1.05093e-10
1.05456e-10
1.06401e-10
1.07343e-10
1.08543e-10
1.10713e-10
1.12353e-10
9.66112e-11
9.51394e-11
9.32326e-11
9.21465e-11
9.13204e-11
9.04582e-11
9.01411e-11
8.96957e-11
8.95315e-11
8.93348e-11
8.92181e-11
8.91381e-11
8.90694e-11
8.9044e-11
8.8996e-11
8.89894e-11
8.89577e-11
8.8958e-11
8.89379e-11
8.89406e-11
8.89283e-11
8.89311e-11
8.89243e-11
8.89259e-11
8.89236e-11
8.89236e-11
8.89257e-11
8.8924e-11
8.89308e-11
8.89281e-11
8.89405e-11
8.89379e-11
8.89581e-11
8.89576e-11
8.89894e-11
8.89964e-11
8.90445e-11
8.90698e-11
8.91383e-11
8.92183e-11
8.93348e-11
8.95308e-11
8.96948e-11
9.01398e-11
9.04569e-11
9.13195e-11
9.21455e-11
9.3234e-11
9.51343e-11
9.66099e-11
8.24256e-11
8.11116e-11
7.94508e-11
7.84744e-11
7.77662e-11
7.70028e-11
7.67351e-11
7.63412e-11
7.62019e-11
7.60299e-11
7.59292e-11
7.58581e-11
7.57975e-11
7.5776e-11
7.57341e-11
7.57288e-11
7.5701e-11
7.57017e-11
7.5684e-11
7.56866e-11
7.56758e-11
7.56783e-11
7.56724e-11
7.56738e-11
7.56718e-11
7.56718e-11
7.56737e-11
7.56721e-11
7.56781e-11
7.56757e-11
7.56866e-11
7.5684e-11
7.57018e-11
7.5701e-11
7.57288e-11
7.57344e-11
7.57764e-11
7.57979e-11
7.58583e-11
7.59294e-11
7.60298e-11
7.62014e-11
7.63403e-11
7.6734e-11
7.70016e-11
7.77654e-11
7.84735e-11
7.9452e-11
8.11062e-11
8.24251e-11
6.97051e-11
6.8541e-11
6.71053e-11
6.62362e-11
6.56341e-11
6.49632e-11
6.47399e-11
6.43939e-11
6.42771e-11
6.41277e-11
6.40419e-11
6.39789e-11
6.39254e-11
6.39074e-11
6.3871e-11
6.3867e-11
6.38428e-11
6.38437e-11
6.38283e-11
6.38308e-11
6.38214e-11
6.38236e-11
6.38185e-11
6.38197e-11
6.3818e-11
6.38179e-11
6.38196e-11
6.38182e-11
6.38235e-11
6.38212e-11
6.38307e-11
6.38283e-11
6.38438e-11
6.38428e-11
6.3867e-11
6.38713e-11
6.39078e-11
6.39258e-11
6.3979e-11
6.40421e-11
6.41276e-11
6.42766e-11
6.43932e-11
6.47389e-11
6.49622e-11
6.56333e-11
6.62355e-11
6.71063e-11
6.85353e-11
6.97054e-11
5.83369e-11
5.72894e-11
5.60357e-11
5.526e-11
5.47445e-11
5.41553e-11
5.39677e-11
5.36648e-11
5.35664e-11
5.34371e-11
5.33642e-11
5.3308e-11
5.32602e-11
5.3245e-11
5.32136e-11
5.32104e-11
5.31895e-11
5.31905e-11
5.31772e-11
5.31795e-11
5.31713e-11
5.31734e-11
5.31689e-11
5.317e-11
5.31684e-11
5.31684e-11
5.31698e-11
5.31686e-11
5.31732e-11
5.31712e-11
5.31794e-11
5.31772e-11
5.31906e-11
5.31895e-11
5.32104e-11
5.32138e-11
5.32453e-11
5.32605e-11
5.33082e-11
5.33643e-11
5.3437e-11
5.3566e-11
5.36642e-11
5.39668e-11
5.41544e-11
5.47439e-11
5.52594e-11
5.60365e-11
5.72834e-11
5.83378e-11
4.82897e-11
4.73731e-11
4.63071e-11
4.56305e-11
4.51997e-11
4.46908e-11
4.4538e-11
4.42767e-11
4.41959e-11
4.40858e-11
4.40252e-11
4.39763e-11
4.3933e-11
4.39206e-11
4.38939e-11
4.38916e-11
4.38737e-11
4.38748e-11
4.38635e-11
4.38656e-11
4.38586e-11
4.38604e-11
4.38566e-11
4.38575e-11
4.38562e-11
4.38562e-11
4.38574e-11
4.38564e-11
4.38603e-11
4.38585e-11
4.38655e-11
4.38635e-11
4.38749e-11
4.38737e-11
4.38916e-11
4.38941e-11
4.39209e-11
4.39333e-11
4.39765e-11
4.40253e-11
4.40857e-11
4.41955e-11
4.42761e-11
4.45373e-11
4.46901e-11
4.51992e-11
4.56301e-11
4.63077e-11
4.73672e-11
4.82907e-11
3.9463e-11
3.86668e-11
3.77723e-11
3.71895e-11
3.68337e-11
3.63992e-11
3.62768e-11
3.6054e-11
3.59887e-11
3.58961e-11
3.58466e-11
3.58053e-11
3.57646e-11
3.57546e-11
3.57322e-11
3.57305e-11
3.57155e-11
3.57166e-11
3.5707e-11
3.5709e-11
3.57031e-11
3.57047e-11
3.57014e-11
3.57022e-11
3.57011e-11
3.57011e-11
3.57021e-11
3.57012e-11
3.57045e-11
3.5703e-11
3.57089e-11
3.5707e-11
3.57167e-11
3.57154e-11
3.57305e-11
3.57323e-11
3.57548e-11
3.57649e-11
3.58054e-11
3.58467e-11
3.5896e-11
3.59883e-11
3.60535e-11
3.62762e-11
3.63986e-11
3.68332e-11
3.71891e-11
3.77728e-11
3.86615e-11
3.94639e-11
3.1787e-11
3.10996e-11
3.03623e-11
2.98672e-11
2.95773e-11
2.92116e-11
2.91154e-11
2.89281e-11
2.88761e-11
2.87997e-11
2.87599e-11
2.87265e-11
2.86863e-11
2.86784e-11
2.86598e-11
2.86587e-11
2.86463e-11
2.86474e-11
2.86394e-11
2.86411e-11
2.86362e-11
2.86376e-11
2.86349e-11
2.86356e-11
2.86347e-11
2.86347e-11
2.86355e-11
2.86348e-11
2.86375e-11
2.86362e-11
2.86411e-11
2.86394e-11
2.86474e-11
2.86462e-11
2.86587e-11
2.86599e-11
2.86785e-11
2.86865e-11
2.87267e-11
2.876e-11
2.87996e-11
2.88758e-11
2.89277e-11
2.91149e-11
2.9211e-11
2.95769e-11
2.98669e-11
3.03627e-11
3.10954e-11
3.17872e-11
2.51887e-11
2.46116e-11
2.40114e-11
2.35975e-11
2.33647e-11
2.30623e-11
2.29886e-11
2.28339e-11
2.27932e-11
2.27313e-11
2.27003e-11
2.26751e-11
2.26325e-11
2.26263e-11
2.26112e-11
2.26106e-11
2.26004e-11
2.26015e-11
2.2595e-11
2.25965e-11
2.25925e-11
2.25937e-11
2.25915e-11
2.25921e-11
2.25913e-11
2.25913e-11
2.2592e-11
2.25913e-11
2.25936e-11
2.25925e-11
2.25965e-11
2.2595e-11
2.26016e-11
2.26004e-11
2.26106e-11
2.26113e-11
2.26265e-11
2.26326e-11
2.26752e-11
2.27004e-11
2.27312e-11
2.27929e-11
2.28336e-11
2.29882e-11
2.30618e-11
2.33643e-11
2.35973e-11
2.40117e-11
2.46062e-11
2.51905e-11
1.95968e-11
1.91164e-11
1.86217e-11
1.8276e-11
1.81031e-11
1.78408e-11
1.77843e-11
1.76586e-11
1.76264e-11
1.75768e-11
1.75534e-11
1.75357e-11
1.75369e-11
1.75324e-11
1.75204e-11
1.75201e-11
1.7512e-11
1.7513e-11
1.75078e-11
1.75091e-11
1.75058e-11
1.75069e-11
1.75051e-11
1.75056e-11
1.75049e-11
1.75049e-11
1.75055e-11
1.7505e-11
1.75068e-11
1.75058e-11
1.7509e-11
1.75078e-11
1.7513e-11
1.75119e-11
1.75201e-11
1.75205e-11
1.75325e-11
1.7537e-11
1.75358e-11
1.75535e-11
1.75768e-11
1.76261e-11
1.76583e-11
1.77839e-11
1.78405e-11
1.81028e-11
1.82759e-11
1.86219e-11
1.91101e-11
1.96e-11
1.49585e-11
1.45768e-11
1.41853e-11
1.3905e-11
1.37744e-11
1.35618e-11
1.35206e-11
1.34216e-11
1.33967e-11
1.33585e-11
1.33417e-11
1.33304e-11
1.33285e-11
1.33253e-11
1.3316e-11
1.3316e-11
1.33096e-11
1.33105e-11
1.33064e-11
1.33075e-11
1.3305e-11
1.33058e-11
1.33044e-11
1.33048e-11
1.33044e-11
1.33044e-11
1.33048e-11
1.33044e-11
1.33058e-11
1.3305e-11
1.33075e-11
1.33064e-11
1.33106e-11
1.33096e-11
1.3316e-11
1.33161e-11
1.33254e-11
1.33286e-11
1.33304e-11
1.33418e-11
1.33585e-11
1.33966e-11
1.34214e-11
1.35203e-11
1.35615e-11
1.37741e-11
1.39049e-11
1.41854e-11
1.4571e-11
1.49618e-11
1.11901e-11
1.08932e-11
1.05853e-11
1.03524e-11
1.02552e-11
1.01e-11
1.0071e-11
9.99593e-12
9.97633e-12
9.94795e-12
9.93654e-12
9.92977e-12
9.92645e-12
9.92429e-12
9.91727e-12
9.91747e-12
9.91262e-12
9.91344e-12
9.9103e-12
9.91122e-12
9.90931e-12
9.90998e-12
9.90891e-12
9.90923e-12
9.90887e-12
9.90886e-12
9.90919e-12
9.90884e-12
9.90994e-12
9.90928e-12
9.91121e-12
9.9103e-12
9.91345e-12
9.9126e-12
9.91746e-12
9.91731e-12
9.92436e-12
9.92652e-12
9.92983e-12
9.93657e-12
9.94789e-12
9.97617e-12
9.99575e-12
1.00708e-11
1.00997e-11
1.0255e-11
1.03523e-11
1.05854e-11
1.08884e-11
1.11929e-11
8.16269e-12
7.93573e-12
7.69996e-12
7.55094e-12
7.48431e-12
7.36275e-12
7.34117e-12
7.27666e-12
7.27277e-12
7.25293e-12
7.24591e-12
7.24227e-12
7.23878e-12
7.23752e-12
7.23244e-12
7.2328e-12
7.22926e-12
7.22998e-12
7.22766e-12
7.22842e-12
7.22702e-12
7.22756e-12
7.22677e-12
7.22702e-12
7.22676e-12
7.22675e-12
7.22699e-12
7.22672e-12
7.22753e-12
7.227e-12
7.22841e-12
7.22766e-12
7.22999e-12
7.22924e-12
7.23279e-12
7.23248e-12
7.23757e-12
7.23884e-12
7.24232e-12
7.24592e-12
7.25287e-12
7.27263e-12
7.27653e-12
7.341e-12
7.36258e-12
7.48418e-12
7.55086e-12
7.70005e-12
7.93194e-12
8.16495e-12
5.80951e-12
5.64324e-12
5.49723e-12
5.38506e-12
5.32411e-12
5.24852e-12
5.23403e-12
5.18644e-12
5.18101e-12
5.16134e-12
5.15345e-12
5.14909e-12
5.14464e-12
5.14273e-12
5.13841e-12
5.13815e-12
5.13526e-12
5.1355e-12
5.13364e-12
5.13404e-12
5.13293e-12
5.13322e-12
5.1326e-12
5.13273e-12
5.13252e-12
5.13252e-12
5.13271e-12
5.13256e-12
5.1332e-12
5.13291e-12
5.13403e-12
5.13364e-12
5.13551e-12
5.13525e-12
5.13815e-12
5.13844e-12
5.14278e-12
5.14469e-12
5.14914e-12
5.15348e-12
5.16134e-12
5.18096e-12
5.18634e-12
5.2339e-12
5.24839e-12
5.324e-12
5.38501e-12
5.4973e-12
5.64055e-12
5.81111e-12
4.05487e-12
3.93488e-12
3.83266e-12
3.75052e-12
3.70879e-12
3.65389e-12
3.64453e-12
3.61031e-12
3.60679e-12
3.59283e-12
3.58754e-12
3.58456e-12
3.58107e-12
3.57974e-12
3.57669e-12
3.57653e-12
3.57448e-12
3.57466e-12
3.57333e-12
3.57362e-12
3.57284e-12
3.57305e-12
3.57261e-12
3.5727e-12
3.57256e-12
3.57255e-12
3.57268e-12
3.57258e-12
3.57303e-12
3.57283e-12
3.57361e-12
3.57333e-12
3.57467e-12
3.57447e-12
3.57653e-12
3.57671e-12
3.57978e-12
3.58111e-12
3.58459e-12
3.58756e-12
3.59283e-12
3.60675e-12
3.61023e-12
3.64444e-12
3.65379e-12
3.70871e-12
3.75048e-12
3.83272e-12
3.933e-12
4.056e-12
2.76037e-12
2.67563e-12
2.60658e-12
2.54823e-12
2.52053e-12
2.4815e-12
2.47571e-12
2.45178e-12
2.4496e-12
2.43996e-12
2.43652e-12
2.43445e-12
2.43192e-12
2.43102e-12
2.42892e-12
2.42883e-12
2.42742e-12
2.42755e-12
2.42661e-12
2.42682e-12
2.42629e-12
2.42644e-12
2.42613e-12
2.42619e-12
2.42609e-12
2.42609e-12
2.42618e-12
2.42611e-12
2.42642e-12
2.42628e-12
2.42682e-12
2.42662e-12
2.42755e-12
2.42741e-12
2.42883e-12
2.42894e-12
2.43104e-12
2.43194e-12
2.43448e-12
2.43654e-12
2.43996e-12
2.44957e-12
2.45173e-12
2.47565e-12
2.48144e-12
2.52047e-12
2.54821e-12
2.60663e-12
2.6742e-12
2.76131e-12
1.83357e-12
1.77513e-12
1.73037e-12
1.69027e-12
1.6725e-12
1.64514e-12
1.6417e-12
1.62547e-12
1.62419e-12
1.61774e-12
1.61556e-12
1.61413e-12
1.6124e-12
1.6118e-12
1.61041e-12
1.61036e-12
1.60942e-12
1.60951e-12
1.60887e-12
1.60901e-12
1.60866e-12
1.60876e-12
1.60855e-12
1.60859e-12
1.60853e-12
1.60853e-12
1.60859e-12
1.60854e-12
1.60875e-12
1.60865e-12
1.60901e-12
1.60887e-12
1.60951e-12
1.60941e-12
1.61036e-12
1.61042e-12
1.61182e-12
1.61241e-12
1.61415e-12
1.61558e-12
1.61774e-12
1.62417e-12
1.62544e-12
1.64166e-12
1.64509e-12
1.67246e-12
1.69026e-12
1.73041e-12
1.77427e-12
1.83409e-12
1.19355e-12
1.15541e-12
1.12309e-12
1.09683e-12
1.08572e-12
1.07017e-12
1.06819e-12
1.05755e-12
1.05682e-12
1.05263e-12
1.0513e-12
1.05033e-12
1.0492e-12
1.04881e-12
1.04792e-12
1.04788e-12
1.04728e-12
1.04733e-12
1.04692e-12
1.04701e-12
1.04678e-12
1.04684e-12
1.04671e-12
1.04674e-12
1.0467e-12
1.0467e-12
1.04673e-12
1.0467e-12
1.04684e-12
1.04678e-12
1.047e-12
1.04692e-12
1.04733e-12
1.04727e-12
1.04788e-12
1.04792e-12
1.04882e-12
1.04921e-12
1.05034e-12
1.05131e-12
1.05263e-12
1.05681e-12
1.05753e-12
1.06817e-12
1.07014e-12
1.0857e-12
1.09682e-12
1.12312e-12
1.15498e-12
1.19371e-12
7.67048e-13
7.43171e-13
7.25447e-13
7.08624e-13
7.01861e-13
6.91895e-13
6.90757e-13
6.83984e-13
6.83565e-13
6.80918e-13
6.80115e-13
6.79467e-13
6.78755e-13
6.7851e-13
6.7795e-13
6.77926e-13
6.77546e-13
6.7758e-13
6.77314e-13
6.7737e-13
6.77226e-13
6.77267e-13
6.77185e-13
6.77201e-13
6.77175e-13
6.77174e-13
6.77198e-13
6.7718e-13
6.77264e-13
6.77224e-13
6.77369e-13
6.77314e-13
6.77581e-13
6.77544e-13
6.77926e-13
6.77954e-13
6.78516e-13
6.78762e-13
6.79475e-13
6.8012e-13
6.80917e-13
6.83557e-13
6.8397e-13
6.9074e-13
6.91877e-13
7.01846e-13
7.08619e-13
7.25468e-13
7.42961e-13
7.67222e-13
5.01991e-13
4.87078e-13
4.7607e-13
4.65489e-13
4.61347e-13
4.55062e-13
4.54357e-13
4.50125e-13
4.49865e-13
4.48216e-13
4.47733e-13
4.47305e-13
4.46862e-13
4.46704e-13
4.46357e-13
4.46339e-13
4.46103e-13
4.46122e-13
4.45955e-13
4.45987e-13
4.45897e-13
4.45922e-13
4.45871e-13
4.4588e-13
4.45864e-13
4.45863e-13
4.45878e-13
4.45867e-13
4.4592e-13
4.45896e-13
4.45986e-13
4.45955e-13
4.46122e-13
4.46101e-13
4.46338e-13
4.4636e-13
4.46708e-13
4.46867e-13
4.4731e-13
4.47736e-13
4.48215e-13
4.4986e-13
4.50116e-13
4.54347e-13
4.55051e-13
4.61338e-13
4.65486e-13
4.76085e-13
4.86979e-13
5.0206e-13
3.44648e-13
3.35163e-13
3.28195e-13
3.21503e-13
3.18851e-13
3.14859e-13
3.14349e-13
3.11698e-13
3.11504e-13
3.10469e-13
3.10169e-13
3.09879e-13
3.09598e-13
3.09491e-13
3.09272e-13
3.09256e-13
3.09107e-13
3.09116e-13
3.0901e-13
3.09025e-13
3.08967e-13
3.08982e-13
3.08948e-13
3.08955e-13
3.08944e-13
3.08943e-13
3.08953e-13
3.08946e-13
3.0898e-13
3.08966e-13
3.09025e-13
3.0901e-13
3.09116e-13
3.09106e-13
3.09256e-13
3.09274e-13
3.09494e-13
3.09601e-13
3.09882e-13
3.10171e-13
3.10469e-13
3.11501e-13
3.11693e-13
3.14342e-13
3.14852e-13
3.18845e-13
3.215e-13
3.28206e-13
3.35118e-13
3.44672e-13
2.57451e-13
2.51043e-13
2.46381e-13
2.41975e-13
2.40115e-13
2.37477e-13
2.37031e-13
2.35317e-13
2.35139e-13
2.34462e-13
2.34258e-13
2.34049e-13
2.33859e-13
2.3378e-13
2.33634e-13
2.33617e-13
2.33517e-13
2.3352e-13
2.33448e-13
2.33447e-13
2.33405e-13
2.33415e-13
2.33391e-13
2.33396e-13
2.33388e-13
2.33388e-13
2.33395e-13
2.3339e-13
2.33414e-13
2.33405e-13
2.33447e-13
2.33448e-13
2.3352e-13
2.33516e-13
2.33617e-13
2.33635e-13
2.33782e-13
2.33861e-13
2.34051e-13
2.3426e-13
2.34461e-13
2.35137e-13
2.35313e-13
2.37026e-13
2.37472e-13
2.40111e-13
2.41973e-13
2.46389e-13
2.51025e-13
2.57456e-13
2.13673e-13
2.08861e-13
2.05447e-13
2.02295e-13
2.00813e-13
1.98928e-13
1.98479e-13
1.97291e-13
1.97103e-13
1.96622e-13
1.96464e-13
1.96294e-13
1.96152e-13
1.96086e-13
1.95978e-13
1.95959e-13
1.95886e-13
1.95884e-13
1.95845e-13
1.9586e-13
1.95831e-13
1.95837e-13
1.95819e-13
1.95823e-13
1.95817e-13
1.95816e-13
1.95822e-13
1.95818e-13
1.95836e-13
1.95831e-13
1.9586e-13
1.95844e-13
1.95884e-13
1.95885e-13
1.95959e-13
1.95979e-13
1.96087e-13
1.96154e-13
1.96296e-13
1.96465e-13
1.96622e-13
1.97101e-13
1.97288e-13
1.98476e-13
1.98925e-13
2.0081e-13
2.02294e-13
2.05453e-13
2.08856e-13
2.13669e-13
1.94969e-13
1.90848e-13
1.88121e-13
1.85631e-13
1.84312e-13
1.82832e-13
1.82356e-13
1.81452e-13
1.81246e-13
1.80868e-13
1.80725e-13
1.80571e-13
1.80453e-13
1.80391e-13
1.80303e-13
1.80281e-13
1.80221e-13
1.80216e-13
1.80184e-13
1.8019e-13
1.80164e-13
1.80169e-13
1.80154e-13
1.80157e-13
1.80151e-13
1.80151e-13
1.80157e-13
1.80153e-13
1.80168e-13
1.80164e-13
1.8019e-13
1.80184e-13
1.80216e-13
1.8022e-13
1.80281e-13
1.80303e-13
1.80392e-13
1.80455e-13
1.80573e-13
1.80726e-13
1.80868e-13
1.81245e-13
1.8145e-13
1.82354e-13
1.82829e-13
1.84309e-13
1.85629e-13
1.88126e-13
1.90853e-13
1.94959e-13
1.88846e-13
1.8498e-13
1.82618e-13
1.80457e-13
1.79196e-13
1.77917e-13
1.77413e-13
1.76654e-13
1.76431e-13
1.76102e-13
1.75964e-13
1.75815e-13
1.75709e-13
1.75646e-13
1.75566e-13
1.75541e-13
1.75488e-13
1.7548e-13
1.75451e-13
1.75452e-13
1.75428e-13
1.75432e-13
1.75418e-13
1.75422e-13
1.75416e-13
1.75416e-13
1.75422e-13
1.75418e-13
1.75431e-13
1.75428e-13
1.75452e-13
1.75451e-13
1.7548e-13
1.75488e-13
1.75541e-13
1.75567e-13
1.75647e-13
1.7571e-13
1.75816e-13
1.75965e-13
1.76103e-13
1.7643e-13
1.76652e-13
1.7741e-13
1.77915e-13
1.79194e-13
1.80455e-13
1.82622e-13
1.84985e-13
1.88837e-13
1.8762e-13
1.83635e-13
1.81554e-13
1.79535e-13
1.78294e-13
1.77108e-13
1.76586e-13
1.75895e-13
1.7566e-13
1.75354e-13
1.75212e-13
1.75064e-13
1.74962e-13
1.74899e-13
1.74823e-13
1.74796e-13
1.74745e-13
1.74736e-13
1.74707e-13
1.74705e-13
1.74683e-13
1.74686e-13
1.74673e-13
1.74677e-13
1.74671e-13
1.74671e-13
1.74677e-13
1.74673e-13
1.74686e-13
1.74683e-13
1.74705e-13
1.74707e-13
1.74736e-13
1.74744e-13
1.74795e-13
1.74823e-13
1.74899e-13
1.74963e-13
1.75065e-13
1.75213e-13
1.75354e-13
1.7566e-13
1.75893e-13
1.76584e-13
1.77106e-13
1.78292e-13
1.79534e-13
1.81557e-13
1.83639e-13
1.87612e-13
)
;

boundaryField
{
    fuel
    {
        type            fixedValue;
        value           nonuniform 0();
    }
    wall
    {
        type            zeroGradient;
    }
    outlet
    {
        type            zeroGradient;
    }
    frontAndBack
    {
        type            empty;
    }
    procBoundary3to2
    {
        type            processor;
        value           nonuniform List<scalar> 
51
(
5.7892e-10
5.78603e-10
5.78451e-10
5.7824e-10
5.78182e-10
5.78047e-10
5.7803e-10
5.77946e-10
5.77946e-10
5.77897e-10
5.77903e-10
5.77876e-10
5.77881e-10
5.77872e-10
5.77872e-10
5.7788e-10
5.77876e-10
5.77902e-10
5.77896e-10
5.77946e-10
5.77946e-10
5.7803e-10
5.78047e-10
5.78183e-10
5.78242e-10
5.78453e-10
5.78605e-10
5.78921e-10
5.79279e-10
5.79834e-10
5.80699e-10
5.81684e-10
5.83446e-10
5.85248e-10
5.88819e-10
5.9276e-10
5.97351e-10
6.05106e-10
6.09447e-10
5.58315e-10
5.54122e-10
5.4669e-10
5.42356e-10
5.38682e-10
5.35344e-10
5.33644e-10
5.32e-10
5.31091e-10
5.30282e-10
5.29762e-10
5.29762e-10
)
;
    }
}


// ************************************************************************* //
