/*--------------------------------*- C++ -*----------------------------------*\
| =========                 |                                                 |
| \\      /  F ield         | OpenFOAM: The Open Source CFD Toolbox           |
|  \\    /   O peration     | Version:  dev                                   |
|   \\  /    A nd           | Web:      www.OpenFOAM.org                      |
|    \\/     M anipulation  |                                                 |
\*---------------------------------------------------------------------------*/
FoamFile
{
    version     2.0;
    format      ascii;
    class       volScalarField;
    location    "0.095";
    object      A3-1;
}
// * * * * * * * * * * * * * * * * * * * * * * * * * * * * * * * * * * * * * //

dimensions      [0 0 0 0 0 0 0];

internalField   nonuniform List<scalar> 
25
(
3.1874e-16
2.9955e-16
2.78794e-16
2.56865e-16
2.33489e-16
2.09541e-16
1.86156e-16
1.62672e-16
1.40033e-16
1.18317e-16
9.78746e-17
7.90094e-17
6.19826e-17
4.70071e-17
3.42326e-17
2.37437e-17
1.5518e-17
9.43141e-18
5.24523e-18
2.61716e-18
1.1448e-18
4.29621e-19
1.38556e-19
4.17998e-20
1.34359e-20
)
;

boundaryField
{
    wall
    {
        type            zeroGradient;
    }
    fuel
    {
        type            fixedValue;
        value           nonuniform 0();
    }
    outlet
    {
        type            inletOutlet;
        inletValue      uniform 0;
        value           uniform 1.34359e-20;
    }
    procBoundary3to2
    {
        type            processor;
        value           uniform 3.36052e-16;
    }
}


// ************************************************************************* //
