/*--------------------------------*- C++ -*----------------------------------*\
| =========                 |                                                 |
| \\      /  F ield         | OpenFOAM: The Open Source CFD Toolbox           |
|  \\    /   O peration     | Version:  dev                                   |
|   \\  /    A nd           | Web:      www.OpenFOAM.org                      |
|    \\/     M anipulation  |                                                 |
\*---------------------------------------------------------------------------*/
FoamFile
{
    version     2.0;
    format      ascii;
    class       volScalarField;
    location    "0.095";
    object      C;
}
// * * * * * * * * * * * * * * * * * * * * * * * * * * * * * * * * * * * * * //

dimensions      [0 0 0 0 0 0 0];

internalField   nonuniform List<scalar> 
25
(
1.4527e-11
1.37896e-11
1.29697e-11
1.20744e-11
1.10883e-11
1.00555e-11
9.03856e-12
8.02297e-12
7.07075e-12
6.20532e-12
5.4579e-12
4.8477e-12
4.37752e-12
4.03242e-12
3.78272e-12
3.59049e-12
3.41736e-12
3.23084e-12
3.00781e-12
2.7347e-12
2.40496e-12
2.01496e-12
1.55977e-12
1.03173e-12
4.47858e-13
)
;

boundaryField
{
    wall
    {
        type            zeroGradient;
    }
    fuel
    {
        type            fixedValue;
        value           nonuniform 0();
    }
    outlet
    {
        type            inletOutlet;
        inletValue      uniform 0;
        value           uniform 4.47858e-13;
    }
    procBoundary3to2
    {
        type            processor;
        value           uniform 1.51833e-11;
    }
}


// ************************************************************************* //
