/*--------------------------------*- C++ -*----------------------------------*\
| =========                 |                                                 |
| \\      /  F ield         | OpenFOAM: The Open Source CFD Toolbox           |
|  \\    /   O peration     | Version:  dev                                   |
|   \\  /    A nd           | Web:      www.OpenFOAM.org                      |
|    \\/     M anipulation  |                                                 |
\*---------------------------------------------------------------------------*/
FoamFile
{
    version     2.0;
    format      ascii;
    class       volScalarField;
    location    "0.095";
    object      c-C6H4;
}
// * * * * * * * * * * * * * * * * * * * * * * * * * * * * * * * * * * * * * //

dimensions      [0 0 0 0 0 0 0];

internalField   nonuniform List<scalar> 
250
(
4.03832e-06
4.03765e-06
4.03857e-06
4.03794e-06
4.03814e-06
4.03941e-06
4.03831e-06
4.03864e-06
4.02382e-06
3.77448e-06
1.30214e-07
6.80505e-06
6.80367e-06
6.80547e-06
6.80448e-06
6.80405e-06
6.80761e-06
6.80724e-06
6.82264e-06
6.92156e-06
7.20952e-06
3.51079e-07
7.97724e-06
7.97484e-06
7.97801e-06
7.97644e-06
7.97517e-06
7.98106e-06
7.98205e-06
8.01398e-06
8.23801e-06
9.02357e-06
5.42609e-07
7.93717e-06
7.93371e-06
7.93835e-06
7.93581e-06
7.9342e-06
7.94168e-06
7.94402e-06
7.98983e-06
8.32367e-06
9.45573e-06
6.97457e-07
7.1645e-06
7.16027e-06
7.16529e-06
7.16154e-06
7.16232e-06
7.16874e-06
7.17214e-06
7.22687e-06
7.64424e-06
9.02031e-06
8.26328e-07
6.07151e-06
6.06592e-06
6.06929e-06
6.06329e-06
6.07445e-06
6.07589e-06
6.0859e-06
6.18246e-06
6.6735e-06
8.24196e-06
9.3813e-07
5.04065e-06
5.03266e-06
5.03448e-06
5.02627e-06
5.04739e-06
5.04447e-06
5.05656e-06
5.16433e-06
5.6896e-06
7.30461e-06
1.03184e-06
4.15101e-06
4.13544e-06
4.13691e-06
4.12571e-06
4.15897e-06
4.15443e-06
4.16872e-06
4.28766e-06
4.77509e-06
6.52975e-06
1.09608e-06
3.43215e-06
3.39353e-06
3.3956e-06
3.397e-06
3.44294e-06
3.43729e-06
3.4445e-06
3.52506e-06
4.04833e-06
5.81891e-06
1.10496e-06
2.81067e-06
2.82235e-06
2.82069e-06
2.83233e-06
2.81654e-06
2.81215e-06
2.81971e-06
2.89861e-06
3.4563e-06
5.247e-06
1.02728e-06
2.38069e-06
2.38636e-06
2.40827e-06
2.3983e-06
2.39536e-06
2.40282e-06
2.47892e-06
2.93833e-06
4.76363e-06
8.76035e-07
2.04492e-06
2.0611e-06
2.04939e-06
2.04361e-06
2.04227e-06
2.04964e-06
2.13063e-06
2.57779e-06
4.35299e-06
7.19481e-07
1.7884e-06
1.78612e-06
1.77666e-06
1.77383e-06
1.7737e-06
1.78099e-06
1.858e-06
2.28905e-06
3.99961e-06
5.9523e-07
1.58206e-06
1.57344e-06
1.56566e-06
1.56479e-06
1.56548e-06
1.57277e-06
1.64603e-06
2.02961e-06
3.67807e-06
4.95773e-07
1.40889e-06
1.40492e-06
1.39859e-06
1.39893e-06
1.40012e-06
1.40748e-06
1.47733e-06
1.84196e-06
3.40074e-06
4.14304e-07
1.26955e-06
1.26806e-06
1.26294e-06
1.26396e-06
1.26542e-06
1.27288e-06
1.33946e-06
1.67031e-06
3.10668e-06
3.5268e-07
1.15463e-06
1.15429e-06
1.15017e-06
1.15151e-06
1.15311e-06
1.16063e-06
1.22391e-06
1.51888e-06
2.82151e-06
3.15839e-07
1.05765e-06
1.05775e-06
1.05444e-06
1.0559e-06
1.05755e-06
1.06507e-06
1.1248e-06
1.38742e-06
2.58844e-06
3.07505e-07
9.74249e-07
9.74468e-07
9.71786e-07
9.73261e-07
9.74934e-07
9.82352e-07
1.03786e-06
1.27174e-06
2.36667e-06
3.28029e-07
9.01458e-07
9.01671e-07
8.99486e-07
9.00931e-07
9.02591e-07
9.09846e-07
9.59678e-07
1.16906e-06
2.15642e-06
3.75168e-07
8.37218e-07
8.37384e-07
8.3559e-07
8.36985e-07
8.38613e-07
8.45672e-07
8.97121e-07
1.07752e-06
1.95827e-06
4.43669e-07
7.79929e-07
7.80035e-07
7.78556e-07
7.79883e-07
7.81461e-07
7.8829e-07
8.39745e-07
9.95619e-07
1.774e-06
5.25655e-07
7.34109e-07
7.3417e-07
7.32889e-07
7.34172e-07
7.35707e-07
7.42197e-07
7.84921e-07
9.22125e-07
1.58824e-06
6.1152e-07
6.91066e-07
6.91194e-07
6.89983e-07
6.91386e-07
6.92938e-07
6.99178e-07
7.40929e-07
8.56191e-07
1.43076e-06
6.91983e-07
)
;

boundaryField
{
    fuel
    {
        type            fixedValue;
        value           uniform 0;
    }
    wall
    {
        type            zeroGradient;
    }
    outlet
    {
        type            zeroGradient;
    }
    frontAndBack
    {
        type            empty;
    }
    procBoundary3to0
    {
        type            processor;
        value           nonuniform List<scalar> 10(6.54492e-07 6.54596e-07 6.53496e-07 6.54873e-07 6.56378e-07 6.62252e-07 6.97933e-07 7.96491e-07 1.28839e-06 7.58435e-07);
    }
    procBoundary3to2
    {
        type            processor;
        value           nonuniform List<scalar> 
25
(
4.03813e-06
6.80466e-06
7.9767e-06
7.93666e-06
7.16435e-06
6.07283e-06
5.04214e-06
4.15018e-06
3.42739e-06
2.81898e-06
2.39609e-06
2.39609e-06
2.04243e-06
1.76974e-06
1.55261e-06
1.3958e-06
1.26721e-06
1.15241e-06
1.05566e-06
9.72415e-07
8.99705e-07
8.35529e-07
7.78324e-07
7.32591e-07
6.8956e-07
)
;
    }
}


// ************************************************************************* //
