/*--------------------------------*- C++ -*----------------------------------*\
| =========                 |                                                 |
| \\      /  F ield         | OpenFOAM: The Open Source CFD Toolbox           |
|  \\    /   O peration     | Version:  dev                                   |
|   \\  /    A nd           | Web:      www.OpenFOAM.org                      |
|    \\/     M anipulation  |                                                 |
\*---------------------------------------------------------------------------*/
FoamFile
{
    version     2.0;
    format      ascii;
    class       volScalarField;
    location    "0.095";
    object      C4H4;
}
// * * * * * * * * * * * * * * * * * * * * * * * * * * * * * * * * * * * * * //

dimensions      [0 0 0 0 0 0 0];

internalField   nonuniform List<scalar> 
250
(
6.28312e-05
6.29487e-05
6.28631e-05
6.29398e-05
6.28806e-05
6.28321e-05
6.28999e-05
6.31232e-05
6.40201e-05
7.7261e-05
0.000139186
2.33393e-05
2.33702e-05
2.33541e-05
2.33699e-05
2.33539e-05
2.33428e-05
2.33649e-05
2.34551e-05
2.37691e-05
2.84339e-05
0.000189563
1.11378e-05
1.11447e-05
1.11408e-05
1.11454e-05
1.11386e-05
1.11401e-05
1.11483e-05
1.12068e-05
1.13765e-05
1.37548e-05
0.000159482
6.78329e-06
6.78555e-06
6.78546e-06
6.7855e-06
6.78384e-06
6.78321e-06
6.79425e-06
6.83975e-06
6.9691e-06
8.33814e-06
0.000111141
4.99642e-06
4.99879e-06
5.00069e-06
4.99772e-06
4.99889e-06
4.99402e-06
5.01352e-06
5.04853e-06
5.19722e-06
6.07241e-06
7.51464e-05
4.16106e-06
4.1675e-06
4.17072e-06
4.16566e-06
4.16603e-06
4.15788e-06
4.18863e-06
4.21288e-06
4.37324e-06
5.00957e-06
5.13524e-05
3.69837e-06
3.69293e-06
3.69802e-06
3.69008e-06
3.70666e-06
3.67054e-06
3.72859e-06
3.74585e-06
3.95329e-06
4.44004e-06
3.45371e-05
3.35585e-06
3.35411e-06
3.36009e-06
3.35082e-06
3.36529e-06
3.35755e-06
3.39578e-06
3.41609e-06
3.68741e-06
4.11295e-06
2.19482e-05
3.12499e-06
3.12443e-06
3.1314e-06
3.12074e-06
3.13645e-06
3.11954e-06
3.17225e-06
3.18726e-06
3.46294e-06
3.9001e-06
1.29002e-05
2.91015e-06
2.90993e-06
2.91812e-06
2.90622e-06
2.92411e-06
2.89953e-06
2.96385e-06
2.97264e-06
3.29753e-06
3.74504e-06
7.22062e-06
2.72179e-06
2.73051e-06
2.71809e-06
2.73612e-06
2.70776e-06
2.78023e-06
2.7836e-06
3.14378e-06
3.6226e-06
4.20717e-06
2.55719e-06
2.56629e-06
2.55361e-06
2.56963e-06
2.53931e-06
2.61872e-06
2.61931e-06
2.99829e-06
3.54113e-06
2.86633e-06
2.41165e-06
2.42101e-06
2.40828e-06
2.41973e-06
2.38833e-06
2.47505e-06
2.4743e-06
2.86608e-06
3.46192e-06
2.44624e-06
2.28172e-06
2.29123e-06
2.27867e-06
2.30244e-06
2.26873e-06
2.34609e-06
2.34477e-06
2.74408e-06
3.37699e-06
2.43531e-06
2.1648e-06
2.17435e-06
2.16209e-06
2.18187e-06
2.16112e-06
2.22921e-06
2.22801e-06
2.63038e-06
3.30075e-06
2.6182e-06
2.05904e-06
2.06849e-06
2.05668e-06
2.08686e-06
2.05528e-06
2.12246e-06
2.12213e-06
2.52356e-06
3.22401e-06
2.90587e-06
1.96308e-06
1.97228e-06
1.96101e-06
1.98945e-06
1.95694e-06
2.02459e-06
2.02579e-06
2.42253e-06
3.14489e-06
3.25032e-06
1.87595e-06
1.88474e-06
1.8741e-06
1.90081e-06
1.86777e-06
1.93476e-06
1.93802e-06
2.32645e-06
3.06107e-06
3.61296e-06
1.79691e-06
1.80514e-06
1.79523e-06
1.82034e-06
1.79301e-06
1.85231e-06
1.85802e-06
2.23482e-06
2.96968e-06
3.95644e-06
1.72535e-06
1.73303e-06
1.72388e-06
1.74754e-06
1.7293e-06
1.77644e-06
1.78503e-06
2.16035e-06
2.87644e-06
4.24643e-06
1.66086e-06
1.66872e-06
1.65967e-06
1.68199e-06
1.66501e-06
1.71676e-06
1.72709e-06
2.08567e-06
2.77643e-06
4.45704e-06
1.61054e-06
1.61521e-06
1.6096e-06
1.62352e-06
1.61461e-06
1.65855e-06
1.67624e-06
2.01238e-06
2.67744e-06
4.577e-06
1.5665e-06
1.57285e-06
1.56618e-06
1.57915e-06
1.57065e-06
1.61211e-06
1.63099e-06
1.94329e-06
2.5727e-06
4.61082e-06
1.53104e-06
1.53279e-06
1.52686e-06
1.53787e-06
1.5312e-06
1.56864e-06
1.58973e-06
1.87865e-06
2.47148e-06
4.57513e-06
)
;

boundaryField
{
    fuel
    {
        type            fixedValue;
        value           uniform 0;
    }
    wall
    {
        type            zeroGradient;
    }
    outlet
    {
        type            zeroGradient;
    }
    frontAndBack
    {
        type            empty;
    }
    procBoundary3to0
    {
        type            processor;
        value           nonuniform List<scalar> 10(1.50357e-06 1.50424e-06 1.49929e-06 1.5082e-06 1.50362e-06 1.53619e-06 1.56047e-06 1.8283e-06 2.37806e-06 4.49081e-06);
    }
    procBoundary3to2
    {
        type            processor;
        value           nonuniform List<scalar> 
25
(
6.2859e-05
2.33554e-05
1.11417e-05
6.78429e-06
4.9963e-06
4.16049e-06
3.69855e-06
3.35603e-06
3.12494e-06
2.91009e-06
2.7219e-06
2.7219e-06
2.55706e-06
2.4113e-06
2.28115e-06
2.16402e-06
2.05824e-06
1.96313e-06
1.87815e-06
1.8003e-06
1.72838e-06
1.67099e-06
1.6208e-06
1.57712e-06
1.53688e-06
)
;
    }
}


// ************************************************************************* //
