/*--------------------------------*- C++ -*----------------------------------*\
| =========                 |                                                 |
| \\      /  F ield         | OpenFOAM: The Open Source CFD Toolbox           |
|  \\    /   O peration     | Version:  dev                                   |
|   \\  /    A nd           | Web:      www.OpenFOAM.org                      |
|    \\/     M anipulation  |                                                 |
\*---------------------------------------------------------------------------*/
FoamFile
{
    version     2.0;
    format      ascii;
    class       volScalarField;
    location    "0.095";
    object      CH2;
}
// * * * * * * * * * * * * * * * * * * * * * * * * * * * * * * * * * * * * * //

dimensions      [0 0 0 0 0 0 0];

internalField   nonuniform List<scalar> 
250
(
3.54684e-05
3.54286e-05
3.54635e-05
3.54401e-05
3.54575e-05
3.54691e-05
3.54573e-05
3.54459e-05
3.53732e-05
3.43465e-05
2.38472e-08
2.1719e-05
2.17172e-05
2.17174e-05
2.17213e-05
2.17133e-05
2.17239e-05
2.17169e-05
2.17242e-05
2.16441e-05
2.123e-05
1.8801e-07
1.10868e-05
1.10892e-05
1.10868e-05
1.10922e-05
1.10832e-05
1.10932e-05
1.10825e-05
1.11029e-05
1.099e-05
1.07543e-05
2.96789e-07
5.71089e-06
5.7129e-06
5.71191e-06
5.7146e-06
5.70936e-06
5.71546e-06
5.707e-06
5.72911e-06
5.62186e-06
5.44342e-06
1.74956e-07
3.26619e-06
3.26872e-06
3.26918e-06
3.26927e-06
3.26656e-06
3.26894e-06
3.26571e-06
3.28064e-06
3.20107e-06
3.0218e-06
8.70474e-08
2.14633e-06
2.15329e-06
2.15453e-06
2.15325e-06
2.14822e-06
2.14999e-06
2.15196e-06
2.15597e-06
2.06714e-06
1.91453e-06
5.24223e-08
1.60891e-06
1.60256e-06
1.60493e-06
1.60187e-06
1.61252e-06
1.58868e-06
1.61043e-06
1.60636e-06
1.54251e-06
1.37256e-06
4.88298e-08
1.30503e-06
1.3029e-06
1.30522e-06
1.30223e-06
1.30834e-06
1.3106e-06
1.31048e-06
1.30475e-06
1.27437e-06
1.10623e-06
7.21124e-08
1.15715e-06
1.15644e-06
1.15886e-06
1.15576e-06
1.16064e-06
1.15765e-06
1.16461e-06
1.1528e-06
1.10949e-06
9.59094e-07
1.36703e-07
1.05928e-06
1.05917e-06
1.06182e-06
1.05866e-06
1.06338e-06
1.0571e-06
1.0681e-06
1.05017e-06
1.01957e-06
8.62536e-07
2.74118e-07
9.94015e-07
9.96716e-07
9.93639e-07
9.98062e-07
9.90414e-07
1.00352e-06
9.80762e-07
9.55498e-07
7.87645e-07
5.19744e-07
9.46109e-07
9.48936e-07
9.45863e-07
9.49767e-07
9.41339e-07
9.5614e-07
9.30257e-07
9.05326e-07
7.37659e-07
8.65584e-07
9.07083e-07
9.10091e-07
9.06962e-07
9.0989e-07
9.00803e-07
9.17656e-07
8.8949e-07
8.64487e-07
6.8918e-07
1.19237e-06
8.72565e-07
8.75792e-07
8.72576e-07
8.78856e-07
8.68682e-07
8.83775e-07
8.5374e-07
8.28694e-07
6.39537e-07
1.38877e-06
8.40219e-07
8.43687e-07
8.40344e-07
8.45962e-07
8.38525e-07
8.52139e-07
8.20529e-07
7.95813e-07
5.97212e-07
1.41867e-06
8.0873e-07
8.12446e-07
8.08961e-07
8.18046e-07
8.06773e-07
8.21392e-07
7.8849e-07
7.64646e-07
5.59488e-07
1.31717e-06
7.7729e-07
7.81248e-07
7.77593e-07
7.86867e-07
7.74427e-07
7.90724e-07
7.56796e-07
7.34455e-07
5.25395e-07
1.14576e-06
7.45329e-07
7.49516e-07
7.45677e-07
7.55297e-07
7.41671e-07
7.59567e-07
7.24862e-07
7.04686e-07
4.9461e-07
9.56877e-07
7.12376e-07
7.16791e-07
7.1276e-07
7.22871e-07
7.10142e-07
7.27423e-07
6.92165e-07
6.74829e-07
4.66264e-07
7.8211e-07
6.7799e-07
6.8272e-07
6.78422e-07
6.89164e-07
6.79009e-07
6.93658e-07
6.58093e-07
6.48531e-07
4.41043e-07
6.35052e-07
6.41672e-07
6.47286e-07
6.42202e-07
6.53752e-07
6.42534e-07
6.62491e-07
6.26303e-07
6.19895e-07
4.16996e-07
5.18017e-07
6.07331e-07
6.11568e-07
6.07954e-07
6.16188e-07
6.07987e-07
6.26767e-07
5.93111e-07
5.88999e-07
3.94949e-07
4.27908e-07
5.70354e-07
5.76607e-07
5.71396e-07
5.80927e-07
5.70972e-07
5.92093e-07
5.5735e-07
5.56365e-07
3.72238e-07
3.59734e-07
5.32257e-07
5.35492e-07
5.29798e-07
5.40033e-07
5.29193e-07
5.52232e-07
5.16891e-07
5.21488e-07
3.4939e-07
3.08206e-07
)
;

boundaryField
{
    fuel
    {
        type            fixedValue;
        value           uniform 0;
    }
    wall
    {
        type            zeroGradient;
    }
    outlet
    {
        type            zeroGradient;
    }
    frontAndBack
    {
        type            empty;
    }
    procBoundary3to0
    {
        type            processor;
        value           nonuniform List<scalar> 10(4.92288e-07 4.95828e-07 4.89805e-07 5.00528e-07 4.89049e-07 5.13279e-07 4.78202e-07 4.8895e-07 3.26254e-07 2.6863e-07);
    }
    procBoundary3to2
    {
        type            processor;
        value           nonuniform List<scalar> 
25
(
3.54663e-05
2.17212e-05
1.10902e-05
5.71299e-06
3.26709e-06
2.14659e-06
1.60966e-06
1.30573e-06
1.15772e-06
1.05998e-06
9.93854e-07
9.93854e-07
9.46035e-07
9.07027e-07
8.72507e-07
8.40156e-07
8.08741e-07
7.77632e-07
7.46341e-07
7.13738e-07
6.79133e-07
6.46502e-07
6.1232e-07
5.75966e-07
5.3428e-07
)
;
    }
}


// ************************************************************************* //
