/*--------------------------------*- C++ -*----------------------------------*\
| =========                 |                                                 |
| \\      /  F ield         | OpenFOAM: The Open Source CFD Toolbox           |
|  \\    /   O peration     | Version:  dev                                   |
|   \\  /    A nd           | Web:      www.OpenFOAM.org                      |
|    \\/     M anipulation  |                                                 |
\*---------------------------------------------------------------------------*/
FoamFile
{
    version     2.0;
    format      ascii;
    class       volScalarField;
    location    "0.095";
    object      CH2(S);
}
// * * * * * * * * * * * * * * * * * * * * * * * * * * * * * * * * * * * * * //

dimensions      [0 0 0 0 0 0 0];

internalField   nonuniform List<scalar> 
250
(
2.28436e-06
2.28222e-06
2.28445e-06
2.2829e-06
2.28451e-06
2.28441e-06
2.28444e-06
2.28253e-06
2.27396e-06
2.14915e-06
9.88589e-10
1.3377e-06
1.33748e-06
1.33742e-06
1.33776e-06
1.33721e-06
1.33805e-06
1.33751e-06
1.33754e-06
1.33012e-06
1.27549e-06
2.29158e-09
6.41772e-07
6.41899e-07
6.41744e-07
6.42089e-07
6.4153e-07
6.42171e-07
6.41486e-07
6.42554e-07
6.34424e-07
6.06444e-07
2.7873e-09
3.13254e-07
3.13368e-07
3.13312e-07
3.1347e-07
3.13166e-07
3.13521e-07
3.1302e-07
3.14203e-07
3.07322e-07
2.90591e-07
1.67726e-09
1.71593e-07
1.71734e-07
1.71762e-07
1.71767e-07
1.71617e-07
1.71747e-07
1.71558e-07
1.72324e-07
1.67468e-07
1.54343e-07
9.65785e-10
1.09157e-07
1.09535e-07
1.09604e-07
1.09534e-07
1.09262e-07
1.09357e-07
1.09452e-07
1.09614e-07
1.04478e-07
9.45433e-08
7.63893e-10
8.00209e-08
7.96821e-08
7.98093e-08
7.96463e-08
8.02142e-08
7.89437e-08
8.00878e-08
7.98197e-08
7.61487e-08
6.61558e-08
1.00514e-09
6.38927e-08
6.3781e-08
6.39026e-08
6.37468e-08
6.40667e-08
6.41858e-08
6.41616e-08
6.38108e-08
6.19551e-08
5.25004e-08
1.96543e-09
5.61647e-08
5.61272e-08
5.6253e-08
5.60938e-08
5.63445e-08
5.61918e-08
5.65325e-08
5.58682e-08
5.33548e-08
4.50662e-08
4.55219e-09
5.11152e-08
5.11092e-08
5.1245e-08
5.10849e-08
5.13242e-08
5.1004e-08
5.15474e-08
5.05691e-08
4.87128e-08
4.02283e-08
1.06443e-08
4.77848e-08
4.79228e-08
4.77678e-08
4.79905e-08
4.76024e-08
4.82481e-08
4.70234e-08
4.54337e-08
3.64863e-08
2.26492e-08
4.53624e-08
4.55064e-08
4.53524e-08
4.55482e-08
4.51217e-08
4.58492e-08
4.44654e-08
4.28846e-08
3.399e-08
4.08286e-08
4.34005e-08
4.35535e-08
4.33971e-08
4.35439e-08
4.30848e-08
4.39127e-08
4.24126e-08
4.08221e-08
3.15712e-08
5.88847e-08
4.16696e-08
4.18337e-08
4.1673e-08
4.19875e-08
4.14737e-08
4.22131e-08
4.0618e-08
3.90227e-08
2.91008e-08
7.00807e-08
4.00475e-08
4.02239e-08
4.00566e-08
4.03385e-08
3.99606e-08
4.06269e-08
3.8952e-08
3.7375e-08
2.7002e-08
7.18527e-08
3.84656e-08
3.86548e-08
3.848e-08
3.89362e-08
3.83651e-08
3.90835e-08
3.73436e-08
3.58168e-08
2.51407e-08
6.61157e-08
3.68821e-08
3.70838e-08
3.69001e-08
3.73665e-08
3.67361e-08
3.75408e-08
3.575e-08
3.43098e-08
2.34679e-08
5.6517e-08
3.52679e-08
3.54814e-08
3.5288e-08
3.57728e-08
3.50821e-08
3.59695e-08
3.41414e-08
3.28253e-08
2.19675e-08
4.61363e-08
3.35993e-08
3.38246e-08
3.3621e-08
3.41315e-08
3.34853e-08
3.43443e-08
3.24912e-08
3.13371e-08
2.05959e-08
3.67484e-08
3.18546e-08
3.2096e-08
3.18785e-08
3.24215e-08
3.19047e-08
3.26334e-08
3.07691e-08
3.00254e-08
1.93834e-08
2.90391e-08
3.00095e-08
3.02958e-08
3.00382e-08
3.06223e-08
3.00511e-08
3.10505e-08
2.91599e-08
2.85968e-08
1.82343e-08
2.30504e-08
2.82633e-08
2.84794e-08
2.82964e-08
2.87127e-08
2.82941e-08
2.92348e-08
2.74789e-08
2.70557e-08
1.7186e-08
1.85438e-08
2.63841e-08
2.67018e-08
2.64381e-08
2.69201e-08
2.64129e-08
2.74721e-08
2.56695e-08
2.5429e-08
1.61101e-08
1.5205e-08
2.44514e-08
2.46161e-08
2.43288e-08
2.48453e-08
2.42948e-08
2.54491e-08
2.36276e-08
2.36929e-08
1.50307e-08
1.27286e-08
)
;

boundaryField
{
    fuel
    {
        type            fixedValue;
        value           uniform 0;
    }
    wall
    {
        type            zeroGradient;
    }
    outlet
    {
        type            zeroGradient;
    }
    frontAndBack
    {
        type            empty;
    }
    procBoundary3to0
    {
        type            processor;
        value           nonuniform List<scalar> 10(2.24308e-08 2.26105e-08 2.23079e-08 2.2847e-08 2.22667e-08 2.34774e-08 2.16817e-08 2.20759e-08 1.39407e-08 1.08707e-08);
    }
    procBoundary3to2
    {
        type            processor;
        value           nonuniform List<scalar> 
25
(
2.28456e-06
1.33767e-06
6.41953e-07
3.13375e-07
1.71645e-07
1.09172e-07
8.00616e-08
6.39309e-08
5.61954e-08
5.11525e-08
4.77773e-08
4.77773e-08
4.53591e-08
4.3398e-08
4.1667e-08
4.00448e-08
3.84669e-08
3.69002e-08
3.53194e-08
3.3668e-08
3.19117e-08
3.02527e-08
2.85136e-08
2.6665e-08
2.45505e-08
)
;
    }
}


// ************************************************************************* //
