/*--------------------------------*- C++ -*----------------------------------*\
| =========                 |                                                 |
| \\      /  F ield         | OpenFOAM: The Open Source CFD Toolbox           |
|  \\    /   O peration     | Version:  dev                                   |
|   \\  /    A nd           | Web:      www.OpenFOAM.org                      |
|    \\/     M anipulation  |                                                 |
\*---------------------------------------------------------------------------*/
FoamFile
{
    version     2.0;
    format      ascii;
    class       volScalarField;
    location    "0.095";
    object      HCO;
}
// * * * * * * * * * * * * * * * * * * * * * * * * * * * * * * * * * * * * * //

dimensions      [0 0 0 0 0 0 0];

internalField   nonuniform List<scalar> 
250
(
1.02338e-05
1.0234e-05
1.02338e-05
1.02339e-05
1.02338e-05
1.02342e-05
1.02346e-05
1.02393e-05
1.0288e-05
1.067e-05
6.0759e-09
4.7543e-06
4.75405e-06
4.75444e-06
4.75391e-06
4.75462e-06
4.7544e-06
4.75412e-06
4.75576e-06
4.76316e-06
4.87745e-06
4.65388e-09
1.97345e-06
1.97302e-06
1.97366e-06
1.97298e-06
1.97365e-06
1.9734e-06
1.97297e-06
1.97327e-06
1.96553e-06
2.00036e-06
2.79831e-09
8.67025e-07
8.66661e-07
8.67178e-07
8.66665e-07
8.6715e-07
8.66925e-07
8.66551e-07
8.65991e-07
8.55993e-07
8.76697e-07
1.96373e-09
4.47108e-07
4.46858e-07
4.47209e-07
4.46869e-07
4.47181e-07
4.46983e-07
4.46566e-07
4.44806e-07
4.34807e-07
4.50709e-07
1.81124e-09
2.73376e-07
2.73152e-07
2.73339e-07
2.73045e-07
2.73593e-07
2.73368e-07
2.73433e-07
2.74267e-07
2.66025e-07
2.76169e-07
2.34701e-09
1.99919e-07
1.99708e-07
1.99812e-07
1.99566e-07
2.00151e-07
1.99909e-07
1.99918e-07
2.0005e-07
1.91529e-07
1.86648e-07
5.01714e-09
1.63912e-07
1.63597e-07
1.6367e-07
1.63405e-07
1.64121e-07
1.63912e-07
1.63927e-07
1.63892e-07
1.53374e-07
1.4272e-07
1.82899e-08
1.44365e-07
1.43618e-07
1.437e-07
1.43736e-07
1.44631e-07
1.44441e-07
1.44271e-07
1.43142e-07
1.33215e-07
1.14284e-07
8.2937e-08
1.31597e-07
1.3183e-07
1.31857e-07
1.32046e-07
1.31779e-07
1.31645e-07
1.31486e-07
1.30314e-07
1.20821e-07
9.63478e-08
2.70744e-07
1.2404e-07
1.24199e-07
1.24546e-07
1.24429e-07
1.24335e-07
1.24174e-07
1.22965e-07
1.11829e-07
8.37556e-08
5.09702e-07
1.1848e-07
1.18819e-07
1.1862e-07
1.18591e-07
1.18532e-07
1.18369e-07
1.17273e-07
1.06155e-07
7.451e-08
6.14437e-07
1.14172e-07
1.14203e-07
1.14041e-07
1.14064e-07
1.1403e-07
1.13866e-07
1.12771e-07
1.01796e-07
6.75348e-08
5.06736e-07
1.10439e-07
1.1034e-07
1.10198e-07
1.10255e-07
1.10236e-07
1.10076e-07
1.09014e-07
9.78885e-08
6.219e-08
3.34145e-07
1.06906e-07
1.06883e-07
1.06756e-07
1.06835e-07
1.06828e-07
1.06674e-07
1.05678e-07
9.49979e-08
5.85486e-08
2.03853e-07
1.03623e-07
1.03641e-07
1.03526e-07
1.0362e-07
1.03623e-07
1.03478e-07
1.02574e-07
9.22401e-08
5.58009e-08
1.27031e-07
1.00458e-07
1.00499e-07
1.00392e-07
1.00498e-07
1.00509e-07
1.00376e-07
9.95838e-08
8.96643e-08
5.40573e-08
8.5345e-08
9.73268e-08
9.73779e-08
9.72773e-08
9.73944e-08
9.74133e-08
9.72946e-08
9.66218e-08
8.72554e-08
5.32082e-08
6.27164e-08
9.41655e-08
9.42231e-08
9.41264e-08
9.42546e-08
9.42823e-08
9.41788e-08
9.36117e-08
8.49304e-08
5.28473e-08
4.98285e-08
9.09236e-08
9.09866e-08
9.08918e-08
9.10322e-08
9.1069e-08
9.09823e-08
9.04701e-08
8.26214e-08
5.28177e-08
4.20282e-08
8.75543e-08
8.76228e-08
8.75285e-08
8.76817e-08
8.7728e-08
8.7661e-08
8.75761e-08
8.0273e-08
5.29818e-08
3.71362e-08
8.40072e-08
8.40816e-08
8.39868e-08
8.41531e-08
8.4209e-08
8.41636e-08
8.44955e-08
7.78256e-08
5.32146e-08
3.41224e-08
8.06811e-08
8.07617e-08
8.06637e-08
8.08436e-08
8.09087e-08
8.0876e-08
8.10257e-08
7.52209e-08
5.34262e-08
3.24449e-08
7.6972e-08
7.70706e-08
7.69592e-08
7.71702e-08
7.72515e-08
7.72436e-08
7.77744e-08
7.24115e-08
5.34822e-08
3.17557e-08
)
;

boundaryField
{
    fuel
    {
        type            fixedValue;
        value           uniform 0;
    }
    wall
    {
        type            zeroGradient;
    }
    outlet
    {
        type            zeroGradient;
    }
    frontAndBack
    {
        type            empty;
    }
    procBoundary3to0
    {
        type            processor;
        value           nonuniform List<scalar> 10(7.32736e-08 7.33809e-08 7.32634e-08 7.34904e-08 7.35814e-08 7.35855e-08 7.4002e-08 6.93206e-08 5.32978e-08 3.17974e-08);
    }
    procBoundary3to2
    {
        type            processor;
        value           nonuniform List<scalar> 
25
(
1.02339e-05
4.75432e-06
1.97337e-06
8.66934e-07
4.47021e-07
2.73385e-07
1.99919e-07
1.63869e-07
1.44265e-07
1.31738e-07
1.24287e-07
1.24287e-07
1.18432e-07
1.1382e-07
1.09824e-07
1.06586e-07
1.03546e-07
1.00375e-07
9.72429e-08
9.40795e-08
9.08329e-08
8.74574e-08
8.39035e-08
8.05702e-08
7.68435e-08
)
;
    }
}


// ************************************************************************* //
