/*--------------------------------*- C++ -*----------------------------------*\
| =========                 |                                                 |
| \\      /  F ield         | OpenFOAM: The Open Source CFD Toolbox           |
|  \\    /   O peration     | Version:  dev                                   |
|   \\  /    A nd           | Web:      www.OpenFOAM.org                      |
|    \\/     M anipulation  |                                                 |
\*---------------------------------------------------------------------------*/
FoamFile
{
    version     2.0;
    format      ascii;
    class       volScalarField;
    location    "0.095";
    object      HCO;
}
// * * * * * * * * * * * * * * * * * * * * * * * * * * * * * * * * * * * * * //

dimensions      [0 0 0 0 0 0 0];

internalField   nonuniform List<scalar> 
1989
(
1.48021e-08
1.4797e-08
1.47945e-08
1.4791e-08
1.479e-08
1.47878e-08
1.47875e-08
1.47861e-08
1.47861e-08
1.47853e-08
1.47854e-08
1.47849e-08
1.4785e-08
1.47849e-08
1.47849e-08
1.4785e-08
1.47849e-08
1.47854e-08
1.47853e-08
1.47861e-08
1.47861e-08
1.47875e-08
1.47878e-08
1.479e-08
1.47911e-08
1.47945e-08
1.4797e-08
1.48021e-08
1.48078e-08
1.48164e-08
1.48299e-08
1.48454e-08
1.48722e-08
1.49e-08
1.4954e-08
1.50151e-08
1.50834e-08
1.51999e-08
1.52643e-08
1.45808e-08
1.4518e-08
1.44044e-08
1.43393e-08
1.42816e-08
1.42304e-08
1.42034e-08
1.41782e-08
1.41636e-08
1.41509e-08
1.41427e-08
1.41373e-08
1.41325e-08
1.41301e-08
1.41268e-08
1.41259e-08
1.41238e-08
1.41235e-08
1.41222e-08
1.41222e-08
1.41214e-08
1.41215e-08
1.41211e-08
1.41211e-08
1.4121e-08
1.4121e-08
1.41211e-08
1.4121e-08
1.41215e-08
1.41214e-08
1.41222e-08
1.41222e-08
1.41235e-08
1.41238e-08
1.41259e-08
1.41269e-08
1.41301e-08
1.41325e-08
1.41373e-08
1.41427e-08
1.41509e-08
1.41636e-08
1.41782e-08
1.42034e-08
1.42303e-08
1.42816e-08
1.43393e-08
1.44043e-08
1.4518e-08
1.45807e-08
1.39308e-08
1.387e-08
1.37586e-08
1.3697e-08
1.36426e-08
1.3594e-08
1.35681e-08
1.35443e-08
1.35306e-08
1.35186e-08
1.35108e-08
1.35057e-08
1.35012e-08
1.34989e-08
1.34958e-08
1.3495e-08
1.3493e-08
1.34927e-08
1.34914e-08
1.34914e-08
1.34907e-08
1.34908e-08
1.34904e-08
1.34904e-08
1.34903e-08
1.34903e-08
1.34904e-08
1.34904e-08
1.34908e-08
1.34907e-08
1.34914e-08
1.34914e-08
1.34927e-08
1.3493e-08
1.3495e-08
1.34959e-08
1.3499e-08
1.35012e-08
1.35057e-08
1.35108e-08
1.35187e-08
1.35306e-08
1.35443e-08
1.35681e-08
1.35939e-08
1.36425e-08
1.3697e-08
1.37586e-08
1.387e-08
1.39307e-08
1.33072e-08
1.3248e-08
1.31379e-08
1.30793e-08
1.30276e-08
1.29813e-08
1.29567e-08
1.2934e-08
1.29211e-08
1.29096e-08
1.29021e-08
1.28973e-08
1.28931e-08
1.28909e-08
1.2888e-08
1.28872e-08
1.28853e-08
1.2885e-08
1.28838e-08
1.28838e-08
1.28831e-08
1.28832e-08
1.28828e-08
1.28829e-08
1.28828e-08
1.28828e-08
1.28829e-08
1.28828e-08
1.28832e-08
1.28831e-08
1.28838e-08
1.28838e-08
1.2885e-08
1.28853e-08
1.28872e-08
1.2888e-08
1.2891e-08
1.28931e-08
1.28973e-08
1.29021e-08
1.29097e-08
1.29211e-08
1.2934e-08
1.29567e-08
1.29812e-08
1.30276e-08
1.30793e-08
1.31379e-08
1.3248e-08
1.33071e-08
1.27075e-08
1.26509e-08
1.2557e-08
1.25022e-08
1.24533e-08
1.24093e-08
1.23863e-08
1.23646e-08
1.23525e-08
1.23417e-08
1.23345e-08
1.233e-08
1.2326e-08
1.2324e-08
1.23212e-08
1.23205e-08
1.23187e-08
1.23184e-08
1.23173e-08
1.23173e-08
1.23166e-08
1.23167e-08
1.23163e-08
1.23164e-08
1.23163e-08
1.23163e-08
1.23164e-08
1.23163e-08
1.23167e-08
1.23166e-08
1.23173e-08
1.23173e-08
1.23184e-08
1.23187e-08
1.23205e-08
1.23212e-08
1.2324e-08
1.2326e-08
1.233e-08
1.23345e-08
1.23418e-08
1.23525e-08
1.23646e-08
1.23863e-08
1.24093e-08
1.24532e-08
1.25021e-08
1.25569e-08
1.26509e-08
1.27074e-08
1.21542e-08
1.20999e-08
1.20072e-08
1.19534e-08
1.19059e-08
1.18631e-08
1.1841e-08
1.18198e-08
1.18083e-08
1.17978e-08
1.17909e-08
1.17866e-08
1.17827e-08
1.17809e-08
1.17782e-08
1.17775e-08
1.17757e-08
1.17755e-08
1.17744e-08
1.17744e-08
1.17738e-08
1.17738e-08
1.17735e-08
1.17735e-08
1.17734e-08
1.17734e-08
1.17735e-08
1.17735e-08
1.17738e-08
1.17737e-08
1.17744e-08
1.17744e-08
1.17755e-08
1.17757e-08
1.17775e-08
1.17782e-08
1.17809e-08
1.17828e-08
1.17866e-08
1.17909e-08
1.17979e-08
1.18083e-08
1.18198e-08
1.1841e-08
1.1863e-08
1.19059e-08
1.19534e-08
1.20071e-08
1.20999e-08
1.2154e-08
1.16328e-08
1.15804e-08
1.14905e-08
1.14393e-08
1.13944e-08
1.13536e-08
1.13329e-08
1.13127e-08
1.13018e-08
1.12919e-08
1.12854e-08
1.12813e-08
1.12776e-08
1.12759e-08
1.12733e-08
1.12726e-08
1.1271e-08
1.12708e-08
1.12697e-08
1.12698e-08
1.12691e-08
1.12692e-08
1.12689e-08
1.12689e-08
1.12688e-08
1.12688e-08
1.12689e-08
1.12689e-08
1.12692e-08
1.12691e-08
1.12698e-08
1.12697e-08
1.12708e-08
1.1271e-08
1.12727e-08
1.12733e-08
1.12759e-08
1.12777e-08
1.12813e-08
1.12853e-08
1.1292e-08
1.13018e-08
1.13127e-08
1.13329e-08
1.13536e-08
1.13944e-08
1.14392e-08
1.14905e-08
1.15804e-08
1.16327e-08
1.11421e-08
1.10909e-08
1.10047e-08
1.09553e-08
1.0913e-08
1.08741e-08
1.08547e-08
1.08353e-08
1.08252e-08
1.08157e-08
1.08095e-08
1.08057e-08
1.08023e-08
1.08006e-08
1.07982e-08
1.07976e-08
1.0796e-08
1.07958e-08
1.07948e-08
1.07948e-08
1.07942e-08
1.07943e-08
1.0794e-08
1.0794e-08
1.07939e-08
1.07939e-08
1.0794e-08
1.0794e-08
1.07943e-08
1.07942e-08
1.07948e-08
1.07948e-08
1.07958e-08
1.0796e-08
1.07976e-08
1.07982e-08
1.08006e-08
1.08023e-08
1.08057e-08
1.08095e-08
1.08158e-08
1.08252e-08
1.08353e-08
1.08547e-08
1.08741e-08
1.0913e-08
1.09553e-08
1.10047e-08
1.10909e-08
1.11419e-08
1.06718e-08
1.0622e-08
1.05394e-08
1.0491e-08
1.04509e-08
1.04137e-08
1.03954e-08
1.03768e-08
1.03672e-08
1.03581e-08
1.03522e-08
1.03486e-08
1.03453e-08
1.03438e-08
1.03415e-08
1.03409e-08
1.03394e-08
1.03392e-08
1.03383e-08
1.03383e-08
1.03377e-08
1.03378e-08
1.03375e-08
1.03376e-08
1.03375e-08
1.03374e-08
1.03376e-08
1.03375e-08
1.03378e-08
1.03377e-08
1.03383e-08
1.03383e-08
1.03392e-08
1.03394e-08
1.03409e-08
1.03415e-08
1.03438e-08
1.03454e-08
1.03486e-08
1.03522e-08
1.03582e-08
1.03672e-08
1.03768e-08
1.03953e-08
1.04137e-08
1.04508e-08
1.0491e-08
1.05394e-08
1.0622e-08
1.06717e-08
1.02265e-08
1.01783e-08
1.01005e-08
1.00534e-08
1.00155e-08
9.98051e-09
9.96323e-09
9.94559e-09
9.93661e-09
9.92789e-09
9.92238e-09
9.919e-09
9.91595e-09
9.91448e-09
9.91231e-09
9.91175e-09
9.91034e-09
9.91018e-09
9.90928e-09
9.90931e-09
9.90877e-09
9.90884e-09
9.90855e-09
9.90861e-09
9.90851e-09
9.90851e-09
9.9086e-09
9.90854e-09
9.90884e-09
9.90876e-09
9.9093e-09
9.90928e-09
9.91018e-09
9.91034e-09
9.91176e-09
9.91233e-09
9.9145e-09
9.91597e-09
9.91899e-09
9.92233e-09
9.92796e-09
9.93661e-09
9.94557e-09
9.96319e-09
9.98047e-09
1.00155e-08
1.00534e-08
1.01005e-08
1.01784e-08
1.02263e-08
9.80904e-09
9.7626e-09
9.68917e-09
9.65204e-09
9.61619e-09
9.5829e-09
9.56669e-09
9.5498e-09
9.54135e-09
9.53305e-09
9.52781e-09
9.52466e-09
9.52178e-09
9.5204e-09
9.51834e-09
9.51781e-09
9.51647e-09
9.51632e-09
9.51547e-09
9.51549e-09
9.51498e-09
9.51505e-09
9.51478e-09
9.51483e-09
9.51473e-09
9.51473e-09
9.51483e-09
9.51477e-09
9.51505e-09
9.51498e-09
9.51549e-09
9.51547e-09
9.51633e-09
9.51647e-09
9.51782e-09
9.51835e-09
9.52042e-09
9.5218e-09
9.52465e-09
9.52778e-09
9.5331e-09
9.54135e-09
9.54978e-09
9.56665e-09
9.58287e-09
9.61617e-09
9.652e-09
9.68918e-09
9.76263e-09
9.80888e-09
9.42644e-09
9.38158e-09
9.31152e-09
9.27648e-09
9.24242e-09
9.21081e-09
9.19558e-09
9.1794e-09
9.17144e-09
9.16353e-09
9.15853e-09
9.15548e-09
9.15264e-09
9.15128e-09
9.14924e-09
9.14873e-09
9.1474e-09
9.14726e-09
9.14641e-09
9.14644e-09
9.14593e-09
9.146e-09
9.14573e-09
9.14578e-09
9.14568e-09
9.14568e-09
9.14578e-09
9.14572e-09
9.14599e-09
9.14592e-09
9.14644e-09
9.14641e-09
9.14726e-09
9.1474e-09
9.14874e-09
9.14926e-09
9.1513e-09
9.15266e-09
9.15547e-09
9.15851e-09
9.16357e-09
9.17144e-09
9.17938e-09
9.19554e-09
9.21078e-09
9.2424e-09
9.27643e-09
9.31154e-09
9.38165e-09
9.42626e-09
9.06437e-09
9.01997e-09
8.9515e-09
8.918e-09
8.8851e-09
8.85536e-09
8.841e-09
8.82558e-09
8.81806e-09
8.81054e-09
8.80577e-09
8.80292e-09
8.80022e-09
8.79892e-09
8.79698e-09
8.79649e-09
8.79522e-09
8.79509e-09
8.79428e-09
8.7943e-09
8.79381e-09
8.79388e-09
8.79362e-09
8.79367e-09
8.79358e-09
8.79358e-09
8.79367e-09
8.79361e-09
8.79387e-09
8.79381e-09
8.7943e-09
8.79428e-09
8.79509e-09
8.79522e-09
8.7965e-09
8.79699e-09
8.79894e-09
8.80023e-09
8.80291e-09
8.80576e-09
8.81057e-09
8.81806e-09
8.82556e-09
8.84096e-09
8.85533e-09
8.88507e-09
8.91795e-09
8.95153e-09
9.02006e-09
9.06416e-09
8.72169e-09
8.67834e-09
8.61301e-09
8.5812e-09
8.54952e-09
8.52161e-09
8.50802e-09
8.49333e-09
8.4862e-09
8.47903e-09
8.47447e-09
8.4718e-09
8.46925e-09
8.46801e-09
8.46616e-09
8.46569e-09
8.46448e-09
8.46435e-09
8.46358e-09
8.4636e-09
8.46313e-09
8.4632e-09
8.46294e-09
8.46299e-09
8.46291e-09
8.4629e-09
8.46299e-09
8.46294e-09
8.46319e-09
8.46313e-09
8.46359e-09
8.46358e-09
8.46435e-09
8.46448e-09
8.4657e-09
8.46617e-09
8.46803e-09
8.46926e-09
8.4718e-09
8.47447e-09
8.47905e-09
8.4862e-09
8.49331e-09
8.50798e-09
8.52157e-09
8.5495e-09
8.58115e-09
8.61305e-09
8.67843e-09
8.72149e-09
8.40744e-09
8.36456e-09
8.30245e-09
8.27172e-09
8.24132e-09
8.21477e-09
8.20192e-09
8.18778e-09
8.18102e-09
8.17414e-09
8.16975e-09
8.16724e-09
8.1648e-09
8.16363e-09
8.16185e-09
8.1614e-09
8.16024e-09
8.16012e-09
8.15937e-09
8.15939e-09
8.15895e-09
8.15901e-09
8.15876e-09
8.15881e-09
8.15873e-09
8.15873e-09
8.15881e-09
8.15876e-09
8.159e-09
8.15894e-09
8.15939e-09
8.15937e-09
8.16012e-09
8.16024e-09
8.16141e-09
8.16186e-09
8.16364e-09
8.16482e-09
8.16723e-09
8.16976e-09
8.17415e-09
8.18102e-09
8.18776e-09
8.20188e-09
8.21474e-09
8.2413e-09
8.27167e-09
8.30249e-09
8.36465e-09
8.40724e-09
8.11261e-09
8.07076e-09
8.01165e-09
7.98137e-09
7.95213e-09
7.92596e-09
7.91354e-09
7.8996e-09
7.89306e-09
7.8863e-09
7.88199e-09
7.87956e-09
7.8772e-09
7.87605e-09
7.87432e-09
7.87389e-09
7.87275e-09
7.87263e-09
7.8719e-09
7.87192e-09
7.87148e-09
7.87154e-09
7.8713e-09
7.87135e-09
7.87127e-09
7.87126e-09
7.87135e-09
7.8713e-09
7.87154e-09
7.87147e-09
7.87192e-09
7.8719e-09
7.87263e-09
7.87275e-09
7.87389e-09
7.87433e-09
7.87607e-09
7.87721e-09
7.87955e-09
7.882e-09
7.88631e-09
7.89306e-09
7.89958e-09
7.91351e-09
7.92593e-09
7.95211e-09
7.98132e-09
8.01169e-09
8.07085e-09
8.11241e-09
7.83533e-09
7.79437e-09
7.73786e-09
7.70793e-09
7.67999e-09
7.65459e-09
7.64273e-09
7.62915e-09
7.6229e-09
7.61631e-09
7.61213e-09
7.60976e-09
7.6075e-09
7.6064e-09
7.60472e-09
7.60431e-09
7.6032e-09
7.6031e-09
7.60239e-09
7.60241e-09
7.60198e-09
7.60204e-09
7.60181e-09
7.60185e-09
7.60177e-09
7.60177e-09
7.60185e-09
7.6018e-09
7.60203e-09
7.60197e-09
7.6024e-09
7.60239e-09
7.6031e-09
7.6032e-09
7.60431e-09
7.60473e-09
7.60642e-09
7.60752e-09
7.60975e-09
7.61214e-09
7.61632e-09
7.62289e-09
7.62913e-09
7.6427e-09
7.65456e-09
7.67997e-09
7.70789e-09
7.7379e-09
7.79445e-09
7.83514e-09
7.57308e-09
7.53275e-09
7.4784e-09
7.44869e-09
7.42187e-09
7.3971e-09
7.38574e-09
7.37246e-09
7.36646e-09
7.36001e-09
7.35594e-09
7.35356e-09
7.35141e-09
7.35035e-09
7.34871e-09
7.34832e-09
7.34724e-09
7.34714e-09
7.34645e-09
7.34647e-09
7.34605e-09
7.34611e-09
7.34588e-09
7.34593e-09
7.34585e-09
7.34585e-09
7.34593e-09
7.34587e-09
7.3461e-09
7.34604e-09
7.34647e-09
7.34645e-09
7.34714e-09
7.34724e-09
7.34832e-09
7.34872e-09
7.35036e-09
7.35142e-09
7.35356e-09
7.35595e-09
7.36002e-09
7.36645e-09
7.37244e-09
7.38571e-09
7.39707e-09
7.42185e-09
7.44865e-09
7.47843e-09
7.53281e-09
7.5729e-09
7.32237e-09
7.28154e-09
7.22816e-09
7.19818e-09
7.17199e-09
7.14755e-09
7.13649e-09
7.12336e-09
7.11752e-09
7.11115e-09
7.10712e-09
7.10466e-09
7.10256e-09
7.10153e-09
7.09993e-09
7.09954e-09
7.09849e-09
7.09839e-09
7.09772e-09
7.09774e-09
7.09732e-09
7.09738e-09
7.09716e-09
7.0972e-09
7.09712e-09
7.09712e-09
7.0972e-09
7.09715e-09
7.09738e-09
7.09732e-09
7.09773e-09
7.09771e-09
7.09839e-09
7.09849e-09
7.09955e-09
7.09994e-09
7.10154e-09
7.10257e-09
7.10466e-09
7.10713e-09
7.11115e-09
7.11751e-09
7.12334e-09
7.13646e-09
7.14751e-09
7.17197e-09
7.19814e-09
7.22819e-09
7.28157e-09
7.3222e-09
7.0818e-09
7.04073e-09
6.98866e-09
6.9586e-09
6.93312e-09
6.909e-09
6.89832e-09
6.88533e-09
6.87967e-09
6.87337e-09
6.8694e-09
6.8668e-09
6.86471e-09
6.86371e-09
6.86213e-09
6.86177e-09
6.86073e-09
6.86065e-09
6.85998e-09
6.86e-09
6.85959e-09
6.85966e-09
6.85943e-09
6.85948e-09
6.8594e-09
6.8594e-09
6.85948e-09
6.85943e-09
6.85965e-09
6.85959e-09
6.86e-09
6.85998e-09
6.86065e-09
6.86073e-09
6.86177e-09
6.86214e-09
6.86372e-09
6.86472e-09
6.86681e-09
6.86941e-09
6.87338e-09
6.87966e-09
6.88531e-09
6.89829e-09
6.90897e-09
6.93309e-09
6.95856e-09
6.98868e-09
7.04072e-09
7.08165e-09
6.84788e-09
6.80606e-09
6.75514e-09
6.72492e-09
6.7e-09
6.6761e-09
6.66578e-09
6.65287e-09
6.64738e-09
6.64114e-09
6.63721e-09
6.63447e-09
6.63222e-09
6.63125e-09
6.6297e-09
6.62936e-09
6.62834e-09
6.62826e-09
6.62761e-09
6.62763e-09
6.62723e-09
6.62729e-09
6.62707e-09
6.62712e-09
6.62704e-09
6.62703e-09
6.62711e-09
6.62706e-09
6.62728e-09
6.62722e-09
6.62763e-09
6.6276e-09
6.62826e-09
6.62834e-09
6.62936e-09
6.62971e-09
6.63127e-09
6.63224e-09
6.63447e-09
6.63722e-09
6.64115e-09
6.64737e-09
6.65284e-09
6.66575e-09
6.67607e-09
6.69998e-09
6.72488e-09
6.75516e-09
6.80601e-09
6.84773e-09
6.61823e-09
6.57499e-09
6.52523e-09
6.4948e-09
6.47034e-09
6.44658e-09
6.43661e-09
6.42376e-09
6.41842e-09
6.41226e-09
6.40836e-09
6.40555e-09
6.40292e-09
6.40198e-09
6.40045e-09
6.40013e-09
6.39912e-09
6.39906e-09
6.39841e-09
6.39844e-09
6.39804e-09
6.3981e-09
6.39788e-09
6.39793e-09
6.39785e-09
6.39785e-09
6.39793e-09
6.39787e-09
6.3981e-09
6.39803e-09
6.39844e-09
6.39841e-09
6.39906e-09
6.39912e-09
6.40013e-09
6.40046e-09
6.40199e-09
6.40293e-09
6.40555e-09
6.40837e-09
6.41226e-09
6.41841e-09
6.42374e-09
6.43658e-09
6.44655e-09
6.47031e-09
6.49477e-09
6.52525e-09
6.5749e-09
6.61807e-09
6.39129e-09
6.34706e-09
6.29804e-09
6.26737e-09
6.24337e-09
6.21965e-09
6.21005e-09
6.19729e-09
6.19208e-09
6.18602e-09
6.18221e-09
6.17951e-09
6.17636e-09
6.17546e-09
6.17395e-09
6.17365e-09
6.17266e-09
6.17261e-09
6.17197e-09
6.17201e-09
6.17161e-09
6.17168e-09
6.17146e-09
6.17151e-09
6.17143e-09
6.17143e-09
6.17151e-09
6.17145e-09
6.17167e-09
6.17161e-09
6.17201e-09
6.17197e-09
6.17261e-09
6.17266e-09
6.17365e-09
6.17396e-09
6.17547e-09
6.17637e-09
6.17951e-09
6.18222e-09
6.18602e-09
6.19207e-09
6.19727e-09
6.21002e-09
6.21962e-09
6.24334e-09
6.26734e-09
6.29805e-09
6.34668e-09
6.39136e-09
6.16804e-09
6.12301e-09
6.07338e-09
6.0421e-09
6.01937e-09
5.99446e-09
5.98513e-09
5.97253e-09
5.96734e-09
5.96139e-09
5.95775e-09
5.95538e-09
5.95496e-09
5.95411e-09
5.95264e-09
5.95237e-09
5.9514e-09
5.95137e-09
5.95075e-09
5.9508e-09
5.9504e-09
5.95047e-09
5.95026e-09
5.95031e-09
5.95023e-09
5.95023e-09
5.9503e-09
5.95025e-09
5.95047e-09
5.9504e-09
5.95079e-09
5.95075e-09
5.95137e-09
5.9514e-09
5.95237e-09
5.95265e-09
5.95413e-09
5.95497e-09
5.95538e-09
5.95776e-09
5.96139e-09
5.96733e-09
5.97251e-09
5.9851e-09
5.99443e-09
6.01934e-09
6.04207e-09
6.07339e-09
6.12228e-09
6.16838e-09
5.95504e-09
5.91029e-09
5.86091e-09
5.82936e-09
5.80756e-09
5.78254e-09
5.77361e-09
5.76144e-09
5.75629e-09
5.7506e-09
5.74723e-09
5.74536e-09
5.74486e-09
5.74408e-09
5.74267e-09
5.74242e-09
5.74149e-09
5.74147e-09
5.74088e-09
5.74094e-09
5.74055e-09
5.74062e-09
5.74041e-09
5.74047e-09
5.74039e-09
5.74039e-09
5.74046e-09
5.74041e-09
5.74062e-09
5.74054e-09
5.74093e-09
5.74088e-09
5.74147e-09
5.74148e-09
5.74242e-09
5.74267e-09
5.74409e-09
5.74488e-09
5.74536e-09
5.74723e-09
5.7506e-09
5.75627e-09
5.76141e-09
5.77358e-09
5.78251e-09
5.80753e-09
5.82934e-09
5.86092e-09
5.90931e-09
5.95559e-09
5.76103e-09
5.71698e-09
5.6677e-09
5.63538e-09
5.61455e-09
5.59117e-09
5.58263e-09
5.5711e-09
5.56603e-09
5.56076e-09
5.55774e-09
5.55642e-09
5.55568e-09
5.55497e-09
5.55363e-09
5.55343e-09
5.55254e-09
5.55255e-09
5.552e-09
5.55206e-09
5.55168e-09
5.55176e-09
5.55156e-09
5.55161e-09
5.55154e-09
5.55154e-09
5.55161e-09
5.55155e-09
5.55176e-09
5.55168e-09
5.55206e-09
5.55199e-09
5.55255e-09
5.55254e-09
5.55343e-09
5.55364e-09
5.55498e-09
5.55569e-09
5.55643e-09
5.55774e-09
5.56076e-09
5.56601e-09
5.57108e-09
5.5826e-09
5.59114e-09
5.61452e-09
5.63536e-09
5.66771e-09
5.71584e-09
5.7617e-09
5.59314e-09
5.54993e-09
5.5016e-09
5.47384e-09
5.45432e-09
5.4316e-09
5.42313e-09
5.41119e-09
5.40768e-09
5.40291e-09
5.40026e-09
5.39943e-09
5.39845e-09
5.39783e-09
5.39658e-09
5.39642e-09
5.39558e-09
5.39561e-09
5.3951e-09
5.39517e-09
5.39481e-09
5.39489e-09
5.3947e-09
5.39475e-09
5.39468e-09
5.39468e-09
5.39475e-09
5.39469e-09
5.39489e-09
5.39481e-09
5.39517e-09
5.3951e-09
5.39561e-09
5.39558e-09
5.39642e-09
5.39659e-09
5.39784e-09
5.39846e-09
5.39944e-09
5.40027e-09
5.4029e-09
5.40766e-09
5.41117e-09
5.4231e-09
5.43157e-09
5.45429e-09
5.47382e-09
5.5016e-09
5.5487e-09
5.59389e-09
5.46479e-09
5.42295e-09
5.38049e-09
5.35392e-09
5.33298e-09
5.31363e-09
5.30535e-09
5.29393e-09
5.29024e-09
5.28498e-09
5.28207e-09
5.2812e-09
5.27983e-09
5.27908e-09
5.27779e-09
5.27755e-09
5.27671e-09
5.2767e-09
5.27621e-09
5.27625e-09
5.27589e-09
5.27595e-09
5.27575e-09
5.2758e-09
5.27573e-09
5.27573e-09
5.2758e-09
5.27575e-09
5.27594e-09
5.27588e-09
5.27625e-09
5.27621e-09
5.2767e-09
5.27671e-09
5.27755e-09
5.2778e-09
5.27909e-09
5.27984e-09
5.2812e-09
5.28208e-09
5.28498e-09
5.29023e-09
5.29391e-09
5.30532e-09
5.31359e-09
5.33295e-09
5.3539e-09
5.3805e-09
5.42173e-09
5.46554e-09
5.38789e-09
5.34676e-09
5.30715e-09
5.28113e-09
5.26043e-09
5.24232e-09
5.23416e-09
5.22325e-09
5.21962e-09
5.21451e-09
5.21174e-09
5.21096e-09
5.20944e-09
5.2087e-09
5.20744e-09
5.2072e-09
5.20638e-09
5.20637e-09
5.20591e-09
5.20595e-09
5.20559e-09
5.20565e-09
5.20546e-09
5.20551e-09
5.20543e-09
5.20543e-09
5.2055e-09
5.20545e-09
5.20565e-09
5.20559e-09
5.20595e-09
5.20591e-09
5.20637e-09
5.20637e-09
5.2072e-09
5.20745e-09
5.20871e-09
5.20945e-09
5.21097e-09
5.21175e-09
5.21452e-09
5.21961e-09
5.22323e-09
5.23413e-09
5.24229e-09
5.2604e-09
5.28111e-09
5.30717e-09
5.34558e-09
5.38863e-09
5.36149e-09
5.31995e-09
5.28285e-09
5.25685e-09
5.23631e-09
5.21877e-09
5.21065e-09
5.20012e-09
5.19652e-09
5.19158e-09
5.18895e-09
5.18819e-09
5.18658e-09
5.18585e-09
5.18461e-09
5.18437e-09
5.18357e-09
5.18356e-09
5.18314e-09
5.18318e-09
5.18283e-09
5.18288e-09
5.18269e-09
5.18274e-09
5.18266e-09
5.18266e-09
5.18273e-09
5.18268e-09
5.18288e-09
5.18282e-09
5.18318e-09
5.18314e-09
5.18356e-09
5.18356e-09
5.18437e-09
5.18462e-09
5.18586e-09
5.18659e-09
5.18819e-09
5.18896e-09
5.19158e-09
5.19651e-09
5.2001e-09
5.21062e-09
5.21874e-09
5.23628e-09
5.25683e-09
5.28288e-09
5.31872e-09
5.36232e-09
5.39018e-09
5.3473e-09
5.3118e-09
5.28562e-09
5.26512e-09
5.2478e-09
5.23962e-09
5.22941e-09
5.2258e-09
5.22103e-09
5.21852e-09
5.21772e-09
5.21607e-09
5.21534e-09
5.21412e-09
5.21388e-09
5.21308e-09
5.21307e-09
5.2127e-09
5.21274e-09
5.21239e-09
5.21244e-09
5.21225e-09
5.2123e-09
5.21222e-09
5.21222e-09
5.21229e-09
5.21224e-09
5.21244e-09
5.21239e-09
5.21274e-09
5.2127e-09
5.21307e-09
5.21308e-09
5.21388e-09
5.21412e-09
5.21535e-09
5.21608e-09
5.21772e-09
5.21853e-09
5.22103e-09
5.22579e-09
5.2294e-09
5.23959e-09
5.24777e-09
5.26509e-09
5.2856e-09
5.31184e-09
5.34623e-09
5.39091e-09
5.49757e-09
5.45507e-09
5.41942e-09
5.3937e-09
5.37324e-09
5.35733e-09
5.34893e-09
5.3393e-09
5.33557e-09
5.33107e-09
5.32869e-09
5.32783e-09
5.32617e-09
5.32545e-09
5.32425e-09
5.324e-09
5.32322e-09
5.32321e-09
5.3229e-09
5.32296e-09
5.3226e-09
5.32265e-09
5.32246e-09
5.32251e-09
5.32243e-09
5.32243e-09
5.3225e-09
5.32245e-09
5.32265e-09
5.3226e-09
5.32295e-09
5.3229e-09
5.32321e-09
5.32322e-09
5.324e-09
5.32426e-09
5.32546e-09
5.32618e-09
5.32783e-09
5.3287e-09
5.33107e-09
5.33557e-09
5.33928e-09
5.3489e-09
5.3573e-09
5.37321e-09
5.39369e-09
5.41948e-09
5.45425e-09
5.4981e-09
5.75755e-09
5.71687e-09
5.6826e-09
5.65883e-09
5.63831e-09
5.62428e-09
5.61527e-09
5.6069e-09
5.60285e-09
5.59884e-09
5.5966e-09
5.59573e-09
5.5941e-09
5.59339e-09
5.59224e-09
5.59197e-09
5.59122e-09
5.59119e-09
5.59099e-09
5.59108e-09
5.59073e-09
5.59077e-09
5.59057e-09
5.59062e-09
5.59054e-09
5.59054e-09
5.59062e-09
5.59056e-09
5.59077e-09
5.59072e-09
5.59107e-09
5.59098e-09
5.59119e-09
5.59122e-09
5.59197e-09
5.59224e-09
5.59339e-09
5.59411e-09
5.59574e-09
5.59661e-09
5.59884e-09
5.60284e-09
5.60688e-09
5.61524e-09
5.62425e-09
5.63828e-09
5.65881e-09
5.68268e-09
5.71628e-09
5.75792e-09
6.33884e-09
6.30209e-09
6.2708e-09
6.25158e-09
6.23042e-09
6.2195e-09
6.20895e-09
6.20309e-09
6.19826e-09
6.19517e-09
6.19305e-09
6.1923e-09
6.19071e-09
6.19001e-09
6.18893e-09
6.18863e-09
6.18793e-09
6.18787e-09
6.18782e-09
6.188e-09
6.18766e-09
6.18769e-09
6.18749e-09
6.18754e-09
6.18745e-09
6.18745e-09
6.18754e-09
6.18748e-09
6.18769e-09
6.18765e-09
6.188e-09
6.18781e-09
6.18787e-09
6.18793e-09
6.18863e-09
6.18893e-09
6.19001e-09
6.19072e-09
6.1923e-09
6.19305e-09
6.19517e-09
6.19826e-09
6.20307e-09
6.20893e-09
6.21948e-09
6.23039e-09
6.25156e-09
6.27089e-09
6.30168e-09
6.33911e-09
7.59372e-09
7.56277e-09
7.53446e-09
7.52338e-09
7.49974e-09
7.49391e-09
7.47984e-09
7.47837e-09
7.4718e-09
7.47022e-09
7.46815e-09
7.46769e-09
7.4661e-09
7.46539e-09
7.46438e-09
7.464e-09
7.46335e-09
7.46322e-09
7.46336e-09
7.46381e-09
7.46347e-09
7.46349e-09
7.46326e-09
7.46334e-09
7.46323e-09
7.46323e-09
7.46333e-09
7.46326e-09
7.46349e-09
7.46347e-09
7.4638e-09
7.46334e-09
7.46321e-09
7.46335e-09
7.464e-09
7.46438e-09
7.46539e-09
7.46611e-09
7.46769e-09
7.46816e-09
7.47023e-09
7.47181e-09
7.47836e-09
7.47982e-09
7.4939e-09
7.49972e-09
7.52336e-09
7.53457e-09
7.56253e-09
7.5939e-09
1.01272e-08
1.00971e-08
1.00672e-08
1.00643e-08
1.00333e-08
1.00322e-08
1.00113e-08
1.00148e-08
1.00049e-08
1.00048e-08
1.00025e-08
1.00022e-08
1.00004e-08
9.99948e-09
9.99835e-09
9.99781e-09
9.99706e-09
9.99678e-09
9.99694e-09
9.99805e-09
9.99776e-09
9.99777e-09
9.99747e-09
9.99757e-09
9.99742e-09
9.99742e-09
9.99757e-09
9.99746e-09
9.99776e-09
9.99776e-09
9.99803e-09
9.9969e-09
9.99678e-09
9.99706e-09
9.99781e-09
9.99835e-09
9.99948e-09
1.00004e-08
1.00022e-08
1.00025e-08
1.00048e-08
1.00049e-08
1.00148e-08
1.00112e-08
1.00322e-08
1.00333e-08
1.00643e-08
1.00673e-08
1.0097e-08
1.01272e-08
1.43508e-08
1.42925e-08
1.42437e-08
1.42326e-08
1.41864e-08
1.4179e-08
1.41488e-08
1.41506e-08
1.41362e-08
1.41349e-08
1.41314e-08
1.41305e-08
1.41275e-08
1.4126e-08
1.41241e-08
1.41233e-08
1.4122e-08
1.41215e-08
1.41194e-08
1.41179e-08
1.4117e-08
1.4117e-08
1.41165e-08
1.41167e-08
1.41165e-08
1.41164e-08
1.41167e-08
1.41165e-08
1.4117e-08
1.4117e-08
1.4118e-08
1.41194e-08
1.41215e-08
1.4122e-08
1.41233e-08
1.41241e-08
1.4126e-08
1.41275e-08
1.41305e-08
1.41315e-08
1.4135e-08
1.41362e-08
1.41505e-08
1.41487e-08
1.4179e-08
1.41864e-08
1.42325e-08
1.42438e-08
1.42927e-08
1.43507e-08
1.91359e-08
1.90047e-08
1.89138e-08
1.88602e-08
1.87936e-08
1.87591e-08
1.87218e-08
1.87075e-08
1.86901e-08
1.86821e-08
1.86763e-08
1.86726e-08
1.86677e-08
1.86649e-08
1.86616e-08
1.86602e-08
1.86579e-08
1.86571e-08
1.86544e-08
1.86537e-08
1.86525e-08
1.86526e-08
1.86518e-08
1.86521e-08
1.86517e-08
1.86517e-08
1.8652e-08
1.86518e-08
1.86525e-08
1.86525e-08
1.86537e-08
1.86544e-08
1.86571e-08
1.86579e-08
1.86602e-08
1.86616e-08
1.8665e-08
1.86677e-08
1.86726e-08
1.86764e-08
1.86821e-08
1.86901e-08
1.87075e-08
1.87218e-08
1.8759e-08
1.87935e-08
1.88602e-08
1.8914e-08
1.90051e-08
1.91355e-08
2.20788e-08
2.18779e-08
2.17552e-08
2.16542e-08
2.15756e-08
2.15173e-08
2.14793e-08
2.14473e-08
2.14297e-08
2.14146e-08
2.14056e-08
2.13971e-08
2.13909e-08
2.1387e-08
2.13825e-08
2.13806e-08
2.13775e-08
2.13765e-08
2.13738e-08
2.13735e-08
2.1372e-08
2.13721e-08
2.13712e-08
2.13714e-08
2.1371e-08
2.1371e-08
2.13714e-08
2.13712e-08
2.1372e-08
2.13719e-08
2.13734e-08
2.13738e-08
2.13765e-08
2.13775e-08
2.13806e-08
2.13825e-08
2.1387e-08
2.13909e-08
2.13971e-08
2.14057e-08
2.14146e-08
2.14297e-08
2.14472e-08
2.14792e-08
2.15172e-08
2.15755e-08
2.16541e-08
2.17554e-08
2.18782e-08
2.20783e-08
2.2541e-08
2.23076e-08
2.21871e-08
2.20728e-08
2.19942e-08
2.1927e-08
2.18911e-08
2.18534e-08
2.18369e-08
2.18194e-08
2.18103e-08
2.1801e-08
2.17946e-08
2.17903e-08
2.17856e-08
2.17835e-08
2.17802e-08
2.17792e-08
2.17767e-08
2.17763e-08
2.17748e-08
2.17749e-08
2.17741e-08
2.17743e-08
2.17739e-08
2.17739e-08
2.17742e-08
2.1774e-08
2.17749e-08
2.17748e-08
2.17763e-08
2.17767e-08
2.17792e-08
2.17802e-08
2.17835e-08
2.17856e-08
2.17903e-08
2.17946e-08
2.1801e-08
2.18103e-08
2.18194e-08
2.18368e-08
2.18533e-08
2.1891e-08
2.19269e-08
2.19941e-08
2.20727e-08
2.21872e-08
2.23079e-08
2.25405e-08
)
;

boundaryField
{
    fuel
    {
        type            fixedValue;
        value           nonuniform 0();
    }
    wall
    {
        type            zeroGradient;
    }
    outlet
    {
        type            zeroGradient;
    }
    frontAndBack
    {
        type            empty;
    }
    procBoundary3to2
    {
        type            processor;
        value           nonuniform List<scalar> 
51
(
1.55007e-08
1.54954e-08
1.54926e-08
1.54891e-08
1.5488e-08
1.54857e-08
1.54853e-08
1.54839e-08
1.54838e-08
1.5483e-08
1.54831e-08
1.54826e-08
1.54827e-08
1.54825e-08
1.54825e-08
1.54827e-08
1.54826e-08
1.5483e-08
1.5483e-08
1.54838e-08
1.54839e-08
1.54853e-08
1.54857e-08
1.5488e-08
1.54891e-08
1.54927e-08
1.54954e-08
1.55008e-08
1.55068e-08
1.55158e-08
1.553e-08
1.55464e-08
1.55748e-08
1.56035e-08
1.56605e-08
1.5725e-08
1.57964e-08
1.59163e-08
1.59821e-08
1.52645e-08
1.52e-08
1.50835e-08
1.50152e-08
1.49541e-08
1.49e-08
1.48722e-08
1.48454e-08
1.48299e-08
1.48164e-08
1.48078e-08
1.48078e-08
)
;
    }
}


// ************************************************************************* //
