/*--------------------------------*- C++ -*----------------------------------*\
| =========                 |                                                 |
| \\      /  F ield         | OpenFOAM: The Open Source CFD Toolbox           |
|  \\    /   O peration     | Version:  dev                                   |
|   \\  /    A nd           | Web:      www.OpenFOAM.org                      |
|    \\/     M anipulation  |                                                 |
\*---------------------------------------------------------------------------*/
FoamFile
{
    version     2.0;
    format      ascii;
    class       volScalarField;
    location    "0.095";
    object      i-A1C2H2;
}
// * * * * * * * * * * * * * * * * * * * * * * * * * * * * * * * * * * * * * //

dimensions      [0 0 0 0 0 0 0];

internalField   nonuniform List<scalar> 
1989
(
2.87804e-11
2.87837e-11
2.87854e-11
2.87876e-11
2.87885e-11
2.87899e-11
2.87903e-11
2.87912e-11
2.87913e-11
2.87919e-11
2.87919e-11
2.87922e-11
2.87923e-11
2.87923e-11
2.87923e-11
2.87923e-11
2.87922e-11
2.8792e-11
2.87919e-11
2.87914e-11
2.87912e-11
2.87903e-11
2.87899e-11
2.87885e-11
2.87876e-11
2.87854e-11
2.87836e-11
2.87804e-11
2.87763e-11
2.87696e-11
2.87599e-11
2.87498e-11
2.87298e-11
2.87077e-11
2.86664e-11
2.86215e-11
2.85576e-11
2.84536e-11
2.83812e-11
2.91151e-11
2.91945e-11
2.93093e-11
2.93788e-11
2.94272e-11
2.94724e-11
2.9496e-11
2.95181e-11
2.95289e-11
2.95395e-11
2.95467e-11
2.95512e-11
2.95547e-11
2.95565e-11
2.95589e-11
2.95597e-11
2.95613e-11
2.95617e-11
2.95626e-11
2.95628e-11
2.95634e-11
2.95634e-11
2.95637e-11
2.95638e-11
2.95639e-11
2.95639e-11
2.95638e-11
2.95638e-11
2.95634e-11
2.95634e-11
2.95628e-11
2.95626e-11
2.95617e-11
2.95613e-11
2.95597e-11
2.95589e-11
2.95565e-11
2.95547e-11
2.95512e-11
2.95468e-11
2.95394e-11
2.95289e-11
2.95182e-11
2.94961e-11
2.94725e-11
2.94273e-11
2.93789e-11
2.93093e-11
2.91946e-11
2.91153e-11
2.99516e-11
3.00391e-11
3.01665e-11
3.02427e-11
3.02952e-11
3.03452e-11
3.037e-11
3.03948e-11
3.04062e-11
3.04179e-11
3.04258e-11
3.04307e-11
3.04345e-11
3.04363e-11
3.0439e-11
3.04398e-11
3.04415e-11
3.04418e-11
3.04429e-11
3.0443e-11
3.04437e-11
3.04437e-11
3.04441e-11
3.04441e-11
3.04442e-11
3.04442e-11
3.04441e-11
3.04441e-11
3.04437e-11
3.04437e-11
3.04431e-11
3.04429e-11
3.04418e-11
3.04415e-11
3.04398e-11
3.04389e-11
3.04363e-11
3.04345e-11
3.04307e-11
3.04259e-11
3.04179e-11
3.04063e-11
3.03949e-11
3.03702e-11
3.03453e-11
3.02953e-11
3.02428e-11
3.01664e-11
3.00392e-11
2.99518e-11
3.09144e-11
3.10122e-11
3.11568e-11
3.12416e-11
3.12991e-11
3.13551e-11
3.13814e-11
3.14094e-11
3.14218e-11
3.14347e-11
3.14433e-11
3.14488e-11
3.14529e-11
3.14549e-11
3.14578e-11
3.14586e-11
3.14604e-11
3.14608e-11
3.1462e-11
3.14621e-11
3.14628e-11
3.14628e-11
3.14632e-11
3.14632e-11
3.14633e-11
3.14633e-11
3.14632e-11
3.14632e-11
3.14628e-11
3.14628e-11
3.14621e-11
3.1462e-11
3.14608e-11
3.14604e-11
3.14586e-11
3.14577e-11
3.14548e-11
3.14529e-11
3.14487e-11
3.14435e-11
3.14347e-11
3.14218e-11
3.14095e-11
3.13815e-11
3.13552e-11
3.12992e-11
3.12416e-11
3.11567e-11
3.10124e-11
3.09147e-11
3.20311e-11
3.21404e-11
3.22852e-11
3.23787e-11
3.24412e-11
3.25034e-11
3.2531e-11
3.25625e-11
3.25757e-11
3.259e-11
3.25994e-11
3.26053e-11
3.26099e-11
3.26119e-11
3.26151e-11
3.26159e-11
3.26179e-11
3.26182e-11
3.26195e-11
3.26196e-11
3.26204e-11
3.26204e-11
3.26208e-11
3.26208e-11
3.2621e-11
3.2621e-11
3.26208e-11
3.26208e-11
3.26204e-11
3.26204e-11
3.26196e-11
3.26195e-11
3.26182e-11
3.26179e-11
3.26159e-11
3.2615e-11
3.26119e-11
3.26098e-11
3.26053e-11
3.25995e-11
3.259e-11
3.25757e-11
3.25627e-11
3.25312e-11
3.25036e-11
3.24413e-11
3.23787e-11
3.22851e-11
3.21406e-11
3.20314e-11
3.32972e-11
3.34199e-11
3.35874e-11
3.3695e-11
3.37653e-11
3.38365e-11
3.38665e-11
3.39027e-11
3.39171e-11
3.39334e-11
3.39438e-11
3.39504e-11
3.39556e-11
3.39577e-11
3.39613e-11
3.39621e-11
3.39644e-11
3.39647e-11
3.39662e-11
3.39662e-11
3.39671e-11
3.39671e-11
3.39676e-11
3.39676e-11
3.39677e-11
3.39677e-11
3.39676e-11
3.39676e-11
3.39671e-11
3.39671e-11
3.39662e-11
3.39662e-11
3.39647e-11
3.39644e-11
3.39621e-11
3.39613e-11
3.39577e-11
3.39555e-11
3.39504e-11
3.39439e-11
3.39333e-11
3.39172e-11
3.39028e-11
3.38667e-11
3.38367e-11
3.37654e-11
3.3695e-11
3.35872e-11
3.34202e-11
3.32975e-11
3.47602e-11
3.48989e-11
3.50854e-11
3.52054e-11
3.52818e-11
3.53611e-11
3.53928e-11
3.54333e-11
3.54487e-11
3.54667e-11
3.5478e-11
3.54853e-11
3.5491e-11
3.54933e-11
3.54972e-11
3.5498e-11
3.55005e-11
3.55008e-11
3.55024e-11
3.55024e-11
3.55034e-11
3.55033e-11
3.55039e-11
3.55038e-11
3.5504e-11
3.5504e-11
3.55039e-11
3.55039e-11
3.55033e-11
3.55034e-11
3.55024e-11
3.55024e-11
3.55008e-11
3.55006e-11
3.5498e-11
3.54972e-11
3.54932e-11
3.5491e-11
3.54853e-11
3.54781e-11
3.54666e-11
3.54488e-11
3.54335e-11
3.53929e-11
3.53613e-11
3.52819e-11
3.52055e-11
3.50852e-11
3.48993e-11
3.47604e-11
3.64472e-11
3.66047e-11
3.68107e-11
3.69455e-11
3.70288e-11
3.71176e-11
3.7151e-11
3.71966e-11
3.72129e-11
3.7233e-11
3.72452e-11
3.72534e-11
3.72598e-11
3.72621e-11
3.72664e-11
3.72671e-11
3.727e-11
3.72701e-11
3.7272e-11
3.72719e-11
3.7273e-11
3.72729e-11
3.72735e-11
3.72735e-11
3.72737e-11
3.72737e-11
3.72735e-11
3.72735e-11
3.72729e-11
3.7273e-11
3.72719e-11
3.7272e-11
3.72701e-11
3.727e-11
3.72671e-11
3.72664e-11
3.7262e-11
3.72597e-11
3.72534e-11
3.72453e-11
3.72329e-11
3.7213e-11
3.71968e-11
3.71512e-11
3.71178e-11
3.70289e-11
3.69456e-11
3.68104e-11
3.66052e-11
3.64475e-11
3.84159e-11
3.85945e-11
3.88239e-11
3.89773e-11
3.90693e-11
3.91696e-11
3.92055e-11
3.92571e-11
3.92747e-11
3.92972e-11
3.93107e-11
3.932e-11
3.93271e-11
3.93295e-11
3.93344e-11
3.93351e-11
3.93382e-11
3.93383e-11
3.93403e-11
3.93402e-11
3.93414e-11
3.93413e-11
3.9342e-11
3.93419e-11
3.93421e-11
3.93422e-11
3.93419e-11
3.9342e-11
3.93413e-11
3.93415e-11
3.93402e-11
3.93403e-11
3.93383e-11
3.93383e-11
3.93351e-11
3.93343e-11
3.93295e-11
3.9327e-11
3.93199e-11
3.93108e-11
3.92972e-11
3.92749e-11
3.92573e-11
3.92057e-11
3.91698e-11
3.90695e-11
3.89774e-11
3.88236e-11
3.85952e-11
3.84161e-11
4.06976e-11
4.08993e-11
4.11519e-11
4.13284e-11
4.14289e-11
4.15409e-11
4.15788e-11
4.16367e-11
4.16554e-11
4.16802e-11
4.16949e-11
4.17053e-11
4.17132e-11
4.17158e-11
4.17211e-11
4.17217e-11
4.17252e-11
4.17252e-11
4.17275e-11
4.17272e-11
4.17286e-11
4.17284e-11
4.17292e-11
4.17291e-11
4.17294e-11
4.17294e-11
4.17291e-11
4.17292e-11
4.17285e-11
4.17286e-11
4.17272e-11
4.17275e-11
4.17252e-11
4.17253e-11
4.17217e-11
4.17211e-11
4.17157e-11
4.17131e-11
4.17053e-11
4.16949e-11
4.16802e-11
4.16555e-11
4.16369e-11
4.1579e-11
4.15411e-11
4.14291e-11
4.13285e-11
4.11515e-11
4.09002e-11
4.06978e-11
4.33373e-11
4.35655e-11
4.38451e-11
4.40111e-11
4.41209e-11
4.42474e-11
4.42873e-11
4.43527e-11
4.43725e-11
4.44e-11
4.44161e-11
4.44279e-11
4.44367e-11
4.44392e-11
4.44451e-11
4.44456e-11
4.44495e-11
4.44494e-11
4.44519e-11
4.44515e-11
4.44531e-11
4.44528e-11
4.44537e-11
4.44536e-11
4.44538e-11
4.44539e-11
4.44536e-11
4.44537e-11
4.44529e-11
4.44531e-11
4.44515e-11
4.44519e-11
4.44494e-11
4.44496e-11
4.44456e-11
4.44451e-11
4.44392e-11
4.44366e-11
4.44278e-11
4.44161e-11
4.44e-11
4.43727e-11
4.43529e-11
4.42875e-11
4.42477e-11
4.41211e-11
4.40112e-11
4.38447e-11
4.35667e-11
4.33373e-11
4.63564e-11
4.66143e-11
4.69261e-11
4.71222e-11
4.72421e-11
4.73854e-11
4.74273e-11
4.75014e-11
4.75224e-11
4.75528e-11
4.75705e-11
4.75845e-11
4.7595e-11
4.75979e-11
4.76049e-11
4.76053e-11
4.76099e-11
4.76096e-11
4.76126e-11
4.76121e-11
4.7614e-11
4.76136e-11
4.76146e-11
4.76145e-11
4.76148e-11
4.76148e-11
4.76145e-11
4.76147e-11
4.76136e-11
4.7614e-11
4.76121e-11
4.76126e-11
4.76096e-11
4.761e-11
4.76053e-11
4.76048e-11
4.75978e-11
4.75949e-11
4.75844e-11
4.75704e-11
4.75529e-11
4.75226e-11
4.75016e-11
4.74276e-11
4.73857e-11
4.72423e-11
4.71223e-11
4.69257e-11
4.6616e-11
4.63562e-11
4.98959e-11
5.01954e-11
5.05517e-11
5.07815e-11
5.09148e-11
5.1077e-11
5.11212e-11
5.12049e-11
5.12272e-11
5.12609e-11
5.12802e-11
5.12963e-11
5.13079e-11
5.13108e-11
5.13185e-11
5.13188e-11
5.13239e-11
5.13234e-11
5.13267e-11
5.1326e-11
5.13281e-11
5.13276e-11
5.13288e-11
5.13286e-11
5.1329e-11
5.1329e-11
5.13286e-11
5.13288e-11
5.13277e-11
5.13281e-11
5.13261e-11
5.13267e-11
5.13234e-11
5.13239e-11
5.13188e-11
5.13185e-11
5.13107e-11
5.13078e-11
5.12962e-11
5.12801e-11
5.12611e-11
5.12274e-11
5.12052e-11
5.11215e-11
5.10774e-11
5.0915e-11
5.07816e-11
5.05511e-11
5.01977e-11
4.98955e-11
5.40569e-11
5.43978e-11
5.47932e-11
5.50572e-11
5.52028e-11
5.53873e-11
5.54339e-11
5.55286e-11
5.55522e-11
5.55897e-11
5.56106e-11
5.56294e-11
5.56424e-11
5.56454e-11
5.56539e-11
5.56539e-11
5.56596e-11
5.56589e-11
5.56625e-11
5.56617e-11
5.5664e-11
5.56634e-11
5.56647e-11
5.56645e-11
5.56649e-11
5.56649e-11
5.56645e-11
5.56648e-11
5.56635e-11
5.5664e-11
5.56617e-11
5.56625e-11
5.56589e-11
5.56596e-11
5.56539e-11
5.56538e-11
5.56453e-11
5.56422e-11
5.56292e-11
5.56105e-11
5.55899e-11
5.55525e-11
5.55289e-11
5.54342e-11
5.53876e-11
5.5203e-11
5.50573e-11
5.47926e-11
5.44011e-11
5.40559e-11
5.88744e-11
5.9266e-11
5.97076e-11
6.00132e-11
6.01711e-11
6.03832e-11
6.04312e-11
6.05395e-11
6.05641e-11
6.0606e-11
6.06284e-11
6.06503e-11
6.06652e-11
6.06682e-11
6.06777e-11
6.06775e-11
6.06839e-11
6.06828e-11
6.06869e-11
6.06858e-11
6.06884e-11
6.06877e-11
6.06891e-11
6.06888e-11
6.06893e-11
6.06893e-11
6.06889e-11
6.06892e-11
6.06878e-11
6.06884e-11
6.06859e-11
6.06869e-11
6.06828e-11
6.06839e-11
6.06775e-11
6.06776e-11
6.06681e-11
6.06651e-11
6.06501e-11
6.06283e-11
6.06061e-11
6.05644e-11
6.05399e-11
6.04316e-11
6.03836e-11
6.01714e-11
6.00133e-11
5.9707e-11
5.92704e-11
5.88728e-11
6.45669e-11
6.50144e-11
6.55121e-11
6.58675e-11
6.60428e-11
6.62958e-11
6.63478e-11
6.64757e-11
6.65024e-11
6.65508e-11
6.65757e-11
6.66018e-11
6.66198e-11
6.66229e-11
6.66339e-11
6.66333e-11
6.66408e-11
6.66394e-11
6.66441e-11
6.66428e-11
6.66457e-11
6.66448e-11
6.66465e-11
6.66462e-11
6.66467e-11
6.66467e-11
6.66463e-11
6.66466e-11
6.66449e-11
6.66458e-11
6.66428e-11
6.66441e-11
6.66394e-11
6.66408e-11
6.66334e-11
6.66338e-11
6.66228e-11
6.66196e-11
6.66016e-11
6.65756e-11
6.65509e-11
6.65028e-11
6.6476e-11
6.63482e-11
6.62962e-11
6.60431e-11
6.58675e-11
6.55115e-11
6.50199e-11
6.45646e-11
7.13257e-11
7.18416e-11
7.24065e-11
7.28196e-11
7.30103e-11
7.33032e-11
7.3356e-11
7.3503e-11
7.35305e-11
7.35846e-11
7.36109e-11
7.36413e-11
7.36628e-11
7.36658e-11
7.36782e-11
7.36771e-11
7.36856e-11
7.36837e-11
7.3689e-11
7.36873e-11
7.36906e-11
7.36895e-11
7.36914e-11
7.3691e-11
7.36916e-11
7.36916e-11
7.36911e-11
7.36916e-11
7.36896e-11
7.36907e-11
7.36873e-11
7.3689e-11
7.36837e-11
7.36856e-11
7.36771e-11
7.36781e-11
7.36657e-11
7.36626e-11
7.3641e-11
7.36109e-11
7.35848e-11
7.35309e-11
7.35034e-11
7.33564e-11
7.33037e-11
7.30107e-11
7.28197e-11
7.24059e-11
7.18487e-11
7.13224e-11
7.94052e-11
8.00039e-11
8.06475e-11
8.11287e-11
8.13369e-11
8.16785e-11
8.17312e-11
8.19016e-11
8.19297e-11
8.19904e-11
8.2018e-11
8.20526e-11
8.20793e-11
8.20821e-11
8.20962e-11
8.20945e-11
8.21041e-11
8.21017e-11
8.21078e-11
8.21055e-11
8.21093e-11
8.2108e-11
8.21101e-11
8.21096e-11
8.21103e-11
8.21103e-11
8.21098e-11
8.21103e-11
8.21081e-11
8.21094e-11
8.21056e-11
8.21078e-11
8.21017e-11
8.21042e-11
8.20945e-11
8.20961e-11
8.2082e-11
8.20791e-11
8.20523e-11
8.2018e-11
8.19906e-11
8.19301e-11
8.19021e-11
8.17317e-11
8.16791e-11
8.13374e-11
8.11287e-11
8.0647e-11
8.00127e-11
7.94009e-11
8.91555e-11
8.98732e-11
9.06283e-11
9.12e-11
9.14348e-11
9.18401e-11
9.18945e-11
9.20951e-11
9.21247e-11
9.21938e-11
9.22229e-11
9.22619e-11
9.22965e-11
9.22994e-11
9.23155e-11
9.23131e-11
9.23242e-11
9.23211e-11
9.23282e-11
9.23254e-11
9.23297e-11
9.2328e-11
9.23305e-11
9.23299e-11
9.23307e-11
9.23308e-11
9.23301e-11
9.23307e-11
9.23282e-11
9.23298e-11
9.23254e-11
9.23282e-11
9.23211e-11
9.23243e-11
9.23131e-11
9.23154e-11
9.22992e-11
9.22963e-11
9.22615e-11
9.22228e-11
9.21941e-11
9.21252e-11
9.20957e-11
9.18951e-11
9.18408e-11
9.14352e-11
9.12e-11
9.06277e-11
8.98841e-11
8.915e-11
1.00975e-10
1.01818e-10
1.02684e-10
1.03356e-10
1.03612e-10
1.0409e-10
1.04141e-10
1.04376e-10
1.04406e-10
1.04483e-10
1.04512e-10
1.04554e-10
1.04599e-10
1.04602e-10
1.0462e-10
1.04617e-10
1.0463e-10
1.04626e-10
1.04634e-10
1.0463e-10
1.04635e-10
1.04633e-10
1.04636e-10
1.04635e-10
1.04636e-10
1.04636e-10
1.04636e-10
1.04636e-10
1.04633e-10
1.04635e-10
1.0463e-10
1.04634e-10
1.04626e-10
1.0463e-10
1.04617e-10
1.0462e-10
1.04602e-10
1.04599e-10
1.04553e-10
1.04512e-10
1.04484e-10
1.04406e-10
1.04377e-10
1.04142e-10
1.04091e-10
1.03613e-10
1.03356e-10
1.02683e-10
1.0183e-10
1.00968e-10
1.15447e-10
1.16442e-10
1.17441e-10
1.18237e-10
1.18517e-10
1.19084e-10
1.19129e-10
1.19406e-10
1.19434e-10
1.19522e-10
1.1955e-10
1.1959e-10
1.19652e-10
1.19654e-10
1.19675e-10
1.1967e-10
1.19685e-10
1.1968e-10
1.1969e-10
1.19685e-10
1.19691e-10
1.19688e-10
1.19691e-10
1.19691e-10
1.19692e-10
1.19692e-10
1.19691e-10
1.19692e-10
1.19688e-10
1.19691e-10
1.19685e-10
1.1969e-10
1.1968e-10
1.19685e-10
1.1967e-10
1.19675e-10
1.19654e-10
1.19652e-10
1.1959e-10
1.19549e-10
1.19522e-10
1.19435e-10
1.19407e-10
1.1913e-10
1.19085e-10
1.18517e-10
1.18237e-10
1.1744e-10
1.16457e-10
1.15439e-10
1.33311e-10
1.34491e-10
1.35643e-10
1.36594e-10
1.36896e-10
1.37572e-10
1.37607e-10
1.37934e-10
1.37959e-10
1.38059e-10
1.38083e-10
1.3812e-10
1.38205e-10
1.38206e-10
1.3823e-10
1.38224e-10
1.38241e-10
1.38234e-10
1.38245e-10
1.3824e-10
1.38246e-10
1.38243e-10
1.38247e-10
1.38246e-10
1.38247e-10
1.38247e-10
1.38246e-10
1.38247e-10
1.38243e-10
1.38246e-10
1.3824e-10
1.38245e-10
1.38234e-10
1.38241e-10
1.38224e-10
1.3823e-10
1.38206e-10
1.38205e-10
1.38119e-10
1.38083e-10
1.38059e-10
1.3796e-10
1.37935e-10
1.37608e-10
1.37573e-10
1.36896e-10
1.36594e-10
1.35642e-10
1.34506e-10
1.33302e-10
1.55558e-10
1.56938e-10
1.58272e-10
1.59411e-10
1.59735e-10
1.60539e-10
1.60557e-10
1.60945e-10
1.60964e-10
1.61076e-10
1.61095e-10
1.61126e-10
1.61253e-10
1.61252e-10
1.6128e-10
1.61271e-10
1.61291e-10
1.61283e-10
1.61296e-10
1.61289e-10
1.61296e-10
1.61293e-10
1.61297e-10
1.61296e-10
1.61297e-10
1.61297e-10
1.61296e-10
1.61297e-10
1.61293e-10
1.61297e-10
1.61289e-10
1.61296e-10
1.61283e-10
1.61291e-10
1.61271e-10
1.6128e-10
1.61252e-10
1.61253e-10
1.61125e-10
1.61095e-10
1.61077e-10
1.60965e-10
1.60946e-10
1.60558e-10
1.6054e-10
1.59736e-10
1.59411e-10
1.58271e-10
1.56956e-10
1.55548e-10
1.83522e-10
1.85183e-10
1.86775e-10
1.88171e-10
1.88464e-10
1.89499e-10
1.89498e-10
1.89964e-10
1.89977e-10
1.90106e-10
1.90118e-10
1.90145e-10
1.9011e-10
1.90107e-10
1.90139e-10
1.90127e-10
1.9015e-10
1.90141e-10
1.90156e-10
1.90147e-10
1.90155e-10
1.90151e-10
1.90156e-10
1.90154e-10
1.90156e-10
1.90156e-10
1.90155e-10
1.90156e-10
1.90151e-10
1.90156e-10
1.90147e-10
1.90156e-10
1.9014e-10
1.90151e-10
1.90128e-10
1.90138e-10
1.90107e-10
1.9011e-10
1.90144e-10
1.90118e-10
1.90107e-10
1.89978e-10
1.89965e-10
1.89499e-10
1.895e-10
1.88465e-10
1.88171e-10
1.86774e-10
1.852e-10
1.83512e-10
2.18871e-10
2.20786e-10
2.22592e-10
2.24263e-10
2.24546e-10
2.25777e-10
2.25736e-10
2.26286e-10
2.26285e-10
2.2643e-10
2.26431e-10
2.26457e-10
2.26465e-10
2.26459e-10
2.26494e-10
2.2648e-10
2.26506e-10
2.26494e-10
2.26513e-10
2.26502e-10
2.26511e-10
2.26505e-10
2.26511e-10
2.26509e-10
2.26511e-10
2.26511e-10
2.2651e-10
2.26512e-10
2.26506e-10
2.26511e-10
2.26502e-10
2.26513e-10
2.26494e-10
2.26507e-10
2.2648e-10
2.26494e-10
2.26458e-10
2.26464e-10
2.26456e-10
2.26431e-10
2.26431e-10
2.26286e-10
2.26288e-10
2.25738e-10
2.25779e-10
2.24547e-10
2.24263e-10
2.2259e-10
2.20796e-10
2.18865e-10
2.63693e-10
2.65873e-10
2.67927e-10
2.70015e-10
2.70274e-10
2.71569e-10
2.71465e-10
2.72096e-10
2.72083e-10
2.72243e-10
2.72229e-10
2.7226e-10
2.72287e-10
2.72277e-10
2.72316e-10
2.72297e-10
2.72327e-10
2.72313e-10
2.72334e-10
2.72321e-10
2.72331e-10
2.72324e-10
2.7233e-10
2.72329e-10
2.7233e-10
2.7233e-10
2.72329e-10
2.72331e-10
2.72325e-10
2.72331e-10
2.72322e-10
2.72334e-10
2.72313e-10
2.72327e-10
2.72298e-10
2.72316e-10
2.72277e-10
2.72286e-10
2.72259e-10
2.72229e-10
2.72245e-10
2.72085e-10
2.72098e-10
2.71467e-10
2.71571e-10
2.70275e-10
2.70015e-10
2.67924e-10
2.65873e-10
2.63694e-10
3.20605e-10
3.23017e-10
3.25243e-10
3.27034e-10
3.27142e-10
3.28664e-10
3.285e-10
3.29357e-10
3.2912e-10
3.29277e-10
3.29235e-10
3.29271e-10
3.29302e-10
3.29285e-10
3.29323e-10
3.29299e-10
3.2933e-10
3.29313e-10
3.29337e-10
3.29322e-10
3.29331e-10
3.29323e-10
3.29329e-10
3.29328e-10
3.29329e-10
3.29329e-10
3.29328e-10
3.2933e-10
3.29324e-10
3.29331e-10
3.29322e-10
3.29337e-10
3.29313e-10
3.2933e-10
3.293e-10
3.29323e-10
3.29285e-10
3.29301e-10
3.2927e-10
3.29235e-10
3.29278e-10
3.29122e-10
3.29359e-10
3.28502e-10
3.28667e-10
3.27143e-10
3.27034e-10
3.2524e-10
3.23007e-10
3.20613e-10
3.90315e-10
3.92646e-10
3.94017e-10
3.95943e-10
3.9627e-10
3.97406e-10
3.97105e-10
3.97951e-10
3.97783e-10
3.98091e-10
3.98125e-10
3.98236e-10
3.98299e-10
3.98308e-10
3.9836e-10
3.9835e-10
3.98387e-10
3.98379e-10
3.9841e-10
3.98399e-10
3.98409e-10
3.98404e-10
3.9841e-10
3.98411e-10
3.98412e-10
3.98412e-10
3.98412e-10
3.98411e-10
3.98404e-10
3.98409e-10
3.98399e-10
3.9841e-10
3.98379e-10
3.98388e-10
3.9835e-10
3.98359e-10
3.98307e-10
3.98298e-10
3.98234e-10
3.98124e-10
3.98091e-10
3.97784e-10
3.97953e-10
3.97107e-10
3.97408e-10
3.96271e-10
3.95942e-10
3.94015e-10
3.92621e-10
3.90333e-10
4.69426e-10
4.71211e-10
4.72163e-10
4.7379e-10
4.73657e-10
4.74677e-10
4.742e-10
4.74902e-10
4.74662e-10
4.74875e-10
4.7485e-10
4.74945e-10
4.74975e-10
4.74968e-10
4.74998e-10
4.74981e-10
4.75004e-10
4.74995e-10
4.75022e-10
4.7501e-10
4.75014e-10
4.75009e-10
4.75012e-10
4.75014e-10
4.75013e-10
4.75013e-10
4.75014e-10
4.75013e-10
4.7501e-10
4.75014e-10
4.75011e-10
4.75021e-10
4.74995e-10
4.75005e-10
4.74981e-10
4.74997e-10
4.74968e-10
4.74975e-10
4.74944e-10
4.7485e-10
4.74875e-10
4.74663e-10
4.74904e-10
4.74202e-10
4.74679e-10
4.73658e-10
4.7379e-10
4.72162e-10
4.71169e-10
4.69455e-10
5.51439e-10
5.51969e-10
5.51997e-10
5.52783e-10
5.52048e-10
5.52586e-10
5.51917e-10
5.52277e-10
5.51962e-10
5.52019e-10
5.51928e-10
5.51988e-10
5.51966e-10
5.51939e-10
5.51932e-10
5.5191e-10
5.51909e-10
5.51901e-10
5.51916e-10
5.51908e-10
5.51901e-10
5.51898e-10
5.51895e-10
5.51898e-10
5.51896e-10
5.51895e-10
5.51898e-10
5.51896e-10
5.51899e-10
5.51901e-10
5.51908e-10
5.51916e-10
5.51901e-10
5.51909e-10
5.5191e-10
5.51931e-10
5.51939e-10
5.51966e-10
5.51987e-10
5.51928e-10
5.5202e-10
5.51962e-10
5.52278e-10
5.51917e-10
5.52586e-10
5.52048e-10
5.52782e-10
5.51998e-10
5.51909e-10
5.51481e-10
6.24978e-10
6.23625e-10
6.22216e-10
6.21713e-10
6.2031e-10
6.20092e-10
6.19252e-10
6.1911e-10
6.18728e-10
6.18582e-10
6.18421e-10
6.18422e-10
6.18336e-10
6.18286e-10
6.18232e-10
6.18206e-10
6.18173e-10
6.18167e-10
6.18166e-10
6.18161e-10
6.18141e-10
6.18142e-10
6.18132e-10
6.18136e-10
6.18131e-10
6.18131e-10
6.18136e-10
6.18132e-10
6.18142e-10
6.18141e-10
6.18161e-10
6.18165e-10
6.18167e-10
6.18173e-10
6.18206e-10
6.18232e-10
6.18287e-10
6.18336e-10
6.18422e-10
6.18421e-10
6.18582e-10
6.18728e-10
6.1911e-10
6.19251e-10
6.20091e-10
6.20309e-10
6.21711e-10
6.2222e-10
6.23553e-10
6.25029e-10
6.79668e-10
6.76364e-10
6.73696e-10
6.71773e-10
6.69798e-10
6.68557e-10
6.676e-10
6.66925e-10
6.66499e-10
6.66148e-10
6.65929e-10
6.65858e-10
6.65712e-10
6.6564e-10
6.6554e-10
6.65511e-10
6.65447e-10
6.65442e-10
6.65422e-10
6.65422e-10
6.6539e-10
6.65394e-10
6.65376e-10
6.65382e-10
6.65375e-10
6.65374e-10
6.65382e-10
6.65376e-10
6.65394e-10
6.6539e-10
6.65422e-10
6.65422e-10
6.65442e-10
6.65447e-10
6.65511e-10
6.6554e-10
6.65641e-10
6.65713e-10
6.65859e-10
6.65929e-10
6.66148e-10
6.66499e-10
6.66924e-10
6.67598e-10
6.68554e-10
6.69795e-10
6.71771e-10
6.73703e-10
6.763e-10
6.79713e-10
7.12218e-10
7.07335e-10
7.03315e-10
7.00275e-10
6.97926e-10
6.96085e-10
6.95071e-10
6.93975e-10
6.93526e-10
6.93019e-10
6.92764e-10
6.92626e-10
6.92436e-10
6.92347e-10
6.92213e-10
6.9218e-10
6.92093e-10
6.92089e-10
6.92052e-10
6.92055e-10
6.92015e-10
6.92021e-10
6.91998e-10
6.92004e-10
6.91995e-10
6.91995e-10
6.92004e-10
6.91997e-10
6.9202e-10
6.92014e-10
6.92055e-10
6.92051e-10
6.92089e-10
6.92093e-10
6.9218e-10
6.92214e-10
6.92348e-10
6.92437e-10
6.92627e-10
6.92765e-10
6.93019e-10
6.93525e-10
6.93973e-10
6.95067e-10
6.96081e-10
6.97923e-10
7.00273e-10
7.03325e-10
7.07287e-10
7.1224e-10
7.26184e-10
7.20376e-10
7.15769e-10
7.12071e-10
7.09558e-10
7.07351e-10
7.06318e-10
7.04985e-10
7.04526e-10
7.03935e-10
7.03663e-10
7.03472e-10
7.0326e-10
7.03159e-10
7.03008e-10
7.02971e-10
7.02871e-10
7.02865e-10
7.02816e-10
7.02821e-10
7.02776e-10
7.02783e-10
7.02757e-10
7.02764e-10
7.02754e-10
7.02753e-10
7.02763e-10
7.02756e-10
7.02782e-10
7.02775e-10
7.0282e-10
7.02816e-10
7.02865e-10
7.02871e-10
7.02971e-10
7.03008e-10
7.0316e-10
7.03262e-10
7.03474e-10
7.03665e-10
7.03935e-10
7.04525e-10
7.04982e-10
7.06314e-10
7.07347e-10
7.09554e-10
7.12069e-10
7.15781e-10
7.20345e-10
7.26196e-10
7.29325e-10
7.2314e-10
7.1837e-10
7.14441e-10
7.1191e-10
7.09574e-10
7.08537e-10
7.07135e-10
7.0667e-10
7.06055e-10
7.05779e-10
7.05553e-10
7.05336e-10
7.05226e-10
7.0507e-10
7.05029e-10
7.04926e-10
7.04916e-10
7.0486e-10
7.04862e-10
7.04817e-10
7.04823e-10
7.04797e-10
7.04804e-10
7.04793e-10
7.04793e-10
7.04803e-10
7.04796e-10
7.04822e-10
7.04816e-10
7.04862e-10
7.04859e-10
7.04916e-10
7.04926e-10
7.05029e-10
7.05071e-10
7.05227e-10
7.05338e-10
7.05554e-10
7.0578e-10
7.06055e-10
7.06669e-10
7.07132e-10
7.08533e-10
7.0957e-10
7.11906e-10
7.14439e-10
7.18382e-10
7.23125e-10
7.29326e-10
7.27966e-10
7.2175e-10
7.17114e-10
7.13239e-10
7.10767e-10
7.0847e-10
7.07432e-10
7.06074e-10
7.05601e-10
7.05e-10
7.04724e-10
7.04476e-10
7.04264e-10
7.04149e-10
7.03997e-10
7.0395e-10
7.03849e-10
7.03835e-10
7.03775e-10
7.03774e-10
7.0373e-10
7.03735e-10
7.0371e-10
7.03717e-10
7.03707e-10
7.03706e-10
7.03716e-10
7.03709e-10
7.03735e-10
7.03729e-10
7.03774e-10
7.03775e-10
7.03835e-10
7.03849e-10
7.0395e-10
7.03998e-10
7.0415e-10
7.04266e-10
7.04478e-10
7.04725e-10
7.05e-10
7.056e-10
7.0607e-10
7.07428e-10
7.08466e-10
7.10763e-10
7.13237e-10
7.17124e-10
7.21747e-10
7.27959e-10
7.25447e-10
7.19349e-10
7.1503e-10
7.11358e-10
7.08978e-10
7.06813e-10
7.05777e-10
7.04518e-10
7.04037e-10
7.03469e-10
7.03191e-10
7.02933e-10
7.0273e-10
7.0261e-10
7.02466e-10
7.02413e-10
7.02318e-10
7.02298e-10
7.02241e-10
7.02239e-10
7.02198e-10
7.02202e-10
7.02179e-10
7.02186e-10
7.02176e-10
7.02175e-10
7.02185e-10
7.02178e-10
7.02202e-10
7.02197e-10
7.02238e-10
7.02241e-10
7.02298e-10
7.02317e-10
7.02413e-10
7.02466e-10
7.02611e-10
7.02732e-10
7.02935e-10
7.03192e-10
7.03469e-10
7.04036e-10
7.04515e-10
7.05774e-10
7.06809e-10
7.08974e-10
7.11356e-10
7.15039e-10
7.19356e-10
7.25434e-10
7.23101e-10
7.1712e-10
7.13227e-10
7.09814e-10
7.07536e-10
7.05538e-10
7.04509e-10
7.03367e-10
7.02879e-10
7.02349e-10
7.02068e-10
7.01806e-10
7.01615e-10
7.01492e-10
7.01355e-10
7.01298e-10
7.01208e-10
7.01184e-10
7.0113e-10
7.01125e-10
7.01087e-10
7.01091e-10
7.01069e-10
7.01076e-10
7.01066e-10
7.01066e-10
7.01076e-10
7.01069e-10
7.0109e-10
7.01086e-10
7.01124e-10
7.0113e-10
7.01184e-10
7.01208e-10
7.01298e-10
7.01356e-10
7.01493e-10
7.01616e-10
7.01808e-10
7.02069e-10
7.02349e-10
7.02879e-10
7.03365e-10
7.04506e-10
7.05535e-10
7.07533e-10
7.09811e-10
7.13233e-10
7.17133e-10
7.23082e-10
7.21417e-10
7.15559e-10
7.12058e-10
7.08884e-10
7.06698e-10
7.0485e-10
7.03831e-10
7.02792e-10
7.02301e-10
7.01803e-10
7.01521e-10
7.01258e-10
7.01077e-10
7.00952e-10
7.00822e-10
7.00761e-10
7.00676e-10
7.0065e-10
7.00597e-10
7.0059e-10
7.00555e-10
7.00558e-10
7.00539e-10
7.00546e-10
7.00536e-10
7.00536e-10
7.00545e-10
7.00538e-10
7.00558e-10
7.00554e-10
7.00589e-10
7.00597e-10
7.00649e-10
7.00676e-10
7.00761e-10
7.00823e-10
7.00953e-10
7.01078e-10
7.0126e-10
7.01523e-10
7.01803e-10
7.02301e-10
7.0279e-10
7.03828e-10
7.04847e-10
7.06696e-10
7.08882e-10
7.12062e-10
7.15569e-10
7.21402e-10
7.20609e-10
7.14539e-10
7.11447e-10
7.08425e-10
7.06301e-10
7.04549e-10
7.03539e-10
7.02564e-10
7.02072e-10
7.01594e-10
7.0131e-10
7.0105e-10
7.00874e-10
7.00748e-10
7.00623e-10
7.00559e-10
7.00477e-10
7.00449e-10
7.00397e-10
7.00389e-10
7.00356e-10
7.00359e-10
7.00341e-10
7.00349e-10
7.00339e-10
7.00338e-10
7.00348e-10
7.00341e-10
7.00359e-10
7.00356e-10
7.00389e-10
7.00397e-10
7.00448e-10
7.00477e-10
7.00559e-10
7.00623e-10
7.00749e-10
7.00875e-10
7.01052e-10
7.01312e-10
7.01595e-10
7.02072e-10
7.02563e-10
7.03536e-10
7.04546e-10
7.06299e-10
7.08423e-10
7.11449e-10
7.14546e-10
7.20596e-10
)
;

boundaryField
{
    fuel
    {
        type            fixedValue;
        value           nonuniform 0();
    }
    wall
    {
        type            zeroGradient;
    }
    outlet
    {
        type            zeroGradient;
    }
    frontAndBack
    {
        type            empty;
    }
    procBoundary3to2
    {
        type            processor;
        value           nonuniform List<scalar> 
51
(
2.81027e-11
2.81057e-11
2.81074e-11
2.81095e-11
2.81103e-11
2.81116e-11
2.8112e-11
2.81128e-11
2.8113e-11
2.81135e-11
2.81136e-11
2.81139e-11
2.81139e-11
2.8114e-11
2.8114e-11
2.81139e-11
2.81139e-11
2.81136e-11
2.81135e-11
2.81131e-11
2.81128e-11
2.8112e-11
2.81116e-11
2.81103e-11
2.81094e-11
2.81074e-11
2.81057e-11
2.81027e-11
2.80988e-11
2.80926e-11
2.80837e-11
2.80741e-11
2.80558e-11
2.8035e-11
2.7997e-11
2.79549e-11
2.78959e-11
2.78011e-11
2.77345e-11
2.8381e-11
2.84536e-11
2.85577e-11
2.86214e-11
2.86664e-11
2.87076e-11
2.87297e-11
2.87497e-11
2.87599e-11
2.87696e-11
2.87763e-11
2.87763e-11
)
;
    }
}


// ************************************************************************* //
