/*--------------------------------*- C++ -*----------------------------------*\
| =========                 |                                                 |
| \\      /  F ield         | OpenFOAM: The Open Source CFD Toolbox           |
|  \\    /   O peration     | Version:  dev                                   |
|   \\  /    A nd           | Web:      www.OpenFOAM.org                      |
|    \\/     M anipulation  |                                                 |
\*---------------------------------------------------------------------------*/
FoamFile
{
    version     2.0;
    format      ascii;
    class       volScalarField;
    location    "0.095";
    object      i-C4H3;
}
// * * * * * * * * * * * * * * * * * * * * * * * * * * * * * * * * * * * * * //

dimensions      [0 0 0 0 0 0 0];

internalField   nonuniform List<scalar> 
250
(
2.00371e-05
2.00422e-05
2.00357e-05
2.00398e-05
2.00417e-05
2.0037e-05
2.0045e-05
2.00582e-05
2.0145e-05
2.08669e-05
1.76829e-07
1.16128e-05
1.16097e-05
1.1606e-05
1.16099e-05
1.16057e-05
1.1614e-05
1.16127e-05
1.16355e-05
1.1713e-05
1.24488e-05
3.43022e-06
6.32687e-06
6.32722e-06
6.32601e-06
6.32781e-06
6.32466e-06
6.32827e-06
6.33e-06
6.3567e-06
6.41181e-06
6.98309e-06
6.1435e-06
3.73332e-06
3.73413e-06
3.7342e-06
3.73427e-06
3.73306e-06
3.73373e-06
3.73833e-06
3.76356e-06
3.81151e-06
4.22716e-06
6.68251e-06
2.47442e-06
2.476e-06
2.47699e-06
2.47559e-06
2.47552e-06
2.47391e-06
2.48243e-06
2.50252e-06
2.55706e-06
2.84254e-06
6.43802e-06
1.82717e-06
1.83194e-06
1.83354e-06
1.83116e-06
1.82959e-06
1.82712e-06
1.84024e-06
1.85302e-06
1.89635e-06
2.10838e-06
5.95518e-06
1.47124e-06
1.46689e-06
1.46948e-06
1.46559e-06
1.47534e-06
1.45384e-06
1.48276e-06
1.49001e-06
1.54827e-06
1.68533e-06
5.25064e-06
1.23652e-06
1.23509e-06
1.23786e-06
1.23371e-06
1.24078e-06
1.23949e-06
1.25206e-06
1.25942e-06
1.34505e-06
1.44216e-06
4.24674e-06
1.10258e-06
1.10213e-06
1.10519e-06
1.10066e-06
1.10745e-06
1.10126e-06
1.12079e-06
1.12374e-06
1.20038e-06
1.28792e-06
3.08173e-06
9.96983e-07
9.96892e-07
1.00035e-06
9.95505e-07
1.00276e-06
9.93023e-07
1.01735e-06
1.01578e-06
1.11017e-06
1.17805e-06
2.06073e-06
9.14809e-07
9.18379e-07
9.13487e-07
9.20558e-07
9.09296e-07
9.36568e-07
9.31529e-07
1.037e-06
1.09294e-06
1.37446e-06
8.47835e-07
8.51508e-07
8.46599e-07
8.52785e-07
8.408e-07
8.7047e-07
8.63614e-07
9.73603e-07
1.03818e-06
1.0174e-06
7.90699e-07
7.94459e-07
7.89571e-07
7.93961e-07
7.81588e-07
8.13843e-07
8.06017e-07
9.18756e-07
9.8704e-07
8.97684e-07
7.40468e-07
7.44289e-07
7.39486e-07
7.48612e-07
7.35343e-07
7.63855e-07
7.55481e-07
8.69401e-07
9.35291e-07
8.84263e-07
6.95457e-07
6.99305e-07
6.94616e-07
7.02216e-07
6.93876e-07
7.18793e-07
7.10191e-07
8.23992e-07
8.9157e-07
9.14226e-07
6.54644e-07
6.58479e-07
6.5395e-07
6.65584e-07
6.53007e-07
6.776e-07
6.69078e-07
7.81626e-07
8.51096e-07
9.56593e-07
6.17365e-07
6.21137e-07
6.16786e-07
6.27798e-07
6.14794e-07
6.39646e-07
6.31462e-07
7.41728e-07
8.12773e-07
9.9409e-07
5.83143e-07
5.86799e-07
5.8265e-07
5.93081e-07
5.79772e-07
6.04505e-07
5.96859e-07
7.03876e-07
7.75773e-07
1.01722e-06
5.51593e-07
5.55091e-07
5.51173e-07
5.61105e-07
5.49892e-07
5.71828e-07
5.64855e-07
6.67769e-07
7.38932e-07
1.0224e-06
5.22375e-07
5.25737e-07
5.22039e-07
5.31563e-07
5.23801e-07
5.41175e-07
5.35004e-07
6.38253e-07
7.0413e-07
1.01045e-06
4.95169e-07
4.98752e-07
4.94951e-07
5.04164e-07
4.96603e-07
5.16366e-07
5.1051e-07
6.08363e-07
6.69236e-07
9.84675e-07
4.72874e-07
4.75192e-07
4.72762e-07
4.78656e-07
4.74222e-07
4.91198e-07
4.87986e-07
5.78595e-07
6.36454e-07
9.49252e-07
4.51947e-07
4.55222e-07
4.52131e-07
4.58011e-07
4.533e-07
4.69945e-07
4.66603e-07
5.49868e-07
6.02903e-07
9.08056e-07
4.33258e-07
4.34502e-07
4.31501e-07
4.36986e-07
4.32558e-07
4.48416e-07
4.45204e-07
5.21995e-07
5.70897e-07
8.64035e-07
)
;

boundaryField
{
    fuel
    {
        type            fixedValue;
        value           uniform 0;
    }
    wall
    {
        type            zeroGradient;
    }
    outlet
    {
        type            zeroGradient;
    }
    frontAndBack
    {
        type            empty;
    }
    procBoundary3to0
    {
        type            processor;
        value           nonuniform List<scalar> 10(4.16244e-07 4.17282e-07 4.14452e-07 4.19504e-07 4.15426e-07 4.30214e-07 4.27494e-07 4.98953e-07 5.40957e-07 8.18465e-07);
    }
    procBoundary3to2
    {
        type            processor;
        value           nonuniform List<scalar> 
25
(
2.00355e-05
1.16069e-05
6.32665e-06
3.73364e-06
2.47443e-06
1.82696e-06
1.47153e-06
1.23683e-06
1.10275e-06
9.97184e-07
9.14775e-07
9.14775e-07
8.47724e-07
7.90541e-07
7.40255e-07
6.9518e-07
6.54381e-07
6.17441e-07
5.8404e-07
5.52926e-07
5.2353e-07
4.9927e-07
4.77024e-07
4.56333e-07
4.354e-07
)
;
    }
}


// ************************************************************************* //
