/*--------------------------------*- C++ -*----------------------------------*\
| =========                 |                                                 |
| \\      /  F ield         | OpenFOAM: The Open Source CFD Toolbox           |
|  \\    /   O peration     | Version:  dev                                   |
|   \\  /    A nd           | Web:      www.OpenFOAM.org                      |
|    \\/     M anipulation  |                                                 |
\*---------------------------------------------------------------------------*/
FoamFile
{
    version     2.0;
    format      ascii;
    class       volScalarField;
    location    "0.095";
    object      O;
}
// * * * * * * * * * * * * * * * * * * * * * * * * * * * * * * * * * * * * * //

dimensions      [0 0 0 0 0 0 0];

internalField   nonuniform List<scalar> 
25
(
1.5562e-08
1.24642e-08
9.87124e-09
7.72629e-09
5.92561e-09
4.46981e-09
3.34309e-09
2.44346e-09
1.75391e-09
1.22852e-09
8.36891e-10
5.52154e-10
3.51099e-10
2.13994e-10
1.24301e-10
6.84462e-11
3.5619e-11
1.75793e-11
8.39348e-12
4.09437e-12
2.25271e-12
1.49747e-12
1.1042e-12
7.39907e-13
3.23837e-13
)
;

boundaryField
{
    wall
    {
        type            zeroGradient;
    }
    fuel
    {
        type            fixedValue;
        value           nonuniform 0();
    }
    outlet
    {
        type            inletOutlet;
        inletValue      uniform 0;
        value           uniform 3.23837e-13;
    }
    procBoundary3to2
    {
        type            processor;
        value           uniform 1.92231e-08;
    }
}


// ************************************************************************* //
