/*--------------------------------*- C++ -*----------------------------------*\
| =========                 |                                                 |
| \\      /  F ield         | OpenFOAM: The Open Source CFD Toolbox           |
|  \\    /   O peration     | Version:  dev                                   |
|   \\  /    A nd           | Web:      www.OpenFOAM.org                      |
|    \\/     M anipulation  |                                                 |
\*---------------------------------------------------------------------------*/
FoamFile
{
    version     2.0;
    format      ascii;
    class       volScalarField;
    location    "0.095";
    object      P2;
}
// * * * * * * * * * * * * * * * * * * * * * * * * * * * * * * * * * * * * * //

dimensions      [0 0 0 0 0 0 0];

internalField   nonuniform List<scalar> 
25
(
1.13303e-18
8.85991e-19
6.97205e-19
5.55772e-19
4.48477e-19
3.69593e-19
3.13033e-19
2.69806e-19
2.36629e-19
2.09934e-19
1.8777e-19
1.68972e-19
1.52927e-19
1.39324e-19
1.27937e-19
1.18465e-19
1.10423e-19
1.03153e-19
9.58909e-20
8.78638e-20
7.83732e-20
6.6814e-20
5.2639e-20
3.53566e-20
1.55259e-20
)
;

boundaryField
{
    wall
    {
        type            zeroGradient;
    }
    fuel
    {
        type            fixedValue;
        value           nonuniform 0();
    }
    outlet
    {
        type            inletOutlet;
        inletValue      uniform 0;
        value           uniform 1.55259e-20;
    }
    procBoundary3to2
    {
        type            processor;
        value           uniform 1.44965e-18;
    }
}


// ************************************************************************* //
