/*--------------------------------*- C++ -*----------------------------------*\
| =========                 |                                                 |
| \\      /  F ield         | OpenFOAM: The Open Source CFD Toolbox           |
|  \\    /   O peration     | Version:  dev                                   |
|   \\  /    A nd           | Web:      www.OpenFOAM.org                      |
|    \\/     M anipulation  |                                                 |
\*---------------------------------------------------------------------------*/
FoamFile
{
    version     2.0;
    format      ascii;
    class       surfaceScalarField;
    location    "0.095";
    object      phi;
}
// * * * * * * * * * * * * * * * * * * * * * * * * * * * * * * * * * * * * * //

dimensions      [1 0 -1 0 0 0 0];

internalField   nonuniform List<scalar> 
465
(
1.5804e-09
8.17652e-06
1.41655e-08
8.17312e-06
2.12526e-08
8.17858e-06
3.4379e-08
8.17256e-06
4.20065e-08
8.17796e-06
5.26416e-08
8.17556e-06
6.60564e-08
8.17222e-06
6.75362e-08
8.1837e-06
9.11581e-08
8.16203e-06
2.14194e-07
8.07379e-06
8.01089e-06
2.96991e-09
8.16251e-06
2.18379e-08
8.1552e-06
3.53003e-08
8.16602e-06
5.40163e-08
8.15475e-06
6.77703e-08
8.16502e-06
8.48299e-08
8.15967e-06
1.03268e-07
8.15467e-06
1.11132e-07
8.17647e-06
1.3409e-07
8.14052e-06
2.40462e-07
7.97877e-06
7.89331e-06
4.5866e-09
8.14196e-06
2.99081e-08
8.13046e-06
4.9994e-08
8.14648e-06
7.45458e-08
8.13075e-06
9.44602e-08
8.14562e-06
1.17918e-07
8.13687e-06
1.42318e-07
8.1308e-06
1.54804e-07
8.16447e-06
1.76301e-07
8.12043e-06
2.05692e-07
7.96289e-06
7.9058e-06
6.07862e-09
8.11591e-06
3.69485e-08
8.10012e-06
6.27165e-08
8.12123e-06
9.42741e-08
8.09972e-06
1.21601e-07
8.11881e-06
1.51387e-07
8.10765e-06
1.82073e-07
8.10061e-06
1.98339e-07
8.14874e-06
2.18986e-07
8.10147e-06
1.79413e-07
8.0189e-06
8.05292e-06
7.86053e-09
8.08348e-06
4.50162e-08
8.0635e-06
7.72127e-08
8.08956e-06
1.15057e-07
8.06241e-06
1.4886e-07
8.08556e-06
1.84804e-07
8.07226e-06
2.21903e-07
8.06402e-06
2.41473e-07
8.12971e-06
2.62555e-07
8.08235e-06
1.75079e-07
8.12564e-06
8.2992e-06
9.74842e-09
8.0447e-06
5.2932e-08
8.02106e-06
9.17437e-08
8.05147e-06
1.35629e-07
8.01925e-06
1.75989e-07
8.04595e-06
2.17932e-07
8.03103e-06
2.6149e-07
8.02115e-06
2.84162e-07
8.10778e-06
3.06847e-07
8.06183e-06
1.93264e-07
8.26071e-06
8.57917e-06
1.16782e-08
7.99928e-06
6.07354e-08
7.97275e-06
1.06164e-07
8.00675e-06
1.55995e-07
7.97014e-06
2.02879e-07
7.99984e-06
2.50683e-07
7.98393e-06
3.00682e-07
7.97182e-06
3.26446e-07
8.08272e-06
3.5174e-07
8.03879e-06
2.29917e-07
8.40303e-06
8.83338e-06
1.36065e-08
7.94713e-06
6.83987e-08
7.9187e-06
1.20406e-07
7.95549e-06
1.76095e-07
7.91514e-06
2.29434e-07
7.94723e-06
2.8297e-07
7.93106e-06
3.39365e-07
7.91605e-06
3.68381e-07
8.05436e-06
3.96999e-07
8.0124e-06
2.79523e-07
8.54124e-06
9.03429e-06
1.54887e-08
7.88828e-06
7.59023e-08
7.85904e-06
1.34417e-07
7.89783e-06
1.95891e-07
7.8543e-06
2.55591e-07
7.88821e-06
3.1475e-07
7.87253e-06
3.77467e-07
7.85394e-06
4.10015e-07
8.0224e-06
4.42709e-07
7.98178e-06
3.37598e-07
8.66646e-06
9.18113e-06
1.72767e-08
8.32303e-08
7.79377e-06
1.48155e-07
7.8333e-06
2.15349e-07
7.78766e-06
2.81285e-07
7.82285e-06
3.45978e-07
7.8084e-06
4.14946e-07
7.78548e-06
4.51401e-07
7.98641e-06
4.88817e-07
7.94624e-06
4.00691e-07
8.77363e-06
9.28524e-06
9.03611e-08
7.72292e-06
1.61588e-07
7.76244e-06
2.34463e-07
7.71525e-06
3.06516e-07
7.75128e-06
3.76682e-07
7.73873e-06
4.51823e-07
7.71077e-06
4.92602e-07
7.94596e-06
5.35359e-07
7.90495e-06
4.66618e-07
8.85985e-06
9.35476e-06
9.72754e-08
7.64642e-06
1.74684e-07
7.68538e-06
2.53195e-07
7.63708e-06
3.31229e-07
7.67361e-06
4.0682e-07
7.66351e-06
4.88053e-07
7.62983e-06
5.3363e-07
7.90053e-06
5.8233e-07
7.85727e-06
5.34119e-07
8.92351e-06
9.39133e-06
1.03955e-07
7.5642e-06
1.87422e-07
7.60214e-06
2.71542e-07
7.55318e-06
3.55421e-07
7.58997e-06
4.36414e-07
7.58277e-06
5.23654e-07
7.54276e-06
5.74516e-07
7.84963e-06
6.29732e-07
7.80258e-06
6.02491e-07
8.96382e-06
9.39167e-06
1.10389e-07
7.47641e-06
1.99792e-07
7.51283e-06
2.89495e-07
7.46355e-06
3.79089e-07
7.50048e-06
4.65476e-07
7.49649e-06
5.58632e-07
7.44962e-06
6.15271e-07
7.79274e-06
6.7754e-07
7.74024e-06
6.71113e-07
8.9802e-06
9.35417e-06
1.16568e-07
7.38304e-06
2.1179e-07
7.41757e-06
3.07054e-07
7.36825e-06
4.02236e-07
7.40526e-06
4.94025e-07
7.40468e-06
5.92998e-07
7.35053e-06
6.55893e-07
7.72938e-06
7.25729e-07
7.66977e-06
7.39422e-07
8.97347e-06
9.28131e-06
1.22489e-07
7.2841e-06
2.23422e-07
7.31649e-06
3.24221e-07
7.26731e-06
4.24877e-07
7.30445e-06
5.22086e-07
7.30732e-06
6.26766e-07
7.24561e-06
6.9636e-07
7.65911e-06
7.74143e-07
7.59074e-06
8.06873e-07
8.94389e-06
9.17809e-06
1.28158e-07
7.17958e-06
2.34704e-07
7.2097e-06
3.41009e-07
7.16078e-06
4.47037e-07
7.19817e-06
5.49691e-07
7.20442e-06
6.59955e-07
7.13499e-06
7.36638e-07
7.58153e-06
8.22751e-07
7.5028e-06
8.73203e-07
8.89379e-06
9.0502e-06
1.3359e-07
7.06948e-06
2.45659e-07
7.09731e-06
3.57437e-07
7.04871e-06
4.6875e-07
7.08652e-06
5.76876e-07
7.09597e-06
6.9259e-07
7.01883e-06
7.76697e-07
7.4963e-06
8.71635e-07
7.40551e-06
9.38436e-07
8.82495e-06
8.90311e-06
1.38807e-07
6.9538e-06
2.56318e-07
6.97943e-06
3.73534e-07
6.93115e-06
4.90058e-07
6.9696e-06
6.03682e-07
6.98196e-06
7.24706e-07
6.8973e-06
8.165e-07
7.40326e-06
9.20586e-07
7.29866e-06
1.0024e-06
8.73806e-06
8.74141e-06
1.43839e-07
6.83256e-06
2.66721e-07
6.85615e-06
3.89332e-07
6.80817e-06
5.11009e-07
6.8475e-06
6.30155e-07
6.86241e-06
7.56342e-07
6.77056e-06
8.56014e-07
7.30253e-06
9.69519e-07
7.18208e-06
1.06511e-06
8.63483e-06
8.56889e-06
1.48717e-07
6.70581e-06
2.76907e-07
6.72755e-06
4.0487e-07
6.67984e-06
5.31657e-07
6.72027e-06
6.56343e-07
6.73731e-06
7.87511e-07
6.63882e-06
8.95163e-07
7.19437e-06
1.01834e-06
7.05561e-06
1.12661e-06
8.51671e-06
8.3886e-06
1.5348e-07
6.57359e-06
2.86923e-07
6.59371e-06
4.20189e-07
6.54623e-06
5.52062e-07
6.58796e-06
6.82297e-07
6.60667e-06
8.18311e-07
6.50224e-06
9.33952e-07
7.07743e-06
1.06695e-06
6.91918e-06
1.18698e-06
8.38564e-06
8.20294e-06
1.58138e-07
6.43597e-06
2.96763e-07
6.45472e-06
4.35264e-07
6.40741e-06
5.72188e-07
6.45061e-06
7.07955e-07
6.47053e-06
8.48758e-07
6.36087e-06
9.72416e-07
6.95252e-06
1.11511e-06
6.77298e-06
1.24619e-06
8.24153e-06
8.01354e-06
1.62758e-07
3.06528e-07
4.50221e-07
5.922e-07
7.33491e-07
8.7888e-07
1.01048e-06
1.1628e-06
1.30446e-06
)
;

boundaryField
{
    fuel
    {
        type            calculated;
        value           nonuniform List<scalar> 
11
(
-8.18322e-06
-8.18323e-06
-8.18322e-06
-8.18322e-06
-8.18322e-06
-8.18322e-06
-8.18321e-06
-8.1832e-06
-8.1832e-06
-8.18319e-06
-8.18318e-06
)
;
    }
    wall
    {
        type            calculated;
        value           nonuniform 0();
    }
    outlet
    {
        type            calculated;
        value           nonuniform List<scalar> 
24
(
3.87649e-07
4.25823e-07
3.22153e-07
2.24839e-07
1.69346e-07
1.58972e-07
1.84854e-07
2.35448e-07
3.01456e-07
3.7618e-07
4.55392e-07
5.368e-07
6.19291e-07
7.01945e-07
7.83855e-07
8.64295e-07
9.42793e-07
1.0191e-06
1.09313e-06
1.1649e-06
1.23455e-06
1.30227e-06
1.36835e-06
1.43322e-06
)
;
    }
    frontAndBack
    {
        type            empty;
        value           nonuniform 0();
    }
    procBoundary3to0
    {
        type            processor;
        value           nonuniform List<scalar> 10(6.29297e-06 6.31059e-06 6.26341e-06 6.3082e-06 6.32886e-06 6.2149e-06 6.81962e-06 6.61713e-06 8.08672e-06 7.82149e-06);
    }
    procBoundary3to2
    {
        type            processor;
        value           nonuniform List<scalar> 
25
(
7.57152e-09
1.19432e-08
1.65148e-08
2.05056e-08
2.51126e-08
2.97514e-08
3.44306e-08
3.91506e-08
4.39174e-08
4.87354e-08
7.82289e-06
-1.89231e-08
-2.03839e-08
-2.16196e-08
-2.25994e-08
-2.33049e-08
-2.37327e-08
-2.38902e-08
-2.37971e-08
-2.34842e-08
-2.29905e-08
-2.236e-08
-2.16382e-08
-2.08661e-08
-2.00889e-08
)
;
    }
}


// ************************************************************************* //
