/*--------------------------------*- C++ -*----------------------------------*\
| =========                 |                                                 |
| \\      /  F ield         | OpenFOAM: The Open Source CFD Toolbox           |
|  \\    /   O peration     | Version:  dev                                   |
|   \\  /    A nd           | Web:      www.OpenFOAM.org                      |
|    \\/     M anipulation  |                                                 |
\*---------------------------------------------------------------------------*/
FoamFile
{
    version     2.0;
    format      ascii;
    class       volScalarField;
    location    "0.095";
    object      T;
}
// * * * * * * * * * * * * * * * * * * * * * * * * * * * * * * * * * * * * * //

dimensions      [0 0 0 1 0 0 0];

internalField   nonuniform List<scalar> 
250
(
1745.92
1745.91
1745.93
1745.91
1745.93
1745.92
1745.88
1745.55
1742.55
1718.31
416.416
1963.82
1963.8
1963.83
1963.81
1963.82
1963.81
1963.76
1963.33
1959.61
1928.97
502.941
2023.03
2023.01
2023.04
2023.02
2023.04
2023.03
2022.96
2022.37
2017.38
1976.55
573.25
2043.27
2043.24
2043.28
2043.25
2043.28
2043.26
2043.18
2042.4
2035.86
1983.27
634.618
2051.05
2051.03
2051.07
2051.04
2051.08
2051.06
2050.95
2049.98
2041.76
1977.48
693.65
2054.11
2054.08
2054.11
2054.09
2054.15
2054.11
2053.98
2052.76
2042.84
1967.79
755.218
2055.01
2054.98
2055.01
2054.99
2055.07
2055.02
2054.87
2053.45
2041.87
1956.41
821.944
2054.94
2054.89
2054.93
2054.91
2055.01
2054.96
2054.78
2053.16
2039.94
1946.61
894.429
2054.37
2054.29
2054.34
2054.34
2054.46
2054.41
2054.19
2052.33
2037.73
1937.75
971.98
2053.44
2053.42
2053.48
2053.5
2053.54
2053.48
2053.23
2051.17
2035.4
1930.86
1052.82
2052.36
2052.45
2052.5
2052.54
2052.48
2052.21
2049.99
2032.92
1925.68
1133.88
2051.17
2051.3
2051.25
2051.3
2051.25
2050.95
2048.62
2030.78
1922.21
1212.12
2049.86
2049.92
2049.87
2049.92
2049.88
2049.55
2047.13
2028.78
1920.33
1285.5
2048.39
2048.4
2048.34
2048.41
2048.36
2048.02
2045.55
2026.77
1919.89
1353.74
2046.67
2046.7
2046.64
2046.72
2046.68
2046.33
2043.85
2025.07
1920.74
1417.35
2044.76
2044.8
2044.74
2044.83
2044.8
2044.44
2042
2023.35
1922.88
1476.78
2042.59
2042.65
2042.58
2042.69
2042.66
2042.31
2039.96
2021.63
1926.05
1532.22
2040.12
2040.19
2040.11
2040.24
2040.23
2039.88
2037.65
2019.86
1929.58
1583.69
2037.28
2037.36
2037.27
2037.43
2037.43
2037.09
2035.02
2017.97
1933.52
1631.15
2033.99
2034.08
2033.99
2034.17
2034.19
2033.87
2031.96
2015.85
1937.63
1674.54
2030.17
2030.27
2030.17
2030.38
2030.41
2030.12
2028.74
2013.41
1941.67
1713.8
2025.7
2025.83
2025.71
2025.96
2026.01
2025.76
2024.93
2010.52
1945.38
1748.91
2020.93
2021.08
2020.94
2021.23
2021.31
2021.08
2020.27
2007.05
1948.75
1779.89
2015.16
2015.34
2015.17
2015.53
2015.64
2015.46
2015.29
2002.83
1951.19
1806.78
)
;

boundaryField
{
    fuel
    {
        type            fixedValue;
        value           uniform 353;
    }
    wall
    {
        type            fixedValue;
        value           nonuniform 0();
    }
    outlet
    {
        type            inletOutlet;
        inletValue      uniform 353;
        value           nonuniform List<scalar> 
24
(
416.391
502.801
572.952
634.124
692.956
754.39
821.087
893.624
971.257
1052.17
1133.3
1211.63
1285.15
1353.58
1417.4
1477.02
1532.63
1584.24
1631.81
1675.28
1714.58
1749.72
1780.7
1807.57
)
;
    }
    frontAndBack
    {
        type            empty;
    }
    procBoundary3to0
    {
        type            processor;
        value           nonuniform List<scalar> 10(2008.73 2008.95 2008.74 2009.16 2009.31 2009.17 2009.08 1997.69 1952.65 1829.62);
    }
    procBoundary3to2
    {
        type            processor;
        value           nonuniform List<scalar> 
25
(
1745.92
1963.81
2023.02
2043.26
2051.05
2054.11
2055.02
2054.95
2054.38
2053.46
2052.42
2052.42
2051.16
2049.73
2048.14
2046.52
2044.7
2042.52
2040.05
2037.2
2033.89
2030.05
2025.57
2020.77
2014.96
)
;
    }
}


// ************************************************************************* //
