/*--------------------------------*- C++ -*----------------------------------*\
| =========                 |                                                 |
| \\      /  F ield         | OpenFOAM: The Open Source CFD Toolbox           |
|  \\    /   O peration     | Version:  dev                                   |
|   \\  /    A nd           | Web:      www.OpenFOAM.org                      |
|    \\/     M anipulation  |                                                 |
\*---------------------------------------------------------------------------*/
FoamFile
{
    version     2.0;
    format      ascii;
    class       volVectorField;
    location    "0.095";
    object      U;
}
// * * * * * * * * * * * * * * * * * * * * * * * * * * * * * * * * * * * * * //

dimensions      [0 1 -1 0 0 0 0];

internalField   nonuniform List<vector> 
1989
(
(0 0.84134 0.260934)
(0 0.78251 0.260528)
(0 0.716879 0.260702)
(0 0.65696 0.260348)
(0 0.592313 0.260552)
(0 0.531651 0.260291)
(0 0.467664 0.260458)
(0 0.406491 0.260283)
(0 0.342946 0.260402)
(0 0.281437 0.260293)
(0 0.218172 0.260366)
(0 0.156455 0.260307)
(0 0.0933448 0.260341)
(0 0.0315309 0.260322)
(0 -0.0315309 0.260323)
(0 -0.0933448 0.260341)
(0 -0.156456 0.260307)
(0 -0.218172 0.260365)
(0 -0.281437 0.260293)
(0 -0.342947 0.260402)
(0 -0.406492 0.260283)
(0 -0.467664 0.260458)
(0 -0.531652 0.26029)
(0 -0.592314 0.260552)
(0 -0.656962 0.26035)
(0 -0.71688 0.260704)
(0 -0.78251 0.26053)
(0 -0.841341 0.260936)
(0 -0.908495 0.260986)
(0 -0.965674 0.261331)
(0 -1.03533 0.262098)
(0 -1.08971 0.262102)
(0 -1.16386 0.264509)
(0 -1.21304 0.264186)
(0 -1.29529 0.269058)
(0 -1.33562 0.270875)
(0 -1.43023 0.273643)
(0 -1.45701 0.285431)
(0 -1.56848 0.283263)
(0 1.57184 0.276809)
(0 1.45958 0.278674)
(0 1.4327 0.267054)
(0 1.3377 0.264143)
(0 1.29727 0.262505)
(0 1.21477 0.257543)
(0 1.16554 0.257975)
(0 1.09122 0.255527)
(0 1.03678 0.255568)
(0 0.966996 0.254793)
(0 0.909758 0.254457)
(0 0.842481 0.254407)
(0 0.783589 0.254007)
(0 0.717848 0.254182)
(0 0.657863 0.25383)
(0 0.593112 0.254035)
(0 0.532379 0.253775)
(0 0.468295 0.253943)
(0 0.407048 0.253768)
(0 0.343409 0.253887)
(0 0.281822 0.253779)
(0 0.218465 0.253852)
(0 0.15667 0.253793)
(0 0.0934695 0.253828)
(0 0.0315756 0.253808)
(0 -0.0315757 0.253809)
(0 -0.0934697 0.253827)
(0 -0.156671 0.253793)
(0 -0.218466 0.253851)
(0 -0.281823 0.253779)
(0 -0.34341 0.253887)
(0 -0.407049 0.253769)
(0 -0.468295 0.253942)
(0 -0.532381 0.253775)
(0 -0.593114 0.254035)
(0 -0.657865 0.253832)
(0 -0.717848 0.254184)
(0 -0.783589 0.254009)
(0 -0.842482 0.25441)
(0 -0.909756 0.254458)
(0 -0.966994 0.25479)
(0 -1.03678 0.255564)
(0 -1.09122 0.255521)
(0 -1.16554 0.257972)
(0 -1.21477 0.257537)
(0 -1.29727 0.262506)
(0 -1.3377 0.264137)
(0 -1.4327 0.267058)
(0 -1.45958 0.278658)
(0 -1.57185 0.276807)
(0 1.57486 0.270271)
(0 1.46182 0.271825)
(0 1.43484 0.260405)
(0 1.33948 0.257343)
(0 1.29896 0.255893)
(0 1.21623 0.25084)
(0 1.16697 0.251384)
(0 1.09248 0.248894)
(0 1.038 0.248981)
(0 0.968097 0.2482)
(0 0.910816 0.247878)
(0 0.843431 0.24783)
(0 0.784493 0.247436)
(0 0.718655 0.247612)
(0 0.658619 0.247263)
(0 0.593778 0.247468)
(0 0.53299 0.24721)
(0 0.46882 0.247377)
(0 0.407513 0.247204)
(0 0.343794 0.247323)
(0 0.282144 0.247216)
(0 0.21871 0.247287)
(0 0.15685 0.24723)
(0 0.0935731 0.247263)
(0 0.0316134 0.247245)
(0 -0.0316137 0.247245)
(0 -0.0935733 0.247263)
(0 -0.156851 0.247229)
(0 -0.218711 0.247287)
(0 -0.282145 0.247215)
(0 -0.343795 0.247322)
(0 -0.407515 0.247204)
(0 -0.468821 0.247378)
(0 -0.532991 0.247209)
(0 -0.593779 0.247468)
(0 -0.658621 0.247265)
(0 -0.718655 0.247615)
(0 -0.784494 0.247438)
(0 -0.843432 0.247832)
(0 -0.910814 0.247881)
(0 -0.968095 0.248196)
(0 -1.038 0.248979)
(0 -1.09248 0.248888)
(0 -1.16697 0.25138)
(0 -1.21623 0.250835)
(0 -1.29896 0.255891)
(0 -1.33948 0.257341)
(0 -1.43484 0.260405)
(0 -1.46182 0.271811)
(0 -1.57486 0.270269)
(0 1.57751 0.263641)
(0 1.46372 0.264895)
(0 1.43665 0.253691)
(0 1.34095 0.250486)
(0 1.30034 0.249221)
(0 1.21741 0.244083)
(0 1.16812 0.244741)
(0 1.09349 0.242209)
(0 1.03899 0.242346)
(0 0.968973 0.241555)
(0 0.911668 0.241251)
(0 0.844186 0.241201)
(0 0.78522 0.240813)
(0 0.719296 0.240991)
(0 0.659226 0.240645)
(0 0.594307 0.24085)
(0 0.533478 0.240594)
(0 0.469238 0.24076)
(0 0.407886 0.240589)
(0 0.3441 0.240707)
(0 0.282403 0.240601)
(0 0.218904 0.240672)
(0 0.156994 0.240616)
(0 0.0936551 0.240649)
(0 0.0316442 0.24063)
(0 -0.0316446 0.24063)
(0 -0.0936555 0.240648)
(0 -0.156995 0.240615)
(0 -0.218906 0.240672)
(0 -0.282404 0.240601)
(0 -0.344101 0.240707)
(0 -0.407888 0.240589)
(0 -0.469239 0.240761)
(0 -0.53348 0.240593)
(0 -0.594309 0.24085)
(0 -0.659228 0.240647)
(0 -0.719297 0.240993)
(0 -0.78522 0.240815)
(0 -0.844188 0.241204)
(0 -0.911666 0.241251)
(0 -0.968972 0.241552)
(0 -1.03899 0.242341)
(0 -1.09349 0.242202)
(0 -1.16813 0.244736)
(0 -1.21741 0.244076)
(0 -1.30035 0.24922)
(0 -1.34095 0.250478)
(0 -1.43665 0.253694)
(0 -1.46372 0.264876)
(0 -1.57751 0.26364)
(0 1.57981 0.256931)
(0 1.46527 0.257885)
(0 1.43812 0.246924)
(0 1.3421 0.243572)
(0 1.30143 0.2425)
(0 1.21829 0.237279)
(0 1.16901 0.238051)
(0 1.09425 0.235479)
(0 1.03974 0.235663)
(0 0.969622 0.234867)
(0 0.912309 0.234578)
(0 0.844743 0.23453)
(0 0.785764 0.234148)
(0 0.719769 0.234327)
(0 0.65968 0.233983)
(0 0.594698 0.234188)
(0 0.533844 0.233934)
(0 0.469546 0.234101)
(0 0.408165 0.233931)
(0 0.344326 0.234048)
(0 0.282595 0.233943)
(0 0.219048 0.234014)
(0 0.157102 0.233958)
(0 0.0937152 0.233991)
(0 0.0316678 0.233973)
(0 -0.0316683 0.233973)
(0 -0.0937156 0.23399)
(0 -0.157103 0.233957)
(0 -0.219049 0.234014)
(0 -0.282597 0.233943)
(0 -0.344327 0.234048)
(0 -0.408166 0.233931)
(0 -0.469547 0.234101)
(0 -0.533845 0.233934)
(0 -0.594699 0.234189)
(0 -0.659682 0.233985)
(0 -0.71977 0.234329)
(0 -0.785765 0.23415)
(0 -0.844745 0.234532)
(0 -0.912307 0.234579)
(0 -0.96962 0.234864)
(0 -1.03974 0.235659)
(0 -1.09425 0.235473)
(0 -1.16901 0.238047)
(0 -1.21829 0.237273)
(0 -1.30143 0.242498)
(0 -1.3421 0.243568)
(0 -1.43812 0.246927)
(0 -1.46526 0.257867)
(0 -1.5798 0.256931)
(0 1.58172 0.25016)
(0 1.46646 0.250819)
(0 1.43925 0.240106)
(0 1.34293 0.236615)
(0 1.3022 0.235732)
(0 1.21888 0.230436)
(0 1.16962 0.231321)
(0 1.09473 0.22871)
(0 1.04024 0.228942)
(0 0.970037 0.22814)
(0 0.912735 0.227867)
(0 0.845098 0.227819)
(0 0.786124 0.227443)
(0 0.72007 0.227623)
(0 0.659979 0.227283)
(0 0.594946 0.227488)
(0 0.534083 0.227236)
(0 0.469742 0.227402)
(0 0.408347 0.227234)
(0 0.34447 0.22735)
(0 0.282722 0.227247)
(0 0.219139 0.227317)
(0 0.157173 0.227261)
(0 0.0937529 0.227294)
(0 0.0316841 0.227276)
(0 -0.0316847 0.227276)
(0 -0.0937534 0.227293)
(0 -0.157174 0.22726)
(0 -0.21914 0.227316)
(0 -0.282723 0.227246)
(0 -0.344472 0.22735)
(0 -0.408349 0.227234)
(0 -0.469743 0.227402)
(0 -0.534085 0.227236)
(0 -0.594948 0.227488)
(0 -0.659981 0.227285)
(0 -0.720071 0.227626)
(0 -0.786126 0.227445)
(0 -0.845101 0.227821)
(0 -0.912734 0.227867)
(0 -0.970036 0.228138)
(0 -1.04024 0.228938)
(0 -1.09473 0.228704)
(0 -1.16963 0.231317)
(0 -1.21888 0.230429)
(0 -1.30221 0.235731)
(0 -1.34293 0.23661)
(0 -1.43924 0.24011)
(0 -1.46646 0.2508)
(0 -1.58172 0.25016)
(0 1.58325 0.243326)
(0 1.46729 0.243698)
(0 1.44002 0.23324)
(0 1.34343 0.229611)
(0 1.30266 0.228921)
(0 1.21916 0.223554)
(0 1.16995 0.224553)
(0 1.09495 0.221905)
(0 1.04049 0.222185)
(0 0.970215 0.221378)
(0 0.912943 0.221121)
(0 0.845247 0.221073)
(0 0.786296 0.220703)
(0 0.720195 0.220885)
(0 0.660119 0.220548)
(0 0.59505 0.220753)
(0 0.534195 0.220503)
(0 0.469825 0.220668)
(0 0.408431 0.220502)
(0 0.344531 0.220618)
(0 0.28278 0.220516)
(0 0.219177 0.220585)
(0 0.157206 0.22053)
(0 0.0937677 0.220562)
(0 0.031693 0.220545)
(0 -0.0316937 0.220545)
(0 -0.0937683 0.220562)
(0 -0.157207 0.220529)
(0 -0.219178 0.220585)
(0 -0.282781 0.220515)
(0 -0.344532 0.220618)
(0 -0.408433 0.220503)
(0 -0.469826 0.220669)
(0 -0.534196 0.220503)
(0 -0.595052 0.220753)
(0 -0.660121 0.22055)
(0 -0.720197 0.220887)
(0 -0.786297 0.220705)
(0 -0.84525 0.221076)
(0 -0.912942 0.22112)
(0 -0.970214 0.221376)
(0 -1.0405 0.222181)
(0 -1.09495 0.221899)
(0 -1.16996 0.224549)
(0 -1.21916 0.223548)
(0 -1.30266 0.22892)
(0 -1.34343 0.229607)
(0 -1.44001 0.233244)
(0 -1.46729 0.243678)
(0 -1.58325 0.243327)
(0 1.58439 0.236414)
(0 1.46775 0.236506)
(0 1.44042 0.226318)
(0 1.34359 0.222556)
(0 1.30279 0.222058)
(0 1.21914 0.216629)
(0 1.17 0.21774)
(0 1.09489 0.215058)
(0 1.04049 0.215385)
(0 0.97015 0.214574)
(0 0.912929 0.214333)
(0 0.845186 0.214286)
(0 0.786276 0.213923)
(0 0.720143 0.214105)
(0 0.660099 0.213772)
(0 0.595007 0.213976)
(0 0.534176 0.21373)
(0 0.469791 0.213894)
(0 0.408416 0.21373)
(0 0.344506 0.213845)
(0 0.282769 0.213744)
(0 0.219161 0.213812)
(0 0.157201 0.213758)
(0 0.0937592 0.21379)
(0 0.0316943 0.213772)
(0 -0.0316951 0.213772)
(0 -0.09376 0.21379)
(0 -0.157203 0.213757)
(0 -0.219162 0.213812)
(0 -0.282771 0.213743)
(0 -0.344508 0.213844)
(0 -0.408417 0.21373)
(0 -0.469792 0.213894)
(0 -0.534177 0.213729)
(0 -0.595009 0.213977)
(0 -0.660101 0.213773)
(0 -0.720144 0.214108)
(0 -0.786278 0.213925)
(0 -0.845189 0.214289)
(0 -0.912928 0.214332)
(0 -0.97015 0.214572)
(0 -1.0405 0.215381)
(0 -1.09489 0.215052)
(0 -1.17 0.217736)
(0 -1.21914 0.216623)
(0 -1.30279 0.222057)
(0 -1.34359 0.222551)
(0 -1.44042 0.226323)
(0 -1.46775 0.236485)
(0 -1.58439 0.236415)
(0 1.58513 0.229414)
(0 1.46783 0.229235)
(0 1.44046 0.219334)
(0 1.34341 0.215442)
(0 1.30259 0.215136)
(0 1.21881 0.209652)
(0 1.16975 0.210875)
(0 1.09456 0.20816)
(0 1.04023 0.208535)
(0 0.969839 0.20772)
(0 0.912688 0.207496)
(0 0.84491 0.207449)
(0 0.786061 0.207093)
(0 0.719908 0.207276)
(0 0.659914 0.206946)
(0 0.594814 0.20715)
(0 0.534024 0.206906)
(0 0.469639 0.20707)
(0 0.408298 0.206908)
(0 0.344395 0.207022)
(0 0.282688 0.206922)
(0 0.21909 0.20699)
(0 0.157157 0.206937)
(0 0.0937271 0.206968)
(0 0.031688 0.206951)
(0 -0.0316889 0.206951)
(0 -0.093728 0.206968)
(0 -0.157159 0.206936)
(0 -0.219091 0.20699)
(0 -0.28269 0.206922)
(0 -0.344397 0.207022)
(0 -0.4083 0.206908)
(0 -0.46964 0.20707)
(0 -0.534026 0.206906)
(0 -0.594816 0.207151)
(0 -0.659917 0.206948)
(0 -0.71991 0.207279)
(0 -0.786063 0.207095)
(0 -0.844914 0.207452)
(0 -0.912688 0.207495)
(0 -0.969839 0.207718)
(0 -1.04024 0.20853)
(0 -1.09456 0.208154)
(0 -1.16976 0.210871)
(0 -1.21881 0.209646)
(0 -1.3026 0.215135)
(0 -1.34341 0.215437)
(0 -1.44045 0.219339)
(0 -1.46783 0.229213)
(0 -1.58513 0.229416)
(0 1.58546 0.222333)
(0 1.46752 0.221893)
(0 1.44012 0.212294)
(0 1.34288 0.208286)
(0 1.30206 0.208171)
(0 1.21815 0.20264)
(0 1.16921 0.203973)
(0 1.09393 0.201228)
(0 1.03971 0.20165)
(0 0.969277 0.200833)
(0 0.912218 0.200625)
(0 0.844418 0.200579)
(0 0.785648 0.200229)
(0 0.719489 0.200413)
(0 0.659563 0.200088)
(0 0.594469 0.200291)
(0 0.533737 0.20005)
(0 0.469367 0.200212)
(0 0.408078 0.200053)
(0 0.344196 0.200166)
(0 0.282536 0.200068)
(0 0.218962 0.200135)
(0 0.157073 0.200082)
(0 0.0936708 0.200113)
(0 0.0316738 0.200096)
(0 -0.0316748 0.200096)
(0 -0.0936718 0.200113)
(0 -0.157075 0.200081)
(0 -0.218964 0.200134)
(0 -0.282537 0.200067)
(0 -0.344198 0.200165)
(0 -0.40808 0.200053)
(0 -0.469368 0.200213)
(0 -0.533739 0.20005)
(0 -0.594471 0.200291)
(0 -0.659566 0.200089)
(0 -0.71949 0.200416)
(0 -0.78565 0.200231)
(0 -0.844421 0.200582)
(0 -0.912218 0.200624)
(0 -0.969277 0.200831)
(0 -1.03972 0.201645)
(0 -1.09393 0.201222)
(0 -1.16921 0.203969)
(0 -1.21815 0.202634)
(0 -1.30207 0.20817)
(0 -1.34288 0.208282)
(0 -1.44011 0.2123)
(0 -1.46752 0.221869)
(0 -1.58546 0.222336)
(0 1.58538 0.215192)
(0 1.46682 0.2145)
(0 1.4394 0.205213)
(0 1.34199 0.201102)
(0 1.30119 0.20118)
(0 1.21717 0.19561)
(0 1.16837 0.197052)
(0 1.09302 0.194279)
(0 1.03893 0.194748)
(0 0.968459 0.193929)
(0 0.911514 0.193738)
(0 0.843703 0.193693)
(0 0.785033 0.193349)
(0 0.718881 0.193534)
(0 0.659043 0.193212)
(0 0.593968 0.193415)
(0 0.533314 0.193177)
(0 0.468973 0.193338)
(0 0.407753 0.193181)
(0 0.343907 0.193293)
(0 0.28231 0.193196)
(0 0.218778 0.193262)
(0 0.156949 0.193211)
(0 0.09359 0.193241)
(0 0.0316517 0.193225)
(0 -0.0316529 0.193225)
(0 -0.0935912 0.193241)
(0 -0.156951 0.19321)
(0 -0.21878 0.193262)
(0 -0.282312 0.193196)
(0 -0.343909 0.193293)
(0 -0.407755 0.193181)
(0 -0.468974 0.193339)
(0 -0.533315 0.193177)
(0 -0.59397 0.193415)
(0 -0.659045 0.193214)
(0 -0.718883 0.193537)
(0 -0.785035 0.193351)
(0 -0.843707 0.193695)
(0 -0.911514 0.193737)
(0 -0.968459 0.193927)
(0 -1.03893 0.194743)
(0 -1.09302 0.194273)
(0 -1.16837 0.197048)
(0 -1.21717 0.195604)
(0 -1.30119 0.201179)
(0 -1.342 0.201099)
(0 -1.43939 0.20522)
(0 -1.46682 0.214475)
(0 -1.58537 0.215196)
(0 1.58487 0.208)
(0 1.46572 0.207065)
(0 1.43828 0.198097)
(0 1.34075 0.193882)
(0 1.29997 0.194152)
(0 1.21587 0.188553)
(0 1.16722 0.190101)
(0 1.09181 0.187303)
(0 1.03787 0.187818)
(0 0.967381 0.186999)
(0 0.910573 0.186825)
(0 0.842764 0.18678)
(0 0.784214 0.186443)
(0 0.718083 0.186628)
(0 0.65835 0.186311)
(0 0.59331 0.186512)
(0 0.53275 0.186278)
(0 0.468454 0.186437)
(0 0.407321 0.186283)
(0 0.343527 0.186393)
(0 0.282011 0.186298)
(0 0.218536 0.186363)
(0 0.156784 0.186313)
(0 0.0934843 0.186343)
(0 0.0316215 0.186326)
(0 -0.0316229 0.186326)
(0 -0.0934856 0.186342)
(0 -0.156786 0.186312)
(0 -0.218538 0.186363)
(0 -0.282013 0.186298)
(0 -0.343529 0.186393)
(0 -0.407323 0.186283)
(0 -0.468456 0.186437)
(0 -0.532752 0.186277)
(0 -0.593313 0.186512)
(0 -0.658353 0.186312)
(0 -0.718085 0.186631)
(0 -0.784217 0.186445)
(0 -0.842768 0.186782)
(0 -0.910574 0.186824)
(0 -0.967382 0.186997)
(0 -1.03788 0.187813)
(0 -1.09182 0.187298)
(0 -1.16722 0.190097)
(0 -1.21586 0.188547)
(0 -1.29997 0.194151)
(0 -1.34075 0.193879)
(0 -1.43827 0.198103)
(0 -1.46572 0.207039)
(0 -1.58487 0.208004)
(0 1.58393 0.200743)
(0 1.46422 0.199576)
(0 1.43677 0.190937)
(0 1.33913 0.186616)
(0 1.2984 0.187075)
(0 1.21422 0.181456)
(0 1.16576 0.183108)
(0 1.09031 0.180288)
(0 1.03654 0.180848)
(0 0.96604 0.180029)
(0 0.909392 0.179872)
(0 0.841595 0.179828)
(0 0.783188 0.179498)
(0 0.71709 0.179683)
(0 0.657484 0.17937)
(0 0.592492 0.179571)
(0 0.532046 0.17934)
(0 0.46781 0.179497)
(0 0.40678 0.179346)
(0 0.343055 0.179455)
(0 0.281638 0.179362)
(0 0.218235 0.179426)
(0 0.156578 0.179377)
(0 0.0933533 0.179406)
(0 0.0315832 0.17939)
(0 -0.0315847 0.17939)
(0 -0.0933548 0.179405)
(0 -0.15658 0.179375)
(0 -0.218237 0.179425)
(0 -0.281639 0.179361)
(0 -0.343057 0.179455)
(0 -0.406783 0.179346)
(0 -0.467812 0.179498)
(0 -0.532048 0.179339)
(0 -0.592495 0.179571)
(0 -0.657487 0.179372)
(0 -0.717092 0.179686)
(0 -0.783191 0.1795)
(0 -0.8416 0.179831)
(0 -0.909393 0.179872)
(0 -0.966041 0.180027)
(0 -1.03655 0.180843)
(0 -1.09031 0.180283)
(0 -1.16576 0.183104)
(0 -1.21422 0.18145)
(0 -1.2984 0.187074)
(0 -1.33913 0.186613)
(0 -1.43676 0.190944)
(0 -1.46422 0.199549)
(0 -1.58392 0.200748)
(0 1.58254 0.193424)
(0 1.4623 0.192036)
(0 1.43486 0.183742)
(0 1.33714 0.17932)
(0 1.29647 0.179963)
(0 1.21224 0.174334)
(0 1.16399 0.176087)
(0 1.0885 0.173248)
(0 1.03493 0.173852)
(0 0.96443 0.173035)
(0 0.907967 0.172896)
(0 0.840195 0.172852)
(0 0.781951 0.172528)
(0 0.7159 0.172713)
(0 0.65644 0.172406)
(0 0.591512 0.172604)
(0 0.531198 0.172378)
(0 0.467037 0.172533)
(0 0.406131 0.172385)
(0 0.342489 0.172492)
(0 0.281188 0.172401)
(0 0.217874 0.172464)
(0 0.156329 0.172416)
(0 0.0931966 0.172444)
(0 0.0315367 0.172429)
(0 -0.0315383 0.172429)
(0 -0.0931983 0.172444)
(0 -0.156331 0.172415)
(0 -0.217876 0.172464)
(0 -0.28119 0.172401)
(0 -0.342491 0.172492)
(0 -0.406133 0.172385)
(0 -0.467039 0.172534)
(0 -0.5312 0.172377)
(0 -0.591514 0.172605)
(0 -0.656444 0.172408)
(0 -0.715902 0.172716)
(0 -0.781954 0.17253)
(0 -0.8402 0.172854)
(0 -0.907968 0.172895)
(0 -0.964431 0.173033)
(0 -1.03494 0.173847)
(0 -1.0885 0.173243)
(0 -1.16399 0.176083)
(0 -1.21224 0.174328)
(0 -1.29647 0.179962)
(0 -1.33715 0.179318)
(0 -1.43484 0.183748)
(0 -1.4623 0.192008)
(0 -1.58254 0.193429)
(0 1.58071 0.186058)
(0 1.45996 0.184464)
(0 1.43253 0.176528)
(0 1.33478 0.172013)
(0 1.29418 0.172836)
(0 1.20991 0.167206)
(0 1.16189 0.169056)
(0 1.08638 0.1662)
(0 1.03304 0.166847)
(0 0.962548 0.166032)
(0 0.906296 0.165911)
(0 0.838559 0.165868)
(0 0.780502 0.165551)
(0 0.71451 0.165735)
(0 0.655218 0.165433)
(0 0.590367 0.16563)
(0 0.530205 0.165407)
(0 0.466135 0.16556)
(0 0.40537 0.165415)
(0 0.341828 0.165521)
(0 0.280661 0.165432)
(0 0.217453 0.165494)
(0 0.156038 0.165447)
(0 0.0930139 0.165474)
(0 0.0314818 0.165459)
(0 -0.0314836 0.165459)
(0 -0.0930157 0.165474)
(0 -0.15604 0.165445)
(0 -0.217455 0.165493)
(0 -0.280663 0.165432)
(0 -0.34183 0.165521)
(0 -0.405372 0.165416)
(0 -0.466137 0.165561)
(0 -0.530208 0.165406)
(0 -0.590369 0.16563)
(0 -0.655222 0.165435)
(0 -0.714512 0.165738)
(0 -0.780506 0.165552)
(0 -0.838564 0.16587)
(0 -0.906298 0.16591)
(0 -0.96255 0.16603)
(0 -1.03305 0.166843)
(0 -1.08638 0.166195)
(0 -1.1619 0.169052)
(0 -1.20991 0.1672)
(0 -1.29418 0.172835)
(0 -1.33478 0.172011)
(0 -1.43252 0.176535)
(0 -1.45996 0.184435)
(0 -1.58071 0.186064)
(0 1.57843 0.178648)
(0 1.45719 0.17686)
(0 1.42978 0.169296)
(0 1.33203 0.164696)
(0 1.29152 0.165692)
(0 1.20723 0.160071)
(0 1.15948 0.162013)
(0 1.08395 0.159144)
(0 1.03087 0.159833)
(0 0.960391 0.159021)
(0 0.904375 0.158917)
(0 0.836685 0.158876)
(0 0.778838 0.158564)
(0 0.712918 0.158747)
(0 0.653815 0.158451)
(0 0.589055 0.158645)
(0 0.529066 0.158427)
(0 0.465101 0.158578)
(0 0.404497 0.158437)
(0 0.341071 0.15854)
(0 0.280057 0.158454)
(0 0.21697 0.158514)
(0 0.155703 0.158468)
(0 0.0928048 0.158495)
(0 0.0314184 0.15848)
(0 -0.0314205 0.15848)
(0 -0.0928068 0.158495)
(0 -0.155706 0.158467)
(0 -0.216973 0.158514)
(0 -0.280059 0.158453)
(0 -0.341073 0.15854)
(0 -0.404499 0.158437)
(0 -0.465103 0.158579)
(0 -0.529068 0.158427)
(0 -0.589058 0.158645)
(0 -0.653819 0.158453)
(0 -0.71292 0.15875)
(0 -0.778842 0.158565)
(0 -0.83669 0.158878)
(0 -0.904377 0.158916)
(0 -0.960393 0.159019)
(0 -1.03087 0.159828)
(0 -1.08395 0.159139)
(0 -1.15948 0.162009)
(0 -1.20723 0.160065)
(0 -1.29152 0.165691)
(0 -1.33203 0.164694)
(0 -1.42977 0.169303)
(0 -1.45719 0.176831)
(0 -1.57842 0.178654)
(0 1.57567 0.171189)
(0 1.45399 0.169219)
(0 1.42661 0.16204)
(0 1.32889 0.157363)
(0 1.28849 0.158525)
(0 1.2042 0.152926)
(0 1.15674 0.154956)
(0 1.0812 0.152077)
(0 1.02841 0.152806)
(0 0.957955 0.151998)
(0 0.902203 0.151912)
(0 0.834569 0.151875)
(0 0.776957 0.151566)
(0 0.711121 0.151748)
(0 0.652229 0.151458)
(0 0.587574 0.15165)
(0 0.527778 0.151437)
(0 0.463935 0.151585)
(0 0.40351 0.151447)
(0 0.340216 0.151549)
(0 0.279374 0.151465)
(0 0.216426 0.151523)
(0 0.155325 0.151479)
(0 0.092569 0.151505)
(0 0.0313466 0.151491)
(0 -0.0313488 0.15149)
(0 -0.0925712 0.151504)
(0 -0.155328 0.151477)
(0 -0.216429 0.151523)
(0 -0.279376 0.151464)
(0 -0.340219 0.151549)
(0 -0.403513 0.151447)
(0 -0.463937 0.151586)
(0 -0.527781 0.151436)
(0 -0.587577 0.15165)
(0 -0.652233 0.15146)
(0 -0.711124 0.151751)
(0 -0.776961 0.151568)
(0 -0.834574 0.151877)
(0 -0.902206 0.151911)
(0 -0.957957 0.151996)
(0 -1.02841 0.152802)
(0 -1.0812 0.152072)
(0 -1.15674 0.154952)
(0 -1.2042 0.15292)
(0 -1.2885 0.158524)
(0 -1.32889 0.157361)
(0 -1.4266 0.162046)
(0 -1.45399 0.169191)
(0 -1.57567 0.171194)
(0 1.57245 0.163681)
(0 1.45035 0.161542)
(0 1.42302 0.154758)
(0 1.32536 0.150013)
(0 1.28509 0.151334)
(0 1.20081 0.14577)
(0 1.15367 0.147882)
(0 1.07813 0.144998)
(0 1.02566 0.145766)
(0 0.955237 0.144963)
(0 0.899777 0.144895)
(0 0.832209 0.144863)
(0 0.774858 0.144556)
(0 0.709117 0.144736)
(0 0.650459 0.144453)
(0 0.585924 0.144641)
(0 0.526341 0.144434)
(0 0.462634 0.144579)
(0 0.402409 0.144445)
(0 0.339264 0.144544)
(0 0.278611 0.144463)
(0 0.215819 0.14452)
(0 0.154903 0.144477)
(0 0.0923063 0.144502)
(0 0.0312663 0.144488)
(0 -0.0312687 0.144488)
(0 -0.0923086 0.144502)
(0 -0.154906 0.144475)
(0 -0.215822 0.144519)
(0 -0.278614 0.144462)
(0 -0.339266 0.144544)
(0 -0.402412 0.144445)
(0 -0.462636 0.14458)
(0 -0.526343 0.144433)
(0 -0.585927 0.144642)
(0 -0.650463 0.144455)
(0 -0.70912 0.144739)
(0 -0.774862 0.144558)
(0 -0.832215 0.144866)
(0 -0.89978 0.144894)
(0 -0.955239 0.144961)
(0 -1.02566 0.145761)
(0 -1.07814 0.144993)
(0 -1.15367 0.147878)
(0 -1.20081 0.145765)
(0 -1.28509 0.151333)
(0 -1.32536 0.150012)
(0 -1.423 0.154764)
(0 -1.45035 0.161516)
(0 -1.57244 0.163684)
(0 1.56874 0.15613)
(0 1.44627 0.153834)
(0 1.41899 0.147459)
(0 1.32144 0.142654)
(0 1.28131 0.144123)
(0 1.19706 0.138608)
(0 1.15027 0.140794)
(0 1.07474 0.13791)
(0 1.02262 0.138714)
(0 0.952233 0.137918)
(0 0.897096 0.137868)
(0 0.829603 0.137846)
(0 0.772538 0.137537)
(0 0.706904 0.137714)
(0 0.648503 0.137438)
(0 0.584101 0.137623)
(0 0.524753 0.137421)
(0 0.461198 0.137563)
(0 0.401192 0.137433)
(0 0.338212 0.13753)
(0 0.277769 0.137451)
(0 0.215149 0.137506)
(0 0.154437 0.137465)
(0 0.0920164 0.137489)
(0 0.0311773 0.137476)
(0 -0.0311799 0.137476)
(0 -0.0920189 0.137489)
(0 -0.15444 0.137463)
(0 -0.215152 0.137506)
(0 -0.277772 0.13745)
(0 -0.338214 0.13753)
(0 -0.401195 0.137433)
(0 -0.461201 0.137563)
(0 -0.524756 0.13742)
(0 -0.584104 0.137623)
(0 -0.648507 0.13744)
(0 -0.706907 0.137716)
(0 -0.772542 0.137538)
(0 -0.829609 0.137849)
(0 -0.8971 0.137867)
(0 -0.952236 0.137916)
(0 -1.02262 0.13871)
(0 -1.07475 0.137905)
(0 -1.15027 0.140791)
(0 -1.19706 0.138602)
(0 -1.28131 0.144121)
(0 -1.32144 0.142653)
(0 -1.41897 0.147464)
(0 -1.44627 0.153812)
(0 -1.56874 0.156131)
(0 1.56456 0.148544)
(0 1.44174 0.146106)
(0 1.41452 0.140152)
(0 1.31711 0.135296)
(0 1.27714 0.136902)
(0 1.19295 0.131451)
(0 1.14654 0.133705)
(0 1.07103 0.130825)
(0 1.01929 0.131664)
(0 0.948943 0.130875)
(0 0.894158 0.130843)
(0 0.826749 0.130835)
(0 0.769997 0.13052)
(0 0.704481 0.130693)
(0 0.64636 0.130426)
(0 0.582105 0.130606)
(0 0.523014 0.13041)
(0 0.459626 0.130549)
(0 0.39986 0.130423)
(0 0.33706 0.130518)
(0 0.276847 0.130441)
(0 0.214415 0.130495)
(0 0.153926 0.130455)
(0 0.091699 0.130478)
(0 0.0310797 0.130465)
(0 -0.0310825 0.130465)
(0 -0.0917018 0.130478)
(0 -0.15393 0.130453)
(0 -0.214419 0.130494)
(0 -0.276849 0.130441)
(0 -0.337063 0.130517)
(0 -0.399863 0.130424)
(0 -0.459629 0.130549)
(0 -0.523017 0.13041)
(0 -0.582109 0.130606)
(0 -0.646365 0.130427)
(0 -0.704484 0.130696)
(0 -0.770002 0.130522)
(0 -0.826755 0.130838)
(0 -0.894162 0.130843)
(0 -0.948947 0.130874)
(0 -1.01929 0.131659)
(0 -1.07103 0.130821)
(0 -1.14654 0.133702)
(0 -1.19295 0.131446)
(0 -1.27714 0.136901)
(0 -1.31712 0.135296)
(0 -1.4145 0.140156)
(0 -1.44174 0.146088)
(0 -1.56455 0.148541)
(0 1.55988 0.140927)
(0 1.43676 0.138363)
(0 1.40961 0.132843)
(0 1.31239 0.127946)
(0 1.2726 0.129678)
(0 1.18848 0.124306)
(0 1.14247 0.12662)
(0 1.06699 0.12375)
(0 1.01566 0.12462)
(0 0.945365 0.123841)
(0 0.890963 0.123826)
(0 0.823645 0.123836)
(0 0.767236 0.123512)
(0 0.701846 0.12368)
(0 0.644031 0.123421)
(0 0.579936 0.123597)
(0 0.521123 0.123408)
(0 0.457917 0.123542)
(0 0.398412 0.123422)
(0 0.335808 0.123513)
(0 0.275844 0.12344)
(0 0.213618 0.123491)
(0 0.153371 0.123453)
(0 0.0913542 0.123476)
(0 0.0309735 0.123463)
(0 -0.0309765 0.123463)
(0 -0.0913572 0.123475)
(0 -0.153374 0.123452)
(0 -0.213622 0.123491)
(0 -0.275847 0.123439)
(0 -0.335811 0.123513)
(0 -0.398415 0.123422)
(0 -0.45792 0.123543)
(0 -0.521126 0.123407)
(0 -0.57994 0.123597)
(0 -0.644036 0.123423)
(0 -0.70185 0.123683)
(0 -0.767241 0.123513)
(0 -0.823652 0.123839)
(0 -0.890968 0.123826)
(0 -0.945368 0.123839)
(0 -1.01567 0.124616)
(0 -1.06699 0.123746)
(0 -1.14247 0.126617)
(0 -1.18848 0.124301)
(0 -1.2726 0.129677)
(0 -1.31239 0.127947)
(0 -1.40959 0.132846)
(0 -1.43676 0.13835)
(0 -1.55987 0.14092)
(0 1.55471 0.133281)
(0 1.43134 0.130607)
(0 1.40426 0.125532)
(0 1.30726 0.120607)
(0 1.26767 0.12245)
(0 1.18365 0.117173)
(0 1.13807 0.119539)
(0 1.06262 0.116685)
(0 1.01174 0.117583)
(0 0.941496 0.116814)
(0 0.887512 0.116816)
(0 0.820291 0.116845)
(0 0.764253 0.116513)
(0 0.699 0.116675)
(0 0.641515 0.116426)
(0 0.577593 0.116596)
(0 0.519081 0.116414)
(0 0.456071 0.116544)
(0 0.396847 0.116429)
(0 0.334456 0.116517)
(0 0.27476 0.116447)
(0 0.212757 0.116496)
(0 0.152771 0.116459)
(0 0.0909819 0.116481)
(0 0.0308587 0.116469)
(0 -0.0308619 0.116469)
(0 -0.090985 0.11648)
(0 -0.152775 0.116458)
(0 -0.212761 0.116495)
(0 -0.274763 0.116446)
(0 -0.334459 0.116516)
(0 -0.39685 0.116429)
(0 -0.456074 0.116544)
(0 -0.519084 0.116414)
(0 -0.577596 0.116596)
(0 -0.64152 0.116427)
(0 -0.699005 0.116677)
(0 -0.764259 0.116514)
(0 -0.820298 0.116848)
(0 -0.887516 0.116816)
(0 -0.941501 0.116813)
(0 -1.01175 0.117579)
(0 -1.06262 0.11668)
(0 -1.13807 0.119535)
(0 -1.18365 0.117168)
(0 -1.26767 0.122449)
(0 -1.30727 0.120607)
(0 -1.40424 0.125535)
(0 -1.43134 0.130602)
(0 -1.5547 0.133269)
(0 1.54904 0.125612)
(0 1.42546 0.122846)
(0 1.39846 0.118222)
(0 1.30174 0.113279)
(0 1.26235 0.115221)
(0 1.17846 0.110054)
(0 1.13333 0.11246)
(0 1.05792 0.109629)
(0 1.00753 0.110553)
(0 0.937339 0.109795)
(0 0.883804 0.109813)
(0 0.816687 0.109855)
(0 0.761051 0.109527)
(0 0.695943 0.109682)
(0 0.638813 0.109442)
(0 0.575075 0.109607)
(0 0.516887 0.109433)
(0 0.454088 0.109557)
(0 0.395166 0.109448)
(0 0.333004 0.109532)
(0 0.273596 0.109465)
(0 0.211832 0.109512)
(0 0.152127 0.109478)
(0 0.090582 0.109498)
(0 0.0307353 0.109487)
(0 -0.0307388 0.109487)
(0 -0.0905854 0.109498)
(0 -0.15213 0.109476)
(0 -0.211836 0.109512)
(0 -0.2736 0.109465)
(0 -0.333007 0.109532)
(0 -0.39517 0.109448)
(0 -0.454091 0.109558)
(0 -0.51689 0.109432)
(0 -0.575079 0.109607)
(0 -0.638818 0.109444)
(0 -0.695947 0.109684)
(0 -0.761057 0.109528)
(0 -0.816695 0.109858)
(0 -0.88381 0.109813)
(0 -0.937344 0.109793)
(0 -1.00754 0.110549)
(0 -1.05792 0.109625)
(0 -1.13334 0.112457)
(0 -1.17846 0.110049)
(0 -1.26236 0.11522)
(0 -1.30174 0.113281)
(0 -1.39844 0.118223)
(0 -1.42546 0.12285)
(0 -1.54904 0.125592)
(0 1.54288 0.117924)
(0 1.41913 0.115088)
(0 1.39222 0.110918)
(0 1.29581 0.105971)
(0 1.25666 0.108002)
(0 1.17291 0.102957)
(0 1.12826 0.105389)
(0 1.0529 0.10259)
(0 1.00304 0.103534)
(0 0.932893 0.102788)
(0 0.879844 0.102822)
(0 0.812834 0.102866)
(0 0.75763 0.102557)
(0 0.692675 0.102705)
(0 0.635927 0.102478)
(0 0.572385 0.102636)
(0 0.514544 0.10247)
(0 0.451969 0.102589)
(0 0.393371 0.102485)
(0 0.331452 0.102565)
(0 0.272353 0.102502)
(0 0.210844 0.102547)
(0 0.151438 0.102514)
(0 0.0901547 0.102533)
(0 0.0306035 0.102523)
(0 -0.0306072 0.102523)
(0 -0.0901583 0.102533)
(0 -0.151442 0.102513)
(0 -0.210848 0.102546)
(0 -0.272357 0.102502)
(0 -0.331456 0.102565)
(0 -0.393375 0.102485)
(0 -0.451973 0.102589)
(0 -0.514547 0.102469)
(0 -0.572389 0.102636)
(0 -0.635932 0.102479)
(0 -0.69268 0.102708)
(0 -0.757636 0.102558)
(0 -0.812842 0.102869)
(0 -0.879849 0.102822)
(0 -0.932898 0.102786)
(0 -1.00304 0.10353)
(0 -1.0529 0.102586)
(0 -1.12827 0.105386)
(0 -1.17291 0.102951)
(0 -1.25666 0.108001)
(0 -1.29582 0.105973)
(0 -1.3922 0.110918)
(0 -1.41913 0.115106)
(0 -1.54287 0.117894)
(0 1.53622 0.110224)
(0 1.41236 0.107344)
(0 1.38553 0.103628)
(0 1.28949 0.0986945)
(0 1.25059 0.100801)
(0 1.16701 0.0958946)
(0 1.12287 0.0983395)
(0 1.04755 0.0955799)
(0 0.998255 0.0965411)
(0 0.928161 0.0958081)
(0 0.875634 0.0958567)
(0 0.808734 0.0958907)
(0 0.753994 0.0956096)
(0 0.689198 0.0957527)
(0 0.632858 0.0955371)
(0 0.569524 0.095688)
(0 0.512052 0.0955308)
(0 0.449716 0.0956439)
(0 0.391462 0.0955457)
(0 0.329802 0.0956221)
(0 0.271031 0.0955631)
(0 0.209793 0.0956049)
(0 0.150706 0.0955743)
(0 0.0897003 0.0955923)
(0 0.0304634 0.0955826)
(0 -0.0304673 0.0955825)
(0 -0.0897042 0.0955919)
(0 -0.15071 0.0955731)
(0 -0.209797 0.0956046)
(0 -0.271035 0.0955628)
(0 -0.329805 0.0956219)
(0 -0.391466 0.095546)
(0 -0.44972 0.0956445)
(0 -0.512056 0.0955303)
(0 -0.569528 0.0956878)
(0 -0.632863 0.0955388)
(0 -0.689203 0.0957548)
(0 -0.754 0.0956105)
(0 -0.808741 0.0958928)
(0 -0.87564 0.0958564)
(0 -0.928167 0.0958064)
(0 -0.99826 0.0965372)
(0 -1.04755 0.0955762)
(0 -1.12287 0.0983368)
(0 -1.167 0.0958895)
(0 -1.25059 0.1008)
(0 -1.28949 0.0986964)
(0 -1.38552 0.103628)
(0 -1.41236 0.107377)
(0 -1.53621 0.110181)
(0 1.52906 0.102507)
(0 1.40516 0.0996155)
(0 1.37841 0.0963522)
(0 1.28278 0.0914583)
(0 1.24414 0.0936191)
(0 1.16076 0.0888739)
(0 1.11715 0.0913179)
(0 1.04188 0.088606)
(0 0.993195 0.0895806)
(0 0.923147 0.0888614)
(0 0.871181 0.0889242)
(0 0.80439 0.0889396)
(0 0.750145 0.0886919)
(0 0.685516 0.0888285)
(0 0.629611 0.0886263)
(0 0.566493 0.088769)
(0 0.509416 0.0886215)
(0 0.44733 0.088728)
(0 0.389442 0.0886362)
(0 0.328055 0.0887081)
(0 0.269632 0.0886531)
(0 0.208681 0.0886921)
(0 0.149931 0.0886637)
(0 0.0892192 0.0886805)
(0 0.0303152 0.0886714)
(0 -0.0303194 0.0886714)
(0 -0.0892233 0.08868)
(0 -0.149935 0.0886627)
(0 -0.208685 0.0886918)
(0 -0.269636 0.0886529)
(0 -0.328058 0.0887078)
(0 -0.389446 0.0886365)
(0 -0.447334 0.0887287)
(0 -0.50942 0.088621)
(0 -0.566498 0.0887688)
(0 -0.629616 0.0886279)
(0 -0.685521 0.0888305)
(0 -0.750152 0.0886927)
(0 -0.804398 0.0889417)
(0 -0.871188 0.088924)
(0 -0.923154 0.0888597)
(0 -0.993201 0.0895768)
(0 -1.04189 0.0886025)
(0 -1.11715 0.0913154)
(0 -1.16076 0.0888689)
(0 -1.24414 0.0936178)
(0 -1.28278 0.0914605)
(0 -1.3784 0.09635)
(0 -1.40515 0.0996615)
(0 -1.52905 0.102455)
(0 1.52141 0.0947762)
(0 1.39752 0.0919018)
(0 1.37086 0.0890841)
(0 1.27569 0.0842653)
(0 1.23732 0.0864605)
(0 1.15418 0.0818981)
(0 1.11112 0.0843323)
(0 1.03591 0.0816745)
(0 0.987865 0.0826536)
(0 0.917859 0.0819496)
(0 0.866493 0.0820252)
(0 0.799808 0.0820196)
(0 0.746091 0.0818078)
(0 0.681633 0.0819359)
(0 0.62619 0.0817479)
(0 0.563299 0.0818813)
(0 0.506638 0.0817442)
(0 0.444815 0.0818435)
(0 0.387313 0.0817583)
(0 0.326213 0.0818252)
(0 0.268158 0.0817746)
(0 0.207508 0.0818105)
(0 0.149115 0.0817845)
(0 0.0887121 0.0817998)
(0 0.0301591 0.0817915)
(0 -0.0301635 0.0817915)
(0 -0.0887164 0.0817994)
(0 -0.149119 0.0817835)
(0 -0.207512 0.0818102)
(0 -0.268162 0.0817744)