/*--------------------------------*- C++ -*----------------------------------*\
| =========                 |                                                 |
| \\      /  F ield         | OpenFOAM: The Open Source CFD Toolbox           |
|  \\    /   O peration     | Version:  dev                                   |
|   \\  /    A nd           | Web:      www.OpenFOAM.org                      |
|    \\/     M anipulation  |                                                 |
\*---------------------------------------------------------------------------*/
FoamFile
{
    version     2.0;
    format      ascii;
    class       volScalarField;
    location    "0.005";
    object      CH2(S);
}
// * * * * * * * * * * * * * * * * * * * * * * * * * * * * * * * * * * * * * //

dimensions      [0 0 0 0 0 0 0];

internalField   nonuniform List<scalar> 
25
(
8.16827e-16
5.66848e-16
4.07999e-16
3.05469e-16
2.36092e-16
1.90243e-16
1.56634e-16
1.30619e-16
1.09046e-16
9.11398e-17
7.55718e-17
6.19139e-17
4.99191e-17
3.9438e-17
3.04241e-17
2.27415e-17
1.64799e-17
1.15008e-17
7.61415e-18
4.94487e-18
2.93895e-18
1.62957e-18
7.56236e-19
2.88633e-19
8.74744e-20
)
;

boundaryField
{
    wall
    {
        type            zeroGradient;
    }
    fuel
    {
        type            fixedValue;
        value           nonuniform 0();
    }
    outlet
    {
        type            inletOutlet;
        inletValue      uniform 0;
        value           uniform 8.74744e-20;
    }
    procBoundary3to2
    {
        type            processor;
        value           uniform 1.20756e-15;
    }
}


// ************************************************************************* //
