/*--------------------------------*- C++ -*----------------------------------*\
| =========                 |                                                 |
| \\      /  F ield         | OpenFOAM: The Open Source CFD Toolbox           |
|  \\    /   O peration     | Version:  dev                                   |
|   \\  /    A nd           | Web:      www.OpenFOAM.org                      |
|    \\/     M anipulation  |                                                 |
\*---------------------------------------------------------------------------*/
FoamFile
{
    version     2.0;
    format      ascii;
    class       volScalarField;
    location    "0.17";
    object      A1C2H-;
}
// * * * * * * * * * * * * * * * * * * * * * * * * * * * * * * * * * * * * * //

dimensions      [0 0 0 0 0 0 0];

internalField   nonuniform List<scalar> 
50
(
2.64547e-16
2.30993e-16
2.01659e-16
1.76065e-16
1.53753e-16
1.34302e-16
1.17341e-16
1.02543e-16
8.96253e-17
7.83443e-17
6.84896e-17
5.98791e-17
5.23553e-17
4.5781e-17
4.00367e-17
3.5018e-17
3.06336e-17
2.68035e-17
2.34578e-17
2.05351e-17
1.79819e-17
1.57511e-17
1.38019e-17
1.20982e-17
1.06089e-17
9.30664e-18
8.16756e-18
7.17092e-18
6.29859e-18
5.53479e-18
4.86576e-18
4.2795e-18
3.76556e-18
3.31482e-18
2.91935e-18
2.57221e-18
2.26737e-18
1.99958e-18
1.76424e-18
1.55739e-18
1.37556e-18
1.21567e-18
1.07516e-18
9.51158e-19
8.4157e-19
7.44954e-19
6.59761e-19
5.84661e-19
5.18484e-19
4.60166e-19
)
;

boundaryField
{
    wall
    {
        type            zeroGradient;
    }
    fuel
    {
        type            fixedValue;
        value           nonuniform 0();
    }
    outlet
    {
        type            inletOutlet;
        inletValue      nonuniform 0();
        value           nonuniform 0();
    }
    procBoundary1to0
    {
        type            processor;
        value           uniform 3.01935e-16;
    }
    procBoundary1to2
    {
        type            processor;
        value           uniform 4.08399e-19;
    }
}


// ************************************************************************* //
