/*--------------------------------*- C++ -*----------------------------------*\
| =========                 |                                                 |
| \\      /  F ield         | OpenFOAM: The Open Source CFD Toolbox           |
|  \\    /   O peration     | Version:  dev                                   |
|   \\  /    A nd           | Web:      www.OpenFOAM.org                      |
|    \\/     M anipulation  |                                                 |
\*---------------------------------------------------------------------------*/
FoamFile
{
    version     2.0;
    format      ascii;
    class       volScalarField;
    location    "0.17";
    object      A2C2HB*;
}
// * * * * * * * * * * * * * * * * * * * * * * * * * * * * * * * * * * * * * //

dimensions      [0 0 0 0 0 0 0];

internalField   nonuniform List<scalar> 
50
(
1.71586e-18
1.4402e-18
1.2094e-18
1.01637e-18
8.54964e-19
7.19912e-19
6.06794e-19
5.11929e-19
4.32271e-19
3.65303e-19
3.08944e-19
2.61471e-19
2.21455e-19
1.87703e-19
1.59219e-19
1.35168e-19
1.14851e-19
9.76791e-20
8.31565e-20
7.08669e-20
6.04595e-20
5.16392e-20
4.41575e-20
3.78054e-20
3.24072e-20
2.78149e-20
2.39039e-20
2.05696e-20
1.77236e-20
1.52916e-20
1.32109e-20
1.14286e-20
9.90006e-21
8.5875e-21
7.45901e-21
6.48758e-21
5.65031e-21
4.9278e-21
4.30362e-21
3.76382e-21
3.29659e-21
2.8917e-21
2.54079e-21
2.23514e-21
1.96831e-21
1.73573e-21
1.53281e-21
1.35565e-21
1.20091e-21
1.06565e-21
)
;

boundaryField
{
    wall
    {
        type            zeroGradient;
    }
    fuel
    {
        type            fixedValue;
        value           nonuniform 0();
    }
    outlet
    {
        type            inletOutlet;
        inletValue      nonuniform 0();
        value           nonuniform 0();
    }
    procBoundary1to0
    {
        type            processor;
        value           uniform 2.03647e-18;
    }
    procBoundary1to2
    {
        type            processor;
        value           uniform 9.45963e-22;
    }
}


// ************************************************************************* //
