/*--------------------------------*- C++ -*----------------------------------*\
| =========                 |                                                 |
| \\      /  F ield         | OpenFOAM: The Open Source CFD Toolbox           |
|  \\    /   O peration     | Version:  dev                                   |
|   \\  /    A nd           | Web:      www.OpenFOAM.org                      |
|    \\/     M anipulation  |                                                 |
\*---------------------------------------------------------------------------*/
FoamFile
{
    version     2.0;
    format      ascii;
    class       volScalarField;
    location    "0.17";
    object      A2C2HB;
}
// * * * * * * * * * * * * * * * * * * * * * * * * * * * * * * * * * * * * * //

dimensions      [0 0 0 0 0 0 0];

internalField   nonuniform List<scalar> 
250
(
3.45768e-09
1.35375e-09
8.71303e-10
7.76025e-10
7.56707e-10
7.58757e-10
7.52967e-10
7.6029e-10
7.54445e-10
7.6011e-10
3.1743e-09
1.32366e-09
8.88375e-10
8.03667e-10
7.85587e-10
7.86741e-10
7.82001e-10
7.87776e-10
7.83115e-10
7.87663e-10
7.86149e-10
7.84472e-10
7.85859e-10
7.84495e-10
7.85052e-10
7.89463e-10
8.01297e-10
8.62636e-10
1.0724e-09
1.50426e-09
2.87289e-09
1.28106e-09
8.96104e-10
8.22023e-10
8.05363e-10
8.05721e-10
8.01985e-10
8.06323e-10
8.02786e-10
8.06283e-10
8.05139e-10
8.03636e-10
8.04776e-10
8.03732e-10
8.04294e-10
8.08295e-10
8.19759e-10
8.737e-10
1.05314e-09
1.41766e-09
2.56751e-09
1.22915e-09
8.96286e-10
8.32544e-10
8.17487e-10
8.17267e-10
8.14377e-10
8.17544e-10
8.14952e-10
8.17577e-10
8.1674e-10
8.15384e-10
8.16309e-10
8.15514e-10
8.16055e-10
8.19601e-10
8.30464e-10
8.7762e-10
1.03158e-09
1.34241e-09
2.2713e-09
1.17212e-09
8.9132e-10
8.37403e-10
8.24117e-10
8.23465e-10
8.21341e-10
8.23529e-10
8.21663e-10
8.23629e-10
8.23024e-10
8.21784e-10
8.2253e-10
8.21913e-10
8.22414e-10
8.25583e-10
8.35568e-10
8.7647e-10
1.00873e-09
1.27619e-09
1.98861e-09
1.11422e-09
8.83536e-10
8.38631e-10
8.27133e-10
8.26311e-10
8.24693e-10
8.26257e-10
8.24914e-10
8.26414e-10
8.25972e-10
8.24825e-10
8.25425e-10
8.24928e-10
8.25375e-10
8.28092e-10
8.37067e-10
8.72318e-10
9.85877e-10
1.2164e-09
1.73999e-09
1.05907e-09
8.74778e-10
8.37984e-10
8.28241e-10
8.27361e-10
8.26128e-10
8.27253e-10
8.26281e-10
8.27459e-10
8.27128e-10
8.26058e-10
8.26539e-10
8.26123e-10
8.26511e-10
8.28805e-10
8.36689e-10
8.66805e-10
9.6406e-10
1.1643e-09
1.52472e-09
1.00926e-09
8.66256e-10
8.36589e-10
8.28495e-10
8.27621e-10
8.26684e-10
8.27494e-10
8.2679e-10
8.27742e-10
8.27487e-10
8.26485e-10
8.26868e-10
8.26509e-10
8.26838e-10
8.28748e-10
8.35539e-10
8.6101e-10
9.43908e-10
1.11794e-09
1.34475e-09
9.66298e-10
8.58616e-10
8.35056e-10
8.28455e-10
8.27611e-10
8.26912e-10
8.27485e-10
8.26983e-10
8.2777e-10
8.27567e-10
8.26632e-10
8.26929e-10
8.26615e-10
8.26889e-10
8.28458e-10
8.3421e-10
8.55508e-10
9.25683e-10
1.07656e-09
1.1999e-09
9.30833e-10
8.52118e-10
8.33641e-10
8.28343e-10
8.27539e-10
8.27031e-10
8.27424e-10
8.27077e-10
8.2774e-10
8.27572e-10
8.26702e-10
8.26926e-10
8.26649e-10
8.26876e-10
8.28147e-10
8.32954e-10
8.50552e-10
9.09465e-10
1.03967e-09
1.08863e-09
9.02975e-10
8.46838e-10
8.32428e-10
8.28219e-10
8.2746e-10
8.27103e-10
8.27359e-10
8.27131e-10
8.27702e-10
8.27558e-10
8.26748e-10
8.2691e-10
8.26666e-10
8.26852e-10
8.27874e-10
8.31856e-10
8.46269e-10
8.954e-10
1.00739e-09
1.00932e-09
8.82701e-10
8.42843e-10
8.31466e-10
8.28099e-10
8.27387e-10
8.2714e-10
8.27302e-10
8.27157e-10
8.27667e-10
8.27534e-10
8.26777e-10
8.26891e-10
8.26673e-10
8.26827e-10
8.27654e-10
8.30969e-10
8.42818e-10
8.83956e-10
9.80805e-10
9.62679e-10
8.70555e-10
8.40359e-10
8.30844e-10
8.28009e-10
8.27333e-10
8.27152e-10
8.27262e-10
8.27164e-10
8.27641e-10
8.27513e-10
8.26791e-10
8.26874e-10
8.26674e-10
8.26806e-10
8.27509e-10
8.30385e-10
8.4055e-10
8.76346e-10
9.62975e-10
)
;

boundaryField
{
    fuel
    {
        type            fixedValue;
        value           nonuniform 0();
    }
    wall
    {
        type            zeroGradient;
    }
    outlet
    {
        type            zeroGradient;
    }
    frontAndBack
    {
        type            empty;
    }
    procBoundary1to0
    {
        type            processor;
        value           nonuniform List<scalar> 
21
(
3.71265e-09
1.37035e-09
8.44457e-10
7.39027e-10
7.18562e-10
7.21407e-10
7.14687e-10
7.23416e-10
7.16512e-10
7.23175e-10
7.58203e-10
7.58203e-10
7.5634e-10
7.57988e-10
7.56255e-10
7.56786e-10
7.61552e-10
7.73621e-10
8.42992e-10
1.08923e-09
1.60596e-09
)
;
    }
}


// ************************************************************************* //
