/*--------------------------------*- C++ -*----------------------------------*\
| =========                 |                                                 |
| \\      /  F ield         | OpenFOAM: The Open Source CFD Toolbox           |
|  \\    /   O peration     | Version:  dev                                   |
|   \\  /    A nd           | Web:      www.OpenFOAM.org                      |
|    \\/     M anipulation  |                                                 |
\*---------------------------------------------------------------------------*/
FoamFile
{
    version     2.0;
    format      ascii;
    class       volScalarField;
    location    "0.17";
    object      A3;
}
// * * * * * * * * * * * * * * * * * * * * * * * * * * * * * * * * * * * * * //

dimensions      [0 0 0 0 0 0 0];

internalField   nonuniform List<scalar> 
250
(
2.98291e-08
1.35947e-08
8.30054e-09
7.09563e-09
6.80783e-09
6.74552e-09
6.72797e-09
6.73209e-09
6.72248e-09
6.72885e-09
2.64403e-08
1.27306e-08
8.15285e-09
7.0938e-09
6.83597e-09
6.77904e-09
6.76326e-09
6.76592e-09
6.75798e-09
6.76308e-09
6.76168e-09
6.75957e-09
6.76408e-09
6.76494e-09
6.77634e-09
6.83073e-09
7.04915e-09
7.85317e-09
1.05851e-08
1.45257e-08
2.32562e-08
1.18923e-08
8.0018e-09
7.08209e-09
6.85355e-09
6.80205e-09
6.78797e-09
6.78943e-09
6.78293e-09
6.78693e-09
6.78568e-09
6.78383e-09
6.7877e-09
6.78902e-09
6.79983e-09
6.84952e-09
7.04545e-09
7.74433e-09
1.00594e-08
1.35493e-08
2.03502e-08
1.11011e-08
7.85238e-09
7.06326e-09
6.86298e-09
6.8169e-09
6.80438e-09
6.80494e-09
6.79965e-09
6.80276e-09
6.8016e-09
6.79996e-09
6.80326e-09
6.80488e-09
6.81499e-09
6.85995e-09
7.03441e-09
7.63997e-09
9.60494e-09
1.26973e-08
1.77688e-08
1.03736e-08
7.70899e-09
7.03989e-09
6.86678e-09
6.82598e-09
6.81502e-09
6.8148e-09
6.81048e-09
6.8129e-09
6.81179e-09
6.81033e-09
6.81313e-09
6.8149e-09
6.82423e-09
6.86457e-09
7.01831e-09
7.54096e-09
9.20953e-09
1.19464e-08
1.54801e-08
9.72131e-09
7.57507e-09
7.01495e-09
6.86698e-09
6.83127e-09
6.8216e-09
6.82095e-09
6.8174e-09
6.81929e-09
6.81822e-09
6.81689e-09
6.81926e-09
6.82108e-09
6.82958e-09
6.86532e-09
6.99969e-09
7.44806e-09
8.86314e-09
1.12638e-08
1.3582e-08
9.15028e-09
7.45289e-09
6.99001e-09
6.86517e-09
6.83423e-09
6.82573e-09
6.8248e-09
6.82187e-09
6.82335e-09
6.8223e-09
6.82109e-09
6.82308e-09
6.82487e-09
6.83251e-09
6.86384e-09
6.98001e-09
7.36177e-09
8.55774e-09
1.06602e-08
1.20118e-08
8.66162e-09
7.34377e-09
6.96629e-09
6.86237e-09
6.83579e-09
6.82838e-09
6.82725e-09
6.82484e-09
6.82599e-09
6.82498e-09
6.82387e-09
6.82553e-09
6.82722e-09
6.83402e-09
6.86115e-09
6.96041e-09
7.28239e-09
8.28713e-09
1.01127e-08
1.07409e-08
8.25291e-09
7.24835e-09
6.94456e-09
6.85917e-09
6.83652e-09
6.83011e-09
6.82884e-09
6.82687e-09
6.82775e-09
6.82677e-09
6.82575e-09
6.82713e-09
6.82871e-09
6.83468e-09
6.85791e-09
6.94166e-09
7.21024e-09
8.04716e-09
9.61528e-09
9.73773e-09
7.91973e-09
7.16689e-09
6.92525e-09
6.85589e-09
6.8367e-09
6.83117e-09
6.82981e-09
6.8282e-09
6.82886e-09
6.82793e-09
6.827e-09
6.82813e-09
6.82957e-09
6.83478e-09
6.85446e-09
6.9243e-09
7.14578e-09
7.83598e-09
9.16705e-09
8.97222e-09
7.65753e-09
7.09975e-09
6.90871e-09
6.85271e-09
6.83643e-09
6.83168e-09
6.83027e-09
6.82895e-09
6.82944e-09
6.82855e-09
6.8277e-09
6.82863e-09
6.82994e-09
6.83447e-09
6.85104e-09
6.90885e-09
7.09e-09
7.65467e-09
8.77377e-09
8.42383e-09
7.46421e-09
7.04801e-09
6.89546e-09
6.84981e-09
6.83584e-09
6.83171e-09
6.83027e-09
6.82918e-09
6.82954e-09
6.82869e-09
6.8279e-09
6.82868e-09
6.82988e-09
6.83384e-09
6.8479e-09
6.89603e-09
7.04495e-09
7.50873e-09
8.45143e-09
8.09735e-09
7.34625e-09
7.01531e-09
6.8868e-09
6.84771e-09
6.83524e-09
6.8315e-09
6.83007e-09
6.8291e-09
6.8294e-09
6.82858e-09
6.82783e-09
6.82851e-09
6.82963e-09
6.83322e-09
6.84563e-09
6.88743e-09
7.01532e-09
7.41274e-09
8.23681e-09
)
;

boundaryField
{
    fuel
    {
        type            fixedValue;
        value           nonuniform 0();
    }
    wall
    {
        type            zeroGradient;
    }
    outlet
    {
        type            zeroGradient;
    }
    frontAndBack
    {
        type            empty;
    }
    procBoundary1to0
    {
        type            processor;
        value           nonuniform List<scalar> 
21
(
3.33456e-08
1.44639e-08
8.44033e-09
7.08558e-09
6.76743e-09
6.69976e-09
6.6805e-09
6.68616e-09
6.6748e-09
6.68249e-09
6.72727e-09
6.72727e-09
6.72485e-09
6.73007e-09
6.73029e-09
6.74216e-09
6.80116e-09
7.04313e-09
7.96576e-09
1.11963e-08
1.56524e-08
)
;
    }
}


// ************************************************************************* //
