/*--------------------------------*- C++ -*----------------------------------*\
| =========                 |                                                 |
| \\      /  F ield         | OpenFOAM: The Open Source CFD Toolbox           |
|  \\    /   O peration     | Version:  dev                                   |
|   \\  /    A nd           | Web:      www.OpenFOAM.org                      |
|    \\/     M anipulation  |                                                 |
\*---------------------------------------------------------------------------*/
FoamFile
{
    version     2.0;
    format      ascii;
    class       volScalarField;
    location    "0.17";
    object      H2O;
}
// * * * * * * * * * * * * * * * * * * * * * * * * * * * * * * * * * * * * * //

dimensions      [0 0 0 0 0 0 0];

internalField   nonuniform List<scalar> 
250
(
0.0586163
0.0583683
0.0581262
0.0580291
0.0579894
0.0579616
0.0579692
0.0579527
0.0579615
0.0579508
0.0584891
0.0582617
0.058051
0.0579646
0.0579302
0.0579064
0.0579122
0.0578985
0.0579056
0.0578967
0.0578996
0.0579021
0.0579014
0.0579057
0.0579092
0.0579202
0.0579653
0.0580386
0.0582073
0.0583844
0.0583762
0.0581704
0.0579896
0.0579134
0.0578838
0.0578637
0.057868
0.0578568
0.0578623
0.0578551
0.0578572
0.0578595
0.057859
0.0578628
0.0578661
0.0578761
0.0579151
0.0579797
0.0581277
0.0582891
0.0582777
0.0580941
0.0579411
0.0578745
0.0578493
0.0578325
0.0578354
0.0578265
0.0578306
0.0578249
0.0578264
0.0578284
0.057828
0.0578313
0.0578344
0.0578436
0.0578769
0.0579334
0.0580619
0.0582074
0.0581934
0.0580318
0.0579041
0.0578461
0.0578248
0.0578112
0.0578126
0.057806
0.0578088
0.0578045
0.0578053
0.0578072
0.0578069
0.0578098
0.0578126
0.0578206
0.0578489
0.0578982
0.0580088
0.0581385
0.0581204
0.057982
0.0578766
0.057827
0.057809
0.0577978
0.0577984
0.0577934
0.0577951
0.0577918
0.0577922
0.0577939
0.0577938
0.0577963
0.0577988
0.057806
0.0578297
0.0578722
0.0579666
0.0580797
0.0580604
0.0579426
0.0578566
0.0578145
0.0577994
0.0577903
0.0577902
0.0577864
0.0577873
0.0577849
0.0577849
0.0577865
0.0577864
0.0577886
0.0577909
0.0577973
0.0578171
0.0578533
0.0579332
0.0580317
0.0580103
0.0579115
0.057842
0.0578067
0.057794
0.0577865
0.057786
0.0577831
0.0577835
0.0577816
0.0577814
0.0577829
0.0577829
0.0577848
0.0577869
0.0577925
0.0578089
0.0578395
0.0579064
0.0579913
0.0579684
0.0578867
0.057831
0.0578017
0.057791
0.0577849
0.0577841
0.0577818
0.0577819
0.0577804
0.0577801
0.0577814
0.0577815
0.0577832
0.057785
0.0577899
0.0578035
0.0578291
0.0578847
0.057957
0.0579335
0.0578666
0.0578223
0.0577983
0.0577893
0.0577843
0.0577833
0.0577815
0.0577814
0.05778
0.0577796
0.0577809
0.057781
0.0577825
0.0577841
0.0577884
0.0577995
0.0578208
0.0578665
0.0579277
0.0579049
0.0578505
0.0578153
0.0577957
0.0577881
0.057784
0.0577829
0.0577814
0.0577811
0.0577799
0.0577795
0.0577807
0.0577808
0.0577822
0.0577836
0.0577873
0.0577964
0.057814
0.0578515
0.057903
0.0578829
0.0578382
0.05781
0.0577937
0.0577872
0.0577837
0.0577826
0.0577813
0.057781
0.0577799
0.0577795
0.0577806
0.0577807
0.0577819
0.0577832
0.0577864
0.057794
0.0578087
0.0578397
0.0578833
0.057869
0.0578305
0.0578065
0.0577925
0.0577866
0.0577836
0.0577824
0.0577813
0.0577809
0.0577798
0.0577794
0.0577805
0.0577807
0.0577818
0.057783
0.0577858
0.0577924
0.0578053
0.0578321
0.0578706
)
;

boundaryField
{
    fuel
    {
        type            fixedValue;
        value           nonuniform 0();
    }
    wall
    {
        type            zeroGradient;
    }
    outlet
    {
        type            zeroGradient;
    }
    frontAndBack
    {
        type            empty;
    }
    procBoundary1to0
    {
        type            processor;
        value           nonuniform List<scalar> 
21
(
0.0587569
0.0584898
0.0582154
0.0581069
0.0580617
0.0580297
0.0580391
0.0580198
0.0580302
0.0580177
0.0579544
0.0579544
0.0579573
0.0579563
0.0579612
0.0579649
0.0579767
0.0580283
0.0581108
0.0583015
0.0584933
)
;
    }
}


// ************************************************************************* //
