/*--------------------------------*- C++ -*----------------------------------*\
| =========                 |                                                 |
| \\      /  F ield         | OpenFOAM: The Open Source CFD Toolbox           |
|  \\    /   O peration     | Version:  dev                                   |
|   \\  /    A nd           | Web:      www.OpenFOAM.org                      |
|    \\/     M anipulation  |                                                 |
\*---------------------------------------------------------------------------*/
FoamFile
{
    version     2.0;
    format      ascii;
    class       volScalarField;
    location    "0.17";
    object      HCO;
}
// * * * * * * * * * * * * * * * * * * * * * * * * * * * * * * * * * * * * * //

dimensions      [0 0 0 0 0 0 0];

internalField   nonuniform List<scalar> 
250
(
1.80816e-08
1.96863e-08
2.02423e-08
2.03479e-08
1.99276e-08
1.98742e-08
1.98495e-08
1.97239e-08
1.97795e-08
1.97263e-08
1.61087e-08
1.72364e-08
1.75889e-08
1.7654e-08
1.72929e-08
1.72455e-08
1.72253e-08
1.71169e-08
1.71654e-08
1.71197e-08
1.69909e-08
1.73696e-08
1.69419e-08
1.75402e-08
1.70354e-08
1.77915e-08
1.75113e-08
1.7853e-08
1.78441e-08
1.587e-08
1.43116e-08
1.51077e-08
1.5329e-08
1.53732e-08
1.50674e-08
1.50236e-08
1.50071e-08
1.49143e-08
1.49563e-08
1.49173e-08
1.48056e-08
1.51362e-08
1.47626e-08
1.52793e-08
1.48419e-08
1.54901e-08
1.52484e-08
1.55554e-08
1.56022e-08
1.40509e-08
1.27413e-08
1.33131e-08
1.34529e-08
1.34904e-08
1.32344e-08
1.31894e-08
1.31761e-08
1.3097e-08
1.31332e-08
1.30999e-08
1.30036e-08
1.32958e-08
1.2966e-08
1.34154e-08
1.30327e-08
1.35919e-08
1.33814e-08
1.36518e-08
1.37154e-08
1.25005e-08
1.14231e-08
1.1843e-08
1.19353e-08
1.19484e-08
1.17247e-08
1.17111e-08
1.17012e-08
1.16332e-08
1.16647e-08
1.16361e-08
1.15525e-08
1.17801e-08
1.15192e-08
1.18839e-08
1.15753e-08
1.20397e-08
1.18451e-08
1.21141e-08
1.21761e-08
1.12291e-08
1.03497e-08
1.068e-08
1.07402e-08
1.07514e-08
1.05585e-08
1.05465e-08
1.05399e-08
1.04805e-08
1.05085e-08
1.04831e-08
1.04094e-08
1.06091e-08
1.03793e-08
1.06987e-08
1.04274e-08
1.08351e-08
1.06563e-08
1.09062e-08
1.09594e-08
1.0186e-08
9.5164e-09
9.77957e-09
9.8152e-09
9.82489e-09
9.65227e-09
9.6402e-09
9.63684e-09
9.58315e-09
9.60887e-09
9.58535e-09
9.51796e-09
9.70102e-09
9.48981e-09
9.78036e-09
9.53228e-09
9.90376e-09
9.7341e-09
9.97583e-09
1.0024e-08
9.40619e-09
8.87261e-09
9.0775e-09
9.08975e-09
9.09613e-09
8.93359e-09
8.92031e-09
8.91975e-09
8.86894e-09
8.89379e-09
8.87075e-09
8.80583e-09
8.98386e-09
8.7777e-09
9.05678e-09
8.81703e-09
9.17304e-09
9.00496e-09
9.25195e-09
9.30654e-09
8.81341e-09
8.35561e-09
8.50912e-09
8.50078e-09
8.50336e-09
8.34504e-09
8.3303e-09
8.33193e-09
8.28234e-09
8.30716e-09
8.28372e-09
8.21898e-09
8.3993e-09
8.18967e-09
8.46825e-09
8.22726e-09
8.58057e-09
8.40873e-09
8.66851e-09
8.73832e-09
8.34921e-09
8.06682e-09
8.19431e-09
8.18078e-09
8.18474e-09
8.03387e-09
8.01913e-09
8.02194e-09
7.97418e-09
7.99896e-09
7.97493e-09
7.91215e-09
8.09052e-09
7.88287e-09
8.15485e-09
7.91829e-09
8.26209e-09
8.08848e-09
8.3525e-09
8.42069e-09
8.11e-09
8.48492e-09
8.57618e-09
8.53569e-09
8.53302e-09
8.36854e-09
8.35105e-09
8.35361e-09
8.30178e-09
8.33069e-09
8.30009e-09
8.23277e-09
8.43166e-09
8.1997e-09
8.49853e-09
8.2367e-09
8.61448e-09
8.41659e-09
8.73602e-09
8.80897e-09
8.59754e-09
1.05179e-08
1.05457e-08
1.04427e-08
1.04296e-08
1.02237e-08
1.02018e-08
1.02014e-08
1.01376e-08
1.01784e-08
1.01294e-08
1.00537e-08
1.02952e-08
1.0016e-08
1.03736e-08
1.00578e-08
1.05226e-08
1.02623e-08
1.07276e-08
1.07884e-08
1.07758e-08
2.5177e-08
2.50048e-08
2.45547e-08
2.44982e-08
2.39505e-08
2.38964e-08
2.38809e-08
2.37177e-08
2.38369e-08
2.36802e-08
2.35025e-08
2.41143e-08
2.34084e-08
2.43103e-08
2.34965e-08
2.47269e-08
2.39627e-08
2.54443e-08
2.53905e-08
2.62257e-08
)
;

boundaryField
{
    fuel
    {
        type            fixedValue;
        value           nonuniform 0();
    }
    wall
    {
        type            zeroGradient;
    }
    outlet
    {
        type            zeroGradient;
    }
    frontAndBack
    {
        type            empty;
    }
    procBoundary1to0
    {
        type            processor;
        value           nonuniform List<scalar> 
21
(
2.01483e-08
2.24163e-08
2.32801e-08
2.34514e-08
2.29727e-08
2.29129e-08
2.28829e-08
2.27397e-08
2.28022e-08
2.27413e-08
1.95801e-08
1.95801e-08
2.00123e-08
1.95253e-08
2.02134e-08
1.96351e-08
2.05086e-08
2.01894e-08
2.05511e-08
2.04413e-08
1.79417e-08
)
;
    }
}


// ************************************************************************* //
