/*--------------------------------*- C++ -*----------------------------------*\
| =========                 |                                                 |
| \\      /  F ield         | OpenFOAM: The Open Source CFD Toolbox           |
|  \\    /   O peration     | Version:  dev                                   |
|   \\  /    A nd           | Web:      www.OpenFOAM.org                      |
|    \\/     M anipulation  |                                                 |
\*---------------------------------------------------------------------------*/
FoamFile
{
    version     2.0;
    format      ascii;
    class       volScalarField;
    location    "0.17";
    object      O2;
}
// * * * * * * * * * * * * * * * * * * * * * * * * * * * * * * * * * * * * * //

dimensions      [0 0 0 0 0 0 0];

internalField   nonuniform List<scalar> 
250
(
1.99367e-07
2.56572e-08
4.46925e-09
2.9121e-09
2.77739e-09
2.6477e-09
2.7289e-09
2.60008e-09
2.68749e-09
2.59791e-09
2.21747e-07
2.89293e-08
4.22812e-09
2.35292e-09
2.21358e-09
2.11199e-09
2.17446e-09
2.07528e-09
2.14288e-09
2.07357e-09
2.09839e-09
2.11343e-09
2.10072e-09
2.12425e-09
2.13078e-09
2.13508e-09
2.24989e-09
2.81151e-09
1.66646e-08
2.0549e-07
2.39375e-07
3.1814e-08
4.06537e-09
1.93078e-09
1.78667e-09
1.70512e-09
1.75405e-09
1.6764e-09
1.72946e-09
1.67516e-09
1.69463e-09
1.70647e-09
1.69669e-09
1.71468e-09
1.72007e-09
1.72457e-09
1.81465e-09
2.22907e-09
1.15199e-08
1.27614e-07
2.49075e-07
3.37388e-08
3.90092e-09
1.60302e-09
1.45682e-09
1.38941e-09
1.42894e-09
1.36658e-09
1.40906e-09
1.36575e-09
1.38125e-09
1.39084e-09
1.38312e-09
1.39713e-09
1.4017e-09
1.40688e-09
1.47865e-09
1.78488e-09
7.97319e-09
7.89016e-08
2.48489e-07
3.42298e-08
3.67456e-09
1.33409e-09
1.19019e-09
1.13691e-09
1.16562e-09
1.11861e-09
1.15327e-09
1.11815e-09
1.13062e-09
1.13862e-09
1.13237e-09
1.14346e-09
1.14741e-09
1.14893e-09
1.20844e-09
1.44059e-09
5.53938e-09
4.85243e-08
2.36329e-07
3.30235e-08
3.35388e-09
1.10814e-09
9.73347e-10
9.2864e-10
9.52164e-10
9.13859e-10
9.42489e-10
9.13684e-10
9.23775e-10
9.30604e-10
9.25437e-10
9.34325e-10
9.37785e-10
9.39761e-10
9.89127e-10
1.16833e-09
3.88429e-09
2.93945e-08
2.1383e-07
3.0136e-08
2.93567e-09
9.0909e-10
7.89449e-10
7.52204e-10
7.71548e-10
7.40291e-10
7.64021e-10
7.4034e-10
7.48464e-10
7.54375e-10
7.50057e-10
7.57206e-10
7.60234e-10
7.62484e-10
8.0393e-10
9.48027e-10
2.77299e-09
1.79354e-08
1.82913e-07
2.58583e-08
2.4426e-09
7.30367e-10
6.30551e-10
6.00101e-10
6.15907e-10
5.90616e-10
6.10136e-10
5.9082e-10
5.97257e-10
6.02397e-10
5.98782e-10
6.04496e-10
6.07117e-10
6.09469e-10
6.44364e-10
7.65552e-10
2.03366e-09
1.10962e-08
1.46879e-07
2.07004e-08
1.91535e-09
5.69939e-10
4.92377e-10
4.68204e-10
4.80896e-10
4.60822e-10
4.76576e-10
4.61117e-10
4.66071e-10
4.70516e-10
4.67513e-10
4.72008e-10
4.74228e-10
4.76524e-10
5.05662e-10
6.11253e-10
1.54072e-09
7.1194e-09
1.09645e-07
1.52946e-08
1.40247e-09
4.28675e-10
3.73203e-10
3.54747e-10
3.64649e-10
3.49194e-10
3.61517e-10
3.49523e-10
3.53169e-10
3.56961e-10
3.54503e-10
3.5795e-10
3.59774e-10
3.61878e-10
3.85724e-10
4.79163e-10
1.20376e-09
4.8614e-09
7.51752e-08
1.02842e-08
9.50443e-10
3.09123e-10
2.73181e-10
2.59725e-10
2.67153e-10
2.55735e-10
2.6497e-10
2.5605e-10
2.58566e-10
2.61741e-10
2.59765e-10
2.62328e-10
2.63767e-10
2.6558e-10
2.84509e-10
3.66657e-10
9.61213e-10
3.58699e-09
4.70816e-08
6.2356e-09
5.97305e-10
2.15106e-10
1.9429e-10
1.84879e-10
1.90236e-10
1.82155e-10
1.88763e-10
1.82425e-10
1.84025e-10
1.86642e-10
1.85071e-10
1.86931e-10
1.88021e-10
1.89498e-10
2.04049e-10
2.74804e-10
7.77529e-10
2.84519e-09
2.89519e-08
3.66147e-09
3.76961e-10
1.53864e-10
1.42342e-10
1.35644e-10
1.39541e-10
1.3379e-10
1.38514e-10
1.34008e-10
1.34986e-10
1.37173e-10
1.35892e-10
1.37281e-10
1.38107e-10
1.39291e-10
1.5056e-10
2.1127e-10
6.47517e-10
2.41043e-09
)
;

boundaryField
{
    fuel
    {
        type            fixedValue;
        value           nonuniform 0();
    }
    wall
    {
        type            zeroGradient;
    }
    outlet
    {
        type            inletOutlet;
        inletValue      uniform 0;
        value           nonuniform List<scalar> 
25
(
1.99367e-07
2.21747e-07
2.39375e-07
2.49075e-07
2.48489e-07
2.36329e-07
2.1383e-07
1.82913e-07
1.46879e-07
1.09645e-07
7.51752e-08
4.70816e-08
2.89519e-08
2.0549e-07
1.27614e-07
7.89016e-08
4.85243e-08
2.93945e-08
1.79354e-08
1.10962e-08
7.1194e-09
4.8614e-09
3.58699e-09
2.84519e-09
2.41043e-09
)
;
    }
    frontAndBack
    {
        type            empty;
    }
    procBoundary1to0
    {
        type            processor;
        value           nonuniform List<scalar> 
21
(
1.67027e-07
2.17391e-08
4.83069e-09
3.6598e-09
3.52508e-09
3.35998e-09
3.46355e-09
3.29683e-09
3.40988e-09
3.29421e-09
2.62988e-09
2.62988e-09
2.64942e-09
2.63257e-09
2.66371e-09
2.67169e-09
2.67627e-09
2.82344e-09
3.60191e-09
2.46246e-08
3.38531e-07
)
;
    }
}


// ************************************************************************* //
