/*--------------------------------*- C++ -*----------------------------------*\
| =========                 |                                                 |
| \\      /  F ield         | OpenFOAM: The Open Source CFD Toolbox           |
|  \\    /   O peration     | Version:  dev                                   |
|   \\  /    A nd           | Web:      www.OpenFOAM.org                      |
|    \\/     M anipulation  |                                                 |
\*---------------------------------------------------------------------------*/
FoamFile
{
    version     2.0;
    format      ascii;
    class       volScalarField;
    location    "0.17";
    object      PC3H4;
}
// * * * * * * * * * * * * * * * * * * * * * * * * * * * * * * * * * * * * * //

dimensions      [0 0 0 0 0 0 0];

internalField   nonuniform List<scalar> 
50
(
1.20994e-17
7.67573e-18
4.89185e-18
3.13418e-18
2.02001e-18
1.31038e-18
8.55935e-19
5.63154e-19
3.73298e-19
2.49345e-19
1.67851e-19
1.13892e-19
7.79096e-20
5.37435e-20
3.73973e-20
2.62607e-20
1.86178e-20
1.33332e-20
9.65063e-21
7.06364e-21
5.23075e-21
3.92045e-21
2.97488e-21
2.28572e-21
1.77821e-21
1.40043e-21
1.11611e-21
8.99698e-22
7.33108e-22
6.03418e-22
5.01332e-22
4.20107e-22
3.54811e-22
3.01804e-22
2.58376e-22
2.2249e-22
1.92602e-22
1.67528e-22
1.46356e-22
1.28375e-22
1.13027e-22
9.98641e-23
8.85375e-23
7.87146e-23
7.01565e-23
6.26975e-23
5.61795e-23
5.04729e-23
4.54695e-23
4.10742e-23
)
;

boundaryField
{
    wall
    {
        type            zeroGradient;
    }
    fuel
    {
        type            fixedValue;
        value           nonuniform 0();
    }
    outlet
    {
        type            inletOutlet;
        inletValue      nonuniform 0();
        value           nonuniform 0();
    }
    procBoundary1to0
    {
        type            processor;
        value           uniform 1.91335e-17;
    }
    procBoundary1to2
    {
        type            processor;
        value           uniform 3.71707e-23;
    }
}


// ************************************************************************* //
