/*--------------------------------*- C++ -*----------------------------------*\
| =========                 |                                                 |
| \\      /  F ield         | OpenFOAM: The Open Source CFD Toolbox           |
|  \\    /   O peration     | Version:  dev                                   |
|   \\  /    A nd           | Web:      www.OpenFOAM.org                      |
|    \\/     M anipulation  |                                                 |
\*---------------------------------------------------------------------------*/
FoamFile
{
    version     2.0;
    format      ascii;
    class       volScalarField;
    location    "0.155";
    object      A1C2H;
}
// * * * * * * * * * * * * * * * * * * * * * * * * * * * * * * * * * * * * * //

dimensions      [0 0 0 0 0 0 0];

internalField   nonuniform List<scalar> 
250
(
2.05337e-06
9.72793e-07
7.66875e-07
7.22996e-07
7.01544e-07
7.07577e-07
7.01089e-07
7.0671e-07
7.02677e-07
7.05797e-07
1.79301e-06
9.44406e-07
7.75423e-07
7.37285e-07
7.18534e-07
7.23358e-07
7.17855e-07
7.22493e-07
7.19105e-07
7.21717e-07
7.20943e-07
7.19887e-07
7.21045e-07
7.20148e-07
7.20725e-07
7.24231e-07
7.32872e-07
7.73106e-07
8.83908e-07
1.08659e-06
1.57658e-06
9.17804e-07
7.80616e-07
7.4763e-07
7.31564e-07
7.35165e-07
7.30655e-07
7.34327e-07
7.31589e-07
7.33695e-07
7.33091e-07
7.32146e-07
7.33156e-07
7.32437e-07
7.33017e-07
7.36165e-07
7.44232e-07
7.79652e-07
8.77599e-07
1.05844e-06
1.39874e-06
8.92916e-07
7.82752e-07
7.54217e-07
7.40809e-07
7.4314e-07
7.39653e-07
7.4235e-07
7.40279e-07
7.41869e-07
7.41444e-07
7.40604e-07
7.41472e-07
7.40919e-07
7.41493e-07
7.44266e-07
7.51783e-07
7.82612e-07
8.68967e-07
1.0297e-06
1.25379e-06
8.6911e-07
7.81743e-07
7.5684e-07
7.46096e-07
7.46963e-07
7.44677e-07
7.46237e-07
7.44891e-07
7.45923e-07
7.45689e-07
7.4497e-07
7.45686e-07
7.45305e-07
7.45872e-07
7.48351e-07
7.55378e-07
7.81809e-07
8.57742e-07
9.99767e-07
1.1338e-06
8.4531e-07
7.76887e-07
7.54664e-07
7.46575e-07
7.45932e-07
7.44817e-07
7.45285e-07
7.447e-07
7.4515e-07
7.45109e-07
7.44534e-07
7.45085e-07
7.4488e-07
7.45437e-07
7.47565e-07
7.54237e-07
7.76573e-07
8.42777e-07
9.66867e-07
1.0327e-06
8.20361e-07
7.67443e-07
7.47407e-07
7.41715e-07
7.39754e-07
7.39675e-07
7.39194e-07
7.39282e-07
7.39222e-07
7.39342e-07
7.38907e-07
7.39303e-07
7.39245e-07
7.39787e-07
7.41583e-07
7.47876e-07
7.66461e-07
8.23993e-07
9.31633e-07
9.5049e-07
7.94381e-07
7.53821e-07
7.36136e-07
7.32234e-07
7.29563e-07
7.30116e-07
7.29084e-07
7.29571e-07
7.29216e-07
7.29423e-07
7.2908e-07
7.29366e-07
7.29387e-07
7.29894e-07
7.31378e-07
7.37085e-07
7.52358e-07
8.01534e-07
8.93708e-07
8.82367e-07
7.69402e-07
7.38405e-07
7.23628e-07
7.2073e-07
7.1815e-07
7.18799e-07
7.17735e-07
7.18257e-07
7.17889e-07
7.18093e-07
7.17771e-07
7.18014e-07
7.1803e-07
7.18479e-07
7.19679e-07
7.24512e-07
7.36977e-07
7.77895e-07
8.55586e-07
8.28768e-07
7.48539e-07
7.24788e-07
7.13198e-07
7.10707e-07
7.08754e-07
7.09128e-07
7.08386e-07
7.08691e-07
7.08504e-07
7.08643e-07
7.08298e-07
7.0854e-07
7.08507e-07
7.08883e-07
7.09842e-07
7.13659e-07
7.23792e-07
7.56824e-07
8.21197e-07
7.90068e-07
7.33754e-07
7.15458e-07
7.06619e-07
7.04359e-07
7.03042e-07
7.03108e-07
7.0271e-07
7.0278e-07
7.02789e-07
7.02856e-07
7.02495e-07
7.02734e-07
7.02664e-07
7.02974e-07
7.03739e-07
7.06667e-07
7.1486e-07
7.40997e-07
7.93627e-07
7.64757e-07
7.24678e-07
7.10344e-07
7.03424e-07
7.01434e-07
7.00492e-07
7.00398e-07
7.00192e-07
7.00135e-07
7.00256e-07
7.00276e-07
6.99925e-07
7.00143e-07
7.00067e-07
7.00328e-07
7.00948e-07
7.03257e-07
7.09893e-07
7.30629e-07
7.73709e-07
7.50974e-07
7.20126e-07
7.08176e-07
7.02356e-07
7.00592e-07
6.99814e-07
6.99671e-07
6.99536e-07
6.99435e-07
6.99601e-07
6.99596e-07
6.99267e-07
6.99459e-07
6.99393e-07
6.99624e-07
7.00156e-07
7.02115e-07
7.07735e-07
7.25018e-07
7.61784e-07
)
;

boundaryField
{
    fuel
    {
        type            fixedValue;
        value           nonuniform 0();
    }
    wall
    {
        type            zeroGradient;
    }
    outlet
    {
        type            zeroGradient;
    }
    frontAndBack
    {
        type            empty;
    }
    procBoundary1to0
    {
        type            processor;
        value           nonuniform List<scalar> 
21
(
2.3629e-06
1.00288e-06
7.54807e-07
7.04572e-07
6.80503e-07
6.87634e-07
6.80227e-07
6.86785e-07
6.82158e-07
6.85755e-07
7.0486e-07
7.0486e-07
7.03677e-07
7.04996e-07
7.03896e-07
7.04457e-07
7.08288e-07
7.17483e-07
7.62735e-07
8.87945e-07
1.11476e-06
)
;
    }
}


// ************************************************************************* //
