/*--------------------------------*- C++ -*----------------------------------*\
| =========                 |                                                 |
| \\      /  F ield         | OpenFOAM: The Open Source CFD Toolbox           |
|  \\    /   O peration     | Version:  dev                                   |
|   \\  /    A nd           | Web:      www.OpenFOAM.org                      |
|    \\/     M anipulation  |                                                 |
\*---------------------------------------------------------------------------*/
FoamFile
{
    version     2.0;
    format      ascii;
    class       volScalarField;
    location    "0.155";
    object      A1C2H22;
}
// * * * * * * * * * * * * * * * * * * * * * * * * * * * * * * * * * * * * * //

dimensions      [0 0 0 0 0 0 0];

internalField   nonuniform List<scalar> 
50
(
2.97147e-16
2.6351e-16
2.33843e-16
2.07639e-16
1.84468e-16
1.63963e-16
1.45806e-16
1.29718e-16
1.15458e-16
1.02811e-16
9.15905e-17
8.16318e-17
7.27893e-17
6.49349e-17
5.79555e-17
5.17511e-17
4.62335e-17
4.13247e-17
3.69559e-17
3.30659e-17
2.96009e-17
2.65132e-17
2.37606e-17
2.13056e-17
1.91151e-17
1.71598e-17
1.54137e-17
1.38537e-17
1.24594e-17
1.12126e-17
1.00971e-17
9.0987e-18
8.20464e-18
7.40362e-18
6.6856e-18
6.04164e-18
5.46381e-18
4.94503e-18
4.479e-18
4.0601e-18
3.68333e-18
3.34418e-18
3.03863e-18
2.76691e-18
2.51901e-18
2.29496e-18
2.09256e-18
1.90942e-18
1.74331e-18
1.59211e-18
)
;

boundaryField
{
    wall
    {
        type            zeroGradient;
    }
    fuel
    {
        type            fixedValue;
        value           nonuniform 0();
    }
    outlet
    {
        type            inletOutlet;
        inletValue      nonuniform 0();
        value           nonuniform 0();
    }
    procBoundary1to0
    {
        type            processor;
        value           uniform 3.34658e-16;
    }
    procBoundary1to2
    {
        type            processor;
        value           uniform 1.4569e-18;
    }
}


// ************************************************************************* //
