/*--------------------------------*- C++ -*----------------------------------*\
| =========                 |                                                 |
| \\      /  F ield         | OpenFOAM: The Open Source CFD Toolbox           |
|  \\    /   O peration     | Version:  dev                                   |
|   \\  /    A nd           | Web:      www.OpenFOAM.org                      |
|    \\/     M anipulation  |                                                 |
\*---------------------------------------------------------------------------*/
FoamFile
{
    version     2.0;
    format      ascii;
    class       volScalarField;
    location    "0.155";
    object      A2C2HB*;
}
// * * * * * * * * * * * * * * * * * * * * * * * * * * * * * * * * * * * * * //

dimensions      [0 0 0 0 0 0 0];

internalField   nonuniform List<scalar> 
250
(
3.29732e-12
1.04716e-12
7.1653e-13
5.79639e-13
5.99058e-13
5.46435e-13
5.75193e-13
5.45191e-13
5.63838e-13
5.48675e-13
2.17243e-12
7.57913e-13
5.54731e-13
4.48007e-13
4.69153e-13
4.22602e-13
4.48847e-13
4.21775e-13
4.38814e-13
4.25088e-13
4.29718e-13
4.3331e-13
4.30207e-13
4.35603e-13
4.37789e-13
4.41871e-13
4.77256e-13
5.01694e-13
6.71162e-13
8.93658e-13
1.3839e-12
5.30791e-13
4.12544e-13
3.32068e-13
3.52027e-13
3.13295e-13
3.35717e-13
3.12799e-13
3.27319e-13
3.15703e-13
3.19559e-13
3.22618e-13
3.19938e-13
3.24378e-13
3.26073e-13
3.29089e-13
3.56565e-13
3.71063e-13
4.93167e-13
6.5245e-13
8.51494e-13
3.58688e-13
2.94063e-13
2.35795e-13
2.52766e-13
2.22324e-13
2.40425e-13
2.22067e-13
2.33677e-13
2.24445e-13
2.27462e-13
2.29916e-13
2.2775e-13
2.31186e-13
2.32433e-13
2.34762e-13
2.54963e-13
2.62793e-13
3.47821e-13
4.57266e-13
5.05106e-13
2.32537e-13
2.00072e-13
1.58421e-13
1.72394e-13
1.50385e-13
1.63194e-13
1.50296e-13
1.59046e-13
1.52128e-13
1.54354e-13
1.56217e-13
1.54569e-13
1.57074e-13
1.57949e-13
1.58709e-13
1.73178e-13
1.77482e-13
2.34516e-13
3.06212e-13
2.84937e-13
1.43559e-13
1.28855e-13
1.01146e-13
1.11399e-13
9.60588e-14
1.05142e-13
9.60573e-14
1.02268e-13
9.7384e-14
9.89288e-14
1.00267e-13
9.90858e-14
1.00804e-13
1.0139e-13
1.01886e-13
1.11455e-13
1.13292e-13
1.48049e-13
1.9174e-13
1.49627e-13
8.28957e-14
7.72225e-14
5.98749e-14
6.68296e-14
5.6861e-14
6.28645e-14
5.68948e-14
6.10063e-14
5.77902e-14
5.87891e-14
5.96878e-14
5.88987e-14
5.99939e-14
6.03662e-14
6.0661e-14
6.65919e-14
6.71384e-14
8.76638e-14
1.12507e-13
7.31269e-14
4.33457e-14
4.1717e-14
3.17789e-14
3.60387e-14
3.01558e-14
3.37587e-14
3.01944e-14
3.26671e-14
3.07431e-14
3.13293e-14
3.18771e-14
3.13996e-14
3.20305e-14
3.2249e-14
3.23978e-14
3.57557e-14
3.57469e-14
4.67484e-14
5.93866e-14
3.11031e-14
1.94331e-14
1.92461e-14
1.43252e-14
1.65537e-14
1.35743e-14
1.54281e-14
1.36024e-14
1.48775e-14
1.38904e-14
1.41854e-14
1.44704e-14
1.4224e-14
1.45337e-14
1.46457e-14
1.47046e-14
1.63459e-14
1.61993e-14
2.12675e-14
2.67124e-14
1.06709e-14
6.94308e-15
7.04381e-15
5.1245e-15
6.03192e-15
4.85034e-15
5.59605e-15
4.86434e-15
5.37856e-15
4.98246e-15
5.09857e-15
5.21404e-15
5.11507e-15
5.23346e-15
5.27925e-15
5.2957e-15
5.92775e-15
5.82642e-15
7.66801e-15
9.50443e-15
2.6554e-15
1.76938e-15
1.83012e-15
1.29689e-15
1.55688e-15
1.22533e-15
1.43717e-15
1.22989e-15
1.3764e-15
1.26406e-15
1.2962e-15
1.32953e-15
1.30134e-15
1.33331e-15
1.34681e-15
1.34966e-15
1.52293e-15
1.48668e-15
1.96605e-15
2.4086e-15
3.66189e-16
2.46725e-16
2.57511e-16
1.79759e-16
2.18245e-16
1.69653e-16
2.00991e-16
1.70342e-16
1.9211e-16
1.75469e-16
1.80116e-16
1.85122e-16
1.80959e-16
1.85471e-16
1.87572e-16
1.8779e-16
2.1286e-16
2.07071e-16
2.74315e-16
3.34175e-16
2.63405e-17
1.83902e-17
1.90205e-17
1.36985e-17
1.63463e-17
1.2972e-17
1.51655e-17
1.30127e-17
1.4549e-17
1.33762e-17
1.36997e-17
1.40545e-17
1.37647e-17
1.40721e-17
1.4227e-17
1.42375e-17
1.59756e-17
1.55924e-17
2.01868e-17
2.43694e-17
)
;

boundaryField
{
    fuel
    {
        type            fixedValue;
        value           nonuniform 0();
    }
    wall
    {
        type            zeroGradient;
    }
    outlet
    {
        type            zeroGradient;
    }
    frontAndBack
    {
        type            empty;
    }
    procBoundary1to0
    {
        type            processor;
        value           nonuniform List<scalar> 
21
(
4.84248e-12
1.40306e-12
8.91219e-13
7.19847e-13
7.33896e-13
6.77852e-13
7.07256e-13
6.76153e-13
6.95106e-13
6.79486e-13
5.53881e-13
5.53881e-13
5.57835e-13
5.54501e-13
5.60647e-13
5.63316e-13
5.68783e-13
6.12173e-13
6.50703e-13
8.7956e-13
1.17953e-12
)
;
    }
}


// ************************************************************************* //
