/*--------------------------------*- C++ -*----------------------------------*\
| =========                 |                                                 |
| \\      /  F ield         | OpenFOAM: The Open Source CFD Toolbox           |
|  \\    /   O peration     | Version:  dev                                   |
|   \\  /    A nd           | Web:      www.OpenFOAM.org                      |
|    \\/     M anipulation  |                                                 |
\*---------------------------------------------------------------------------*/
FoamFile
{
    version     2.0;
    format      ascii;
    class       volScalarField;
    location    "0.155";
    object      A2C2HA*;
}
// * * * * * * * * * * * * * * * * * * * * * * * * * * * * * * * * * * * * * //

dimensions      [0 0 0 0 0 0 0];

internalField   nonuniform List<scalar> 
50
(
3.50721e-17
3.07582e-17
2.69857e-17
2.36834e-17
2.07911e-17
1.82566e-17
1.60349e-17
1.40868e-17
1.23783e-17
1.08796e-17
9.56466e-18
8.41068e-18
7.39777e-18
6.50853e-18
5.72769e-18
5.0419e-18
4.43947e-18
3.91014e-18
3.44495e-18
3.03603e-18
2.67649e-18
2.36029e-18
2.08215e-18
1.83741e-18
1.62202e-18
1.43241e-18
1.26544e-18
1.11838e-18
9.88819e-19
8.74634e-19
7.73975e-19
6.85212e-19
6.06913e-19
5.37823e-19
4.76838e-19
4.22987e-19
3.75418e-19
3.33382e-19
2.96221e-19
2.63353e-19
2.34268e-19
2.08515e-19
1.85695e-19
1.65737e-19
1.47832e-19
1.31923e-19
1.17798e-19
1.05238e-19
9.4047e-20
8.40421e-20
)
;

boundaryField
{
    wall
    {
        type            zeroGradient;
    }
    fuel
    {
        type            fixedValue;
        value           nonuniform 0();
    }
    outlet
    {
        type            inletOutlet;
        inletValue      nonuniform 0();
        value           nonuniform 0();
    }
    procBoundary1to0
    {
        type            processor;
        value           uniform 3.99408e-17;
    }
    procBoundary1to2
    {
        type            processor;
        value           uniform 7.52372e-20;
    }
}


// ************************************************************************* //
