/*--------------------------------*- C++ -*----------------------------------*\
| =========                 |                                                 |
| \\      /  F ield         | OpenFOAM: The Open Source CFD Toolbox           |
|  \\    /   O peration     | Version:  dev                                   |
|   \\  /    A nd           | Web:      www.OpenFOAM.org                      |
|    \\/     M anipulation  |                                                 |
\*---------------------------------------------------------------------------*/
FoamFile
{
    version     2.0;
    format      ascii;
    class       volScalarField;
    location    "0.155";
    object      A4;
}
// * * * * * * * * * * * * * * * * * * * * * * * * * * * * * * * * * * * * * //

dimensions      [0 0 0 0 0 0 0];

internalField   nonuniform List<scalar> 
50
(
1.1236e-15
9.60079e-16
8.21063e-16
7.02812e-16
6.02183e-16
5.16519e-16
4.43563e-16
3.81396e-16
3.28385e-16
2.83143e-16
2.44491e-16
2.11433e-16
1.83122e-16
1.58844e-16
1.37994e-16
1.20062e-16
1.04616e-16
9.12927e-17
7.97823e-17
6.98238e-17
6.11955e-17
5.37093e-17
4.72052e-17
4.15467e-17
3.66175e-17
3.23181e-17
2.85635e-17
2.52805e-17
2.24063e-17
1.98872e-17
1.76765e-17
1.57342e-17
1.40257e-17
1.2521e-17
1.11942e-17
1.0023e-17
8.98784e-18
8.07182e-18
7.26028e-18
6.54043e-18
5.90114e-18
5.33265e-18
4.82642e-18
4.38126e-18
3.97947e-18
3.62008e-18
3.29863e-18
3.01046e-18
2.75127e-18
2.51702e-18
)
;

boundaryField
{
    wall
    {
        type            zeroGradient;
    }
    fuel
    {
        type            fixedValue;
        value           nonuniform 0();
    }
    outlet
    {
        type            inletOutlet;
        inletValue      nonuniform 0();
        value           nonuniform 0();
    }
    procBoundary1to0
    {
        type            processor;
        value           uniform 1.31731e-15;
    }
    procBoundary1to2
    {
        type            processor;
        value           uniform 2.30781e-18;
    }
}


// ************************************************************************* //
