/*--------------------------------*- C++ -*----------------------------------*\
| =========                 |                                                 |
| \\      /  F ield         | OpenFOAM: The Open Source CFD Toolbox           |
|  \\    /   O peration     | Version:  dev                                   |
|   \\  /    A nd           | Web:      www.OpenFOAM.org                      |
|    \\/     M anipulation  |                                                 |
\*---------------------------------------------------------------------------*/
FoamFile
{
    version     2.0;
    format      ascii;
    class       volScalarField;
    location    "0.155";
    object      AC3H4;
}
// * * * * * * * * * * * * * * * * * * * * * * * * * * * * * * * * * * * * * //

dimensions      [0 0 0 0 0 0 0];

internalField   nonuniform List<scalar> 
250
(
7.62771e-07
7.15757e-07
6.76902e-07
6.61643e-07
6.54938e-07
6.53175e-07
6.52753e-07
6.52384e-07
6.52337e-07
6.52159e-07
7.49716e-07
7.0661e-07
6.73072e-07
6.59382e-07
6.54417e-07
6.52863e-07
6.52537e-07
6.52492e-07
6.52236e-07
6.52291e-07
6.52398e-07
6.51941e-07
6.52646e-07
6.51883e-07
6.532e-07
6.53326e-07
6.59394e-07
6.75814e-07
7.06625e-07
8.31941e-07
7.47285e-07
7.08556e-07
6.81078e-07
6.6873e-07
6.66334e-07
6.64975e-07
6.64825e-07
6.65346e-07
6.64689e-07
6.65178e-07
6.65727e-07
6.63784e-07
6.66435e-07
6.628e-07
6.67353e-07
6.6192e-07
6.72639e-07
6.77966e-07
7.10663e-07
8.06293e-07
7.6409e-07
7.30797e-07
7.10531e-07
6.99305e-07
7.00425e-07
6.99178e-07
6.99304e-07
7.0064e-07
6.99365e-07
7.005e-07
7.01696e-07
6.97535e-07
7.03124e-07
6.95233e-07
7.04612e-07
6.91011e-07
7.08942e-07
6.98739e-07
7.36751e-07
8.00561e-07
8.11425e-07
7.85075e-07
7.72929e-07
7.63332e-07
7.67858e-07
7.6785e-07
7.67019e-07
7.69287e-07
7.67252e-07
7.69136e-07
7.71129e-07
7.64249e-07
7.73507e-07
7.60407e-07
7.75759e-07
7.52659e-07
7.80701e-07
7.50136e-07
7.97054e-07
8.251e-07
9.01821e-07
8.81544e-07
8.77064e-07
8.68408e-07
8.76368e-07
8.76388e-07
8.75598e-07
8.78605e-07
8.75901e-07
8.78347e-07
8.81108e-07
8.71734e-07
8.8449e-07
8.66538e-07
8.8757e-07
8.55314e-07
8.92185e-07
8.43265e-07
8.97941e-07
8.90979e-07
1.03365e-06
1.02031e-06
1.02083e-06
1.01293e-06
1.02218e-06
1.02195e-06
1.02112e-06
1.02421e-06
1.0213e-06
1.02369e-06
1.02688e-06
1.01645e-06
1.03097e-06
1.01072e-06
1.03469e-06
9.98084e-07
1.03942e-06
9.80451e-07
1.03806e-06
1.00701e-06
1.19127e-06
1.18152e-06
1.18216e-06
1.17477e-06
1.18209e-06
1.18131e-06
1.18039e-06
1.18265e-06
1.18024e-06
1.1817e-06
1.18472e-06
1.17563e-06
1.18891e-06
1.17065e-06
1.1928e-06
1.15986e-06
1.19798e-06
1.14399e-06
1.19565e-06
1.15543e-06
1.33907e-06
1.32943e-06
1.32666e-06
1.31966e-06
1.32326e-06
1.32185e-06
1.32087e-06
1.32181e-06
1.32032e-06
1.32039e-06
1.32281e-06
1.31668e-06
1.32658e-06
1.3133e-06
1.33022e-06
1.30639e-06
1.33581e-06
1.29761e-06
1.33702e-06
1.3047e-06
1.45037e-06
1.43965e-06
1.43324e-06
1.42667e-06
1.42683e-06
1.42493e-06
1.42395e-06
1.4237e-06
1.42306e-06
1.42194e-06
1.4236e-06
1.42063e-06
1.4268e-06
1.41892e-06
1.42998e-06
1.41587e-06
1.43569e-06
1.4145e-06
1.44135e-06
1.42286e-06
1.51888e-06
1.50728e-06
1.49859e-06
1.49249e-06
1.49042e-06
1.48826e-06
1.48733e-06
1.48631e-06
1.48623e-06
1.48434e-06
1.48536e-06
1.48486e-06
1.48803e-06
1.48444e-06
1.49074e-06
1.48424e-06
1.49626e-06
1.48814e-06
1.50528e-06
1.49928e-06
1.55154e-06
1.53988e-06
1.53067e-06
1.52505e-06
1.52214e-06
1.51992e-06
1.51906e-06
1.51773e-06
1.51785e-06
1.51571e-06
1.51628e-06
1.5172e-06
1.51863e-06
1.51754e-06
1.52097e-06
1.51887e-06
1.52612e-06
1.52518e-06
1.53663e-06
1.53823e-06
1.56493e-06
1.55371e-06
1.54483e-06
1.53958e-06
1.53655e-06
1.53437e-06
1.53356e-06
1.53217e-06
1.53232e-06
1.53016e-06
1.53048e-06
1.53204e-06
1.53269e-06
1.53271e-06
1.53483e-06
1.53467e-06
1.53966e-06
1.54169e-06
1.55047e-06
1.55543e-06
)
;

boundaryField
{
    fuel
    {
        type            fixedValue;
        value           nonuniform 0();
    }
    wall
    {
        type            zeroGradient;
    }
    outlet
    {
        type            zeroGradient;
    }
    frontAndBack
    {
        type            empty;
    }
    procBoundary1to0
    {
        type            processor;
        value           nonuniform List<scalar> 
21
(
7.8114e-07
7.30242e-07
6.86241e-07
6.6918e-07
6.61282e-07
6.59328e-07
6.58857e-07
6.58339e-07
6.58372e-07
6.581e-07
6.52001e-07
6.52001e-07
6.52387e-07
6.51999e-07
6.5288e-07
6.52349e-07
6.55744e-07
6.59407e-07
6.8325e-07
7.15378e-07
8.70422e-07
)
;
    }
}


// ************************************************************************* //
