/*--------------------------------*- C++ -*----------------------------------*\
| =========                 |                                                 |
| \\      /  F ield         | OpenFOAM: The Open Source CFD Toolbox           |
|  \\    /   O peration     | Version:  dev                                   |
|   \\  /    A nd           | Web:      www.OpenFOAM.org                      |
|    \\/     M anipulation  |                                                 |
\*---------------------------------------------------------------------------*/
FoamFile
{
    version     2.0;
    format      ascii;
    class       volScalarField;
    location    "0.155";
    object      c-C6H4;
}
// * * * * * * * * * * * * * * * * * * * * * * * * * * * * * * * * * * * * * //

dimensions      [0 0 0 0 0 0 0];

internalField   nonuniform List<scalar> 
50
(
1.59526e-15
1.39836e-15
1.22904e-15
1.08233e-15
9.54539e-16
8.42795e-16
7.44805e-16
6.58699e-16
5.82919e-16
5.16148e-16
4.57261e-16
4.05288e-16
3.59389e-16
3.18833e-16
2.8298e-16
2.51271e-16
2.23214e-16
1.9838e-16
1.76389e-16
1.56908e-16
1.39644e-16
1.24339e-16
1.10764e-16
9.87209e-17
8.80314e-17
7.85399e-17
7.01088e-17
6.26166e-17
5.59561e-17
5.00324e-17
4.47619e-17
4.00706e-17
3.58928e-17
3.21708e-17
2.88533e-17
2.58949e-17
2.32555e-17
2.08995e-17
1.87955e-17
1.69153e-17
1.52342e-17
1.37301e-17
1.23832e-17
1.11927e-17
1.01134e-17
9.14423e-18
8.27446e-18
7.49266e-18
6.78818e-18
6.1508e-18
)
;

boundaryField
{
    wall
    {
        type            zeroGradient;
    }
    fuel
    {
        type            fixedValue;
        value           nonuniform 0();
    }
    outlet
    {
        type            inletOutlet;
        inletValue      nonuniform 0();
        value           nonuniform 0();
    }
    procBoundary1to0
    {
        type            processor;
        value           uniform 1.82604e-15;
    }
    procBoundary1to2
    {
        type            processor;
        value           uniform 5.58363e-18;
    }
}


// ************************************************************************* //
