/*--------------------------------*- C++ -*----------------------------------*\
| =========                 |                                                 |
| \\      /  F ield         | OpenFOAM: The Open Source CFD Toolbox           |
|  \\    /   O peration     | Version:  dev                                   |
|   \\  /    A nd           | Web:      www.OpenFOAM.org                      |
|    \\/     M anipulation  |                                                 |
\*---------------------------------------------------------------------------*/
FoamFile
{
    version     2.0;
    format      ascii;
    class       surfaceScalarField;
    location    "0.155";
    object      phi;
}
// * * * * * * * * * * * * * * * * * * * * * * * * * * * * * * * * * * * * * //

dimensions      [1 0 -1 0 0 0 0];

internalField   nonuniform List<scalar> 
12
(
8.77774e-06
9.27619e-06
9.8111e-06
1.03599e-05
1.09057e-05
1.14381e-05
1.19524e-05
1.24481e-05
1.2928e-05
1.33966e-05
1.38592e-05
1.43231e-05
)
;

boundaryField
{
    wall
    {
        type            calculated;
        value           nonuniform List<scalar> 
52
(
2.29361e-19
2.34557e-19
2.3531e-19
2.35928e-19
2.37157e-19
2.38178e-19
2.39176e-19
2.40047e-19
2.40826e-19
2.41514e-19
2.4212e-19
2.42655e-19
2.43129e-19
-2.29361e-19
-2.34557e-19
-2.3531e-19
-2.35928e-19
-2.37157e-19
-2.38178e-19
-2.39176e-19
-2.40047e-19
-2.40826e-19
-2.41514e-19
-2.4212e-19
-2.42655e-19
-2.43129e-19
2.29361e-19
2.34557e-19
2.3531e-19
2.35928e-19
2.37157e-19
2.38178e-19
2.39176e-19
2.40047e-19
2.40826e-19
2.41514e-19
2.4212e-19
2.42655e-19
2.43129e-19
-2.29361e-19
-2.34557e-19
-2.3531e-19
-2.35928e-19
-2.37157e-19
-2.38178e-19
-2.39176e-19
-2.40047e-19
-2.40826e-19
-2.41514e-19
-2.4212e-19
-2.42655e-19
-2.43129e-19
)
;
    }
    fuel
    {
        type            calculated;
        value           nonuniform 0();
    }
    outlet
    {
        type            calculated;
        value           nonuniform 0();
    }
    procBoundary1to0
    {
        type            processor;
        value           uniform -8.34137e-06;
    }
    procBoundary1to2
    {
        type            processor;
        value           uniform 1.48005e-05;
    }
}


// ************************************************************************* //
