/*--------------------------------*- C++ -*----------------------------------*\
| =========                 |                                                 |
| \\      /  F ield         | OpenFOAM: The Open Source CFD Toolbox           |
|  \\    /   O peration     | Version:  dev                                   |
|   \\  /    A nd           | Web:      www.OpenFOAM.org                      |
|    \\/     M anipulation  |                                                 |
\*---------------------------------------------------------------------------*/
FoamFile
{
    version     2.0;
    format      ascii;
    class       volScalarField;
    location    "0.08";
    object      A1C2H;
}
// * * * * * * * * * * * * * * * * * * * * * * * * * * * * * * * * * * * * * //

dimensions      [0 0 0 0 0 0 0];

internalField   nonuniform List<scalar> 
1997
(
8.58883e-07
8.61018e-07
8.63227e-07
8.64642e-07
8.65671e-07
8.66355e-07
8.66777e-07
8.67097e-07
8.67306e-07
8.67477e-07
8.67593e-07
8.67693e-07
8.67761e-07
8.67822e-07
8.67863e-07
8.679e-07
8.67924e-07
8.67947e-07
8.58198e-07
8.60279e-07
8.6249e-07
8.63932e-07
8.65022e-07
8.65724e-07
8.66181e-07
8.6652e-07
8.66747e-07
8.66928e-07
8.67055e-07
8.67159e-07
8.67234e-07
8.67297e-07
8.67341e-07
8.67379e-07
8.67406e-07
8.67429e-07
8.67444e-07
8.67457e-07
8.67464e-07
8.67471e-07
8.67475e-07
8.67478e-07
8.6748e-07
8.6748e-07
8.67479e-07
8.67475e-07
8.58396e-07
8.60429e-07
8.62653e-07
8.64122e-07
8.65279e-07
8.66001e-07
8.6649e-07
8.66849e-07
8.67095e-07
8.67287e-07
8.67424e-07
8.67533e-07
8.67614e-07
8.67679e-07
8.67728e-07
8.67766e-07
8.67795e-07
8.67818e-07
8.67835e-07
8.67847e-07
8.67856e-07
8.67863e-07
8.67867e-07
8.6787e-07
8.67872e-07
8.67872e-07
8.67871e-07
8.67867e-07
8.67863e-07
8.67857e-07
8.67848e-07
8.67835e-07
8.67818e-07
8.67795e-07
8.67767e-07
8.67728e-07
8.6768e-07
8.67615e-07
8.67534e-07
8.67425e-07
8.5947e-07
8.61462e-07
8.6371e-07
8.65206e-07
8.66436e-07
8.67176e-07
8.677e-07
8.6808e-07
8.68344e-07
8.68547e-07
8.68694e-07
8.68808e-07
8.68895e-07
8.68962e-07
8.69015e-07
8.69054e-07
8.69085e-07
8.69108e-07
8.69126e-07
8.69139e-07
8.69149e-07
8.69155e-07
8.6916e-07
8.69163e-07
8.69165e-07
8.69165e-07
8.69163e-07
8.6916e-07
8.69156e-07
8.69149e-07
8.6914e-07
8.69127e-07
8.69109e-07
8.69086e-07
8.69055e-07
8.69015e-07
8.68963e-07
8.68896e-07
8.68809e-07
8.68695e-07
8.68548e-07
8.68345e-07
8.68081e-07
8.67701e-07
8.67177e-07
8.66437e-07
8.65207e-07
8.63711e-07
8.61463e-07
8.59472e-07
8.61416e-07
8.63373e-07
8.65654e-07
8.67178e-07
8.68486e-07
8.69245e-07
8.69803e-07
8.70204e-07
8.70486e-07
8.707e-07
8.70857e-07
8.70977e-07
8.7107e-07
8.71139e-07
8.71195e-07
8.71236e-07
8.71269e-07
8.71292e-07
8.71312e-07
8.71325e-07
8.71335e-07
8.71342e-07
8.71347e-07
8.7135e-07
8.71352e-07
8.71352e-07
8.7135e-07
8.71347e-07
8.71342e-07
8.71336e-07
8.71325e-07
8.71312e-07
8.71293e-07
8.71269e-07
8.71236e-07
8.71196e-07
8.7114e-07
8.7107e-07
8.70977e-07
8.70858e-07
8.70702e-07
8.70488e-07
8.70205e-07
8.69804e-07
8.69246e-07
8.68487e-07
8.67179e-07
8.65655e-07
8.63374e-07
8.61418e-07
8.64271e-07
8.66193e-07
8.68518e-07
8.70074e-07
8.71471e-07
8.72252e-07
8.72848e-07
8.73273e-07
8.73575e-07
8.73801e-07
8.73969e-07
8.74094e-07
8.74194e-07
8.74266e-07
8.74326e-07
8.74368e-07
8.74404e-07
8.74427e-07
8.74448e-07
8.74461e-07
8.74472e-07
8.74479e-07
8.74484e-07
8.74487e-07
8.74489e-07
8.74489e-07
8.74487e-07
8.74485e-07
8.74479e-07
8.74473e-07
8.74461e-07
8.74448e-07
8.74427e-07
8.74404e-07
8.74368e-07
8.74327e-07
8.74267e-07
8.74195e-07
8.74095e-07
8.7397e-07
8.73803e-07
8.73577e-07
8.73274e-07
8.72849e-07
8.72253e-07
8.71472e-07
8.70075e-07
8.68518e-07
8.66194e-07
8.64273e-07
8.67938e-07
8.69837e-07
8.72212e-07
8.73801e-07
8.75278e-07
8.7608e-07
8.76712e-07
8.77158e-07
8.77478e-07
8.77716e-07
8.77893e-07
8.78023e-07
8.78129e-07
8.78204e-07
8.78267e-07
8.7831e-07
8.78348e-07
8.78372e-07
8.78394e-07
8.78407e-07
8.78419e-07
8.78425e-07
8.78432e-07
8.78434e-07
8.78436e-07
8.78436e-07
8.78434e-07
8.78432e-07
8.78426e-07
8.78419e-07
8.78407e-07
8.78394e-07
8.78372e-07
8.78348e-07
8.7831e-07
8.78268e-07
8.78204e-07
8.7813e-07
8.78024e-07
8.77894e-07
8.77717e-07
8.7748e-07
8.7716e-07
8.76713e-07
8.76081e-07
8.75279e-07
8.73802e-07
8.72213e-07
8.69838e-07
8.67939e-07
8.72447e-07
8.7433e-07
8.76764e-07
8.78388e-07
8.79943e-07
8.80769e-07
8.81435e-07
8.81908e-07
8.8225e-07
8.82502e-07
8.82692e-07
8.82828e-07
8.82942e-07
8.83019e-07
8.83087e-07
8.83131e-07
8.83172e-07
8.83196e-07
8.8322e-07
8.83232e-07
8.83246e-07
8.83252e-07
8.83259e-07
8.83261e-07
8.83264e-07
8.83264e-07
8.83262e-07
8.83259e-07
8.83252e-07
8.83246e-07
8.83233e-07
8.8322e-07
8.83196e-07
8.83172e-07
8.83131e-07
8.83088e-07
8.83019e-07
8.82942e-07
8.82829e-07
8.82693e-07
8.82504e-07
8.82252e-07
8.81909e-07
8.81436e-07
8.8077e-07
8.79943e-07
8.78389e-07
8.76765e-07
8.74331e-07
8.72448e-07
8.77788e-07
8.79662e-07
8.82161e-07
8.83823e-07
8.85451e-07
8.86304e-07
8.87005e-07
8.875e-07
8.87859e-07
8.88122e-07
8.88321e-07
8.88463e-07
8.88582e-07
8.88661e-07
8.88734e-07
8.88778e-07
8.88821e-07
8.88845e-07
8.88871e-07
8.88883e-07
8.88897e-07
8.88903e-07
8.88911e-07
8.88913e-07
8.88916e-07
8.88916e-07
8.88913e-07
8.88911e-07
8.88904e-07
8.88898e-07
8.88883e-07
8.88871e-07
8.88845e-07
8.88821e-07
8.88778e-07
8.88734e-07
8.88662e-07
8.88582e-07
8.88463e-07
8.88322e-07
8.88124e-07
8.87861e-07
8.87502e-07
8.87006e-07
8.86305e-07
8.85452e-07
8.83824e-07
8.82162e-07
8.79663e-07
8.77789e-07
8.84042e-07
8.85898e-07
8.88473e-07
8.90178e-07
8.9189e-07
8.92774e-07
8.93517e-07
8.94039e-07
8.94418e-07
8.94694e-07
8.94904e-07
8.95051e-07
8.95177e-07
8.95259e-07
8.95336e-07
8.95381e-07
8.95427e-07
8.95451e-07
8.95478e-07
8.9549e-07
8.95506e-07
8.95512e-07
8.95519e-07
8.95522e-07
8.95524e-07
8.95525e-07
8.95522e-07
8.9552e-07
8.95512e-07
8.95506e-07
8.95491e-07
8.95478e-07
8.95451e-07
8.95427e-07
8.95381e-07
8.95336e-07
8.95259e-07
8.95177e-07
8.95052e-07
8.94905e-07
8.94696e-07
8.94419e-07
8.9404e-07
8.93518e-07
8.92775e-07
8.91891e-07
8.90179e-07
8.88473e-07
8.85899e-07
8.84043e-07
8.91225e-07
8.93089e-07
8.95739e-07
8.97491e-07
8.99265e-07
9.0018e-07
9.00959e-07
9.01502e-07
9.01896e-07
9.02184e-07
9.02401e-07
9.02554e-07
9.02685e-07
9.02769e-07
9.02849e-07
9.02895e-07
9.02943e-07
9.02967e-07
9.02996e-07
9.03008e-07
9.03024e-07
9.0303e-07
9.03038e-07
9.03041e-07
9.03043e-07
9.03043e-07
9.03041e-07
9.03039e-07
9.0303e-07
9.03025e-07
9.03008e-07
9.02996e-07
9.02967e-07
9.02943e-07
9.02895e-07
9.02849e-07
9.02769e-07
9.02685e-07
9.02554e-07
9.02402e-07
9.02185e-07
9.01897e-07
9.01503e-07
9.0096e-07
9.00181e-07
8.99266e-07
8.97491e-07
8.9574e-07
8.93091e-07
8.91227e-07
8.98971e-07
9.00844e-07
9.03576e-07
9.05373e-07
9.07202e-07
9.08151e-07
9.08964e-07
9.09528e-07
9.09935e-07
9.10234e-07
9.10459e-07
9.10616e-07
9.10752e-07
9.10839e-07
9.10922e-07
9.10968e-07
9.11018e-07
9.11043e-07
9.11073e-07
9.11085e-07
9.11102e-07
9.11107e-07
9.11116e-07
9.11119e-07
9.11121e-07
9.11121e-07
9.11119e-07
9.11117e-07
9.11108e-07
9.11102e-07
9.11085e-07
9.11073e-07
9.11043e-07
9.11018e-07
9.10968e-07
9.10922e-07
9.10839e-07
9.10753e-07
9.10617e-07
9.1046e-07
9.10236e-07
9.09937e-07
9.09529e-07
9.08964e-07
9.08152e-07
9.07203e-07
9.05373e-07
9.03577e-07
9.00845e-07
8.98972e-07
9.07461e-07
9.09349e-07
9.12167e-07
9.14013e-07
9.15888e-07
9.16872e-07
9.17718e-07
9.18303e-07
9.18723e-07
9.19032e-07
9.19264e-07
9.19425e-07
9.19566e-07
9.19654e-07
9.1974e-07
9.19787e-07
9.19839e-07
9.19864e-07
9.19895e-07
9.19907e-07
9.19925e-07
9.1993e-07
9.19939e-07
9.19941e-07
9.19944e-07
9.19944e-07
9.19942e-07
9.19939e-07
9.1993e-07
9.19925e-07
9.19907e-07
9.19895e-07
9.19864e-07
9.19839e-07
9.19787e-07
9.1974e-07
9.19654e-07
9.19566e-07
9.19425e-07
9.19265e-07
9.19033e-07
9.18724e-07
9.18304e-07
9.17719e-07
9.16872e-07
9.15888e-07
9.14013e-07
9.12168e-07
9.0935e-07
9.07463e-07
9.16669e-07
9.18576e-07
9.21485e-07
9.2338e-07
9.25292e-07
9.26315e-07
9.27189e-07
9.27796e-07
9.28227e-07
9.28546e-07
9.28784e-07
9.28948e-07
9.29094e-07
9.29184e-07
9.29272e-07
9.2932e-07
9.29374e-07
9.29399e-07
9.29431e-07
9.29443e-07
9.29461e-07
9.29467e-07
9.29476e-07
9.29478e-07
9.29481e-07
9.29482e-07
9.29478e-07
9.29476e-07
9.29467e-07
9.29462e-07
9.29443e-07
9.29431e-07
9.29399e-07
9.29374e-07
9.2932e-07
9.29272e-07
9.29183e-07
9.29094e-07
9.28949e-07
9.28785e-07
9.28548e-07
9.28228e-07
9.27797e-07
9.2719e-07
9.26316e-07
9.25292e-07
9.2338e-07
9.21486e-07
9.18577e-07
9.16671e-07
9.26761e-07
9.28698e-07
9.31723e-07
9.33682e-07
9.35636e-07
9.3671e-07
9.37616e-07
9.3825e-07
9.38694e-07
9.39026e-07
9.3927e-07
9.39439e-07
9.3959e-07
9.39682e-07
9.39774e-07
9.39822e-07
9.39878e-07
9.39903e-07
9.39937e-07
9.39948e-07
9.39968e-07
9.39973e-07
9.39983e-07
9.39985e-07
9.39988e-07
9.39988e-07
9.39985e-07
9.39983e-07
9.39973e-07
9.39968e-07
9.39949e-07
9.39937e-07
9.39903e-07
9.39878e-07
9.39822e-07
9.39774e-07
9.39682e-07
9.3959e-07
9.3944e-07
9.39271e-07
9.39027e-07
9.38695e-07
9.38252e-07
9.37617e-07
9.3671e-07
9.35636e-07
9.33682e-07
9.31724e-07
9.28699e-07
9.26762e-07
9.37633e-07
9.39608e-07
9.42723e-07
9.44732e-07
9.46707e-07
9.4782e-07
9.48749e-07
9.49405e-07
9.49855e-07
9.50196e-07
9.50444e-07
9.50616e-07
9.5077e-07
9.50863e-07
9.50958e-07
9.51006e-07
9.51064e-07
9.51089e-07
9.51123e-07
9.51135e-07
9.51155e-07
9.5116e-07
9.5117e-07
9.51172e-07
9.51176e-07
9.51176e-07
9.51172e-07
9.51171e-07
9.5116e-07
9.51155e-07
9.51135e-07
9.51123e-07
9.51089e-07
9.51064e-07
9.51006e-07
9.50957e-07
9.50863e-07
9.5077e-07
9.50617e-07
9.50445e-07
9.50198e-07
9.49856e-07
9.49406e-07
9.4875e-07
9.4782e-07
9.46708e-07
9.44733e-07
9.42724e-07
9.39609e-07
9.37635e-07
9.48795e-07
9.50802e-07
9.54013e-07
9.56063e-07
9.58063e-07
9.59208e-07
9.60161e-07
9.60834e-07
9.6129e-07
9.6164e-07
9.6189e-07
9.62065e-07
9.62222e-07
9.62316e-07
9.62413e-07
9.62462e-07
9.62521e-07
9.62546e-07
9.62581e-07
9.62593e-07
9.62613e-07
9.62618e-07
9.62629e-07
9.6263e-07
9.62634e-07
9.62634e-07
9.62631e-07
9.62629e-07
9.62618e-07
9.62613e-07
9.62593e-07
9.62581e-07
9.62546e-07
9.62521e-07
9.62462e-07
9.62412e-07
9.62316e-07
9.62222e-07
9.62066e-07
9.61891e-07
9.61642e-07
9.61291e-07
9.60836e-07
9.60162e-07
9.59208e-07
9.58063e-07
9.56064e-07
9.54014e-07
9.50803e-07
9.48796e-07
9.60797e-07
9.62826e-07
9.66135e-07
9.68222e-07
9.70249e-07
9.71431e-07
9.72406e-07
9.73098e-07
9.73563e-07
9.73924e-07
9.74177e-07
9.74355e-07
9.74515e-07
9.74611e-07
9.74709e-07
9.74759e-07
9.74819e-07
9.74844e-07
9.7488e-07
9.74891e-07
9.74912e-07
9.74917e-07
9.74928e-07
9.7493e-07
9.74934e-07
9.74934e-07
9.7493e-07
9.74929e-07
9.74918e-07
9.74913e-07
9.74892e-07
9.7488e-07
9.74844e-07
9.74819e-07
9.74758e-07
9.74709e-07
9.7461e-07
9.74515e-07
9.74355e-07
9.74178e-07
9.73926e-07
9.73565e-07
9.731e-07
9.72407e-07
9.71432e-07
9.7025e-07
9.68223e-07
9.66136e-07
9.62827e-07
9.60799e-07
9.73012e-07
9.75075e-07
9.78479e-07
9.80593e-07
9.82645e-07
9.83856e-07
9.84835e-07
9.85542e-07
9.86014e-07
9.8638e-07
9.86634e-07
9.86814e-07
9.86976e-07
9.87072e-07
9.87172e-07
9.87222e-07
9.87283e-07
9.87307e-07
9.87345e-07
9.87356e-07
9.87377e-07
9.87382e-07
9.87393e-07
9.87395e-07
9.87398e-07
9.87399e-07
9.87395e-07
9.87393e-07
9.87382e-07
9.87378e-07
9.87356e-07
9.87345e-07
9.87307e-07
9.87283e-07
9.87221e-07
9.87172e-07
9.87072e-07
9.86976e-07
9.86814e-07
9.86635e-07
9.86382e-07
9.86015e-07
9.85544e-07
9.84837e-07
9.83857e-07
9.82645e-07
9.80593e-07
9.7848e-07
9.75076e-07
9.73013e-07
9.85971e-07
9.88064e-07
9.9157e-07
9.93707e-07
9.95793e-07
9.97034e-07
9.98022e-07
9.98741e-07
9.99222e-07
9.99595e-07
9.99851e-07
1.00003e-06
1.0002e-06
1.00029e-06
1.0004e-06
1.00044e-06
1.00051e-06
1.00053e-06
1.00057e-06
1.00058e-06
1.0006e-06
1.00061e-06
1.00062e-06
1.00062e-06
1.00062e-06
1.00062e-06
1.00062e-06
1.00062e-06
1.00061e-06
1.0006e-06
1.00058e-06
1.00057e-06
1.00053e-06
1.00051e-06
1.00044e-06
1.00039e-06
1.00029e-06
1.0002e-06
1.00003e-06
9.99852e-07
9.99597e-07
9.99224e-07
9.98743e-07
9.98023e-07
9.97034e-07
9.95793e-07
9.93707e-07
9.91571e-07
9.88065e-07
9.85973e-07
9.9939e-07
1.00153e-06
1.00472e-06
1.00687e-06
1.00898e-06
1.01023e-06
1.01122e-06
1.01195e-06
1.01243e-06
1.01281e-06
1.01306e-06
1.01325e-06
1.01341e-06
1.01351e-06
1.01361e-06
1.01366e-06
1.01372e-06
1.01375e-06
1.01379e-06
1.0138e-06
1.01382e-06
1.01382e-06
1.01383e-06
1.01384e-06
1.01384e-06
1.01384e-06
1.01384e-06
1.01383e-06
1.01382e-06
1.01382e-06
1.0138e-06
1.01379e-06
1.01375e-06
1.01372e-06
1.01366e-06
1.01361e-06
1.01351e-06
1.01341e-06
1.01325e-06
1.01307e-06
1.01281e-06
1.01244e-06
1.01195e-06
1.01122e-06
1.01023e-06
1.00898e-06
1.00687e-06
1.00473e-06
1.00153e-06
9.99392e-07
1.01274e-06
1.01491e-06
1.01817e-06
1.02031e-06
1.02245e-06
1.0237e-06
1.0247e-06
1.02542e-06
1.02591e-06
1.02629e-06
1.02654e-06
1.02672e-06
1.02689e-06
1.02698e-06
1.02709e-06
1.02714e-06
1.0272e-06
1.02722e-06
1.02726e-06
1.02727e-06
1.02729e-06
1.0273e-06
1.02731e-06
1.02731e-06
1.02732e-06
1.02732e-06
1.02731e-06
1.02731e-06
1.0273e-06
1.02729e-06
1.02727e-06
1.02726e-06
1.02722e-06
1.0272e-06
1.02713e-06
1.02709e-06
1.02698e-06
1.02689e-06
1.02672e-06
1.02654e-06
1.02629e-06
1.02591e-06
1.02542e-06
1.0247e-06
1.02371e-06
1.02245e-06
1.02031e-06
1.01817e-06
1.01491e-06
1.01274e-06
1.02657e-06
1.02882e-06
1.03215e-06
1.03428e-06
1.03646e-06
1.03771e-06
1.03871e-06
1.03943e-06
1.03992e-06
1.0403e-06
1.04055e-06
1.04073e-06
1.0409e-06
1.04099e-06
1.0411e-06
1.04115e-06
1.04121e-06
1.04123e-06
1.04127e-06
1.04128e-06
1.04131e-06
1.04131e-06
1.04132e-06
1.04132e-06
1.04133e-06
1.04133e-06
1.04132e-06
1.04132e-06
1.04131e-06
1.04131e-06
1.04128e-06
1.04127e-06
1.04123e-06
1.04121e-06
1.04115e-06
1.0411e-06
1.04099e-06
1.0409e-06
1.04073e-06
1.04055e-06
1.0403e-06
1.03992e-06
1.03943e-06
1.03871e-06
1.03771e-06
1.03646e-06
1.03428e-06
1.03215e-06
1.02883e-06
1.02657e-06
1.04071e-06
1.0426e-06
1.04598e-06
1.04809e-06
1.05028e-06
1.05152e-06
1.05252e-06
1.05323e-06
1.05373e-06
1.05409e-06
1.05435e-06
1.05453e-06
1.05469e-06
1.05478e-06
1.05489e-06
1.05494e-06
1.055e-06
1.05502e-06
1.05506e-06
1.05507e-06
1.05509e-06
1.0551e-06
1.05511e-06
1.05511e-06
1.05512e-06
1.05512e-06
1.05511e-06
1.05511e-06
1.0551e-06
1.05509e-06
1.05507e-06
1.05506e-06
1.05502e-06
1.055e-06
1.05493e-06
1.05489e-06
1.05478e-06
1.05469e-06
1.05453e-06
1.05435e-06
1.05409e-06
1.05373e-06
1.05323e-06
1.05252e-06
1.05152e-06
1.05028e-06
1.04809e-06
1.04598e-06
1.0426e-06
1.04071e-06
1.05453e-06
1.05644e-06
1.05987e-06
1.06196e-06
1.06414e-06
1.06538e-06
1.06636e-06
1.06706e-06
1.06757e-06
1.06793e-06
1.06819e-06
1.06838e-06
1.06854e-06
1.06864e-06
1.06874e-06
1.06879e-06
1.06886e-06
1.06888e-06
1.06892e-06
1.06893e-06
1.06895e-06
1.06896e-06
1.06897e-06
1.06897e-06
1.06897e-06
1.06897e-06
1.06897e-06
1.06897e-06
1.06896e-06
1.06895e-06
1.06893e-06
1.06892e-06
1.06888e-06
1.06886e-06
1.06879e-06
1.06874e-06
1.06864e-06
1.06854e-06
1.06838e-06
1.0682e-06
1.06794e-06
1.06757e-06
1.06707e-06
1.06636e-06
1.06538e-06
1.06414e-06
1.06196e-06
1.05987e-06
1.05644e-06
1.05454e-06
1.06861e-06
1.07055e-06
1.07404e-06
1.07613e-06
1.07829e-06
1.07955e-06
1.08051e-06
1.08121e-06
1.08171e-06
1.08207e-06
1.08233e-06
1.08251e-06
1.08267e-06
1.08277e-06
1.08287e-06
1.08292e-06
1.08298e-06
1.08301e-06
1.08305e-06
1.08306e-06
1.08308e-06
1.08308e-06
1.0831e-06
1.0831e-06
1.0831e-06
1.0831e-06
1.0831e-06
1.0831e-06
1.08308e-06
1.08308e-06
1.08306e-06
1.08305e-06
1.08301e-06
1.08298e-06
1.08292e-06
1.08287e-06
1.08277e-06
1.08267e-06
1.08251e-06
1.08233e-06
1.08207e-06
1.08171e-06
1.08121e-06
1.08051e-06
1.07955e-06
1.07829e-06
1.07613e-06
1.07404e-06
1.07055e-06
1.06861e-06
1.08275e-06
1.08471e-06
1.08785e-06
1.08991e-06
1.09202e-06
1.09327e-06
1.09421e-06
1.0949e-06
1.09539e-06
1.09575e-06
1.096e-06
1.09618e-06
1.09634e-06
1.09643e-06
1.09654e-06
1.09658e-06
1.09665e-06
1.09667e-06
1.09671e-06
1.09672e-06
1.09674e-06
1.09674e-06
1.09676e-06
1.09676e-06
1.09676e-06
1.09676e-06
1.09676e-06
1.09676e-06
1.09674e-06
1.09674e-06
1.09672e-06
1.09671e-06
1.09667e-06
1.09665e-06
1.09658e-06
1.09653e-06
1.09643e-06
1.09634e-06
1.09618e-06
1.096e-06
1.09575e-06
1.0954e-06
1.09491e-06
1.09421e-06
1.09327e-06
1.09202e-06
1.08991e-06
1.08784e-06
1.08471e-06
1.08276e-06
1.09637e-06
1.09832e-06
1.10157e-06
1.10364e-06
1.10577e-06
1.10703e-06
1.10795e-06
1.10864e-06
1.10913e-06
1.10948e-06
1.10973e-06
1.10991e-06
1.11007e-06
1.11016e-06
1.11026e-06
1.11031e-06
1.11037e-06
1.11039e-06
1.11043e-06
1.11044e-06
1.11046e-06
1.11047e-06
1.11048e-06
1.11048e-06
1.11048e-06
1.11048e-06
1.11048e-06
1.11048e-06
1.11047e-06
1.11046e-06
1.11044e-06
1.11043e-06
1.11039e-06
1.11037e-06
1.11031e-06
1.11026e-06
1.11016e-06
1.11007e-06
1.10991e-06
1.10973e-06
1.10948e-06
1.10913e-06
1.10864e-06
1.10795e-06
1.10703e-06
1.10577e-06
1.10364e-06
1.10157e-06
1.09833e-06
1.09637e-06
1.11007e-06
1.1117e-06
1.11494e-06
1.11697e-06
1.11906e-06
1.1203e-06
1.12119e-06
1.12187e-06
1.12234e-06
1.12269e-06
1.12293e-06
1.12311e-06
1.12326e-06
1.12335e-06
1.12345e-06
1.12349e-06
1.12356e-06
1.12358e-06
1.12362e-06
1.12362e-06
1.12365e-06
1.12365e-06
1.12366e-06
1.12366e-06
1.12367e-06
1.12367e-06
1.12366e-06
1.12366e-06
1.12365e-06
1.12365e-06
1.12362e-06
1.12362e-06
1.12358e-06
1.12355e-06
1.12349e-06
1.12345e-06
1.12335e-06
1.12326e-06
1.12311e-06
1.12294e-06
1.12269e-06
1.12235e-06
1.12187e-06
1.1212e-06
1.1203e-06
1.11906e-06
1.11697e-06
1.11494e-06
1.1117e-06
1.11007e-06
1.12316e-06
1.12477e-06
1.12799e-06
1.12996e-06
1.13204e-06
1.1333e-06
1.13417e-06
1.13484e-06
1.13531e-06
1.13565e-06
1.13589e-06
1.13606e-06
1.13621e-06
1.1363e-06
1.1364e-06
1.13644e-06
1.13651e-06
1.13653e-06
1.13657e-06
1.13657e-06
1.1366e-06
1.1366e-06
1.13661e-06
1.13661e-06
1.13662e-06
1.13662e-06
1.13661e-06
1.13661e-06
1.1366e-06
1.1366e-06
1.13657e-06
1.13656e-06
1.13653e-06
1.13651e-06
1.13644e-06
1.1364e-06
1.1363e-06
1.13621e-06
1.13606e-06
1.13589e-06
1.13565e-06
1.13531e-06
1.13484e-06
1.13417e-06
1.1333e-06
1.13204e-06
1.12996e-06
1.12799e-06
1.12477e-06
1.12316e-06
1.13613e-06
1.13774e-06
1.14065e-06
1.14254e-06
1.14461e-06
1.14583e-06
1.14666e-06
1.14732e-06
1.14777e-06
1.1481e-06
1.14833e-06
1.1485e-06
1.14864e-06
1.14873e-06
1.14883e-06
1.14887e-06
1.14893e-06
1.14895e-06
1.14899e-06
1.149e-06
1.14902e-06
1.14902e-06
1.14903e-06
1.14903e-06
1.14904e-06
1.14904e-06
1.14903e-06
1.14903e-06
1.14902e-06
1.14902e-06
1.149e-06
1.14899e-06
1.14895e-06
1.14893e-06
1.14887e-06
1.14882e-06
1.14873e-06
1.14864e-06
1.1485e-06
1.14834e-06
1.14811e-06
1.14777e-06
1.14732e-06
1.14666e-06
1.14583e-06
1.14461e-06
1.14254e-06
1.14065e-06
1.13774e-06
1.13613e-06
1.14842e-06
1.15001e-06
1.15293e-06
1.15477e-06
1.15685e-06
1.15807e-06
1.15887e-06
1.15951e-06
1.15995e-06
1.16028e-06
1.1605e-06
1.16067e-06
1.16081e-06
1.16089e-06
1.16099e-06
1.16103e-06
1.16109e-06
1.16111e-06
1.16114e-06
1.16115e-06
1.16117e-06
1.16118e-06
1.16119e-06
1.16119e-06
1.16119e-06
1.16119e-06
1.16119e-06
1.16119e-06
1.16118e-06
1.16117e-06
1.16115e-06
1.16114e-06
1.16111e-06
1.16109e-06
1.16103e-06
1.16098e-06
1.16089e-06
1.16081e-06
1.16067e-06
1.16051e-06
1.16028e-06
1.15995e-06
1.15952e-06
1.15887e-06
1.15807e-06
1.15685e-06
1.15477e-06
1.15292e-06
1.15001e-06
1.14842e-06
1.16051e-06
1.16208e-06
1.16495e-06
1.16671e-06
1.16844e-06
1.16963e-06
1.17038e-06
1.17101e-06
1.17142e-06
1.17174e-06
1.17196e-06
1.17211e-06
1.17225e-06
1.17233e-06
1.17242e-06
1.17246e-06
1.17252e-06
1.17254e-06
1.17257e-06
1.17258e-06
1.1726e-06
1.17261e-06
1.17262e-06
1.17262e-06
1.17262e-06
1.17262e-06
1.17262e-06
1.17262e-06
1.17261e-06
1.1726e-06
1.17258e-06
1.17257e-06
1.17254e-06
1.17252e-06
1.17246e-06
1.17242e-06
1.17233e-06
1.17225e-06
1.17211e-06
1.17196e-06
1.17175e-06
1.17142e-06
1.17101e-06
1.17038e-06
1.16963e-06
1.16844e-06
1.16671e-06
1.16495e-06
1.16208e-06
1.16051e-06
1.17179e-06
1.17332e-06
1.17612e-06
1.17779e-06
1.17947e-06
1.18063e-06
1.18137e-06
1.18199e-06
1.18238e-06
1.1827e-06
1.18291e-06
1.18306e-06
1.18319e-06
1.18327e-06
1.18336e-06
1.1834e-06
1.18345e-06
1.18347e-06
1.18351e-06
1.18352e-06
1.18354e-06
1.18354e-06
1.18355e-06
1.18355e-06
1.18355e-06
1.18355e-06
1.18355e-06
1.18355e-06
1.18354e-06
1.18354e-06
1.18352e-06
1.18351e-06
1.18347e-06
1.18345e-06
1.1834e-06
1.18336e-06
1.18327e-06
1.18319e-06
1.18306e-06
1.18291e-06
1.1827e-06
1.18239e-06
1.18199e-06
1.18137e-06
1.18063e-06
1.17947e-06
1.17779e-06
1.17612e-06
1.17332e-06
1.17179e-06
1.18265e-06
1.18412e-06
1.18671e-06
1.18829e-06
1.18989e-06
1.19102e-06
1.19172e-06
1.19231e-06
1.19269e-06
1.19299e-06
1.19319e-06
1.19334e-06
1.19346e-06
1.19354e-06
1.19362e-06
1.19366e-06
1.19371e-06
1.19373e-06
1.19376e-06
1.19377e-06
1.19379e-06
1.1938e-06
1.19381e-06
1.19381e-06
1.19381e-06
1.19381e-06
1.19381e-06
1.19381e-06
1.1938e-06
1.19379e-06
1.19377e-06
1.19376e-06
1.19373e-06
1.19371e-06
1.19366e-06
1.19362e-06
1.19354e-06
1.19346e-06
1.19334e-06
1.19319e-06
1.19299e-06
1.19269e-06
1.19231e-06
1.19172e-06
1.19102e-06
1.18989e-06
1.18829e-06
1.18671e-06
1.18412e-06
1.18265e-06
1.19274e-06
1.19417e-06
1.19666e-06
1.19816e-06
1.1997e-06
1.20078e-06
1.20144e-06
1.20203e-06
1.20239e-06
1.20269e-06
1.20289e-06
1.20303e-06
1.20315e-06
1.20323e-06
1.20331e-06
1.20335e-06
1.2034e-06
1.20342e-06
1.20345e-06
1.20346e-06
1.20348e-06
1.20348e-06
1.20349e-06
1.20349e-06
1.2035e-06
1.2035e-06
1.20349e-06
1.20349e-06
1.20348e-06
1.20348e-06
1.20346e-06
1.20345e-06
1.20342e-06
1.2034e-06
1.20335e-06
1.20331e-06
1.20323e-06
1.20315e-06
1.20303e-06
1.20289e-06
1.2027e-06
1.2024e-06
1.20203e-06
1.20144e-06
1.20078e-06
1.1997e-06
1.19816e-06
1.19665e-06
1.19418e-06
1.19274e-06
1.20219e-06
1.20359e-06
1.20596e-06
1.2074e-06
1.20885e-06
1.20989e-06
1.21052e-06
1.21107e-06
1.21142e-06
1.21171e-06
1.21189e-06
1.21203e-06
1.21215e-06
1.21222e-06
1.2123e-06
1.21233e-06
1.21238e-06
1.2124e-06
1.21243e-06
1.21244e-06
1.21246e-06
1.21246e-06
1.21247e-06
1.21247e-06
1.21248e-06
1.21248e-06
1.21247e-06
1.21247e-06
1.21246e-06
1.21246e-06
1.21244e-06
1.21243e-06
1.2124e-06
1.21238e-06
1.21233e-06
1.2123e-06
1.21222e-06
1.21214e-06
1.21203e-06
1.2119e-06
1.21171e-06
1.21142e-06
1.21107e-06
1.21052e-06
1.20988e-06
1.20886e-06
1.2074e-06
1.20596e-06
1.20359e-06
1.2022e-06
1.211e-06
1.21235e-06
1.21461e-06
1.21598e-06
1.21736e-06
1.21834e-06
1.21894e-06
1.21946e-06
1.21979e-06
1.22007e-06
1.22024e-06
1.22037e-06
1.22048e-06
1.22055e-06
1.22063e-06
1.22066e-06
1.22071e-06
1.22073e-06
1.22076e-06
1.22077e-06
1.22078e-06
1.22079e-06
1.2208e-06
1.2208e-06
1.2208e-06
1.2208e-06
1.2208e-06
1.2208e-06
1.22079e-06
1.22078e-06
1.22077e-06
1.22076e-06
1.22073e-06
1.22071e-06
1.22066e-06
1.22063e-06
1.22055e-06
1.22048e-06
1.22037e-06
1.22025e-06
1.22007e-06
1.21979e-06
1.21946e-06
1.21894e-06
1.21834e-06
1.21736e-06
1.21598e-06
1.21461e-06
1.21235e-06
1.211e-06
1.21916e-06
1.22045e-06
1.22261e-06
1.22391e-06
1.2252e-06
1.22614e-06
1.2267e-06
1.22719e-06
1.22751e-06
1.22777e-06
1.22793e-06
1.22806e-06
1.22816e-06
1.22823e-06
1.2283e-06
1.22834e-06
1.22838e-06
1.2284e-06
1.22843e-06
1.22843e-06
1.22845e-06
1.22846e-06
1.22846e-06
1.22847e-06
1.22847e-06
1.22847e-06
1.22847e-06
1.22846e-06
1.22846e-06
1.22845e-06
1.22843e-06
1.22843e-06
1.2284e-06
1.22838e-06
1.22834e-06
1.2283e-06
1.22823e-06
1.22816e-06
1.22806e-06
1.22794e-06
1.22777e-06
1.22751e-06
1.22719e-06
1.2267e-06
1.22614e-06
1.2252e-06
1.22391e-06
1.22261e-06
1.22046e-06
1.21916e-06
1.22668e-06
1.22794e-06
1.22996e-06
1.23118e-06
1.2324e-06
1.23328e-06
1.23381e-06
1.23428e-06
1.23457e-06
1.23482e-06
1.23498e-06
1.2351e-06
1.2352e-06
1.23526e-06
1.23533e-06
1.23536e-06
1.2354e-06
1.23542e-06
1.23545e-06
1.23545e-06
1.23547e-06
1.23547e-06
1.23548e-06
1.23548e-06
1.23549e-06
1.23549e-06
1.23548e-06
1.23548e-06
1.23547e-06
1.23547e-06
1.23545e-06
1.23545e-06
1.23542e-06
1.2354e-06
1.23536e-06
1.23533e-06
1.23526e-06
1.23519e-06
1.2351e-06
1.23498e-06
1.23482e-06
1.23457e-06
1.23428e-06
1.23381e-06
1.23328e-06
1.2324e-06
1.23118e-06
1.22996e-06
1.22794e-06
1.22668e-06
1.23354e-06
1.23476e-06
1.23665e-06
1.23781e-06
1.23895e-06
1.23978e-06
1.24028e-06
1.24072e-06
1.241e-06
1.24123e-06
1.24138e-06
1.24149e-06
1.24159e-06
1.24165e-06
1.24171e-06
1.24174e-06
1.24178e-06
1.2418e-06
1.24183e-06
1.24183e-06
1.24185e-06
1.24185e-06
1.24186e-06
1.24186e-06
1.24187e-06
1.24187e-06
1.24186e-06
1.24186e-06
1.24185e-06
1.24185e-06
1.24183e-06
1.24183e-06
1.2418e-06
1.24178e-06
1.24174e-06
1.24171e-06
1.24165e-06
1.24159e-06
1.24149e-06
1.24138e-06
1.24123e-06
1.241e-06
1.24072e-06
1.24028e-06
1.23978e-06
1.23895e-06
1.23781e-06
1.23665e-06
1.23476e-06
1.23354e-06
1.23977e-06
1.24094e-06
1.24272e-06
1.24381e-06
1.24488e-06
1.24565e-06
1.24613e-06
1.24654e-06
1.2468e-06
1.24702e-06
1.24716e-06
)
;

boundaryField
{
    fuel
    {
        type            fixedValue;
        value           nonuniform 0();
    }
    wall
    {
        type            zeroGradient;
    }
    outlet
    {
        type            zeroGradient;
    }
    frontAndBack
    {
        type            empty;
    }
    procBoundary2to0
    {
        type            processor;
        value           nonuniform List<scalar> 
53
(
8.60455e-07
8.62649e-07
8.64868e-07
8.66259e-07
8.67231e-07
8.67897e-07
8.68287e-07
8.68587e-07
8.68777e-07
8.68939e-07
8.69044e-07
8.69139e-07
8.69202e-07
8.6926e-07
8.69297e-07
8.69334e-07
8.69355e-07
8.69378e-07
8.6796e-07
8.6796e-07
8.67973e-07
8.6798e-07
8.67987e-07
8.6799e-07
8.67994e-07
8.67995e-07
8.67995e-07
8.67994e-07
8.67991e-07
8.67472e-07
8.67472e-07
8.67465e-07
8.67457e-07
8.67444e-07
8.67429e-07
8.67406e-07
8.6738e-07
8.67342e-07
8.67297e-07
8.67234e-07
8.6716e-07
8.67056e-07
8.67288e-07
8.67288e-07
8.67096e-07
8.6685e-07
8.66491e-07
8.66001e-07
8.6528e-07
8.64122e-07
8.62654e-07
8.6043e-07
8.58397e-07
)
;
    }
    procBoundary2to3
    {
        type            processor;
        value           nonuniform List<scalar> 
51
(
1.24727e-06
1.24736e-06
1.24741e-06
1.24747e-06
1.2475e-06
1.24754e-06
1.24756e-06
1.24758e-06
1.24759e-06
1.24761e-06
1.24761e-06
1.24762e-06
1.24762e-06
1.24762e-06
1.24762e-06
1.24762e-06
1.24762e-06
1.24761e-06
1.24761e-06
1.24759e-06
1.24758e-06
1.24756e-06
1.24754e-06
1.2475e-06
1.24747e-06
1.24741e-06
1.24735e-06
1.24727e-06
1.24716e-06
1.24702e-06
1.2468e-06
1.24654e-06
1.24613e-06
1.24565e-06
1.24488e-06
1.24381e-06
1.24272e-06
1.24094e-06
1.23977e-06
1.24539e-06
1.24651e-06
1.24817e-06
1.2492e-06
1.2502e-06
1.25092e-06
1.25136e-06
1.25175e-06
1.25199e-06
1.2522e-06
1.24727e-06
1.25233e-06
)
;
    }
}


// ************************************************************************* //
