/*--------------------------------*- C++ -*----------------------------------*\
| =========                 |                                                 |
| \\      /  F ield         | OpenFOAM: The Open Source CFD Toolbox           |
|  \\    /   O peration     | Version:  dev                                   |
|   \\  /    A nd           | Web:      www.OpenFOAM.org                      |
|    \\/     M anipulation  |                                                 |
\*---------------------------------------------------------------------------*/
FoamFile
{
    version     2.0;
    format      ascii;
    class       volScalarField;
    location    "0.08";
    object      A2-2;
}
// * * * * * * * * * * * * * * * * * * * * * * * * * * * * * * * * * * * * * //

dimensions      [0 0 0 0 0 0 0];

internalField   nonuniform List<scalar> 
250
(
1.18792e-10
8.34221e-08
6.79999e-08
6.67122e-08
6.65176e-08
6.64894e-08
6.64686e-08
6.64581e-08
6.64768e-08
8.81461e-11
6.5906e-08
4.14526e-08
4.00344e-08
3.98295e-08
3.97918e-08
3.97804e-08
3.97759e-08
3.97761e-08
5.91746e-11
3.98884e-08
2.06469e-08
1.96571e-08
1.94909e-08
1.94642e-08
1.94527e-08
1.94553e-08
1.9443e-08
3.95388e-11
2.33661e-08
1.04507e-08
9.81474e-09
9.68334e-09
9.66907e-09
9.65769e-09
9.66136e-09
9.64108e-09
2.78276e-11
1.41418e-08
5.72526e-09
5.31167e-09
5.21277e-09
5.20894e-09
5.19878e-09
5.2023e-09
5.16752e-09
2.30938e-11
8.21665e-09
3.44636e-09
3.1337e-09
3.04498e-09
3.02994e-09
3.02532e-09
3.0222e-09
3.04398e-09
2.31015e-11
5.35567e-09
2.26829e-09
2.02907e-09
1.96834e-09
1.95793e-09
1.95533e-09
1.95296e-09
1.96385e-09
2.85943e-11
3.68682e-09
1.61098e-09
1.41455e-09
1.32576e-09
1.31111e-09
1.3126e-09
1.30863e-09
1.31151e-09
4.49195e-11
2.68109e-09
1.20368e-09
1.02316e-09
9.6913e-10
9.54887e-10
9.58402e-10
9.54095e-10
9.51667e-10
8.20791e-11
1.96439e-09
9.25186e-10
7.86364e-10
7.43458e-10
7.29092e-10
7.3412e-10
7.29079e-10
7.22016e-10
1.47142e-10
1.53946e-09
7.40298e-10
6.2161e-10
5.8188e-10
5.65001e-10
5.7167e-10
5.65421e-10
5.69287e-10
5.5208e-10
2.366e-10
1.22563e-09
6.24761e-10
4.95906e-10
4.65104e-10
4.48124e-10
4.55125e-10
4.48627e-10
4.55991e-10
4.43226e-10
3.34157e-10
1.04294e-09
5.30199e-10
4.05976e-10
3.81775e-10
3.65028e-10
3.71881e-10
3.65475e-10
3.71706e-10
3.61943e-10
4.27426e-10
9.2065e-10
4.58914e-10
3.39882e-10
3.20522e-10
3.0433e-10
3.10758e-10
3.04697e-10
3.10041e-10
3.01177e-10
5.16425e-10
8.28426e-10
4.03629e-10
2.90098e-10
2.7426e-10
2.5887e-10
2.64749e-10
2.59161e-10
2.63754e-10
2.56211e-10
6.1838e-10
7.67103e-10
3.59555e-10
2.51728e-10
2.38436e-10
2.24011e-10
2.29308e-10
2.24231e-10
2.28168e-10
2.21948e-10
7.5956e-10
7.16895e-10
3.23451e-10
2.21519e-10
2.10056e-10
1.96694e-10
2.0142e-10
1.96844e-10
2.00209e-10
1.95151e-10
9.64334e-10
6.78036e-10
2.93163e-10
1.97285e-10
1.87128e-10
1.74881e-10
1.79061e-10
1.74964e-10
1.77831e-10
1.73737e-10
1.24849e-09
6.53861e-10
2.67215e-10
1.77544e-10
1.68305e-10
1.57199e-10
1.60857e-10
1.5722e-10
1.59653e-10
1.56345e-10
1.61409e-09
6.34929e-10
2.47376e-10
1.61286e-10
1.52668e-10
1.42721e-10
1.45872e-10
1.42688e-10
1.44734e-10
1.42068e-10
2.04494e-09
6.19992e-10
2.29591e-10
1.47794e-10
1.39584e-10
1.30817e-10
1.33464e-10
1.30739e-10
1.3243e-10
1.303e-10
2.50577e-09
6.0717e-10
2.13163e-10
1.36574e-10
1.28619e-10
1.21066e-10
1.23194e-10
1.20953e-10
1.22302e-10
1.20637e-10
2.94864e-09
5.9519e-10
1.98943e-10
1.28512e-10
1.20631e-10
1.14107e-10
1.15814e-10
1.13964e-10
1.15057e-10
1.13732e-10
3.32458e-09
5.82831e-10
1.86687e-10
1.21839e-10
1.1423e-10
1.08468e-10
1.09817e-10
1.08306e-10
1.09173e-10
1.08119e-10
3.59483e-09
5.67638e-10
1.77437e-10
1.1731e-10
1.09611e-10
1.04887e-10
1.05777e-10
1.04704e-10
1.05309e-10
1.04544e-10
3.73759e-09
5.50078e-10
1.69951e-10
1.14633e-10
1.06717e-10
1.03097e-10
1.03482e-10
1.02894e-10
1.03216e-10
1.02739e-10
)
;

boundaryField
{
    fuel
    {
        type            fixedValue;
        value           uniform 0;
    }
    wall
    {
        type            zeroGradient;
    }
    outlet
    {
        type            zeroGradient;
    }
    frontAndBack
    {
        type            empty;
    }
    procBoundary2to0
    {
        type            processor;
        value           nonuniform List<scalar> 
12
(
1.05072e-10
3.7453e-09
5.29653e-10
1.64566e-10
1.13964e-10
1.0568e-10
1.03268e-10
1.03082e-10
1.03042e-10
1.03047e-10
1.03138e-10
1.02872e-10
)
;
    }
    procBoundary2to3
    {
        type            processor;
        value           nonuniform List<scalar> 
25
(
6.64612e-08
3.97757e-08
1.94471e-08
9.64376e-09
5.16679e-09
3.03734e-09
1.94243e-09
1.31971e-09
9.45714e-10
7.09991e-10
7.09991e-10
5.67575e-10
4.50571e-10
3.6727e-10
3.06381e-10
2.60742e-10
2.257e-10
1.98192e-10
1.76184e-10
1.5831e-10
1.43646e-10
1.31564e-10
1.21639e-10
1.14548e-10
1.08786e-10
)
;
    }
}


// ************************************************************************* //
