/*--------------------------------*- C++ -*----------------------------------*\
| =========                 |                                                 |
| \\      /  F ield         | OpenFOAM: The Open Source CFD Toolbox           |
|  \\    /   O peration     | Version:  dev                                   |
|   \\  /    A nd           | Web:      www.OpenFOAM.org                      |
|    \\/     M anipulation  |                                                 |
\*---------------------------------------------------------------------------*/
FoamFile
{
    version     2.0;
    format      ascii;
    class       volScalarField;
    location    "0.08";
    object      A2R5-;
}
// * * * * * * * * * * * * * * * * * * * * * * * * * * * * * * * * * * * * * //

dimensions      [0 0 0 0 0 0 0];

internalField   nonuniform List<scalar> 
250
(
7.49866e-10
2.12878e-08
1.67999e-08
1.59831e-08
1.58623e-08
1.58493e-08
1.58464e-08
1.58466e-08
1.58443e-08
1.69683e-09
3.80179e-08
2.76897e-08
2.58461e-08
2.55719e-08
2.55421e-08
2.55336e-08
2.55354e-08
2.55296e-08
2.0062e-09
4.04942e-08
2.83492e-08
2.60447e-08
2.56893e-08
2.56541e-08
2.5642e-08
2.56446e-08
2.56378e-08
1.7489e-09
3.78052e-08
2.595e-08
2.34899e-08
2.30967e-08
2.30601e-08
2.3047e-08
2.3049e-08
2.30422e-08
1.24275e-09
3.41347e-08
2.32177e-08
2.0718e-08
2.03077e-08
2.02701e-08
2.02574e-08
2.02581e-08
2.02501e-08
7.76979e-10
3.07867e-08
2.09032e-08
1.83906e-08
1.79711e-08
1.79315e-08
1.79197e-08
1.79187e-08
1.79058e-08
4.6892e-10
2.79778e-08
1.91009e-08
1.65649e-08
1.61356e-08
1.60923e-08
1.60814e-08
1.60782e-08
1.6053e-08
3.07248e-10
2.56201e-08
1.757e-08
1.51507e-08
1.47058e-08
1.46552e-08
1.46448e-08
1.4635e-08
1.45866e-08
2.615e-10
2.35936e-08
1.62765e-08
1.38621e-08
1.34089e-08
1.33538e-08
1.33456e-08
1.33461e-08
1.33868e-08
3.33158e-10
2.1814e-08
1.53222e-08
1.27801e-08
1.23736e-08
1.23417e-08
1.23344e-08
1.2329e-08
1.23487e-08
4.91495e-10
2.02242e-08
1.44383e-08
1.19677e-08
1.1529e-08
1.14824e-08
1.14732e-08
1.14652e-08
1.14798e-08
1.14337e-08
7.643e-10
1.87897e-08
1.35856e-08
1.11904e-08
1.07115e-08
1.0658e-08
1.06488e-08
1.06395e-08
1.06498e-08
1.06296e-08
1.11335e-09
1.74925e-08
1.27749e-08
1.04582e-08
9.97204e-09
9.9139e-09
9.90411e-09
9.89358e-09
9.90301e-09
9.95063e-09
1.48976e-09
1.6323e-08
1.20951e-08
9.77851e-09
9.28972e-09
9.22855e-09
9.21806e-09
9.20648e-09
9.2162e-09
9.24284e-09
1.8737e-09
1.52706e-08
1.13809e-08
9.14071e-09
8.6527e-09
8.58959e-09
8.57839e-09
8.56587e-09
8.57642e-09
8.59068e-09
2.25943e-09
1.43236e-08
1.07139e-08
8.53774e-09
8.05356e-09
7.98936e-09
7.97748e-09
7.96414e-09
7.97562e-09
7.9829e-09
2.63659e-09
1.34343e-08
1.00995e-08
7.96399e-09
7.4872e-09
7.42267e-09
7.41016e-09
7.39608e-09
7.40842e-09
7.41149e-09
2.984e-09
1.25219e-08
9.41905e-09
7.41497e-09
6.94983e-09
6.88565e-09
6.87258e-09
6.85786e-09
6.87089e-09
6.87118e-09
3.27725e-09
1.16585e-08
8.75092e-09
6.88762e-09
6.43834e-09
6.37515e-09
6.36161e-09
6.34637e-09
6.35988e-09
6.35815e-09
3.49891e-09
1.08273e-08
8.09979e-09
6.37938e-09
5.95006e-09
5.88845e-09
5.87454e-09
5.85889e-09
5.87267e-09
5.86931e-09
3.64685e-09
1.01038e-08
7.46636e-09
5.88785e-09
5.48243e-09
5.42292e-09
5.40877e-09
5.39286e-09
5.40667e-09
5.40192e-09
3.73119e-09
9.40757e-09
6.85097e-09
5.41004e-09
5.0324e-09
4.97545e-09
4.96116e-09
4.9452e-09
4.95879e-09
4.95282e-09
3.76749e-09
8.63727e-09
6.25469e-09
4.99912e-09
4.64726e-09
4.59309e-09
4.57894e-09
4.5628e-09
4.57635e-09
4.56926e-09
3.7769e-09
7.87697e-09
5.67696e-09
4.58026e-09
4.24576e-09
4.19455e-09
4.18032e-09
4.16355e-09
4.17727e-09
4.1685e-09
3.76951e-09
7.21176e-09
5.11672e-09
4.19957e-09
3.89174e-09
3.84384e-09
3.82997e-09
3.81318e-09
3.82671e-09
3.81697e-09
3.74313e-09
6.55711e-09
4.63369e-09
3.83466e-09
3.55333e-09
3.50896e-09
3.49557e-09
3.47886e-09
3.49216e-09
3.48155e-09
)
;

boundaryField
{
    fuel
    {
        type            fixedValue;
        value           uniform 0;
    }
    wall
    {
        type            zeroGradient;
    }
    outlet
    {
        type            zeroGradient;
    }
    frontAndBack
    {
        type            empty;
    }
    procBoundary2to0
    {
        type            processor;
        value           nonuniform List<scalar> 
12
(
3.81143e-09
3.68712e-09
5.91997e-09
4.17201e-09
3.48476e-09
3.22968e-09
3.18902e-09
3.17627e-09
3.15976e-09
3.17277e-09
3.4769e-09
3.16144e-09
)
;
    }
    procBoundary2to3
    {
        type            processor;
        value           nonuniform List<scalar> 
25
(
1.58433e-08
2.55291e-08
2.5636e-08
2.30373e-08
2.02413e-08
1.78944e-08
1.60462e-08
1.46045e-08
1.33057e-08
1.22915e-08
1.22915e-08
1.14675e-08
1.06421e-08
9.89637e-09
9.20911e-09
8.5682e-09
7.9661e-09
7.39767e-09
6.85905e-09
6.34715e-09
5.85927e-09
5.39282e-09
4.94471e-09
4.562e-09
4.16208e-09
)
;
    }
}


// ************************************************************************* //
