/*--------------------------------*- C++ -*----------------------------------*\
| =========                 |                                                 |
| \\      /  F ield         | OpenFOAM: The Open Source CFD Toolbox           |
|  \\    /   O peration     | Version:  dev                                   |
|   \\  /    A nd           | Web:      www.OpenFOAM.org                      |
|    \\/     M anipulation  |                                                 |
\*---------------------------------------------------------------------------*/
FoamFile
{
    version     2.0;
    format      ascii;
    class       volScalarField;
    location    "0.08";
    object      A3C2H;
}
// * * * * * * * * * * * * * * * * * * * * * * * * * * * * * * * * * * * * * //

dimensions      [0 0 0 0 0 0 0];

internalField   nonuniform List<scalar> 
1997
(
4.38078e-11
4.39364e-11
4.40076e-11
4.40567e-11
4.40682e-11
4.40811e-11
4.40765e-11
4.40761e-11
4.40719e-11
4.40717e-11
4.40694e-11
4.40701e-11
4.40688e-11
4.40699e-11
4.40691e-11
4.40702e-11
4.40697e-11
4.40706e-11
4.31858e-11
4.33071e-11
4.33735e-11
4.34207e-11
4.34326e-11
4.34447e-11
4.34409e-11
4.34408e-11
4.34371e-11
4.34371e-11
4.34351e-11
4.34358e-11
4.34348e-11
4.34358e-11
4.34352e-11
4.34362e-11
4.34359e-11
4.34367e-11
4.34365e-11
4.34371e-11
4.34369e-11
4.34373e-11
4.34372e-11
4.34374e-11
4.34373e-11
4.34373e-11
4.34374e-11
4.34372e-11
4.26026e-11
4.2717e-11
4.27791e-11
4.28244e-11
4.28368e-11
4.28481e-11
4.28451e-11
4.28452e-11
4.28421e-11
4.28422e-11
4.28405e-11
4.28413e-11
4.28404e-11
4.28414e-11
4.28409e-11
4.2842e-11
4.28417e-11
4.28425e-11
4.28423e-11
4.28429e-11
4.28427e-11
4.28431e-11
4.2843e-11
4.28432e-11
4.28432e-11
4.28432e-11
4.28432e-11
4.2843e-11
4.28431e-11
4.28427e-11
4.28429e-11
4.28423e-11
4.28425e-11
4.28417e-11
4.2842e-11
4.2841e-11
4.28415e-11
4.28404e-11
4.28413e-11
4.28405e-11
4.20559e-11
4.21637e-11
4.22219e-11
4.22654e-11
4.22783e-11
4.22888e-11
4.22865e-11
4.22869e-11
4.22842e-11
4.22845e-11
4.22831e-11
4.22839e-11
4.22832e-11
4.22843e-11
4.22839e-11
4.22849e-11
4.22846e-11
4.22855e-11
4.22853e-11
4.22859e-11
4.22857e-11
4.22861e-11
4.2286e-11
4.22862e-11
4.22862e-11
4.22862e-11
4.22862e-11
4.2286e-11
4.22861e-11
4.22858e-11
4.22859e-11
4.22853e-11
4.22855e-11
4.22847e-11
4.22849e-11
4.22839e-11
4.22843e-11
4.22832e-11
4.2284e-11
4.22831e-11
4.22846e-11
4.22843e-11
4.22869e-11
4.22866e-11
4.22888e-11
4.22783e-11
4.22654e-11
4.22219e-11
4.21637e-11
4.20559e-11
4.15435e-11
4.16449e-11
4.16995e-11
4.17412e-11
4.17547e-11
4.17645e-11
4.17629e-11
4.17635e-11
4.17613e-11
4.17617e-11
4.17606e-11
4.17614e-11
4.17609e-11
4.17619e-11
4.17617e-11
4.17626e-11
4.17625e-11
4.17633e-11
4.17632e-11
4.17637e-11
4.17636e-11
4.1764e-11
4.17639e-11
4.17641e-11
4.1764e-11
4.1764e-11
4.17641e-11
4.17639e-11
4.1764e-11
4.17636e-11
4.17637e-11
4.17632e-11
4.17633e-11
4.17625e-11
4.17627e-11
4.17617e-11
4.1762e-11
4.17609e-11
4.17615e-11
4.17606e-11
4.17618e-11
4.17613e-11
4.17635e-11
4.17629e-11
4.17645e-11
4.17547e-11
4.17412e-11
4.16995e-11
4.1645e-11
4.15435e-11
4.10555e-11
4.11518e-11
4.1203e-11
4.12425e-11
4.12552e-11
4.12641e-11
4.12627e-11
4.12632e-11
4.12612e-11
4.12616e-11
4.12606e-11
4.12615e-11
4.1261e-11
4.1262e-11
4.12618e-11
4.12627e-11
4.12626e-11
4.12634e-11
4.12633e-11
4.12638e-11
4.12637e-11
4.12641e-11
4.1264e-11
4.12642e-11
4.12642e-11
4.12642e-11
4.12642e-11
4.1264e-11
4.12641e-11
4.12637e-11
4.12638e-11
4.12633e-11
4.12634e-11
4.12626e-11
4.12628e-11
4.12618e-11
4.1262e-11
4.1261e-11
4.12615e-11
4.12606e-11
4.12617e-11
4.12613e-11
4.12632e-11
4.12627e-11
4.12642e-11
4.12552e-11
4.12425e-11
4.1203e-11
4.11519e-11
4.10555e-11
4.0604e-11
4.06947e-11
4.07427e-11
4.07805e-11
4.07935e-11
4.08019e-11
4.08009e-11
4.08016e-11
4.08001e-11
4.08006e-11
4.07998e-11
4.08007e-11
4.08004e-11
4.08014e-11
4.08013e-11
4.08022e-11
4.08021e-11
4.08029e-11
4.08028e-11
4.08034e-11
4.08033e-11
4.08036e-11
4.08036e-11
4.08037e-11
4.08037e-11
4.08037e-11
4.08037e-11
4.08036e-11
4.08036e-11
4.08033e-11
4.08034e-11
4.08028e-11
4.08029e-11
4.08021e-11
4.08022e-11
4.08013e-11
4.08014e-11
4.08004e-11
4.08007e-11
4.07998e-11
4.08006e-11
4.08001e-11
4.08017e-11
4.08009e-11
4.08019e-11
4.07936e-11
4.07806e-11
4.07427e-11
4.06947e-11
4.0604e-11
4.01797e-11
4.02651e-11
4.03102e-11
4.03463e-11
4.03595e-11
4.03673e-11
4.03668e-11
4.03672e-11
4.03656e-11
4.0366e-11
4.03652e-11
4.0366e-11
4.03657e-11
4.03667e-11
4.03665e-11
4.03674e-11
4.03674e-11
4.03681e-11
4.0368e-11
4.03686e-11
4.03685e-11
4.03688e-11
4.03687e-11
4.03689e-11
4.03689e-11
4.03689e-11
4.03689e-11
4.03688e-11
4.03688e-11
4.03685e-11
4.03686e-11
4.0368e-11
4.03681e-11
4.03674e-11
4.03675e-11
4.03665e-11
4.03667e-11
4.03657e-11
4.03661e-11
4.03652e-11
4.03661e-11
4.03657e-11
4.03673e-11
4.03668e-11
4.03673e-11
4.03595e-11
4.03463e-11
4.03102e-11
4.02651e-11
4.01798e-11
3.97807e-11
3.98609e-11
3.99032e-11
3.99376e-11
3.9951e-11
3.99581e-11
3.9958e-11
3.99586e-11
3.99574e-11
3.99578e-11
3.99572e-11
3.9958e-11
3.99578e-11
3.99588e-11
3.99587e-11
3.99596e-11
3.99595e-11
3.99603e-11
3.99602e-11
3.99607e-11
3.99607e-11
3.9961e-11
3.9961e-11
3.99611e-11
3.99611e-11
3.99611e-11
3.99611e-11
3.9961e-11
3.9961e-11
3.99607e-11
3.99607e-11
3.99602e-11
3.99603e-11
3.99596e-11
3.99596e-11
3.99587e-11
3.99588e-11
3.99578e-11
3.9958e-11
3.99572e-11
3.99578e-11
3.99574e-11
3.99587e-11
3.99581e-11
3.99581e-11
3.9951e-11
3.99376e-11
3.99032e-11
3.98609e-11
3.97807e-11
3.9399e-11
3.94752e-11
3.95145e-11
3.95471e-11
3.95596e-11
3.95661e-11
3.9566e-11
3.95664e-11
3.95652e-11
3.95656e-11
3.9565e-11
3.95658e-11
3.95656e-11
3.95666e-11
3.95665e-11
3.95674e-11
3.95674e-11
3.95681e-11
3.95681e-11
3.95686e-11
3.95685e-11
3.95688e-11
3.95688e-11
3.95689e-11
3.95689e-11
3.95689e-11
3.95689e-11
3.95688e-11
3.95688e-11
3.95685e-11
3.95686e-11
3.95681e-11
3.95681e-11
3.95674e-11
3.95674e-11
3.95666e-11
3.95666e-11
3.95657e-11
3.95659e-11
3.95651e-11
3.95657e-11
3.95653e-11
3.95665e-11
3.9566e-11
3.95661e-11
3.95596e-11
3.95472e-11
3.95146e-11
3.94752e-11
3.93991e-11
3.90324e-11
3.91034e-11
3.91403e-11
3.91711e-11
3.91835e-11
3.91894e-11
3.91896e-11
3.91901e-11
3.91892e-11
3.91896e-11
3.91891e-11
3.919e-11
3.91899e-11
3.91908e-11
3.91908e-11
3.91916e-11
3.91917e-11
3.91923e-11
3.91923e-11
3.91928e-11
3.91928e-11
3.91931e-11
3.91931e-11
3.91932e-11
3.91932e-11
3.91932e-11
3.91932e-11
3.91931e-11
3.91931e-11
3.91928e-11
3.91928e-11
3.91924e-11
3.91924e-11
3.91917e-11
3.91917e-11
3.91908e-11
3.91908e-11
3.91899e-11
3.919e-11
3.91892e-11
3.91896e-11
3.91892e-11
3.91902e-11
3.91896e-11
3.91895e-11
3.91835e-11
3.91712e-11
3.91403e-11
3.91034e-11
3.90324e-11
3.86941e-11
3.87606e-11
3.87949e-11
3.8824e-11
3.88359e-11
3.88414e-11
3.88417e-11
3.88422e-11
3.88414e-11
3.88419e-11
3.88415e-11
3.88423e-11
3.88423e-11
3.88432e-11
3.88432e-11
3.88441e-11
3.88441e-11
3.88448e-11
3.88448e-11
3.88452e-11
3.88452e-11
3.88455e-11
3.88455e-11
3.88456e-11
3.88456e-11
3.88456e-11
3.88456e-11
3.88455e-11
3.88455e-11
3.88452e-11
3.88452e-11
3.88448e-11
3.88448e-11
3.88441e-11
3.88441e-11
3.88432e-11
3.88432e-11
3.88423e-11
3.88423e-11
3.88415e-11
3.88419e-11
3.88415e-11
3.88423e-11
3.88418e-11
3.88414e-11
3.8836e-11
3.88241e-11
3.87949e-11
3.87607e-11
3.86941e-11
3.83715e-11
3.84338e-11
3.84654e-11
3.84929e-11
3.85041e-11
3.8509e-11
3.85095e-11
3.85099e-11
3.85092e-11
3.85097e-11
3.85094e-11
3.85102e-11
3.85101e-11
3.8511e-11
3.85111e-11
3.85119e-11
3.8512e-11
3.85126e-11
3.85127e-11
3.85131e-11
3.85131e-11
3.85134e-11
3.85134e-11
3.85135e-11
3.85135e-11
3.85135e-11
3.85135e-11
3.85134e-11
3.85134e-11
3.85131e-11
3.85131e-11
3.85127e-11
3.85126e-11
3.8512e-11
3.85119e-11
3.85111e-11
3.85111e-11
3.85102e-11
3.85102e-11
3.85094e-11
3.85097e-11
3.85093e-11
3.851e-11
3.85095e-11
3.8509e-11
3.85041e-11
3.84929e-11
3.84654e-11
3.84338e-11
3.83715e-11
3.80628e-11
3.81209e-11
3.81497e-11
3.81755e-11
3.81859e-11
3.81903e-11
3.81908e-11
3.81912e-11
3.81905e-11
3.81909e-11
3.81906e-11
3.81914e-11
3.81914e-11
3.81923e-11
3.81924e-11
3.81932e-11
3.81933e-11
3.81939e-11
3.81939e-11
3.81943e-11
3.81944e-11
3.81946e-11
3.81946e-11
3.81948e-11
3.81948e-11
3.81948e-11
3.81948e-11
3.81946e-11
3.81946e-11
3.81944e-11
3.81944e-11
3.81939e-11
3.81939e-11
3.81933e-11
3.81932e-11
3.81924e-11
3.81923e-11
3.81914e-11
3.81914e-11
3.81907e-11
3.81909e-11
3.81905e-11
3.81912e-11
3.81908e-11
3.81903e-11
3.8186e-11
3.81755e-11
3.81498e-11
3.81209e-11
3.80628e-11
3.77599e-11
3.78138e-11
3.78391e-11
3.78627e-11
3.78717e-11
3.78752e-11
3.78755e-11
3.78756e-11
3.78748e-11
3.78751e-11
3.78748e-11
3.78755e-11
3.78755e-11
3.78763e-11
3.78764e-11
3.78772e-11
3.78772e-11
3.78778e-11
3.78779e-11
3.78783e-11
3.78783e-11
3.78786e-11
3.78786e-11
3.78787e-11
3.78787e-11
3.78787e-11
3.78787e-11
3.78786e-11
3.78786e-11
3.78783e-11
3.78783e-11
3.78779e-11
3.78779e-11
3.78773e-11
3.78772e-11
3.78764e-11
3.78764e-11
3.78755e-11
3.78755e-11
3.78748e-11
3.78751e-11
3.78749e-11
3.78756e-11
3.78755e-11
3.78752e-11
3.78717e-11
3.78627e-11
3.78391e-11
3.78138e-11
3.77599e-11
3.74631e-11
3.75127e-11
3.75352e-11
3.75568e-11
3.75647e-11
3.75676e-11
3.75677e-11
3.75677e-11
3.75669e-11
3.75671e-11
3.75668e-11
3.75674e-11
3.75675e-11
3.75682e-11
3.75683e-11
3.75691e-11
3.75691e-11
3.75697e-11
3.75698e-11
3.75702e-11
3.75702e-11
3.75704e-11
3.75704e-11
3.75706e-11
3.75706e-11
3.75706e-11
3.75706e-11
3.75704e-11
3.75704e-11
3.75702e-11
3.75702e-11
3.75698e-11
3.75697e-11
3.75692e-11
3.75691e-11
3.75683e-11
3.75683e-11
3.75675e-11
3.75675e-11
3.75668e-11
3.75671e-11
3.75669e-11
3.75677e-11
3.75678e-11
3.75676e-11
3.75648e-11
3.75568e-11
3.75352e-11
3.75127e-11
3.74632e-11
3.71811e-11
3.72268e-11
3.72459e-11
3.72656e-11
3.72723e-11
3.72744e-11
3.72743e-11
3.7274e-11
3.72731e-11
3.72732e-11
3.72729e-11
3.72735e-11
3.72735e-11
3.72742e-11
3.72743e-11
3.7275e-11
3.72751e-11
3.72756e-11
3.72757e-11
3.72761e-11
3.72761e-11
3.72763e-11
3.72763e-11
3.72765e-11
3.72765e-11
3.72765e-11
3.72765e-11
3.72763e-11
3.72763e-11
3.72761e-11
3.72761e-11
3.72757e-11
3.72756e-11
3.72751e-11
3.7275e-11
3.72743e-11
3.72742e-11
3.72735e-11
3.72735e-11
3.72729e-11
3.72733e-11
3.72732e-11
3.7274e-11
3.72743e-11
3.72744e-11
3.72723e-11
3.72656e-11
3.72459e-11
3.72268e-11
3.71811e-11
3.68967e-11
3.69387e-11
3.69542e-11
3.69717e-11
3.69769e-11
3.69781e-11
3.69775e-11
3.69768e-11
3.69758e-11
3.69757e-11
3.69753e-11
3.69758e-11
3.69757e-11
3.69764e-11
3.69764e-11
3.69771e-11
3.69772e-11
3.69777e-11
3.69778e-11
3.69781e-11
3.69781e-11
3.69784e-11
3.69784e-11
3.69785e-11
3.69785e-11
3.69785e-11
3.69785e-11
3.69784e-11
3.69784e-11
3.69782e-11
3.69781e-11
3.69778e-11
3.69777e-11
3.69772e-11
3.69771e-11
3.69765e-11
3.69764e-11
3.69757e-11
3.69758e-11
3.69753e-11
3.69757e-11
3.69758e-11
3.69768e-11
3.69776e-11
3.69781e-11
3.6977e-11
3.69717e-11
3.69542e-11
3.69387e-11
3.68967e-11
3.66208e-11
3.66589e-11
3.66705e-11
3.66858e-11
3.66895e-11
3.66897e-11
3.66888e-11
3.66877e-11
3.66865e-11
3.66863e-11
3.66858e-11
3.66861e-11
3.6686e-11
3.66867e-11
3.66867e-11
3.66873e-11
3.66874e-11
3.66879e-11
3.66879e-11
3.66883e-11
3.66883e-11
3.66886e-11
3.66886e-11
3.66887e-11
3.66887e-11
3.66887e-11
3.66887e-11
3.66886e-11
3.66886e-11
3.66883e-11
3.66883e-11
3.66879e-11
3.66879e-11
3.66874e-11
3.66873e-11
3.66867e-11
3.66867e-11
3.66861e-11
3.66862e-11
3.66858e-11
3.66863e-11
3.66866e-11
3.66877e-11
3.66888e-11
3.66897e-11
3.66895e-11
3.66858e-11
3.66705e-11
3.66589e-11
3.66208e-11
3.63383e-11
3.63725e-11
3.63793e-11
3.63922e-11
3.63941e-11
3.63931e-11
3.63916e-11
3.63899e-11
3.63885e-11
3.6388e-11
3.63874e-11
3.63876e-11
3.63874e-11
3.6388e-11
3.6388e-11
3.63886e-11
3.63886e-11
3.63891e-11
3.63891e-11
3.63895e-11
3.63895e-11
3.63897e-11
3.63897e-11
3.63898e-11
3.63898e-11
3.63898e-11
3.63898e-11
3.63897e-11
3.63897e-11
3.63895e-11
3.63895e-11
3.63891e-11
3.63891e-11
3.63886e-11
3.63886e-11
3.6388e-11
3.6388e-11
3.63875e-11
3.63876e-11
3.63874e-11
3.6388e-11
3.63885e-11
3.63899e-11
3.63916e-11
3.63931e-11
3.63941e-11
3.63922e-11
3.63793e-11
3.63725e-11
3.63383e-11
3.60517e-11
3.60816e-11
3.60915e-11
3.6102e-11
3.61022e-11
3.61e-11
3.6098e-11
3.60958e-11
3.60942e-11
3.60935e-11
3.60927e-11
3.60929e-11
3.60926e-11
3.60931e-11
3.60931e-11
3.60936e-11
3.60936e-11
3.60941e-11
3.60941e-11
3.60944e-11
3.60944e-11
3.60947e-11
3.60947e-11
3.60948e-11
3.60948e-11
3.60948e-11
3.60948e-11
3.60947e-11
3.60947e-11
3.60944e-11
3.60944e-11
3.60941e-11
3.60941e-11
3.60936e-11
3.60936e-11
3.60931e-11
3.60931e-11
3.60926e-11
3.60929e-11
3.60927e-11
3.60935e-11
3.60942e-11
3.60959e-11
3.6098e-11
3.61e-11
3.61022e-11
3.6102e-11
3.60915e-11
3.60816e-11
3.60517e-11
3.57677e-11
3.57934e-11
3.57986e-11
3.58066e-11
3.58049e-11
3.58015e-11
3.57988e-11
3.57962e-11
3.57943e-11
3.57933e-11
3.57924e-11
3.57924e-11
3.57921e-11
3.57925e-11
3.57924e-11
3.57929e-11
3.57929e-11
3.57933e-11
3.57933e-11
3.57937e-11
3.57937e-11
3.57939e-11
3.57939e-11
3.5794e-11
3.5794e-11
3.5794e-11
3.5794e-11
3.57939e-11
3.57939e-11
3.57937e-11
3.57937e-11
3.57933e-11
3.57933e-11
3.57929e-11
3.57929e-11
3.57924e-11
3.57925e-11
3.57921e-11
3.57924e-11
3.57924e-11
3.57933e-11
3.57943e-11
3.57962e-11
3.57989e-11
3.58015e-11
3.58049e-11
3.58066e-11
3.57986e-11
3.57934e-11
3.57677e-11
3.54715e-11
3.54916e-11
3.54918e-11
3.54971e-11
3.54931e-11
3.54883e-11
3.54848e-11
3.54815e-11
3.54793e-11
3.5478e-11
3.54769e-11
3.54767e-11
3.54763e-11
3.54767e-11
3.54765e-11
3.5477e-11
3.54769e-11
3.54773e-11
3.54773e-11
3.54776e-11
3.54776e-11
3.54778e-11
3.54778e-11
3.54779e-11
3.54779e-11
3.54779e-11
3.54779e-11
3.54778e-11
3.54778e-11
3.54776e-11
3.54776e-11
3.54773e-11
3.54773e-11
3.54769e-11
3.5477e-11
3.54765e-11
3.54767e-11
3.54763e-11
3.54768e-11
3.54769e-11
3.5478e-11
3.54793e-11
3.54815e-11
3.54849e-11
3.54883e-11
3.54931e-11
3.54971e-11
3.54918e-11
3.54916e-11
3.54715e-11
3.51631e-11
3.51866e-11
3.51818e-11
3.51844e-11
3.51783e-11
3.5172e-11
3.51679e-11
3.51639e-11
3.51614e-11
3.51598e-11
3.51585e-11
3.51583e-11
3.51577e-11
3.5158e-11
3.51578e-11
3.51582e-11
3.51581e-11
3.51585e-11
3.51585e-11
3.51588e-11
3.51587e-11
3.51589e-11
3.51589e-11
3.5159e-11
3.5159e-11
3.5159e-11
3.5159e-11
3.51589e-11
3.51589e-11
3.51587e-11
3.51588e-11
3.51585e-11
3.51585e-11
3.51581e-11
3.51582e-11
3.51578e-11
3.5158e-11
3.51577e-11
3.51583e-11
3.51585e-11
3.51598e-11
3.51614e-11
3.51639e-11
3.51679e-11
3.5172e-11
3.51783e-11
3.51844e-11
3.51818e-11
3.51866e-11
3.51631e-11
3.48516e-11
3.48705e-11
3.48604e-11
3.48602e-11
3.48519e-11
3.48441e-11
3.48393e-11
3.48346e-11
3.48316e-11
3.48295e-11
3.48279e-11
3.48274e-11
3.48266e-11
3.48268e-11
3.48264e-11
3.48268e-11
3.48266e-11
3.4827e-11
3.48269e-11
3.48272e-11
3.48272e-11
3.48274e-11
3.48273e-11
3.48274e-11
3.48274e-11
3.48274e-11
3.48274e-11
3.48273e-11
3.48274e-11
3.48272e-11
3.48272e-11
3.48269e-11
3.4827e-11
3.48266e-11
3.48268e-11
3.48264e-11
3.48268e-11
3.48266e-11
3.48274e-11
3.48279e-11
3.48295e-11
3.48316e-11
3.48346e-11
3.48393e-11
3.48441e-11
3.48519e-11
3.48602e-11
3.48604e-11
3.48705e-11
3.48516e-11
3.45215e-11
3.45353e-11
3.45187e-11
3.45153e-11
3.45043e-11
3.44946e-11
3.44889e-11
3.44834e-11
3.44799e-11
3.44774e-11
3.44756e-11
3.44749e-11
3.4474e-11
3.44741e-11
3.44737e-11
3.4474e-11
3.44738e-11
3.44741e-11
3.4474e-11
3.44743e-11
3.44742e-11
3.44744e-11
3.44744e-11
3.44745e-11
3.44745e-11
3.44745e-11
3.44745e-11
3.44744e-11
3.44744e-11
3.44742e-11
3.44743e-11
3.4474e-11
3.44741e-11
3.44738e-11
3.4474e-11
3.44737e-11
3.44741e-11
3.44741e-11
3.44749e-11
3.44756e-11
3.44774e-11
3.448e-11
3.44834e-11
3.44889e-11
3.44946e-11
3.45043e-11
3.45153e-11
3.45187e-11
3.45352e-11
3.45215e-11
3.41726e-11
3.41816e-11
3.41682e-11
3.41621e-11
3.41486e-11
3.41373e-11
3.41309e-11
3.41246e-11
3.41208e-11
3.41179e-11
3.41159e-11
3.41151e-11
3.41141e-11
3.41141e-11
3.41135e-11
3.41138e-11
3.41135e-11
3.41139e-11
3.41137e-11
3.4114e-11
3.41139e-11
3.41141e-11
3.41141e-11
3.41142e-11
3.41142e-11
3.41142e-11
3.41142e-11
3.41141e-11
3.41141e-11
3.41139e-11
3.4114e-11
3.41137e-11
3.41139e-11
3.41135e-11
3.41138e-11
3.41135e-11
3.41141e-11
3.41141e-11
3.41151e-11
3.41159e-11
3.41179e-11
3.41208e-11
3.41246e-11
3.41309e-11
3.41373e-11
3.41486e-11
3.41621e-11
3.41682e-11
3.41815e-11
3.41726e-11
3.38159e-11
3.38201e-11
3.37982e-11
3.37879e-11
3.37706e-11
3.3757e-11
3.37494e-11
3.3742e-11
3.37377e-11
3.37343e-11
3.3732e-11
3.37309e-11
3.37297e-11
3.37296e-11
3.37289e-11
3.37292e-11
3.37288e-11
3.37291e-11
3.37289e-11
3.37292e-11
3.37291e-11
3.37293e-11
3.37292e-11
3.37293e-11
3.37293e-11
3.37293e-11
3.37293e-11
3.37292e-11
3.37293e-11
3.37291e-11
3.37292e-11
3.37289e-11
3.37291e-11
3.37288e-11
3.37292e-11
3.3729e-11
3.37296e-11
3.37297e-11
3.37309e-11
3.37319e-11
3.37343e-11
3.37377e-11
3.3742e-11
3.37494e-11
3.3757e-11
3.37705e-11
3.37879e-11
3.37982e-11
3.382e-11
3.38159e-11
3.34323e-11
3.34401e-11
3.34121e-11
3.33989e-11
3.33788e-11
3.33635e-11
3.33552e-11
3.3347e-11
3.33423e-11
3.33385e-11
3.3336e-11
3.33348e-11
3.33334e-11
3.33332e-11
3.33325e-11
3.33327e-11
3.33323e-11
3.33326e-11
3.33323e-11
3.33326e-11
3.33325e-11
3.33327e-11
3.33326e-11
3.33327e-11
3.33327e-11
3.33327e-11
3.33327e-11
3.33326e-11
3.33327e-11
3.33325e-11
3.33326e-11
3.33323e-11
3.33326e-11
3.33323e-11
3.33327e-11
3.33325e-11
3.33333e-11
3.33334e-11
3.33348e-11
3.3336e-11
3.33385e-11
3.33423e-11
3.3347e-11
3.33552e-11
3.33635e-11
3.33788e-11
3.33989e-11
3.34121e-11
3.344e-11
3.34322e-11
3.30373e-11
3.30406e-11
3.30061e-11
3.29901e-11
3.29663e-11
3.29482e-11
3.29387e-11
3.29292e-11
3.29239e-11
3.29194e-11
3.29166e-11
3.29151e-11
3.29135e-11
3.29132e-11
3.29123e-11
3.29125e-11
3.2912e-11
3.29122e-11
3.2912e-11
3.29122e-11
3.2912e-11
3.29122e-11
3.29122e-11
3.29123e-11
3.29122e-11
3.29122e-11
3.29123e-11
3.29122e-11
3.29122e-11
3.2912e-11
3.29122e-11
3.29119e-11
3.29122e-11
3.2912e-11
3.29125e-11
3.29123e-11
3.29132e-11
3.29136e-11
3.29151e-11
3.29165e-11
3.29194e-11
3.29239e-11
3.29292e-11
3.29387e-11
3.29482e-11
3.29663e-11
3.29901e-11
3.30061e-11
3.30405e-11
3.30373e-11
3.26133e-11
3.26115e-11
3.25791e-11
3.25605e-11
3.25332e-11
3.25133e-11
3.25031e-11
3.24928e-11
3.24871e-11
3.24822e-11
3.24792e-11
3.24775e-11
3.24758e-11
3.24754e-11
3.24744e-11
3.24745e-11
3.2474e-11
3.24742e-11
3.24739e-11
3.24742e-11
3.2474e-11
3.24742e-11
3.24741e-11
3.24742e-11
3.24742e-11
3.24742e-11
3.24742e-11
3.24741e-11
3.24742e-11
3.2474e-11
3.24742e-11
3.24739e-11
3.24742e-11
3.2474e-11
3.24745e-11
3.24745e-11
3.24754e-11
3.24758e-11
3.24775e-11
3.24791e-11
3.24822e-11
3.24871e-11
3.24928e-11
3.25031e-11
3.25133e-11
3.25332e-11
3.25605e-11
3.25791e-11
3.26115e-11
3.26133e-11
3.21748e-11
3.21689e-11
3.2128e-11
3.2105e-11
3.20726e-11
3.20499e-11
3.20386e-11
3.20271e-11
3.20208e-11
3.20154e-11
3.2012e-11
3.20101e-11
3.20082e-11
3.20077e-11
3.20065e-11
3.20066e-11
3.20059e-11
3.20062e-11
3.20058e-11
3.2006e-11
3.20058e-11
3.2006e-11
3.20059e-11
3.2006e-11
3.2006e-11
3.2006e-11
3.2006e-11
3.20059e-11
3.2006e-11
3.20058e-11
3.2006e-11
3.20058e-11
3.20062e-11
3.20059e-11
3.20066e-11
3.20066e-11
3.20077e-11
3.20082e-11
3.20101e-11
3.20119e-11
3.20154e-11
3.20208e-11
3.20271e-11
3.20386e-11
3.20499e-11
3.20726e-11
3.2105e-11
3.2128e-11
3.21688e-11
3.21748e-11
3.17025e-11
3.16917e-11
3.16438e-11
3.16181e-11
3.15938e-11
3.15691e-11
3.15574e-11
3.1545e-11
3.15383e-11
3.15325e-11
3.15289e-11
3.15267e-11
3.15247e-11
3.15241e-11
3.15229e-11
3.15229e-11
3.15222e-11
3.15224e-11
3.1522e-11
3.15223e-11
3.1522e-11
3.15222e-11
3.15221e-11
3.15222e-11
3.15222e-11
3.15222e-11
3.15222e-11
3.15221e-11
3.15222e-11
3.1522e-11
3.15223e-11
3.1522e-11
3.15224e-11
3.15222e-11
3.15229e-11
3.15229e-11
3.15241e-11
3.15247e-11
3.15267e-11
3.15288e-11
3.15324e-11
3.15383e-11
3.1545e-11
3.15574e-11
3.15691e-11
3.15938e-11
3.1618e-11
3.16438e-11
3.16917e-11
3.17025e-11
3.12165e-11
3.12016e-11
3.11471e-11
3.11186e-11
3.10912e-11
3.10643e-11
3.105e-11
3.10364e-11
3.10291e-11
3.10227e-11
3.10187e-11
3.10164e-11
3.10142e-11
3.10135e-11
3.10121e-11
3.10121e-11
3.10113e-11
3.10115e-11
3.1011e-11
3.10112e-11
3.1011e-11
3.10112e-11
3.1011e-11
3.10111e-11
3.10111e-11
3.10111e-11
3.10111e-11
3.1011e-11
3.10111e-11
3.1011e-11
3.10112e-11
3.1011e-11
3.10115e-11
3.10113e-11
3.10121e-11
3.10121e-11
3.10135e-11
3.10142e-11
3.10164e-11
3.10187e-11
3.10227e-11
3.10291e-11
3.10363e-11
3.105e-11
3.10643e-11
3.10911e-11
3.11186e-11
3.11471e-11
3.12016e-11
3.12164e-11
3.06981e-11
3.06797e-11
3.06256e-11
3.05943e-11
3.0564e-11
3.05351e-11
3.05203e-11
3.05058e-11
3.04983e-11
3.04914e-11
3.04873e-11
3.04847e-11
3.04824e-11
3.04816e-11
3.04801e-11
3.04801e-11
3.04792e-11
3.04794e-11
3.04789e-11
3.04791e-11
3.04788e-11
3.0479e-11
3.04789e-11
3.0479e-11
3.04789e-11
3.04789e-11
3.0479e-11
3.04789e-11
3.0479e-11
3.04788e-11
3.04791e-11
3.04789e-11
3.04794e-11
3.04792e-11
3.04801e-11
3.04802e-11
3.04816e-11
3.04824e-11
3.04847e-11
3.04871e-11
3.04914e-11
3.04983e-11
3.05058e-11
3.05203e-11
3.05351e-11
3.0564e-11
3.05943e-11
3.06256e-11
3.06796e-11
3.0698e-11
3.01618e-11
3.01393e-11
3.00793e-11
3.00451e-11
3.00121e-11
2.99813e-11
2.99654e-11
2.99491e-11
2.99407e-11
2.9933e-11
2.99284e-11
2.99256e-11
2.99229e-11
2.9922e-11
2.99203e-11
2.99202e-11
2.99192e-11
2.99194e-11
2.99188e-11
2.9919e-11
2.99187e-11
2.99189e-11
2.99187e-11
2.99188e-11
2.99188e-11
2.99188e-11
2.99188e-11
2.99187e-11
2.99189e-11
2.99187e-11
2.9919e-11
2.99188e-11
2.99194e-11
2.99192e-11
2.99202e-11
2.99204e-11
2.9922e-11
2.99229e-11
2.99256e-11
2.99283e-11
2.99331e-11
2.99407e-11
2.99491e-11
2.99654e-11
2.99813e-11
3.00121e-11
3.0045e-11
3.00793e-11
3.01392e-11
3.01617e-11
2.96002e-11
2.95737e-11
2.9508e-11
2.94707e-11
2.94353e-11
2.94028e-11
2.93862e-11
2.93692e-11
2.93605e-11
2.93524e-11
2.93476e-11
2.93446e-11
2.93417e-11
2.93408e-11
2.9339e-11
2.93389e-11
2.93378e-11
2.9338e-11
2.93373e-11
2.93376e-11
2.93372e-11
2.93374e-11
2.93372e-11
2.93373e-11
2.93373e-11
2.93373e-11
2.93373e-11
2.93372e-11
2.93374e-11
2.93372e-11
2.93376e-11
2.93373e-11
2.9338e-11
2.93378e-11
2.93389e-11
2.9339e-11
2.93408e-11
2.93418e-11
2.93445e-11
2.93474e-11
2.93524e-11
2.93605e-11
2.93692e-11
2.93862e-11
2.94028e-11
2.94353e-11
2.94707e-11
2.9508e-11
2.95736e-11
2.96001e-11
2.90133e-11
2.89829e-11
2.89118e-11
2.88715e-11
2.8834e-11
2.87998e-11
2.87825e-11
2.87648e-11
2.87557e-11
2.87473e-11
2.87423e-11
2.87391e-11
2.87361e-11
2.87351e-11
2.87333e-11
2.87331e-11
2.8732e-11
2.87321e-11
2.87314e-11
2.87317e-11
2.87313e-11
2.87315e-11
2.87313e-11
2.87314e-11
2.87314e-11
2.87314e-11
2.87314e-11
2.87313e-11
2.87315e-11
2.87313e-11
2.87317e-11
2.87314e-11
2.87321e-11
2.8732e-11
2.87331e-11
2.87333e-11
2.87351e-11
2.87362e-11
2.87391e-11
2.87421e-11
2.87473e-11
2.87557e-11
2.87648e-11
2.87825e-11
2.87998e-11
2.8834e-11
2.88715e-11
2.89117e-11
2.89828e-11
2.90133e-11
2.84016e-11
2.83675e-11
2.82909e-11
2.82478e-11
2.82086e-11
2.81726e-11
2.81548e-11
2.81364e-11
2.8127e-11
2.81182e-11
2.8113e-11
2.81097e-11
2.81066e-11
2.81055e-11
2.81036e-11
2.81034e-11
2.81022e-11
2.81024e-11
2.81017e-11
2.81019e-11
2.81015e-11
2.81017e-11
2.81015e-11
2.81016e-11
2.81015e-11
2.81015e-11
2.81016e-11
2.81015e-11
2.81017e-11
2.81015e-11
2.81019e-11
2.81017e-11
2.81024e-11
2.81022e-11
2.81034e-11
2.81036e-11
2.81056e-11
2.81066e-11
2.81097e-11
2.81129e-11
2.81182e-11
2.8127e-11
2.81363e-11
2.81547e-11
2.81726e-11
2.82085e-11
2.82478e-11
2.82909e-11
2.83674e-11
2.84015e-11
2.77643e-11
2.77248e-11
2.76461e-11
2.76005e-11
2.75595e-11
2.75222e-11
2.75037e-11
2.74847e-11
2.74751e-11
2.7466e-11
2.74606e-11
2.74572e-11
2.7454e-11
2.74529e-11
2.74508e-11
2.74506e-11
2.74494e-11
2.74495e-11
2.74488e-11
2.7449e-11
2.74486e-11
2.74488e-11
2.74486e-11
2.74487e-11
2.74486e-11
2.74486e-11
2.74487e-11
2.74486e-11
2.74488e-11
2.74486e-11
2.7449e-11
2.74488e-11
2.74495e-11
2.74494e-11
2.74506e-11
2.74509e-11
2.74529e-11
2.7454e-11
2.74572e-11
2.74605e-11
2.7466e-11
2.74751e-11
2.74847e-11
2.75037e-11
2.75222e-11
2.75594e-11
2.76004e-11
2.76461e-11
2.77247e-11
2.77642e-11
2.71048e-11
2.70616e-11
2.69788e-11
2.69305e-11
2.6888e-11
2.68495e-11
2.68306e-11
2.68109e-11
2.68012e-11
2.67918e-11
2.67863e-11
2.67827e-11
2.67794e-11
2.67782e-11
2.67761e-11
2.67759e-11
2.67746e-11
2.67747e-11
2.6774e-11
2.67742e-11
2.67738e-11
2.6774e-11
2.67737e-11
2.67739e-11
2.67738e-11
2.67738e-11
2.67739e-11
2.67737e-11
2.6774e-11
2.67737e-11
2.67742e-11
2.6774e-11
2.67747e-11
2.67746e-11
2.67759e-11
2.67761e-11
2.67782e-11
2.67794e-11
2.67827e-11
2.67861e-11
2.67918e-11
2.68011e-11
2.68109e-11
2.68305e-11
2.68494e-11
2.68879e-11
2.69304e-11
2.69788e-11
2.70615e-11
2.71047e-11
2.64234e-11
2.63766e-11
2.629e-11
2.62394e-11
2.61955e-11
2.6156e-11
2.61367e-11
2.61165e-11
2.61066e-11
2.60971e-11
2.60914e-11
)
;

boundaryField
{
    fuel
    {
        type            fixedValue;
        value           nonuniform 0();
    }
    wall
    {
        type            zeroGradient;
    }
    outlet
    {
        type            zeroGradient;
    }
    frontAndBack
    {
        type            empty;
    }
    procBoundary2to0
    {
        type            processor;
        value           nonuniform List<scalar> 
53
(
4.44712e-11
4.46074e-11
4.46838e-11
4.47349e-11
4.47459e-11
4.47598e-11
4.47544e-11
4.47537e-11
4.47489e-11
4.47486e-11
4.47459e-11
4.47466e-11
4.47451e-11
4.47461e-11
4.47453e-11
4.47464e-11
4.47458e-11
4.47468e-11
4.40703e-11
4.40703e-11
4.4071e-11
4.40707e-11
4.40711e-11
4.4071e-11
4.40712e-11
4.40712e-11
4.40712e-11
4.40712e-11
4.4071e-11
4.34373e-11
4.34373e-11
4.34369e-11
4.34371e-11
4.34365e-11
4.34368e-11
4.34359e-11
4.34363e-11
4.34352e-11
4.34358e-11
4.34348e-11
4.34359e-11
4.34351e-11
4.28422e-11
4.28422e-11
4.28421e-11
4.28452e-11
4.28451e-11
4.28481e-11
4.28368e-11
4.28244e-11
4.27791e-11
4.2717e-11
4.26026e-11
)
;
    }
    procBoundary2to3
    {
        type            processor;
        value           nonuniform List<scalar> 
51
(
2.60878e-11
2.60844e-11
2.60832e-11
2.6081e-11
2.60808e-11
2.60795e-11
2.60796e-11
2.60788e-11
2.6079e-11
2.60786e-11
2.60788e-11
2.60785e-11
2.60787e-11
2.60786e-11
2.60786e-11
2.60787e-11
2.60785e-11
2.60788e-11
2.60786e-11
2.6079e-11
2.60788e-11
2.60796e-11
2.60795e-11
2.60808e-11
2.60811e-11
2.60832e-11
2.60844e-11
2.60878e-11
2.60913e-11
2.60971e-11
2.61067e-11
2.61165e-11
2.61367e-11
2.61559e-11
2.61955e-11
2.62393e-11
2.629e-11
2.63766e-11
2.64233e-11
2.57216e-11
2.56716e-11
2.55816e-11
2.5529e-11
2.5484e-11
2.54436e-11
2.54241e-11
2.54034e-11
2.53936e-11
2.53839e-11
2.60878e-11
2.53781e-11
)
;
    }
}


// ************************************************************************* //
