/*--------------------------------*- C++ -*----------------------------------*\
| =========                 |                                                 |
| \\      /  F ield         | OpenFOAM: The Open Source CFD Toolbox           |
|  \\    /   O peration     | Version:  dev                                   |
|   \\  /    A nd           | Web:      www.OpenFOAM.org                      |
|    \\/     M anipulation  |                                                 |
\*---------------------------------------------------------------------------*/
FoamFile
{
    version     2.0;
    format      ascii;
    class       volScalarField;
    location    "0.08";
    object      C2H6;
}
// * * * * * * * * * * * * * * * * * * * * * * * * * * * * * * * * * * * * * //

dimensions      [0 0 0 0 0 0 0];

internalField   nonuniform List<scalar> 
25
(
1.39415e-13
2.00836e-13
2.91163e-13
4.19912e-13
6.02173e-13
8.51355e-13
1.19773e-12
1.67557e-12
2.33025e-12
3.22145e-12
4.42725e-12
6.0492e-12
8.21894e-12
1.11065e-11
1.49312e-11
1.99767e-11
2.66112e-11
3.53174e-11
4.67343e-11
6.17294e-11
8.15055e-11
1.07779e-10
1.43078e-10
1.91242e-10
2.58241e-10
)
;

boundaryField
{
    wall
    {
        type            zeroGradient;
    }
    fuel
    {
        type            fixedValue;
        value           nonuniform 0();
    }
    outlet
    {
        type            inletOutlet;
        inletValue      nonuniform 0();
        value           nonuniform 0();
    }
    procBoundary2to1
    {
        type            processor;
        value           uniform 9.5816e-14;
    }
    procBoundary2to3
    {
        type            processor;
        value           uniform 3.54374e-10;
    }
}


// ************************************************************************* //
