/*--------------------------------*- C++ -*----------------------------------*\
| =========                 |                                                 |
| \\      /  F ield         | OpenFOAM: The Open Source CFD Toolbox           |
|  \\    /   O peration     | Version:  dev                                   |
|   \\  /    A nd           | Web:      www.OpenFOAM.org                      |
|    \\/     M anipulation  |                                                 |
\*---------------------------------------------------------------------------*/
FoamFile
{
    version     2.0;
    format      ascii;
    class       volScalarField;
    location    "0.08";
    object      C4H612;
}
// * * * * * * * * * * * * * * * * * * * * * * * * * * * * * * * * * * * * * //

dimensions      [0 0 0 0 0 0 0];

internalField   nonuniform List<scalar> 
25
(
5.55532e-18
6.76161e-18
8.25739e-18
1.00776e-17
1.23324e-17
1.51224e-17
1.87686e-17
2.36815e-17
3.0494e-17
4.01703e-17
5.41625e-17
7.4631e-17
1.04749e-16
1.49106e-16
2.1422e-16
3.09142e-16
4.46078e-16
6.40888e-16
9.1312e-16
1.28531e-15
1.78081e-15
2.41982e-15
3.21378e-15
4.15961e-15
5.23776e-15
)
;

boundaryField
{
    wall
    {
        type            zeroGradient;
    }
    fuel
    {
        type            fixedValue;
        value           nonuniform 0();
    }
    outlet
    {
        type            inletOutlet;
        inletValue      nonuniform 0();
        value           nonuniform 0();
    }
    procBoundary2to1
    {
        type            processor;
        value           uniform 4.51856e-18;
    }
    procBoundary2to3
    {
        type            processor;
        value           uniform 6.32703e-15;
    }
}


// ************************************************************************* //
