/*--------------------------------*- C++ -*----------------------------------*\
| =========                 |                                                 |
| \\      /  F ield         | OpenFOAM: The Open Source CFD Toolbox           |
|  \\    /   O peration     | Version:  dev                                   |
|   \\  /    A nd           | Web:      www.OpenFOAM.org                      |
|    \\/     M anipulation  |                                                 |
\*---------------------------------------------------------------------------*/
FoamFile
{
    version     2.0;
    format      ascii;
    class       volScalarField;
    location    "0.08";
    object      C6H5OH;
}
// * * * * * * * * * * * * * * * * * * * * * * * * * * * * * * * * * * * * * //

dimensions      [0 0 0 0 0 0 0];

internalField   nonuniform List<scalar> 
25
(
5.20934e-13
7.25204e-13
9.97969e-13
1.34695e-12
1.7854e-12
2.31172e-12
2.94806e-12
3.70334e-12
4.58349e-12
5.59015e-12
6.71926e-12
7.95963e-12
9.29186e-12
1.06878e-11
1.21109e-11
1.35177e-11
1.486e-11
1.60888e-11
1.7157e-11
1.80237e-11
1.86572e-11
1.90367e-11
1.91536e-11
1.90121e-11
1.86279e-11
)
;

boundaryField
{
    wall
    {
        type            zeroGradient;
    }
    fuel
    {
        type            fixedValue;
        value           nonuniform 0();
    }
    outlet
    {
        type            inletOutlet;
        inletValue      nonuniform 0();
        value           nonuniform 0();
    }
    procBoundary2to1
    {
        type            processor;
        value           uniform 3.67177e-13;
    }
    procBoundary2to3
    {
        type            processor;
        value           uniform 1.80271e-11;
    }
}


// ************************************************************************* //
