/*--------------------------------*- C++ -*----------------------------------*\
| =========                 |                                                 |
| \\      /  F ield         | OpenFOAM: The Open Source CFD Toolbox           |
|  \\    /   O peration     | Version:  dev                                   |
|   \\  /    A nd           | Web:      www.OpenFOAM.org                      |
|    \\/     M anipulation  |                                                 |
\*---------------------------------------------------------------------------*/
FoamFile
{
    version     2.0;
    format      ascii;
    class       volScalarField;
    location    "0.08";
    object      CH2(S);
}
// * * * * * * * * * * * * * * * * * * * * * * * * * * * * * * * * * * * * * //

dimensions      [0 0 0 0 0 0 0];

internalField   nonuniform List<scalar> 
250
(
5.30189e-10
1.96548e-06
2.25874e-06
2.27046e-06
2.27157e-06
2.27185e-06
2.27314e-06
2.27194e-06
2.2717e-06
5.16358e-10
1.18059e-06
1.32365e-06
1.33155e-06
1.33209e-06
1.33206e-06
1.33213e-06
1.33226e-06
1.33186e-06
3.06974e-10
5.58767e-07
6.42595e-07
6.49262e-07
6.4925e-07
6.49284e-07
6.49081e-07
6.49451e-07
6.48967e-07
1.75817e-10
2.61538e-07
3.14584e-07
3.20378e-07
3.20071e-07
3.20259e-07
3.20006e-07
3.20338e-07
3.19767e-07
1.2781e-10
1.34714e-07
1.7092e-07
1.76085e-07
1.75923e-07
1.76276e-07
1.7605e-07
1.76317e-07
1.7534e-07
1.03125e-10
7.29286e-08
1.07096e-07
1.10954e-07
1.10607e-07
1.10538e-07
1.10468e-07
1.1049e-07
1.11124e-07
7.93763e-11
4.91047e-08
7.70984e-08
8.05693e-08
8.07613e-08
8.07643e-08
8.07416e-08
8.07479e-08
8.1052e-08
6.54664e-11
3.79472e-08
6.19917e-08
6.51607e-08
6.46347e-08
6.44958e-08
6.45693e-08
6.45064e-08
6.46082e-08
7.71918e-11
3.26958e-08
5.35524e-08
5.62345e-08
5.6472e-08
5.63086e-08
5.64323e-08
5.6339e-08
5.63216e-08
1.71943e-10
2.99715e-08
4.82615e-08
5.12047e-08
5.16752e-08
5.14711e-08
5.16402e-08
5.15092e-08
5.13926e-08
5.01616e-10
2.89144e-08
4.48753e-08
4.78158e-08
4.83619e-08
4.80599e-08
4.82848e-08
4.81028e-08
4.8205e-08
4.77739e-08
1.42846e-09
2.84958e-08
4.26957e-08
4.51555e-08
4.5894e-08
4.5534e-08
4.57951e-08
4.55779e-08
4.57619e-08
4.54e-08
3.44769e-09
2.83732e-08
4.07385e-08
4.30515e-08
4.39387e-08
4.35212e-08
4.3813e-08
4.3565e-08
4.37425e-08
4.34279e-08
6.9683e-09
2.82343e-08
3.90327e-08
4.12373e-08
4.22417e-08
4.17686e-08
4.2088e-08
4.18125e-08
4.19936e-08
4.16764e-08
1.18944e-08
2.78927e-08
3.74569e-08
3.95697e-08
4.06676e-08
4.01403e-08
4.04856e-08
4.01843e-08
4.03734e-08
4.00673e-08
1.73914e-08
2.73381e-08
3.59434e-08
3.79684e-08
3.91401e-08
3.85596e-08
3.89304e-08
3.86033e-08
3.88023e-08
3.85111e-08
2.21938e-08
2.64379e-08
3.44518e-08
3.63852e-08
3.76133e-08
3.69804e-08
3.73764e-08
3.7023e-08
3.72327e-08
3.69557e-08
2.52723e-08
2.52479e-08
3.29556e-08
3.47878e-08
3.60565e-08
3.53717e-08
3.57926e-08
3.54125e-08
3.56334e-08
3.53679e-08
2.62788e-08
2.41293e-08
3.14314e-08
3.3152e-08
3.44458e-08
3.37106e-08
3.41553e-08
3.37489e-08
3.39812e-08
3.37243e-08
2.54994e-08
2.28982e-08
3.00467e-08
3.14568e-08
3.27608e-08
3.19779e-08
3.24446e-08
3.20131e-08
3.22566e-08
3.20058e-08
2.35422e-08
2.1634e-08
2.85734e-08
2.96801e-08
3.09814e-08
3.01556e-08
3.06408e-08
3.01875e-08
3.04408e-08
3.01948e-08
2.10249e-08
2.03442e-08
2.69521e-08
2.77956e-08
2.90843e-08
2.82235e-08
2.87218e-08
2.82522e-08
2.85125e-08
2.82719e-08
1.84089e-08
1.905e-08
2.52615e-08
2.60347e-08
2.72942e-08
2.63948e-08
2.6912e-08
2.64192e-08
2.66931e-08
2.64509e-08
1.5964e-08
1.77564e-08
2.34723e-08
2.40652e-08
2.53745e-08
2.43314e-08
2.49044e-08
2.43544e-08
2.46585e-08
2.43939e-08
1.38049e-08
1.63199e-08
2.17654e-08
2.21157e-08
2.33951e-08
2.23075e-08
2.28993e-08
2.23274e-08
2.26452e-08
2.23763e-08
1.19427e-08
1.48521e-08
1.99508e-08
2.00836e-08
2.13305e-08
2.02025e-08
2.08108e-08
2.02205e-08
2.05505e-08
2.02776e-08
)
;

boundaryField
{
    fuel
    {
        type            fixedValue;
        value           uniform 0;
    }
    wall
    {
        type            zeroGradient;
    }
    outlet
    {
        type            zeroGradient;
    }
    frontAndBack
    {
        type            empty;
    }
    procBoundary2to0
    {
        type            processor;
        value           nonuniform List<scalar> 
12
(
2.24639e-08
1.03586e-08
1.33632e-08
1.80859e-08
1.79873e-08
1.91915e-08
1.80342e-08
1.86531e-08
1.80505e-08
1.83899e-08
2.03623e-08
1.81142e-08
)
;
    }
    procBoundary2to3
    {
        type            processor;
        value           nonuniform List<scalar> 
25
(
2.27302e-06
1.33226e-06
6.49224e-07
3.19909e-07
1.75365e-07
1.10991e-07
8.05476e-08
6.48251e-08
5.61838e-08
5.10964e-08
5.10964e-08
4.81476e-08
4.56261e-08
4.36187e-08
4.18734e-08
4.02531e-08
3.86803e-08
3.7108e-08
3.55052e-08
3.38487e-08
3.21192e-08
3.02984e-08
2.83658e-08
2.65395e-08
2.44851e-08
)
;
    }
}


// ************************************************************************* //
