/*--------------------------------*- C++ -*----------------------------------*\
| =========                 |                                                 |
| \\      /  F ield         | OpenFOAM: The Open Source CFD Toolbox           |
|  \\    /   O peration     | Version:  dev                                   |
|   \\  /    A nd           | Web:      www.OpenFOAM.org                      |
|    \\/     M anipulation  |                                                 |
\*---------------------------------------------------------------------------*/
FoamFile
{
    version     2.0;
    format      ascii;
    class       volScalarField;
    location    "0.08";
    object      CO;
}
// * * * * * * * * * * * * * * * * * * * * * * * * * * * * * * * * * * * * * //

dimensions      [0 0 0 0 0 0 0];

internalField   nonuniform List<scalar> 
250
(
0.00938175
0.133215
0.135455
0.135776
0.135821
0.135829
0.13583
0.13583
0.135832
0.0255652
0.154883
0.157458
0.157856
0.157923
0.15793
0.157933
0.157932
0.157934
0.0421038
0.160245
0.163522
0.164064
0.164163
0.164173
0.164176
0.164176
0.164179
0.0582751
0.162165
0.166182
0.166888
0.167023
0.167037
0.167041
0.167041
0.167044
0.0735854
0.163118
0.167802
0.168677
0.168851
0.168869
0.168874
0.168874
0.168879
0.0876819
0.16374
0.168988
0.170035
0.170246
0.170269
0.170275
0.170276
0.170285
0.100369
0.164247
0.169945
0.171163
0.171413
0.171442
0.171448
0.171451
0.171471
0.111607
0.164729
0.170854
0.172142
0.172432
0.172471
0.172478
0.172486
0.172525
0.12151
0.165229
0.171728
0.17316
0.173486
0.173532
0.173538
0.173538
0.173502
0.130322
0.165766
0.172442
0.174119
0.174426
0.174453
0.174459
0.174464
0.174445
0.138225
0.166348
0.173164
0.174901
0.175258
0.175303
0.175311
0.175318
0.175303
0.175355
0.145122
0.166979
0.173913
0.175701
0.176124
0.176179
0.176188
0.176197
0.176185
0.176209
0.150735
0.167654
0.174662
0.176495
0.17695
0.177013
0.177024
0.177034
0.177022
0.176967
0.155084
0.168365
0.175307
0.17726
0.177741
0.177811
0.177823
0.177834
0.177822
0.177789
0.15845
0.169109
0.176001
0.177994
0.178499
0.178575
0.178588
0.1786
0.178587
0.178567
0.161124
0.169877
0.176656
0.178698
0.179223
0.179304
0.179318
0.179331
0.179316
0.179304
0.163321
0.170693
0.177262
0.179372
0.179912
0.179997
0.180012
0.180026
0.18001
0.180002
0.165184
0.171619
0.177938
0.180015
0.180565
0.180653
0.18067
0.180684
0.180667
0.180662
0.166808
0.172566
0.178601
0.180628
0.181181
0.181272
0.18129
0.181304
0.181287
0.181283
0.168255
0.173527
0.179243
0.18121
0.18176
0.181852
0.18187
0.181885
0.181868
0.181865
0.169567
0.174392
0.17986
0.181759
0.182299
0.182392
0.182411
0.182425
0.182408
0.182406
0.170773
0.175232
0.18045
0.182277
0.182799
0.182892
0.182911
0.182924
0.182908
0.182907
0.171953
0.17615
0.181007
0.182698
0.183202
0.183293
0.183313
0.183325
0.18331
0.183309
0.173021
0.177035
0.181529
0.183104
0.183595
0.183685
0.183704
0.183717
0.183703
0.183702
0.174027
0.177785
0.182014
0.183443
0.183908
0.183997
0.184016
0.184027
0.184014
0.184014
0.174977
0.178494
0.182406
0.183736
0.184173
0.184259
0.184278
0.184288
0.184276
0.184275
)
;

boundaryField
{
    fuel
    {
        type            fixedValue;
        value           uniform 0;
    }
    wall
    {
        type            zeroGradient;
    }
    outlet
    {
        type            zeroGradient;
    }
    frontAndBack
    {
        type            empty;
    }
    procBoundary2to0
    {
        type            processor;
        value           nonuniform List<scalar> 
12
(
0.184024
0.17587
0.179148
0.182752
0.183981
0.184389
0.184472
0.184489
0.184498
0.184488
0.184284
0.184487
)
;
    }
    procBoundary2to3
    {
        type            processor;
        value           nonuniform List<scalar> 
25
(
0.135831
0.157936
0.164182
0.167051
0.168889
0.170299
0.171482
0.172518
0.173579
0.174503
0.174503
0.175317
0.176195
0.177031
0.177831
0.178597
0.179328
0.180023
0.180681
0.181301
0.181881
0.182421
0.182921
0.183322
0.183713
)
;
    }
}


// ************************************************************************* //
