/*--------------------------------*- C++ -*----------------------------------*\
| =========                 |                                                 |
| \\      /  F ield         | OpenFOAM: The Open Source CFD Toolbox           |
|  \\    /   O peration     | Version:  dev                                   |
|   \\  /    A nd           | Web:      www.OpenFOAM.org                      |
|    \\/     M anipulation  |                                                 |
\*---------------------------------------------------------------------------*/
FoamFile
{
    version     2.0;
    format      ascii;
    class       volScalarField;
    location    "0.08";
    object      HCO;
}
// * * * * * * * * * * * * * * * * * * * * * * * * * * * * * * * * * * * * * //

dimensions      [0 0 0 0 0 0 0];

internalField   nonuniform List<scalar> 
25
(
1.1305e-07
1.1096e-07
1.08931e-07
1.07016e-07
1.05218e-07
1.03587e-07
1.02071e-07
1.00667e-07
9.93731e-08
9.81887e-08
9.71128e-08
9.61449e-08
9.52849e-08
9.45341e-08
9.38949e-08
9.33717e-08
9.29704e-08
9.26987e-08
9.25668e-08
9.25861e-08
9.27703e-08
9.31362e-08
9.37045e-08
9.45008e-08
9.55545e-08
)
;

boundaryField
{
    wall
    {
        type            zeroGradient;
    }
    fuel
    {
        type            fixedValue;
        value           nonuniform 0();
    }
    outlet
    {
        type            inletOutlet;
        inletValue      nonuniform 0();
        value           nonuniform 0();
    }
    procBoundary2to1
    {
        type            processor;
        value           uniform 1.15256e-07;
    }
    procBoundary2to3
    {
        type            processor;
        value           uniform 9.68975e-08;
    }
}


// ************************************************************************* //
