/*--------------------------------*- C++ -*----------------------------------*\
| =========                 |                                                 |
| \\      /  F ield         | OpenFOAM: The Open Source CFD Toolbox           |
|  \\    /   O peration     | Version:  dev                                   |
|   \\  /    A nd           | Web:      www.OpenFOAM.org                      |
|    \\/     M anipulation  |                                                 |
\*---------------------------------------------------------------------------*/
FoamFile
{
    version     2.0;
    format      ascii;
    class       volScalarField;
    location    "0.08";
    object      n-A1C2H2;
}
// * * * * * * * * * * * * * * * * * * * * * * * * * * * * * * * * * * * * * //

dimensions      [0 0 0 0 0 0 0];

internalField   nonuniform List<scalar> 
250
(
1.68775e-11
1.65901e-08
1.37831e-08
1.33919e-08
1.33396e-08
1.33307e-08
1.33292e-08
1.33299e-08
1.33303e-08
1.96617e-10
5.47512e-09
4.19398e-09
4.03154e-09
4.0079e-09
4.00515e-09
4.00417e-09
4.0046e-09
4.00465e-09
5.18432e-10
2.39404e-09
1.60459e-09
1.51488e-09
1.5011e-09
1.4999e-09
1.49931e-09
1.49953e-09
1.49947e-09
7.6323e-10
1.3704e-09
7.71394e-10
7.10779e-10
7.01246e-10
7.00518e-10
7.00111e-10
7.00251e-10
7.00139e-10
8.36718e-10
9.29772e-10
4.34855e-10
3.89401e-10
3.82279e-10
3.8174e-10
3.81449e-10
3.81533e-10
3.81388e-10
7.76311e-10
7.00306e-10
2.7492e-10
2.38229e-10
2.32659e-10
2.32205e-10
2.31994e-10
2.32035e-10
2.31786e-10
6.88039e-10
5.63482e-10
1.90752e-10
1.58928e-10
1.54343e-10
1.5391e-10
1.53754e-10
1.53749e-10
1.53236e-10
7.01283e-10
4.72228e-10
1.3848e-10
1.14239e-10
1.10173e-10
1.09679e-10
1.09556e-10
1.09414e-10
1.08381e-10
1.23695e-09
4.05416e-10
1.04974e-10
8.38727e-11
8.04437e-11
7.99695e-11
7.99064e-11
8.00184e-11
8.0874e-11
2.64489e-09
3.5304e-10
8.57405e-11
6.44819e-11
6.23389e-11
6.22984e-11
6.22593e-11
6.22606e-11
6.26441e-11
3.87379e-09
3.09304e-10
7.17393e-11
5.31137e-11
5.0772e-11
5.05628e-11
5.05094e-11
5.04818e-11
5.0705e-11
5.03212e-11
4.46434e-09
2.71245e-10
6.10884e-11
4.45598e-11
4.20503e-11
4.17915e-11
4.17472e-11
4.17144e-11
4.18307e-11
4.17559e-11
3.95253e-09
2.37483e-10
5.29762e-11
3.81597e-11
3.58037e-11
3.5525e-11
3.54827e-11
3.5448e-11
3.55203e-11
3.59877e-11
3.01114e-09
2.07831e-10
4.73918e-11
3.33426e-11
3.11348e-11
3.08529e-11
3.08104e-11
3.07749e-11
3.0829e-11
3.10865e-11
2.2019e-09
1.82139e-10
4.24423e-11
2.95931e-11
2.75186e-11
2.724e-11
2.71969e-11
2.71615e-11
2.72089e-11
2.73491e-11
1.61732e-09
1.60014e-10
3.84806e-11
2.6588e-11
2.46326e-11
2.43604e-11
2.43168e-11
2.42822e-11
2.4327e-11
2.44066e-11
1.19796e-09
1.40294e-10
3.52867e-11
2.4117e-11
2.22732e-11
2.20091e-11
2.19653e-11
2.19318e-11
2.19752e-11
2.20231e-11
8.87149e-10
1.21419e-10
3.21294e-11
2.20423e-11
2.03084e-11
2.00537e-11
2.00102e-11
1.99783e-11
2.00201e-11
2.00509e-11
6.53356e-10
1.04942e-10
2.93466e-11
2.02747e-11
1.86515e-11
1.84072e-11
1.83643e-11
1.83343e-11
1.83741e-11
1.83956e-11
4.79127e-10
9.05049e-11
2.68973e-11
1.87546e-11
1.72441e-11
1.70107e-11
1.69688e-11
1.69411e-11
1.69782e-11
1.69944e-11
3.5196e-10
7.90967e-11
2.474e-11
1.74409e-11
1.60453e-11
1.58233e-11
1.57826e-11
1.57578e-11
1.57916e-11
1.58048e-11
2.60962e-10
6.93349e-11
2.28413e-11
1.63033e-11
1.50258e-11
1.48152e-11
1.47761e-11
1.47547e-11
1.47845e-11
1.47963e-11
1.94073e-10
5.98907e-11
2.11797e-11
1.54502e-11
1.42746e-11
1.40744e-11
1.40371e-11
1.40186e-11
1.4045e-11
1.40563e-11
1.48679e-10
5.18097e-11
1.97381e-11
1.46963e-11
1.36052e-11
1.34154e-11
1.33796e-11
1.33636e-11
1.33865e-11
1.3397e-11
1.16551e-10
4.56736e-11
1.85015e-11
1.4127e-11
1.31307e-11
1.29505e-11
1.29167e-11
1.29042e-11
1.29231e-11
1.29345e-11
9.3438e-11
4.0458e-11
1.75861e-11
1.36952e-11
1.27896e-11
1.26185e-11
1.25867e-11
1.25781e-11
1.25928e-11
1.26056e-11
)
;

boundaryField
{
    fuel
    {
        type            fixedValue;
        value           uniform 0;
    }
    wall
    {
        type            zeroGradient;
    }
    outlet
    {
        type            zeroGradient;
    }
    frontAndBack
    {
        type            empty;
    }
    procBoundary2to0
    {
        type            processor;
        value           nonuniform List<scalar> 
12
(
1.29141e-11
7.65042e-11
3.61059e-11
1.6852e-11
1.33963e-11
1.25772e-11
1.24147e-11
1.23849e-11
1.23804e-11
1.23907e-11
1.2588e-11
1.24056e-11
)
;
    }
    procBoundary2to3
    {
        type            processor;
        value           nonuniform List<scalar> 
25
(
1.33308e-08
4.00464e-09
1.49935e-09
7.00011e-10
3.81252e-10
2.31688e-10
1.53351e-10
1.09158e-10
7.95983e-11
6.19924e-11
6.19924e-11
5.05005e-11
4.17354e-11
3.54695e-11
3.07945e-11
2.71789e-11
2.42974e-11
2.19455e-11
1.99906e-11
1.83457e-11
1.69519e-11
1.57681e-11
1.47647e-11
1.40288e-11
1.33734e-11
)
;
    }
}


// ************************************************************************* //
