/*--------------------------------*- C++ -*----------------------------------*\
| =========                 |                                                 |
| \\      /  F ield         | OpenFOAM: The Open Source CFD Toolbox           |
|  \\    /   O peration     | Version:  dev                                   |
|   \\  /    A nd           | Web:      www.OpenFOAM.org                      |
|    \\/     M anipulation  |                                                 |
\*---------------------------------------------------------------------------*/
FoamFile
{
    version     2.0;
    format      ascii;
    class       volScalarField;
    location    "0.08";
    object      n-A1C2H2;
}
// * * * * * * * * * * * * * * * * * * * * * * * * * * * * * * * * * * * * * //

dimensions      [0 0 0 0 0 0 0];

internalField   nonuniform List<scalar> 
25
(
4.26048e-19
5.31921e-19
6.7283e-19
8.51754e-19
1.07363e-18
1.33425e-18
1.63929e-18
1.98545e-18
2.36659e-18
2.77488e-18
3.20261e-18
3.6444e-18
4.09935e-18
4.57281e-18
5.07753e-18
5.63392e-18
6.26982e-18
7.01984e-18
7.92457e-18
9.03077e-18
1.03919e-17
1.20701e-17
1.41411e-17
1.67032e-17
1.98994e-17
)
;

boundaryField
{
    wall
    {
        type            zeroGradient;
    }
    fuel
    {
        type            fixedValue;
        value           nonuniform 0();
    }
    outlet
    {
        type            inletOutlet;
        inletValue      nonuniform 0();
        value           nonuniform 0();
    }
    procBoundary2to1
    {
        type            processor;
        value           uniform 3.42817e-19;
    }
    procBoundary2to3
    {
        type            processor;
        value           uniform 2.36563e-17;
    }
}


// ************************************************************************* //
