/*--------------------------------*- C++ -*----------------------------------*\
| =========                 |                                                 |
| \\      /  F ield         | OpenFOAM: The Open Source CFD Toolbox           |
|  \\    /   O peration     | Version:  dev                                   |
|   \\  /    A nd           | Web:      www.OpenFOAM.org                      |
|    \\/     M anipulation  |                                                 |
\*---------------------------------------------------------------------------*/
FoamFile
{
    version     2.0;
    format      ascii;
    class       volScalarField;
    location    "0.08";
    object      naphthyne;
}
// * * * * * * * * * * * * * * * * * * * * * * * * * * * * * * * * * * * * * //

dimensions      [0 0 0 0 0 0 0];

internalField   nonuniform List<scalar> 
250
(
2.50943e-09
8.39766e-08
7.53184e-08
7.38402e-08
7.3607e-08
7.35809e-08
7.35793e-08
7.35773e-08
7.35836e-08
5.69272e-09
9.09945e-08
7.05215e-08
6.74829e-08
6.70095e-08
6.6955e-08
6.69411e-08
6.69449e-08
6.69432e-08
7.99543e-09
8.06444e-08
5.4907e-08
5.12018e-08
5.06067e-08
5.0544e-08
5.05238e-08
5.05297e-08
5.05229e-08
9.71415e-09
7.0263e-08
4.2199e-08
3.82097e-08
3.75561e-08
3.74916e-08
3.74692e-08
3.74745e-08
3.74652e-08
1.10834e-08
6.13076e-08
3.25407e-08
2.84904e-08
2.78285e-08
2.77646e-08
2.77428e-08
2.77464e-08
2.77328e-08
1.22484e-08
5.38623e-08
2.52799e-08
2.12945e-08
2.06603e-08
2.05978e-08
2.0578e-08
2.05794e-08
2.0554e-08
1.32846e-08
4.78038e-08
1.99155e-08
1.60408e-08
1.54483e-08
1.53857e-08
1.53685e-08
1.53665e-08
1.53132e-08
1.42107e-08
4.28826e-08
1.56057e-08
1.22947e-08
1.17368e-08
1.16679e-08
1.1653e-08
1.16377e-08
1.15308e-08
1.49994e-08
3.88196e-08
1.22799e-08
9.27621e-09
8.78542e-09
8.71868e-09
8.70983e-09
8.72006e-09
8.80886e-09
1.55764e-08
3.53854e-08
1.01311e-08
7.12322e-09
6.78871e-09
6.77286e-09
6.76687e-09
6.76587e-09
6.80754e-09
1.57804e-08
3.23833e-08
8.43998e-09
5.77952e-09
5.43546e-09
5.40203e-09
5.39451e-09
5.39043e-09
5.41581e-09
5.3655e-09
1.54218e-08
2.96653e-08
7.08667e-09
4.73296e-09
4.38091e-09
4.34335e-09
4.33708e-09
4.33256e-09
4.34623e-09
4.33385e-09
1.45451e-08
2.71349e-08
6.02578e-09
3.93777e-09
3.61594e-09
3.57752e-09
3.57168e-09
3.56709e-09
3.57582e-09
3.63069e-09
1.35371e-08
2.47383e-08
5.28535e-09
3.33851e-09
3.04513e-09
3.00771e-09
3.00206e-09
2.99755e-09
3.00415e-09
3.03426e-09
1.27974e-08
2.24481e-08
4.62767e-09
2.87601e-09
2.60797e-09
2.57224e-09
2.56672e-09
2.56238e-09
2.56809e-09
2.5843e-09
1.25063e-08
2.02596e-08
4.10283e-09
2.51087e-09
2.26517e-09
2.23135e-09
2.22596e-09
2.22186e-09
2.22714e-09
2.23622e-09
1.2619e-08
1.81025e-08
3.68342e-09
2.21638e-09
1.99087e-09
1.95903e-09
1.95381e-09
1.94997e-09
1.95493e-09
1.96034e-09
1.29525e-08
1.58399e-08
3.27453e-09
1.97448e-09
1.76786e-09
1.738e-09
1.73295e-09
1.72941e-09
1.73407e-09
1.73753e-09
1.32939e-08
1.37177e-08
2.9199e-09
1.77321e-09
1.58447e-09
1.55655e-09
1.55172e-09
1.54849e-09
1.5528e-09
1.55521e-09
1.34741e-08
1.17593e-08
2.6136e-09
1.60435e-09
1.43267e-09
1.40661e-09
1.40202e-09
1.39914e-09
1.40305e-09
1.40487e-09
1.34033e-08
1.01642e-08
2.34954e-09
1.46211e-09
1.30677e-09
1.28249e-09
1.27815e-09
1.27564e-09
1.27911e-09
1.28061e-09
1.30527e-08
8.77159e-09
2.12233e-09
1.34216e-09
1.20257e-09
1.17998e-09
1.17589e-09
1.17381e-09
1.17678e-09
1.17813e-09
1.2411e-08
7.41054e-09
1.92811e-09
1.25408e-09
1.12747e-09
1.10629e-09
1.10246e-09
1.10073e-09
1.1033e-09
1.1046e-09
1.15894e-08
6.24739e-09
1.76398e-09
1.17871e-09
1.06306e-09
1.04321e-09
1.03959e-09
1.03819e-09
1.04034e-09
1.0416e-09
1.0629e-08
5.3734e-09
1.62737e-09
1.12362e-09
1.01905e-09
1.00035e-09
9.96978e-10
9.95986e-10
9.9768e-10
9.99069e-10
9.58956e-09
4.64115e-09
1.52895e-09
1.08403e-09
9.89665e-10
9.71969e-10
9.68836e-10
9.68296e-10
9.69508e-10
9.7111e-10
)
;

boundaryField
{
    fuel
    {
        type            fixedValue;
        value           uniform 0;
    }
    wall
    {
        type            zeroGradient;
    }
    outlet
    {
        type            zeroGradient;
    }
    frontAndBack
    {
        type            empty;
    }
    procBoundary2to0
    {
        type            processor;
        value           nonuniform List<scalar> 
12
(
9.97041e-10
8.52884e-09
4.04126e-09
1.45336e-09
1.05953e-09
9.74582e-10
9.57762e-10
9.54854e-10
9.5481e-10
9.55508e-10
9.69385e-10
9.57412e-10
)
;
    }
    procBoundary2to3
    {
        type            processor;
        value           nonuniform List<scalar> 
25
(
7.35745e-08
6.69368e-08
5.05137e-08
3.74503e-08
2.77125e-08
2.05337e-08
1.53114e-08
1.1595e-08
8.66346e-09
6.72674e-09
6.72674e-09
5.39276e-09
4.33516e-09
3.56975e-09
2.99995e-09
2.56447e-09
2.22367e-09
1.95156e-09
1.73083e-09
1.54978e-09
1.40033e-09
1.27678e-09
1.17489e-09
1.10181e-09
1.03923e-09
)
;
    }
}


// ************************************************************************* //
