/*--------------------------------*- C++ -*----------------------------------*\
| =========                 |                                                 |
| \\      /  F ield         | OpenFOAM: The Open Source CFD Toolbox           |
|  \\    /   O peration     | Version:  dev                                   |
|   \\  /    A nd           | Web:      www.OpenFOAM.org                      |
|    \\/     M anipulation  |                                                 |
\*---------------------------------------------------------------------------*/
FoamFile
{
    version     2.0;
    format      ascii;
    class       volScalarField;
    location    "0.08";
    object      O2;
}
// * * * * * * * * * * * * * * * * * * * * * * * * * * * * * * * * * * * * * //

dimensions      [0 0 0 0 0 0 0];

internalField   nonuniform List<scalar> 
250
(
0.179015
0.0315737
0.0299591
0.0297589
0.029734
0.0297286
0.0297269
0.029728
0.0297272
0.15765
0.00731509
0.00653411
0.00645286
0.0064401
0.00643933
0.00643799
0.00643873
0.00643856
0.136032
0.00238017
0.00186854
0.00183049
0.00182414
0.00182402
0.00182343
0.0018237
0.00182373
0.115311
0.00110729
0.000658509
0.000637454
0.000634044
0.000634014
0.000633754
0.000633855
0.000633882
0.0962459
0.000704161
0.000265954
0.000252784
0.000250839
0.000250828
0.000250694
0.000250746
0.000250751
0.0792923
0.000548008
0.000117446
0.000108341
0.000107196
0.000107188
0.000107113
0.000107142
0.000107123
0.0645984
0.00046895
5.61706e-05
4.88336e-05
4.81372e-05
4.81228e-05
4.80799e-05
4.80891e-05
4.79997e-05
0.0520404
0.000414208
2.75722e-05
2.3144e-05
2.26555e-05
2.2615e-05
2.25873e-05
2.25412e-05
2.22392e-05
0.0412799
0.000366149
1.41774e-05
1.05163e-05
1.02476e-05
1.02149e-05
1.02076e-05
1.02634e-05
1.05768e-05
0.0319424
0.000318814
8.42214e-06
4.8127e-06
4.87062e-06
4.92971e-06
4.92789e-06
4.93866e-06
5.06563e-06
0.0239448
0.000271189
5.32303e-06
2.43065e-06
2.40534e-06
2.42483e-06
2.42095e-06
2.42236e-06
2.48118e-06
2.46425e-06
0.0173711
0.000224744
3.56818e-06
1.21285e-06
1.16262e-06
1.16888e-06
1.16751e-06
1.16765e-06
1.19132e-06
1.20793e-06
0.0123831
0.000181971
2.52354e-06
6.18165e-07
5.83113e-07
5.84533e-07
5.84091e-07
5.84013e-07
5.9345e-07
6.44786e-07
0.00880951
0.000144625
1.91351e-06
3.32325e-07
3.08127e-07
3.08384e-07
3.08281e-07
3.08155e-07
3.11817e-07
3.3604e-07
0.00628396
0.000113252
1.45021e-06
1.92708e-07
1.759e-07
1.75988e-07
1.76004e-07
1.7588e-07
1.77298e-07
1.88075e-07
0.00448552
8.76891e-05
1.11709e-06
1.23227e-07
1.11406e-07
1.11521e-07
1.11571e-07
1.11461e-07
1.12036e-07
1.16762e-07
0.00319305
6.68363e-05
8.75298e-07
8.76475e-08
7.92708e-08
7.94283e-08
7.94776e-08
7.9379e-08
7.96421e-08
8.16979e-08
0.00226117
4.91572e-05
6.64332e-07
6.85327e-08
6.2643e-08
6.28294e-08
6.28674e-08
6.27737e-08
6.29205e-08
6.37961e-08
0.001591
3.56336e-05
5.01428e-07
5.75338e-08
5.34375e-08
5.36377e-08
5.3662e-08
5.35673e-08
5.36712e-08
5.40217e-08
0.00111189
2.53404e-05
3.77156e-07
5.05601e-08
4.77463e-08
4.79482e-08
4.79593e-08
4.78592e-08
4.79488e-08
4.80615e-08
0.00077189
1.82523e-05
2.84813e-07
4.55751e-08
4.36633e-08
4.38573e-08
4.38561e-08
4.37481e-08
4.38351e-08
4.38352e-08
0.000532675
1.31158e-05
2.15202e-07
4.15201e-08
4.02428e-08
4.04212e-08
4.04086e-08
4.02915e-08
4.03807e-08
4.03226e-08
0.000357899
8.97644e-06
1.61915e-07
3.82898e-08
3.74044e-08
3.75655e-08
3.75445e-08
3.74172e-08
3.75123e-08
3.74227e-08
0.000240394
6.0464e-06
1.21852e-07
3.50352e-08
3.43219e-08
3.44571e-08
3.44246e-08
3.4282e-08
3.43873e-08
3.42698e-08
0.000159053
4.17648e-06
9.19763e-08
3.20096e-08
3.14353e-08
3.15479e-08
3.15085e-08
3.13566e-08
3.14688e-08
3.13353e-08
0.000103254
2.84819e-06
7.13358e-08
2.89873e-08
2.84745e-08
2.85647e-08
2.85198e-08
2.83604e-08
2.84789e-08
2.83333e-08
)
;

boundaryField
{
    fuel
    {
        type            fixedValue;
        value           uniform 0.1914;
    }
    wall
    {
        type            zeroGradient;
    }
    outlet
    {
        type            inletOutlet;
        inletValue      uniform 0;
        value           nonuniform List<scalar> 
26
(
0.179015
0.15765
0.136032
0.115311
0.0962459
0.0792923
0.0645984
0.0520404
0.0412799
0.0319424
0.0239448
0.0173711
0.0123831
0.00880951
0.00628396
0.00448552
0.00319305
0.00226117
0.001591
0.00111189
0.00077189
0.000532675
0.000357899
0.000240394
0.000159053
0.000103254
)
;
    }
    frontAndBack
    {
        type            empty;
    }
    procBoundary2to0
    {
        type            processor;
        value           nonuniform List<scalar> 
12
(
3.13133e-08
6.57594e-05
1.93335e-06
5.55319e-08
2.59491e-08
2.54536e-08
2.55227e-08
2.54745e-08
2.53106e-08
2.54335e-08
2.83158e-08
2.52797e-08
)
;
    }
    procBoundary2to3
    {
        type            processor;
        value           nonuniform List<scalar> 
25
(
0.0297288
0.00643885
0.00182369
0.000633829
0.000250734
0.000107141
4.80958e-05
2.26016e-05
1.02171e-05
4.94873e-06
4.94873e-06
2.42321e-06
1.16881e-06
5.84967e-07
3.0878e-07
1.76253e-07
1.1167e-07
7.9488e-08
6.28236e-08
5.35824e-08
4.78533e-08
4.37287e-08
4.02628e-08
3.73833e-08
3.42411e-08
)
;
    }
}


// ************************************************************************* //
