/*--------------------------------*- C++ -*----------------------------------*\
| =========                 |                                                 |
| \\      /  F ield         | OpenFOAM: The Open Source CFD Toolbox           |
|  \\    /   O peration     | Version:  dev                                   |
|   \\  /    A nd           | Web:      www.OpenFOAM.org                      |
|    \\/     M anipulation  |                                                 |
\*---------------------------------------------------------------------------*/
FoamFile
{
    version     2.0;
    format      ascii;
    class       surfaceScalarField;
    location    "0.08";
    object      phi;
}
// * * * * * * * * * * * * * * * * * * * * * * * * * * * * * * * * * * * * * //

dimensions      [1 0 -1 0 0 0 0];

internalField   nonuniform List<scalar> 
464
(
2.81525e-07
3.72622e-06
-5.06472e-08
8.42741e-06
-5.09701e-08
8.18112e-06
-5.13946e-08
8.18534e-06
-4.93647e-08
8.18175e-06
-3.76506e-08
8.17285e-06
-2.35662e-08
8.17194e-06
-2.08509e-08
8.18184e-06
8.16931e-06
5.17969e-07
2.07266e-06
-8.68611e-08
8.94693e-06
-6.76995e-08
8.1596e-06
-9.02354e-08
8.2094e-06
-7.28825e-08
8.16583e-06
-6.19241e-08
8.1634e-06
-4.01692e-08
8.15197e-06
-3.04368e-08
8.17357e-06
8.15061e-06
5.52372e-07
2.11482e-06
-1.27431e-07
9.51713e-06
-8.6545e-08
8.11569e-06
-1.28521e-07
8.25322e-06
-9.83312e-08
8.13745e-06
-8.54973e-08
8.1524e-06
-5.7766e-08
8.12605e-06
-4.00038e-08
8.15762e-06
8.12815e-06
5.12737e-07
3.0263e-06
-1.69814e-07
1.00652e-05
-1.07526e-07
8.04967e-06
-1.64187e-07
8.31202e-06
-1.2437e-07
8.09964e-06
-1.06672e-07
8.13675e-06
-7.55189e-08
8.09687e-06
-4.80115e-08
8.13217e-06
8.10253e-06
4.39183e-07
4.31917e-06
-2.10844e-07
1.05641e-05
-1.32325e-07
7.96685e-06
-1.96257e-07
8.3783e-06
-1.51815e-07
8.05729e-06
-1.26794e-07
8.11388e-06
-9.315e-08
8.06527e-06
-5.68433e-08
8.09801e-06
8.07294e-06
3.47783e-07
5.7127e-06
-2.49962e-07
1.10035e-05
-1.60964e-07
7.87319e-06
-2.24837e-07
8.44392e-06
-1.79129e-07
8.01312e-06
-1.45723e-07
8.08207e-06
-1.10398e-07
8.03145e-06
-6.50812e-08
8.05425e-06
8.03959e-06
2.45687e-07
7.0413e-06
-2.86538e-07
1.13802e-05
-1.93666e-07
7.77559e-06
-2.50921e-07
8.5026e-06
-2.06543e-07
7.97003e-06
-1.63907e-07
8.04075e-06
-1.27244e-07
7.99603e-06
-7.3217e-08
8.00151e-06
8.00214e-06
1.37469e-07
8.1904e-06
-3.21609e-07
1.1692e-05
-2.3089e-07
7.68038e-06
-2.75805e-07
8.54846e-06
-2.34204e-07
7.92891e-06
-1.8205e-07
7.98906e-06
-1.43859e-07
7.95829e-06
-8.15787e-08
7.93976e-06
7.95976e-06
3.04304e-08
9.04398e-06
-3.57098e-07
1.19411e-05
-2.72504e-07
7.59157e-06
-3.00978e-07
8.5775e-06
-2.62374e-07
7.89036e-06
-2.00825e-07
7.92749e-06
-1.60496e-07
7.91799e-06
-9.04734e-08
7.86981e-06
7.91237e-06
-1.14589e-07
9.4889e-06
-3.94506e-07
1.21087e-05
-3.18287e-07
7.51192e-06
-3.27567e-07
8.587e-06
-2.91202e-07
7.8537e-06
-2.20645e-07
7.85648e-06
-1.77339e-07
7.87433e-06
-1.00089e-07
7.79221e-06
7.85955e-06
-2.6442e-07
9.31597e-06
-4.35596e-07
1.21769e-05
-3.67887e-07
7.442e-06
-3.56519e-07
8.57527e-06
-3.20723e-07
7.8171e-06
-2.41685e-07
7.77646e-06
-1.94493e-07
7.82628e-06
-1.10503e-07
7.7073e-06
-5.27875e-08
7.80101e-06
7.72626e-06
-3.89403e-07
8.62466e-06
-4.80783e-07
1.21791e-05
-4.20333e-07
7.38036e-06
-3.88276e-07
8.54273e-06
-3.50889e-07
7.77875e-06
-2.63942e-07
7.68835e-06
-2.11997e-07
7.77327e-06
-1.21686e-07
7.61587e-06
-5.82072e-08
7.73648e-06
7.64146e-06
-4.93384e-07
8.02953e-06
-5.30321e-07
1.21504e-05
-4.74726e-07
7.32472e-06
-4.22656e-07
8.49025e-06
-3.81581e-07
7.73669e-06
-2.87274e-07
7.59289e-06
-2.2982e-07
7.71472e-06
-1.33538e-07
7.51845e-06
-6.40252e-08
7.66588e-06
7.55107e-06
-5.96038e-07
7.52707e-06
-5.83945e-07
1.20925e-05
-5.30124e-07
7.27198e-06
-4.59246e-07
8.41917e-06
-4.12632e-07
7.68916e-06
-3.11457e-07
7.4907e-06
-2.47886e-07
7.65014e-06
-1.45921e-07
7.41544e-06
-7.01855e-08
7.58914e-06
7.45511e-06
-6.97854e-07
7.11343e-06
-6.40988e-07
1.20081e-05
-5.85687e-07
7.21878e-06
-4.97506e-07
8.3311e-06
-4.43866e-07
7.63471e-06
-3.36242e-07
7.38225e-06
-2.66093e-07
7.57913e-06
-1.58679e-07
7.30716e-06
-7.66076e-08
7.50622e-06
7.35377e-06
-7.98224e-07
6.78338e-06
-7.00506e-07
1.1899e-05
-6.40722e-07
7.16189e-06
-5.36865e-07
8.22769e-06
-4.75113e-07
7.57228e-06
-3.61381e-07
7.26793e-06
-2.84339e-07
7.50139e-06
-1.71661e-07
7.19381e-06
-8.32017e-08
7.41709e-06
7.24713e-06
-8.96092e-07
6.52987e-06
-7.61335e-07
1.17685e-05
-6.94707e-07
7.09871e-06
-5.76792e-07
8.11058e-06
-5.06223e-07
7.50111e-06
-3.86655e-07
7.14799e-06
-3.02524e-07
7.41673e-06
-1.84727e-07
7.07552e-06
-8.98774e-08
7.32174e-06
7.13527e-06
-9.90388e-07
6.344e-06
-8.22371e-07
1.16174e-05
-7.47284e-07
7.02737e-06
-6.16835e-07
7.98129e-06
-5.37067e-07
7.42078e-06
-4.11881e-07
7.02263e-06
-3.20561e-07
7.325e-06
-1.97762e-07
6.95237e-06
-9.6553e-08
7.22016e-06
7.01824e-06
-1.08006e-06
6.21537e-06
-8.82582e-07
1.1446e-05
-7.98241e-07
6.9468e-06
-6.56629e-07
7.84116e-06
-5.67545e-07
7.33115e-06
-4.36913e-07
6.89199e-06
-3.3838e-07
7.22616e-06
-2.10672e-07
6.82442e-06
-1.03159e-07
7.1124e-06
6.89608e-06
-1.16442e-06
6.13279e-06
-9.41241e-07
1.12513e-05
-8.47455e-07
6.85656e-06
-6.95907e-07
7.69141e-06
-5.97584e-07
7.23223e-06
-4.61643e-07
6.75619e-06
-3.55928e-07
7.1202e-06
-2.2339e-07
6.69173e-06
-1.09641e-07
6.99849e-06
6.76881e-06
-1.2431e-06
6.08507e-06
-9.97845e-07
1.10398e-05
-8.9496e-07
6.75683e-06
-7.34485e-07
7.53305e-06
-6.27136e-07
7.12422e-06
-4.85998e-07
6.6153e-06
-3.7317e-07
7.00717e-06
-2.35868e-07
6.55431e-06
-1.15958e-07
6.87849e-06
6.63646e-06
-1.31606e-06
6.06161e-06
-1.05219e-06
1.08115e-05
-9.40837e-07
6.64799e-06
-7.72258e-07
7.3669e-06
-6.56177e-07
7.00739e-06
-5.09938e-07
6.4694e-06
-3.90088e-07
6.88714e-06
-2.48081e-07
6.41221e-06
-1.22086e-07
6.75245e-06
6.49905e-06
-1.38358e-06
6.05296e-06
-1.10422e-06
1.05677e-05
-9.85092e-07
6.53047e-06
-8.09041e-07
7.19361e-06
-6.84591e-07
6.88204e-06
-5.33357e-07
6.31861e-06
-4.06611e-07
6.7602e-06
-2.59976e-07
6.26549e-06
-1.2799e-07
6.62045e-06
6.35664e-06
-1.44624e-06
6.05103e-06
-1.15405e-06
1.03111e-05
-1.02794e-06
6.40465e-06
-8.44966e-07
7.014e-06
-7.12505e-07
6.7485e-06
-5.56368e-07
6.16309e-06
-4.22832e-07
6.62654e-06
-2.71613e-07
6.11424e-06
-1.33696e-07
6.48264e-06
6.20929e-06
-1.50486e-06
6.04919e-06
-1.20185e-06
1.00452e-05
-1.06934e-06
6.27101e-06
-8.79963e-07
6.82845e-06
-7.39856e-07
6.60712e-06
-5.78878e-07
6.00286e-06
-4.3869e-07
6.48623e-06
-2.82949e-07
5.95847e-06
-1.39184e-07
6.33902e-06
6.05701e-06
-1.56014e-06
-1.24796e-06
-1.10957e-06
-9.14143e-07
-7.6672e-07
-6.0097e-07
-4.54247e-07
-2.94032e-07
-1.44481e-07
)
;

boundaryField
{
    fuel
    {
        type            calculated;
        value           nonuniform List<scalar> 9(-8.18316e-06 -8.18323e-06 -8.18319e-06 -8.18322e-06 -8.18321e-06 -8.18322e-06 -8.18322e-06 -8.18322e-06 -8.18323e-06);
    }
    wall
    {
        type            calculated;
        value           nonuniform 0();
    }
    outlet
    {
        type            calculated;
        value           nonuniform List<scalar> 
26
(
-1.47205e-06
-3.18961e-06
-3.95453e-06
-4.19739e-06
-4.15601e-06
-3.94055e-06
-3.59538e-06
-3.12998e-06
-2.53022e-06
-1.76019e-06
-7.8545e-07
4.37646e-08
2.2635e-07
3.97229e-07
5.56391e-07
7.04198e-07
8.41076e-07
9.67375e-07
1.08343e-06
1.18964e-06
1.28658e-06
1.37503e-06
1.45593e-06
1.53037e-06
1.5995e-06
1.66444e-06
)
;
    }
    frontAndBack
    {
        type            empty;
        value           nonuniform 0();
    }
    procBoundary2to0
    {
        type            processor;
        value           nonuniform List<scalar> 
12
(
1.29498e-08
6.0419e-06
9.76683e-06
6.13234e-06
6.63741e-06
6.4582e-06
5.83801e-06
6.33937e-06
5.79823e-06
6.18967e-06
1.25144e-08
5.89986e-06
)
;
    }
    procBoundary2to3
    {
        type            processor;
        value           nonuniform List<scalar> 
25
(
-5.44055e-09
-1.03021e-08
-1.57968e-08
-2.04475e-08
-2.5333e-08
-3.00195e-08
-3.44332e-08
-3.87331e-08
-4.31263e-08
-4.77748e-08
-7.80444e-06
2.43069e-08
2.49893e-08
2.50918e-08
2.46888e-08
2.38808e-08
2.27799e-08
2.14949e-08
2.01239e-08
1.87499e-08
1.74382e-08
1.62364e-08
1.5176e-08
1.42717e-08
1.35322e-08
)
;
    }
}


// ************************************************************************* //
