# Probe 0 (0 0 0)
# Probe 1 (0 0 0.1)
# Probe 2 (0 0 0.2)
# Probe 3 (0 0 0.3)
# Probe 4 (0 0 0.4)
# Probe 5 (0 0 0.89)
#       Probe             0             1             2             3             4             5
#        Time
    0.0115385   2.67112e+11      0.236588             0             0             0             0
    0.0115577   2.67112e+11      0.262951             0             0             0             0
    0.0115769   2.67112e+11       0.29214             0             0             0             0
    0.0115962   2.67112e+11      0.324448             0             0             0             0
    0.0116154   2.67112e+11      0.360194             0             0             0             0
    0.0116346   2.67112e+11      0.399729             0             0             0             0
    0.0116538   2.67112e+11      0.443439             0             0             0             0
    0.0116731   2.67112e+11      0.491745             0             0             0             0
    0.0116923   2.67112e+11      0.545112             0             0             0             0
    0.0117115   2.67112e+11      0.604049             0             0             0             0
    0.0117308   2.67112e+11      0.669113             0             0             0             0
      0.01175   2.67112e+11      0.740914             0             0             0             0
    0.0117692   2.67112e+11      0.820122             0             0             0             0
    0.0117885   2.67112e+11      0.907468             0             0             0             0
    0.0118077   2.67112e+11       1.00375             0             0             0             0
    0.0118269   2.67112e+11       1.10986             0             0             0             0
    0.0118462   2.67112e+11       1.22674             0             0             0             0
    0.0118654   2.67112e+11       1.35544             0             0             0             0
    0.0118846   2.67112e+11       1.49711             0             0             0             0
    0.0119038   2.67112e+11         1.653             0             0             0             0
    0.0119231   2.67112e+11       1.82449             0             0             0             0
    0.0119423   2.67112e+11       2.01305             0             0             0             0
    0.0119615   2.67112e+11       2.22032             0             0             0             0
    0.0119808   2.67112e+11       2.44808             0             0             0             0
        0.012   2.67112e+11       2.69826             0             0             0             0
    0.0120192   2.67112e+11       2.97298             0             0             0             0
    0.0120385   2.67112e+11       3.27453             0             0             0             0
    0.0120577   2.67112e+11       3.60543             0             0             0             0
    0.0120769   2.67112e+11        3.9684             0             0             0             0
    0.0120962   2.67112e+11       4.36642             0             0             0             0
    0.0121154   2.67112e+11       4.80272             0             0             0             0
    0.0121346   2.67112e+11       5.28083             0             0             0             0
    0.0121538   2.67112e+11       5.80457             0             0             0             0
    0.0121731   2.67112e+11       6.37809             0             0             0             0
    0.0121923   2.67112e+11       7.00594             0             0             0             0
    0.0122115   2.67112e+11         7.693             0             0             0             0
    0.0122308   2.67112e+11       8.44464             0             0             0             0
      0.01225   2.67112e+11       9.26662             0             0             0             0
    0.0122692   2.67112e+11       10.1653             0             0             0             0
    0.0122885   2.67112e+11       11.1473             0             0             0             0
    0.0123077   2.67112e+11       12.2203             0             0             0             0
    0.0123269   2.67112e+11       13.3921             0             0             0             0
    0.0123462   2.67112e+11       14.6716             0             0             0             0
    0.0123654   2.67112e+11        16.068             0             0             0             0
    0.0123846   2.67112e+11       17.5916             0             0             0             0
    0.0124038   2.67112e+11       19.2535             0             0             0             0
    0.0124231   2.67112e+11       21.0655             0             0             0             0
    0.0124423   2.67112e+11       23.0408             0             0             0             0
    0.0124615   2.67112e+11       25.1931             0             0             0             0
    0.0124808   2.67112e+11       27.5378             0             0             0             0
       0.0125   2.67112e+11       30.0911             0             0             0             0
    0.0125192   2.67112e+11       32.8708             0             0             0             0
    0.0125385   2.67112e+11       35.8959             0             0             0             0
    0.0125577   2.67112e+11       39.1871             0             0             0             0
    0.0125769   2.67112e+11       42.7666             0             0             0             0
    0.0125962   2.67112e+11       46.6586             0             0             0             0
    0.0126154   2.67112e+11       50.8889             0             0             0             0
    0.0126346   2.67112e+11       55.4855             0             0             0             0
    0.0126538   2.67112e+11       60.4786             0             0             0             0
    0.0126731   2.67112e+11       65.9008             0             0             0             0
    0.0126923   2.67112e+11        71.787             0             0             0             0
    0.0127115   2.67112e+11       78.1751             0             0             0             0
    0.0127308   2.67112e+11       85.1058             0             0             0             0
      0.01275   2.67112e+11       92.6227             0             0             0             0
    0.0127692   2.67112e+11       100.773             0             0             0             0
    0.0127885   2.67112e+11       109.607             0             0             0             0
    0.0128077   2.67112e+11       119.181             0             0             0             0
    0.0128269   2.67112e+11       129.551             0             0             0             0
    0.0128462   2.67112e+11       140.782             0             0             0             0
    0.0128654   2.67112e+11        152.94             0             0             0             0
    0.0128846   2.67112e+11         166.1             0             0             0             0
    0.0129038   2.67112e+11       180.338             0             0             0             0
    0.0129231   2.67112e+11        195.74             0             0             0             0
    0.0129423   2.67112e+11       212.394             0             0             0             0
    0.0129615   2.67112e+11       230.398             0             0             0             0
    0.0129808   2.67112e+11       249.855             0             0             0             0
        0.013   2.67112e+11       270.877             0             0             0             0
    0.0130192   2.67112e+11       293.582             0             0             0             0
    0.0130385   2.67112e+11       318.099             0             0             0             0
    0.0130577   2.67112e+11       344.563             0             0             0             0
    0.0130769   2.67112e+11       373.122             0             0             0             0
    0.0130962   2.67112e+11       403.933             0             0             0             0
    0.0131154   2.67112e+11       437.164             0             0             0             0
    0.0131346   2.67112e+11       472.994             0             0             0             0
    0.0131538   2.67112e+11       511.615             0             0             0             0
    0.0131731   2.67112e+11       553.235             0             0             0             0
    0.0131923   2.67112e+11       598.071             0             0             0             0
    0.0132115   2.67112e+11        646.36             0             0             0             0
    0.0132308   2.67112e+11       698.353             0             0             0             0
      0.01325   2.67112e+11       754.318             0             0             0             0
    0.0132692   2.67112e+11       814.542             0             0             0             0
    0.0132885   2.67112e+11       879.331             0             0             0             0
    0.0133077   2.67112e+11       949.012             0             0             0             0
    0.0133269   2.67112e+11       1023.93             0             0             0             0
    0.0133462   2.67112e+11       1104.46             0             0             0             0
    0.0133654   2.67112e+11       1191.01             0             0             0             0
    0.0133846   2.67112e+11       1283.98             0             0             0             0
    0.0134038   2.67112e+11       1383.83             0             0             0             0
    0.0134231   2.67112e+11       1491.05             0             0             0             0
    0.0134423   2.67112e+11       1606.14             0             0             0             0
    0.0134615   2.67112e+11       1729.65             0             0             0             0
    0.0134808   2.67112e+11       1862.16             0             0             0             0
       0.0135   2.67112e+11       2004.29             0             0             0             0
    0.0135192   2.67112e+11       2156.69             0             0             0             0
    0.0135385   2.67112e+11       2320.06             0             0             0             0
    0.0135577   2.67112e+11       2495.14             0             0             0             0
    0.0135769   2.67112e+11       2682.74             0             0             0             0
    0.0135962   2.67112e+11       2883.68             0             0             0             0
    0.0136154   2.67112e+11       3098.85             0             0             0             0
    0.0136346   2.67112e+11       3329.22             0             0             0             0
    0.0136538   2.67112e+11       3575.78             0             0             0             0
    0.0136731   2.67112e+11       3839.61             0             0             0             0
    0.0136923   2.67112e+11       4121.83             0             0             0             0
    0.0137115   2.67112e+11       4423.66             0             0             0             0
    0.0137308   2.67112e+11       4746.37             0             0             0             0
      0.01375   2.67112e+11       5091.31             0             0             0             0
    0.0137692   2.67112e+11       5459.94             0             0             0             0
    0.0137885   2.67112e+11       5853.76             0             0             0             0
    0.0138077   2.67112e+11        6274.4             0             0             0             0
    0.0138269   2.67112e+11       6723.56             0             0             0             0
    0.0138462   2.67112e+11       7203.06             0             0             0             0
    0.0138654   2.67112e+11       7714.82             0             0             0             0
    0.0138846   2.67112e+11       8260.87             0             0             0             0
    0.0139038   2.67112e+11       8843.35             0             0             0             0
    0.0139231   2.67112e+11       9464.56             0             0             0             0
    0.0139423   2.67112e+11       10126.9             0             0             0             0
    0.0139615   2.67112e+11       10832.9             0             0             0             0
    0.0139808   2.67112e+11       11585.2             0             0             0             0
        0.014   2.67112e+11       12386.8             0             0             0             0
    0.0140192   2.67112e+11       13240.6             0             0             0             0
    0.0140385   2.67112e+11       14149.7             0             0             0             0
    0.0140577   2.67112e+11       15117.6             0             0             0             0
    0.0140769   2.67112e+11       16147.8             0             0             0             0
    0.0140962   2.67112e+11       17244.1             0             0             0             0
    0.0141154   2.67112e+11       18410.3             0             0             0             0
    0.0141346   2.67112e+11       19650.6             0             0             0             0
    0.0141538   2.67112e+11       20969.5             0             0             0             0
    0.0141731   2.67112e+11       22371.6             0             0             0             0
    0.0141923   2.67112e+11       23861.7             0             0             0             0
    0.0142115   2.67112e+11         25445             0             0             0             0
    0.0142308   2.67112e+11       27126.9             0             0             0             0
      0.01425   2.67112e+11       28913.2             0             0             0             0
    0.0142692   2.67112e+11       30809.9             0             0             0             0
    0.0142885   2.67112e+11       32823.3             0             0             0             0
    0.0143077   2.67112e+11       34960.1             0             0             0             0
    0.0143269   2.67112e+11       37227.3             0             0             0             0
    0.0143462   2.67112e+11       39632.3             0             0             0             0
    0.0143654   2.67112e+11       42182.9             0             0             0             0
    0.0143846   2.67112e+11       44887.3             0             0             0             0
    0.0144038   2.67112e+11         47754             0             0             0             0
    0.0144231   2.67112e+11       50792.2             0             0             0             0
    0.0144423   2.67112e+11       54011.2             0             0             0             0
    0.0144615   2.67112e+11       57421.2             0             0             0             0
    0.0144808   2.67112e+11       61032.6             0             0             0             0
       0.0145   2.67112e+11       64856.4             0             0             0             0
    0.0145192   2.67112e+11       68904.1             0             0             0             0
    0.0145385   2.67112e+11         73188             0             0             0             0
    0.0145577   2.67112e+11       77720.7             0             0             0             0
    0.0145769   2.67112e+11       82515.6             0             0             0             0
    0.0145962   2.67112e+11       87586.8             0             0             0             0
    0.0146154   2.67112e+11       92948.9             0             0             0             0
    0.0146346   2.67112e+11       98617.4             0             0             0             0
    0.0146538   2.67112e+11        104608             0             0             0             0
    0.0146731   2.67112e+11        110939             0             0             0             0
    0.0146923   2.67112e+11        117626             0             0             0             0
    0.0147115   2.67112e+11        124690             0             0             0             0
    0.0147308   2.67112e+11        132148             0             0             0             0
      0.01475   2.67112e+11        140022             0             0             0             0
    0.0147692   2.67112e+11        148333             0             0             0             0
    0.0147885   2.67112e+11        157104             0             0             0             0
    0.0148077   2.67112e+11        166357             0             0             0             0
    0.0148269   2.67112e+11        176116             0             0             0             0
    0.0148462   2.67112e+11        186409             0             0             0             0
    0.0148654   2.67112e+11        197260             0             0             0             0
    0.0148846   2.67112e+11        208699             0             0             0             0
    0.0149038   2.67112e+11        220754             0             0             0             0
    0.0149231   2.67112e+11        233455             0             0             0             0
    0.0149423   2.67112e+11        246835             0             0             0             0
    0.0149615   2.67112e+11        260927             0             0             0             0
    0.0149808   2.67112e+11        275765             0             0             0             0
        0.015   2.67112e+11        291386             0             0             0             0
    0.0150192   2.67112e+11        307827             0             0             0             0
    0.0150385   2.67112e+11        325128             0             0             0             0
    0.0150577   2.67112e+11        343330             0             0             0             0
    0.0150769   2.67112e+11        362476             0             0             0             0
    0.0150962   2.67112e+11        382610             0             0             0             0
    0.0151154   2.67112e+11        403779             0             0             0             0
    0.0151346   2.67112e+11        426032             0             0             0             0
    0.0151538   2.67112e+11        449419             0             0             0             0
    0.0151731   2.67112e+11        473993             0             0             0             0
    0.0151923   2.67112e+11        499808             0             0             0             0
    0.0152115   2.67112e+11        526923             0             0             0             0
    0.0152308   2.67112e+11        555396             0             0             0             0
      0.01525   2.67112e+11        585289             0             0             0             0
    0.0152692   2.67112e+11        616667             0             0             0             0
    0.0152885   2.67112e+11        649596             0             0             0             0
    0.0153077   2.67112e+11        684147             0             0             0             0
    0.0153269   2.67112e+11        720392             0             0             0             0
    0.0153462   2.67112e+11        758405             0             0             0             0
    0.0153654   2.67112e+11        798266             0             0             0             0
    0.0153846   2.67112e+11        840056             0             0             0             0
    0.0154038   2.67112e+11        883858             0             0             0             0
    0.0154231   2.67112e+11        929762             0             0             0             0
    0.0154423   2.67112e+11        977858             0             0             0             0
    0.0154615   2.67112e+11   1.02824e+06             0             0             0             0
    0.0154808   2.67112e+11   1.08101e+06             0             0             0             0
       0.0155   2.67112e+11   1.13626e+06             0             0             0             0
    0.0155192   2.67112e+11   1.19411e+06             0             0             0             0
    0.0155385   2.67112e+11   1.25466e+06             0             0             0             0
    0.0155577   2.67112e+11   1.31802e+06             0             0             0             0
    0.0155769   2.67112e+11   1.38432e+06             0             0             0             0
    0.0155962   2.67112e+11   1.45367e+06             0             0             0             0
    0.0156154   2.67112e+11   1.52621e+06             0             0             0             0
    0.0156346   2.67112e+11   1.60206e+06             0             0             0             0
    0.0156538   2.67112e+11   1.68136e+06             0             0             0             0
    0.0156731   2.67112e+11   1.76425e+06             0             0             0             0
    0.0156923   2.67112e+11   1.85088e+06             0             0             0             0
    0.0157115   2.67112e+11   1.94139e+06             0             0             0             0
    0.0157308   2.67112e+11   2.03595e+06             0             0             0             0
      0.01575   2.67112e+11   2.13471e+06             0             0             0             0
    0.0157692   2.67112e+11   2.23785e+06             0             0             0             0
    0.0157885   2.67112e+11   2.34553e+06             0             0             0             0
    0.0158077   2.67112e+11   2.45794e+06             0             0             0             0
    0.0158269   2.67112e+11   2.57525e+06             0             0             0             0
    0.0158462   2.67112e+11   2.69767e+06             0             0             0             0
    0.0158654   2.67112e+11   2.82538e+06             0             0             0             0
    0.0158846   2.67112e+11    2.9586e+06             0             0             0             0
    0.0159038   2.67112e+11   3.09753e+06             0             0             0             0
    0.0159231   2.67112e+11   3.24239e+06             0             0             0             0
    0.0159423   2.67112e+11   3.39341e+06             0             0             0             0
    0.0159615   2.67112e+11   3.55082e+06             0             0             0             0
    0.0159808   2.67112e+11   3.71485e+06             0             0             0             0
        0.016   2.67112e+11   3.88576e+06             0             0             0             0
    0.0160192   2.67112e+11   4.06381e+06             0             0             0             0
    0.0160385   2.67112e+11   4.24924e+06             0             0             0             0
    0.0160577   2.67112e+11   4.44235e+06             0             0             0             0
    0.0160769   2.67112e+11   4.64339e+06             0             0             0             0
    0.0160962   2.67112e+11   4.85268e+06             0             0             0             0
    0.0161154   2.67112e+11   5.07049e+06             0             0             0             0
    0.0161346   2.67112e+11   5.29714e+06             0             0             0             0
    0.0161538   2.67112e+11   5.53295e+06             0             0             0             0
    0.0161731   2.67112e+11   5.77824e+06             0             0             0             0
    0.0161923   2.67112e+11   6.03334e+06             0             0             0             0
    0.0162115   2.67112e+11    6.2986e+06             0             0             0             0
    0.0162308   2.67112e+11   6.57437e+06             0             0             0             0
      0.01625   2.67112e+11   6.86103e+06             0             0             0             0
    0.0162692   2.67112e+11   7.15894e+06             0             0             0             0
    0.0162885   2.67112e+11   7.46849e+06             0             0             0             0
    0.0163077   2.67112e+11   7.79008e+06             0             0             0             0
    0.0163269   2.67112e+11   8.12412e+06             0             0             0             0
    0.0163462   2.67112e+11   8.47102e+06             0             0             0             0
    0.0163654   2.67112e+11   8.83123e+06             0             0             0             0
    0.0163846   2.67112e+11   9.20519e+06             0             0             0             0
    0.0164038   2.67112e+11   9.59334e+06             0             0             0             0
    0.0164231   2.67112e+11   9.99617e+06             0             0             0             0
    0.0164423   2.67112e+11   1.04141e+07             0             0             0             0
    0.0164615   2.67112e+11   1.08478e+07             0             0             0             0
    0.0164808   2.67112e+11   1.12975e+07             0             0             0             0
       0.0165   2.67112e+11    1.1764e+07             0             0             0             0
    0.0165192   2.67112e+11   1.22476e+07             0             0             0             0
    0.0165385   2.67112e+11   1.27491e+07             0             0             0             0
    0.0165577   2.67112e+11   1.32688e+07             0             0             0             0
    0.0165769   2.67112e+11   1.38074e+07             0             0             0             0
    0.0165962   2.67112e+11   1.43655e+07             0             0             0             0
    0.0166154   2.67112e+11   1.49437e+07             0             0             0             0
    0.0166346   2.67112e+11   1.55427e+07             0             0             0             0
    0.0166538   2.67112e+11   1.61629e+07             0             0             0             0
    0.0166731   2.67112e+11   1.68052e+07             0             0             0             0
    0.0166923   2.67112e+11   1.74701e+07             0             0             0             0
    0.0167115   2.67112e+11   1.81584e+07             0             0             0             0
    0.0167308   2.67112e+11   1.88708e+07             0             0             0             0
      0.01675   2.67112e+11   1.96079e+07             0             0             0             0
    0.0167692   2.67112e+11   2.03705e+07             0             0             0             0
    0.0167885   2.67112e+11   2.11594e+07             0             0             0             0
    0.0168077   2.67112e+11   2.19753e+07             0             0             0             0
    0.0168269   2.67112e+11    2.2819e+07             0             0             0             0
    0.0168462   2.67112e+11   2.36913e+07             0             0             0             0
    0.0168654   2.67112e+11   2.45931e+07             0             0             0             0
    0.0168846   2.67112e+11   2.55251e+07             0             0             0             0
    0.0169038   2.67112e+11   2.64882e+07             0             0             0             0
    0.0169231   2.67112e+11   2.74834e+07             0             0             0             0
    0.0169423   2.67112e+11   2.85114e+07             0             0             0             0
    0.0169615   2.67112e+11   2.95733e+07             0             0             0             0
    0.0169808   2.67112e+11   3.06699e+07             0             0             0             0
        0.017   2.67112e+11   3.18022e+07             0             0             0             0
    0.0170192   2.67112e+11   3.29712e+07             0             0             0             0
    0.0170385   2.67112e+11   3.41778e+07             0             0             0             0
    0.0170577   2.67112e+11   3.54231e+07             0             0             0             0
    0.0170769   2.67112e+11   3.67081e+07             0             0             0             0
    0.0170962   2.67112e+11   3.80339e+07             0             0             0             0
    0.0171154   2.67112e+11   3.94015e+07             0             0             0             0
    0.0171346   2.67112e+11   4.08121e+07             0             0             0             0
    0.0171538   2.67112e+11   4.22667e+07             0             0             0             0
    0.0171731   2.67112e+11   4.37664e+07             0             0             0             0
    0.0171923   2.67112e+11   4.53125e+07             0             0             0             0
    0.0172115   2.67112e+11   4.69061e+07             0             0             0             0
    0.0172308   2.67112e+11   4.85485e+07             0             0             0             0
      0.01725   2.67112e+11   5.02407e+07             0             0             0             0
    0.0172692   2.67112e+11   5.19842e+07             0             0             0             0
    0.0172885   2.67112e+11   5.37801e+07             0             0             0             0
    0.0173077   2.67112e+11   5.56297e+07             0             0             0             0
    0.0173269   2.67112e+11   5.75344e+07             0             0             0             0
    0.0173462   2.67112e+11   5.94955e+07             0             0             0             0