# Probe 0 (0 0 0)
# Probe 1 (0 0 0.1)
# Probe 2 (0 0 0.2)
# Probe 3 (0 0 0.3)
# Probe 4 (0 0 0.4)
# Probe 5 (0 0 0.89)
#       Probe             0             1             2             3             4             5
#        Time
    0.0115385   6.08107e+09     0.0196574             0             0             0             0
    0.0115577   6.08107e+09      0.021897             0             0             0             0
    0.0115769   6.08107e+09     0.0243824             0             0             0             0
    0.0115962   6.08107e+09     0.0271396             0             0             0             0
    0.0116154   6.08107e+09     0.0301971             0             0             0             0
    0.0116346   6.08107e+09     0.0335864             0             0             0             0
    0.0116538   6.08107e+09      0.037342             0             0             0             0
    0.0116731   6.08107e+09     0.0415021             0             0             0             0
    0.0116923   6.08107e+09     0.0461083             0             0             0             0
    0.0117115   6.08107e+09     0.0512068             0             0             0             0
    0.0117308   6.08107e+09     0.0568479             0             0             0             0
      0.01175   6.08107e+09     0.0630872             0             0             0             0
    0.0117692   6.08107e+09     0.0699855             0             0             0             0
    0.0117885   6.08107e+09     0.0776096             0             0             0             0
    0.0118077   6.08107e+09     0.0860328             0             0             0             0
    0.0118269   6.08107e+09     0.0953356             0             0             0             0
    0.0118462   6.08107e+09      0.105606             0             0             0             0
    0.0118654   6.08107e+09       0.11694             0             0             0             0
    0.0118846   6.08107e+09      0.129445             0             0             0             0
    0.0119038   6.08107e+09      0.143235             0             0             0             0
    0.0119231   6.08107e+09      0.158437             0             0             0             0
    0.0119423   6.08107e+09      0.175191             0             0             0             0
    0.0119615   6.08107e+09      0.193647             0             0             0             0
    0.0119808   6.08107e+09      0.213972             0             0             0             0
        0.012   6.08107e+09      0.236347             0             0             0             0
    0.0120192   6.08107e+09       0.26097             0             0             0             0
    0.0120385   6.08107e+09      0.288058             0             0             0             0
    0.0120577   6.08107e+09      0.317847             0             0             0             0
    0.0120769   6.08107e+09      0.350594             0             0             0             0
    0.0120962   6.08107e+09      0.386581             0             0             0             0
    0.0121154   6.08107e+09      0.426115             0             0             0             0
    0.0121346   6.08107e+09       0.46953             0             0             0             0
    0.0121538   6.08107e+09      0.517192             0             0             0             0
    0.0121731   6.08107e+09      0.569498             0             0             0             0
    0.0121923   6.08107e+09       0.62688             0             0             0             0
    0.0122115   6.08107e+09       0.68981             0             0             0             0
    0.0122308   6.08107e+09      0.758801             0             0             0             0
      0.01225   6.08107e+09      0.834412             0             0             0             0
    0.0122692   6.08107e+09      0.917249             0             0             0             0
    0.0122885   6.08107e+09       1.00797             0             0             0             0
    0.0123077   6.08107e+09        1.1073             0             0             0             0
    0.0123269   6.08107e+09       1.21602             0             0             0             0
    0.0123462   6.08107e+09       1.33496             0             0             0             0
    0.0123654   6.08107e+09       1.46506             0             0             0             0
    0.0123846   6.08107e+09       1.60731             0             0             0             0
    0.0124038   6.08107e+09       1.76279             0             0             0             0
    0.0124231   6.08107e+09       1.93268             0             0             0             0
    0.0124423   6.08107e+09       2.11826             0             0             0             0
    0.0124615   6.08107e+09        2.3209             0             0             0             0
    0.0124808   6.08107e+09       2.54211             0             0             0             0
       0.0125   6.08107e+09       2.78351             0             0             0             0
    0.0125192   6.08107e+09       3.04686             0             0             0             0
    0.0125385   6.08107e+09       3.33406             0             0             0             0
    0.0125577   6.08107e+09       3.64716             0             0             0             0
    0.0125769   6.08107e+09       3.98841             0             0             0             0
    0.0125962   6.08107e+09       4.36021             0             0             0             0
    0.0126154   6.08107e+09       4.76516             0             0             0             0
    0.0126346   6.08107e+09       5.20609             0             0             0             0
    0.0126538   6.08107e+09       5.68604             0             0             0             0
    0.0126731   6.08107e+09        6.2083             0             0             0             0
    0.0126923   6.08107e+09       6.77642             0             0             0             0
    0.0127115   6.08107e+09       7.39424             0             0             0             0
    0.0127308   6.08107e+09        8.0659             0             0             0             0
      0.01275   6.08107e+09       8.79587             0             0             0             0
    0.0127692   6.08107e+09       9.58895             0             0             0             0
    0.0127885   6.08107e+09       10.4504             0             0             0             0
    0.0128077   6.08107e+09       11.3857             0             0             0             0
    0.0128269   6.08107e+09       12.4009             0             0             0             0
    0.0128462   6.08107e+09       13.5027             0             0             0             0
    0.0128654   6.08107e+09       14.6978             0             0             0             0
    0.0128846   6.08107e+09        15.994             0             0             0             0
    0.0129038   6.08107e+09       17.3992             0             0             0             0
    0.0129231   6.08107e+09       18.9223             0             0             0             0
    0.0129423   6.08107e+09       20.5725             0             0             0             0
    0.0129615   6.08107e+09       22.3601             0             0             0             0
    0.0129808   6.08107e+09       24.2958             0             0             0             0
        0.013   6.08107e+09       26.3913             0             0             0             0
    0.0130192   6.08107e+09       28.6591             0             0             0             0
    0.0130385   6.08107e+09       31.1127             0             0             0             0
    0.0130577   6.08107e+09       33.7665             0             0             0             0
    0.0130769   6.08107e+09       36.6361             0             0             0             0
    0.0130962   6.08107e+09        39.738             0             0             0             0
    0.0131154   6.08107e+09         43.09             0             0             0             0
    0.0131346   6.08107e+09       46.7114             0             0             0             0
    0.0131538   6.08107e+09       50.6227             0             0             0             0
    0.0131731   6.08107e+09       54.8458             0             0             0             0
    0.0131923   6.08107e+09       59.4042             0             0             0             0
    0.0132115   6.08107e+09       64.3233             0             0             0             0
    0.0132308   6.08107e+09       69.6299             0             0             0             0
      0.01325   6.08107e+09       75.3532             0             0             0             0
    0.0132692   6.08107e+09       81.5239             0             0             0             0
    0.0132885   6.08107e+09       88.1753             0             0             0             0
    0.0133077   6.08107e+09       95.3427             0             0             0             0
    0.0133269   6.08107e+09       103.064             0             0             0             0
    0.0133462   6.08107e+09        111.38             0             0             0             0
    0.0133654   6.08107e+09       120.333             0             0             0             0
    0.0133846   6.08107e+09        129.97             0             0             0             0
    0.0134038   6.08107e+09       140.341             0             0             0             0
    0.0134231   6.08107e+09       151.498             0             0             0             0
    0.0134423   6.08107e+09       163.496             0             0             0             0
    0.0134615   6.08107e+09       176.398             0             0             0             0
    0.0134808   6.08107e+09       190.265             0             0             0             0
       0.0135   6.08107e+09       205.168             0             0             0             0
    0.0135192   6.08107e+09       221.177             0             0             0             0
    0.0135385   6.08107e+09       238.373             0             0             0             0
    0.0135577   6.08107e+09       256.836             0             0             0             0
    0.0135769   6.08107e+09       276.656             0             0             0             0
    0.0135962   6.08107e+09       297.925             0             0             0             0
    0.0136154   6.08107e+09       320.745             0             0             0             0
    0.0136346   6.08107e+09       345.222             0             0             0             0
    0.0136538   6.08107e+09       371.468             0             0             0             0
    0.0136731   6.08107e+09       399.605             0             0             0             0
    0.0136923   6.08107e+09       429.761             0             0             0             0
    0.0137115   6.08107e+09       462.072             0             0             0             0
    0.0137308   6.08107e+09       496.683             0             0             0             0
      0.01375   6.08107e+09       533.748             0             0             0             0
    0.0137692   6.08107e+09       573.431             0             0             0             0
    0.0137885   6.08107e+09       615.906             0             0             0             0
    0.0138077   6.08107e+09       661.356             0             0             0             0
    0.0138269   6.08107e+09       709.979             0             0             0             0
    0.0138462   6.08107e+09       761.983             0             0             0             0
    0.0138654   6.08107e+09       817.587             0             0             0             0
    0.0138846   6.08107e+09       877.027             0             0             0             0
    0.0139038   6.08107e+09        940.55             0             0             0             0
    0.0139231   6.08107e+09       1008.42             0             0             0             0
    0.0139423   6.08107e+09       1080.92             0             0             0             0
    0.0139615   6.08107e+09       1158.33             0             0             0             0
    0.0139808   6.08107e+09       1240.99             0             0             0             0
        0.014   6.08107e+09       1329.21             0             0             0             0
    0.0140192   6.08107e+09       1423.34             0             0             0             0
    0.0140385   6.08107e+09       1523.77             0             0             0             0
    0.0140577   6.08107e+09       1630.88             0             0             0             0
    0.0140769   6.08107e+09       1745.09             0             0             0             0
    0.0140962   6.08107e+09       1866.85             0             0             0             0
    0.0141154   6.08107e+09       1996.61             0             0             0             0
    0.0141346   6.08107e+09       2134.87             0             0             0             0
    0.0141538   6.08107e+09       2282.15             0             0             0             0
    0.0141731   6.08107e+09          2439             0             0             0             0
    0.0141923   6.08107e+09          2606             0             0             0             0
    0.0142115   6.08107e+09       2783.76             0             0             0             0
    0.0142308   6.08107e+09       2972.94             0             0             0             0
      0.01425   6.08107e+09       3174.22             0             0             0             0
    0.0142692   6.08107e+09       3388.32             0             0             0             0
    0.0142885   6.08107e+09          3616             0             0             0             0
    0.0143077   6.08107e+09       3858.06             0             0             0             0
    0.0143269   6.08107e+09       4115.36             0             0             0             0
    0.0143462   6.08107e+09       4388.79             0             0             0             0
    0.0143654   6.08107e+09       4679.28             0             0             0             0
    0.0143846   6.08107e+09       4987.83             0             0             0             0
    0.0144038   6.08107e+09       5315.49             0             0             0             0
    0.0144231   6.08107e+09       5663.36             0             0             0             0
    0.0144423   6.08107e+09        6032.6             0             0             0             0
    0.0144615   6.08107e+09       6424.42             0             0             0             0
    0.0144808   6.08107e+09       6840.12             0             0             0             0
       0.0145   6.08107e+09       7281.04             0             0             0             0
    0.0145192   6.08107e+09       7748.61             0             0             0             0
    0.0145385   6.08107e+09       8244.33             0             0             0             0
    0.0145577   6.08107e+09       8769.76             0             0             0             0
    0.0145769   6.08107e+09       9326.57             0             0             0             0
    0.0145962   6.08107e+09       9916.48             0             0             0             0
    0.0146154   6.08107e+09       10541.3             0             0             0             0
    0.0146346   6.08107e+09         11203             0             0             0             0
    0.0146538   6.08107e+09       11903.6             0             0             0             0
    0.0146731   6.08107e+09       12645.2             0             0             0             0
    0.0146923   6.08107e+09       13429.9             0             0             0             0
    0.0147115   6.08107e+09       14260.2             0             0             0             0
    0.0147308   6.08107e+09       15138.5             0             0             0             0
      0.01475   6.08107e+09       16067.3             0             0             0             0
    0.0147692   6.08107e+09       17049.4             0             0             0             0
    0.0147885   6.08107e+09       18087.5             0             0             0             0
    0.0148077   6.08107e+09       19184.6             0             0             0             0
    0.0148269   6.08107e+09       20343.8             0             0             0             0
    0.0148462   6.08107e+09       21568.4             0             0             0             0
    0.0148654   6.08107e+09       22861.7             0             0             0             0
    0.0148846   6.08107e+09       24227.3             0             0             0             0
    0.0149038   6.08107e+09         25669             0             0             0             0
    0.0149231   6.08107e+09       27190.7             0             0             0             0
    0.0149423   6.08107e+09       28796.3             0             0             0             0
    0.0149615   6.08107e+09       30490.3             0             0             0             0
    0.0149808   6.08107e+09         32277             0             0             0             0
        0.015   6.08107e+09       34161.2             0             0             0             0
    0.0150192   6.08107e+09       36147.7             0             0             0             0
    0.0150385   6.08107e+09       38241.6             0             0             0             0
    0.0150577   6.08107e+09       40448.4             0             0             0             0
    0.0150769   6.08107e+09       42773.5             0             0             0             0
    0.0150962   6.08107e+09       45222.8             0             0             0             0
    0.0151154   6.08107e+09       47802.3             0             0             0             0
    0.0151346   6.08107e+09       50518.5             0             0             0             0
    0.0151538   6.08107e+09         53378             0             0             0             0
    0.0151731   6.08107e+09       56387.6             0             0             0             0
    0.0151923   6.08107e+09       59554.6             0             0             0             0
    0.0152115   6.08107e+09       62886.6             0             0             0             0
    0.0152308   6.08107e+09       66391.4             0             0             0             0
      0.01525   6.08107e+09       70077.3             0             0             0             0
    0.0152692   6.08107e+09       73952.6             0             0             0             0
    0.0152885   6.08107e+09       78026.4             0             0             0             0
    0.0153077   6.08107e+09       82307.9             0             0             0             0
    0.0153269   6.08107e+09       86806.9             0             0             0             0
    0.0153462   6.08107e+09       91533.3             0             0             0             0
    0.0153654   6.08107e+09       96497.6             0             0             0             0
    0.0153846   6.08107e+09        101711             0             0             0             0
    0.0154038   6.08107e+09        107184             0             0             0             0
    0.0154231   6.08107e+09        112930             0             0             0             0
    0.0154423   6.08107e+09        118960             0             0             0             0
    0.0154615   6.08107e+09        125287             0             0             0             0
    0.0154808   6.08107e+09        131924             0             0             0             0
       0.0155   6.08107e+09        138886             0             0             0             0
    0.0155192   6.08107e+09        146187             0             0             0             0
    0.0155385   6.08107e+09        153841             0             0             0             0
    0.0155577   6.08107e+09        161864             0             0             0             0
    0.0155769   6.08107e+09        170273             0             0             0             0
    0.0155962   6.08107e+09        179083             0             0             0             0
    0.0156154   6.08107e+09        188313             0             0             0             0
    0.0156346   6.08107e+09        197981             0             0             0             0
    0.0156538   6.08107e+09        208105             0             0             0             0
    0.0156731   6.08107e+09        218705             0             0             0             0
    0.0156923   6.08107e+09        229801             0             0             0             0
    0.0157115   6.08107e+09        241413             0             0             0             0
    0.0157308   6.08107e+09        253564             0             0             0             0
      0.01575   6.08107e+09        266276             0             0             0             0
    0.0157692   6.08107e+09        279573             0             0             0             0
    0.0157885   6.08107e+09        293478             0             0             0             0
    0.0158077   6.08107e+09        308018             0             0             0             0
    0.0158269   6.08107e+09        323216             0             0             0             0
    0.0158462   6.08107e+09        339102             0             0             0             0
    0.0158654   6.08107e+09        355701             0             0             0             0
    0.0158846   6.08107e+09        373044             0             0             0             0
    0.0159038   6.08107e+09        391160             0             0             0             0
    0.0159231   6.08107e+09        410080             0             0             0             0
    0.0159423   6.08107e+09        429836             0             0             0             0
    0.0159615   6.08107e+09        450461             0             0             0             0
    0.0159808   6.08107e+09        471989             0             0             0             0
        0.016   6.08107e+09        494456             0             0             0             0
    0.0160192   6.08107e+09        517897             0             0             0             0
    0.0160385   6.08107e+09        542352             0             0             0             0
    0.0160577   6.08107e+09        567858             0             0             0             0
    0.0160769   6.08107e+09        594456             0             0             0             0
    0.0160962   6.08107e+09        622188             0             0             0             0
    0.0161154   6.08107e+09        651097             0             0             0             0
    0.0161346   6.08107e+09        681227             0             0             0             0
    0.0161538   6.08107e+09        712624             0             0             0             0
    0.0161731   6.08107e+09        745335             0             0             0             0
    0.0161923   6.08107e+09        779409             0             0             0             0
    0.0162115   6.08107e+09        814897             0             0             0             0
    0.0162308   6.08107e+09        851849             0             0             0             0
      0.01625   6.08107e+09        890321             0             0             0             0
    0.0162692   6.08107e+09        930367             0             0             0             0
    0.0162885   6.08107e+09        972044             0             0             0             0
    0.0163077   6.08107e+09   1.01541e+06             0             0             0             0
    0.0163269   6.08107e+09   1.06053e+06             0             0             0             0
    0.0163462   6.08107e+09   1.10745e+06             0             0             0             0
    0.0163654   6.08107e+09   1.15626e+06             0             0             0             0
    0.0163846   6.08107e+09   1.20701e+06             0             0             0             0
    0.0164038   6.08107e+09   1.25976e+06             0             0             0             0
    0.0164231   6.08107e+09    1.3146e+06             0             0             0             0
    0.0164423   6.08107e+09   1.37159e+06             0             0             0             0
    0.0164615   6.08107e+09   1.43081e+06             0             0             0             0
    0.0164808   6.08107e+09   1.49233e+06             0             0             0             0
       0.0165   6.08107e+09   1.55622e+06             0             0             0             0
    0.0165192   6.08107e+09   1.62258e+06             0             0             0             0
    0.0165385   6.08107e+09   1.69149e+06             0             0             0             0
    0.0165577   6.08107e+09   1.76302e+06             0             0             0             0
    0.0165769   6.08107e+09   1.83727e+06             0             0             0             0
    0.0165962   6.08107e+09   1.91433e+06             0             0             0             0
    0.0166154   6.08107e+09   1.99428e+06             0             0             0             0
    0.0166346   6.08107e+09   2.07723e+06             0             0             0             0
    0.0166538   6.08107e+09   2.16327e+06             0             0             0             0
    0.0166731   6.08107e+09   2.25249e+06             0             0             0             0
    0.0166923   6.08107e+09   2.34502e+06             0             0             0             0
    0.0167115   6.08107e+09   2.44094e+06             0             0             0             0
    0.0167308   6.08107e+09   2.54036e+06             0             0             0             0
      0.01675   6.08107e+09   2.64341e+06             0             0             0             0
    0.0167692   6.08107e+09   2.75018e+06             0             0             0             0
    0.0167885   6.08107e+09    2.8608e+06             0             0             0             0
    0.0168077   6.08107e+09   2.97539e+06             0             0             0             0
    0.0168269   6.08107e+09   3.09406e+06             0             0             0             0
    0.0168462   6.08107e+09   3.21695e+06             0             0             0             0
    0.0168654   6.08107e+09   3.34418e+06             0             0             0             0
    0.0168846   6.08107e+09   3.47588e+06             0             0             0             0
    0.0169038   6.08107e+09   3.61219e+06             0             0             0             0
    0.0169231   6.08107e+09   3.75325e+06             0             0             0             0
    0.0169423   6.08107e+09   3.89919e+06             0             0             0             0
    0.0169615   6.08107e+09   4.05017e+06             0             0             0             0
    0.0169808   6.08107e+09   4.20632e+06             0             0             0             0
        0.017   6.08107e+09   4.36781e+06             0             0             0             0
    0.0170192   6.08107e+09   4.53478e+06             0             0             0             0
    0.0170385   6.08107e+09   4.70739e+06             0             0             0             0
    0.0170577   6.08107e+09    4.8858e+06             0             0             0             0
    0.0170769   6.08107e+09   5.07019e+06             0             0             0             0
    0.0170962   6.08107e+09   5.26071e+06             0             0             0             0
    0.0171154   6.08107e+09   5.45755e+06             0             0             0             0
    0.0171346   6.08107e+09   5.66087e+06             0             0             0             0
    0.0171538   6.08107e+09   5.87086e+06             0             0             0             0
    0.0171731   6.08107e+09    6.0877e+06             0             0             0             0
    0.0171923   6.08107e+09   6.31158e+06             0             0             0             0
    0.0172115   6.08107e+09   6.54269e+06             0             0             0             0
    0.0172308   6.08107e+09   6.78123e+06             0             0             0             0
      0.01725   6.08107e+09   7.02739e+06             0             0             0             0
    0.0172692   6.08107e+09   7.28138e+06             0             0             0             0
    0.0172885   6.08107e+09    7.5434e+06             0             0             0             0
    0.0173077   6.08107e+09   7.81367e+06             0             0             0             0
    0.0173269   6.08107e+09   8.09241e+06             0             0             0             0
    0.0173462   6.08107e+09   8.37982e+06             0             0             0             0