# Probe 0 (0 0 0)
# Probe 1 (0 0 0.1)
# Probe 2 (0 0 0.2)
# Probe 3 (0 0 0.3)
# Probe 4 (0 0 0.4)
# Probe 5 (0 0 0.89)
#       Probe             0             1             2             3             4             5
#        Time
    0.0115385   3.40192e+06   1.06616e-05             0             0             0             0
    0.0115577   3.40192e+06   1.18815e-05             0             0             0             0
    0.0115769   3.40192e+06   1.32361e-05             0             0             0             0
    0.0115962   3.40192e+06   1.47395e-05             0             0             0             0
    0.0116154   3.40192e+06   1.64075e-05             0             0             0             0
    0.0116346   3.40192e+06   1.82574e-05             0             0             0             0
    0.0116538   3.40192e+06   2.03084e-05             0             0             0             0
    0.0116731   3.40192e+06   2.25814e-05             0             0             0             0
    0.0116923   3.40192e+06   2.50995e-05             0             0             0             0
    0.0117115   3.40192e+06   2.78881e-05             0             0             0             0
    0.0117308   3.40192e+06   3.09752e-05             0             0             0             0
      0.01175   3.40192e+06   3.43915e-05             0             0             0             0
    0.0117692   3.40192e+06   3.81707e-05             0             0             0             0
    0.0117885   3.40192e+06   4.23497e-05             0             0             0             0
    0.0118077   3.40192e+06   4.69694e-05             0             0             0             0
    0.0118269   3.40192e+06   5.20742e-05             0             0             0             0
    0.0118462   3.40192e+06   5.77131e-05             0             0             0             0
    0.0118654   3.40192e+06   6.39397e-05             0             0             0             0
    0.0118846   3.40192e+06   7.08129e-05             0             0             0             0
    0.0119038   3.40192e+06   7.83972e-05             0             0             0             0
    0.0119231   3.40192e+06    8.6763e-05             0             0             0             0
    0.0119423   3.40192e+06   9.59878e-05             0             0             0             0
    0.0119615   3.40192e+06   0.000106156             0             0             0             0
    0.0119808   3.40192e+06    0.00011736             0             0             0             0
        0.012   3.40192e+06   0.000129702             0             0             0             0
    0.0120192   3.40192e+06   0.000143292             0             0             0             0
    0.0120385   3.40192e+06   0.000158251             0             0             0             0
    0.0120577   3.40192e+06   0.000174712             0             0             0             0
    0.0120769   3.40192e+06   0.000192818             0             0             0             0
    0.0120962   3.40192e+06   0.000212728             0             0             0             0
    0.0121154   3.40192e+06   0.000234613             0             0             0             0
    0.0121346   3.40192e+06   0.000258663             0             0             0             0
    0.0121538   3.40192e+06   0.000285081             0             0             0             0
    0.0121731   3.40192e+06   0.000314091             0             0             0             0
    0.0121923   3.40192e+06   0.000345938             0             0             0             0
    0.0122115   3.40192e+06   0.000380885             0             0             0             0
    0.0122308   3.40192e+06   0.000419223             0             0             0             0
      0.01225   3.40192e+06   0.000461266             0             0             0             0
    0.0122692   3.40192e+06   0.000507358             0             0             0             0
    0.0122885   3.40192e+06    0.00055787             0             0             0             0
    0.0123077   3.40192e+06    0.00061321             0             0             0             0
    0.0123269   3.40192e+06   0.000673819             0             0             0             0
    0.0123462   3.40192e+06   0.000740176             0             0             0             0
    0.0123654   3.40192e+06   0.000812803             0             0             0             0
    0.0123846   3.40192e+06   0.000892266             0             0             0             0
    0.0124038   3.40192e+06   0.000979182             0             0             0             0
    0.0124231   3.40192e+06    0.00107422             0             0             0             0
    0.0124423   3.40192e+06     0.0011781             0             0             0             0
    0.0124615   3.40192e+06    0.00129161             0             0             0             0
    0.0124808   3.40192e+06    0.00141561             0             0             0             0
       0.0125   3.40192e+06    0.00155102             0             0             0             0
    0.0125192   3.40192e+06    0.00169884             0             0             0             0
    0.0125385   3.40192e+06    0.00186017             0             0             0             0
    0.0125577   3.40192e+06    0.00203617             0             0             0             0
    0.0125769   3.40192e+06    0.00222813             0             0             0             0
    0.0125962   3.40192e+06    0.00243742             0             0             0             0
    0.0126154   3.40192e+06    0.00266554             0             0             0             0
    0.0126346   3.40192e+06    0.00291411             0             0             0             0
    0.0126538   3.40192e+06    0.00318487             0             0             0             0
    0.0126731   3.40192e+06    0.00347971             0             0             0             0
    0.0126923   3.40192e+06    0.00380069             0             0             0             0
    0.0127115   3.40192e+06       0.00415             0             0             0             0
    0.0127308   3.40192e+06    0.00453003             0             0             0             0
      0.01275   3.40192e+06    0.00494336             0             0             0             0
    0.0127692   3.40192e+06    0.00539276             0             0             0             0
    0.0127885   3.40192e+06    0.00588125             0             0             0             0
    0.0128077   3.40192e+06    0.00641205             0             0             0             0
    0.0128269   3.40192e+06    0.00698867             0             0             0             0
    0.0128462   3.40192e+06    0.00761485             0             0             0             0
    0.0128654   3.40192e+06    0.00829468             0             0             0             0
    0.0128846   3.40192e+06    0.00903251             0             0             0             0
    0.0129038   3.40192e+06    0.00983306             0             0             0             0
    0.0129231   3.40192e+06     0.0107014             0             0             0             0
    0.0129423   3.40192e+06      0.011643             0             0             0             0
    0.0129615   3.40192e+06     0.0126638             0             0             0             0
    0.0129808   3.40192e+06       0.01377             0             0             0             0
        0.013   3.40192e+06     0.0149685             0             0             0             0
    0.0130192   3.40192e+06     0.0162665             0             0             0             0
    0.0130385   3.40192e+06     0.0176721             0             0             0             0
    0.0130577   3.40192e+06     0.0191935             0             0             0             0
    0.0130769   3.40192e+06     0.0208399             0             0             0             0
    0.0130962   3.40192e+06     0.0226211             0             0             0             0
    0.0131154   3.40192e+06     0.0245476             0             0             0             0
    0.0131346   3.40192e+06     0.0266305             0             0             0             0
    0.0131538   3.40192e+06     0.0288819             0             0             0             0
    0.0131731   3.40192e+06     0.0313149             0             0             0             0
    0.0131923   3.40192e+06     0.0339432             0             0             0             0
    0.0132115   3.40192e+06     0.0367818             0             0             0             0
    0.0132308   3.40192e+06     0.0398467             0             0             0             0
      0.01325   3.40192e+06     0.0431549             0             0             0             0
    0.0132692   3.40192e+06     0.0467247             0             0             0             0
    0.0132885   3.40192e+06     0.0505759             0             0             0             0
    0.0133077   3.40192e+06     0.0547293             0             0             0             0
    0.0133269   3.40192e+06     0.0592075             0             0             0             0
    0.0133462   3.40192e+06     0.0640346             0             0             0             0
    0.0133654   3.40192e+06     0.0692362             0             0             0             0
    0.0133846   3.40192e+06       0.07484             0             0             0             0
    0.0134038   3.40192e+06     0.0808754             0             0             0             0
    0.0134231   3.40192e+06     0.0873738             0             0             0             0
    0.0134423   3.40192e+06     0.0943689             0             0             0             0
    0.0134615   3.40192e+06      0.101897             0             0             0             0
    0.0134808   3.40192e+06      0.109995             0             0             0             0
       0.0135   3.40192e+06      0.118706             0             0             0             0
    0.0135192   3.40192e+06      0.128072             0             0             0             0
    0.0135385   3.40192e+06       0.13814             0             0             0             0
    0.0135577   3.40192e+06      0.148961             0             0             0             0
    0.0135769   3.40192e+06      0.160586             0             0             0             0
    0.0135962   3.40192e+06      0.173074             0             0             0             0
    0.0136154   3.40192e+06      0.186483             0             0             0             0
    0.0136346   3.40192e+06      0.200879             0             0             0             0
    0.0136538   3.40192e+06       0.21633             0             0             0             0
    0.0136731   3.40192e+06      0.232909             0             0             0             0
    0.0136923   3.40192e+06      0.250693             0             0             0             0
    0.0137115   3.40192e+06      0.269766             0             0             0             0
    0.0137308   3.40192e+06      0.290215             0             0             0             0
      0.01375   3.40192e+06      0.312133             0             0             0             0
    0.0137692   3.40192e+06      0.335622             0             0             0             0
    0.0137885   3.40192e+06      0.360785             0             0             0             0
    0.0138077   3.40192e+06      0.387737             0             0             0             0
    0.0138269   3.40192e+06      0.416597             0             0             0             0
    0.0138462   3.40192e+06      0.447492             0             0             0             0
    0.0138654   3.40192e+06      0.480556             0             0             0             0
    0.0138846   3.40192e+06      0.515935             0             0             0             0
    0.0139038   3.40192e+06      0.553779             0             0             0             0
    0.0139231   3.40192e+06      0.594251             0             0             0             0
    0.0139423   3.40192e+06      0.637522             0             0             0             0
    0.0139615   3.40192e+06      0.683774             0             0             0             0
    0.0139808   3.40192e+06        0.7332             0             0             0             0
        0.014   3.40192e+06      0.786006             0             0             0             0
    0.0140192   3.40192e+06      0.842408             0             0             0             0
    0.0140385   3.40192e+06      0.902635             0             0             0             0
    0.0140577   3.40192e+06      0.966933             0             0             0             0
    0.0140769   3.40192e+06       1.03556             0             0             0             0
    0.0140962   3.40192e+06       1.10879             0             0             0             0
    0.0141154   3.40192e+06        1.1869             0             0             0             0
    0.0141346   3.40192e+06       1.27022             0             0             0             0
    0.0141538   3.40192e+06       1.35905             0             0             0             0
    0.0141731   3.40192e+06       1.45376             0             0             0             0
    0.0141923   3.40192e+06       1.55468             0             0             0             0
    0.0142115   3.40192e+06       1.66222             0             0             0             0
    0.0142308   3.40192e+06       1.77678             0             0             0             0
      0.01425   3.40192e+06       1.89878             0             0             0             0
    0.0142692   3.40192e+06       2.02868             0             0             0             0
    0.0142885   3.40192e+06       2.16695             0             0             0             0
    0.0143077   3.40192e+06       2.31411             0             0             0             0
    0.0143269   3.40192e+06       2.47068             0             0             0             0
    0.0143462   3.40192e+06       2.63723             0             0             0             0
    0.0143654   3.40192e+06       2.81436             0             0             0             0
    0.0143846   3.40192e+06       3.00268             0             0             0             0
    0.0144038   3.40192e+06       3.20287             0             0             0             0
    0.0144231   3.40192e+06       3.41561             0             0             0             0
    0.0144423   3.40192e+06       3.64165             0             0             0             0
    0.0144615   3.40192e+06       3.88176             0             0             0             0
    0.0144808   3.40192e+06       4.13675             0             0             0             0
       0.0145   3.40192e+06       4.40749             0             0             0             0
    0.0145192   3.40192e+06       4.69488             0             0             0             0
    0.0145385   3.40192e+06       4.99989             0             0             0             0
    0.0145577   3.40192e+06        5.3235             0             0             0             0
    0.0145769   3.40192e+06       5.66679             0             0             0             0
    0.0145962   3.40192e+06       6.03086             0             0             0             0
    0.0146154   3.40192e+06       6.41688             0             0             0             0
    0.0146346   3.40192e+06       6.82609             0             0             0             0
    0.0146538   3.40192e+06       7.25978             0             0             0             0
    0.0146731   3.40192e+06       7.71932             0             0             0             0
    0.0146923   3.40192e+06       8.20613             0             0             0             0
    0.0147115   3.40192e+06       8.72172             0             0             0             0
    0.0147308   3.40192e+06       9.26767             0             0             0             0
      0.01475   3.40192e+06       9.84563             0             0             0             0
    0.0147692   3.40192e+06       10.4574             0             0             0             0
    0.0147885   3.40192e+06       11.1047             0             0             0             0
    0.0148077   3.40192e+06       11.7895             0             0             0             0
    0.0148269   3.40192e+06       12.5138             0             0             0             0
    0.0148462   3.40192e+06       13.2798             0             0             0             0
    0.0148654   3.40192e+06       14.0896             0             0             0             0
    0.0148846   3.40192e+06       14.9457             0             0             0             0
    0.0149038   3.40192e+06       15.8503             0             0             0             0
    0.0149231   3.40192e+06       16.8061             0             0             0             0
    0.0149423   3.40192e+06       17.8157             0             0             0             0
    0.0149615   3.40192e+06        18.882             0             0             0             0
    0.0149808   3.40192e+06       20.0079             0             0             0             0
        0.015   3.40192e+06       21.1965             0             0             0             0
    0.0150192   3.40192e+06       22.4509             0             0             0             0
    0.0150385   3.40192e+06       23.7746             0             0             0             0
    0.0150577   3.40192e+06       25.1711             0             0             0             0
    0.0150769   3.40192e+06        26.644             0             0             0             0
    0.0150962   3.40192e+06       28.1973             0             0             0             0
    0.0151154   3.40192e+06       29.8349             0             0             0             0
    0.0151346   3.40192e+06       31.5612             0             0             0             0
    0.0151538   3.40192e+06       33.3804             0             0             0             0
    0.0151731   3.40192e+06       35.2972             0             0             0             0
    0.0151923   3.40192e+06       37.3165             0             0             0             0
    0.0152115   3.40192e+06       39.4433             0             0             0             0
    0.0152308   3.40192e+06       41.6827             0             0             0             0
      0.01525   3.40192e+06       44.0404             0             0             0             0
    0.0152692   3.40193e+06        46.522             0             0             0             0
    0.0152885   3.40192e+06       49.1336             0             0             0             0
    0.0153077   3.40192e+06       51.8812             0             0             0             0
    0.0153269   3.40193e+06       54.7716             0             0             0             0
    0.0153462   3.40192e+06       57.8114             0             0             0             0
    0.0153654   3.40193e+06       61.0077             0             0             0             0
    0.0153846   3.40193e+06       64.3679             0             0             0             0
    0.0154038   3.40193e+06       67.8998             0             0             0             0
    0.0154231   3.40193e+06       71.6112             0             0             0             0
    0.0154423   3.40193e+06       75.5107             0             0             0             0
    0.0154615   3.40193e+06       79.6068             0             0             0             0
    0.0154808   3.40193e+06       83.9086             0             0             0             0
       0.0155   3.40193e+06       88.4256             0             0             0             0
    0.0155192   3.40193e+06       93.1676             0             0             0             0
    0.0155385   3.40193e+06       98.1448             0             0             0             0
    0.0155577   3.40193e+06       103.368             0             0             0             0
    0.0155769   3.40193e+06       108.848             0             0             0             0
    0.0155962   3.40193e+06       114.596             0             0             0             0
    0.0156154   3.40193e+06       120.625             0             0             0             0
    0.0156346   3.40193e+06       126.947             0             0             0             0
    0.0156538   3.40193e+06       133.574             0             0             0             0
    0.0156731   3.40193e+06        140.52             0             0             0             0
    0.0156923   3.40193e+06         147.8             0             0             0             0
    0.0157115   3.40193e+06       155.427             0             0             0             0
    0.0157308   3.40193e+06       163.417             0             0             0             0
      0.01575   3.40193e+06       171.786             0             0             0             0
    0.0157692   3.40193e+06       180.549             0             0             0             0
    0.0157885   3.40193e+06       189.723             0             0             0             0
    0.0158077   3.40193e+06       199.326             0             0             0             0
    0.0158269   3.40193e+06       209.376             0             0             0             0
    0.0158462   3.40193e+06       219.893             0             0             0             0
    0.0158654   3.40193e+06       230.894             0             0             0             0
    0.0158846   3.40193e+06       242.401             0             0             0             0
    0.0159038   3.40193e+06       254.435             0             0             0             0
    0.0159231   3.40193e+06       267.017             0             0             0             0
    0.0159423   3.40193e+06        280.17             0             0             0             0
    0.0159615   3.40193e+06       293.917             0             0             0             0
    0.0159808   3.40193e+06       308.283             0             0             0             0
        0.016   3.40193e+06       323.291             0             0             0             0
    0.0160192   3.40193e+06       338.969             0             0             0             0
    0.0160385   3.40193e+06       355.344             0             0             0             0
    0.0160577   3.40193e+06       372.441             0             0             0             0
    0.0160769   3.40193e+06       390.292             0             0             0             0
    0.0160962   3.40193e+06       408.924             0             0             0             0
    0.0161154   3.40193e+06        428.37             0             0             0             0
    0.0161346   3.40193e+06        448.66             0             0             0             0
    0.0161538   3.40193e+06       469.828             0             0             0             0
    0.0161731   3.40193e+06       491.907             0             0             0             0
    0.0161923   3.40193e+06       514.933             0             0             0             0
    0.0162115   3.40193e+06       538.942             0             0             0             0
    0.0162308   3.40193e+06        563.97             0             0             0             0
      0.01625   3.40193e+06       590.058             0             0             0             0
    0.0162692   3.40193e+06       617.245             0             0             0             0
    0.0162885   3.40193e+06       645.571             0             0             0             0
    0.0163077   3.40193e+06        675.08             0             0             0             0
    0.0163269   3.40193e+06       705.816             0             0             0             0
    0.0163462   3.40193e+06       737.823             0             0             0             0
    0.0163654   3.40193e+06       771.149             0             0             0             0
    0.0163846   3.40193e+06       805.841             0             0             0             0
    0.0164038   3.40193e+06        841.95             0             0             0             0
    0.0164231   3.40193e+06       879.526             0             0             0             0
    0.0164423   3.40193e+06       918.623             0             0             0             0
    0.0164615   3.40193e+06       959.294             0             0             0             0
    0.0164808   3.40193e+06        1001.6             0             0             0             0
       0.0165   3.40193e+06       1045.59             0             0             0             0
    0.0165192   3.40193e+06       1091.33             0             0             0             0
    0.0165385   3.40193e+06       1138.87             0             0             0             0
    0.0165577   3.40193e+06       1188.29             0             0             0             0
    0.0165769   3.40193e+06       1239.65             0             0             0             0
    0.0165962   3.40193e+06       1293.01             0             0             0             0
    0.0166154   3.40193e+06       1348.44             0             0             0             0
    0.0166346   3.40193e+06       1406.02             0             0             0             0
    0.0166538   3.40193e+06       1465.81             0             0             0             0
    0.0166731   3.40193e+06        1527.9             0             0             0             0
    0.0166923   3.40193e+06       1592.35             0             0             0             0
    0.0167115   3.40193e+06       1659.24             0             0             0             0
    0.0167308   3.40193e+06       1728.67             0             0             0             0
      0.01675   3.40193e+06        1800.7             0             0             0             0
    0.0167692   3.40193e+06       1875.43             0             0             0             0
    0.0167885   3.40193e+06       1952.95             0             0             0             0
    0.0168077   3.40193e+06       2033.34             0             0             0             0
    0.0168269   3.40193e+06        2116.7             0             0             0             0
    0.0168462   3.40193e+06       2203.12             0             0             0             0
    0.0168654   3.40193e+06        2292.7             0             0             0             0
    0.0168846   3.40193e+06       2385.54             0             0             0             0
    0.0169038   3.40193e+06       2481.74             0             0             0             0
    0.0169231   3.40193e+06       2581.41             0             0             0             0
    0.0169423   3.40193e+06       2684.66             0             0             0             0
    0.0169615   3.40193e+06       2791.59             0             0             0             0
    0.0169808   3.40193e+06       2902.33             0             0             0             0
        0.017   3.40193e+06       3016.98             0             0             0             0
    0.0170192   3.40193e+06       3135.67             0             0             0             0
    0.0170385   3.40193e+06       3258.52             0             0             0             0
    0.0170577   3.40193e+06       3385.65             0             0             0             0
    0.0170769   3.40193e+06        3517.2             0             0             0             0
    0.0170962   3.40193e+06       3653.28             0             0             0             0
    0.0171154   3.40193e+06       3794.05             0             0             0             0
    0.0171346   3.40193e+06       3939.62             0             0             0             0
    0.0171538   3.40193e+06       4090.16             0             0             0             0
    0.0171731   3.40193e+06       4245.79             0             0             0             0
    0.0171923   3.40193e+06       4406.67             0             0             0             0
    0.0172115   3.40193e+06       4572.95             0             0             0             0
    0.0172308   3.40193e+06       4744.77             0             0             0             0
      0.01725   3.40193e+06        4922.3             0             0             0             0
    0.0172692   3.40193e+06        5105.7             0             0             0             0
    0.0172885   3.40193e+06       5295.14             0             0             0             0
    0.0173077   3.40193e+06       5490.77             0             0             0             0
    0.0173269   3.40193e+06       5692.77             0             0             0             0
    0.0173462   3.40193e+06       5901.33             0             0             0             0