# Probe 0 (0 0 0)
# Probe 1 (0 0 0.1)
# Probe 2 (0 0 0.2)
# Probe 3 (0 0 0.3)
# Probe 4 (0 0 0.4)
# Probe 5 (0 0 0.89)
#       Probe             0             1             2             3             4             5
#        Time
    0.0115385       3.89307       1.51018             0             0             0             0
    0.0115577       3.89307       1.50759             0             0             0             0
    0.0115769       3.89307       1.50501             0             0             0             0
    0.0115962       3.89307       1.50244             0             0             0             0
    0.0116154       3.89307       1.49988             0             0             0             0
    0.0116346       3.89307       1.49733             0             0             0             0
    0.0116538       3.89307       1.49479             0             0             0             0
    0.0116731       3.89307       1.49226             0             0             0             0
    0.0116923       3.89307       1.48973             0             0             0             0
    0.0117115       3.89307       1.48722             0             0             0             0
    0.0117308       3.89307       1.48471             0             0             0             0
      0.01175       3.89307       1.48221             0             0             0             0
    0.0117692       3.89307       1.47973             0             0             0             0
    0.0117885       3.89307       1.47725             0             0             0             0
    0.0118077       3.89307       1.47477             0             0             0             0
    0.0118269       3.89307       1.47231             0             0             0             0
    0.0118462       3.89307       1.46986             0             0             0             0
    0.0118654       3.89307       1.46741             0             0             0             0
    0.0118846       3.89307       1.46498             0             0             0             0
    0.0119038       3.89307       1.46255             0             0             0             0
    0.0119231       3.89307       1.46013             0             0             0             0
    0.0119423       3.89307       1.45772             0             0             0             0
    0.0119615       3.89307       1.45532             0             0             0             0
    0.0119808       3.89307       1.45293             0             0             0             0
        0.012       3.89307       1.45054             0             0             0             0
    0.0120192       3.89307       1.44817             0             0             0             0
    0.0120385       3.89307        1.4458             0             0             0             0
    0.0120577       3.89307       1.44344             0             0             0             0
    0.0120769       3.89307       1.44109             0             0             0             0
    0.0120962       3.89307       1.43875             0             0             0             0
    0.0121154       3.89307       1.43641             0             0             0             0
    0.0121346       3.89307       1.43408             0             0             0             0
    0.0121538       3.89307       1.43177             0             0             0             0
    0.0121731       3.89307       1.42946             0             0             0             0
    0.0121923       3.89307       1.42715             0             0             0             0
    0.0122115       3.89307       1.42486             0             0             0             0
    0.0122308       3.89307       1.42257             0             0             0             0
      0.01225       3.89307        1.4203             0             0             0             0
    0.0122692       3.89307       1.41803             0             0             0             0
    0.0122885       3.89307       1.41576             0             0             0             0
    0.0123077       3.89307       1.41351             0             0             0             0
    0.0123269       3.89307       1.41126             0             0             0             0
    0.0123462       3.89307       1.40903             0             0             0             0
    0.0123654       3.89307        1.4068             0             0             0             0
    0.0123846       3.89307       1.40457             0             0             0             0
    0.0124038       3.89307       1.40236             0             0             0             0
    0.0124231       3.89307       1.40015             0             0             0             0
    0.0124423       3.89307       1.39795             0             0             0             0
    0.0124615       3.89307       1.39576             0             0             0             0
    0.0124808       3.89307       1.39357             0             0             0             0
       0.0125       3.89307        1.3914             0             0             0             0
    0.0125192       3.89307       1.38923             0             0             0             0
    0.0125385       3.89307       1.38706             0             0             0             0
    0.0125577       3.89307       1.38491             0             0             0             0
    0.0125769       3.89307       1.38276             0             0             0             0
    0.0125962       3.89307       1.38062             0             0             0             0
    0.0126154       3.89307       1.37849             0             0             0             0
    0.0126346       3.89307       1.37636             0             0             0             0
    0.0126538       3.89307       1.37424             0             0             0             0
    0.0126731       3.89307       1.37213             0             0             0             0
    0.0126923       3.89307       1.37003             0             0             0             0
    0.0127115       3.89307       1.36793             0             0             0             0
    0.0127308       3.89307       1.36584             0             0             0             0
      0.01275       3.89307       1.36376             0             0             0             0
    0.0127692       3.89307       1.36168             0             0             0             0
    0.0127885       3.89307       1.35961             0             0             0             0
    0.0128077       3.89307       1.35755             0             0             0             0
    0.0128269       3.89307       1.35549             0             0             0             0
    0.0128462       3.89307       1.35345             0             0             0             0
    0.0128654       3.89307        1.3514             0             0             0             0
    0.0128846       3.89307       1.34937             0             0             0             0
    0.0129038       3.89307       1.34734             0             0             0             0
    0.0129231       3.89307       1.34532             0             0             0             0
    0.0129423       3.89307        1.3433             0             0             0             0
    0.0129615       3.89307        1.3413             0             0             0             0
    0.0129808       3.89307       1.33929             0             0             0             0
        0.013       3.89307        1.3373             0             0             0             0
    0.0130192       3.89307       1.33531             0             0             0             0
    0.0130385       3.89307       1.33333             0             0             0             0
    0.0130577       3.89307       1.33135             0             0             0             0
    0.0130769       3.89307       1.32938             0             0             0             0
    0.0130962       3.89307       1.32742             0             0             0             0
    0.0131154       3.89307       1.32546             0             0             0             0
    0.0131346       3.89307       1.32351             0             0             0             0
    0.0131538       3.89307       1.32157             0             0             0             0
    0.0131731       3.89307       1.31963             0             0             0             0
    0.0131923       3.89307        1.3177             0             0             0             0
    0.0132115       3.89307       1.31577             0             0             0             0
    0.0132308       3.89307       1.31385             0             0             0             0
      0.01325       3.89307       1.31194             0             0             0             0
    0.0132692       3.89307       1.31003             0             0             0             0
    0.0132885       3.89307       1.30813             0             0             0             0
    0.0133077       3.89307       1.30623             0             0             0             0
    0.0133269       3.89307       1.30434             0             0             0             0
    0.0133462       3.89307       1.30246             0             0             0             0
    0.0133654       3.89307       1.30058             0             0             0             0
    0.0133846       3.89307        1.2987             0             0             0             0
    0.0134038       3.89307       1.29684             0             0             0             0
    0.0134231       3.89307       1.29498             0             0             0             0
    0.0134423       3.89307       1.29312             0             0             0             0
    0.0134615       3.89307       1.29127             0             0             0             0
    0.0134808       3.89307       1.28943             0             0             0             0
       0.0135       3.89307       1.28759             0             0             0             0
    0.0135192       3.89307       1.28575             0             0             0             0
    0.0135385       3.89307       1.28393             0             0             0             0
    0.0135577       3.89307       1.28211             0             0             0             0
    0.0135769       3.89307       1.28029             0             0             0             0
    0.0135962       3.89307       1.27848             0             0             0             0
    0.0136154       3.89307       1.27667             0             0             0             0
    0.0136346       3.89307       1.27487             0             0             0             0
    0.0136538       3.89307       1.27308             0             0             0             0
    0.0136731       3.89307       1.27129             0             0             0             0
    0.0136923       3.89307        1.2695             0             0             0             0
    0.0137115       3.89307       1.26772             0             0             0             0
    0.0137308       3.89307       1.26595             0             0             0             0
      0.01375       3.89307       1.26418             0             0             0             0
    0.0137692       3.89307       1.26241             0             0             0             0
    0.0137885       3.89307       1.26065             0             0             0             0
    0.0138077       3.89307        1.2589             0             0             0             0
    0.0138269       3.89307       1.25715             0             0             0             0
    0.0138462       3.89307       1.25541             0             0             0             0
    0.0138654       3.89307       1.25367             0             0             0             0
    0.0138846       3.89307       1.25193             0             0             0             0
    0.0139038       3.89307       1.25021             0             0             0             0
    0.0139231       3.89307       1.24848             0             0             0             0
    0.0139423       3.89307       1.24676             0             0             0             0
    0.0139615       3.89307       1.24505             0             0             0             0
    0.0139808       3.89307       1.24334             0             0             0             0
        0.014       3.89307       1.24163             0             0             0             0
    0.0140192       3.89307       1.23993             0             0             0             0
    0.0140385       3.89307       1.23823             0             0             0             0
    0.0140577       3.89307       1.23654             0             0             0             0
    0.0140769       3.89307       1.23486             0             0             0             0
    0.0140962       3.89307       1.23317             0             0             0             0
    0.0141154       3.89307        1.2315             0             0             0             0
    0.0141346       3.89307       1.22982             0             0             0             0
    0.0141538       3.89307       1.22816             0             0             0             0
    0.0141731       3.89307       1.22649             0             0             0             0
    0.0141923       3.89307       1.22483             0             0             0             0
    0.0142115       3.89307       1.22318             0             0             0             0
    0.0142308       3.89307       1.22153             0             0             0             0
      0.01425       3.89307       1.21988             0             0             0             0
    0.0142692       3.89307       1.21824             0             0             0             0
    0.0142885       3.89307        1.2166             0             0             0             0
    0.0143077       3.89307       1.21497             0             0             0             0
    0.0143269       3.89307       1.21334             0             0             0             0
    0.0143462       3.89307       1.21171             0             0             0             0
    0.0143654       3.89307       1.21009             0             0             0             0
    0.0143846       3.89307       1.20847             0             0             0             0
    0.0144038       3.89307       1.20686             0             0             0             0
    0.0144231       3.89307       1.20525             0             0             0             0
    0.0144423       3.89307       1.20365             0             0             0             0
    0.0144615       3.89307       1.20205             0             0             0             0
    0.0144808       3.89307       1.20045             0             0             0             0
       0.0145       3.89307       1.19886             0             0             0             0
    0.0145192       3.89307       1.19727             0             0             0             0
    0.0145385       3.89307       1.19569             0             0             0             0
    0.0145577       3.89307        1.1941             0             0             0             0
    0.0145769       3.89307       1.19253             0             0             0             0
    0.0145962       3.89307       1.19096             0             0             0             0
    0.0146154       3.89307       1.18939             0             0             0             0
    0.0146346       3.89307       1.18782             0             0             0             0
    0.0146538       3.89307       1.18626             0             0             0             0
    0.0146731       3.89307        1.1847             0             0             0             0
    0.0146923       3.89307       1.18315             0             0             0             0
    0.0147115       3.89307        1.1816             0             0             0             0
    0.0147308       3.89307       1.18005             0             0             0             0
      0.01475       3.89307       1.17851             0             0             0             0
    0.0147692       3.89307       1.17697             0             0             0             0
    0.0147885       3.89307       1.17544             0             0             0             0
    0.0148077       3.89307        1.1739             0             0             0             0
    0.0148269       3.89307       1.17238             0             0             0             0
    0.0148462       3.89307       1.17085             0             0             0             0
    0.0148654       3.89307       1.16933             0             0             0             0
    0.0148846       3.89307       1.16781             0             0             0             0
    0.0149038       3.89307        1.1663             0             0             0             0
    0.0149231       3.89307       1.16479             0             0             0             0
    0.0149423       3.89307       1.16328             0             0             0             0
    0.0149615       3.89307       1.16178             0             0             0             0
    0.0149808       3.89307       1.16028             0             0             0             0
        0.015       3.89307       1.15878             0             0             0             0
    0.0150192       3.89307       1.15729             0             0             0             0
    0.0150385       3.89307        1.1558             0             0             0             0
    0.0150577       3.89307       1.15431             0             0             0             0
    0.0150769       3.89307       1.15283             0             0             0             0
    0.0150962       3.89307       1.15135             0             0             0             0
    0.0151154       3.89307       1.14987             0             0             0             0
    0.0151346       3.89307        1.1484             0             0             0             0
    0.0151538       3.89307       1.14693             0             0             0             0
    0.0151731       3.89307       1.14546             0             0             0             0
    0.0151923       3.89307         1.144             0             0             0             0
    0.0152115       3.89307       1.14254             0             0             0             0
    0.0152308       3.89307       1.14108             0             0             0             0
      0.01525       3.89307       1.13963             0             0             0             0
    0.0152692       3.89307       1.13818             0             0             0             0
    0.0152885       3.89307       1.13673             0             0             0             0
    0.0153077       3.89307       1.13529             0             0             0             0
    0.0153269       3.89307       1.13385             0             0             0             0
    0.0153462       3.89307       1.13241             0             0             0             0
    0.0153654       3.89307       1.13097             0             0             0             0
    0.0153846       3.89307       1.12954             0             0             0             0
    0.0154038       3.89307       1.12811             0             0             0             0
    0.0154231       3.89307       1.12668             0             0             0             0
    0.0154423       3.89307       1.12526             0             0             0             0
    0.0154615       3.89307       1.12384             0             0             0             0
    0.0154808       3.89307       1.12242             0             0             0             0
       0.0155       3.89307       1.12101             0             0             0             0
    0.0155192       3.89307        1.1196             0             0             0             0
    0.0155385       3.89307       1.11819             0             0             0             0
    0.0155577       3.89307       1.11678             0             0             0             0
    0.0155769       3.89307       1.11538             0             0             0             0
    0.0155962       3.89307       1.11398             0             0             0             0
    0.0156154       3.89307       1.11258             0             0             0             0
    0.0156346       3.89307       1.11119             0             0             0             0
    0.0156538       3.89307        1.1098             0             0             0             0
    0.0156731       3.89307       1.10841             0             0             0             0
    0.0156923       3.89307       1.10702             0             0             0             0
    0.0157115       3.89307       1.10564             0             0             0             0
    0.0157308       3.89307       1.10426             0             0             0             0
      0.01575       3.89307       1.10288             0             0             0             0
    0.0157692       3.89307       1.10151             0             0             0             0
    0.0157885       3.89307       1.10014             0             0             0             0
    0.0158077       3.89307       1.09877             0             0             0             0
    0.0158269       3.89307        1.0974             0             0             0             0
    0.0158462       3.89307       1.09604             0             0             0             0
    0.0158654       3.89307       1.09468             0             0             0             0
    0.0158846       3.89307       1.09332             0             0             0             0
    0.0159038       3.89307       1.09196             0             0             0             0
    0.0159231       3.89307       1.09061             0             0             0             0
    0.0159423       3.89307       1.08926             0             0             0             0
    0.0159615       3.89307       1.08791             0             0             0             0
    0.0159808       3.89307       1.08656             0             0             0             0
        0.016       3.89307       1.08522             0             0             0             0
    0.0160192       3.89307       1.08388             0             0             0             0
    0.0160385       3.89307       1.08254             0             0             0             0
    0.0160577       3.89307       1.08121             0             0             0             0
    0.0160769       3.89307       1.07988             0             0             0             0
    0.0160962       3.89307       1.07855             0             0             0             0
    0.0161154       3.89307       1.07722             0             0             0             0
    0.0161346       3.89307       1.07589             0             0             0             0
    0.0161538       3.89307       1.07457             0             0             0             0
    0.0161731       3.89307       1.07325             0             0             0             0
    0.0161923       3.89307       1.07193             0             0             0             0
    0.0162115       3.89307       1.07062             0             0             0             0
    0.0162308       3.89307       1.06931             0             0             0             0
      0.01625       3.89307         1.068             0             0             0             0
    0.0162692       3.89307       1.06669             0             0             0             0
    0.0162885       3.89307       1.06538             0             0             0             0
    0.0163077       3.89307       1.06408             0             0             0             0
    0.0163269       3.89307       1.06278             0             0             0             0
    0.0163462       3.89307       1.06148             0             0             0             0
    0.0163654       3.89307       1.06019             0             0             0             0
    0.0163846       3.89307       1.05889             0             0             0             0
    0.0164038       3.89307        1.0576             0             0             0             0
    0.0164231       3.89307       1.05631             0             0             0             0
    0.0164423       3.89307       1.05503             0             0             0             0
    0.0164615       3.89307       1.05374             0             0             0             0
    0.0164808       3.89307       1.05246             0             0             0             0
       0.0165       3.89307       1.05118             0             0             0             0
    0.0165192       3.89307       1.04991             0             0             0             0
    0.0165385       3.89307       1.04863             0             0             0             0
    0.0165577       3.89307       1.04736             0             0             0             0
    0.0165769       3.89307       1.04609             0             0             0             0
    0.0165962       3.89307       1.04482             0             0             0             0
    0.0166154       3.89307       1.04356             0             0             0             0
    0.0166346       3.89307        1.0423             0             0             0             0
    0.0166538       3.89307       1.04103             0             0             0             0
    0.0166731       3.89307       1.03978             0             0             0             0
    0.0166923       3.89307       1.03852             0             0             0             0
    0.0167115       3.89307       1.03727             0             0             0             0
    0.0167308       3.89307       1.03601             0             0             0             0
      0.01675       3.89307       1.03476             0             0             0             0
    0.0167692       3.89307       1.03352             0             0             0             0
    0.0167885       3.89307       1.03227             0             0             0             0
    0.0168077       3.89307       1.03103             0             0             0             0
    0.0168269       3.89307       1.02979             0             0             0             0
    0.0168462       3.89307       1.02855             0             0             0             0
    0.0168654       3.89307       1.02731             0             0             0             0
    0.0168846       3.89307       1.02608             0             0             0             0
    0.0169038       3.89307       1.02485             0             0             0             0
    0.0169231       3.89307       1.02362             0             0             0             0
    0.0169423       3.89307       1.02239             0             0             0             0
    0.0169615       3.89307       1.02117             0             0             0             0
    0.0169808       3.89307       1.01994             0             0             0             0
        0.017       3.89307       1.01872             0             0             0             0
    0.0170192       3.89307        1.0175             0             0             0             0
    0.0170385       3.89307       1.01629             0             0             0             0
    0.0170577       3.89307       1.01507             0             0             0             0
    0.0170769       3.89307       1.01386             0             0             0             0
    0.0170962       3.89307       1.01265             0             0             0             0
    0.0171154       3.89307       1.01144             0             0             0             0
    0.0171346       3.89307       1.01023             0             0             0             0
    0.0171538       3.89307       1.00903             0             0             0             0
    0.0171731       3.89307       1.00783             0             0             0             0
    0.0171923       3.89307       1.00663             0             0             0             0
    0.0172115       3.89307       1.00543             0             0             0             0
    0.0172308       3.89307       1.00424             0             0             0             0
      0.01725       3.89307       1.00304             0             0             0             0
    0.0172692       3.89307       1.00185             0             0             0             0
    0.0172885       3.89307       1.00066             0             0             0             0
    0.0173077       3.89307      0.999473             0             0             0             0
    0.0173269       3.89307      0.998288             0             0             0             0
    0.0173462       3.89307      0.997105             0             0             0             0