/*--------------------------------*- C++ -*----------------------------------*\
| =========                 |                                                 |
| \\      /  F ield         | OpenFOAM: The Open Source CFD Toolbox           |
|  \\    /   O peration     | Version:  dev                                   |
|   \\  /    A nd           | Web:      www.OpenFOAM.org                      |
|    \\/     M anipulation  |                                                 |
\*---------------------------------------------------------------------------*/
FoamFile
{
    version     2.0;
    format      ascii;
    class       volScalarField;
    location    "0.09";
    object      A3-1;
}
// * * * * * * * * * * * * * * * * * * * * * * * * * * * * * * * * * * * * * //

dimensions      [0 0 0 0 0 0 0];

internalField   nonuniform List<scalar> 
100
(
5.11251e-15
3.62782e-15
2.69636e-15
2.16611e-15
1.7879e-15
1.47495e-15
1.20983e-15
9.9166e-16
8.19596e-16
6.88771e-16
5.92063e-16
5.22746e-16
4.75184e-16
4.45554e-16
4.31572e-16
4.31606e-16
4.44486e-16
4.68916e-16
5.03184e-16
5.4508e-16
5.91992e-16
6.41106e-16
6.89647e-16
7.35094e-16
7.75346e-16
8.08805e-16
8.34449e-16
8.51737e-16
8.60583e-16
8.61303e-16
8.54484e-16
8.4089e-16
8.2139e-16
7.96893e-16
7.68293e-16
7.36442e-16
7.02126e-16
6.6606e-16
6.28871e-16
5.91093e-16
5.52953e-16
5.1495e-16
4.78013e-16
4.42014e-16
4.07213e-16
3.73784e-16
3.41863e-16
3.11509e-16
2.82844e-16
2.55869e-16
2.30596e-16
2.06803e-16
1.84868e-16
1.64217e-16
1.45173e-16
1.27677e-16
1.11965e-16
9.7509e-17
8.42878e-17
7.26177e-17
6.21577e-17
5.28383e-17
4.45899e-17
3.73436e-17
3.09093e-17
2.54342e-17
2.07445e-17
1.67646e-17
1.34242e-17
1.05982e-17
8.32167e-18
6.47253e-18
4.98646e-18
3.80447e-18
2.87414e-18
2.15092e-18
1.5857e-18
1.15151e-18
8.28667e-19
6.01629e-19
4.35869e-19
3.16074e-19
2.30199e-19
1.69095e-19
1.2542e-19
9.33589e-20
7.2154e-20
5.70685e-20
4.62682e-20
3.84264e-20
3.25962e-20
2.80954e-20
2.44105e-20
2.11431e-20
1.81894e-20
1.51704e-20
1.22047e-20
8.89908e-21
5.6688e-21
3.18168e-21
)
;

boundaryField
{
    front
    {
        type            wedge;
    }
    back
    {
        type            wedge;
    }
    wall
    {
        type            zeroGradient;
    }
    fuel
    {
        type            fixedValue;
        value           uniform 0;
    }
    outlet
    {
        type            inletOutlet;
        inletValue      uniform 0;
        value           uniform 3.18168e-21;
    }
    axis
    {
        type            empty;
    }
}


// ************************************************************************* //
