/*--------------------------------*- C++ -*----------------------------------*\
| =========                 |                                                 |
| \\      /  F ield         | OpenFOAM: The Open Source CFD Toolbox           |
|  \\    /   O peration     | Version:  dev                                   |
|   \\  /    A nd           | Web:      www.OpenFOAM.org                      |
|    \\/     M anipulation  |                                                 |
\*---------------------------------------------------------------------------*/
FoamFile
{
    version     2.0;
    format      ascii;
    class       volScalarField;
    location    "0.09";
    object      c-C6H7;
}
// * * * * * * * * * * * * * * * * * * * * * * * * * * * * * * * * * * * * * //

dimensions      [0 0 0 0 0 0 0];

internalField   nonuniform List<scalar> 
100
(
4.41588e-14
1.39619e-13
2.26697e-13
2.82848e-13
2.92737e-13
2.60129e-13
2.06337e-13
1.50701e-13
1.05497e-13
7.26058e-14
5.00554e-14
3.51223e-14
2.53849e-14
1.90835e-14
1.50787e-14
1.2594e-14
1.11567e-14
1.04719e-14
1.03524e-14
1.06731e-14
1.13427e-14
1.22873e-14
1.34427e-14
1.47514e-14
1.6162e-14
1.76306e-14
1.91135e-14
2.05815e-14
2.2019e-14
2.34118e-14
2.47523e-14
2.60389e-14
2.72742e-14
2.84644e-14
2.96175e-14
3.07434e-14
3.18524e-14
3.29557e-14
3.40642e-14
3.51844e-14
3.63334e-14
3.75249e-14
3.8757e-14
4.00539e-14
4.14277e-14
4.28922e-14
4.44617e-14
4.61521e-14
4.79758e-14
4.99487e-14
5.20834e-14
5.44087e-14
5.68956e-14
5.9608e-14
6.25315e-14
6.5687e-14
6.90362e-14
7.26604e-14
7.65751e-14
8.07076e-14
8.51328e-14
8.9854e-14
9.48779e-14
1.00209e-13
1.05916e-13
1.11919e-13
1.18317e-13
1.25161e-13
1.32519e-13
1.40614e-13
1.49461e-13
1.5942e-13
1.708e-13
1.83974e-13
1.99339e-13
2.17275e-13
2.3845e-13
2.63868e-13
2.94614e-13
3.31456e-13
3.77838e-13
4.37302e-13
5.15098e-13
6.18433e-13
7.57827e-13
9.47794e-13
1.16329e-12
1.39152e-12
1.59614e-12
1.7443e-12
1.81757e-12
1.81413e-12
1.74368e-12
1.61697e-12
1.45141e-12
1.24264e-12
1.01316e-12
7.43118e-13
4.73679e-13
2.65459e-13
)
;

boundaryField
{
    front
    {
        type            wedge;
    }
    back
    {
        type            wedge;
    }
    wall
    {
        type            zeroGradient;
    }
    fuel
    {
        type            fixedValue;
        value           uniform 0;
    }
    outlet
    {
        type            inletOutlet;
        inletValue      uniform 0;
        value           uniform 2.65459e-13;
    }
    axis
    {
        type            empty;
    }
}


// ************************************************************************* //
