/*--------------------------------*- C++ -*----------------------------------*\
| =========                 |                                                 |
| \\      /  F ield         | OpenFOAM: The Open Source CFD Toolbox           |
|  \\    /   O peration     | Version:  dev                                   |
|   \\  /    A nd           | Web:      www.OpenFOAM.org                      |
|    \\/     M anipulation  |                                                 |
\*---------------------------------------------------------------------------*/
FoamFile
{
    version     2.0;
    format      ascii;
    class       volScalarField;
    location    "0.09";
    object      c-C6H4;
}
// * * * * * * * * * * * * * * * * * * * * * * * * * * * * * * * * * * * * * //

dimensions      [0 0 0 0 0 0 0];

internalField   nonuniform List<scalar> 
100
(
5.18627e-09
1.60434e-08
2.11392e-08
2.08311e-08
1.75993e-08
1.3355e-08
9.35061e-09
6.21998e-09
4.02468e-09
2.5776e-09
1.65362e-09
1.07433e-09
7.12049e-10
4.84671e-10
3.41962e-10
2.51457e-10
1.9369e-10
1.56589e-10
1.32528e-10
1.16584e-10
1.05522e-10
9.72067e-11
9.02566e-11
8.3826e-11
7.74524e-11
7.09404e-11
6.42622e-11
5.75035e-11
5.08081e-11
4.43227e-11
3.81844e-11
3.25041e-11
2.73598e-11
2.2796e-11
1.8826e-11
1.54376e-11
1.25983e-11
1.02619e-11
8.37404e-12
6.8733e-12
5.68989e-12
4.77906e-12
4.10066e-12
3.59842e-12
3.23284e-12
2.97018e-12
2.78252e-12
2.64706e-12
2.54612e-12
2.46576e-12
2.3958e-12
2.32856e-12
2.26045e-12
2.18723e-12
2.10945e-12
2.02737e-12
1.94357e-12
1.85687e-12
1.76874e-12
1.68327e-12
1.59971e-12
1.51896e-12
1.44174e-12
1.36858e-12
1.29817e-12
1.23292e-12
1.17201e-12
1.11523e-12
1.06232e-12
1.01194e-12
9.6564e-13
9.21967e-13
8.80424e-13
8.40525e-13
8.01887e-13
7.64343e-13
7.26791e-13
6.89333e-13
6.52974e-13
6.19194e-13
5.86136e-13
5.53666e-13
5.2165e-13
4.90091e-13
4.58705e-13
4.26383e-13
3.96503e-13
3.67012e-13
3.37763e-13
3.08691e-13
2.80159e-13
2.52126e-13
2.24445e-13
1.96561e-13
1.69458e-13
1.40896e-13
1.12751e-13
8.17034e-14
5.17716e-14
2.89583e-14
)
;

boundaryField
{
    front
    {
        type            wedge;
    }
    back
    {
        type            wedge;
    }
    wall
    {
        type            zeroGradient;
    }
    fuel
    {
        type            fixedValue;
        value           uniform 0;
    }
    outlet
    {
        type            inletOutlet;
        inletValue      uniform 0;
        value           uniform 2.89583e-14;
    }
    axis
    {
        type            empty;
    }
}


// ************************************************************************* //
