/*--------------------------------*- C++ -*----------------------------------*\
| =========                 |                                                 |
| \\      /  F ield         | OpenFOAM: The Open Source CFD Toolbox           |
|  \\    /   O peration     | Version:  dev                                   |
|   \\  /    A nd           | Web:      www.OpenFOAM.org                      |
|    \\/     M anipulation  |                                                 |
\*---------------------------------------------------------------------------*/
FoamFile
{
    version     2.0;
    format      ascii;
    class       volScalarField;
    location    "0.09";
    object      C2H5;
}
// * * * * * * * * * * * * * * * * * * * * * * * * * * * * * * * * * * * * * //

dimensions      [0 0 0 0 0 0 0];

internalField   nonuniform List<scalar> 
100
(
2.52585e-08
5.95091e-08
6.71798e-08
6.29563e-08
5.4333e-08
4.46336e-08
3.52472e-08
2.70443e-08
2.03732e-08
1.52212e-08
1.13655e-08
8.53768e-09
6.4746e-09
4.97567e-09
3.88915e-09
3.09283e-09
2.50311e-09
2.06084e-09
1.72445e-09
1.46482e-09
1.26159e-09
1.10047e-09
9.71414e-10
8.67309e-10
7.8313e-10
7.15313e-10
6.61358e-10
6.19616e-10
5.89167e-10
5.69657e-10
5.6133e-10
5.65044e-10
5.82344e-10
6.15545e-10
6.67842e-10
7.43415e-10
8.47534e-10
9.86625e-10
1.16816e-09
1.40002e-09
1.69448e-09
2.06446e-09
2.51753e-09
3.07265e-09
3.74597e-09
4.55596e-09
5.52293e-09
6.67041e-09
8.02035e-09
9.59963e-09
1.14351e-08
1.35722e-08
1.59978e-08
1.87986e-08
2.19677e-08
2.55324e-08
2.9439e-08
3.37949e-08
3.86044e-08
4.37164e-08
4.91857e-08
5.49524e-08
6.09342e-08
6.7024e-08
7.32026e-08
7.9155e-08
8.48198e-08
9.00499e-08
9.4709e-08
9.87578e-08
1.01976e-07
1.04374e-07
1.05907e-07
1.06554e-07
1.06312e-07
1.05212e-07
1.03287e-07
1.00605e-07
9.7312e-08
9.36919e-08
8.96782e-08
8.535e-08
8.07776e-08
7.60434e-08
7.11753e-08
6.60539e-08
6.12615e-08
5.64945e-08
5.17851e-08
4.71511e-08
4.26158e-08
3.8191e-08
3.38619e-08
2.95449e-08
2.53899e-08
2.10516e-08
1.68098e-08
1.21592e-08
7.69533e-09
4.30157e-09
)
;

boundaryField
{
    front
    {
        type            wedge;
    }
    back
    {
        type            wedge;
    }
    wall
    {
        type            zeroGradient;
    }
    fuel
    {
        type            fixedValue;
        value           uniform 0;
    }
    outlet
    {
        type            inletOutlet;
        inletValue      uniform 0;
        value           uniform 4.30157e-09;
    }
    axis
    {
        type            empty;
    }
}


// ************************************************************************* //
