/*--------------------------------*- C++ -*----------------------------------*\
| =========                 |                                                 |
| \\      /  F ield         | OpenFOAM: The Open Source CFD Toolbox           |
|  \\    /   O peration     | Version:  dev                                   |
|   \\  /    A nd           | Web:      www.OpenFOAM.org                      |
|    \\/     M anipulation  |                                                 |
\*---------------------------------------------------------------------------*/
FoamFile
{
    version     2.0;
    format      ascii;
    class       volScalarField;
    location    "0.09";
    object      C4H4;
}
// * * * * * * * * * * * * * * * * * * * * * * * * * * * * * * * * * * * * * //

dimensions      [0 0 0 0 0 0 0];

internalField   nonuniform List<scalar> 
100
(
2.98529e-08
8.56144e-08
1.13696e-07
1.17785e-07
1.06317e-07
8.72707e-08
6.6828e-08
4.90844e-08
3.52812e-08
2.52435e-08
1.82332e-08
1.3434e-08
1.02336e-08
8.11333e-09
6.70555e-09
5.77586e-09
5.17115e-09
4.7918e-09
4.57291e-09
4.47227e-09
4.46263e-09
4.52691e-09
4.65521e-09
4.84289e-09
5.08936e-09
5.39742e-09
5.77283e-09
6.22414e-09
6.76268e-09
7.40263e-09
8.1614e-09
9.05969e-09
1.01219e-08
1.13761e-08
1.2854e-08
1.45929e-08
1.66238e-08
1.89871e-08
2.17154e-08
2.48408e-08
2.84181e-08
3.24042e-08
3.68309e-08
4.17155e-08
4.69703e-08
5.25792e-08
5.85079e-08
6.46281e-08
7.09433e-08
7.72442e-08
8.34912e-08
8.95813e-08
9.54056e-08
1.00911e-07
1.05986e-07
1.10514e-07
1.14358e-07
1.17571e-07
1.2015e-07
1.21999e-07
1.23184e-07
1.23732e-07
1.23676e-07
1.23063e-07
1.21942e-07
1.20365e-07
1.18371e-07
1.16046e-07
1.13427e-07
1.10513e-07
1.07436e-07
1.04186e-07
1.00798e-07
9.7298e-08
9.37059e-08
9.00362e-08
8.62979e-08
8.25098e-08
7.86843e-08
7.47373e-08
7.09651e-08
6.71904e-08
6.34363e-08
5.96359e-08
5.59497e-08
5.22863e-08
4.86505e-08
4.50438e-08
4.14592e-08
3.78826e-08
3.42602e-08
3.06362e-08
2.70365e-08
2.33889e-08
2.00275e-08
1.64628e-08
1.29493e-08
9.1395e-09
5.50987e-09
2.57158e-09
)
;

boundaryField
{
    wall
    {
        type            zeroGradient;
    }
    fuel
    {
        type            fixedValue;
        value           uniform 0;
    }
    outlet
    {
        type            inletOutlet;
        inletValue      uniform 0;
        value           uniform 2.57158e-09;
    }
}


// ************************************************************************* //
