/*--------------------------------*- C++ -*----------------------------------*\
| =========                 |                                                 |
| \\      /  F ield         | OpenFOAM: The Open Source CFD Toolbox           |
|  \\    /   O peration     | Version:  dev                                   |
|   \\  /    A nd           | Web:      www.OpenFOAM.org                      |
|    \\/     M anipulation  |                                                 |
\*---------------------------------------------------------------------------*/
FoamFile
{
    version     2.0;
    format      ascii;
    class       volScalarField;
    location    "0.09";
    object      C5H3;
}
// * * * * * * * * * * * * * * * * * * * * * * * * * * * * * * * * * * * * * //

dimensions      [0 0 0 0 0 0 0];

internalField   nonuniform List<scalar> 
100
(
3.78388e-08
1.12052e-07
1.46576e-07
1.45437e-07
1.23702e-07
9.4693e-08
6.72033e-08
4.55092e-08
2.99589e-08
1.94774e-08
1.26855e-08
8.35834e-09
5.61363e-09
3.87942e-09
2.76952e-09
2.04829e-09
1.56993e-09
1.24457e-09
1.01664e-09
8.5164e-10
7.27964e-10
6.32002e-10
5.55165e-10
4.91923e-10
4.38693e-10
3.93099e-10
3.53558e-10
3.18994e-10
2.88613e-10
2.61821e-10
2.38154e-10
2.17236e-10
1.98754e-10
1.8244e-10
1.68059e-10
1.5538e-10
1.44259e-10
1.34477e-10
1.25864e-10
1.1831e-10
1.11621e-10
1.0578e-10
1.00617e-10
9.60029e-11
9.19041e-11
8.82146e-11
8.48513e-11
8.17862e-11
7.89258e-11
7.62796e-11
7.37761e-11
7.13827e-11
6.90853e-11
6.68445e-11
6.46501e-11
6.25056e-11
6.04431e-11
5.84092e-11
5.63784e-11
5.44224e-11
5.24958e-11
5.05987e-11
4.87206e-11
4.68591e-11
4.50231e-11
4.32106e-11
4.14067e-11
3.96398e-11
3.78986e-11
3.61553e-11
3.44658e-11
3.28036e-11
3.11716e-11
2.95731e-11
2.80115e-11
2.64776e-11
2.49672e-11
2.34931e-11
2.20526e-11
2.06106e-11
1.92714e-11
1.79676e-11
1.67055e-11
1.54621e-11
1.42895e-11
1.31582e-11
1.20726e-11
1.1028e-11
1.0019e-11
9.04696e-12
8.09203e-12
7.16166e-12
6.25925e-12
5.36594e-12
4.56035e-12
3.72313e-12
2.91242e-12
2.04585e-12
1.22926e-12
5.72678e-13
)
;

boundaryField
{
    wall
    {
        type            zeroGradient;
    }
    fuel
    {
        type            fixedValue;
        value           uniform 0;
    }
    outlet
    {
        type            inletOutlet;
        inletValue      uniform 0;
        value           uniform 5.72678e-13;
    }
}


// ************************************************************************* //
