/*--------------------------------*- C++ -*----------------------------------*\
| =========                 |                                                 |
| \\      /  F ield         | OpenFOAM: The Open Source CFD Toolbox           |
|  \\    /   O peration     | Version:  dev                                   |
|   \\  /    A nd           | Web:      www.OpenFOAM.org                      |
|    \\/     M anipulation  |                                                 |
\*---------------------------------------------------------------------------*/
FoamFile
{
    version     2.0;
    format      ascii;
    class       volScalarField;
    location    "0.09";
    object      C6H3;
}
// * * * * * * * * * * * * * * * * * * * * * * * * * * * * * * * * * * * * * //

dimensions      [0 0 0 0 0 0 0];

internalField   nonuniform List<scalar> 
100
(
1.61346e-11
4.95557e-11
7.17351e-11
7.80976e-11
7.07596e-11
5.61235e-11
4.03572e-11
2.74222e-11
1.80236e-11
1.16518e-11
7.51242e-12
4.8858e-12
3.24237e-12
2.22628e-12
1.59583e-12
1.2029e-12
9.56068e-13
7.99339e-13
6.98432e-13
6.32271e-13
5.87786e-13
5.56803e-13
5.34215e-13
5.16804e-13
5.02581e-13
4.90366e-13
4.79512e-13
4.6961e-13
4.60501e-13
4.52135e-13
4.44515e-13
4.37676e-13
4.31665e-13
4.26533e-13
4.22344e-13
4.19136e-13
4.16997e-13
4.15933e-13
4.15971e-13
4.17171e-13
4.19512e-13
4.22977e-13
4.27419e-13
4.32606e-13
4.38227e-13
4.43859e-13
4.4896e-13
4.52904e-13
4.54963e-13
4.54458e-13
4.50622e-13
4.42872e-13
4.30859e-13
4.14346e-13
3.93594e-13
3.69348e-13
3.43035e-13
3.14981e-13
2.85809e-13
2.57562e-13
2.30317e-13
2.04634e-13
1.80814e-13
1.59037e-13
1.39463e-13
1.22048e-13
1.06554e-13
9.30827e-14
8.13526e-14
7.10113e-14
6.22046e-14
5.45937e-14
4.80268e-14
4.23656e-14
3.74876e-14
3.32673e-14
2.9595e-14
2.64071e-14
2.36256e-14
2.11367e-14
1.90651e-14
1.72491e-14
1.56556e-14
1.42217e-14
1.29734e-14
1.1847e-14
1.08222e-14
9.87635e-15
8.98933e-15
8.14843e-15
7.32712e-15
6.52523e-15
5.7413e-15
4.95581e-15
4.23738e-15
3.4794e-15
2.73492e-15
1.92938e-15
1.16287e-15
5.42694e-16
)
;

boundaryField
{
    wall
    {
        type            zeroGradient;
    }
    fuel
    {
        type            fixedValue;
        value           uniform 0;
    }
    outlet
    {
        type            inletOutlet;
        inletValue      uniform 0;
        value           uniform 5.42694e-16;
    }
}


// ************************************************************************* //
