/*--------------------------------*- C++ -*----------------------------------*\
| =========                 |                                                 |
| \\      /  F ield         | OpenFOAM: The Open Source CFD Toolbox           |
|  \\    /   O peration     | Version:  dev                                   |
|   \\  /    A nd           | Web:      www.OpenFOAM.org                      |
|    \\/     M anipulation  |                                                 |
\*---------------------------------------------------------------------------*/
FoamFile
{
    version     2.0;
    format      ascii;
    class       volScalarField;
    location    "0.09";
    object      CH4;
}
// * * * * * * * * * * * * * * * * * * * * * * * * * * * * * * * * * * * * * //

dimensions      [0 0 0 0 0 0 0];

internalField   nonuniform List<scalar> 
100
(
5.78715e-05
0.000125178
0.000149385
0.000152712
0.00014773
0.00013991
0.000131157
0.00012252
0.000114471
0.000107301
0.000101092
9.58387e-05
9.14517e-05
8.78235e-05
8.48854e-05
8.25318e-05
8.06709e-05
7.92148e-05
7.80825e-05
7.72027e-05
7.65141e-05
7.59665e-05
7.55202e-05
7.51443e-05
7.48156e-05
7.45167e-05
7.42346e-05
7.39603e-05
7.3687e-05
7.34097e-05
7.31246e-05
7.28293e-05
7.25217e-05
7.22006e-05
7.1865e-05
7.15143e-05
7.11481e-05
7.07663e-05
7.03684e-05
6.99543e-05
6.95207e-05
6.90678e-05
6.86023e-05
6.8118e-05
6.7614e-05
6.70887e-05
6.65402e-05
6.5966e-05
6.5365e-05
6.4734e-05
6.40711e-05
6.33675e-05
6.26334e-05
6.18474e-05
6.10195e-05
6.01476e-05
5.92468e-05
5.82888e-05
5.72718e-05
5.6227e-05
5.51319e-05
5.39858e-05
5.27895e-05
5.15446e-05
5.02291e-05
4.88913e-05
4.7512e-05
4.60956e-05
4.46482e-05
4.31456e-05
4.16508e-05
4.01372e-05
3.86051e-05
3.70535e-05
3.54823e-05
3.38977e-05
3.22778e-05
3.06377e-05
2.90178e-05
2.74961e-05
2.59975e-05
2.45213e-05
2.30653e-05
2.16317e-05
2.02095e-05
1.87495e-05
1.74035e-05
1.60748e-05
1.47649e-05
1.34729e-05
1.22039e-05
1.09596e-05
9.73543e-06
8.50811e-06
7.3211e-06
6.07644e-06
4.85552e-06
3.51387e-06
2.22436e-06
1.24343e-06
)
;

boundaryField
{
    front
    {
        type            wedge;
    }
    back
    {
        type            wedge;
    }
    wall
    {
        type            zeroGradient;
    }
    fuel
    {
        type            fixedValue;
        value           uniform 0;
    }
    outlet
    {
        type            inletOutlet;
        inletValue      uniform 0;
        value           uniform 1.24343e-06;
    }
    axis
    {
        type            empty;
    }
}


// ************************************************************************* //
