/*--------------------------------*- C++ -*----------------------------------*\
| =========                 |                                                 |
| \\      /  F ield         | OpenFOAM: The Open Source CFD Toolbox           |
|  \\    /   O peration     | Version:  dev                                   |
|   \\  /    A nd           | Web:      www.OpenFOAM.org                      |
|    \\/     M anipulation  |                                                 |
\*---------------------------------------------------------------------------*/
FoamFile
{
    version     2.0;
    format      ascii;
    class       volScalarField;
    location    "0.09";
    object      HO2;
}
// * * * * * * * * * * * * * * * * * * * * * * * * * * * * * * * * * * * * * //

dimensions      [0 0 0 0 0 0 0];

internalField   nonuniform List<scalar> 
100
(
2.16468e-08
2.24652e-08
1.93842e-08
1.61923e-08
1.34754e-08
1.13339e-08
9.50267e-09
7.97206e-09
6.57053e-09
5.30183e-09
4.18503e-09
3.25595e-09
2.48355e-09
1.8516e-09
1.35854e-09
9.84262e-10
7.06932e-10
5.05124e-10
3.60152e-10
2.56886e-10
1.83673e-10
1.31854e-10
9.51479e-11
6.90781e-11
5.0494e-11
3.72086e-11
2.77568e-11
2.10756e-11
1.63244e-11
1.29173e-11
1.04541e-11
8.65634e-12
7.32853e-12
6.33395e-12
5.57806e-12
4.99721e-12
4.55007e-12
4.21115e-12
3.96524e-12
3.80194e-12
3.71459e-12
3.70596e-12
3.77715e-12
3.92801e-12
4.15812e-12
4.46728e-12
4.85563e-12
5.32436e-12
5.87388e-12
6.50667e-12
7.22492e-12
8.03658e-12
8.92679e-12
9.92215e-12
1.10179e-11
1.22231e-11
1.35206e-11
1.4955e-11
1.65387e-11
1.82358e-11
2.00952e-11
2.21378e-11
2.439e-11
2.68834e-11
2.9731e-11
3.28982e-11
3.65018e-11
4.06427e-11
4.54369e-11
5.11356e-11
5.7678e-11
6.53416e-11
7.42984e-11
8.47035e-11
9.6656e-11
1.10132e-10
1.25502e-10
1.42559e-10
1.60552e-10
1.78268e-10
1.9616e-10
2.13785e-10
2.30675e-10
2.46279e-10
2.60162e-10
2.72075e-10
2.80268e-10
2.85018e-10
2.85877e-10
2.82592e-10
2.74874e-10
2.62727e-10
2.46299e-10
2.25454e-10
2.0133e-10
1.72251e-10
1.40699e-10
1.03537e-10
6.62264e-11
3.72099e-11
)
;

boundaryField
{
    front
    {
        type            wedge;
    }
    back
    {
        type            wedge;
    }
    wall
    {
        type            zeroGradient;
    }
    fuel
    {
        type            fixedValue;
        value           uniform 0;
    }
    outlet
    {
        type            inletOutlet;
        inletValue      uniform 0;
        value           uniform 3.72099e-11;
    }
    axis
    {
        type            empty;
    }
}


// ************************************************************************* //
