/*--------------------------------*- C++ -*----------------------------------*\
| =========                 |                                                 |
| \\      /  F ield         | OpenFOAM: The Open Source CFD Toolbox           |
|  \\    /   O peration     | Version:  dev                                   |
|   \\  /    A nd           | Web:      www.OpenFOAM.org                      |
|    \\/     M anipulation  |                                                 |
\*---------------------------------------------------------------------------*/
FoamFile
{
    version     2.0;
    format      ascii;
    class       volScalarField;
    location    "0.09";
    object      moment.1.populationBalance;
}
// * * * * * * * * * * * * * * * * * * * * * * * * * * * * * * * * * * * * * //

dimensions      [0 -2 0 0 0 0 0];

internalField   nonuniform List<scalar> 
100
(
0.0030673
0.00250172
0.00230804
0.00220026
0.00209111
0.00199215
0.00189273
0.00181052
0.00173711
0.00167895
0.00163053
0.00158773
0.00155189
0.00151941
0.00148827
0.00145975
0.00143049
0.00140129
0.00137244
0.00134429
0.00131771
0.00129238
0.00126887
0.00124902
0.0012306
0.00121616
0.00120502
0.0011968
0.00119351
0.0011934
0.00119734
0.00120512
0.00121721
0.00123344
0.00125443
0.00127921
0.00130843
0.00134232
0.0013803
0.0014239
0.0014725
0.00152612
0.00158489
0.00164864
0.00171746
0.00179164
0.00187097
0.00195709
0.00204673
0.0021449
0.00224796
0.00235495
0.00246888
0.0025838
0.00270413
0.00282916
0.002958
0.00308946
0.00322483
0.00336568
0.0035097
0.00365909
0.00381187
0.00396756
0.00412772
0.00428902
0.00445196
0.00461505
0.00477907
0.00494433
0.00511025
0.00527571
0.00543973
0.00560258
0.00576425
0.00592471
0.00607885
0.00622111
0.00635032
0.00647863
0.00660818
0.00672615
0.00683027
0.00692536
0.0070151
0.00709891
0.00717043
0.00723441
0.0072937
0.00734937
0.00739452
0.00740868
0.0073863
0.00737683
0.00739061
0.00741085
0.00742808
0.00737212
0.00709643
0.0063996
)
;

boundaryField
{
    wall
    {
        type            zeroGradient;
    }
    fuel
    {
        type            zeroGradient;
    }
    outlet
    {
        type            zeroGradient;
    }
}


// ************************************************************************* //
