/*--------------------------------*- C++ -*----------------------------------*\
| =========                 |                                                 |
| \\      /  F ield         | OpenFOAM: The Open Source CFD Toolbox           |
|  \\    /   O peration     | Version:  dev                                   |
|   \\  /    A nd           | Web:      www.OpenFOAM.org                      |
|    \\/     M anipulation  |                                                 |
\*---------------------------------------------------------------------------*/
FoamFile
{
    version     2.0;
    format      ascii;
    class       volScalarField;
    location    "0.09";
    object      O2;
}
// * * * * * * * * * * * * * * * * * * * * * * * * * * * * * * * * * * * * * //

dimensions      [0 0 0 0 0 0 0];

internalField   nonuniform List<scalar> 
100
(
0.108301
0.0530002
0.0274148
0.0144815
0.00771174
0.00411778
0.00220006
0.00117649
0.00062935
0.000337624
0.000182088
9.93391e-05
5.49235e-05
3.08485e-05
1.76161e-05
1.02716e-05
6.13048e-06
3.75243e-06
2.35825e-06
1.52205e-06
1.00817e-06
6.84267e-07
4.74794e-07
3.3579e-07
2.41086e-07
1.74675e-07
1.29503e-07
1.00432e-07
7.97151e-08
6.47889e-08
5.39077e-08
4.58562e-08
3.97828e-08
3.50965e-08
3.13973e-08
2.84273e-08
2.6032e-08
2.41299e-08
2.26901e-08
2.16329e-08
2.08316e-08
2.04501e-08
2.04616e-08
2.08313e-08
2.15263e-08
2.25136e-08
2.37604e-08
2.52372e-08
2.69125e-08
2.87635e-08
3.07709e-08
3.29407e-08
3.51061e-08
3.73063e-08
3.95794e-08
4.18948e-08
4.41813e-08
4.64843e-08
4.87814e-08
5.09846e-08
5.31306e-08
5.52115e-08
5.72255e-08
5.91792e-08
6.09837e-08
6.25508e-08
6.4025e-08
6.53801e-08
6.65942e-08
6.76726e-08
6.85612e-08
6.92712e-08
6.97948e-08
7.01263e-08
7.02641e-08
7.0215e-08
6.99292e-08
6.93714e-08
6.86077e-08
6.76673e-08
6.65036e-08
6.51099e-08
6.34821e-08
6.16262e-08
5.95282e-08
5.70977e-08
5.4593e-08
5.18473e-08
4.89182e-08
4.5814e-08
4.25089e-08
3.90296e-08
3.53833e-08
3.15103e-08
2.7562e-08
2.32171e-08
1.87772e-08
1.37337e-08
8.76314e-09
4.92255e-09
)
;

boundaryField
{
    front
    {
        type            wedge;
    }
    back
    {
        type            wedge;
    }
    wall
    {
        type            zeroGradient;
    }
    fuel
    {
        type            fixedValue;
        value           uniform 0.1914;
    }
    outlet
    {
        type            inletOutlet;
        inletValue      uniform 0;
        value           uniform 4.92255e-09;
    }
    axis
    {
        type            empty;
    }
}


// ************************************************************************* //
