/*--------------------------------*- C++ -*----------------------------------*\
| =========                 |                                                 |
| \\      /  F ield         | OpenFOAM: The Open Source CFD Toolbox           |
|  \\    /   O peration     | Version:  dev                                   |
|   \\  /    A nd           | Web:      www.OpenFOAM.org                      |
|    \\/     M anipulation  |                                                 |
\*---------------------------------------------------------------------------*/
FoamFile
{
    version     2.0;
    format      ascii;
    class       volScalarField;
    location    "0.05";
    object      A1C2H*;
}
// * * * * * * * * * * * * * * * * * * * * * * * * * * * * * * * * * * * * * //

dimensions      [0 0 0 0 0 0 0];

internalField   nonuniform List<scalar> 
250
(
4.90963e-07
4.91028e-07
4.90944e-07
4.91038e-07
4.90972e-07
4.90998e-07
4.91115e-07
4.91468e-07
4.90958e-07
4.19886e-07
5.47218e-10
5.85296e-07
5.85409e-07
5.85264e-07
5.85407e-07
5.85316e-07
5.85365e-07
5.85691e-07
5.87425e-07
5.95125e-07
6.30963e-07
3.54581e-10
3.82693e-07
3.82858e-07
3.82672e-07
3.82861e-07
3.82727e-07
3.82845e-07
3.83144e-07
3.85457e-07
3.94361e-07
4.70189e-07
2.03667e-10
2.25077e-07
2.25241e-07
2.25074e-07
2.25249e-07
2.25122e-07
2.25264e-07
2.25494e-07
2.2784e-07
2.35097e-07
3.02364e-07
1.35299e-10
1.35085e-07
1.35218e-07
1.35099e-07
1.35221e-07
1.35144e-07
1.35264e-07
1.35467e-07
1.37652e-07
1.43266e-07
1.92133e-07
9.31241e-11
8.57169e-08
8.58132e-08
8.57458e-08
8.58081e-08
8.57944e-08
8.5867e-08
8.61001e-08
8.80999e-08
9.19743e-08
1.26248e-07
7.74053e-11
5.7661e-08
5.77259e-08
5.77005e-08
5.7713e-08
5.77568e-08
5.77758e-08
5.80717e-08
5.9972e-08
6.31615e-08
8.71882e-08
8.16629e-11
4.08586e-08
4.0899e-08
4.09032e-08
4.08796e-08
4.09619e-08
4.09382e-08
4.12612e-08
4.32825e-08
4.60013e-08
6.33118e-08
1.1002e-10
3.03536e-08
3.03754e-08
3.03977e-08
3.03514e-08
3.04499e-08
3.0401e-08
3.06402e-08
3.13747e-08
3.41418e-08
4.83138e-08
2.00544e-10
2.32654e-08
2.32769e-08
2.33174e-08
2.3241e-08
2.33847e-08
2.3289e-08
2.36482e-08
2.45601e-08
2.62603e-08
3.82185e-08
4.51129e-10
1.81433e-08
1.81964e-08
1.81069e-08
1.82685e-08
1.81428e-08
1.85392e-08
1.93568e-08
2.15164e-08
3.02915e-08
9.72995e-10
1.45699e-08
1.46311e-08
1.45343e-08
1.47082e-08
1.45609e-08
1.49896e-08
1.5663e-08
1.7853e-08
2.5373e-08
1.8375e-09
1.20083e-08
1.20735e-08
1.19741e-08
1.21528e-08
1.19939e-08
1.24368e-08
1.29762e-08
1.51608e-08
2.19085e-08
3.04951e-09
1.01159e-08
1.01819e-08
1.00835e-08
1.02605e-08
1.00985e-08
1.05398e-08
1.09678e-08
1.31294e-08
1.93593e-08
4.65335e-09
8.67615e-09
8.74079e-09
8.64584e-09
8.81663e-09
8.65744e-09
9.08652e-09
9.42727e-09
1.15445e-08
1.74237e-08
6.67063e-09
7.55045e-09
7.61241e-09
7.52223e-09
7.68408e-09
7.53145e-09
7.94156e-09
8.21647e-09
1.0269e-08
1.59116e-08
9.06411e-09
6.64846e-09
6.70697e-09
6.62236e-09
6.77367e-09
6.62981e-09
7.01665e-09
7.24298e-09
9.2137e-09
1.47225e-08
1.17633e-08
5.91034e-09
5.96492e-09
5.88636e-09
6.02621e-09
5.89245e-09
6.25322e-09
6.44415e-09
8.31966e-09
1.36465e-08
1.4695e-08
5.29559e-09
5.34592e-09
5.27377e-09
5.40158e-09
5.27885e-09
5.61159e-09
5.77679e-09
7.54772e-09
1.268e-08
1.77631e-08
4.77612e-09
4.82189e-09
4.75654e-09
4.87184e-09
4.76113e-09
5.06426e-09
5.21055e-09
6.87087e-09
1.18685e-08
2.08012e-08
4.33183e-09
4.37272e-09
4.31461e-09
4.41697e-09
4.31935e-09
4.59151e-09
4.72335e-09
6.26928e-09
1.12021e-08
2.35609e-08
3.94746e-09
3.98317e-09
3.93273e-09
4.02173e-09
3.93818e-09
4.17836e-09
4.29805e-09
5.72825e-09
1.05461e-08
2.57643e-08
3.6492e-09
3.68107e-09
3.63625e-09
3.71526e-09
3.64297e-09
3.8566e-09
3.96954e-09
5.23707e-09
9.86585e-09
2.71815e-08
3.36803e-09
3.39715e-09
3.35671e-09
3.42864e-09
3.36442e-09
3.55976e-09
3.65757e-09
4.83674e-09
9.1574e-09
2.77059e-08
)
;

boundaryField
{
    fuel
    {
        type            fixedValue;
        value           uniform 0;
    }
    wall
    {
        type            zeroGradient;
    }
    outlet
    {
        type            zeroGradient;
    }
    frontAndBack
    {
        type            empty;
    }
    procBoundary3to0
    {
        type            processor;
        value           nonuniform List<scalar> 10(3.14105e-09 3.16691e-09 3.13114e-09 3.19476e-09 3.13959e-09 3.31255e-09 3.40316e-09 4.4511e-09 8.51376e-09 2.73428e-08);
    }
    procBoundary3to2
    {
        type            processor;
        value           nonuniform List<scalar> 
25
(
4.9101e-07
5.85375e-07
3.82811e-07
2.25197e-07
1.35186e-07
8.57941e-08
5.77166e-08
4.08968e-08
3.03785e-08
2.32817e-08
1.81456e-08
1.81456e-08
1.45801e-08
1.20237e-08
1.01343e-08
8.69605e-09
7.57073e-09
6.66849e-09
5.92969e-09
5.31392e-09
4.79311e-09
4.34717e-09
3.96088e-09
3.66107e-09
3.3787e-09
)
;
    }
}


// ************************************************************************* //
