/*--------------------------------*- C++ -*----------------------------------*\
| =========                 |                                                 |
| \\      /  F ield         | OpenFOAM: The Open Source CFD Toolbox           |
|  \\    /   O peration     | Version:  dev                                   |
|   \\  /    A nd           | Web:      www.OpenFOAM.org                      |
|    \\/     M anipulation  |                                                 |
\*---------------------------------------------------------------------------*/
FoamFile
{
    version     2.0;
    format      ascii;
    class       volScalarField;
    location    "0.05";
    object      A2C2HB;
}
// * * * * * * * * * * * * * * * * * * * * * * * * * * * * * * * * * * * * * //

dimensions      [0 0 0 0 0 0 0];

internalField   nonuniform List<scalar> 
250
(
6.22266e-08
6.22304e-08
6.22224e-08
6.223e-08
6.22277e-08
6.22281e-08
6.22696e-08
6.24643e-08
6.36155e-08
7.2429e-08
1.72283e-09
5.08797e-08
5.08832e-08
5.08752e-08
5.08806e-08
5.08804e-08
5.08813e-08
5.09356e-08
5.12495e-08
5.33341e-08
8.55798e-08
3.31505e-09
3.23571e-08
3.23645e-08
3.23543e-08
3.23629e-08
3.23594e-08
3.2365e-08
3.24145e-08
3.27431e-08
3.46924e-08
6.78706e-08
3.74231e-09
2.12229e-08
2.1232e-08
2.1222e-08
2.12313e-08
2.12271e-08
2.12355e-08
2.12799e-08
2.16065e-08
2.32689e-08
5.07085e-08
3.48235e-09
1.46903e-08
1.46992e-08
1.46914e-08
1.46985e-08
1.46968e-08
1.4705e-08
1.47479e-08
1.50709e-08
1.64831e-08
3.75677e-08
2.96719e-09
1.06017e-08
1.06093e-08
1.06047e-08
1.0608e-08
1.06112e-08
1.06163e-08
1.06627e-08
1.09829e-08
1.21425e-08
2.7873e-08
2.43958e-09
7.87938e-09
7.88523e-09
7.88409e-09
7.88299e-09
7.89206e-09
7.8923e-09
7.94635e-09
8.27059e-09
9.27552e-09
2.08434e-08
2.0088e-09
5.98478e-09
5.9888e-09
5.99067e-09
5.98563e-09
5.99933e-09
5.99496e-09
6.05275e-09
6.40451e-09
7.28713e-09
1.57771e-08
1.71278e-09
4.63683e-09
4.63913e-09
4.64308e-09
4.63517e-09
4.65102e-09
4.64371e-09
4.68943e-09
4.87775e-09
5.70827e-09
1.22022e-08
1.56238e-09
3.6239e-09
3.62523e-09
3.63163e-09
3.61939e-09
3.64185e-09
3.62801e-09
3.69e-09
3.90237e-09
4.52503e-09
9.63322e-09
1.54996e-09
2.82397e-09
2.83217e-09
2.81794e-09
2.84314e-09
2.82488e-09
2.89132e-09
3.08774e-09
3.74456e-09
7.55392e-09
1.64687e-09
2.22849e-09
2.23788e-09
2.22257e-09
2.24956e-09
2.22805e-09
2.2982e-09
2.46847e-09
3.09753e-09
6.24598e-09
1.83327e-09
1.78391e-09
1.79379e-09
1.7783e-09
1.8057e-09
1.78258e-09
1.85345e-09
1.99739e-09
2.59763e-09
5.3282e-09
2.09834e-09
1.45019e-09
1.45999e-09
1.445e-09
1.47158e-09
1.44837e-09
1.51728e-09
1.63771e-09
2.21005e-09
4.66504e-09
2.44533e-09
1.19814e-09
1.20745e-09
1.19343e-09
1.21834e-09
1.19612e-09
1.26132e-09
1.36218e-09
1.90623e-09
4.17815e-09
2.89951e-09
1.00648e-09
1.01506e-09
1.00227e-09
1.02503e-09
1.00447e-09
1.06496e-09
1.15023e-09
1.66542e-09
3.81747e-09
3.50765e-09
8.59615e-10
8.67364e-10
8.55911e-10
8.76313e-10
8.57753e-10
9.13082e-10
9.86303e-10
1.4724e-09
3.55542e-09
4.32316e-09
7.46146e-10
7.53036e-10
7.42912e-10
7.60943e-10
7.44502e-10
7.94565e-10
8.58639e-10
1.31586e-09
3.34335e-09
5.38879e-09
6.5769e-10
6.63733e-10
6.54892e-10
6.70628e-10
6.56307e-10
7.01193e-10
7.58376e-10
1.18746e-09
3.17764e-09
6.72627e-09
5.88093e-10
5.93313e-10
5.85698e-10
5.99249e-10
5.8701e-10
6.26889e-10
6.78861e-10
1.08089e-09
3.05973e-09
8.32587e-09
5.3282e-10
5.37239e-10
5.30805e-10
5.4227e-10
5.3209e-10
5.6713e-10
6.1509e-10
9.91219e-10
2.97696e-09
1.01348e-08
4.88504e-10
4.92123e-10
4.86855e-10
4.96292e-10
4.88178e-10
5.18505e-10
5.63238e-10
9.14613e-10
2.90304e-09
1.20501e-08
4.56901e-10
4.59904e-10
4.55517e-10
4.63404e-10
4.56947e-10
4.83418e-10
5.26149e-10
8.48216e-10
2.82761e-09
1.39246e-08
4.29951e-10
4.32414e-10
4.28821e-10
4.354e-10
4.30339e-10
4.53751e-10
4.93914e-10
7.96615e-10
2.74452e-09
1.55872e-08
)
;

boundaryField
{
    fuel
    {
        type            fixedValue;
        value           uniform 0;
    }
    wall
    {
        type            zeroGradient;
    }
    outlet
    {
        type            zeroGradient;
    }
    frontAndBack
    {
        type            empty;
    }
    procBoundary3to0
    {
        type            processor;
        value           nonuniform List<scalar> 10(4.11026e-10 4.12878e-10 4.10124e-10 4.15263e-10 4.1171e-10 4.31717e-10 4.70486e-10 7.49406e-10 2.6597e-09 1.68721e-08);
    }
    procBoundary3to2
    {
        type            processor;
        value           nonuniform List<scalar> 
25
(
6.2229e-08
5.08817e-08
3.23621e-08
2.12294e-08
1.46971e-08
1.0608e-08
7.8846e-09
5.98877e-09
4.63964e-09
3.62586e-09
2.82428e-09
2.82428e-09
2.23005e-09
1.78627e-09
1.45296e-09
1.20104e-09
1.00931e-09
8.62287e-10
7.48599e-10
6.59899e-10
5.90041e-10
5.34493e-10
4.89888e-10
4.58048e-10
4.30881e-10
)
;
    }
}


// ************************************************************************* //
