/*--------------------------------*- C++ -*----------------------------------*\
| =========                 |                                                 |
| \\      /  F ield         | OpenFOAM: The Open Source CFD Toolbox           |
|  \\    /   O peration     | Version:  dev                                   |
|   \\  /    A nd           | Web:      www.OpenFOAM.org                      |
|    \\/     M anipulation  |                                                 |
\*---------------------------------------------------------------------------*/
FoamFile
{
    version     2.0;
    format      ascii;
    class       volScalarField;
    location    "0.05";
    object      A2C2HB*;
}
// * * * * * * * * * * * * * * * * * * * * * * * * * * * * * * * * * * * * * //

dimensions      [0 0 0 0 0 0 0];

internalField   nonuniform List<scalar> 
25
(
3.08491e-15
2.90354e-15
2.69203e-15
2.47574e-15
2.24625e-15
1.99932e-15
1.75756e-15
1.52136e-15
1.29448e-15
1.07982e-15
8.80757e-16
7.00485e-16
5.40073e-16
3.96188e-16
2.79672e-16
1.91232e-16
1.24122e-16
7.63621e-17
4.45794e-17
2.50604e-17
1.41433e-17
8.54518e-18
5.6535e-18
3.71344e-18
1.63615e-18
)
;

boundaryField
{
    wall
    {
        type            zeroGradient;
    }
    fuel
    {
        type            fixedValue;
        value           nonuniform 0();
    }
    outlet
    {
        type            inletOutlet;
        inletValue      uniform 0;
        value           uniform 1.63615e-18;
    }
    procBoundary3to2
    {
        type            processor;
        value           uniform 3.24244e-15;
    }
}


// ************************************************************************* //
