/*--------------------------------*- C++ -*----------------------------------*\
| =========                 |                                                 |
| \\      /  F ield         | OpenFOAM: The Open Source CFD Toolbox           |
|  \\    /   O peration     | Version:  dev                                   |
|   \\  /    A nd           | Web:      www.OpenFOAM.org                      |
|    \\/     M anipulation  |                                                 |
\*---------------------------------------------------------------------------*/
FoamFile
{
    version     2.0;
    format      ascii;
    class       volScalarField;
    location    "0.05";
    object      A2R5;
}
// * * * * * * * * * * * * * * * * * * * * * * * * * * * * * * * * * * * * * //

dimensions      [0 0 0 0 0 0 0];

internalField   nonuniform List<scalar> 
250
(
3.0146e-07
3.01468e-07
3.01441e-07
3.01457e-07
3.01495e-07
3.01452e-07
3.01882e-07
3.03501e-07
3.13333e-07
3.8624e-07
1.75123e-08
3.26204e-07
3.26209e-07
3.2619e-07
3.26189e-07
3.2627e-07
3.26194e-07
3.26845e-07
3.29222e-07
3.4366e-07
4.61949e-07
3.81611e-08
3.09761e-07
3.09772e-07
3.09763e-07
3.09747e-07
3.09873e-07
3.09766e-07
3.10617e-07
3.13564e-07
3.30523e-07
4.52491e-07
5.04467e-08
2.89417e-07
2.89431e-07
2.89444e-07
2.89397e-07
2.89592e-07
2.89434e-07
2.90516e-07
2.94e-07
3.1287e-07
4.21807e-07
5.66212e-08
2.70071e-07
2.70081e-07
2.7013e-07
2.70034e-07
2.70325e-07
2.70092e-07
2.71455e-07
2.75488e-07
2.96122e-07
3.88394e-07
6.00119e-08
2.51841e-07
2.51842e-07
2.5194e-07
2.51775e-07
2.52194e-07
2.51855e-07
2.53567e-07
2.58191e-07
2.80309e-07
3.58293e-07
6.29787e-08
2.34397e-07
2.34386e-07
2.34541e-07
2.34294e-07
2.34859e-07
2.34394e-07
2.36506e-07
2.41829e-07
2.65536e-07
3.33308e-07
6.6929e-08
2.17615e-07
2.1759e-07
2.17802e-07
2.17469e-07
2.18175e-07
2.17583e-07
2.20036e-07
2.26307e-07
2.51409e-07
3.13105e-07
7.27632e-08
2.01679e-07
2.01635e-07
2.01902e-07
2.01484e-07
2.02312e-07
2.01606e-07
2.04171e-07
2.0904e-07
2.36074e-07
2.96924e-07
8.11591e-08
1.86048e-07
1.85993e-07
1.86333e-07
1.85789e-07
1.86832e-07
1.85937e-07
1.89065e-07
1.94773e-07
2.20841e-07
2.83226e-07
9.2387e-08
1.7007e-07
1.70486e-07
1.69838e-07
1.71054e-07
1.69983e-07
1.735e-07
1.79486e-07
2.08068e-07
2.69755e-07
1.05968e-07
1.55232e-07
1.55715e-07
1.5498e-07
1.56346e-07
1.5512e-07
1.58988e-07
1.64938e-07
1.9472e-07
2.59352e-07
1.21284e-07
1.4165e-07
1.42185e-07
1.41385e-07
1.42863e-07
1.4152e-07
1.45649e-07
1.51419e-07
1.82007e-07
2.50143e-07
1.37815e-07
1.29397e-07
1.29965e-07
1.29125e-07
1.30668e-07
1.29254e-07
1.33545e-07
1.39064e-07
1.70154e-07
2.41647e-07
1.55081e-07
1.18466e-07
1.19051e-07
1.18194e-07
1.19761e-07
1.1832e-07
1.22679e-07
1.27925e-07
1.59223e-07
2.33615e-07
1.72797e-07
1.08801e-07
1.09388e-07
1.08533e-07
1.10088e-07
1.08656e-07
1.13003e-07
1.17987e-07
1.49219e-07
2.25931e-07
1.90915e-07
1.00309e-07
1.00886e-07
1.0005e-07
1.01562e-07
1.0017e-07
1.04437e-07
1.09185e-07
1.40109e-07
2.18704e-07
2.09527e-07
9.2876e-08
9.34331e-08
9.26286e-08
9.40761e-08
9.2745e-08
9.68778e-08
1.01424e-07
1.31829e-07
2.11032e-07
2.2863e-07
8.63835e-08
8.69124e-08
8.61507e-08
8.75139e-08
8.62636e-08
9.0216e-08
9.45913e-08
1.24305e-07
2.03187e-07
2.47962e-07
8.07126e-08
8.12057e-08
8.04972e-08
8.176e-08
8.06092e-08
8.43407e-08
8.85718e-08
1.17449e-07
1.9593e-07
2.66912e-07
7.57505e-08
7.62001e-08
7.55558e-08
7.67025e-08
7.56722e-08
7.91441e-08
8.32485e-08
1.11168e-07
1.89528e-07
2.8455e-07
7.1392e-08
7.17902e-08
7.12214e-08
7.22363e-08
7.13485e-08
7.45238e-08
7.85054e-08
1.05365e-07
1.82886e-07
2.99795e-07
6.80075e-08
6.83649e-08
6.78549e-08
6.87653e-08
6.79994e-08
7.09103e-08
7.48184e-08
9.99608e-08
1.75702e-07
3.11614e-07
6.48197e-08
6.51459e-08
6.46847e-08
6.55177e-08
6.48449e-08
6.75708e-08
7.12971e-08
9.54803e-08
1.68002e-07
3.192e-07
)
;

boundaryField
{
    fuel
    {
        type            fixedValue;
        value           uniform 0;
    }
    wall
    {
        type            zeroGradient;
    }
    outlet
    {
        type            zeroGradient;
    }
    frontAndBack
    {
        type            empty;
    }
    procBoundary3to0
    {
        type            processor;
        value           nonuniform List<scalar> 10(6.22999e-08 6.25842e-08 6.21814e-08 6.29127e-08 6.2354e-08 6.48262e-08 6.84513e-08 9.1089e-08 1.60769e-07 3.22008e-07);
    }
    procBoundary3to2
    {
        type            processor;
        value           nonuniform List<scalar> 
25
(
3.01459e-07
3.26201e-07
3.09767e-07
2.89434e-07
2.70095e-07
2.51868e-07
2.34423e-07
2.17636e-07
2.01694e-07
1.8606e-07
1.7016e-07
1.7016e-07
1.55361e-07
1.4181e-07
1.29579e-07
1.18663e-07
1.09006e-07
1.00516e-07
9.3082e-08
8.65835e-08
8.09025e-08
7.59258e-08
7.15482e-08
6.81468e-08
6.49445e-08
)
;
    }
}


// ************************************************************************* //
