/*--------------------------------*- C++ -*----------------------------------*\
| =========                 |                                                 |
| \\      /  F ield         | OpenFOAM: The Open Source CFD Toolbox           |
|  \\    /   O peration     | Version:  dev                                   |
|   \\  /    A nd           | Web:      www.OpenFOAM.org                      |
|    \\/     M anipulation  |                                                 |
\*---------------------------------------------------------------------------*/
FoamFile
{
    version     2.0;
    format      ascii;
    class       volScalarField;
    location    "0.05";
    object      A2R5-;
}
// * * * * * * * * * * * * * * * * * * * * * * * * * * * * * * * * * * * * * //

dimensions      [0 0 0 0 0 0 0];

internalField   nonuniform List<scalar> 
25
(
5.05609e-12
4.54481e-12
4.03052e-12
3.56494e-12
3.11881e-12
2.68053e-12
2.28474e-12
1.9245e-12
1.59925e-12
1.30803e-12
1.05099e-12
8.28358e-13
6.37979e-13
4.71931e-13
3.4083e-13
2.43118e-13
1.6925e-13
1.16057e-13
7.93118e-14
5.48299e-14
3.87949e-14
2.80028e-14
2.00349e-14
1.32276e-14
5.78579e-15
)
;

boundaryField
{
    wall
    {
        type            zeroGradient;
    }
    fuel
    {
        type            fixedValue;
        value           nonuniform 0();
    }
    outlet
    {
        type            inletOutlet;
        inletValue      uniform 0;
        value           uniform 5.78579e-15;
    }
    procBoundary3to2
    {
        type            processor;
        value           uniform 5.58388e-12;
    }
}


// ************************************************************************* //
