/*--------------------------------*- C++ -*----------------------------------*\
| =========                 |                                                 |
| \\      /  F ield         | OpenFOAM: The Open Source CFD Toolbox           |
|  \\    /   O peration     | Version:  dev                                   |
|   \\  /    A nd           | Web:      www.OpenFOAM.org                      |
|    \\/     M anipulation  |                                                 |
\*---------------------------------------------------------------------------*/
FoamFile
{
    version     2.0;
    format      ascii;
    class       volScalarField;
    location    "0.05";
    object      A2R5-;
}
// * * * * * * * * * * * * * * * * * * * * * * * * * * * * * * * * * * * * * //

dimensions      [0 0 0 0 0 0 0];

internalField   nonuniform List<scalar> 
250
(
2.14427e-08
2.14388e-08
2.14472e-08
2.14413e-08
2.14381e-08
2.14511e-08
2.14587e-08
2.16544e-08
2.30727e-08
3.211e-08
6.87081e-10
2.49805e-08
2.49761e-08
2.49791e-08
2.49793e-08
2.49758e-08
2.49886e-08
2.50083e-08
2.52965e-08
2.74943e-08
4.12896e-08
1.40897e-09
2.40959e-08
2.40921e-08
2.40951e-08
2.40944e-08
2.40915e-08
2.41038e-08
2.41302e-08
2.4468e-08
2.70344e-08
4.20445e-08
1.56624e-09
2.21885e-08
2.21854e-08
2.21891e-08
2.21866e-08
2.21853e-08
2.21964e-08
2.22265e-08
2.25897e-08
2.53134e-08
3.97853e-08
1.31068e-09
2.01783e-08
2.01757e-08
2.01802e-08
2.01759e-08
2.01766e-08
2.01862e-08
2.0218e-08
2.05902e-08
2.33485e-08
3.6557e-08
9.13688e-10
1.82375e-08
1.82351e-08
1.82407e-08
1.82341e-08
1.82381e-08
1.82462e-08
1.82835e-08
1.87031e-08
2.15213e-08
3.32411e-08
5.74782e-10
1.66965e-08
1.6694e-08
1.67003e-08
1.66922e-08
1.66981e-08
1.67053e-08
1.67424e-08
1.71652e-08
1.99556e-08
3.01828e-08
3.59235e-10
1.53264e-08
1.53235e-08
1.53312e-08
1.53205e-08
1.533e-08
1.5338e-08
1.5387e-08
1.58843e-08
1.85862e-08
2.74596e-08
2.49317e-10
1.42311e-08
1.42279e-08
1.42364e-08
1.42243e-08
1.42353e-08
1.42435e-08
1.42932e-08
1.4744e-08
1.72957e-08
2.50533e-08
2.19797e-10
1.31399e-08
1.31363e-08
1.31455e-08
1.31323e-08
1.31445e-08
1.31534e-08
1.32041e-08
1.366e-08
1.62895e-08
2.29269e-08
2.64253e-10
1.22794e-08
1.22893e-08
1.22748e-08
1.22881e-08
1.22979e-08
1.23485e-08
1.28057e-08
1.52738e-08
2.10428e-08
3.918e-10
1.14176e-08
1.14286e-08
1.14123e-08
1.14272e-08
1.14391e-08
1.14951e-08
1.2004e-08
1.42925e-08
1.93726e-08
6.19141e-10
1.06006e-08
1.06122e-08
1.05951e-08
1.06107e-08
1.06241e-08
1.06811e-08
1.11924e-08
1.34724e-08
1.78945e-08
9.14147e-10
9.83494e-09
9.84697e-09
9.82925e-09
9.84538e-09
9.86046e-09
9.91788e-09
1.04289e-08
1.26217e-08
1.65873e-08
1.2436e-09
9.11325e-09
9.12559e-09
9.10747e-09
9.12397e-09
9.14075e-09
9.19811e-09
9.70551e-09
1.17661e-08
1.54327e-08
1.59088e-09
8.4304e-09
8.44292e-09
8.42461e-09
8.44135e-09
8.45977e-09
8.5166e-09
9.01724e-09
1.09364e-08
1.42877e-08
1.94224e-09
7.78262e-09
7.7952e-09
7.7769e-09
7.79376e-09
7.8137e-09
7.86958e-09
8.36055e-09
1.01322e-08
1.31837e-08
2.27787e-09
7.16696e-09
7.17948e-09
7.16139e-09
7.17825e-09
7.19952e-09
7.25407e-09
7.73289e-09
9.35443e-09
1.21464e-08
2.57464e-09
6.58099e-09
6.59331e-09
6.57563e-09
6.59237e-09
6.61472e-09
6.66762e-09
7.13232e-09
8.62322e-09
1.13038e-08
2.81701e-09
6.02256e-09
6.03456e-09
6.0175e-09
6.03397e-09
6.0571e-09
6.10809e-09
6.55711e-09
7.91359e-09
1.05135e-08
3.00153e-09
5.48966e-09
5.50119e-09
5.48497e-09
5.50104e-09
5.52456e-09
5.57342e-09
6.00586e-09
7.22572e-09
9.65105e-09
3.13815e-09
4.97979e-09
4.99066e-09
4.97556e-09
4.99102e-09
5.01452e-09
5.06108e-09
5.47732e-09
6.56796e-09
8.86963e-09
3.24684e-09
4.54647e-09
4.5569e-09
4.54256e-09
4.55759e-09
4.58092e-09
4.62439e-09
4.96978e-09
5.94101e-09
8.12614e-09
3.33804e-09
4.11446e-09
4.12563e-09
4.11108e-09
4.12678e-09
4.15071e-09
4.1909e-09
4.53841e-09
5.34522e-09
7.40779e-09
3.41702e-09
)
;

boundaryField
{
    fuel
    {
        type            fixedValue;
        value           uniform 0;
    }
    wall
    {
        type            zeroGradient;
    }
    outlet
    {
        type            zeroGradient;
    }
    frontAndBack
    {
        type            empty;
    }
    procBoundary3to0
    {
        type            processor;
        value           nonuniform List<scalar> 10(3.72798e-09 3.73878e-09 3.725e-09 3.74023e-09 3.76358e-09 3.80044e-09 4.09204e-09 4.77707e-09 6.70695e-09 3.47922e-09);
    }
    procBoundary3to2
    {
        type            processor;
        value           nonuniform List<scalar> 
25
(
2.1443e-08
2.49818e-08
2.40976e-08
2.21909e-08
2.01814e-08
1.82415e-08
1.6701e-08
1.53317e-08
1.42369e-08
1.31461e-08
1.22827e-08
1.22827e-08
1.14213e-08
1.06044e-08
9.83865e-09
9.11678e-09
8.43368e-09
7.78559e-09
7.16957e-09
6.58318e-09
6.02431e-09
5.49095e-09
4.98059e-09
4.54691e-09
4.11446e-09
)
;
    }
}


// ************************************************************************* //
