/*--------------------------------*- C++ -*----------------------------------*\
| =========                 |                                                 |
| \\      /  F ield         | OpenFOAM: The Open Source CFD Toolbox           |
|  \\    /   O peration     | Version:  dev                                   |
|   \\  /    A nd           | Web:      www.OpenFOAM.org                      |
|    \\/     M anipulation  |                                                 |
\*---------------------------------------------------------------------------*/
FoamFile
{
    version     2.0;
    format      ascii;
    class       volScalarField;
    location    "0.05";
    object      AR;
}
// * * * * * * * * * * * * * * * * * * * * * * * * * * * * * * * * * * * * * //

dimensions      [0 0 0 0 0 0 0];

internalField   nonuniform List<scalar> 
1989
(
0.682031
0.682027
0.682025
0.682022
0.682021
0.682019
0.682018
0.682017
0.682016
0.682015
0.682015
0.682014
0.682013
0.682013
0.682013
0.682013
0.682014
0.682014
0.682015
0.682016
0.682016
0.682018
0.682018
0.68202
0.682022
0.682025
0.682027
0.68203
0.682035
0.68204
0.68205
0.68206
0.68208
0.6821
0.682134
0.682175
0.682228
0.682311
0.682365
0.681908
0.681852
0.681767
0.681711
0.68167
0.681635
0.681614
0.681594
0.681583
0.681574
0.681568
0.681563
0.68156
0.681557
0.681554
0.681553
0.681551
0.68155
0.681549
0.681548
0.681547
0.681547
0.681546
0.681545
0.681545
0.681545
0.681545
0.681546
0.681546
0.681547
0.681548
0.681549
0.68155
0.681551
0.681553
0.681554
0.681557
0.681559
0.681563
0.681567
0.681573
0.681582
0.681593
0.681613
0.681634
0.681669
0.68171
0.681766
0.681851
0.681907
0.681434
0.681376
0.681289
0.681231
0.681189
0.681153
0.681132
0.681112
0.681101
0.681091
0.681085
0.681081
0.681077
0.681075
0.681072
0.68107
0.681068
0.681067
0.681066
0.681065
0.681064
0.681064
0.681063
0.681062
0.681062
0.681062
0.681062
0.681063
0.681063
0.681064
0.681065
0.681065
0.681067
0.681068
0.68107
0.681071
0.681074
0.681076
0.68108
0.681085
0.68109
0.6811
0.681111
0.681131
0.681152
0.681188
0.68123
0.681288
0.681375
0.681434
0.68094
0.680878
0.680789
0.680736
0.680693
0.680656
0.680635
0.680614
0.680603
0.680593
0.680587
0.680583
0.680579
0.680576
0.680573
0.680572
0.68057
0.680569
0.680568
0.680567
0.680566
0.680565
0.680564
0.680564
0.680563
0.680563
0.680564
0.680564
0.680565
0.680565
0.680567
0.680567
0.680569
0.680569
0.680572
0.680573
0.680576
0.680578
0.680582
0.680587
0.680592
0.680603
0.680613
0.680634
0.680655
0.680692
0.680735
0.680788
0.680877
0.680939
0.680435
0.68037
0.68028
0.680225
0.680182
0.680142
0.680121
0.680099
0.680088
0.680077
0.680071
0.680066
0.680062
0.68006
0.680056
0.680055
0.680053
0.680052
0.68005
0.68005
0.680048
0.680048
0.680047
0.680046
0.680046
0.680046
0.680046
0.680047
0.680048
0.680048
0.680049
0.68005
0.680051
0.680052
0.680054
0.680056
0.680059
0.680061
0.680066
0.68007
0.680076
0.680087
0.680098
0.68012
0.680141
0.680181
0.680224
0.680279
0.680369
0.680434
0.679907
0.679837
0.679745
0.679688
0.679643
0.679602
0.679581
0.679559
0.679548
0.679537
0.67953
0.679526
0.679521
0.679519
0.679516
0.679514
0.679512
0.679511
0.679509
0.679509
0.679507
0.679507
0.679506
0.679505
0.679505
0.679505
0.679505
0.679506
0.679507
0.679507
0.679508
0.679509
0.679511
0.679511
0.679514
0.679515
0.679518
0.679521
0.679525
0.67953
0.679536
0.679547
0.679558
0.67958
0.679601
0.679642
0.679687
0.679744
0.679836
0.679906
0.67937
0.679298
0.679204
0.679146
0.679099
0.679058
0.679037
0.679014
0.679003
0.678992
0.678985
0.67898
0.678976
0.678974
0.67897
0.678969
0.678966
0.678966
0.678964
0.678963
0.678962
0.678961
0.67896
0.67896
0.678959
0.678959
0.67896
0.67896
0.678961
0.678961
0.678963
0.678963
0.678965
0.678966
0.678968
0.67897
0.678973
0.678975
0.67898
0.678984
0.678991
0.679002
0.679013
0.679036
0.679057
0.679098
0.679145
0.679203
0.679296
0.679369
0.67881
0.678733
0.678638
0.678579
0.67853
0.678488
0.678467
0.678443
0.678432
0.678421
0.678414
0.67841
0.678405
0.678403
0.678399
0.678398
0.678395
0.678394
0.678393
0.678392
0.678391
0.67839
0.678389
0.678388
0.678388
0.678388
0.678388
0.678389
0.67839
0.67839
0.678392
0.678392
0.678394
0.678395
0.678397
0.678399
0.678402
0.678404
0.678409
0.678414
0.67842
0.678431
0.678442
0.678466
0.678487
0.678529
0.678578
0.678637
0.678732
0.678808
0.678227
0.678148
0.678053
0.677994
0.677955
0.677911
0.67789
0.677867
0.677856
0.677845
0.677838
0.677833
0.677828
0.677826
0.677822
0.677821
0.677818
0.677817
0.677816
0.677815
0.677813
0.677813
0.677812
0.677811
0.677811
0.67781
0.677811
0.677811
0.677812
0.677813
0.677814
0.677815
0.677817
0.677818
0.67782
0.677822
0.677825
0.677827
0.677832
0.677837
0.677843
0.677855
0.677866
0.677889
0.67791
0.677954
0.677993
0.678052
0.678147
0.678226
0.677641
0.67756
0.677464
0.677404
0.677363
0.677319
0.677299
0.677274
0.677263
0.677252
0.677245
0.67724
0.677236
0.677233
0.677229
0.677228
0.677225
0.677224
0.677222
0.677221
0.67722
0.677219
0.677218
0.677218
0.677217
0.677217
0.677217
0.677218
0.677219
0.67722
0.677221
0.677222
0.677224
0.677224
0.677227
0.677229
0.677232
0.677235
0.677239
0.677244
0.677251
0.677262
0.677273
0.677297
0.677318
0.677362
0.677402
0.677462
0.677559
0.677639
0.677037
0.676956
0.676858
0.676798
0.676756
0.676711
0.676691
0.676667
0.676656
0.676644
0.676637
0.676632
0.676627
0.676625
0.676621
0.67662
0.676617
0.676616
0.676614
0.676613
0.676612
0.676611
0.67661
0.676609
0.676609
0.676609
0.676609
0.67661
0.676611
0.676611
0.676613
0.676613
0.676615
0.676616
0.676619
0.676621
0.676624
0.676627
0.676631
0.676636
0.676643
0.676654
0.676665
0.67669
0.67671
0.676755
0.676796
0.676857
0.676954
0.677036
0.676419
0.676335
0.676237
0.676174
0.676131
0.676084
0.676064
0.676039
0.676028
0.676016
0.676009
0.676004
0.675999
0.675996
0.675992
0.675991
0.675988
0.675987
0.675985
0.675984
0.675983
0.675982
0.675981
0.67598
0.67598
0.675979
0.67598
0.675981
0.675982
0.675982
0.675984
0.675985
0.675986
0.675987
0.67599
0.675992
0.675995
0.675998
0.676003
0.676008
0.676015
0.676026
0.676037
0.676063
0.676083
0.67613
0.676173
0.676236
0.676334
0.676417
0.675773
0.675688
0.67559
0.675526
0.675482
0.675435
0.675415
0.675389
0.675378
0.675367
0.67536
0.675354
0.675349
0.675347
0.675343
0.675342
0.675339
0.675338
0.675336
0.675335
0.675333
0.675333
0.675331
0.675331
0.67533
0.67533
0.675331
0.675331
0.675332
0.675333
0.675334
0.675335
0.675337
0.675338
0.675341
0.675342
0.675346
0.675349
0.675353
0.675358
0.675365
0.675377
0.675388
0.675414
0.675434
0.675481
0.675525
0.675589
0.675687
0.675771
0.67511
0.675025
0.674926
0.674861
0.674817
0.67477
0.67475
0.674724
0.674713
0.674702
0.674694
0.674689
0.674684
0.674682
0.674678
0.674676
0.674674
0.674673
0.674671
0.67467
0.674668
0.674667
0.674666
0.674665
0.674665
0.674665
0.674665
0.674666
0.674667
0.674668
0.674669
0.67467
0.674672
0.674673
0.674676
0.674677
0.674681
0.674684
0.674688
0.674693
0.6747
0.674712
0.674723
0.674748
0.674768
0.674816
0.67486
0.674925
0.675023
0.675108
0.674443
0.674357
0.674258
0.674192
0.674148
0.6741
0.674081
0.674055
0.674044
0.674032
0.674025
0.67402
0.674015
0.674013
0.674009
0.674007
0.674005
0.674004
0.674001
0.674001
0.673999
0.673998
0.673997
0.673996
0.673995
0.673995
0.673996
0.673997
0.673998
0.673998
0.674
0.674001
0.674003
0.674004
0.674007
0.674008
0.674012
0.674014
0.674019
0.674024
0.674031
0.674043
0.674053
0.674079
0.674099
0.674147
0.674191
0.674257
0.674356
0.674442
0.673762
0.673675
0.673576
0.673508
0.673465
0.673416
0.673397
0.673371
0.673361
0.673349
0.673342
0.673337
0.673332
0.673329
0.673325
0.673324
0.673321
0.67332
0.673318
0.673317
0.673315
0.673315
0.673313
0.673313
0.673312
0.673312
0.673312
0.673313
0.673314
0.673315
0.673317
0.673317
0.673319
0.67332
0.673323
0.673325
0.673328
0.673331
0.673336
0.673341
0.673348
0.673359
0.67337
0.673396
0.673415
0.673463
0.673507
0.673574
0.673673
0.673761
0.673066
0.672978
0.672879
0.672811
0.672767
0.672719
0.6727
0.672674
0.672664
0.672652
0.672645
0.67264
0.672635
0.672632
0.672628
0.672627
0.672624
0.672623
0.672621
0.67262
0.672618
0.672617
0.672616
0.672615
0.672615
0.672614
0.672615
0.672616
0.672617
0.672618
0.672619
0.67262
0.672622
0.672623
0.672626
0.672627
0.672631
0.672634
0.672638
0.672643
0.67265
0.672662
0.672672
0.672699
0.672717
0.672766
0.672809
0.672877
0.672976
0.673065
0.672357
0.672267
0.672168
0.672099
0.672056
0.672007
0.67199
0.671963
0.671953
0.671941
0.671934
0.671929
0.671924
0.671922
0.671918
0.671916
0.671914
0.671913
0.67191
0.671909
0.671908
0.671907
0.671905
0.671905
0.671904
0.671904
0.671904
0.671905
0.671906
0.671907
0.671909
0.67191
0.671912
0.671913
0.671916
0.671917
0.671921
0.671923
0.671928
0.671933
0.67194
0.671952
0.671961
0.671988
0.672006
0.672055
0.672098
0.672166
0.672265
0.672355
0.67163
0.671537
0.671438
0.671368
0.671325
0.671276
0.671258
0.671231
0.671222
0.67121
0.671203
0.671198
0.671193
0.67119
0.671186
0.671185
0.671182
0.671181
0.671179
0.671178
0.671176
0.671175
0.671174
0.671173
0.671172
0.671172
0.671173
0.671173
0.671175
0.671175
0.671177
0.671178
0.67118
0.671181
0.671184
0.671185
0.671189
0.671192
0.671196
0.671201
0.671208
0.67122
0.67123
0.671257
0.671274
0.671323
0.671367
0.671436
0.671536
0.671628
0.670894
0.6708
0.670702
0.670632
0.670589
0.67054
0.670523
0.670496
0.670486
0.670474
0.670468
0.670462
0.670457
0.670455
0.670451
0.670449
0.670447
0.670445
0.670443
0.670442
0.67044
0.67044
0.670438
0.670437
0.670436
0.670436
0.670437
0.670438
0.670439
0.67044
0.670442
0.670442
0.670445
0.670446
0.670448
0.67045
0.670454
0.670456
0.670461
0.670466
0.670473
0.670485
0.670494
0.670521
0.670538
0.670587
0.67063
0.6707
0.670798
0.670892
0.670146
0.670051
0.669954
0.669884
0.669841
0.669793
0.669776
0.669749
0.66974
0.669728
0.669721
0.669716
0.669711
0.669708
0.669705
0.669703
0.6697
0.669699
0.669697
0.669696
0.669694
0.669693
0.669692
0.669691
0.66969
0.66969
0.66969
0.669691
0.669692
0.669693
0.669695
0.669696
0.669698
0.669699
0.669702
0.669704
0.669707
0.66971
0.669715
0.66972
0.669726
0.669738
0.669747
0.669774
0.669791
0.66984
0.669882
0.669952
0.670049
0.670144
0.669388
0.669291
0.669195
0.669124
0.669081
0.669032
0.669015
0.668988
0.668979
0.668967
0.66896
0.668955
0.66895
0.668947
0.668944
0.668942
0.668939
0.668938
0.668935
0.668934
0.668933
0.668932
0.66893
0.668929
0.668928
0.668928
0.668929
0.66893
0.668931
0.668932
0.668934
0.668935
0.668937
0.668938
0.668941
0.668942
0.668946
0.668949
0.668954
0.668959
0.668965
0.668977
0.668986
0.669014
0.66903
0.669079
0.669122
0.669193
0.669289
0.669386
0.66862
0.668521
0.668427
0.668356
0.668314
0.668265
0.66825
0.668222
0.668214
0.668202
0.668195
0.66819
0.668185
0.668182
0.668178
0.668176
0.668173
0.668172
0.66817
0.668169
0.668167
0.668166
0.668164
0.668164
0.668163
0.668163
0.668163
0.668164
0.668165
0.668166
0.668168
0.668169
0.668171
0.668172
0.668175
0.668177
0.668181
0.668183
0.668188
0.668193
0.6682
0.668212
0.66822
0.668248
0.668263
0.668312
0.668355
0.668425
0.668519
0.668618
0.667842
0.667742
0.667647
0.667576
0.66754
0.667491
0.667476
0.667449
0.667441
0.667428
0.667422
0.667417
0.667412
0.667409
0.667405
0.667404
0.667401
0.667399
0.667397
0.667396
0.667394
0.667393
0.667391
0.66739
0.667389
0.667389
0.66739
0.667391
0.667392
0.667393
0.667395
0.667396
0.667398
0.667399
0.667402
0.667404
0.667408
0.66741
0.667415
0.66742
0.667427
0.667439
0.667447
0.667474
0.667489
0.667538
0.667574
0.667645
0.66774
0.66784
0.667058
0.666958
0.666865
0.666795
0.666759
0.666711
0.666697
0.666669
0.666661
0.666649
0.666643
0.666638
0.666633
0.66663
0.666626
0.666625
0.666621
0.66662
0.666618
0.666617
0.666615
0.666614
0.666612
0.666611
0.66661
0.66661
0.666611
0.666612
0.666613
0.666614
0.666616
0.666617
0.666619
0.66662
0.666623
0.666625
0.666629
0.666631
0.666636
0.666641
0.666647
0.66666
0.666667
0.666695
0.666709
0.666757
0.666793
0.666863
0.666956
0.667056
0.666269
0.666168
0.666078
0.666008
0.665972
0.665924
0.66591
0.665882
0.665875
0.665862
0.665856
0.665851
0.665846
0.665843
0.665839
0.665837
0.665834
0.665833
0.665831
0.665829
0.665827
0.665826
0.665825
0.665824
0.665823
0.665823
0.665823
0.665824
0.665826
0.665827
0.665829
0.66583
0.665832
0.665833
0.665836
0.665838
0.665842
0.665844
0.665849
0.665854
0.66586
0.665873
0.66588
0.665908
0.665922
0.66597
0.666006
0.666076
0.666166
0.666267
0.665467
0.665366
0.665277
0.665208
0.665173
0.665126
0.665112
0.665085
0.665077
0.665065
0.665059
0.665054
0.665049
0.665046
0.665042
0.665041
0.665038
0.665036
0.665034
0.665033
0.665031
0.665029
0.665028
0.665027
0.665026
0.665026
0.665027
0.665027
0.665029
0.66503
0.665032
0.665033
0.665035
0.665036
0.665039
0.665041
0.665045
0.665047
0.665052
0.665057
0.665063
0.665075
0.665083
0.66511
0.665124
0.665171
0.665206
0.665275
0.665364
0.665465
0.664661
0.664561
0.664474
0.664407
0.664373
0.664327
0.664314
0.664287
0.66428
0.664268
0.664262
0.664257
0.664252
0.664249
0.664245
0.664243
0.66424
0.664239
0.664237
0.664235
0.664233
0.664232
0.664231
0.664229
0.664228
0.664228
0.664229
0.66423
0.664232
0.664233
0.664234
0.664235
0.664238
0.664239
0.664242
0.664244
0.664247
0.66425
0.664255
0.66426
0.664266
0.664278
0.664285
0.664312
0.664325
0.664371
0.664405
0.664472
0.664559
0.664658
0.663867
0.66377
0.663686
0.66362
0.663586
0.663542
0.663529
0.663502
0.663495
0.663484
0.663478
0.663472
0.663468
0.663465
0.663461
0.663459
0.663456
0.663455
0.663453
0.663451
0.663449
0.663448
0.663446
0.663445
0.663444
0.663444
0.663445
0.663446
0.663447
0.663448
0.66345
0.663451
0.663454
0.663455
0.663458
0.66346
0.663463
0.663466
0.66347
0.663476
0.663482
0.663493
0.6635
0.663527
0.663539
0.663584
0.663617
0.663683
0.663767
0.663864
0.663078
0.662984
0.662902
0.662838
0.662805
0.662762
0.662749
0.662723
0.662717
0.662705
0.662699
0.662694
0.662689
0.662686
0.662683
0.662681
0.662678
0.662677
0.662674
0.662673
0.662671
0.66267
0.662668
0.662667
0.662666
0.662666
0.662667
0.662667
0.662669
0.66267
0.662672
0.662673
0.662675
0.662677
0.662679
0.662681
0.662685
0.662688
0.662692
0.662697
0.662703
0.662714
0.662721
0.662747
0.662759
0.662803
0.662835
0.6629
0.662981
0.663076
0.662299
0.662206
0.662128
0.662064
0.662033
0.661991
0.661979
0.661953
0.661947
0.661936
0.66193
0.661925
0.66192
0.661917
0.661914
0.661912
0.661909
0.661907
0.661905
0.661904
0.661902
0.6619
0.661899
0.661898
0.661897
0.661896
0.661897
0.661898
0.6619
0.661901
0.661903
0.661904
0.661906
0.661907
0.66191
0.661912
0.661916
0.661918
0.661923
0.661928
0.661933
0.661945
0.661951
0.661976
0.661988
0.66203
0.662062
0.662125
0.662204
0.662296
0.661531
0.661439
0.661361
0.6613
0.661269
0.661228
0.661217
0.661192
0.661186
0.661175
0.661169
0.661164
0.661159
0.661157
0.661153
0.661151
0.661148
0.661147
0.661144
0.661143
0.661141
0.66114
0.661138
0.661137
0.661136
0.661136
0.661136
0.661137
0.661139
0.66114
0.661142
0.661143
0.661145
0.661147
0.661149
0.661151
0.661155
0.661158
0.661162
0.661167
0.661172
0.661183
0.66119
0.661214
0.661226
0.661266
0.661297
0.661358
0.661436
0.661528
0.660774
0.660685
0.660618
0.660558
0.660528
0.660489
0.660478
0.660454
0.660448
0.660437
0.660432
0.660426
0.660422
0.660419
0.660416
0.660414
0.660411
0.660409
0.660407
0.660406
0.660404
0.660402
0.660401
0.6604
0.660398
0.660398
0.660399
0.6604
0.660402
0.660403
0.660405
0.660406
0.660408
0.660409
0.660412
0.660414
0.660417
0.66042
0.660424
0.660429
0.660435
0.660445
0.660451
0.660475
0.660487
0.660525
0.660555
0.660615
0.660682
0.660771
0.660049
0.659963
0.659899
0.659841
0.659812
0.659775
0.659764
0.659741
0.659735
0.659724
0.659719
0.659714
0.65971
0.659707
0.659703
0.659701
0.659699
0.659697
0.659695
0.659693
0.659691
0.65969
0.659688
0.659687
0.659686
0.659686
0.659687
0.659688
0.659689
0.65969
0.659692
0.659693
0.659695
0.659697
0.659699
0.659701
0.659705
0.659708
0.659711
0.659716
0.659722
0.659732
0.659738
0.659761
0.659772
0.659809
0.659838
0.659896
0.65996
0.660046
0.659356
0.659273
0.659212
0.659156
0.659128
0.659093
0.659082
0.65906
0.659054
0.659044
0.659039
0.659034
0.65903
0.659027
0.659023
0.659021
0.659019
0.659017
0.659015
0.659013
0.659011
0.65901
0.659008
0.659007
0.659006
0.659006
0.659006
0.659007
0.659009
0.65901
0.659012
0.659013
0.659015
0.659017
0.659019
0.659021
0.659024
0.659027
0.659031
0.659036
0.659041
0.659051
0.659057
0.659079
0.65909
0.659125
0.659153
0.659209
0.65927
0.659353
0.658705
0.658625
0.658567
0.658514
0.658486
0.658453
0.658442
0.658421
0.658415
0.658405
0.658401
0.658396
0.658392
0.658389
0.658385
0.658383
0.658381
0.658379
0.658377
0.658375
0.658373
0.658372
0.65837
0.658369
0.658368
0.658368
0.658369
0.65837
0.658371
0.658372
0.658374
0.658375
0.658377
0.658379
0.658381
0.658383
0.658386
0.658389
0.658393
0.658398
0.658403
0.658412
0.658418
0.658439
0.65845
0.658483
0.658511
0.658564
0.658622
0.658702
0.658111
0.658033
0.657978
0.657928
0.6579
0.657869
0.657858
0.657838
0.657832
0.657823
0.657818
0.657813
0.657809
0.657806
0.657803
0.657801
0.657798
0.657797
0.657795
0.657793
0.657791
0.65779
0.657788
0.657787
0.657786
0.657785
0.657786
0.657787
0.657789
0.65779
0.657792
0.657793
0.657795
0.657797
0.657799
0.657801
0.657804
0.657807
0.65781
0.657815
0.65782
0.657829
0.657835
0.657855
0.657866
0.657897
0.657924
0.657974
0.65803
0.658107
0.657591
0.657515
0.657463
0.657415
0.657388
0.657359
0.657347
0.657329
0.657323
0.657314
0.657309
0.657304
0.657301
0.657298
0.657295
0.657292
0.65729
0.657288
0.657286
0.657284
0.657283
0.657281
0.657279
0.657278
0.657277
0.657277
0.657278
0.657279
0.65728
0.657281
0.657283
0.657285
0.657286
0.657288
0.65729
0.657292
0.657295
0.657298
0.657302
0.657306
0.657311
0.65732
0.657326
0.657344
0.657356
0.657385
0.657412
0.657459
0.657512
0.657587
0.657175
0.6571
0.657051
0.657005
0.656979
0.656952
0.656939
0.656922
0.656916
0.656907
0.656902
0.656898
0.656894
0.656891
0.656888
0.656886
0.656884
0.656882
0.65688
0.656878
0.656876
0.656875
0.656873
0.656872
0.656871
0.656871
0.656871
0.656872
0.656874
0.656875
0.656877
0.656878
0.65688
0.656882
0.656884
0.656886
0.656889
0.656892
0.656895
0.6569
0.656904
0.656913
0.656919
0.656936
0.656948
0.656975
0.657002
0.657047
0.657096
0.657171
0.656914
0.656836
0.656791
0.656747
0.656721
0.656695
0.656682
0.656666
0.65666
0.656651
0.656647
0.656642
0.656638
0.656635
0.656633
0.65663
0.656628
0.656626
0.656624
0.656622
0.656621
0.656619
0.656617
0.656616
0.656615
0.656615
0.656616
0.656617
0.656618
0.656619
0.656621
0.656622
0.656624
0.656626
0.656628
0.65663
0.656633
0.656636
0.656639
0.656644
0.656648
0.656656
0.656663
0.656679
0.656691
0.656717
0.656743
0.656787
0.656833
0.65691
)
;

boundaryField
{
    fuel
    {
        type            fixedValue;
        value           nonuniform 0();
    }
    wall
    {
        type            zeroGradient;
    }
    outlet
    {
        type            zeroGradient;
    }
    frontAndBack
    {
        type            empty;
    }
    procBoundary3to2
    {
        type            processor;
        value           nonuniform List<scalar> 
51
(
0.682484
0.68248
0.682478
0.682475
0.682474
0.682472
0.682471
0.68247
0.682469
0.682468
0.682468
0.682467
0.682467
0.682466
0.682466
0.682467
0.682467
0.682468
0.682468
0.682469
0.682469
0.682471
0.682471
0.682473
0.682475
0.682477
0.682479
0.682483
0.682487
0.682493
0.682502
0.682512
0.682531
0.682552
0.682585
0.682625
0.682676
0.682757
0.682808
0.682366
0.682313
0.68223
0.682176
0.682135
0.682101
0.682081
0.682061
0.682051
0.682041
0.682035
0.682035
)
;
    }
}


// ************************************************************************* //
