/*--------------------------------*- C++ -*----------------------------------*\
| =========                 |                                                 |
| \\      /  F ield         | OpenFOAM: The Open Source CFD Toolbox           |
|  \\    /   O peration     | Version:  dev                                   |
|   \\  /    A nd           | Web:      www.OpenFOAM.org                      |
|    \\/     M anipulation  |                                                 |
\*---------------------------------------------------------------------------*/
FoamFile
{
    version     2.0;
    format      ascii;
    class       volScalarField;
    location    "0.05";
    object      H;
}
// * * * * * * * * * * * * * * * * * * * * * * * * * * * * * * * * * * * * * //

dimensions      [0 0 0 0 0 0 0];

internalField   nonuniform List<scalar> 
250
(
0.00013598
0.00013598
0.000136023
0.000135979
0.000135973
0.000135993
0.000135948
0.000135842
0.000134433
0.000124527
7.17849e-08
0.000126872
0.000126872
0.000126884
0.000126872
0.00012687
0.000126873
0.000126836
0.000126669
0.000125128
0.000115844
9.75047e-08
9.44116e-05
9.4412e-05
9.44178e-05
9.44119e-05
9.44148e-05
9.44132e-05
9.4372e-05
9.41926e-05
9.25743e-05
8.4936e-05
8.14503e-08
6.80066e-05
6.80065e-05
6.80115e-05
6.80064e-05
6.80115e-05
6.80077e-05
6.79633e-05
6.77699e-05
6.61492e-05
6.04436e-05
6.39878e-08
5.12418e-05
5.1241e-05
5.1246e-05
5.1241e-05
5.12456e-05
5.12406e-05
5.11905e-05
5.09386e-05
4.92468e-05
4.49543e-05
5.36159e-08
4.07069e-05
4.07062e-05
4.07123e-05
4.07045e-05
4.07127e-05
4.07066e-05
4.06709e-05
4.05387e-05
3.91047e-05
3.54205e-05
4.96724e-08
3.49243e-05
3.49234e-05
3.49288e-05
3.49222e-05
3.49285e-05
3.49211e-05
3.4875e-05
3.46574e-05
3.31178e-05
2.93286e-05
5.17824e-08
3.13803e-05
3.13791e-05
3.13852e-05
3.13771e-05
3.13856e-05
3.13797e-05
3.13507e-05
3.12217e-05
2.94467e-05
2.51935e-05
6.89909e-08
2.94258e-05
2.94247e-05
2.94303e-05
2.9423e-05
2.94304e-05
2.94239e-05
2.93871e-05
2.91176e-05
2.70368e-05
2.22163e-05
1.72469e-07
2.81284e-05
2.81275e-05
2.81325e-05
2.81262e-05
2.81326e-05
2.81257e-05
2.80824e-05
2.77695e-05
2.56998e-05
1.99784e-05
5.82603e-07
2.74252e-05
2.74302e-05
2.74242e-05
2.74303e-05
2.74232e-05
2.73746e-05
2.70267e-05
2.47462e-05
1.82533e-05
1.51211e-06
2.69324e-05
2.69376e-05
2.69314e-05
2.69378e-05
2.69311e-05
2.68799e-05
2.6529e-05
2.40784e-05
1.69168e-05
2.92679e-06
2.65807e-05
2.65862e-05
2.658e-05
2.65867e-05
2.65803e-05
2.65248e-05
2.61511e-05
2.36509e-05
1.58954e-05
4.28339e-06
2.63019e-05
2.63079e-05
2.63013e-05
2.63086e-05
2.63028e-05
2.6244e-05
2.58567e-05
2.33008e-05
1.51394e-05
5.27578e-06
2.60495e-05
2.60563e-05
2.6049e-05
2.60573e-05
2.60524e-05
2.5991e-05
2.55991e-05
2.30093e-05
1.46127e-05
5.98298e-06
2.5795e-05
2.58029e-05
2.57947e-05
2.58042e-05
2.58006e-05
2.57374e-05
2.53498e-05
2.27613e-05
1.4245e-05
6.52665e-06
2.55195e-05
2.55286e-05
2.55193e-05
2.55303e-05
2.55284e-05
2.54643e-05
2.50898e-05
2.25361e-05
1.40398e-05
6.94465e-06
2.52086e-05
2.52192e-05
2.52085e-05
2.52214e-05
2.52216e-05
2.51574e-05
2.48051e-05
2.23172e-05
1.39783e-05
7.23354e-06
2.48502e-05
2.48627e-05
2.48504e-05
2.48654e-05
2.48683e-05
2.48047e-05
2.44838e-05
2.2095e-05
1.40199e-05
7.40315e-06
2.4433e-05
2.44475e-05
2.44333e-05
2.44508e-05
2.44569e-05
2.43948e-05
2.41143e-05
2.18484e-05
1.4129e-05
7.49234e-06
2.39447e-05
2.39615e-05
2.39454e-05
2.39656e-05
2.39753e-05
2.39155e-05
2.36851e-05
2.1562e-05
1.43013e-05
7.55658e-06
2.33716e-05
2.33909e-05
2.33727e-05
2.33958e-05
2.34096e-05
2.33528e-05
2.31835e-05
2.12229e-05
1.44805e-05
7.64844e-06
2.27778e-05
2.27997e-05
2.2779e-05
2.28054e-05
2.28233e-05
2.27686e-05
2.25951e-05
2.08154e-05
1.46451e-05
7.80091e-06
2.20565e-05
2.20838e-05
2.20584e-05
2.20903e-05
2.2115e-05
2.20627e-05
2.19874e-05
2.0323e-05
1.4772e-05
8.02778e-06
)
;

boundaryField
{
    fuel
    {
        type            fixedValue;
        value           uniform 0;
    }
    wall
    {
        type            zeroGradient;
    }
    outlet
    {
        type            zeroGradient;
    }
    frontAndBack
    {
        type            empty;
    }
    procBoundary3to0
    {
        type            processor;
        value           nonuniform List<scalar> 10(2.12769e-05 2.13078e-05 2.12791e-05 2.13149e-05 2.13447e-05 2.12947e-05 2.1222e-05 1.97244e-05 1.48379e-05 8.32516e-06);
    }
    procBoundary3to2
    {
        type            processor;
        value           nonuniform List<scalar> 
25
(
0.000135977
0.000126872
9.44154e-05
6.80118e-05
5.12466e-05
4.07125e-05
3.4929e-05
3.13851e-05
2.94303e-05
2.81327e-05
2.74262e-05
2.74262e-05
2.69333e-05
2.65816e-05
2.63027e-05
2.60502e-05
2.57957e-05
2.55201e-05
2.52091e-05
2.48506e-05
2.4433e-05
2.39444e-05
2.33709e-05
2.27765e-05
2.20546e-05
)
;
    }
}


// ************************************************************************* //
