/*--------------------------------*- C++ -*----------------------------------*\
| =========                 |                                                 |
| \\      /  F ield         | OpenFOAM: The Open Source CFD Toolbox           |
|  \\    /   O peration     | Version:  dev                                   |
|   \\  /    A nd           | Web:      www.OpenFOAM.org                      |
|    \\/     M anipulation  |                                                 |
\*---------------------------------------------------------------------------*/
FoamFile
{
    version     2.0;
    format      ascii;
    class       volScalarField;
    location    "0.05";
    object      H;
}
// * * * * * * * * * * * * * * * * * * * * * * * * * * * * * * * * * * * * * //

dimensions      [0 0 0 0 0 0 0];

internalField   nonuniform List<scalar> 
250
(
0.000116957
0.000116967
0.000116957
0.000116971
0.000116958
0.000116966
0.000116947
0.00011683
0.000115593
9.30798e-05
9.83475e-09
0.000124323
0.000124337
0.000124322
0.000124341
0.00012432
0.000124336
0.000124298
0.0001242
0.000123086
0.000106147
1.84343e-08
8.69899e-05
8.70133e-05
8.69877e-05
8.7017e-05
8.69857e-05
8.70111e-05
8.69629e-05
8.69141e-05
8.59089e-05
7.52204e-05
2.38499e-08
6.03359e-05
6.03612e-05
6.03333e-05
6.03653e-05
6.0331e-05
6.03608e-05
6.03082e-05
6.02881e-05
5.93144e-05
5.11892e-05
5.51194e-08
4.53383e-05
4.53609e-05
4.53366e-05
4.53644e-05
4.53338e-05
4.5363e-05
4.53084e-05
4.52957e-05
4.43276e-05
3.70123e-05
1.2358e-07
3.7145e-05
3.71631e-05
3.71448e-05
3.71659e-05
3.71425e-05
3.71666e-05
3.71146e-05
3.70915e-05
3.60129e-05
2.89616e-05
2.3691e-07
3.2608e-05
3.26215e-05
3.26094e-05
3.26234e-05
3.26085e-05
3.26247e-05
3.25802e-05
3.25411e-05
3.14394e-05
2.43997e-05
3.73808e-07
3.00519e-05
3.0061e-05
3.00542e-05
3.00621e-05
3.00548e-05
3.00626e-05
3.00244e-05
2.99914e-05
2.8854e-05
2.18551e-05
5.65337e-07
2.85968e-05
2.86019e-05
2.85993e-05
2.86024e-05
2.86006e-05
2.86012e-05
2.85576e-05
2.83421e-05
2.72178e-05
2.05376e-05
9.70363e-07
2.7725e-05
2.77265e-05
2.77277e-05
2.77254e-05
2.77321e-05
2.77232e-05
2.76957e-05
2.74846e-05
2.62275e-05
1.99206e-05
1.82176e-06
2.71672e-05
2.71717e-05
2.71656e-05
2.71782e-05
2.7161e-05
2.7141e-05
2.68955e-05
2.56704e-05
1.96931e-05
3.23863e-06
2.68065e-05
2.68142e-05
2.68043e-05
2.68233e-05
2.67979e-05
2.6787e-05
2.65016e-05
2.52538e-05
1.97041e-05
5.13323e-06
2.65435e-05
2.65546e-05
2.65406e-05
2.65665e-05
2.65327e-05
2.65312e-05
2.62077e-05
2.4934e-05
1.98062e-05
7.36494e-06
2.63196e-05
2.63342e-05
2.63157e-05
2.63493e-05
2.63065e-05
2.63158e-05
2.59572e-05
2.46596e-05
1.99129e-05
9.82394e-06
2.60998e-05
2.61186e-05
2.60948e-05
2.61373e-05
2.60843e-05
2.61068e-05
2.57163e-05
2.43997e-05
1.99708e-05
1.23293e-05
2.58626e-05
2.58861e-05
2.58561e-05
2.59089e-05
2.58445e-05
2.58833e-05
2.5464e-05
2.41359e-05
1.99501e-05
1.46123e-05
2.55932e-05
2.56223e-05
2.55851e-05
2.56499e-05
2.55723e-05
2.56311e-05
2.5186e-05
2.38567e-05
1.98415e-05
1.63974e-05
2.52806e-05
2.5316e-05
2.52706e-05
2.5349e-05
2.52567e-05
2.53393e-05
2.48713e-05
2.3554e-05
1.96255e-05
1.7508e-05
2.4915e-05
2.49575e-05
2.49031e-05
2.49967e-05
2.48884e-05
2.49984e-05
2.45102e-05
2.32207e-05
1.93131e-05
1.79173e-05
2.44869e-05
2.45371e-05
2.44731e-05
2.45832e-05
2.44584e-05
2.45987e-05
2.40927e-05
2.28499e-05
1.89537e-05
1.77265e-05
2.39857e-05
2.40444e-05
2.39701e-05
2.40978e-05
2.39564e-05
2.41295e-05
2.36077e-05
2.2433e-05
1.85933e-05
1.71035e-05
2.33989e-05
2.34663e-05
2.33816e-05
2.35276e-05
2.33702e-05
2.35775e-05
2.30406e-05
2.19598e-05
1.81923e-05
1.62236e-05
2.2793e-05
2.28703e-05
2.27734e-05
2.29398e-05
2.27657e-05
2.30078e-05
2.24636e-05
2.14186e-05
1.774e-05
1.5232e-05
2.20368e-05
2.21294e-05
2.20139e-05
2.22129e-05
2.20098e-05
2.23155e-05
2.1744e-05
2.08657e-05
1.72335e-05
1.42301e-05
)
;

boundaryField
{
    fuel
    {
        type            fixedValue;
        value           uniform 0;
    }
    wall
    {
        type            zeroGradient;
    }
    outlet
    {
        type            zeroGradient;
    }
    frontAndBack
    {
        type            empty;
    }
    procBoundary3to0
    {
        type            processor;
        value           nonuniform List<scalar> 10(2.12432e-05 2.13483e-05 2.12172e-05 2.14413e-05 2.12169e-05 2.15661e-05 2.09879e-05 2.01996e-05 1.6752e-05 1.33012e-05);
    }
    procBoundary3to2
    {
        type            processor;
        value           nonuniform List<scalar> 
25
(
0.000116964
0.000124333
8.70067e-05
6.0354e-05
4.53546e-05
3.71584e-05
3.26186e-05
3.00597e-05
2.86021e-05
2.77277e-05
2.71693e-05
2.71693e-05
2.68086e-05
2.65463e-05
2.63235e-05
2.61054e-05
2.58701e-05
2.5603e-05
2.52929e-05
2.49301e-05
2.45049e-05
2.40068e-05
2.3423e-05
2.28205e-05
2.20696e-05
)
;
    }
}


// ************************************************************************* //
