/*--------------------------------*- C++ -*----------------------------------*\
| =========                 |                                                 |
| \\      /  F ield         | OpenFOAM: The Open Source CFD Toolbox           |
|  \\    /   O peration     | Version:  dev                                   |
|   \\  /    A nd           | Web:      www.OpenFOAM.org                      |
|    \\/     M anipulation  |                                                 |
\*---------------------------------------------------------------------------*/
FoamFile
{
    version     2.0;
    format      ascii;
    class       volScalarField;
    location    "0.05";
    object      n-C4H3;
}
// * * * * * * * * * * * * * * * * * * * * * * * * * * * * * * * * * * * * * //

dimensions      [0 0 0 0 0 0 0];

internalField   nonuniform List<scalar> 
250
(
1.41336e-06
1.41333e-06
1.41334e-06
1.4133e-06
1.41335e-06
1.41331e-06
1.41346e-06
1.41423e-06
1.42046e-06
1.49888e-06
1.13658e-08
5.13585e-07
5.13639e-07
5.13578e-07
5.13626e-07
5.13587e-07
5.13646e-07
5.13697e-07
5.14581e-07
5.19088e-07
6.09234e-07
1.26542e-08
2.1724e-07
2.17312e-07
2.17236e-07
2.17309e-07
2.17254e-07
2.17313e-07
2.17375e-07
2.18141e-07
2.20811e-07
2.7711e-07
2.34754e-08
1.16005e-07
1.16067e-07
1.16007e-07
1.16066e-07
1.16029e-07
1.16071e-07
1.16153e-07
1.16829e-07
1.18623e-07
1.52906e-07
5.24477e-08
7.46082e-08
7.46548e-08
7.46167e-08
7.46514e-08
7.46419e-08
7.46641e-08
7.47693e-08
7.53956e-08
7.67986e-08
9.77463e-08
8.50922e-08
5.46591e-08
5.46917e-08
5.46749e-08
5.46849e-08
5.47064e-08
5.47027e-08
5.48492e-08
5.54509e-08
5.64688e-08
6.93831e-08
1.1297e-07
4.37431e-08
4.37641e-08
4.37661e-08
4.37531e-08
4.3806e-08
4.3773e-08
4.3976e-08
4.45919e-08
4.55928e-08
5.33241e-08
1.17984e-07
3.71312e-08
3.71428e-08
3.71601e-08
3.71275e-08
3.72072e-08
3.71467e-08
3.73958e-08
3.81146e-08
3.91485e-08
4.36239e-08
1.0318e-07
3.27848e-08
3.27886e-08
3.28178e-08
3.27691e-08
3.28687e-08
3.27862e-08
3.30359e-08
3.32758e-08
3.45504e-08
3.76035e-08
8.37377e-08
2.95755e-08
2.95742e-08
2.96168e-08
2.95466e-08
2.96818e-08
2.95651e-08
2.99081e-08
3.02676e-08
3.12585e-08
3.368e-08
6.4561e-08
2.69199e-08
2.69747e-08
2.68889e-08
2.70498e-08
2.69039e-08
2.7306e-08
2.76668e-08
2.90565e-08
3.0664e-08
4.65978e-08
2.47566e-08
2.48221e-08
2.4723e-08
2.4907e-08
2.47353e-08
2.51932e-08
2.5519e-08
2.70949e-08
2.8692e-08
3.3217e-08
2.29222e-08
2.29962e-08
2.28865e-08
2.30889e-08
2.28969e-08
2.3399e-08
2.36823e-08
2.54027e-08
2.71707e-08
2.61646e-08
2.13234e-08
2.14039e-08
2.12863e-08
2.15019e-08
2.12953e-08
2.18291e-08
2.20702e-08
2.39042e-08
2.58929e-08
2.26401e-08
1.99044e-08
1.99893e-08
1.98664e-08
2.00904e-08
1.98743e-08
2.04286e-08
2.06316e-08
2.25465e-08
2.4748e-08
2.11978e-08
1.86297e-08
1.87175e-08
1.85912e-08
1.88196e-08
1.85982e-08
1.91633e-08
1.93338e-08
2.12978e-08
2.3677e-08
2.09274e-08
1.74752e-08
1.75644e-08
1.74367e-08
1.76659e-08
1.74426e-08
1.80099e-08
1.81539e-08
2.01378e-08
2.26725e-08
2.12188e-08
1.64233e-08
1.65126e-08
1.63853e-08
1.66119e-08
1.639e-08
1.69516e-08
1.70747e-08
1.90526e-08
2.15984e-08
2.16746e-08
1.54601e-08
1.55482e-08
1.54231e-08
1.56441e-08
1.54268e-08
1.59753e-08
1.60825e-08
1.80324e-08
2.04956e-08
2.20512e-08
1.45739e-08
1.46593e-08
1.45386e-08
1.47508e-08
1.45417e-08
1.50697e-08
1.51652e-08
1.70694e-08
1.94856e-08
2.22102e-08
1.37538e-08
1.38351e-08
1.37209e-08
1.39211e-08
1.37248e-08
1.42247e-08
1.43111e-08
1.61555e-08
1.86136e-08
2.20863e-08
1.29889e-08
1.30647e-08
1.29592e-08
1.31443e-08
1.29653e-08
1.34298e-08
1.35075e-08
1.52827e-08
1.77356e-08
2.16709e-08
1.23605e-08
1.24321e-08
1.23329e-08
1.25067e-08
1.23426e-08
1.2775e-08
1.28517e-08
1.44449e-08
1.682e-08
2.09986e-08
1.172e-08
1.17904e-08
1.16944e-08
1.1864e-08
1.17071e-08
1.21269e-08
1.21804e-08
1.37356e-08
1.58844e-08
2.0133e-08
)
;

boundaryField
{
    fuel
    {
        type            fixedValue;
        value           uniform 0;
    }
    wall
    {
        type            zeroGradient;
    }
    outlet
    {
        type            zeroGradient;
    }
    frontAndBack
    {
        type            empty;
    }
    procBoundary3to0
    {
        type            processor;
        value           nonuniform List<scalar> 10(1.11733e-08 1.124e-08 1.11496e-08 1.13089e-08 1.11648e-08 1.15552e-08 1.16031e-08 1.3015e-08 1.50609e-08 1.91199e-08);
    }
    procBoundary3to2
    {
        type            processor;
        value           nonuniform List<scalar> 
25
(
1.41334e-06
5.13626e-07
2.17294e-07
1.16052e-07
7.46446e-08
5.46867e-08
4.37634e-08
3.71456e-08
3.27947e-08
2.95823e-08
2.69299e-08
2.69299e-08
2.47715e-08
2.2942e-08
2.13472e-08
1.99312e-08
1.86588e-08
1.7506e-08
1.64551e-08
1.54923e-08
1.46057e-08
1.37843e-08
1.30173e-08
1.23869e-08
1.17452e-08
)
;
    }
}


// ************************************************************************* //
