/*--------------------------------*- C++ -*----------------------------------*\
| =========                 |                                                 |
| \\      /  F ield         | OpenFOAM: The Open Source CFD Toolbox           |
|  \\    /   O peration     | Version:  dev                                   |
|   \\  /    A nd           | Web:      www.OpenFOAM.org                      |
|    \\/     M anipulation  |                                                 |
\*---------------------------------------------------------------------------*/
FoamFile
{
    version     2.0;
    format      ascii;
    class       volScalarField;
    location    "0.05";
    object      naphthyne;
}
// * * * * * * * * * * * * * * * * * * * * * * * * * * * * * * * * * * * * * //

dimensions      [0 0 0 0 0 0 0];

internalField   nonuniform List<scalar> 
250
(
7.00544e-08
7.00506e-08
7.00086e-08
7.00454e-08
7.0047e-08
7.00629e-08
7.00795e-08
7.03595e-08
7.25451e-08
8.79483e-08
2.31511e-09
5.77301e-08
5.77253e-08
5.77117e-08
5.77245e-08
5.7726e-08
5.77432e-08
5.77733e-08
5.81882e-08
6.13181e-08
8.51033e-08
5.11322e-09
4.42134e-08
4.42086e-08
4.42056e-08
4.42101e-08
4.42101e-08
4.42266e-08
4.42639e-08
4.47544e-08
4.8421e-08
7.73029e-08
7.15306e-09
3.3858e-08
3.38537e-08
3.38554e-08
3.38553e-08
3.38551e-08
3.38703e-08
3.39107e-08
3.44324e-08
3.83826e-08
7.05305e-08
8.72587e-09
2.59733e-08
2.59695e-08
2.59736e-08
2.59702e-08
2.59707e-08
2.59841e-08
2.60229e-08
2.65308e-08
3.05404e-08
6.43942e-08
1.00381e-08
1.9552e-08
1.95487e-08
1.95551e-08
1.95471e-08
1.95523e-08
1.95634e-08
1.96126e-08
2.02191e-08
2.44058e-08
5.88172e-08
1.12069e-08
1.49934e-08
1.49903e-08
1.49971e-08
1.4988e-08
1.49938e-08
1.50028e-08
1.5044e-08
1.5598e-08
1.96473e-08
5.37582e-08
1.22807e-08
1.13889e-08
1.13856e-08
1.1394e-08
1.13814e-08
1.1392e-08
1.14021e-08
1.14658e-08
1.21424e-08
1.58462e-08
4.91587e-08
1.32549e-08
8.89504e-09
8.89176e-09
8.90007e-09
8.88733e-09
8.89793e-09
8.90701e-09
8.96376e-09
9.46383e-09
1.26537e-08
4.49405e-08
1.40846e-08
6.83202e-09
6.82887e-09
6.83631e-09
6.82473e-09
6.8343e-09
6.84258e-09
6.89263e-09
7.33233e-09
1.05107e-08
4.10281e-08
1.46876e-08
5.50971e-09
5.51671e-09
5.50575e-09
5.51469e-09
5.52238e-09
5.56614e-09
5.95367e-09
8.70116e-09
3.73479e-08
1.49314e-08
4.45346e-09
4.46029e-09
4.44941e-09
4.45827e-09
4.46655e-09
4.5108e-09
4.91093e-09
7.26162e-09
3.38514e-08
1.46829e-08
3.65926e-09
3.66538e-09
3.65558e-09
3.66351e-09
3.67162e-09
3.71184e-09
4.06855e-09
6.26672e-09
3.05154e-08
1.3977e-08
3.06368e-09
3.06914e-09
3.06033e-09
3.06743e-09
3.07544e-09
3.11217e-09
3.43178e-09
5.40808e-09
2.73364e-08
1.30818e-08
2.60741e-09
2.61226e-09
2.60436e-09
2.61071e-09
2.61863e-09
2.65234e-09
2.93982e-09
4.68085e-09
2.43355e-08
1.23006e-08
2.25024e-09
2.25453e-09
2.24746e-09
2.25314e-09
2.26095e-09
2.292e-09
2.5513e-09
4.07693e-09
2.12113e-08
1.17961e-08
1.96516e-09
1.96892e-09
1.96262e-09
1.96769e-09
1.97534e-09
2.00402e-09
2.23828e-09
3.56788e-09
1.81415e-08
1.15668e-08
1.73396e-09
1.73723e-09
1.73164e-09
1.73614e-09
1.74359e-09
1.77012e-09
1.98191e-09
3.13501e-09
1.52971e-08
1.14974e-08
1.54427e-09
1.54705e-09
1.54214e-09
1.54612e-09
1.55328e-09
1.57789e-09
1.76942e-09
2.77482e-09
1.30763e-08
1.14431e-08
1.38751e-09
1.38982e-09
1.38557e-09
1.38904e-09
1.39585e-09
1.41873e-09
1.59194e-09
2.46389e-09
1.11353e-08
1.12815e-08
1.25762e-09
1.25945e-09
1.25585e-09
1.25883e-09
1.26522e-09
1.28656e-09
1.44326e-09
2.19513e-09
9.22985e-09
1.09473e-08
1.15016e-09
1.1515e-09
1.14855e-09
1.15103e-09
1.15694e-09
1.17692e-09
1.31895e-09
1.96695e-09
7.70663e-09
1.04179e-08
1.07227e-09
1.07323e-09
1.07077e-09
1.07286e-09
1.07832e-09
1.09708e-09
1.21576e-09
1.77487e-09
6.4567e-09
9.73841e-09
1.00758e-09
1.00832e-09
1.00621e-09
1.00807e-09
1.01321e-09
1.03089e-09
1.14143e-09
1.61524e-09
5.42375e-09
8.93632e-09
)
;

boundaryField
{
    fuel
    {
        type            fixedValue;
        value           uniform 0;
    }
    wall
    {
        type            zeroGradient;
    }
    outlet
    {
        type            zeroGradient;
    }
    frontAndBack
    {
        type            empty;
    }
    procBoundary3to0
    {
        type            processor;
        value           nonuniform List<scalar> 10(9.61609e-10 9.61971e-10 9.60324e-10 9.61816e-10 9.66482e-10 9.83296e-10 1.07821e-09 1.48438e-09 4.56995e-09 8.0641e-09);
    }
    procBoundary3to2
    {
        type            processor;
        value           nonuniform List<scalar> 
25
(
7.00488e-08
5.77306e-08
4.42155e-08
3.38607e-08
2.59765e-08
1.95567e-08
1.49981e-08
1.13946e-08
8.90049e-09
6.83665e-09
5.5124e-09
5.5124e-09
4.456e-09
3.66148e-09
3.06561e-09
2.60907e-09
2.25166e-09
1.96635e-09
1.73495e-09
1.54507e-09
1.38815e-09
1.25811e-09
1.15053e-09
1.07256e-09
1.00779e-09
)
;
    }
}


// ************************************************************************* //
