/*--------------------------------*- C++ -*----------------------------------*\
| =========                 |                                                 |
| \\      /  F ield         | OpenFOAM: The Open Source CFD Toolbox           |
|  \\    /   O peration     | Version:  dev                                   |
|   \\  /    A nd           | Web:      www.OpenFOAM.org                      |
|    \\/     M anipulation  |                                                 |
\*---------------------------------------------------------------------------*/
FoamFile
{
    version     2.0;
    format      ascii;
    class       surfaceScalarField;
    location    "0.05";
    object      phi;
}
// * * * * * * * * * * * * * * * * * * * * * * * * * * * * * * * * * * * * * //

dimensions      [1 0 -1 0 0 0 0];

internalField   nonuniform List<scalar> 
465
(
1.18037e-08
8.15856e-06
1.41493e-08
8.16707e-06
2.54591e-08
8.15808e-06
2.79526e-08
8.16684e-06
3.87813e-08
8.15846e-06
4.21023e-08
8.16571e-06
5.13832e-08
8.15965e-06
3.70791e-08
8.18292e-06
4.44998e-08
8.15651e-06
-2.60388e-07
8.39133e-06
4.29578e-06
1.58591e-08
8.13124e-06
2.29025e-08
8.14867e-06
3.93231e-08
8.1304e-06
4.57867e-08
8.14919e-06
6.28967e-08
8.13021e-06
6.87652e-08
8.14906e-06
8.6902e-08
8.13025e-06
5.76287e-08
8.20155e-06
7.29612e-08
8.12639e-06
-5.13145e-07
8.88672e-06
2.6843e-06
1.86206e-08
8.101e-06
3.24469e-08
8.12656e-06
5.41413e-08
8.10048e-06
6.69688e-08
8.12829e-06
9.04532e-08
8.09881e-06
9.97459e-08
8.13191e-06
1.27696e-07
8.09476e-06
8.53435e-08
8.23646e-06
1.1305e-07
8.08665e-06
-5.53637e-07
9.43212e-06
2.61644e-06
1.96742e-08
8.06987e-06
4.01492e-08
8.10234e-06
6.62811e-08
8.07065e-06
8.79782e-08
8.10307e-06
1.17157e-07
8.06627e-06
1.31231e-07
8.11453e-06
1.68255e-07
8.05485e-06
1.1446e-07
8.28733e-06
1.59663e-07
8.03329e-06
-5.12874e-07
9.95846e-06
3.38564e-06
1.93728e-08
8.03598e-06
4.74118e-08
8.07392e-06
7.84041e-08
8.03934e-06
1.08419e-07
8.07289e-06
1.41662e-07
8.03302e-06
1.61991e-07
8.09432e-06
2.05501e-07
8.01176e-06
1.4547e-07
8.34786e-06
2.08282e-07
7.96491e-06
-4.34803e-07
1.04426e-05
4.55611e-06
1.76866e-08
7.99757e-06
5.34526e-08
8.03893e-06
8.88049e-08
8.00485e-06
1.27463e-07
8.03524e-06
1.63783e-07
7.99784e-06
1.91625e-07
8.06778e-06
2.38821e-07
7.96611e-06
1.77781e-07
8.41065e-06
2.55832e-07
7.88249e-06
-3.36785e-07
1.08728e-05
5.86339e-06
1.50436e-08
7.95345e-06
5.84312e-08
7.99604e-06
9.80412e-08
7.96583e-06
1.4526e-07
7.98874e-06
1.84051e-07
7.95994e-06
2.20392e-07
8.03247e-06
2.68753e-07
7.91912e-06
2.12158e-07
8.46882e-06
3.0072e-07
7.78929e-06
-2.27228e-07
1.12437e-05
7.13768e-06
1.17948e-08
7.90314e-06
6.26498e-08
7.9448e-06
1.0659e-07
7.9216e-06
1.62097e-07
7.93307e-06
2.03179e-07
7.91888e-06
2.4853e-07
7.98728e-06
2.96358e-07
7.87195e-06
2.49246e-07
8.51684e-06
3.42937e-07
7.6907e-06
-1.12363e-07
1.15527e-05
8.24368e-06
8.24979e-09
7.84644e-06
6.64163e-08
7.88516e-06
1.14889e-07
7.87175e-06
1.78311e-07
7.86839e-06
2.21883e-07
7.87419e-06
2.76323e-07
7.93189e-06
3.22896e-07
7.82455e-06
2.89422e-07
8.55048e-06
3.83304e-07
7.59197e-06
-7.2274e-09
1.18157e-05
9.0184e-06
4.63919e-09
7.00129e-08
7.81803e-06
1.23297e-07
7.81681e-06
1.9422e-07
7.79592e-06
2.40769e-07
7.82626e-06
3.04109e-07
7.86732e-06
3.49597e-07
7.77805e-06
3.32814e-07
8.5668e-06
4.23171e-07
7.49714e-06
1.4192e-07
1.19953e-05
9.3736e-06
7.3662e-08
7.74291e-06
1.32063e-07
7.75606e-06
2.10076e-07
7.71565e-06
2.60254e-07
7.77402e-06
3.32148e-07
7.79347e-06
3.77443e-07
7.73115e-06
3.79193e-07
8.56419e-06
4.64055e-07
7.40836e-06
2.86695e-07
1.20547e-05
9.15499e-06
7.75316e-08
7.66132e-06
1.41339e-07
7.68948e-06
2.26062e-07
7.62824e-06
2.80583e-07
7.71703e-06
3.60602e-07
7.71108e-06
4.07104e-07
7.68265e-06
4.28128e-07
8.5419e-06
5.06941e-07
7.32653e-06
4.06161e-07
1.20683e-05
8.54559e-06
8.17045e-08
7.57352e-06
1.51173e-07
7.61703e-06
2.42267e-07
7.53426e-06
3.01817e-07
7.65479e-06
3.8951e-07
7.62083e-06
4.38851e-07
7.63108e-06
4.79033e-07
8.5003e-06
5.52515e-07
7.25097e-06
5.03701e-07
1.20471e-05
8.04515e-06
8.6214e-08
7.47971e-06
1.61544e-07
7.53869e-06
2.58714e-07
7.4342e-06
3.23891e-07
7.58689e-06
4.18825e-07
7.52334e-06
4.72625e-07
7.57498e-06
5.31252e-07
8.44031e-06
6.0126e-07
7.17988e-06
5.99263e-07
1.19945e-05
7.6101e-06
9.10506e-08
7.38012e-06
1.72385e-07
7.45444e-06
2.75378e-07
7.32844e-06
3.46664e-07
7.51295e-06
4.48447e-07
7.41915e-06
5.08136e-07
7.51302e-06
5.84108e-07
8.36319e-06
6.53201e-07
7.1107e-06
6.93909e-07
1.19144e-05
7.23376e-06
9.61775e-08
7.27494e-06
1.83607e-07
7.36428e-06
2.92205e-07
7.21727e-06
3.69959e-07
7.43272e-06
4.7825e-07
7.3087e-06
5.44971e-07
7.44413e-06
6.36972e-07
8.27037e-06
7.07861e-07
7.0406e-06
7.87599e-07
1.18097e-05
6.91689e-06
1.01543e-07
7.1643e-06
1.95112e-07
7.2682e-06
3.09129e-07
7.10094e-06
3.93592e-07
7.34597e-06
5.08105e-07
7.19233e-06
5.82679e-07
7.36752e-06
6.8931e-07
8.16333e-06
7.64437e-07
6.96696e-06
8.79758e-07
1.16834e-05
6.65873e-06
1.0709e-07
7.04831e-06
2.06809e-07
7.16619e-06
3.26084e-07
6.97958e-06
4.17395e-07
7.25256e-06
5.37892e-07
7.0703e-06
6.20835e-07
7.28266e-06
7.4071e-07
8.04346e-06
8.21994e-07
6.88767e-06
9.6955e-07
1.15389e-05
6.45595e-06
1.12765e-07
6.92703e-06
2.18612e-07
7.05825e-06
3.43009e-07
6.85333e-06
4.41224e-07
7.15244e-06
5.67507e-07
6.94278e-06
6.59068e-07
7.18926e-06
7.90887e-07
7.91207e-06
8.7965e-07
6.80113e-06
1.0561e-06
1.13769e-05
6.30295e-06
1.18516e-07
6.80054e-06
2.30453e-07
6.94439e-06
3.59853e-07
6.72224e-06
4.64962e-07
7.04555e-06
5.96869e-07
6.8099e-06
6.97085e-07
7.08723e-06
8.39674e-07
7.77029e-06
9.36612e-07
6.70641e-06
1.13863e-06
1.11946e-05
6.19236e-06
1.24303e-07
6.66886e-06
2.42278e-07
6.82462e-06
3.76578e-07
6.58637e-06
4.88526e-07
6.93193e-06
6.2592e-07
6.67171e-06
7.3467e-07
6.97666e-06
8.86998e-07
7.61914e-06
9.92214e-07
6.60321e-06
1.21654e-06
1.09948e-05
6.11575e-06
1.30091e-07
6.53203e-06
2.54048e-07
6.69895e-06
3.93157e-07
6.44577e-06
5.11858e-07
6.81162e-06
6.5462e-07
6.52826e-06
7.71679e-07
6.85772e-06
9.32858e-07
7.45946e-06
1.04611e-06
6.49162e-06
1.28966e-06
1.07788e-05
6.0643e-06
1.35833e-07
6.39002e-06
2.65689e-07
6.56736e-06
4.09507e-07
6.30041e-06
5.34838e-07
6.68461e-06
6.82845e-07
6.37955e-06
8.07872e-07
6.7306e-06
9.77247e-07
7.29184e-06
1.09814e-06
6.37191e-06
1.35808e-06
1.05541e-05
6.02965e-06
1.41537e-07
2.77251e-07
4.25724e-07
5.57587e-07
7.10745e-07
8.4333e-07
1.02032e-06
1.14826e-06
1.42216e-06
)
;

boundaryField
{
    fuel
    {
        type            calculated;
        value           nonuniform List<scalar> 
11
(
-8.18386e-06
-8.18385e-06
-8.18383e-06
-8.1838e-06
-8.18375e-06
-8.1837e-06
-8.18362e-06
-8.18355e-06
-8.18344e-06
-8.1834e-06
-8.18319e-06
)
;
    }
    wall
    {
        type            calculated;
        value           nonuniform 0();
    }
    outlet
    {
        type            calculated;
        value           nonuniform List<scalar> 
24
(
-1.23422e-06
-2.84332e-06
-3.60695e-06
-3.8733e-06
-3.86324e-06
-3.68376e-06
-3.37797e-06
-2.95364e-06
-2.3935e-06
-1.66593e-06
-7.38362e-07
4.4106e-08
2.20748e-07
3.86e-07
5.40191e-07
6.83885e-07
8.17572e-07
9.41611e-07
1.0563e-06
1.16197e-06
1.25909e-06
1.34829e-06
1.43037e-06
1.50628e-06
)
;
    }
    frontAndBack
    {
        type            empty;
        value           nonuniform 0();
    }
    procBoundary3to0
    {
        type            processor;
        value           nonuniform List<scalar> 10(6.24298e-06 6.42998e-06 6.15044e-06 6.55112e-06 6.22578e-06 6.59577e-06 7.11717e-06 6.24452e-06 1.03075e-05 6.00449e-06);
    }
    procBoundary3to2
    {
        type            processor;
        value           nonuniform List<scalar> 
25
(
-1.01175e-09
4.51738e-11
3.24536e-09
7.62579e-09
1.406e-08
2.14229e-08
2.95084e-08
3.80677e-08
4.68561e-08
5.56549e-08
7.78421e-06
-1.01591e-09
1.15866e-09
3.00157e-09
4.47583e-09
5.53496e-09
6.20109e-09
6.52258e-09
6.55818e-09
6.3677e-09
6.00668e-09
5.52394e-09
4.96068e-09
4.34901e-09
3.72107e-09
)
;
    }
}


// ************************************************************************* //
