/*--------------------------------*- C++ -*----------------------------------*\
| =========                 |                                                 |
| \\      /  F ield         | OpenFOAM: The Open Source CFD Toolbox           |
|  \\    /   O peration     | Version:  dev                                   |
|   \\  /    A nd           | Web:      www.OpenFOAM.org                      |
|    \\/     M anipulation  |                                                 |
\*---------------------------------------------------------------------------*/
FoamFile
{
    version     2.0;
    format      ascii;
    class       surfaceScalarField;
    location    "0.05";
    object      phi;
}
// * * * * * * * * * * * * * * * * * * * * * * * * * * * * * * * * * * * * * //

dimensions      [1 0 -1 0 0 0 0];

internalField   nonuniform List<scalar> 
24
(
0.000274126
0.000281627
0.000287625
0.000294445
0.000302956
0.000309519
0.000318119
0.000327188
0.00033671
0.000346862
0.00035771
0.00036898
0.000380359
0.000398259
0.000411759
0.000428296
0.000447109
0.000468394
0.000492793
0.000521212
0.000554951
0.000595882
0.000645794
0.000702226
)
;

boundaryField
{
    wall
    {
        type            calculated;
        value           nonuniform List<scalar> 
100
(
1.97968e-19
1.97749e-19
1.9761e-19
1.97397e-19
1.96925e-19
1.96732e-19
1.96231e-19
1.95491e-19
1.94621e-19
1.93494e-19
1.92103e-19
1.90521e-19
1.88628e-19
1.8645e-19
1.84033e-19
1.80622e-19
1.76159e-19
1.7062e-19
1.63632e-19
1.54692e-19
1.43475e-19
1.27505e-19
1.05342e-19
7.09451e-20
3.93006e-20
-1.97968e-19
-1.97749e-19
-1.9761e-19
-1.97397e-19
-1.96925e-19
-1.96732e-19
-1.96231e-19
-1.95491e-19
-1.94621e-19
-1.93494e-19
-1.92103e-19
-1.90521e-19
-1.88628e-19
-1.8645e-19
-1.84033e-19
-1.80622e-19
-1.76159e-19
-1.7062e-19
-1.63632e-19
-1.54692e-19
-1.43475e-19
-1.27505e-19
-1.05342e-19
-7.09451e-20
-3.93006e-20
1.97968e-19
1.97749e-19
1.9761e-19
1.97397e-19
1.96925e-19
1.96732e-19
1.96231e-19
1.95491e-19
1.94621e-19
1.93494e-19
1.92103e-19
1.90521e-19
1.88628e-19
1.8645e-19
1.84033e-19
1.80622e-19
1.76159e-19
1.7062e-19
1.63632e-19
1.54692e-19
1.43475e-19
1.27505e-19
1.05342e-19
7.09451e-20
3.93006e-20
-1.97968e-19
-1.97749e-19
-1.9761e-19
-1.97397e-19
-1.96925e-19
-1.96732e-19
-1.96231e-19
-1.95491e-19
-1.94621e-19
-1.93494e-19
-1.92103e-19
-1.90521e-19
-1.88628e-19
-1.8645e-19
-1.84033e-19
-1.80622e-19
-1.76159e-19
-1.7062e-19
-1.63632e-19
-1.54692e-19
-1.43475e-19
-1.27505e-19
-1.05342e-19
-7.09451e-20
-3.93006e-20
)
;
    }
    fuel
    {
        type            calculated;
        value           nonuniform 0();
    }
    outlet
    {
        type            calculated;
        value           uniform 0.000906169;
    }
    procBoundary3to2
    {
        type            processor;
        value           uniform -0.000267811;
    }
}


// ************************************************************************* //
