/*--------------------------------*- C++ -*----------------------------------*\
| =========                 |                                                 |
| \\      /  F ield         | OpenFOAM: The Open Source CFD Toolbox           |
|  \\    /   O peration     | Version:  dev                                   |
|   \\  /    A nd           | Web:      www.OpenFOAM.org                      |
|    \\/     M anipulation  |                                                 |
\*---------------------------------------------------------------------------*/
FoamFile
{
    version     2.0;
    format      ascii;
    class       volScalarField;
    location    "0.005";
    object      A1;
}
// * * * * * * * * * * * * * * * * * * * * * * * * * * * * * * * * * * * * * //

dimensions      [0 0 0 0 0 0 0];

internalField   nonuniform List<scalar> 
250
(
2.28334e-05
2.27769e-05
2.27055e-05
2.25281e-05
2.22887e-05
2.16581e-05
2.01961e-05
1.70647e-05
1.20482e-05
6.70835e-06
1.71157e-05
1.70609e-05
1.69953e-05
1.68575e-05
1.66379e-05
1.6095e-05
1.5033e-05
1.28487e-05
9.07962e-06
5.14088e-06
3.78476e-06
6.80839e-06
9.22173e-06
1.07508e-05
1.1621e-05
1.2173e-05
1.23777e-05
1.25327e-05
1.26427e-05
1.26921e-05
1.27233e-05
1.26706e-05
1.25971e-05
1.24729e-05
1.22574e-05
1.16907e-05
1.07956e-05
9.24998e-06
6.83203e-06
3.80136e-06
2.78015e-06
5.03026e-06
6.94517e-06
8.16105e-06
8.62162e-06
8.84975e-06
8.95674e-06
9.02405e-06
9.08399e-06
9.11504e-06
9.1334e-06
9.11405e-06
9.07885e-06
9.01541e-06
8.90493e-06
8.66905e-06
8.19534e-06
6.96777e-06
5.04686e-06
2.79223e-06
2.007e-06
3.65405e-06
5.11701e-06
6.07768e-06
6.52353e-06
6.72555e-06
6.81688e-06
6.86633e-06
6.9085e-06
6.93146e-06
6.94565e-06
6.93479e-06
6.90898e-06
6.86325e-06
6.77058e-06
6.55503e-06
6.1038e-06
5.13287e-06
3.66632e-06
2.01539e-06
1.36966e-06
2.56764e-06
3.71255e-06
4.39761e-06
4.77878e-06
4.95646e-06
5.03758e-06
5.08216e-06
5.11622e-06
5.13375e-06
5.14472e-06
5.13417e-06
5.10941e-06
5.07225e-06
4.98719e-06
4.80236e-06
4.41992e-06
3.72473e-06
2.57658e-06
1.37556e-06
9.08582e-07
1.68376e-06
2.52984e-06
3.11907e-06
3.43e-06
3.57383e-06
3.64365e-06
3.68354e-06
3.71212e-06
3.72563e-06
3.73438e-06
3.72362e-06
3.69973e-06
3.66964e-06
3.59812e-06
3.44725e-06
3.13601e-06
2.53996e-06
1.69015e-06
9.12425e-07
6.16877e-07
1.11672e-06
1.6115e-06
1.99973e-06
2.25013e-06
2.35929e-06
2.42058e-06
2.45351e-06
2.47891e-06
2.49035e-06
2.49694e-06
2.48669e-06
2.46328e-06
2.43904e-06
2.37933e-06
2.26312e-06
2.01064e-06
1.61798e-06
1.12106e-06
6.1951e-07
3.98185e-07
7.48013e-07
1.09067e-06
1.28657e-06
1.41506e-06
1.47871e-06
1.51383e-06
1.53158e-06
1.54681e-06
1.55215e-06
1.55596e-06
1.5504e-06
1.53836e-06
1.52363e-06
1.48944e-06
1.42174e-06
1.29272e-06
1.095e-06
7.51428e-07
4.00013e-07
2.50897e-07
4.66409e-07
7.03359e-07
8.65521e-07
9.62639e-07
1.00713e-06
1.03007e-06
1.04139e-06
1.05171e-06
1.05466e-06
1.05721e-06
1.05394e-06
1.04631e-06
1.03618e-06
1.01376e-06
9.67326e-07
8.70107e-07
7.06459e-07
4.67933e-07
2.5191e-07
1.57072e-07
3.0198e-07
4.54383e-07
5.37866e-07
6.01364e-07
6.3061e-07
6.47414e-07
6.55592e-07
6.63306e-07
6.65343e-07
6.67e-07
6.64446e-07
6.58154e-07
6.50913e-07
6.34865e-07
6.04529e-07
5.40783e-07
4.5625e-07
3.0287e-07
1.57697e-07
9.56416e-08
1.8771e-07
2.88265e-07
3.47979e-07
3.90915e-07
4.08021e-07
4.18102e-07
4.23335e-07
4.28224e-07
4.29461e-07
4.30469e-07
4.28804e-07
4.24494e-07
4.19932e-07
4.10385e-07
3.92945e-07
3.49849e-07
2.89491e-07
1.88405e-07
9.60368e-08
5.62697e-08
1.08589e-07
1.66189e-07
2.0478e-07
2.36555e-07
2.49579e-07
2.57704e-07
2.61612e-07
2.65159e-07
2.65983e-07
2.66631e-07
2.65452e-07
2.62228e-07
2.58826e-07
2.51162e-07
2.37912e-07
2.06108e-07
1.66705e-07
1.08978e-07
5.64934e-08
1.496e-07
1.4888e-07
1.46992e-07
1.4517e-07
1.4096e-07
1.34035e-07
1.16969e-07
9.42291e-08
6.18106e-08
3.23196e-08
)
;

boundaryField
{
    fuel
    {
        type            fixedValue;
        value           nonuniform 0();
    }
    wall
    {
        type            zeroGradient;
    }
    outlet
    {
        type            zeroGradient;
    }
    frontAndBack
    {
        type            empty;
    }
    procBoundary0to1
    {
        type            processor;
        value           nonuniform List<scalar> 
21
(
3.2216e-08
6.16361e-08
9.39641e-08
1.16446e-07
1.3351e-07
1.40405e-07
1.449e-07
1.46977e-07
1.48988e-07
1.49429e-07
1.49429e-07
8.27656e-08
8.23211e-08
8.12389e-08
8.02623e-08
7.7936e-08
7.42693e-08
6.49602e-08
5.24233e-08
3.40176e-08
1.80036e-08
)
;
    }
    procBoundary0to2
    {
        type            processor;
        value           nonuniform List<scalar> 
12
(
2.27069e-05
5.12359e-06
9.03169e-06
1.27827e-05
1.49413e-05
1.59572e-05
1.64892e-05
1.6684e-05
1.68492e-05
1.69872e-05
1.70649e-05
1.70649e-05
)
;
    }
    procBoundary0to3
    {
        type            processor;
        value           nonuniform List<scalar> 10(2.81278e-05 2.81064e-05 2.80317e-05 2.78561e-05 2.76478e-05 2.71313e-05 2.58128e-05 2.23814e-05 1.55593e-05 8.62032e-06);
    }
}


// ************************************************************************* //
