/*--------------------------------*- C++ -*----------------------------------*\
| =========                 |                                                 |
| \\      /  F ield         | OpenFOAM: The Open Source CFD Toolbox           |
|  \\    /   O peration     | Version:  dev                                   |
|   \\  /    A nd           | Web:      www.OpenFOAM.org                      |
|    \\/     M anipulation  |                                                 |
\*---------------------------------------------------------------------------*/
FoamFile
{
    version     2.0;
    format      ascii;
    class       volScalarField;
    location    "0.005";
    object      A2C2HA;
}
// * * * * * * * * * * * * * * * * * * * * * * * * * * * * * * * * * * * * * //

dimensions      [0 0 0 0 0 0 0];

internalField   nonuniform List<scalar> 
2014
(
1.06457e-08
1.21604e-08
1.00638e-08
6.59328e-09
3.33281e-09
1.46994e-09
6.73007e-10
3.66251e-10
2.37197e-10
1.68743e-10
1.3515e-10
1.12876e-10
9.73372e-11
8.6208e-11
7.81846e-11
7.1537e-11
6.73969e-11
6.47358e-11
6.2958e-11
6.19364e-11
6.1241e-11
6.07587e-11
6.04604e-11
6.02868e-11
6.02111e-11
6.02095e-11
6.02708e-11
6.0407e-11
6.06708e-11
6.10833e-11
6.17856e-11
6.2909e-11
6.46748e-11
6.74021e-11
7.16352e-11
7.83473e-11
8.64443e-11
9.76609e-11
1.13305e-10
1.35699e-10
1.69549e-10
2.3874e-10
3.68914e-10
6.79305e-10
1.48326e-09
3.35634e-09
6.62302e-09
1.00925e-08
1.21877e-08
1.06735e-08
1.12145e-08
1.25703e-08
1.03957e-08
6.88138e-09
3.53358e-09
1.56982e-09
7.10583e-10
3.78984e-10
2.40297e-10
1.68825e-10
1.34258e-10
1.11644e-10
9.60872e-11
8.51171e-11
7.73324e-11
7.09168e-11
6.68931e-11
6.43101e-11
6.2596e-11
6.15851e-11
6.08965e-11
6.04172e-11
6.01205e-11
5.99471e-11
5.98725e-11
5.9871e-11
5.99322e-11
6.00703e-11
6.03332e-11
6.0745e-11
6.14365e-11
6.2535e-11
6.42468e-11
6.68985e-11
7.10156e-11
7.75015e-11
8.53626e-11
9.64233e-11
1.12089e-10
1.34835e-10
1.6967e-10
2.41943e-10
3.81947e-10
7.17422e-10
1.58434e-09
3.55853e-09
6.9114e-09
1.04237e-08
1.25957e-08
1.12421e-08
1.17624e-08
1.29259e-08
1.06836e-08
7.16232e-09
3.75125e-09
1.68703e-09
7.58587e-10
3.97357e-10
2.46758e-10
1.71586e-10
1.35262e-10
1.11973e-10
9.62219e-11
8.52501e-11
7.75405e-11
7.12956e-11
6.73336e-11
6.4795e-11
6.31163e-11
6.21007e-11
6.14098e-11
6.09261e-11
6.06256e-11
6.04493e-11
6.03746e-11
6.03731e-11
6.04351e-11
6.05775e-11
6.08425e-11
6.12623e-11
6.19512e-11
6.30454e-11
6.47274e-11
6.73389e-11
7.13964e-11
7.77186e-11
8.55094e-11
9.65765e-11
1.12442e-10
1.35878e-10
1.72492e-10
2.48537e-10
4.00663e-10
7.66091e-10
1.70288e-09
3.77764e-09
7.19291e-09
1.07114e-08
1.29505e-08
1.17893e-08
1.22817e-08
1.32344e-08
1.09419e-08
7.43639e-09
3.98597e-09
1.82367e-09
8.1849e-10
4.22183e-10
2.56975e-10
1.77136e-10
1.38234e-10
1.13903e-10
9.77142e-11
8.65797e-11
7.88268e-11
7.26867e-11
6.8732e-11
6.62027e-11
6.45339e-11
6.34987e-11
6.27956e-11
6.23002e-11
6.19921e-11
6.18101e-11
6.1734e-11
6.17323e-11
6.17959e-11
6.1945e-11
6.22157e-11
6.26501e-11
6.33474e-11
6.44517e-11
6.61296e-11
6.87368e-11
7.27909e-11
7.90168e-11
8.68582e-11
9.80945e-11
1.14408e-10
1.38903e-10
1.78128e-10
2.58918e-10
4.25891e-10
8.26789e-10
1.84092e-09
4.01373e-09
7.4672e-09
1.09694e-08
1.3258e-08
1.2308e-08
1.27663e-08
1.34948e-08
1.11733e-08
7.70288e-09
4.23369e-09
1.98158e-09
8.92098e-10
4.54467e-10
2.71488e-10
1.85669e-10
1.43308e-10
1.17521e-10
1.0063e-10
8.91597e-11
8.12443e-11
7.51201e-11
7.11249e-11
6.8567e-11
6.68842e-11
6.58138e-11
6.50884e-11
6.45737e-11
6.4254e-11
6.40633e-11
6.39845e-11
6.39822e-11
6.40483e-11
6.42066e-11
6.44874e-11
6.49422e-11
6.56593e-11
6.67892e-11
6.84871e-11
7.1129e-11
7.52277e-11
8.14511e-11
8.94635e-11
1.01045e-10
1.18072e-10
1.44044e-10
1.86778e-10
2.73636e-10
4.58651e-10
9.01328e-10
2.00034e-09
4.26275e-09
7.73322e-09
1.12e-08
1.35171e-08
1.27918e-08
1.32102e-08
1.37068e-08
1.13734e-08
7.96081e-09
4.49617e-09
2.16002e-09
9.81874e-10
4.95414e-10
2.91011e-10
1.97477e-10
1.50685e-10
1.22965e-10
1.05074e-10
9.30744e-11
8.48771e-11
7.86499e-11
7.45735e-11
7.19447e-11
7.02236e-11
6.9102e-11
6.8343e-11
6.7801e-11
6.7465e-11
6.72626e-11
6.71795e-11
6.71763e-11
6.72459e-11
6.7416e-11
6.77116e-11
6.81936e-11
6.89421e-11
7.01148e-11
7.18566e-11
7.45768e-11
7.87625e-11
8.51048e-11
9.34105e-11
1.05532e-10
1.23576e-10
1.51506e-10
1.98736e-10
2.93414e-10
5.00164e-10
9.92208e-10
2.1803e-09
4.52632e-09
7.99313e-09
1.13996e-08
1.37279e-08
1.32345e-08
1.36076e-08
1.38709e-08
1.1545e-08
8.20882e-09
4.76702e-09
2.35791e-09
1.08889e-09
5.46478e-10
3.16571e-10
2.12853e-10
1.6065e-10
1.30433e-10
1.11195e-10
9.84461e-11
8.98182e-11
8.33988e-11
7.91518e-11
7.64173e-11
7.46333e-11
7.34427e-11
7.26378e-11
7.20593e-11
7.17015e-11
7.14837e-11
7.13949e-11
7.13903e-11
7.14644e-11
7.16494e-11
7.19652e-11
7.24823e-11
7.32745e-11
7.45092e-11
7.63195e-11
7.91541e-11
8.35183e-11
9.0072e-11
9.88227e-11
1.11708e-10
1.31121e-10
1.61575e-10
2.14311e-10
3.1929e-10
5.51922e-10
1.10042e-09
2.37971e-09
4.79825e-09
8.24056e-09
1.15703e-08
1.38906e-08
1.36307e-08
1.39541e-08
1.39878e-08
1.16877e-08
8.4518e-09
5.04718e-09
2.57526e-09
1.21403e-09
6.11107e-10
3.49189e-10
2.32466e-10
1.73597e-10
1.402e-10
1.19202e-10
1.05443e-10
9.62168e-11
8.94818e-11
8.49931e-11
8.21005e-11
8.02191e-11
7.89435e-11
7.80778e-11
7.74525e-11
7.70658e-11
7.68287e-11
7.67321e-11
7.67257e-11
7.68053e-11
7.70087e-11
7.73512e-11
7.79143e-11
7.87635e-11
8.00772e-11
8.19909e-11
8.49949e-11
8.96099e-11
9.65036e-11
1.0587e-10
1.19783e-10
1.40982e-10
1.74675e-10
2.34149e-10
3.52298e-10
6.17377e-10
1.22685e-09
2.59858e-09
5.07912e-09
8.48316e-09
1.17122e-08
1.4006e-08
1.39756e-08
1.42456e-08
1.40585e-08
1.18016e-08
8.67737e-09
5.33429e-09
2.81188e-09
1.35833e-09
6.87732e-10
3.90191e-10
2.57115e-10
1.90096e-10
1.5263e-10
1.29376e-10
1.14293e-10
1.04272e-10
9.70697e-11
9.22585e-11
8.91373e-11
8.71276e-11
8.57466e-11
8.48033e-11
8.41171e-11
8.36919e-11
8.3431e-11
8.33242e-11
8.33156e-11
8.34021e-11
8.36281e-11
8.40058e-11
8.46279e-11
8.55502e-11
8.69655e-11
8.90136e-11
9.22606e-11
9.72099e-11
1.046e-10
1.14783e-10
1.30042e-10
1.53531e-10
1.91359e-10
2.59087e-10
3.93781e-10
6.94892e-10
1.37255e-09
2.83672e-09
5.36696e-09
8.70842e-09
1.18249e-08
1.40752e-08
1.42655e-08
1.44793e-08
1.40842e-08
1.18865e-08
8.8906e-09
5.62938e-09
3.06836e-09
1.52304e-09
7.79489e-10
4.41265e-10
2.87877e-10
2.10808e-10
1.68207e-10
1.42092e-10
1.25299e-10
1.14242e-10
1.06394e-10
1.01163e-10
9.77211e-11
9.5544e-11
9.40373e-11
9.29979e-11
9.22312e-11
9.17548e-11
9.14643e-11
9.13444e-11
9.13327e-11
9.1428e-11
9.16821e-11
9.21063e-11
9.28054e-11
9.3818e-11
9.5359e-11
9.75804e-11
1.01167e-10
1.06551e-10
1.1462e-10
1.25866e-10
1.42866e-10
1.69254e-10
2.12298e-10
2.90217e-10
4.45448e-10
7.87666e-10
1.53875e-09
3.09451e-09
5.66175e-09
8.92094e-09
1.19086e-08
1.40993e-08
1.44974e-08
1.4653e-08
1.40655e-08
1.19448e-08
9.08949e-09
5.92573e-09
3.3421e-09
1.70926e-09
8.88125e-10
5.03421e-10
3.26068e-10
2.36577e-10
1.87559e-10
1.57847e-10
1.3886e-10
1.26469e-10
1.17754e-10
1.11997e-10
1.08109e-10
1.05704e-10
1.04049e-10
1.02901e-10
1.02028e-10
1.01483e-10
1.01155e-10
1.01018e-10
1.01003e-10
1.01109e-10
1.01398e-10
1.01884e-10
1.02685e-10
1.03798e-10
1.05493e-10
1.07948e-10
1.12002e-10
1.17935e-10
1.2691e-10
1.39524e-10
1.58753e-10
1.88785e-10
2.38356e-10
3.28871e-10
5.08296e-10
8.97451e-10
1.72653e-09
3.36975e-09
5.95856e-09
9.11899e-09
1.19653e-08
1.40789e-08
1.46693e-08
1.47658e-08
1.4005e-08
1.1971e-08
9.27209e-09
6.2237e-09
3.63378e-09
1.91788e-09
1.01547e-09
5.7862e-10
3.7301e-10
2.68485e-10
2.11478e-10
1.77294e-10
1.55506e-10
1.41414e-10
1.3153e-10
1.25152e-10
1.20908e-10
1.18067e-10
1.16057e-10
1.14829e-10
1.13812e-10
1.13178e-10
1.12802e-10
1.12643e-10
1.12622e-10
1.12744e-10
1.13076e-10
1.13644e-10
1.14578e-10
1.15758e-10
1.17806e-10
1.20712e-10
1.25155e-10
1.31744e-10
1.41935e-10
1.56289e-10
1.78366e-10
2.12922e-10
2.70627e-10
3.76399e-10
5.84322e-10
1.02608e-09
1.93677e-09
3.66242e-09
6.25668e-09
9.30073e-09
1.19899e-08
1.40167e-08
1.478e-08
1.48171e-08
1.39036e-08
1.19674e-08
9.44037e-09
6.52043e-09
3.94045e-09
2.14951e-09
1.16337e-09
6.68872e-10
4.30379e-10
3.07738e-10
2.40982e-10
2.0123e-10
1.75933e-10
1.59729e-10
1.4896e-10
1.42012e-10
1.36973e-10
1.33539e-10
1.3104e-10
1.29193e-10
1.27993e-10
1.27243e-10
1.26805e-10
1.26615e-10
1.26589e-10
1.26731e-10
1.27118e-10
1.27793e-10
1.28898e-10
1.30683e-10
1.33229e-10
1.36736e-10
1.42011e-10
1.49211e-10
1.60346e-10
1.76868e-10
2.02506e-10
2.42691e-10
3.10324e-10
4.34512e-10
6.7557e-10
1.17538e-09
2.17003e-09
3.9703e-09
6.55328e-09
9.46735e-09
1.19848e-08
1.39135e-08
1.48293e-08
1.48073e-08
1.37628e-08
1.19335e-08
9.58467e-09
6.81442e-09
4.26077e-09
2.40432e-09
1.33354e-09
7.76267e-10
5.00129e-10
3.55815e-10
2.7731e-10
2.30564e-10
2.01986e-10
1.83338e-10
1.70173e-10
1.61329e-10
1.55374e-10
1.51404e-10
1.48566e-10
1.46603e-10
1.45255e-10
1.44409e-10
1.43919e-10
1.43703e-10
1.43669e-10
1.43827e-10
1.44266e-10
1.45038e-10
1.46289e-10
1.48157e-10
1.5104e-10
1.55096e-10
1.61328e-10
1.70473e-10
1.84082e-10
2.03101e-10
2.32096e-10
2.79335e-10
3.5893e-10
5.05181e-10
7.84203e-10
1.34708e-09
2.42649e-09
4.29155e-09
6.8459e-09
9.61046e-09
1.19492e-08
1.3771e-08
1.48174e-08
1.4738e-08
1.35844e-08
1.18704e-08
9.70714e-09
7.09949e-09
4.5919e-09
2.68199e-09
1.52752e-09
9.02896e-10
5.84522e-10
4.14456e-10
3.22018e-10
2.67701e-10
2.32886e-10
2.10573e-10
1.95132e-10
1.85654e-10
1.78906e-10
1.74411e-10
1.71131e-10
1.68867e-10
1.67229e-10
1.66201e-10
1.65609e-10
1.65342e-10
1.65299e-10
1.65489e-10
1.66018e-10
1.66962e-10
1.68484e-10
1.70653e-10
1.73971e-10
1.78564e-10
1.85633e-10
1.95479e-10
2.11462e-10
2.34233e-10
2.69536e-10
3.24422e-10
4.18178e-10
5.90612e-10
9.12474e-10
1.54268e-09
2.70578e-09
4.6234e-09
7.12975e-09
9.73143e-09
1.18842e-08
1.35908e-08
1.47459e-08
1.46107e-08
1.33607e-08
1.17774e-08
9.80571e-09
7.37398e-09
4.93071e-09
2.98162e-09
1.74648e-09
1.05192e-09
6.88784e-10
4.8813e-10
3.77011e-10
3.12465e-10
2.71511e-10
2.45379e-10
2.27605e-10
2.16234e-10
2.0806e-10
2.02684e-10
1.98725e-10
1.96002e-10
1.94008e-10
1.92755e-10
1.92035e-10
1.91704e-10
1.91648e-10
1.9188e-10
1.92521e-10
1.93678e-10
1.95536e-10
1.98156e-10
2.02157e-10
2.07644e-10
2.16207e-10
2.28011e-10
2.46444e-10
2.73168e-10
3.14703e-10
3.80085e-10
4.92608e-10
6.95986e-10
1.06431e-09
1.76334e-09
3.007e-09
4.96272e-09
7.40215e-09
9.82831e-09
1.17893e-08
1.33652e-08
1.46164e-08
1.44282e-08
1.31092e-08
1.16548e-08
9.88031e-09
7.63404e-09
5.27366e-09
3.30162e-09
1.99113e-09
1.22845e-09
8.10787e-10
5.79227e-10
4.47538e-10
3.67451e-10
3.21032e-10
2.89121e-10
2.67757e-10
2.53791e-10
2.43921e-10
2.37439e-10
2.32612e-10
2.29315e-10
2.26878e-10
2.25352e-10
2.24471e-10
2.2406e-10
2.23988e-10
2.24271e-10
2.25054e-10
2.26472e-10
2.28746e-10
2.31936e-10
2.36802e-10
2.43411e-10
2.53763e-10
2.68237e-10
2.904e-10
3.23065e-10
3.70154e-10
4.51266e-10
5.84481e-10
8.18358e-10
1.23853e-09
2.0097e-09
3.32841e-09
5.30595e-09
7.665e-09
9.90091e-09
1.16647e-08
1.31126e-08
1.44317e-08
1.4192e-08
1.28293e-08
1.15027e-08
9.92493e-09
7.8754e-09
5.61677e-09
3.63969e-09
2.26157e-09
1.42596e-09
9.53874e-10
6.83763e-10
5.34301e-10
4.36713e-10
3.78492e-10
3.43088e-10
3.17457e-10
3.00062e-10
2.88211e-10
2.80359e-10
2.74445e-10
2.70445e-10
2.67466e-10
2.65612e-10
2.64528e-10
2.64018e-10
2.63925e-10
2.64271e-10
2.65232e-10
2.66966e-10
2.69746e-10
2.73644e-10
2.7958e-10
2.87594e-10
3.00031e-10
3.18015e-10
3.44634e-10
3.80959e-10
4.40119e-10
5.38715e-10
6.89843e-10
9.62383e-10
1.43863e-09
2.28185e-09
3.66772e-09
5.64904e-09
7.90337e-09
9.94356e-09
1.15107e-08
1.28312e-08
1.41936e-08
1.39084e-08
1.2518e-08
1.13185e-08
9.94011e-09
8.09433e-09
5.95954e-09
3.99278e-09
2.55726e-09
1.6512e-09
1.12476e-09
8.14483e-10
6.34342e-10
5.23831e-10
4.50922e-10
4.05656e-10
3.75209e-10
3.57248e-10
3.43059e-10
3.33494e-10
3.26255e-10
3.21413e-10
3.17782e-10
3.15543e-10
3.1421e-10
3.13576e-10
3.13457e-10
3.13879e-10
3.15057e-10
3.17168e-10
3.20552e-10
3.25309e-10
3.32539e-10
3.42299e-10
3.5721e-10
3.75864e-10
4.0753e-10
4.54048e-10
5.27938e-10
6.39514e-10
8.21727e-10
1.13455e-09
1.66618e-09
2.5792e-09
4.02185e-09
5.99123e-09
8.12335e-09
9.95668e-09
1.13248e-08
1.25178e-08
1.3908e-08
1.35795e-08
1.21807e-08
1.11097e-08
9.92459e-09
8.28734e-09
6.28942e-09
4.35726e-09
2.87684e-09
1.90426e-09
1.31819e-09
9.63572e-10
7.568e-10
6.24066e-10
5.42237e-10
4.86011e-10
4.4752e-10
4.23826e-10
4.06557e-10
3.95013e-10
3.86325e-10
3.80544e-10
3.76185e-10
3.73528e-10
3.7191e-10
3.71134e-10
3.70984e-10
3.71491e-10
3.72919e-10
3.75442e-10
3.79495e-10
3.85212e-10
3.9387e-10
4.05627e-10
4.23782e-10
4.48407e-10
4.88377e-10
5.4598e-10
6.28951e-10
7.63171e-10
9.71957e-10
1.32957e-09
1.9212e-09
2.90034e-09
4.3872e-09
6.32032e-09
8.31344e-09
9.93896e-09
1.11139e-08
1.2179e-08
1.35773e-08
1.32103e-08
1.18185e-08
1.0869e-08
9.87744e-09
8.4512e-09
6.60543e-09
4.72825e-09
3.2181e-09
2.18504e-09
1.54011e-09
1.13869e-09
8.99879e-10
7.46028e-10
6.47231e-10
5.85727e-10
5.3997e-10
5.10642e-10
4.88048e-10
4.73661e-10
4.62799e-10
4.55482e-10
4.49937e-10
4.46575e-10
4.44479e-10
4.43469e-10
4.43275e-10
4.43935e-10
4.45791e-10
4.49009e-10
4.54161e-10
4.61408e-10
4.72232e-10
4.86886e-10
5.10582e-10
5.41083e-10
5.88631e-10
6.51603e-10
7.52151e-10
9.07294e-10
1.14839e-09
1.55349e-09
2.2038e-09
3.243e-09
4.75871e-09
6.63471e-09
8.47468e-09
9.88951e-09
1.08717e-08
1.18152e-08
1.32062e-08
1.28046e-08
1.14249e-08
1.06074e-08
9.79814e-09
8.58291e-09
6.90243e-09
5.10077e-09
3.57865e-09
2.49274e-09
1.79121e-09
1.34218e-09
1.06792e-09
8.90646e-10
7.7704e-10
6.99994e-10
6.4553e-10
6.11242e-10
5.8888e-10
5.72315e-10
5.5953e-10
5.50801e-10
5.44192e-10
5.40215e-10
5.3768e-10
5.36444e-10
5.36198e-10
5.36987e-10
5.39233e-10
5.43062e-10
5.49191e-10
5.57864e-10
5.70575e-10
5.87478e-10
6.11167e-10
6.46866e-10
7.03531e-10
7.8229e-10
8.97818e-10
1.07654e-09
1.35334e-09
1.80648e-09
2.51325e-09
3.60534e-09
5.13144e-09
6.93263e-09
8.60488e-09
9.80783e-09
1.0608e-08
1.14199e-08
1.27987e-08
1.23671e-08
1.10213e-08
1.03215e-08
9.68655e-09
8.67978e-09
7.17582e-09
5.4691e-09
3.95237e-09
2.8256e-09
2.07155e-09
1.57588e-09
1.26377e-09
1.06103e-09
9.27577e-10
8.37327e-10
7.7554e-10
7.34622e-10
7.05098e-10
6.85247e-10
6.70241e-10
6.59937e-10
6.52141e-10
6.47472e-10
6.44452e-10
6.42961e-10
6.42656e-10
6.43587e-10
6.46273e-10
6.50778e-10
6.58012e-10
6.68262e-10
6.83196e-10
7.0337e-10
7.34613e-10
7.77211e-10
8.41581e-10
9.33661e-10
1.06942e-09
1.27376e-09
1.58906e-09
2.08866e-09
2.84776e-09
3.97995e-09
5.49964e-09
7.20341e-09
8.69908e-09
9.69378e-09
1.03201e-08
1.10145e-08
1.23596e-08
1.18997e-08
1.05959e-08
1.00131e-08
9.54192e-09
8.73985e-09
7.41995e-09
5.82716e-09
4.33741e-09
3.18078e-09
2.38033e-09
1.83906e-09
1.48997e-09
1.25965e-09
1.1052e-09
1.00016e-09
9.27771e-10
8.80427e-10
8.45035e-10
8.21218e-10
8.0363e-10
7.91553e-10
7.82382e-10
7.76903e-10
7.7334e-10
7.71548e-10
7.71172e-10
7.72265e-10
7.75463e-10
7.80756e-10
7.89245e-10
8.01328e-10
8.18858e-10
8.43011e-10
8.80433e-10
9.29807e-10
1.00509e-09
1.11231e-09
1.26944e-09
1.50153e-09
1.8539e-09
2.39921e-09
3.20446e-09
4.36597e-09
5.85722e-09
7.44557e-09
8.75614e-09
9.54702e-09
1.00099e-08
1.05883e-08
1.18908e-08
1.14129e-08
1.01616e-08
9.67201e-09
9.36752e-09
8.76122e-09
7.63079e-09
6.16845e-09
4.72323e-09
3.5543e-09
2.71564e-09
2.13238e-09
1.74679e-09
1.48782e-09
1.31282e-09
1.19096e-09
1.10783e-09
1.05293e-09
1.01119e-09
9.83105e-10
9.62746e-10
9.48773e-10
9.38028e-10
9.31614e-10
9.27446e-10
9.25305e-10
9.24844e-10
9.26118e-10
9.29906e-10
9.361e-10
9.46022e-10
9.60138e-10
9.80483e-10
1.00884e-09
1.05293e-09
1.11033e-09
1.19664e-09
1.32105e-09
1.49915e-09
1.76008e-09
2.14895e-09
2.73621e-09
3.57932e-09
4.75243e-09
6.19757e-09
7.65426e-09
8.77471e-09
9.37014e-09
9.66687e-09
1.01521e-08
1.14025e-08
1.09066e-08
9.71213e-09
9.31478e-09
9.16346e-09
8.74319e-09
7.8043e-09
6.48656e-09
5.10722e-09
3.9411e-09
3.07441e-09
2.45455e-09
2.03413e-09
1.74709e-09
1.55103e-09
1.41497e-09
1.31798e-09
1.25492e-09
1.2056e-09
1.17357e-09
1.15045e-09
1.13449e-09
1.12193e-09
1.11441e-09
1.10958e-09
1.10704e-09
1.10647e-09
1.10795e-09
1.11241e-09
1.11965e-09
1.13122e-09
1.14755e-09
1.17074e-09
1.2031e-09
1.25487e-09
1.32092e-09
1.4219e-09
1.56036e-09
1.76018e-09
2.04956e-09
2.47286e-09
3.09655e-09
3.96723e-09
5.13555e-09
6.51439e-09
7.82543e-09
8.75396e-09
9.16371e-09
9.30842e-09
9.70211e-09
1.08951e-08
1.03883e-08
9.25845e-09
8.95339e-09
8.92437e-09
8.68543e-09
7.9371e-09
6.77538e-09
5.47986e-09
4.33509e-09
3.45231e-09
2.8029e-09
2.35004e-09
2.03744e-09
1.82111e-09
1.66737e-09
1.55942e-09
1.48794e-09
1.43721e-09
1.39887e-09
1.37058e-09
1.35112e-09
1.33628e-09
1.32746e-09
1.3219e-09
1.31892e-09
1.31824e-09
1.31995e-09
1.32513e-09
1.33359e-09
1.34719e-09
1.36718e-09
1.39566e-09
1.4342e-09
1.48823e-09
1.56265e-09
1.67504e-09
1.8316e-09
2.05255e-09
2.36896e-09
2.8229e-09
3.47584e-09
4.36205e-09
5.50827e-09
6.80159e-09
7.95574e-09
8.69361e-09
8.92274e-09
8.94548e-09
9.24691e-09
1.03757e-08
9.86059e-09
8.79034e-09
8.56731e-09
8.66635e-09
8.58697e-09
8.02656e-09
7.02925e-09
5.83536e-09
4.72932e-09
3.84381e-09
3.17308e-09
2.70181e-09
2.3576e-09
2.12267e-09
1.95145e-09
1.83286e-09
1.75302e-09
1.69416e-09
1.65163e-09
1.62034e-09
1.59864e-09
1.58187e-09
1.57183e-09
1.56555e-09
1.56217e-09
1.56138e-09
1.56329e-09
1.56915e-09
1.57877e-09
1.59417e-09
1.61657e-09
1.64818e-09
1.69081e-09
1.75379e-09
1.83632e-09
1.9597e-09
2.1342e-09
2.375e-09
2.71652e-09
3.19448e-09
3.86852e-09
4.75679e-09
5.86325e-09
7.05354e-09
8.04255e-09
8.59285e-09
8.66262e-09
8.55857e-09
8.77788e-09
9.84712e-09
9.32693e-09
8.32894e-09
8.18115e-09
8.3739e-09
8.45118e-09
8.07092e-09
7.24311e-09
6.16628e-09
5.11618e-09
4.24232e-09
3.56026e-09
3.06838e-09
2.70655e-09
2.45512e-09
2.26537e-09
2.13763e-09
2.0503e-09
1.98244e-09
1.9356e-09
1.90132e-09
1.87749e-09
1.85903e-09
1.84787e-09
1.84093e-09
1.83724e-09
1.83632e-09
1.83841e-09
1.84485e-09
1.85553e-09
1.87242e-09
1.89714e-09
1.93186e-09
1.97881e-09
2.05119e-09
2.14152e-09
2.27425e-09
2.46802e-09
2.72616e-09
3.08652e-09
3.58294e-09
4.26793e-09
5.14382e-09
6.19319e-09
7.26521e-09
8.08414e-09
8.45464e-09
8.36817e-09
8.17111e-09
8.31553e-09
9.31275e-09
8.79346e-09
7.8659e-09
7.78615e-09
8.06484e-09
8.27851e-09
8.06933e-09
7.4127e-09
6.46556e-09
5.48768e-09
4.64032e-09
3.95817e-09
3.45484e-09
3.07834e-09
2.81254e-09
2.62157e-09
2.47768e-09
2.37784e-09
2.29993e-09
2.24973e-09
2.21277e-09
2.18713e-09
2.16725e-09
2.15512e-09
2.14758e-09
2.1437e-09
2.14266e-09
2.14489e-09
2.15173e-09
2.16336e-09
2.18148e-09
2.20824e-09
2.2455e-09
2.29609e-09
2.37894e-09
2.48205e-09
2.6313e-09
2.82775e-09
3.09846e-09
3.47482e-09
3.98188e-09
4.66652e-09
5.51512e-09
6.49113e-09
7.4324e-09
8.07975e-09
8.27804e-09
8.05807e-09
7.77496e-09
7.85227e-09
8.77871e-09
8.26273e-09
7.40744e-09
7.38537e-09
7.74269e-09
8.06761e-09
8.02187e-09
7.53475e-09
6.72678e-09
5.83575e-09
5.02966e-09
4.35946e-09
3.85392e-09
3.46753e-09
3.191e-09
2.98894e-09
2.83801e-09
2.73236e-09
2.66189e-09
2.60764e-09
2.56632e-09
2.53757e-09
2.51512e-09
2.50125e-09
2.49257e-09
2.48827e-09
2.48705e-09
2.4896e-09
2.49727e-09
2.51063e-09
2.53101e-09
2.56129e-09
2.60261e-09
2.65792e-09
2.7335e-09
2.84235e-09
3.00036e-09
3.20745e-09
3.48823e-09
3.87499e-09
4.38389e-09
5.05611e-09
5.86258e-09
6.75067e-09
7.55187e-09
8.0295e-09
8.06523e-09
7.7343e-09
7.37313e-09
7.39321e-09
8.24755e-09
7.73815e-09
6.95418e-09
6.98161e-09
7.40421e-09
7.83036e-09
7.92955e-09
7.60701e-09
6.94432e-09
6.15258e-09
5.40178e-09
4.75592e-09
4.25793e-09
3.86654e-09
3.58532e-09
3.37497e-09
3.21822e-09
3.10914e-09
3.03139e-09
2.97528e-09
2.93191e-09
2.9019e-09
2.87838e-09
2.86375e-09
2.85456e-09
2.85019e-09
2.84885e-09
2.85147e-09
2.85937e-09
2.8735e-09
2.89478e-09
2.92653e-09
2.96989e-09
3.02743e-09
3.10966e-09
3.22319e-09
3.3882e-09
3.60274e-09
3.88782e-09
4.27957e-09
4.78073e-09
5.42814e-09
6.17834e-09
6.96626e-09
7.62147e-09
7.93445e-09
7.8261e-09
7.39432e-09
6.96842e-09
6.93948e-09
7.72269e-09
7.22342e-09
6.50852e-09
6.57765e-09
7.05271e-09
7.55815e-09
7.79424e-09
7.62843e-09
7.11363e-09
6.43341e-09
5.7481e-09
5.13885e-09
4.65591e-09
4.2703e-09
3.98816e-09
3.77314e-09
3.61217e-09
3.50196e-09
3.41946e-09
3.36145e-09
3.31647e-09
3.28546e-09
3.26108e-09
3.24591e-09
3.23632e-09
3.23187e-09
3.23042e-09
3.23308e-09
3.24115e-09
3.25586e-09
3.2778e-09
3.31079e-09
3.35586e-09
3.41522e-09
3.50199e-09
3.6176e-09
3.78854e-09
4.00602e-09
4.29194e-09
4.67802e-09
5.16368e-09
5.77399e-09
6.45792e-09
7.13338e-09
7.64015e-09
7.7965e-09
7.55225e-09
7.0415e-09
6.56362e-09
6.49347e-09
7.2078e-09
6.72102e-09
6.06317e-09
6.17617e-09
6.69172e-09
7.2677e-09
7.61589e-09
7.59905e-09
7.2313e-09
6.66746e-09
6.06038e-09
5.49947e-09
5.04122e-09
4.66788e-09
4.38956e-09
4.17695e-09
4.0133e-09
3.90335e-09
3.81856e-09
3.75953e-09
3.71344e-09
3.68189e-09
3.65697e-09
3.64151e-09
3.63164e-09
3.62711e-09
3.62557e-09
3.62821e-09
3.6364e-09
3.65147e-09
3.67384e-09
3.70761e-09
3.75358e-09
3.81411e-09
3.90305e-09
4.01948e-09
4.1935e-09
4.40787e-09
4.68986e-09
5.06338e-09
5.52396e-09
6.08524e-09
6.69022e-09
7.24868e-09
7.60806e-09
7.61559e-09
7.26011e-09
6.67948e-09
6.16141e-09
6.04788e-09
6.70534e-09
6.23342e-09
5.6303e-09
5.77975e-09
6.32439e-09
6.95582e-09
7.40272e-09
7.52006e-09
7.29529e-09
6.85191e-09
6.33547e-09
5.82923e-09
5.4047e-09
5.05033e-09
4.78225e-09
4.57563e-09
4.41322e-09
4.30472e-09
4.22032e-09
4.16149e-09
4.11508e-09
4.08344e-09
4.05844e-09
4.04291e-09
4.03295e-09
4.02836e-09
4.02673e-09
4.02931e-09
4.03752e-09
4.05268e-09
4.07515e-09
4.10913e-09
4.15492e-09
4.216e-09
4.30466e-09
4.42005e-09
4.59263e-09
4.80059e-09
5.07248e-09
5.42651e-09
5.85306e-09
6.35878e-09
6.87276e-09
7.3102e-09
7.52642e-09
7.40037e-09
6.94676e-09
6.31141e-09
5.76438e-09
5.61485e-09
6.21778e-09
5.762e-09
5.213e-09
5.37981e-09
5.95367e-09
6.62647e-09
7.1564e-09
7.39368e-09
7.30493e-09
6.9829e-09
6.55948e-09
6.12011e-09
5.73738e-09
5.40876e-09
5.15686e-09
4.95957e-09
4.80291e-09
4.69711e-09
4.61583e-09
4.55809e-09
4.51239e-09
4.48133e-09
4.4567e-09
4.44143e-09
4.43158e-09
4.42699e-09
4.42531e-09
4.42775e-09
4.43585e-09
4.45077e-09
4.47289e-09
4.50629e-09
4.55104e-09
4.61155e-09
4.69789e-09
4.80994e-09
4.97662e-09
5.17478e-09
5.43083e-09
5.75845e-09
6.14299e-09
6.58097e-09
7.00163e-09
7.3173e-09
7.3975e-09
7.15211e-09
6.61618e-09
5.94017e-09
5.36393e-09
5.19833e-09
5.74637e-09
5.30805e-09
4.81541e-09
4.99104e-09
5.58231e-09
6.2836e-09
6.88096e-09
7.22282e-09
7.2609e-09
7.05808e-09
6.73142e-09
6.36489e-09
6.03084e-09
5.7348e-09
5.50333e-09
5.32084e-09
5.17198e-09
5.07148e-09
4.99523e-09
4.93972e-09
4.896e-09
4.86615e-09
4.8424e-09
4.82772e-09
4.8182e-09
4.8137e-09
4.81199e-09
4.81424e-09
4.82206e-09
4.8364e-09
4.85767e-09
4.8897e-09
4.93241e-09
4.99092e-09
5.07293e-09
5.17919e-09
5.33756e-09
5.52048e-09
5.75646e-09
6.05087e-09
6.38648e-09
6.7509e-09
7.07452e-09
7.27071e-09
7.22426e-09
6.87481e-09
6.27235e-09
5.56834e-09
4.97572e-09
4.80064e-09
5.2929e-09
4.87554e-09
4.43291e-09
4.62213e-09
5.21308e-09
5.9311e-09
6.58086e-09
7.01199e-09
7.16512e-09
7.07659e-09
6.84769e-09
6.55784e-09
6.27758e-09
6.01984e-09
5.81434e-09
5.64877e-09
5.51203e-09
5.41858e-09
5.34898e-09
5.29705e-09
5.25623e-09
5.22835e-09
5.20599e-09
5.19224e-09
5.18326e-09
5.17896e-09
5.17726e-09
5.17925e-09
5.18661e-09
5.20005e-09
5.21994e-09
5.25005e-09
5.28934e-09
5.34399e-09
5.42067e-09
5.51899e-09
5.66548e-09
5.83024e-09
6.04055e-09
6.29636e-09
6.57782e-09
6.86485e-09
7.09062e-09
7.17239e-09
7.01125e-09
6.57298e-09
5.91915e-09
5.19847e-09
4.60652e-09
4.41809e-09
4.86071e-09
4.46341e-09
4.06688e-09
4.26471e-09
4.84919e-09
5.57268e-09
6.26076e-09
6.76539e-09
7.02057e-09
7.03918e-09
6.90633e-09
6.69484e-09
6.47186e-09
6.25625e-09
6.08076e-09
5.93627e-09
5.81436e-09
5.72996e-09
5.66811e-09
5.62175e-09
5.58405e-09
5.5587e-09
5.53825e-09
5.52574e-09
5.51749e-09
5.51351e-09
5.51184e-09
5.51352e-09
5.52023e-09
5.53247e-09
5.55061e-09
5.57842e-09
5.61526e-09
5.66556e-09
5.73216e-09
5.82104e-09
5.95199e-09
6.09611e-09
6.27549e-09
6.48914e-09
6.71297e-09
6.92085e-09
7.05064e-09
7.02542e-09
6.76267e-09
6.25126e-09
5.56023e-09
4.8343e-09
4.24918e-09
4.0522e-09
4.44894e-09
5.90374e-09
5.87096e-09
5.84877e-09
5.83066e-09
5.81966e-09
5.8123e-09
5.80874e-09
5.80714e-09
5.80846e-09
5.81435e-09
5.82507e-09
5.84109e-09
5.86564e-09
5.89747e-09
5.94156e-09
5.99969e-09
6.07741e-09
6.18929e-09
6.31091e-09
6.45666e-09
6.62516e-09
6.7896e-09
6.91868e-09
6.95671e-09
6.83219e-09
6.48352e-09
5.91431e-09
5.19901e-09
4.47799e-09
3.90514e-09
3.70395e-09
4.05728e-09
6.07047e-09
6.08399e-09
6.10472e-09
6.13102e-09
6.16828e-09
6.21636e-09
6.28189e-09
6.37279e-09
6.4695e-09
6.58014e-09
6.70212e-09
6.80697e-09
6.85979e-09
6.81219e-09
6.60104e-09
6.17909e-09
5.56675e-09
4.83901e-09
4.13133e-09
3.5756e-09
3.37386e-09
3.68871e-09
6.74671e-09
6.61773e-09
6.33577e-09
5.85469e-09
5.2131e-09
4.4827e-09
3.79567e-09
3.26145e-09
3.06214e-09
3.34229e-09
)
;

boundaryField
{
    fuel
    {
        type            fixedValue;
        value           nonuniform 0();
    }
    wall
    {
        type            zeroGradient;
    }
    outlet
    {
        type            zeroGradient;
    }
    frontAndBack
    {
        type            empty;
    }
    procBoundary0to1
    {
        type            processor;
        value           nonuniform List<scalar> 
50
(
1.00602e-08
1.17039e-08
9.69934e-09
6.30657e-09
3.14797e-09
1.3856e-09
6.44763e-10
3.58556e-10
2.37249e-10
1.71321e-10
1.38081e-10
1.1584e-10
1.00045e-10
8.8589e-11
8.02234e-11
7.32684e-11
6.8945e-11
6.61649e-11
6.42876e-11
6.32386e-11
6.25243e-11
6.20314e-11
6.17143e-11
6.15378e-11
6.14599e-11
6.14579e-11
6.15199e-11
6.16567e-11
6.19257e-11
6.23586e-11
6.30805e-11
6.42473e-11
6.61097e-11
6.89496e-11
7.33673e-11
8.03819e-11
8.88205e-11
1.00362e-10
1.1626e-10
1.38611e-10
1.72109e-10
2.38707e-10
3.60947e-10
6.50642e-10
1.39783e-09
3.17012e-09
6.33539e-09
9.72799e-09
1.17318e-08
1.00885e-08
)
;
    }
    procBoundary0to2
    {
        type            processor;
        value           nonuniform List<scalar> 
53
(
4.07134e-09
3.71814e-09
3.91966e-09
4.49288e-09
5.21181e-09
5.92529e-09
6.4879e-09
6.82972e-09
6.94786e-09
6.90698e-09
6.77335e-09
6.6095e-09
6.43902e-09
6.29583e-09
6.17502e-09
6.07104e-09
5.99747e-09
5.9442e-09
5.9442e-09
6.13679e-09
6.10957e-09
6.09093e-09
6.07553e-09
6.06627e-09
6.05996e-09
6.05691e-09
6.05542e-09
6.05634e-09
6.06127e-09
6.06127e-09
6.26248e-09
6.27323e-09
6.28984e-09
6.31031e-09
6.34013e-09
6.3772e-09
6.42912e-09
6.49806e-09
6.56912e-09
6.64397e-09
6.7191e-09
6.76633e-09
6.76633e-09
6.58371e-09
6.38569e-09
6.04219e-09
5.51542e-09
4.85554e-09
4.1353e-09
3.47165e-09
2.96321e-09
2.76905e-09
3.01788e-09
)
;
    }
}


// ************************************************************************* //
