/*--------------------------------*- C++ -*----------------------------------*\
| =========                 |                                                 |
| \\      /  F ield         | OpenFOAM: The Open Source CFD Toolbox           |
|  \\    /   O peration     | Version:  dev                                   |
|   \\  /    A nd           | Web:      www.OpenFOAM.org                      |
|    \\/     M anipulation  |                                                 |
\*---------------------------------------------------------------------------*/
FoamFile
{
    version     2.0;
    format      ascii;
    class       volScalarField;
    location    "0.005";
    object      A2R5;
}
// * * * * * * * * * * * * * * * * * * * * * * * * * * * * * * * * * * * * * //

dimensions      [0 0 0 0 0 0 0];

internalField   nonuniform List<scalar> 
250
(
1.64763e-09
1.63084e-09
1.65891e-09
1.60255e-09
1.57113e-09
1.37785e-09
1.04972e-09
6.28577e-10
2.72442e-10
7.2192e-11
1.11291e-09
1.10187e-09
1.11755e-09
1.07772e-09
1.04984e-09
9.24147e-10
7.20679e-10
4.38626e-10
1.93293e-10
5.1145e-11
3.55917e-11
1.35816e-10
2.99401e-10
4.73664e-10
5.9994e-10
6.91326e-10
7.20758e-10
7.48837e-10
7.39485e-10
7.46418e-10
7.45862e-10
7.39777e-10
7.46603e-10
7.18497e-10
6.88419e-10
5.97479e-10
4.71471e-10
2.9685e-10
1.35054e-10
3.54206e-11
2.39323e-11
9.01296e-11
2.04743e-10
3.28055e-10
4.17923e-10
4.57677e-10
4.69551e-10
4.84455e-10
4.79869e-10
4.84226e-10
4.84007e-10
4.79024e-10
4.83431e-10
4.68317e-10
4.55951e-10
4.1615e-10
3.26519e-10
2.03659e-10
8.97843e-11
2.38382e-11
1.5801e-11
6.08038e-11
1.37429e-10
2.21789e-10
2.8672e-10
3.19857e-10
3.29551e-10
3.39665e-10
3.36922e-10
3.39989e-10
3.3981e-10
3.35899e-10
3.38927e-10
3.28616e-10
3.18575e-10
2.85457e-10
2.20845e-10
1.36856e-10
6.05692e-11
1.57528e-11
1.01251e-11
3.9382e-11
8.99983e-11
1.47503e-10
1.91486e-10
2.15815e-10
2.24183e-10
2.31589e-10
2.30064e-10
2.32103e-10
2.31971e-10
2.29339e-10
2.31055e-10
2.2348e-10
2.14862e-10
1.90637e-10
1.46956e-10
8.96128e-11
3.92478e-11
1.00957e-11
6.27653e-12
2.36102e-11
5.42953e-11
9.28907e-11
1.25069e-10
1.42747e-10
1.49432e-10
1.54797e-10
1.53965e-10
1.55302e-10
1.55227e-10
1.53558e-10
1.54434e-10
1.48925e-10
1.42028e-10
1.24484e-10
9.24817e-11
5.40811e-11
2.35393e-11
6.2604e-12
3.79053e-12
1.48068e-11
3.29142e-11
5.33824e-11
7.32819e-11
8.54596e-11
9.05335e-11
9.42962e-11
9.38478e-11
9.47339e-11
9.46722e-11
9.36168e-11
9.40459e-11
9.01681e-11
8.49108e-11
7.29044e-11
5.31788e-11
3.28069e-11
1.47662e-11
3.78221e-12
2.29139e-12
8.95463e-12
2.05403e-11
3.30248e-11
4.21282e-11
4.80883e-11
5.07754e-11
5.27263e-11
5.25105e-11
5.29589e-11
5.29418e-11
5.24207e-11
5.26115e-11
5.05906e-11
4.79315e-11
4.19503e-11
3.29047e-11
2.04782e-11
8.93228e-12
2.28694e-12
1.3285e-12
5.12011e-12
1.16069e-11
1.93356e-11
2.60831e-11
2.99867e-11
3.15994e-11
3.2743e-11
3.26483e-11
3.28915e-11
3.28878e-11
3.26068e-11
3.2679e-11
3.14885e-11
2.99143e-11
2.5979e-11
1.92674e-11
1.15744e-11
5.10874e-12
1.32634e-12
7.48815e-13
2.93374e-12
6.8947e-12
1.13515e-11
1.46969e-11
1.69804e-11
1.80044e-11
1.86752e-11
1.86462e-11
1.87851e-11
1.87858e-11
1.86244e-11
1.86387e-11
1.79373e-11
1.69161e-11
1.46414e-11
1.13162e-11
6.87518e-12
2.9277e-12
7.47745e-13
4.1407e-13
1.65423e-12
4.03304e-12
6.53947e-12
8.78331e-12
1.00617e-11
1.06363e-11
1.0965e-11
1.0963e-11
1.1031e-11
1.10342e-11
1.09554e-11
1.09469e-11
1.05998e-11
1.00225e-11
8.74409e-12
6.52142e-12
4.02234e-12
1.65129e-12
4.13613e-13
2.22574e-13
8.95169e-13
2.14797e-12
3.40225e-12
4.73811e-12
5.55059e-12
5.96361e-12
6.18418e-12
6.19497e-12
6.24108e-12
6.24367e-12
6.19011e-12
6.17367e-12
5.94263e-12
5.52479e-12
4.71312e-12
3.39439e-12
2.1433e-12
8.93951e-13
2.22395e-13
3.14349e-12
3.12031e-12
3.10779e-12
2.99888e-12
2.79373e-12
2.40388e-12
1.73809e-12
1.10873e-12
4.67895e-13
1.16139e-13
)
;

boundaryField
{
    fuel
    {
        type            fixedValue;
        value           nonuniform 0();
    }
    wall
    {
        type            zeroGradient;
    }
    outlet
    {
        type            zeroGradient;
    }
    frontAndBack
    {
        type            empty;
    }
    procBoundary0to1
    {
        type            processor;
        value           nonuniform List<scalar> 
21
(
1.16215e-13
4.68352e-13
1.11047e-12
1.74129e-12
2.41594e-12
2.80665e-12
3.00853e-12
3.11225e-12
3.12184e-12
3.14174e-12
3.14174e-12
1.55563e-12
1.54664e-12
1.53803e-12
1.48815e-12
1.38602e-12
1.20094e-12
8.71505e-13
5.57844e-13
2.37589e-13
5.89565e-14
)
;
    }
    procBoundary0to2
    {
        type            processor;
        value           nonuniform List<scalar> 
12
(
1.64362e-09
5.14062e-11
1.94268e-10
4.38126e-10
7.23129e-10
9.27736e-10
1.05752e-09
1.08437e-09
1.12652e-09
1.10606e-09
1.1175e-09
1.1175e-09
)
;
    }
    procBoundary0to3
    {
        type            processor;
        value           nonuniform List<scalar> 10(2.18841e-09 2.17029e-09 2.2042e-09 2.14728e-09 2.11316e-09 1.93078e-09 1.52333e-09 8.67686e-10 3.75242e-10 9.935e-11);
    }
}


// ************************************************************************* //
