/*--------------------------------*- C++ -*----------------------------------*\
| =========                 |                                                 |
| \\      /  F ield         | OpenFOAM: The Open Source CFD Toolbox           |
|  \\    /   O peration     | Version:  dev                                   |
|   \\  /    A nd           | Web:      www.OpenFOAM.org                      |
|    \\/     M anipulation  |                                                 |
\*---------------------------------------------------------------------------*/
FoamFile
{
    version     2.0;
    format      ascii;
    class       volScalarField;
    location    "0.005";
    object      A2R5;
}
// * * * * * * * * * * * * * * * * * * * * * * * * * * * * * * * * * * * * * //

dimensions      [0 0 0 0 0 0 0];

internalField   nonuniform List<scalar> 
250
(
1.62854e-09
1.62128e-09
1.61378e-09
1.59625e-09
1.57452e-09
1.51502e-09
1.37314e-09
1.07237e-09
6.54289e-10
3.11378e-10
1.10072e-09
1.09482e-09
1.08893e-09
1.07682e-09
1.0589e-09
1.01333e-09
9.21208e-10
7.32678e-10
4.50863e-10
2.19231e-10
1.4754e-10
3.09723e-10
4.74221e-10
5.9094e-10
6.56016e-10
6.95964e-10
7.10337e-10
7.2209e-10
7.31528e-10
7.36368e-10
7.40213e-10
7.35528e-10
7.29908e-10
7.20396e-10
7.04705e-10
6.63021e-10
5.95336e-10
4.76796e-10
3.11453e-10
1.48494e-10
9.97681e-11
2.10264e-10
3.28375e-10
4.12432e-10
4.43549e-10
4.58537e-10
4.65381e-10
4.70179e-10
4.75053e-10
4.77809e-10
4.79712e-10
4.7789e-10
4.75356e-10
4.70856e-10
4.63519e-10
4.47718e-10
4.15282e-10
3.30084e-10
2.113e-10
1.00361e-10
6.64492e-11
1.40548e-10
2.22316e-10
2.82518e-10
3.09837e-10
3.21879e-10
3.27168e-10
3.30289e-10
3.33408e-10
3.35255e-10
3.36478e-10
3.35516e-10
3.3387e-10
3.30946e-10
3.25417e-10
3.12382e-10
2.8442e-10
2.23362e-10
1.41212e-10
6.68156e-11
4.15816e-11
9.0815e-11
1.48569e-10
1.87676e-10
2.08903e-10
2.18647e-10
2.22973e-10
2.2551e-10
2.27731e-10
2.28994e-10
2.29803e-10
2.29049e-10
2.27651e-10
2.25502e-10
2.20852e-10
2.10585e-10
1.89093e-10
1.49271e-10
9.1243e-11
4.18123e-11
2.51689e-11
5.41513e-11
9.24331e-11
1.22473e-10
1.38124e-10
1.45348e-10
1.48761e-10
1.50844e-10
1.52496e-10
1.53364e-10
1.53926e-10
1.53269e-10
1.52049e-10
1.50462e-10
1.46871e-10
1.39219e-10
1.23435e-10
9.29408e-11
5.44246e-11
2.53046e-11
1.57246e-11
3.27346e-11
5.31623e-11
7.09442e-11
8.22854e-11
8.72409e-11
8.99683e-11
9.15293e-11
9.28144e-11
9.34519e-11
9.38228e-11
9.32723e-11
9.21946e-11
9.1043e-11
8.83204e-11
8.30007e-11
7.14966e-11
5.34552e-11
3.29004e-11
1.58089e-11
9.30247e-12
2.01473e-11
3.29026e-11
4.12297e-11
4.65492e-11
4.91549e-11
5.058e-11
5.13589e-11
5.20553e-11
5.2343e-11
5.2538e-11
5.22551e-11
5.17413e-11
5.11097e-11
4.96897e-11
4.68869e-11
4.15107e-11
3.30813e-11
2.02636e-11
9.35546e-12
5.3568e-12
1.14156e-11
1.93443e-11
2.5419e-11
2.90269e-11
3.06793e-11
3.15245e-11
3.19794e-11
3.24077e-11
3.25578e-11
3.26774e-11
3.25217e-11
3.22281e-11
3.18311e-11
3.09851e-11
2.92378e-11
2.56052e-11
1.94581e-11
1.14646e-11
5.38327e-12
3.07529e-12
6.78134e-12
1.14148e-11
1.42958e-11
1.6432e-11
1.74194e-11
1.79782e-11
1.82707e-11
1.85537e-11
1.86423e-11
1.87121e-11
1.86101e-11
1.83963e-11
1.81406e-11
1.75956e-11
1.65575e-11
1.44018e-11
1.14772e-11
6.8069e-12
3.09e-12
1.71543e-12
3.86104e-12
6.62615e-12
8.47141e-12
9.77866e-12
1.03063e-11
1.06105e-11
1.07819e-11
1.09445e-11
1.09927e-11
1.10319e-11
1.09732e-11
1.084e-11
1.06923e-11
1.03982e-11
9.85186e-12
8.53303e-12
6.66298e-12
3.87882e-12
1.72395e-12
9.20618e-13
2.02448e-12
3.44765e-12
4.51504e-12
5.38468e-12
5.74583e-12
5.96667e-12
6.08137e-12
6.18619e-12
6.21439e-12
6.23728e-12
6.20096e-12
6.11089e-12
6.01199e-12
5.80067e-12
5.42837e-12
4.554e-12
3.46171e-12
2.03362e-12
9.25103e-13
3.14808e-12
3.12861e-12
3.08128e-12
3.03344e-12
2.92909e-12
2.75282e-12
2.32775e-12
1.76107e-12
1.0432e-12
4.81423e-13
)
;

boundaryField
{
    fuel
    {
        type            fixedValue;
        value           nonuniform 0();
    }
    wall
    {
        type            zeroGradient;
    }
    outlet
    {
        type            zeroGradient;
    }
    frontAndBack
    {
        type            empty;
    }
    procBoundary0to1
    {
        type            processor;
        value           nonuniform List<scalar> 
21
(
4.79225e-13
1.03872e-12
1.75311e-12
2.31146e-12
2.73408e-12
2.90695e-12
3.01673e-12
3.07166e-12
3.12472e-12
3.13819e-12
3.13819e-12
1.56311e-12
1.55259e-12
1.5284e-12
1.50546e-12
1.45401e-12
1.3698e-12
1.16193e-12
8.80687e-13
5.17602e-13
2.43283e-13
)
;
    }
    procBoundary0to2
    {
        type            processor;
        value           nonuniform List<scalar> 
12
(
1.6154e-09
2.18227e-10
4.47564e-10
7.27335e-10
9.12814e-10
1.00014e-09
1.04392e-09
1.05897e-09
1.07348e-09
1.08707e-09
1.09548e-09
1.09548e-09
)
;
    }
    procBoundary0to3
    {
        type            processor;
        value           nonuniform List<scalar> 10(2.16915e-09 2.16426e-09 2.15548e-09 2.13646e-09 2.11618e-09 2.06319e-09 1.92215e-09 1.55329e-09 9.25543e-10 4.37383e-10);
    }
}


// ************************************************************************* //
