/*--------------------------------*- C++ -*----------------------------------*\
| =========                 |                                                 |
| \\      /  F ield         | OpenFOAM: The Open Source CFD Toolbox           |
|  \\    /   O peration     | Version:  dev                                   |
|   \\  /    A nd           | Web:      www.OpenFOAM.org                      |
|    \\/     M anipulation  |                                                 |
\*---------------------------------------------------------------------------*/
FoamFile
{
    version     2.0;
    format      ascii;
    class       volScalarField;
    location    "0.005";
    object      A2R5;
}
// * * * * * * * * * * * * * * * * * * * * * * * * * * * * * * * * * * * * * //

dimensions      [0 0 0 0 0 0 0];

internalField   nonuniform List<scalar> 
2014
(
1.05494e-07
1.08617e-07
1.01713e-07
8.83934e-08
7.16264e-08
5.62821e-08
4.45363e-08
3.6247e-08
3.0262e-08
2.55093e-08
2.2457e-08
2.00383e-08
1.81238e-08
1.66241e-08
1.54666e-08
1.44446e-08
1.37876e-08
1.33588e-08
1.30672e-08
1.28985e-08
1.27841e-08
1.27044e-08
1.26547e-08
1.26258e-08
1.26134e-08
1.26134e-08
1.26238e-08
1.26462e-08
1.26896e-08
1.27575e-08
1.28729e-08
1.30578e-08
1.33478e-08
1.37868e-08
1.44583e-08
1.54881e-08
1.6654e-08
1.8162e-08
2.00839e-08
2.25076e-08
2.55699e-08
3.03476e-08
3.63375e-08
4.46591e-08
5.64167e-08
7.17608e-08
8.85e-08
1.01788e-07
1.08677e-07
1.05572e-07
1.06708e-07
1.09145e-07
1.02167e-07
8.90834e-08
7.24747e-08
5.69835e-08
4.49287e-08
3.63928e-08
3.02125e-08
2.53788e-08
2.22877e-08
1.98513e-08
1.79381e-08
1.64574e-08
1.53295e-08
1.43377e-08
1.36958e-08
1.32771e-08
1.29949e-08
1.28282e-08
1.27149e-08
1.26359e-08
1.25866e-08
1.25578e-08
1.25456e-08
1.25456e-08
1.25559e-08
1.25785e-08
1.26217e-08
1.26893e-08
1.2803e-08
1.2984e-08
1.3266e-08
1.36953e-08
1.43515e-08
1.53517e-08
1.64882e-08
1.79774e-08
1.9898e-08
2.23399e-08
2.54407e-08
3.03002e-08
3.64881e-08
4.50535e-08
5.71222e-08
7.26104e-08
8.91868e-08
1.02237e-07
1.09196e-07
1.0678e-07
1.07793e-07
1.09466e-07
1.0245e-07
8.96988e-08
7.33685e-08
5.78083e-08
4.54746e-08
3.66874e-08
3.03019e-08
2.54076e-08
2.22532e-08
1.97915e-08
1.788e-08
1.64117e-08
1.53002e-08
1.4338e-08
1.37084e-08
1.32982e-08
1.30232e-08
1.28576e-08
1.2745e-08
1.26661e-08
1.26167e-08
1.25879e-08
1.25758e-08
1.25758e-08
1.25862e-08
1.2609e-08
1.26521e-08
1.27201e-08
1.28324e-08
1.30113e-08
1.32867e-08
1.3708e-08
1.4352e-08
1.53232e-08
1.64436e-08
1.79206e-08
1.98397e-08
2.23072e-08
2.54711e-08
3.03918e-08
3.67874e-08
4.56023e-08
5.79509e-08
7.35052e-08
8.97995e-08
1.02515e-07
1.09511e-07
1.07858e-07
1.08722e-07
1.09591e-07
1.02586e-07
9.02333e-08
7.42971e-08
5.87531e-08
4.61727e-08
3.71335e-08
3.05351e-08
2.5592e-08
2.23539e-08
1.98595e-08
1.79417e-08
1.64801e-08
1.53795e-08
1.44456e-08
1.38253e-08
1.34219e-08
1.31524e-08
1.29869e-08
1.28745e-08
1.27954e-08
1.27457e-08
1.27167e-08
1.27046e-08
1.27047e-08
1.27151e-08
1.27384e-08
1.27815e-08
1.28503e-08
1.29619e-08
1.31393e-08
1.341e-08
1.3825e-08
1.44597e-08
1.54034e-08
1.65134e-08
1.79839e-08
1.99094e-08
2.241e-08
2.56578e-08
3.06273e-08
3.7238e-08
4.63038e-08
5.88991e-08
7.44338e-08
9.03305e-08
1.02645e-07
1.09629e-07
1.0878e-07
1.09474e-07
1.09518e-07
1.02576e-07
9.06876e-08
7.52306e-08
5.98114e-08
4.70222e-08
3.77329e-08
3.09176e-08
2.59286e-08
2.25904e-08
2.00561e-08
1.8125e-08
1.66643e-08
1.55696e-08
1.46595e-08
1.40472e-08
1.36485e-08
1.33832e-08
1.32171e-08
1.31043e-08
1.30245e-08
1.29744e-08
1.29449e-08
1.29328e-08
1.29328e-08
1.29434e-08
1.29673e-08
1.30108e-08
1.30805e-08
1.31921e-08
1.33689e-08
1.36362e-08
1.40469e-08
1.46737e-08
1.55946e-08
1.66992e-08
1.81691e-08
2.01082e-08
2.26489e-08
2.59973e-08
3.10121e-08
3.7842e-08
4.71571e-08
5.99603e-08
7.53666e-08
9.07801e-08
1.0263e-07
1.09548e-07
1.09524e-07
1.10029e-07
1.09248e-07
1.02426e-07
9.10612e-08
7.61705e-08
6.09574e-08
4.80263e-08
3.84868e-08
3.14555e-08
2.64137e-08
2.29636e-08
2.03828e-08
1.84314e-08
1.69657e-08
1.58735e-08
1.49792e-08
1.43751e-08
1.3979e-08
1.37166e-08
1.35491e-08
1.34354e-08
1.33545e-08
1.33038e-08
1.32738e-08
1.32615e-08
1.32615e-08
1.32722e-08
1.32968e-08
1.33409e-08
1.34119e-08
1.35241e-08
1.37011e-08
1.39661e-08
1.43747e-08
1.49936e-08
1.58997e-08
1.70024e-08
1.84777e-08
2.04374e-08
2.30246e-08
2.64859e-08
3.15526e-08
3.86004e-08
4.81654e-08
6.11082e-08
7.63047e-08
9.11522e-08
1.02473e-07
1.09271e-07
1.10072e-07
1.10372e-07
1.08786e-07
1.02136e-07
9.13525e-08
7.70909e-08
6.21664e-08
4.91689e-08
3.93953e-08
3.21607e-08
2.70376e-08
2.34746e-08
2.08411e-08
1.88627e-08
1.73861e-08
1.6291e-08
1.54105e-08
1.48084e-08
1.44144e-08
1.4154e-08
1.39844e-08
1.38693e-08
1.3787e-08
1.37354e-08
1.37046e-08
1.36921e-08
1.3692e-08
1.37029e-08
1.37285e-08
1.37733e-08
1.38459e-08
1.39594e-08
1.41374e-08
1.4401e-08
1.4808e-08
1.5425e-08
1.63187e-08
1.7425e-08
1.89115e-08
2.08985e-08
2.35382e-08
2.71143e-08
3.22606e-08
3.9514e-08
4.93115e-08
6.23183e-08
7.7223e-08
9.14378e-08
1.02176e-07
1.08802e-07
1.10407e-07
1.1049e-07
1.08136e-07
1.01708e-07
9.15645e-08
7.79923e-08
6.34277e-08
5.04303e-08
4.04866e-08
3.3031e-08
2.78041e-08
2.41249e-08
2.14329e-08
1.94209e-08
1.79276e-08
1.68248e-08
1.5953e-08
1.5351e-08
1.49571e-08
1.46968e-08
1.45249e-08
1.44078e-08
1.43237e-08
1.4271e-08
1.42393e-08
1.42265e-08
1.42263e-08
1.42374e-08
1.4264e-08
1.43099e-08
1.43845e-08
1.44996e-08
1.46788e-08
1.4943e-08
1.53505e-08
1.59677e-08
1.68543e-08
1.79689e-08
1.94725e-08
2.14935e-08
2.41927e-08
2.78842e-08
3.31338e-08
4.06103e-08
5.05758e-08
6.358e-08
7.81208e-08
9.16441e-08
1.01742e-07
1.08144e-07
1.10517e-07
1.10375e-07
1.07302e-07
1.01145e-07
9.16841e-08
7.88635e-08
6.47302e-08
5.17961e-08
4.16981e-08
3.40653e-08
2.87133e-08
2.49193e-08
2.21601e-08
2.01083e-08
1.85926e-08
1.74779e-08
1.66087e-08
1.6005e-08
1.56081e-08
1.53473e-08
1.51727e-08
1.50532e-08
1.49668e-08
1.49127e-08
1.48799e-08
1.48667e-08
1.48663e-08
1.48777e-08
1.49054e-08
1.49528e-08
1.50299e-08
1.5147e-08
1.53281e-08
1.55934e-08
1.60045e-08
1.66236e-08
1.75093e-08
1.86365e-08
2.0163e-08
2.22243e-08
2.49911e-08
2.87978e-08
3.41716e-08
4.18257e-08
5.19442e-08
6.48822e-08
7.89882e-08
9.17578e-08
1.0117e-07
1.07302e-07
1.10393e-07
1.1002e-07
1.0629e-07
1.00447e-07
9.17129e-08
7.97033e-08
6.6067e-08
5.32556e-08
4.30443e-08
3.5264e-08
2.97692e-08
2.5858e-08
2.30247e-08
2.09274e-08
1.93837e-08
1.82527e-08
1.73803e-08
1.67732e-08
1.63697e-08
1.61076e-08
1.59304e-08
1.58082e-08
1.57187e-08
1.56627e-08
1.56288e-08
1.5615e-08
1.56144e-08
1.56262e-08
1.56551e-08
1.57043e-08
1.57845e-08
1.59039e-08
1.60871e-08
1.63541e-08
1.67728e-08
1.73956e-08
1.82861e-08
1.94304e-08
2.09856e-08
2.30927e-08
2.59341e-08
2.98586e-08
3.53742e-08
4.31758e-08
5.34057e-08
6.62171e-08
7.9821e-08
9.17798e-08
1.00463e-07
1.06281e-07
1.10029e-07
1.09422e-07
1.05056e-07
9.9576e-08
9.16453e-08
8.0488e-08
6.74158e-08
5.4797e-08
4.45165e-08
3.66045e-08
3.09745e-08
2.69413e-08
2.40284e-08
2.1881e-08
2.03034e-08
1.91519e-08
1.82706e-08
1.76593e-08
1.72442e-08
1.69792e-08
1.67999e-08
1.66755e-08
1.65821e-08
1.65235e-08
1.64882e-08
1.64738e-08
1.6473e-08
1.64851e-08
1.65155e-08
1.65671e-08
1.66511e-08
1.67723e-08
1.69575e-08
1.72278e-08
1.7659e-08
1.82866e-08
1.91877e-08
2.03533e-08
2.19428e-08
2.41005e-08
2.70221e-08
3.10692e-08
3.67184e-08
4.46515e-08
5.49485e-08
6.75643e-08
8.06006e-08
9.17045e-08
9.95831e-08
1.05041e-07
1.09422e-07
1.08579e-07
1.03699e-07
9.86118e-08
9.14751e-08
8.12139e-08
6.87713e-08
5.64071e-08
4.61047e-08
3.80835e-08
3.23218e-08
2.81697e-08
2.51716e-08
2.29724e-08
2.13548e-08
2.01793e-08
1.92815e-08
1.86679e-08
1.82553e-08
1.79756e-08
1.77808e-08
1.76583e-08
1.75598e-08
1.74979e-08
1.74611e-08
1.74458e-08
1.74448e-08
1.74573e-08
1.74893e-08
1.75439e-08
1.76328e-08
1.77511e-08
1.79513e-08
1.82373e-08
1.86673e-08
1.92987e-08
2.02176e-08
2.14081e-08
2.30381e-08
2.52478e-08
2.82558e-08
3.24224e-08
3.82014e-08
4.6243e-08
5.65594e-08
6.89155e-08
8.13205e-08
9.15259e-08
9.86069e-08
1.03675e-07
1.08569e-07
1.07494e-07
1.02173e-07
9.74886e-08
9.11887e-08
8.18684e-08
7.0112e-08
5.80716e-08
4.77974e-08
3.96933e-08
3.38073e-08
2.9538e-08
2.6455e-08
2.4202e-08
2.25412e-08
2.13419e-08
2.0465e-08
1.9865e-08
1.94322e-08
1.91332e-08
1.89182e-08
1.87597e-08
1.86551e-08
1.85894e-08
1.85506e-08
1.85343e-08
1.8533e-08
1.85461e-08
1.85799e-08
1.86381e-08
1.87328e-08
1.88864e-08
1.9107e-08
1.94128e-08
1.98642e-08
2.04833e-08
2.13827e-08
2.25981e-08
2.42719e-08
2.65355e-08
2.96296e-08
3.39149e-08
3.98158e-08
4.79386e-08
5.82239e-08
7.02527e-08
8.1968e-08
9.12312e-08
9.74884e-08
1.0214e-07
1.07474e-07
1.06151e-07
1.00484e-07
9.62284e-08
9.07915e-08
8.24408e-08
7.1425e-08
5.97746e-08
4.95818e-08
4.14238e-08
3.54263e-08
3.10414e-08
2.78776e-08
2.55651e-08
2.39152e-08
2.27073e-08
2.17792e-08
2.11194e-08
2.06673e-08
2.03592e-08
2.01404e-08
1.99876e-08
1.98821e-08
1.98157e-08
1.97767e-08
1.97602e-08
1.97585e-08
1.97715e-08
1.98059e-08
1.98655e-08
1.99617e-08
2.01074e-08
2.03314e-08
2.06468e-08
2.11186e-08
2.17988e-08
2.27511e-08
2.39753e-08
2.56393e-08
2.7962e-08
3.11387e-08
3.55418e-08
4.1552e-08
4.97254e-08
5.9926e-08
7.15606e-08
8.25311e-08
9.08242e-08
9.62184e-08
1.00442e-07
1.06121e-07
1.04592e-07
9.86377e-08
9.48543e-08
9.02688e-08
8.29118e-08
7.2692e-08
6.14987e-08
5.1443e-08
4.32623e-08
3.71738e-08
3.26734e-08
2.94386e-08
2.7107e-08
2.53771e-08
2.4124e-08
2.3173e-08
2.25466e-08
2.20967e-08
2.17903e-08
2.15683e-08
2.14131e-08
2.13011e-08
2.12302e-08
2.11891e-08
2.11712e-08
2.11691e-08
2.11828e-08
2.12191e-08
2.1283e-08
2.13856e-08
2.1534e-08
2.17604e-08
2.20745e-08
2.25446e-08
2.31934e-08
2.41706e-08
2.54411e-08
2.7185e-08
2.95267e-08
3.27759e-08
3.72969e-08
4.3399e-08
5.15884e-08
6.16484e-08
7.28215e-08
8.29929e-08
9.02913e-08
9.48321e-08
9.85871e-08
1.04552e-07
1.02805e-07
9.65512e-08
9.33412e-08
8.96133e-08
8.32705e-08
7.38945e-08
6.3225e-08
5.33645e-08
4.52086e-08
3.90936e-08
3.4488e-08
3.11361e-08
2.87531e-08
2.69989e-08
2.57339e-08
2.47891e-08
2.41477e-08
2.36789e-08
2.33632e-08
2.31314e-08
2.29691e-08
2.28505e-08
2.27751e-08
2.27316e-08
2.27123e-08
2.27097e-08
2.27241e-08
2.27625e-08
2.28307e-08
2.29399e-08
2.30953e-08
2.33317e-08
2.36553e-08
2.41454e-08
2.48104e-08
2.5783e-08
2.70676e-08
2.88361e-08
3.12343e-08
3.45964e-08
3.9223e-08
4.53659e-08
5.35111e-08
6.33723e-08
7.40169e-08
8.33412e-08
8.96251e-08
9.33074e-08
9.64914e-08
1.02756e-07
1.00802e-07
9.43803e-08
9.16899e-08
8.87965e-08
8.35027e-08
7.50141e-08
6.49331e-08
5.53277e-08
4.72798e-08
4.10896e-08
3.64648e-08
3.30477e-08
3.05307e-08
2.88261e-08
2.75143e-08
2.65489e-08
2.58814e-08
2.53963e-08
2.50707e-08
2.48279e-08
2.4658e-08
2.45329e-08
2.44531e-08
2.44072e-08
2.43865e-08
2.43834e-08
2.43985e-08
2.44389e-08
2.45114e-08
2.46272e-08
2.47902e-08
2.50374e-08
2.5371e-08
2.58792e-08
2.65707e-08
2.75654e-08
2.8899e-08
3.06181e-08
3.31514e-08
3.65766e-08
4.12105e-08
4.73953e-08
5.54743e-08
6.50767e-08
7.51284e-08
8.35667e-08
8.87984e-08
9.16446e-08
9.43177e-08
1.00742e-07
9.85781e-08
9.21007e-08
8.99019e-08
8.78566e-08
8.3594e-08
7.60317e-08
6.66016e-08
5.7312e-08
4.93628e-08
4.3168e-08
3.84582e-08
3.51044e-08
3.2485e-08
3.06751e-08
2.94291e-08
2.84481e-08
2.77449e-08
2.72479e-08
2.69128e-08
2.66586e-08
2.64817e-08
2.63503e-08
2.62666e-08
2.62181e-08
2.61959e-08
2.61923e-08
2.62081e-08
2.62505e-08
2.63271e-08
2.6449e-08
2.66196e-08
2.68775e-08
2.72214e-08
2.77425e-08
2.84699e-08
2.94821e-08
3.07518e-08
3.25802e-08
3.52112e-08
3.85721e-08
4.32876e-08
4.9492e-08
5.74579e-08
6.67403e-08
7.61368e-08
8.36461e-08
8.78469e-08
8.98454e-08
9.20315e-08
9.85101e-08
9.61731e-08
8.96761e-08
8.79421e-08
8.67645e-08
8.35311e-08
7.69383e-08
6.8208e-08
5.92961e-08
5.15021e-08
4.53691e-08
4.06463e-08
3.71746e-08
3.46208e-08
3.26958e-08
3.1352e-08
3.03591e-08
2.97366e-08
2.92333e-08
2.88886e-08
2.86234e-08
2.84407e-08
2.83037e-08
2.82168e-08
2.81659e-08
2.81422e-08
2.8138e-08
2.81544e-08
2.81988e-08
2.82788e-08
2.84061e-08
2.85837e-08
2.88512e-08
2.92051e-08
2.97338e-08
3.03809e-08
3.14072e-08
3.27798e-08
3.472e-08
3.72836e-08
4.07649e-08
4.54903e-08
5.16396e-08
5.94403e-08
6.83406e-08
7.70325e-08
8.357e-08
8.6743e-08
8.78796e-08
8.95949e-08
9.60956e-08
9.35833e-08
8.71372e-08
8.58878e-08
8.55157e-08
8.33015e-08
7.76944e-08
6.97297e-08
6.1257e-08
5.36698e-08
4.75828e-08
4.28402e-08
3.93858e-08
3.67525e-08
3.48979e-08
3.34818e-08
3.24218e-08
3.17323e-08
3.12134e-08
3.0859e-08
3.05856e-08
3.03987e-08
3.02573e-08
3.01683e-08
3.01152e-08
3.00902e-08
3.00855e-08
3.01022e-08
3.01484e-08
3.02308e-08
3.03621e-08
3.05452e-08
3.08201e-08
3.11833e-08
3.17291e-08
3.24465e-08
3.35411e-08
3.49848e-08
3.68551e-08
3.95022e-08
4.2961e-08
4.7708e-08
5.38104e-08
6.13982e-08
6.98554e-08
7.77772e-08
8.33282e-08
8.54821e-08
8.58143e-08
8.70497e-08
9.34987e-08
9.08299e-08
8.44831e-08
8.36591e-08
8.4107e-08
8.28941e-08
7.82917e-08
7.11415e-08
6.31705e-08
5.58419e-08
4.9846e-08
4.51098e-08
4.16414e-08
3.90024e-08
3.70848e-08
3.57565e-08
3.46897e-08
3.39679e-08
3.33946e-08
3.30198e-08
3.27282e-08
3.25273e-08
3.23739e-08
3.22777e-08
3.2219e-08
3.21909e-08
3.21855e-08
3.2204e-08
3.22552e-08
3.23451e-08
3.24877e-08
3.26853e-08
3.29781e-08
3.3362e-08
3.39638e-08
3.47159e-08
3.58185e-08
3.71732e-08
3.91138e-08
4.17599e-08
4.52331e-08
4.99779e-08
5.59831e-08
6.33075e-08
7.12587e-08
7.83616e-08
8.29072e-08
8.4061e-08
8.35798e-08
8.43874e-08
9.07367e-08
8.79245e-08
8.16579e-08
8.13516e-08
8.2537e-08
8.22998e-08
7.87123e-08
7.24201e-08
6.50154e-08
5.79942e-08
5.21341e-08
4.74387e-08
4.39581e-08
4.13211e-08
3.94209e-08
3.80021e-08
3.69169e-08
3.61929e-08
3.57057e-08
3.53405e-08
3.50486e-08
3.48454e-08
3.46898e-08
3.45929e-08
3.45321e-08
3.45027e-08
3.44967e-08
3.45154e-08
3.45682e-08
3.46592e-08
3.48038e-08
3.50046e-08
3.52968e-08
3.56716e-08
3.6188e-08
3.69437e-08
3.80676e-08
3.95127e-08
4.14351e-08
4.40787e-08
4.75647e-08
5.227e-08
5.81345e-08
6.51498e-08
7.25278e-08
7.87722e-08
8.22938e-08
8.24782e-08
8.12617e-08
8.1554e-08
8.78231e-08
8.48844e-08
7.88055e-08
7.89248e-08
8.08057e-08
8.15114e-08
7.89398e-08
7.35418e-08
6.67552e-08
6.01014e-08
5.44223e-08
4.98087e-08
4.6327e-08
4.37013e-08
4.17677e-08
4.03331e-08
3.92764e-08
3.85388e-08
3.79908e-08
3.7618e-08
3.73248e-08
3.71194e-08
3.6962e-08
3.68646e-08
3.68019e-08
3.67713e-08
3.67647e-08
3.67836e-08
3.68378e-08
3.69297e-08
3.70762e-08
3.72793e-08
3.7573e-08
3.79541e-08
3.85346e-08
3.93047e-08
4.04018e-08
4.18601e-08
4.38179e-08
4.64499e-08
4.99413e-08
5.456e-08
6.02395e-08
6.68826e-08
7.36388e-08
7.89848e-08
8.14909e-08
8.07341e-08
7.88247e-08
7.86917e-08
8.47754e-08
8.17077e-08
7.58334e-08
7.63872e-08
7.89015e-08
8.052e-08
7.89582e-08
7.44835e-08
6.83775e-08
6.21366e-08
5.66842e-08
5.218e-08
4.87363e-08
4.61269e-08
4.4175e-08
4.27284e-08
4.16606e-08
4.09279e-08
4.03609e-08
3.9976e-08
3.96808e-08
3.94739e-08
3.9315e-08
3.92171e-08
3.9153e-08
3.91213e-08
3.9114e-08
3.91331e-08
3.91886e-08
3.92811e-08
3.94289e-08
3.96344e-08
3.99304e-08
4.03228e-08
4.09234e-08
4.16898e-08
4.2798e-08
4.42694e-08
4.62463e-08
4.88619e-08
5.2314e-08
5.68222e-08
6.22714e-08
6.84981e-08
7.45688e-08
7.89887e-08
8.04884e-08
7.88215e-08
7.62775e-08
7.57175e-08
8.15925e-08
7.84512e-08
7.28236e-08
7.36484e-08
7.68609e-08
7.93282e-08
7.87547e-08
7.5223e-08
6.98359e-08
6.40718e-08
5.88925e-08
5.45359e-08
5.11545e-08
4.85717e-08
4.6632e-08
4.51703e-08
4.41058e-08
4.3372e-08
4.27936e-08
4.23992e-08
4.21039e-08
4.18974e-08
4.17369e-08
4.16385e-08
4.15735e-08
4.15406e-08
4.15327e-08
4.15518e-08
4.16085e-08
4.17015e-08
4.18503e-08
4.20572e-08
4.23542e-08
4.27543e-08
4.33669e-08
4.41366e-08
4.52405e-08
4.67281e-08
4.86936e-08
5.12827e-08
5.46709e-08
5.90294e-08
6.42022e-08
6.99483e-08
7.52952e-08
7.87703e-08
7.92825e-08
7.6768e-08
7.35294e-08
7.26972e-08
7.83297e-08
7.51025e-08
6.97249e-08
7.08358e-08
7.46755e-08
7.79314e-08
7.83184e-08
7.57398e-08
7.11192e-08
6.5878e-08
6.10184e-08
5.68488e-08
5.35552e-08
5.10196e-08
4.91042e-08
4.76744e-08
4.65915e-08
4.58581e-08
4.52634e-08
4.48703e-08
4.45794e-08
4.43751e-08
4.42128e-08
4.41134e-08
4.40477e-08
4.40137e-08
4.40053e-08
4.40243e-08
4.4082e-08
4.41759e-08
4.43262e-08
4.4533e-08
4.48269e-08
4.52255e-08
4.58515e-08
4.66231e-08
4.77494e-08
4.92006e-08
5.11445e-08
5.36876e-08
5.6984e-08
6.11529e-08
6.60028e-08
7.12184e-08
7.57982e-08
7.83187e-08
7.78721e-08
7.45703e-08
7.07125e-08
6.95975e-08
7.49757e-08
7.16987e-08
6.66068e-08
6.80336e-08
7.22828e-08
7.63305e-08
7.76412e-08
7.6016e-08
7.21934e-08
6.7526e-08
6.30316e-08
5.90884e-08
5.5905e-08
5.34452e-08
5.15731e-08
5.01505e-08
4.90906e-08
4.83618e-08
4.78267e-08
4.7416e-08
4.71067e-08
4.68903e-08
4.6723e-08
4.66215e-08
4.65554e-08
4.65204e-08
4.65113e-08
4.65303e-08
4.65889e-08
4.66845e-08
4.68385e-08
4.70585e-08
4.73727e-08
4.77865e-08
4.83579e-08
4.91209e-08
5.02239e-08
5.16696e-08
5.3574e-08
5.60498e-08
5.92227e-08
6.31625e-08
6.76439e-08
7.22827e-08
7.60599e-08
7.76259e-08
7.6259e-08
7.21704e-08
6.79029e-08
6.64714e-08
7.1567e-08
6.82468e-08
6.33928e-08
6.50749e-08
6.98336e-08
7.45055e-08
7.67183e-08
7.60364e-08
7.30393e-08
6.89868e-08
6.49015e-08
6.12203e-08
5.82386e-08
5.58203e-08
5.40106e-08
5.26077e-08
5.15783e-08
5.08602e-08
5.03179e-08
4.99166e-08
4.96163e-08
4.9404e-08
4.92374e-08
4.91357e-08
4.907e-08
4.90346e-08
4.90251e-08
4.90436e-08
4.91022e-08
4.91977e-08
4.93512e-08
4.95683e-08
4.98754e-08
5.02775e-08
5.08602e-08
5.16067e-08
5.26775e-08
5.41057e-08
5.59541e-08
5.8344e-08
6.13514e-08
6.50275e-08
6.90967e-08
7.31169e-08
7.60651e-08
7.66875e-08
7.4426e-08
6.97108e-08
6.49423e-08
6.32534e-08
6.81113e-08
6.47606e-08
6.02226e-08
6.2141e-08
6.71704e-08
7.2507e-08
7.55478e-08
7.57885e-08
7.36343e-08
7.02322e-08
6.65972e-08
6.32151e-08
6.04089e-08
5.81255e-08
5.63963e-08
5.50102e-08
5.40254e-08
5.33296e-08
5.27789e-08
5.23873e-08
5.20973e-08
5.18913e-08
5.17288e-08
5.16288e-08
5.15645e-08
5.15297e-08
5.15198e-08
5.15376e-08
5.15948e-08
5.16884e-08
5.18376e-08
5.20494e-08
5.23477e-08
5.27388e-08
5.333e-08
5.40536e-08
5.50763e-08
5.64911e-08
5.82632e-08
6.05256e-08
6.33424e-08
6.67171e-08
7.03329e-08
7.3699e-08
7.58016e-08
7.55017e-08
7.24165e-08
6.70379e-08
6.20024e-08
6.00789e-08
6.46223e-08
6.12727e-08
5.70345e-08
5.91585e-08
6.44462e-08
7.03211e-08
7.41314e-08
7.52635e-08
7.39587e-08
7.12357e-08
6.80884e-08
6.50418e-08
6.24521e-08
6.03158e-08
5.86789e-08
5.74276e-08
5.6444e-08
5.57376e-08
5.51747e-08
5.48001e-08
5.45232e-08
5.43265e-08
5.41709e-08
5.40743e-08
5.40124e-08
5.39792e-08
5.39691e-08
5.39858e-08
5.404e-08
5.41302e-08
5.42725e-08
5.4476e-08
5.47605e-08
5.51356e-08
5.57388e-08
5.64722e-08
5.74909e-08
5.87792e-08
6.04455e-08
6.25695e-08
6.51638e-08
6.82009e-08
7.13261e-08
7.40096e-08
7.52607e-08
7.40703e-08
7.02003e-08
6.43119e-08
5.90149e-08
5.68913e-08
6.11323e-08
5.77935e-08
5.38674e-08
5.61446e-08
6.16787e-08
6.79206e-08
7.24743e-08
7.44561e-08
7.39963e-08
7.1973e-08
6.93461e-08
6.66689e-08
6.43292e-08
6.23586e-08
6.08309e-08
5.96444e-08
5.87213e-08
5.80509e-08
5.75936e-08
5.72332e-08
5.69595e-08
5.67642e-08
5.66085e-08
5.65107e-08
5.64476e-08
5.64148e-08
5.64042e-08
5.64209e-08
5.64747e-08
5.65664e-08
5.67081e-08
5.69122e-08
5.71917e-08
5.75562e-08
5.80521e-08
5.87456e-08
5.971e-08
6.09293e-08
6.24809e-08
6.44428e-08
6.67844e-08
6.94499e-08
7.2052e-08
7.40329e-08
7.44374e-08
7.23985e-08
6.77937e-08
6.15368e-08
5.59965e-08
5.3722e-08
5.76518e-08
5.43405e-08
5.07227e-08
5.31152e-08
5.88288e-08
6.54233e-08
7.0586e-08
7.33654e-08
7.37348e-08
7.24226e-08
7.03429e-08
6.80658e-08
6.60064e-08
6.42164e-08
6.28232e-08
6.17141e-08
6.08566e-08
6.02356e-08
5.97856e-08
5.94519e-08
5.91956e-08
5.90133e-08
5.88673e-08
5.87748e-08
5.87148e-08
5.86847e-08
5.86741e-08
5.86892e-08
5.87387e-08
5.88253e-08
5.89577e-08
5.91492e-08
5.94116e-08
5.97507e-08
6.02325e-08
6.08811e-08
6.17825e-08
6.29185e-08
6.43314e-08
6.61136e-08
6.81735e-08
7.04368e-08
7.24894e-08
7.37566e-08
7.33308e-08
7.04958e-08
6.52894e-08
5.86802e-08
5.29632e-08
5.05759e-08
5.41983e-08
5.09343e-08
4.76151e-08
5.00867e-08
5.59152e-08
6.2722e-08
6.84794e-08
7.19946e-08
7.31663e-08
7.25682e-08
7.10545e-08
6.92036e-08
6.74404e-08
6.58695e-08
6.46221e-08
6.36047e-08
6.28179e-08
6.22565e-08
6.18283e-08
6.15198e-08
6.12828e-08
6.11142e-08
6.09788e-08
6.08927e-08
6.08364e-08
6.08089e-08
6.07984e-08
6.08118e-08
6.08567e-08
6.09376e-08
6.10595e-08
6.12376e-08
6.14817e-08
6.17942e-08
6.22499e-08
6.28417e-08
6.36776e-08
6.47117e-08
6.59768e-08
6.75408e-08
6.93024e-08
7.1137e-08
7.26219e-08
7.31729e-08
7.19444e-08
6.83754e-08
6.25825e-08
5.57606e-08
4.99312e-08
4.74675e-08
5.07922e-08
4.75888e-08
4.44921e-08
4.70757e-08
5.2959e-08
5.9966e-08
6.61355e-08
7.03513e-08
7.22874e-08
7.23942e-08
7.14597e-08
7.00561e-08
6.86117e-08
6.72762e-08
6.61872e-08
6.52892e-08
6.45775e-08
6.40791e-08
6.36848e-08
6.34046e-08
6.31887e-08
6.30355e-08
6.29118e-08
6.28332e-08
6.27811e-08
6.27559e-08
6.27456e-08
6.27572e-08
6.27975e-08
6.28716e-08
6.29825e-08
6.31455e-08
6.33681e-08
6.36519e-08
6.407e-08
6.46019e-08
6.53616e-08
6.62714e-08
6.7376e-08
6.8704e-08
7.01447e-08
7.15294e-08
7.24342e-08
7.22788e-08
7.02859e-08
6.60181e-08
5.98191e-08
5.28002e-08
4.69172e-08
4.43442e-08
4.74475e-08
4.43195e-08
4.14379e-08
4.40987e-08
4.99784e-08
5.71075e-08
6.36388e-08
6.84475e-08
7.10999e-08
7.18933e-08
7.15427e-08
7.06001e-08
6.94931e-08
6.84079e-08
6.74955e-08
6.67264e-08
6.61031e-08
6.56698e-08
6.53205e-08
6.50729e-08
6.48809e-08
6.47444e-08
6.4634e-08
6.45635e-08
6.45163e-08
6.44935e-08
6.44836e-08
6.44931e-08
6.45287e-08
6.45952e-08
6.46941e-08
6.484e-08
6.50371e-08
6.52906e-08
6.56609e-08
6.61276e-08
6.67953e-08
6.7573e-08
6.85e-08
6.9576e-08
7.06776e-08
7.1598e-08
7.19192e-08
7.10761e-08
6.83674e-08
6.35123e-08
5.6954e-08
4.98173e-08
4.39376e-08
4.12902e-08
4.41792e-08
4.11352e-08
3.84747e-08
4.1089e-08
4.69907e-08
5.41687e-08
6.09819e-08
6.62988e-08
6.96104e-08
7.10621e-08
7.12895e-08
7.08168e-08
7.00604e-08
6.92391e-08
6.85183e-08
6.78852e-08
6.73643e-08
6.69984e-08
6.67034e-08
6.64912e-08
6.63264e-08
6.62088e-08
6.61129e-08
6.60517e-08
6.60101e-08
6.59898e-08
6.59804e-08
6.59877e-08
6.60183e-08
6.6076e-08
6.61617e-08
6.62879e-08
6.64571e-08
6.66763e-08
6.69921e-08
6.73871e-08
6.79492e-08
6.85879e-08
6.93229e-08
7.0133e-08
7.08823e-08
7.1329e-08
7.10735e-08
6.95717e-08
6.62048e-08
6.08461e-08
5.401e-08
4.68284e-08
4.09258e-08
3.83335e-08
4.09956e-08
3.80451e-08
3.56332e-08
3.81557e-08
4.40126e-08
5.11727e-08
5.81859e-08
6.39223e-08
6.78308e-08
6.99033e-08
7.06945e-08
7.06921e-08
7.02941e-08
6.97483e-08
6.92277e-08
6.87434e-08
6.83294e-08
6.80377e-08
6.7802e-08
6.76285e-08
6.7495e-08
6.73978e-08
6.73181e-08
6.72671e-08
6.72317e-08
6.72142e-08
6.72055e-08
6.72104e-08
6.72355e-08
6.72835e-08
6.73546e-08
6.74588e-08
6.75975e-08
6.7778e-08
6.80332e-08
6.83506e-08
6.88015e-08
6.92886e-08
6.98231e-08
7.03556e-08
7.07448e-08
7.07164e-08
6.98996e-08
6.77774e-08
6.38154e-08
5.80405e-08
5.10102e-08
4.3849e-08
3.79981e-08
3.54921e-08
3.79093e-08
3.50778e-08
3.28821e-08
3.53641e-08
4.10617e-08
4.8142e-08
5.52759e-08
6.13494e-08
6.57774e-08
6.84252e-08
6.97566e-08
7.02175e-08
7.01795e-08
6.99161e-08
6.9606e-08
6.92732e-08
6.8976e-08
6.87624e-08
6.85896e-08
6.84585e-08
6.83585e-08
6.82839e-08
6.82215e-08
6.81816e-08
6.81531e-08
6.81388e-08
6.81308e-08
6.81333e-08
6.81523e-08
6.819e-08
6.82449e-08
6.83255e-08
6.84305e-08
6.85675e-08
6.87598e-08
6.89946e-08
6.93259e-08
6.96573e-08
6.99805e-08
7.02296e-08
7.02566e-08
6.97594e-08
6.84057e-08
6.57102e-08
6.12309e-08
5.51214e-08
4.79773e-08
4.08951e-08
3.52053e-08
3.2741e-08
3.49442e-08
3.22277e-08
3.02327e-08
3.26508e-08
3.816e-08
4.50989e-08
5.22785e-08
5.86018e-08
6.34731e-08
6.664e-08
6.84808e-08
6.93908e-08
6.97085e-08
6.97295e-08
6.96332e-08
6.94587e-08
6.92829e-08
6.91522e-08
6.90438e-08
6.89589e-08
6.88936e-08
6.88429e-08
6.87991e-08
6.8771e-08
6.87499e-08
6.87391e-08
6.8732e-08
6.87319e-08
6.87444e-08
6.8771e-08
6.8809e-08
6.88647e-08
6.89368e-08
6.90281e-08
6.91499e-08
6.92993e-08
6.9504e-08
6.96765e-08
6.97828e-08
6.97466e-08
6.94157e-08
6.8463e-08
6.66054e-08
6.33912e-08
5.84729e-08
5.21151e-08
4.49333e-08
3.79929e-08
3.24935e-08
3.00931e-08
3.20967e-08
6.91089e-08
6.90815e-08
6.90558e-08
6.90315e-08
6.90157e-08
6.90022e-08
6.89953e-08
6.89893e-08
6.89865e-08
6.89922e-08
6.90071e-08
6.90274e-08
6.90564e-08
6.90914e-08
6.9134e-08
6.91874e-08
6.92483e-08
6.93222e-08
6.93345e-08
6.92244e-08
6.89047e-08
6.82261e-08
6.68383e-08
6.45177e-08
6.08239e-08
5.55707e-08
4.90493e-08
4.18992e-08
3.51572e-08
2.98744e-08
2.75573e-08
2.9367e-08
6.8884e-08
6.88861e-08
6.88874e-08
6.88849e-08
6.88776e-08
6.88612e-08
6.88319e-08
6.8775e-08
6.8627e-08
6.8305e-08
6.77082e-08
6.66996e-08
6.49007e-08
6.21666e-08
5.80839e-08
5.25554e-08
4.59517e-08
3.88979e-08
3.24003e-08
2.73578e-08
2.51396e-08
2.67785e-08
6.26835e-08
5.953e-08
5.51822e-08
4.94585e-08
4.28503e-08
3.59446e-08
2.97321e-08
2.49518e-08
2.28442e-08
2.43277e-08
)
;

boundaryField
{
    fuel
    {
        type            fixedValue;
        value           nonuniform 0();
    }
    wall
    {
        type            zeroGradient;
    }
    outlet
    {
        type            zeroGradient;
    }
    frontAndBack
    {
        type            empty;
    }
    procBoundary0to1
    {
        type            processor;
        value           nonuniform List<scalar> 
50
(
1.04171e-07
1.07894e-07
1.01101e-07
8.76525e-08
7.0829e-08
5.57065e-08
4.43007e-08
3.62483e-08
3.04488e-08
2.58027e-08
2.2778e-08
2.03708e-08
1.84406e-08
1.69156e-08
1.5726e-08
1.46721e-08
1.39959e-08
1.35551e-08
1.32511e-08
1.30793e-08
1.2963e-08
1.28822e-08
1.28299e-08
1.28007e-08
1.2788e-08
1.2788e-08
1.27984e-08
1.28208e-08
1.28648e-08
1.29354e-08
1.30528e-08
1.32428e-08
1.35447e-08
1.39949e-08
1.46857e-08
1.57468e-08
1.69447e-08
1.84779e-08
2.04154e-08
2.28272e-08
2.58628e-08
3.05322e-08
3.63333e-08
4.44224e-08
5.58369e-08
7.09619e-08
8.77608e-08
1.0118e-07
1.07961e-07
1.04255e-07
)
;
    }
    procBoundary0to2
    {
        type            processor;
        value           nonuniform List<scalar> 
53
(
2.9493e-08
2.76904e-08
3.00201e-08
3.53193e-08
4.20611e-08
4.92171e-08
5.5704e-08
6.09169e-08
6.45666e-08
6.68761e-08
6.82161e-08
6.88785e-08
6.9183e-08
6.93003e-08
6.92861e-08
6.92354e-08
6.91914e-08
6.91484e-08
6.91484e-08
6.88983e-08
6.89096e-08
6.89096e-08
6.89054e-08
6.89022e-08
6.88966e-08
6.88938e-08
6.88889e-08
6.88835e-08
6.8882e-08
6.8882e-08
6.83938e-08
6.83775e-08
6.83509e-08
6.83108e-08
6.8253e-08
6.81669e-08
6.80473e-08
6.78618e-08
6.75558e-08
6.70289e-08
6.61698e-08
6.48385e-08
6.48385e-08
6.02012e-08
5.67319e-08
5.21508e-08
4.6306e-08
3.97504e-08
3.30747e-08
2.71536e-08
2.26589e-08
2.06729e-08
2.20147e-08
)
;
    }
}


// ************************************************************************* //
