/*--------------------------------*- C++ -*----------------------------------*\
| =========                 |                                                 |
| \\      /  F ield         | OpenFOAM: The Open Source CFD Toolbox           |
|  \\    /   O peration     | Version:  dev                                   |
|   \\  /    A nd           | Web:      www.OpenFOAM.org                      |
|    \\/     M anipulation  |                                                 |
\*---------------------------------------------------------------------------*/
FoamFile
{
    version     2.0;
    format      ascii;
    class       volScalarField;
    location    "0.005";
    object      A3C2H2;
}
// * * * * * * * * * * * * * * * * * * * * * * * * * * * * * * * * * * * * * //

dimensions      [0 0 0 0 0 0 0];

internalField   nonuniform List<scalar> 
250
(
6.36697e-18
6.26751e-18
6.43138e-18
6.09773e-18
5.90905e-18
4.82924e-18
3.18353e-18
1.4766e-18
4.39599e-19
1.06191e-19
3.46754e-18
3.41491e-18
3.48782e-18
3.29766e-18
3.1625e-18
2.59692e-18
1.7722e-18
8.43868e-19
2.59651e-19
6.78847e-20
4.27207e-20
1.50422e-19
4.6338e-19
9.17185e-19
1.32016e-18
1.64499e-18
1.75831e-18
1.8663e-18
1.83177e-18
1.85835e-18
1.85641e-18
1.83332e-18
1.85805e-18
1.75026e-18
1.63483e-18
1.31233e-18
9.11132e-19
4.57891e-19
1.4929e-19
4.23738e-20
2.57166e-20
7.99672e-20
2.55333e-19
5.13819e-19
7.46406e-19
8.59717e-19
8.96804e-19
9.41868e-19
9.28828e-19
9.41946e-19
9.41375e-19
9.26496e-19
9.39004e-19
8.93386e-19
8.54994e-19
7.41793e-19
5.10377e-19
2.53459e-19
7.95783e-20
2.5547e-20
1.51943e-20
4.35949e-20
1.36463e-19
2.76955e-19
4.11657e-19
4.88002e-19
5.12267e-19
5.37141e-19
5.30865e-19
5.38401e-19
5.37968e-19
5.28419e-19
5.35428e-19
5.10116e-19
4.85107e-19
4.08979e-19
2.75261e-19
1.35694e-19
4.33803e-20
1.5113e-20
8.61722e-21
2.24211e-20
7.02455e-20
1.45421e-19
2.17519e-19
2.62077e-19
2.78607e-19
2.9315e-19
2.90403e-19
2.94422e-19
2.94156e-19
2.88997e-19
2.92149e-19
2.77305e-19
2.60352e-19
2.1609e-19
1.44651e-19
6.98364e-20
2.2324e-20
8.57272e-21
4.66266e-21
1.03126e-20
3.19666e-20
7.02921e-20
1.11112e-19
1.36452e-19
1.4681e-19
1.55121e-19
1.53955e-19
1.5604e-19
1.5592e-19
1.5333e-19
1.54581e-19
1.46067e-19
1.35424e-19
1.1034e-19
6.98438e-20
3.17954e-20
1.02731e-20
4.64045e-21
2.44791e-21
5.11229e-21
1.47267e-20
2.96558e-20
4.81501e-20
6.10588e-20
6.68914e-20
7.12557e-20
7.07874e-20
7.18223e-20
7.17483e-20
7.0521e-20
7.09754e-20
6.6489e-20
6.04665e-20
4.77809e-20
2.94944e-20
1.46637e-20
5.09431e-21
2.43733e-21
1.2813e-21
2.42966e-21
7.1644e-21
1.41169e-20
2.03981e-20
2.49966e-20
2.7232e-20
2.88642e-20
2.87033e-20
2.908e-20
2.90647e-20
2.86287e-20
2.87724e-20
2.70859e-20
2.48744e-20
2.02715e-20
1.40448e-20
7.13656e-21
2.42178e-21
1.27616e-21
6.34219e-22
1.07424e-21
3.0375e-21
6.26039e-21
9.77764e-21
1.20776e-20
1.31071e-20
1.38408e-20
1.37884e-20
1.39449e-20
1.3942e-20
1.3762e-20
1.38018e-20
1.304e-20
1.20364e-20
9.72153e-21
6.2297e-21
3.02661e-21
1.07106e-21
6.31916e-22
3.02997e-22
4.834e-22
1.40368e-21
2.82112e-21
4.12686e-21
5.12456e-21
5.60583e-21
5.92524e-21
5.91442e-21
5.98088e-21
5.98083e-21
5.90382e-21
5.90856e-21
5.57559e-21
5.0973e-21
4.10497e-21
2.80911e-21
1.39861e-21
4.82036e-22
3.0197e-22
1.41307e-22
2.15332e-22
6.4342e-22
1.25522e-21
1.92642e-21
2.35704e-21
2.56338e-21
2.6832e-21
2.68342e-21
2.7083e-21
2.70919e-21
2.68039e-21
2.67682e-21
2.55079e-21
2.34413e-21
1.91441e-21
1.25053e-21
6.41251e-22
2.1479e-22
1.40879e-22
6.36208e-23
9.13902e-23
2.61447e-22
4.90335e-22
7.88953e-22
9.94469e-22
1.10513e-21
1.1656e-21
1.16872e-21
1.18151e-21
1.18199e-21
1.16716e-21
1.16267e-21
1.09956e-21
9.87905e-22
7.83088e-22
4.8879e-22
2.60723e-22
9.11967e-23
6.34319e-23
4.44729e-22
4.39887e-22
4.37476e-22
4.15378e-22
3.75059e-22
3.01739e-22
1.90418e-22
1.03381e-22
3.73714e-23
2.76254e-23
)
;

boundaryField
{
    fuel
    {
        type            fixedValue;
        value           nonuniform 0();
    }
    wall
    {
        type            zeroGradient;
    }
    outlet
    {
        type            zeroGradient;
    }
    frontAndBack
    {
        type            empty;
    }
    procBoundary0to1
    {
        type            processor;
        value           nonuniform List<scalar> 
21
(
2.76987e-23
3.74346e-23
1.03598e-22
1.90928e-22
3.03947e-22
3.77621e-22
4.17399e-22
4.38565e-22
4.40463e-22
4.4463e-22
4.4463e-22
1.671e-22
1.65646e-22
1.64434e-22
1.56801e-22
1.41854e-22
1.1553e-22
7.36596e-23
4.01587e-23
1.48738e-23
1.16865e-23
)
;
    }
    procBoundary0to2
    {
        type            processor;
        value           nonuniform List<scalar> 
12
(
6.34643e-18
6.84025e-20
2.61257e-19
8.41489e-19
1.78082e-18
2.61186e-18
3.19834e-18
3.3292e-18
3.53155e-18
3.43563e-18
3.49017e-18
3.49017e-18
)
;
    }
    procBoundary0to3
    {
        type            processor;
        value           nonuniform List<scalar> 10(9.90264e-18 9.77581e-18 1.0011e-17 9.60907e-18 9.37186e-18 8.14846e-18 5.66242e-18 2.42915e-18 7.15212e-19 1.61288e-19);
    }
}


// ************************************************************************* //
