/*--------------------------------*- C++ -*----------------------------------*\
| =========                 |                                                 |
| \\      /  F ield         | OpenFOAM: The Open Source CFD Toolbox           |
|  \\    /   O peration     | Version:  dev                                   |
|   \\  /    A nd           | Web:      www.OpenFOAM.org                      |
|    \\/     M anipulation  |                                                 |
\*---------------------------------------------------------------------------*/
FoamFile
{
    version     2.0;
    format      ascii;
    class       volScalarField;
    location    "0.005";
    object      AC3H4;
}
// * * * * * * * * * * * * * * * * * * * * * * * * * * * * * * * * * * * * * //

dimensions      [0 0 0 0 0 0 0];

internalField   nonuniform List<scalar> 
250
(
2.7342e-06
2.73627e-06
2.72905e-06
2.698e-06
2.64995e-06
2.53519e-06
2.31834e-06
2.00437e-06
1.79173e-06
1.77636e-06
1.78245e-06
1.78115e-06
1.77509e-06
1.75414e-06
1.71806e-06
1.63417e-06
1.49845e-06
1.31546e-06
1.17816e-06
1.19239e-06
7.69437e-07
7.82094e-07
8.20828e-07
9.26784e-07
1.02154e-06
1.09249e-06
1.12035e-06
1.13861e-06
1.14763e-06
1.15081e-06
1.15309e-06
1.15074e-06
1.1443e-06
1.12855e-06
1.09995e-06
1.02825e-06
9.31165e-07
8.23982e-07
7.85065e-07
7.72177e-07
5.03378e-07
5.15112e-07
5.54097e-07
6.28191e-07
6.68583e-07
6.94723e-07
7.07605e-07
7.14431e-07
7.18252e-07
7.19835e-07
7.20773e-07
7.21111e-07
7.18965e-07
7.11897e-07
6.98913e-07
6.72489e-07
6.31007e-07
5.56219e-07
5.16772e-07
5.04964e-07
3.28098e-07
3.37677e-07
3.69099e-07
4.21322e-07
4.57391e-07
4.7718e-07
4.86305e-07
4.90409e-07
4.9256e-07
4.93557e-07
4.94266e-07
4.95016e-07
4.939e-07
4.89585e-07
4.80444e-07
4.59709e-07
4.23212e-07
3.705e-07
3.38783e-07
3.29021e-07
2.03449e-07
2.16852e-07
2.45329e-07
2.77667e-07
3.05058e-07
3.2038e-07
3.27304e-07
3.30551e-07
3.32125e-07
3.32792e-07
3.33347e-07
3.33737e-07
3.32682e-07
3.29654e-07
3.22426e-07
3.06663e-07
2.79188e-07
2.46303e-07
2.17585e-07
2.04039e-07
1.25171e-07
1.31515e-07
1.55072e-07
1.82231e-07
2.02307e-07
2.13378e-07
2.18542e-07
2.21191e-07
2.22453e-07
2.22918e-07
2.23376e-07
2.23432e-07
2.22386e-07
2.20221e-07
2.14876e-07
2.03382e-07
1.83304e-07
1.55798e-07
1.32001e-07
1.25523e-07
8.05435e-08
8.30241e-08
9.26249e-08
1.09294e-07
1.23672e-07
1.31102e-07
1.35058e-07
1.3705e-07
1.38188e-07
1.38616e-07
1.38971e-07
1.38809e-07
1.37743e-07
1.36202e-07
1.32275e-07
1.24418e-07
1.0994e-07
9.30469e-08
8.33318e-08
8.07765e-08
4.96863e-08
5.41729e-08
6.07169e-08
6.72885e-08
7.39533e-08
7.78746e-08
7.99292e-08
8.09036e-08
8.15019e-08
8.16376e-08
8.18432e-08
8.18029e-08
8.13459e-08
8.05106e-08
7.84626e-08
7.42997e-08
6.76275e-08
6.09768e-08
5.4408e-08
4.98462e-08
3.03715e-08
3.35566e-08
3.87556e-08
4.46819e-08
4.93165e-08
5.18731e-08
5.31052e-08
5.36712e-08
5.40405e-08
5.40801e-08
5.42188e-08
5.42316e-08
5.39851e-08
5.34554e-08
5.22159e-08
4.95477e-08
4.49172e-08
3.89335e-08
3.36539e-08
3.04602e-08
1.86341e-08
2.1999e-08
2.53413e-08
2.80457e-08
3.095e-08
3.25544e-08
3.34033e-08
3.37872e-08
3.40635e-08
3.40888e-08
3.41789e-08
3.41716e-08
3.39561e-08
3.35989e-08
3.27651e-08
3.10988e-08
2.81895e-08
2.54462e-08
2.20545e-08
1.86891e-08
1.12796e-08
1.40599e-08
1.65806e-08
1.8655e-08
2.05932e-08
2.15349e-08
2.20308e-08
2.22672e-08
2.24361e-08
2.24451e-08
2.25003e-08
2.24985e-08
2.23498e-08
2.21317e-08
2.16475e-08
2.0686e-08
1.87452e-08
1.66488e-08
1.41051e-08
1.13146e-08
6.68555e-09
8.501e-09
1.00913e-08
1.15334e-08
1.30257e-08
1.37386e-08
1.41409e-08
1.43193e-08
1.44505e-08
1.44582e-08
1.44935e-08
1.44853e-08
1.43637e-08
1.42006e-08
1.38124e-08
1.30871e-08
1.15956e-08
1.01236e-08
8.52757e-09
6.70599e-09
8.64824e-09
8.63921e-09
8.5626e-09
8.47313e-09
8.25109e-09
7.85588e-09
7.01169e-09
6.1168e-09
5.09834e-09
3.89669e-09
)
;

boundaryField
{
    fuel
    {
        type            fixedValue;
        value           nonuniform 0();
    }
    wall
    {
        type            zeroGradient;
    }
    outlet
    {
        type            zeroGradient;
    }
    frontAndBack
    {
        type            empty;
    }
    procBoundary0to1
    {
        type            processor;
        value           nonuniform List<scalar> 
21
(
3.88599e-09
5.08451e-09
6.09928e-09
6.98463e-09
7.83122e-09
8.2248e-09
8.45669e-09
8.55353e-09
8.63185e-09
8.63528e-09
8.63528e-09
5.13473e-09
5.12558e-09
5.07701e-09
5.02655e-09
4.8953e-09
4.67505e-09
4.18101e-09
3.64901e-09
2.96959e-09
2.21746e-09
)
;
    }
    procBoundary0to2
    {
        type            processor;
        value           nonuniform List<scalar> 
12
(
2.72311e-06
1.19062e-06
1.17125e-06
1.30755e-06
1.48865e-06
1.61988e-06
1.70447e-06
1.73853e-06
1.76174e-06
1.77397e-06
1.78022e-06
1.78022e-06
)
;
    }
    procBoundary0to3
    {
        type            processor;
        value           nonuniform List<scalar> 10(3.71087e-06 3.72457e-06 3.71733e-06 3.68424e-06 3.63394e-06 3.5266e-06 3.32615e-06 3.01295e-06 2.66323e-06 2.64294e-06);
    }
}


// ************************************************************************* //
