/*--------------------------------*- C++ -*----------------------------------*\
| =========                 |                                                 |
| \\      /  F ield         | OpenFOAM: The Open Source CFD Toolbox           |
|  \\    /   O peration     | Version:  dev                                   |
|   \\  /    A nd           | Web:      www.OpenFOAM.org                      |
|    \\/     M anipulation  |                                                 |
\*---------------------------------------------------------------------------*/
FoamFile
{
    version     2.0;
    format      ascii;
    class       volScalarField;
    location    "0.005";
    object      C;
}
// * * * * * * * * * * * * * * * * * * * * * * * * * * * * * * * * * * * * * //

dimensions      [0 0 0 0 0 0 0];

internalField   nonuniform List<scalar> 
2014
(
5.43664e-10
5.54287e-10
6.46794e-10
8.83278e-10
1.44288e-09
2.5945e-09
4.54673e-09
7.20327e-09
1.03921e-08
1.41579e-08
1.73426e-08
2.03801e-08
2.31073e-08
2.54288e-08
2.73453e-08
2.92212e-08
3.05429e-08
3.14632e-08
3.21444e-08
3.25786e-08
3.28774e-08
3.30886e-08
3.32245e-08
3.33013e-08
3.33306e-08
3.33254e-08
3.3292e-08
3.32271e-08
3.31124e-08
3.29301e-08
3.26395e-08
3.21832e-08
3.15044e-08
3.05611e-08
2.92065e-08
2.73162e-08
2.53892e-08
2.30599e-08
2.03298e-08
1.72932e-08
1.41097e-08
1.03409e-08
7.16839e-09
4.51864e-09
2.58027e-09
1.43685e-09
8.81236e-10
6.46012e-10
5.53855e-10
5.43346e-10
5.14503e-10
5.33479e-10
6.26997e-10
8.53384e-10
1.3764e-09
2.45686e-09
4.32184e-09
6.88858e-09
1.00165e-08
1.37011e-08
1.68371e-08
1.98403e-08
2.2521e-08
2.48163e-08
2.6723e-08
2.8557e-08
2.98593e-08
3.07682e-08
3.14342e-08
3.18637e-08
3.21611e-08
3.23708e-08
3.25058e-08
3.25824e-08
3.26115e-08
3.26064e-08
3.25731e-08
3.2508e-08
3.23934e-08
3.22123e-08
3.19242e-08
3.14753e-08
3.08092e-08
2.98771e-08
2.85429e-08
2.66937e-08
2.47759e-08
2.24729e-08
1.97893e-08
1.67871e-08
1.36532e-08
9.96589e-09
6.85347e-09
4.29511e-09
2.44316e-09
1.37071e-09
8.51525e-10
6.26316e-10
5.33174e-10
5.14336e-10
4.90088e-10
5.16134e-10
6.11291e-10
8.2844e-10
1.31659e-09
2.32655e-09
4.09947e-09
6.57194e-09
9.63242e-09
1.32022e-08
1.62907e-08
1.92485e-08
2.18943e-08
2.4156e-08
2.60275e-08
2.78079e-08
2.90864e-08
2.99795e-08
3.06275e-08
3.10512e-08
3.13455e-08
3.15532e-08
3.16859e-08
3.1762e-08
3.17908e-08
3.17858e-08
3.17527e-08
3.16876e-08
3.15739e-08
3.13951e-08
3.11114e-08
3.06694e-08
3.00203e-08
2.91038e-08
2.77943e-08
2.59981e-08
2.4115e-08
2.18456e-08
1.91969e-08
1.62403e-08
1.31546e-08
9.58266e-09
6.53696e-09
4.07396e-09
2.31342e-09
1.31123e-09
8.26699e-10
6.10656e-10
5.15873e-10
4.90056e-10
4.69609e-10
5.0118e-10
5.98112e-10
8.07496e-10
1.26285e-09
2.20304e-09
3.87981e-09
6.25215e-09
9.2361e-09
1.26656e-08
1.57035e-08
1.86049e-08
2.12026e-08
2.34222e-08
2.52591e-08
2.69757e-08
2.82261e-08
2.90995e-08
2.97281e-08
3.01447e-08
3.04345e-08
3.06396e-08
3.07698e-08
3.08452e-08
3.08737e-08
3.08688e-08
3.08362e-08
3.07712e-08
3.0659e-08
3.04823e-08
3.02038e-08
2.97706e-08
2.91401e-08
2.82431e-08
2.69626e-08
2.52297e-08
2.33808e-08
2.11534e-08
1.85528e-08
1.5653e-08
1.26183e-08
9.18744e-09
6.21761e-09
3.85545e-09
2.19057e-09
1.25782e-09
8.05866e-10
5.97507e-10
5.00957e-10
4.69679e-10
4.52335e-10
4.88113e-10
5.86725e-10
7.89667e-10
1.21531e-09
2.08635e-09
3.66325e-09
5.92911e-09
8.82485e-09
1.20968e-08
1.50772e-08
1.79111e-08
2.04501e-08
2.26197e-08
2.44173e-08
2.60662e-08
2.72822e-08
2.81331e-08
2.87411e-08
2.91491e-08
2.94333e-08
2.96351e-08
2.97628e-08
2.98373e-08
2.98654e-08
2.98606e-08
2.98284e-08
2.97639e-08
2.96535e-08
2.94794e-08
2.92067e-08
2.87841e-08
2.81734e-08
2.72989e-08
2.6054e-08
2.43878e-08
2.25779e-08
2.04007e-08
1.78588e-08
1.50268e-08
1.205e-08
8.77758e-09
5.89528e-09
3.64005e-09
2.07457e-09
1.21059e-09
7.88163e-10
5.86157e-10
4.87917e-10
4.52482e-10
4.37619e-10
4.76483e-10
5.7683e-10
7.74217e-10
1.17246e-09
1.97755e-09
3.44962e-09
5.60379e-09
8.39711e-09
1.15027e-08
1.44149e-08
1.71702e-08
1.96411e-08
2.17531e-08
2.35032e-08
2.50876e-08
2.62603e-08
2.70867e-08
2.76728e-08
2.80709e-08
2.83483e-08
2.85461e-08
2.8671e-08
2.87443e-08
2.87719e-08
2.87674e-08
2.87357e-08
2.86719e-08
2.85636e-08
2.83927e-08
2.81265e-08
2.77159e-08
2.71264e-08
2.62766e-08
2.50763e-08
2.34737e-08
2.17111e-08
1.95916e-08
1.71179e-08
1.43651e-08
1.14563e-08
8.35145e-09
5.57091e-09
3.42756e-09
1.96651e-09
1.16805e-09
7.72667e-10
5.76268e-10
4.76302e-10
4.37822e-10
4.24893e-10
4.65887e-10
5.67832e-10
7.60527e-10
1.13422e-09
1.87725e-09
3.24246e-09
5.27787e-09
7.94919e-09
1.08939e-08
1.37209e-08
1.63867e-08
1.87808e-08
2.0828e-08
2.25261e-08
2.40388e-08
2.51716e-08
2.59683e-08
2.65306e-08
2.69175e-08
2.71872e-08
2.73802e-08
2.7502e-08
2.75738e-08
2.7601e-08
2.75966e-08
2.75657e-08
2.75028e-08
2.7397e-08
2.72299e-08
2.69711e-08
2.65736e-08
2.60072e-08
2.51876e-08
2.40283e-08
2.24966e-08
2.0786e-08
1.87315e-08
1.63348e-08
1.36721e-08
1.08476e-08
7.90545e-09
5.246e-09
3.22167e-09
1.86694e-09
1.13007e-09
7.59064e-10
5.67267e-10
4.65712e-10
4.25131e-10
4.13657e-10
4.55974e-10
5.59332e-10
7.47723e-10
1.09941e-09
1.78451e-09
3.04429e-09
4.94507e-09
7.48712e-09
1.02731e-08
1.30004e-08
1.55663e-08
1.78755e-08
1.98511e-08
2.1492e-08
2.2932e-08
2.4021e-08
2.47857e-08
2.53248e-08
2.56981e-08
2.59591e-08
2.61465e-08
2.62648e-08
2.63349e-08
2.63615e-08
2.63574e-08
2.63273e-08
2.62656e-08
2.61626e-08
2.59996e-08
2.57495e-08
2.53674e-08
2.48237e-08
2.40365e-08
2.29224e-08
2.14625e-08
1.98093e-08
1.78265e-08
1.55149e-08
1.29519e-08
1.02281e-08
7.44548e-09
4.91452e-09
3.02484e-09
1.77491e-09
1.09554e-09
7.46308e-10
5.58755e-10
4.55796e-10
4.13912e-10
4.03482e-10
4.46438e-10
5.50966e-10
7.35909e-10
1.06748e-09
1.69855e-09
2.85614e-09
4.62565e-09
7.01648e-09
9.64582e-09
1.2257e-08
1.47158e-08
1.69324e-08
1.88305e-08
2.04085e-08
2.17769e-08
2.2818e-08
2.35507e-08
2.40645e-08
2.44226e-08
2.46739e-08
2.48552e-08
2.49698e-08
2.50379e-08
2.50638e-08
2.506e-08
2.50309e-08
2.49705e-08
2.48707e-08
2.47124e-08
2.44717e-08
2.41064e-08
2.35876e-08
2.28328e-08
2.17682e-08
2.03792e-08
1.8789e-08
1.68841e-08
1.46652e-08
1.22095e-08
9.60217e-09
6.97704e-09
4.59677e-09
2.83803e-09
1.68965e-09
1.06384e-09
7.34518e-10
5.50366e-10
4.46247e-10
4.03738e-10
3.94002e-10
4.37007e-10
5.42398e-10
7.24301e-10
1.03755e-09
1.61842e-09
2.67815e-09
4.31504e-09
6.54204e-09
9.01542e-09
1.14985e-08
1.38427e-08
1.59598e-08
1.77751e-08
1.92855e-08
2.05832e-08
2.15729e-08
2.22747e-08
2.27614e-08
2.31021e-08
2.33428e-08
2.35176e-08
2.36285e-08
2.36943e-08
2.37194e-08
2.3716e-08
2.36879e-08
2.36291e-08
2.35325e-08
2.33792e-08
2.31491e-08
2.28023e-08
2.23102e-08
2.15869e-08
2.05751e-08
1.92565e-08
1.77342e-08
1.59123e-08
1.37933e-08
1.14524e-08
8.97317e-09
6.50483e-09
4.28795e-09
2.66139e-09
1.61023e-09
1.03421e-09
7.22934e-10
5.41764e-10
4.36798e-10
3.94245e-10
3.84898e-10
4.27066e-10
5.32916e-10
7.12529e-10
1.00959e-09
1.54415e-09
2.51046e-09
4.01531e-09
6.07637e-09
8.38626e-09
1.07331e-08
1.29556e-08
1.49666e-08
1.66946e-08
1.81334e-08
1.93615e-08
2.0296e-08
2.09695e-08
2.14289e-08
2.17495e-08
2.19774e-08
2.2146e-08
2.22531e-08
2.23165e-08
2.23408e-08
2.23377e-08
2.23108e-08
2.22538e-08
2.21603e-08
2.2012e-08
2.17946e-08
2.14682e-08
2.10035e-08
2.03091e-08
1.93538e-08
1.81047e-08
1.66544e-08
1.49203e-08
1.29076e-08
1.06885e-08
8.34565e-09
6.04153e-09
3.99007e-09
2.49502e-09
1.53656e-09
1.00643e-09
7.1117e-10
5.32245e-10
4.26847e-10
3.85117e-10
3.75904e-10
4.17174e-10
5.23133e-10
7.00245e-10
9.82879e-10
1.47473e-09
2.35314e-09
3.72836e-09
5.62275e-09
7.76727e-09
9.96833e-09
1.20642e-08
1.39614e-08
1.55991e-08
1.69622e-08
1.81238e-08
1.89971e-08
1.96192e-08
2.00641e-08
2.03813e-08
2.05902e-08
2.07532e-08
2.08565e-08
2.09174e-08
2.09409e-08
2.09382e-08
2.09124e-08
2.08574e-08
2.07669e-08
2.06233e-08
2.04254e-08
2.01036e-08
1.96525e-08
1.90096e-08
1.8116e-08
1.6934e-08
1.55599e-08
1.39165e-08
1.20179e-08
9.92554e-09
7.7284e-09
5.5903e-09
3.70499e-09
2.339e-09
1.46781e-09
9.79886e-10
6.98871e-10
5.22392e-10
4.16923e-10
3.76088e-10
3.66789e-10
4.06759e-10
5.12147e-10
6.86809e-10
9.57e-10
1.41006e-09
2.20618e-09
3.45582e-09
5.18534e-09
7.16421e-09
9.2147e-09
1.11775e-08
1.29553e-08
1.44988e-08
1.57789e-08
1.68275e-08
1.76167e-08
1.8211e-08
1.86428e-08
1.89583e-08
1.91941e-08
1.93513e-08
1.94512e-08
1.95095e-08
1.95323e-08
1.95299e-08
1.95053e-08
1.94524e-08
1.93648e-08
1.92257e-08
1.90011e-08
1.8681e-08
1.82428e-08
1.76286e-08
1.68198e-08
1.57514e-08
1.44607e-08
1.29121e-08
1.11333e-08
9.17381e-09
7.12703e-09
5.15522e-09
3.43435e-09
2.19329e-09
1.40368e-09
9.54161e-10
6.85459e-10
5.115e-10
4.06472e-10
3.66929e-10
3.57228e-10
3.957e-10
5.00016e-10
6.72556e-10
9.31428e-10
1.34951e-09
2.06947e-09
3.19901e-09
4.76801e-09
6.58241e-09
8.48082e-09
1.0305e-08
1.19629e-08
1.33626e-08
1.45373e-08
1.55418e-08
1.63228e-08
1.68877e-08
1.72936e-08
1.75867e-08
1.7796e-08
1.79405e-08
1.80324e-08
1.80857e-08
1.81067e-08
1.81047e-08
1.80821e-08
1.8033e-08
1.79516e-08
1.78233e-08
1.76266e-08
1.73299e-08
1.69177e-08
1.63337e-08
1.55339e-08
1.45107e-08
1.33265e-08
1.19216e-08
1.02634e-08
8.44202e-09
6.54682e-09
4.73999e-09
3.17941e-09
2.05777e-09
1.34366e-09
9.28813e-10
6.71169e-10
4.99317e-10
3.95372e-10
3.57323e-10
3.47335e-10
3.83907e-10
4.86836e-10
6.569e-10
9.0603e-10
1.29269e-09
1.94276e-09
2.9589e-09
4.37412e-09
6.02634e-09
7.77493e-09
9.45478e-09
1.09649e-08
1.22857e-08
1.33887e-08
1.4324e-08
1.5006e-08
1.55169e-08
1.58828e-08
1.61503e-08
1.63412e-08
1.6478e-08
1.65653e-08
1.66155e-08
1.66355e-08
1.66338e-08
1.66126e-08
1.65663e-08
1.64887e-08
1.63668e-08
1.61871e-08
1.59173e-08
1.55453e-08
1.5017e-08
1.43164e-08
1.33631e-08
1.22513e-08
1.09263e-08
9.41604e-09
7.73852e-09
5.99252e-09
4.34767e-09
2.94112e-09
1.93219e-09
1.28734e-09
9.03595e-10
6.55478e-10
4.86064e-10
3.83537e-10
3.47377e-10
3.36862e-10
3.7075e-10
4.72289e-10
6.39635e-10
8.80265e-10
1.23916e-09
1.82569e-09
2.73605e-09
4.00349e-09
5.48544e-09
7.07959e-09
8.63493e-09
1.00184e-08
1.12226e-08
1.22258e-08
1.30641e-08
1.3688e-08
1.41624e-08
1.44983e-08
1.47463e-08
1.49238e-08
1.50522e-08
1.51345e-08
1.51814e-08
1.52005e-08
1.51991e-08
1.51792e-08
1.51359e-08
1.50625e-08
1.49474e-08
1.47806e-08
1.45304e-08
1.41888e-08
1.36982e-08
1.30568e-08
1.22016e-08
1.11896e-08
9.98179e-09
8.5962e-09
7.04548e-09
5.45378e-09
3.97636e-09
2.72002e-09
1.81615e-09
1.23425e-09
8.78059e-10
6.38172e-10
4.7145e-10
3.70337e-10
3.36851e-10
3.25743e-10
3.57147e-10
4.56349e-10
6.20087e-10
8.53777e-10
1.18842e-09
1.71777e-09
2.53067e-09
3.65304e-09
4.98749e-09
6.40984e-09
7.81826e-09
9.11144e-09
1.01597e-08
1.10833e-08
1.18451e-08
1.24192e-08
1.28548e-08
1.31615e-08
1.33908e-08
1.3555e-08
1.36747e-08
1.37515e-08
1.37951e-08
1.3813e-08
1.3812e-08
1.37935e-08
1.37532e-08
1.36843e-08
1.35767e-08
1.34222e-08
1.31911e-08
1.28793e-08
1.24283e-08
1.18384e-08
1.1061e-08
1.01289e-08
9.0774e-09
7.78213e-09
6.37902e-09
4.96169e-09
3.63581e-09
2.51634e-09
1.7092e-09
1.1839e-09
8.51258e-10
6.1861e-10
4.55446e-10
3.5673e-10
3.25678e-10
3.1387e-10
3.42906e-10
4.39045e-10
5.99249e-10
8.26276e-10
1.13992e-09
1.61838e-09
2.34259e-09
3.3396e-09
4.52868e-09
5.81396e-09
7.04258e-09
8.2298e-09
9.20839e-09
9.99573e-09
1.06802e-08
1.1211e-08
1.16056e-08
1.18832e-08
1.2094e-08
1.22448e-08
1.23551e-08
1.24262e-08
1.24664e-08
1.24832e-08
1.24824e-08
1.24653e-08
1.24281e-08
1.23641e-08
1.22644e-08
1.21224e-08
1.19105e-08
1.16277e-08
1.12192e-08
1.06744e-08
9.9755e-09
9.17979e-09
8.19699e-09
7.01012e-09
5.78648e-09
4.50662e-09
3.32263e-09
2.32982e-09
1.6107e-09
1.13575e-09
8.24006e-10
5.97719e-10
4.38083e-10
3.42463e-10
3.13761e-10
3.0138e-10
3.27796e-10
4.20082e-10
5.76534e-10
7.9746e-10
1.09255e-09
1.52677e-09
2.17119e-09
3.05245e-09
4.09946e-09
5.23734e-09
6.35467e-09
7.38055e-09
8.29124e-09
9.03203e-09
9.64532e-09
1.00716e-08
1.04226e-08
1.0672e-08
1.08645e-08
1.10011e-08
1.11018e-08
1.11665e-08
1.12033e-08
1.12188e-08
1.12182e-08
1.12027e-08
1.11687e-08
1.111e-08
1.10188e-08
1.08895e-08
1.0697e-08
1.04427e-08
1.00791e-08
9.64052e-09
9.0135e-09
8.26349e-09
7.35083e-09
6.32578e-09
5.21254e-09
4.0802e-09
3.03646e-09
2.15987e-09
1.5199e-09
1.08871e-09
7.94867e-10
5.74949e-10
4.19117e-10
3.27296e-10
3.01222e-10
2.88212e-10
3.12032e-10
4.0029e-10
5.51984e-10
7.67072e-10
1.04682e-09
1.44208e-09
2.01553e-09
2.79205e-09
3.71781e-09
4.72817e-09
5.70777e-09
6.63551e-09
7.4121e-09
8.09247e-09
8.66143e-09
9.06726e-09
9.38365e-09
9.60834e-09
9.78307e-09
9.9061e-09
9.99752e-09
1.0056e-08
1.00895e-08
1.01038e-08
1.01033e-08
1.00892e-08
1.00582e-08
1.00049e-08
9.92213e-09
9.80485e-09
9.63089e-09
9.40214e-09
9.07405e-09
8.65603e-09
8.07505e-09
7.38719e-09
6.60878e-09
5.6809e-09
4.70632e-09
3.70057e-09
2.77759e-09
2.00554e-09
1.43589e-09
1.04325e-09
7.64647e-10
5.50352e-10
3.99278e-10
3.11514e-10
2.8802e-10
2.74456e-10
2.95652e-10
3.79013e-10
5.25706e-10
7.34915e-10
1.0016e-09
1.36344e-09
1.87443e-09
2.55743e-09
3.37194e-09
4.26411e-09
5.12812e-09
5.94529e-09
6.64595e-09
7.21247e-09
7.71146e-09
8.07892e-09
8.37835e-09
8.58376e-09
8.74565e-09
8.86008e-09
8.94599e-09
9.00083e-09
9.03279e-09
9.04664e-09
9.0464e-09
9.03298e-09
9.00339e-09
8.9529e-09
8.87482e-09
8.7653e-09
8.60441e-09
8.39534e-09
8.08533e-09
7.70615e-09
7.19672e-09
6.62398e-09
5.91982e-09
5.10449e-09
4.24489e-09
3.35605e-09
2.5446e-09
1.86564e-09
1.35788e-09
9.98334e-10
7.32559e-10
5.2403e-10
3.78012e-10
2.95108e-10
2.74224e-10
2.60168e-10
2.78378e-10
3.57301e-10
4.97876e-10
7.00901e-10
9.56353e-10
1.28985e-09
1.7462e-09
2.34695e-09
3.06092e-09
3.84415e-09
4.60567e-09
5.32127e-09
5.92934e-09
6.45197e-09
6.89444e-09
7.21723e-09
7.44664e-09
7.62084e-09
7.76201e-09
7.86254e-09
7.93819e-09
7.98626e-09
8.01486e-09
8.02735e-09
8.02722e-09
8.01526e-09
7.98881e-09
7.94424e-09
7.87542e-09
7.77888e-09
7.63927e-09
7.4617e-09
7.22332e-09
6.88957e-09
6.4374e-09
5.90967e-09
5.29878e-09
4.58496e-09
3.82724e-09
3.04655e-09
2.33568e-09
1.73828e-09
1.28482e-09
9.52908e-10
6.98287e-10
4.96161e-10
3.56271e-10
2.77814e-10
2.59903e-10
2.45455e-10
2.61156e-10
3.34922e-10
4.68736e-10
6.65064e-10
9.10527e-10
1.2203e-09
1.63004e-09
2.15859e-09
2.7829e-09
3.46631e-09
4.13622e-09
4.75994e-09
5.29993e-09
5.76124e-09
6.13821e-09
6.42282e-09
6.64218e-09
6.79577e-09
6.91935e-09
7.00789e-09
7.0745e-09
7.11665e-09
7.14226e-09
7.15351e-09
7.15347e-09
7.14279e-09
7.11909e-09
7.07983e-09
7.01904e-09
6.93406e-09
6.81203e-09
6.65607e-09
6.4279e-09
6.13359e-09
5.74774e-09
5.28304e-09
4.74014e-09
4.11808e-09
3.45079e-09
2.77012e-09
2.14873e-09
1.62308e-09
1.2157e-09
9.0736e-10
6.62462e-10
4.66993e-10
3.33876e-10
2.60565e-10
2.45163e-10
2.30339e-10
2.43506e-10
3.12126e-10
4.38351e-10
6.27406e-10
8.63857e-10
1.15376e-09
1.52338e-09
1.99009e-09
2.53549e-09
3.13115e-09
3.71581e-09
4.25842e-09
4.73507e-09
5.14056e-09
5.47115e-09
5.71661e-09
5.91347e-09
6.05037e-09
6.15842e-09
6.2359e-09
6.29426e-09
6.331e-09
6.35374e-09
6.36381e-09
6.36382e-09
6.35435e-09
6.33323e-09
6.29884e-09
6.24558e-09
6.17106e-09
6.0644e-09
5.92581e-09
5.72109e-09
5.46697e-09
5.12871e-09
4.72028e-09
4.24096e-09
3.69987e-09
3.11752e-09
2.52425e-09
1.98147e-09
1.51716e-09
1.14951e-09
8.60789e-10
6.2496e-10
4.36671e-10
3.11077e-10
2.4294e-10
2.3003e-10
2.1513e-10
2.25999e-10
2.88305e-10
4.07576e-10
5.8839e-10
8.15994e-10
1.08931e-09
1.42589e-09
1.83908e-09
2.31584e-09
2.83391e-09
3.34296e-09
3.81473e-09
4.22977e-09
4.58685e-09
4.87357e-09
5.08641e-09
5.26042e-09
5.38212e-09
5.47605e-09
5.54325e-09
5.59421e-09
5.62611e-09
5.64616e-09
5.65513e-09
5.65517e-09
5.64682e-09
5.62808e-09
5.59808e-09
5.5516e-09
5.48669e-09
5.39385e-09
5.27138e-09
5.09047e-09
4.86956e-09
4.57648e-09
4.21688e-09
3.79938e-09
3.32891e-09
2.82195e-09
2.30601e-09
1.83154e-09
1.42029e-09
1.08535e-09
8.12987e-10
5.85978e-10
4.05893e-10
2.87265e-10
2.25412e-10
2.14806e-10
1.99816e-10
2.08431e-10
2.64751e-10
3.7653e-10
5.482e-10
7.66821e-10
1.02609e-09
1.33493e-09
1.70315e-09
2.12089e-09
2.57113e-09
3.01397e-09
3.42304e-09
3.78342e-09
4.08936e-09
4.34213e-09
4.52659e-09
4.68168e-09
4.78741e-09
4.86795e-09
4.92566e-09
4.97019e-09
4.99798e-09
5.01553e-09
5.02352e-09
5.02358e-09
5.01622e-09
4.99964e-09
4.97342e-09
4.93281e-09
4.87674e-09
4.79692e-09
4.69061e-09
4.53052e-09
4.33847e-09
4.0795e-09
3.77233e-09
3.40938e-09
3.00133e-09
2.56063e-09
2.11232e-09
1.69652e-09
1.33011e-09
1.02236e-09
7.63853e-10
5.45835e-10
3.74864e-10
2.63766e-10
2.07881e-10
1.99486e-10
1.84619e-10
1.91284e-10
2.42268e-10
3.44646e-10
5.07244e-10
7.16385e-10
9.63377e-10
1.24955e-09
1.57991e-09
1.94749e-09
2.33919e-09
2.72527e-09
3.07866e-09
3.39006e-09
3.6568e-09
3.87345e-09
4.03316e-09
4.15648e-09
4.25178e-09
4.32528e-09
4.37783e-09
4.41749e-09
4.44199e-09
4.45734e-09
4.46446e-09
4.46455e-09
4.45806e-09
4.44337e-09
4.42019e-09
4.38412e-09
4.33286e-09
4.2596e-09
4.16448e-09
4.03597e-09
3.87052e-09
3.6485e-09
3.38048e-09
3.06626e-09
2.71279e-09
2.32996e-09
1.94001e-09
1.57405e-09
1.24508e-09
9.59815e-10
7.13444e-10
5.04952e-10
3.43075e-10
2.41314e-10
1.90734e-10
1.84289e-10
1.69621e-10
1.74219e-10
2.19662e-10
3.14161e-10
4.65432e-10
6.64904e-10
9.00625e-10
1.16797e-09
1.46706e-09
1.7925e-09
2.13467e-09
2.46517e-09
2.77668e-09
3.04496e-09
3.27698e-09
3.46219e-09
3.60019e-09
3.70844e-09
3.79004e-09
3.8526e-09
3.89772e-09
3.93226e-09
3.95363e-09
3.96694e-09
3.97323e-09
3.97331e-09
3.96762e-09
3.95471e-09
3.93445e-09
3.90294e-09
3.8588e-09
3.79609e-09
3.71531e-09
3.60175e-09
3.45995e-09
3.27038e-09
3.03682e-09
2.76505e-09
2.45831e-09
2.12666e-09
1.78595e-09
1.46183e-09
1.16382e-09
8.9719e-10
6.62008e-10
4.63314e-10
3.12644e-10
2.18787e-10
1.73693e-10
1.69297e-10
1.54933e-10
1.58043e-10
1.98421e-10
2.83343e-10
4.24276e-10
6.12746e-10
8.37527e-10
1.08902e-09
1.36244e-09
1.65287e-09
1.95344e-09
2.24232e-09
2.51063e-09
2.74138e-09
2.94567e-09
3.10301e-09
3.22111e-09
3.31714e-09
3.38732e-09
3.44049e-09
3.47905e-09
3.5087e-09
3.52717e-09
3.53857e-09
3.54402e-09
3.54409e-09
3.53913e-09
3.52791e-09
3.51039e-09
3.48334e-09
3.44556e-09
3.39193e-09
3.32298e-09
3.22215e-09
3.10096e-09
2.94047e-09
2.73437e-09
2.49956e-09
2.23508e-09
1.94643e-09
1.64709e-09
1.35771e-09
1.08512e-09
8.34191e-10
6.09917e-10
4.22272e-10
2.81897e-10
1.97593e-10
1.5754e-10
1.54621e-10
1.40735e-10
1.4248e-10
1.7807e-10
2.54161e-10
3.83741e-10
5.60397e-10
7.74024e-10
1.01173e-09
1.26411e-09
1.52572e-09
1.79171e-09
2.04452e-09
2.27722e-09
2.47662e-09
2.6444e-09
2.784e-09
2.89023e-09
2.97712e-09
3.03707e-09
3.08213e-09
3.11485e-09
3.14005e-09
3.15584e-09
3.16552e-09
3.17013e-09
3.17016e-09
3.16588e-09
3.15631e-09
3.14129e-09
3.11832e-09
3.08619e-09
3.04074e-09
2.982e-09
2.89072e-09
2.7821e-09
2.64033e-09
2.46967e-09
2.26793e-09
2.03775e-09
1.78554e-09
1.52057e-09
1.25977e-09
1.00803e-09
7.70775e-10
5.57654e-10
3.81499e-10
2.52866e-10
1.77296e-10
1.42024e-10
1.40439e-10
1.27102e-10
1.27757e-10
1.58788e-10
2.26827e-10
3.43663e-10
5.08434e-10
7.10302e-10
9.35417e-10
1.17038e-09
1.40843e-09
1.64593e-09
1.86819e-09
2.07153e-09
2.24462e-09
2.39062e-09
2.50999e-09
2.60155e-09
2.66663e-09
2.71834e-09
2.758e-09
2.7869e-09
2.8093e-09
2.8235e-09
2.83221e-09
2.83628e-09
2.83635e-09
2.83248e-09
2.82393e-09
2.81036e-09
2.78995e-09
2.7613e-09
2.72154e-09
2.67057e-09
2.60167e-09
2.50866e-09
2.38672e-09
2.23843e-09
2.06363e-09
1.86212e-09
1.64046e-09
1.40376e-09
1.16635e-09
9.31868e-10
7.07142e-10
5.05797e-10
3.41632e-10
2.2562e-10
1.58072e-10
1.27334e-10
1.26828e-10
1.1413e-10
1.139e-10
1.40705e-10
2.00989e-10
3.06194e-10
4.5749e-10
6.46768e-10
8.59734e-10
1.07992e-09
1.29868e-09
1.51289e-09
1.70956e-09
1.88946e-09
2.03984e-09
2.1679e-09
2.27077e-09
2.34916e-09
2.40756e-09
2.45148e-09
2.48547e-09
2.51013e-09
2.52927e-09
2.54149e-09
2.54899e-09
2.55237e-09
2.55241e-09
2.54905e-09
2.54179e-09
2.53004e-09
2.51262e-09
2.48809e-09
2.454e-09
2.41065e-09
2.34952e-09
2.26942e-09
2.16393e-09
2.03428e-09
1.88263e-09
1.7042e-09
1.50797e-09
1.29437e-09
1.07615e-09
8.56313e-10
6.43709e-10
4.54973e-10
3.04349e-10
1.99876e-10
1.40047e-10
1.13513e-10
1.13879e-10
1.01908e-10
1.00981e-10
1.23915e-10
1.76839e-10
2.69851e-10
4.08198e-10
5.84001e-10
7.84655e-10
9.90992e-10
1.19458e-09
1.38972e-09
1.56624e-09
1.72544e-09
1.85758e-09
1.97087e-09
2.06064e-09
2.12757e-09
2.17973e-09
2.2177e-09
2.24709e-09
2.26834e-09
2.28483e-09
2.29539e-09
2.30189e-09
2.30471e-09
2.30473e-09
2.30179e-09
2.29559e-09
2.28535e-09
2.2704e-09
2.24916e-09
2.21958e-09
2.1823e-09
2.12812e-09
2.05929e-09
1.96642e-09
1.85268e-09
1.71945e-09
1.56137e-09
1.38523e-09
1.19052e-09
9.87386e-10
7.81356e-10
5.81062e-10
4.05819e-10
2.68208e-10
1.75825e-10
1.23316e-10
1.00631e-10
1.01682e-10
9.04869e-11
8.87902e-11
1.0848e-10
1.54539e-10
2.36676e-10
3.6043e-10
5.22685e-10
7.10493e-10
9.04483e-10
1.09469e-09
1.27399e-09
1.43401e-09
1.57668e-09
1.69439e-09
1.79406e-09
1.87382e-09
1.93155e-09
1.97804e-09
2.0112e-09
2.03698e-09
2.05546e-09
2.06981e-09
2.07899e-09
2.0847e-09
2.0871e-09
2.0871e-09
2.08453e-09
2.07917e-09
2.07014e-09
2.05714e-09
2.03853e-09
2.01266e-09
1.98015e-09
1.93219e-09
1.87226e-09
1.78949e-09
1.68986e-09
1.57122e-09
1.42955e-09
1.26984e-09
1.09085e-09
9.01067e-10
7.0732e-10
5.19888e-10
3.58201e-10
2.3519e-10
1.53629e-10
1.07939e-10
8.84789e-11
9.0288e-11
7.99095e-11
7.7644e-11
9.44323e-11
1.34157e-10
2.05974e-10
3.16027e-10
4.63542e-10
6.37784e-10
8.19532e-10
9.96476e-10
1.16379e-09
1.31025e-09
1.43977e-09
1.54552e-09
1.63425e-09
1.7057e-09
1.75638e-09
1.79771e-09
1.82687e-09
1.84978e-09
1.8661e-09
1.87871e-09
1.88681e-09
1.89186e-09
1.89397e-09
1.89397e-09
1.8917e-09
1.88698e-09
1.87892e-09
1.86744e-09
1.85092e-09
1.82818e-09
1.79926e-09
1.75678e-09
1.70391e-09
1.62969e-09
1.54133e-09
1.43464e-09
1.30612e-09
1.15986e-09
9.92827e-10
8.1626e-10
6.34752e-10
4.6091e-10
3.14018e-10
2.04642e-10
1.33355e-10
9.39476e-11
7.73691e-11
7.9737e-11
7.01828e-11
6.75692e-11
8.14198e-11
1.15708e-10
1.77896e-10
2.74775e-10
4.07262e-10
5.67239e-10
7.36433e-10
9.0217e-10
1.05778e-09
1.1929e-09
1.31186e-09
1.40773e-09
1.4879e-09
1.55223e-09
1.59769e-09
1.63434e-09
1.66038e-09
1.68098e-09
1.69555e-09
1.70679e-09
1.71401e-09
1.71853e-09
1.72043e-09
1.72044e-09
1.71841e-09
1.71418e-09
1.70691e-09
1.69664e-09
1.68182e-09
1.66159e-09
1.63547e-09
1.59756e-09
1.55034e-09
1.48336e-09
1.40385e-09
1.3069e-09
1.18903e-09
1.05398e-09
8.98622e-10
7.3329e-10
5.64364e-10
4.04811e-10
2.72966e-10
1.76717e-10
1.15012e-10
8.09895e-11
6.73483e-11
7.00334e-11
6.13034e-11
5.85981e-11
6.98425e-11
9.91632e-11
1.52513e-10
2.36904e-10
3.54391e-10
4.99637e-10
6.55762e-10
8.10313e-10
9.55281e-10
1.08058e-09
1.19062e-09
1.27874e-09
1.35137e-09
1.41047e-09
1.45171e-09
1.48442e-09
1.50796e-09
1.5266e-09
1.53979e-09
1.54994e-09
1.55645e-09
1.56054e-09
1.5623e-09
1.56233e-09
1.5605e-09
1.55666e-09
1.54998e-09
1.54069e-09
1.52727e-09
1.50907e-09
1.48519e-09
1.45106e-09
1.40841e-09
1.34687e-09
1.27512e-09
1.18575e-09
1.0769e-09
9.51588e-10
8.06761e-10
6.52745e-10
4.9694e-10
3.52139e-10
2.35278e-10
1.51483e-10
9.85606e-11
6.94901e-11
5.8406e-11
6.11837e-11
5.33086e-11
5.05591e-11
5.98099e-11
8.44629e-11
1.29817e-10
2.02578e-10
3.05588e-10
4.35722e-10
5.78302e-10
7.21315e-10
8.56119e-10
9.72546e-10
1.07477e-09
1.15607e-09
1.22298e-09
1.27741e-09
1.31546e-09
1.34491e-09
1.36639e-09
1.38348e-09
1.39552e-09
1.40481e-09
1.41074e-09
1.41448e-09
1.41613e-09
1.41618e-09
1.41453e-09
1.41098e-09
1.40478e-09
1.3963e-09
1.38393e-09
1.36757e-09
1.34567e-09
1.31429e-09
1.27528e-09
1.21828e-09
1.15274e-09
1.07002e-09
9.68998e-10
8.52523e-10
7.17741e-10
5.75398e-10
4.33243e-10
3.03542e-10
2.0112e-10
1.28929e-10
8.3934e-11
5.95003e-11
5.03924e-11
5.32121e-11
4.61315e-11
4.34153e-11
5.09562e-11
7.15396e-11
1.09737e-10
1.71845e-10
2.61073e-10
3.76245e-10
5.04789e-10
6.35842e-10
7.60521e-10
8.68494e-10
9.63743e-10
1.03895e-09
1.10058e-09
1.1511e-09
1.18659e-09
1.21345e-09
1.23291e-09
1.24904e-09
1.26015e-09
1.26873e-09
1.27419e-09
1.27765e-09
1.27922e-09
1.27929e-09
1.27778e-09
1.27449e-09
1.26866e-09
1.26082e-09
1.24919e-09
1.23361e-09
1.21302e-09
1.18515e-09
1.14894e-09
1.09605e-09
1.03557e-09
9.59259e-10
8.65111e-10
7.57046e-10
6.32287e-10
5.02083e-10
3.73937e-10
2.59239e-10
1.70543e-10
1.08979e-10
7.10843e-11
5.06904e-11
4.32734e-11
4.60557e-11
1.10658e-09
1.12154e-09
1.13182e-09
1.13981e-09
1.14487e-09
1.14809e-09
1.1496e-09
1.1497e-09
1.14832e-09
1.14524e-09
1.13979e-09
1.13249e-09
1.12161e-09
1.10733e-09
1.08813e-09
1.06219e-09
1.02831e-09
9.79577e-10
9.2334e-10
8.52941e-10
7.65441e-10
6.65757e-10
5.51215e-10
4.33586e-10
3.19066e-10
2.19407e-10
1.43496e-10
9.15048e-11
5.98889e-11
4.29824e-11
3.69979e-11
3.96611e-11
1.01704e-09
1.01022e-09
1.00004e-09
9.8691e-10
9.68844e-10
9.44833e-10
9.12863e-10
8.68155e-10
8.16165e-10
7.51419e-10
6.70508e-10
5.79505e-10
4.75244e-10
3.70554e-10
2.69925e-10
1.84085e-10
1.1985e-10
7.63541e-11
5.02076e-11
3.62884e-11
3.1503e-11
3.40227e-11
4.05676e-10
3.12339e-10
2.26185e-10
1.53162e-10
9.94115e-11
6.3317e-11
4.18912e-11
3.05151e-11
2.67208e-11
2.90694e-11
)
;

boundaryField
{
    fuel
    {
        type            fixedValue;
        value           nonuniform 0();
    }
    wall
    {
        type            zeroGradient;
    }
    outlet
    {
        type            zeroGradient;
    }
    frontAndBack
    {
        type            empty;
    }
    procBoundary0to1
    {
        type            processor;
        value           nonuniform List<scalar> 
50
(
5.78743e-10
5.79254e-10
6.71012e-10
9.18191e-10
1.51702e-09
2.74032e-09
4.77372e-09
7.51781e-09
1.07624e-08
1.45687e-08
1.78329e-08
2.08946e-08
2.36358e-08
2.59742e-08
2.79241e-08
2.98309e-08
3.11686e-08
3.20962e-08
3.27899e-08
3.32278e-08
3.35274e-08
3.37394e-08
3.3869e-08
3.39458e-08
3.3975e-08
3.39699e-08
3.39365e-08
3.3872e-08
3.37575e-08
3.35812e-08
3.32902e-08
3.28272e-08
3.2136e-08
3.11873e-08
2.98156e-08
2.78955e-08
2.59356e-08
2.35894e-08
2.08453e-08
1.77844e-08
1.45201e-08
1.0711e-08
7.48363e-09
4.74403e-09
2.72561e-09
1.51063e-09
9.16004e-10
6.70148e-10
5.78739e-10
5.78216e-10
)
;
    }
    procBoundary0to2
    {
        type            processor;
        value           nonuniform List<scalar> 
53
(
3.97354e-11
3.71273e-11
4.32059e-11
6.02878e-11
9.21585e-11
1.44667e-10
2.21016e-10
3.21162e-10
4.36076e-10
5.5463e-10
6.69052e-10
7.68484e-10
8.56991e-10
9.26751e-10
9.83505e-10
1.03019e-09
1.06353e-09
1.08829e-09
1.08829e-09
9.85879e-10
9.99779e-10
1.00935e-09
1.0168e-09
1.0215e-09
1.02452e-09
1.02596e-09
1.02609e-09
1.02482e-09
1.02194e-09
1.02194e-09
8.99835e-10
8.93513e-10
8.83959e-10
8.71857e-10
8.54864e-10
8.32783e-10
8.02858e-10
7.62117e-10
7.14151e-10
6.55098e-10
5.8126e-10
4.98302e-10
4.98302e-10
3.42407e-10
2.6122e-10
1.87811e-10
1.2641e-10
8.1844e-11
5.22845e-11
3.47913e-11
2.55742e-11
2.25942e-11
2.47543e-11
)
;
    }
}


// ************************************************************************* //
