/*--------------------------------*- C++ -*----------------------------------*\
| =========                 |                                                 |
| \\      /  F ield         | OpenFOAM: The Open Source CFD Toolbox           |
|  \\    /   O peration     | Version:  dev                                   |
|   \\  /    A nd           | Web:      www.OpenFOAM.org                      |
|    \\/     M anipulation  |                                                 |
\*---------------------------------------------------------------------------*/
FoamFile
{
    version     2.0;
    format      ascii;
    class       volScalarField;
    location    "0.005";
    object      c-C6H4;
}
// * * * * * * * * * * * * * * * * * * * * * * * * * * * * * * * * * * * * * //

dimensions      [0 0 0 0 0 0 0];

internalField   nonuniform List<scalar> 
250
(
2.95626e-08
2.94593e-08
2.97668e-08
2.93367e-08
2.91446e-08
2.71638e-08
2.21904e-08
1.26479e-08
4.3879e-09
1.42347e-09
2.50189e-08
2.49523e-08
2.51456e-08
2.47734e-08
2.44711e-08
2.28197e-08
1.87191e-08
1.06638e-08
3.71529e-09
1.16301e-09
9.39307e-10
3.09933e-09
8.71351e-09
1.50495e-08
1.84264e-08
2.00388e-08
2.05336e-08
2.08746e-08
2.07275e-08
2.07795e-08
2.07795e-08
2.07522e-08
2.08466e-08
2.04916e-08
1.99947e-08
1.83912e-08
1.50193e-08
8.67901e-09
3.09035e-09
9.37222e-10
7.42718e-10
2.47733e-09
6.98779e-09
1.22106e-08
1.51493e-08
1.60996e-08
1.63746e-08
1.65934e-08
1.65053e-08
1.6542e-08
1.6542e-08
1.64976e-08
1.65741e-08
1.63405e-08
1.6062e-08
1.51179e-08
1.21887e-08
6.97383e-09
2.47332e-09
7.41599e-10
5.7837e-10
1.97087e-09
5.43105e-09
9.54468e-09
1.2077e-08
1.30059e-08
1.3301e-08
1.34877e-08
1.3429e-08
1.34571e-08
1.3457e-08
1.34145e-08
1.34707e-08
1.32702e-08
1.29715e-08
1.20498e-08
9.53085e-09
5.42428e-09
1.96803e-09
5.77922e-10
4.41131e-10
1.51096e-09
4.07442e-09
7.2239e-09
9.24008e-09
1.00439e-08
1.03483e-08
1.05183e-08
1.04864e-08
1.05046e-08
1.05051e-08
1.04758e-08
1.05044e-08
1.03221e-08
1.00136e-08
9.21888e-09
7.21574e-09
4.06905e-09
1.50942e-09
4.40909e-10
3.29903e-10
1.0932e-09
2.84091e-09
5.15557e-09
6.79899e-09
7.49104e-09
7.77567e-09
7.92248e-09
7.9074e-09
7.91863e-09
7.92021e-09
7.90259e-09
7.91206e-09
7.75452e-09
7.46448e-09
6.78212e-09
5.14671e-09
2.83797e-09
1.09257e-09
3.29863e-10
2.42571e-10
8.1154e-10
1.97227e-09
3.38679e-09
4.53054e-09
5.08522e-09
5.33428e-09
5.458e-09
5.45181e-09
5.46068e-09
5.46151e-09
5.44933e-09
5.44991e-09
5.31733e-09
5.06139e-09
4.51791e-09
3.38249e-09
1.9713e-09
8.1133e-10
2.42638e-10
1.7881e-10
5.87717e-10
1.39564e-09
2.34627e-09
2.9582e-09
3.26274e-09
3.41404e-09
3.48269e-09
3.4815e-09
3.48286e-09
3.48451e-09
3.48204e-09
3.47907e-09
3.4044e-09
3.25622e-09
2.95228e-09
2.34373e-09
1.39526e-09
5.87744e-10
1.78913e-10
1.28831e-10
4.11621e-10
9.22992e-10
1.55659e-09
2.04201e-09
2.26464e-09
2.36619e-09
2.40877e-09
2.41056e-09
2.40865e-09
2.41025e-09
2.41177e-09
2.40674e-09
2.35977e-09
2.26119e-09
2.03838e-09
1.5552e-09
9.22934e-10
4.11754e-10
1.28943e-10
9.12051e-11
2.90414e-10
6.40704e-10
1.04549e-09
1.31781e-09
1.46097e-09
1.53213e-09
1.55939e-09
1.56223e-09
1.56054e-09
1.56179e-09
1.56315e-09
1.55816e-09
1.52783e-09
1.45718e-09
1.31578e-09
1.04498e-09
6.40707e-10
2.90571e-10
9.1305e-11
6.35859e-11
2.031e-10
4.44383e-10
7.00937e-10
9.01409e-10
9.88653e-10
1.03294e-09
1.04563e-09
1.04853e-09
1.04615e-09
1.04718e-09
1.04952e-09
1.04509e-09
1.03037e-09
9.86108e-10
8.99661e-10
7.00859e-10
4.44481e-10
2.03267e-10
6.36729e-11
4.33556e-11
1.38507e-10
2.9257e-10
4.44867e-10
5.80475e-10
6.43181e-10
6.78674e-10
6.89525e-10
6.92286e-10
6.9119e-10
6.91938e-10
6.92901e-10
6.89179e-10
6.77022e-10
6.41274e-10
5.79152e-10
4.44993e-10
2.92747e-10
1.38666e-10
4.34239e-11
4.29295e-10
4.30413e-10
4.27827e-10
4.2156e-10
4.00961e-10
3.66534e-10
2.85309e-10
1.91559e-10
9.26477e-11
2.88831e-11
)
;

boundaryField
{
    fuel
    {
        type            fixedValue;
        value           nonuniform 0();
    }
    wall
    {
        type            zeroGradient;
    }
    outlet
    {
        type            zeroGradient;
    }
    frontAndBack
    {
        type            empty;
    }
    procBoundary0to1
    {
        type            processor;
        value           nonuniform List<scalar> 
21
(
2.88328e-11
9.25115e-11
1.91358e-10
2.85105e-10
3.67208e-10
4.02045e-10
4.22432e-10
4.27909e-10
4.2991e-10
4.28765e-10
4.28765e-10
2.68908e-10
2.69948e-10
2.68105e-10
2.6488e-10
2.52273e-10
2.32496e-10
1.82593e-10
1.23824e-10
6.05172e-11
1.86838e-11
)
;
    }
    procBoundary0to2
    {
        type            processor;
        value           nonuniform List<scalar> 
12
(
2.95174e-08
1.16601e-09
3.72586e-09
1.06568e-08
1.8747e-08
2.28556e-08
2.45458e-08
2.4844e-08
2.52251e-08
2.49639e-08
2.50443e-08
2.50443e-08
)
;
    }
    procBoundary0to3
    {
        type            processor;
        value           nonuniform List<scalar> 10(3.33342e-08 3.32258e-08 3.35899e-08 3.31903e-08 3.307e-08 3.13156e-08 2.59597e-08 1.45398e-08 5.08903e-09 1.71929e-09);
    }
}


// ************************************************************************* //
