/*--------------------------------*- C++ -*----------------------------------*\
| =========                 |                                                 |
| \\      /  F ield         | OpenFOAM: The Open Source CFD Toolbox           |
|  \\    /   O peration     | Version:  dev                                   |
|   \\  /    A nd           | Web:      www.OpenFOAM.org                      |
|    \\/     M anipulation  |                                                 |
\*---------------------------------------------------------------------------*/
FoamFile
{
    version     2.0;
    format      ascii;
    class       volScalarField;
    location    "0.005";
    object      C5H5O;
}
// * * * * * * * * * * * * * * * * * * * * * * * * * * * * * * * * * * * * * //

dimensions      [0 0 0 0 0 0 0];

internalField   nonuniform List<scalar> 
25
(
7.31902e-11
1.3275e-11
2.39391e-12
4.33941e-13
8.16655e-14
1.8062e-14
6.83078e-15
5.86946e-15
7.70898e-15
1.11382e-14
1.637e-14
2.50112e-14
4.27132e-14
8.70697e-14
2.08205e-13
5.39783e-13
1.42219e-12
3.69538e-12
9.38461e-12
2.32725e-11
5.64018e-11
1.33672e-10
3.09846e-10
7.08622e-10
1.62906e-09
)
;

boundaryField
{
    wall
    {
        type            zeroGradient;
    }
    fuel
    {
        type            fixedValue;
        value           uniform 0;
    }
    outlet
    {
        type            inletOutlet;
        inletValue      nonuniform 0();
        value           nonuniform 0();
    }
    procBoundary0to1
    {
        type            processor;
        value           uniform 3.85414e-09;
    }
}


// ************************************************************************* //
