/*--------------------------------*- C++ -*----------------------------------*\
| =========                 |                                                 |
| \\      /  F ield         | OpenFOAM: The Open Source CFD Toolbox           |
|  \\    /   O peration     | Version:  dev                                   |
|   \\  /    A nd           | Web:      www.OpenFOAM.org                      |
|    \\/     M anipulation  |                                                 |
\*---------------------------------------------------------------------------*/
FoamFile
{
    version     2.0;
    format      ascii;
    class       volScalarField;
    location    "0.005";
    object      CH;
}
// * * * * * * * * * * * * * * * * * * * * * * * * * * * * * * * * * * * * * //

dimensions      [0 0 0 0 0 0 0];

internalField   nonuniform List<scalar> 
25
(
4.54059e-05
2.91861e-05
1.50402e-05
8.06998e-06
4.83162e-06
3.1461e-06
2.13515e-06
1.4726e-06
1.02344e-06
7.16383e-07
5.05879e-07
3.61079e-07
2.61203e-07
1.92379e-07
1.45337e-07
1.13834e-07
9.36296e-08
8.18424e-08
7.65254e-08
7.63105e-08
8.00057e-08
8.60731e-08
9.20765e-08
9.47344e-08
9.08928e-08
)
;

boundaryField
{
    wall
    {
        type            zeroGradient;
    }
    fuel
    {
        type            fixedValue;
        value           uniform 0;
    }
    outlet
    {
        type            inletOutlet;
        inletValue      nonuniform 0();
        value           nonuniform 0();
    }
    procBoundary0to1
    {
        type            processor;
        value           uniform 7.96912e-08;
    }
}


// ************************************************************************* //
