/*--------------------------------*- C++ -*----------------------------------*\
| =========                 |                                                 |
| \\      /  F ield         | OpenFOAM: The Open Source CFD Toolbox           |
|  \\    /   O peration     | Version:  dev                                   |
|   \\  /    A nd           | Web:      www.OpenFOAM.org                      |
|    \\/     M anipulation  |                                                 |
\*---------------------------------------------------------------------------*/
FoamFile
{
    version     2.0;
    format      ascii;
    class       volScalarField;
    location    "0.005";
    object      H2O;
}
// * * * * * * * * * * * * * * * * * * * * * * * * * * * * * * * * * * * * * //

dimensions      [0 0 0 0 0 0 0];

internalField   nonuniform List<scalar> 
250
(
0.00541877
0.00541099
0.00539686
0.00535615
0.00529869
0.00515174
0.00483142
0.00419381
0.00321151
0.00206234
0.00412725
0.00411773
0.00410435
0.0040732
0.00402243
0.00389865
0.00366763
0.00322139
0.00246295
0.00159181
0.00119441
0.0018964
0.00238944
0.00270864
0.00290061
0.00302634
0.00307368
0.00310792
0.00312983
0.00313854
0.00314441
0.00313415
0.00311853
0.00309066
0.00304168
0.00291364
0.00271702
0.00239492
0.00190149
0.00119862
0.000900792
0.00144803
0.00186099
0.00212244
0.00222524
0.00227805
0.00230318
0.00231808
0.00233001
0.00233567
0.0023389
0.0023353
0.00232778
0.00231345
0.00228806
0.00223404
0.00212891
0.00186548
0.00145166
0.000903901
0.000672176
0.0010936
0.00142688
0.00164162
0.00174422
0.00179171
0.0018135
0.00182474
0.00183343
0.00183783
0.0018404
0.00183828
0.00183251
0.00182198
0.0018003
0.00175003
0.00164669
0.00143014
0.00109639
0.000674374
0.000478884
0.000804323
0.00108197
0.00124185
0.00133287
0.00137569
0.00139551
0.00140601
0.00141346
0.00141707
0.00141913
0.00141676
0.00141089
0.00140209
0.00138167
0.0013374
0.00124645
0.00108457
0.000806407
0.000480456
0.000334197
0.000558602
0.000778621
0.000924714
0.00100254
0.00103848
0.00105616
0.00106592
0.00107259
0.00107557
0.00107731
0.00107467
0.0010687
0.0010613
0.00104351
0.00100599
0.000928374
0.000780904
0.000560131
0.000335234
0.000238245
0.000392739
0.000529708
0.000632433
0.000698856
0.000727572
0.000743849
0.000752342
0.000758717
0.000761473
0.000762867
0.000760192
0.000753977
0.000747701
0.000732086
0.000701658
0.000634892
0.000531197
0.000393811
0.000238977
0.000162285
0.000278057
0.000380056
0.00043485
0.000471035
0.000488841
0.000498706
0.000503509
0.000507587
0.000508931
0.000509749
0.00050819
0.000504791
0.000500739
0.000491282
0.000472473
0.000436271
0.000381078
0.000278971
0.00016282
0.000108197
0.000184799
0.000260879
0.000310069
0.00033946
0.000352687
0.000359551
0.000362798
0.000365751
0.000366545
0.000367118
0.00036611
0.000363781
0.000360834
0.000354234
0.00034054
0.000311216
0.000261667
0.000185179
0.000108501
7.15425e-05
0.000126654
0.000179099
0.000206095
0.000226689
0.000235961
0.000241356
0.000243892
0.00024629
0.000246909
0.000247304
0.000246432
0.00024436
0.000242098
0.000237019
0.000227484
0.000206874
0.000179591
0.000126884
7.17409e-05
4.60332e-05
8.34199e-05
0.000120581
0.000141395
0.000156339
0.0001621
0.000165565
0.000167292
0.000168923
0.000169336
0.000169587
0.000168963
0.000167446
0.000165931
0.000162695
0.00015688
0.000141927
0.00012093
8.36284e-05
4.61673e-05
2.86651e-05
5.14205e-05
7.43784e-05
8.88972e-05
0.000100785
0.000105514
0.000108524
0.000109918
0.0001112
0.0001115
0.000111675
0.000111199
0.000109986
0.000108766
0.000105956
0.000101184
8.93209e-05
7.45223e-05
5.15441e-05
2.87448e-05
6.71947e-05
6.68791e-05
6.6112e-05
6.54086e-05
6.37448e-05
6.1076e-05
5.42529e-05
4.50439e-05
3.11278e-05
1.74106e-05
)
;

boundaryField
{
    fuel
    {
        type            fixedValue;
        value           nonuniform 0();
    }
    wall
    {
        type            zeroGradient;
    }
    outlet
    {
        type            zeroGradient;
    }
    frontAndBack
    {
        type            empty;
    }
    procBoundary0to1
    {
        type            processor;
        value           nonuniform List<scalar> 
21
(
1.73761e-05
3.10768e-05
4.49716e-05
5.40931e-05
6.09352e-05
6.36158e-05
6.54106e-05
6.62088e-05
6.69967e-05
6.71716e-05
6.71716e-05
3.98071e-05
3.95975e-05
3.91219e-05
3.87144e-05
3.77206e-05
3.62054e-05
3.21955e-05
2.67441e-05
1.82313e-05
1.02657e-05
)
;
    }
    procBoundary0to2
    {
        type            processor;
        value           nonuniform List<scalar> 
12
(
0.00539427
0.0015881
0.0024526
0.00320811
0.00364989
0.00387208
0.00399501
0.0040415
0.00407791
0.00410432
0.00411792
0.00411792
)
;
    }
    procBoundary0to3
    {
        type            processor;
        value           nonuniform List<scalar> 10(0.00663153 0.0066344 0.00662012 0.0065792 0.00652616 0.00640107 0.00611399 0.00544146 0.00412212 0.00266618);
    }
}


// ************************************************************************* //
