/*--------------------------------*- C++ -*----------------------------------*\
| =========                 |                                                 |
| \\      /  F ield         | OpenFOAM: The Open Source CFD Toolbox           |
|  \\    /   O peration     | Version:  dev                                   |
|   \\  /    A nd           | Web:      www.OpenFOAM.org                      |
|    \\/     M anipulation  |                                                 |
\*---------------------------------------------------------------------------*/
FoamFile
{
    version     2.0;
    format      ascii;
    class       volScalarField;
    location    "0.005";
    object      i-A1C2H2;
}
// * * * * * * * * * * * * * * * * * * * * * * * * * * * * * * * * * * * * * //

dimensions      [0 0 0 0 0 0 0];

internalField   nonuniform List<scalar> 
250
(
6.7861e-11
6.70002e-11
6.80506e-11
6.52539e-11
6.33183e-11
5.46623e-11
4.22427e-11
2.88779e-11
2.19771e-11
9.64843e-11
4.16318e-11
4.11118e-11
4.16333e-11
3.98346e-11
3.84038e-11
3.33171e-11
2.64968e-11
1.84932e-11
1.44596e-11
7.13062e-11
5.20514e-11
9.52015e-12
1.16289e-11
1.58681e-11
1.96151e-11
2.29727e-11
2.42423e-11
2.54119e-11
2.51498e-11
2.54495e-11
2.54109e-11
2.51457e-11
2.53265e-11
2.41697e-11
2.2872e-11
1.95285e-11
1.5793e-11
1.1528e-11
9.46721e-12
5.17035e-11
3.68407e-11
5.94256e-12
7.41753e-12
1.02369e-11
1.26962e-11
1.39697e-11
1.44324e-11
1.49958e-11
1.48862e-11
1.5061e-11
1.50512e-11
1.48524e-11
1.49688e-11
1.44049e-11
1.39231e-11
1.26439e-11
1.01918e-11
7.38298e-12
5.92262e-12
3.66492e-11
2.56507e-11
3.8399e-12
4.6847e-12
6.49733e-12
8.15531e-12
9.16123e-12
9.49675e-12
9.85187e-12
9.79164e-12
9.90814e-12
9.90188e-12
9.75598e-12
9.83454e-12
9.47757e-12
9.12945e-12
8.12161e-12
6.47226e-12
4.66902e-12
3.82621e-12
2.55472e-11
1.74288e-11
2.40634e-12
2.91274e-12
4.0977e-12
5.14211e-12
5.83444e-12
6.09533e-12
6.33706e-12
6.30676e-12
6.381e-12
6.37672e-12
6.28331e-12
6.32514e-12
6.08135e-12
5.81217e-12
5.12101e-12
4.08435e-12
2.90224e-12
2.39831e-12
1.73633e-11
1.15966e-11
1.41292e-12
1.67831e-12
2.46165e-12
3.20814e-12
3.68114e-12
3.87306e-12
4.0375e-12
4.02202e-12
4.06941e-12
4.06699e-12
4.00949e-12
4.02973e-12
3.86327e-12
3.665e-12
3.19412e-12
2.45165e-12
1.6727e-12
1.40838e-12
1.15586e-11
7.50821e-12
8.90515e-13
9.96141e-13
1.36543e-12
1.80426e-12
2.11224e-12
2.24697e-12
2.35541e-12
2.34686e-12
2.377e-12
2.37506e-12
2.34007e-12
2.35013e-12
2.23992e-12
2.09981e-12
1.79547e-12
1.36074e-12
9.93483e-13
8.87685e-13
7.48854e-12
4.88165e-12
5.50723e-13
6.21907e-13
8.4105e-13
1.02155e-12
1.16304e-12
1.22902e-12
1.28309e-12
1.27868e-12
1.29414e-12
1.29349e-12
1.27602e-12
1.28094e-12
1.22588e-12
1.16047e-12
1.01767e-12
8.38328e-13
6.20408e-13
5.49027e-13
4.87192e-12
3.05274e-12
3.30329e-13
3.58885e-13
5.00873e-13
6.39807e-13
7.32236e-13
7.70425e-13
8.0237e-13
8.00222e-13
8.09196e-13
8.08937e-13
7.98906e-13
8.01236e-13
7.68658e-13
7.31354e-13
6.3756e-13
4.99331e-13
3.58069e-13
3.29344e-13
3.04914e-12
1.8238e-12
2.04299e-13
2.24389e-13
3.08112e-13
3.75106e-13
4.29919e-13
4.53653e-13
4.72643e-13
4.71758e-13
4.77248e-13
4.77143e-13
4.71009e-13
4.72e-13
4.52601e-13
4.28861e-13
3.73914e-13
3.07302e-13
2.23863e-13
2.03697e-13
1.82322e-12
1.03825e-12
1.28004e-13
1.42108e-13
1.91454e-13
2.39699e-13
2.72406e-13
2.85779e-13
2.95924e-13
2.9559e-13
2.98818e-13
2.98801e-13
2.95231e-13
2.95612e-13
2.85247e-13
2.71737e-13
2.38795e-13
1.9101e-13
1.41795e-13
1.27644e-13
1.03898e-12
5.54442e-13
7.9546e-14
8.4984e-14
1.11895e-13
1.43462e-13
1.66209e-13
1.76358e-13
1.83639e-13
1.83638e-13
1.85957e-13
1.85931e-13
1.83359e-13
1.83417e-13
1.76031e-13
1.6569e-13
1.42812e-13
1.11663e-13
8.48222e-14
7.93226e-14
5.55238e-13
1.08344e-13
1.06901e-13
1.06906e-13
1.02855e-13
9.73866e-14
8.47817e-14
6.70659e-14
5.13138e-14
4.94645e-14
2.74919e-13
)
;

boundaryField
{
    fuel
    {
        type            fixedValue;
        value           nonuniform 0();
    }
    wall
    {
        type            zeroGradient;
    }
    outlet
    {
        type            zeroGradient;
    }
    frontAndBack
    {
        type            empty;
    }
    procBoundary0to1
    {
        type            processor;
        value           nonuniform List<scalar> 
21
(
2.74564e-13
4.9607e-14
5.14177e-14
6.72314e-14
8.52131e-14
9.77684e-14
1.03103e-13
1.07127e-13
1.07169e-13
1.08478e-13
1.08478e-13
6.53566e-14
6.45371e-14
6.45213e-14
6.22296e-14
5.91427e-14
5.19257e-14
4.14964e-14
3.1582e-14
3.12097e-14
1.25481e-13
)
;
    }
    procBoundary0to2
    {
        type            processor;
        value           nonuniform List<scalar> 
12
(
6.76887e-11
7.16814e-11
1.45103e-11
1.84246e-11
2.65713e-11
3.34381e-11
3.87004e-11
4.00792e-11
4.20096e-11
4.13168e-11
4.18481e-11
4.18481e-11
)
;
    }
    procBoundary0to3
    {
        type            processor;
        value           nonuniform List<scalar> 10(9.69191e-11 9.59376e-11 9.71823e-11 9.41818e-11 9.17349e-11 8.33097e-11 6.73134e-11 4.33091e-11 3.28774e-11 1.27596e-10);
    }
}


// ************************************************************************* //
