/*--------------------------------*- C++ -*----------------------------------*\
| =========                 |                                                 |
| \\      /  F ield         | OpenFOAM: The Open Source CFD Toolbox           |
|  \\    /   O peration     | Version:  dev                                   |
|   \\  /    A nd           | Web:      www.OpenFOAM.org                      |
|    \\/     M anipulation  |                                                 |
\*---------------------------------------------------------------------------*/
FoamFile
{
    version     2.0;
    format      ascii;
    class       volScalarField;
    location    "0.005";
    object      l-C6H4;
}
// * * * * * * * * * * * * * * * * * * * * * * * * * * * * * * * * * * * * * //

dimensions      [0 0 0 0 0 0 0];

internalField   nonuniform List<scalar> 
250
(
1.05516e-08
1.04572e-08
1.0579e-08
1.02683e-08
1.00557e-08
9.05857e-09
7.51286e-09
5.56372e-09
4.46546e-09
8.2926e-09
7.55386e-09
7.49405e-09
7.55863e-09
7.34402e-09
7.17094e-09
6.52848e-09
5.56598e-09
4.209e-09
3.43509e-09
7.29691e-09
6.19944e-09
2.67745e-09
3.19173e-09
4.06789e-09
4.69678e-09
5.18536e-09
5.36406e-09
5.51999e-09
5.48407e-09
5.52246e-09
5.51551e-09
5.48332e-09
5.50748e-09
5.3526e-09
5.17067e-09
4.68421e-09
4.05715e-09
3.17669e-09
2.6697e-09
6.19154e-09
5.02367e-09
2.03963e-09
2.46015e-09
3.14142e-09
3.62599e-09
3.84509e-09
3.92207e-09
4.008e-09
3.99091e-09
4.01609e-09
4.01416e-09
3.98577e-09
4.00377e-09
3.91711e-09
3.8375e-09
3.6179e-09
3.13483e-09
2.45538e-09
2.03684e-09
5.02464e-09
3.86861e-09
1.59277e-09
1.89323e-09
2.40981e-09
2.79724e-09
2.99789e-09
3.0653e-09
3.12817e-09
3.11774e-09
3.13652e-09
3.13525e-09
3.11171e-09
3.12508e-09
3.06126e-09
2.99181e-09
2.79123e-09
2.40583e-09
1.8912e-09
1.59057e-09
3.87398e-09
2.82235e-09
1.22263e-09
1.44575e-09
1.84202e-09
2.1337e-09
2.29711e-09
2.35973e-09
2.4104e-09
2.40486e-09
2.41842e-09
2.41753e-09
2.4005e-09
2.40797e-09
2.35635e-09
2.29205e-09
2.12933e-09
1.83973e-09
1.44415e-09
1.22133e-09
2.82759e-09
1.95327e-09
9.04382e-10
1.06107e-09
1.36721e-09
1.61355e-09
1.74781e-09
1.80305e-09
1.84389e-09
1.84107e-09
1.85101e-09
1.85056e-09
1.8386e-09
1.84215e-09
1.80037e-09
1.74345e-09
1.61017e-09
1.36499e-09
1.06025e-09
9.03646e-10
1.95786e-09
1.24088e-09
6.92051e-10
7.95581e-10
9.72907e-10
1.14923e-09
1.25614e-09
1.30362e-09
1.33647e-09
1.3349e-09
1.34249e-09
1.34212e-09
1.33343e-09
1.33514e-09
1.3014e-09
1.25212e-09
1.14671e-09
9.71841e-10
7.95378e-10
6.91602e-10
1.2445e-09
7.71877e-10
5.1619e-10
6.11829e-10
7.38233e-10
8.27646e-10
8.87285e-10
9.16223e-10
9.35953e-10
9.35208e-10
9.39715e-10
9.39714e-10
9.34725e-10
9.35462e-10
9.15134e-10
8.86587e-10
8.26468e-10
7.37615e-10
6.11829e-10
5.15967e-10
7.74365e-10
4.49963e-10
3.72065e-10
4.491e-10
5.48941e-10
6.32438e-10
6.79106e-10
6.99482e-10
7.13055e-10
7.12982e-10
7.15883e-10
7.15999e-10
7.12828e-10
7.12845e-10
6.98822e-10
6.7887e-10
6.31691e-10
5.48629e-10
4.49179e-10
3.7201e-10
4.51555e-10
2.4574e-10
2.65894e-10
3.41811e-10
4.14498e-10
4.64719e-10
4.98047e-10
5.13949e-10
5.23575e-10
5.23931e-10
5.26043e-10
5.26194e-10
5.23868e-10
5.23483e-10
5.13506e-10
4.97537e-10
4.64289e-10
4.1442e-10
3.41897e-10
2.65933e-10
2.46617e-10
1.30307e-10
1.85731e-10
2.57163e-10
3.10843e-10
3.55724e-10
3.79042e-10
3.90339e-10
3.96181e-10
3.96773e-10
3.98078e-10
3.98255e-10
3.96826e-10
3.96197e-10
3.90113e-10
3.78679e-10
3.55313e-10
3.10861e-10
2.57278e-10
1.8582e-10
1.3076e-10
6.8637e-11
1.25134e-10
1.81772e-10
2.20077e-10
2.57354e-10
2.77299e-10
2.88231e-10
2.93531e-10
2.94325e-10
2.95459e-10
2.95588e-10
2.94313e-10
2.9351e-10
2.88036e-10
2.76913e-10
2.56958e-10
2.20129e-10
1.81893e-10
1.25216e-10
6.88345e-11
2.05499e-10
2.04817e-10
2.04053e-10
2.00584e-10
1.92858e-10
1.79821e-10
1.53228e-10
1.24763e-10
8.14514e-11
3.65207e-11
)
;

boundaryField
{
    fuel
    {
        type            fixedValue;
        value           nonuniform 0();
    }
    wall
    {
        type            zeroGradient;
    }
    outlet
    {
        type            zeroGradient;
    }
    frontAndBack
    {
        type            empty;
    }
    procBoundary0to1
    {
        type            processor;
        value           nonuniform List<scalar> 
21
(
3.64762e-11
8.13987e-11
1.2467e-10
1.53195e-10
1.80132e-10
1.93205e-10
2.00794e-10
2.04139e-10
2.04898e-10
2.0549e-10
2.0549e-10
1.40144e-10
1.39838e-10
1.39137e-10
1.36954e-10
1.31324e-10
1.22641e-10
1.03481e-10
8.25484e-11
5.11281e-11
1.96396e-11
)
;
    }
    procBoundary0to2
    {
        type            processor;
        value           nonuniform List<scalar> 
12
(
1.05233e-08
7.305e-09
3.4417e-09
4.19769e-09
5.57387e-09
6.54116e-09
7.20425e-09
7.37118e-09
7.6008e-09
7.51512e-09
7.57772e-09
7.57772e-09
)
;
    }
    procBoundary0to3
    {
        type            processor;
        value           nonuniform List<scalar> 10(1.37054e-08 1.35998e-08 1.37421e-08 1.34166e-08 1.31587e-08 1.22238e-08 1.03602e-08 7.28049e-09 5.84626e-09 9.15021e-09);
    }
}


// ************************************************************************* //
