/*--------------------------------*- C++ -*----------------------------------*\
| =========                 |                                                 |
| \\      /  F ield         | OpenFOAM: The Open Source CFD Toolbox           |
|  \\    /   O peration     | Version:  dev                                   |
|   \\  /    A nd           | Web:      www.OpenFOAM.org                      |
|    \\/     M anipulation  |                                                 |
\*---------------------------------------------------------------------------*/
FoamFile
{
    version     2.0;
    format      ascii;
    class       volScalarField;
    location    "0.005";
    object      n-C4H3;
}
// * * * * * * * * * * * * * * * * * * * * * * * * * * * * * * * * * * * * * //

dimensions      [0 0 0 0 0 0 0];

internalField   nonuniform List<scalar> 
250
(
8.87087e-09
8.78893e-09
8.87266e-09
8.60524e-09
8.3979e-09
7.56936e-09
6.41688e-09
5.16952e-09
4.29086e-09
2.00858e-08
6.2127e-09
6.15874e-09
6.20185e-09
6.01188e-09
5.84379e-09
5.30568e-09
4.60945e-09
3.78283e-09
3.23438e-09
1.75477e-08
1.53114e-08
2.44738e-09
2.74912e-09
3.21802e-09
3.65076e-09
4.05922e-09
4.22579e-09
4.3662e-09
4.34448e-09
4.3791e-09
4.37668e-09
4.34648e-09
4.35937e-09
4.22048e-09
4.05026e-09
3.64195e-09
3.20997e-09
2.7365e-09
2.44125e-09
1.52252e-08
1.31343e-08
1.7923e-09
2.02802e-09
2.38698e-09
2.7103e-09
2.88221e-09
2.95058e-09
3.02673e-09
3.01735e-09
3.04069e-09
3.03977e-09
3.01258e-09
3.02405e-09
2.94791e-09
2.87687e-09
2.70389e-09
2.38153e-09
2.0241e-09
1.79047e-09
1.30732e-08
1.11693e-08
1.34441e-09
1.48885e-09
1.75604e-09
2.00743e-09
2.16263e-09
2.21948e-09
2.27418e-09
2.26865e-09
2.28623e-09
2.28533e-09
2.26302e-09
2.2719e-09
2.21697e-09
2.15815e-09
2.00257e-09
1.75266e-09
1.48717e-09
1.34279e-09
1.11251e-08
9.3489e-09
9.85925e-10
1.08035e-09
1.28791e-09
1.4703e-09
1.59259e-09
1.6425e-09
1.68518e-09
1.68261e-09
1.69537e-09
1.69468e-09
1.67861e-09
1.68336e-09
1.64035e-09
1.58893e-09
1.46683e-09
1.28593e-09
1.07889e-09
9.84902e-10
9.31385e-09
7.71834e-09
6.91464e-10
7.44074e-10
9.11884e-10
1.06897e-09
1.1664e-09
1.20845e-09
1.24174e-09
1.2406e-09
1.25e-09
1.24962e-09
1.2383e-09
1.24044e-09
1.20676e-09
1.16331e-09
1.06629e-09
9.09974e-10
7.43239e-10
6.90803e-10
7.69193e-09
6.21456e-09
5.08707e-10
5.25225e-10
6.12894e-10
7.23834e-10
7.99545e-10
8.34283e-10
8.60144e-10
8.59487e-10
8.66502e-10
8.66157e-10
8.58078e-10
8.59139e-10
8.32863e-10
7.96594e-10
7.21837e-10
6.11911e-10
5.24897e-10
5.08226e-10
6.19711e-09
4.91839e-09
3.66227e-10
3.81295e-10
4.44426e-10
4.96233e-10
5.36499e-10
5.56626e-10
5.7174e-10
5.71424e-10
5.75643e-10
5.75569e-10
5.70825e-10
5.71344e-10
5.55967e-10
5.36088e-10
4.95257e-10
4.43799e-10
3.8114e-10
3.65899e-10
4.90841e-09
3.69618e-09
2.56437e-10
2.60141e-10
3.12471e-10
3.63382e-10
3.95208e-10
4.09093e-10
4.19551e-10
4.19575e-10
4.22406e-10
4.22411e-10
4.19247e-10
4.19338e-10
4.08688e-10
3.95075e-10
3.62724e-10
3.12092e-10
2.60042e-10
2.56206e-10
3.6927e-09
2.57743e-09
1.81944e-10
1.87392e-10
2.24154e-10
2.52855e-10
2.75155e-10
2.85586e-10
2.92872e-10
2.93092e-10
2.95178e-10
2.95205e-10
2.92862e-10
2.92734e-10
2.85303e-10
2.74801e-10
2.52448e-10
2.23957e-10
1.87305e-10
1.81774e-10
2.5783e-09
1.64992e-09
1.28694e-10
1.34876e-10
1.60384e-10
1.85792e-10
2.01395e-10
2.08426e-10
2.12904e-10
2.132e-10
2.14611e-10
2.14651e-10
2.13072e-10
2.12837e-10
2.08278e-10
2.01133e-10
1.85414e-10
1.60266e-10
1.34822e-10
1.28576e-10
1.65271e-09
9.59636e-10
8.93716e-11
9.18031e-11
1.08518e-10
1.28565e-10
1.41595e-10
1.48006e-10
1.51943e-10
1.52298e-10
1.535e-10
1.53505e-10
1.52147e-10
1.51856e-10
1.47877e-10
1.41325e-10
1.28225e-10
1.08441e-10
9.17747e-11
8.92715e-11
9.62031e-10
1.03663e-10
1.02795e-10
1.0257e-10
1.00034e-10
9.59113e-11
8.75465e-11
7.42245e-11
6.23787e-11
6.14394e-11
5.06544e-10
)
;

boundaryField
{
    fuel
    {
        type            fixedValue;
        value           nonuniform 0();
    }
    wall
    {
        type            zeroGradient;
    }
    outlet
    {
        type            zeroGradient;
    }
    frontAndBack
    {
        type            empty;
    }
    procBoundary0to1
    {
        type            processor;
        value           nonuniform List<scalar> 
21
(
5.05402e-10
6.15095e-11
6.24002e-11
7.42933e-11
8.78049e-11
9.61412e-11
1.00159e-10
1.02686e-10
1.02964e-10
1.03728e-10
1.03728e-10
7.12349e-11
7.06787e-11
7.05014e-11
6.8848e-11
6.60922e-11
6.05553e-11
5.13652e-11
4.24635e-11
4.22027e-11
2.42254e-10
)
;
    }
    procBoundary0to2
    {
        type            processor;
        value           nonuniform List<scalar> 
12
(
8.85189e-09
1.7615e-08
3.23817e-09
3.76877e-09
4.61549e-09
5.31595e-09
5.8704e-09
6.03232e-09
6.23676e-09
6.17766e-09
6.23227e-09
6.23227e-09
)
;
    }
    procBoundary0to3
    {
        type            processor;
        value           nonuniform List<scalar> 10(1.15936e-08 1.15066e-08 1.15935e-08 1.13274e-08 1.10766e-08 1.03433e-08 9.02294e-09 6.91475e-09 5.6668e-09 2.27907e-08);
    }
}


// ************************************************************************* //
