/*--------------------------------*- C++ -*----------------------------------*\
| =========                 |                                                 |
| \\      /  F ield         | OpenFOAM: The Open Source CFD Toolbox           |
|  \\    /   O peration     | Version:  dev                                   |
|   \\  /    A nd           | Web:      www.OpenFOAM.org                      |
|    \\/     M anipulation  |                                                 |
\*---------------------------------------------------------------------------*/
FoamFile
{
    version     2.0;
    format      ascii;
    class       volScalarField;
    location    "0.005";
    object      N2;
}
// * * * * * * * * * * * * * * * * * * * * * * * * * * * * * * * * * * * * * //

dimensions      [0 0 0 0 0 0 0];

internalField   nonuniform List<scalar> 
250
(
0.919559
0.919668
0.919872
0.920466
0.921312
0.923468
0.928136
0.937319
0.951211
0.967201
0.938471
0.938608
0.938802
0.939259
0.940008
0.94183
0.945209
0.951653
0.962441
0.974627
0.980895
0.97096
0.963972
0.959352
0.956534
0.954678
0.953978
0.953476
0.953161
0.953035
0.952927
0.953077
0.953305
0.953716
0.95444
0.956331
0.95922
0.963886
0.970883
0.980833
0.985524
0.977712
0.971808
0.968009
0.966497
0.965715
0.965342
0.965124
0.964953
0.964871
0.96482
0.964873
0.964983
0.965194
0.96557
0.96637
0.967916
0.971746
0.977664
0.985484
0.989134
0.983067
0.978268
0.975135
0.973619
0.972914
0.97259
0.972425
0.972301
0.972237
0.972202
0.972233
0.972318
0.972473
0.972795
0.973541
0.975068
0.978228
0.983034
0.989108
0.992194
0.987456
0.983422
0.981082
0.979732
0.979094
0.978799
0.978644
0.978536
0.978484
0.978458
0.978493
0.97858
0.97871
0.979015
0.979673
0.981021
0.983391
0.987432
0.992176
0.994492
0.991199
0.987973
0.985818
0.984659
0.984122
0.983857
0.983713
0.983615
0.983572
0.983551
0.98359
0.983679
0.983789
0.984055
0.984615
0.985771
0.987945
0.991182
0.99448
0.996025
0.99374
0.991728
0.990204
0.989209
0.988778
0.988533
0.988407
0.988313
0.988272
0.988256
0.988296
0.988389
0.988483
0.988717
0.989173
0.990173
0.991711
0.993729
0.996017
0.99725
0.995511
0.993999
0.993186
0.992642
0.992373
0.992224
0.992152
0.992091
0.992072
0.992063
0.992086
0.992138
0.992199
0.992341
0.992625
0.993169
0.993988
0.995501
0.997244
0.998131
0.996964
0.995823
0.995084
0.994638
0.994437
0.994332
0.994284
0.994239
0.994228
0.994222
0.994238
0.994273
0.994317
0.994418
0.994626
0.99507
0.995814
0.996961
0.998128
0.998737
0.997881
0.997086
0.996679
0.996364
0.996222
0.996139
0.9961
0.996064
0.996055
0.996051
0.996065
0.996097
0.996131
0.996209
0.996355
0.99667
0.997081
0.99788
0.998735
0.999165
0.998573
0.998001
0.997683
0.997452
0.997363
0.997309
0.997282
0.997257
0.997251
0.997249
0.997259
0.997282
0.997306
0.997356
0.997446
0.997677
0.997997
0.998571
0.999164
0.999463
0.999094
0.998734
0.998508
0.998322
0.998248
0.9982
0.998179
0.998159
0.998154
0.998153
0.99816
0.99818
0.998199
0.998243
0.998317
0.998503
0.998733
0.999093
0.999462
0.998858
0.998863
0.998875
0.998886
0.998913
0.998955
0.999064
0.99921
0.999433
0.999662
)
;

boundaryField
{
    fuel
    {
        type            fixedValue;
        value           nonuniform 0();
    }
    wall
    {
        type            zeroGradient;
    }
    outlet
    {
        type            zeroGradient;
    }
    frontAndBack
    {
        type            empty;
    }
    procBoundary0to1
    {
        type            processor;
        value           nonuniform List<scalar> 
21
(
0.999662
0.999433
0.99921
0.999066
0.998956
0.998914
0.998885
0.998872
0.99886
0.998857
0.998857
0.999301
0.999304
0.999312
0.999319
0.999335
0.99936
0.999425
0.999513
0.999654
0.999791
)
;
    }
    procBoundary0to2
    {
        type            processor;
        value           nonuniform List<scalar> 
12
(
0.919934
0.974687
0.962605
0.951865
0.945489
0.94224
0.94043
0.939743
0.939212
0.938835
0.938638
0.938638
)
;
    }
    procBoundary0to3
    {
        type            processor;
        value           nonuniform List<scalar> 10(0.901865 0.901816 0.902019 0.902614 0.903395 0.905225 0.909386 0.918981 0.937574 0.957647);
    }
}


// ************************************************************************* //
