/*--------------------------------*- C++ -*----------------------------------*\
| =========                 |                                                 |
| \\      /  F ield         | OpenFOAM: The Open Source CFD Toolbox           |
|  \\    /   O peration     | Version:  dev                                   |
|   \\  /    A nd           | Web:      www.OpenFOAM.org                      |
|    \\/     M anipulation  |                                                 |
\*---------------------------------------------------------------------------*/
FoamFile
{
    version     2.0;
    format      ascii;
    class       volScalarField;
    location    "0.005";
    object      p;
}
// * * * * * * * * * * * * * * * * * * * * * * * * * * * * * * * * * * * * * //

dimensions      [1 -1 -2 0 0 0 0];

internalField   nonuniform List<scalar> 
250
(
100135
100131
100123
100113
100100
100085
100069
100051
100032
100013
100135
100131
100123
100113
100100
100085
100069
100051
100032
100013
100013
100034
100055
100073
100091
100106
100119
100128
100134
100136
100135
100131
100124
100113
100100
100086
100069
100051
100032
100013
100013
100034
100055
100073
100091
100106
100119
100128
100134
100136
100135
100131
100124
100113
100101
100086
100069
100051
100032
100013
100013
100034
100055
100073
100091
100106
100119
100128
100134
100136
100135
100131
100124
100113
100101
100086
100069
100052
100032
100013
100013
100034
100055
100073
100091
100106
100119
100128
100134
100136
100135
100131
100124
100113
100101
100086
100069
100052
100032
100013
100013
100034
100055
100073
100091
100106
100119
100128
100134
100136
100135
100131
100124
100114
100101
100086
100069
100052
100032
100013
100013
100034
100055
100073
100091
100106
100119
100128
100134
100136
100135
100131
100124
100114
100101
100086
100069
100052
100032
100012
100013
100034
100055
100073
100091
100106
100119
100128
100134
100136
100135
100131
100124
100114
100101
100086
100069
100052
100032
100012
100013
100034
100055
100074
100091
100106
100119
100128
100134
100136
100135
100131
100124
100114
100101
100086
100069
100052
100032
100012
100013
100034
100055
100074
100091
100106
100119
100128
100134
100136
100135
100131
100124
100114
100101
100086
100069
100052
100032
100012
100013
100034
100055
100074
100091
100106
100119
100128
100134
100137
100136
100131
100124
100114
100101
100086
100069
100052
100032
100012
100013
100034
100055
100074
100091
100106
100119
100128
100134
100137
100136
100131
100124
100114
100101
100086
100070
100052
100032
100012
100136
100131
100124
100114
100101
100086
100070
100052
100032
100012
)
;

boundaryField
{
    fuel
    {
        type            zeroGradient;
    }
    wall
    {
        type            zeroGradient;
    }
    outlet
    {
        type            totalPressure;
        rho             none;
        psi             none;
        gamma           1;
        p0              uniform 100000;
        value           uniform 100000;
    }
    frontAndBack
    {
        type            empty;
    }
    procBoundary0to1
    {
        type            processor;
        value           nonuniform List<scalar> 
21
(
100013
100034
100055
100074
100091
100106
100119
100128
100134
100137
100137
100136
100132
100124
100114
100101
100086
100070
100052
100032
100012
)
;
    }
    procBoundary0to2
    {
        type            processor;
        value           nonuniform List<scalar> 
12
(
100136
100013
100034
100055
100073
100091
100106
100119
100128
100134
100136
100136
)
;
    }
    procBoundary0to3
    {
        type            processor;
        value           nonuniform List<scalar> 10(100135 100131 100123 100113 100100 100085 100069 100051 100032 100013);
    }
}


// ************************************************************************* //
