/*--------------------------------*- C++ -*----------------------------------*\
| =========                 |                                                 |
| \\      /  F ield         | OpenFOAM: The Open Source CFD Toolbox           |
|  \\    /   O peration     | Version:  dev                                   |
|   \\  /    A nd           | Web:      www.OpenFOAM.org                      |
|    \\/     M anipulation  |                                                 |
\*---------------------------------------------------------------------------*/
FoamFile
{
    version     2.0;
    format      ascii;
    class       volScalarField;
    location    "0.005";
    object      P2-H;
}
// * * * * * * * * * * * * * * * * * * * * * * * * * * * * * * * * * * * * * //

dimensions      [0 0 0 0 0 0 0];

internalField   nonuniform List<scalar> 
250
(
6.60686e-16
6.57492e-16
6.53585e-16
6.44156e-16
6.31768e-16
5.99377e-16
5.26302e-16
3.82754e-16
1.98196e-16
6.81769e-17
3.88331e-16
3.85924e-16
3.83128e-16
3.77362e-16
3.68408e-16
3.46538e-16
3.04894e-16
2.26277e-16
1.176e-16
4.183e-17
2.38613e-17
6.88568e-17
1.22343e-16
1.63748e-16
1.89288e-16
2.06181e-16
2.12581e-16
2.17552e-16
2.21182e-16
2.22857e-16
2.24049e-16
2.22271e-16
2.19865e-16
2.15852e-16
2.09039e-16
1.91567e-16
1.6513e-16
1.23114e-16
6.93408e-17
2.40617e-17
1.35515e-17
3.92382e-17
7.2072e-17
9.78737e-17
1.08443e-16
1.13955e-16
1.1656e-16
1.18249e-16
1.19784e-16
1.20589e-16
1.21094e-16
1.20561e-16
1.19656e-16
1.18065e-16
1.15351e-16
1.09615e-16
9.86768e-17
7.25327e-17
3.9491e-17
1.36612e-17
7.46904e-18
2.16626e-17
4.07612e-17
5.64856e-17
6.44868e-17
6.8255e-17
6.99874e-17
7.09462e-17
7.17951e-17
7.22647e-17
7.25586e-17
7.23229e-17
7.18072e-17
7.09099e-17
6.91384e-17
6.5097e-17
5.6953e-17
4.1006e-17
2.18016e-17
7.52678e-18
3.73365e-18
1.12759e-17
2.24157e-17
3.09108e-17
3.61233e-17
3.86652e-17
3.98466e-17
4.0504e-17
4.10271e-17
4.13039e-17
4.14748e-17
4.1308e-17
4.09353e-17
4.03772e-17
3.91305e-17
3.64697e-17
3.12111e-17
2.25562e-17
1.13502e-17
3.76332e-18
1.77084e-18
5.17608e-18
1.10065e-17
1.63236e-17
1.94935e-17
2.1048e-17
2.18151e-17
2.22603e-17
2.25904e-17
2.27519e-17
2.2854e-17
2.27279e-17
2.24583e-17
2.21166e-17
2.13227e-17
1.96839e-17
1.64935e-17
1.109e-17
5.21349e-18
1.78472e-18
8.80082e-19
2.42078e-18
4.77866e-18
7.18293e-18
8.94714e-18
9.77533e-18
1.0249e-17
1.05102e-17
1.07165e-17
1.0813e-17
1.08675e-17
1.07826e-17
1.0596e-17
1.04017e-17
9.93409e-18
9.04734e-18
7.25882e-18
4.81562e-18
2.43866e-18
8.87019e-19
4.0496e-19
1.16491e-18
2.31726e-18
3.1699e-18
3.79497e-18
4.1225e-18
4.30791e-18
4.40471e-18
4.48862e-18
4.52035e-18
4.54183e-18
4.50991e-18
4.44379e-18
4.36395e-18
4.18126e-18
3.83043e-18
3.19944e-18
2.33511e-18
1.17493e-18
4.08396e-19
1.80017e-19
4.97698e-19
1.04219e-18
1.53087e-18
1.86296e-18
2.02693e-18
2.1136e-18
2.15784e-18
2.19855e-18
2.21128e-18
2.22172e-18
2.20815e-18
2.17858e-18
2.13918e-18
2.05332e-18
1.88072e-18
1.54644e-18
1.05107e-18
5.00922e-19
1.81346e-19
8.05009e-20
2.29941e-19
4.7391e-19
6.48602e-19
7.96161e-19
8.69803e-19
9.12657e-19
9.34198e-19
9.54726e-19
9.60539e-19
9.65221e-19
9.58315e-19
9.42143e-19
9.22987e-19
8.81408e-19
8.04283e-19
6.55345e-19
4.77671e-19
2.31251e-19
8.10757e-20
3.49307e-20
1.00892e-19
2.12198e-19
2.9913e-19
3.6891e-19
3.99475e-19
4.17461e-19
4.27143e-19
4.36212e-19
4.3862e-19
4.40649e-19
4.37612e-19
4.29918e-19
4.21422e-19
4.0412e-19
3.72608e-19
3.02175e-19
2.13919e-19
1.01586e-19
3.51881e-20
1.45459e-20
3.98585e-20
8.21235e-20
1.19595e-19
1.54348e-19
1.70058e-19
1.79816e-19
1.8474e-19
1.89186e-19
1.90255e-19
1.91171e-19
1.89751e-19
1.85826e-19
1.81515e-19
1.72191e-19
1.56034e-19
1.21034e-19
8.26227e-20
4.01259e-20
1.46496e-20
7.15518e-20
7.10057e-20
6.95085e-20
6.79791e-20
6.46088e-20
5.89771e-20
4.6428e-20
3.16029e-20
1.56935e-20
5.9499e-21
)
;

boundaryField
{
    fuel
    {
        type            fixedValue;
        value           nonuniform 0();
    }
    wall
    {
        type            zeroGradient;
    }
    outlet
    {
        type            zeroGradient;
    }
    frontAndBack
    {
        type            empty;
    }
    procBoundary0to1
    {
        type            processor;
        value           nonuniform List<scalar> 
21
(
5.91366e-21
1.56055e-20
3.1423e-20
4.6022e-20
5.85081e-20
6.40538e-20
6.75993e-20
6.93321e-20
7.09728e-20
7.13394e-20
7.13394e-20
2.68483e-20
2.66325e-20
2.60699e-20
2.55253e-20
2.42941e-20
2.22849e-20
1.76993e-20
1.21252e-20
6.01188e-21
2.37217e-21
)
;
    }
    procBoundary0to2
    {
        type            processor;
        value           nonuniform List<scalar> 
12
(
6.54173e-16
4.15626e-17
1.16429e-16
2.24123e-16
3.01438e-16
3.41007e-16
3.62266e-16
3.70106e-16
3.7698e-16
3.82849e-16
3.86215e-16
3.86215e-16
)
;
    }
    procBoundary0to3
    {
        type            processor;
        value           nonuniform List<scalar> 10(9.71537e-16 9.6961e-16 9.64682e-16 9.53431e-16 9.40583e-16 9.08229e-16 8.279e-16 6.31256e-16 3.17793e-16 1.07955e-16);
    }
}


// ************************************************************************* //
