/*--------------------------------*- C++ -*----------------------------------*\
| =========                 |                                                 |
| \\      /  F ield         | OpenFOAM: The Open Source CFD Toolbox           |
|  \\    /   O peration     | Version:  dev                                   |
|   \\  /    A nd           | Web:      www.OpenFOAM.org                      |
|    \\/     M anipulation  |                                                 |
\*---------------------------------------------------------------------------*/
FoamFile
{
    version     2.0;
    format      ascii;
    class       surfaceScalarField;
    location    "0.005";
    object      phi;
}
// * * * * * * * * * * * * * * * * * * * * * * * * * * * * * * * * * * * * * //

dimensions      [1 0 -1 0 0 0 0];

internalField   nonuniform List<scalar> 
3936
(
2.40781e-08
-1.24069e-06
2.44144e-08
-3.68092e-06
3.4629e-08
-3.35341e-06
8.01811e-08
-2.86051e-06
1.62097e-07
-1.31737e-06
2.63141e-07
2.10266e-07
3.60292e-07
1.63221e-06
4.38714e-07
2.67031e-06
4.90496e-07
3.38129e-06
5.17913e-07
3.79856e-06
5.25092e-07
4.06297e-06
5.16048e-07
4.18566e-06
4.95097e-07
4.25137e-06
4.65904e-07
4.27775e-06
4.31394e-07
4.28447e-06
3.93233e-07
4.29318e-06
3.52986e-07
4.29167e-06
3.11055e-07
4.29744e-06
2.68077e-07
4.29737e-06
2.24293e-07
4.30398e-06
1.79971e-07
4.30631e-06
1.35208e-07
4.31081e-06
9.01855e-08
4.31161e-06
4.49699e-08
4.31285e-06
-3.4699e-10
4.31193e-06
-4.56944e-08
4.3108e-06
-9.09943e-08
4.30969e-06
-1.36123e-07
4.30753e-06
-1.8099e-07
4.30659e-06
-2.25403e-07
4.30328e-06
-2.69256e-07
4.30327e-06
-3.12237e-07
4.29928e-06
-3.54107e-07
4.30094e-06
-3.94267e-07
4.29561e-06
-4.32278e-07
4.29641e-06
-4.66607e-07
4.28625e-06
-4.95583e-07
4.27813e-06
-5.16316e-07
4.25145e-06
-5.25121e-07
4.18559e-06
-5.17692e-07
4.06202e-06
-4.90007e-07
3.79663e-06
-4.37912e-07
3.37594e-06
-3.59273e-07
2.66165e-06
-2.61983e-07
1.62213e-06
-1.60928e-07
2.01452e-07
-7.90028e-08
-1.32158e-06
-3.34291e-08
-2.85967e-06
-2.32538e-08
-3.34904e-06
-2.31693e-08
-3.67659e-06
-1.23849e-06
6.07575e-09
-1.25362e-06
-6.98179e-09
-3.67827e-06
-6.02011e-09
-3.36429e-06
3.223e-08
-2.90997e-06
1.0818e-07
-1.40513e-06
2.0569e-07
1.00908e-07
3.02226e-07
1.52377e-06
3.82222e-07
2.57947e-06
4.37111e-07
3.3141e-06
4.68459e-07
3.75683e-06
4.7971e-07
4.04184e-06
4.74683e-07
4.18111e-06
4.57709e-07
4.2589e-06
4.32236e-07
4.29421e-06
4.0123e-07
4.30695e-06
3.664e-07
4.31988e-06
3.29342e-07
4.32103e-06
2.905e-07
4.3288e-06
2.50542e-07
4.33008e-06
2.09728e-07
4.3377e-06
1.68346e-07
4.34063e-06
1.26506e-07
4.34563e-06
8.43917e-08
4.34684e-06
4.20746e-08
4.34829e-06
-3.51477e-10
4.3475e-06
-4.28122e-08
4.3464e-06
-8.52254e-08
4.34524e-06
-1.27461e-07
4.34288e-06
-1.69421e-07
4.34163e-06
-2.10904e-07
4.33772e-06
-2.51789e-07
4.33699e-06
-2.91745e-07
4.33198e-06
-3.30515e-07
4.33224e-06
-3.6747e-07
4.32486e-06
-4.02132e-07
4.32292e-06
-4.32947e-07
4.30853e-06
-4.58185e-07
4.29435e-06
-4.74932e-07
4.25875e-06
-4.79708e-07
4.18079e-06
-4.68201e-07
4.04064e-06
-4.3658e-07
3.75455e-06
-3.8139e-07
3.30852e-06
-3.01186e-07
2.57064e-06
-2.04531e-07
1.51353e-06
-1.0702e-07
9.21057e-08
-3.1064e-08
-1.40934e-06
7.04695e-09
-2.90896e-06
8.23698e-09
-3.36009e-06
-5.15258e-09
-3.67342e-06
-1.25114e-06
-1.35093e-08
-1.25723e-06
-3.92814e-08
-3.66205e-06
-4.59536e-08
-3.36721e-06
-1.53139e-08
-2.95147e-06
5.46789e-08
-1.48655e-06
1.48404e-07
-4.14957e-09
2.43913e-07
1.417e-06
3.25054e-07
2.48791e-06
3.82707e-07
3.24458e-06
4.1775e-07
3.71215e-06
4.32943e-07
4.01727e-06
4.31877e-07
4.17309e-06
4.18878e-07
4.26312e-06
3.97193e-07
4.30754e-06
3.69776e-07
4.32634e-06
3.38385e-07
4.34366e-06
3.04633e-07
4.34761e-06
2.69004e-07
4.3575e-06
2.32194e-07
4.36021e-06
1.94482e-07
4.36887e-06
1.56175e-07
4.37245e-06
1.17392e-07
4.37796e-06
7.83231e-08
4.37951e-06
3.90423e-08
4.38119e-06
-3.5472e-10
4.38052e-06
-3.97902e-08
4.37947e-06
-7.91783e-08
4.37825e-06
-1.18383e-07
4.3757e-06
-1.57299e-07
4.37413e-06
-1.95717e-07
4.36965e-06
-2.33502e-07
4.36819e-06
-2.70304e-07
4.3621e-06
-3.0585e-07
4.36085e-06
-3.39486e-07
4.35131e-06
-3.70693e-07
4.34651e-06
-3.97907e-07
4.32772e-06
-4.19343e-07
4.30743e-06
-4.32106e-07
4.26274e-06
-4.3291e-07
4.17252e-06
-4.17456e-07
4.01581e-06
-3.82138e-07
3.70952e-06
-3.24193e-07
3.23878e-06
-2.42858e-07
2.47891e-06
-1.47249e-07
1.40664e-06
-5.35321e-08
-1.29311e-08
1.64673e-08
-1.49079e-06
4.71374e-08
-2.95037e-06
4.04618e-08
-3.36303e-06
1.43517e-08
-3.6568e-06
-1.25466e-06
-3.44286e-08
-1.25343e-06
-7.17307e-08
-3.63378e-06
-8.59455e-08
-3.36185e-06
-6.23354e-08
-2.98541e-06
1.74547e-09
-1.56152e-06
9.14876e-08
-1.04648e-07
1.85599e-07
1.31231e-06
2.67481e-07
2.39617e-06
3.27558e-07
3.1732e-06
3.66047e-07
3.66485e-06
3.85029e-07
3.98951e-06
3.87873e-07
4.16176e-06
3.78832e-07
4.26404e-06
3.60959e-07
4.3177e-06
3.372e-07
4.34267e-06
3.09338e-07
4.36455e-06
2.78988e-07
4.37141e-06
2.46679e-07
4.38353e-06
2.1313e-07
4.3877e-06
1.78635e-07
4.39744e-06
1.43521e-07
4.40169e-06
1.07916e-07
4.40773e-06
7.2012e-08
4.40961e-06
3.58888e-08
4.41153e-06
-3.5666e-10
4.41099e-06
-3.66446e-08
4.40999e-06
-7.28849e-08
4.40872e-06
-1.08937e-07
4.40596e-06
-1.44689e-07
4.40406e-06
-1.79923e-07
4.39902e-06
-2.14492e-07
4.3968e-06
-2.48029e-07
4.38958e-06
-2.80246e-07
4.38677e-06
-3.10464e-07
4.37497e-06
-3.3813e-07
4.36718e-06
-3.61672e-07
4.34382e-06
-3.79286e-07
4.31732e-06
-3.88082e-07
4.26341e-06
-3.84968e-07
4.16091e-06
-3.6572e-07
3.9878e-06
-3.26955e-07
3.66189e-06
-2.66596e-07
3.16718e-06
-1.84535e-07
2.38702e-06
-9.03395e-08
1.30185e-06
-6.13449e-10
-1.13401e-07
6.34697e-08
-1.56578e-06
8.71172e-08
-2.98409e-06
7.2919e-08
-3.35781e-06
3.54159e-08
-3.62831e-06
-1.25067e-06
-5.71275e-08
-1.24275e-06
-1.04431e-07
-3.59515e-06
-1.25608e-07
-3.35059e-06
-1.08699e-07
-3.012e-06
-5.0471e-08
-1.62992e-06
3.51235e-08
-2.00395e-07
1.27509e-07
1.21003e-06
2.09756e-07
2.30478e-06
2.71925e-07
3.10042e-06
3.13602e-07
3.61525e-06
3.3621e-07
3.95881e-06
3.42899e-07
4.14725e-06
3.37777e-07
4.26172e-06
3.23717e-07
4.32472e-06
3.03673e-07
4.35594e-06
2.79405e-07
4.38252e-06
2.5254e-07
4.3924e-06
2.2364e-07
4.40686e-06
1.93445e-07
4.41253e-06
1.62267e-07
4.42336e-06
1.30448e-07
4.42831e-06
9.81238e-08
4.4349e-06
6.54902e-08
4.43712e-06
3.26304e-08
4.43928e-06
-3.57373e-10
4.43888e-06
-3.33911e-08
4.43792e-06
-6.63771e-08
4.4366e-06
-9.91712e-08
4.43364e-06
-1.31653e-07
4.4314e-06
-1.63601e-07
4.42578e-06
-1.94855e-07
4.42278e-06
-2.25032e-07
4.41436e-06
-2.53832e-07
4.40998e-06
-2.80552e-07
4.39581e-06
-3.04611e-07
4.38491e-06
-3.24427e-07
4.35687e-06
-3.38218e-07
4.32407e-06
-3.43087e-07
4.26083e-06
-3.36122e-07
4.14613e-06
-3.13243e-07
3.95684e-06
-2.71291e-07
3.61195e-06
-2.0885e-07
3.09418e-06
-1.26441e-07
2.29549e-06
-3.3986e-08
1.19949e-06
5.1584e-08
-2.09111e-07
1.09814e-07
-1.63421e-06
1.26763e-07
-3.01006e-06
1.05626e-07
-3.34648e-06
5.82495e-08
-3.5896e-06
-1.23989e-06
-8.13467e-08
-1.22598e-06
-1.37305e-07
-3.54755e-06
-1.64834e-07
-3.33213e-06
-1.54308e-07
-3.03145e-06
-1.01854e-07
-1.69242e-06
-2.05253e-08
-2.91114e-07
6.9847e-08
1.1107e-06
1.5211e-07
2.21417e-06
2.1605e-07
3.02693e-06
2.60655e-07
3.56336e-06
2.8672e-07
3.9254e-06
2.97171e-07
4.12972e-06
2.95911e-07
4.25626e-06
2.8565e-07
4.32866e-06
2.69358e-07
4.3662e-06
2.48733e-07
4.39757e-06
2.25417e-07
4.41058e-06
1.99998e-07
4.42746e-06
1.73236e-07
4.43464e-06
1.45459e-07
4.44661e-06
1.17019e-07
4.45229e-06
8.80639e-08
4.45943e-06
5.87895e-08
4.46199e-06
2.92827e-08
4.4644e-06
-3.56844e-10
4.46414e-06
-3.00456e-08
4.46324e-06
-5.96866e-08
4.46187e-06
-8.91321e-08
4.45869e-06
-1.18257e-07
4.4561e-06
-1.46832e-07
4.4499e-06
-1.74686e-07
4.44609e-06
-2.01426e-07
4.43644e-06
-2.26737e-07
4.43046e-06
-2.49896e-07
4.41382e-06
-2.70301e-07
4.39973e-06
-2.86354e-07
4.36689e-06
-2.96338e-07
4.32772e-06
-2.97338e-07
4.25511e-06
-2.86605e-07
4.12832e-06
-2.60267e-07
3.92318e-06
-2.15389e-07
3.55972e-06
-1.51189e-07
3.02046e-06
-6.87771e-08
2.20471e-06
2.16491e-08
1.10011e-06
1.02946e-07
-2.99787e-07
1.55407e-07
-1.69665e-06
1.6597e-07
-3.0304e-06
1.38504e-07
-3.32806e-06
8.25966e-08
-3.54205e-06
-1.22316e-06
-1.06813e-07
-1.20392e-06
-1.70262e-07
-3.49219e-06
-2.03543e-07
-3.30736e-06
-1.99072e-07
-3.04419e-06
-1.52282e-07
-1.74816e-06
-7.53143e-08
-3.76674e-07
1.27926e-08
1.01442e-06
9.47578e-08
2.12488e-06
1.6016e-07
2.95311e-06
2.07434e-07
3.50952e-06
2.36779e-07
3.88952e-06
2.50889e-07
4.10932e-06
2.53427e-07
4.24778e-06
2.46943e-07
4.32959e-06
2.34416e-07
4.37348e-06
2.17465e-07
4.40972e-06
1.97745e-07
4.42594e-06
1.75862e-07
4.44533e-06
1.52597e-07
4.45403e-06
1.28287e-07
4.46716e-06
1.03297e-07
4.47358e-06
7.77827e-08
4.4813e-06
5.19406e-08
4.48422e-06
2.58613e-08
4.48687e-06
-3.55067e-10
4.48677e-06
-2.66235e-08
4.48592e-06
-5.28441e-08
4.48449e-06
-7.88665e-08
4.4811e-06
-1.0456e-07
4.47814e-06
-1.29692e-07
4.47134e-06
-1.5408e-07
4.46671e-06
-1.77319e-07
4.45579e-06
-1.99085e-07
4.44819e-06
-2.1864e-07
4.429e-06
-2.3536e-07
4.41163e-06
-2.4764e-07
4.37392e-06
-2.5384e-07
4.32836e-06
-2.51035e-07
4.24637e-06
-2.36639e-07
4.10764e-06
-2.07019e-07
3.8871e-06
-1.59475e-07
3.50554e-06
-9.38244e-08
2.94639e-06
-1.1725e-08
2.11535e-06
7.64215e-08
1.00379e-06
1.53352e-07
-3.853e-07
2.00147e-07
-1.7523e-06
2.0466e-07
-3.04374e-06
1.71462e-07
-3.30339e-06
1.08122e-07
-3.48679e-06
-1.20116e-06
-1.33234e-07
-1.17713e-06
-2.03215e-07
-3.43002e-06
-2.41668e-07
-3.27697e-06
-2.42923e-07
-3.0512e-06
-2.01661e-07
-1.79734e-06
-1.29113e-07
-4.56988e-07
-4.34895e-08
9.21522e-07
3.78873e-08
2.03645e-06
1.04463e-07
2.87918e-06
1.54155e-07
3.45406e-06
1.86599e-07
3.85137e-06
2.04249e-07
4.08624e-06
2.10512e-07
4.23641e-06
2.0777e-07
4.3276e-06
1.99002e-07
4.37782e-06
1.8574e-07
4.41901e-06
1.69645e-07
4.43848e-06
1.5134e-07
4.46046e-06
1.31618e-07
4.47072e-06
1.10828e-07
4.48501e-06
8.93429e-08
4.49218e-06
6.73255e-08
4.50048e-06
4.4974e-08
4.50377e-06
2.23812e-08
4.50669e-06
-3.52046e-10
4.50673e-06
-2.31398e-08
4.50594e-06
-4.588e-08
4.50446e-06
-6.84198e-08
4.50086e-06
-9.06244e-08
4.49752e-06
-1.12257e-07
4.49009e-06
-1.33126e-07
4.48463e-06
-1.52818e-07
4.47243e-06
-1.71e-07
4.46318e-06
-1.8692e-07
4.44135e-06
-1.99943e-07
4.42065e-06
-2.08458e-07
4.37801e-06
-2.10908e-07
4.32608e-06
-2.04374e-07
4.23472e-06
-1.86434e-07
4.08428e-06
-1.53717e-07
3.8487e-06
-1.03758e-07
3.4498e-06
-3.69454e-08
2.87223e-06
4.45513e-08
2.02682e-06
1.30201e-07
9.10866e-07
2.02706e-07
-4.65569e-07
2.43969e-07
-1.80152e-06
2.42767e-07
-3.05054e-06
2.04412e-07
-3.27312e-06
1.3456e-07
-3.42474e-06
-1.17444e-06
-1.60363e-07
-1.14604e-06
-2.3608e-07
-3.36184e-06
-2.79126e-07
-3.24153e-06
-2.85775e-07
-3.05215e-06
-2.49909e-07
-1.84042e-06
-1.8181e-07
-5.32007e-07
-9.8858e-08
8.32218e-07
-1.83295e-08
1.94977e-06
4.91512e-08
2.80527e-06
1.01021e-07
3.39726e-06
1.36377e-07
3.81125e-06
1.57439e-07
4.06066e-06
1.67342e-07
4.22226e-06
1.68295e-07
4.32277e-06
1.63262e-07
4.37931e-06
1.5369e-07
4.42546e-06
1.41236e-07
4.44821e-06
1.26534e-07
4.47286e-06
1.10388e-07
4.48472e-06
9.3154e-08
4.50016e-06
7.5214e-08
4.50807e-06
5.6736e-08
4.51698e-06
3.79186e-08
4.52066e-06
1.8857e-08
4.52383e-06
-3.4779e-10
4.52403e-06
-1.96092e-08
4.52331e-06
-3.88233e-08
4.52176e-06
-5.78357e-08
4.51794e-06
-7.65079e-08
4.51422e-06
-9.45997e-08
4.50614e-06
-1.11912e-07
4.49986e-06
-1.28026e-07
4.48639e-06
-1.42599e-07
4.47544e-06
-1.54871e-07
4.45088e-06
-1.64197e-07
4.42683e-06
-1.68971e-07
4.37923e-06
-1.67721e-07
4.32095e-06
-1.57543e-07
4.2203e-06
-1.36188e-07
4.05842e-06
-1.00561e-07
3.8083e-06
-4.84291e-08
3.39274e-06
1.92763e-08
2.79808e-06
9.99109e-08
1.94004e-06
1.82876e-07
8.21553e-07
2.50927e-07
-5.40546e-07
2.86793e-07
-1.8446e-06
2.80205e-07
-3.05145e-06
2.3727e-07
-3.23784e-06
1.61684e-07
-3.35669e-06
-1.14343e-06
-1.88016e-07
-1.11101e-06
-2.68774e-07
-3.28836e-06
-3.15876e-07
-3.20155e-06
-3.27597e-07
-3.04723e-06
-2.96963e-07
-1.87769e-06
-2.3331e-07
-6.0175e-07
-1.53183e-07
7.46695e-07
-7.37391e-08
1.86521e-06
-5.59827e-09
2.73233e-06
4.82139e-08
3.33942e-06
8.62957e-08
3.76939e-06
1.10635e-07
4.03278e-06
1.24083e-07
4.2055e-06
1.28673e-07
4.31521e-06
1.27339e-07
4.37799e-06
1.21441e-07
4.42917e-06
1.12631e-07
4.45511e-06
1.01541e-07
4.48253e-06
8.89895e-08
4.49611e-06
7.53359e-08
4.51268e-06
6.0967e-08
4.52127e-06
4.60564e-08
4.5308e-06
3.08026e-08
4.53488e-06
1.53028e-08
4.53832e-06
-3.42315e-10
4.53868e-06
-1.60457e-08
4.53801e-06
-3.17022e-08
4.53641e-06
-4.71564e-08
4.53237e-06
-6.22667e-08
4.52825e-06
-7.6791e-08
4.51951e-06
-9.05233e-08
4.51248e-06
-1.0304e-07
4.49771e-06
-1.13996e-07
4.48496e-06
-1.22618e-07
4.45759e-06
-1.28263e-07
4.43026e-06
-1.29334e-07
4.37765e-06
-1.24442e-07
4.31309e-06
-1.10717e-07
4.20326e-06
-8.60845e-08
4.03025e-06
-4.77347e-08
3.76617e-06
6.33503e-09
3.33462e-06
7.46875e-08
2.72492e-06
1.54224e-07
1.85539e-06
2.34352e-07
7.36034e-07
2.97952e-07
-6.1025e-07
3.28584e-07
-1.88184e-06
3.16932e-07
-3.04665e-06
2.69955e-07
-3.19806e-06
1.89329e-07
-3.28334e-06
-1.10848e-06
-2.16084e-07
-1.07238e-06
-3.01253e-07
-3.21064e-06
-3.51902e-07
-3.15724e-06
-3.6836e-07
-3.03687e-06
-3.4276e-07
-1.90915e-06
-2.8353e-07
-6.66202e-07
-2.06352e-07
6.65109e-07
-1.28202e-07
1.78303e-06
-5.96355e-08
2.65996e-06
-4.09929e-09
3.28084e-06
3.65243e-08
3.72604e-06
6.40017e-08
4.00277e-06
8.08889e-08
4.18628e-06
8.90464e-08
4.30502e-06
9.13646e-08
4.3739e-06
8.91138e-08
4.43028e-06
8.39362e-08
4.45917e-06
7.64569e-08
4.48938e-06
6.75032e-08
4.50493e-06
5.744e-08
4.52281e-06
4.66552e-08
4.53178e-06
3.53267e-08
4.54195e-06
2.36527e-08
4.54643e-06
1.17318e-08
4.55014e-06
-3.35646e-10
4.55066e-06
-1.24627e-08
4.55006e-06
-2.45434e-08
4.5484e-06
-3.6422e-08
4.54414e-06
-4.79543e-08
4.53962e-06
-5.88973e-08
4.5302e-06
-6.9039e-08
4.52273e-06
-7.79559e-08
4.50647e-06
-8.52965e-08
4.49166e-06
-9.02814e-08
4.46147e-06
-9.22746e-08
4.43109e-06
-8.96911e-08
4.37329e-06
-8.12284e-08
4.3026e-06
-6.40617e-08
4.18377e-06
-3.62916e-08
3.99998e-06
4.59386e-09
3.72254e-06
6.03834e-08
3.27576e-06
1.29149e-07
2.65232e-06
2.07379e-07
1.77313e-06
2.84547e-07
6.54463e-07
3.43719e-07
-6.74649e-07
3.69319e-07
-1.91325e-06
3.52934e-07
-3.03646e-06
3.0242e-07
-3.15407e-06
2.17389e-07
-3.20578e-06
-1.06993e-06
-2.44442e-07
-1.03049e-06
-3.33358e-07
-3.12887e-06
-3.87125e-07
-3.10925e-06
-4.08051e-07
-3.0215e-06
-3.87263e-07
-1.93495e-06
-3.32406e-07
-7.2532e-07
-2.58271e-07
5.8758e-07
-1.81598e-07
1.70341e-06
-1.12814e-07
2.58851e-06
-5.57607e-08
3.22179e-06
-1.27828e-08
3.68143e-06
1.76889e-08
3.97084e-06
3.7905e-08
4.16485e-06
4.95504e-08
4.29228e-06
5.54642e-08
4.36699e-06
5.682e-08
4.42916e-06
5.52541e-08
4.46119e-06
5.13726e-08
4.49409e-06
4.60062e-08
4.51151e-06
3.95275e-08
4.53168e-06
3.23287e-08
4.53963e-06
2.45851e-08
4.55042e-06
1.64942e-08
4.5553e-06
8.15681e-09
4.55929e-06
-3.27813e-10
4.55998e-06
-8.8729e-09
4.55943e-06
-1.73724e-08
4.55771e-06
-2.56707e-08
4.55323e-06
-3.36211e-08
4.54831e-06
-4.09796e-08
4.53823e-06
-4.75369e-08
4.53158e-06
-5.28642e-08
4.51301e-06
-5.66032e-08
4.49621e-06
-5.79736e-08
4.46325e-06
-5.63565e-08
4.42969e-06
-5.01757e-08
4.36612e-06
-3.82231e-08
4.28955e-06
-1.77273e-08
4.16207e-06
1.30359e-08
3.96778e-06
5.6273e-08
3.67768e-06
1.13571e-07
3.21643e-06
1.82541e-07
2.58063e-06
2.59281e-07
1.69345e-06
3.33396e-07
5.7696e-07
3.88192e-07
-7.33665e-07
4.0898e-07
-1.93899e-06
3.88134e-07
-3.02125e-06
3.3451e-07
-3.10644e-06
2.45739e-07
-3.12418e-06
-1.02812e-06
-2.7303e-07
-9.85684e-07
-3.65081e-07
-3.04367e-06
-4.21576e-07
-3.05869e-06
-4.46672e-07
-3.00125e-06
-4.30442e-07
-1.95533e-06
-3.79886e-07
-7.79173e-07
-3.0886e-07
5.14203e-07
-2.33822e-07
1.62656e-06
-1.6501e-07
2.51829e-06
-1.06641e-07
3.16249e-06
-6.14862e-08
3.63578e-06
-2.81649e-08
3.93721e-06
-4.73691e-09
4.14163e-06
1.03083e-08
4.27703e-06
1.97563e-08
4.35876e-06
2.46657e-08
4.42734e-06
2.66763e-08
4.46071e-06
2.63682e-08
4.49603e-06
2.45757e-08
4.51455e-06
2.16531e-08
4.53464e-06
1.80359e-08
4.54473e-06
1.3867e-08
4.55615e-06
9.35104e-09
4.56143e-06
4.58963e-09
4.56571e-06
-3.18852e-10
4.56656e-06
-5.28837e-09
4.56608e-06
-1.02131e-08
4.56429e-06
-1.49383e-08
4.55959e-06
-1.93155e-08
4.55426e-06
-2.30937e-08
4.5435e-06
-2.60937e-08
4.53458e-06
-2.78458e-08
4.516e-06
-2.80084e-08
4.49801e-06
-2.58005e-08
4.46257e-06
-2.06272e-08
4.42762e-06
-1.09119e-08
4.35763e-06
4.44151e-09
4.27398e-06
2.81482e-08
4.13857e-06
6.17588e-08
3.93389e-06
1.07167e-07
3.63181e-06
1.65774e-07
3.15687e-06
2.34759e-07
2.51013e-06
3.09853e-07
1.61655e-06
3.80848e-07
5.03616e-07
4.31338e-07
-7.87407e-07
4.47568e-07
-1.9593e-06
4.22547e-07
-3.001e-06
3.66205e-07
-3.05581e-06
2.74317e-07
-3.03915e-06
-9.83407e-07
-3.01782e-07
-9.38267e-07
-3.96359e-07
-2.95565e-06
-4.55187e-07
-3.00499e-06
-4.84183e-07
-2.97656e-06
-4.72282e-07
-1.97073e-06
-4.25932e-07
-8.27751e-07
-3.58057e-07
4.45044e-07
-2.84784e-07
1.55263e-06
-2.16113e-07
2.44955e-06
-1.56616e-07
3.10309e-06
-1.09458e-07
3.58928e-06
-7.34322e-08
3.90205e-06
-4.69232e-08
4.11747e-06
-2.85672e-08
4.26027e-06
-1.56566e-08
4.34791e-06
-7.26882e-09
4.41879e-06
-1.71828e-09
4.45747e-06
1.51069e-09
4.49533e-06
3.26015e-09
4.51539e-06
3.88361e-09
4.537e-06
3.81988e-09
4.54863e-06
3.20557e-09
4.5606e-06
2.24508e-09
4.56622e-06
1.0413e-09
4.57075e-06
-3.08816e-10
4.57176e-06
-1.72019e-09
4.57134e-06
-3.08766e-09
4.5695e-06
-4.25789e-09
4.56459e-06
-5.08086e-09
4.55891e-06
-5.30612e-09
4.54755e-06
-4.75821e-09
4.53706e-06
-2.9675e-09
4.51679e-06
4.09312e-10
4.49715e-06
6.15788e-09
4.45913e-06
1.48106e-08
4.41884e-06
2.79874e-08
4.34654e-06
4.66518e-08
4.25693e-06
7.34373e-08
4.1141e-06
1.09749e-07
3.89848e-06
1.57155e-07
3.58511e-06
2.16883e-07
3.09735e-06
2.85713e-07
2.44098e-06
3.59029e-07
1.54257e-06
4.26865e-07
4.34495e-07
4.73142e-07
-8.35897e-07
4.85046e-07
-1.97435e-06
4.56131e-07
-2.9763e-06
3.97461e-07
-3.00211e-06
3.03056e-07
-2.9513e-06
-9.36073e-07
-3.30613e-07
-8.88625e-07
-4.27135e-07
-2.86541e-06
-4.87952e-07
-2.94874e-06
-5.20586e-07
-2.94754e-06
-5.12763e-07
-1.9812e-06
-4.70516e-07
-8.71197e-07
-4.05809e-07
3.80141e-07
-3.34409e-07
1.48175e-06
-2.66031e-07
2.3825e-06
-2.05581e-07
3.04372e-06
-1.56587e-07
3.54205e-06
-1.18001e-07
3.86552e-06
-8.85474e-08
4.08843e-06
-6.69719e-08
4.2411e-06
-5.06915e-08
4.33455e-06
-3.88721e-08
4.40999e-06
-2.98466e-08
4.45275e-06
-2.31266e-08
4.49289e-06
-1.78725e-08
4.51453e-06
-1.37355e-08
4.53747e-06
-1.02809e-08
4.54999e-06
-7.37123e-09
4.56251e-06
-4.8049e-09
4.56847e-06
-2.47884e-09
4.57326e-06
-2.97775e-10
4.57442e-06
1.82212e-09
4.57406e-06
3.98491e-09
4.57218e-06
6.34202e-09
4.56705e-06
9.04387e-09
4.56102e-06
1.23377e-08
4.54905e-06
1.64006e-08
4.53758e-06
2.16969e-08
4.51587e-06
2.85664e-08
4.49456e-06
3.77897e-08
4.45423e-06
4.98738e-08
4.40972e-06
6.64183e-08
4.33295e-06
8.83009e-08
4.23747e-06
1.18028e-07
4.0848e-06
1.56896e-07
3.86171e-06
2.06129e-07
3.53772e-06
2.66804e-07
3.03814e-06
3.35329e-07
2.37333e-06
4.06761e-07
1.47167e-06
4.71421e-07
3.69634e-07
5.13587e-07
-8.79258e-07
5.21415e-07
-1.98447e-06
4.88869e-07
-2.94731e-06
4.28213e-07
-2.94595e-06
3.31871e-07
-2.86122e-06
-8.86515e-07
-3.5949e-07
-8.37054e-07
-4.57423e-07
-2.77351e-06
-5.1988e-07
-2.89029e-06
-5.55887e-07
-2.9144e-06
-5.51888e-07
-1.98685e-06
-5.13623e-07
-9.09653e-07
-4.52079e-07
3.19508e-07
-3.8264e-07
1.41403e-06
-3.14703e-07
2.31742e-06
-2.53467e-07
2.98451e-06
-2.02784e-07
3.49484e-06
-1.61783e-07
3.82773e-06
-1.29496e-07
4.0598e-06
-1.0482e-07
4.22106e-06
-8.52617e-08
4.31982e-06
-7.00819e-08
4.39971e-06
-5.7644e-08
4.44584e-06
-4.74853e-08
4.4882e-06
-3.87726e-08
4.51143e-06
-3.11653e-08
4.53565e-06
-2.42328e-08
4.54891e-06
-1.78377e-08
4.56198e-06
-1.17817e-08
4.56827e-06
-5.96218e-09
4.57332e-06
-2.8574e-10
4.57463e-06
5.32992e-09
4.57433e-06
1.09874e-08
4.57239e-06
1.68357e-08
4.56706e-06
2.30249e-08
4.56069e-06
2.97984e-08
4.54813e-06
3.73334e-08
4.5358e-06
4.60889e-08
4.51272e-06
5.63981e-08
4.48972e-06
6.90321e-08
4.44715e-06
8.44758e-08
4.39919e-06
1.04295e-07
4.31801e-06
1.29276e-07
4.21713e-06
1.61833e-07
4.05597e-06
2.03111e-07
3.82368e-06
2.54026e-07
3.49035e-06
3.1548e-07
2.97945e-06
3.83554e-07
2.3075e-06
4.5301e-07
1.40393e-06
5.14498e-07
3.09068e-07
5.52675e-07
-9.17619e-07
5.56678e-07
-1.9899e-06
5.20769e-07
-2.91425e-06
4.58476e-07
-2.88764e-06
3.60729e-07
-2.76947e-06
-8.3503e-07
-3.8829e-07
-7.839e-07
-4.87143e-07
-2.68052e-06
-5.50999e-07
-2.8299e-06
-5.9012e-07
-2.87725e-06
-5.89662e-07
-1.98783e-06
-5.55245e-07
-9.4325e-07
-4.96842e-07
2.63134e-07
-4.29438e-07
1.34954e-06
-3.62063e-07
2.25295e-06
-3.00181e-07
2.92745e-06
-2.47991e-07
3.44719e-06
-2.04697e-07
3.78892e-06
-1.69702e-07
4.02986e-06
-1.42044e-07
4.19906e-06
-1.19293e-07
4.30305e-06
-1.00829e-07
4.38733e-06
-8.50461e-08
4.43692e-06
-7.15088e-08
4.48135e-06
-5.93917e-08
4.50614e-06
-4.83648e-08
4.53155e-06
-3.80026e-08
4.5455e-06
-2.81689e-08
4.55909e-06
-1.86687e-08
4.5657e-06
-9.4004e-09
4.57099e-06
-2.72762e-10
4.57245e-06
8.79477e-09
4.57221e-06
1.7903e-08
4.57022e-06
2.71979e-08
4.56469e-06
3.68288e-08
4.55799e-06
4.70345e-08
4.54486e-06
5.79913e-08
4.53175e-06
7.01516e-08
4.50737e-06
8.38398e-08
4.48272e-06
9.98163e-08
4.43805e-06
1.18543e-07
4.38655e-06
1.41549e-07
4.301e-06
1.69509e-07
4.19485e-06
2.0477e-07
4.02581e-06
2.48335e-07
3.78464e-06
3.00748e-07
3.44252e-06
3.62811e-07
2.92174e-06
4.30327e-07
2.24337e-06
4.9775e-07
1.33944e-06
5.56092e-07
2.52763e-07
5.90437e-07
-9.5113e-07
5.90896e-07
-1.99088e-06
5.51858e-07
-2.87718e-06
4.88166e-07
-2.82739e-06
3.89504e-07
-2.67657e-06
-7.81971e-07
-4.16964e-07
-7.29299e-07
-5.1628e-07
-2.58718e-06
-5.81251e-07
-2.76786e-06
-6.23231e-07
-2.83652e-06
-6.26099e-07
-1.98451e-06
-5.95386e-07
-9.72121e-07
-5.40082e-07
2.10986e-07
-4.7474e-07
1.28831e-06
-4.08013e-07
2.19041e-06
-3.45635e-07
2.87089e-06
-2.92097e-07
3.39919e-06
-2.46673e-07
3.74927e-06
-2.09075e-07
3.99879e-06
-1.78543e-07
4.17521e-06
-1.52717e-07
4.28442e-06
-1.31049e-07
4.37288e-06
-1.11996e-07
4.42582e-06
-9.5146e-08
4.47244e-06
-7.96855e-08
4.49874e-06
-6.52973e-08
4.52524e-06
-5.15608e-08
4.53982e-06
-3.83426e-08
4.55391e-06
-2.5451e-08
4.56082e-06
-1.27861e-08
4.56635e-06
-2.58896e-10
4.56795e-06
1.22091e-08
4.56776e-06
2.47166e-08
4.56573e-06
3.74062e-08
4.56001e-06
5.04257e-08
4.55301e-06
6.40088e-08
4.53933e-06
7.83297e-08
4.5255e-06
9.38338e-08
4.49991e-06
1.10835e-07
4.47366e-06
1.30077e-07
4.42676e-06
1.52004e-07
4.37187e-06
1.78081e-07
4.28207e-06
2.08912e-07
4.17077e-06
2.4677e-07
3.99451e-06
2.92456e-07
3.74476e-06
3.46205e-07
3.39433e-06
4.08754e-07
2.86493e-06
4.75619e-07
2.18107e-06
5.40967e-07
1.27822e-06
5.96203e-07
2.00685e-07
6.26835e-07
-9.79881e-07
6.23967e-07
-1.98767e-06
5.82081e-07
-2.83656e-06
5.17274e-07
-2.7655e-06
4.18151e-07
-2.58324e-06
-7.27465e-07
-4.45464e-07
-6.73682e-07
-5.44857e-07
-2.49217e-06
-6.10697e-07
-2.70446e-06
-6.55262e-07
-2.79251e-06
-6.61233e-07
-1.97723e-06
-6.34072e-07
-9.96467e-07
-5.81792e-07
1.62991e-07
-5.1854e-07
1.23037e-06
-4.52556e-07
2.13032e-06
-3.89843e-07
2.81476e-06
-3.35056e-07
3.35105e-06
-2.87626e-07
3.70883e-06
-2.47579e-07
3.96646e-06
-2.14251e-07
4.15009e-06
-1.8543e-07
4.26387e-06
-1.60666e-07
4.35642e-06
-1.38444e-07
4.41188e-06
-1.18352e-07
4.46164e-06
-9.96155e-08
4.48931e-06
-8.19303e-08
4.51677e-06
-6.48817e-08
4.53195e-06
-4.83392e-08
4.54651e-06
-3.21157e-08
4.55368e-06
-1.61127e-08
4.55944e-06
-2.44198e-10
4.56117e-06
1.55663e-08
4.56104e-06
3.1415e-08
4.55897e-06
4.74408e-08
4.55306e-06
6.37896e-08
4.54578e-06
8.06889e-08
4.5316e-06
9.83097e-08
4.5171e-06
1.1709e-07
4.49043e-06
1.37331e-07
4.46271e-06
1.59738e-07
4.41263e-06
1.84757e-07
4.35516e-06
2.13824e-07
4.26124e-06
2.47448e-07
4.14545e-06
2.87745e-07
3.96196e-06
3.35431e-07
3.70408e-06
3.90419e-07
3.34597e-06
4.5329e-07
2.80813e-06
5.19405e-07
2.12122e-06
5.82653e-07
1.22031e-06
6.3486e-07
1.52763e-07
6.61956e-07
-1.00405e-06
6.55986e-07
-1.98064e-06
6.11496e-07
-2.79265e-06
5.4582e-07
-2.70226e-06
4.46623e-07
-2.48867e-06
-6.71952e-07
-4.7373e-07
-6.17249e-07
-5.72818e-07
-2.39762e-06
-6.39305e-07
-2.63987e-06
-6.8623e-07
-2.74543e-06
-6.95056e-07
-1.96624e-06
-6.71289e-07
-1.01638e-06
-6.21978e-07
1.19111e-07
-5.60819e-07
1.17572e-06
-4.9563e-07
2.07244e-06
-4.32674e-07
2.75936e-06
-3.76798e-07
3.30292e-06
-3.2749e-07
3.66816e-06
-2.85127e-07
3.93298e-06
-2.49155e-07
4.12344e-06
-2.17427e-07
4.24183e-06
-1.89628e-07
4.33894e-06
-1.64298e-07
4.39587e-06
-1.41049e-07
4.44917e-06
-1.19117e-07
4.4778e-06
-9.821e-08
4.50611e-06
-7.79219e-08
4.52184e-06
-5.81265e-08
4.53683e-06
-3.86411e-08
4.54426e-06
-1.93695e-08
4.55023e-06
-2.28668e-10
4.55209e-06
1.88555e-08
4.55201e-06
3.79767e-08
4.54991e-06
5.72693e-08
4.54382e-06
7.68769e-08
4.53628e-06
9.70205e-08
4.52162e-06
1.17866e-07
4.50649e-06
1.39842e-07
4.47887e-06
1.6324e-07
4.45009e-06
1.88748e-07
4.39642e-06
2.16799e-07
4.33745e-06
2.48765e-07
4.23891e-06
2.85027e-07
4.11863e-06
3.27634e-07
3.92825e-06
3.77188e-07
3.66316e-06
4.33253e-07
3.2976e-06
4.96357e-07
2.7523e-06
5.61669e-07
2.06339e-06
6.22815e-07
1.16569e-06
6.72048e-07
1.08958e-07
6.95742e-07
-1.02353e-06
6.86917e-07
-1.9702e-06
6.40076e-07
-2.74569e-06
5.7375e-07
-2.63782e-06
4.74857e-07
-2.39447e-06
-6.15624e-07
-5.01722e-07
-5.6028e-07
-6.00212e-07
-2.30356e-06
-6.67142e-07
-2.57432e-06
-7.16158e-07
-2.69556e-06
-7.27613e-07
-1.95167e-06
-7.07076e-07
-1.03201e-06
-6.60648e-07
7.9246e-08
-6.01573e-07
1.12434e-06
-5.37235e-07
2.01669e-06
-4.74141e-07
2.70531e-06
-4.17281e-07
3.255e-06
-3.66226e-07
3.627e-06
-3.21657e-07
3.89923e-06
-2.83161e-07
4.09523e-06
-2.48677e-07
4.21807e-06
-2.17949e-07
4.32021e-06
-1.89583e-07
4.37847e-06
-1.63254e-07
4.43559e-06
-1.38197e-07
4.46474e-06
-1.14139e-07
4.49399e-06
-9.06814e-08
4.51036e-06
-6.77034e-08
4.52585e-06
-4.50261e-08
4.53358e-06
-2.25557e-08
4.53978e-06
-2.1244e-10
4.54177e-06
2.20758e-08
4.54175e-06
4.43998e-08
4.5396e-06
6.68899e-08
4.53332e-06
8.9687e-08
4.52547e-06
1.13005e-07
4.51027e-06
1.37006e-07
4.49444e-06
1.62106e-07
4.46579e-06
1.88583e-07
4.43637e-06
2.1712e-07
4.37884e-06
2.48095e-07
4.3185e-06
2.82809e-07
4.21489e-06
3.2159e-07
4.09024e-06
3.66394e-07
3.89425e-06
4.17685e-07
3.62173e-06
4.74723e-07
3.24945e-06
5.37958e-07
2.69825e-06
6.02405e-07
2.00761e-06
6.61461e-07
1.11436e-06
7.07803e-07
6.91748e-08
7.2826e-07
-1.03797e-06
7.16815e-07
-1.95732e-06
6.67882e-07
-2.69595e-06
6.01109e-07
-2.57245e-06
5.02817e-07
-2.3007e-06
-5.58764e-07
-5.29434e-07
-5.02955e-07
-6.27016e-07
-2.20984e-06
-6.94173e-07
-2.50799e-06
-7.45069e-07
-2.64309e-06
-7.58936e-07
-1.9337e-06
-7.41462e-07
-1.04352e-06
-6.97827e-07
4.33027e-08
-6.4081e-07
1.07645e-06
-5.77363e-07
1.96308e-06
-5.14228e-07
2.65263e-06
-4.56484e-07
3.20741e-06
-4.03794e-07
3.58552e-06
-3.57166e-07
3.86456e-06
-3.16228e-07
4.06615e-06
-2.79046e-07
4.19275e-06
-2.45502e-07
4.30119e-06
-2.1422e-07
4.35929e-06
-1.84936e-07
4.41773e-06
-1.56836e-07
4.44936e-06
-1.29705e-07
4.47982e-06
-1.03154e-07
4.49685e-06
-7.70667e-08
4.51284e-06
-5.12693e-08
4.5209e-06
-2.5671e-08
4.52731e-06
-1.95584e-10
4.52944e-06
2.52265e-08
4.52946e-06
5.06831e-08
4.52727e-06
7.62995e-08
4.52081e-06
1.02213e-07
4.51263e-06
1.28631e-07
4.49688e-06
1.55708e-07
4.48032e-06
1.83851e-07
4.45035e-06
2.13281e-07
4.41839e-06
2.44728e-07
4.35945e-06
2.78513e-07
4.29934e-06
3.15917e-07
4.18937e-06
3.57132e-07
4.06079e-06
4.03985e-07
3.85933e-06
4.56902e-07
3.57996e-06
5.14811e-07
3.20166e-06
5.78079e-07
2.64554e-06
6.41625e-07
1.95393e-06
6.98618e-07
1.06652e-06
7.42183e-07
3.3292e-08
7.59566e-07
-1.05064e-06
7.4572e-07
-1.938e-06
6.94885e-07
-2.6436e-06
6.2788e-07
-2.50628e-06
5.30496e-07
-2.20725e-06
-5.01551e-07
-5.56777e-07
-4.45488e-07
-6.53205e-07
-2.11697e-06
-7.20443e-07
-2.44101e-06
-7.72989e-07
-2.58827e-06
-7.89065e-07
-1.91255e-06
-7.74485e-07
-1.05128e-06
-7.33529e-07
1.11549e-08
-6.78534e-07
1.03171e-06
-6.16011e-07
1.91163e-06
-5.52925e-07
2.60134e-06
-4.94392e-07
3.16099e-06
-4.40175e-07
3.54389e-06
-3.91588e-07
3.82912e-06
-3.48317e-07
4.03585e-06
-3.08563e-07
4.16607e-06
-2.72331e-07
4.27683e-06
-2.38185e-07
4.33936e-06
-2.05997e-07
4.39869e-06
-1.7495e-07
4.43203e-06
-1.44837e-07
4.46371e-06
-1.15281e-07
4.48137e-06
-8.61715e-08
4.49787e-06
-5.73404e-08
4.50628e-06
-2.87e-08
4.51289e-06
-1.7807e-10
4.51515e-06
2.82924e-08
4.51522e-06
5.67961e-08
4.51298e-06
8.54529e-08
4.50634e-06
1.14397e-07
4.49782e-06
1.43826e-07
4.48151e-06
1.73889e-07
4.46424e-06
2.04979e-07
4.43293e-06
2.37311e-07
4.39925e-06
2.71614e-07
4.33935e-06
3.08081e-07
4.27458e-06
3.48048e-07
4.16267e-06
3.91588e-07
4.0301e-06
4.4039e-07
3.82362e-06
4.94826e-07
3.53807e-06
5.53514e-07
3.15508e-06
6.1672e-07
2.5942e-06
6.7933e-07
1.90241e-06
7.34295e-07
1.02183e-06
7.75172e-07
1.21317e-09
7.89658e-07
-1.05861e-06
7.73615e-07
-1.91669e-06
7.21129e-07
-2.58889e-06
6.54038e-07
-2.43946e-06
5.57805e-07
-2.11464e-06
-4.44199e-07
-5.83776e-07
-3.8802e-07
-6.78835e-07
-2.02536e-06
-7.45993e-07
-2.37356e-06
-7.9997e-07
-2.531e-06
-8.18041e-07
-1.8888e-06
-8.06176e-07
-1.0553e-06
-7.67801e-07
-1.73105e-08
-7.1478e-07
9.90276e-07
-6.5319e-07
1.86235e-06
-5.90223e-07
2.55149e-06
-5.30995e-07
3.11523e-06
-4.75357e-07
3.50221e-06
-4.24919e-07
3.79306e-06
-3.79423e-07
4.00455e-06
-3.37194e-07
4.13858e-06
-2.98352e-07
4.25222e-06
-2.61464e-07
4.31772e-06
-2.26463e-07
4.37873e-06
-1.92555e-07
4.41316e-06
-1.59549e-07
4.44579e-06
-1.27073e-07
4.46409e-06
-9.50259e-08
4.48109e-06
-6.32448e-08
4.48987e-06
-3.16456e-08
4.49667e-06
-1.60012e-10
4.49905e-06
3.12761e-08
4.49918e-06
6.27439e-08
4.49688e-06
9.43578e-08
4.49007e-06
1.26248e-07
4.48119e-06
1.58604e-07
4.46431e-06
1.91566e-07
4.44637e-06
2.25515e-07
4.41394e-06
2.60658e-07
4.37916e-06
2.97694e-07
4.31758e-06
3.36767e-07
4.24969e-06
3.79196e-07
4.13507e-06
4.24956e-07
3.9985e-06
4.75597e-07
3.7873e-06
5.31444e-07
3.49609e-06
5.90813e-07
3.10915e-06
6.5389e-07
2.54429e-06
7.15559e-07
1.85306e-06
7.68545e-07
9.8022e-07
8.06835e-07
-2.71808e-08
8.18598e-07
-1.06263e-06
8.00558e-07
-1.8929e-06
7.46647e-07
-2.53171e-06
6.79631e-07
-2.37216e-06
5.84766e-07
-2.02327e-06
-3.8685e-07
-6.10367e-07