/*--------------------------------*- C++ -*----------------------------------*\
| =========                 |                                                 |
| \\      /  F ield         | OpenFOAM: The Open Source CFD Toolbox           |
|  \\    /   O peration     | Version:  dev                                   |
|   \\  /    A nd           | Web:      www.OpenFOAM.org                      |
|    \\/     M anipulation  |                                                 |
\*---------------------------------------------------------------------------*/
FoamFile
{
    version     2.0;
    format      ascii;
    class       volScalarField;
    location    "0.0255";
    object      moment.2.populationBalance;
}
// * * * * * * * * * * * * * * * * * * * * * * * * * * * * * * * * * * * * * //

dimensions      [0 3 0 0 0 0 0];

internalField   nonuniform List<scalar> 
251
(
2.67112e+11
2.60176e+11
2.53407e+11
2.46803e+11
2.40359e+11
2.34072e+11
2.27939e+11
2.21956e+11
2.16121e+11
2.10429e+11
2.04878e+11
1.99465e+11
1.94186e+11
1.89039e+11
1.8402e+11
1.79127e+11
1.74357e+11
1.69707e+11
1.65175e+11
1.60757e+11
1.56451e+11
1.52255e+11
1.48166e+11
1.44181e+11
1.40299e+11
1.36516e+11
1.3283e+11
1.2924e+11
1.25743e+11
1.22336e+11
1.19018e+11
1.15787e+11
1.12639e+11
1.09574e+11
1.0659e+11
1.03684e+11
1.00854e+11
9.80994e+10
9.54174e+10
9.28065e+10
9.0265e+10
8.77911e+10
8.53831e+10
8.30394e+10
8.07585e+10
7.85387e+10
7.63786e+10
7.42766e+10
7.22312e+10
7.02411e+10
6.83048e+10
6.64209e+10
6.45882e+10
6.28053e+10
6.1071e+10
5.9384e+10
5.7743e+10
5.6147e+10
5.45947e+10
5.3085e+10
5.16168e+10
5.0189e+10
4.88006e+10
4.74505e+10
4.61378e+10
4.48614e+10
4.36204e+10
4.24138e+10
4.12408e+10
4.01004e+10
3.89919e+10
3.79142e+10
3.68667e+10
3.58485e+10
3.48588e+10
3.38969e+10
3.2962e+10
3.20533e+10
3.11702e+10
3.03119e+10
2.94779e+10
2.86674e+10
2.78797e+10
2.71143e+10
2.63705e+10
2.56477e+10
2.49454e+10
2.42628e+10
2.35995e+10
2.29549e+10
2.23283e+10
2.17192e+10
2.1127e+10
2.0551e+10
1.99907e+10
1.94452e+10
1.89139e+10
1.8396e+10
1.78907e+10
1.73969e+10
1.69139e+10
1.64403e+10
1.59752e+10
1.55173e+10
1.50653e+10
1.46179e+10
1.41736e+10
1.37311e+10
1.32889e+10
1.28459e+10
1.24006e+10
1.19521e+10
1.14995e+10
1.1042e+10
1.05793e+10
1.01112e+10
9.638e+09
9.16017e+09
8.67865e+09
8.19467e+09
7.70979e+09
7.22585e+09
6.74492e+09
6.26928e+09
5.8013e+09
5.3434e+09
4.898e+09
4.46741e+09
4.05379e+09
3.65908e+09
3.28495e+09
2.93278e+09
2.60359e+09
2.29807e+09
2.01655e+09
1.75903e+09
1.52517e+09
1.31437e+09
1.12575e+09
9.5822e+08
8.10524e+08
6.81278e+08
5.69015e+08
4.72225e+08
3.89392e+08
3.19026e+08
2.59692e+08
2.10027e+08
1.68761e+08
1.34723e+08
1.06852e+08
8.41956e+07
6.5912e+07
5.12632e+07
3.96108e+07
3.04081e+07
2.31919e+07
1.75734e+07
1.32298e+07
9.89531e+06
7.35346e+06
5.42931e+06
3.98284e+06
2.90297e+06
2.10232e+06
1.51276e+06
1.08159e+06
768395
542427
380488
265211
183696
126438
86482.4
58784.5
39709.1
26657.4
17785
11792.6
7771.23
5089.87
3313.36
2143.8
1378.67
881.271
559.936
353.636
222.011
138.547
85.9485
53.0034
32.4941
19.8037
11.9989
7.22768
4.32838
2.57709
1.52554
0.897866
0.525419
0.305713
0.176866
0.101743
0.0581976
0.0331019
0.0187223
0.01053
0.00588941
0.00327565
0.00181181
0.00099661
0.000545186
0.000296605
0.000160485
8.6362e-05
4.6222e-05
2.46048e-05
1.30271e-05
6.86018e-06
3.5933e-06
1.8721e-06
9.70176e-07
5.00109e-07
2.56436e-07
1.30798e-07
6.63649e-08
3.34964e-08
1.68185e-08
8.40069e-09
4.17432e-09
2.06351e-09
1.01481e-09
4.96501e-10
2.41666e-10
1.1702e-10
5.63677e-11
2.70054e-11
1.28634e-11
6.08646e-12
2.85498e-12
1.32138e-12
5.96747e-13
2.55268e-13
9.50194e-14
1.81072e-14
0
0
0
0
0
0
)
;

boundaryField
{
    wall
    {
        type            zeroGradient;
    }
    fuel
    {
        type            fixedValue;
        value           uniform 2.7422e+11;
    }
    outlet
    {
        type            inletOutlet;
        inletValue      nonuniform 0();
        value           nonuniform 0();
    }
    procBoundary0to1
    {
        type            processor;
        value           uniform 0;
    }
}


// ************************************************************************* //
