/*--------------------------------*- C++ -*----------------------------------*\
| =========                 |                                                 |
| \\      /  F ield         | OpenFOAM: The Open Source CFD Toolbox           |
|  \\    /   O peration     | Version:  dev                                   |
|   \\  /    A nd           | Web:      www.OpenFOAM.org                      |
|    \\/     M anipulation  |                                                 |
\*---------------------------------------------------------------------------*/
FoamFile
{
    version     2.0;
    format      ascii;
    class       volScalarField;
    location    "0.145";
    object      A2;
}
// * * * * * * * * * * * * * * * * * * * * * * * * * * * * * * * * * * * * * //

dimensions      [0 0 0 0 0 0 0];

internalField   nonuniform List<scalar> 
250
(
4.70285e-08
1.63141e-06
9.77823e-07
9.17617e-07
9.11688e-07
9.11236e-07
9.1074e-07
9.10742e-07
9.10725e-07
1.04008e-07
1.29624e-06
5.95713e-07
5.41385e-07
5.36021e-07
5.35651e-07
5.35394e-07
5.35372e-07
5.3541e-07
1.5063e-07
1.00881e-06
3.37085e-07
2.93847e-07
2.89642e-07
2.89303e-07
2.89202e-07
2.89061e-07
2.89172e-07
1.8613e-07
8.72034e-07
2.05882e-07
1.70174e-07
1.66801e-07
1.66511e-07
1.66454e-07
1.66136e-07
1.66418e-07
2.08422e-07
8.17004e-07
1.38246e-07
1.07413e-07
1.04654e-07
1.04431e-07
1.0437e-07
1.03565e-07
1.04352e-07
2.19585e-07
7.93486e-07
1.00506e-07
7.17185e-08
6.88644e-08
6.86474e-08
6.84797e-08
6.90312e-08
6.85124e-08
2.24184e-07
7.7484e-07
7.7584e-08
5.13176e-08
4.87448e-08
4.87136e-08
4.83454e-08
4.85438e-08
4.84126e-08
2.27593e-07
7.49285e-07
6.25934e-08
3.85108e-08
3.60805e-08
3.5594e-08
3.56074e-08
3.56572e-08
3.56805e-08
2.31915e-07
7.11882e-07
5.20557e-08
2.95974e-08
2.77731e-08
2.74531e-08
2.7189e-08
2.71784e-08
2.72318e-08
2.36547e-07
6.62168e-07
4.3378e-08
2.30804e-08
2.14353e-08
2.11834e-08
2.14594e-08
2.14343e-08
2.13173e-08
2.40421e-07
6.02334e-07
3.65746e-08
1.90483e-08
1.75444e-08
1.7328e-08
1.7504e-08
1.74803e-08
1.72511e-08
1.74304e-08
2.42955e-07
5.35919e-07
3.16957e-08
1.59236e-08
1.4466e-08
1.42579e-08
1.43694e-08
1.43566e-08
1.43994e-08
1.43063e-08
2.43926e-07
4.60236e-07
2.76503e-08
1.35325e-08
1.22085e-08
1.20194e-08
1.2081e-08
1.2075e-08
1.20981e-08
1.2061e-08
2.4305e-07
3.75839e-07
2.3988e-08
1.1732e-08
1.05274e-08
1.0353e-08
1.03823e-08
1.03783e-08
1.04001e-08
1.03901e-08
2.39959e-07
3.08992e-07
2.07659e-08
1.03436e-08
9.24619e-09
9.08341e-09
9.09268e-09
9.08579e-09
9.11236e-09
9.11056e-09
2.33823e-07
2.49389e-07
1.80581e-08
9.24996e-09
8.24862e-09
8.09544e-09
8.09297e-09
8.07866e-09
8.11172e-09
8.11016e-09
2.24121e-07
1.98053e-07
1.57846e-08
8.37317e-09
7.45797e-09
7.31301e-09
7.3041e-09
7.27792e-09
7.31936e-09
7.31589e-09
2.10793e-07
1.55642e-07
1.38862e-08
7.6612e-09
6.82349e-09
6.68591e-09
6.67388e-09
6.63058e-09
6.6844e-09
6.67919e-09
1.94168e-07
1.19775e-07
1.23125e-08
7.07944e-09
6.31182e-09
6.18109e-09
6.16831e-09
6.16955e-09
6.17386e-09
6.16778e-09
1.74942e-07
9.32138e-08
1.10248e-08
6.60514e-09
5.90145e-09
5.77729e-09
5.7644e-09
5.75796e-09
5.76595e-09
5.76046e-09
1.54079e-07
6.98915e-08
9.98175e-09
6.22398e-09
5.57934e-09
5.46167e-09
5.44895e-09
5.4352e-09
5.44766e-09
5.44419e-09
1.32884e-07
5.29671e-08
9.1671e-09
5.92853e-09
5.33941e-09
5.22831e-09
5.21597e-09
5.22517e-09
5.21287e-09
5.21275e-09
1.12632e-07
4.18022e-08
8.56188e-09
5.74733e-09
5.20181e-09
5.09698e-09
5.08454e-09
5.09557e-09
5.08091e-09
5.08504e-09
9.43854e-08
3.35533e-08
8.14779e-09
5.64858e-09
5.14236e-09
5.04436e-09
5.03132e-09
5.04674e-09
5.02825e-09
5.0384e-09
7.88744e-08
2.76493e-08
7.94456e-09
5.64976e-09
5.18103e-09
5.09075e-09
5.07635e-09
5.09936e-09
5.07497e-09
5.09323e-09
6.64285e-08
2.35701e-08
7.91624e-09
5.76616e-09
5.33336e-09
5.2526e-09
5.23585e-09
5.27066e-09
5.23744e-09
5.26696e-09
)
;

boundaryField
{
    fuel
    {
        type            fixedValue;
        value           uniform 0;
    }
    wall
    {
        type            zeroGradient;
    }
    outlet
    {
        type            zeroGradient;
    }
    frontAndBack
    {
        type            empty;
    }
    procBoundary2to0
    {
        type            processor;
        value           nonuniform List<scalar> 
12
(
5.08466e-09
5.70324e-08
2.08055e-08
8.09057e-09
6.02476e-09
5.63217e-09
5.56149e-09
5.541e-09
5.59324e-09
5.5471e-09
5.25614e-09
5.59235e-09
)
;
    }
    procBoundary2to3
    {
        type            processor;
        value           nonuniform List<scalar> 
25
(
9.11104e-07
5.35557e-07
2.89226e-07
1.66429e-07
1.04339e-07
6.84657e-08
4.83567e-08
3.56376e-08
2.71734e-08
2.14044e-08
2.14044e-08
1.73187e-08
1.42335e-08
1.19912e-08
1.03259e-08
9.05819e-09
8.07063e-09
7.28707e-09
6.65838e-09
6.15262e-09
5.74916e-09
5.43536e-09
5.20533e-09
5.07801e-09
5.03103e-09
)
;
    }
}


// ************************************************************************* //
