/*--------------------------------*- C++ -*----------------------------------*\
| =========                 |                                                 |
| \\      /  F ield         | OpenFOAM: The Open Source CFD Toolbox           |
|  \\    /   O peration     | Version:  dev                                   |
|   \\  /    A nd           | Web:      www.OpenFOAM.org                      |
|    \\/     M anipulation  |                                                 |
\*---------------------------------------------------------------------------*/
FoamFile
{
    version     2.0;
    format      ascii;
    class       volScalarField;
    location    "0.145";
    object      CH;
}
// * * * * * * * * * * * * * * * * * * * * * * * * * * * * * * * * * * * * * //

dimensions      [0 0 0 0 0 0 0];

internalField   nonuniform List<scalar> 
50
(
5.26948e-14
4.92634e-14
4.61557e-14
4.33261e-14
4.07415e-14
3.83878e-14
3.62478e-14
3.4276e-14
3.24716e-14
3.08235e-14
2.93258e-14
2.79465e-14
2.66927e-14
2.55611e-14
2.45255e-14
2.36004e-14
2.27691e-14
2.20176e-14
2.13519e-14
2.07612e-14
2.02345e-14
1.97792e-14
1.93849e-14
1.90497e-14
1.8769e-14
1.85388e-14
1.83554e-14
1.82148e-14
1.81116e-14
1.80431e-14
1.80055e-14
1.79948e-14
1.80084e-14
1.80437e-14
1.80971e-14
1.81648e-14
1.82447e-14
1.83314e-14
1.84243e-14
1.85191e-14
1.86126e-14
1.87004e-14
1.87791e-14
1.88456e-14
1.88995e-14
1.89417e-14
1.89716e-14
1.89875e-14
1.89844e-14
1.89553e-14
)
;

boundaryField
{
    wall
    {
        type            zeroGradient;
    }
    fuel
    {
        type            fixedValue;
        value           nonuniform 0();
    }
    outlet
    {
        type            inletOutlet;
        inletValue      nonuniform 0();
        value           nonuniform 0();
    }
    procBoundary2to1
    {
        type            processor;
        value           uniform 5.64325e-14;
    }
    procBoundary2to3
    {
        type            processor;
        value           uniform 1.88917e-14;
    }
}


// ************************************************************************* //
