/*--------------------------------*- C++ -*----------------------------------*\
| =========                 |                                                 |
| \\      /  F ield         | OpenFOAM: The Open Source CFD Toolbox           |
|  \\    /   O peration     | Version:  dev                                   |
|   \\  /    A nd           | Web:      www.OpenFOAM.org                      |
|    \\/     M anipulation  |                                                 |
\*---------------------------------------------------------------------------*/
FoamFile
{
    version     2.0;
    format      ascii;
    class       volScalarField;
    location    "0.145";
    object      CH2(S);
}
// * * * * * * * * * * * * * * * * * * * * * * * * * * * * * * * * * * * * * //

dimensions      [0 0 0 0 0 0 0];

internalField   nonuniform List<scalar> 
250
(
7.21156e-10
2.10293e-06
2.24651e-06
2.26454e-06
2.26791e-06
2.26831e-06
2.26824e-06
2.26829e-06
2.2683e-06
7.70991e-10
1.33255e-06
1.38621e-06
1.38975e-06
1.39268e-06
1.3919e-06
1.3922e-06
1.39201e-06
1.39209e-06
6.20304e-10
5.99641e-07
6.16257e-07
6.14768e-07
6.17855e-07
6.16632e-07
6.17012e-07
6.16784e-07
6.16865e-07
1.35347e-08
2.92222e-07
2.87626e-07
2.85599e-07
2.88157e-07
2.87161e-07
2.87416e-07
2.87263e-07
2.87321e-07
5.50146e-07
1.68662e-07
1.56941e-07
1.5569e-07
1.57633e-07
1.56967e-07
1.57094e-07
1.57018e-07
1.57061e-07
1.27695e-06
1.10239e-07
1.013e-07
1.00941e-07
1.02493e-07
1.02069e-07
1.02092e-07
1.0209e-07
1.02126e-07
1.12145e-06
7.73793e-08
7.51459e-08
7.54408e-08
7.67548e-08
7.64835e-08
7.63822e-08
7.64893e-08
7.65216e-08
7.00113e-07
5.77487e-08
6.00847e-08
6.24372e-08
6.36133e-08
6.34284e-08
6.30977e-08
6.3427e-08
6.3458e-08
4.01833e-07
4.62692e-08
5.22601e-08
5.42732e-08
5.53578e-08
5.53085e-08
5.55983e-08
5.53021e-08
5.53332e-08
2.35793e-07
3.83107e-08
4.71633e-08
4.97141e-08
5.09147e-08
5.09083e-08
5.10422e-08
5.09003e-08
5.09328e-08
1.46067e-07
3.29806e-08
4.33465e-08
4.66375e-08
4.77519e-08
4.77518e-08
4.77898e-08
4.77372e-08
4.7774e-08
4.77429e-08
9.56955e-08
2.88558e-08
4.05032e-08
4.4194e-08
4.53257e-08
4.53566e-08
4.53731e-08
4.53361e-08
4.53782e-08
4.5351e-08
6.59327e-08
2.56952e-08
3.81877e-08
4.22242e-08
4.33672e-08
4.34148e-08
4.35762e-08
4.33847e-08
4.34352e-08
4.34138e-08
4.74921e-08
2.32186e-08
3.65304e-08
4.05026e-08
4.16562e-08
4.17088e-08
4.18027e-08
4.16656e-08
4.17287e-08
4.17121e-08
3.56297e-08
2.1378e-08
3.49083e-08
3.89059e-08
4.00683e-08
4.01188e-08
4.01774e-08
4.0057e-08
4.01373e-08
4.01231e-08
2.69835e-08
1.98752e-08
3.33459e-08
3.7364e-08
3.85296e-08
3.85737e-08
3.86161e-08
3.8486e-08
3.85897e-08
3.85751e-08
2.13971e-08
1.85394e-08
3.18739e-08
3.58329e-08
3.69933e-08
3.70282e-08
3.70637e-08
3.69046e-08
3.70407e-08
3.70241e-08
1.72105e-08
1.74265e-08
3.04404e-08
3.42811e-08
3.54275e-08
3.54513e-08
3.54847e-08
3.52753e-08
3.54598e-08
3.54401e-08
1.43735e-08
1.64863e-08
2.9255e-08
3.26827e-08
3.38083e-08
3.38193e-08
3.38543e-08
3.37808e-08
3.38241e-08
3.38004e-08
1.19275e-08
1.56702e-08
2.79155e-08
3.10096e-08
3.21158e-08
3.21127e-08
3.21491e-08
3.2035e-08
3.21128e-08
3.20857e-08
1.02859e-08
1.49413e-08
2.65127e-08
2.94339e-08
3.03317e-08
3.03134e-08
3.03509e-08
3.01849e-08
3.03082e-08
3.0278e-08
8.81741e-09
1.42671e-08
2.50673e-08
2.76641e-08
2.84336e-08
2.84014e-08
2.84398e-08
2.84362e-08
2.83904e-08
2.83571e-08
7.76807e-09
1.36174e-08
2.35575e-08
2.59279e-08
2.66586e-08
2.65917e-08
2.66335e-08
2.66053e-08
2.65768e-08
2.65405e-08
6.86142e-09
1.29589e-08
2.19528e-08
2.40124e-08
2.46563e-08
2.45468e-08
2.45868e-08
2.45366e-08
2.45235e-08
2.44826e-08
6.18566e-09
1.22629e-08
2.02161e-08
2.20972e-08
2.26808e-08
2.25374e-08
2.25771e-08
2.25109e-08
2.25091e-08
2.24663e-08
5.62854e-09
1.15089e-08
1.86084e-08
2.01003e-08
2.06144e-08
2.04435e-08
2.04819e-08
2.04028e-08
2.04108e-08
2.03664e-08
)
;

boundaryField
{
    fuel
    {
        type            fixedValue;
        value           uniform 0;
    }
    wall
    {
        type            zeroGradient;
    }
    outlet
    {
        type            zeroGradient;
    }
    frontAndBack
    {
        type            empty;
    }
    procBoundary2to0
    {
        type            processor;
        value           nonuniform List<scalar> 
12
(
2.24318e-08
5.15398e-09
1.06778e-08
1.69128e-08
1.80316e-08
1.8474e-08
1.82817e-08
1.83188e-08
1.82295e-08
1.82457e-08
2.03214e-08
1.82002e-08
)
;
    }
    procBoundary2to3
    {
        type            processor;
        value           nonuniform List<scalar> 
25
(
2.26858e-06
1.39209e-06
6.16808e-07
2.8725e-07
1.56994e-07
1.02066e-07
7.64672e-08
6.34081e-08
5.52887e-08
5.08963e-08
5.08963e-08
4.77672e-08
4.53705e-08
4.34256e-08
4.17162e-08
4.0121e-08
3.85688e-08
3.70143e-08
3.54265e-08
3.37815e-08
3.20587e-08
3.02384e-08
2.83013e-08
2.64792e-08
2.44465e-08
)
;
    }
}


// ************************************************************************* //
