/*--------------------------------*- C++ -*----------------------------------*\
| =========                 |                                                 |
| \\      /  F ield         | OpenFOAM: The Open Source CFD Toolbox           |
|  \\    /   O peration     | Version:  dev                                   |
|   \\  /    A nd           | Web:      www.OpenFOAM.org                      |
|    \\/     M anipulation  |                                                 |
\*---------------------------------------------------------------------------*/
FoamFile
{
    version     2.0;
    format      ascii;
    class       volScalarField;
    location    "0.145";
    object      H;
}
// * * * * * * * * * * * * * * * * * * * * * * * * * * * * * * * * * * * * * //

dimensions      [0 0 0 0 0 0 0];

internalField   nonuniform List<scalar> 
250
(
5.35098e-08
0.000116339
0.000133337
0.000135218
0.000135386
0.000135446
0.000135436
0.000135505
0.000135516
5.11551e-08
0.000109212
0.000124645
0.000126631
0.000126838
0.000126853
0.000126826
0.000126873
0.00012688
2.8315e-08
7.78037e-05
9.10791e-05
9.29851e-05
9.32017e-05
9.3205e-05
9.32232e-05
9.32126e-05
9.32293e-05
2.20445e-08
5.35856e-05
6.45119e-05
6.64162e-05
6.66341e-05
6.66388e-05
6.66669e-05
6.66049e-05
6.66618e-05
1.77596e-08
3.83749e-05
4.78667e-05
4.98511e-05
5.01006e-05
5.01179e-05
5.01446e-05
4.99401e-05
5.01382e-05
1.51867e-08
2.89838e-05
3.80023e-05
3.97689e-05
3.99048e-05
3.992e-05
3.99205e-05
4.0103e-05
3.99197e-05
1.5428e-08
2.29531e-05
3.21962e-05
3.41385e-05
3.43058e-05
3.43712e-05
3.4323e-05
3.43979e-05
3.43266e-05
3.07615e-08
1.90798e-05
2.87522e-05
3.08831e-05
3.10604e-05
3.10177e-05
3.10666e-05
3.10927e-05
3.10723e-05
9.04569e-08
1.65246e-05
2.6668e-05
2.88842e-05
2.91732e-05
2.9175e-05
2.91576e-05
2.91618e-05
2.91629e-05
2.65478e-07
1.48287e-05
2.52608e-05
2.7624e-05
2.79331e-05
2.7953e-05
2.8023e-05
2.80181e-05
2.80029e-05
6.15954e-07
1.37246e-05
2.43749e-05
2.69371e-05
2.72634e-05
2.72918e-05
2.73358e-05
2.73262e-05
2.73014e-05
2.73247e-05
1.04934e-06
1.30509e-05
2.38605e-05
2.64578e-05
2.67869e-05
2.68184e-05
2.6848e-05
2.68353e-05
2.68531e-05
2.68355e-05
1.48384e-06
1.26722e-05
2.35148e-05
2.61078e-05
2.64489e-05
2.64838e-05
2.65047e-05
2.64882e-05
2.65044e-05
2.64944e-05
1.96641e-06
1.25462e-05
2.32562e-05
2.58326e-05
2.61789e-05
2.62156e-05
2.62316e-05
2.62102e-05
2.6229e-05
2.62216e-05
2.52637e-06
1.26255e-05
2.30541e-05
2.55885e-05
2.59332e-05
2.59702e-05
2.59837e-05
2.59557e-05
2.59796e-05
2.59716e-05
3.13521e-06
1.28509e-05
2.28885e-05
2.53486e-05
2.5685e-05
2.57209e-05
2.57331e-05
2.56962e-05
2.57275e-05
2.5717e-05
3.76087e-06
1.31863e-05
2.27353e-05
2.50948e-05
2.54163e-05
2.54498e-05
2.54614e-05
2.54123e-05
2.54538e-05
2.54396e-05
4.39724e-06
1.35938e-05
2.25753e-05
2.4813e-05
2.51136e-05
2.51431e-05
2.51549e-05
2.50881e-05
2.51447e-05
2.51259e-05
5.06067e-06
1.40686e-05
2.2392e-05
2.44911e-05
2.47651e-05
2.47894e-05
2.4802e-05
2.47573e-05
2.47885e-05
2.4764e-05
5.77348e-06
1.45308e-05
2.21697e-05
2.41171e-05
2.43597e-05
2.43772e-05
2.43909e-05
2.4328e-05
2.43737e-05
2.43426e-05
6.54926e-06
1.50443e-05
2.18943e-05
2.36781e-05
2.38856e-05
2.38948e-05
2.39099e-05
2.38236e-05
2.38885e-05
2.38499e-05
7.38135e-06
1.54939e-05
2.15519e-05
2.31584e-05
2.3329e-05
2.33283e-05
2.33458e-05
2.32994e-05
2.33195e-05
2.32722e-05
8.24506e-06
1.58256e-05
2.11304e-05
2.26217e-05
2.2752e-05
2.27423e-05
2.27613e-05
2.26997e-05
2.27306e-05
2.26747e-05
9.10049e-06
1.60654e-05
2.06139e-05
2.19806e-05
2.20427e-05
2.20179e-05
2.20397e-05
2.19584e-05
2.20037e-05
2.19339e-05
9.89678e-06
1.61868e-05
2.00564e-05
2.12683e-05
2.12818e-05
2.1246e-05
2.12696e-05
2.11727e-05
2.12291e-05
2.11486e-05
1.05798e-05
1.61687e-05
1.93318e-05
2.04582e-05
2.04215e-05
2.03746e-05
2.04e-05
2.02877e-05
2.03554e-05
2.02637e-05
)
;

boundaryField
{
    fuel
    {
        type            fixedValue;
        value           uniform 0;
    }
    wall
    {
        type            zeroGradient;
    }
    outlet
    {
        type            zeroGradient;
    }
    frontAndBack
    {
        type            empty;
    }
    procBoundary2to0
    {
        type            processor;
        value           nonuniform List<scalar> 
12
(
2.11673e-05
1.10974e-05
1.59887e-05
1.85483e-05
1.95447e-05
1.94574e-05
1.93999e-05
1.94271e-05
1.92998e-05
1.93788e-05
2.02858e-05
1.92756e-05
)
;
    }
    procBoundary2to3
    {
        type            processor;
        value           nonuniform List<scalar> 
25
(
0.000135426
0.000126865
9.3225e-05
6.66595e-05
5.01365e-05
3.99141e-05
3.43204e-05
3.10681e-05
2.91523e-05
2.80144e-05
2.80144e-05
2.73013e-05
2.68228e-05
2.64851e-05
2.62142e-05
2.59661e-05
2.57134e-05
2.54379e-05
2.51259e-05
2.47659e-05
2.43466e-05
2.38562e-05
2.32813e-05
2.26864e-05
2.19493e-05
)
;
    }
}


// ************************************************************************* //
