/*--------------------------------*- C++ -*----------------------------------*\
| =========                 |                                                 |
| \\      /  F ield         | OpenFOAM: The Open Source CFD Toolbox           |
|  \\    /   O peration     | Version:  dev                                   |
|   \\  /    A nd           | Web:      www.OpenFOAM.org                      |
|    \\/     M anipulation  |                                                 |
\*---------------------------------------------------------------------------*/
FoamFile
{
    version     2.0;
    format      ascii;
    class       volScalarField;
    location    "0.145";
    object      H2C4O;
}
// * * * * * * * * * * * * * * * * * * * * * * * * * * * * * * * * * * * * * //

dimensions      [0 0 0 0 0 0 0];

internalField   nonuniform List<scalar> 
50
(
1.61403e-20
1.48813e-20
1.37409e-20
1.2702e-20
1.17517e-20
1.08844e-20
1.00941e-20
9.36423e-21
8.69494e-21
8.08209e-21
7.52316e-21
7.00586e-21
6.53239e-21
6.10099e-21
5.70117e-21
5.33795e-21
5.00447e-21
4.69468e-21
4.41089e-21
4.14859e-21
3.90289e-21
3.67746e-21
3.46773e-21
3.2731e-21
3.0917e-21
2.92206e-21
2.76277e-21
2.61265e-21
2.46845e-21
2.33087e-21
2.20045e-21
2.07585e-21
1.95662e-21
1.84155e-21
1.73089e-21
1.62399e-21
1.51901e-21
1.41865e-21
1.31977e-21
1.22371e-21
1.13012e-21
1.03922e-21
9.51372e-22
8.67977e-22
7.89006e-22
7.13608e-22
6.43166e-22
5.76531e-22
5.14299e-22
4.56747e-22
)
;

boundaryField
{
    wall
    {
        type            zeroGradient;
    }
    fuel
    {
        type            fixedValue;
        value           nonuniform 0();
    }
    outlet
    {
        type            inletOutlet;
        inletValue      nonuniform 0();
        value           nonuniform 0();
    }
    procBoundary2to1
    {
        type            processor;
        value           uniform 1.75023e-20;
    }
    procBoundary2to3
    {
        type            processor;
        value           uniform 4.0206e-22;
    }
}


// ************************************************************************* //
