/*--------------------------------*- C++ -*----------------------------------*\
| =========                 |                                                 |
| \\      /  F ield         | OpenFOAM: The Open Source CFD Toolbox           |
|  \\    /   O peration     | Version:  dev                                   |
|   \\  /    A nd           | Web:      www.OpenFOAM.org                      |
|    \\/     M anipulation  |                                                 |
\*---------------------------------------------------------------------------*/
FoamFile
{
    version     2.0;
    format      ascii;
    class       volScalarField;
    location    "0.145";
    object      naphthyne;
}
// * * * * * * * * * * * * * * * * * * * * * * * * * * * * * * * * * * * * * //

dimensions      [0 0 0 0 0 0 0];

internalField   nonuniform List<scalar> 
50
(
4.41047e-19
4.1009e-19
3.81902e-19
3.56079e-19
3.3232e-19
3.10514e-19
2.9053e-19
2.71973e-19
2.54861e-19
2.39108e-19
2.24668e-19
2.1124e-19
1.98895e-19
1.87602e-19
1.77097e-19
1.67525e-19
1.58714e-19
1.50513e-19
1.42993e-19
1.3604e-19
1.29533e-19
1.23578e-19
1.18061e-19
1.12975e-19
1.08276e-19
1.03933e-19
9.99133e-20
9.61911e-20
9.26891e-20
8.94255e-20
8.64072e-20
8.35942e-20
8.09666e-20
7.84872e-20
7.6146e-20
7.39084e-20
7.17133e-20
6.95921e-20
6.74501e-20
6.52882e-20
6.30699e-20
6.07693e-20
5.83652e-20
5.58736e-20
5.32814e-20
5.05519e-20
4.77403e-20
4.48137e-20
4.1813e-20
3.8771e-20
)
;

boundaryField
{
    wall
    {
        type            zeroGradient;
    }
    fuel
    {
        type            fixedValue;
        value           nonuniform 0();
    }
    outlet
    {
        type            inletOutlet;
        inletValue      nonuniform 0();
        value           nonuniform 0();
    }
    procBoundary2to1
    {
        type            processor;
        value           uniform 4.74589e-19;
    }
    procBoundary2to3
    {
        type            processor;
        value           uniform 3.56009e-20;
    }
}


// ************************************************************************* //
