/*--------------------------------*- C++ -*----------------------------------*\
| =========                 |                                                 |
| \\      /  F ield         | OpenFOAM: The Open Source CFD Toolbox           |
|  \\    /   O peration     | Version:  dev                                   |
|   \\  /    A nd           | Web:      www.OpenFOAM.org                      |
|    \\/     M anipulation  |                                                 |
\*---------------------------------------------------------------------------*/
FoamFile
{
    version     2.0;
    format      ascii;
    class       volScalarField;
    location    "0.145";
    object      O2;
}
// * * * * * * * * * * * * * * * * * * * * * * * * * * * * * * * * * * * * * //

dimensions      [0 0 0 0 0 0 0];

internalField   nonuniform List<scalar> 
250
(
0.169316
0.0353051
0.0335242
0.033361
0.0333484
0.0333474
0.0333428
0.0333447
0.0333443
0.130884
0.00957177
0.00854167
0.00845805
0.00845072
0.00844871
0.00845093
0.00844813
0.00844875
0.0941393
0.00334635
0.00262722
0.00258094
0.00257583
0.00257454
0.00257537
0.0025743
0.00257487
0.0644882
0.00153184
0.000946939
0.000917658
0.000914287
0.000913584
0.000914019
0.000912922
0.00091382
0.0430272
0.000865256
0.000382458
0.000365262
0.00036373
0.00036348
0.000363764
0.000360353
0.000363652
0.028457
0.000552014
0.000167393
0.000152375
0.000149807
0.000149539
0.000149476
0.000152742
0.000149445
0.0189042
0.000370984
7.75984e-05
6.82869e-05
6.67693e-05
6.71212e-05
6.65917e-05
6.77699e-05
6.65891e-05
0.0127215
0.000263784
3.77209e-05
3.19069e-05
3.07683e-05
3.00872e-05
3.05788e-05
3.09919e-05
3.06008e-05
0.00872269
0.000193355
1.91746e-05
1.48778e-05
1.46496e-05
1.44162e-05
1.43419e-05
1.44777e-05
1.43875e-05
0.00610062
0.000143807
9.57767e-06
6.72372e-06
6.57342e-06
6.48962e-06
6.85028e-06
6.89404e-06
6.78891e-06
0.00430267
0.00010744
4.92407e-06
3.33452e-06
3.23951e-06
3.20627e-06
3.37299e-06
3.38639e-06
3.27925e-06
3.35653e-06
0.00305204
8.03493e-05
2.7973e-06
1.62632e-06
1.53816e-06
1.51936e-06
1.59669e-06
1.60126e-06
1.63206e-06
1.58153e-06
0.00216931
5.86044e-05
1.66739e-06
7.97652e-07
7.46845e-07
7.38247e-07
7.73278e-07
7.74916e-07
7.84957e-07
7.67789e-07
0.00153554
4.05398e-05
1.00907e-06
4.07853e-07
3.78802e-07
3.74826e-07
3.9074e-07
3.91455e-07
3.94621e-07
3.90388e-07
0.00107581
2.88777e-05
6.2683e-07
2.22552e-07
2.06128e-07
2.04311e-07
2.1152e-07
2.11878e-07
2.12985e-07
2.1282e-07
0.000742802
2.02125e-05
4.0576e-07
1.33346e-07
1.24198e-07
1.23395e-07
1.26644e-07
1.26773e-07
1.27335e-07
1.27986e-07
0.000503728
1.38929e-05
2.72127e-07
8.95961e-08
8.46179e-08
8.4281e-08
8.57424e-08
8.56204e-08
8.61265e-08
8.66659e-08
0.000334465
9.41444e-06
1.88365e-07
6.74651e-08
6.48568e-08
6.47256e-08
6.53894e-08
6.48733e-08
6.56049e-08
6.58891e-08
0.000216756
6.14763e-06
1.34168e-07
5.56449e-08
5.43639e-08
5.43132e-08
5.46332e-08
5.48106e-08
5.4731e-08
5.48127e-08
0.000136677
4.0565e-06
9.85895e-08
4.87259e-08
4.8166e-08
4.81353e-08
4.83065e-08
4.8202e-08
4.83227e-08
4.82755e-08
8.36304e-05
2.48544e-06
7.4434e-08
4.40885e-08
4.38998e-08
4.38595e-08
4.39692e-08
4.36451e-08
4.39282e-08
4.38017e-08
4.95923e-05
1.49258e-06
5.81575e-08
4.04386e-08
4.04262e-08
4.03614e-08
4.04508e-08
4.03452e-08
4.03679e-08
4.01892e-08
2.85164e-05
9.23538e-07
4.70879e-08
3.75544e-08
3.75701e-08
3.74818e-08
3.75643e-08
3.73705e-08
3.74554e-08
3.7243e-08
1.59308e-05
5.60067e-07
3.9155e-08
3.46817e-08
3.45613e-08
3.44277e-08
3.45125e-08
3.42366e-08
3.43827e-08
3.41266e-08
8.65506e-06
3.35192e-07
3.37219e-08
3.18815e-08
3.16829e-08
3.15229e-08
3.16084e-08
3.12849e-08
3.14671e-08
3.11882e-08
4.53351e-06
1.98696e-07
2.89746e-08
2.90161e-08
2.87278e-08
2.85447e-08
2.86322e-08
2.82737e-08
2.84843e-08
2.81874e-08
)
;

boundaryField
{
    fuel
    {
        type            fixedValue;
        value           uniform 0.1914;
    }
    wall
    {
        type            zeroGradient;
    }
    outlet
    {
        type            inletOutlet;
        inletValue      uniform 0;
        value           nonuniform List<scalar> 
26
(
0.169316
0.130884
0
0
0
0
0
0
0
0.00610062
0.00430267
0.00305204
0.00216931
0.00153554
0.00107581
0.000742802
0.000503728
0.000334465
0.000216756
0.000136677
8.36304e-05
4.95923e-05
2.85164e-05
1.59308e-05
8.65506e-06
4.53351e-06
)
;
    }
    frontAndBack
    {
        type            empty;
    }
    procBoundary2to0
    {
        type            processor;
        value           nonuniform List<scalar> 
12
(
3.12478e-08
2.27182e-06
1.16176e-07
2.52329e-08
2.60825e-08
2.57055e-08
2.55073e-08
2.55945e-08
2.5215e-08
2.54453e-08
2.82562e-08
2.51371e-08
)
;
    }
    procBoundary2to3
    {
        type            processor;
        value           nonuniform List<scalar> 
25
(
0.0333435
0.00844814
0.00257464
0.000913739
0.000363632
0.000149399
6.65609e-05
3.05902e-05
1.43187e-05
6.83159e-06
6.83159e-06
3.24405e-06
1.53468e-06
7.45092e-07
3.78036e-07
2.05894e-07
1.24209e-07
8.46973e-08
6.49092e-08
5.43479e-08
4.80701e-08
4.37256e-08
4.01795e-08
3.72655e-08
3.41728e-08
)
;
    }
}


// ************************************************************************* //
