/*--------------------------------*- C++ -*----------------------------------*\
| =========                 |                                                 |
| \\      /  F ield         | OpenFOAM: The Open Source CFD Toolbox           |
|  \\    /   O peration     | Version:  dev                                   |
|   \\  /    A nd           | Web:      www.OpenFOAM.org                      |
|    \\/     M anipulation  |                                                 |
\*---------------------------------------------------------------------------*/
FoamFile
{
    version     2.0;
    format      ascii;
    class       volScalarField;
    location    "0.145";
    object      p;
}
// * * * * * * * * * * * * * * * * * * * * * * * * * * * * * * * * * * * * * //

dimensions      [1 -1 -2 0 0 0 0];

internalField   nonuniform List<scalar> 
50
(
99935.9
99936.1
99936.4
99936.6
99936.8
99937.1
99937.4
99937.6
99937.9
99938.1
99938.4
99938.7
99939
99939.3
99939.6
99939.9
99940.2
99940.5
99940.8
99941.1
99941.5
99941.8
99942.1
99942.5
99942.8
99943.2
99943.5
99943.9
99944.3
99944.6
99945
99945.4
99945.8
99946.2
99946.6
99947
99947.4
99947.8
99948.2
99948.6
99949
99949.4
99949.9
99950.3
99950.8
99951.2
99951.7
99952.1
99952.6
99953
)
;

boundaryField
{
    wall
    {
        type            zeroGradient;
    }
    fuel
    {
        type            zeroGradient;
    }
    outlet
    {
        type            totalPressure;
        rho             none;
        psi             none;
        gamma           1;
        p0              nonuniform 0();
        value           nonuniform 0();
    }
    procBoundary2to1
    {
        type            processor;
        value           uniform 99935.6;
    }
    procBoundary2to3
    {
        type            processor;
        value           uniform 99953.5;
    }
}


// ************************************************************************* //
