/*--------------------------------*- C++ -*----------------------------------*\
| =========                 |                                                 |
| \\      /  F ield         | OpenFOAM: The Open Source CFD Toolbox           |
|  \\    /   O peration     | Version:  dev                                   |
|   \\  /    A nd           | Web:      www.OpenFOAM.org                      |
|    \\/     M anipulation  |                                                 |
\*---------------------------------------------------------------------------*/
FoamFile
{
    version     2.0;
    format      ascii;
    class       volScalarField;
    location    "0.145";
    object      P2;
}
// * * * * * * * * * * * * * * * * * * * * * * * * * * * * * * * * * * * * * //

dimensions      [0 0 0 0 0 0 0];

internalField   nonuniform List<scalar> 
250
(
3.12961e-09
1.37441e-07
9.14307e-08
8.68459e-08
8.63631e-08
8.62934e-08
8.63048e-08
8.6289e-08
8.62935e-08
6.61173e-09
1.59022e-07
7.8601e-08
7.18675e-08
7.11809e-08
7.11198e-08
7.11337e-08
7.10828e-08
7.10988e-08
9.0902e-09
1.55152e-07
5.60333e-08
4.90334e-08
4.83349e-08
4.82701e-08
4.82693e-08
4.82143e-08
4.82496e-08
1.07771e-08
1.43053e-07
3.72956e-08
3.09786e-08
3.03688e-08
3.03117e-08
3.0309e-08
3.02149e-08
3.02947e-08
1.15998e-08
1.28764e-07
2.42191e-08
1.89877e-08
1.85085e-08
1.84694e-08
1.84625e-08
1.82637e-08
1.8456e-08
1.17687e-08
1.1465e-07
1.57868e-08
1.13473e-08
1.08725e-08
1.08385e-08
1.08083e-08
1.09214e-08
1.08152e-08
1.15899e-08
1.00895e-07
1.0511e-08
7.00424e-09
6.62601e-09
6.63361e-09
6.56615e-09
6.60715e-09
6.57967e-09
1.14121e-08
8.78078e-08
7.23045e-09
4.47968e-09
4.16402e-09
4.08939e-09
4.09927e-09
4.11082e-09
4.1126e-09
1.12603e-08
7.52846e-08
5.155e-09
2.92519e-09
2.73647e-09
2.69636e-09
2.66143e-09
2.66189e-09
2.66967e-09
1.09449e-08
6.34697e-08
3.68232e-09
1.94669e-09
1.80002e-09
1.77436e-09
1.81345e-09
1.81126e-09
1.79737e-09
1.02929e-08
5.2583e-08
2.70815e-09
1.42254e-09
1.30303e-09
1.28419e-09
1.3067e-09
1.30441e-09
1.2795e-09
1.29948e-09
9.3943e-09
4.28411e-08
2.1147e-09
1.06933e-09
9.62205e-10
9.45929e-10
9.58784e-10
9.57502e-10
9.62346e-10
9.52879e-10
8.4364e-09
3.36142e-08
1.69318e-09
8.31408e-10
7.42203e-10
7.28785e-10
7.35449e-10
7.3472e-10
7.37144e-10
7.3363e-10
7.54077e-09
2.48748e-08
1.36258e-09
6.70751e-10
5.95102e-10
5.8361e-10
5.86779e-10
5.86168e-10
5.8819e-10
5.87259e-10
6.77913e-09
1.88372e-08
1.10582e-09
5.57466e-10
4.92356e-10
4.82227e-10
4.83474e-10
4.82608e-10
4.84843e-10
4.84631e-10
6.14072e-09
1.40766e-08
9.11445e-10
4.74349e-10
4.17638e-10
4.08524e-10
4.08753e-10
4.07344e-10
4.09945e-10
4.09745e-10
5.58792e-09
1.0408e-08
7.61607e-10
4.11235e-10
3.61386e-10
3.53075e-10
3.52793e-10
3.50592e-10
3.53677e-10
3.53319e-10
5.08226e-09
7.66664e-09
6.44679e-10
3.61969e-10
3.17861e-10
3.10218e-10
3.09712e-10
3.06414e-10
3.10241e-10
3.09742e-10
4.598e-09
5.5526e-09
5.52598e-10
3.22726e-10
2.83522e-10
2.76462e-10
2.7591e-10
2.75537e-10
2.761e-10
2.75518e-10
4.1256e-09
4.11141e-09
4.79909e-10
2.91062e-10
2.56133e-10
2.496e-10
2.49053e-10
2.48141e-10
2.48983e-10
2.48403e-10
3.66425e-09
2.93709e-09
4.22212e-10
2.65378e-10
2.34249e-10
2.28204e-10
2.27686e-10
2.26244e-10
2.27436e-10
2.26926e-10
3.22549e-09
2.13979e-09
3.77055e-10
2.44598e-10
2.16925e-10
2.11341e-10
2.10871e-10
2.10928e-10
2.10501e-10
2.1011e-10
2.82002e-09
1.64112e-09
3.42351e-10
2.30206e-10
2.05141e-10
1.99965e-10
1.99516e-10
1.99525e-10
1.99094e-10
1.98843e-10
2.45694e-09
1.28646e-09
3.16223e-10
2.19244e-10
1.96272e-10
1.91467e-10
1.91033e-10
1.91057e-10
1.90597e-10
1.90494e-10
2.14383e-09
1.03821e-09
2.99404e-10
2.12266e-10
1.91293e-10
1.86878e-10
1.86429e-10
1.86585e-10
1.8602e-10
1.86126e-10
1.88456e-09
8.66718e-10
2.87643e-10
2.08945e-10
1.89696e-10
1.85691e-10
1.85205e-10
1.85575e-10
1.84852e-10
1.85207e-10
)
;

boundaryField
{
    fuel
    {
        type            fixedValue;
        value           uniform 0;
    }
    wall
    {
        type            zeroGradient;
    }
    outlet
    {
        type            zeroGradient;
    }
    frontAndBack
    {
        type            empty;
    }
    procBoundary2to0
    {
        type            processor;
        value           nonuniform List<scalar> 
12
(
1.85912e-10
1.68023e-09
7.46838e-10
2.82414e-10
2.09321e-10
1.91712e-10
1.88061e-10
1.87514e-10
1.88181e-10
1.87241e-10
1.8497e-10
1.87895e-10
)
;
    }
    procBoundary2to3
    {
        type            processor;
        value           nonuniform List<scalar> 
25
(
8.63299e-08
7.11167e-08
4.82569e-08
3.02954e-08
1.84524e-08
1.08047e-08
6.56871e-09
4.10544e-09
2.66051e-09
1.80803e-09
1.80803e-09
1.28533e-09
9.44905e-10
7.2716e-10
5.8195e-10
4.80654e-10
4.06957e-10
3.51425e-10
3.08467e-10
2.74658e-10
2.47817e-10
2.26517e-10
2.09813e-10
1.986e-10
1.90283e-10
)
;
    }
}


// ************************************************************************* //
