/*--------------------------------*- C++ -*----------------------------------*\
| =========                 |                                                 |
| \\      /  F ield         | OpenFOAM: The Open Source CFD Toolbox           |
|  \\    /   O peration     | Version:  dev                                   |
|   \\  /    A nd           | Web:      www.OpenFOAM.org                      |
|    \\/     M anipulation  |                                                 |
\*---------------------------------------------------------------------------*/
FoamFile
{
    version     2.0;
    format      ascii;
    class       volScalarField;
    location    "0.145";
    object      P2-H;
}
// * * * * * * * * * * * * * * * * * * * * * * * * * * * * * * * * * * * * * //

dimensions      [0 0 0 0 0 0 0];

internalField   nonuniform List<scalar> 
250
(
4.71069e-11
5.13996e-13
3.32266e-13
3.17015e-13
3.15379e-13
3.1534e-13
3.15193e-13
3.15238e-13
3.15267e-13
2.03949e-11
4.08444e-13
2.03092e-13
1.87573e-13
1.85984e-13
1.85867e-13
1.85813e-13
1.8578e-13
1.85819e-13
2.26714e-12
2.58106e-13
9.93368e-14
8.84104e-14
8.73209e-14
8.72145e-14
8.7214e-14
8.71356e-14
8.71942e-14
3.84469e-13
1.63175e-13
4.61297e-14
3.92867e-14
3.86192e-14
3.85498e-14
3.85578e-14
3.84387e-14
3.85405e-14
1.02092e-13
1.08044e-13
2.1957e-14
1.77954e-14
1.74153e-14
1.73817e-14
1.73845e-14
1.71566e-14
1.73767e-14
3.49708e-14
7.5126e-14
1.11585e-14
8.29624e-15
7.96783e-15
7.94261e-15
7.92374e-15
8.04447e-15
7.92776e-15
1.52745e-14
5.39968e-14
6.17191e-15
4.28107e-15
4.06082e-15
4.07028e-15
4.02579e-15
4.06351e-15
4.03384e-15
1.03574e-14
4.00236e-14
3.73118e-15
2.42636e-15
2.26079e-15
2.21595e-15
2.2258e-15
2.23558e-15
2.23317e-15
7.86483e-15
3.02229e-14
2.4417e-15
1.46483e-15
1.3778e-15
1.3566e-15
1.33885e-15
1.33982e-15
1.34311e-15
5.47013e-15
2.30735e-14
1.64264e-15
9.28735e-16
8.63974e-16
8.51573e-16
8.72349e-16
8.7133e-16
8.63842e-16
4.00386e-15
1.7725e-14
1.16246e-15
6.62136e-16
6.10535e-16
6.01832e-16
6.13206e-16
6.12012e-16
5.99656e-16
6.09518e-16
3.04885e-15
1.36697e-14
8.88265e-16
4.90447e-16
4.4433e-16
4.36942e-16
4.43199e-16
4.42465e-16
4.44838e-16
4.40285e-16
2.37379e-15
1.03046e-14
7.02162e-16
3.77766e-16
3.39694e-16
3.33674e-16
3.36849e-16
3.36364e-16
3.37617e-16
3.3593e-16
1.94795e-15
7.42412e-15
5.60815e-16
3.02695e-16
2.70573e-16
2.65448e-16
2.66948e-16
2.66503e-16
2.67579e-16
2.67102e-16
1.6795e-15
5.56142e-15
4.5304e-16
2.50045e-16
2.22489e-16
2.17988e-16
2.18589e-16
2.18011e-16
2.19192e-16
2.1904e-16
1.48098e-15
4.15225e-15
3.72414e-16
2.11428e-16
1.8749e-16
1.83453e-16
1.83586e-16
1.82741e-16
1.84097e-16
1.83944e-16
1.31305e-15
3.0908e-15
3.10626e-16
1.82017e-16
1.61032e-16
1.57362e-16
1.57266e-16
1.56041e-16
1.57626e-16
1.57397e-16
1.16549e-15
2.3044e-15
2.62452e-16
1.58934e-16
1.40425e-16
1.37063e-16
1.36869e-16
1.3513e-16
1.37062e-16
1.36766e-16
1.03726e-15
1.69663e-15
2.24385e-16
1.40401e-16
1.24019e-16
1.20929e-16
1.20719e-16
1.20391e-16
1.20753e-16
1.20415e-16
9.2773e-16
1.27803e-15
1.94096e-16
1.2528e-16
1.10765e-16
1.07922e-16
1.07718e-16
1.07126e-16
1.07633e-16
1.07291e-16
8.3338e-16
9.31426e-16
1.698e-16
1.12816e-16
9.99745e-17
9.73609e-17
9.71748e-17
9.63184e-17
9.7008e-17
9.66906e-17
7.51157e-16
6.91698e-16
1.50432e-16
1.02481e-16
9.11766e-17
8.87804e-17
8.86218e-17
8.85313e-17
8.83997e-17
8.81253e-17
6.77975e-16
5.38491e-16
1.35131e-16
9.50391e-17
8.48907e-17
8.26873e-17
8.25435e-17
8.24103e-17
8.22963e-17
8.20711e-17
6.11835e-16
4.27078e-16
1.23106e-16
8.89383e-17
7.96768e-17
7.76405e-17
7.75115e-17
7.73491e-17
7.72542e-17
7.70673e-17
5.52392e-16
3.47197e-16
1.14781e-16
8.44353e-17
7.60616e-17
7.42035e-17
7.40757e-17
7.39371e-17
7.38256e-17
7.37031e-17
5.00122e-16
2.90276e-16
1.07989e-16
8.12488e-17
7.36407e-17
7.19631e-17
7.18303e-17
7.17393e-17
7.15966e-17
7.15452e-17
)
;

boundaryField
{
    fuel
    {
        type            fixedValue;
        value           uniform 0;
    }
    wall
    {
        type            zeroGradient;
    }
    outlet
    {
        type            zeroGradient;
    }
    frontAndBack
    {
        type            empty;
    }
    procBoundary2to0
    {
        type            processor;
        value           nonuniform List<scalar> 
12
(
7.36552e-17
4.55489e-16
2.48795e-16
1.0355e-16
7.92734e-17
7.23795e-17
7.0856e-17
7.07117e-17
7.06873e-17
7.05009e-17
7.14993e-17
7.05264e-17
)
;
    }
    procBoundary2to3
    {
        type            processor;
        value           nonuniform List<scalar> 
25
(
3.15296e-13
1.85853e-13
8.72059e-14
3.85415e-14
1.73738e-14
7.91994e-15
4.02685e-15
2.22914e-15
1.33808e-15
8.69305e-16
8.69305e-16
6.02495e-16
4.36464e-16
3.3289e-16
2.64644e-16
2.17221e-16
1.82683e-16
1.5655e-16
1.36205e-16
1.20045e-16
1.07049e-16
9.65313e-17
8.80203e-17
8.19946e-17
7.70117e-17
)
;
    }
}


// ************************************************************************* //
