/*--------------------------------*- C++ -*----------------------------------*\
| =========                 |                                                 |
| \\      /  F ield         | OpenFOAM: The Open Source CFD Toolbox           |
|  \\    /   O peration     | Version:  dev                                   |
|   \\  /    A nd           | Web:      www.OpenFOAM.org                      |
|    \\/     M anipulation  |                                                 |
\*---------------------------------------------------------------------------*/
FoamFile
{
    version     2.0;
    format      ascii;
    class       volScalarField;
    location    "0.195";
    object      A1C2H*;
}
// * * * * * * * * * * * * * * * * * * * * * * * * * * * * * * * * * * * * * //

dimensions      [0 0 0 0 0 0 0];

internalField   nonuniform List<scalar> 
50
(
5.28948e-19
4.74058e-19
4.25234e-19
3.81794e-19
3.4352e-19
3.09239e-19
2.78583e-19
2.51251e-19
2.2684e-19
2.05227e-19
1.85823e-19
1.68314e-19
1.52764e-19
1.38794e-19
1.26172e-19
1.14862e-19
1.04667e-19
9.54771e-20
8.71034e-20
7.96111e-20
7.27813e-20
6.65857e-20
6.10243e-20
5.59759e-20
5.13909e-20
4.72242e-20
4.34258e-20
3.99752e-20
3.68306e-20
3.39477e-20
3.13264e-20
2.89273e-20
2.67186e-20
2.46971e-20
2.28343e-20
2.11027e-20
1.95055e-20
1.80027e-20
1.66098e-20
1.52996e-20
1.40633e-20
1.28922e-20
1.17718e-20
1.07062e-20
9.69157e-21
8.73492e-21
7.82663e-21
6.96891e-21
6.16495e-21
5.41902e-21
)
;

boundaryField
{
    wall
    {
        type            zeroGradient;
    }
    fuel
    {
        type            fixedValue;
        value           nonuniform 0();
    }
    outlet
    {
        type            inletOutlet;
        inletValue      nonuniform 0();
        value           nonuniform 0();
    }
    procBoundary2to1
    {
        type            processor;
        value           uniform 5.90336e-19;
    }
    procBoundary2to3
    {
        type            processor;
        value           uniform 4.71772e-21;
    }
}


// ************************************************************************* //
