/*--------------------------------*- C++ -*----------------------------------*\
| =========                 |                                                 |
| \\      /  F ield         | OpenFOAM: The Open Source CFD Toolbox           |
|  \\    /   O peration     | Version:  dev                                   |
|   \\  /    A nd           | Web:      www.OpenFOAM.org                      |
|    \\/     M anipulation  |                                                 |
\*---------------------------------------------------------------------------*/
FoamFile
{
    version     2.0;
    format      ascii;
    class       volScalarField;
    location    "0.195";
    object      c-C6H4;
}
// * * * * * * * * * * * * * * * * * * * * * * * * * * * * * * * * * * * * * //

dimensions      [0 0 0 0 0 0 0];

internalField   nonuniform List<scalar> 
50
(
5.02233e-18
4.58375e-18
4.18714e-18
3.82877e-18
3.50835e-18
3.21722e-18
2.95318e-18
2.71441e-18
2.49811e-18
2.30385e-18
2.12693e-18
1.96496e-18
1.81898e-18
1.68589e-18
1.56384e-18
1.45283e-18
1.35123e-18
1.25822e-18
1.17213e-18
1.09383e-18
1.02125e-18
9.54237e-19
8.92954e-19
8.36216e-19
7.83591e-19
7.34672e-19
6.88974e-19
6.46345e-19
6.0637e-19
5.68569e-19
5.33047e-19
4.99382e-19
4.67247e-19
4.36725e-19
4.07539e-19
3.79414e-19
3.52575e-19
3.26529e-19
3.0173e-19
2.77886e-19
2.55015e-19
2.33123e-19
2.12076e-19
1.92076e-19
1.73141e-19
1.55458e-19
1.38878e-19
1.23442e-19
1.09176e-19
9.60913e-20
)
;

boundaryField
{
    wall
    {
        type            zeroGradient;
    }
    fuel
    {
        type            fixedValue;
        value           nonuniform 0();
    }
    outlet
    {
        type            inletOutlet;
        inletValue      nonuniform 0();
        value           nonuniform 0();
    }
    procBoundary2to1
    {
        type            processor;
        value           uniform 5.50453e-18;
    }
    procBoundary2to3
    {
        type            processor;
        value           uniform 8.39071e-20;
    }
}


// ************************************************************************* //
