/*--------------------------------*- C++ -*----------------------------------*\
| =========                 |                                                 |
| \\      /  F ield         | OpenFOAM: The Open Source CFD Toolbox           |
|  \\    /   O peration     | Version:  dev                                   |
|   \\  /    A nd           | Web:      www.OpenFOAM.org                      |
|    \\/     M anipulation  |                                                 |
\*---------------------------------------------------------------------------*/
FoamFile
{
    version     2.0;
    format      ascii;
    class       volScalarField;
    location    "0.195";
    object      C6H5OH;
}
// * * * * * * * * * * * * * * * * * * * * * * * * * * * * * * * * * * * * * //

dimensions      [0 0 0 0 0 0 0];

internalField   nonuniform List<scalar> 
50
(
8.65248e-20
8.13567e-20
7.66579e-20
7.23925e-20
6.85646e-20
6.50778e-20
6.19121e-20
5.90521e-20
5.64696e-20
5.41643e-20
5.20842e-20
5.02052e-20
4.85426e-20
4.70632e-20
4.57488e-20
4.46014e-20
4.36052e-20
4.27535e-20
4.20326e-20
4.14504e-20
4.09917e-20
4.06568e-20
4.04452e-20
4.03506e-20
4.03705e-20
4.05027e-20
4.07453e-20
4.10948e-20
4.15491e-20
4.21081e-20
4.27631e-20
4.35127e-20
4.43558e-20
4.52801e-20
4.62829e-20
4.73631e-20
4.85006e-20
4.97047e-20
5.09427e-20
5.22162e-20
5.3512e-20
5.48177e-20
5.61288e-20
5.74203e-20
5.86768e-20
5.98707e-20
6.09961e-20
6.20333e-20
6.2962e-20
6.37626e-20
)
;

boundaryField
{
    wall
    {
        type            zeroGradient;
    }
    fuel
    {
        type            fixedValue;
        value           nonuniform 0();
    }
    outlet
    {
        type            inletOutlet;
        inletValue      nonuniform 0();
        value           nonuniform 0();
    }
    procBoundary2to1
    {
        type            processor;
        value           uniform 9.20897e-20;
    }
    procBoundary2to3
    {
        type            processor;
        value           uniform 6.44323e-20;
    }
}


// ************************************************************************* //
