/*--------------------------------*- C++ -*----------------------------------*\
| =========                 |                                                 |
| \\      /  F ield         | OpenFOAM: The Open Source CFD Toolbox           |
|  \\    /   O peration     | Version:  dev                                   |
|   \\  /    A nd           | Web:      www.OpenFOAM.org                      |
|    \\/     M anipulation  |                                                 |
\*---------------------------------------------------------------------------*/
FoamFile
{
    version     2.0;
    format      ascii;
    class       volScalarField;
    location    "0.195";
    object      CH2(S);
}
// * * * * * * * * * * * * * * * * * * * * * * * * * * * * * * * * * * * * * //

dimensions      [0 0 0 0 0 0 0];

internalField   nonuniform List<scalar> 
250
(
1.01265e-09
2.09671e-06
2.23602e-06
2.25411e-06
2.25633e-06
2.25694e-06
2.25702e-06
2.25667e-06
2.25695e-06
9.14606e-10
1.24572e-06
1.31317e-06
1.32487e-06
1.32591e-06
1.32638e-06
1.32633e-06
1.32618e-06
1.32643e-06
5.29028e-10
6.04851e-07
6.39808e-07
6.49128e-07
6.49846e-07
6.50251e-07
6.50189e-07
6.5009e-07
6.50301e-07
2.94494e-10
2.98679e-07
3.13736e-07
3.21022e-07
3.2165e-07
3.21958e-07
3.21894e-07
3.21856e-07
3.2197e-07
1.81376e-10
1.64622e-07
1.70433e-07
1.76059e-07
1.7673e-07
1.76954e-07
1.76846e-07
1.76907e-07
1.76893e-07
1.28636e-10
1.03062e-07
1.04706e-07
1.11241e-07
1.12077e-07
1.12273e-07
1.1202e-07
1.12258e-07
1.12041e-07
1.03653e-10
7.1605e-08
7.44738e-08
8.08901e-08
8.13595e-08
8.14725e-08
8.16863e-08
8.14123e-08
8.16857e-08
9.25731e-11
5.35208e-08
5.90906e-08
6.39125e-08
6.45028e-08
6.46616e-08
6.47309e-08
6.45804e-08
6.47157e-08
9.80997e-11
4.12112e-08
4.97845e-08
5.56957e-08
5.64034e-08
5.65698e-08
5.65893e-08
5.64983e-08
5.65692e-08
2.04821e-10
3.32131e-08
4.44003e-08
5.059e-08
5.12796e-08
5.14287e-08
5.14413e-08
5.13681e-08
5.1412e-08
6.60186e-10
2.74141e-08
4.09998e-08
4.70448e-08
4.78435e-08
4.7985e-08
4.79888e-08
4.79317e-08
4.79641e-08
4.79335e-08
1.82471e-09
2.31061e-08
3.82352e-08
4.45169e-08
4.53776e-08
4.55135e-08
4.5502e-08
4.54578e-08
4.54907e-08
4.54709e-08
3.40203e-09
1.9887e-08
3.60967e-08
4.25149e-08
4.34035e-08
4.35364e-08
4.34968e-08
4.34714e-08
4.35117e-08
4.34956e-08
4.48299e-09
1.75187e-08
3.4332e-08
4.07863e-08
4.16778e-08
4.18095e-08
4.17192e-08
4.1729e-08
4.17818e-08
4.17678e-08
4.84668e-09
1.56322e-08
3.27947e-08
3.9197e-08
4.00717e-08
4.0204e-08
4.0248e-08
4.01011e-08
4.0171e-08
4.01581e-08
4.79024e-09
1.43997e-08
3.15751e-08
3.76716e-08
3.85132e-08
3.86446e-08
3.87194e-08
3.85123e-08
3.86065e-08
3.8594e-08
4.56518e-09
1.34093e-08
3.03238e-08
3.61619e-08
3.69585e-08
3.70868e-08
3.71329e-08
3.69154e-08
3.70444e-08
3.70314e-08
4.28303e-09
1.27406e-08
2.91143e-08
3.46334e-08
3.53778e-08
3.55014e-08
3.5528e-08
3.52742e-08
3.54549e-08
3.54401e-08
3.9896e-09
1.23234e-08
2.79372e-08
3.30544e-08
3.37479e-08
3.3866e-08
3.38797e-08
3.3771e-08
3.38157e-08
3.37971e-08
3.71683e-09
1.21085e-08
2.67651e-08
3.16059e-08
3.20489e-08
3.21613e-08
3.2164e-08
3.20222e-08
3.21061e-08
3.20825e-08
3.49459e-09
1.19933e-08
2.5565e-08
2.9954e-08
3.02596e-08
3.03689e-08
3.03622e-08
3.01735e-08
3.03077e-08
3.02777e-08
3.34853e-09
1.19278e-08
2.43098e-08
2.81632e-08
2.83564e-08
2.84679e-08
2.84548e-08
2.84283e-08
2.84007e-08
2.8362e-08
3.28056e-09
1.1875e-08
2.29767e-08
2.6475e-08
2.6547e-08
2.66721e-08
2.66527e-08
2.66051e-08
2.65979e-08
2.65529e-08
3.31071e-09
1.17962e-08
2.15374e-08
2.46006e-08
2.46416e-08
2.46123e-08
2.45859e-08
2.45135e-08
2.45252e-08
2.44681e-08
3.4206e-09
1.16443e-08
1.99667e-08
2.27162e-08
2.26466e-08
2.26156e-08
2.25832e-08
2.24956e-08
2.25209e-08
2.24567e-08
3.58902e-09
1.13851e-08
1.84367e-08
2.07354e-08
2.0569e-08
2.05346e-08
2.04972e-08
2.0397e-08
2.04336e-08
2.03627e-08
)
;

boundaryField
{
    fuel
    {
        type            fixedValue;
        value           uniform 0;
    }
    wall
    {
        type            zeroGradient;
    }
    outlet
    {
        type            zeroGradient;
    }
    frontAndBack
    {
        type            empty;
    }
    procBoundary2to0
    {
        type            processor;
        value           nonuniform List<scalar> 
12
(
2.23676e-08
3.78502e-09
1.09941e-08
1.67935e-08
1.86767e-08
1.84229e-08
1.83847e-08
1.83432e-08
1.82338e-08
1.82794e-08
2.02722e-08
1.8203e-08
)
;
    }
    procBoundary2to3
    {
        type            processor;
        value           nonuniform List<scalar> 
25
(
2.25673e-06
1.32617e-06
6.50061e-07
3.2181e-07
1.76802e-07
1.11992e-07
8.16573e-08
6.46978e-08
5.65528e-08
5.13875e-08
5.13875e-08
4.79232e-08
4.54532e-08
4.34724e-08
4.17382e-08
4.01215e-08
3.85499e-08
3.69796e-08
3.53808e-08
3.37307e-08
3.20101e-08
3.02009e-08
2.82829e-08
2.64687e-08
2.43815e-08
)
;
    }
}


// ************************************************************************* //
