/*--------------------------------*- C++ -*----------------------------------*\
| =========                 |                                                 |
| \\      /  F ield         | OpenFOAM: The Open Source CFD Toolbox           |
|  \\    /   O peration     | Version:  dev                                   |
|   \\  /    A nd           | Web:      www.OpenFOAM.org                      |
|    \\/     M anipulation  |                                                 |
\*---------------------------------------------------------------------------*/
FoamFile
{
    version     2.0;
    format      ascii;
    class       volScalarField;
    location    "0.195";
    object      CH3;
}
// * * * * * * * * * * * * * * * * * * * * * * * * * * * * * * * * * * * * * //

dimensions      [0 0 0 0 0 0 0];

internalField   nonuniform List<scalar> 
250
(
1.28952e-06
0.000713783
0.000699472
0.000698587
0.000698645
0.00069858
0.000698568
0.000698643
0.000698582
7.77848e-06
0.000535725
0.000519955
0.000519238
0.000519012
0.000518986
0.000518924
0.000519031
0.000518934
1.98957e-05
0.000375541
0.000365891
0.000366002
0.00036552
0.000365563
0.000365412
0.000365573
0.000365449
1.90769e-05
0.000267826
0.00026462
0.000265673
0.000265014
0.000264932
0.000264756
0.000264902
0.000264802
1.29145e-05
0.000200698
0.00020297
0.000205137
0.00020449
0.000203757
0.000203618
0.000203665
0.000203649
9.1829e-06
0.000158562
0.000166202
0.000166835
0.000166453
0.000167333
0.000167269
0.000167098
0.000167271
8.72108e-06
0.000134052
0.000144273
0.000145205
0.000145486
0.000145605
0.000145692
0.000145096
0.00014563
1.10372e-05
0.000119988
0.000131122
0.00013173
0.000131127
0.000130917
0.000131052
0.00013149
0.000131039
1.63834e-05
0.000111698
0.000122186
0.000122967
0.000123063
0.000122718
0.000122891
0.000122919
0.000122893
2.53342e-05
0.000106832
0.000116332
0.000117419
0.000117769
0.000117267
0.000117515
0.000117321
0.000117486
3.79709e-05
0.000104309
0.000112676
0.000113037
0.000113624
0.000112996
0.000113293
0.000113005
0.000113237
0.000113101
5.34286e-05
0.000102581
0.000109651
0.0001097
0.000110509
0.000109774
0.000110094
0.000109783
0.000110035
0.000109885
7.01229e-05
0.000101175
0.000107081
0.000106973
0.000107962
0.000107134
0.000107443
0.000107149
0.000107415
0.000107255
8.60022e-05
9.95987e-05
0.000104809
0.000104581
0.000105719
0.000104809
0.000105065
0.000104824
0.00010511
0.000104941
9.90004e-05
9.77158e-05
0.00010269
0.000102364
0.000103631
0.00010265
0.000103107
0.000102651
0.000102966
0.000102787
0.000107897
9.56087e-05
0.000100646
0.000100229
0.00010161
0.000100563
0.000101247
0.000100537
0.000100891
0.000100702
0.000112557
9.34098e-05
9.86251e-05
9.81165e-05
9.95997e-05
9.84874e-05
9.91751e-05
9.84212e-05
9.88292e-05
9.86279e-05
0.000113586
9.1305e-05
9.65915e-05
9.5985e-05
9.75612e-05
9.6383e-05
9.70803e-05
9.62547e-05
9.67401e-05
9.65256e-05
0.000111877
8.90615e-05
9.45105e-05
9.37997e-05
9.54615e-05
9.42174e-05
9.49305e-05
9.42755e-05
9.45912e-05
9.43615e-05
0.000108334
8.67572e-05
9.26262e-05
9.15241e-05
9.32683e-05
9.19594e-05
9.26898e-05
9.19735e-05
9.23492e-05
9.21042e-05
0.000103723
8.4402e-05
9.05405e-05
8.91068e-05
9.09458e-05
8.95753e-05
9.03236e-05
8.9528e-05
8.99795e-05
8.97194e-05
9.86242e-05
8.20488e-05
8.82637e-05
8.68232e-05
8.8449e-05
8.70238e-05
8.77887e-05
8.71969e-05
8.74394e-05
8.71649e-05
9.34309e-05
7.93613e-05
8.58206e-05
8.43982e-05
8.60801e-05
8.457e-05
8.53769e-05
8.47254e-05
8.50143e-05
8.47156e-05
8.83846e-05
7.67365e-05
8.31554e-05
8.15399e-05
8.34018e-05
8.16875e-05
8.25772e-05
8.18302e-05
8.21749e-05
8.18396e-05
8.35847e-05
7.41139e-05
8.05824e-05
7.86823e-05
8.06376e-05
7.88e-05
7.97493e-05
7.89332e-05
7.93248e-05
7.89595e-05
7.90284e-05
7.10201e-05
7.76139e-05
7.55743e-05
7.76391e-05
7.56598e-05
7.66796e-05
7.57878e-05
7.62293e-05
7.58305e-05
)
;

boundaryField
{
    fuel
    {
        type            fixedValue;
        value           uniform 0;
    }
    wall
    {
        type            zeroGradient;
    }
    outlet
    {
        type            zeroGradient;
    }
    frontAndBack
    {
        type            empty;
    }
    procBoundary2to0
    {
        type            processor;
        value           nonuniform List<scalar> 
12
(
7.90878e-05
7.46335e-05
6.7692e-05
7.45616e-05
7.21862e-05
7.43728e-05
7.22352e-05
7.33355e-05
7.2362e-05
7.28564e-05
7.59693e-05
7.24209e-05
)
;
    }
    procBoundary2to3
    {
        type            processor;
        value           nonuniform List<scalar> 
25
(
0.000698575
0.000518962
0.000365511
0.00026486
0.000203676
0.000167256
0.000145547
0.000130973
0.000122816
0.000117373
0.000117373
0.000113106
0.000109922
0.000107312
0.00010501
0.000102863
0.000100783
9.87136e-05
9.6615e-05
9.44544e-05
9.22003e-05
8.98182e-05
8.72655e-05
8.48238e-05
8.1958e-05
)
;
    }
}


// ************************************************************************* //
