/*--------------------------------*- C++ -*----------------------------------*\
| =========                 |                                                 |
| \\      /  F ield         | OpenFOAM: The Open Source CFD Toolbox           |
|  \\    /   O peration     | Version:  dev                                   |
|   \\  /    A nd           | Web:      www.OpenFOAM.org                      |
|    \\/     M anipulation  |                                                 |
\*---------------------------------------------------------------------------*/
FoamFile
{
    version     2.0;
    format      ascii;
    class       volScalarField;
    location    "0.195";
    object      O2;
}
// * * * * * * * * * * * * * * * * * * * * * * * * * * * * * * * * * * * * * //

dimensions      [0 0 0 0 0 0 0];

internalField   nonuniform List<scalar> 
250
(
0.177728
0.0339566
0.0326955
0.0325562
0.0325378
0.032536
0.0325344
0.0325353
0.0325362
0.153919
0.00883549
0.0081016
0.00803532
0.00802382
0.00802395
0.00802317
0.00802297
0.0080243
0.129705
0.0029973
0.00245563
0.00241881
0.00241201
0.00241224
0.00241182
0.00241162
0.00241245
0.106757
0.00135766
0.000879172
0.000856259
0.000852195
0.000852333
0.000852088
0.00085199
0.000852408
0.0861865
0.000805721
0.000355503
0.000339129
0.000336734
0.000336822
0.000336587
0.000336642
0.000336738
0.0685612
0.000582105
0.000152724
0.00014471
0.000143601
0.000143721
0.000143169
0.000143653
0.000143231
0.0539586
0.000468405
7.07901e-05
6.55166e-05
6.41198e-05
6.40558e-05
6.45741e-05
6.39555e-05
6.45925e-05
0.042103
0.000395006
3.48297e-05
2.80262e-05
2.72754e-05
2.73056e-05
2.74812e-05
2.72082e-05
2.74763e-05
0.0325284
0.0003342
1.70908e-05
1.31268e-05
1.27217e-05
1.27754e-05
1.28274e-05
1.2703e-05
1.28193e-05
0.0247544
0.000283168
9.1036e-06
6.10685e-06
5.76521e-06
5.79642e-06
5.81611e-06
5.75199e-06
5.80098e-06
0.0184692
0.000236049
5.43694e-06
2.74111e-06
2.56685e-06
2.58571e-06
2.59343e-06
2.56517e-06
2.58255e-06
2.51199e-06
0.0134765
0.000192879
3.36289e-06
1.2494e-06
1.16002e-06
1.16921e-06
1.17343e-06
1.1606e-06
1.16622e-06
1.133e-06
0.00968457
0.000154634
2.25806e-06
5.87558e-07
5.40349e-07
5.44316e-07
5.46024e-07
5.40892e-07
5.4254e-07
5.27689e-07
0.00692525
0.000122386
1.61225e-06
2.93572e-07
2.67289e-07
2.68907e-07
2.6622e-07
2.67557e-07
2.67997e-07
2.61704e-07
0.0049478
9.35444e-05
1.18679e-06
1.62239e-07
1.46665e-07
1.47414e-07
1.51899e-07
1.46797e-07
1.46914e-07
1.44378e-07
0.00352752
7.23193e-05
9.17236e-07
1.02686e-07
9.28787e-08
9.33049e-08
9.64776e-08
9.29314e-08
9.3023e-08
9.20445e-08
0.00250275
5.33504e-05
6.93586e-07
7.46463e-08
6.82868e-08
6.85933e-08
7.00083e-08
6.82493e-08
6.84269e-08
6.80587e-08
0.00176329
3.86396e-05
5.21281e-07
6.05049e-08
5.63849e-08
5.66488e-08
5.72844e-08
5.61683e-08
5.65374e-08
5.63938e-08
0.0012321
2.74863e-05
3.9137e-07
5.24931e-08
4.99495e-08
5.01973e-08
5.04873e-08
5.0193e-08
5.011e-08
5.00396e-08
0.000853284
1.99477e-05
2.95105e-07
4.77922e-08
4.58141e-08
4.60534e-08
4.61831e-08
4.59135e-08
4.59719e-08
4.59198e-08
0.000585721
1.42826e-05
2.22332e-07
4.39215e-08
4.25754e-08
4.28119e-08
4.28641e-08
4.25496e-08
4.27271e-08
4.26729e-08
0.000399663
9.7243e-06
1.66577e-07
4.04924e-08
3.95986e-08
3.98404e-08
3.98546e-08
3.98085e-08
3.97488e-08
3.96835e-08
0.000260739
6.46622e-06
1.24863e-07
3.76102e-08
3.6942e-08
3.72042e-08
3.71974e-08
3.71232e-08
3.71031e-08
3.70292e-08
0.000171802
4.41743e-06
9.44868e-08
3.46228e-08
3.42097e-08
3.42388e-08
3.42156e-08
3.41054e-08
3.4119e-08
3.40276e-08
0.000110906
2.9724e-06
7.1707e-08
3.17471e-08
3.13739e-08
3.13937e-08
3.13591e-08
3.12271e-08
3.12634e-08
3.11623e-08
6.96802e-05
1.95247e-06
5.57825e-08
2.88147e-08
2.84372e-08
2.84462e-08
2.84031e-08
2.82535e-08
2.83077e-08
2.8198e-08
)
;

boundaryField
{
    fuel
    {
        type            fixedValue;
        value           uniform 0.1914;
    }
    wall
    {
        type            zeroGradient;
    }
    outlet
    {
        type            inletOutlet;
        inletValue      uniform 0;
        value           nonuniform List<scalar> 
26
(
0.177728
0.153919
0.129705
0.106757
0.0861865
0.0685612
0.0539586
0.042103
0.0325284
0.0247544
0.0184692
0.0134765
0.00968457
0.00692525
0.0049478
0.00352752
0.00250275
0.00176329
0.0012321
0.000853284
0.000585721
0.000399663
0.000260739
0.000171802
0.000110906
6.96802e-05
)
;
    }
    frontAndBack
    {
        type            empty;
    }
    procBoundary2to0
    {
        type            processor;
        value           nonuniform List<scalar> 
12
(
3.10409e-08
4.26439e-05
1.27307e-06
4.36699e-08
2.58401e-08
2.54267e-08
2.54246e-08
2.53752e-08
2.52141e-08
2.52815e-08
2.80754e-08
2.51661e-08
)
;
    }
    procBoundary2to3
    {
        type            processor;
        value           nonuniform List<scalar> 
25
(
0.0325353
0.00802279
0.00241154
0.000851946
0.00033652
0.000143133
6.45518e-05
2.74611e-05
1.28039e-05
5.75707e-06
5.75707e-06
2.55912e-06
1.15672e-06
5.38601e-07
2.66289e-07
1.46119e-07
9.26144e-08
6.8184e-08
5.63632e-08
4.99578e-08
4.58215e-08
4.25687e-08
3.95775e-08
3.69161e-08
3.39104e-08
)
;
    }
}


// ************************************************************************* //
