/*--------------------------------*- C++ -*----------------------------------*\
| =========                 |                                                 |
| \\      /  F ield         | OpenFOAM: The Open Source CFD Toolbox           |
|  \\    /   O peration     | Version:  dev                                   |
|   \\  /    A nd           | Web:      www.OpenFOAM.org                      |
|    \\/     M anipulation  |                                                 |
\*---------------------------------------------------------------------------*/
FoamFile
{
    version     2.0;
    format      ascii;
    class       surfaceScalarField;
    location    "0.195";
    object      phi;
}
// * * * * * * * * * * * * * * * * * * * * * * * * * * * * * * * * * * * * * //

dimensions      [1 0 -1 0 0 0 0];

internalField   nonuniform List<scalar> 
464
(
3.83321e-07
1.88038e-06
-6.78848e-08
8.46842e-06
-2.89183e-08
8.13133e-06
-5.12843e-08
8.19575e-06
-3.79043e-08
8.16415e-06
-3.59886e-08
8.17804e-06
-1.81023e-08
8.15737e-06
-1.79605e-08
8.17773e-06
8.16035e-06
5.45639e-07
7.51599e-08
-1.22931e-07
8.97601e-06
-4.48031e-08
8.04716e-06
-9.23674e-08
8.24043e-06
-6.33888e-08
8.13284e-06
-5.89546e-08
8.17235e-06
-3.57464e-08
8.13182e-06
-2.7438e-08
8.16746e-06
8.13975e-06
5.51666e-07
5.65013e-07
-1.74497e-07
9.51838e-06
-6.34922e-08
7.93377e-06
-1.30862e-07
8.30943e-06
-9.12841e-08
8.09479e-06
-8.08537e-08
8.16371e-06
-5.4867e-08
8.10715e-06
-3.64013e-08
8.15045e-06
8.11955e-06
5.10286e-07
1.9551e-06
-2.11993e-07
1.00432e-05
-8.13309e-08
7.80329e-06
-1.62621e-07
8.39562e-06
-1.19151e-07
8.05564e-06
-9.95596e-08
8.14856e-06
-7.30117e-08
8.08471e-06
-4.31718e-08
8.12485e-06
8.0995e-06
4.47933e-07
3.62186e-06
-2.36924e-07
1.05264e-05
-1.05019e-07
7.6723e-06
-1.87129e-07
8.48379e-06
-1.46004e-07
8.0196e-06
-1.15414e-07
8.12295e-06
-8.93457e-08
8.06334e-06
-4.98235e-08
8.09019e-06
8.07685e-06
3.72283e-07
5.26596e-06
-2.538e-07
1.09668e-05
-1.33079e-07
7.55166e-06
-2.059e-07
8.56082e-06
-1.71951e-07
7.98929e-06
-1.30007e-07
8.08476e-06
-1.04841e-07
8.04158e-06
-5.57201e-08
8.04464e-06
8.04992e-06
2.85088e-07
6.74294e-06
-2.6831e-07
1.1343e-05
-1.66789e-07
7.44897e-06
-2.23789e-07
8.62039e-06
-1.9822e-07
7.96554e-06
-1.44901e-07
8.032e-06
-1.20021e-07
8.01747e-06
-6.19911e-08
7.98802e-06
8.01644e-06
1.87201e-07
7.95741e-06
-2.85795e-07
1.16562e-05
-2.06919e-07
7.36821e-06
-2.43073e-07
8.65586e-06
-2.25386e-07
7.94746e-06
-1.60994e-07
7.96674e-06
-1.35399e-07
7.99087e-06
-6.91894e-08
7.92047e-06
7.97745e-06
8.27697e-08
8.80197e-06
-3.09691e-07
1.19226e-05
-2.52411e-07
7.30911e-06
-2.66395e-07
8.66853e-06
-2.53822e-07
7.93322e-06
-1.79143e-07
7.8903e-06
-1.51306e-07
7.96106e-06
-7.75243e-08
7.84413e-06
7.93262e-06
-3.13394e-08
9.13437e-06
-3.41958e-07
1.214e-05
-3.0313e-07
7.26934e-06
-2.92397e-07
8.65587e-06
-2.83136e-07
7.92142e-06
-1.99229e-07
7.80333e-06
-1.67798e-07
7.92665e-06
-8.70311e-08
7.75983e-06
7.88111e-06
-2.06754e-07
8.84206e-06
-3.83805e-07
1.22499e-05
-3.59596e-07
7.24526e-06
-3.22126e-07
8.61621e-06
-3.13264e-07
7.90991e-06
-2.21062e-07
7.70804e-06
-1.84841e-07
7.8874e-06
-9.7602e-08
7.66921e-06
-4.33585e-08
7.8236e-06
7.71085e-06
-3.46526e-07
7.97924e-06
-4.3213e-07
1.22925e-05
-4.17903e-07
7.2323e-06
-3.56434e-07
8.55298e-06
-3.44017e-07
7.89516e-06
-2.44348e-07
7.60563e-06
-2.0236e-07
7.84271e-06
-1.09071e-07
7.573e-06
-4.86322e-08
7.76023e-06
7.6247e-06
-4.66385e-07
7.32017e-06
-4.86558e-07
1.22921e-05
-4.76987e-07
7.22505e-06
-3.93701e-07
8.4685e-06
-3.75168e-07
7.87472e-06
-2.6874e-07
7.49695e-06
-2.20237e-07
7.79196e-06
-1.2124e-07
7.47159e-06
-5.44013e-08
7.69093e-06
7.5331e-06
-5.83446e-07
6.82417e-06
-5.46249e-07
1.22561e-05
-5.35807e-07
7.21777e-06
-4.33009e-07
8.3651e-06
-4.06507e-07
7.84672e-06
-2.93897e-07
7.38258e-06
-2.38343e-07
7.73461e-06
-1.33911e-07
7.36522e-06
-6.05565e-08
7.61559e-06
7.4362e-06
-6.98111e-07
6.46887e-06
-6.08882e-07
1.2187e-05
-5.93514e-07
7.20614e-06
-4.73612e-07
8.24515e-06
-4.37851e-07
7.80977e-06
-3.19524e-07
7.26292e-06
-2.5656e-07
7.6702e-06
-1.46904e-07
7.25401e-06
-6.69868e-08
7.53408e-06
7.33405e-06
-8.09257e-07
6.23419e-06
-6.7287e-07
1.20856e-05
-6.49561e-07
7.18688e-06
-5.14872e-07
8.11089e-06
-4.69047e-07
7.76298e-06
-3.4536e-07
7.13823e-06
-2.7477e-07
7.59842e-06
-1.60066e-07
7.13806e-06
-7.35852e-08
7.44631e-06
7.2267e-06
-9.15486e-07
6.09832e-06
-7.36791e-07
1.19448e-05
-7.03643e-07
7.15782e-06
-5.56274e-07
7.96438e-06
-4.99967e-07
7.70583e-06
-3.71206e-07
7.00871e-06
-2.92883e-07
7.51911e-06
-1.73269e-07
7.01739e-06
-8.02581e-08
7.35223e-06
7.11417e-06
-1.01545e-06
6.03869e-06
-7.99429e-07
1.17727e-05
-7.55638e-07
7.11795e-06
-5.97424e-07
7.80737e-06
-5.30514e-07
7.63813e-06
-3.96902e-07
6.87451e-06
-3.10821e-07
7.43219e-06
-1.86412e-07
6.89207e-06
-8.69272e-08
7.25182e-06
6.99649e-06
-1.10819e-06
6.03415e-06
-8.6004e-07
1.15716e-05
-8.05549e-07
7.067e-06
-6.38038e-07
7.64134e-06
-5.60614e-07
7.5599e-06
-4.22332e-07
6.73575e-06
-3.28521e-07
7.33763e-06
-1.99414e-07
6.7621e-06
-9.35294e-08
7.1451e-06
6.87369e-06
-1.19321e-06
6.06648e-06
-9.18131e-07
1.13435e-05
-8.53428e-07
7.00525e-06
-6.77928e-07
7.46754e-06
-5.90216e-07
7.47133e-06
-4.47414e-07
6.59252e-06
-3.45946e-07
7.23546e-06
-2.12226e-07
6.62753e-06
-1.00016e-07
7.03211e-06
6.74581e-06
-1.27063e-06
6.12115e-06
-9.73581e-07
1.1093e-05
-8.99461e-07
6.93317e-06
-7.16985e-07
7.28693e-06
-6.19292e-07
7.37271e-06
-4.72095e-07
6.44492e-06
-3.63069e-07
7.12577e-06
-2.24806e-07
6.48842e-06
-1.06352e-07
6.91291e-06
6.6129e-06
-1.34099e-06
6.18698e-06
-1.02646e-06
1.08228e-05
-9.43745e-07
6.85165e-06
-7.55112e-07
7.10039e-06
-6.47831e-07
7.26444e-06
-4.96348e-07
6.29303e-06
-3.79859e-07
7.00865e-06
-2.37118e-07
6.34478e-06
-1.12513e-07
6.78759e-06
6.47502e-06
-1.40527e-06
6.25558e-06
-1.07705e-06
1.05399e-05
-9.86458e-07
6.7614e-06
-7.92253e-07
6.90855e-06
-6.75725e-07
7.14676e-06
-5.20076e-07
6.13697e-06
-3.96269e-07
6.88419e-06
-2.49136e-07
6.19668e-06
-1.18466e-07
6.65619e-06
6.3322e-06
-1.46439e-06
6.32028e-06
-1.12562e-06
1.02328e-05
-1.02783e-06
6.66319e-06
-8.28567e-07
6.71207e-06
-7.03137e-07
7.02004e-06
-5.43416e-07
5.97684e-06
-4.12397e-07
6.75259e-06
-2.60912e-07
6.04419e-06
-1.24236e-07
6.51885e-06
6.18453e-06
-1.51942e-06
6.37586e-06
-1.1723e-06
9.92039e-06
-1.06779e-06
6.55741e-06
-8.63929e-07
6.5114e-06
-7.29956e-07
6.8846e-06
-5.66246e-07
5.81272e-06
-4.28152e-07
6.61393e-06
-2.72382e-07
5.88734e-06
-1.29791e-07
6.37561e-06
6.03205e-06
-1.57147e-06
-1.21775e-06
-1.10672e-06
-8.98492e-07
-7.56283e-07
-5.8866e-07
-4.43604e-07
-2.83598e-07
-1.35154e-07
)
;

boundaryField
{
    fuel
    {
        type            calculated;
        value           nonuniform List<scalar> 9(-8.18314e-06 -8.18325e-06 -8.18318e-06 -8.18325e-06 -8.18323e-06 -8.18325e-06 -8.18326e-06 -8.18326e-06 -8.18327e-06);
    }
    wall
    {
        type            calculated;
        value           nonuniform 0();
    }
    outlet
    {
        type            calculated;
        value           nonuniform List<scalar> 
26
(
-2.51026e-06
-4.54776e-06
-5.30933e-06
-5.47975e-06
-5.33316e-06
-4.99396e-06
-4.51172e-06
-3.89739e-06
-3.1394e-06
-2.20928e-06
-1.07276e-06
1.37037e-08
2.07882e-07
3.88475e-07
5.55356e-07
7.09328e-07
8.50943e-07
9.80346e-07
1.09761e-06
1.20315e-06
1.29788e-06
1.38311e-06
1.46041e-06
1.53139e-06
1.59756e-06
1.66022e-06
)
;
    }
    frontAndBack
    {
        type            empty;
        value           nonuniform 0();
    }
    procBoundary2to0
    {
        type            processor;
        value           nonuniform List<scalar> 
12
(
2.15565e-08
6.41784e-06
9.60099e-06
6.44309e-06
6.30686e-06
6.74072e-06
5.6447e-06
6.46832e-06
5.72618e-06
6.22656e-06
2.08943e-08
5.87481e-06
)
;
    }
    procBoundary2to3
    {
        type            processor;
        value           nonuniform List<scalar> 
25
(
-5.00498e-09
-9.89422e-09
-1.5137e-08
-1.91273e-08
-2.25342e-08
-2.54364e-08
-2.81801e-08
-3.1151e-08
-3.46072e-08
-3.86687e-08
-7.79122e-06
3.36954e-08
3.45249e-08
3.46856e-08
3.43019e-08
3.35036e-08
3.24094e-08
3.11242e-08
2.97365e-08
2.83189e-08
2.69293e-08
2.56117e-08
2.43986e-08
2.33087e-08
2.23617e-08
)
;
    }
}


// ************************************************************************* //
