/*--------------------------------*- C++ -*----------------------------------*\
| =========                 |                                                 |
| \\      /  F ield         | OpenFOAM: The Open Source CFD Toolbox           |
|  \\    /   O peration     | Version:  dev                                   |
|   \\  /    A nd           | Web:      www.OpenFOAM.org                      |
|    \\/     M anipulation  |                                                 |
\*---------------------------------------------------------------------------*/
FoamFile
{
    version     2.0;
    format      ascii;
    class       volScalarField;
    location    "0.095";
    object      c-C6H7;
}
// * * * * * * * * * * * * * * * * * * * * * * * * * * * * * * * * * * * * * //

dimensions      [0 0 0 0 0 0 0];

internalField   nonuniform List<scalar> 
25
(
1.17319e-13
1.23368e-13
1.29871e-13
1.36901e-13
1.44487e-13
1.5263e-13
1.61225e-13
1.7044e-13
1.80402e-13
1.90862e-13
2.02012e-13
2.13857e-13
2.26417e-13
2.39754e-13
2.53859e-13
2.68772e-13
2.84619e-13
3.01371e-13
3.19265e-13
3.38747e-13
3.59781e-13
3.83038e-13
4.09093e-13
4.38716e-13
4.72908e-13
)
;

boundaryField
{
    wall
    {
        type            zeroGradient;
    }
    fuel
    {
        type            fixedValue;
        value           nonuniform 0();
    }
    outlet
    {
        type            inletOutlet;
        inletValue      nonuniform 0();
        value           nonuniform 0();
    }
    procBoundary2to1
    {
        type            processor;
        value           uniform 1.1171e-13;
    }
    procBoundary2to3
    {
        type            processor;
        value           uniform 5.1297e-13;
    }
}


// ************************************************************************* //
