/*--------------------------------*- C++ -*----------------------------------*\
| =========                 |                                                 |
| \\      /  F ield         | OpenFOAM: The Open Source CFD Toolbox           |
|  \\    /   O peration     | Version:  dev                                   |
|   \\  /    A nd           | Web:      www.OpenFOAM.org                      |
|    \\/     M anipulation  |                                                 |
\*---------------------------------------------------------------------------*/
FoamFile
{
    version     2.0;
    format      ascii;
    class       volScalarField;
    location    "0.095";
    object      C2H5;
}
// * * * * * * * * * * * * * * * * * * * * * * * * * * * * * * * * * * * * * //

dimensions      [0 0 0 0 0 0 0];

internalField   nonuniform List<scalar> 
25
(
5.98955e-15
6.63213e-15
7.42057e-15
8.4228e-15
9.66477e-15
1.11412e-14
1.29793e-14
1.52726e-14
1.81498e-14
2.17857e-14
2.64175e-14
3.23689e-14
4.00859e-14
5.01878e-14
6.35421e-14
8.13758e-14
1.05457e-13
1.3839e-13
1.84049e-13
2.47756e-13
3.36864e-13
4.59231e-13
6.29512e-13
8.66402e-13
1.19511e-12
)
;

boundaryField
{
    wall
    {
        type            zeroGradient;
    }
    fuel
    {
        type            fixedValue;
        value           nonuniform 0();
    }
    outlet
    {
        type            inletOutlet;
        inletValue      nonuniform 0();
        value           nonuniform 0();
    }
    procBoundary2to1
    {
        type            processor;
        value           uniform 5.46221e-15;
    }
    procBoundary2to3
    {
        type            processor;
        value           uniform 1.65302e-12;
    }
}


// ************************************************************************* //
