/*--------------------------------*- C++ -*----------------------------------*\
| =========                 |                                                 |
| \\      /  F ield         | OpenFOAM: The Open Source CFD Toolbox           |
|  \\    /   O peration     | Version:  dev                                   |
|   \\  /    A nd           | Web:      www.OpenFOAM.org                      |
|    \\/     M anipulation  |                                                 |
\*---------------------------------------------------------------------------*/
FoamFile
{
    version     2.0;
    format      ascii;
    class       volScalarField;
    location    "0.095";
    object      H2;
}
// * * * * * * * * * * * * * * * * * * * * * * * * * * * * * * * * * * * * * //

dimensions      [0 0 0 0 0 0 0];

internalField   nonuniform List<scalar> 
25
(
0.0040948
0.00398673
0.00387933
0.00377176
0.00366434
0.00355794
0.00345469
0.00335232
0.00324977
0.00315082
0.00305318
0.00295682
0.00286166
0.00276762
0.00267464
0.0025827
0.00249108
0.00240124
0.00231256
0.00222356
0.00213702
0.00205146
0.00196691
0.00188333
0.00180061
)
;

boundaryField
{
    wall
    {
        type            zeroGradient;
    }
    fuel
    {
        type            fixedValue;
        value           nonuniform 0();
    }
    outlet
    {
        type            inletOutlet;
        inletValue      nonuniform 0();
        value           nonuniform 0();
    }
    procBoundary2to1
    {
        type            processor;
        value           uniform 0.00420343;
    }
    procBoundary2to3
    {
        type            processor;
        value           uniform 0.00171864;
    }
}


// ************************************************************************* //
