/*--------------------------------*- C++ -*----------------------------------*\
| =========                 |                                                 |
| \\      /  F ield         | OpenFOAM: The Open Source CFD Toolbox           |
|  \\    /   O peration     | Version:  dev                                   |
|   \\  /    A nd           | Web:      www.OpenFOAM.org                      |
|    \\/     M anipulation  |                                                 |
\*---------------------------------------------------------------------------*/
FoamFile
{
    version     2.0;
    format      ascii;
    class       volScalarField;
    location    "0.095";
    object      PC3H4;
}
// * * * * * * * * * * * * * * * * * * * * * * * * * * * * * * * * * * * * * //

dimensions      [0 0 0 0 0 0 0];

internalField   nonuniform List<scalar> 
25
(
3.72788e-17
3.81516e-17
3.9589e-17
4.16435e-17
4.42591e-17
4.72838e-17
5.08459e-17
5.49422e-17
5.95746e-17
6.47456e-17
7.04546e-17
7.66962e-17
8.34599e-17
9.07283e-17
9.84766e-17
1.06673e-16
1.15286e-16
1.24304e-16
1.33761e-16
1.4369e-16
1.54004e-16
1.64513e-16
1.75459e-16
1.87029e-16
1.99509e-16
)
;

boundaryField
{
    wall
    {
        type            zeroGradient;
    }
    fuel
    {
        type            fixedValue;
        value           nonuniform 0();
    }
    outlet
    {
        type            inletOutlet;
        inletValue      nonuniform 0();
        value           nonuniform 0();
    }
    procBoundary2to1
    {
        type            processor;
        value           uniform 3.69466e-17;
    }
    procBoundary2to3
    {
        type            processor;
        value           uniform 2.13228e-16;
    }
}


// ************************************************************************* //
