/*--------------------------------*- C++ -*----------------------------------*\
| =========                 |                                                 |
| \\      /  F ield         | OpenFOAM: The Open Source CFD Toolbox           |
|  \\    /   O peration     | Version:  dev                                   |
|   \\  /    A nd           | Web:      www.OpenFOAM.org                      |
|    \\/     M anipulation  |                                                 |
\*---------------------------------------------------------------------------*/
FoamFile
{
    version     2.0;
    format      ascii;
    class       surfaceScalarField;
    location    "0.095";
    object      phi;
}
// * * * * * * * * * * * * * * * * * * * * * * * * * * * * * * * * * * * * * //

dimensions      [1 0 -1 0 0 0 0];

internalField   nonuniform List<scalar> 
24
(
9.43695e-05
9.59048e-05
9.75722e-05
9.92419e-05
0.000100832
0.000102479
0.000104198
0.000105977
0.000107812
0.000109703
0.000111657
0.000113679
0.000115774
0.000117947
0.0001202
0.000122526
0.000124906
0.000127325
0.000129859
0.000132767
0.000135682
0.000138687
0.000141789
0.000145077
)
;

boundaryField
{
    wall
    {
        type            calculated;
        value           nonuniform List<scalar> 
100
(
2.21181e-19
2.22201e-19
2.23238e-19
2.24352e-19
2.2549e-19
2.26573e-19
2.27676e-19
2.28795e-19
2.29928e-19
2.31084e-19
2.32247e-19
2.33417e-19
2.34597e-19
2.35783e-19
2.36972e-19
2.38161e-19
2.3935e-19
2.40541e-19
2.41744e-19
2.42961e-19
2.44179e-19
2.45313e-19
2.46457e-19
2.4754e-19
2.48594e-19
-2.21181e-19
-2.22201e-19
-2.23238e-19
-2.24352e-19
-2.2549e-19
-2.26573e-19
-2.27676e-19
-2.28795e-19
-2.29928e-19
-2.31084e-19
-2.32247e-19
-2.33417e-19
-2.34597e-19
-2.35783e-19
-2.36972e-19
-2.38161e-19
-2.3935e-19
-2.40541e-19
-2.41744e-19
-2.42961e-19
-2.44179e-19
-2.45313e-19
-2.46457e-19
-2.4754e-19
-2.48594e-19
2.21181e-19
2.22201e-19
2.23238e-19
2.24352e-19
2.2549e-19
2.26573e-19
2.27676e-19
2.28795e-19
2.29928e-19
2.31084e-19
2.32247e-19
2.33417e-19
2.34597e-19
2.35783e-19
2.36972e-19
2.38161e-19
2.3935e-19
2.40541e-19
2.41744e-19
2.42961e-19
2.44179e-19
2.45313e-19
2.46457e-19
2.4754e-19
2.48594e-19
-2.21181e-19
-2.22201e-19
-2.23238e-19
-2.24352e-19
-2.2549e-19
-2.26573e-19
-2.27676e-19
-2.28795e-19
-2.29928e-19
-2.31084e-19
-2.32247e-19
-2.33417e-19
-2.34597e-19
-2.35783e-19
-2.36972e-19
-2.38161e-19
-2.3935e-19
-2.40541e-19
-2.41744e-19
-2.42961e-19
-2.44179e-19
-2.45313e-19
-2.46457e-19
-2.4754e-19
-2.48594e-19
)
;
    }
    fuel
    {
        type            calculated;
        value           nonuniform 0();
    }
    outlet
    {
        type            calculated;
        value           nonuniform 0();
    }
    procBoundary2to1
    {
        type            processor;
        value           uniform -9.29154e-05;
    }
    procBoundary2to3
    {
        type            processor;
        value           uniform 0.000148787;
    }
}


// ************************************************************************* //
