/*--------------------------------*- C++ -*----------------------------------*\
| =========                 |                                                 |
| \\      /  F ield         | OpenFOAM: The Open Source CFD Toolbox           |
|  \\    /   O peration     | Version:  dev                                   |
|   \\  /    A nd           | Web:      www.OpenFOAM.org                      |
|    \\/     M anipulation  |                                                 |
\*---------------------------------------------------------------------------*/
FoamFile
{
    version     2.0;
    format      ascii;
    class       volScalarField;
    location    "0.13";
    object      A1C2H*;
}
// * * * * * * * * * * * * * * * * * * * * * * * * * * * * * * * * * * * * * //

dimensions      [0 0 0 0 0 0 0];

internalField   nonuniform List<scalar> 
50
(
8.86256e-09
9.71129e-09
7.68776e-09
5.37505e-09
3.52089e-09
2.21539e-09
1.36761e-09
8.34076e-10
5.05793e-10
3.04459e-10
1.82804e-10
1.09547e-10
6.58543e-11
3.94447e-11
2.35871e-11
1.41015e-11
8.42795e-12
5.03483e-12
3.00567e-12
1.80241e-12
1.08226e-12
6.50272e-13
3.92257e-13
2.37689e-13
1.45013e-13
8.93286e-14
5.55508e-14
3.51395e-14
2.28361e-14
1.52284e-14
1.04869e-14
7.5135e-15
5.57971e-15
4.28547e-15
3.3948e-15
2.75908e-15
2.28816e-15
1.92685e-15
1.64092e-15
1.40876e-15
1.21641e-15
1.05461e-15
9.16972e-16
7.98954e-16
6.97193e-16
6.09112e-16
5.3268e-16
4.66261e-16
4.08519e-16
3.58368e-16
)
;

boundaryField
{
    wall
    {
        type            zeroGradient;
    }
    fuel
    {
        type            fixedValue;
        value           uniform 0;
    }
    outlet
    {
        type            inletOutlet;
        inletValue      nonuniform 0();
        value           nonuniform 0();
    }
    procBoundary0to1
    {
        type            processor;
        value           uniform 3.14175e-16;
    }
}


// ************************************************************************* //
