/*--------------------------------*- C++ -*----------------------------------*\
| =========                 |                                                 |
| \\      /  F ield         | OpenFOAM: The Open Source CFD Toolbox           |
|  \\    /   O peration     | Version:  dev                                   |
|   \\  /    A nd           | Web:      www.OpenFOAM.org                      |
|    \\/     M anipulation  |                                                 |
\*---------------------------------------------------------------------------*/
FoamFile
{
    version     2.0;
    format      ascii;
    class       volScalarField;
    location    "0.13";
    object      A1C2H3*;
}
// * * * * * * * * * * * * * * * * * * * * * * * * * * * * * * * * * * * * * //

dimensions      [0 0 0 0 0 0 0];

internalField   nonuniform List<scalar> 
250
(
6.59303e-12
6.59514e-12
6.60242e-12
6.60001e-12
6.60708e-12
6.69024e-12
7.173e-12
9.33215e-12
2.26909e-11
6.53802e-11
6.41773e-12
6.41776e-12
6.42567e-12
6.42259e-12
6.4293e-12
6.50692e-12
6.94473e-12
8.86682e-12
2.00875e-11
5.10497e-11
2.23713e-11
1.3593e-11
8.20602e-12
6.85894e-12
6.45296e-12
6.33582e-12
6.33668e-12
6.32045e-12
6.31668e-12
6.309e-12
6.31256e-12
6.31069e-12
6.31912e-12
6.31523e-12
6.32158e-12
6.39466e-12
6.79066e-12
8.49879e-12
1.7892e-11
4.10074e-11
2.16254e-11
1.28611e-11
8.03022e-12
6.76927e-12
6.39814e-12
6.29401e-12
6.29086e-12
6.28273e-12
6.27443e-12
6.27299e-12
6.27476e-12
6.27117e-12
6.28009e-12
6.27526e-12
6.28126e-12
6.35037e-12
6.70736e-12
8.22325e-12
1.59594e-11
3.37529e-11
2.10439e-11
1.23076e-11
7.92975e-12
6.74523e-12
6.40868e-12
6.31625e-12
6.30912e-12
6.30915e-12
6.29605e-12
6.30082e-12
6.30077e-12
6.29568e-12
6.30509e-12
6.29925e-12
6.30492e-12
6.3704e-12
6.69117e-12
8.03516e-12
1.43633e-11
2.83536e-11
2.05729e-11
1.19019e-11
7.89702e-12
6.78335e-12
6.4792e-12
6.39768e-12
6.38674e-12
6.39449e-12
6.37668e-12
6.38732e-12
6.3855e-12
6.37914e-12
6.38905e-12
6.38224e-12
6.38763e-12
6.44972e-12
6.73717e-12
7.92803e-12
1.32153e-11
2.4242e-11
2.01624e-11
1.16131e-11
7.92282e-12
6.87725e-12
6.60282e-12
6.53124e-12
6.5169e-12
6.53139e-12
6.50936e-12
6.52515e-12
6.52174e-12
6.51439e-12
6.52474e-12
6.51714e-12
6.52233e-12
6.5812e-12
6.83842e-12
7.89239e-12
1.2272e-11
2.10599e-11
1.97639e-11
1.14112e-11
7.99765e-12
7.018e-12
6.77041e-12
6.7076e-12
6.69047e-12
6.71026e-12
6.68487e-12
6.70478e-12
6.70006e-12
6.69202e-12
6.70268e-12
6.6946e-12
6.69971e-12
6.75549e-12
6.98569e-12
7.91702e-12
1.15646e-11
1.85794e-11
1.93355e-11
1.1269e-11
8.10599e-12
7.19534e-12
6.97296e-12
6.92292e-12
6.90369e-12
6.92756e-12
6.89915e-12
6.92241e-12
6.91655e-12
6.90791e-12
6.91901e-12
6.91026e-12
6.9151e-12
6.96908e-12
7.16837e-12
7.98976e-12
1.10252e-11
1.66429e-11
1.88492e-11
1.11648e-11
8.24496e-12
7.40068e-12
7.19983e-12
7.15619e-12
7.13529e-12
7.16178e-12
7.13177e-12
7.15717e-12
7.15054e-12
7.14176e-12
7.15274e-12
7.14425e-12
7.14915e-12
7.19995e-12
7.37805e-12
8.10081e-12
1.06252e-11
1.51378e-11
1.83006e-11
1.10878e-11
8.40385e-12
7.63297e-12
7.45254e-12
7.41575e-12
7.39293e-12
7.42245e-12
7.39038e-12
7.41832e-12
7.4107e-12
7.40169e-12
7.41259e-12
7.40431e-12
7.4091e-12
7.45637e-12
7.61413e-12
8.24866e-12
1.03463e-11
1.39839e-11
1.77198e-11
1.10465e-11
8.60753e-12
7.90834e-12
7.74921e-12
7.72171e-12
7.69523e-12
7.7311e-12
7.69424e-12
7.72741e-12
7.7178e-12
7.70793e-12
7.71918e-12
7.71048e-12
7.71466e-12
7.75778e-12
7.89334e-12
8.44944e-12
1.01886e-11
1.31329e-11
1.71874e-11
1.1083e-11
8.90846e-12
8.27658e-12
8.14301e-12
8.13095e-12
8.09617e-12
8.14701e-12
8.09839e-12
8.1437e-12
8.12959e-12
8.11737e-12
8.13012e-12
8.11934e-12
8.1219e-12
8.15977e-12
8.26627e-12
8.75299e-12
1.01853e-11
1.25766e-11
8.77289e-12
8.75533e-12
8.77194e-12
8.7559e-12
8.75489e-12
8.78562e-12
8.84799e-12
9.27392e-12
1.04302e-11
1.237e-11
)
;

boundaryField
{
    fuel
    {
        type            fixedValue;
        value           nonuniform 0();
    }
    wall
    {
        type            zeroGradient;
    }
    outlet
    {
        type            zeroGradient;
    }
    frontAndBack
    {
        type            empty;
    }
    procBoundary0to1
    {
        type            processor;
        value           nonuniform List<scalar> 
21
(
1.68001e-11
1.12908e-11
9.42524e-12
8.85062e-12
8.7546e-12
8.76819e-12
8.71713e-12
8.79906e-12
8.72531e-12
8.79633e-12
8.79633e-12
9.88342e-12
9.85593e-12
9.88019e-12
9.85446e-12
9.84731e-12
9.86768e-12
9.86366e-12
1.02335e-11
1.1124e-11
1.26736e-11
)
;
    }
    procBoundary0to2
    {
        type            processor;
        value           nonuniform List<scalar> 
12
(
6.58721e-12
2.33065e-11
1.46924e-11
8.46262e-12
7.01754e-12
6.57587e-12
6.44536e-12
6.44994e-12
6.42629e-12
6.42639e-12
6.41278e-12
6.41278e-12
)
;
    }
    procBoundary0to3
    {
        type            processor;
        value           nonuniform List<scalar> 10(6.84159e-12 6.84597e-12 6.85252e-12 6.85047e-12 6.85793e-12 6.94956e-12 7.50888e-12 9.96556e-12 2.58315e-11 8.70469e-11);
    }
}


// ************************************************************************* //
