/*--------------------------------*- C++ -*----------------------------------*\
| =========                 |                                                 |
| \\      /  F ield         | OpenFOAM: The Open Source CFD Toolbox           |
|  \\    /   O peration     | Version:  dev                                   |
|   \\  /    A nd           | Web:      www.OpenFOAM.org                      |
|    \\/     M anipulation  |                                                 |
\*---------------------------------------------------------------------------*/
FoamFile
{
    version     2.0;
    format      ascii;
    class       volScalarField;
    location    "0.13";
    object      A1C2H*;
}
// * * * * * * * * * * * * * * * * * * * * * * * * * * * * * * * * * * * * * //

dimensions      [0 0 0 0 0 0 0];

internalField   nonuniform List<scalar> 
250
(
3.23135e-09
3.26251e-09
3.23244e-09
3.2874e-09
3.24143e-09
3.3829e-09
3.56534e-09
4.39762e-09
7.52971e-09
1.47847e-08
3.02447e-09
3.05234e-09
3.02521e-09
3.0743e-09
3.03368e-09
3.1607e-09
3.32059e-09
4.08257e-09
7.02157e-09
1.48464e-08
8.61399e-09
6.3789e-09
3.71871e-09
3.07092e-09
2.897e-09
2.85896e-09
2.85678e-09
2.85541e-09
2.85258e-09
2.8555e-09
2.84192e-09
2.86711e-09
2.84237e-09
2.88647e-09
2.85051e-09
2.96446e-09
3.10763e-09
3.79578e-09
6.52474e-09
1.457e-08
7.63987e-09
5.58386e-09
3.43803e-09
2.88415e-09
2.72869e-09
2.69428e-09
2.69181e-09
2.69028e-09
2.68813e-09
2.6905e-09
2.67768e-09
2.70089e-09
2.67782e-09
2.71811e-09
2.68587e-09
2.78846e-09
2.91566e-09
3.53167e-09
6.0366e-09
1.3971e-08
6.7333e-09
4.87553e-09
3.18063e-09
2.71156e-09
2.57285e-09
2.54181e-09
2.53912e-09
2.5372e-09
2.53562e-09
2.53735e-09
2.52518e-09
2.54727e-09
2.52499e-09
2.56286e-09
2.53319e-09
2.62642e-09
2.73832e-09
3.28408e-09
5.5578e-09
1.30857e-08
5.89162e-09
4.30572e-09
2.93952e-09
2.54603e-09
2.42249e-09
2.39445e-09
2.39158e-09
2.38898e-09
2.38795e-09
2.38898e-09
2.37728e-09
2.39923e-09
2.37672e-09
2.41377e-09
2.3853e-09
2.47133e-09
2.56872e-09
3.04631e-09
5.0325e-09
1.19656e-08
5.11199e-09
3.77098e-09
2.70683e-09
2.37995e-09
2.27035e-09
2.24467e-09
2.24166e-09
2.2381e-09
2.23766e-09
2.23793e-09
2.22649e-09
2.24941e-09
2.22552e-09
2.26344e-09
2.23465e-09
2.31539e-09
2.39969e-09
2.81149e-09
4.55186e-09
1.0671e-08
4.39532e-09
3.30348e-09
2.47514e-09
2.20538e-09
2.10973e-09
2.08523e-09
2.08215e-09
2.07742e-09
2.07761e-09
2.07709e-09
2.0657e-09
2.09079e-09
2.06429e-09
2.10478e-09
2.07409e-09
2.15053e-09
2.21674e-09
2.57277e-09
4.06766e-09
9.25244e-09
3.71985e-09
2.87111e-09
2.23836e-09
2.01724e-09
1.92891e-09
1.91036e-09
1.90729e-09
1.9013e-09
1.90216e-09
1.90089e-09
1.88941e-09
1.91376e-09
1.88751e-09
1.92806e-09
1.89797e-09
1.97194e-09
2.02611e-09
2.32488e-09
3.55016e-09
7.84702e-09
3.12415e-09
2.46601e-09
1.9853e-09
1.81213e-09
1.73424e-09
1.71725e-09
1.71427e-09
1.70712e-09
1.70863e-09
1.70667e-09
1.69511e-09
1.72191e-09
1.69274e-09
1.73654e-09
1.70374e-09
1.77651e-09
1.81853e-09
2.06519e-09
3.05757e-09
6.40985e-09
2.57346e-09
2.08406e-09
1.72875e-09
1.59063e-09
1.52258e-09
1.50721e-09
1.50444e-09
1.49638e-09
1.49846e-09
1.49598e-09
1.48445e-09
1.51313e-09
1.48169e-09
1.52784e-09
1.4929e-09
1.5641e-09
1.59488e-09
1.79487e-09
2.5811e-09
5.13012e-09
2.08951e-09
1.72498e-09
1.46674e-09
1.35806e-09
1.29973e-09
1.28605e-09
1.28358e-09
1.27505e-09
1.27756e-09
1.27476e-09
1.2635e-09
1.29299e-09
1.26047e-09
1.30731e-09
1.27145e-09
1.33961e-09
1.36058e-09
1.51949e-09
2.12623e-09
3.98294e-09
1.65851e-09
1.39227e-09
1.20781e-09
1.12385e-09
1.07486e-09
1.06316e-09
1.06105e-09
1.05261e-09
1.05532e-09
1.05245e-09
1.04179e-09
1.07067e-09
1.03868e-09
1.08402e-09
1.04891e-09
1.11196e-09
1.12489e-09
1.24834e-09
1.70248e-09
2.9984e-09
8.30234e-10
8.57026e-10
8.27216e-10
8.68888e-10
8.36269e-10
8.92151e-10
8.98974e-10
9.92512e-10
1.32136e-09
2.18635e-09
)
;

boundaryField
{
    fuel
    {
        type            fixedValue;
        value           nonuniform 0();
    }
    wall
    {
        type            zeroGradient;
    }
    outlet
    {
        type            zeroGradient;
    }
    frontAndBack
    {
        type            empty;
    }
    procBoundary0to1
    {
        type            processor;
        value           nonuniform List<scalar> 
21
(
1.28321e-09
1.09178e-09
9.62447e-10
8.99075e-10
8.59068e-10
8.49507e-10
8.47789e-10
8.39945e-10
8.42629e-10
8.3992e-10
8.3992e-10
6.38546e-10
6.6209e-10
6.35783e-10
6.72097e-10
6.43384e-10
6.90646e-10
6.93273e-10
7.62192e-10
9.92292e-10
1.54283e-09
)
;
    }
    procBoundary0to2
    {
        type            processor;
        value           nonuniform List<scalar> 
12
(
3.24644e-09
9.6574e-09
7.25642e-09
4.02905e-09
3.27829e-09
3.08426e-09
3.04238e-09
3.04056e-09
3.03918e-09
3.03544e-09
3.03883e-09
3.03883e-09
)
;
    }
    procBoundary0to3
    {
        type            processor;
        value           nonuniform List<scalar> 10(3.46827e-09 3.50333e-09 3.47002e-09 3.53134e-09 3.47947e-09 3.6365e-09 3.83864e-09 4.78021e-09 8.08309e-09 1.43968e-08);
    }
}


// ************************************************************************* //
