/*--------------------------------*- C++ -*----------------------------------*\
| =========                 |                                                 |
| \\      /  F ield         | OpenFOAM: The Open Source CFD Toolbox           |
|  \\    /   O peration     | Version:  dev                                   |
|   \\  /    A nd           | Web:      www.OpenFOAM.org                      |
|    \\/     M anipulation  |                                                 |
\*---------------------------------------------------------------------------*/
FoamFile
{
    version     2.0;
    format      ascii;
    class       volScalarField;
    location    "0.13";
    object      C2O;
}
// * * * * * * * * * * * * * * * * * * * * * * * * * * * * * * * * * * * * * //

dimensions      [0 0 0 0 0 0 0];

internalField   nonuniform List<scalar> 
50
(
2.20151e-05
3.19085e-05
3.33925e-05
3.15401e-05
2.82671e-05
2.44546e-05
2.06814e-05
1.71907e-05
1.41154e-05
1.1469e-05
9.25768e-06
7.43594e-06
5.96239e-06
4.76013e-06
3.78566e-06
3.0014e-06
2.37205e-06
1.86849e-06
1.46691e-06
1.15016e-06
8.98868e-07
6.99778e-07
5.43302e-07
4.20692e-07
3.24993e-07
2.50524e-07
1.92327e-07
1.47352e-07
1.1303e-07
8.64529e-08
6.60166e-08
5.05201e-08
3.86192e-08
2.94836e-08
2.25144e-08
1.72006e-08
1.31496e-08
1.00612e-08
7.70601e-09
5.90899e-09
4.53693e-09
3.48845e-09
2.68643e-09
2.07224e-09
1.60129e-09
1.23964e-09
9.61404e-10
7.46815e-10
5.80698e-10
4.51319e-10
)
;

boundaryField
{
    wall
    {
        type            zeroGradient;
    }
    fuel
    {
        type            fixedValue;
        value           uniform 0;
    }
    outlet
    {
        type            inletOutlet;
        inletValue      nonuniform 0();
        value           nonuniform 0();
    }
    procBoundary0to1
    {
        type            processor;
        value           uniform 3.51641e-10;
    }
}


// ************************************************************************* //
