/*--------------------------------*- C++ -*----------------------------------*\
| =========                 |                                                 |
| \\      /  F ield         | OpenFOAM: The Open Source CFD Toolbox           |
|  \\    /   O peration     | Version:  dev                                   |
|   \\  /    A nd           | Web:      www.OpenFOAM.org                      |
|    \\/     M anipulation  |                                                 |
\*---------------------------------------------------------------------------*/
FoamFile
{
    version     2.0;
    format      ascii;
    class       volScalarField;
    location    "0.13";
    object      C2O;
}
// * * * * * * * * * * * * * * * * * * * * * * * * * * * * * * * * * * * * * //

dimensions      [0 0 0 0 0 0 0];

internalField   nonuniform List<scalar> 
250
(
2.06455e-07
2.09115e-07
2.06418e-07
2.10752e-07
2.07095e-07
2.14053e-07
2.12667e-07
2.12035e-07
2.07092e-07
1.91664e-07
1.88237e-07
1.90933e-07
1.8817e-07
1.92577e-07
1.88909e-07
1.95868e-07
1.94289e-07
1.94562e-07
1.91769e-07
1.81211e-07
6.88808e-08
1.30141e-07
1.65403e-07
1.73561e-07
1.72346e-07
1.71639e-07
1.71554e-07
1.7101e-07
1.71067e-07
1.70875e-07
1.69839e-07
1.72568e-07
1.69739e-07
1.742e-07
1.70529e-07
1.77464e-07
1.76039e-07
1.76873e-07
1.7573e-07
1.68013e-07
6.84734e-08
1.20042e-07
1.49449e-07
1.55529e-07
1.53955e-07
1.53215e-07
1.53114e-07
1.5253e-07
1.52633e-07
1.52422e-07
1.5137e-07
1.54115e-07
1.51236e-07
1.55715e-07
1.52066e-07
1.58917e-07
1.57648e-07
1.59025e-07
1.59341e-07
1.53038e-07
6.70133e-08
1.09204e-07
1.33275e-07
1.37494e-07
1.35633e-07
1.34866e-07
1.34753e-07
1.3414e-07
1.3428e-07
1.34055e-07
1.33005e-07
1.35741e-07
1.32841e-07
1.37285e-07
1.33694e-07
1.40375e-07
1.39275e-07
1.41135e-07
1.42991e-07
1.3718e-07
6.45113e-08
9.88086e-08
1.17063e-07
1.19663e-07
1.17612e-07
1.16823e-07
1.16704e-07
1.16075e-07
1.16244e-07
1.16011e-07
1.14988e-07
1.17679e-07
1.14802e-07
1.19142e-07
1.15655e-07
1.22047e-07
1.21155e-07
1.23386e-07
1.25081e-07
1.21089e-07
6.09773e-08
8.74341e-08
1.01063e-07
1.02319e-07
1.00193e-07
9.93785e-08
9.926e-08
9.86328e-08
9.88201e-08
9.85856e-08
9.76207e-08
1.00224e-07
9.74222e-08
1.01582e-07
9.82483e-08
1.04177e-07
1.03595e-07
1.06034e-07
1.09032e-07
1.05241e-07
5.64986e-08
7.62315e-08
8.55942e-08
8.57536e-08
8.37249e-08
8.28691e-08
8.27561e-08
8.21511e-08
8.23447e-08
8.21175e-08
8.12392e-08
8.37142e-08
8.10386e-08
8.49439e-08
8.18112e-08
8.70469e-08
8.62343e-08
8.93795e-08
9.34494e-08
8.97717e-08
5.10313e-08
6.50409e-08
7.10187e-08
7.03708e-08
6.80695e-08
6.76398e-08
6.75378e-08
6.69757e-08
6.7164e-08
6.69521e-08
6.61806e-08
6.81558e-08
6.59861e-08
6.92365e-08
6.66828e-08
7.12383e-08
7.07007e-08
7.37838e-08
7.76522e-08
7.56471e-08
4.51111e-08
5.4213e-08
5.72805e-08
5.64806e-08
5.44183e-08
5.40045e-08
5.39157e-08
5.34127e-08
5.35871e-08
5.33971e-08
5.27415e-08
5.44862e-08
5.25633e-08
5.54054e-08
5.31691e-08
5.70706e-08
5.66874e-08
5.95806e-08
6.36295e-08
6.2062e-08
3.87062e-08
4.41199e-08
4.53966e-08
4.43318e-08
4.25631e-08
4.21875e-08
4.21133e-08
4.16806e-08
4.1835e-08
4.16713e-08
4.113e-08
4.26172e-08
4.09744e-08
4.33703e-08
4.14809e-08
4.47202e-08
4.44451e-08
4.70457e-08
5.11349e-08
5.04285e-08
3.24181e-08
3.50662e-08
3.51924e-08
3.40642e-08
3.26151e-08
3.22917e-08
3.2232e-08
3.18748e-08
3.20055e-08
3.18702e-08
3.14353e-08
3.26558e-08
3.13052e-08
3.32493e-08
3.17118e-08
3.43078e-08
3.41125e-08
3.63533e-08
4.02387e-08
4.02179e-08
2.64196e-08
2.7264e-08
2.67439e-08
2.56935e-08
2.45485e-08
2.4287e-08
2.42403e-08
2.39576e-08
2.40632e-08
2.39559e-08
2.36167e-08
2.45803e-08
2.35118e-08
2.50306e-08
2.38254e-08
2.58312e-08
2.56952e-08
2.75495e-08
3.10017e-08
3.15153e-08
1.75155e-08
1.82491e-08
1.74336e-08
1.85792e-08
1.76657e-08
1.91646e-08
1.90683e-08
2.05506e-08
2.34284e-08
2.42903e-08
)
;

boundaryField
{
    fuel
    {
        type            fixedValue;
        value           nonuniform 0();
    }
    wall
    {
        type            zeroGradient;
    }
    outlet
    {
        type            zeroGradient;
    }
    frontAndBack
    {
        type            empty;
    }
    procBoundary0to1
    {
        type            processor;
        value           nonuniform List<scalar> 
21
(
2.09979e-08
2.07947e-08
1.99953e-08
1.90971e-08
1.82241e-08
1.80235e-08
1.79874e-08
1.77725e-08
1.7854e-08
1.77721e-08
1.77721e-08
1.28884e-08
1.34294e-08
1.28262e-08
1.36638e-08
1.29924e-08
1.40781e-08
1.40117e-08
1.51551e-08
1.74329e-08
1.84458e-08
)
;
    }
    procBoundary0to2
    {
        type            processor;
        value           nonuniform List<scalar> 
12
(
2.07419e-07
6.83742e-08
1.39446e-07
1.81035e-07
1.91428e-07
1.90641e-07
1.89968e-07
1.89906e-07
1.8941e-07
1.89411e-07
1.89242e-07
1.89242e-07
)
;
    }
    procBoundary0to3
    {
        type            processor;
        value           nonuniform List<scalar> 10(2.24445e-07 2.27075e-07 2.24455e-07 2.2868e-07 2.25061e-07 2.31966e-07 2.30526e-07 2.30924e-07 2.22295e-07 1.97297e-07);
    }
}


// ************************************************************************* //
