/*--------------------------------*- C++ -*----------------------------------*\
| =========                 |                                                 |
| \\      /  F ield         | OpenFOAM: The Open Source CFD Toolbox           |
|  \\    /   O peration     | Version:  dev                                   |
|   \\  /    A nd           | Web:      www.OpenFOAM.org                      |
|    \\/     M anipulation  |                                                 |
\*---------------------------------------------------------------------------*/
FoamFile
{
    version     2.0;
    format      ascii;
    class       volScalarField;
    location    "0.13";
    object      C5H5;
}
// * * * * * * * * * * * * * * * * * * * * * * * * * * * * * * * * * * * * * //

dimensions      [0 0 0 0 0 0 0];

internalField   nonuniform List<scalar> 
250
(
1.63587e-06
1.64468e-06
1.63816e-06
1.65323e-06
1.6389e-06
1.68661e-06
1.78826e-06
2.25125e-06
4.19604e-06
8.35271e-06
1.57646e-06
1.58325e-06
1.57825e-06
1.59028e-06
1.57891e-06
1.62058e-06
1.71322e-06
2.15112e-06
4.0165e-06
8.4168e-06
5.45197e-06
4.07504e-06
2.10339e-06
1.64321e-06
1.5505e-06
1.5344e-06
1.5352e-06
1.53649e-06
1.53399e-06
1.53644e-06
1.5325e-06
1.53744e-06
1.53392e-06
1.54304e-06
1.53447e-06
1.57034e-06
1.65616e-06
2.06647e-06
3.84278e-06
8.37133e-06
5.12376e-06
3.71442e-06
2.01212e-06
1.602e-06
1.51765e-06
1.50292e-06
1.50337e-06
1.50487e-06
1.50277e-06
1.50513e-06
1.50168e-06
1.50499e-06
1.50282e-06
1.50929e-06
1.50327e-06
1.53373e-06
1.61325e-06
1.99522e-06
3.67253e-06
8.21168e-06
4.77909e-06
3.3901e-06
1.93602e-06
1.57249e-06
1.49582e-06
1.48243e-06
1.48259e-06
1.48423e-06
1.48241e-06
1.48464e-06
1.48168e-06
1.4836e-06
1.48259e-06
1.48678e-06
1.48297e-06
1.50859e-06
1.58218e-06
1.93533e-06
3.50537e-06
7.94162e-06
4.43307e-06
3.13088e-06
1.87292e-06
1.55225e-06
1.4826e-06
1.47049e-06
1.47041e-06
1.47211e-06
1.47049e-06
1.47257e-06
1.47005e-06
1.47088e-06
1.47077e-06
1.47315e-06
1.47113e-06
1.4926e-06
1.56057e-06
1.88464e-06
3.32133e-06
7.57172e-06
4.09596e-06
2.89194e-06
1.82022e-06
1.53865e-06
1.47551e-06
1.46453e-06
1.46423e-06
1.46588e-06
1.46442e-06
1.46631e-06
1.46416e-06
1.46426e-06
1.46473e-06
1.46585e-06
1.46513e-06
1.48328e-06
1.54585e-06
1.84099e-06
3.15387e-06
7.11667e-06
3.77562e-06
2.68977e-06
1.77516e-06
1.52873e-06
1.47197e-06
1.46175e-06
1.46127e-06
1.46275e-06
1.46144e-06
1.46312e-06
1.46122e-06
1.46101e-06
1.46166e-06
1.46216e-06
1.46217e-06
1.47789e-06
1.53486e-06
1.80188e-06
2.9866e-06
6.58854e-06
3.46633e-06
2.51061e-06
1.73475e-06
1.51986e-06
1.46879e-06
1.45924e-06
1.4586e-06
1.45979e-06
1.45865e-06
1.46008e-06
1.45832e-06
1.45822e-06
1.45863e-06
1.45916e-06
1.45932e-06
1.47349e-06
1.52524e-06
1.7647e-06
2.80866e-06
6.03857e-06
3.18814e-06
2.35004e-06
1.69468e-06
1.50907e-06
1.46292e-06
1.45402e-06
1.45324e-06
1.45404e-06
1.45308e-06
1.45424e-06
1.4525e-06
1.45289e-06
1.45267e-06
1.45387e-06
1.45362e-06
1.46709e-06
1.51364e-06
1.72678e-06
2.63963e-06
5.44274e-06
2.92512e-06
2.20337e-06
1.65368e-06
1.49321e-06
1.45148e-06
1.4431e-06
1.4422e-06
1.44251e-06
1.44177e-06
1.44263e-06
1.44077e-06
1.44206e-06
1.44079e-06
1.44326e-06
1.44208e-06
1.45568e-06
1.49704e-06
1.68533e-06
2.4743e-06
4.87472e-06
2.68563e-06
2.06564e-06
1.60739e-06
1.46915e-06
1.43141e-06
1.42339e-06
1.4224e-06
1.42214e-06
1.42164e-06
1.42218e-06
1.42009e-06
1.42266e-06
1.41991e-06
1.42428e-06
1.42161e-06
1.43614e-06
1.47232e-06
1.63742e-06
2.31041e-06
4.32262e-06
2.45881e-06
1.93152e-06
1.55214e-06
1.43363e-06
1.39915e-06
1.39151e-06
1.39045e-06
1.38952e-06
1.38932e-06
1.38952e-06
1.38703e-06
1.39133e-06
1.3866e-06
1.39351e-06
1.38881e-06
1.40506e-06
1.43604e-06
1.57976e-06
2.1456e-06
3.79789e-06
1.33753e-06
1.34403e-06
1.3368e-06
1.34694e-06
1.33959e-06
1.35837e-06
1.38412e-06
1.50839e-06
1.97713e-06
3.30398e-06
)
;

boundaryField
{
    fuel
    {
        type            fixedValue;
        value           nonuniform 0();
    }
    wall
    {
        type            zeroGradient;
    }
    outlet
    {
        type            zeroGradient;
    }
    frontAndBack
    {
        type            empty;
    }
    procBoundary0to1
    {
        type            processor;
        value           nonuniform List<scalar> 
21
(
2.23973e-06
1.79508e-06
1.48361e-06
1.38254e-06
1.35068e-06
1.34342e-06
1.34231e-06
1.34062e-06
1.34077e-06
1.34059e-06
1.34059e-06
1.26678e-06
1.27594e-06
1.26566e-06
1.27968e-06
1.26909e-06
1.29118e-06
1.31162e-06
1.41845e-06
1.80103e-06
2.83971e-06
)
;
    }
    procBoundary0to2
    {
        type            processor;
        value           nonuniform List<scalar> 
12
(
1.6407e-06
5.74547e-06
4.46654e-06
2.21184e-06
1.69835e-06
1.59664e-06
1.57913e-06
1.58036e-06
1.58142e-06
1.57835e-06
1.58085e-06
1.58085e-06
)
;
    }
    procBoundary0to3
    {
        type            processor;
        value           nonuniform List<scalar> 10(1.71313e-06 1.72412e-06 1.71617e-06 1.73421e-06 1.71682e-06 1.7707e-06 1.88092e-06 2.38071e-06 4.39607e-06 8.19378e-06);
    }
}


// ************************************************************************* //
