/*--------------------------------*- C++ -*----------------------------------*\
| =========                 |                                                 |
| \\      /  F ield         | OpenFOAM: The Open Source CFD Toolbox           |
|  \\    /   O peration     | Version:  dev                                   |
|   \\  /    A nd           | Web:      www.OpenFOAM.org                      |
|    \\/     M anipulation  |                                                 |
\*---------------------------------------------------------------------------*/
FoamFile
{
    version     2.0;
    format      ascii;
    class       volScalarField;
    location    "0.13";
    object      i-C4H3;
}
// * * * * * * * * * * * * * * * * * * * * * * * * * * * * * * * * * * * * * //

dimensions      [0 0 0 0 0 0 0];

internalField   nonuniform List<scalar> 
250
(
4.14332e-07
4.16774e-07
4.14379e-07
4.18623e-07
4.1498e-07
4.25284e-07
4.3583e-07
4.78498e-07
5.75914e-07
6.60809e-07
3.98806e-07
4.01072e-07
3.98837e-07
4.02771e-07
3.99416e-07
4.08998e-07
4.18452e-07
4.58611e-07
5.50127e-07
6.38851e-07
6.90304e-07
5.11699e-07
4.33041e-07
4.0042e-07
3.88825e-07
3.86119e-07
3.85979e-07
3.85861e-07
3.85655e-07
3.85863e-07
3.84762e-07
3.86866e-07
3.84774e-07
3.8842e-07
3.85336e-07
3.94221e-07
4.02942e-07
4.40195e-07
5.25133e-07
6.14804e-07
6.18509e-07
4.84803e-07
4.16253e-07
3.86684e-07
3.75905e-07
3.73391e-07
3.73229e-07
3.73111e-07
3.72947e-07
3.73126e-07
3.72065e-07
3.74023e-07
3.72054e-07
3.75438e-07
3.72608e-07
3.80829e-07
3.88815e-07
4.23135e-07
5.01233e-07
5.8909e-07
5.62653e-07
4.59718e-07
4.00821e-07
3.74212e-07
3.6422e-07
3.61895e-07
3.61716e-07
3.6159e-07
3.6146e-07
3.61606e-07
3.60587e-07
3.62419e-07
3.60553e-07
3.63707e-07
3.61104e-07
3.68707e-07
3.7597e-07
4.07357e-07
4.78788e-07
5.62382e-07
5.18539e-07
4.39063e-07
3.86688e-07
3.6289e-07
3.53665e-07
3.51515e-07
3.51322e-07
3.51179e-07
3.51077e-07
3.51188e-07
3.50217e-07
3.51949e-07
3.50163e-07
3.5312e-07
3.50714e-07
3.57744e-07
3.64333e-07
3.92794e-07
4.55189e-07
5.35312e-07
4.82954e-07
4.19141e-07
3.73801e-07
3.52625e-07
3.44177e-07
3.42158e-07
3.41953e-07
3.41786e-07
3.41708e-07
3.41786e-07
3.40871e-07
3.42533e-07
3.40802e-07
3.43601e-07
3.4135e-07
3.47801e-07
3.53837e-07
3.79408e-07
4.35327e-07
5.08451e-07
4.53747e-07
4.0184e-07
3.62159e-07
3.43332e-07
3.35743e-07
3.33777e-07
3.33562e-07
3.33369e-07
3.33312e-07
3.33356e-07
3.32513e-07
3.3413e-07
3.32436e-07
3.35108e-07
3.32975e-07
3.38684e-07
3.43802e-07
3.67173e-07
4.17031e-07
4.81665e-07
4.2858e-07
3.86296e-07
3.51821e-07
3.35106e-07
3.27915e-07
3.26409e-07
3.26188e-07
3.25972e-07
3.25929e-07
3.25946e-07
3.25189e-07
3.26457e-07
3.25109e-07
3.27356e-07
3.25632e-07
3.30719e-07
3.35358e-07
3.56166e-07
3.98729e-07
4.57348e-07
4.08165e-07
3.72641e-07
3.42452e-07
3.28114e-07
3.21613e-07
3.20231e-07
3.20008e-07
3.19776e-07
3.19742e-07
3.19736e-07
3.19082e-07
3.2022e-07
3.19009e-07
3.21042e-07
3.19508e-07
3.24052e-07
3.28192e-07
3.4656e-07
3.83198e-07
4.33753e-07
3.90944e-07
3.61228e-07
3.35214e-07
3.22693e-07
3.16905e-07
3.15622e-07
3.15401e-07
3.15167e-07
3.15135e-07
3.15117e-07
3.14572e-07
3.15556e-07
3.14518e-07
3.16296e-07
3.14981e-07
3.18969e-07
3.2264e-07
3.38711e-07
3.70241e-07
4.13883e-07
3.77848e-07
3.5265e-07
3.30365e-07
3.19486e-07
3.14443e-07
3.13252e-07
3.13041e-07
3.12827e-07
3.12789e-07
3.1277e-07
3.12348e-07
3.13108e-07
3.12327e-07
3.13748e-07
3.12734e-07
3.16091e-07
3.1935e-07
3.33259e-07
3.60153e-07
3.97345e-07
3.69079e-07
3.47905e-07
3.28938e-07
3.19593e-07
3.15302e-07
3.14226e-07
3.14031e-07
3.13871e-07
3.13813e-07
3.1381e-07
3.13536e-07
3.13962e-07
3.13568e-07
3.14473e-07
3.13891e-07
3.16477e-07
3.19401e-07
3.31257e-07
3.53735e-07
3.85245e-07
3.19895e-07
3.19828e-07
3.20009e-07
3.20171e-07
3.20212e-07
3.21813e-07
3.24504e-07
3.34371e-07
3.525e-07
3.79044e-07
)
;

boundaryField
{
    fuel
    {
        type            fixedValue;
        value           nonuniform 0();
    }
    wall
    {
        type            zeroGradient;
    }
    outlet
    {
        type            zeroGradient;
    }
    frontAndBack
    {
        type            empty;
    }
    procBoundary0to1
    {
        type            processor;
        value           nonuniform List<scalar> 
21
(
3.66045e-07
3.48578e-07
3.32596e-07
3.24707e-07
3.21214e-07
3.20272e-07
3.201e-07
3.20042e-07
3.19942e-07
3.19979e-07
3.19979e-07
3.34112e-07
3.33328e-07
3.34353e-07
3.33467e-07
3.34391e-07
3.34702e-07
3.37299e-07
3.4516e-07
3.58891e-07
3.81022e-07
)
;
    }
    procBoundary0to2
    {
        type            processor;
        value           nonuniform List<scalar> 
12
(
4.15473e-07
7.84091e-07
5.4001e-07
4.51251e-07
4.15524e-07
4.03098e-07
4.00202e-07
4.00088e-07
3.99968e-07
3.99702e-07
3.99934e-07
3.99934e-07
)
;
    }
    procBoundary0to3
    {
        type            processor;
        value           nonuniform List<scalar> 10(4.31491e-07 4.34102e-07 4.31578e-07 4.36106e-07 4.32193e-07 4.43182e-07 4.54526e-07 5.02087e-07 6.03857e-07 6.79447e-07);
    }
}


// ************************************************************************* //
