/*--------------------------------*- C++ -*----------------------------------*\
| =========                 |                                                 |
| \\      /  F ield         | OpenFOAM: The Open Source CFD Toolbox           |
|  \\    /   O peration     | Version:  dev                                   |
|   \\  /    A nd           | Web:      www.OpenFOAM.org                      |
|    \\/     M anipulation  |                                                 |
\*---------------------------------------------------------------------------*/
FoamFile
{
    version     2.0;
    format      ascii;
    class       volScalarField;
    location    "0.13";
    object      P2-H;
}
// * * * * * * * * * * * * * * * * * * * * * * * * * * * * * * * * * * * * * //

dimensions      [0 0 0 0 0 0 0];

internalField   nonuniform List<scalar> 
250
(
7.35429e-17
7.35519e-17
7.36842e-17
7.36207e-17
7.37257e-17
7.50855e-17
8.32234e-17
1.26619e-16
5.40282e-16
1.88825e-15
7.13459e-17
7.1322e-17
7.14623e-17
7.13876e-17
7.14858e-17
7.27488e-17
8.00504e-17
1.17928e-16
4.47445e-16
1.46996e-15
5.12407e-16
2.28339e-16
1.03942e-16
7.90467e-17
7.23804e-17
7.06159e-17
7.05669e-17
7.04309e-17
7.0296e-17
7.02604e-17
7.02884e-17
7.02342e-17
7.03827e-17
7.02935e-17
7.03854e-17
7.15728e-17
7.81307e-17
1.11262e-16
3.73479e-16
1.14911e-15
4.96816e-16
2.11428e-16
1.01509e-16
7.82308e-17
7.21334e-17
7.0572e-17
7.04567e-17
7.04534e-17
7.02413e-17
7.0308e-17
7.03059e-17
7.02243e-17
7.03815e-17
7.02756e-17
7.0362e-17
7.14875e-17
7.73813e-17
1.06427e-16
3.11996e-16
9.04173e-16
4.85593e-16
1.99346e-16
1.00395e-16
7.84736e-17
7.29133e-17
7.15257e-17
7.13454e-17
7.14711e-17
7.11802e-17
7.13458e-17
7.13143e-17
7.1209e-17
7.13754e-17
7.12527e-17
7.13349e-17
7.24076e-17
7.77092e-17
1.03231e-16
2.6384e-16
7.16973e-16
4.76634e-16
1.90875e-16
1.00367e-16
7.96637e-17
7.45846e-17
7.33482e-17
7.31084e-17
7.33468e-17
7.29851e-17
7.32372e-17
7.31795e-17
7.30557e-17
7.32304e-17
7.30941e-17
7.31744e-17
7.42005e-17
7.89797e-17
1.01446e-16
2.30505e-16
5.73923e-16
4.6772e-16
1.84883e-16
1.01122e-16
8.15982e-17
7.69391e-17
7.58255e-17
7.55392e-17
7.58569e-17
7.54456e-17
7.57589e-17
7.56827e-17
7.5548e-17
7.57273e-17
7.55854e-17
7.56676e-17
7.66508e-17
8.09793e-17
1.00748e-16
2.03792e-16
4.64592e-16
4.56431e-16
1.80267e-16
1.02305e-16
8.39582e-17
7.96552e-17
7.86297e-17
7.83194e-17
7.86636e-17
7.82392e-17
7.85735e-17
7.84914e-17
7.83562e-17
7.85332e-17
7.83986e-17
7.84876e-17
7.94303e-17
8.33821e-17
1.00726e-16
1.83681e-16
3.81031e-16
4.40408e-16
1.75932e-16
1.03277e-16
8.62965e-17
8.23042e-17
8.14104e-17
8.11094e-17
8.14118e-17
8.10174e-17
8.13217e-17
8.12494e-17
8.11237e-17
8.12929e-17
8.11749e-17
8.1272e-17
8.21951e-17
8.57341e-17
1.00857e-16
1.67607e-16
3.16876e-16
4.17784e-16
1.70824e-16
1.03496e-16
8.80639e-17
8.42976e-17
8.33974e-17
8.31407e-17
8.33201e-17
8.30259e-17
8.32332e-17
8.31928e-17
8.30949e-17
8.32372e-17
8.31653e-17
8.32803e-17
8.41568e-17
8.74868e-17
1.0055e-16
1.5415e-16
2.67037e-16
3.87665e-16
1.64037e-16
1.0233e-16
8.86908e-17
8.51037e-17
8.41583e-17
8.39816e-17
8.3969e-17
8.38307e-17
8.38847e-17
8.38939e-17
8.38365e-17
8.39393e-17
8.39305e-17
8.40664e-17
8.48858e-17
8.80799e-17
9.92199e-17
1.42113e-16
2.27496e-16
3.50508e-16
1.54976e-16
9.94044e-17
8.77141e-17
8.42885e-17
8.32815e-17
8.32115e-17
8.29646e-17
8.30189e-17
8.28833e-17
8.29532e-17
8.29435e-17
8.29983e-17
8.30612e-17
8.32171e-17
8.39686e-17
8.7065e-17
9.64178e-17
1.30587e-16
1.95188e-16
3.08362e-16
1.43533e-16
9.45935e-17
8.4909e-17
8.16624e-17
8.06018e-17
8.06497e-17
8.01648e-17
8.04188e-17
8.00881e-17
8.02199e-17
8.02578e-17
8.02625e-17
8.03946e-17
8.05652e-17
8.12389e-17
8.42342e-17
9.19416e-17
1.19027e-16
1.67921e-16
7.58489e-17
7.59267e-17
7.58865e-17
7.60745e-17
7.6252e-17
7.68412e-17
7.96964e-17
8.59175e-17
1.07273e-16
1.44286e-16
)
;

boundaryField
{
    fuel
    {
        type            fixedValue;
        value           nonuniform 0();
    }
    wall
    {
        type            zeroGradient;
    }
    outlet
    {
        type            zeroGradient;
    }
    frontAndBack
    {
        type            empty;
    }
    procBoundary0to1
    {
        type            processor;
        value           nonuniform List<scalar> 
21
(
2.6351e-16
1.30037e-16
8.81018e-17
8.03731e-17
7.73466e-17
7.62647e-17
7.6421e-17
7.5735e-17
7.61632e-17
7.56642e-17
7.56642e-17
7.02609e-17
7.03665e-17
7.02917e-17
7.05159e-17
7.06908e-17
7.11961e-17
7.385e-17
7.87671e-17
9.54953e-17
1.23519e-16
)
;
    }
    procBoundary0to2
    {
        type            processor;
        value           nonuniform List<scalar> 
12
(
7.34754e-17
5.31831e-16
2.55398e-16
1.07866e-16
8.10079e-17
7.37258e-17
7.17433e-17
7.17564e-17
7.14957e-17
7.14285e-17
7.12939e-17
7.12939e-17
)
;
    }
    procBoundary0to3
    {
        type            processor;
        value           nonuniform List<scalar> 10(7.69543e-17 7.70003e-17 7.71241e-17 7.70657e-17 7.71783e-17 7.86833e-17 8.81757e-17 1.38802e-16 6.58877e-16 2.45095e-15);
    }
}


// ************************************************************************* //
