/*--------------------------------*- C++ -*----------------------------------*\
| =========                 |                                                 |
| \\      /  F ield         | OpenFOAM: The Open Source CFD Toolbox           |
|  \\    /   O peration     | Version:  dev                                   |
|   \\  /    A nd           | Web:      www.OpenFOAM.org                      |
|    \\/     M anipulation  |                                                 |
\*---------------------------------------------------------------------------*/
FoamFile
{
    version     2.0;
    format      ascii;
    class       volScalarField;
    location    "0.13";
    object      PC3H4;
}
// * * * * * * * * * * * * * * * * * * * * * * * * * * * * * * * * * * * * * //

dimensions      [0 0 0 0 0 0 0];

internalField   nonuniform List<scalar> 
50
(
1.82328e-08
2.98272e-08
3.21544e-08
2.99552e-08
2.578e-08
2.101e-08
1.65022e-08
1.25777e-08
9.35876e-09
6.80487e-09
4.85827e-09
3.41216e-09
2.3699e-09
1.62182e-09
1.09511e-09
7.31211e-10
4.83224e-10
3.16304e-10
2.05193e-10
1.32553e-10
8.50545e-11
5.41803e-11
3.43488e-11
2.16716e-11
1.36176e-11
8.52633e-12
5.30102e-12
3.28305e-12
2.03661e-12
1.25661e-12
7.7239e-13
4.75971e-13
2.92451e-13
1.79047e-13
1.09478e-13
6.68665e-14
4.08033e-14
2.48803e-14
1.51622e-14
9.23591e-15
5.62438e-15
3.42463e-15
2.08524e-15
1.26987e-15
7.7347e-16
4.71133e-16
2.86762e-16
1.7396e-16
1.04349e-16
6.03967e-17
)
;

boundaryField
{
    wall
    {
        type            zeroGradient;
    }
    fuel
    {
        type            fixedValue;
        value           uniform 0;
    }
    outlet
    {
        type            inletOutlet;
        inletValue      nonuniform 0();
        value           nonuniform 0();
    }
    procBoundary0to1
    {
        type            processor;
        value           uniform 3.5403e-17;
    }
}


// ************************************************************************* //
