/*--------------------------------*- C++ -*----------------------------------*\
| =========                 |                                                 |
| \\      /  F ield         | OpenFOAM: The Open Source CFD Toolbox           |
|  \\    /   O peration     | Version:  dev                                   |
|   \\  /    A nd           | Web:      www.OpenFOAM.org                      |
|    \\/     M anipulation  |                                                 |
\*---------------------------------------------------------------------------*/
FoamFile
{
    version     2.0;
    format      ascii;
    class       volScalarField;
    location    "0.15";
    object      A1C2H3*;
}
// * * * * * * * * * * * * * * * * * * * * * * * * * * * * * * * * * * * * * //

dimensions      [0 0 0 0 0 0 0];

internalField   nonuniform List<scalar> 
250
(
1.88274e-11
1.15603e-11
9.44842e-12
8.89981e-12
8.76334e-12
8.81602e-12
8.73512e-12
8.83881e-12
8.75004e-12
8.82881e-12
1.8229e-11
1.20434e-11
1.03838e-11
9.92147e-12
9.81355e-12
9.93319e-12
9.80166e-12
9.97699e-12
9.83105e-12
9.9623e-12
9.91571e-12
9.89279e-12
9.9142e-12
9.88804e-12
9.88495e-12
9.91565e-12
9.90394e-12
1.02762e-11
1.11755e-11
1.27335e-11
1.84041e-11
1.32374e-11
1.20898e-11
1.17228e-11
1.16408e-11
1.18529e-11
1.1647e-11
1.19219e-11
1.16946e-11
1.18989e-11
1.1826e-11
1.17916e-11
1.18222e-11
1.17836e-11
1.17741e-11
1.17994e-11
1.16959e-11
1.20147e-11
1.26399e-11
1.38279e-11
1.96016e-11
1.54831e-11
1.48303e-11
1.457e-11
1.44958e-11
1.47743e-11
1.45074e-11
1.48522e-11
1.45617e-11
1.48193e-11
1.4728e-11
1.4686e-11
1.47226e-11
1.46799e-11
1.46661e-11
1.46893e-11
1.45222e-11
1.47894e-11
1.51595e-11
1.59748e-11
2.17062e-11
1.87403e-11
1.83428e-11
1.82194e-11
1.81209e-11
1.83003e-11
1.81087e-11
1.83394e-11
1.80894e-11
1.83018e-11
1.82288e-11
1.81948e-11
1.82241e-11
1.82026e-11
1.81935e-11
1.82218e-11
1.81452e-11
1.83287e-11
1.85648e-11
1.90563e-11
2.37898e-11
2.20392e-11
2.14099e-11
2.13216e-11
2.11569e-11
2.11109e-11
2.10645e-11
2.10507e-11
2.10115e-11
2.10222e-11
2.10241e-11
2.10219e-11
2.10239e-11
2.10561e-11
2.10657e-11
2.11066e-11
2.12448e-11
2.14047e-11
2.17418e-11
2.2117e-11
2.40473e-11
2.34568e-11
2.21464e-11
2.2035e-11
2.18014e-11
2.14051e-11
2.16163e-11
2.12175e-11
2.15097e-11
2.12128e-11
2.13262e-11
2.13705e-11
2.13331e-11
2.14319e-11
2.14693e-11
2.15237e-11
2.19857e-11
2.21302e-11
2.27741e-11
2.3169e-11
2.10605e-11
2.12015e-11
1.92252e-11
1.90697e-11
1.88126e-11
1.8145e-11
1.85807e-11
1.78736e-11
1.84403e-11
1.78962e-11
1.80967e-11
1.81764e-11
1.81095e-11
1.82488e-11
1.83078e-11
1.83661e-11
1.90646e-11
1.9194e-11
2.01206e-11
2.06782e-11
1.49333e-11
1.52917e-11
1.32548e-11
1.30963e-11
1.28856e-11
1.2212e-11
1.26871e-11
1.19558e-11
1.25609e-11
1.19917e-11
1.21982e-11
1.22794e-11
1.22119e-11
1.23385e-11
1.23983e-11
1.24451e-11
1.31222e-11
1.32231e-11
1.41405e-11
1.47662e-11
7.99977e-12
8.25162e-12
6.86588e-12
6.75929e-12
6.63778e-12
6.19792e-12
6.52319e-12
6.03612e-12
6.44683e-12
6.06496e-12
6.20206e-12
6.25513e-12
6.21166e-12
6.28797e-12
6.32823e-12
6.35488e-12
6.78716e-12
6.84738e-12
7.44776e-12
7.90873e-12
2.97898e-12
3.06437e-12
2.45507e-12
2.40563e-12
2.35872e-12
2.17275e-12
2.31531e-12
2.10567e-12
2.28509e-12
2.11974e-12
2.17847e-12
2.20104e-12
2.18311e-12
2.21289e-12
2.23085e-12
2.24131e-12
2.4209e-12
2.44813e-12
2.70609e-12
2.92885e-12
6.37548e-13
6.49881e-13
5.10575e-13
4.99129e-13
4.88952e-13
4.48205e-13
4.80189e-13
4.33437e-13
4.73867e-13
4.36762e-13
4.49799e-13
4.54857e-13
4.50993e-13
4.57158e-13
4.61323e-13
4.63628e-13
5.0266e-13
5.09603e-13
5.67289e-13
6.22844e-13
1.31509e-13
1.32809e-13
1.07962e-13
1.05404e-13
1.03715e-13
9.59344e-14
1.02028e-13
9.31086e-14
1.00838e-13
9.37371e-14
9.62321e-14
9.7223e-14
9.64955e-14
9.76475e-14
9.84757e-14
9.89241e-14
1.06209e-13
1.07549e-13
1.18128e-13
1.28402e-13
)
;

boundaryField
{
    fuel
    {
        type            fixedValue;
        value           nonuniform 0();
    }
    wall
    {
        type            zeroGradient;
    }
    outlet
    {
        type            zeroGradient;
    }
    frontAndBack
    {
        type            empty;
    }
    procBoundary1to0
    {
        type            processor;
        value           nonuniform List<scalar> 
21
(
1.98355e-11
1.14561e-11
8.95046e-12
8.3162e-12
8.15598e-12
8.16992e-12
8.11607e-12
8.18081e-12
8.12265e-12
8.173e-12
8.80151e-12
8.80151e-12
8.78698e-12
8.80185e-12
8.78578e-12
8.78747e-12
8.82376e-12
8.88404e-12
9.31298e-12
1.04806e-11
1.24303e-11
)
;
    }
}


// ************************************************************************* //
