/*--------------------------------*- C++ -*----------------------------------*\
| =========                 |                                                 |
| \\      /  F ield         | OpenFOAM: The Open Source CFD Toolbox           |
|  \\    /   O peration     | Version:  dev                                   |
|   \\  /    A nd           | Web:      www.OpenFOAM.org                      |
|    \\/     M anipulation  |                                                 |
\*---------------------------------------------------------------------------*/
FoamFile
{
    version     2.0;
    format      ascii;
    class       volScalarField;
    location    "0.15";
    object      A2R5-;
}
// * * * * * * * * * * * * * * * * * * * * * * * * * * * * * * * * * * * * * //

dimensions      [0 0 0 0 0 0 0];

internalField   nonuniform List<scalar> 
250
(
1.24395e-09
9.53211e-10
6.69191e-10
6.08075e-10
5.79686e-10
5.49803e-10
5.65065e-10
5.3937e-10
5.57435e-10
5.39668e-10
8.95376e-10
7.01996e-10
5.00358e-10
4.59307e-10
4.39038e-10
4.15623e-10
4.28274e-10
4.07373e-10
4.2227e-10
4.07729e-10
4.1297e-10
4.15557e-10
4.13523e-10
4.17814e-10
4.19952e-10
4.23854e-10
4.55627e-10
4.8681e-10
5.91369e-10
6.77937e-10
6.25124e-10
5.02405e-10
3.63952e-10
3.37425e-10
3.23443e-10
3.05574e-10
3.15779e-10
2.99265e-10
3.11139e-10
2.99627e-10
3.03764e-10
3.05744e-10
3.04158e-10
3.07454e-10
3.09042e-10
3.11768e-10
3.35238e-10
3.55634e-10
4.27781e-10
4.93987e-10
4.23219e-10
3.48992e-10
2.57013e-10
2.4061e-10
2.31325e-10
2.17957e-10
2.26057e-10
2.13292e-10
2.22458e-10
2.13629e-10
2.16795e-10
2.18267e-10
2.17069e-10
2.1951e-10
2.20656e-10
2.22493e-10
2.39423e-10
2.5217e-10
3.00482e-10
3.48403e-10
2.77054e-10
2.34445e-10
1.75312e-10
1.64857e-10
1.58884e-10
1.49963e-10
1.5527e-10
1.46642e-10
1.53499e-10
1.4694e-10
1.49289e-10
1.50349e-10
1.49475e-10
1.51215e-10
1.5202e-10
1.53209e-10
1.64374e-10
1.72643e-10
2.03973e-10
2.37072e-10
1.72644e-10
1.51012e-10
1.14353e-10
1.08283e-10
1.0465e-10
9.84657e-11
1.02328e-10
9.61881e-11
1.0113e-10
9.64349e-11
9.81146e-11
9.88512e-11
9.82378e-11
9.94241e-11
9.9973e-11
1.00709e-10
1.08159e-10
1.12966e-10
1.32499e-10
1.529e-10
1.02183e-10
9.17395e-11
7.00354e-11
6.67008e-11
6.46151e-11
6.05437e-11
6.32069e-11
5.90603e-11
6.2443e-11
5.92516e-11
6.03921e-11
6.08776e-11
6.04709e-11
6.12322e-11
6.15908e-11
6.20195e-11
6.67389e-11
6.93632e-11
8.09143e-11
9.33076e-11
5.56312e-11
5.10822e-11
3.90802e-11
3.7391e-11
3.6288e-11
3.38156e-11
3.55063e-11
3.29238e-11
3.50595e-11
3.3059e-11
3.37731e-11
3.40675e-11
3.38203e-11
3.42667e-11
3.44851e-11
3.47137e-11
3.7474e-11
3.87852e-11
4.50964e-11
5.20081e-11
2.66178e-11
2.49268e-11
1.89977e-11
1.82448e-11
1.77295e-11
1.64156e-11
1.73522e-11
1.59453e-11
1.71244e-11
1.60276e-11
1.64185e-11
1.65742e-11
1.64436e-11
1.66707e-11
1.67887e-11
1.68953e-11
1.83128e-11
1.88879e-11
2.19275e-11
2.53157e-11
1.06132e-11
1.01017e-11
7.66239e-12
7.38353e-12
7.18292e-12
6.61437e-12
7.03471e-12
6.41136e-12
6.94033e-12
6.45141e-12
6.62532e-12
6.69222e-12
6.6365e-12
6.73009e-12
6.78266e-12
6.8238e-12
7.41975e-12
7.63114e-12
8.83957e-12
1.02106e-11
3.37583e-12
3.24275e-12
2.45065e-12
2.36624e-12
2.30397e-12
2.11329e-12
2.25855e-12
2.04497e-12
2.22824e-12
2.05973e-12
2.11948e-12
2.14192e-12
2.12357e-12
2.15337e-12
2.17179e-12
2.18458e-12
2.37991e-12
2.44416e-12
2.82493e-12
3.26729e-12
8.93527e-13
8.58297e-13
6.60236e-13
6.38022e-13
6.22935e-13
5.73805e-13
6.11664e-13
5.5608e-13
6.04066e-13
5.60008e-13
5.75598e-13
5.81459e-13
5.76795e-13
5.84208e-13
5.89169e-13
5.92453e-13
6.41947e-13
6.58526e-13
7.53975e-13
8.67898e-13
3.99843e-13
3.76634e-13
3.07736e-13
2.92527e-13
2.8999e-13
2.67843e-13
2.84429e-13
2.60906e-13
2.81001e-13
2.62644e-13
2.69101e-13
2.71788e-13
2.69797e-13
2.72834e-13
2.7512e-13
2.76423e-13
2.96651e-13
3.03127e-13
3.42945e-13
3.89303e-13
)
;

boundaryField
{
    fuel
    {
        type            fixedValue;
        value           nonuniform 0();
    }
    wall
    {
        type            zeroGradient;
    }
    outlet
    {
        type            zeroGradient;
    }
    frontAndBack
    {
        type            empty;
    }
    procBoundary1to0
    {
        type            processor;
        value           nonuniform List<scalar> 
21
(
1.67635e-09
1.25854e-09
8.71518e-10
7.83761e-10
7.45313e-10
7.08184e-10
7.26067e-10
6.95432e-10
7.16609e-10
6.95607e-10
5.46098e-10
5.46098e-10
5.49377e-10
5.46854e-10
5.52236e-10
5.55027e-10
5.60419e-10
6.02285e-10
6.48247e-10
7.95572e-10
9.01704e-10
)
;
    }
}


// ************************************************************************* //
