/*--------------------------------*- C++ -*----------------------------------*\
| =========                 |                                                 |
| \\      /  F ield         | OpenFOAM: The Open Source CFD Toolbox           |
|  \\    /   O peration     | Version:  dev                                   |
|   \\  /    A nd           | Web:      www.OpenFOAM.org                      |
|    \\/     M anipulation  |                                                 |
\*---------------------------------------------------------------------------*/
FoamFile
{
    version     2.0;
    format      ascii;
    class       volScalarField;
    location    "0.15";
    object      A3C2H;
}
// * * * * * * * * * * * * * * * * * * * * * * * * * * * * * * * * * * * * * //

dimensions      [0 0 0 0 0 0 0];

internalField   nonuniform List<scalar> 
250
(
3.58235e-11
2.39627e-11
1.61851e-11
1.3827e-11
1.31293e-11
1.29689e-11
1.29373e-11
1.2899e-11
1.29048e-11
1.28939e-11
3.01877e-11
2.06745e-11
1.45984e-11
1.2683e-11
1.20861e-11
1.19442e-11
1.19155e-11
1.1874e-11
1.18824e-11
1.18697e-11
1.18197e-11
1.19485e-11
1.18052e-11
1.20054e-11
1.18736e-11
1.22325e-11
1.2728e-11
1.50694e-11
2.44796e-11
5.64847e-11
2.52384e-11
1.76803e-11
1.29826e-11
1.14462e-11
1.09404e-11
1.08184e-11
1.07921e-11
1.07494e-11
1.07596e-11
1.07458e-11
1.06949e-11
1.08301e-11
1.06788e-11
1.08866e-11
1.07433e-11
1.10836e-11
1.1476e-11
1.337e-11
2.06353e-11
4.41155e-11
2.09168e-11
1.49693e-11
1.13719e-11
1.01572e-11
9.733e-12
9.63282e-12
9.60753e-12
9.56588e-12
9.57692e-12
9.56306e-12
9.51336e-12
9.64722e-12
9.49646e-12
9.70039e-12
9.55522e-12
9.86854e-12
1.01732e-11
1.16784e-11
1.719e-11
3.41263e-11
1.71968e-11
1.25466e-11
9.82542e-12
8.86328e-12
8.5295e-12
8.43016e-12
8.42677e-12
8.38884e-12
8.39954e-12
8.38666e-12
8.34101e-12
8.46385e-12
8.32445e-12
8.50724e-12
8.37538e-12
8.65089e-12
8.86559e-12
1.00586e-11
1.4171e-11
2.6238e-11
1.40819e-11
1.04801e-11
8.42505e-12
7.68272e-12
7.41681e-12
7.33782e-12
7.33499e-12
7.30313e-12
7.31229e-12
7.30134e-12
7.26271e-12
7.36606e-12
7.24797e-12
7.40121e-12
7.28964e-12
7.51662e-12
7.67719e-12
8.59515e-12
1.16153e-11
1.99948e-11
1.15919e-11
8.80788e-12
7.25538e-12
6.68899e-12
6.48255e-12
6.42201e-12
6.41912e-12
6.39474e-12
6.40155e-12
6.39306e-12
6.36351e-12
6.44217e-12
6.35192e-12
6.46896e-12
6.38385e-12
6.55636e-12
6.67897e-12
7.3739e-12
9.56039e-12
1.5437e-11
9.72002e-12
7.55779e-12
6.37581e-12
5.94489e-12
5.78957e-12
5.74361e-12
5.74014e-12
5.7232e-12
5.72751e-12
5.72136e-12
5.70127e-12
5.75462e-12
5.69346e-12
5.77318e-12
5.71647e-12
5.83679e-12
5.93386e-12
6.45447e-12
8.0192e-12
1.21518e-11
8.40943e-12
6.70791e-12
5.79434e-12
5.46469e-12
5.34813e-12
5.31362e-12
5.30942e-12
5.29849e-12
5.30082e-12
5.29633e-12
5.28423e-12
5.31641e-12
5.27993e-12
5.32831e-12
5.29597e-12
5.3744e-12
5.45356e-12
5.84398e-12
6.95677e-12
9.88309e-12
7.54778e-12
6.18179e-12
5.46208e-12
5.2054e-12
5.11656e-12
5.09015e-12
5.08542e-12
5.07841e-12
5.07963e-12
5.07585e-12
5.06926e-12
5.08716e-12
5.06759e-12
5.09473e-12
5.07902e-12
5.12951e-12
5.19459e-12
5.49155e-12
6.28411e-12
8.37166e-12
6.99968e-12
5.87724e-12
5.29787e-12
5.09528e-12
5.02397e-12
5.00317e-12
4.99826e-12
4.9933e-12
4.99419e-12
4.99035e-12
4.98696e-12
4.99704e-12
4.98691e-12
5.00226e-12
4.99573e-12
5.0303e-12
5.08362e-12
5.3146e-12
5.88535e-12
7.38531e-12
6.65293e-12
5.70382e-12
5.22519e-12
5.05997e-12
5.0007e-12
4.98329e-12
4.97845e-12
4.97434e-12
4.97534e-12
4.97106e-12
4.96923e-12
4.97596e-12
4.97005e-12
4.98006e-12
4.97758e-12
5.00414e-12
5.04811e-12
5.23343e-12
5.65686e-12
6.75507e-12
6.44886e-12
5.60682e-12
5.19086e-12
5.04833e-12
4.99633e-12
4.98094e-12
4.97624e-12
4.97247e-12
4.97365e-12
4.96896e-12
4.96788e-12
4.97322e-12
4.96915e-12
4.97673e-12
4.97607e-12
4.99842e-12
5.03671e-12
5.19387e-12
5.53285e-12
6.3953e-12
)
;

boundaryField
{
    fuel
    {
        type            fixedValue;
        value           nonuniform 0();
    }
    wall
    {
        type            zeroGradient;
    }
    outlet
    {
        type            zeroGradient;
    }
    frontAndBack
    {
        type            empty;
    }
    procBoundary1to0
    {
        type            processor;
        value           nonuniform List<scalar> 
21
(
4.22244e-11
2.75823e-11
1.77285e-11
1.48578e-11
1.40511e-11
1.38724e-11
1.38381e-11
1.3804e-11
1.3807e-11
1.37985e-11
1.28462e-11
1.28462e-11
1.29635e-11
1.28335e-11
1.30196e-11
1.29043e-11
1.32768e-11
1.38877e-11
1.67357e-11
2.86989e-11
7.14967e-11
)
;
    }
}


// ************************************************************************* //
