/*--------------------------------*- C++ -*----------------------------------*\
| =========                 |                                                 |
| \\      /  F ield         | OpenFOAM: The Open Source CFD Toolbox           |
|  \\    /   O peration     | Version:  dev                                   |
|   \\  /    A nd           | Web:      www.OpenFOAM.org                      |
|    \\/     M anipulation  |                                                 |
\*---------------------------------------------------------------------------*/
FoamFile
{
    version     2.0;
    format      ascii;
    class       volScalarField;
    location    "0.15";
    object      C;
}
// * * * * * * * * * * * * * * * * * * * * * * * * * * * * * * * * * * * * * //

dimensions      [0 0 0 0 0 0 0];

internalField   nonuniform List<scalar> 
250
(
2.15634e-11
3.20315e-11
2.5175e-11
2.57976e-11
2.45075e-11
2.15005e-11
2.338e-11
2.04489e-11
2.25489e-11
2.0521e-11
1.07973e-11
1.56465e-11
1.17929e-11
1.20271e-11
1.13865e-11
9.91279e-12
1.08523e-11
9.39785e-12
1.04472e-11
9.43622e-12
9.79009e-12
9.97345e-12
9.81037e-12
1.01049e-11
1.02155e-11
1.02992e-11
1.18643e-11
1.16778e-11
1.2134e-11
9.91593e-12
5.0349e-12
7.0933e-12
5.15139e-12
5.22895e-12
4.941e-12
4.26959e-12
4.70752e-12
4.03731e-12
4.52221e-12
4.05631e-12
4.2192e-12
4.30064e-12
4.22798e-12
4.36009e-12
4.40897e-12
4.44719e-12
5.16438e-12
5.11389e-12
5.50824e-12
4.8077e-12
2.19274e-12
2.98951e-12
2.10415e-12
2.12821e-12
2.01038e-12
1.72392e-12
1.91647e-12
1.62718e-12
1.83457e-12
1.63588e-12
1.70529e-12
1.7389e-12
1.70886e-12
1.76357e-12
1.78371e-12
1.79973e-12
2.1058e-12
2.09235e-12
2.32379e-12
2.1502e-12
8.96994e-13
1.17668e-12
8.08516e-13
8.05679e-13
7.60914e-13
6.56952e-13
7.24771e-13
6.1977e-13
7.02162e-13
6.23488e-13
6.50961e-13
6.63886e-13
6.52337e-13
6.73312e-13
6.81083e-13
6.87281e-13
7.99905e-13
8.04806e-13
9.16409e-13
8.9413e-13
3.43013e-13
4.37101e-13
2.96241e-13
2.93141e-13
2.77597e-13
2.39814e-13
2.64883e-13
2.2644e-13
2.57033e-13
2.27916e-13
2.38083e-13
2.42747e-13
2.3859e-13
2.46089e-13
2.48919e-13
2.51173e-13
2.92002e-13
2.9502e-13
3.421e-13
3.43434e-13
1.28556e-13
1.56849e-13
1.06384e-13
1.04587e-13
9.94564e-14
8.63965e-14
9.52148e-14
8.18123e-14
9.25917e-14
8.23621e-14
8.59365e-14
8.75402e-14
8.61183e-14
8.86601e-14
8.96497e-14
9.04389e-14
1.04498e-13
1.0596e-13
1.24123e-13
1.29e-13
4.92201e-14
5.70685e-14
3.95207e-14
3.86449e-14
3.69637e-14
3.25098e-14
3.55629e-14
3.09485e-14
3.46932e-14
3.11471e-14
3.23889e-14
3.2936e-14
3.24549e-14
3.33068e-14
3.3652e-14
3.39302e-14
3.87054e-14
3.93632e-14
4.61074e-14
4.91971e-14
2.06849e-14
2.28619e-14
1.6523e-14
1.60932e-14
1.55129e-14
1.38795e-14
1.50098e-14
1.33056e-14
1.46981e-14
1.33805e-14
1.38438e-14
1.40462e-14
1.38706e-14
1.41787e-14
1.43095e-14
1.44159e-14
1.61513e-14
1.64448e-14
1.90507e-14
2.06033e-14
1.04693e-14
1.11449e-14
8.5626e-15
8.28505e-15
8.07497e-15
7.34198e-15
7.84608e-15
7.09063e-15
7.70845e-15
7.12327e-15
7.32861e-15
7.42332e-15
7.34437e-15
7.47998e-15
7.54122e-15
7.59079e-15
8.34455e-15
8.48525e-15
9.6524e-15
1.04312e-14
6.8767e-15
7.04766e-15
5.82203e-15
5.53477e-15
5.47901e-15
5.0331e-15
5.32735e-15
4.89535e-15
5.24437e-15
4.91281e-15
5.02435e-15
5.09214e-15
5.04133e-15
5.12171e-15
5.16107e-15
5.19371e-15
5.61703e-15
5.70348e-15
6.38426e-15
6.86634e-15
5.57785e-15
5.48561e-15
4.86337e-15
4.51988e-15
4.54188e-15
4.20419e-15
4.41023e-15
4.1151e-15
4.34737e-15
4.12519e-15
4.19043e-15
4.25986e-15
4.21386e-15
4.27605e-15
4.30747e-15
4.33699e-15
4.62717e-15
4.69951e-15
5.19868e-15
5.58164e-15
4.96993e-15
4.74763e-15
4.41234e-15
4.04645e-15
4.09804e-15
3.82248e-15
3.97722e-15
3.75764e-15
3.92558e-15
3.76302e-15
3.80063e-15
3.87589e-15
3.82928e-15
3.88416e-15
3.91089e-15
3.94019e-15
4.16261e-15
4.23195e-15
4.64003e-15
4.97925e-15
)
;

boundaryField
{
    fuel
    {
        type            fixedValue;
        value           nonuniform 0();
    }
    wall
    {
        type            zeroGradient;
    }
    outlet
    {
        type            zeroGradient;
    }
    frontAndBack
    {
        type            empty;
    }
    procBoundary1to0
    {
        type            processor;
        value           nonuniform List<scalar> 
21
(
4.027e-11
6.10268e-11
5.00373e-11
5.16129e-11
4.91735e-11
4.35415e-11
4.69937e-11
4.15499e-11
4.54193e-11
4.16679e-11
2.12314e-11
2.12314e-11
2.16146e-11
2.12752e-11
2.18797e-11
2.21103e-11
2.2279e-11
2.54176e-11
2.48446e-11
2.47251e-11
1.87522e-11
)
;
    }
}


// ************************************************************************* //
