/*--------------------------------*- C++ -*----------------------------------*\
| =========                 |                                                 |
| \\      /  F ield         | OpenFOAM: The Open Source CFD Toolbox           |
|  \\    /   O peration     | Version:  dev                                   |
|   \\  /    A nd           | Web:      www.OpenFOAM.org                      |
|    \\/     M anipulation  |                                                 |
\*---------------------------------------------------------------------------*/
FoamFile
{
    version     2.0;
    format      ascii;
    class       volScalarField;
    location    "0.15";
    object      C6H8;
}
// * * * * * * * * * * * * * * * * * * * * * * * * * * * * * * * * * * * * * //

dimensions      [0 0 0 0 0 0 0];

internalField   nonuniform List<scalar> 
50
(
3.22018e-22
2.89167e-22
2.60185e-22
2.34393e-22
2.11304e-22
1.90557e-22
1.71873e-22
1.55024e-22
1.39825e-22
1.26112e-22
1.13743e-22
1.02591e-22
9.25398e-23
8.34861e-23
7.5334e-23
6.79966e-23
6.13945e-23
5.54555e-23
5.0114e-23
4.53103e-23
4.09903e-23
3.71052e-23
3.36108e-23
3.04674e-23
2.7639e-23
2.50934e-23
2.28016e-23
2.07374e-23
1.88776e-23
1.72011e-23
1.56891e-23
1.43248e-23
1.3093e-23
1.19802e-23
1.09743e-23
1.00644e-23
9.24084e-24
8.49484e-24
7.81865e-24
7.20526e-24
6.64842e-24
6.1425e-24
5.68245e-24
5.26373e-24
4.88656e-24
4.54127e-24
4.2245e-24
3.93544e-24
3.67135e-24
3.42963e-24
)
;

boundaryField
{
    wall
    {
        type            zeroGradient;
    }
    fuel
    {
        type            fixedValue;
        value           nonuniform 0();
    }
    outlet
    {
        type            inletOutlet;
        inletValue      nonuniform 0();
        value           nonuniform 0();
    }
    procBoundary1to0
    {
        type            processor;
        value           uniform 3.55142e-22;
    }
    procBoundary1to2
    {
        type            processor;
        value           uniform 3.20861e-24;
    }
}


// ************************************************************************* //
