/*--------------------------------*- C++ -*----------------------------------*\
| =========                 |                                                 |
| \\      /  F ield         | OpenFOAM: The Open Source CFD Toolbox           |
|  \\    /   O peration     | Version:  dev                                   |
|   \\  /    A nd           | Web:      www.OpenFOAM.org                      |
|    \\/     M anipulation  |                                                 |
\*---------------------------------------------------------------------------*/
FoamFile
{
    version     2.0;
    format      ascii;
    class       volScalarField;
    location    "0.15";
    object      CH2CO;
}
// * * * * * * * * * * * * * * * * * * * * * * * * * * * * * * * * * * * * * //

dimensions      [0 0 0 0 0 0 0];

internalField   nonuniform List<scalar> 
250
(
1.16487e-05
1.13494e-05
1.10686e-05
1.08439e-05
1.06826e-05
1.06418e-05
1.06347e-05
1.06017e-05
1.06134e-05
1.06014e-05
1.08776e-05
1.05659e-05
1.03007e-05
1.00947e-05
9.9463e-06
9.90853e-06
9.90143e-06
9.86909e-06
9.88089e-06
9.86882e-06
9.82993e-06
9.93929e-06
9.81788e-06
9.98519e-06
9.8552e-06
1.00763e-05
1.00903e-05
1.03787e-05
1.09072e-05
1.12865e-05
1.01163e-05
9.79613e-06
9.54491e-06
9.35777e-06
9.22195e-06
9.18832e-06
9.18063e-06
9.14971e-06
9.1612e-06
9.14926e-06
9.11243e-06
9.21725e-06
9.10088e-06
9.25979e-06
9.13578e-06
9.34105e-06
9.35087e-06
9.61172e-06
1.00965e-05
1.0475e-05
9.37345e-06
9.05172e-06
8.81438e-06
8.64775e-06
8.52473e-06
8.49672e-06
8.48767e-06
8.4592e-06
8.46991e-06
8.45843e-06
8.42478e-06
8.52103e-06
8.41403e-06
8.55909e-06
8.44549e-06
8.63074e-06
8.63803e-06
8.87189e-06
9.31002e-06
9.69772e-06
8.66889e-06
8.35232e-06
8.13498e-06
7.98199e-06
7.88212e-06
7.8485e-06
7.85011e-06
7.82526e-06
7.83469e-06
7.82402e-06
7.795e-06
7.87788e-06
7.78559e-06
7.90803e-06
7.81257e-06
7.97208e-06
7.96855e-06
8.18351e-06
8.56938e-06
8.96733e-06
8.03492e-06
7.73991e-06
7.54319e-06
7.41379e-06
7.3303e-06
7.30275e-06
7.30341e-06
7.28302e-06
7.29076e-06
7.28117e-06
7.25802e-06
7.3243e-06
7.25064e-06
7.34809e-06
7.27258e-06
7.40137e-06
7.39895e-06
7.58262e-06
7.90879e-06
8.28933e-06
7.50878e-06
7.24576e-06
7.07314e-06
6.96768e-06
6.90061e-06
6.87901e-06
6.87856e-06
6.86287e-06
6.86877e-06
6.86031e-06
6.84355e-06
6.89251e-06
6.83868e-06
6.91051e-06
6.85564e-06
6.95219e-06
6.95268e-06
7.10374e-06
7.36597e-06
7.7305e-06
7.11505e-06
6.8896e-06
6.74213e-06
6.65845e-06
6.60668e-06
6.58993e-06
6.58839e-06
6.57688e-06
6.58116e-06
6.57358e-06
6.56273e-06
6.5962e-06
6.56044e-06
6.60904e-06
6.57313e-06
6.64059e-06
6.6445e-06
6.76493e-06
6.96558e-06
7.29849e-06
6.85362e-06
6.66505e-06
6.54108e-06
6.4755e-06
6.43568e-06
6.42273e-06
6.42034e-06
6.41195e-06
6.41507e-06
6.40794e-06
6.40173e-06
6.42342e-06
6.40163e-06
6.43227e-06
6.41121e-06
6.45622e-06
6.46289e-06
6.55763e-06
6.70589e-06
6.99626e-06
6.69811e-06
6.541e-06
6.43728e-06
6.3853e-06
6.35411e-06
6.34376e-06
6.34084e-06
6.33441e-06
6.33689e-06
6.32979e-06
6.32668e-06
6.34084e-06
6.32819e-06
6.34704e-06
6.33583e-06
6.36583e-06
6.37412e-06
6.44903e-06
6.55769e-06
6.8008e-06
6.60885e-06
6.47626e-06
6.389e-06
6.34714e-06
6.32161e-06
6.31299e-06
6.30986e-06
6.30452e-06
6.3067e-06
6.29942e-06
6.29813e-06
6.30814e-06
6.3007e-06
6.31274e-06
6.30727e-06
6.32807e-06
6.33712e-06
6.39706e-06
6.47836e-06
6.67519e-06
6.54678e-06
6.43223e-06
6.358e-06
6.32318e-06
6.30196e-06
6.29443e-06
6.29128e-06
6.28659e-06
6.28863e-06
6.28121e-06
6.28101e-06
6.2886e-06
6.28427e-06
6.29217e-06
6.29022e-06
6.30493e-06
6.31457e-06
6.36275e-06
6.42619e-06
6.58283e-06
6.51424e-06
6.41132e-06
6.34565e-06
6.3152e-06
6.29665e-06
6.28978e-06
6.28669e-06
6.28236e-06
6.28433e-06
6.27682e-06
6.27721e-06
6.28352e-06
6.28088e-06
6.28648e-06
6.28649e-06
6.29764e-06
6.30768e-06
6.34814e-06
6.40109e-06
6.5302e-06
)
;

boundaryField
{
    fuel
    {
        type            fixedValue;
        value           nonuniform 0();
    }
    wall
    {
        type            zeroGradient;
    }
    outlet
    {
        type            zeroGradient;
    }
    frontAndBack
    {
        type            empty;
    }
    procBoundary1to0
    {
        type            processor;
        value           nonuniform List<scalar> 
21
(
1.24273e-05
1.21393e-05
1.18434e-05
1.15985e-05
1.14249e-05
1.13814e-05
1.13741e-05
1.13411e-05
1.13525e-05
1.13408e-05
1.05613e-05
1.05613e-05
1.06726e-05
1.05492e-05
1.07212e-05
1.05889e-05
1.08209e-05
1.08442e-05
1.11578e-05
1.17387e-05
1.2127e-05
)
;
    }
}


// ************************************************************************* //
