/*--------------------------------*- C++ -*----------------------------------*\
| =========                 |                                                 |
| \\      /  F ield         | OpenFOAM: The Open Source CFD Toolbox           |
|  \\    /   O peration     | Version:  dev                                   |
|   \\  /    A nd           | Web:      www.OpenFOAM.org                      |
|    \\/     M anipulation  |                                                 |
\*---------------------------------------------------------------------------*/
FoamFile
{
    version     2.0;
    format      ascii;
    class       volScalarField;
    location    "0.15";
    object      CH3O;
}
// * * * * * * * * * * * * * * * * * * * * * * * * * * * * * * * * * * * * * //

dimensions      [0 0 0 0 0 0 0];

internalField   nonuniform List<scalar> 
250
(
2.59398e-11
2.98341e-11
3.16627e-11
3.08842e-11
2.9513e-11
2.91757e-11
2.91393e-11
2.86706e-11
2.88655e-11
2.86949e-11
1.83421e-11
2.02523e-11
2.11213e-11
2.0466e-11
1.94998e-11
1.9265e-11
1.92384e-11
1.89065e-11
1.90463e-11
1.89254e-11
1.8529e-11
1.97044e-11
1.83981e-11
2.0174e-11
1.87571e-11
2.09215e-11
2.05626e-11
2.17043e-11
2.40143e-11
2.07046e-11
1.24354e-11
1.32474e-11
1.36013e-11
1.31131e-11
1.246e-11
1.23103e-11
1.22867e-11
1.20626e-11
1.21581e-11
1.20763e-11
1.18068e-11
1.26082e-11
1.17164e-11
1.29205e-11
1.19547e-11
1.34008e-11
1.31624e-11
1.39619e-11
1.56687e-11
1.37012e-11
8.10094e-12
8.37036e-12
8.47468e-12
8.14678e-12
7.71831e-12
7.63622e-12
7.60964e-12
7.46524e-12
7.52737e-12
7.47433e-12
7.2989e-12
7.81902e-12
7.2386e-12
8.01796e-12
7.38909e-12
8.31695e-12
8.1649e-12
8.69801e-12
9.86137e-12
8.77213e-12
5.08989e-12
5.11374e-12
5.12785e-12
4.89042e-12
4.65324e-12
4.56939e-12
4.58927e-12
4.5005e-12
4.53912e-12
4.50606e-12
4.39672e-12
4.71711e-12
4.35791e-12
4.82954e-12
4.44845e-12
5.01986e-12
4.88625e-12
5.26531e-12
6.00663e-12
5.45757e-12
3.10392e-12
3.05518e-12
3.03384e-12
2.89056e-12
2.75039e-12
2.70207e-12
2.71413e-12
2.66182e-12
2.68483e-12
2.66486e-12
2.59963e-12
2.78819e-12
2.57568e-12
2.85218e-12
2.62797e-12
2.96574e-12
2.88039e-12
3.11756e-12
3.5607e-12
3.26812e-12
1.85527e-12
1.7976e-12
1.77154e-12
1.68912e-12
1.60893e-12
1.58221e-12
1.58899e-12
1.55923e-12
1.57247e-12
1.56062e-12
1.52319e-12
1.63061e-12
1.50902e-12
1.66684e-12
1.53828e-12
1.73087e-12
1.67857e-12
1.82169e-12
2.07212e-12
1.94453e-12
1.09456e-12
1.04834e-12
1.02759e-12
9.8132e-13
9.36967e-13
9.22214e-13
9.25886e-13
9.09287e-13
9.16763e-13
9.09717e-13
8.88782e-13
9.49056e-13
8.80645e-13
9.69079e-13
8.96749e-13
1.00396e-12
9.72941e-13
1.05696e-12
1.19289e-12
1.14385e-12
6.32956e-13
6.01145e-13
5.87347e-13
5.61815e-13
5.37771e-13
5.29678e-13
5.31637e-13
5.22492e-13
5.26665e-13
5.22473e-13
5.10954e-13
5.44539e-13
5.06361e-13
5.55312e-13
5.15147e-13
5.73838e-13
5.55927e-13
6.03893e-13
6.76024e-13
6.60572e-13
3.52345e-13
3.33076e-13
3.25186e-13
3.11593e-13
2.99146e-13
2.94812e-13
2.95828e-13
2.90955e-13
2.93209e-13
2.90785e-13
2.84676e-13
3.02832e-13
2.8218e-13
3.08377e-13
2.86832e-13
3.17794e-13
3.07922e-13
3.33916e-13
3.70817e-13
3.68228e-13
1.85264e-13
1.73814e-13
1.69271e-13
1.62154e-13
1.55847e-13
1.53583e-13
1.54097e-13
1.51581e-13
1.52762e-13
1.51398e-13
1.48244e-13
1.57834e-13
1.46904e-13
1.60584e-13
1.49288e-13
1.65193e-13
1.59918e-13
1.73704e-13
1.92432e-13
1.9636e-13
8.13353e-14
7.47589e-14
7.22867e-14
6.911e-14
6.64624e-14
6.54755e-14
6.56816e-14
6.46167e-14
6.51295e-14
6.44878e-14
6.31611e-14
6.73177e-14
6.25782e-14
6.84459e-14
6.35756e-14
7.03333e-14
6.8002e-14
7.42375e-14
8.3048e-14
9.50946e-14
3.99804e-14
3.23937e-14
3.00201e-14
2.87067e-14
2.76769e-14
2.7321e-14
2.73714e-14
2.69774e-14
2.71841e-14
2.68957e-14
2.64306e-14
2.79605e-14
2.62288e-14
2.837e-14
2.65822e-14
2.91049e-14
2.81488e-14
3.10807e-14
3.7932e-14
8.69688e-14
)
;

boundaryField
{
    fuel
    {
        type            fixedValue;
        value           nonuniform 0();
    }
    wall
    {
        type            zeroGradient;
    }
    outlet
    {
        type            zeroGradient;
    }
    frontAndBack
    {
        type            empty;
    }
    procBoundary1to0
    {
        type            processor;
        value           nonuniform List<scalar> 
21
(
3.5119e-11
4.22599e-11
4.5763e-11
4.49741e-11
4.31356e-11
4.2682e-11
4.26297e-11
4.19998e-11
4.22579e-11
4.20287e-11
2.81379e-11
2.81379e-11
2.97806e-11
2.7958e-11
3.04574e-11
2.848e-11
3.15569e-11
3.10697e-11
3.25703e-11
3.54919e-11
3.0231e-11
)
;
    }
}


// ************************************************************************* //
