/*--------------------------------*- C++ -*----------------------------------*\
| =========                 |                                                 |
| \\      /  F ield         | OpenFOAM: The Open Source CFD Toolbox           |
|  \\    /   O peration     | Version:  dev                                   |
|   \\  /    A nd           | Web:      www.OpenFOAM.org                      |
|    \\/     M anipulation  |                                                 |
\*---------------------------------------------------------------------------*/
FoamFile
{
    version     2.0;
    format      ascii;
    class       volScalarField;
    location    "0.15";
    object      CH4;
}
// * * * * * * * * * * * * * * * * * * * * * * * * * * * * * * * * * * * * * //

dimensions      [0 0 0 0 0 0 0];

internalField   nonuniform List<scalar> 
50
(
1.42267e-08
1.16719e-08
9.5893e-09
7.88854e-09
6.49735e-09
5.35775e-09
4.42304e-09
3.65549e-09
3.02454e-09
2.50537e-09
2.07781e-09
1.72539e-09
1.43468e-09
1.19471e-09
9.96479e-10
8.32617e-10
6.97078e-10
5.84893e-10
4.91976e-10
4.14965e-10
3.51091e-10
2.98072e-10
2.54028e-10
2.17405e-10
1.86923e-10
1.61525e-10
1.40337e-10
1.22639e-10
1.07834e-10
9.54312e-11
8.5023e-11
7.62735e-11
6.8905e-11
6.26879e-11
5.74321e-11
5.29806e-11
4.92032e-11
4.59922e-11
4.32581e-11
4.09269e-11
3.89369e-11
3.72367e-11
3.57838e-11
3.45423e-11
3.34944e-11
3.25984e-11
3.18342e-11
3.11898e-11
3.06507e-11
3.02043e-11
)
;

boundaryField
{
    wall
    {
        type            zeroGradient;
    }
    fuel
    {
        type            fixedValue;
        value           nonuniform 0();
    }
    outlet
    {
        type            inletOutlet;
        inletValue      nonuniform 0();
        value           nonuniform 0();
    }
    procBoundary1to0
    {
        type            processor;
        value           uniform 1.68555e-08;
    }
    procBoundary1to2
    {
        type            processor;
        value           uniform 2.98532e-11;
    }
}


// ************************************************************************* //
