/*--------------------------------*- C++ -*----------------------------------*\
| =========                 |                                                 |
| \\      /  F ield         | OpenFOAM: The Open Source CFD Toolbox           |
|  \\    /   O peration     | Version:  dev                                   |
|   \\  /    A nd           | Web:      www.OpenFOAM.org                      |
|    \\/     M anipulation  |                                                 |
\*---------------------------------------------------------------------------*/
FoamFile
{
    version     2.0;
    format      ascii;
    class       volScalarField;
    location    "0.15";
    object      H2C4O;
}
// * * * * * * * * * * * * * * * * * * * * * * * * * * * * * * * * * * * * * //

dimensions      [0 0 0 0 0 0 0];

internalField   nonuniform List<scalar> 
250
(
8.78119e-07
8.02078e-07
7.43926e-07
7.14876e-07
7.00763e-07
6.97065e-07
6.96341e-07
6.94692e-07
6.95096e-07
6.94501e-07
8.14237e-07
7.46753e-07
6.97085e-07
6.71687e-07
6.58845e-07
6.55437e-07
6.54732e-07
6.5297e-07
6.53451e-07
6.5279e-07
6.50663e-07
6.5636e-07
6.50057e-07
6.58773e-07
6.5238e-07
6.64999e-07
6.71185e-07
7.02479e-07
7.70851e-07
8.67282e-07
7.48004e-07
6.88294e-07
6.4596e-07
6.23802e-07
6.12052e-07
6.08973e-07
6.08267e-07
6.06405e-07
6.06962e-07
6.06243e-07
6.04018e-07
6.10118e-07
6.03327e-07
6.12558e-07
6.05641e-07
6.18259e-07
6.23106e-07
6.50491e-07
7.09869e-07
7.89783e-07
6.78434e-07
6.25774e-07
5.89766e-07
5.70555e-07
5.59741e-07
5.57082e-07
5.56321e-07
5.54394e-07
5.55017e-07
5.54256e-07
5.51941e-07
5.58348e-07
5.51157e-07
5.60766e-07
5.53429e-07
5.66021e-07
5.69681e-07
5.93585e-07
6.4521e-07
7.11227e-07
6.05173e-07
5.58674e-07
5.28545e-07
5.11333e-07
5.0221e-07
4.98995e-07
4.99215e-07
4.973e-07
4.97959e-07
4.97187e-07
4.94849e-07
5.01309e-07
4.93989e-07
5.03452e-07
4.96149e-07
5.0843e-07
5.10194e-07
5.31733e-07
5.76449e-07
6.31005e-07
5.2957e-07
4.89362e-07
4.64259e-07
4.49687e-07
4.41734e-07
4.38986e-07
4.392e-07
4.37418e-07
4.38057e-07
4.37327e-07
4.3511e-07
4.4122e-07
4.34238e-07
4.43142e-07
4.36182e-07
4.47509e-07
4.48465e-07
4.66817e-07
5.04853e-07
5.47768e-07
4.55872e-07
4.21973e-07
4.01545e-07
3.89671e-07
3.83149e-07
3.80936e-07
3.81121e-07
3.79623e-07
3.8017e-07
3.79544e-07
3.77654e-07
3.82882e-07
3.76872e-07
3.84482e-07
3.78474e-07
3.87961e-07
3.88497e-07
4.03414e-07
4.34522e-07
4.69407e-07
3.90896e-07
3.63424e-07
3.47294e-07
3.38108e-07
3.33247e-07
3.31577e-07
3.31696e-07
3.30601e-07
3.30997e-07
3.30521e-07
3.29132e-07
3.33006e-07
3.28543e-07
3.34158e-07
3.29716e-07
3.36637e-07
3.37145e-07
3.4845e-07
3.72355e-07
4.00443e-07
3.41618e-07
3.20265e-07
3.0783e-07
3.01095e-07
2.97747e-07
2.96589e-07
2.96621e-07
2.95936e-07
2.96175e-07
2.95844e-07
2.94992e-07
2.97401e-07
2.94639e-07
2.98101e-07
2.95398e-07
2.99699e-07
3.00391e-07
3.08399e-07
3.25501e-07
3.47861e-07
3.10759e-07
2.94477e-07
2.84895e-07
2.8005e-07
2.77801e-07
2.77025e-07
2.76981e-07
2.76595e-07
2.76725e-07
2.76485e-07
2.76044e-07
2.77329e-07
2.75888e-07
2.77708e-07
2.7635e-07
2.78727e-07
2.79551e-07
2.85149e-07
2.9682e-07
3.14499e-07
2.94924e-07
2.8231e-07
2.74739e-07
2.71191e-07
2.69558e-07
2.6902e-07
2.68929e-07
2.687e-07
2.68785e-07
2.68571e-07
2.68363e-07
2.69029e-07
2.6833e-07
2.69244e-07
2.68629e-07
2.69983e-07
2.70781e-07
2.74951e-07
2.8294e-07
2.96968e-07
2.87946e-07
2.77719e-07
2.71502e-07
2.68728e-07
2.67413e-07
2.66993e-07
2.66883e-07
2.66711e-07
2.66794e-07
2.66563e-07
2.66457e-07
2.66881e-07
2.66483e-07
2.67035e-07
2.66716e-07
2.67673e-07
2.6835e-07
2.71784e-07
2.77572e-07
2.88941e-07
2.84835e-07
2.75969e-07
2.70565e-07
2.68211e-07
2.67056e-07
2.66695e-07
2.66579e-07
2.66425e-07
2.66516e-07
2.66264e-07
2.66201e-07
2.66536e-07
2.66255e-07
2.66666e-07
2.66465e-07
2.67264e-07
2.67854e-07
2.70894e-07
2.75522e-07
2.85239e-07
)
;

boundaryField
{
    fuel
    {
        type            fixedValue;
        value           nonuniform 0();
    }
    wall
    {
        type            zeroGradient;
    }
    outlet
    {
        type            zeroGradient;
    }
    frontAndBack
    {
        type            empty;
    }
    procBoundary1to0
    {
        type            processor;
        value           nonuniform List<scalar> 
21
(
9.40661e-07
8.55371e-07
7.87439e-07
7.54243e-07
7.38699e-07
7.34719e-07
7.33969e-07
7.32441e-07
7.32769e-07
7.32246e-07
6.92452e-07
6.92452e-07
6.97752e-07
6.9191e-07
7.00166e-07
6.94234e-07
7.06966e-07
7.14584e-07
7.50379e-07
8.29188e-07
9.44978e-07
)
;
    }
}


// ************************************************************************* //
