/*--------------------------------*- C++ -*----------------------------------*\
| =========                 |                                                 |
| \\      /  F ield         | OpenFOAM: The Open Source CFD Toolbox           |
|  \\    /   O peration     | Version:  dev                                   |
|   \\  /    A nd           | Web:      www.OpenFOAM.org                      |
|    \\/     M anipulation  |                                                 |
\*---------------------------------------------------------------------------*/
FoamFile
{
    version     2.0;
    format      ascii;
    class       volScalarField;
    location    "0.15";
    object      HCCO;
}
// * * * * * * * * * * * * * * * * * * * * * * * * * * * * * * * * * * * * * //

dimensions      [0 0 0 0 0 0 0];

internalField   nonuniform List<scalar> 
250
(
8.18957e-08
8.60415e-08
8.7021e-08
8.42996e-08
8.11115e-08
8.03172e-08
8.02123e-08
7.92623e-08
7.96437e-08
7.92936e-08
6.30501e-08
6.45452e-08
6.45705e-08
6.2296e-08
5.9823e-08
5.92117e-08
5.91265e-08
5.83718e-08
5.86793e-08
5.83996e-08
5.74975e-08
6.01432e-08
5.72038e-08
6.11984e-08
5.80349e-08
6.29621e-08
6.24325e-08
6.59299e-08
7.25745e-08
6.74421e-08
4.69482e-08
4.69474e-08
4.65013e-08
4.47184e-08
4.28573e-08
4.24194e-08
4.23406e-08
4.17642e-08
4.20022e-08
4.17868e-08
4.10947e-08
4.31335e-08
4.08645e-08
4.39237e-08
4.1487e-08
4.51936e-08
4.47805e-08
4.74445e-08
5.28132e-08
4.98834e-08
3.37429e-08
3.30526e-08
3.24447e-08
3.11386e-08
2.97718e-08
2.94957e-08
2.94066e-08
2.89845e-08
2.9161e-08
2.90015e-08
2.84901e-08
2.99934e-08
2.83145e-08
3.05617e-08
2.87608e-08
3.1452e-08
3.11459e-08
3.30969e-08
3.7191e-08
3.58008e-08
2.33522e-08
2.24235e-08
2.18828e-08
2.08678e-08
2.00114e-08
1.97048e-08
1.97682e-08
1.94728e-08
1.95979e-08
1.94846e-08
1.91217e-08
2.01773e-08
1.8992e-08
2.05398e-08
1.92977e-08
2.11768e-08
2.08258e-08
2.23259e-08
2.52869e-08
2.48866e-08
1.55042e-08
1.46628e-08
1.42218e-08
1.35409e-08
1.29723e-08
1.27733e-08
1.28172e-08
1.26194e-08
1.27041e-08
1.26269e-08
1.238e-08
1.30892e-08
1.22878e-08
1.33227e-08
1.24886e-08
1.37472e-08
1.34887e-08
1.45151e-08
1.6543e-08
1.64943e-08
9.80896e-09
9.15443e-09
8.83729e-09
8.40354e-09
8.04304e-09
7.91976e-09
7.94879e-09
7.82218e-09
7.87684e-09
7.82657e-09
7.66574e-09
8.12421e-09
7.60291e-09
8.27242e-09
7.72932e-09
8.53612e-09
8.35478e-09
9.02456e-09
1.03407e-08
1.05541e-08
5.8158e-09
5.36047e-09
5.15621e-09
4.89424e-09
4.68096e-09
4.60727e-09
4.62562e-09
4.54895e-09
4.58225e-09
4.55132e-09
4.45186e-09
4.73519e-09
4.41114e-09
4.82436e-09
4.48664e-09
4.97734e-09
4.85707e-09
5.26955e-09
6.07645e-09
6.37066e-09
3.1231e-09
2.84175e-09
2.72635e-09
2.58116e-09
2.46619e-09
2.42557e-09
2.43635e-09
2.39384e-09
2.41233e-09
2.39501e-09
2.33853e-09
2.50025e-09
2.31426e-09
2.54907e-09
2.35561e-09
2.62981e-09
2.55688e-09
2.78899e-09
3.24685e-09
3.53329e-09
1.44946e-09
1.30188e-09
1.24747e-09
1.17785e-09
1.12506e-09
1.10558e-09
1.11104e-09
1.09081e-09
1.09959e-09
1.09129e-09
1.06374e-09
1.14328e-09
1.05134e-09
1.16615e-09
1.07083e-09
1.2027e-09
1.165e-09
1.27734e-09
1.50694e-09
1.75582e-09
5.4838e-10
4.81785e-10
4.59755e-10
4.32339e-10
4.12452e-10
4.04818e-10
4.07033e-10
3.9924e-10
4.02607e-10
3.99336e-10
3.88443e-10
4.20255e-10
3.83294e-10
4.28936e-10
3.90746e-10
4.42392e-10
4.26659e-10
4.72019e-10
5.73988e-10
7.92344e-10
1.47308e-10
1.21e-10
1.13673e-10
1.06429e-10
1.01584e-10
9.96316e-11
1.00188e-10
9.82639e-11
9.90989e-11
9.82393e-11
9.55118e-11
1.03614e-10
9.41752e-11
1.05732e-10
9.60091e-11
1.08967e-10
1.04887e-10
1.17744e-10
1.60665e-10
3.76403e-10
4.97557e-11
2.76957e-11
2.24798e-11
2.07865e-11
1.99278e-11
1.96108e-11
1.96793e-11
1.93681e-11
1.95155e-11
1.9336e-11
1.8919e-11
2.02126e-11
1.87155e-11
2.05455e-11
1.9006e-11
2.10947e-11
2.04966e-11
2.48562e-11
6.1935e-11
3.94785e-10
)
;

boundaryField
{
    fuel
    {
        type            fixedValue;
        value           nonuniform 0();
    }
    wall
    {
        type            zeroGradient;
    }
    outlet
    {
        type            zeroGradient;
    }
    frontAndBack
    {
        type            empty;
    }
    procBoundary1to0
    {
        type            processor;
        value           nonuniform List<scalar> 
21
(
1.03062e-07
1.11326e-07
1.14016e-07
1.10947e-07
1.06997e-07
1.06015e-07
1.05881e-07
1.04731e-07
1.05184e-07
1.04763e-07
7.81603e-08
7.81603e-08
8.14601e-08
7.78009e-08
8.28237e-08
7.88799e-08
8.51641e-08
8.45715e-08
8.8921e-08
9.68051e-08
8.86533e-08
)
;
    }
}


// ************************************************************************* //
