/*--------------------------------*- C++ -*----------------------------------*\
| =========                 |                                                 |
| \\      /  F ield         | OpenFOAM: The Open Source CFD Toolbox           |
|  \\    /   O peration     | Version:  dev                                   |
|   \\  /    A nd           | Web:      www.OpenFOAM.org                      |
|    \\/     M anipulation  |                                                 |
\*---------------------------------------------------------------------------*/
FoamFile
{
    version     2.0;
    format      ascii;
    class       volScalarField;
    location    "0.15";
    object      i-C6H7;
}
// * * * * * * * * * * * * * * * * * * * * * * * * * * * * * * * * * * * * * //

dimensions      [0 0 0 0 0 0 0];

internalField   nonuniform List<scalar> 
250
(
9.25137e-15
7.19716e-15
6.88937e-15
6.76015e-15
6.77154e-15
7.13693e-15
6.82832e-15
7.28165e-15
6.90942e-15
7.24882e-15
1.31974e-14
1.10964e-14
1.31615e-14
1.31896e-14
1.34671e-14
1.49473e-14
1.37856e-14
1.54975e-14
1.41252e-14
1.53861e-14
1.49153e-14
1.47122e-14
1.48919e-14
1.46151e-14
1.45051e-14
1.44618e-14
1.31471e-14
1.32267e-14
1.21828e-14
1.18068e-14
2.87384e-14
2.6047e-14
3.34468e-14
3.38883e-14
3.46653e-14
3.86866e-14
3.55229e-14
4.01026e-14
3.6431e-14
3.97907e-14
3.85475e-14
3.80152e-14
3.8487e-14
3.77733e-14
3.74786e-14
3.73526e-14
3.37207e-14
3.37171e-14
3.00785e-14
2.8004e-14
7.01439e-14
6.72194e-14
8.50034e-14
8.64598e-14
8.79432e-14
9.65598e-14
8.96575e-14
9.94033e-14
9.15428e-14
9.86805e-14
9.60642e-14
9.49553e-14
9.59427e-14
9.45145e-14
9.38946e-14
9.36551e-14
8.58852e-14
8.56846e-14
7.67643e-14
7.03554e-14
1.59216e-13
1.58749e-13
1.9168e-13
1.96297e-13
1.98491e-13
2.11419e-13
2.01265e-13
2.15777e-13
2.02536e-13
2.14421e-13
2.10118e-13
2.08314e-13
2.09935e-13
2.07774e-13
2.0676e-13
2.06461e-13
1.94794e-13
1.92987e-13
1.76071e-13
1.61267e-13
3.14892e-13
3.21372e-13
3.66749e-13
3.73646e-13
3.75411e-13
3.91255e-13
3.77878e-13
3.95861e-13
3.79504e-13
3.93898e-13
3.88788e-13
3.86669e-13
3.88615e-13
3.86446e-13
3.85267e-13
3.8514e-13
3.71159e-13
3.68608e-13
3.44606e-13
3.21359e-13
5.15047e-13
5.39327e-13
5.79274e-13
5.86862e-13
5.86492e-13
5.96733e-13
5.86425e-13
5.98578e-13
5.8676e-13
5.96568e-13
5.93271e-13
5.91917e-13
5.93274e-13
5.9267e-13
5.91994e-13
5.92439e-13
5.84051e-13
5.80977e-13
5.58321e-13
5.26502e-13
6.83092e-13
7.25885e-13
7.32006e-13
7.36727e-13
7.32943e-13
7.27787e-13
7.28545e-13
7.2392e-13
7.26165e-13
7.2285e-13
7.244e-13
7.2501e-13
7.24748e-13
7.27091e-13
7.27712e-13
7.28993e-13
7.35069e-13
7.32508e-13
7.2487e-13
6.9657e-13
7.01132e-13
7.49396e-13
7.09802e-13
7.09479e-13
7.03229e-13
6.82295e-13
6.95661e-13
6.73352e-13
6.91013e-13
6.73767e-13
6.80296e-13
6.82842e-13
6.8095e-13
6.85651e-13
6.87626e-13
6.89432e-13
7.09943e-13
7.0889e-13
7.22059e-13
7.10209e-13
5.31364e-13
5.6704e-13
5.09529e-13
5.06243e-13
5.00582e-13
4.768e-13
4.93701e-13
4.67644e-13
4.89205e-13
4.68866e-13
4.76352e-13
4.79212e-13
4.77023e-13
4.81522e-13
4.83775e-13
4.85335e-13
5.07969e-13
5.08212e-13
5.30003e-13
5.33315e-13
2.93036e-13
3.09338e-13
2.68795e-13
2.65473e-13
2.62364e-13
2.46975e-13
2.58424e-13
2.41323e-13
2.55751e-13
2.42335e-13
2.47194e-13
2.49052e-13
2.47659e-13
2.50278e-13
2.51802e-13
2.52707e-13
2.67055e-13
2.67789e-13
2.83818e-13
2.91318e-13
1.40342e-13
1.44753e-13
1.29045e-13
1.26279e-13
1.25712e-13
1.18776e-13
1.23846e-13
1.1645e-13
1.22664e-13
1.16897e-13
1.18929e-13
1.19875e-13
1.19213e-13
1.20346e-13
1.21052e-13
1.21453e-13
1.27498e-13
1.27841e-13
1.34822e-13
1.38559e-13
1.39642e-13
1.37742e-13
1.28956e-13
1.22611e-13
1.24215e-13
1.16771e-13
1.21831e-13
1.14967e-13
1.20569e-13
1.15404e-13
1.17062e-13
1.18366e-13
1.17513e-13
1.18663e-13
1.1939e-13
1.19769e-13
1.25234e-13
1.25459e-13
1.32424e-13
1.36293e-13
)
;

boundaryField
{
    fuel
    {
        type            fixedValue;
        value           nonuniform 0();
    }
    wall
    {
        type            zeroGradient;
    }
    outlet
    {
        type            zeroGradient;
    }
    frontAndBack
    {
        type            empty;
    }
    procBoundary1to0
    {
        type            processor;
        value           nonuniform List<scalar> 
21
(
9.9374e-15
7.34298e-15
5.91545e-15
5.69382e-15
5.57506e-15
5.51529e-15
5.51772e-15
5.49827e-15
5.49694e-15
5.49108e-15
7.11994e-15
7.11994e-15
7.06551e-15
7.11422e-15
7.04245e-15
7.01604e-15
7.01692e-15
6.73448e-15
6.85762e-15
6.88089e-15
7.02496e-15
)
;
    }
}


// ************************************************************************* //
