/*--------------------------------*- C++ -*----------------------------------*\
| =========                 |                                                 |
| \\      /  F ield         | OpenFOAM: The Open Source CFD Toolbox           |
|  \\    /   O peration     | Version:  dev                                   |
|   \\  /    A nd           | Web:      www.OpenFOAM.org                      |
|    \\/     M anipulation  |                                                 |
\*---------------------------------------------------------------------------*/
FoamFile
{
    version     2.0;
    format      ascii;
    class       volScalarField;
    location    "0.15";
    object      l-C6H6;
}
// * * * * * * * * * * * * * * * * * * * * * * * * * * * * * * * * * * * * * //

dimensions      [0 0 0 0 0 0 0];

internalField   nonuniform List<scalar> 
250
(
6.59999e-10
5.75765e-10
5.23463e-10
5.02685e-10
4.95778e-10
4.93717e-10
4.93448e-10
4.93616e-10
4.93205e-10
4.93488e-10
6.7833e-10
6.12731e-10
5.71991e-10
5.64962e-10
5.72921e-10
5.73993e-10
5.74322e-10
5.79849e-10
5.76965e-10
5.79462e-10
5.86925e-10
5.65723e-10
5.90171e-10
5.59755e-10
5.84845e-10
5.541e-10
5.66627e-10
5.6989e-10
6.24739e-10
8.67367e-10
9.13065e-10
8.77334e-10
8.50871e-10
8.67857e-10
9.04999e-10
9.11509e-10
9.13149e-10
9.2978e-10
9.21594e-10
9.28793e-10
9.51138e-10
8.88038e-10
9.60707e-10
8.69192e-10
9.44163e-10
8.46414e-10
8.71791e-10
8.35063e-10
8.06084e-10
1.00868e-09
1.60651e-09
1.63402e-09
1.6359e-09
1.69858e-09
1.7931e-09
1.80888e-09
1.81327e-09
1.85169e-09
1.83286e-09
1.84948e-09
1.90169e-09
1.75549e-09
1.92466e-09
1.71308e-09
1.887e-09
1.65597e-09
1.71053e-09
1.59465e-09
1.42122e-09
1.61622e-09
3.24091e-09
3.41448e-09
3.46731e-09
3.64176e-09
3.81177e-09
3.88413e-09
3.85123e-09
3.92816e-09
3.89011e-09
3.92376e-09
4.03003e-09
3.73438e-09
4.07849e-09
3.65673e-09
4.00494e-09
3.53293e-09
3.67819e-09
3.38052e-09
2.94686e-09
3.14063e-09
6.63907e-09
7.07355e-09
7.23458e-09
7.55872e-09
7.87116e-09
7.98558e-09
7.93835e-09
8.07306e-09
8.00557e-09
8.06535e-09
8.25457e-09
7.72733e-09
8.34404e-09
7.59053e-09
8.21876e-09
7.37669e-09
7.63563e-09
7.07755e-09
6.22051e-09
6.46755e-09
1.28741e-08
1.37109e-08
1.40287e-08
1.4545e-08
1.50194e-08
1.51844e-08
1.51155e-08
1.53163e-08
1.52137e-08
1.53047e-08
1.55922e-08
1.47836e-08
1.57332e-08
1.45788e-08
1.55522e-08
1.42717e-08
1.46792e-08
1.37906e-08
1.2373e-08
1.25106e-08
2.27168e-08
2.39944e-08
2.44653e-08
2.51426e-08
2.57163e-08
2.59172e-08
2.58287e-08
2.60727e-08
2.59438e-08
2.60583e-08
2.64168e-08
2.53935e-08
2.65997e-08
2.51476e-08
2.63875e-08
2.47941e-08
2.5325e-08
2.41783e-08
2.22536e-08
2.21564e-08
3.55142e-08
3.70248e-08
3.75456e-08
3.8235e-08
3.87627e-08
3.89497e-08
3.88565e-08
3.90846e-08
3.89555e-08
3.90707e-08
3.94187e-08
3.84038e-08
3.96045e-08
3.81818e-08
3.94162e-08
3.78805e-08
3.84216e-08
3.72927e-08
3.52424e-08
3.48541e-08
4.8421e-08
4.97568e-08
5.01731e-08
5.06837e-08
5.10192e-08
5.11396e-08
5.10623e-08
5.1214e-08
5.11123e-08
5.12044e-08
5.14526e-08
5.07038e-08
5.15927e-08
5.05676e-08
5.148e-08
5.04042e-08
5.08154e-08
5.00282e-08
4.84062e-08
4.78458e-08
5.77529e-08
5.86271e-08
5.88661e-08
5.91137e-08
5.9241e-08
5.928e-08
5.92286e-08
5.92926e-08
5.92243e-08
5.92892e-08
5.94125e-08
5.90107e-08
5.94875e-08
5.89678e-08
5.94568e-08
5.89369e-08
5.91747e-08
5.88131e-08
5.79033e-08
5.73798e-08
6.19339e-08
6.24152e-08
6.25383e-08
6.26092e-08
6.26312e-08
6.26212e-08
6.25896e-08
6.26052e-08
6.25535e-08
6.26078e-08
6.26552e-08
6.24649e-08
6.26861e-08
6.24701e-08
6.27009e-08
6.24911e-08
6.26364e-08
6.24896e-08
6.21149e-08
6.17006e-08
6.28686e-08
6.31944e-08
6.32905e-08
6.3304e-08
6.33105e-08
6.32867e-08
6.32639e-08
6.32685e-08
6.32179e-08
6.32759e-08
6.32999e-08
6.31696e-08
6.33145e-08
6.31839e-08
6.3341e-08
6.31992e-08
6.33335e-08
6.31972e-08
6.30399e-08
6.26574e-08
)
;

boundaryField
{
    fuel
    {
        type            fixedValue;
        value           nonuniform 0();
    }
    wall
    {
        type            zeroGradient;
    }
    outlet
    {
        type            zeroGradient;
    }
    frontAndBack
    {
        type            empty;
    }
    procBoundary1to0
    {
        type            processor;
        value           nonuniform List<scalar> 
21
(
7.45637e-10
6.43702e-10
5.76914e-10
5.46415e-10
5.31288e-10
5.27353e-10
5.26767e-10
5.24435e-10
5.25113e-10
5.24394e-10
4.93914e-10
4.93914e-10
4.92659e-10
4.94344e-10
4.93128e-10
4.94686e-10
4.96492e-10
5.04181e-10
5.29741e-10
6.43928e-10
9.6996e-10
)
;
    }
}


// ************************************************************************* //
