/*--------------------------------*- C++ -*----------------------------------*\
| =========                 |                                                 |
| \\      /  F ield         | OpenFOAM: The Open Source CFD Toolbox           |
|  \\    /   O peration     | Version:  dev                                   |
|   \\  /    A nd           | Web:      www.OpenFOAM.org                      |
|    \\/     M anipulation  |                                                 |
\*---------------------------------------------------------------------------*/
FoamFile
{
    version     2.0;
    format      ascii;
    class       volScalarField;
    location    "0.15";
    object      l-C6H6;
}
// * * * * * * * * * * * * * * * * * * * * * * * * * * * * * * * * * * * * * //

dimensions      [0 0 0 0 0 0 0];

internalField   nonuniform List<scalar> 
250
(
9.18416e-10
6.48588e-10
5.29707e-10
5.05672e-10
4.96768e-10
4.94985e-10
4.93627e-10
4.94723e-10
4.93089e-10
4.94249e-10
8.39212e-10
6.24692e-10
5.79216e-10
5.60442e-10
5.59401e-10
5.80422e-10
5.62814e-10
5.88848e-10
5.68027e-10
5.87215e-10
5.80001e-10
5.76719e-10
5.79732e-10
5.75207e-10
5.7385e-10
5.74578e-10
5.59779e-10
5.76184e-10
6.03059e-10
6.61332e-10
9.96138e-10
7.94914e-10
8.64197e-10
8.50056e-10
8.61613e-10
9.29794e-10
8.76743e-10
9.55575e-10
8.93584e-10
9.51075e-10
9.29741e-10
9.20161e-10
9.28681e-10
9.15123e-10
9.10339e-10
9.09055e-10
8.49616e-10
8.65316e-10
8.45222e-10
8.8278e-10
1.62058e-09
1.38742e-09
1.66437e-09
1.65775e-09
1.69017e-09
1.85251e-09
1.72635e-09
1.91144e-09
1.76583e-09
1.90053e-09
1.85084e-09
1.82885e-09
1.84824e-09
1.81752e-09
1.80603e-09
1.80141e-09
1.6546e-09
1.67171e-09
1.56096e-09
1.55026e-09
3.17979e-09
2.87011e-09
3.52571e-09
3.56184e-09
3.63087e-09
3.93404e-09
3.70761e-09
4.05006e-09
3.75089e-09
4.02637e-09
3.9253e-09
3.88111e-09
3.91989e-09
3.85982e-09
3.83625e-09
3.82642e-09
3.54711e-09
3.54344e-09
3.26118e-09
3.14005e-09
6.52964e-09
6.07133e-09
7.34329e-09
7.4266e-09
7.54202e-09
8.09144e-09
7.66897e-09
8.29184e-09
7.75275e-09
8.24672e-09
8.06667e-09
7.98862e-09
8.05687e-09
7.95478e-09
7.91259e-09
7.89599e-09
7.39052e-09
7.37657e-09
6.81203e-09
6.54731e-09
1.26368e-08
1.21252e-08
1.42071e-08
1.43573e-08
1.45215e-08
1.53587e-08
1.46973e-08
1.56536e-08
1.48222e-08
1.55799e-08
1.53061e-08
1.51878e-08
1.52909e-08
1.51442e-08
1.50798e-08
1.50578e-08
1.42894e-08
1.42567e-08
1.33237e-08
1.27456e-08
2.23343e-08
2.19154e-08
2.47151e-08
2.49202e-08
2.51108e-08
2.6149e-08
2.53011e-08
2.65029e-08
2.54474e-08
2.64035e-08
2.60619e-08
2.59135e-08
2.60427e-08
2.58723e-08
2.57924e-08
2.57719e-08
2.4822e-08
2.47693e-08
2.35213e-08
2.25854e-08
3.50479e-08
3.48855e-08
3.78313e-08
3.80297e-08
3.81992e-08
3.91906e-08
3.83413e-08
3.95165e-08
3.8467e-08
3.94108e-08
3.90794e-08
3.89307e-08
3.90603e-08
3.89107e-08
3.88356e-08
3.8828e-08
3.79258e-08
3.78665e-08
3.65766e-08
3.54255e-08
4.79987e-08
4.8137e-08
5.04244e-08
5.05442e-08
5.06456e-08
5.13275e-08
5.06937e-08
5.15383e-08
5.07614e-08
5.14535e-08
5.12181e-08
5.1101e-08
5.12038e-08
5.11138e-08
5.10663e-08
5.10799e-08
5.04683e-08
5.04271e-08
4.94519e-08
4.83978e-08
5.74622e-08
5.77695e-08
5.90205e-08
5.90517e-08
5.90717e-08
5.93891e-08
5.90401e-08
5.94688e-08
5.90499e-08
5.94185e-08
5.93027e-08
5.92236e-08
5.92941e-08
5.92634e-08
5.92503e-08
5.92824e-08
5.90138e-08
5.90088e-08
5.8489e-08
5.77691e-08
6.17383e-08
6.2064e-08
6.2585e-08
6.25958e-08
6.25541e-08
6.26783e-08
6.2499e-08
6.26837e-08
6.24831e-08
6.26584e-08
6.2614e-08
6.25521e-08
6.26071e-08
6.26034e-08
6.26104e-08
6.26502e-08
6.25717e-08
6.2596e-08
6.23642e-08
6.19396e-08
6.26868e-08
6.30022e-08
6.32642e-08
6.33087e-08
6.32341e-08
6.33263e-08
6.31899e-08
6.33123e-08
6.31726e-08
6.32965e-08
6.32727e-08
6.32091e-08
6.32637e-08
6.32625e-08
6.3274e-08
6.33135e-08
6.32769e-08
6.33106e-08
6.31543e-08
6.28431e-08
)
;

boundaryField
{
    fuel
    {
        type            fixedValue;
        value           nonuniform 0();
    }
    wall
    {
        type            zeroGradient;
    }
    outlet
    {
        type            zeroGradient;
    }
    frontAndBack
    {
        type            empty;
    }
    procBoundary1to0
    {
        type            processor;
        value           nonuniform List<scalar> 
21
(
1.12396e-09
7.62198e-10
5.85118e-10
5.5374e-10
5.39396e-10
5.26437e-10
5.323e-10
5.21872e-10
5.28878e-10
5.21801e-10
4.93696e-10
4.93696e-10
4.93479e-10
4.93841e-10
4.93847e-10
4.9423e-10
4.96257e-10
5.0396e-10
5.23008e-10
5.78012e-10
6.4763e-10
)
;
    }
}


// ************************************************************************* //
