/*--------------------------------*- C++ -*----------------------------------*\
| =========                 |                                                 |
| \\      /  F ield         | OpenFOAM: The Open Source CFD Toolbox           |
|  \\    /   O peration     | Version:  dev                                   |
|   \\  /    A nd           | Web:      www.OpenFOAM.org                      |
|    \\/     M anipulation  |                                                 |
\*---------------------------------------------------------------------------*/
FoamFile
{
    version     2.0;
    format      ascii;
    class       volScalarField;
    location    "0.15";
    object      O;
}
// * * * * * * * * * * * * * * * * * * * * * * * * * * * * * * * * * * * * * //

dimensions      [0 0 0 0 0 0 0];

internalField   nonuniform List<scalar> 
50
(
2.28121e-05
2.22669e-05
2.17223e-05
2.11792e-05
2.06383e-05
2.01002e-05
1.95657e-05
1.90354e-05
1.85098e-05
1.79896e-05
1.74751e-05
1.69668e-05
1.64652e-05
1.59706e-05
1.54834e-05
1.50039e-05
1.45323e-05
1.4069e-05
1.3614e-05
1.31677e-05
1.27301e-05
1.23015e-05
1.18819e-05
1.14714e-05
1.10702e-05
1.06782e-05
1.02955e-05
9.92205e-06
9.55797e-06
9.20319e-06
8.85769e-06
8.52144e-06
8.19439e-06
7.87647e-06
7.56762e-06
7.26774e-06
6.97675e-06
6.69453e-06
6.42098e-06
6.15598e-06
5.89937e-06
5.65101e-06
5.41074e-06
5.17837e-06
4.95625e-06
4.74076e-06
4.53153e-06
4.32979e-06
4.13535e-06
3.94803e-06
)
;

boundaryField
{
    wall
    {
        type            zeroGradient;
    }
    fuel
    {
        type            fixedValue;
        value           nonuniform 0();
    }
    outlet
    {
        type            inletOutlet;
        inletValue      nonuniform 0();
        value           nonuniform 0();
    }
    procBoundary1to0
    {
        type            processor;
        value           uniform 2.3357e-05;
    }
    procBoundary1to2
    {
        type            processor;
        value           uniform 3.76764e-06;
    }
}


// ************************************************************************* //
