/*--------------------------------*- C++ -*----------------------------------*\
| =========                 |                                                 |
| \\      /  F ield         | OpenFOAM: The Open Source CFD Toolbox           |
|  \\    /   O peration     | Version:  dev                                   |
|   \\  /    A nd           | Web:      www.OpenFOAM.org                      |
|    \\/     M anipulation  |                                                 |
\*---------------------------------------------------------------------------*/
FoamFile
{
    version     2.0;
    format      ascii;
    class       volScalarField;
    location    "0.15";
    object      O2;
}
// * * * * * * * * * * * * * * * * * * * * * * * * * * * * * * * * * * * * * //

dimensions      [0 0 0 0 0 0 0];

internalField   nonuniform List<scalar> 
50
(
1.07519e-05
1.04959e-05
1.02393e-05
9.98293e-06
9.72726e-06
9.47282e-06
9.21998e-06
8.96908e-06
8.72042e-06
8.47427e-06
8.23087e-06
7.99044e-06
7.75319e-06
7.51928e-06
7.28889e-06
7.06216e-06
6.83922e-06
6.62019e-06
6.40518e-06
6.19427e-06
5.98754e-06
5.78506e-06
5.58688e-06
5.39304e-06
5.20358e-06
5.01852e-06
4.83788e-06
4.66168e-06
4.4899e-06
4.32254e-06
4.15959e-06
4.00104e-06
3.84685e-06
3.697e-06
3.55145e-06
3.41016e-06
3.27309e-06
3.14017e-06
3.01137e-06
2.88662e-06
2.76585e-06
2.64899e-06
2.53596e-06
2.42667e-06
2.32223e-06
2.22093e-06
2.12259e-06
2.02775e-06
1.93628e-06
1.84803e-06
)
;

boundaryField
{
    wall
    {
        type            zeroGradient;
    }
    fuel
    {
        type            fixedValue;
        value           nonuniform 0();
    }
    outlet
    {
        type            inletOutlet;
        inletValue      nonuniform 0();
        value           nonuniform 0();
    }
    procBoundary1to0
    {
        type            processor;
        value           uniform 1.101e-05;
    }
    procBoundary1to2
    {
        type            processor;
        value           uniform 1.76327e-06;
    }
}


// ************************************************************************* //
