/*--------------------------------*- C++ -*----------------------------------*\
| =========                 |                                                 |
| \\      /  F ield         | OpenFOAM: The Open Source CFD Toolbox           |
|  \\    /   O peration     | Version:  dev                                   |
|   \\  /    A nd           | Web:      www.OpenFOAM.org                      |
|    \\/     M anipulation  |                                                 |
\*---------------------------------------------------------------------------*/
FoamFile
{
    version     2.0;
    format      ascii;
    class       surfaceScalarField;
    location    "0.15";
    object      phi;
}
// * * * * * * * * * * * * * * * * * * * * * * * * * * * * * * * * * * * * * //

dimensions      [1 0 -1 0 0 0 0];

internalField   nonuniform List<scalar> 
467
(
-2.11432e-06
4.47926e-06
-1.77281e-06
5.79238e-06
-1.54841e-06
3.56866e-06
-1.29251e-06
4.30409e-06
-1.07325e-06
3.78938e-06
-8.49911e-07
3.77283e-06
-6.30288e-07
3.85179e-06
-4.12074e-07
3.67088e-06
-1.93942e-07
3.83365e-06
3.6915e-06
-2.17586e-06
4.24281e-06
-1.82224e-06
5.4471e-06
-1.59594e-06
3.335e-06
-1.33226e-06
4.04803e-06
-1.10664e-06
3.55799e-06
-8.76466e-07
3.54727e-06
-6.49963e-07
3.62229e-06
-4.25267e-07
3.44842e-06
-2.00224e-07
3.60774e-06
2.42998e-08
3.46752e-06
2.48306e-07
3.51249e-06
4.72658e-07
3.52943e-06
6.95079e-07
3.48327e-06
9.20002e-07
3.54549e-06
1.14342e-06
3.50797e-06
1.36483e-06
3.50442e-06
1.59518e-06
3.72769e-06
1.83777e-06
3.80929e-06
2.09777e-06
4.12351e-06
4.62939e-06
-2.24232e-06
3.9887e-06
-1.8763e-06
5.08914e-06
-1.64764e-06
3.09756e-06
-1.37529e-06
3.78419e-06
-1.1429e-06
3.31904e-06
-9.05266e-07
3.31487e-06
-6.71351e-07
3.38495e-06
-4.39606e-07
3.21922e-06
-2.07043e-07
3.37417e-06
2.43682e-08
3.2367e-06
2.5549e-07
3.28117e-06
4.871e-07
3.29759e-06
7.16433e-07
3.25365e-06
9.49008e-07
3.31245e-06
1.17936e-06
3.27643e-06
1.40761e-06
3.27564e-06
1.64638e-06
3.48411e-06
1.89647e-06
3.56127e-06
2.16517e-06
3.84355e-06
4.32257e-06
-2.31557e-06
3.71472e-06
-1.93653e-06
4.71807e-06
-1.7048e-06
2.85548e-06
-1.42271e-06
3.51161e-06
-1.18299e-06
3.07188e-06
-9.3705e-07
3.07491e-06
-6.95016e-07
3.13901e-06
-4.55476e-07
2.98259e-06
-2.14585e-07
3.13213e-06
2.44336e-08
2.99833e-06
2.63418e-07
3.04196e-06
5.03053e-07
3.05768e-06
7.40047e-07
3.01632e-06
9.81047e-07
3.07096e-06
1.21903e-06
3.03712e-06
1.45492e-06
3.03924e-06
1.70283e-06
3.23097e-06
1.9613e-06
3.30546e-06
2.23911e-06
3.554e-06
4.00639e-06
-2.39821e-06
3.40921e-06
-2.00501e-06
4.33298e-06
-1.7695e-06
2.60791e-06
-1.47661e-06
3.2299e-06
-1.22849e-06
2.81506e-06
-9.7307e-07
2.8263e-06
-7.21948e-07
2.8833e-06
-4.73402e-07
2.73739e-06
-2.23101e-07
2.8805e-06
2.44882e-08
2.75145e-06
2.72341e-07
2.79386e-06
5.21034e-07
2.80868e-06
7.66689e-07
2.77028e-06
1.01712e-06
2.82001e-06
1.26371e-06
2.78906e-06
1.50856e-06
2.79389e-06
1.76658e-06
2.96702e-06
2.03436e-06
3.04097e-06
2.32193e-06
3.25415e-06
3.67936e-06
-2.4943e-06
3.11679e-06
-2.08467e-06
3.9319e-06
-1.84383e-06
2.3531e-06
-1.53817e-06
2.93684e-06
-1.28077e-06
2.54777e-06
-1.01441e-06
2.5677e-06
-7.52876e-07
2.61652e-06
-4.94131e-07
2.48248e-06
-2.32946e-07
2.6178e-06
2.45296e-08
2.49476e-06
2.82627e-07
2.53551e-06
5.41798e-07
2.54915e-06
7.97465e-07
2.51418e-06
1.05868e-06
2.55827e-06
1.31523e-06
2.53087e-06
1.57028e-06
2.5384e-06
1.8397e-06
2.69111e-06
2.11865e-06
2.76602e-06
2.41791e-06
2.94198e-06
3.33928e-06
-2.6081e-06
2.79065e-06
-2.17986e-06
3.51287e-06
-1.93196e-06
2.0891e-06
-1.61114e-06
2.63024e-06
-1.34288e-06
2.26824e-06
-1.06343e-06
2.29715e-06
-7.89638e-07
2.3367e-06
-5.18763e-07
2.21602e-06
-2.44642e-07
2.34194e-06
2.45643e-08
2.22642e-06
2.94832e-07
2.26497e-06
5.66479e-07
2.2771e-06
8.34034e-07
2.24613e-06
1.10787e-06
2.2839e-06
1.37632e-06
2.26059e-06
1.64363e-06
2.27071e-06
1.92625e-06
2.40139e-06
2.21868e-06
2.47838e-06
2.53056e-06
2.61643e-06
2.98364e-06
-2.7481e-06
2.43904e-06
-2.29743e-06
3.07237e-06
-2.04006e-06
1.81327e-06
-1.70058e-06
2.30688e-06
-1.41916e-06
1.97392e-06
-1.12353e-06
2.01173e-06
-8.34793e-07
2.04102e-06
-5.49005e-07
1.93533e-06
-2.58993e-07
2.04994e-06
2.46163e-08
1.94376e-06
3.09836e-07
1.97949e-06
5.96821e-07
1.98967e-06
8.78986e-07
1.96341e-06
1.16812e-06
1.99423e-06
1.45125e-06
1.97542e-06
1.73381e-06
1.98789e-06
2.03221e-06
2.09518e-06
2.34149e-06
2.17478e-06
2.66853e-06
2.27478e-06
2.60869e-06
-2.92791e-06
2.06039e-06
-2.44868e-06
2.60454e-06
-2.17833e-06
1.52184e-06
-1.81487e-06
1.96169e-06
-1.51674e-06
1.66101e-06
-1.20031e-06
1.70706e-06
-8.92547e-07
1.72521e-06
-5.87653e-07
1.63634e-06
-2.77314e-07
1.7373e-06
2.47432e-08
1.64276e-06
3.29104e-07
1.67485e-06
6.35691e-07
1.6826e-06
9.36605e-07
1.66186e-06
1.2451e-06
1.68521e-06
1.5471e-06
1.67111e-06
1.84938e-06
1.68551e-06
2.1675e-06
1.76843e-06
2.49877e-06
1.85019e-06
2.8449e-06
1.91283e-06
2.20881e-06
-3.17181e-06
1.64841e-06
-2.65378e-06
2.09937e-06
-2.36494e-06
1.20909e-06
-1.9689e-06
1.58638e-06
-1.6483e-06
1.32345e-06
-1.30365e-06
1.37594e-06
-9.7034e-07
1.38257e-06
-6.39659e-07
1.3125e-06
-3.01922e-07
1.3969e-06
2.50739e-08
1.31692e-06
3.55272e-07
1.34439e-06
6.88206e-07
1.34916e-06
1.01452e-06
1.33481e-06
1.3489e-06
1.35034e-06
1.67646e-06
1.34094e-06
2.00557e-06
1.35652e-06
2.34981e-06
1.41465e-06
2.71138e-06
1.49643e-06
3.0831e-06
1.5238e-06
1.77519e-06
-3.52839e-06
1.1908e-06
-2.95271e-06
1.5381e-06
-2.63585e-06
8.65485e-07
-2.19207e-06
1.16587e-06
-1.83882e-06
9.50897e-07
-1.45303e-06
1.00562e-06
-1.08278e-06
1.00151e-06
-7.14773e-07
9.5237e-07
-3.3735e-07
1.01642e-06
2.59035e-08
9.54951e-07
3.93581e-07
9.76436e-07
7.64469e-07
9.77752e-07
1.12784e-06
9.70613e-07
1.49951e-06
9.78236e-07
1.86423e-06
9.73276e-07
2.23251e-06
9.88661e-07
2.61426e-06
1.02238e-06
3.0207e-06
1.09898e-06
3.42976e-06
1.09577e-06
1.29252e-06
-4.11137e-06
6.62185e-07
-3.43795e-06
8.80005e-07
-3.07397e-06
4.73042e-07
-2.55188e-06
6.68704e-07
-2.14549e-06
5.23437e-07
-1.69319e-06
5.7031e-07
-1.26314e-06
5.59387e-07
-8.35339e-07
5.33294e-07
-3.93919e-07
5.71576e-07
2.79767e-08
5.34424e-07
4.56154e-07
5.47976e-07
8.87652e-07
5.45789e-07
1.31126e-06
5.46058e-07
1.74281e-06
5.46367e-07
2.16762e-06
5.4525e-07
2.5994e-06
5.57647e-07
3.04181e-06
5.68782e-07
3.52235e-06
6.28356e-07
3.99326e-06
6.04722e-07
7.30113e-07
-5.28188e-06
-4.38975e-06
-3.93962e-06
-3.25058e-06
-2.74482e-06
-2.16014e-06
-1.61133e-06
-1.07053e-06
-5.02013e-07
3.35865e-08
5.81267e-07
1.12682e-06
1.67197e-06
2.21825e-06
2.76073e-06
3.31935e-06
3.87875e-06
4.51568e-06
5.10359e-06
)
;

boundaryField
{
    fuel
    {
        type            calculated;
        value           nonuniform 0();
    }
    wall
    {
        type            calculated;
        value           uniform 0;
    }
    outlet
    {
        type            calculated;
        value           nonuniform List<scalar> 
25
(
2.35016e-06
2.42596e-06
2.50696e-06
2.5951e-06
2.69317e-06
2.80756e-06
2.93962e-06
3.10049e-06
3.30533e-06
3.58123e-06
3.9824e-06
4.63576e-06
5.94072e-06
2.38437e-06
2.46105e-06
2.54523e-06
2.63956e-06
2.74971e-06
2.87831e-06
3.03583e-06
3.23716e-06
3.50898e-06
3.90445e-06
4.54763e-06
5.8275e-06
)
;
    }
    frontAndBack
    {
        type            empty;
        value           nonuniform 0();
    }
    procBoundary1to0
    {
        type            processor;
        value           nonuniform List<scalar> 
21
(
-4.6985e-06
-6.12514e-06
-3.79913e-06
-4.55315e-06
-4.01368e-06
-3.99212e-06
-4.07403e-06
-3.88715e-06
-4.05253e-06
-3.90919e-06
2.42388e-08
-3.73669e-06
-3.75398e-06
-3.70594e-06
-3.77084e-06
-3.73247e-06
-3.72634e-06
-3.96246e-06
-4.05036e-06
-4.39436e-06
-4.92797e-06
)
;
    }
}


// ************************************************************************* //
