/*--------------------------------*- C++ -*----------------------------------*\
| =========                 |                                                 |
| \\      /  F ield         | OpenFOAM: The Open Source CFD Toolbox           |
|  \\    /   O peration     | Version:  dev                                   |
|   \\  /    A nd           | Web:      www.OpenFOAM.org                      |
|    \\/     M anipulation  |                                                 |
\*---------------------------------------------------------------------------*/
FoamFile
{
    version     2.0;
    format      ascii;
    class       volScalarField;
    location    "0.15";
    object      T;
}
// * * * * * * * * * * * * * * * * * * * * * * * * * * * * * * * * * * * * * //

dimensions      [0 0 0 1 0 0 0];

internalField   nonuniform List<scalar> 
250
(
1750.76
1760.21
1764.01
1761.6
1757.74
1756.75
1756.62
1755.19
1755.79
1755.23
1716.03
1720.76
1722.47
1719.27
1715.04
1713.98
1713.84
1712.3
1712.95
1712.35
1710.48
1716.02
1709.82
1718.01
1711.53
1720.95
1719.61
1724.48
1734.26
1721.75
1674.74
1675.41
1675.31
1671.43
1666.87
1665.79
1665.61
1663.97
1664.67
1664.03
1662
1667.97
1661.26
1670.05
1663.03
1673.04
1671.62
1677.29
1689.12
1679.47
1626.27
1623.51
1621.88
1617.48
1612.6
1611.55
1611.32
1609.59
1610.33
1609.66
1607.48
1613.82
1606.64
1615.93
1608.46
1618.99
1617.48
1623.84
1637.42
1630.62
1569.88
1564.1
1561.44
1556.07
1551.51
1549.71
1550.24
1548.45
1549.23
1548.53
1546.22
1552.85
1545.28
1554.84
1547.13
1558.08
1555.79
1563.37
1578.38
1574.33
1504.73
1496.76
1493.16
1487.49
1482.8
1481.02
1481.56
1479.73
1480.53
1479.82
1477.4
1484.25
1476.36
1486.22
1478.21
1489.46
1486.99
1495.06
1511.05
1508.24
1429.83
1420.21
1416.02
1410.16
1405.47
1403.72
1404.26
1402.43
1403.22
1402.52
1400.03
1407.04
1398.91
1408.99
1400.73
1412.1
1409.46
1417.85
1434.35
1433.61
1343.86
1333.19
1328.7
1322.8
1318.27
1316.54
1317.09
1315.3
1316.07
1315.39
1312.88
1319.94
1311.69
1321.83
1313.46
1324.73
1321.95
1330.43
1346.9
1347.86
1245.09
1233.99
1229.54
1223.76
1219.54
1217.87
1218.42
1216.72
1217.44
1216.8
1214.34
1221.27
1213.12
1223.05
1214.79
1225.66
1222.81
1231.1
1246.97
1249.18
1131.13
1120.3
1116.21
1110.76
1107.03
1105.46
1105.98
1104.43
1105.07
1104.51
1102.2
1108.74
1100.99
1110.34
1102.51
1112.59
1109.8
1117.53
1132.13
1135.1
998.351
988.612
985.183
980.39
977.303
975.917
976.391
975.08
975.603
975.148
973.109
978.884
971.998
980.233
973.288
982.044
979.515
986.194
998.771
1001.91
840.73
833.13
830.701
826.979
824.785
823.693
824.074
823.106
823.468
823.158
821.584
826.038
820.689
827.042
821.66
828.3
826.342
831.306
840.855
843.446
645.233
641.376
640.351
638.44
637.469
636.899
637.104
636.648
636.797
636.674
635.892
638.099
635.428
638.581
635.908
639.119
638.216
640.469
645.316
646.495
)
;

boundaryField
{
    fuel
    {
        type            fixedValue;
        value           nonuniform 0();
    }
    wall
    {
        type            fixedValue;
        value           uniform 511;
    }
    outlet
    {
        type            inletOutlet;
        inletValue      uniform 353;
        value           nonuniform List<scalar> 
25
(
1750.87
1716.13
1674.82
1626.34
1569.94
1504.77
1429.85
1343.88
1245.1
1131.14
998.357
840.733
645.234
1721.66
1679.43
1630.63
1574.37
1508.31
1433.7
1347.95
1249.27
1135.2
1002
843.513
646.527
)
;
    }
    frontAndBack
    {
        type            empty;
    }
    procBoundary1to0
    {
        type            processor;
        value           nonuniform List<scalar> 
21
(
1779.46
1794.33
1800.49
1798.97
1795.51
1794.61
1794.5
1793.18
1793.72
1793.22
1753.51
1753.51
1758.59
1752.94
1760.48
1754.56
1763.35
1762.06
1766.08
1773.57
1758.22
)
;
    }
}


// ************************************************************************* //
