/*--------------------------------*- C++ -*----------------------------------*\
| =========                 |                                                 |
| \\      /  F ield         | OpenFOAM: The Open Source CFD Toolbox           |
|  \\    /   O peration     | Version:  dev                                   |
|   \\  /    A nd           | Web:      www.OpenFOAM.org                      |
|    \\/     M anipulation  |                                                 |
\*---------------------------------------------------------------------------*/
FoamFile
{
    version     2.0;
    format      ascii;
    class       volVectorField;
    location    "0.15";
    object      U;
}
// * * * * * * * * * * * * * * * * * * * * * * * * * * * * * * * * * * * * * //

dimensions      [0 1 -1 0 0 0 0];

internalField   nonuniform List<vector> 
13
(
(5.49538e-13 -5.49538e-13 0.0421363)
(5.37115e-13 -5.37115e-13 0.0429479)
(5.30266e-13 -5.30266e-13 0.0437684)
(5.2159e-13 -5.2159e-13 0.044645)
(5.15314e-13 -5.15314e-13 0.0455939)
(5.08685e-13 -5.08685e-13 0.0466209)
(5.02742e-13 -5.02742e-13 0.0477121)
(4.97046e-13 -4.97046e-13 0.0488577)
(4.91594e-13 -4.91594e-13 0.0500413)
(4.86292e-13 -4.86292e-13 0.0512446)
(4.81063e-13 -4.81063e-13 0.0524674)
(4.75864e-13 -4.75864e-13 0.0536771)
(4.70662e-13 -4.70662e-13 0.0548689)
)
;

boundaryField
{
    wall
    {
        type            zeroGradient;
    }
    fuel
    {
        type            fixedValue;
        value           nonuniform 0();
    }
    outlet
    {
        type            pressureInletOutletVelocity;
        value           nonuniform 0();
    }
    procBoundary1to0
    {
        type            processor;
        value           uniform (5.11306e-13 -5.11306e-13 0.0413168);
    }
    procBoundary1to2
    {
        type            processor;
        value           uniform (4.65438e-13 -4.65438e-13 0.0560678);
    }
}


// ************************************************************************* //
