/*--------------------------------*- C++ -*----------------------------------*\
| =========                 |                                                 |
| \\      /  F ield         | OpenFOAM: The Open Source CFD Toolbox           |
|  \\    /   O peration     | Version:  dev                                   |
|   \\  /    A nd           | Web:      www.OpenFOAM.org                      |
|    \\/     M anipulation  |                                                 |
\*---------------------------------------------------------------------------*/
FoamFile
{
    version     2.0;
    format      ascii;
    class       volScalarField;
    location    "0.021";
    object      moment.4.populationBalance;
}
// * * * * * * * * * * * * * * * * * * * * * * * * * * * * * * * * * * * * * //

dimensions      [0 9 0 0 0 0 0];

internalField   nonuniform List<scalar> 
251
(
7.45078e+14
7.24838e+14
7.05131e+14
6.85944e+14
6.67263e+14
6.49074e+14
6.31364e+14
6.14123e+14
5.97336e+14
5.80993e+14
5.65081e+14
5.4959e+14
5.34509e+14
5.19827e+14
5.05534e+14
4.91619e+14
4.78073e+14
4.64886e+14
4.52049e+14
4.39553e+14
4.27388e+14
4.15547e+14
4.04021e+14
3.92802e+14
3.81881e+14
3.71251e+14
3.60905e+14
3.50835e+14
3.41034e+14
3.31494e+14
3.2221e+14
3.13174e+14
3.04381e+14
2.95822e+14
2.87494e+14
2.79389e+14
2.71502e+14
2.63827e+14
2.56359e+14
2.49091e+14
2.4202e+14
2.3514e+14
2.28445e+14
2.21932e+14
2.15594e+14
2.09429e+14
2.03431e+14
1.97595e+14
1.91918e+14
1.86396e+14
1.81024e+14
1.75798e+14
1.70715e+14
1.65771e+14
1.60962e+14
1.56285e+14
1.51737e+14
1.47313e+14
1.43011e+14
1.38827e+14
1.34758e+14
1.30802e+14
1.26955e+14
1.23215e+14
1.19578e+14
1.16042e+14
1.12604e+14
1.09262e+14
1.06013e+14
1.02854e+14
9.97822e+13
9.67957e+13
9.38916e+13
9.10671e+13
8.83192e+13
8.56449e+13
8.30408e+13
8.05034e+13
7.80286e+13
7.56121e+13
7.3249e+13
7.09342e+13
6.86617e+13
6.64255e+13
6.42188e+13
6.20347e+13
5.9866e+13
5.77057e+13
5.55467e+13
5.33827e+13
5.12078e+13
4.90175e+13
4.68082e+13
4.45784e+13
4.23278e+13
4.00585e+13
3.77743e+13
3.54814e+13
3.31876e+13
3.09024e+13
2.86372e+13
2.64039e+13
2.42156e+13
2.20853e+13
2.0026e+13
1.80498e+13
1.61678e+13
1.43896e+13
1.27232e+13
1.11743e+13
9.74687e+12
8.44253e+12
7.26094e+12
6.19986e+12
5.25533e+12
4.42193e+12
3.69307e+12
3.06126e+12
2.5184e+12
2.05609e+12
1.66585e+12
1.33935e+12
1.06857e+12
8.45965e+11
6.64566e+11
5.18029e+11
4.0068e+11
3.07515e+11
2.34187e+11
1.76964e+11
1.3269e+11
9.87241e+10
7.28866e+10
5.33969e+10
3.88182e+10
2.80035e+10
2.00472e+10
1.4242e+10
1.00408e+10
7.02521e+09
4.87812e+09
3.36169e+09
2.29925e+09
1.56081e+09
1.05161e+09
7.03267e+08
4.66823e+08
3.07584e+08
2.01172e+08
1.3061e+08
8.41779e+07
5.38579e+07
3.42091e+07
2.15718e+07
1.35051e+07
8.3943e+06
5.18039e+06
3.17427e+06
1.93126e+06
1.16671e+06
699886
416912
246618
144872
84514.8
48964.7
28173.9
16100.5
9138.34
5151.65
2884.62
1604.37
886.352
486.414
265.164
143.597
77.2517
41.2872
21.9218
11.5639
6.06055
3.15578
1.63268
0.83928
0.428681
0.217567
0.109723
0.054986
0.0273824
0.0135508
0.00666415
0.00325701
0.00158197
0.000763645
0.000366362
0.000174689
8.27871e-05
3.89956e-05
1.82571e-05
8.49613e-06
3.92998e-06
1.80695e-06
8.25832e-07
3.75161e-07
1.69393e-07
7.60045e-08
3.38719e-08
1.49752e-08
6.54897e-09
2.81209e-09
1.16252e-09
4.37575e-10
1.21751e-10
0
0
0
0
0
0
0
0
0
0
0
0
0
0
0
0
0
0
0
0
0
0
0
0
0
0
0
0
0
0
0
0
0
0
0
0
0
0
)
;

boundaryField
{
    wall
    {
        type            zeroGradient;
    }
    fuel
    {
        type            fixedValue;
        value           uniform 7.65865e+14;
    }
    outlet
    {
        type            inletOutlet;
        inletValue      nonuniform 0();
        value           nonuniform 0();
    }
    procBoundary0to1
    {
        type            processor;
        value           uniform 0;
    }
}


// ************************************************************************* //
