/*--------------------------------*- C++ -*----------------------------------*\
| =========                 |                                                 |
| \\      /  F ield         | OpenFOAM: The Open Source CFD Toolbox           |
|  \\    /   O peration     | Version:  dev                                   |
|   \\  /    A nd           | Web:      www.OpenFOAM.org                      |
|    \\/     M anipulation  |                                                 |
\*---------------------------------------------------------------------------*/
FoamFile
{
    version     2.0;
    format      ascii;
    class       volScalarField;
    location    "0.021";
    object      moment.3.populationBalance;
}
// * * * * * * * * * * * * * * * * * * * * * * * * * * * * * * * * * * * * * //

dimensions      [0 6 0 0 0 0 0];

internalField   nonuniform List<scalar> 
251
(
8.66522e+12
8.43768e+12
8.21622e+12
8.00067e+12
7.79088e+12
7.58669e+12
7.38795e+12
7.19451e+12
7.00623e+12
6.82298e+12
6.64461e+12
6.47099e+12
6.302e+12
6.13751e+12
5.9774e+12
5.82155e+12
5.66984e+12
5.52217e+12
5.37842e+12
5.2385e+12
5.10228e+12
4.96968e+12
4.8406e+12
4.71494e+12
4.59261e+12
4.47352e+12
4.35758e+12
4.2447e+12
4.13481e+12
4.02782e+12
3.92365e+12
3.82223e+12
3.72349e+12
3.62734e+12
3.53373e+12
3.44257e+12
3.35381e+12
3.26739e+12
3.18323e+12
3.10128e+12
3.02147e+12
2.94375e+12
2.86807e+12
2.79437e+12
2.72259e+12
2.65268e+12
2.5846e+12
2.51829e+12
2.45371e+12
2.3908e+12
2.32954e+12
2.26986e+12
2.21173e+12
2.15511e+12
2.09995e+12
2.04622e+12
1.99388e+12
1.9429e+12
1.89322e+12
1.84483e+12
1.79769e+12
1.75176e+12
1.70701e+12
1.6634e+12
1.62092e+12
1.57952e+12
1.53919e+12
1.49988e+12
1.46157e+12
1.42423e+12
1.38783e+12
1.35235e+12
1.31774e+12
1.28398e+12
1.25103e+12
1.21884e+12
1.18739e+12
1.1566e+12
1.12644e+12
1.09683e+12
1.0677e+12
1.03898e+12
1.01057e+12
9.82377e+11
9.54297e+11
9.26217e+11
8.98023e+11
8.696e+11
8.40837e+11
8.11629e+11
7.81884e+11
7.51528e+11
7.20508e+11
6.88799e+11
6.56405e+11
6.23364e+11
5.8975e+11
5.55668e+11
5.2126e+11
4.86696e+11
4.52172e+11
4.17903e+11
3.84115e+11
3.51042e+11
3.18911e+11
2.87941e+11
2.58331e+11
2.30256e+11
2.03863e+11
1.79264e+11
1.56537e+11
1.35725e+11
1.16834e+11
9.98413e+10
8.46919e+10
7.13071e+10
5.95874e+10
4.94176e+10
4.06718e+10
3.32179e+10
2.69217e+10
2.16507e+10
1.72771e+10
1.36802e+10
1.07481e+10
8.37881e+09
6.48104e+09
4.97413e+09
3.78793e+09
2.8622e+09
2.14594e+09
1.59645e+09
1.17848e+09
8.63217e+08
6.27422e+08
4.52531e+08
3.23888e+08
2.30041e+08
1.62141e+08
1.13414e+08
7.87286e+07
5.42384e+07
3.70849e+07
2.51661e+07
1.69502e+07
1.13315e+07
7.519e+06
4.95233e+06
3.23777e+06
2.10127e+06
1.35373e+06
865774
549686
346477
216819
134708
83095.8
50893.7
30950.1
18688.9
11205.9
6672.01
3944.85
2316.22
1350.57
782.087
449.785
256.909
145.744
82.1204
45.9592
25.5485
14.1073
7.73785
4.21604
2.28196
1.227
0.655422
0.347819
0.18338
0.0960564
0.0499907
0.0258494
0.0132808
0.00677977
0.00343906
0.00173343
0.000868211
0.000432124
0.00021373
0.000105052
5.13145e-05
2.49104e-05
1.20181e-05
5.76253e-06
2.74617e-06
1.30072e-06
6.12344e-07
2.8653e-07
1.33265e-07
6.1609e-08
2.83112e-08
1.29318e-08
5.87141e-09
2.64957e-09
1.18816e-09
5.29214e-10
2.33841e-10
1.02205e-10
4.38614e-11
1.81218e-11
6.8171e-12
1.89566e-12
0
0
0
0
0
0
0
0
0
0
0
0
0
0
0
0
0
0
0
0
0
0
0
0
0
0
0
0
0
0
0
0
0
0
0
0
0
0
)
;

boundaryField
{
    wall
    {
        type            zeroGradient;
    }
    fuel
    {
        type            fixedValue;
        value           uniform 8.899e+12;
    }
    outlet
    {
        type            inletOutlet;
        inletValue      nonuniform 0();
        value           nonuniform 0();
    }
    procBoundary0to1
    {
        type            processor;
        value           uniform 0;
    }
}


// ************************************************************************* //
