/*--------------------------------*- C++ -*----------------------------------*\
| =========                 |                                                 |
| \\      /  F ield         | OpenFOAM: The Open Source CFD Toolbox           |
|  \\    /   O peration     | Version:  dev                                   |
|   \\  /    A nd           | Web:      www.OpenFOAM.org                      |
|    \\/     M anipulation  |                                                 |
\*---------------------------------------------------------------------------*/
FoamFile
{
    version     2.0;
    format      ascii;
    class       volScalarField;
    location    "0.13";
    object      A1C2H3;
}
// * * * * * * * * * * * * * * * * * * * * * * * * * * * * * * * * * * * * * //

dimensions      [0 0 0 0 0 0 0];

internalField   nonuniform List<scalar> 
250
(
7.92433e-09
5.928e-09
5.03841e-09
4.871e-09
4.96906e-09
4.98411e-09
4.98733e-09
5.0521e-09
5.021e-09
5.04936e-09
1.00798e-08
8.18025e-09
7.29055e-09
7.17642e-09
7.38999e-09
7.42292e-09
7.43193e-09
7.54275e-09
7.48923e-09
7.53769e-09
7.67856e-09
7.27416e-09
7.73713e-09
7.13363e-09
7.63084e-09
6.95952e-09
7.21717e-09
7.18152e-09
7.97334e-09
1.44348e-08
1.41276e-08
1.23709e-08
1.15239e-08
1.15305e-08
1.19791e-08
1.20431e-08
1.20667e-08
1.22664e-08
1.21691e-08
1.22569e-08
1.2519e-08
1.17683e-08
1.26323e-08
1.15337e-08
1.24437e-08
1.12181e-08
1.16268e-08
1.12926e-08
1.17078e-08
1.86157e-08
2.19007e-08
2.04578e-08
1.97688e-08
2.00143e-08
2.08968e-08
2.1006e-08
2.1061e-08
2.14168e-08
2.12415e-08
2.13992e-08
2.18791e-08
2.04787e-08
2.20962e-08
2.01207e-08
2.17702e-08
1.95465e-08
2.02357e-08
1.93027e-08
1.89329e-08
2.63611e-08
3.6459e-08
3.57259e-08
3.53106e-08
3.61696e-08
3.74963e-08
3.79917e-08
3.77613e-08
3.83477e-08
3.80539e-08
3.8317e-08
3.91281e-08
3.69413e-08
3.9513e-08
3.62241e-08
3.8994e-08
3.52511e-08
3.66657e-08
3.44724e-08
3.27327e-08
4.05314e-08
6.17218e-08
6.19937e-08
6.20707e-08
6.35039e-08
6.55459e-08
6.61945e-08
6.5918e-08
6.67732e-08
6.63363e-08
6.67247e-08
6.79364e-08
6.45858e-08
6.85377e-08
6.36364e-08
6.78104e-08
6.22337e-08
6.43329e-08
6.07718e-08
5.71642e-08
6.55836e-08
1.00805e-07
1.02261e-07
1.02813e-07
1.04774e-07
1.07386e-07
1.08157e-07
1.07818e-07
1.08891e-07
1.08329e-07
1.08822e-07
1.10389e-07
1.06013e-07
1.11203e-07
1.04848e-07
1.10327e-07
1.03153e-07
1.05942e-07
1.01118e-07
9.56308e-08
1.03483e-07
1.53911e-07
1.56189e-07
1.5692e-07
1.59126e-07
1.61871e-07
1.62673e-07
1.62284e-07
1.63427e-07
1.62808e-07
1.63338e-07
1.65077e-07
1.60176e-07
1.6603e-07
1.58954e-07
1.65141e-07
1.57255e-07
1.60484e-07
1.55084e-07
1.48456e-07
1.5517e-07
2.16891e-07
2.19111e-07
2.19534e-07
2.21527e-07
2.23889e-07
2.24579e-07
2.24176e-07
2.25194e-07
2.24613e-07
2.25085e-07
2.26741e-07
2.22044e-07
2.27711e-07
2.20975e-07
2.26967e-07
2.19599e-07
2.22839e-07
2.17901e-07
2.11419e-07
2.16776e-07
2.82184e-07
2.83335e-07
2.8299e-07
2.8435e-07
2.85916e-07
2.86375e-07
2.85993e-07
2.86728e-07
2.86268e-07
2.86597e-07
2.87946e-07
2.84124e-07
2.88809e-07
2.83365e-07
2.88333e-07
2.82543e-07
2.8537e-07
2.8184e-07
2.76767e-07
2.81051e-07
3.4083e-07
3.40087e-07
3.38684e-07
3.39103e-07
3.39662e-07
3.39816e-07
3.39485e-07
3.39846e-07
3.39558e-07
3.39685e-07
3.40579e-07
3.381e-07
3.41237e-07
3.37731e-07
3.4109e-07
3.37551e-07
3.39645e-07
3.3815e-07
3.35355e-07
3.39241e-07
3.81227e-07
3.78298e-07
3.75898e-07
3.75331e-07
3.74977e-07
3.74824e-07
3.74562e-07
3.74567e-07
3.74444e-07
3.74378e-07
3.748e-07
3.73739e-07
3.75215e-07
3.7373e-07
3.75371e-07
3.74089e-07
3.75371e-07
3.75876e-07
3.75615e-07
3.79716e-07
3.95081e-07
3.91118e-07
3.88461e-07
3.87427e-07
3.86747e-07
3.86445e-07
3.86232e-07
3.86086e-07
3.86024e-07
3.85886e-07
3.86086e-07
3.85699e-07
3.86371e-07
3.85831e-07
3.86664e-07
3.8633e-07
3.87293e-07
3.88439e-07
3.89577e-07
3.93465e-07
)
;

boundaryField
{
    fuel
    {
        type            fixedValue;
        value           nonuniform 0();
    }
    wall
    {
        type            zeroGradient;
    }
    outlet
    {
        type            zeroGradient;
    }
    frontAndBack
    {
        type            empty;
    }
    procBoundary1to0
    {
        type            processor;
        value           nonuniform List<scalar> 
21
(
6.74743e-09
4.62502e-09
3.73764e-09
3.54804e-09
3.5892e-09
3.59454e-09
3.59562e-09
3.63658e-09
3.61705e-09
3.6351e-09
5.12854e-09
5.12854e-09
4.89824e-09
5.16046e-09
4.81179e-09
5.098e-09
4.71086e-09
4.88877e-09
4.98825e-09
5.93586e-09
1.20725e-08
)
;
    }
}


// ************************************************************************* //
