/*--------------------------------*- C++ -*----------------------------------*\
| =========                 |                                                 |
| \\      /  F ield         | OpenFOAM: The Open Source CFD Toolbox           |
|  \\    /   O peration     | Version:  dev                                   |
|   \\  /    A nd           | Web:      www.OpenFOAM.org                      |
|    \\/     M anipulation  |                                                 |
\*---------------------------------------------------------------------------*/
FoamFile
{
    version     2.0;
    format      ascii;
    class       volScalarField;
    location    "0.13";
    object      A2C2HA;
}
// * * * * * * * * * * * * * * * * * * * * * * * * * * * * * * * * * * * * * //

dimensions      [0 0 0 0 0 0 0];

internalField   nonuniform List<scalar> 
250
(
1.23592e-09
8.29977e-10
6.57844e-10
6.08731e-10
5.97764e-10
5.94601e-10
5.93938e-10
5.95369e-10
5.94217e-10
5.95195e-10
1.14557e-09
8.19074e-10
6.73617e-10
6.29748e-10
6.18806e-10
6.15631e-10
6.14945e-10
6.15857e-10
6.14925e-10
6.15721e-10
6.1651e-10
6.13235e-10
6.16938e-10
6.11963e-10
6.16725e-10
6.13843e-10
6.30523e-10
6.83051e-10
9.34131e-10
2.16282e-09
1.06085e-09
7.9753e-10
6.75308e-10
6.36427e-10
6.25558e-10
6.22443e-10
6.2176e-10
6.2215e-10
6.21464e-10
6.22069e-10
6.22277e-10
6.2079e-10
6.22429e-10
6.20202e-10
6.22656e-10
6.22622e-10
6.36843e-10
6.83508e-10
8.97312e-10
1.88972e-09
9.78391e-10
7.65416e-10
6.6328e-10
6.29214e-10
6.18655e-10
6.15708e-10
6.1505e-10
6.15005e-10
6.14548e-10
6.14987e-10
6.14689e-10
6.14795e-10
6.14586e-10
6.14719e-10
6.15148e-10
6.1751e-10
6.29271e-10
6.70108e-10
8.48443e-10
1.63211e-09
8.97743e-10
7.24919e-10
6.40251e-10
6.10594e-10
6.00943e-10
5.97925e-10
5.97661e-10
5.97328e-10
5.9705e-10
5.97368e-10
5.96719e-10
5.97761e-10
5.96423e-10
5.98171e-10
5.97174e-10
6.01105e-10
6.10287e-10
6.4567e-10
7.9124e-10
1.39752e-09
8.20608e-10
6.80413e-10
6.10565e-10
5.85368e-10
5.76723e-10
5.7405e-10
5.73854e-10
5.73391e-10
5.73228e-10
5.73478e-10
5.7267e-10
5.74293e-10
5.72263e-10
5.74822e-10
5.73056e-10
5.77612e-10
5.84849e-10
6.14624e-10
7.30722e-10
1.18513e-09
7.5017e-10
6.36353e-10
5.79146e-10
5.58151e-10
5.50732e-10
5.48481e-10
5.48328e-10
5.47875e-10
5.47765e-10
5.47995e-10
5.47203e-10
5.48878e-10
5.4677e-10
5.49412e-10
5.47488e-10
5.51839e-10
5.57542e-10
5.8196e-10
6.7229e-10
1.00905e-09
6.89456e-10
5.97022e-10
5.50492e-10
5.33301e-10
5.2726e-10
5.25421e-10
5.25287e-10
5.24937e-10
5.24837e-10
5.25077e-10
5.24426e-10
5.25789e-10
5.24033e-10
5.26229e-10
5.24606e-10
5.28194e-10
5.32745e-10
5.52242e-10
6.20701e-10
8.65399e-10
6.40661e-10
5.65486e-10
5.27828e-10
5.13982e-10
5.09227e-10
5.07787e-10
5.07655e-10
5.07443e-10
5.07333e-10
5.07593e-10
5.0714e-10
5.0802e-10
5.06822e-10
5.08324e-10
5.0723e-10
5.09842e-10
5.13536e-10
5.2875e-10
5.79286e-10
7.53655e-10
6.04412e-10
5.42952e-10
5.12509e-10
5.01441e-10
4.97776e-10
4.96679e-10
4.96544e-10
4.96454e-10
4.96339e-10
4.96609e-10
4.96338e-10
4.96759e-10
4.96096e-10
4.96942e-10
4.96361e-10
4.98103e-10
5.01127e-10
5.1286e-10
5.49342e-10
6.71221e-10
5.7956e-10
5.28701e-10
5.03907e-10
4.9512e-10
4.92237e-10
4.91404e-10
4.9127e-10
4.91256e-10
4.91152e-10
4.91413e-10
4.91271e-10
4.91375e-10
4.9108e-10
4.91481e-10
4.91248e-10
4.92404e-10
4.94867e-10
5.03976e-10
5.30031e-10
6.13883e-10
5.638e-10
5.20657e-10
5.00069e-10
4.92931e-10
4.90583e-10
4.89926e-10
4.898e-10
4.89814e-10
4.89736e-10
4.89972e-10
4.89892e-10
4.89859e-10
4.89721e-10
4.89931e-10
4.89838e-10
4.90722e-10
4.92712e-10
5.0003e-10
5.18959e-10
5.76847e-10
5.5487e-10
5.16447e-10
4.98488e-10
4.92361e-10
4.90322e-10
4.89768e-10
4.8965e-10
4.89669e-10
4.89614e-10
4.89826e-10
4.89772e-10
4.89696e-10
4.89604e-10
4.89756e-10
4.89699e-10
4.90475e-10
4.92156e-10
4.98422e-10
5.13286e-10
5.56306e-10
)
;

boundaryField
{
    fuel
    {
        type            fixedValue;
        value           nonuniform 0();
    }
    wall
    {
        type            zeroGradient;
    }
    outlet
    {
        type            zeroGradient;
    }
    frontAndBack
    {
        type            empty;
    }
    procBoundary1to0
    {
        type            processor;
        value           nonuniform List<scalar> 
21
(
1.33832e-09
8.32669e-10
6.30189e-10
5.75467e-10
5.64291e-10
5.61159e-10
5.60543e-10
5.62391e-10
5.6109e-10
5.62207e-10
5.96531e-10
5.96531e-10
5.91568e-10
5.97212e-10
5.89603e-10
5.96532e-10
5.90908e-10
6.09818e-10
6.68245e-10
9.57295e-10
2.44276e-09
)
;
    }
}


// ************************************************************************* //
