/*--------------------------------*- C++ -*----------------------------------*\
| =========                 |                                                 |
| \\      /  F ield         | OpenFOAM: The Open Source CFD Toolbox           |
|  \\    /   O peration     | Version:  dev                                   |
|   \\  /    A nd           | Web:      www.OpenFOAM.org                      |
|    \\/     M anipulation  |                                                 |
\*---------------------------------------------------------------------------*/
FoamFile
{
    version     2.0;
    format      ascii;
    class       volScalarField;
    location    "0.13";
    object      A2C2HB*;
}
// * * * * * * * * * * * * * * * * * * * * * * * * * * * * * * * * * * * * * //

dimensions      [0 0 0 0 0 0 0];

internalField   nonuniform List<scalar> 
50
(
1.59008e-18
1.3369e-18
1.12456e-18
9.46468e-19
7.97098e-19
6.71817e-19
5.66726e-19
4.78549e-19
4.04534e-19
3.4237e-19
2.9012e-19
2.46167e-19
2.09154e-19
1.77953e-19
1.5162e-19
1.29367e-19
1.10538e-19
9.45859e-20
8.10522e-20
6.95549e-20
5.97745e-20
5.14433e-20
4.43368e-20
3.82668e-20
3.3075e-20
2.86283e-20
2.48145e-20
2.1539e-20
1.87219e-20
1.62955e-20
1.42028e-20
1.23952e-20
1.08317e-20
9.47724e-21
8.3023e-21
7.28157e-21
6.39355e-21
5.61989e-21
4.94492e-21
4.35522e-21
3.83927e-21
3.38718e-21
2.99579e-21
2.65184e-21
2.34635e-21
2.07799e-21
1.842e-21
1.63419e-21
1.45087e-21
1.2887e-21
)
;

boundaryField
{
    wall
    {
        type            zeroGradient;
    }
    fuel
    {
        type            fixedValue;
        value           nonuniform 0();
    }
    outlet
    {
        type            inletOutlet;
        inletValue      nonuniform 0();
        value           nonuniform 0();
    }
    procBoundary1to0
    {
        type            processor;
        value           uniform 1.89617e-18;
    }
    procBoundary1to2
    {
        type            processor;
        value           uniform 1.14495e-21;
    }
}


// ************************************************************************* //
