/*--------------------------------*- C++ -*----------------------------------*\
| =========                 |                                                 |
| \\      /  F ield         | OpenFOAM: The Open Source CFD Toolbox           |
|  \\    /   O peration     | Version:  dev                                   |
|   \\  /    A nd           | Web:      www.OpenFOAM.org                      |
|    \\/     M anipulation  |                                                 |
\*---------------------------------------------------------------------------*/
FoamFile
{
    version     2.0;
    format      ascii;
    class       volScalarField;
    location    "0.13";
    object      A2R5;
}
// * * * * * * * * * * * * * * * * * * * * * * * * * * * * * * * * * * * * * //

dimensions      [0 0 0 0 0 0 0];

internalField   nonuniform List<scalar> 
250
(
1.03524e-07
8.22736e-08
6.67661e-08
6.12739e-08
5.96283e-08
5.92228e-08
5.91381e-08
5.91408e-08
5.90974e-08
5.91139e-08
9.7912e-08
7.94401e-08
6.62613e-08
6.15035e-08
6.00401e-08
5.96655e-08
5.95828e-08
5.95791e-08
5.95387e-08
5.95511e-08
5.95469e-08
5.94975e-08
5.95756e-08
5.95151e-08
5.96433e-08
5.99917e-08
6.15892e-08
6.75107e-08
8.44185e-08
1.26301e-07
9.29947e-08
7.69761e-08
6.58016e-08
6.1695e-08
6.0398e-08
6.00543e-08
5.99749e-08
5.99654e-08
5.99282e-08
5.99371e-08
5.99359e-08
5.98927e-08
5.99634e-08
5.99121e-08
6.00307e-08
6.0339e-08
6.17432e-08
6.6869e-08
8.11486e-08
1.16271e-07
8.86684e-08
7.4814e-08
6.53612e-08
6.1832e-08
6.0688e-08
6.03749e-08
6.03001e-08
6.02858e-08
6.02522e-08
6.02582e-08
6.02585e-08
6.02226e-08
6.02843e-08
6.02451e-08
6.03508e-08
6.06256e-08
6.18464e-08
6.62395e-08
7.816e-08
1.0726e-07
8.48431e-08
7.28915e-08
6.49264e-08
6.19101e-08
6.09066e-08
6.06284e-08
6.05547e-08
6.05368e-08
6.05067e-08
6.05105e-08
6.05115e-08
6.04861e-08
6.05352e-08
6.0509e-08
6.06003e-08
6.08458e-08
6.18955e-08
6.56201e-08
7.54515e-08
9.92801e-08
8.14436e-08
7.1186e-08
6.44932e-08
6.19309e-08
6.10576e-08
6.08099e-08
6.07423e-08
6.0722e-08
6.06953e-08
6.06977e-08
6.06987e-08
6.06804e-08
6.07203e-08
6.07057e-08
6.0783e-08
6.10019e-08
6.18933e-08
6.50158e-08
7.30213e-08
9.20964e-08
7.84229e-08
6.96599e-08
6.40644e-08
6.19039e-08
6.11487e-08
6.09319e-08
6.08707e-08
6.08494e-08
6.08259e-08
6.08273e-08
6.08282e-08
6.08162e-08
6.08475e-08
6.08424e-08
6.09071e-08
6.11011e-08
6.18491e-08
6.44348e-08
7.08675e-08
8.60327e-08
7.57369e-08
6.82939e-08
6.36458e-08
6.18358e-08
6.11951e-08
6.10048e-08
6.09502e-08
6.09289e-08
6.09084e-08
6.09094e-08
6.09099e-08
6.09028e-08
6.0927e-08
6.09291e-08
6.09828e-08
6.11532e-08
6.17734e-08
6.38872e-08
6.89851e-08
8.08609e-08
7.33574e-08
6.70782e-08
6.32457e-08
6.17424e-08
6.12042e-08
6.10401e-08
6.09919e-08
6.09714e-08
6.09535e-08
6.09545e-08
6.09547e-08
6.09511e-08
6.09697e-08
6.09767e-08
6.10213e-08
6.11693e-08
6.16778e-08
6.33831e-08
6.7368e-08
7.65279e-08
7.1276e-08
6.60128e-08
6.28762e-08
6.16348e-08
6.11891e-08
6.10493e-08
6.10072e-08
6.09883e-08
6.09726e-08
6.09739e-08
6.09739e-08
6.09724e-08
6.0987e-08
6.09968e-08
6.10341e-08
6.11611e-08
6.15745e-08
6.29339e-08
6.6011e-08
7.29771e-08
6.95081e-08
6.51088e-08
6.25459e-08
6.15329e-08
6.11624e-08
6.10443e-08
6.10077e-08
6.09906e-08
6.09768e-08
6.09785e-08
6.09783e-08
6.09777e-08
6.09899e-08
6.10006e-08
6.10326e-08
6.11406e-08
6.14761e-08
6.25524e-08
6.49139e-08
7.01641e-08
6.81056e-08
6.43946e-08
6.22802e-08
6.14443e-08
6.11356e-08
6.10351e-08
6.10029e-08
6.09876e-08
6.09753e-08
6.09775e-08
6.09772e-08
6.09769e-08
6.09875e-08
6.09982e-08
6.10264e-08
6.11187e-08
6.13945e-08
6.22548e-08
6.4088e-08
6.808e-08
6.71982e-08
6.39347e-08
6.21079e-08
6.13859e-08
6.11174e-08
6.10285e-08
6.09993e-08
6.09853e-08
6.09739e-08
6.09765e-08
6.09761e-08
6.09757e-08
6.09856e-08
6.09959e-08
6.10217e-08
6.11038e-08
6.13421e-08
6.20673e-08
6.35778e-08
6.68073e-08
)
;

boundaryField
{
    fuel
    {
        type            fixedValue;
        value           nonuniform 0();
    }
    wall
    {
        type            zeroGradient;
    }
    outlet
    {
        type            zeroGradient;
    }
    frontAndBack
    {
        type            empty;
    }
    procBoundary1to0
    {
        type            processor;
        value           nonuniform List<scalar> 
21
(
1.09935e-07
8.55586e-08
6.73552e-08
6.10367e-08
5.91894e-08
5.87534e-08
5.86678e-08
5.86769e-08
5.86312e-08
5.86521e-08
5.91052e-08
5.91052e-08
5.90527e-08
5.91343e-08
5.90701e-08
5.92024e-08
5.96007e-08
6.13991e-08
6.81774e-08
8.79701e-08
1.37321e-07
)
;
    }
}


// ************************************************************************* //
