/*--------------------------------*- C++ -*----------------------------------*\
| =========                 |                                                 |
| \\      /  F ield         | OpenFOAM: The Open Source CFD Toolbox           |
|  \\    /   O peration     | Version:  dev                                   |
|   \\  /    A nd           | Web:      www.OpenFOAM.org                      |
|    \\/     M anipulation  |                                                 |
\*---------------------------------------------------------------------------*/
FoamFile
{
    version     2.0;
    format      ascii;
    class       volScalarField;
    location    "0.13";
    object      A3C2H2;
}
// * * * * * * * * * * * * * * * * * * * * * * * * * * * * * * * * * * * * * //

dimensions      [0 0 0 0 0 0 0];

internalField   nonuniform List<scalar> 
250
(
2.52823e-16
1.31911e-16
7.6571e-17
6.62187e-17
6.18995e-17
6.02255e-17
6.06106e-17
5.93792e-17
6.02171e-17
5.92902e-17
2.01177e-16
1.09135e-16
6.54536e-17
5.75674e-17
5.40076e-17
5.25688e-17
5.29562e-17
5.18047e-17
5.26058e-17
5.17306e-17
5.20302e-17
5.22262e-17
5.20891e-17
5.24061e-17
5.26284e-17
5.3198e-17
5.66062e-17
6.32812e-17
8.69717e-17
1.16289e-16
1.57147e-16
8.91105e-17
5.53922e-17
4.9546e-17
4.66532e-17
4.54196e-17
4.58071e-17
4.47387e-17
4.54918e-17
4.46775e-17
4.49544e-17
4.51361e-17
4.50023e-17
4.52902e-17
4.5482e-17
4.59548e-17
4.87808e-17
5.38084e-17
7.16699e-17
9.49839e-17
1.20819e-16
7.19247e-17
4.64314e-17
4.22276e-17
3.99084e-17
3.88404e-17
3.9227e-17
3.82391e-17
3.894e-17
3.81891e-17
3.84435e-17
3.86099e-17
3.84823e-17
3.87398e-17
3.8904e-17
3.93094e-17
4.16296e-17
4.53534e-17
5.87509e-17
7.70791e-17
9.1661e-17
5.74101e-17
3.84921e-17
3.54953e-17
3.36257e-17
3.28027e-17
3.31008e-17
3.22766e-17
3.29274e-17
3.22364e-17
3.24703e-17
3.2622e-17
3.25019e-17
3.27297e-17
3.28694e-17
3.30942e-17
3.50216e-17
3.78185e-17
4.7814e-17
6.20752e-17
6.78284e-17
4.51925e-17
3.14009e-17
2.93791e-17
2.79014e-17
2.72049e-17
2.74834e-17
2.6745e-17
2.73497e-17
2.67133e-17
2.69291e-17
2.7067e-17
2.69553e-17
2.71545e-17
2.72736e-17
2.74404e-17
2.90137e-17
3.10321e-17
3.8425e-17
4.90839e-17
4.94262e-17
3.47879e-17
2.49266e-17
2.36405e-17
2.24839e-17
2.18974e-17
2.21633e-17
2.14977e-17
2.20571e-17
2.14738e-17
2.16722e-17
2.17966e-17
2.16942e-17
2.18652e-17
2.19668e-17
2.20875e-17
2.336e-17
2.47735e-17
3.01529e-17
3.80738e-17
3.4605e-17
2.57297e-17
1.88788e-17
1.81334e-17
1.72491e-17
1.67683e-17
1.70148e-17
1.64303e-17
1.69334e-17
1.64137e-17
1.65911e-17
1.66998e-17
1.66094e-17
1.67504e-17
1.68357e-17
1.69191e-17
1.79213e-17
1.88643e-17
2.26501e-17
2.83051e-17
2.27077e-17
1.77988e-17
1.32938e-17
1.29183e-17
1.22818e-17
1.19155e-17
1.21245e-17
1.16502e-17
1.20676e-17
1.164e-17
1.17864e-17
1.18739e-17
1.18009e-17
1.19074e-17
1.19749e-17
1.20285e-17
1.27663e-17
1.33489e-17
1.58459e-17
1.96125e-17
1.38165e-17
1.1356e-17
8.6668e-18
8.49934e-18
8.09145e-18
7.84546e-18
7.99724e-18
7.66354e-18
7.96222e-18
7.65815e-18
7.76242e-18
7.82377e-18
7.7728e-18
7.84294e-18
7.89027e-18
7.92174e-18
8.40324e-18
8.7323e-18
1.02273e-17
1.25071e-17
8.19037e-18
6.97103e-18
5.47193e-18
5.38874e-18
5.15059e-18
4.99577e-18
5.09651e-18
4.8818e-18
5.0764e-18
4.87919e-18
4.94667e-18
4.98681e-18
4.95427e-18
4.99654e-18
5.02762e-18
5.04592e-18
5.33655e-18
5.51824e-18
6.37283e-18
7.69819e-18
5.36065e-18
4.64213e-18
3.80984e-18
3.73992e-18
3.61051e-18
3.51082e-18
3.57562e-18
3.4431e-18
3.563e-18
3.44134e-18
3.48225e-18
3.50901e-18
3.48849e-18
3.51395e-18
3.53371e-18
3.54564e-18
3.71843e-18
3.82912e-18
4.34672e-18
5.18056e-18
8.33098e-18
7.1961e-18
6.20239e-18
6.03464e-18
5.9009e-18
5.74559e-18
5.84271e-18
5.65937e-18
5.82165e-18
5.65655e-18
5.71114e-18
5.75149e-18
5.72279e-18
5.75794e-18
5.786e-18
5.8037e-18
6.03411e-18
6.18994e-18
6.92126e-18
8.12861e-18
)
;

boundaryField
{
    fuel
    {
        type            fixedValue;
        value           nonuniform 0();
    }
    wall
    {
        type            zeroGradient;
    }
    outlet
    {
        type            zeroGradient;
    }
    frontAndBack
    {
        type            empty;
    }
    procBoundary1to0
    {
        type            processor;
        value           nonuniform List<scalar> 
21
(
3.11429e-16
1.57143e-16
8.8593e-17
7.53474e-17
7.01848e-17
6.82527e-17
6.86294e-17
6.73305e-17
6.8189e-17
6.72247e-17
5.96104e-17
5.96104e-17
5.98181e-17
5.96819e-17
6.00241e-17
6.02785e-17
6.09683e-17
6.5036e-17
7.37738e-17
1.05019e-16
1.41417e-16
)
;
    }
}


// ************************************************************************* //
