/*--------------------------------*- C++ -*----------------------------------*\
| =========                 |                                                 |
| \\      /  F ield         | OpenFOAM: The Open Source CFD Toolbox           |
|  \\    /   O peration     | Version:  dev                                   |
|   \\  /    A nd           | Web:      www.OpenFOAM.org                      |
|    \\/     M anipulation  |                                                 |
\*---------------------------------------------------------------------------*/
FoamFile
{
    version     2.0;
    format      ascii;
    class       volScalarField;
    location    "0.13";
    object      C2H;
}
// * * * * * * * * * * * * * * * * * * * * * * * * * * * * * * * * * * * * * //

dimensions      [0 0 0 0 0 0 0];

internalField   nonuniform List<scalar> 
50
(
1.93898e-10
1.52687e-10
1.20443e-10
9.51719e-11
7.53348e-11
5.97402e-11
4.74631e-11
3.77834e-11
3.014e-11
2.40949e-11
1.93057e-11
1.55047e-11
1.24821e-11
1.00737e-11
8.15062e-12
6.6116e-12
5.37713e-12
4.3846e-12
3.58466e-12
2.93837e-12
2.41491e-12
1.98989e-12
1.64393e-12
1.36163e-12
1.1307e-12
9.41338e-13
7.85683e-13
6.57427e-13
5.51498e-13
4.63802e-13
3.91032e-13
3.30509e-13
2.80056e-13
2.37901e-13
2.026e-13
1.72971e-13
1.48046e-13
1.27031e-13
1.09273e-13
9.42313e-14
8.14604e-14
7.05901e-14
6.14385e-14
5.3609e-14
4.68313e-14
4.10211e-14
3.60283e-14
3.1726e-14
2.80054e-14
2.47723e-14
)
;

boundaryField
{
    wall
    {
        type            zeroGradient;
    }
    fuel
    {
        type            fixedValue;
        value           nonuniform 0();
    }
    outlet
    {
        type            inletOutlet;
        inletValue      nonuniform 0();
        value           nonuniform 0();
    }
    procBoundary1to0
    {
        type            processor;
        value           uniform 2.4907e-10;
    }
    procBoundary1to2
    {
        type            processor;
        value           uniform 2.19512e-14;
    }
}


// ************************************************************************* //
