/*--------------------------------*- C++ -*----------------------------------*\
| =========                 |                                                 |
| \\      /  F ield         | OpenFOAM: The Open Source CFD Toolbox           |
|  \\    /   O peration     | Version:  dev                                   |
|   \\  /    A nd           | Web:      www.OpenFOAM.org                      |
|    \\/     M anipulation  |                                                 |
\*---------------------------------------------------------------------------*/
FoamFile
{
    version     2.0;
    format      ascii;
    class       volScalarField;
    location    "0.13";
    object      C6H;
}
// * * * * * * * * * * * * * * * * * * * * * * * * * * * * * * * * * * * * * //

dimensions      [0 0 0 0 0 0 0];

internalField   nonuniform List<scalar> 
250
(
7.44693e-12
7.53378e-12
5.46702e-12
5.43404e-12
4.98994e-12
4.72424e-12
4.85072e-12
4.55182e-12
4.77046e-12
4.53813e-12
4.64248e-12
4.70221e-12
3.36109e-12
3.35734e-12
3.07319e-12
2.90263e-12
2.98905e-12
2.7899e-12
2.93748e-12
2.78151e-12
2.83302e-12
2.86884e-12
2.84049e-12
2.892e-12
2.91675e-12
2.9495e-12
3.25789e-12
3.37382e-12
3.8624e-12
3.95299e-12
2.72995e-12
2.7666e-12
1.94822e-12
1.95611e-12
1.78579e-12
1.68174e-12
1.73794e-12
1.61254e-12
1.7063e-12
1.60778e-12
1.64026e-12
1.66266e-12
1.64469e-12
1.67612e-12
1.69119e-12
1.7119e-12
1.8983e-12
1.96435e-12
2.27662e-12
2.40087e-12
1.50171e-12
1.52094e-12
1.05429e-12
1.0649e-12
9.69938e-13
9.0943e-13
9.43802e-13
8.69764e-13
9.25532e-13
8.67275e-13
8.86479e-13
8.99561e-13
8.8896e-13
9.06803e-13
9.15441e-13
9.28689e-13
1.03373e-12
1.06766e-12
1.25168e-12
1.35571e-12
7.6262e-13
7.69081e-13
5.23132e-13
5.28367e-13
4.78311e-13
4.50431e-13
4.6652e-13
4.29524e-13
4.602e-13
4.28363e-13
4.38867e-13
4.45915e-13
4.4016e-13
4.49457e-13
4.54042e-13
4.56428e-13
5.12327e-13
5.32094e-13
6.31082e-13
7.01314e-13
3.40322e-13
3.48187e-13
2.31197e-13
2.34762e-13
2.11543e-13
1.98363e-13
2.06108e-13
1.88461e-13
2.03616e-13
1.87989e-13
1.93151e-13
1.96554e-13
1.9376e-13
1.98079e-13
2.00284e-13
2.01358e-13
2.27527e-13
2.36244e-13
2.837e-13
3.18659e-13
1.33095e-13
1.35634e-13
8.74345e-14
8.92966e-14
7.99972e-14
7.46583e-14
7.79525e-14
7.06274e-14
7.70451e-14
7.04688e-14
7.26426e-14
7.40491e-14
7.28901e-14
7.45995e-14
7.5517e-14
7.59413e-14
8.64663e-14
8.97863e-14
1.09273e-13
1.25483e-13
4.26025e-14
4.32362e-14
2.69824e-14
2.77284e-14
2.46796e-14
2.29313e-14
2.40696e-14
2.15952e-14
2.37994e-14
2.15538e-14
2.22964e-14
2.27674e-14
2.23783e-14
2.29244e-14
2.3237e-14
2.33737e-14
2.6815e-14
2.78558e-14
3.43411e-14
4.03267e-14
1.04786e-14
1.06043e-14
6.40388e-15
6.62781e-15
5.85759e-15
5.42266e-15
5.72131e-15
5.08291e-15
5.66071e-15
5.07508e-15
5.26875e-15
5.38911e-15
5.28953e-15
5.42226e-15
5.50422e-15
5.53782e-15
6.39791e-15
6.64998e-15
8.28798e-15
9.93926e-15
1.82131e-15
1.84277e-15
1.07723e-15
1.12426e-15
9.8581e-16
9.10153e-16
9.64773e-16
8.49038e-16
9.5542e-16
8.48047e-16
8.83543e-16
9.05175e-16
8.87261e-16
9.09947e-16
9.25119e-16
9.30968e-16
1.0824e-15
1.12609e-15
1.41495e-15
1.72849e-15
2.00484e-16
2.03119e-16
1.1428e-16
1.20465e-16
1.04517e-16
9.63129e-17
1.02497e-16
8.93576e-17
1.01616e-16
8.9274e-17
9.33443e-17
9.57945e-17
9.37636e-17
9.62171e-17
9.79748e-17
9.86399e-17
1.15471e-16
1.20456e-16
1.52578e-16
1.89941e-16
1.28195e-17
1.30411e-17
7.05232e-18
7.52294e-18
6.44344e-18
5.94181e-18
6.33119e-18
5.48534e-18
6.28471e-18
5.47912e-18
5.74354e-18
5.90303e-18
5.77011e-18
5.92549e-18
6.03938e-18
6.08563e-18
7.1627e-18
7.5085e-18
9.56689e-18
1.21252e-17
5.08518e-19
5.1933e-19
2.7175e-19
2.92996e-19
2.47885e-19
2.29044e-19
2.43941e-19
2.10535e-19
2.42463e-19
2.10185e-19
2.20746e-19
2.27116e-19
2.21793e-19
2.27903e-19
2.32429e-19
2.34444e-19
2.77005e-19
2.91988e-19
3.73245e-19
4.80026e-19
)
;

boundaryField
{
    fuel
    {
        type            fixedValue;
        value           nonuniform 0();
    }
    wall
    {
        type            zeroGradient;
    }
    outlet
    {
        type            zeroGradient;
    }
    frontAndBack
    {
        type            empty;
    }
    procBoundary1to0
    {
        type            processor;
        value           nonuniform List<scalar> 
21
(
1.13345e-11
1.1447e-11
8.43014e-12
8.3436e-12
7.68571e-12
7.29477e-12
7.46869e-12
7.04571e-12
7.3504e-12
7.02436e-12
4.61502e-12
4.61502e-12
4.6689e-12
4.62697e-12
4.70594e-12
4.7441e-12
4.7945e-12
5.27237e-12
5.46291e-12
6.16418e-12
6.09616e-12
)
;
    }
}


// ************************************************************************* //
