/*--------------------------------*- C++ -*----------------------------------*\
| =========                 |                                                 |
| \\      /  F ield         | OpenFOAM: The Open Source CFD Toolbox           |
|  \\    /   O peration     | Version:  dev                                   |
|   \\  /    A nd           | Web:      www.OpenFOAM.org                      |
|    \\/     M anipulation  |                                                 |
\*---------------------------------------------------------------------------*/
FoamFile
{
    version     2.0;
    format      ascii;
    class       volScalarField;
    location    "0.13";
    object      H2C4O;
}
// * * * * * * * * * * * * * * * * * * * * * * * * * * * * * * * * * * * * * //

dimensions      [0 0 0 0 0 0 0];

internalField   nonuniform List<scalar> 
50
(
2.10259e-16
1.28907e-16
7.94067e-17
4.9211e-17
3.07343e-17
1.93858e-17
1.2383e-17
8.03673e-18
5.31945e-18
3.60501e-18
2.51079e-18
1.80235e-18
1.33555e-18
1.02143e-18
8.04806e-19
6.51269e-19
5.39206e-19
4.5493e-19
3.89686e-19
3.37804e-19
2.95558e-19
2.60458e-19
2.30807e-19
2.05418e-19
1.83447e-19
1.64273e-19
1.47428e-19
1.32554e-19
1.19364e-19
1.07631e-19
9.7164e-20
8.78073e-20
7.94273e-20
7.19103e-20
6.51583e-20
5.90863e-20
5.36199e-20
4.86938e-20
4.42505e-20
4.02391e-20
3.66144e-20
3.33357e-20
3.04074e-20
2.77537e-20
2.53238e-20
2.31237e-20
2.11301e-20
1.93216e-20
1.76783e-20
1.61808e-20
)
;

boundaryField
{
    wall
    {
        type            zeroGradient;
    }
    fuel
    {
        type            fixedValue;
        value           nonuniform 0();
    }
    outlet
    {
        type            inletOutlet;
        inletValue      nonuniform 0();
        value           nonuniform 0();
    }
    procBoundary1to0
    {
        type            processor;
        value           uniform 3.5805e-16;
    }
    procBoundary1to2
    {
        type            processor;
        value           uniform 1.48294e-20;
    }
}


// ************************************************************************* //
