/*--------------------------------*- C++ -*----------------------------------*\
| =========                 |                                                 |
| \\      /  F ield         | OpenFOAM: The Open Source CFD Toolbox           |
|  \\    /   O peration     | Version:  dev                                   |
|   \\  /    A nd           | Web:      www.OpenFOAM.org                      |
|    \\/     M anipulation  |                                                 |
\*---------------------------------------------------------------------------*/
FoamFile
{
    version     2.0;
    format      ascii;
    class       volScalarField;
    location    "0.13";
    object      l-C6H6;
}
// * * * * * * * * * * * * * * * * * * * * * * * * * * * * * * * * * * * * * //

dimensions      [0 0 0 0 0 0 0];

internalField   nonuniform List<scalar> 
50
(
3.49692e-18
3.07403e-18
2.70877e-18
2.39121e-18
2.11383e-18
1.87069e-18
1.65702e-18
1.46889e-18
1.303e-18
1.15657e-18
1.0272e-18
9.12826e-19
8.11642e-19
7.2208e-19
6.42765e-19
5.72489e-19
5.10192e-19
4.5494e-19
4.05912e-19
3.62384e-19
3.23718e-19
2.89353e-19
2.58793e-19
2.31602e-19
2.07394e-19
1.8583e-19
1.6661e-19
1.49468e-19
1.3417e-19
1.20511e-19
1.08308e-19
9.7398e-20
8.7639e-20
7.89043e-20
7.10817e-20
6.40719e-20
5.77868e-20
5.2148e-20
4.7086e-20
4.25389e-20
3.84515e-20
3.47742e-20
3.15078e-20
2.85641e-20
2.58841e-20
2.34716e-20
2.12983e-20
1.93386e-20
1.75687e-20
1.59661e-20
)
;

boundaryField
{
    wall
    {
        type            zeroGradient;
    }
    fuel
    {
        type            fixedValue;
        value           nonuniform 0();
    }
    outlet
    {
        type            inletOutlet;
        inletValue      nonuniform 0();
        value           nonuniform 0();
    }
    procBoundary1to0
    {
        type            processor;
        value           uniform 3.98185e-18;
    }
    procBoundary1to2
    {
        type            processor;
        value           uniform 1.45286e-20;
    }
}


// ************************************************************************* //
