/*--------------------------------*- C++ -*----------------------------------*\
| =========                 |                                                 |
| \\      /  F ield         | OpenFOAM: The Open Source CFD Toolbox           |
|  \\    /   O peration     | Version:  dev                                   |
|   \\  /    A nd           | Web:      www.OpenFOAM.org                      |
|    \\/     M anipulation  |                                                 |
\*---------------------------------------------------------------------------*/
FoamFile
{
    version     2.0;
    format      ascii;
    class       volScalarField;
    location    "0.13";
    object      n-A1C2H2;
}
// * * * * * * * * * * * * * * * * * * * * * * * * * * * * * * * * * * * * * //

dimensions      [0 0 0 0 0 0 0];

internalField   nonuniform List<scalar> 
250
(
2.35261e-11
1.90845e-11
1.666e-11
1.5844e-11
1.55944e-11
1.55239e-11
1.55115e-11
1.55211e-11
1.55066e-11
1.5518e-11
2.2651e-11
1.91568e-11
1.71858e-11
1.65039e-11
1.63036e-11
1.62414e-11
1.62308e-11
1.62449e-11
1.6228e-11
1.62421e-11
1.62589e-11
1.61898e-11
1.6274e-11
1.61835e-11
1.62751e-11
1.62493e-11
1.6521e-11
1.7355e-11
2.08318e-11
3.4048e-11
2.25196e-11
1.97925e-11
1.82071e-11
1.76543e-11
1.75134e-11
1.74615e-11
1.74523e-11
1.74757e-11
1.7454e-11
1.74734e-11
1.75062e-11
1.73919e-11
1.75301e-11
1.73805e-11
1.75237e-11
1.74239e-11
1.76828e-11
1.83251e-11
2.10835e-11
3.16963e-11
2.3372e-11
2.12862e-11
2.00343e-11
1.96049e-11
1.95247e-11
1.94846e-11
1.94741e-11
1.95086e-11
1.94807e-11
1.95068e-11
1.9559e-11
1.93829e-11
1.95951e-11
1.93751e-11
1.95813e-11
1.93937e-11
1.96534e-11
2.01037e-11
2.22038e-11
3.06596e-11
2.54531e-11
2.39103e-11
2.29319e-11
2.26303e-11
2.25672e-11
2.25682e-11
2.25213e-11
2.2561e-11
2.25293e-11
2.25602e-11
2.26248e-11
2.2432e-11
2.26721e-11
2.24058e-11
2.26582e-11
2.24172e-11
2.27052e-11
2.29703e-11
2.4504e-11
3.11806e-11
2.88579e-11
2.77265e-11
2.69544e-11
2.67106e-11
2.66456e-11
2.66333e-11
2.65957e-11
2.66255e-11
2.65971e-11
2.66263e-11
2.66834e-11
2.64973e-11
2.67341e-11
2.64934e-11
2.67344e-11
2.65374e-11
2.67923e-11
2.70007e-11
2.8121e-11
3.33379e-11
3.34557e-11
3.25677e-11
3.1899e-11
3.16594e-11
3.15249e-11
3.14907e-11
3.14612e-11
3.14607e-11
3.14459e-11
3.14641e-11
3.14861e-11
3.13845e-11
3.15274e-11
3.14213e-11
3.15586e-11
3.154e-11
3.17212e-11
3.2007e-11
3.29186e-11
3.69468e-11
3.90418e-11
3.81963e-11
3.75239e-11
3.72343e-11
3.69778e-11
3.69124e-11
3.68921e-11
3.68447e-11
3.68529e-11
3.68515e-11
3.68146e-11
3.68655e-11
3.68342e-11
3.69629e-11
3.69083e-11
3.71852e-11
3.72484e-11
3.77442e-11
3.86502e-11
4.17987e-11
4.60314e-11
4.51122e-11
4.43816e-11
4.40367e-11
4.36557e-11
4.35654e-11
4.35514e-11
4.34592e-11
4.34918e-11
4.34687e-11
4.33783e-11
4.35751e-11
4.33798e-11
4.37298e-11
4.34916e-11
4.40547e-11
4.39929e-11
4.4739e-11
4.57047e-11
4.8215e-11
5.92735e-11
5.85901e-11
5.78824e-11
5.7655e-11
5.72741e-11
5.72188e-11
5.71821e-11
5.71028e-11
5.71402e-11
5.71051e-11
5.70674e-11
5.71286e-11
5.71201e-11
5.72772e-11
5.72178e-11
5.76439e-11
5.76007e-11
5.8366e-11
5.88838e-11
6.08321e-11
1.0144e-10
1.00937e-10
9.9732e-11
9.95206e-11
9.8827e-11
9.87731e-11
9.86718e-11
9.85286e-11
9.86325e-11
9.84854e-11
9.84623e-11
9.85291e-11
9.85897e-11
9.8745e-11
9.87464e-11
9.94027e-11
9.92696e-11
1.00781e-10
1.00472e-10
1.02568e-10
1.94263e-10
1.87253e-10
1.81949e-10
1.78971e-10
1.75379e-10
1.74523e-10
1.74516e-10
1.73407e-10
1.74027e-10
1.73248e-10
1.71938e-10
1.75901e-10
1.71436e-10
1.77194e-10
1.72399e-10
1.79834e-10
1.76943e-10
1.85917e-10
1.91152e-10
1.99035e-10
2.37423e-10
2.19769e-10
2.09483e-10
2.02751e-10
1.95908e-10
1.94008e-10
1.94204e-10
1.91984e-10
1.93153e-10
1.91697e-10
1.88686e-10
1.97919e-10
1.87162e-10
2.00571e-10
1.88927e-10
2.05476e-10
1.98107e-10
2.17295e-10
2.30775e-10
2.50034e-10
)
;

boundaryField
{
    fuel
    {
        type            fixedValue;
        value           nonuniform 0();
    }
    wall
    {
        type            zeroGradient;
    }
    outlet
    {
        type            zeroGradient;
    }
    frontAndBack
    {
        type            empty;
    }
    procBoundary1to0
    {
        type            processor;
        value           nonuniform List<scalar> 
21
(
2.49919e-11
1.93551e-11
1.63884e-11
1.54289e-11
1.51382e-11
1.50612e-11
1.50475e-11
1.50572e-11
1.5043e-11
1.5054e-11
1.55252e-11
1.55252e-11
1.54805e-11
1.55354e-11
1.54779e-11
1.55407e-11
1.55594e-11
1.58566e-11
1.68776e-11
2.1128e-11
3.74507e-11
)
;
    }
}


// ************************************************************************* //
