/*--------------------------------*- C++ -*----------------------------------*\
| =========                 |                                                 |
| \\      /  F ield         | OpenFOAM: The Open Source CFD Toolbox           |
|  \\    /   O peration     | Version:  dev                                   |
|   \\  /    A nd           | Web:      www.OpenFOAM.org                      |
|    \\/     M anipulation  |                                                 |
\*---------------------------------------------------------------------------*/
FoamFile
{
    version     2.0;
    format      ascii;
    class       volScalarField;
    location    "0.13";
    object      n-C6H5;
}
// * * * * * * * * * * * * * * * * * * * * * * * * * * * * * * * * * * * * * //

dimensions      [0 0 0 0 0 0 0];

internalField   nonuniform List<scalar> 
250
(
4.70999e-12
4.54218e-12
4.25971e-12
3.99285e-12
3.736e-12
3.67795e-12
3.66811e-12
3.6002e-12
3.62656e-12
3.60134e-12
2.86965e-12
2.69782e-12
2.51488e-12
2.34697e-12
2.18511e-12
2.1495e-12
2.14326e-12
2.09922e-12
2.11672e-12
2.10038e-12
2.04737e-12
2.20136e-12
2.02904e-12
2.26648e-12
2.07512e-12
2.37465e-12
2.34333e-12
2.62629e-12
3.4978e-12
4.59534e-12
1.63469e-12
1.50134e-12
1.39141e-12
1.29584e-12
1.20414e-12
1.18496e-12
1.18105e-12
1.15582e-12
1.166e-12
1.15668e-12
1.12611e-12
1.21554e-12
1.11521e-12
1.25196e-12
1.14093e-12
1.31179e-12
1.29138e-12
1.44988e-12
1.92209e-12
2.4379e-12
9.01716e-13
8.17754e-13
7.57772e-13
7.09859e-13
6.63899e-13
6.55457e-13
6.52656e-13
6.40265e-13
6.4526e-13
6.40738e-13
6.25681e-13
6.70726e-13
6.20267e-13
6.87486e-13
6.32688e-13
7.16582e-13
7.0684e-13
7.85106e-13
1.0151e-12
1.24168e-12
5.37008e-13
4.93506e-13
4.65285e-13
4.42676e-13
4.2494e-13
4.19672e-13
4.20138e-13
4.15236e-13
4.17129e-13
4.15403e-13
4.09575e-13
4.25924e-13
4.07643e-13
4.33677e-13
4.12639e-13
4.45889e-13
4.41192e-13
4.76238e-13
5.7354e-13
6.68705e-13
4.0949e-13
3.93016e-13
3.80816e-13
3.72184e-13
3.65816e-13
3.63952e-13
3.63782e-13
3.62331e-13
3.62769e-13
3.62313e-13
3.60874e-13
3.6491e-13
3.60737e-13
3.67378e-13
3.62453e-13
3.72024e-13
3.72126e-13
3.84707e-13
4.1825e-13
4.53304e-13
4.1026e-13
4.06505e-13
4.00649e-13
3.96848e-13
3.9354e-13
3.92611e-13
3.9224e-13
3.91645e-13
3.91739e-13
3.91548e-13
3.91259e-13
3.91862e-13
3.91653e-13
3.93056e-13
3.92589e-13
3.95883e-13
3.97025e-13
4.02996e-13
4.12352e-13
4.24169e-13
4.63228e-13
4.62504e-13
4.57626e-13
4.54283e-13
4.50319e-13
4.49268e-13
4.48937e-13
4.48034e-13
4.48309e-13
4.47921e-13
4.47276e-13
4.48758e-13
4.47558e-13
4.50299e-13
4.48741e-13
4.53803e-13
4.53847e-13
4.6102e-13
4.65378e-13
4.67635e-13
5.45581e-13
5.45083e-13
5.39894e-13
5.36639e-13
5.31964e-13
5.30881e-13
5.30552e-13
5.29411e-13
5.29861e-13
5.29285e-13
5.28446e-13
5.30489e-13
5.28742e-13
5.32353e-13
5.30082e-13
5.3654e-13
5.35707e-13
5.44577e-13
5.48126e-13
5.47424e-13
7.25313e-13
7.2708e-13
7.21623e-13
7.19407e-13
7.14361e-13
7.13559e-13
7.13035e-13
7.1186e-13
7.12476e-13
7.11654e-13
7.11126e-13
7.12352e-13
7.11862e-13
7.14265e-13
7.13241e-13
7.19062e-13
7.18304e-13
7.27875e-13
7.27624e-13
7.26437e-13
1.1704e-12
1.16127e-12
1.14615e-12
1.13848e-12
1.12556e-12
1.12308e-12
1.1226e-12
1.11885e-12
1.12102e-12
1.11833e-12
1.11483e-12
1.12499e-12
1.11451e-12
1.12969e-12
1.11815e-12
1.14017e-12
1.13323e-12
1.16094e-12
1.17041e-12
1.18022e-12
2.15429e-12
2.10152e-12
2.05579e-12
2.03185e-12
1.99758e-12
1.99059e-12
1.99e-12
1.97951e-12
1.98604e-12
1.9776e-12
1.96651e-12
2.00152e-12
1.96322e-12
2.01369e-12
1.97204e-12
2.04012e-12
2.012e-12
2.09788e-12
2.13795e-12
2.20405e-12
7.67353e-12
7.4529e-12
7.24587e-12
7.16459e-12
7.02455e-12
7.0016e-12
6.99586e-12
6.95478e-12
6.98381e-12
6.94379e-12
6.90264e-12
7.04165e-12
6.88957e-12
7.08832e-12
6.9188e-12
7.19993e-12
7.05689e-12
7.4558e-12
7.53534e-12
7.96074e-12
)
;

boundaryField
{
    fuel
    {
        type            fixedValue;
        value           nonuniform 0();
    }
    wall
    {
        type            zeroGradient;
    }
    outlet
    {
        type            zeroGradient;
    }
    frontAndBack
    {
        type            empty;
    }
    procBoundary1to0
    {
        type            processor;
        value           nonuniform List<scalar> 
21
(
7.19582e-12
7.11551e-12
6.69891e-12
6.30825e-12
5.93576e-12
5.85082e-12
5.83609e-12
5.74203e-12
5.77743e-12
5.74255e-12
3.51988e-12
3.51988e-12
3.75484e-12
3.49269e-12
3.85767e-12
3.56583e-12
4.03282e-12
3.99394e-12
4.45421e-12
5.92676e-12
8.08824e-12
)
;
    }
}


// ************************************************************************* //
