/*--------------------------------*- C++ -*----------------------------------*\
| =========                 |                                                 |
| \\      /  F ield         | OpenFOAM: The Open Source CFD Toolbox           |
|  \\    /   O peration     | Version:  dev                                   |
|   \\  /    A nd           | Web:      www.OpenFOAM.org                      |
|    \\/     M anipulation  |                                                 |
\*---------------------------------------------------------------------------*/
FoamFile
{
    version     2.0;
    format      ascii;
    class       volScalarField;
    location    "0.065";
    object      C2O;
}
// * * * * * * * * * * * * * * * * * * * * * * * * * * * * * * * * * * * * * //

dimensions      [0 0 0 0 0 0 0];

internalField   nonuniform List<scalar> 
25
(
4.42217e-11
4.17942e-11
3.98533e-11
3.82392e-11
3.69236e-11
3.58697e-11
3.49551e-11
3.41269e-11
3.33371e-11
3.25446e-11
3.1716e-11
3.08253e-11
2.98537e-11
2.87882e-11
2.76215e-11
2.63516e-11
2.49808e-11
2.35134e-11
2.19536e-11
2.03114e-11
1.86052e-11
1.68918e-11
1.51669e-11
1.34477e-11
1.1755e-11
)
;

boundaryField
{
    wall
    {
        type            zeroGradient;
    }
    fuel
    {
        type            fixedValue;
        value           nonuniform 0();
    }
    outlet
    {
        type            inletOutlet;
        inletValue      nonuniform 0();
        value           nonuniform 0();
    }
    procBoundary2to1
    {
        type            processor;
        value           uniform 4.72505e-11;
    }
    procBoundary2to3
    {
        type            processor;
        value           uniform 1.0086e-11;
    }
}


// ************************************************************************* //
