/*--------------------------------*- C++ -*----------------------------------*\
| =========                 |                                                 |
| \\      /  F ield         | OpenFOAM: The Open Source CFD Toolbox           |
|  \\    /   O peration     | Version:  dev                                   |
|   \\  /    A nd           | Web:      www.OpenFOAM.org                      |
|    \\/     M anipulation  |                                                 |
\*---------------------------------------------------------------------------*/
FoamFile
{
    version     2.0;
    format      ascii;
    class       volScalarField;
    location    "0.065";
    object      C6H5OH;
}
// * * * * * * * * * * * * * * * * * * * * * * * * * * * * * * * * * * * * * //

dimensions      [0 0 0 0 0 0 0];

internalField   nonuniform List<scalar> 
25
(
2.04099e-14
2.8394e-14
3.88205e-14
5.26503e-14
7.01123e-14
9.07645e-14
1.15906e-13
1.45892e-13
1.80994e-13
2.21321e-13
2.66739e-13
3.16808e-13
3.70733e-13
4.27344e-13
4.85112e-13
5.42219e-13
5.96692e-13
6.46596e-13
6.90242e-13
7.26075e-13
7.52331e-13
7.67712e-13
7.72391e-13
7.66562e-13
7.50798e-13
)
;

boundaryField
{
    wall
    {
        type            zeroGradient;
    }
    fuel
    {
        type            fixedValue;
        value           nonuniform 0();
    }
    outlet
    {
        type            inletOutlet;
        inletValue      nonuniform 0();
        value           nonuniform 0();
    }
    procBoundary2to1
    {
        type            processor;
        value           uniform 1.44008e-14;
    }
    procBoundary2to3
    {
        type            processor;
        value           uniform 7.25273e-13;
    }
}


// ************************************************************************* //
