/*--------------------------------*- C++ -*----------------------------------*\
| =========                 |                                                 |
| \\      /  F ield         | OpenFOAM: The Open Source CFD Toolbox           |
|  \\    /   O peration     | Version:  dev                                   |
|   \\  /    A nd           | Web:      www.OpenFOAM.org                      |
|    \\/     M anipulation  |                                                 |
\*---------------------------------------------------------------------------*/
FoamFile
{
    version     2.0;
    format      ascii;
    class       volScalarField;
    location    "0.065";
    object      i-C6H5;
}
// * * * * * * * * * * * * * * * * * * * * * * * * * * * * * * * * * * * * * //

dimensions      [0 0 0 0 0 0 0];

internalField   nonuniform List<scalar> 
25
(
3.04269e-17
3.58993e-17
4.13139e-17
4.6516e-17
5.09785e-17
5.42722e-17
5.64597e-17
5.74016e-17
5.70465e-17
5.54297e-17
5.26677e-17
4.89434e-17
4.44875e-17
3.9554e-17
3.43977e-17
2.92538e-17
2.43211e-17
1.97504e-17
1.56433e-17
1.20718e-17
9.06194e-18
6.65283e-18
4.75306e-18
3.29759e-18
2.21729e-18
)
;

boundaryField
{
    wall
    {
        type            zeroGradient;
    }
    fuel
    {
        type            fixedValue;
        value           nonuniform 0();
    }
    outlet
    {
        type            inletOutlet;
        inletValue      nonuniform 0();
        value           nonuniform 0();
    }
    procBoundary2to1
    {
        type            processor;
        value           uniform 2.51054e-17;
    }
    procBoundary2to3
    {
        type            processor;
        value           uniform 1.42781e-18;
    }
}


// ************************************************************************* //
