/*--------------------------------*- C++ -*----------------------------------*\
| =========                 |                                                 |
| \\      /  F ield         | OpenFOAM: The Open Source CFD Toolbox           |
|  \\    /   O peration     | Version:  dev                                   |
|   \\  /    A nd           | Web:      www.OpenFOAM.org                      |
|    \\/     M anipulation  |                                                 |
\*---------------------------------------------------------------------------*/
FoamFile
{
    version     2.0;
    format      ascii;
    class       volScalarField;
    location    "0.065";
    object      n-C4H3;
}
// * * * * * * * * * * * * * * * * * * * * * * * * * * * * * * * * * * * * * //

dimensions      [0 0 0 0 0 0 0];

internalField   nonuniform List<scalar> 
25
(
3.00266e-16
3.56424e-16
4.13368e-16
4.69941e-16
5.20981e-16
5.6186e-16
5.93082e-16
6.12889e-16
6.2027e-16
6.14994e-16
5.97616e-16
5.69387e-16
5.32126e-16
4.88018e-16
4.39423e-16
3.88682e-16
3.37934e-16
2.88943e-16
2.42964e-16
2.00942e-16
1.63829e-16
1.32605e-16
1.0655e-16
8.52467e-17
6.81094e-17
)
;

boundaryField
{
    wall
    {
        type            zeroGradient;
    }
    fuel
    {
        type            fixedValue;
        value           nonuniform 0();
    }
    outlet
    {
        type            inletOutlet;
        inletValue      nonuniform 0();
        value           nonuniform 0();
    }
    procBoundary2to1
    {
        type            processor;
        value           uniform 2.4679e-16;
    }
    procBoundary2to3
    {
        type            processor;
        value           uniform 5.42273e-17;
    }
}


// ************************************************************************* //
