/*--------------------------------*- C++ -*----------------------------------*\
| =========                 |                                                 |
| \\      /  F ield         | OpenFOAM: The Open Source CFD Toolbox           |
|  \\    /   O peration     | Version:  dev                                   |
|   \\  /    A nd           | Web:      www.OpenFOAM.org                      |
|    \\/     M anipulation  |                                                 |
\*---------------------------------------------------------------------------*/
FoamFile
{
    version     2.0;
    format      ascii;
    class       volScalarField;
    location    "0.03";
    object      A2;
}
// * * * * * * * * * * * * * * * * * * * * * * * * * * * * * * * * * * * * * //

dimensions      [0 0 0 0 0 0 0];

internalField   nonuniform List<scalar> 
250
(
1.04785e-07
7.59294e-08
6.44207e-08
5.16896e-08
4.507e-08
3.88666e-08
3.41637e-08
3.12082e-08
2.8793e-08
2.7839e-08
1.1979e-07
8.91537e-08
7.54672e-08
6.04472e-08
5.18436e-08
4.4163e-08
3.83775e-08
3.46821e-08
3.18297e-08
3.05779e-08
3.03508e-08
3.12623e-08
3.33628e-08
3.63994e-08
4.09754e-08
4.75597e-08
5.46554e-08
6.73045e-08
8.0081e-08
1.04876e-07
1.35528e-07
1.0301e-07
8.67283e-08
6.92509e-08
5.84393e-08
4.91509e-08
4.21992e-08
3.77055e-08
3.43961e-08
3.28249e-08
3.25559e-08
3.3676e-08
3.61365e-08
3.97765e-08
4.53157e-08
5.31751e-08
6.20958e-08
7.68142e-08
9.1728e-08
1.17946e-07
1.52031e-07
1.17325e-07
9.81318e-08
7.79711e-08
6.47684e-08
5.37578e-08
4.55749e-08
4.0232e-08
3.64475e-08
3.4545e-08
3.42351e-08
3.557e-08
3.84038e-08
4.2709e-08
4.92078e-08
5.84533e-08
6.93454e-08
8.62706e-08
1.03619e-07
1.31778e-07
1.68743e-07
1.31928e-07
1.09505e-07
8.6568e-08
7.08208e-08
5.79837e-08
4.85347e-08
4.23242e-08
3.80395e-08
3.57931e-08
3.54161e-08
3.69997e-08
4.02249e-08
4.51805e-08
5.26911e-08
6.33952e-08
7.63795e-08
9.56446e-08
1.1568e-07
1.45752e-07
1.85932e-07
1.46841e-07
1.20923e-07
9.50619e-08
7.66376e-08
6.18722e-08
5.10863e-08
4.39638e-08
3.91689e-08
3.65851e-08
3.61655e-08
3.79716e-08
4.1593e-08
4.72494e-08
5.58192e-08
6.8049e-08
8.32305e-08
1.04965e-07
1.27917e-07
1.60133e-07
2.0368e-07
1.62097e-07
1.32425e-07
1.035e-07
8.22874e-08
6.54868e-08
5.33249e-08
4.52752e-08
3.99555e-08
3.7036e-08
3.6573e-08
3.86031e-08
4.26298e-08
4.89995e-08
5.86693e-08
7.24849e-08
8.99559e-08
1.14281e-07
1.40366e-07
1.74972e-07
2.22047e-07
1.7771e-07
1.44031e-07
1.11923e-07
8.78492e-08
6.88834e-08
5.53445e-08
4.63536e-08
4.04979e-08
3.72462e-08
3.67393e-08
3.89941e-08
4.34326e-08
5.05243e-08
6.13252e-08
7.67745e-08
9.66121e-08
1.23631e-07
1.53044e-07
1.90312e-07
2.40985e-07
1.93612e-07
1.55697e-07
1.20335e-07
9.34016e-08
7.20771e-08
5.72281e-08
4.72915e-08
4.08961e-08
3.73172e-08
3.67667e-08
3.92454e-08
4.40973e-08
5.19127e-08
6.38606e-08
8.09688e-08
1.03224e-07
1.33005e-07
1.65884e-07
2.06132e-07
2.60221e-07
2.09559e-07
1.6725e-07
1.28642e-07
9.89937e-08
7.50109e-08
5.90299e-08
4.8162e-08
4.12363e-08
3.73387e-08
3.67459e-08
3.94446e-08
4.4703e-08
5.32297e-08
6.63145e-08
8.50665e-08
1.09742e-07
1.42282e-07
1.78609e-07
2.22287e-07
2.79052e-07
2.24974e-07
1.78272e-07
1.36554e-07
1.03939e-07
7.81749e-08
6.0745e-08
4.89934e-08
4.15692e-08
3.737e-08
3.67377e-08
3.96463e-08
4.52878e-08
5.44876e-08
6.86538e-08
8.89636e-08
1.15969e-07
1.51145e-07
1.90444e-07
2.38488e-07
2.95978e-07
2.38655e-07
1.87907e-07
1.43467e-07
1.08091e-07
8.11027e-08
6.22458e-08
4.97236e-08
4.18722e-08
3.74077e-08
3.67418e-08
3.98355e-08
4.58077e-08
5.55927e-08
7.0703e-08
9.23612e-08
1.21431e-07
1.58904e-07
1.99449e-07
2.54425e-07
3.07951e-07
2.48198e-07
1.94486e-07
1.48188e-07
1.10905e-07
8.30171e-08
6.3212e-08
5.0162e-08
4.20219e-08
3.73749e-08
3.66866e-08
3.9908e-08
4.61051e-08
5.62906e-08
7.20515e-08
9.4627e-08
1.25149e-07
1.64203e-07
2.08229e-07
2.63303e-07
)
;

boundaryField
{
    fuel
    {
        type            fixedValue;
        value           nonuniform 0();
    }
    wall
    {
        type            zeroGradient;
    }
    outlet
    {
        type            zeroGradient;
    }
    frontAndBack
    {
        type            empty;
    }
    procBoundary1to0
    {
        type            processor;
        value           nonuniform List<scalar> 
21
(
9.09023e-08
6.36531e-08
5.38351e-08
4.32066e-08
3.83001e-08
3.34215e-08
2.97e-08
2.741e-08
2.54089e-08
2.47188e-08
2.7653e-08
2.7653e-08
2.83686e-08
3.01256e-08
3.25935e-08
3.6285e-08
4.16824e-08
4.71348e-08
5.7863e-08
6.88572e-08
9.24969e-08
)
;
    }
}


// ************************************************************************* //
