/*--------------------------------*- C++ -*----------------------------------*\
| =========                 |                                                 |
| \\      /  F ield         | OpenFOAM: The Open Source CFD Toolbox           |
|  \\    /   O peration     | Version:  dev                                   |
|   \\  /    A nd           | Web:      www.OpenFOAM.org                      |
|    \\/     M anipulation  |                                                 |
\*---------------------------------------------------------------------------*/
FoamFile
{
    version     2.0;
    format      ascii;
    class       volScalarField;
    location    "0.03";
    object      A2R5;
}
// * * * * * * * * * * * * * * * * * * * * * * * * * * * * * * * * * * * * * //

dimensions      [0 0 0 0 0 0 0];

internalField   nonuniform List<scalar> 
250
(
1.35325e-07
7.90385e-08
6.16131e-08
5.32867e-08
5.00941e-08
4.84346e-08
4.74423e-08
4.66801e-08
4.62436e-08
4.59395e-08
1.23758e-07
7.63805e-08
6.10449e-08
5.33503e-08
5.01566e-08
4.8369e-08
4.72795e-08
4.64224e-08
4.59365e-08
4.55877e-08
4.55804e-08
4.59208e-08
4.63972e-08
4.72415e-08
4.83237e-08
5.00892e-08
5.32285e-08
6.06657e-08
7.65718e-08
1.20779e-07
1.13695e-07
7.40741e-08
6.05343e-08
5.33757e-08
5.01619e-08
4.82276e-08
4.70355e-08
4.60759e-08
4.55378e-08
4.51411e-08
4.51332e-08
4.55199e-08
4.60479e-08
4.69919e-08
4.81779e-08
5.00846e-08
5.32522e-08
6.01865e-08
7.41823e-08
1.11226e-07
1.0506e-07
7.21014e-08
6.00747e-08
5.33602e-08
5.01023e-08
4.80077e-08
4.67048e-08
4.56379e-08
4.50437e-08
4.45971e-08
4.45885e-08
4.50237e-08
4.5607e-08
4.66557e-08
4.79533e-08
5.00147e-08
5.32345e-08
5.97527e-08
7.21337e-08
1.03033e-07
9.77642e-08
7.04107e-08
5.96675e-08
5.33073e-08
4.99781e-08
4.77146e-08
4.62911e-08
4.51144e-08
4.44593e-08
4.39618e-08
4.39525e-08
4.44372e-08
4.50804e-08
4.62367e-08
4.7655e-08
4.988e-08
5.31784e-08
5.9367e-08
7.03897e-08
9.61164e-08
9.17151e-08
6.90593e-08
5.93199e-08
5.32289e-08
4.97998e-08
4.73593e-08
4.58049e-08
4.45176e-08
4.37963e-08
4.32476e-08
4.32376e-08
4.37721e-08
4.44805e-08
4.57453e-08
4.72941e-08
4.9692e-08
5.30957e-08
5.90369e-08
6.89801e-08
9.03744e-08
8.67732e-08
6.80015e-08
5.90408e-08
5.31354e-08
4.95786e-08
4.69565e-08
4.52612e-08
4.38642e-08
4.30712e-08
4.24717e-08
4.2461e-08
4.30449e-08
4.38238e-08
4.51968e-08
4.6885e-08
4.94618e-08
5.29972e-08
5.87716e-08
6.78744e-08
8.57448e-08
8.29377e-08
6.72216e-08
5.8838e-08
5.30387e-08
4.93294e-08
4.65229e-08
4.46783e-08
4.31738e-08
4.23044e-08
4.16553e-08
4.1644e-08
4.22762e-08
4.31301e-08
4.46094e-08
4.64447e-08
4.92042e-08
5.28947e-08
5.8579e-08
6.7056e-08
8.21242e-08
8.00724e-08
6.66982e-08
5.87162e-08
5.29495e-08
4.90678e-08
4.60771e-08
4.40776e-08
4.24695e-08
4.15205e-08
4.08236e-08
4.08117e-08
4.14904e-08
4.24225e-08
4.40045e-08
4.59919e-08
4.89351e-08
5.27993e-08
5.84638e-08
6.65029e-08
7.94169e-08
7.80585e-08
6.64029e-08
5.86751e-08
5.28764e-08
4.88107e-08
4.564e-08
4.34844e-08
4.17787e-08
4.07493e-08
4.00073e-08
3.9995e-08
4.07174e-08
4.17285e-08
4.34077e-08
4.55478e-08
4.86711e-08
5.27202e-08
5.84258e-08
6.61862e-08
7.75169e-08
7.67743e-08
6.62965e-08
5.87068e-08
5.28253e-08
4.8576e-08
4.5236e-08
4.29303e-08
4.11364e-08
4.00293e-08
3.92468e-08
3.9234e-08
3.99958e-08
4.10833e-08
4.28506e-08
4.5137e-08
4.84304e-08
5.26636e-08
5.84573e-08
6.60665e-08
7.63073e-08
7.60831e-08
6.63228e-08
5.8791e-08
5.2797e-08
4.83832e-08
4.4896e-08
4.24585e-08
4.0591e-08
3.94151e-08
3.85987e-08
3.85856e-08
3.93803e-08
4.05353e-08
4.23763e-08
4.47912e-08
4.82328e-08
5.2631e-08
5.85385e-08
6.60871e-08
7.56571e-08
7.58248e-08
6.63981e-08
5.8884e-08
5.27859e-08
4.82582e-08
4.4668e-08
4.21384e-08
4.02219e-08
3.89974e-08
3.81583e-08
3.8145e-08
3.89616e-08
4.01645e-08
4.20547e-08
4.4559e-08
4.81047e-08
5.26174e-08
5.86271e-08
6.6164e-08
7.54123e-08
)
;

boundaryField
{
    fuel
    {
        type            fixedValue;
        value           nonuniform 0();
    }
    wall
    {
        type            zeroGradient;
    }
    outlet
    {
        type            zeroGradient;
    }
    frontAndBack
    {
        type            empty;
    }
    procBoundary1to0
    {
        type            processor;
        value           nonuniform List<scalar> 
21
(
1.48454e-07
8.20728e-08
6.22561e-08
5.31978e-08
4.99931e-08
4.84372e-08
4.75397e-08
4.68617e-08
4.64733e-08
4.62095e-08
4.59329e-08
4.59329e-08
4.623e-08
4.66576e-08
4.74096e-08
4.83936e-08
5.00356e-08
5.3167e-08
6.1196e-08
7.93218e-08
1.31773e-07
)
;
    }
}


// ************************************************************************* //
