/*--------------------------------*- C++ -*----------------------------------*\
| =========                 |                                                 |
| \\      /  F ield         | OpenFOAM: The Open Source CFD Toolbox           |
|  \\    /   O peration     | Version:  dev                                   |
|   \\  /    A nd           | Web:      www.OpenFOAM.org                      |
|    \\/     M anipulation  |                                                 |
\*---------------------------------------------------------------------------*/
FoamFile
{
    version     2.0;
    format      ascii;
    class       volScalarField;
    location    "0.03";
    object      A3;
}
// * * * * * * * * * * * * * * * * * * * * * * * * * * * * * * * * * * * * * //

dimensions      [0 0 0 0 0 0 0];

internalField   nonuniform List<scalar> 
25
(
6.32363e-13
9.17354e-13
1.33455e-12
1.93944e-12
2.80546e-12
4.00169e-12
5.64904e-12
7.86648e-12
1.07811e-11
1.45173e-11
1.92535e-11
2.49807e-11
3.18422e-11
3.98932e-11
4.91574e-11
5.97116e-11
7.13829e-11
8.42034e-11
9.80911e-11
1.13028e-10
1.28728e-10
1.45176e-10
1.62268e-10
1.79903e-10
1.97986e-10
)
;

boundaryField
{
    wall
    {
        type            zeroGradient;
    }
    fuel
    {
        type            fixedValue;
        value           nonuniform 0();
    }
    outlet
    {
        type            inletOutlet;
        inletValue      nonuniform 0();
        value           nonuniform 0();
    }
    procBoundary1to0
    {
        type            processor;
        value           uniform 4.37391e-13;
    }
    procBoundary1to2
    {
        type            processor;
        value           uniform 2.16422e-10;
    }
}


// ************************************************************************* //
