/*--------------------------------*- C++ -*----------------------------------*\
| =========                 |                                                 |
| \\      /  F ield         | OpenFOAM: The Open Source CFD Toolbox           |
|  \\    /   O peration     | Version:  dev                                   |
|   \\  /    A nd           | Web:      www.OpenFOAM.org                      |
|    \\/     M anipulation  |                                                 |
\*---------------------------------------------------------------------------*/
FoamFile
{
    version     2.0;
    format      ascii;
    class       volScalarField;
    location    "0.03";
    object      N2;
}
// * * * * * * * * * * * * * * * * * * * * * * * * * * * * * * * * * * * * * //

dimensions      [0 0 0 0 0 0 0];

internalField   nonuniform List<scalar> 
250
(
0.0291427
0.0296176
0.032318
0.0318842
0.0327405
0.0324293
0.0319087
0.0318263
0.0310974
0.0314909
0.0337422
0.0343779
0.0372554
0.0367683
0.0376315
0.0372611
0.0366587
0.0365397
0.0357263
0.0361638
0.0361875
0.0359215
0.0363744
0.0366267
0.0369656
0.0374968
0.0366307
0.0370244
0.0346391
0.0338165
0.0388954
0.039697
0.0427107
0.0421709
0.0430227
0.0425872
0.0418961
0.041729
0.0408277
0.0413089
0.0413523
0.0410398
0.0415445
0.0418539
0.0422503
0.0428499
0.0419914
0.0424422
0.0399506
0.0389737
0.0447071
0.0455979
0.048718
0.0480936
0.0489128
0.0484075
0.0476329
0.0473922
0.0464008
0.0469238
0.0469965
0.0466289
0.0471877
0.0475677
0.0480222
0.0486957
0.0478657
0.0483728
0.045816
0.0448116
0.0510024
0.0520377
0.0551904
0.0545218
0.0552845
0.0547064
0.0538991
0.0536467
0.0525744
0.0531372
0.0531028
0.052817
0.0534237
0.0537501
0.0542672
0.0550169
0.0542389
0.0547986
0.0522235
0.0510994
0.0578339
0.0589942
0.0621181
0.0614194
0.0620996
0.0614427
0.0605498
0.0602064
0.0590444
0.0596419
0.0596293
0.0592996
0.0599626
0.0603605
0.0609486
0.0617753
0.061075
0.0616803
0.0591392
0.0579163
0.0651415
0.0664055
0.0694342
0.0687219
0.0692922
0.0685518
0.0675541
0.0671252
0.0658752
0.066502
0.0665094
0.0661406
0.0668604
0.0673351
0.0680024
0.0689056
0.0683102
0.0689508
0.0664995
0.0652014
0.0728239
0.0741689
0.077034
0.0763267
0.0767602
0.0759323
0.074825
0.0743053
0.0729701
0.0736195
0.0736432
0.0732424
0.0740193
0.0745748
0.0753289
0.0763058
0.0758426
0.0765059
0.0742008
0.0728533
0.0807229
0.0821257
0.0847612
0.0840788
0.0843519
0.0834325
0.0822169
0.0816004
0.080185
0.0808492
0.0808856
0.0804598
0.0812933
0.0819316
0.0827789
0.0838242
0.0835189
0.0841903
0.0820855
0.080714
0.0885994
0.0900375
0.0923859
0.0917482
0.0918455
0.0908277
0.0895116
0.0887952
0.0873066
0.0879774
0.0880242
0.0875793
0.0884676
0.0891877
0.0901324
0.0912376
0.0911112
0.091776
0.0899195
0.0885439
0.0960901
0.0975429
0.0995655
0.0989886
0.0988825
0.0978096
0.0963822
0.0955682
0.0940164
0.0946856
0.0947416
0.0942824
0.0952217
0.0960181
0.0970601
0.0982135
0.0982778
0.0989226
0.0973545
0.0959754
0.102618
0.104069
0.105761
0.105254
0.104945
0.103845
0.102313
0.101413
0.0998117
0.100473
0.100537
0.100068
0.10105
0.101911
0.103043
0.104229
0.104479
0.105094
0.103851
0.102412
0.107152
0.108593
0.110018
0.109574
0.109109
0.107994
0.10639
0.105429
0.103799
0.104449
0.104519
0.104045
0.105057
0.10596
0.107158
0.108359
0.108753
0.109338
0.108283
0.106943
)
;

boundaryField
{
    fuel
    {
        type            fixedValue;
        value           nonuniform 0();
    }
    wall
    {
        type            zeroGradient;
    }
    outlet
    {
        type            zeroGradient;
    }
    frontAndBack
    {
        type            empty;
    }
    procBoundary1to0
    {
        type            processor;
        value           nonuniform List<scalar> 
21
(
0.025074
0.0253924
0.0278847
0.0275031
0.0283373
0.028079
0.0276317
0.0275777
0.0269298
0.0272796
0.0315013
0.0315013
0.0312746
0.0316781
0.0318825
0.0321701
0.0326365
0.0317805
0.0321191
0.029874
0.0292041
)
;
    }
}


// ************************************************************************* //
