/*--------------------------------*- C++ -*----------------------------------*\
| =========                 |                                                 |
| \\      /  F ield         | OpenFOAM: The Open Source CFD Toolbox           |
|  \\    /   O peration     | Version:  dev                                   |
|   \\  /    A nd           | Web:      www.OpenFOAM.org                      |
|    \\/     M anipulation  |                                                 |
\*---------------------------------------------------------------------------*/
FoamFile
{
    version     2.0;
    format      ascii;
    class       volScalarField;
    location    "0.03";
    object      O2;
}
// * * * * * * * * * * * * * * * * * * * * * * * * * * * * * * * * * * * * * //

dimensions      [0 0 0 0 0 0 0];

internalField   nonuniform List<scalar> 
25
(
1.49045e-06
1.2703e-06
1.07689e-06
9.08456e-07
7.62964e-07
6.40655e-07
5.372e-07
4.5142e-07
3.82814e-07
3.32042e-07
3.01031e-07
2.95157e-07
3.2181e-07
3.93082e-07
5.26658e-07
7.49112e-07
1.09109e-06
1.59793e-06
2.32402e-06
3.34197e-06
4.71983e-06
6.55704e-06
8.96008e-06
1.20483e-05
1.5953e-05
)
;

boundaryField
{
    wall
    {
        type            zeroGradient;
    }
    fuel
    {
        type            fixedValue;
        value           nonuniform 0();
    }
    outlet
    {
        type            inletOutlet;
        inletValue      nonuniform 0();
        value           nonuniform 0();
    }
    procBoundary1to0
    {
        type            processor;
        value           uniform 1.73915e-06;
    }
    procBoundary1to2
    {
        type            processor;
        value           uniform 2.0816e-05;
    }
}


// ************************************************************************* //
