/*--------------------------------*- C++ -*----------------------------------*\
| =========                 |                                                 |
| \\      /  F ield         | OpenFOAM: The Open Source CFD Toolbox           |
|  \\    /   O peration     | Version:  dev                                   |
|   \\  /    A nd           | Web:      www.OpenFOAM.org                      |
|    \\/     M anipulation  |                                                 |
\*---------------------------------------------------------------------------*/
FoamFile
{
    version     2.0;
    format      ascii;
    class       volScalarField;
    location    "0.03";
    object      OH;
}
// * * * * * * * * * * * * * * * * * * * * * * * * * * * * * * * * * * * * * //

dimensions      [0 0 0 0 0 0 0];

internalField   nonuniform List<scalar> 
250
(
3.08306e-06
3.39574e-06
3.04897e-06
3.2271e-06
3.03676e-06
3.07317e-06
3.11867e-06
3.09451e-06
3.19094e-06
3.1203e-06
2.23513e-06
2.41999e-06
2.129e-06
2.25923e-06
2.11671e-06
2.14596e-06
2.18236e-06
2.16498e-06
2.23981e-06
2.18498e-06
2.18337e-06
2.21218e-06
2.17567e-06
2.1693e-06
2.16026e-06
2.10943e-06
2.25143e-06
2.14658e-06
2.35982e-06
2.20386e-06
1.54444e-06
1.64602e-06
1.4214e-06
1.51269e-06
1.41148e-06
1.43397e-06
1.46194e-06
1.45055e-06
1.506e-06
1.46561e-06
1.46319e-06
1.48589e-06
1.45872e-06
1.45207e-06
1.44488e-06
1.4071e-06
1.50804e-06
1.43457e-06
1.60396e-06
1.52651e-06
1.00441e-06
1.0606e-06
8.98984e-07
9.62367e-07
8.94482e-07
9.10933e-07
9.30975e-07
9.25286e-07
9.64436e-07
9.36291e-07
9.32761e-07
9.50557e-07
9.31277e-07
9.243e-07
9.18945e-07
8.92182e-07
9.5993e-07
9.10617e-07
1.03401e-06
9.92905e-07
6.15691e-07
6.42336e-07
5.35453e-07
5.75905e-07
5.33205e-07
5.4449e-07
5.55782e-07
5.50322e-07
5.75648e-07
5.57399e-07
5.5993e-07
5.66739e-07
5.54338e-07
5.53793e-07
5.50133e-07
5.3223e-07
5.7487e-07
5.43454e-07
6.26103e-07
6.09591e-07
3.48512e-07
3.59738e-07
2.94925e-07
3.19015e-07
2.94144e-07
3.01367e-07
3.07987e-07
3.05632e-07
3.21265e-07
3.10212e-07
3.11503e-07
3.15901e-07
3.08221e-07
3.07368e-07
3.0504e-07
2.93891e-07
3.1875e-07
3.00015e-07
3.50556e-07
3.45558e-07
1.7762e-07
1.81615e-07
1.46299e-07
1.59411e-07
1.46299e-07
1.50518e-07
1.54235e-07
1.53269e-07
1.62053e-07
1.55975e-07
1.5655e-07
1.5911e-07
1.54787e-07
1.54005e-07
1.52668e-07
1.46356e-07
1.59482e-07
1.49252e-07
1.7693e-07
1.76366e-07
7.82494e-08
7.93271e-08
6.26788e-08
6.89628e-08
6.2957e-08
6.51256e-08
6.69688e-08
6.66405e-08
7.09633e-08
6.80514e-08
6.82769e-08
6.95517e-08
6.7419e-08
6.68835e-08
6.62171e-08
6.30882e-08
6.91167e-08
6.41876e-08
7.72583e-08
7.78059e-08
2.80352e-08
2.81864e-08
2.18279e-08
2.43053e-08
2.20767e-08
2.30013e-08
2.37485e-08
2.36767e-08
2.54246e-08
2.42923e-08
2.43702e-08
2.48735e-08
2.40063e-08
2.37264e-08
2.34533e-08
2.21787e-08
2.44229e-08
2.24616e-08
2.7443e-08
2.79055e-08
7.65645e-09
7.60976e-09
5.79481e-09
6.51406e-09
5.89564e-09
6.19324e-09
6.41381e-09
6.408e-09
6.93723e-09
6.61028e-09
6.63266e-09
6.77716e-09
6.51233e-09
6.41065e-09
6.33015e-09
5.94362e-09
6.56548e-09
5.98734e-09
7.39987e-09
7.61033e-09
1.53933e-09
1.47848e-09
1.10051e-09
1.22636e-09
1.10158e-09
1.1594e-09
1.19839e-09
1.19573e-09
1.30081e-09
1.23557e-09
1.23994e-09
1.26871e-09
1.21648e-09
1.1963e-09
1.18543e-09
1.1114e-09
1.23487e-09
1.13171e-09
1.42219e-09
1.50787e-09
2.51625e-10
2.17051e-10
1.53714e-10
1.58008e-10
1.37908e-10
1.41773e-10
1.43801e-10
1.41929e-10
1.53192e-10
1.45326e-10
1.45781e-10
1.49319e-10
1.43927e-10
1.42738e-10
1.43778e-10
1.37739e-10
1.56089e-10
1.52041e-10
1.98497e-10
2.33439e-10
7.53667e-11
5.03145e-11
2.99194e-11
2.19475e-11
1.58937e-11
1.39838e-11
1.28659e-11
1.20898e-11
1.26371e-11
1.19828e-11
1.20075e-11
1.23142e-11
1.21037e-11
1.24671e-11
1.35434e-11
1.4812e-11
1.94966e-11
2.53939e-11
3.98914e-11
6.09048e-11
)
;

boundaryField
{
    fuel
    {
        type            fixedValue;
        value           nonuniform 0();
    }
    wall
    {
        type            zeroGradient;
    }
    outlet
    {
        type            zeroGradient;
    }
    frontAndBack
    {
        type            empty;
    }
    procBoundary1to0
    {
        type            processor;
        value           nonuniform List<scalar> 
21
(
4.06816e-06
4.56839e-06
4.19341e-06
4.42879e-06
4.18696e-06
4.23055e-06
4.28534e-06
4.25395e-06
4.37291e-06
4.28626e-06
3.11935e-06
3.11935e-06
3.15479e-06
3.10791e-06
3.10209e-06
3.09116e-06
3.02571e-06
3.2152e-06
3.07067e-06
3.31398e-06
3.03258e-06
)
;
    }
}


// ************************************************************************* //
