/*--------------------------------*- C++ -*----------------------------------*\
| =========                 |                                                 |
| \\      /  F ield         | OpenFOAM: The Open Source CFD Toolbox           |
|  \\    /   O peration     | Version:  dev                                   |
|   \\  /    A nd           | Web:      www.OpenFOAM.org                      |
|    \\/     M anipulation  |                                                 |
\*---------------------------------------------------------------------------*/
FoamFile
{
    version     2.0;
    format      ascii;
    class       volScalarField;
    location    "0.03";
    object      P2;
}
// * * * * * * * * * * * * * * * * * * * * * * * * * * * * * * * * * * * * * //

dimensions      [0 0 0 0 0 0 0];

internalField   nonuniform List<scalar> 
2000
(
1.49782e-08
1.49573e-08
1.49495e-08
1.49412e-08
1.49411e-08
1.49383e-08
1.49393e-08
1.49379e-08
1.49387e-08
1.49379e-08
1.49384e-08
1.49378e-08
1.49382e-08
1.49378e-08
1.4938e-08
1.49377e-08
1.49379e-08
1.49377e-08
1.49378e-08
1.49376e-08
1.49377e-08
1.49376e-08
1.49377e-08
1.49376e-08
1.49376e-08
1.49376e-08
1.49376e-08
1.49377e-08
1.49376e-08
1.49377e-08
1.49376e-08
1.49378e-08
1.49377e-08
1.49379e-08
1.49377e-08
1.4938e-08
1.49378e-08
1.49382e-08
1.49378e-08
1.49384e-08
1.49379e-08
1.49387e-08
1.49379e-08
1.49392e-08
1.49383e-08
1.49411e-08
1.49412e-08
1.49495e-08
1.49573e-08
1.49781e-08
2.98279e-08
2.97816e-08
2.97601e-08
2.9741e-08
2.97404e-08
2.97343e-08
2.97364e-08
2.97334e-08
2.97353e-08
2.97334e-08
2.97346e-08
2.97333e-08
2.97342e-08
2.97332e-08
2.97338e-08
2.97332e-08
2.97335e-08
2.97331e-08
2.97333e-08
2.9733e-08
2.97331e-08
2.97329e-08
2.9733e-08
2.97329e-08
2.9733e-08
2.9733e-08
2.97329e-08
2.9733e-08
2.97329e-08
2.97331e-08
2.9733e-08
2.97333e-08
2.97331e-08
2.97335e-08
2.97332e-08
2.97338e-08
2.97332e-08
2.97342e-08
2.97333e-08
2.97346e-08
2.97334e-08
2.97353e-08
2.97334e-08
2.97364e-08
2.97343e-08
2.97404e-08
2.9741e-08
2.97601e-08
2.97816e-08
2.98278e-08
4.85158e-08
4.84519e-08
4.84274e-08
4.8401e-08
4.83993e-08
4.83909e-08
4.83933e-08
4.83894e-08
4.83916e-08
4.83892e-08
4.83907e-08
4.8389e-08
4.839e-08
4.83888e-08
4.83895e-08
4.83886e-08
4.8389e-08
4.83885e-08
4.83887e-08
4.83883e-08
4.83885e-08
4.83882e-08
4.83883e-08
4.83882e-08
4.83882e-08
4.83882e-08
4.83882e-08
4.83883e-08
4.83882e-08
4.83885e-08
4.83883e-08
4.83887e-08
4.83885e-08
4.8389e-08
4.83886e-08
4.83895e-08
4.83888e-08
4.839e-08
4.8389e-08
4.83907e-08
4.83892e-08
4.83916e-08
4.83894e-08
4.83933e-08
4.83909e-08
4.83993e-08
4.84009e-08
4.84274e-08
4.84518e-08
4.85157e-08
6.86492e-08
6.85552e-08
6.85116e-08
6.84687e-08
6.8462e-08
6.84503e-08
6.84522e-08
6.84475e-08
6.84497e-08
6.84469e-08
6.84485e-08
6.84464e-08
6.84474e-08
6.8446e-08
6.84466e-08
6.84456e-08
6.8446e-08
6.84453e-08
6.84455e-08
6.8445e-08
6.84451e-08
6.84448e-08
6.84449e-08
6.84448e-08
6.84448e-08
6.84448e-08
6.84448e-08
6.84449e-08
6.84448e-08
6.84452e-08
6.8445e-08
6.84455e-08
6.84453e-08
6.8446e-08
6.84456e-08
6.84466e-08
6.8446e-08
6.84474e-08
6.84464e-08
6.84484e-08
6.84469e-08
6.84497e-08
6.84474e-08
6.84521e-08
6.84503e-08
6.84619e-08
6.84686e-08
6.85115e-08
6.85551e-08
6.86491e-08
8.2585e-08
8.24588e-08
8.23921e-08
8.23298e-08
8.23157e-08
8.23009e-08
8.23014e-08
8.22963e-08
8.22981e-08
8.22952e-08
8.22965e-08
8.22943e-08
8.22951e-08
8.22936e-08
8.2294e-08
8.22929e-08
8.22932e-08
8.22924e-08
8.22925e-08
8.2292e-08
8.2292e-08
8.22917e-08
8.22917e-08
8.22916e-08
8.22916e-08
8.22916e-08
8.22916e-08
8.22917e-08
8.22917e-08
8.22921e-08
8.2292e-08
8.22925e-08
8.22924e-08
8.22932e-08
8.22929e-08
8.22941e-08
8.22936e-08
8.22951e-08
8.22943e-08
8.22965e-08
8.22952e-08
8.22981e-08
8.22962e-08
8.23013e-08
8.23008e-08
8.23156e-08
8.23297e-08
8.2392e-08
8.24586e-08
8.25848e-08
8.90532e-08
8.89056e-08
8.88279e-08
8.87512e-08
8.87297e-08
8.87132e-08
8.87115e-08
8.87068e-08
8.87076e-08
8.87051e-08
8.87057e-08
8.87038e-08
8.87041e-08
8.87026e-08
8.87028e-08
8.87017e-08
8.87017e-08
8.87009e-08
8.87009e-08
8.87004e-08
8.87003e-08
8.87e-08
8.86999e-08
8.86998e-08
8.86998e-08
8.86998e-08
8.86998e-08
8.87e-08
8.87e-08
8.87003e-08
8.87004e-08
8.87009e-08
8.8701e-08
8.87017e-08
8.87017e-08
8.87028e-08
8.87027e-08
8.87041e-08
8.87038e-08
8.87057e-08
8.87051e-08
8.87075e-08
8.87067e-08
8.87114e-08
8.87131e-08
8.87296e-08
8.87511e-08
8.88278e-08
8.89054e-08
8.90529e-08
8.95756e-08
8.94215e-08
8.93482e-08
8.92649e-08
8.92372e-08
8.92207e-08
8.92163e-08
8.92127e-08
8.92119e-08
8.92103e-08
8.92098e-08
8.92085e-08
8.92081e-08
8.9207e-08
8.92066e-08
8.92058e-08
8.92054e-08
8.92048e-08
8.92045e-08
8.92041e-08
8.92039e-08
8.92036e-08
8.92035e-08
8.92034e-08
8.92033e-08
8.92033e-08
8.92034e-08
8.92035e-08
8.92036e-08
8.92039e-08
8.92041e-08
8.92046e-08
8.92049e-08
8.92055e-08
8.92058e-08
8.92066e-08
8.9207e-08
8.92081e-08
8.92085e-08
8.92098e-08
8.92103e-08
8.92118e-08
8.92126e-08
8.92162e-08
8.92206e-08
8.92371e-08
8.92647e-08
8.93481e-08
8.94213e-08
8.95752e-08
8.59913e-08
8.58443e-08
8.57883e-08
8.57058e-08
8.56736e-08
8.56586e-08
8.56512e-08
8.56492e-08
8.56465e-08
8.56462e-08
8.56445e-08
8.5644e-08
8.56426e-08
8.56421e-08
8.56411e-08
8.56406e-08
8.56398e-08
8.56394e-08
8.56389e-08
8.56386e-08
8.56382e-08
8.5638e-08
8.56377e-08
8.56377e-08
8.56376e-08
8.56376e-08
8.56377e-08
8.56378e-08
8.5638e-08
8.56382e-08
8.56386e-08
8.56389e-08
8.56395e-08
8.56399e-08
8.56407e-08
8.56411e-08
8.56422e-08
8.56426e-08
8.5644e-08
8.56444e-08
8.56462e-08
8.56464e-08
8.56492e-08
8.56511e-08
8.56585e-08
8.56735e-08
8.57057e-08
8.57882e-08
8.5844e-08
8.5991e-08
7.98841e-08
7.9754e-08
7.97235e-08
7.96477e-08
7.96128e-08
7.96002e-08
7.95899e-08
7.95899e-08
7.95851e-08
7.95862e-08
7.95831e-08
7.95836e-08
7.95813e-08
7.95814e-08
7.95797e-08
7.95797e-08
7.95785e-08
7.95783e-08
7.95775e-08
7.95773e-08
7.95768e-08
7.95767e-08
7.95763e-08
7.95763e-08
7.95762e-08
7.95762e-08
7.95763e-08
7.95764e-08
7.95767e-08
7.95768e-08
7.95774e-08
7.95775e-08
7.95784e-08
7.95785e-08
7.95797e-08
7.95798e-08
7.95815e-08
7.95813e-08
7.95836e-08
7.95831e-08
7.95862e-08
7.9585e-08
7.95898e-08
7.95898e-08
7.96001e-08
7.96126e-08
7.96475e-08
7.97234e-08
7.97538e-08
7.98838e-08
7.24779e-08
7.23708e-08
7.23691e-08
7.23037e-08
7.22678e-08
7.22582e-08
7.22454e-08
7.22473e-08
7.22406e-08
7.22431e-08
7.22387e-08
7.22401e-08
7.2237e-08
7.22377e-08
7.22354e-08
7.22358e-08
7.22342e-08
7.22343e-08
7.22332e-08
7.22332e-08
7.22325e-08
7.22325e-08
7.2232e-08
7.2232e-08
7.22319e-08
7.22319e-08
7.22321e-08
7.22321e-08
7.22325e-08
7.22325e-08
7.22332e-08
7.22332e-08
7.22343e-08
7.22342e-08
7.22358e-08
7.22355e-08
7.22377e-08
7.2237e-08
7.22401e-08
7.22387e-08
7.2243e-08
7.22405e-08
7.22472e-08
7.22453e-08
7.2258e-08
7.22677e-08
7.23035e-08
7.23689e-08
7.23706e-08
7.24775e-08
6.46331e-08
6.45518e-08
6.45783e-08
6.45254e-08
6.44899e-08
6.44833e-08
6.44685e-08
6.44721e-08
6.44638e-08
6.44674e-08
6.44621e-08
6.44642e-08
6.44604e-08
6.44617e-08
6.44589e-08
6.44596e-08
6.44576e-08
6.4458e-08
6.44567e-08
6.44568e-08
6.4456e-08
6.44561e-08
6.44556e-08
6.44556e-08
6.44555e-08
6.44555e-08
6.44556e-08
6.44556e-08
6.44561e-08
6.4456e-08
6.44569e-08
6.44567e-08
6.44581e-08
6.44577e-08
6.44596e-08
6.44589e-08
6.44617e-08
6.44604e-08
6.44642e-08
6.44621e-08
6.44674e-08
6.44637e-08
6.4472e-08
6.44683e-08
6.44831e-08
6.44897e-08
6.45252e-08
6.45781e-08
6.45515e-08
6.46327e-08
5.66024e-08
5.65434e-08
5.65883e-08
5.65464e-08
5.65124e-08
5.65081e-08
5.64923e-08
5.64969e-08
5.64877e-08
5.6492e-08
5.64861e-08
5.64887e-08
5.64845e-08
5.64861e-08
5.6483e-08
5.64839e-08
5.64818e-08
5.64823e-08
5.64808e-08
5.64811e-08
5.64801e-08
5.64803e-08
5.64798e-08
5.64798e-08
5.64797e-08
5.64797e-08
5.64798e-08
5.64798e-08
5.64803e-08
5.64802e-08
5.64811e-08
5.64809e-08
5.64823e-08
5.64818e-08
5.64839e-08
5.6483e-08
5.64861e-08
5.64845e-08
5.64887e-08
5.64861e-08
5.6492e-08
5.64877e-08
5.64968e-08
5.64921e-08
5.65079e-08
5.65122e-08
5.65462e-08
5.65881e-08
5.65431e-08
5.6602e-08
4.93493e-08
4.93143e-08
4.93796e-08
4.935e-08
4.9318e-08
4.93163e-08
4.92995e-08
4.93053e-08
4.92952e-08
4.93002e-08
4.92937e-08
4.92968e-08
4.92922e-08
4.92941e-08
4.92907e-08
4.92919e-08
4.92896e-08
4.92902e-08
4.92886e-08
4.9289e-08
4.9288e-08
4.92882e-08
4.92876e-08
4.92877e-08
4.92876e-08
4.92876e-08
4.92877e-08
4.92877e-08
4.92882e-08
4.9288e-08
4.92891e-08
4.92887e-08
4.92903e-08
4.92896e-08
4.92919e-08
4.92908e-08
4.92941e-08
4.92922e-08
4.92968e-08
4.92937e-08
4.93002e-08
4.92952e-08
4.93052e-08
4.92994e-08
4.93161e-08
4.93179e-08
4.93498e-08
4.93794e-08
4.9314e-08
4.93489e-08
4.27161e-08
4.26737e-08
4.27285e-08
4.27023e-08
4.2677e-08
4.26747e-08
4.26609e-08
4.26653e-08
4.26569e-08
4.2661e-08
4.26555e-08
4.2658e-08
4.26542e-08
4.26557e-08
4.26529e-08
4.26538e-08
4.26518e-08
4.26524e-08
4.2651e-08
4.26513e-08
4.26505e-08
4.26507e-08
4.26502e-08
4.26502e-08
4.26501e-08
4.26501e-08
4.26503e-08
4.26502e-08
4.26507e-08
4.26505e-08
4.26514e-08
4.26511e-08
4.26524e-08
4.26519e-08
4.26538e-08
4.26529e-08
4.26557e-08
4.26542e-08
4.2658e-08
4.26555e-08
4.26609e-08
4.26569e-08
4.26653e-08
4.26608e-08
4.26746e-08
4.26768e-08
4.27021e-08
4.27284e-08
4.26735e-08
4.27156e-08
3.66128e-08
3.65845e-08
3.66433e-08
3.66244e-08
3.66019e-08
3.66007e-08
3.65874e-08
3.65919e-08
3.65836e-08
3.65876e-08
3.65823e-08
3.65847e-08
3.6581e-08
3.65825e-08
3.65798e-08
3.65807e-08
3.65788e-08
3.65793e-08
3.6578e-08
3.65783e-08
3.65775e-08
3.65776e-08
3.65772e-08
3.65772e-08
3.65771e-08
3.65771e-08
3.65773e-08
3.65772e-08
3.65777e-08
3.65775e-08
3.65783e-08
3.65781e-08
3.65793e-08
3.65788e-08
3.65807e-08
3.65798e-08
3.65825e-08
3.6581e-08
3.65847e-08
3.65823e-08
3.65876e-08
3.65836e-08
3.65918e-08
3.65873e-08
3.66006e-08
3.66017e-08
3.66243e-08
3.66432e-08
3.65843e-08
3.66122e-08
3.14609e-08
3.14464e-08
3.15106e-08
3.1499e-08
3.14792e-08
3.14792e-08
3.14663e-08
3.14709e-08
3.14628e-08
3.14668e-08
3.14615e-08
3.1464e-08
3.14603e-08
3.14618e-08
3.14591e-08
3.146e-08
3.14582e-08
3.14587e-08
3.14574e-08
3.14578e-08
3.14569e-08
3.14571e-08
3.14567e-08
3.14567e-08
3.14566e-08
3.14566e-08
3.14568e-08
3.14567e-08
3.14572e-08
3.1457e-08
3.14578e-08
3.14575e-08
3.14588e-08
3.14582e-08
3.14601e-08
3.14591e-08
3.14618e-08
3.14603e-08
3.1464e-08
3.14615e-08
3.14667e-08
3.14627e-08
3.14708e-08
3.14662e-08
3.14791e-08
3.1479e-08
3.14988e-08
3.15104e-08
3.14461e-08
3.14603e-08
2.6841e-08
2.68444e-08
2.69193e-08
2.69193e-08
2.69042e-08
2.69061e-08
2.68938e-08
2.68986e-08
2.68905e-08
2.68944e-08
2.68892e-08
2.68917e-08
2.6888e-08
2.68895e-08
2.68868e-08
2.68877e-08
2.68858e-08
2.68864e-08
2.68851e-08
2.68854e-08
2.68846e-08
2.68848e-08
2.68843e-08
2.68844e-08
2.68843e-08
2.68843e-08
2.68844e-08
2.68844e-08
2.68848e-08
2.68846e-08
2.68855e-08
2.68852e-08
2.68864e-08
2.68859e-08
2.68878e-08
2.68868e-08
2.68895e-08
2.6888e-08
2.68917e-08
2.68892e-08
2.68944e-08
2.68904e-08
2.68985e-08
2.68937e-08
2.6906e-08
2.6904e-08
2.69192e-08
2.69192e-08
2.68442e-08
2.68402e-08
2.30016e-08
2.30135e-08
2.30881e-08
2.30927e-08
2.30801e-08
2.30826e-08
2.30711e-08
2.30757e-08
2.3068e-08
2.30717e-08
2.30668e-08
2.30691e-08
2.30656e-08
2.3067e-08
2.30645e-08
2.30654e-08
2.30636e-08
2.30641e-08
2.30629e-08
2.30632e-08
2.30624e-08
2.30626e-08
2.30621e-08
2.30622e-08
2.30621e-08
2.30621e-08
2.30622e-08
2.30622e-08
2.30626e-08
2.30624e-08
2.30632e-08
2.30629e-08
2.30641e-08
2.30636e-08
2.30654e-08
2.30645e-08
2.30671e-08
2.30656e-08
2.30691e-08
2.30668e-08
2.30717e-08
2.30679e-08
2.30756e-08
2.3071e-08
2.30825e-08
2.308e-08
2.30926e-08
2.3088e-08
2.30132e-08
2.30005e-08
1.95982e-08
1.96234e-08
1.97055e-08
1.9718e-08
1.97071e-08
1.9711e-08
1.96993e-08
1.97043e-08
1.96963e-08
1.97002e-08
1.9695e-08
1.96975e-08
1.96939e-08
1.96954e-08
1.96927e-08
1.96936e-08
1.96917e-08
1.96923e-08
1.9691e-08
1.96914e-08
1.96905e-08
1.96907e-08
1.96903e-08
1.96904e-08
1.96902e-08
1.96902e-08
1.96904e-08
1.96903e-08
1.96908e-08
1.96906e-08
1.96914e-08
1.96911e-08
1.96923e-08
1.96918e-08
1.96936e-08
1.96927e-08
1.96954e-08
1.96939e-08
1.96975e-08
1.9695e-08
1.97002e-08
1.96962e-08
1.97042e-08
1.96992e-08
1.97109e-08
1.9707e-08
1.97179e-08
1.97054e-08
1.96232e-08
1.95969e-08
1.66978e-08
1.6726e-08
1.6802e-08
1.6816e-08
1.68069e-08
1.68107e-08
1.68001e-08
1.68046e-08
1.67973e-08
1.68008e-08
1.67961e-08
1.67983e-08
1.67949e-08
1.67963e-08
1.67938e-08
1.67946e-08
1.67929e-08
1.67934e-08
1.67922e-08
1.67925e-08
1.67918e-08
1.67919e-08
1.67915e-08
1.67916e-08
1.67914e-08
1.67914e-08
1.67916e-08
1.67915e-08
1.6792e-08
1.67918e-08
1.67925e-08
1.67923e-08
1.67934e-08
1.67929e-08
1.67946e-08
1.67938e-08
1.67963e-08
1.67949e-08
1.67983e-08
1.67961e-08
1.68008e-08
1.67972e-08
1.68045e-08
1.68e-08
1.68106e-08
1.68068e-08
1.68159e-08
1.68019e-08
1.67258e-08
1.66964e-08
1.43272e-08
1.43587e-08
1.44308e-08
1.44464e-08
1.4439e-08
1.44428e-08
1.4433e-08
1.44372e-08
1.44304e-08
1.44336e-08
1.44293e-08
1.44312e-08
1.44281e-08
1.44293e-08
1.44271e-08
1.44278e-08
1.44262e-08
1.44266e-08
1.44255e-08
1.44258e-08
1.44251e-08
1.44252e-08
1.44248e-08
1.44249e-08
1.44248e-08
1.44248e-08
1.44249e-08
1.44249e-08
1.44253e-08
1.44251e-08
1.44258e-08
1.44256e-08
1.44266e-08
1.44262e-08
1.44278e-08
1.44271e-08
1.44294e-08
1.44281e-08
1.44312e-08
1.44292e-08
1.44336e-08
1.44304e-08
1.44371e-08
1.4433e-08
1.44427e-08
1.44389e-08
1.44463e-08
1.44307e-08
1.43585e-08
1.4326e-08
1.23233e-08
1.23571e-08
1.24249e-08
1.24415e-08
1.24355e-08
1.24393e-08
1.24303e-08
1.24341e-08
1.24278e-08
1.24308e-08
1.24267e-08
1.24285e-08
1.24256e-08
1.24267e-08
1.24246e-08
1.24252e-08
1.24237e-08
1.24241e-08
1.24231e-08
1.24233e-08
1.24227e-08
1.24228e-08
1.24225e-08
1.24225e-08
1.24224e-08
1.24224e-08
1.24225e-08
1.24225e-08
1.24228e-08
1.24227e-08
1.24234e-08
1.24231e-08
1.24242e-08
1.24238e-08
1.24253e-08
1.24246e-08
1.24267e-08
1.24256e-08
1.24285e-08
1.24267e-08
1.24307e-08
1.24278e-08
1.24341e-08
1.24302e-08
1.24392e-08
1.24354e-08
1.24414e-08
1.24248e-08
1.23569e-08
1.23226e-08
1.0591e-08
1.06218e-08
1.06788e-08
1.06942e-08
1.06907e-08
1.06943e-08
1.0687e-08
1.06901e-08
1.06849e-08
1.06873e-08
1.06839e-08
1.06854e-08
1.0683e-08
1.06839e-08
1.06821e-08
1.06826e-08
1.06814e-08
1.06817e-08
1.06809e-08
1.06811e-08
1.06805e-08
1.06806e-08
1.06803e-08
1.06804e-08
1.06803e-08
1.06803e-08
1.06804e-08
1.06803e-08
1.06806e-08
1.06805e-08
1.06811e-08
1.06809e-08
1.06817e-08
1.06814e-08
1.06827e-08
1.06821e-08
1.06839e-08
1.0683e-08
1.06854e-08
1.06839e-08
1.06872e-08
1.06848e-08
1.06901e-08
1.06869e-08
1.06942e-08
1.06906e-08
1.06942e-08
1.06787e-08
1.06218e-08
1.05908e-08
9.16462e-09
9.19586e-09
9.2482e-09
9.26362e-09
9.26098e-09
9.26449e-09
9.25784e-09
9.26072e-09
9.25591e-09
9.25806e-09
9.25496e-09
9.25629e-09
9.25409e-09
9.25488e-09
9.25326e-09
9.25374e-09
9.25259e-09
9.25287e-09
9.25208e-09
9.25225e-09
9.25175e-09
9.25185e-09
9.25157e-09
9.25161e-09
9.25151e-09
9.25152e-09
9.25162e-09
9.25158e-09
9.25187e-09
9.25177e-09
9.25228e-09
9.25211e-09
9.25289e-09
9.25261e-09
9.25376e-09
9.25327e-09
9.25489e-09
9.25409e-09
9.25629e-09
9.25495e-09
9.25803e-09
9.25587e-09
9.26067e-09
9.25778e-09
9.26443e-09
9.26091e-09
9.26354e-09
9.24812e-09
9.19583e-09
9.16497e-09
7.91741e-09
7.94952e-09
7.99961e-09
8.01628e-09
8.01489e-09
8.01853e-09
8.01245e-09
8.01507e-09
8.01058e-09
8.0125e-09
8.00959e-09
8.01076e-09
8.00868e-09
8.00936e-09
8.00782e-09
8.00822e-09
8.00713e-09
8.00736e-09
8.0066e-09
8.00674e-09
8.00626e-09
8.00634e-09
8.00606e-09
8.00609e-09
8.00601e-09
8.00601e-09
8.0061e-09
8.00608e-09
8.00636e-09
8.00628e-09
8.00677e-09
8.00663e-09
8.00738e-09
8.00715e-09
8.00824e-09
8.00784e-09
8.00937e-09
8.00868e-09
8.01075e-09
8.00958e-09
8.01247e-09
8.01055e-09
8.01502e-09
8.01239e-09
8.01847e-09
8.01482e-09
8.0162e-09
7.99952e-09
7.94948e-09
7.91804e-09
6.86528e-09
6.89611e-09
6.94098e-09
6.95678e-09
6.95598e-09
6.95933e-09
6.95393e-09
6.95621e-09
6.95219e-09
6.95384e-09
6.95124e-09
6.95222e-09
6.95035e-09
6.95092e-09
6.94953e-09
6.94986e-09
6.94887e-09
6.94905e-09
6.94837e-09
6.94848e-09
6.94803e-09
6.9481e-09
6.94785e-09
6.94787e-09
6.94779e-09
6.94779e-09
6.94788e-09
6.94786e-09
6.94812e-09
6.94805e-09
6.9485e-09
6.94839e-09
6.94907e-09
6.94889e-09
6.94988e-09
6.94955e-09
6.95093e-09
6.95035e-09
6.95222e-09
6.95122e-09
6.95381e-09
6.95216e-09
6.95616e-09
6.95387e-09
6.95926e-09
6.95591e-09
6.9567e-09
6.9409e-09
6.89606e-09
6.86595e-09
5.97692e-09
6.00639e-09
6.04643e-09
6.06128e-09
6.06095e-09
6.06401e-09
6.05923e-09
6.0612e-09
6.05762e-09
6.05902e-09
6.05669e-09
6.05752e-09
6.05584e-09
6.05631e-09
6.05505e-09
6.05532e-09
6.05442e-09
6.05456e-09
6.05394e-09
6.05402e-09
6.05362e-09
6.05367e-09
6.05344e-09
6.05346e-09
6.05338e-09
6.05338e-09
6.05346e-09
6.05345e-09
6.05368e-09
6.05363e-09
6.05404e-09
6.05396e-09
6.05458e-09
6.05444e-09
6.05533e-09
6.05506e-09
6.05631e-09
6.05584e-09
6.05752e-09
6.05668e-09
6.05899e-09
6.05759e-09
6.06116e-09
6.05918e-09
6.06395e-09
6.06089e-09
6.06121e-09
6.04635e-09
6.00634e-09
5.9775e-09
5.22594e-09
5.25389e-09
5.2896e-09
5.30346e-09
5.3035e-09
5.30629e-09
5.30205e-09
5.30375e-09
5.30055e-09
5.30174e-09
5.29965e-09
5.30035e-09
5.29883e-09
5.29921e-09
5.29808e-09
5.29828e-09
5.29747e-09
5.29757e-09
5.29701e-09
5.29707e-09
5.2967e-09
5.29674e-09
5.29653e-09
5.29654e-09
5.29647e-09
5.29648e-09
5.29655e-09
5.29654e-09
5.29675e-09
5.29672e-09
5.29709e-09
5.29703e-09
5.29759e-09
5.29749e-09
5.2983e-09
5.29809e-09
5.29922e-09
5.29883e-09
5.30034e-09
5.29964e-09
5.30172e-09
5.30052e-09
5.30371e-09
5.302e-09
5.30623e-09
5.30343e-09
5.30339e-09
5.28953e-09
5.25384e-09
5.22638e-09
4.59003e-09
4.61637e-09
4.64825e-09
4.66109e-09
4.6614e-09
4.66395e-09
4.66019e-09
4.66165e-09
4.65879e-09
4.65979e-09
4.65792e-09
4.65849e-09
4.65713e-09
4.65743e-09
4.6564e-09
4.65656e-09
4.65582e-09
4.65589e-09
4.65538e-09
4.65542e-09
4.65509e-09
4.65511e-09
4.65492e-09
4.65493e-09
4.65487e-09
4.65487e-09
4.65493e-09
4.65493e-09
4.65513e-09
4.6551e-09
4.65544e-09
4.6554e-09
4.65591e-09
4.65584e-09
4.65658e-09
4.65642e-09
4.65744e-09
4.65713e-09
4.65849e-09
4.65791e-09
4.65977e-09
4.65877e-09
4.66161e-09
4.66014e-09
4.66389e-09
4.66134e-09
4.66103e-09
4.64818e-09
4.61631e-09
4.59033e-09
4.05044e-09
4.07515e-09
4.10363e-09
4.11548e-09
4.116e-09
4.11832e-09
4.11498e-09
4.11623e-09
4.11368e-09
4.11451e-09
4.11284e-09
4.1133e-09
4.11207e-09
4.1123e-09
4.11137e-09
4.11149e-09
4.11081e-09
4.11086e-09
4.11039e-09
4.11041e-09
4.11011e-09
4.11012e-09
4.10995e-09
4.10995e-09
4.10989e-09
4.10989e-09
4.10995e-09
4.10996e-09
4.11013e-09
4.11012e-09
4.11043e-09
4.11041e-09
4.11088e-09
4.11083e-09
4.1115e-09
4.11138e-09
4.11231e-09
4.11207e-09
4.1133e-09
4.11282e-09
4.11449e-09
4.11365e-09
4.11619e-09
4.11494e-09
4.11826e-09
4.11595e-09
4.11542e-09
4.10357e-09
4.07509e-09
4.05063e-09
3.59149e-09
3.6146e-09
3.64007e-09
3.65097e-09
3.65164e-09
3.65374e-09
3.65078e-09
3.65185e-09
3.64957e-09
3.65026e-09
3.64875e-09
3.64912e-09
3.64801e-09
3.64818e-09
3.64734e-09
3.64741e-09
3.6468e-09
3.64682e-09
3.64639e-09
3.6464e-09
3.64612e-09
3.64612e-09
3.64596e-09
3.64596e-09
3.64591e-09
3.64591e-09
3.64597e-09
3.64597e-09
3.64614e-09
3.64613e-09
3.64641e-09
3.64641e-09
3.64684e-09
3.64681e-09
3.64743e-09
3.64735e-09
3.64819e-09
3.64801e-09
3.64912e-09
3.64874e-09
3.65024e-09
3.64954e-09
3.65181e-09
3.65074e-09
3.65369e-09
3.65159e-09
3.65091e-09
3.64001e-09
3.61454e-09
3.59161e-09
3.20009e-09
3.22164e-09
3.24445e-09
3.25445e-09
3.25524e-09
3.25715e-09
3.25451e-09
3.25542e-09
3.25338e-09
3.25394e-09
3.25258e-09
3.25287e-09
3.25186e-09
3.25199e-09
3.25122e-09
3.25126e-09
3.2507e-09
3.2507e-09
3.2503e-09
3.2503e-09
3.25004e-09
3.25004e-09
3.24989e-09
3.24988e-09
3.24984e-09
3.24984e-09
3.24989e-09
3.2499e-09
3.25005e-09
3.25005e-09
3.25031e-09
3.25032e-09
3.25072e-09
3.25071e-09
3.25127e-09
3.25123e-09
3.25199e-09
3.25186e-09
3.25287e-09
3.25257e-09
3.25392e-09
3.25335e-09
3.25538e-09
3.25447e-09
3.2571e-09
3.25519e-09
3.2544e-09
3.2444e-09
3.22158e-09
3.20015e-09
2.86531e-09
2.88537e-09
2.90584e-09
2.91501e-09
2.91587e-09
2.9176e-09
2.91525e-09
2.91602e-09
2.91419e-09
2.91465e-09
2.91341e-09
2.91364e-09
2.91272e-09
2.9128e-09
2.91209e-09
2.91211e-09
2.91159e-09
2.91157e-09
2.91121e-09
2.91119e-09
2.91095e-09
2.91095e-09
2.91081e-09
2.9108e-09
2.91076e-09
2.91076e-09
2.91081e-09
2.91082e-09
2.91096e-09
2.91097e-09
2.91121e-09
2.91123e-09
2.91159e-09
2.9116e-09
2.91212e-09
2.9121e-09
2.9128e-09
2.91272e-09
2.91363e-09
2.9134e-09
2.91463e-09
2.91416e-09
2.91599e-09
2.91522e-09
2.91755e-09
2.91582e-09
2.91495e-09
2.90579e-09
2.88532e-09
2.86535e-09
2.57807e-09
2.59672e-09
2.61512e-09
2.62351e-09
2.62442e-09
2.62599e-09
2.6239e-09
2.62454e-09
2.62289e-09
2.62326e-09
2.62214e-09
2.62231e-09
2.62146e-09
2.62151e-09
2.62086e-09
2.62085e-09
2.62037e-09
2.62034e-09
2.62001e-09
2.61998e-09
2.61976e-09
2.61974e-09
2.61962e-09
2.61961e-09
2.61956e-09
2.61957e-09
2.61961e-09
2.61962e-09
2.61975e-09
2.61977e-09
2.61999e-09
2.62002e-09
2.62036e-09
2.62039e-09
2.62086e-09
2.62087e-09
2.62151e-09
2.62146e-09
2.6223e-09
2.62213e-09
2.62324e-09
2.62287e-09
2.62451e-09
2.62386e-09
2.62595e-09
2.62437e-09
2.62346e-09
2.61506e-09
2.59666e-09
2.57808e-09
2.3308e-09
2.34809e-09
2.36468e-09
2.37237e-09
2.37331e-09
2.37473e-09
2.37286e-09
2.3734e-09
2.37191e-09
2.3722e-09
2.37118e-09
2.37129e-09
2.37052e-09
2.37053e-09
2.36993e-09
2.3699e-09
2.36946e-09
2.36942e-09
2.3691e-09
2.36907e-09
2.36886e-09
2.36884e-09
2.36872e-09
2.36871e-09
2.36867e-09
2.36867e-09
2.36871e-09
2.36873e-09
2.36885e-09
2.36887e-09
2.36908e-09
2.36912e-09
2.36943e-09
2.36947e-09
2.36991e-09
2.36994e-09
2.37053e-09
2.37052e-09
2.37128e-09
2.37117e-09
2.37218e-09
2.37189e-09
2.37337e-09
2.37282e-09
2.37469e-09
2.37326e-09
2.37232e-09
2.36462e-09
2.34804e-09
2.33079e-09
2.11719e-09
2.13321e-09
2.1482e-09
2.15525e-09
2.1562e-09
2.15749e-09
2.15581e-09
2.15626e-09
2.15491e-09
2.15513e-09
2.1542e-09
2.15427e-09
2.15355e-09
2.15354e-09
2.15299e-09
2.15294e-09
2.15253e-09
2.15247e-09
2.15218e-09
2.15214e-09
2.15194e-09
2.15192e-09
2.15181e-09
2.15179e-09
2.15176e-09
2.15176e-09
2.1518e-09
2.15182e-09
2.15193e-09
2.15196e-09
2.15215e-09
2.15219e-09
2.15249e-09
2.15254e-09
2.15295e-09
2.15299e-09
2.15354e-09
2.15355e-09
2.15426e-09
2.15419e-09
2.15511e-09
2.15489e-09
2.15623e-09
2.15578e-09
2.15745e-09
2.15616e-09
2.15521e-09
2.14815e-09
2.13316e-09
2.11718e-09
1.93201e-09
1.94681e-09
1.96041e-09
1.96688e-09
1.96783e-09
1.969e-09
1.96749e-09
1.96785e-09
1.96663e-09
1.96679e-09
1.96593e-09
1.96596e-09
1.9653e-09
1.96526e-09
1.96475e-09
1.96469e-09
1.9643e-09
1.96424e-09
1.96396e-09
1.96392e-09
1.96374e-09
1.96371e-09
1.9636e-09
1.96359e-09
1.96355e-09
1.96355e-09
1.96359e-09
1.96361e-09
1.96372e-09
1.96375e-09
1.96393e-09
1.96398e-09
1.96425e-09
1.96432e-09
1.9647e-09
1.96476e-09
1.96527e-09
1.96531e-09
1.96596e-09
1.96592e-09
1.96677e-09
1.96661e-09
1.96783e-09
1.96745e-09
1.96896e-09
1.96778e-09
1.96684e-09
1.96036e-09
1.94676e-09
1.93199e-09
1.77089e-09
1.78453e-09
1.79691e-09
1.80286e-09
1.80379e-09
1.80485e-09
1.80349e-09
1.80379e-09
1.80267e-09
1.80278e-09
1.80199e-09
1.80199e-09
1.80138e-09
1.80131e-09
1.80083e-09
1.80076e-09
1.8004e-09
1.80032e-09
1.80007e-09
1.80001e-09
1.79984e-09
1.79981e-09
1.79971e-09
1.79969e-09
1.79966e-09
1.79966e-09
1.7997e-09
1.79972e-09
1.79982e-09
1.79985e-09
1.80002e-09
1.80008e-09
1.80034e-09
1.80041e-09
1.80077e-09
1.80084e-09
1.80132e-09
1.80138e-09
1.80198e-09
1.80198e-09
1.80276e-09
1.80265e-09
1.80376e-09
1.80346e-09
1.80481e-09
1.80375e-09
1.80281e-09
1.79686e-09
1.78448e-09
1.77086e-09
1.63015e-09
1.64274e-09
1.65404e-09
1.65951e-09
1.66042e-09
1.66138e-09
1.66015e-09
1.66039e-09
1.65937e-09
1.65943e-09
1.6587e-09
1.65867e-09
1.6581e-09
1.65802e-09
1.65757e-09
1.65748e-09
1.65714e-09
1.65706e-09
1.65681e-09
1.65675e-09
1.65659e-09
1.65656e-09
1.65646e-09
1.65644e-09
1.65641e-09
1.65642e-09
1.65645e-09
1.65647e-09
1.65657e-09
1.6566e-09
1.65677e-09
1.65683e-09
1.65707e-09
1.65715e-09
1.65749e-09
1.65757e-09
1.65802e-09
1.6581e-09
1.65866e-09
1.65869e-09
1.65942e-09
1.65935e-09
1.66036e-09
1.66012e-09
1.66135e-09
1.66038e-09
1.65946e-09
1.65399e-09
1.64269e-09
1.63012e-09
1.50675e-09
1.51841e-09
1.52872e-09
1.53376e-09
1.53464e-09
1.53552e-09
1.5344e-09
1.53459e-09
1.53365e-09
1.53367e-09
1.53299e-09
1.53294e-09
1.5324e-09
1.5323e-09
1.53188e-09
1.53178e-09
1.53146e-09
1.53137e-09
1.53114e-09
1.53108e-09
1.53092e-09
1.53088e-09
1.5308e-09
1.53078e-09
1.53075e-09
1.53075e-09
1.53078e-09
1.5308e-09
1.53089e-09
1.53094e-09
1.53109e-09
1.53115e-09
1.53139e-09
1.53147e-09
1.53179e-09
1.53189e-09
1.53231e-09
1.5324e-09
1.53293e-09
1.53299e-09
1.53366e-09
1.53363e-09
1.53456e-09
1.53437e-09
1.53548e-09
1.5346e-09
1.53371e-09
1.52867e-09
1.51836e-09
1.50671e-09
)
;

boundaryField
{
    fuel
    {
        type            fixedValue;
        value           uniform 0;
    }
    wall
    {
        type            zeroGradient;
    }
    outlet
    {
        type            zeroGradient;
    }
    frontAndBack
    {
        type            empty;
    }
    procBoundary1to0
    {
        type            processor;
        value           nonuniform List<scalar> 
50
(
1.39815e-09
1.40896e-09
1.41838e-09
1.42304e-09
1.42389e-09
1.42469e-09
1.42367e-09
1.42381e-09
1.42295e-09
1.42294e-09
1.4223e-09
1.42222e-09
1.42172e-09
1.42161e-09
1.42121e-09
1.4211e-09
1.42079e-09
1.4207e-09
1.42048e-09
1.42041e-09
1.42027e-09
1.42022e-09
1.42014e-09
1.42012e-09
1.42009e-09
1.42009e-09
1.42012e-09
1.42015e-09
1.42023e-09
1.42028e-09
1.42042e-09
1.42049e-09
1.42071e-09
1.4208e-09
1.42111e-09
1.42121e-09
1.42161e-09
1.42172e-09
1.42222e-09
1.42229e-09
1.42292e-09
1.42293e-09
1.42379e-09
1.42364e-09
1.42465e-09
1.42385e-09
1.42299e-09
1.41834e-09
1.40891e-09
1.3981e-09
)
;
    }
}


// ************************************************************************* //
