/*--------------------------------*- C++ -*----------------------------------*\
| =========                 |                                                 |
| \\      /  F ield         | OpenFOAM: The Open Source CFD Toolbox           |
|  \\    /   O peration     | Version:  dev                                   |
|   \\  /    A nd           | Web:      www.OpenFOAM.org                      |
|    \\/     M anipulation  |                                                 |
\*---------------------------------------------------------------------------*/
FoamFile
{
    version     2.0;
    format      ascii;
    class       volScalarField;
    location    "0.005";
    object      A2-1;
}
// * * * * * * * * * * * * * * * * * * * * * * * * * * * * * * * * * * * * * //

dimensions      [0 0 0 0 0 0 0];

internalField   nonuniform List<scalar> 
25
(
2.41828e-14
3.05274e-14
3.72894e-14
4.41281e-14
5.06914e-14
5.66611e-14
6.1786e-14
6.58987e-14
6.89181e-14
7.08391e-14
7.17166e-14
7.16427e-14
7.0738e-14
6.91338e-14
6.69582e-14
6.43101e-14
6.13411e-14
5.81278e-14
5.47336e-14
5.12691e-14
4.77752e-14
4.42859e-14
4.08723e-14
3.75185e-14
3.43075e-14
)
;

boundaryField
{
    wall
    {
        type            zeroGradient;
    }
    fuel
    {
        type            fixedValue;
        value           nonuniform 0();
    }
    outlet
    {
        type            inletOutlet;
        inletValue      nonuniform 0();
        value           nonuniform 0();
    }
    procBoundary1to0
    {
        type            processor;
        value           uniform 1.85377e-14;
    }
    procBoundary1to2
    {
        type            processor;
        value           uniform 3.12256e-14;
    }
}


// ************************************************************************* //
