/*--------------------------------*- C++ -*----------------------------------*\
| =========                 |                                                 |
| \\      /  F ield         | OpenFOAM: The Open Source CFD Toolbox           |
|  \\    /   O peration     | Version:  dev                                   |
|   \\  /    A nd           | Web:      www.OpenFOAM.org                      |
|    \\/     M anipulation  |                                                 |
\*---------------------------------------------------------------------------*/
FoamFile
{
    version     2.0;
    format      ascii;
    class       volScalarField;
    location    "0.005";
    object      C2H3;
}
// * * * * * * * * * * * * * * * * * * * * * * * * * * * * * * * * * * * * * //

dimensions      [0 0 0 0 0 0 0];

internalField   nonuniform List<scalar> 
25
(
2.8364e-08
2.83847e-08
2.85761e-08
2.89358e-08
2.94665e-08
3.0174e-08
3.10653e-08
3.21464e-08
3.34204e-08
3.48857e-08
3.65368e-08
3.83539e-08
4.03147e-08
4.23913e-08
4.45545e-08
4.67881e-08
4.90259e-08
5.12535e-08
5.34541e-08
5.55839e-08
5.76398e-08
5.96206e-08
6.15105e-08
6.33329e-08
6.50672e-08
)
;

boundaryField
{
    wall
    {
        type            zeroGradient;
    }
    fuel
    {
        type            fixedValue;
        value           nonuniform 0();
    }
    outlet
    {
        type            inletOutlet;
        inletValue      nonuniform 0();
        value           nonuniform 0();
    }
    procBoundary1to0
    {
        type            processor;
        value           uniform 2.85235e-08;
    }
    procBoundary1to2
    {
        type            processor;
        value           uniform 6.67278e-08;
    }
}


// ************************************************************************* //
