/*--------------------------------*- C++ -*----------------------------------*\
| =========                 |                                                 |
| \\      /  F ield         | OpenFOAM: The Open Source CFD Toolbox           |
|  \\    /   O peration     | Version:  dev                                   |
|   \\  /    A nd           | Web:      www.OpenFOAM.org                      |
|    \\/     M anipulation  |                                                 |
\*---------------------------------------------------------------------------*/
FoamFile
{
    version     2.0;
    format      ascii;
    class       volScalarField;
    location    "0.06";
    object      A1C2H-;
}
// * * * * * * * * * * * * * * * * * * * * * * * * * * * * * * * * * * * * * //

dimensions      [0 0 0 0 0 0 0];

internalField   nonuniform List<scalar> 
100
(
1.95339e-11
6.16915e-11
8.58927e-11
8.6599e-11
7.06299e-11
4.95151e-11
3.13536e-11
1.87665e-11
1.08733e-11
6.19567e-12
3.51408e-12
1.99796e-12
1.14885e-12
6.77968e-13
4.16185e-13
2.70746e-13
1.90248e-13
1.46253e-13
1.22951e-13
1.11441e-13
1.06597e-13
1.05385e-13
1.05946e-13
1.07122e-13
1.08192e-13
1.08722e-13
1.0849e-13
1.07391e-13
1.05431e-13
1.02678e-13
9.92366e-14
9.52265e-14
9.07709e-14
8.59875e-14
8.09851e-14
7.5851e-14
7.06866e-14
6.55466e-14
6.04919e-14
5.55781e-14
5.08003e-14
4.62618e-14
4.19426e-14
3.78308e-14
3.39818e-14
3.0374e-14
2.69924e-14
2.38642e-14
2.09427e-14
1.82763e-14
1.58288e-14
1.3595e-14
1.15782e-14
9.75745e-15
8.13384e-15
6.71195e-15
5.50408e-15
4.46778e-15
3.58084e-15
2.85779e-15
2.26248e-15
1.77824e-15
1.3881e-15
1.07614e-15
8.30062e-16
6.37456e-16
4.86531e-16
3.70752e-16
2.81765e-16
2.12578e-16
1.60554e-16
1.20886e-16
9.07282e-17
6.78712e-17
5.06135e-17
3.76053e-17
2.77881e-17
2.04646e-17
1.50121e-17
1.0888e-17
8.00598e-18
5.90251e-18
4.3812e-18
3.26707e-18
2.48763e-18
1.92894e-18
1.5286e-18
1.24079e-18
1.03125e-18
8.76355e-19
7.56106e-19
6.58585e-19
5.74587e-19
4.96492e-19
4.27075e-19
3.53672e-19
2.80334e-19
1.99303e-19
1.20786e-19
5.65342e-20
)
;

boundaryField
{
    wall
    {
        type            zeroGradient;
    }
    fuel
    {
        type            fixedValue;
        value           uniform 0;
    }
    outlet
    {
        type            inletOutlet;
        inletValue      uniform 0;
        value           uniform 5.65342e-20;
    }
}


// ************************************************************************* //
