/*--------------------------------*- C++ -*----------------------------------*\
| =========                 |                                                 |
| \\      /  F ield         | OpenFOAM: The Open Source CFD Toolbox           |
|  \\    /   O peration     | Version:  dev                                   |
|   \\  /    A nd           | Web:      www.OpenFOAM.org                      |
|    \\/     M anipulation  |                                                 |
\*---------------------------------------------------------------------------*/
FoamFile
{
    version     2.0;
    format      ascii;
    class       volScalarField;
    location    "0.06";
    object      A3C2H;
}
// * * * * * * * * * * * * * * * * * * * * * * * * * * * * * * * * * * * * * //

dimensions      [0 0 0 0 0 0 0];

internalField   nonuniform List<scalar> 
100
(
1.06569e-16
8.16566e-17
6.10378e-17
4.73812e-17
3.72549e-17
2.93494e-17
2.31624e-17
1.83892e-17
1.47845e-17
1.2106e-17
1.01318e-17
8.68591e-18
7.62974e-18
6.87009e-18
6.35262e-18
6.03962e-18
5.91107e-18
5.9545e-18
6.15916e-18
6.51231e-18
6.99704e-18
7.59198e-18
8.27201e-18
9.00973e-18
9.77734e-18
1.05482e-17
1.12986e-17
1.20077e-17
1.2658e-17
1.32358e-17
1.37311e-17
1.41362e-17
1.44457e-17
1.46562e-17
1.47656e-17
1.47736e-17
1.46809e-17
1.44897e-17
1.42037e-17
1.38285e-17
1.33673e-17
1.28288e-17
1.22313e-17
1.15801e-17
1.08875e-17
1.01662e-17
9.42855e-18
8.68619e-18
7.9523e-18
7.23677e-18
6.54905e-18
5.89113e-18
5.2807e-18
4.70684e-18
4.18288e-18
3.7098e-18
3.29524e-18
2.92498e-18
2.59809e-18
2.32117e-18
2.0838e-18
1.88217e-18
1.71242e-18
1.57076e-18
1.45125e-18
1.35471e-18
1.27572e-18
1.21131e-18
1.15885e-18
1.11512e-18
1.0797e-18
1.04988e-18
1.02405e-18
1.00084e-18
9.791e-19
9.57949e-19
9.36365e-19
9.13832e-19
8.90398e-19
8.66879e-19
8.41923e-19
8.15324e-19
7.86924e-19
7.56734e-19
7.24487e-19
6.88903e-19
6.53758e-19
6.16732e-19
5.77973e-19
5.37591e-19
4.95787e-19
4.5275e-19
4.08458e-19
3.62129e-19
3.15526e-19
2.64853e-19
2.13585e-19
1.55816e-19
9.92289e-20
5.5673e-20
)
;

boundaryField
{
    front
    {
        type            wedge;
    }
    back
    {
        type            wedge;
    }
    wall
    {
        type            zeroGradient;
    }
    fuel
    {
        type            fixedValue;
        value           uniform 0;
    }
    outlet
    {
        type            inletOutlet;
        inletValue      uniform 0;
        value           uniform 5.5673e-20;
    }
    axis
    {
        type            empty;
    }
}


// ************************************************************************* //
