/*--------------------------------*- C++ -*----------------------------------*\
| =========                 |                                                 |
| \\      /  F ield         | OpenFOAM: The Open Source CFD Toolbox           |
|  \\    /   O peration     | Version:  dev                                   |
|   \\  /    A nd           | Web:      www.OpenFOAM.org                      |
|    \\/     M anipulation  |                                                 |
\*---------------------------------------------------------------------------*/
FoamFile
{
    version     2.0;
    format      ascii;
    class       volScalarField;
    location    "0.06";
    object      C2H4;
}
// * * * * * * * * * * * * * * * * * * * * * * * * * * * * * * * * * * * * * //

dimensions      [0 0 0 0 0 0 0];

internalField   nonuniform List<scalar> 
100
(
0.0656309
0.0321143
0.0166076
0.00876843
0.00466456
0.0024852
0.00132223
0.000701577
0.000370467
0.000194751
0.000101901
5.31638e-05
2.75934e-05
1.43437e-05
7.49781e-06
3.98731e-06
2.1983e-06
1.29314e-06
8.40199e-07
6.18709e-07
5.16609e-07
4.77549e-07
4.73578e-07
4.91243e-07
5.2461e-07
5.71863e-07
6.30703e-07
7.02948e-07
7.93407e-07
9.05691e-07
1.04473e-06
1.21672e-06
1.42904e-06
1.69012e-06
2.00906e-06
2.39529e-06
2.85809e-06
3.40613e-06
4.04709e-06
4.76123e-06
5.55544e-06
6.44223e-06
7.39553e-06
8.41153e-06
9.47331e-06
1.05629e-05
1.16611e-05
1.27492e-05
1.38055e-05
1.48129e-05
1.57556e-05
1.66293e-05
1.73886e-05
1.80366e-05
1.85754e-05
1.89975e-05
1.92946e-05
1.94774e-05
1.95475e-05
1.95104e-05
1.93758e-05
1.9153e-05
1.88513e-05
1.8479e-05
1.80515e-05
1.75929e-05
1.70942e-05
1.65664e-05
1.6019e-05
1.54474e-05
1.4879e-05
1.43059e-05
1.37294e-05
1.31494e-05
1.25648e-05
1.19733e-05
1.13825e-05
1.07967e-05
1.02157e-05
9.67084e-06
9.13601e-06
8.61082e-06
8.09404e-06
7.5862e-06
7.083e-06
6.56677e-06
6.09037e-06
5.61655e-06
5.15424e-06
4.70639e-06
4.2631e-06
3.8282e-06
3.40065e-06
2.97213e-06
2.5577e-06
2.12307e-06
1.69664e-06
1.22794e-06
7.7737e-07
4.34573e-07
)
;

boundaryField
{
    front
    {
        type            wedge;
    }
    back
    {
        type            wedge;
    }
    wall
    {
        type            zeroGradient;
    }
    fuel
    {
        type            fixedValue;
        value           uniform 0.116;
    }
    outlet
    {
        type            inletOutlet;
        inletValue      uniform 0;
        value           uniform 4.34573e-07;
    }
    axis
    {
        type            empty;
    }
}


// ************************************************************************* //
