/*--------------------------------*- C++ -*----------------------------------*\
| =========                 |                                                 |
| \\      /  F ield         | OpenFOAM: The Open Source CFD Toolbox           |
|  \\    /   O peration     | Version:  dev                                   |
|   \\  /    A nd           | Web:      www.OpenFOAM.org                      |
|    \\/     M anipulation  |                                                 |
\*---------------------------------------------------------------------------*/
FoamFile
{
    version     2.0;
    format      ascii;
    class       volScalarField;
    location    "0.06";
    object      C6H3;
}
// * * * * * * * * * * * * * * * * * * * * * * * * * * * * * * * * * * * * * //

dimensions      [0 0 0 0 0 0 0];

internalField   nonuniform List<scalar> 
100
(
1.01754e-11
3.19776e-11
4.86018e-11
5.5734e-11
5.34084e-11
4.49142e-11
3.43395e-11
2.44574e-11
1.6766e-11
1.12598e-11
7.50393e-12
5.02082e-12
3.40278e-12
2.35949e-12
1.6924e-12
1.26331e-12
9.85749e-13
8.04705e-13
6.85349e-13
6.05594e-13
5.51348e-13
5.13562e-13
4.86389e-13
4.66048e-13
4.50107e-13
4.37025e-13
4.25862e-13
4.16071e-13
4.07311e-13
3.99421e-13
3.92325e-13
3.85993e-13
3.80421e-13
3.75619e-13
3.71609e-13
3.68422e-13
3.66093e-13
3.64656e-13
3.64123e-13
3.64453e-13
3.65568e-13
3.67494e-13
3.70206e-13
3.73525e-13
3.77182e-13
3.80815e-13
3.83963e-13
3.8607e-13
3.86537e-13
3.84748e-13
3.80133e-13
3.72134e-13
3.60628e-13
3.45211e-13
3.26502e-13
3.05096e-13
2.82207e-13
2.57872e-13
2.32894e-13
2.08847e-13
1.85778e-13
1.64121e-13
1.44177e-13
1.2612e-13
1.09638e-13
9.52495e-14
8.26513e-14
7.16956e-14
6.22271e-14
5.3917e-14
4.69294e-14
4.09479e-14
3.58262e-14
3.14314e-14
2.76476e-14
2.43845e-14
2.14957e-14
1.89414e-14
1.67502e-14
1.49566e-14
1.34135e-14
1.20814e-14
1.0923e-14
9.90795e-15
9.00134e-15
8.15486e-15
7.43629e-15
6.77644e-15
6.16074e-15
5.57759e-15
5.02652e-15
4.50021e-15
3.991e-15
3.48542e-15
2.99893e-15
2.48986e-15
1.99057e-15
1.44143e-15
9.12981e-16
5.10568e-16
)
;

boundaryField
{
    front
    {
        type            wedge;
    }
    back
    {
        type            wedge;
    }
    wall
    {
        type            zeroGradient;
    }
    fuel
    {
        type            fixedValue;
        value           uniform 0;
    }
    outlet
    {
        type            inletOutlet;
        inletValue      uniform 0;
        value           uniform 5.10568e-16;
    }
    axis
    {
        type            empty;
    }
}


// ************************************************************************* //
