/*--------------------------------*- C++ -*----------------------------------*\
| =========                 |                                                 |
| \\      /  F ield         | OpenFOAM: The Open Source CFD Toolbox           |
|  \\    /   O peration     | Version:  dev                                   |
|   \\  /    A nd           | Web:      www.OpenFOAM.org                      |
|    \\/     M anipulation  |                                                 |
\*---------------------------------------------------------------------------*/
FoamFile
{
    version     2.0;
    format      ascii;
    class       volScalarField;
    location    "0.06";
    object      CH2(S);
}
// * * * * * * * * * * * * * * * * * * * * * * * * * * * * * * * * * * * * * //

dimensions      [0 0 0 0 0 0 0];

internalField   nonuniform List<scalar> 
100
(
8.41667e-07
1.47434e-06
1.6042e-06
1.5272e-06
1.35034e-06
1.1312e-06
9.05632e-07
7.00481e-07
5.29135e-07
3.94116e-07
2.91521e-07
2.15442e-07
1.59531e-07
1.1857e-07
8.87651e-08
6.69379e-08
5.08646e-08
3.89397e-08
3.00152e-08
2.32739e-08
1.81346e-08
1.41828e-08
1.11213e-08
8.73454e-09
6.86505e-09
5.39589e-09
4.23851e-09
3.32476e-09
2.60473e-09
2.03754e-09
1.59122e-09
1.24051e-09
9.65361e-10
7.49844e-10
5.81322e-10
4.49775e-10
3.47275e-10
2.67561e-10
2.0571e-10
1.57781e-10
1.20401e-10
9.14885e-11
6.95059e-11
5.26384e-11
3.9737e-11
2.98951e-11
2.24098e-11
1.67294e-11
1.24421e-11
9.21562e-12
6.79814e-12
4.9808e-12
3.64366e-12
2.637e-12
1.9e-12
1.36278e-12
9.79806e-13
7.00141e-13
4.97143e-13
3.54548e-13
2.52442e-13
1.79415e-13
1.27224e-13
8.99721e-14
6.29372e-14
4.38765e-14
3.03372e-14
2.07583e-14
1.40375e-14
9.29085e-15
6.1006e-15
3.9463e-15
2.5145e-15
1.57902e-15
9.78964e-16
6.02263e-16
3.6703e-16
2.22785e-16
1.38153e-16
9.0482e-17
6.20414e-17
4.46792e-17
3.36405e-17
2.62243e-17
2.08651e-17
1.66232e-17
1.3412e-17
1.07405e-17
8.48952e-18
6.58935e-18
5.00631e-18
3.71076e-18
2.67266e-18
1.84848e-18
1.23647e-18
7.67885e-19
4.49028e-19
2.22842e-19
9.24156e-20
3.45903e-20
)
;

boundaryField
{
    front
    {
        type            wedge;
    }
    back
    {
        type            wedge;
    }
    wall
    {
        type            zeroGradient;
    }
    fuel
    {
        type            fixedValue;
        value           uniform 0;
    }
    outlet
    {
        type            inletOutlet;
        inletValue      uniform 0;
        value           uniform 3.45903e-20;
    }
    axis
    {
        type            empty;
    }
}


// ************************************************************************* //
