/*--------------------------------*- C++ -*----------------------------------*\
| =========                 |                                                 |
| \\      /  F ield         | OpenFOAM: The Open Source CFD Toolbox           |
|  \\    /   O peration     | Version:  dev                                   |
|   \\  /    A nd           | Web:      www.OpenFOAM.org                      |
|    \\/     M anipulation  |                                                 |
\*---------------------------------------------------------------------------*/
FoamFile
{
    version     2.0;
    format      ascii;
    class       volScalarField;
    location    "0.06";
    object      HCCO;
}
// * * * * * * * * * * * * * * * * * * * * * * * * * * * * * * * * * * * * * //

dimensions      [0 0 0 0 0 0 0];

internalField   nonuniform List<scalar> 
100
(
3.05839e-06
6.43463e-06
7.64756e-06
7.66341e-06
6.97768e-06
5.9428e-06
4.80625e-06
3.74187e-06
2.84164e-06
2.12679e-06
1.58111e-06
1.17573e-06
8.77719e-07
6.59615e-07
5.01206e-07
3.85369e-07
3.0007e-07
2.36617e-07
1.88812e-07
1.52275e-07
1.23926e-07
1.01601e-07
8.37777e-08
6.93782e-08
5.76307e-08
4.79737e-08
3.9986e-08
3.33459e-08
2.78202e-08
2.3212e-08
1.93643e-08
1.61493e-08
1.34618e-08
1.12149e-08
9.33642e-09
7.76638e-09
6.45483e-09
5.36011e-09
4.44754e-09
3.68661e-09
3.04753e-09
2.51463e-09
2.07759e-09
1.71545e-09
1.41592e-09
1.16846e-09
9.64236e-10
7.95692e-10
6.57012e-10
5.42889e-10
4.4907e-10
3.71343e-10
3.07977e-10
2.54851e-10
2.11288e-10
1.75517e-10
1.46634e-10
1.22571e-10
1.02501e-10
8.62242e-11
7.26946e-11
6.141e-11
5.19704e-11
4.40615e-11
3.7284e-11
3.16484e-11
2.69129e-11
2.29384e-11
1.96165e-11
1.68021e-11
1.45265e-11
1.26699e-11
1.11752e-11
9.99315e-12
9.08092e-12
8.40231e-12
7.91289e-12
7.59161e-12
7.43052e-12
7.40901e-12
7.50036e-12
7.69009e-12
7.96638e-12
8.31851e-12
8.74238e-12
9.24887e-12
9.77295e-12
1.03249e-11
1.08768e-11
1.13862e-11
1.17882e-11
1.20151e-11
1.19983e-11
1.16637e-11
1.09711e-11
9.81508e-12
8.28123e-12
6.23331e-12
4.02847e-12
2.26622e-12
)
;

boundaryField
{
    front
    {
        type            wedge;
    }
    back
    {
        type            wedge;
    }
    wall
    {
        type            zeroGradient;
    }
    fuel
    {
        type            fixedValue;
        value           uniform 0;
    }
    outlet
    {
        type            inletOutlet;
        inletValue      uniform 0;
        value           uniform 2.26622e-12;
    }
    axis
    {
        type            empty;
    }
}


// ************************************************************************* //
