/*--------------------------------*- C++ -*----------------------------------*\
| =========                 |                                                 |
| \\      /  F ield         | OpenFOAM: The Open Source CFD Toolbox           |
|  \\    /   O peration     | Version:  dev                                   |
|   \\  /    A nd           | Web:      www.OpenFOAM.org                      |
|    \\/     M anipulation  |                                                 |
\*---------------------------------------------------------------------------*/
FoamFile
{
    version     2.0;
    format      ascii;
    class       volScalarField;
    location    "0.06";
    object      n-C6H7;
}
// * * * * * * * * * * * * * * * * * * * * * * * * * * * * * * * * * * * * * //

dimensions      [0 0 0 0 0 0 0];

internalField   nonuniform List<scalar> 
100
(
1.09367e-15
3.35152e-15
4.86743e-15
5.37836e-15
4.91563e-15
3.86662e-15
2.72285e-15
1.79778e-15
1.1442e-15
7.16462e-16
4.48717e-16
2.84256e-16
1.83955e-16
1.23271e-16
8.63995e-17
6.40086e-17
5.04954e-17
4.24683e-17
3.78298e-17
3.52409e-17
3.3816e-17
3.29563e-17
3.22586e-17
3.14642e-17
3.0425e-17
2.90802e-17
2.74291e-17
2.55168e-17
2.34124e-17
2.11954e-17
1.89441e-17
1.67282e-17
1.46046e-17
1.2616e-17
1.07909e-17
9.14314e-18
7.68378e-18
6.40712e-18
5.30644e-18
4.37043e-18
3.57882e-18
2.92962e-18
2.40228e-18
1.9814e-18
1.66033e-18
1.42667e-18
1.27141e-18
1.18867e-18
1.17115e-18
1.21265e-18
1.30606e-18
1.44364e-18
1.61595e-18
1.81485e-18
2.03036e-18
2.25223e-18
2.46975e-18
2.68428e-18
2.89837e-18
3.10986e-18
3.33217e-18
3.57799e-18
3.86393e-18
4.21084e-18
4.64069e-18
5.17862e-18
5.85726e-18
6.69762e-18
7.73311e-18
9.01276e-18
1.05334e-17
1.23416e-17
1.44644e-17
1.69314e-17
1.97776e-17
2.30487e-17
2.68052e-17
3.11072e-17
3.60792e-17
4.2033e-17
4.87472e-17
5.66599e-17
6.59447e-17
7.70372e-17
8.97099e-17
1.04314e-16
1.2086e-16
1.39217e-16
1.59015e-16
1.79417e-16
1.99124e-16
2.15376e-16
2.25972e-16
2.27231e-16
2.16547e-16
1.89822e-16
1.48378e-16
9.33525e-17
4.23616e-17
1.15446e-17
)
;

boundaryField
{
    wall
    {
        type            zeroGradient;
    }
    fuel
    {
        type            fixedValue;
        value           uniform 0;
    }
    outlet
    {
        type            inletOutlet;
        inletValue      uniform 0;
        value           uniform 1.15446e-17;
    }
}


// ************************************************************************* //
