/*--------------------------------*- C++ -*----------------------------------*\
| =========                 |                                                 |
| \\      /  F ield         | OpenFOAM: The Open Source CFD Toolbox           |
|  \\    /   O peration     | Version:  dev                                   |
|   \\  /    A nd           | Web:      www.OpenFOAM.org                      |
|    \\/     M anipulation  |                                                 |
\*---------------------------------------------------------------------------*/
FoamFile
{
    version     2.0;
    format      ascii;
    class       volScalarField;
    location    "0.06";
    object      O2;
}
// * * * * * * * * * * * * * * * * * * * * * * * * * * * * * * * * * * * * * //

dimensions      [0 0 0 0 0 0 0];

internalField   nonuniform List<scalar> 
100
(
0.105349
0.0501014
0.0252017
0.0129433
0.0067006
0.00347895
0.00180899
0.000942635
0.000492021
0.000258103
0.000136962
7.3714e-05
4.01404e-05
2.2367e-05
1.27372e-05
7.43228e-06
4.45291e-06
2.74271e-06
1.73728e-06
1.13094e-06
7.55575e-07
5.17053e-07
3.61686e-07
2.57979e-07
1.86913e-07
1.38043e-07
1.07113e-07
8.50281e-08
6.926e-08
5.80087e-08
5.00042e-08
4.43705e-08
4.05246e-08
3.80991e-08
3.6883e-08
3.67761e-08
3.77594e-08
3.96816e-08
4.24516e-08
4.6305e-08
5.12364e-08
5.71287e-08
6.39868e-08
7.18167e-08
8.04733e-08
8.99475e-08
1.00227e-07
1.11165e-07
1.22886e-07
1.35185e-07
1.47795e-07
1.6065e-07
1.73945e-07
1.87632e-07
2.01554e-07
2.15506e-07
2.29116e-07
2.42601e-07
2.56022e-07
2.68821e-07
2.81257e-07
2.93374e-07
3.04785e-07
3.15392e-07
3.25524e-07
3.35014e-07
3.43841e-07
3.518e-07
3.58901e-07
3.65197e-07
3.70445e-07
3.74707e-07
3.77941e-07
3.80119e-07
3.81257e-07
3.81188e-07
3.79824e-07
3.77334e-07
3.73626e-07
3.68504e-07
3.62333e-07
3.54859e-07
3.46115e-07
3.35901e-07
3.2465e-07
3.12118e-07
2.98302e-07
2.83318e-07
2.67164e-07
2.49724e-07
2.30773e-07
2.10603e-07
1.89427e-07
1.66806e-07
1.44951e-07
1.20757e-07
9.60283e-08
6.84223e-08
4.15309e-08
1.94579e-08
)
;

boundaryField
{
    wall
    {
        type            zeroGradient;
    }
    fuel
    {
        type            fixedValue;
        value           uniform 0.1914;
    }
    outlet
    {
        type            inletOutlet;
        inletValue      uniform 0;
        value           uniform 1.94579e-08;
    }
}


// ************************************************************************* //
