/*--------------------------------*- C++ -*----------------------------------*\
| =========                 |                                                 |
| \\      /  F ield         | OpenFOAM: The Open Source CFD Toolbox           |
|  \\    /   O peration     | Version:  dev                                   |
|   \\  /    A nd           | Web:      www.OpenFOAM.org                      |
|    \\/     M anipulation  |                                                 |
\*---------------------------------------------------------------------------*/
FoamFile
{
    version     2.0;
    format      ascii;
    class       volScalarField;
    location    "0.06";
    object      OH;
}
// * * * * * * * * * * * * * * * * * * * * * * * * * * * * * * * * * * * * * //

dimensions      [0 0 0 0 0 0 0];

internalField   nonuniform List<scalar> 
100
(
0.000498306
0.000677609
0.00071294
0.000697146
0.000653964
0.000594669
0.000526851
0.000458108
0.000393145
0.000334734
0.000283762
0.000240161
0.000203105
0.000171664
0.000145216
0.000122905
0.000104081
8.81874e-05
7.47515e-05
6.3378e-05
5.37361e-05
4.55511e-05
3.85948e-05
3.26779e-05
2.76432e-05
2.33595e-05
1.97142e-05
1.66117e-05
1.39787e-05
1.17464e-05
9.85629e-06
8.2582e-06
6.90895e-06
5.77138e-06
4.81359e-06
4.00829e-06
3.33214e-06
2.7653e-06
2.29098e-06
1.89428e-06
1.56034e-06
1.28123e-06
1.05176e-06
8.61253e-07
7.03476e-07
5.7304e-07
4.65436e-07
3.76768e-07
3.04028e-07
2.44456e-07
1.95824e-07
1.55938e-07
1.23864e-07
9.74594e-08
7.62742e-08
5.93327e-08
4.60818e-08
3.54693e-08
2.70298e-08
2.0552e-08
1.5505e-08
1.15997e-08
8.60155e-09
6.32197e-09
4.57425e-09
3.28475e-09
2.33323e-09
1.6383e-09
1.13715e-09
7.74031e-10
5.2365e-10
3.49879e-10
2.30809e-10
1.50278e-10
9.65659e-11
6.13518e-11
3.82906e-11
2.34374e-11
1.42883e-11
8.92106e-12
5.63939e-12
3.64114e-12
2.4232e-12
1.6766e-12
1.20852e-12
8.99864e-13
7.08586e-13
5.76062e-13
4.79861e-13
4.06468e-13
3.48483e-13
3.01128e-13
2.61262e-13
2.26244e-13
1.95812e-13
1.66085e-13
1.37344e-13
1.04102e-13
6.88502e-14
3.94225e-14
)
;

boundaryField
{
    front
    {
        type            wedge;
    }
    back
    {
        type            wedge;
    }
    wall
    {
        type            zeroGradient;
    }
    fuel
    {
        type            fixedValue;
        value           uniform 0;
    }
    outlet
    {
        type            inletOutlet;
        inletValue      uniform 0;
        value           uniform 3.94225e-14;
    }
    axis
    {
        type            empty;
    }
}


// ************************************************************************* //
