/*--------------------------------*- C++ -*----------------------------------*\
| =========                 |                                                 |
| \\      /  F ield         | OpenFOAM: The Open Source CFD Toolbox           |
|  \\    /   O peration     | Version:  dev                                   |
|   \\  /    A nd           | Web:      www.OpenFOAM.org                      |
|    \\/     M anipulation  |                                                 |
\*---------------------------------------------------------------------------*/
FoamFile
{
    version     2.0;
    format      ascii;
    class       volScalarField;
    location    "0.06";
    object      P2-H;
}
// * * * * * * * * * * * * * * * * * * * * * * * * * * * * * * * * * * * * * //

dimensions      [0 0 0 0 0 0 0];

internalField   nonuniform List<scalar> 
100
(
8.31486e-22
2.42778e-21
4.05872e-21
4.68988e-21
4.13869e-21
2.96058e-21
1.8472e-21
1.08819e-21
6.29081e-22
3.67737e-22
2.23938e-22
1.46652e-22
1.03372e-22
8.25325e-23
7.33371e-23
7.08649e-23
7.22172e-23
7.55159e-23
7.94447e-23
8.30806e-23
8.58431e-23
8.74727e-23
8.79848e-23
8.7607e-23
8.66907e-23
8.55802e-23
8.46721e-23
8.42512e-23
8.45114e-23
8.55563e-23
8.74089e-23
9.00297e-23
9.33373e-23
9.7226e-23
1.01582e-22
1.06304e-22
1.11282e-22
1.16416e-22
1.21611e-22
1.26873e-22
1.32212e-22
1.37539e-22
1.42915e-22
1.48407e-22
1.54019e-22
1.59864e-22
1.66075e-22
1.72733e-22
1.80084e-22
1.88185e-22
1.97267e-22
2.07439e-22
2.18938e-22
2.31997e-22
2.46755e-22
2.63252e-22
2.81251e-22
3.01125e-22
3.23115e-22
3.46467e-22
3.7153e-22
3.9816e-22
4.26123e-22
4.55159e-22
4.85061e-22
5.15468e-22
5.46393e-22
5.7726e-22
6.08122e-22
6.3935e-22
6.70493e-22
7.02308e-22
7.35336e-22
7.70368e-22
8.08424e-22
8.50884e-22
8.99229e-22
9.54505e-22
1.01896e-21
1.09757e-21
1.19078e-21
1.30641e-21
1.45109e-21
1.63871e-21
1.87827e-21
2.19339e-21
2.61386e-21
3.18967e-21
3.99854e-21
5.168e-21
6.92968e-21
9.52685e-21
1.31216e-20
1.72077e-20
1.99916e-20
2.05087e-20
1.83521e-20
1.39093e-20
8.61299e-21
4.04025e-21
)
;

boundaryField
{
    wall
    {
        type            zeroGradient;
    }
    fuel
    {
        type            fixedValue;
        value           uniform 0;
    }
    outlet
    {
        type            inletOutlet;
        inletValue      uniform 0;
        value           uniform 4.04025e-21;
    }
}


// ************************************************************************* //
