/*--------------------------------*- C++ -*----------------------------------*\
| =========                 |                                                 |
| \\      /  F ield         | OpenFOAM: The Open Source CFD Toolbox           |
|  \\    /   O peration     | Version:  dev                                   |
|   \\  /    A nd           | Web:      www.OpenFOAM.org                      |
|    \\/     M anipulation  |                                                 |
\*---------------------------------------------------------------------------*/
FoamFile
{
    version     2.0;
    format      ascii;
    class       volScalarField;
    location    "0.18";
    object      A1C2H-;
}
// * * * * * * * * * * * * * * * * * * * * * * * * * * * * * * * * * * * * * //

dimensions      [0 0 0 0 0 0 0];

internalField   nonuniform List<scalar> 
250
(
5.14641e-07
5.14645e-07
5.14665e-07
5.14611e-07
5.14628e-07
5.14604e-07
5.14647e-07
5.14837e-07
5.14787e-07
4.88428e-07
4.19176e-09
6.78636e-07
6.78663e-07
6.78686e-07
6.78608e-07
6.78614e-07
6.7864e-07
6.78913e-07
6.81273e-07
6.98414e-07
8.00007e-07
4.88337e-09
4.56405e-07
4.56472e-07
4.56494e-07
4.564e-07
4.56416e-07
4.56447e-07
4.56782e-07
4.59726e-07
4.81576e-07
6.38065e-07
2.44484e-09
2.71437e-07
2.71527e-07
2.71541e-07
2.7145e-07
2.71456e-07
2.71496e-07
2.71792e-07
2.74393e-07
2.94062e-07
4.46878e-07
1.00888e-09
1.63863e-07
1.63957e-07
1.63962e-07
1.63883e-07
1.63851e-07
1.63923e-07
1.64153e-07
1.66166e-07
1.82882e-07
3.15072e-07
4.68709e-10
1.04676e-07
1.04766e-07
1.04762e-07
1.04699e-07
1.04594e-07
1.0473e-07
1.04887e-07
1.06223e-07
1.19293e-07
2.31152e-07
2.78224e-10
6.92105e-08
6.93036e-08
6.93024e-08
6.92258e-08
6.89199e-08
6.92904e-08
6.95705e-08
7.17368e-08
8.31848e-08
1.76513e-07
2.11284e-10
4.94358e-08
4.9522e-08
4.95174e-08
4.94506e-08
4.887e-08
4.95124e-08
4.97624e-08
5.1529e-08
6.0884e-08
1.39214e-07
2.02267e-10
3.60006e-08
3.60834e-08
3.60786e-08
3.60101e-08
3.64617e-08
3.60859e-08
3.62657e-08
3.78675e-08
4.64585e-08
1.1255e-07
2.39269e-10
2.72311e-08
2.72998e-08
2.72957e-08
2.72295e-08
2.74979e-08
2.73112e-08
2.74767e-08
2.88537e-08
3.67461e-08
9.27666e-08
3.20257e-10
2.1471e-08
2.14675e-08
2.13965e-08
2.15461e-08
2.14876e-08
2.16411e-08
2.28318e-08
2.95208e-08
7.76757e-08
5.43297e-10
1.7451e-08
1.74482e-08
1.73651e-08
1.74369e-08
1.74717e-08
1.76141e-08
1.86599e-08
2.43702e-08
6.59666e-08
1.00581e-09
1.45702e-08
1.45684e-08
1.44636e-08
1.44675e-08
1.45954e-08
1.47277e-08
1.56626e-08
2.05042e-08
5.59119e-08
1.64776e-09
1.24267e-08
1.24264e-08
1.22847e-08
1.24956e-08
1.24585e-08
1.25804e-08
1.34298e-08
1.78631e-08
4.82876e-08
2.3909e-09
1.07743e-08
1.07763e-08
1.07961e-08
1.09075e-08
1.08115e-08
1.09252e-08
1.17046e-08
1.5572e-08
4.07772e-08
3.20043e-09
9.4595e-09
9.46339e-09
9.46851e-09
9.55353e-09
9.49977e-09
9.60804e-09
1.03267e-08
1.36326e-08
3.52011e-08
4.02576e-09
8.38473e-09
8.39011e-09
8.3827e-09
8.45551e-09
8.42674e-09
8.53077e-09
9.19403e-09
1.20179e-08
3.04453e-08
4.7897e-09
7.48702e-09
7.49349e-09
7.47419e-09
7.54296e-09
7.52993e-09
7.63004e-09
8.24029e-09
1.06513e-08
2.63536e-08
5.4431e-09
6.72478e-09
6.7318e-09
6.69978e-09
6.77081e-09
6.76796e-09
6.86394e-09
7.42093e-09
9.48171e-09
2.2824e-08
5.97772e-09
6.06971e-09
6.07659e-09
6.02848e-09
6.10927e-09
6.11264e-09
6.20386e-09
6.70465e-09
8.47308e-09
1.98008e-08
6.4113e-09
5.5018e-09
5.50766e-09
5.50608e-09
5.53771e-09
5.5439e-09
5.62923e-09
6.0681e-09
7.59834e-09
1.68385e-08
6.76387e-09
5.00578e-09
5.00901e-09
5.03229e-09
5.03909e-09
5.04632e-09
5.12383e-09
5.56713e-09
6.84051e-09
1.41925e-08
7.04804e-09
4.61918e-09
4.61768e-09
4.63868e-09
4.65008e-09
4.65772e-09
4.7242e-09
5.12725e-09
6.1837e-09
1.22512e-08
7.26119e-09
4.25588e-09
4.2768e-09
4.27122e-09
4.28602e-09
4.29337e-09
4.37331e-09
4.72891e-09
5.60982e-09
1.06191e-08
7.38415e-09
)
;

boundaryField
{
    fuel
    {
        type            fixedValue;
        value           uniform 0;
    }
    wall
    {
        type            zeroGradient;
    }
    outlet
    {
        type            zeroGradient;
    }
    frontAndBack
    {
        type            empty;
    }
    procBoundary3to0
    {
        type            processor;
        value           nonuniform List<scalar> 10(3.96179e-09 3.98002e-09 3.97413e-09 3.98977e-09 3.9968e-09 4.06673e-09 4.39037e-09 5.15988e-09 9.25079e-09 7.39095e-09);
    }
    procBoundary3to2
    {
        type            processor;
        value           nonuniform List<scalar> 
25
(
5.14709e-07
6.78812e-07
4.56717e-07
2.71808e-07
1.64228e-07
1.05008e-07
6.95137e-08
4.9706e-08
3.62316e-08
2.74123e-08
2.14131e-08
2.14131e-08
1.74024e-08
1.45291e-08
1.2392e-08
1.07452e-08
9.4352e-09
8.36461e-09
7.47054e-09
6.71146e-09
6.05916e-09
5.49367e-09
4.99977e-09
4.6137e-09
4.25117e-09
)
;
    }
}


// ************************************************************************* //
