/*--------------------------------*- C++ -*----------------------------------*\
| =========                 |                                                 |
| \\      /  F ield         | OpenFOAM: The Open Source CFD Toolbox           |
|  \\    /   O peration     | Version:  dev                                   |
|   \\  /    A nd           | Web:      www.OpenFOAM.org                      |
|    \\/     M anipulation  |                                                 |
\*---------------------------------------------------------------------------*/
FoamFile
{
    version     2.0;
    format      ascii;
    class       volScalarField;
    location    "0.18";
    object      A2R5-;
}
// * * * * * * * * * * * * * * * * * * * * * * * * * * * * * * * * * * * * * //

dimensions      [0 0 0 0 0 0 0];

internalField   nonuniform List<scalar> 
250
(
1.67901e-08
1.67901e-08
1.67909e-08
1.67889e-08
1.67883e-08
1.67908e-08
1.68032e-08
1.69099e-08
1.77825e-08
2.29354e-08
4.92022e-10
3.03473e-08
3.03476e-08
3.03491e-08
3.0345e-08
3.03429e-08
3.03507e-08
3.0383e-08
3.06638e-08
3.30136e-08
4.82611e-08
1.08987e-09
3.14488e-08
3.14507e-08
3.1453e-08
3.14462e-08
3.14438e-08
3.14546e-08
3.14985e-08
3.18663e-08
3.49313e-08
5.41469e-08
1.17169e-09
2.85619e-08
2.85664e-08
2.8569e-08
2.85597e-08
2.8556e-08
2.857e-08
2.86195e-08
2.90162e-08
3.22843e-08
5.11042e-08
9.41111e-10
2.51725e-08
2.51799e-08
2.51823e-08
2.51709e-08
2.51629e-08
2.51829e-08
2.5235e-08
2.56315e-08
2.88909e-08
4.55715e-08
6.51219e-10
2.22384e-08
2.22486e-08
2.22507e-08
2.22373e-08
2.22196e-08
2.22511e-08
2.23042e-08
2.26832e-08
2.57883e-08
3.99822e-08
4.24527e-10
1.97079e-08
1.97219e-08
1.97243e-08
1.97065e-08
1.9664e-08
1.97263e-08
1.97956e-08
2.02676e-08
2.32596e-08
3.50239e-08
2.81616e-10
1.77956e-08
1.78125e-08
1.78145e-08
1.77943e-08
1.77161e-08
1.78177e-08
1.78911e-08
1.83607e-08
2.11456e-08
3.0791e-08
1.97787e-10
1.60659e-08
1.60862e-08
1.60881e-08
1.60635e-08
1.61303e-08
1.60941e-08
1.61649e-08
1.66553e-08
1.93549e-08
2.72197e-08
1.52828e-10
1.45838e-08
1.46058e-08
1.46077e-08
1.45786e-08
1.46286e-08
1.46165e-08
1.46907e-08
1.51845e-08
1.78103e-08
2.42199e-08
1.42073e-10
1.33368e-08
1.33388e-08
1.33031e-08
1.33393e-08
1.33502e-08
1.34272e-08
1.39203e-08
1.63461e-08
2.17093e-08
1.7916e-10
1.2227e-08
1.22292e-08
1.21839e-08
1.22087e-08
1.22434e-08
1.23223e-08
1.28137e-08
1.50387e-08
1.96218e-08
2.76031e-10
1.12399e-08
1.12425e-08
1.11833e-08
1.11934e-08
1.12599e-08
1.13399e-08
1.18291e-08
1.38415e-08
1.77308e-08
4.21954e-10
1.0349e-08
1.03525e-08
1.02728e-08
1.03802e-08
1.0374e-08
1.04537e-08
1.09406e-08
1.2875e-08
1.62382e-08
6.07492e-10
9.53507e-09
9.53999e-09
9.53994e-09
9.60658e-09
9.56486e-09
9.64425e-09
1.01272e-08
1.1905e-08
1.47081e-08
8.31057e-10
8.78368e-09
8.79004e-09
8.78278e-09
8.84153e-09
8.8174e-09
8.89709e-09
9.37385e-09
1.09703e-08
1.35373e-08
1.08809e-09
8.08431e-09
8.09204e-09
8.07708e-09
8.13389e-09
8.12142e-09
8.20147e-09
8.66912e-09
1.00992e-08
1.25056e-08
1.36379e-09
7.42932e-09
7.43824e-09
7.41441e-09
7.47362e-09
7.46942e-09
7.54954e-09
8.00436e-09
9.285e-09
1.15825e-08
1.64465e-09
6.8132e-09
6.82298e-09
6.78822e-09
6.85421e-09
6.85593e-09
6.93555e-09
7.37243e-09
8.5228e-09
1.07463e-08
1.92602e-09
6.23196e-09
6.24198e-09
6.19231e-09
6.27131e-09
6.27687e-09
6.35505e-09
6.76689e-09
7.80863e-09
9.9852e-09
2.21228e-09
5.68254e-09
5.69189e-09
5.68658e-09
5.7218e-09
5.72898e-09
5.80419e-09
6.18155e-09
7.13882e-09
9.17155e-09
2.50998e-09
5.16196e-09
5.16891e-09
5.19008e-09
5.2014e-09
5.20905e-09
5.27872e-09
5.68297e-09
6.51174e-09
8.36942e-09
2.82233e-09
4.72274e-09
4.72492e-09
4.74424e-09
4.76171e-09
4.76956e-09
4.82937e-09
5.21169e-09
5.92359e-09
7.71914e-09
3.14339e-09
4.2781e-09
4.30829e-09
4.29568e-09
4.31827e-09
4.32576e-09
4.40477e-09
4.75306e-09
5.36801e-09
7.10598e-09
3.45518e-09
)
;

boundaryField
{
    fuel
    {
        type            fixedValue;
        value           uniform 0;
    }
    wall
    {
        type            zeroGradient;
    }
    outlet
    {
        type            zeroGradient;
    }
    frontAndBack
    {
        type            empty;
    }
    procBoundary3to0
    {
        type            processor;
        value           nonuniform List<scalar> 10(3.89049e-09 3.91831e-09 3.90504e-09 3.92965e-09 3.93683e-09 4.0064e-09 4.33431e-09 4.89727e-09 6.52355e-09 3.72811e-09);
    }
    procBoundary3to2
    {
        type            processor;
        value           nonuniform List<scalar> 
25
(
1.67927e-08
3.03531e-08
3.14604e-08
2.85804e-08
2.51976e-08
2.22691e-08
1.97447e-08
1.78373e-08
1.61113e-08
1.46295e-08
1.33141e-08
1.33141e-08
1.22051e-08
1.12188e-08
1.03292e-08
9.5168e-09
8.76713e-09
8.06958e-09
7.41647e-09
6.80226e-09
6.22289e-09
5.67524e-09
5.15637e-09
4.71732e-09
4.27323e-09
)
;
    }
}


// ************************************************************************* //
