/*--------------------------------*- C++ -*----------------------------------*\
| =========                 |                                                 |
| \\      /  F ield         | OpenFOAM: The Open Source CFD Toolbox           |
|  \\    /   O peration     | Version:  dev                                   |
|   \\  /    A nd           | Web:      www.OpenFOAM.org                      |
|    \\/     M anipulation  |                                                 |
\*---------------------------------------------------------------------------*/
FoamFile
{
    version     2.0;
    format      ascii;
    class       volScalarField;
    location    "0.18";
    object      A2R5;
}
// * * * * * * * * * * * * * * * * * * * * * * * * * * * * * * * * * * * * * //

dimensions      [0 0 0 0 0 0 0];

internalField   nonuniform List<scalar> 
250
(
2.84122e-07
2.84149e-07
2.84155e-07
2.84178e-07
2.84185e-07
2.84183e-07
2.84645e-07
2.86433e-07
2.997e-07
3.66259e-07
1.78713e-08
3.02092e-07
3.02134e-07
3.02152e-07
3.0218e-07
3.02177e-07
3.02196e-07
3.02854e-07
3.05438e-07
3.24773e-07
4.22231e-07
4.66957e-08
2.81131e-07
2.8119e-07
2.81229e-07
2.81257e-07
2.81233e-07
2.81287e-07
2.82108e-07
2.85139e-07
3.08551e-07
4.19342e-07
7.51682e-08
2.57886e-07
2.57965e-07
2.58031e-07
2.58051e-07
2.57991e-07
2.58099e-07
2.59072e-07
2.62473e-07
2.89195e-07
4.0683e-07
1.08071e-07
2.37483e-07
2.37584e-07
2.3768e-07
2.37684e-07
2.37562e-07
2.37756e-07
2.38871e-07
2.42625e-07
2.72221e-07
3.9444e-07
1.56015e-07
2.20118e-07
2.20247e-07
2.20373e-07
2.20356e-07
2.20122e-07
2.20454e-07
2.21706e-07
2.25804e-07
2.57362e-07
3.84418e-07
2.17259e-07
2.05311e-07
2.05473e-07
2.05626e-07
2.05583e-07
2.05156e-07
2.05713e-07
2.07097e-07
2.11524e-07
2.45268e-07
3.75816e-07
2.72914e-07
1.92597e-07
1.928e-07
1.92976e-07
1.92904e-07
1.92144e-07
1.93067e-07
1.94587e-07
1.9927e-07
2.33402e-07
3.68403e-07
3.22362e-07
1.79873e-07
1.80138e-07
1.80336e-07
1.8022e-07
1.80684e-07
1.80438e-07
1.81946e-07
1.86899e-07
2.24399e-07
3.61877e-07
3.64284e-07
1.69932e-07
1.70215e-07
1.70423e-07
1.70261e-07
1.70555e-07
1.70528e-07
1.72132e-07
1.76996e-07
2.15578e-07
3.55109e-07
3.97224e-07
1.60208e-07
1.60424e-07
1.60186e-07
1.60249e-07
1.60551e-07
1.62317e-07
1.67675e-07
2.06901e-07
3.48347e-07
4.20638e-07
1.50849e-07
1.51051e-07
1.50709e-07
1.51755e-07
1.51193e-07
1.53008e-07
1.58602e-07
1.98489e-07
3.40705e-07
4.35181e-07
1.42066e-07
1.42242e-07
1.41742e-07
1.42767e-07
1.42386e-07
1.44253e-07
1.50077e-07
1.90061e-07
3.32053e-07
4.42548e-07
1.33798e-07
1.33938e-07
1.33204e-07
1.34269e-07
1.34075e-07
1.35988e-07
1.41997e-07
1.83216e-07
3.22514e-07
4.44877e-07
1.25997e-07
1.26098e-07
1.26159e-07
1.26311e-07
1.26221e-07
1.28166e-07
1.34292e-07
1.76192e-07
3.12808e-07
4.44057e-07
1.18627e-07
1.18685e-07
1.18682e-07
1.18827e-07
1.18796e-07
1.20753e-07
1.26923e-07
1.68369e-07
3.02358e-07
4.41342e-07
1.11657e-07
1.11678e-07
1.11604e-07
1.11779e-07
1.1178e-07
1.13726e-07
1.19869e-07
1.60545e-07
2.90475e-07
4.37197e-07
1.05067e-07
1.05059e-07
1.04903e-07
1.05141e-07
1.05158e-07
1.07074e-07
1.1312e-07
1.52646e-07
2.77825e-07
4.31637e-07
9.88446e-08
9.8819e-08
9.85546e-08
9.88957e-08
9.8921e-08
1.00786e-07
1.06664e-07
1.462e-07
2.64648e-07
4.24902e-07
9.2983e-08
9.29465e-08
9.25153e-08
9.30328e-08
9.30601e-08
9.48559e-08
1.00477e-07
1.39002e-07
2.51045e-07
4.152e-07
8.74777e-08
8.74296e-08
8.74163e-08
8.75447e-08
8.75667e-08
8.92746e-08
9.52251e-08
1.31617e-07
2.37185e-07
4.04409e-07
8.23233e-08
8.22456e-08
8.25638e-08
8.2409e-08
8.24313e-08
8.40207e-08
8.99608e-08
1.24397e-07
2.23248e-07
3.89054e-07
7.81003e-08
7.7969e-08
7.82315e-08
7.8211e-08
7.8222e-08
7.9755e-08
8.54007e-08
1.17386e-07
2.09411e-07
3.73477e-07
7.39351e-08
7.40833e-08
7.40517e-08
7.40637e-08
7.40776e-08
7.55294e-08
8.09472e-08
1.1058e-07
1.95808e-07
3.54509e-07
)
;

boundaryField
{
    fuel
    {
        type            fixedValue;
        value           uniform 0;
    }
    wall
    {
        type            zeroGradient;
    }
    outlet
    {
        type            zeroGradient;
    }
    frontAndBack
    {
        type            empty;
    }
    procBoundary3to0
    {
        type            processor;
        value           nonuniform List<scalar> 10(7.04853e-08 7.06093e-08 7.06023e-08 7.06248e-08 7.06377e-08 7.20091e-08 7.71345e-08 1.03938e-07 1.82568e-07 3.35169e-07);
    }
    procBoundary3to2
    {
        type            processor;
        value           nonuniform List<scalar> 
25
(
2.84135e-07
3.02116e-07
2.81172e-07
2.57947e-07
2.37562e-07
2.20217e-07
2.05433e-07
1.92753e-07
1.80085e-07
1.70174e-07
1.59958e-07
1.59958e-07
1.50762e-07
1.42169e-07
1.34011e-07
1.26247e-07
1.18881e-07
1.11908e-07
1.05313e-07
9.90819e-08
9.32057e-08
8.76794e-08
8.24985e-08
7.82512e-08
7.40593e-08
)
;
    }
}


// ************************************************************************* //
