/*--------------------------------*- C++ -*----------------------------------*\
| =========                 |                                                 |
| \\      /  F ield         | OpenFOAM: The Open Source CFD Toolbox           |
|  \\    /   O peration     | Version:  dev                                   |
|   \\  /    A nd           | Web:      www.OpenFOAM.org                      |
|    \\/     M anipulation  |                                                 |
\*---------------------------------------------------------------------------*/
FoamFile
{
    version     2.0;
    format      ascii;
    class       volScalarField;
    location    "0.18";
    object      CH2O;
}
// * * * * * * * * * * * * * * * * * * * * * * * * * * * * * * * * * * * * * //

dimensions      [0 0 0 0 0 0 0];

internalField   nonuniform List<scalar> 
250
(
0.000264033
0.000264027
0.000264024
0.000264022
0.000264021
0.000264017
0.00026407
0.000264488
0.000267073
0.000289857
6.70303e-05
8.66152e-05
8.66185e-05
8.66173e-05
8.66218e-05
8.66196e-05
8.66207e-05
8.6686e-05
8.668e-05
8.7734e-05
9.23545e-05
0.000159157
3.42404e-05
3.42438e-05
3.42446e-05
3.4247e-05
3.42495e-05
3.42448e-05
3.4313e-05
3.42287e-05
3.49194e-05
3.70417e-05
0.000379643
1.71222e-05
1.71249e-05
1.71267e-05
1.7127e-05
1.71312e-05
1.71239e-05
1.71839e-05
1.7096e-05
1.75955e-05
2.01824e-05
0.00145207
1.05448e-05
1.05472e-05
1.05495e-05
1.05488e-05
1.05515e-05
1.05459e-05
1.05945e-05
1.05176e-05
1.09076e-05
1.29505e-05
0.000650334
7.60121e-06
7.60375e-06
7.60617e-06
7.60497e-06
7.60384e-06
7.60314e-06
7.64088e-06
7.57598e-06
7.8068e-06
9.27964e-06
0.000218717
6.12058e-06
6.12345e-06
6.126e-06
6.12445e-06
6.1161e-06
6.12368e-06
6.15294e-06
6.09786e-06
6.28933e-06
7.14644e-06
9.99355e-05
5.3111e-06
5.31444e-06
5.31711e-06
5.3152e-06
5.29245e-06
5.31535e-06
5.33918e-06
5.28924e-06
5.3392e-06
5.86844e-06
5.676e-05
4.77254e-06
4.77692e-06
4.77984e-06
4.77719e-06
4.79814e-06
4.7786e-06
4.793e-06
4.7485e-06
4.82736e-06
5.09229e-06
3.69678e-05
4.46421e-06
4.46856e-06
4.47151e-06
4.46818e-06
4.47972e-06
4.47042e-06
4.48234e-06
4.43253e-06
4.45971e-06
4.53561e-06
2.66165e-05
4.22795e-06
4.23099e-06
4.22646e-06
4.22995e-06
4.23037e-06
4.24189e-06
4.19964e-06
4.18496e-06
4.14574e-06
2.08029e-05
4.04068e-06
4.04349e-06
4.03734e-06
4.0575e-06
4.04311e-06
4.05289e-06
4.01133e-06
3.97115e-06
3.83356e-06
1.73044e-05
3.88387e-06
3.88631e-06
3.8777e-06
3.89584e-06
3.88594e-06
3.89499e-06
3.85431e-06
3.78998e-06
3.57509e-06
1.49685e-05
3.74474e-06
3.74674e-06
3.7344e-06
3.75252e-06
3.74628e-06
3.75519e-06
3.71525e-06
3.65804e-06
3.3566e-06
1.31905e-05
3.61604e-06
3.61762e-06
3.61787e-06
3.62137e-06
3.61701e-06
3.62607e-06
3.58657e-06
3.53392e-06
3.17844e-06
1.16654e-05
3.49341e-06
3.49455e-06
3.49333e-06
3.49725e-06
3.49389e-06
3.50321e-06
3.46392e-06
3.40527e-06
3.02052e-06
1.02578e-05
3.37401e-06
3.37479e-06
3.37209e-06
3.37705e-06
3.3742e-06
3.38384e-06
3.34468e-06
3.28296e-06
2.86984e-06
8.8976e-06
3.2559e-06
3.25642e-06
3.25208e-06
3.25864e-06
3.25606e-06
3.26604e-06
3.22694e-06
3.1633e-06
2.73225e-06
7.61455e-06
3.13758e-06
3.13793e-06
3.13146e-06
3.14045e-06
3.13799e-06
3.14832e-06
3.10911e-06
3.06648e-06
2.60728e-06
6.51562e-06
3.01776e-06
3.01796e-06
3.00799e-06
3.0211e-06
3.01867e-06
3.02936e-06
2.98942e-06
2.95855e-06
2.49193e-06
5.44413e-06
2.89515e-06
2.89505e-06
2.89385e-06
2.89928e-06
2.89678e-06
2.90774e-06
2.87985e-06
2.84629e-06
2.38474e-06
4.61494e-06
2.76826e-06
2.7673e-06
2.77413e-06
2.77318e-06
2.77075e-06
2.78156e-06
2.76016e-06
2.7328e-06
2.28352e-06
3.81535e-06
2.65106e-06
2.6485e-06
2.65423e-06
2.65694e-06
2.65427e-06
2.66641e-06
2.64512e-06
2.61649e-06
2.18664e-06
3.24012e-06
2.51905e-06
2.52507e-06
2.52191e-06
2.52579e-06
2.52327e-06
2.53649e-06
2.51873e-06
2.49479e-06
2.09168e-06
2.73718e-06
)
;

boundaryField
{
    fuel
    {
        type            fixedValue;
        value           uniform 0;
    }
    wall
    {
        type            zeroGradient;
    }
    outlet
    {
        type            zeroGradient;
    }
    frontAndBack
    {
        type            empty;
    }
    procBoundary3to0
    {
        type            processor;
        value           nonuniform List<scalar> 10(2.39143e-06 2.39673e-06 2.39432e-06 2.39899e-06 2.39638e-06 2.41079e-06 2.39423e-06 2.36494e-06 1.99688e-06 2.35959e-06);
    }
    procBoundary3to2
    {
        type            processor;
        value           nonuniform List<scalar> 
25
(
0.000264024
8.66192e-05
3.42451e-05
1.71259e-05
1.05478e-05
7.60387e-06
6.12324e-06
5.31404e-06
4.77629e-06
4.46812e-06
4.22406e-06
4.22406e-06
4.03933e-06
3.88531e-06
3.74769e-06
3.61941e-06
3.49674e-06
3.37722e-06
3.25896e-06
3.14044e-06
3.02032e-06
2.89732e-06
2.76995e-06
2.65231e-06
2.51979e-06
)
;
    }
}


// ************************************************************************* //
