/*--------------------------------*- C++ -*----------------------------------*\
| =========                 |                                                 |
| \\      /  F ield         | OpenFOAM: The Open Source CFD Toolbox           |
|  \\    /   O peration     | Version:  dev                                   |
|   \\  /    A nd           | Web:      www.OpenFOAM.org                      |
|    \\/     M anipulation  |                                                 |
\*---------------------------------------------------------------------------*/
FoamFile
{
    version     2.0;
    format      ascii;
    class       volScalarField;
    location    "0.18";
    object      i-A1C2H2;
}
// * * * * * * * * * * * * * * * * * * * * * * * * * * * * * * * * * * * * * //

dimensions      [0 0 0 0 0 0 0];

internalField   nonuniform List<scalar> 
250
(
1.06802e-08
1.06801e-08
1.068e-08
1.06802e-08
1.06796e-08
1.06807e-08
1.0684e-08
1.07175e-08
1.09975e-08
1.31492e-08
1.0047e-09
3.4877e-09
3.48783e-09
3.48782e-09
3.48773e-09
3.48762e-09
3.48801e-09
3.4899e-09
3.50936e-09
3.67066e-09
5.12396e-09
2.32881e-09
1.31651e-09
1.31671e-09
1.31671e-09
1.31658e-09
1.31659e-09
1.31674e-09
1.31791e-09
1.32989e-09
1.42863e-09
2.44796e-09
3.12941e-09
6.16444e-10
6.16642e-10
6.16639e-10
6.16516e-10
6.16519e-10
6.16623e-10
6.17436e-10
6.25624e-10
6.94056e-10
1.48815e-09
3.39066e-09
3.37668e-10
3.37846e-10
3.37834e-10
3.3773e-10
3.37669e-10
3.37809e-10
3.38389e-10
3.44177e-10
3.96252e-10
1.04878e-09
3.31281e-09
2.07439e-10
2.07596e-10
2.07576e-10
2.07496e-10
2.07304e-10
2.07549e-10
2.0794e-10
2.11803e-10
2.51316e-10
8.07438e-10
3.25338e-09
1.35306e-10
1.35467e-10
1.35457e-10
1.35343e-10
1.34768e-10
1.35458e-10
1.36071e-10
1.41274e-10
1.7484e-10
6.56144e-10
3.68375e-09
9.65927e-11
9.67402e-11
9.67258e-11
9.66269e-11
9.55172e-11
9.67334e-11
9.72743e-11
1.01498e-10
1.29185e-10
5.50741e-10
5.18356e-09
7.08176e-11
7.09599e-11
7.09463e-11
7.08413e-11
7.1696e-11
7.09719e-11
7.13717e-11
7.51439e-11
1.00068e-10
4.70904e-10
7.67592e-09
5.41501e-11
5.42673e-11
5.42555e-11
5.41529e-11
5.46556e-11
5.42933e-11
5.4662e-11
5.79168e-11
8.05328e-11
4.06074e-10
8.97224e-09
4.3233e-11
4.32224e-11
4.31091e-11
4.33844e-11
4.32667e-11
4.36106e-11
4.64493e-11
6.59447e-11
3.50919e-10
8.02016e-09
3.56345e-11
3.56251e-11
3.54872e-11
3.56123e-11
3.56742e-11
3.59962e-11
3.85129e-11
5.54592e-11
3.03338e-10
5.84128e-09
3.01941e-11
3.01862e-11
3.00046e-11
2.99965e-11
3.02408e-11
3.0543e-11
3.28121e-11
4.74933e-11
2.58623e-10
3.6482e-09
2.61508e-11
2.61451e-11
2.58887e-11
2.62768e-11
2.6209e-11
2.64905e-11
2.85667e-11
4.19924e-11
2.22291e-10
2.13082e-09
2.30401e-11
2.30381e-11
2.30888e-11
2.32882e-11
2.31076e-11
2.3373e-11
2.52895e-11
3.71527e-11
1.85073e-10
1.24839e-09
2.0573e-11
2.0574e-11
2.05976e-11
2.07461e-11
2.06454e-11
2.09e-11
2.26769e-11
3.30032e-11
1.5664e-10
7.53206e-10
1.85668e-11
1.85701e-11
1.85703e-11
1.86945e-11
1.86416e-11
1.88876e-11
2.05368e-11
2.95115e-11
1.32181e-10
4.71319e-10
1.69047e-11
1.69094e-11
1.68871e-11
1.70022e-11
1.69799e-11
1.7218e-11
1.87454e-11
2.65346e-11
1.11292e-10
3.07656e-10
1.55105e-11
1.55157e-11
1.54684e-11
1.55869e-11
1.55849e-11
1.58148e-11
1.72205e-11
2.39794e-11
9.36313e-11
2.10465e-10
1.43339e-11
1.43383e-11
1.42586e-11
1.43956e-11
1.44065e-11
1.4627e-11
1.59054e-11
2.17818e-11
7.89414e-11
1.5114e-10
1.3341e-11
1.33426e-11
1.33488e-11
1.33932e-11
1.34103e-11
1.36196e-11
1.47584e-11
1.98935e-11
6.5206e-11
1.13757e-10
1.25078e-11
1.2503e-11
1.25556e-11
1.25525e-11
1.25721e-11
1.27666e-11
1.38905e-11
1.82886e-11
5.35341e-11
8.93728e-11
1.19066e-11
1.1891e-11
1.19419e-11
1.19441e-11
1.19648e-11
1.21384e-11
1.31673e-11
1.69429e-11
4.53315e-11
7.28493e-11
1.13929e-11
1.14108e-11
1.14204e-11
1.14251e-11
1.14454e-11
1.16379e-11
1.25601e-11
1.58247e-11
3.87676e-11
6.11492e-11
)
;

boundaryField
{
    fuel
    {
        type            fixedValue;
        value           uniform 0;
    }
    wall
    {
        type            zeroGradient;
    }
    outlet
    {
        type            zeroGradient;
    }
    frontAndBack
    {
        type            empty;
    }
    procBoundary3to0
    {
        type            processor;
        value           nonuniform List<scalar> 10(1.10473e-11 1.10578e-11 1.10691e-11 1.10713e-11 1.10911e-11 1.12641e-11 1.21075e-11 1.5025e-11 3.35648e-11 5.25399e-11);
    }
    procBoundary3to2
    {
        type            processor;
        value           nonuniform List<scalar> 
25
(
1.06804e-08
3.4885e-09
1.31742e-09
6.17277e-10
3.38393e-10
2.08064e-10
1.35863e-10
9.70846e-11
7.12364e-11
5.4477e-11
4.31337e-11
4.31337e-11
3.55498e-11
3.01212e-11
2.60882e-11
2.29865e-11
2.05273e-11
1.85281e-11
1.68721e-11
1.54833e-11
1.43117e-11
1.33232e-11
1.2494e-11
1.1894e-11
1.13816e-11
)
;
    }
}


// ************************************************************************* //
