/*--------------------------------*- C++ -*----------------------------------*\
| =========                 |                                                 |
| \\      /  F ield         | OpenFOAM: The Open Source CFD Toolbox           |
|  \\    /   O peration     | Version:  dev                                   |
|   \\  /    A nd           | Web:      www.OpenFOAM.org                      |
|    \\/     M anipulation  |                                                 |
\*---------------------------------------------------------------------------*/
FoamFile
{
    version     2.0;
    format      ascii;
    class       volScalarField;
    location    "0.18";
    object      p;
}
// * * * * * * * * * * * * * * * * * * * * * * * * * * * * * * * * * * * * * //

dimensions      [1 -1 -2 0 0 0 0];

internalField   nonuniform List<scalar> 
250
(
99989.3
99989.4
99989.7
99990.2
99991.1
99991.7
99993.5
99993.3
99996.9
99995.9
100000
99989.2
99989.2
99989.5
99990
99990.9
99991.5
99993.4
99993.2
99996.8
99995.7
100000
99989.1
99989.1
99989.5
99989.9
99990.8
99991.5
99993.3
99993.1
99996.7
99995.7
100000
99989.1
99989.1
99989.5
99989.9
99990.8
99991.5
99993.3
99993.1
99996.7
99995.7
100000
99989.1
99989.2
99989.5
99990
99990.8
99991.5
99993.3
99993.2
99996.7
99995.7
99999.3
99989.1
99989.2
99989.5
99990
99990.8
99991.5
99993.3
99993.2
99996.7
99995.7
99998.7
99989.1
99989.2
99989.5
99990
99990.8
99991.5
99993.3
99993.2
99996.7
99995.7
99998.5
99989.1
99989.2
99989.5
99990
99990.8
99991.5
99993.3
99993.2
99996.7
99995.7
99998.6
99989.2
99989.2
99989.5
99990
99990.9
99991.5
99993.3
99993.3
99996.7
99995.7
99998.8
99989.2
99989.2
99989.5
99990
99990.9
99991.6
99993.3
99993.3
99996.7
99995.6
99998.9
99989.2
99989.5
99990
99990.9
99991.6
99993.3
99993.3
99996.7
99995.6
99999.1
99989.2
99989.5
99990
99990.9
99991.6
99993.3
99993.4
99996.7
99995.6
99999.3
99989.2
99989.5
99990
99990.9
99991.6
99993.3
99993.4
99996.7
99995.6
99999.4
99989.2
99989.5
99990
99990.9
99991.6
99993.3
99993.4
99996.7
99995.6
99999.6
99989.2
99989.5
99990
99990.9
99991.6
99993.2
99993.5
99996.7
99995.6
99999.7
99989.2
99989.5
99990
99990.9
99991.6
99993.2
99993.5
99996.7
99995.6
99999.8
99989.2
99989.5
99990
99990.9
99991.6
99993.2
99993.5
99996.7
99995.6
99999.9
99989.2
99989.5
99990
99990.9
99991.7
99993.2
99993.6
99996.7
99995.6
100000
99989.2
99989.5
99990
99990.9
99991.7
99993.2
99993.6
99996.7
99995.7
100000
99989.2
99989.5
99990
99990.9
99991.7
99993.2
99993.6
99996.7
99995.7
100000
99989.2
99989.6
99990
99990.9
99991.7
99993.2
99993.7
99996.6
99995.7
100000
99989.2
99989.6
99990.1
99990.9
99991.7
99993.2
99993.7
99996.6
99995.8
100000
99989.2
99989.6
99990.1
99990.9
99991.7
99993.2
99993.7
99996.6
99995.8
100000
99989.2
99989.6
99990.1
99990.9
99991.7
99993.2
99993.7
99996.6
99995.9
100000
)
;

boundaryField
{
    fuel
    {
        type            zeroGradient;
    }
    wall
    {
        type            zeroGradient;
    }
    outlet
    {
        type            totalPressure;
        rho             none;
        psi             none;
        gamma           1;
        p0              uniform 100000;
        value           uniform 100000;
    }
    frontAndBack
    {
        type            empty;
    }
    procBoundary3to0
    {
        type            processor;
        value           nonuniform List<scalar> 10(99989.2 99989.6 99990.1 99990.9 99991.7 99993.2 99993.8 99996.6 99995.9 100000);
    }
    procBoundary3to2
    {
        type            processor;
        value           nonuniform List<scalar> 
25
(
99989.5
99989.4
99989.3
99989.3
99989.3
99989.3
99989.3
99989.3
99989.4
99989.4
99989.2
99989.2
99989.2
99989.2
99989.2
99989.2
99989.2
99989.2
99989.2
99989.2
99989.2
99989.2
99989.2
99989.2
99989.2
)
;
    }
}


// ************************************************************************* //
