/*--------------------------------*- C++ -*----------------------------------*\
| =========                 |                                                 |
| \\      /  F ield         | OpenFOAM: The Open Source CFD Toolbox           |
|  \\    /   O peration     | Version:  dev                                   |
|   \\  /    A nd           | Web:      www.OpenFOAM.org                      |
|    \\/     M anipulation  |                                                 |
\*---------------------------------------------------------------------------*/
FoamFile
{
    version     2.0;
    format      ascii;
    class       volScalarField;
    location    "0.18";
    object      P2;
}
// * * * * * * * * * * * * * * * * * * * * * * * * * * * * * * * * * * * * * //

dimensions      [0 0 0 0 0 0 0];

internalField   nonuniform List<scalar> 
50
(
4.27185e-23
3.77544e-23
3.32123e-23
2.908e-23
2.53109e-23
2.19412e-23
1.88952e-23
1.62004e-23
1.38112e-23
1.16882e-23
9.82992e-24
8.22694e-24
6.83547e-24
5.63625e-24
4.62239e-24
3.76369e-24
3.04235e-24
2.44153e-24
1.94318e-24
1.53361e-24
1.20346e-24
9.37255e-25
7.24681e-25
5.56081e-25
4.24435e-25
3.22206e-25
2.43308e-25
1.83394e-25
1.3796e-25
1.0385e-25
7.86436e-26
5.99786e-26
4.62258e-26
3.61194e-26
2.86944e-26
2.32099e-26
1.9174e-26
1.61665e-26
1.39003e-26
1.21622e-26
1.0791e-26
9.66426e-27
8.68822e-27
7.78981e-27
6.91073e-27
5.99969e-27
5.00764e-27
3.88185e-27
2.56654e-27
9.67321e-28
)
;

boundaryField
{
    wall
    {
        type            zeroGradient;
    }
    fuel
    {
        type            fixedValue;
        value           nonuniform 0();
    }
    outlet
    {
        type            inletOutlet;
        inletValue      uniform 0;
        value           uniform 0;
    }
    procBoundary3to2
    {
        type            processor;
        value           uniform 4.81033e-23;
    }
}


// ************************************************************************* //
