/*--------------------------------*- C++ -*----------------------------------*\
| =========                 |                                                 |
| \\      /  F ield         | OpenFOAM: The Open Source CFD Toolbox           |
|  \\    /   O peration     | Version:  dev                                   |
|   \\  /    A nd           | Web:      www.OpenFOAM.org                      |
|    \\/     M anipulation  |                                                 |
\*---------------------------------------------------------------------------*/
FoamFile
{
    version     2.0;
    format      ascii;
    class       volVectorField;
    location    "0.18";
    object      U;
}
// * * * * * * * * * * * * * * * * * * * * * * * * * * * * * * * * * * * * * //

dimensions      [0 1 -1 0 0 0 0];

internalField   nonuniform List<vector> 
13
(
(4.0279e-13 -4.0279e-13 0.0660999)
(3.97278e-13 -3.97278e-13 0.0671064)
(3.91713e-13 -3.91713e-13 0.0680864)
(3.86097e-13 -3.86097e-13 0.0690524)
(3.80427e-13 -3.80427e-13 0.0700115)
(3.74704e-13 -3.74704e-13 0.0709578)
(3.68928e-13 -3.68928e-13 0.0718883)
(3.63098e-13 -3.63098e-13 0.0728101)
(3.57215e-13 -3.57215e-13 0.0737247)
(3.5128e-13 -3.5128e-13 0.0746327)
(3.45293e-13 -3.45293e-13 0.0755355)
(3.39254e-13 -3.39254e-13 0.0764266)
(3.33164e-13 -3.33164e-13 0.0773127)
)
;

boundaryField
{
    wall
    {
        type            zeroGradient;
    }
    fuel
    {
        type            fixedValue;
        value           nonuniform 0();
    }
    outlet
    {
        type            pressureInletOutletVelocity;
        value           nonuniform 0();
    }
    procBoundary3to2
    {
        type            processor;
        value           uniform (4.08252e-13 -4.08252e-13 0.0650716);
    }
    procBoundary3to4
    {
        type            processor;
        value           uniform (3.27022e-13 -3.27022e-13 0.0781979);
    }
}


// ************************************************************************* //
