/*--------------------------------*- C++ -*----------------------------------*\
| =========                 |                                                 |
| \\      /  F ield         | OpenFOAM: The Open Source CFD Toolbox           |
|  \\    /   O peration     | Version:  dev                                   |
|   \\  /    A nd           | Web:      www.OpenFOAM.org                      |
|    \\/     M anipulation  |                                                 |
\*---------------------------------------------------------------------------*/
FoamFile
{
    version     2.0;
    format      ascii;
    class       volScalarField;
    location    "0.04";
    object      A1;
}
// * * * * * * * * * * * * * * * * * * * * * * * * * * * * * * * * * * * * * //

dimensions      [0 0 0 0 0 0 0];

internalField   nonuniform List<scalar> 
2014
(
2.28434e-05
2.29246e-05
2.2997e-05
2.30327e-05
2.30389e-05
2.30457e-05
2.30387e-05
2.30412e-05
2.30363e-05
2.30383e-05
2.30355e-05
2.3037e-05
2.30352e-05
2.30363e-05
2.3035e-05
2.30359e-05
2.3035e-05
2.30357e-05
2.30351e-05
2.30355e-05
2.30352e-05
2.30354e-05
2.30352e-05
2.30353e-05
2.30353e-05
2.30353e-05
2.30353e-05
2.30352e-05
2.30354e-05
2.30352e-05
2.30356e-05
2.30351e-05
2.30357e-05
2.30351e-05
2.30359e-05
2.30351e-05
2.30363e-05
2.30352e-05
2.3037e-05
2.30355e-05
2.30383e-05
2.30364e-05
2.30413e-05
2.30387e-05
2.30457e-05
2.3039e-05
2.30327e-05
2.2997e-05
2.29246e-05
2.28435e-05
2.20852e-05
2.2164e-05
2.2233e-05
2.22674e-05
2.22736e-05
2.22801e-05
2.22736e-05
2.22759e-05
2.22713e-05
2.22731e-05
2.22705e-05
2.22719e-05
2.22702e-05
2.22712e-05
2.22701e-05
2.22708e-05
2.227e-05
2.22706e-05
2.22701e-05
2.22705e-05
2.22701e-05
2.22704e-05
2.22702e-05
2.22703e-05
2.22702e-05
2.22702e-05
2.22703e-05
2.22702e-05
2.22704e-05
2.22702e-05
2.22705e-05
2.22701e-05
2.22707e-05
2.22701e-05
2.22709e-05
2.22701e-05
2.22712e-05
2.22703e-05
2.2272e-05
2.22706e-05
2.22732e-05
2.22714e-05
2.2276e-05
2.22736e-05
2.22802e-05
2.22737e-05
2.22674e-05
2.22331e-05
2.21641e-05
2.20852e-05
2.13881e-05
2.14648e-05
2.15304e-05
2.15635e-05
2.15697e-05
2.1576e-05
2.15699e-05
2.15721e-05
2.15678e-05
2.15694e-05
2.1567e-05
2.15682e-05
2.15666e-05
2.15675e-05
2.15665e-05
2.15672e-05
2.15664e-05
2.1567e-05
2.15665e-05
2.15669e-05
2.15666e-05
2.15668e-05
2.15666e-05
2.15667e-05
2.15666e-05
2.15666e-05
2.15667e-05
2.15666e-05
2.15668e-05
2.15666e-05
2.15669e-05
2.15666e-05
2.15671e-05
2.15665e-05
2.15673e-05
2.15666e-05
2.15676e-05
2.15667e-05
2.15683e-05
2.1567e-05
2.15695e-05
2.15678e-05
2.15721e-05
2.157e-05
2.15761e-05
2.15698e-05
2.15635e-05
2.15305e-05
2.14649e-05
2.13881e-05
2.0746e-05
2.08208e-05
2.08831e-05
2.09149e-05
2.09211e-05
2.09272e-05
2.09215e-05
2.09235e-05
2.09195e-05
2.0921e-05
2.09187e-05
2.09198e-05
2.09183e-05
2.09192e-05
2.09182e-05
2.09188e-05
2.09181e-05
2.09187e-05
2.09182e-05
2.09186e-05
2.09182e-05
2.09184e-05
2.09183e-05
2.09184e-05
2.09183e-05
2.09183e-05
2.09184e-05
2.09183e-05
2.09185e-05
2.09183e-05
2.09186e-05
2.09182e-05
2.09187e-05
2.09182e-05
2.09189e-05
2.09183e-05
2.09192e-05
2.09184e-05
2.09199e-05
2.09187e-05
2.0921e-05
2.09195e-05
2.09235e-05
2.09216e-05
2.09272e-05
2.09212e-05
2.09149e-05
2.08831e-05
2.08208e-05
2.0746e-05
2.01534e-05
2.02263e-05
2.02857e-05
2.03161e-05
2.03223e-05
2.03282e-05
2.03229e-05
2.03248e-05
2.0321e-05
2.03224e-05
2.03202e-05
2.03213e-05
2.03199e-05
2.03207e-05
2.03197e-05
2.03203e-05
2.03197e-05
2.03202e-05
2.03197e-05
2.03201e-05
2.03198e-05
2.032e-05
2.03198e-05
2.03199e-05
2.03198e-05
2.03198e-05
2.03199e-05
2.03198e-05
2.032e-05
2.03198e-05
2.03201e-05
2.03198e-05
2.03202e-05
2.03197e-05
2.03204e-05
2.03198e-05
2.03207e-05
2.032e-05
2.03213e-05
2.03203e-05
2.03224e-05
2.03211e-05
2.03248e-05
2.0323e-05
2.03282e-05
2.03224e-05
2.03162e-05
2.02858e-05
2.02263e-05
2.01534e-05
1.96056e-05
1.96766e-05
1.97334e-05
1.97624e-05
1.97686e-05
1.97743e-05
1.97694e-05
1.97711e-05
1.97676e-05
1.97688e-05
1.97668e-05
1.97678e-05
1.97665e-05
1.97672e-05
1.97663e-05
1.97669e-05
1.97663e-05
1.97667e-05
1.97663e-05
1.97666e-05
1.97663e-05
1.97665e-05
1.97664e-05
1.97665e-05
1.97664e-05
1.97664e-05
1.97665e-05
1.97664e-05
1.97665e-05
1.97664e-05
1.97667e-05
1.97664e-05
1.97668e-05
1.97663e-05
1.97669e-05
1.97664e-05
1.97673e-05
1.97665e-05
1.97678e-05
1.97669e-05
1.97689e-05
1.97676e-05
1.97711e-05
1.97694e-05
1.97743e-05
1.97686e-05
1.97624e-05
1.97334e-05
1.96767e-05
1.96057e-05
1.90984e-05
1.91676e-05
1.92219e-05
1.92495e-05
1.92556e-05
1.92611e-05
1.92566e-05
1.92582e-05
1.92549e-05
1.9256e-05
1.92542e-05
1.92551e-05
1.92539e-05
1.92545e-05
1.92537e-05
1.92542e-05
1.92536e-05
1.92541e-05
1.92537e-05
1.9254e-05
1.92537e-05
1.92539e-05
1.92537e-05
1.92538e-05
1.92538e-05
1.92538e-05
1.92538e-05
1.92538e-05
1.92539e-05
1.92538e-05
1.9254e-05
1.92537e-05
1.92541e-05
1.92537e-05
1.92543e-05
1.92538e-05
1.92546e-05
1.92539e-05
1.92551e-05
1.92542e-05
1.92561e-05
1.9255e-05
1.92582e-05
1.92567e-05
1.92612e-05
1.92557e-05
1.92495e-05
1.92219e-05
1.91676e-05
1.90985e-05
1.86281e-05
1.86954e-05
1.87473e-05
1.87737e-05
1.87797e-05
1.8785e-05
1.87809e-05
1.87824e-05
1.87793e-05
1.87804e-05
1.87786e-05
1.87794e-05
1.87783e-05
1.87789e-05
1.87782e-05
1.87786e-05
1.87781e-05
1.87785e-05
1.87781e-05
1.87784e-05
1.87782e-05
1.87783e-05
1.87782e-05
1.87783e-05
1.87782e-05
1.87782e-05
1.87783e-05
1.87782e-05
1.87784e-05
1.87782e-05
1.87785e-05
1.87782e-05
1.87786e-05
1.87782e-05
1.87787e-05
1.87782e-05
1.8779e-05
1.87784e-05
1.87795e-05
1.87787e-05
1.87804e-05
1.87794e-05
1.87824e-05
1.87809e-05
1.87851e-05
1.87798e-05
1.87737e-05
1.87473e-05
1.86955e-05
1.86281e-05
1.81912e-05
1.82568e-05
1.83064e-05
1.83316e-05
1.83375e-05
1.83427e-05
1.83389e-05
1.83403e-05
1.83375e-05
1.83384e-05
1.83368e-05
1.83376e-05
1.83365e-05
1.83371e-05
1.83364e-05
1.83368e-05
1.83363e-05
1.83367e-05
1.83364e-05
1.83366e-05
1.83364e-05
1.83365e-05
1.83364e-05
1.83365e-05
1.83364e-05
1.83364e-05
1.83365e-05
1.83364e-05
1.83366e-05
1.83364e-05
1.83367e-05
1.83364e-05
1.83368e-05
1.83364e-05
1.83369e-05
1.83364e-05
1.83372e-05
1.83366e-05
1.83376e-05
1.83369e-05
1.83385e-05
1.83375e-05
1.83404e-05
1.8339e-05
1.83428e-05
1.83376e-05
1.83316e-05
1.83065e-05
1.82569e-05
1.81913e-05
1.7785e-05
1.78489e-05
1.78963e-05
1.79203e-05
1.79262e-05
1.79313e-05
1.79278e-05
1.79291e-05
1.79265e-05
1.79274e-05
1.79258e-05
1.79266e-05
1.79256e-05
1.79261e-05
1.79254e-05
1.79259e-05
1.79254e-05
1.79258e-05
1.79254e-05
1.79257e-05
1.79254e-05
1.79256e-05
1.79255e-05
1.79255e-05
1.79255e-05
1.79255e-05
1.79256e-05
1.79255e-05
1.79256e-05
1.79255e-05
1.79257e-05
1.79255e-05
1.79258e-05
1.79255e-05
1.79259e-05
1.79255e-05
1.79262e-05
1.79256e-05
1.79266e-05
1.79259e-05
1.79274e-05
1.79265e-05
1.79291e-05
1.79278e-05
1.79313e-05
1.79263e-05
1.79204e-05
1.78964e-05
1.78489e-05
1.77851e-05
1.74069e-05
1.74691e-05
1.75144e-05
1.75373e-05
1.75431e-05
1.75481e-05
1.75449e-05
1.75461e-05
1.75437e-05
1.75446e-05
1.75432e-05
1.75439e-05
1.75429e-05
1.75434e-05
1.75428e-05
1.75432e-05
1.75427e-05
1.75431e-05
1.75428e-05
1.7543e-05
1.75428e-05
1.75429e-05
1.75428e-05
1.75429e-05
1.75429e-05
1.75429e-05
1.75429e-05
1.75428e-05
1.7543e-05
1.75428e-05
1.75431e-05
1.75428e-05
1.75432e-05
1.75428e-05
1.75433e-05
1.75429e-05
1.75435e-05
1.7543e-05
1.75439e-05
1.75432e-05
1.75446e-05
1.75438e-05
1.75462e-05
1.75449e-05
1.75481e-05
1.75432e-05
1.75374e-05
1.75145e-05
1.74691e-05
1.7407e-05
1.70547e-05
1.7115e-05
1.71584e-05
1.71803e-05
1.71861e-05
1.71909e-05
1.7188e-05
1.71892e-05
1.7187e-05
1.71878e-05
1.71865e-05
1.71871e-05
1.71863e-05
1.71868e-05
1.71862e-05
1.71866e-05
1.71861e-05
1.71865e-05
1.71862e-05
1.71864e-05
1.71862e-05
1.71863e-05
1.71862e-05
1.71863e-05
1.71862e-05
1.71862e-05
1.71863e-05
1.71862e-05
1.71863e-05
1.71862e-05
1.71864e-05
1.71862e-05
1.71865e-05
1.71862e-05
1.71866e-05
1.71862e-05
1.71868e-05
1.71864e-05
1.71872e-05
1.71866e-05
1.71879e-05
1.71871e-05
1.71893e-05
1.7188e-05
1.71909e-05
1.71861e-05
1.71804e-05
1.71585e-05
1.7115e-05
1.70547e-05
1.67263e-05
1.67848e-05
1.68264e-05
1.68473e-05
1.6853e-05
1.68577e-05
1.68551e-05
1.68563e-05
1.68543e-05
1.68551e-05
1.68539e-05
1.68545e-05
1.68537e-05
1.68541e-05
1.68536e-05
1.68539e-05
1.68535e-05
1.68539e-05
1.68536e-05
1.68538e-05
1.68536e-05
1.68537e-05
1.68536e-05
1.68537e-05
1.68537e-05
1.68537e-05
1.68537e-05
1.68536e-05
1.68538e-05
1.68536e-05
1.68538e-05
1.68536e-05
1.68539e-05
1.68536e-05
1.6854e-05
1.68537e-05
1.68542e-05
1.68538e-05
1.68545e-05
1.68539e-05
1.68551e-05
1.68544e-05
1.68564e-05
1.68552e-05
1.68578e-05
1.6853e-05
1.68473e-05
1.68264e-05
1.67848e-05
1.67263e-05
1.64199e-05
1.64765e-05
1.65165e-05
1.65365e-05
1.65421e-05
1.65468e-05
1.65445e-05
1.65457e-05
1.65438e-05
1.65446e-05
1.65435e-05
1.65441e-05
1.65433e-05
1.65438e-05
1.65433e-05
1.65436e-05
1.65432e-05
1.65435e-05
1.65433e-05
1.65435e-05
1.65433e-05
1.65434e-05
1.65433e-05
1.65434e-05
1.65433e-05
1.65434e-05
1.65434e-05
1.65433e-05
1.65434e-05
1.65433e-05
1.65435e-05
1.65433e-05
1.65436e-05
1.65433e-05
1.65437e-05
1.65433e-05
1.65439e-05
1.65434e-05
1.65442e-05
1.65436e-05
1.65447e-05
1.65439e-05
1.65458e-05
1.65446e-05
1.65468e-05
1.65422e-05
1.65366e-05
1.65165e-05
1.64766e-05
1.642e-05
1.61342e-05
1.61888e-05
1.62272e-05
1.62464e-05
1.6252e-05
1.62566e-05
1.62546e-05
1.62558e-05
1.62541e-05
1.62548e-05
1.62539e-05
1.62544e-05
1.62537e-05
1.62542e-05
1.62537e-05
1.6254e-05
1.62537e-05
1.62539e-05
1.62537e-05
1.62539e-05
1.62537e-05
1.62538e-05
1.62537e-05
1.62538e-05
1.62538e-05
1.62538e-05
1.62538e-05
1.62538e-05
1.62539e-05
1.62538e-05
1.62539e-05
1.62538e-05
1.6254e-05
1.62537e-05
1.62541e-05
1.62538e-05
1.62542e-05
1.62538e-05
1.62545e-05
1.62539e-05
1.62549e-05
1.62542e-05
1.62558e-05
1.62546e-05
1.62566e-05
1.6252e-05
1.62464e-05
1.62272e-05
1.61888e-05
1.61342e-05
1.58677e-05
1.59202e-05
1.59572e-05
1.59756e-05
1.59812e-05
1.59857e-05
1.5984e-05
1.59852e-05
1.59838e-05
1.59845e-05
1.59836e-05
1.59841e-05
1.59835e-05
1.59839e-05
1.59835e-05
1.59838e-05
1.59835e-05
1.59838e-05
1.59835e-05
1.59837e-05
1.59836e-05
1.59837e-05
1.59836e-05
1.59836e-05
1.59836e-05
1.59836e-05
1.59836e-05
1.59836e-05
1.59837e-05
1.59836e-05
1.59838e-05
1.59836e-05
1.59838e-05
1.59836e-05
1.59839e-05
1.59836e-05
1.5984e-05
1.59836e-05
1.59842e-05
1.59837e-05
1.59846e-05
1.59838e-05
1.59853e-05
1.59841e-05
1.59858e-05
1.59812e-05
1.59757e-05
1.59572e-05
1.59202e-05
1.58677e-05
1.56191e-05
1.56695e-05
1.57053e-05
1.5723e-05
1.57285e-05
1.57331e-05
1.57317e-05
1.57329e-05
1.57316e-05
1.57323e-05
1.57315e-05
1.57321e-05
1.57315e-05
1.57319e-05
1.57315e-05
1.57318e-05
1.57315e-05
1.57318e-05
1.57316e-05
1.57317e-05
1.57316e-05
1.57317e-05
1.57316e-05
1.57317e-05
1.57316e-05
1.57316e-05
1.57317e-05
1.57316e-05
1.57317e-05
1.57316e-05
1.57318e-05
1.57316e-05
1.57318e-05
1.57316e-05
1.57319e-05
1.57316e-05
1.5732e-05
1.57316e-05
1.57322e-05
1.57316e-05
1.57324e-05
1.57317e-05
1.5733e-05
1.57317e-05
1.57331e-05
1.57286e-05
1.5723e-05
1.57053e-05
1.56695e-05
1.56192e-05
1.53876e-05
1.54358e-05
1.54703e-05
1.54874e-05
1.5493e-05
1.54975e-05
1.54964e-05
1.54977e-05
1.54966e-05
1.54973e-05
1.54966e-05
1.54972e-05
1.54967e-05
1.54971e-05
1.54967e-05
1.5497e-05
1.54967e-05
1.5497e-05
1.54968e-05
1.54969e-05
1.54968e-05
1.54969e-05
1.54968e-05
1.54969e-05
1.54968e-05
1.54968e-05
1.54969e-05
1.54968e-05
1.54969e-05
1.54968e-05
1.5497e-05
1.54968e-05
1.5497e-05
1.54968e-05
1.54971e-05
1.54968e-05
1.54971e-05
1.54968e-05
1.54973e-05
1.54967e-05
1.54974e-05
1.54967e-05
1.54978e-05
1.54965e-05
1.54976e-05
1.54931e-05
1.54875e-05
1.54704e-05
1.54358e-05
1.53876e-05
1.5172e-05
1.52181e-05
1.52516e-05
1.52681e-05
1.52737e-05
1.52782e-05
1.52774e-05
1.52788e-05
1.52778e-05
1.52786e-05
1.5278e-05
1.52785e-05
1.52781e-05
1.52785e-05
1.52782e-05
1.52784e-05
1.52782e-05
1.52784e-05
1.52782e-05
1.52784e-05
1.52783e-05
1.52784e-05
1.52783e-05
1.52783e-05
1.52783e-05
1.52783e-05
1.52784e-05
1.52783e-05
1.52784e-05
1.52783e-05
1.52784e-05
1.52783e-05
1.52785e-05
1.52783e-05
1.52785e-05
1.52782e-05
1.52786e-05
1.52782e-05
1.52786e-05
1.52781e-05
1.52787e-05
1.52779e-05
1.52788e-05
1.52775e-05
1.52783e-05
1.52737e-05
1.52681e-05
1.52516e-05
1.52181e-05
1.5172e-05
1.49717e-05
1.50157e-05
1.50481e-05
1.50641e-05
1.50698e-05
1.50744e-05
1.50739e-05
1.50753e-05
1.50746e-05
1.50753e-05
1.50749e-05
1.50754e-05
1.5075e-05
1.50754e-05
1.50751e-05
1.50754e-05
1.50752e-05
1.50754e-05
1.50752e-05
1.50754e-05
1.50752e-05
1.50753e-05
1.50753e-05
1.50753e-05
1.50753e-05
1.50753e-05
1.50753e-05
1.50753e-05
1.50754e-05
1.50753e-05
1.50754e-05
1.50753e-05
1.50754e-05
1.50752e-05
1.50755e-05
1.50752e-05
1.50755e-05
1.50751e-05
1.50755e-05
1.5075e-05
1.50754e-05
1.50747e-05
1.50754e-05
1.5074e-05
1.50745e-05
1.50699e-05
1.50642e-05
1.50481e-05
1.50157e-05
1.49717e-05
1.4786e-05
1.48279e-05
1.48593e-05
1.48749e-05
1.48807e-05
1.48853e-05
1.48852e-05
1.48866e-05
1.48861e-05
1.48869e-05
1.48865e-05
1.48871e-05
1.48868e-05
1.48871e-05
1.48869e-05
1.48871e-05
1.48869e-05
1.48872e-05
1.4887e-05
1.48871e-05
1.4887e-05
1.48871e-05
1.48871e-05
1.48871e-05
1.48871e-05
1.48871e-05
1.48871e-05
1.48871e-05
1.48872e-05
1.48871e-05
1.48872e-05
1.48871e-05
1.48872e-05
1.4887e-05
1.48872e-05
1.4887e-05
1.48872e-05
1.48869e-05
1.48872e-05
1.48866e-05
1.4887e-05
1.48862e-05
1.48867e-05
1.48852e-05
1.48854e-05
1.48807e-05
1.4875e-05
1.48593e-05
1.48279e-05
1.4786e-05
1.46142e-05
1.46542e-05
1.46846e-05
1.46998e-05
1.47058e-05
1.47105e-05
1.47106e-05
1.47122e-05
1.47119e-05
1.47127e-05
1.47125e-05
1.4713e-05
1.47128e-05
1.47131e-05
1.47129e-05
1.47132e-05
1.4713e-05
1.47132e-05
1.47131e-05
1.47132e-05
1.47131e-05
1.47132e-05
1.47131e-05
1.47132e-05
1.47131e-05
1.47132e-05
1.47132e-05
1.47131e-05
1.47132e-05
1.47131e-05
1.47132e-05
1.47131e-05
1.47133e-05
1.47131e-05
1.47133e-05
1.4713e-05
1.47132e-05
1.47129e-05
1.47131e-05
1.47125e-05
1.47128e-05
1.4712e-05
1.47123e-05
1.47107e-05
1.47105e-05
1.47058e-05
1.46999e-05
1.46846e-05
1.46542e-05
1.46142e-05
1.44558e-05
1.44939e-05
1.45235e-05
1.45384e-05
1.45445e-05
1.45493e-05
1.45498e-05
1.45515e-05
1.45514e-05
1.45523e-05
1.45521e-05
1.45527e-05
1.45525e-05
1.45529e-05
1.45527e-05
1.45529e-05
1.45528e-05
1.4553e-05
1.45529e-05
1.4553e-05
1.45529e-05
1.4553e-05
1.45529e-05
1.4553e-05
1.4553e-05
1.4553e-05
1.4553e-05
1.4553e-05
1.4553e-05
1.4553e-05
1.45531e-05
1.45529e-05
1.45531e-05
1.45529e-05
1.4553e-05
1.45528e-05
1.4553e-05
1.45526e-05
1.45528e-05
1.45522e-05
1.45524e-05
1.45515e-05
1.45516e-05
1.45499e-05
1.45494e-05
1.45446e-05
1.45385e-05
1.45236e-05
1.44939e-05
1.44558e-05
1.43105e-05
1.43467e-05
1.43757e-05
1.43902e-05
1.43966e-05
1.44015e-05
1.44024e-05
1.44042e-05
1.44042e-05
1.44052e-05
1.44051e-05
1.44057e-05
1.44056e-05
1.4406e-05
1.44058e-05
1.44061e-05
1.44059e-05
1.44061e-05
1.4406e-05
1.44062e-05
1.44061e-05
1.44061e-05
1.44061e-05
1.44061e-05
1.44061e-05
1.44061e-05
1.44062e-05
1.44061e-05
1.44062e-05
1.44061e-05
1.44062e-05
1.44061e-05
1.44062e-05
1.4406e-05
1.44062e-05
1.44059e-05
1.44061e-05
1.44057e-05
1.44058e-05
1.44052e-05
1.44053e-05
1.44043e-05
1.44043e-05
1.44024e-05
1.44016e-05
1.43966e-05
1.43903e-05
1.43757e-05
1.43468e-05
1.43105e-05
1.41778e-05
1.42124e-05
1.42407e-05
1.4255e-05
1.42615e-05
1.42666e-05
1.42679e-05
1.42698e-05
1.42701e-05
1.42711e-05
1.42712e-05
1.42718e-05
1.42717e-05
1.42721e-05
1.4272e-05
1.42722e-05
1.42721e-05
1.42723e-05
1.42722e-05
1.42723e-05
1.42723e-05
1.42723e-05
1.42723e-05
1.42723e-05
1.42723e-05
1.42723e-05
1.42724e-05
1.42723e-05
1.42724e-05
1.42723e-05
1.42724e-05
1.42723e-05
1.42724e-05
1.42722e-05
1.42723e-05
1.42721e-05
1.42722e-05
1.42718e-05
1.42719e-05
1.42712e-05
1.42712e-05
1.42702e-05
1.42699e-05
1.42679e-05
1.42667e-05
1.42616e-05
1.4255e-05
1.42407e-05
1.42124e-05
1.41779e-05
1.40576e-05
1.40905e-05
1.41182e-05
1.41323e-05
1.41392e-05
1.41445e-05
1.41461e-05
1.41482e-05
1.41487e-05
1.41497e-05
1.41499e-05
1.41506e-05
1.41506e-05
1.4151e-05
1.41509e-05
1.41511e-05
1.41511e-05
1.41512e-05
1.41512e-05
1.41513e-05
1.41512e-05
1.41513e-05
1.41512e-05
1.41513e-05
1.41513e-05
1.41513e-05
1.41513e-05
1.41513e-05
1.41513e-05
1.41513e-05
1.41513e-05
1.41512e-05
1.41513e-05
1.41512e-05
1.41512e-05
1.4151e-05
1.41511e-05
1.41507e-05
1.41507e-05
1.415e-05
1.41498e-05
1.41487e-05
1.41482e-05
1.41461e-05
1.41445e-05
1.41393e-05
1.41323e-05
1.41182e-05
1.40906e-05
1.40576e-05
1.39533e-05
1.39849e-05
1.40119e-05
1.4026e-05
1.40332e-05
1.40386e-05
1.40406e-05
1.40429e-05
1.40436e-05
1.40447e-05
1.4045e-05
1.40457e-05
1.40458e-05
1.40462e-05
1.40461e-05
1.40464e-05
1.40463e-05
1.40465e-05
1.40464e-05
1.40465e-05
1.40465e-05
1.40466e-05
1.40465e-05
1.40466e-05
1.40466e-05
1.40466e-05
1.40466e-05
1.40466e-05
1.40466e-05
1.40466e-05
1.40466e-05
1.40465e-05
1.40466e-05
1.40464e-05
1.40465e-05
1.40462e-05
1.40463e-05
1.40459e-05
1.40458e-05
1.40451e-05
1.40448e-05
1.40437e-05
1.40429e-05
1.40407e-05
1.40387e-05
1.40332e-05
1.4026e-05
1.4012e-05
1.39849e-05
1.39533e-05
1.38593e-05
1.38897e-05
1.39159e-05
1.39298e-05
1.39371e-05
1.39427e-05
1.3945e-05
1.39473e-05
1.39482e-05
1.39494e-05
1.39498e-05
1.39505e-05
1.39506e-05
1.3951e-05
1.3951e-05
1.39513e-05
1.39512e-05
1.39514e-05
1.39514e-05
1.39515e-05
1.39514e-05
1.39515e-05
1.39514e-05
1.39515e-05
1.39515e-05
1.39515e-05
1.39515e-05
1.39515e-05
1.39515e-05
1.39515e-05
1.39515e-05
1.39514e-05
1.39515e-05
1.39513e-05
1.39514e-05
1.39511e-05
1.39511e-05
1.39507e-05
1.39506e-05
1.39499e-05
1.39495e-05
1.39483e-05
1.39474e-05
1.3945e-05
1.39428e-05
1.39372e-05
1.39298e-05
1.39159e-05
1.38897e-05
1.38593e-05
1.37756e-05
1.38048e-05
1.38303e-05
1.38443e-05
1.38521e-05
1.38579e-05
1.38606e-05
1.38632e-05
1.38643e-05
1.38656e-05
1.38661e-05
1.38668e-05
1.3867e-05
1.38674e-05
1.38675e-05
1.38677e-05
1.38677e-05
1.38679e-05
1.38678e-05
1.38679e-05
1.38679e-05
1.3868e-05
1.38679e-05
1.3868e-05
1.3868e-05
1.3868e-05
1.3868e-05
1.3868e-05
1.3868e-05
1.3868e-05
1.3868e-05
1.38679e-05
1.3868e-05
1.38678e-05
1.38678e-05
1.38676e-05
1.38675e-05
1.38671e-05
1.38669e-05
1.38662e-05
1.38657e-05
1.38644e-05
1.38632e-05
1.38607e-05
1.3858e-05
1.38522e-05
1.38443e-05
1.38303e-05
1.38048e-05
1.37756e-05
1.37038e-05
1.37318e-05
1.37569e-05
1.37709e-05
1.37792e-05
1.37853e-05
1.37884e-05
1.37912e-05
1.37925e-05
1.37939e-05
1.37946e-05
1.37953e-05
1.37956e-05
1.3796e-05
1.37961e-05
1.37964e-05
1.37964e-05
1.37965e-05
1.37965e-05
1.37966e-05
1.37966e-05
1.37967e-05
1.37966e-05
1.37967e-05
1.37967e-05
1.37967e-05
1.37967e-05
1.37967e-05
1.37967e-05
1.37967e-05
1.37967e-05
1.37966e-05
1.37966e-05
1.37965e-05
1.37965e-05
1.37962e-05
1.37961e-05
1.37957e-05
1.37954e-05
1.37947e-05
1.3794e-05
1.37926e-05
1.37913e-05
1.37885e-05
1.37854e-05
1.37793e-05
1.37709e-05
1.37569e-05
1.37318e-05
1.37038e-05
1.36438e-05
1.36706e-05
1.36954e-05
1.37096e-05
1.37185e-05
1.37248e-05
1.37284e-05
1.37314e-05
1.3733e-05
1.37345e-05
1.37353e-05
1.37361e-05
1.37364e-05
1.37369e-05
1.3737e-05
1.37373e-05
1.37373e-05
1.37374e-05
1.37375e-05
1.37376e-05
1.37375e-05
1.37376e-05
1.37376e-05
1.37376e-05
1.37376e-05
1.37376e-05
1.37376e-05
1.37376e-05
1.37376e-05
1.37376e-05
1.37376e-05
1.37375e-05
1.37375e-05
1.37374e-05
1.37374e-05
1.37371e-05
1.3737e-05
1.37365e-05
1.37362e-05
1.37354e-05
1.37346e-05
1.37331e-05
1.37315e-05
1.37285e-05
1.37249e-05
1.37185e-05
1.37096e-05
1.36954e-05
1.36706e-05
1.36438e-05
1.35973e-05
1.36231e-05
1.36477e-05
1.36621e-05
1.36715e-05
1.36782e-05
1.36823e-05
1.36855e-05
1.36873e-05
1.36889e-05
1.36898e-05
1.36907e-05
1.36911e-05
1.36915e-05
1.36917e-05
1.3692e-05
1.3692e-05
1.36922e-05
1.36922e-05
1.36923e-05
1.36923e-05
1.36923e-05
1.36923e-05
1.36924e-05
1.36924e-05
1.36924e-05
1.36924e-05
1.36924e-05
1.36924e-05
1.36924e-05
1.36924e-05
1.36923e-05
1.36923e-05
1.36921e-05
1.36921e-05
1.36918e-05
1.36917e-05
1.36912e-05
1.36908e-05
1.36899e-05
1.3689e-05
1.36874e-05
1.36855e-05
1.36823e-05
1.36782e-05
1.36715e-05
1.36621e-05
1.36477e-05
1.36231e-05
1.35973e-05
1.35624e-05
1.35873e-05
1.36118e-05
1.36264e-05
1.36364e-05
1.36434e-05
1.3648e-05
1.36514e-05
1.36535e-05
1.36553e-05
1.36563e-05
1.36572e-05
1.36576e-05
1.36581e-05
1.36583e-05
1.36586e-05
1.36587e-05
1.36588e-05
1.36589e-05
1.36589e-05
1.36589e-05
1.3659e-05
1.3659e-05
1.3659e-05
1.3659e-05
1.3659e-05
1.3659e-05
1.3659e-05
1.3659e-05
1.3659e-05
1.3659e-05
1.36589e-05
1.36589e-05
1.36588e-05
1.36587e-05
1.36584e-05
1.36582e-05
1.36577e-05
1.36573e-05
1.36564e-05
1.36554e-05
1.36536e-05
1.36515e-05
1.3648e-05
1.36435e-05
1.36364e-05
1.36264e-05
1.36118e-05
1.35873e-05
1.35624e-05
1.35385e-05
1.35625e-05
1.3587e-05
1.36018e-05
1.36125e-05
1.36199e-05
1.3625e-05
1.36287e-05
1.3631e-05
1.36329e-05
1.3634e-05
1.3635e-05
1.36355e-05
1.3636e-05
1.36363e-05
1.36365e-05
1.36366e-05
1.36368e-05
1.36368e-05
1.36369e-05
1.36369e-05
1.3637e-05
1.3637e-05
1.3637e-05
1.3637e-05
1.3637e-05
1.3637e-05
1.3637e-05
1.3637e-05
1.3637e-05
1.3637e-05
1.36369e-05
1.36369e-05
1.36367e-05
1.36366e-05
1.36364e-05
1.36361e-05
1.36356e-05
1.36351e-05
1.36341e-05
1.3633e-05
1.36311e-05
1.36287e-05
1.3625e-05
1.36199e-05
1.36125e-05
1.36018e-05
1.3587e-05
1.35624e-05
1.35384e-05
1.35265e-05
1.35496e-05
1.35744e-05
1.35895e-05
1.36009e-05
1.36086e-05
1.36143e-05
1.36183e-05
1.36209e-05
1.36229e-05
1.36242e-05
1.36252e-05
1.36258e-05
1.36264e-05
1.36267e-05
1.36269e-05
1.3627e-05
1.36272e-05
1.36273e-05
1.36273e-05
1.36274e-05
1.36274e-05
1.36274e-05
1.36274e-05
1.36275e-05
1.36275e-05
1.36275e-05
1.36274e-05
1.36275e-05
1.36274e-05
1.36274e-05
1.36273e-05
1.36273e-05
1.36272e-05
1.3627e-05
1.36268e-05
1.36265e-05
1.36259e-05
1.36253e-05
1.36243e-05
1.3623e-05
1.3621e-05
1.36183e-05
1.36143e-05
1.36087e-05
1.36009e-05
1.35895e-05
1.35744e-05
1.35496e-05
1.35264e-05
1.35267e-05
1.35491e-05
1.35742e-05
1.35896e-05
1.36018e-05
1.36099e-05
1.36162e-05
1.36204e-05
1.36233e-05
1.36254e-05
1.36269e-05
1.3628e-05
1.36287e-05
1.36292e-05
1.36295e-05
1.36298e-05
1.363e-05
1.36301e-05
1.36302e-05
1.36303e-05
1.36303e-05
1.36303e-05
1.36304e-05
1.36304e-05
1.36304e-05
1.36304e-05
1.36304e-05
1.36304e-05
1.36304e-05
1.36304e-05
1.36303e-05
1.36303e-05
1.36302e-05
1.36301e-05
1.36299e-05
1.36296e-05
1.36293e-05
1.36288e-05
1.3628e-05
1.36269e-05
1.36255e-05
1.36234e-05
1.36204e-05
1.36162e-05
1.36099e-05
1.36018e-05
1.35895e-05
1.35741e-05
1.3549e-05
1.35266e-05
1.35388e-05
1.35606e-05
1.3586e-05
1.36018e-05
1.3615e-05
1.36235e-05
1.36304e-05
1.3635e-05
1.36382e-05
1.36405e-05
1.3642e-05
1.36432e-05
1.3644e-05
1.36446e-05
1.36449e-05
1.36452e-05
1.36454e-05
1.36455e-05
1.36457e-05
1.36457e-05
1.36458e-05
1.36458e-05
1.36458e-05
1.36458e-05
1.36459e-05
1.36459e-05
1.36459e-05
1.36458e-05
1.36459e-05
1.36458e-05
1.36458e-05
1.36457e-05
1.36456e-05
1.36455e-05
1.36453e-05
1.3645e-05
1.36447e-05
1.36441e-05
1.36433e-05
1.36421e-05
1.36405e-05
1.36383e-05
1.3635e-05
1.36304e-05
1.36235e-05
1.3615e-05
1.36018e-05
1.3586e-05
1.35605e-05
1.35387e-05
1.3563e-05
1.35843e-05
1.36102e-05
1.36264e-05
1.36404e-05
1.36494e-05
1.3657e-05
1.36618e-05
1.36654e-05
1.36678e-05
1.36695e-05
1.36707e-05
1.36716e-05
1.36722e-05
1.36726e-05
1.36729e-05
1.36731e-05
1.36732e-05
1.36734e-05
1.36734e-05
1.36735e-05
1.36735e-05
1.36735e-05
1.36736e-05
1.36736e-05
1.36736e-05
1.36736e-05
1.36736e-05
1.36736e-05
1.36735e-05
1.36735e-05
1.36734e-05
1.36733e-05
1.36732e-05
1.3673e-05
1.36727e-05
1.36723e-05
1.36717e-05
1.36708e-05
1.36696e-05
1.36678e-05
1.36654e-05
1.36618e-05
1.3657e-05
1.36494e-05
1.36404e-05
1.36264e-05
1.36101e-05
1.35841e-05
1.35629e-05
1.35994e-05
1.36202e-05
1.36467e-05
1.36635e-05
1.36783e-05
1.36878e-05
1.36961e-05
1.37012e-05
1.37051e-05
1.37077e-05
1.37095e-05
1.37108e-05
1.37118e-05
1.37124e-05
1.37129e-05
1.37132e-05
1.37134e-05
1.37135e-05
1.37137e-05
1.37137e-05
1.37138e-05
1.37138e-05
1.37139e-05
1.37139e-05
1.37139e-05
1.37139e-05
1.37139e-05
1.37139e-05
1.37139e-05
1.37138e-05
1.37138e-05
1.37137e-05
1.37136e-05
1.37135e-05
1.37132e-05
1.3713e-05
1.37125e-05
1.37118e-05
1.37109e-05
1.37096e-05
1.37077e-05
1.37051e-05
1.37012e-05
1.36961e-05
1.36877e-05
1.36783e-05
1.36634e-05
1.36466e-05
1.36201e-05
1.35993e-05
1.37667e-05
1.37667e-05
1.37668e-05
1.37668e-05
1.37669e-05
1.37669e-05
1.37669e-05
1.37669e-05
1.37669e-05
1.37669e-05
1.37669e-05
1.37669e-05
1.37668e-05
1.37667e-05
1.37666e-05
1.37665e-05
1.37662e-05
1.37659e-05
1.37654e-05
1.37647e-05
1.37637e-05
1.37623e-05
1.37603e-05
1.37575e-05
1.37533e-05
1.37479e-05
1.37387e-05
1.37287e-05
1.37131e-05
1.36956e-05
1.36684e-05
1.3648e-05
1.38342e-05
1.38342e-05
1.38341e-05
1.38341e-05
1.38339e-05
1.38338e-05
1.38335e-05
1.38332e-05
1.38326e-05
1.38319e-05
1.38308e-05
1.38293e-05
1.38271e-05
1.38242e-05
1.38195e-05
1.38137e-05
1.38037e-05
1.3793e-05
1.37765e-05
1.37582e-05
1.37301e-05
1.37101e-05
1.39055e-05
1.39025e-05
1.38974e-05
1.38913e-05
1.38805e-05
1.38692e-05
1.38519e-05
1.38328e-05
1.38037e-05
1.3784e-05
)
;

boundaryField
{
    fuel
    {
        type            fixedValue;
        value           nonuniform 0();
    }
    wall
    {
        type            zeroGradient;
    }
    outlet
    {
        type            zeroGradient;
    }
    frontAndBack
    {
        type            empty;
    }
    procBoundary0to1
    {
        type            processor;
        value           nonuniform List<scalar> 
50
(
2.36698e-05
2.37533e-05
2.38293e-05
2.38665e-05
2.38726e-05
2.38796e-05
2.38721e-05
2.38749e-05
2.38696e-05
2.38718e-05
2.38688e-05
2.38705e-05
2.38686e-05
2.38697e-05
2.38684e-05
2.38693e-05
2.38684e-05
2.38691e-05
2.38685e-05
2.3869e-05
2.38686e-05
2.38688e-05
2.38686e-05
2.38687e-05
2.38687e-05
2.38687e-05
2.38688e-05
2.38686e-05
2.38689e-05
2.38686e-05
2.3869e-05
2.38686e-05
2.38692e-05
2.38685e-05
2.38694e-05
2.38685e-05
2.38698e-05
2.38686e-05
2.38705e-05
2.38689e-05
2.38719e-05
2.38697e-05
2.38749e-05
2.38722e-05
2.38797e-05
2.38727e-05
2.38665e-05
2.38294e-05
2.37534e-05
2.36699e-05
)
;
    }
    procBoundary0to2
    {
        type            processor;
        value           nonuniform List<scalar> 
53
(
1.36482e-05
1.36685e-05
1.36958e-05
1.37133e-05
1.37288e-05
1.37388e-05
1.37479e-05
1.37533e-05
1.37576e-05
1.37603e-05
1.37623e-05
1.37637e-05
1.37647e-05
1.37654e-05
1.37659e-05
1.37662e-05
1.37664e-05
1.37666e-05
1.37666e-05
1.38341e-05
1.38341e-05
1.38342e-05
1.38342e-05
1.38343e-05
1.38343e-05
1.38343e-05
1.38343e-05
1.38343e-05
1.38343e-05
1.38343e-05
1.39132e-05
1.39132e-05
1.39131e-05
1.39131e-05
1.39129e-05
1.39128e-05
1.39124e-05
1.39121e-05
1.39115e-05
1.39107e-05
1.39095e-05
1.3908e-05
1.3908e-05
1.39972e-05
1.39939e-05
1.39885e-05
1.3982e-05
1.39704e-05
1.39584e-05
1.39403e-05
1.39204e-05
1.38901e-05
1.38706e-05
)
;
    }
}


// ************************************************************************* //
