/*--------------------------------*- C++ -*----------------------------------*\
| =========                 |                                                 |
| \\      /  F ield         | OpenFOAM: The Open Source CFD Toolbox           |
|  \\    /   O peration     | Version:  dev                                   |
|   \\  /    A nd           | Web:      www.OpenFOAM.org                      |
|    \\/     M anipulation  |                                                 |
\*---------------------------------------------------------------------------*/
FoamFile
{
    version     2.0;
    format      ascii;
    class       volScalarField;
    location    "0.04";
    object      A2C2HB*;
}
// * * * * * * * * * * * * * * * * * * * * * * * * * * * * * * * * * * * * * //

dimensions      [0 0 0 0 0 0 0];

internalField   nonuniform List<scalar> 
25
(
1.85467e-15
1.33451e-15
9.8201e-16
7.2887e-16
5.38143e-16
3.94778e-16
2.89533e-16
2.1404e-16
1.60575e-16
1.22507e-16
9.57068e-17
7.64195e-17
6.28853e-17
5.39057e-17
4.88667e-17
4.72835e-17
4.90734e-17
5.43299e-17
6.34338e-17
7.64631e-17
9.40293e-17
1.16714e-16
1.45217e-16
1.80378e-16
2.23203e-16
)
;

boundaryField
{
    wall
    {
        type            zeroGradient;
    }
    fuel
    {
        type            fixedValue;
        value           uniform 0;
    }
    outlet
    {
        type            inletOutlet;
        inletValue      nonuniform 0();
        value           nonuniform 0();
    }
    procBoundary0to1
    {
        type            processor;
        value           uniform 2.74989e-16;
    }
}


// ************************************************************************* //
