/*--------------------------------*- C++ -*----------------------------------*\
| =========                 |                                                 |
| \\      /  F ield         | OpenFOAM: The Open Source CFD Toolbox           |
|  \\    /   O peration     | Version:  dev                                   |
|   \\  /    A nd           | Web:      www.OpenFOAM.org                      |
|    \\/     M anipulation  |                                                 |
\*---------------------------------------------------------------------------*/
FoamFile
{
    version     2.0;
    format      ascii;
    class       volScalarField;
    location    "0.04";
    object      AC3H4;
}
// * * * * * * * * * * * * * * * * * * * * * * * * * * * * * * * * * * * * * //

dimensions      [0 0 0 0 0 0 0];

internalField   nonuniform List<scalar> 
2014
(
1.23303e-06
1.23558e-06
1.23796e-06
1.23918e-06
1.23961e-06
1.23986e-06
1.23976e-06
1.23979e-06
1.23968e-06
1.23969e-06
1.23962e-06
1.23963e-06
1.23958e-06
1.23959e-06
1.23956e-06
1.23957e-06
1.23955e-06
1.23956e-06
1.23955e-06
1.23956e-06
1.23955e-06
1.23955e-06
1.23955e-06
1.23955e-06
1.23955e-06
1.23955e-06
1.23955e-06
1.23955e-06
1.23955e-06
1.23955e-06
1.23956e-06
1.23955e-06
1.23956e-06
1.23955e-06
1.23957e-06
1.23956e-06
1.23959e-06
1.23958e-06
1.23963e-06
1.23962e-06
1.23969e-06
1.23968e-06
1.23979e-06
1.23976e-06
1.23986e-06
1.23962e-06
1.23918e-06
1.23796e-06
1.23558e-06
1.23303e-06
1.21972e-06
1.22228e-06
1.22463e-06
1.22584e-06
1.22626e-06
1.22651e-06
1.22641e-06
1.22644e-06
1.22632e-06
1.22633e-06
1.22626e-06
1.22627e-06
1.22622e-06
1.22623e-06
1.2262e-06
1.22621e-06
1.22619e-06
1.2262e-06
1.22619e-06
1.2262e-06
1.22619e-06
1.22619e-06
1.22619e-06
1.22619e-06
1.22619e-06
1.22619e-06
1.22619e-06
1.22619e-06
1.22619e-06
1.22619e-06
1.2262e-06
1.22619e-06
1.2262e-06
1.22619e-06
1.22621e-06
1.2262e-06
1.22623e-06
1.22622e-06
1.22627e-06
1.22626e-06
1.22633e-06
1.22632e-06
1.22644e-06
1.22641e-06
1.22651e-06
1.22626e-06
1.22584e-06
1.22463e-06
1.22228e-06
1.21972e-06
1.20671e-06
1.20926e-06
1.21158e-06
1.21277e-06
1.21319e-06
1.21344e-06
1.21333e-06
1.21336e-06
1.21325e-06
1.21325e-06
1.21318e-06
1.21319e-06
1.21315e-06
1.21315e-06
1.21312e-06
1.21313e-06
1.21311e-06
1.21312e-06
1.21311e-06
1.21312e-06
1.21311e-06
1.21311e-06
1.21311e-06
1.21311e-06
1.21311e-06
1.21311e-06
1.21311e-06
1.21311e-06
1.21311e-06
1.21311e-06
1.21312e-06
1.21311e-06
1.21312e-06
1.21311e-06
1.21313e-06
1.21313e-06
1.21315e-06
1.21315e-06
1.21319e-06
1.21318e-06
1.21326e-06
1.21325e-06
1.21336e-06
1.21333e-06
1.21344e-06
1.21319e-06
1.21277e-06
1.21158e-06
1.20926e-06
1.20671e-06
1.19399e-06
1.19654e-06
1.19882e-06
1.19999e-06
1.2004e-06
1.20064e-06
1.20054e-06
1.20056e-06
1.20045e-06
1.20046e-06
1.20038e-06
1.20039e-06
1.20035e-06
1.20035e-06
1.20032e-06
1.20033e-06
1.20031e-06
1.20032e-06
1.20031e-06
1.20031e-06
1.20031e-06
1.20031e-06
1.2003e-06
1.20031e-06
1.20031e-06
1.20031e-06
1.20031e-06
1.2003e-06
1.20031e-06
1.20031e-06
1.20031e-06
1.20031e-06
1.20032e-06
1.20031e-06
1.20033e-06
1.20032e-06
1.20035e-06
1.20035e-06
1.20039e-06
1.20039e-06
1.20046e-06
1.20045e-06
1.20056e-06
1.20054e-06
1.20064e-06
1.2004e-06
1.19999e-06
1.19882e-06
1.19654e-06
1.19399e-06
1.18155e-06
1.1841e-06
1.18633e-06
1.18748e-06
1.18788e-06
1.18812e-06
1.18802e-06
1.18804e-06
1.18793e-06
1.18793e-06
1.18786e-06
1.18786e-06
1.18782e-06
1.18783e-06
1.1878e-06
1.1878e-06
1.18778e-06
1.18779e-06
1.18778e-06
1.18779e-06
1.18778e-06
1.18778e-06
1.18778e-06
1.18778e-06
1.18778e-06
1.18778e-06
1.18778e-06
1.18778e-06
1.18778e-06
1.18778e-06
1.18779e-06
1.18778e-06
1.18779e-06
1.18779e-06
1.18781e-06
1.1878e-06
1.18783e-06
1.18782e-06
1.18787e-06
1.18786e-06
1.18793e-06
1.18793e-06
1.18804e-06
1.18802e-06
1.18812e-06
1.18789e-06
1.18748e-06
1.18633e-06
1.1841e-06
1.18155e-06
1.16938e-06
1.17192e-06
1.17412e-06
1.17524e-06
1.17564e-06
1.17587e-06
1.17577e-06
1.17578e-06
1.17567e-06
1.17567e-06
1.1756e-06
1.17561e-06
1.17556e-06
1.17557e-06
1.17554e-06
1.17555e-06
1.17553e-06
1.17554e-06
1.17552e-06
1.17553e-06
1.17552e-06
1.17552e-06
1.17552e-06
1.17552e-06
1.17552e-06
1.17552e-06
1.17552e-06
1.17552e-06
1.17552e-06
1.17552e-06
1.17553e-06
1.17552e-06
1.17554e-06
1.17553e-06
1.17555e-06
1.17554e-06
1.17557e-06
1.17556e-06
1.17561e-06
1.17561e-06
1.17568e-06
1.17567e-06
1.17579e-06
1.17577e-06
1.17587e-06
1.17564e-06
1.17524e-06
1.17412e-06
1.17192e-06
1.16938e-06
1.1575e-06
1.16003e-06
1.16218e-06
1.16327e-06
1.16366e-06
1.16388e-06
1.16378e-06
1.1638e-06
1.16369e-06
1.16368e-06
1.16361e-06
1.16362e-06
1.16357e-06
1.16358e-06
1.16355e-06
1.16355e-06
1.16354e-06
1.16354e-06
1.16353e-06
1.16354e-06
1.16353e-06
1.16353e-06
1.16353e-06
1.16353e-06
1.16353e-06
1.16353e-06
1.16353e-06
1.16353e-06
1.16353e-06
1.16353e-06
1.16354e-06
1.16353e-06
1.16354e-06
1.16354e-06
1.16356e-06
1.16355e-06
1.16358e-06
1.16357e-06
1.16362e-06
1.16362e-06
1.16368e-06
1.16369e-06
1.1638e-06
1.16378e-06
1.16388e-06
1.16366e-06
1.16327e-06
1.16218e-06
1.16003e-06
1.1575e-06
1.14588e-06
1.14839e-06
1.1505e-06
1.15156e-06
1.15194e-06
1.15216e-06
1.15206e-06
1.15207e-06
1.15196e-06
1.15196e-06
1.15189e-06
1.15189e-06
1.15184e-06
1.15185e-06
1.15182e-06
1.15182e-06
1.15181e-06
1.15181e-06
1.1518e-06
1.15181e-06
1.1518e-06
1.1518e-06
1.1518e-06
1.1518e-06
1.1518e-06
1.1518e-06
1.1518e-06
1.1518e-06
1.1518e-06
1.1518e-06
1.15181e-06
1.1518e-06
1.15181e-06
1.15181e-06
1.15183e-06
1.15182e-06
1.15185e-06
1.15184e-06
1.15189e-06
1.15189e-06
1.15196e-06
1.15196e-06
1.15207e-06
1.15206e-06
1.15216e-06
1.15194e-06
1.15156e-06
1.1505e-06
1.14839e-06
1.14588e-06
1.13452e-06
1.13703e-06
1.13908e-06
1.14012e-06
1.14048e-06
1.14069e-06
1.14059e-06
1.1406e-06
1.14049e-06
1.14049e-06
1.14042e-06
1.14042e-06
1.14037e-06
1.14038e-06
1.14035e-06
1.14035e-06
1.14034e-06
1.14034e-06
1.14033e-06
1.14034e-06
1.14033e-06
1.14033e-06
1.14033e-06
1.14033e-06
1.14033e-06
1.14033e-06
1.14033e-06
1.14033e-06
1.14033e-06
1.14033e-06
1.14034e-06
1.14033e-06
1.14034e-06
1.14034e-06
1.14036e-06
1.14035e-06
1.14038e-06
1.14037e-06
1.14042e-06
1.14042e-06
1.14049e-06
1.14049e-06
1.1406e-06
1.14059e-06
1.14069e-06
1.14048e-06
1.14012e-06
1.13908e-06
1.13703e-06
1.13452e-06
1.12343e-06
1.12592e-06
1.12792e-06
1.12892e-06
1.12927e-06
1.12948e-06
1.12938e-06
1.12939e-06
1.12928e-06
1.12927e-06
1.12921e-06
1.1292e-06
1.12916e-06
1.12916e-06
1.12913e-06
1.12914e-06
1.12912e-06
1.12913e-06
1.12912e-06
1.12912e-06
1.12911e-06
1.12912e-06
1.12911e-06
1.12911e-06
1.12911e-06
1.12911e-06
1.12911e-06
1.12911e-06
1.12912e-06
1.12911e-06
1.12912e-06
1.12912e-06
1.12913e-06
1.12912e-06
1.12914e-06
1.12914e-06
1.12916e-06
1.12916e-06
1.12921e-06
1.12921e-06
1.12927e-06
1.12928e-06
1.12939e-06
1.12938e-06
1.12948e-06
1.12927e-06
1.12892e-06
1.12792e-06
1.12592e-06
1.12343e-06
1.1126e-06
1.11507e-06
1.11702e-06
1.11799e-06
1.11832e-06
1.11852e-06
1.11842e-06
1.11843e-06
1.11832e-06
1.11831e-06
1.11825e-06
1.11824e-06
1.1182e-06
1.1182e-06
1.11817e-06
1.11818e-06
1.11816e-06
1.11817e-06
1.11816e-06
1.11816e-06
1.11815e-06
1.11815e-06
1.11815e-06
1.11815e-06
1.11815e-06
1.11815e-06
1.11815e-06
1.11815e-06
1.11816e-06
1.11815e-06
1.11816e-06
1.11816e-06
1.11817e-06
1.11816e-06
1.11818e-06
1.11818e-06
1.1182e-06
1.1182e-06
1.11825e-06
1.11825e-06
1.11832e-06
1.11832e-06
1.11843e-06
1.11843e-06
1.11852e-06
1.11832e-06
1.11799e-06
1.11702e-06
1.11507e-06
1.1126e-06
1.10203e-06
1.10446e-06
1.10636e-06
1.1073e-06
1.10762e-06
1.10782e-06
1.10772e-06
1.10772e-06
1.10762e-06
1.10761e-06
1.10754e-06
1.10753e-06
1.10749e-06
1.10749e-06
1.10747e-06
1.10747e-06
1.10745e-06
1.10746e-06
1.10745e-06
1.10745e-06
1.10744e-06
1.10744e-06
1.10744e-06
1.10744e-06
1.10744e-06
1.10744e-06
1.10744e-06
1.10744e-06
1.10745e-06
1.10744e-06
1.10745e-06
1.10745e-06
1.10746e-06
1.10745e-06
1.10747e-06
1.10747e-06
1.10749e-06
1.10749e-06
1.10754e-06
1.10754e-06
1.10761e-06
1.10762e-06
1.10772e-06
1.10772e-06
1.10782e-06
1.10762e-06
1.1073e-06
1.10636e-06
1.10447e-06
1.10203e-06
1.09171e-06
1.09411e-06
1.09595e-06
1.09686e-06
1.09717e-06
1.09736e-06
1.09726e-06
1.09726e-06
1.09716e-06
1.09715e-06
1.09708e-06
1.09707e-06
1.09703e-06
1.09703e-06
1.097e-06
1.09701e-06
1.09699e-06
1.097e-06
1.09698e-06
1.09699e-06
1.09698e-06
1.09698e-06
1.09698e-06
1.09698e-06
1.09698e-06
1.09698e-06
1.09698e-06
1.09698e-06
1.09698e-06
1.09698e-06
1.09699e-06
1.09699e-06
1.097e-06
1.09699e-06
1.09701e-06
1.09701e-06
1.09703e-06
1.09703e-06
1.09708e-06
1.09708e-06
1.09715e-06
1.09716e-06
1.09726e-06
1.09726e-06
1.09736e-06
1.09717e-06
1.09686e-06
1.09595e-06
1.09411e-06
1.09171e-06
1.08165e-06
1.08401e-06
1.08579e-06
1.08667e-06
1.08697e-06
1.08715e-06
1.08705e-06
1.08705e-06
1.08695e-06
1.08693e-06
1.08687e-06
1.08686e-06
1.08682e-06
1.08682e-06
1.08679e-06
1.08679e-06
1.08678e-06
1.08678e-06
1.08677e-06
1.08677e-06
1.08677e-06
1.08677e-06
1.08677e-06
1.08677e-06
1.08677e-06
1.08677e-06
1.08677e-06
1.08677e-06
1.08677e-06
1.08677e-06
1.08678e-06
1.08677e-06
1.08678e-06
1.08678e-06
1.0868e-06
1.08679e-06
1.08682e-06
1.08682e-06
1.08686e-06
1.08687e-06
1.08693e-06
1.08695e-06
1.08705e-06
1.08705e-06
1.08715e-06
1.08697e-06
1.08667e-06
1.08579e-06
1.08401e-06
1.08165e-06
1.07183e-06
1.07414e-06
1.07587e-06
1.07672e-06
1.07701e-06
1.07718e-06
1.07708e-06
1.07708e-06
1.07698e-06
1.07696e-06
1.0769e-06
1.07689e-06
1.07685e-06
1.07685e-06
1.07682e-06
1.07683e-06
1.07681e-06
1.07681e-06
1.0768e-06
1.0768e-06
1.0768e-06
1.0768e-06
1.0768e-06
1.0768e-06
1.0768e-06
1.0768e-06
1.0768e-06
1.0768e-06
1.0768e-06
1.0768e-06
1.07681e-06
1.0768e-06
1.07681e-06
1.07681e-06
1.07683e-06
1.07682e-06
1.07685e-06
1.07685e-06
1.07689e-06
1.0769e-06
1.07696e-06
1.07698e-06
1.07708e-06
1.07708e-06
1.07718e-06
1.07701e-06
1.07672e-06
1.07587e-06
1.07414e-06
1.07183e-06
1.06226e-06
1.06452e-06
1.0662e-06
1.06702e-06
1.06729e-06
1.06745e-06
1.06736e-06
1.06735e-06
1.06725e-06
1.06724e-06
1.06717e-06
1.06716e-06
1.06712e-06
1.06712e-06
1.0671e-06
1.0671e-06
1.06708e-06
1.06709e-06
1.06707e-06
1.06708e-06
1.06707e-06
1.06707e-06
1.06707e-06
1.06707e-06
1.06707e-06
1.06707e-06
1.06707e-06
1.06707e-06
1.06707e-06
1.06707e-06
1.06708e-06
1.06708e-06
1.06709e-06
1.06708e-06
1.0671e-06
1.0671e-06
1.06712e-06
1.06712e-06
1.06717e-06
1.06717e-06
1.06724e-06
1.06725e-06
1.06735e-06
1.06736e-06
1.06745e-06
1.06729e-06
1.06702e-06
1.0662e-06
1.06452e-06
1.06226e-06
1.05294e-06
1.05513e-06
1.05676e-06
1.05755e-06
1.05781e-06
1.05797e-06
1.05787e-06
1.05786e-06
1.05777e-06
1.05775e-06
1.05769e-06
1.05768e-06
1.05764e-06
1.05764e-06
1.05761e-06
1.05761e-06
1.05759e-06
1.0576e-06
1.05759e-06
1.05759e-06
1.05758e-06
1.05759e-06
1.05758e-06
1.05758e-06
1.05758e-06
1.05758e-06
1.05758e-06
1.05758e-06
1.05759e-06
1.05758e-06
1.05759e-06
1.05759e-06
1.0576e-06
1.0576e-06
1.05761e-06
1.05761e-06
1.05764e-06
1.05764e-06
1.05768e-06
1.05769e-06
1.05775e-06
1.05777e-06
1.05786e-06
1.05787e-06
1.05797e-06
1.05781e-06
1.05755e-06
1.05676e-06
1.05513e-06
1.05294e-06
1.04386e-06
1.04598e-06
1.04756e-06
1.04832e-06
1.04857e-06
1.04872e-06
1.04863e-06
1.04862e-06
1.04852e-06
1.0485e-06
1.04844e-06
1.04843e-06
1.04839e-06
1.04839e-06
1.04836e-06
1.04836e-06
1.04835e-06
1.04835e-06
1.04834e-06
1.04834e-06
1.04834e-06
1.04834e-06
1.04833e-06
1.04834e-06
1.04833e-06
1.04833e-06
1.04834e-06
1.04834e-06
1.04834e-06
1.04834e-06
1.04835e-06
1.04834e-06
1.04835e-06
1.04835e-06
1.04837e-06
1.04836e-06
1.04839e-06
1.04839e-06
1.04843e-06
1.04844e-06
1.0485e-06
1.04852e-06
1.04862e-06
1.04863e-06
1.04872e-06
1.04857e-06
1.04832e-06
1.04756e-06
1.04598e-06
1.04386e-06
1.03501e-06
1.03707e-06
1.03859e-06
1.03933e-06
1.03956e-06
1.03971e-06
1.03962e-06
1.0396e-06
1.03951e-06
1.03949e-06
1.03943e-06
1.03942e-06
1.03938e-06
1.03938e-06
1.03935e-06
1.03935e-06
1.03934e-06
1.03934e-06
1.03933e-06
1.03933e-06
1.03933e-06
1.03933e-06
1.03932e-06
1.03933e-06
1.03932e-06
1.03932e-06
1.03933e-06
1.03933e-06
1.03933e-06
1.03933e-06
1.03933e-06
1.03933e-06
1.03934e-06
1.03934e-06
1.03936e-06
1.03935e-06
1.03938e-06
1.03938e-06
1.03942e-06
1.03943e-06
1.03949e-06
1.03951e-06
1.0396e-06
1.03962e-06
1.03971e-06
1.03956e-06
1.03933e-06
1.03859e-06
1.03707e-06
1.03501e-06
1.0264e-06
1.02839e-06
1.02986e-06
1.03057e-06
1.03079e-06
1.03093e-06
1.03084e-06
1.03083e-06
1.03073e-06
1.03071e-06
1.03065e-06
1.03064e-06
1.03061e-06
1.0306e-06
1.03058e-06
1.03058e-06
1.03056e-06
1.03057e-06
1.03056e-06
1.03056e-06
1.03055e-06
1.03055e-06
1.03055e-06
1.03055e-06
1.03055e-06
1.03055e-06
1.03055e-06
1.03055e-06
1.03055e-06
1.03055e-06
1.03056e-06
1.03056e-06
1.03057e-06
1.03056e-06
1.03058e-06
1.03058e-06
1.03061e-06
1.03061e-06
1.03065e-06
1.03066e-06
1.03072e-06
1.03074e-06
1.03083e-06
1.03084e-06
1.03093e-06
1.03079e-06
1.03057e-06
1.02986e-06
1.02839e-06
1.0264e-06
1.01803e-06
1.01994e-06
1.02136e-06
1.02204e-06
1.02225e-06
1.02239e-06
1.0223e-06
1.02228e-06
1.02219e-06
1.02217e-06
1.02211e-06
1.0221e-06
1.02207e-06
1.02206e-06
1.02204e-06
1.02204e-06
1.02202e-06
1.02203e-06
1.02202e-06
1.02202e-06
1.02201e-06
1.02201e-06
1.02201e-06
1.02201e-06
1.02201e-06
1.02201e-06
1.02201e-06
1.02201e-06
1.02201e-06
1.02201e-06
1.02202e-06
1.02202e-06
1.02203e-06
1.02202e-06
1.02204e-06
1.02204e-06
1.02206e-06
1.02207e-06
1.0221e-06
1.02211e-06
1.02217e-06
1.02219e-06
1.02228e-06
1.0223e-06
1.02239e-06
1.02225e-06
1.02204e-06
1.02136e-06
1.01994e-06
1.01803e-06
1.00988e-06
1.01173e-06
1.01308e-06
1.01375e-06
1.01395e-06
1.01407e-06
1.01399e-06
1.01397e-06
1.01388e-06
1.01386e-06
1.0138e-06
1.01379e-06
1.01376e-06
1.01375e-06
1.01373e-06
1.01373e-06
1.01371e-06
1.01372e-06
1.01371e-06
1.01371e-06
1.0137e-06
1.0137e-06
1.0137e-06
1.0137e-06
1.0137e-06
1.0137e-06
1.0137e-06
1.0137e-06
1.0137e-06
1.0137e-06
1.01371e-06
1.01371e-06
1.01372e-06
1.01371e-06
1.01373e-06
1.01373e-06
1.01375e-06
1.01376e-06
1.01379e-06
1.01381e-06
1.01386e-06
1.01388e-06
1.01397e-06
1.01399e-06
1.01407e-06
1.01395e-06
1.01375e-06
1.01308e-06
1.01173e-06
1.00988e-06
1.00196e-06
1.00373e-06
1.00504e-06
1.00568e-06
1.00587e-06
1.00599e-06
1.0059e-06
1.00589e-06
1.0058e-06
1.00578e-06
1.00572e-06
1.00571e-06
1.00568e-06
1.00567e-06
1.00565e-06
1.00565e-06
1.00563e-06
1.00564e-06
1.00563e-06
1.00563e-06
1.00562e-06
1.00562e-06
1.00562e-06
1.00562e-06
1.00562e-06
1.00562e-06
1.00562e-06
1.00562e-06
1.00562e-06
1.00562e-06
1.00563e-06
1.00563e-06
1.00564e-06
1.00564e-06
1.00565e-06
1.00565e-06
1.00567e-06
1.00568e-06
1.00571e-06
1.00573e-06
1.00578e-06
1.0058e-06
1.00589e-06
1.00591e-06
1.00599e-06
1.00587e-06
1.00568e-06
1.00504e-06
1.00373e-06
1.00196e-06
9.94258e-07
9.95966e-07
9.97221e-07
9.97838e-07
9.98015e-07
9.9813e-07
9.98049e-07
9.9803e-07
9.97948e-07
9.97925e-07
9.97871e-07
9.97859e-07
9.97824e-07
9.9782e-07
9.97796e-07
9.97797e-07
9.97781e-07
9.97784e-07
9.97774e-07
9.97776e-07
9.97769e-07
9.97771e-07
9.97767e-07
9.97768e-07
9.97767e-07
9.97767e-07
9.97768e-07
9.97768e-07
9.97772e-07
9.97771e-07
9.97777e-07
9.97775e-07
9.97785e-07
9.97783e-07
9.97799e-07
9.97798e-07
9.97822e-07
9.97826e-07
9.97861e-07
9.97872e-07
9.97927e-07
9.97949e-07
9.98031e-07
9.9805e-07
9.9813e-07
9.98015e-07
9.97838e-07
9.97221e-07
9.95965e-07
9.94257e-07
9.86781e-07
9.88421e-07
9.89625e-07
9.90218e-07
9.90386e-07
9.90496e-07
9.90418e-07
9.90398e-07
9.90318e-07
9.90295e-07
9.90242e-07
9.90231e-07
9.90196e-07
9.90192e-07
9.90169e-07
9.90169e-07
9.90154e-07
9.90156e-07
9.90147e-07
9.90149e-07
9.90142e-07
9.90143e-07
9.9014e-07
9.90141e-07
9.9014e-07
9.9014e-07
9.90141e-07
9.9014e-07
9.90144e-07
9.90143e-07
9.9015e-07
9.90148e-07
9.90158e-07
9.90156e-07
9.90171e-07
9.90171e-07
9.90194e-07
9.90198e-07
9.90232e-07
9.90244e-07
9.90297e-07
9.9032e-07
9.90399e-07
9.90418e-07
9.90496e-07
9.90387e-07
9.90218e-07
9.89625e-07
9.8842e-07
9.8678e-07
9.79522e-07
9.81096e-07
9.82247e-07
9.82818e-07
9.82979e-07
9.83082e-07
9.83008e-07
9.82988e-07
9.8291e-07
9.82887e-07
9.82836e-07
9.82824e-07
9.82791e-07
9.82786e-07
9.82764e-07
9.82763e-07
9.82749e-07
9.82751e-07
9.82741e-07
9.82743e-07
9.82737e-07
9.82738e-07
9.82734e-07
9.82735e-07
9.82734e-07
9.82734e-07
9.82735e-07
9.82735e-07
9.82739e-07
9.82738e-07
9.82744e-07
9.82743e-07
9.82752e-07
9.82751e-07
9.82765e-07
9.82766e-07
9.82788e-07
9.82792e-07
9.82826e-07
9.82837e-07
9.82889e-07
9.82912e-07
9.82989e-07
9.83008e-07
9.83083e-07
9.82979e-07
9.82818e-07
9.82247e-07
9.81095e-07
9.79521e-07
9.72717e-07
9.74237e-07
9.75333e-07
9.75887e-07
9.76039e-07
9.76139e-07
9.76066e-07
9.76046e-07
9.75971e-07
9.75948e-07
9.75898e-07
9.75886e-07
9.75853e-07
9.75848e-07
9.75827e-07
9.75826e-07
9.75812e-07
9.75813e-07
9.75804e-07
9.75806e-07
9.75799e-07
9.758e-07
9.75797e-07
9.75798e-07
9.75797e-07
9.75797e-07
9.75798e-07
9.75798e-07
9.75801e-07
9.758e-07
9.75807e-07
9.75805e-07
9.75815e-07
9.75814e-07
9.75828e-07
9.75829e-07
9.7585e-07
9.75855e-07
9.75887e-07
9.75899e-07
9.75949e-07
9.75972e-07
9.76047e-07
9.76067e-07
9.76139e-07
9.76039e-07
9.75887e-07
9.75332e-07
9.74236e-07
9.72716e-07
9.66022e-07
9.67495e-07
9.68518e-07
9.69046e-07
9.69176e-07
9.69262e-07
9.69184e-07
9.69159e-07
9.69082e-07
9.69057e-07
9.69006e-07
9.68993e-07
9.6896e-07
9.68955e-07
9.68933e-07
9.68932e-07
9.68918e-07
9.68919e-07
9.6891e-07
9.68911e-07
9.68905e-07
9.68906e-07
9.68903e-07
9.68903e-07
9.68902e-07
9.68903e-07
9.68904e-07
9.68903e-07
9.68907e-07
9.68906e-07
9.68913e-07
9.68911e-07
9.68921e-07
9.6892e-07
9.68934e-07
9.68935e-07
9.68957e-07
9.68962e-07
9.68995e-07
9.69008e-07
9.69058e-07
9.69083e-07
9.6916e-07
9.69184e-07
9.69262e-07
9.69176e-07
9.69045e-07
9.68517e-07
9.67494e-07
9.66021e-07
9.59429e-07
9.60845e-07
9.61808e-07
9.62319e-07
9.62444e-07
9.62525e-07
9.62449e-07
9.62424e-07
9.6235e-07
9.62325e-07
9.62276e-07
9.62263e-07
9.62231e-07
9.62225e-07
9.62204e-07
9.62203e-07
9.62189e-07
9.6219e-07
9.62181e-07
9.62182e-07
9.62176e-07
9.62177e-07
9.62173e-07
9.62174e-07
9.62173e-07
9.62173e-07
9.62174e-07
9.62174e-07
9.62178e-07
9.62177e-07
9.62183e-07
9.62182e-07
9.62192e-07
9.62191e-07
9.62205e-07
9.62206e-07
9.62227e-07
9.62233e-07
9.62264e-07
9.62277e-07
9.62326e-07
9.62351e-07
9.62425e-07
9.6245e-07
9.62525e-07
9.62443e-07
9.62319e-07
9.61807e-07
9.60844e-07
9.59428e-07
9.53046e-07
9.54403e-07
9.55311e-07
9.55805e-07
9.55924e-07
9.56e-07
9.55928e-07
9.55902e-07
9.55831e-07
9.55805e-07
9.55758e-07
9.55745e-07
9.55714e-07
9.55708e-07
9.55688e-07
9.55686e-07
9.55673e-07
9.55673e-07
9.55665e-07
9.55666e-07
9.5566e-07
9.5566e-07
9.55657e-07
9.55658e-07
9.55657e-07
9.55657e-07
9.55658e-07
9.55658e-07
9.55661e-07
9.55661e-07
9.55667e-07
9.55666e-07
9.55675e-07
9.55675e-07
9.55688e-07
9.5569e-07
9.5571e-07
9.55716e-07
9.55746e-07
9.55759e-07
9.55806e-07
9.55831e-07
9.55902e-07
9.55928e-07
9.56e-07
9.55923e-07
9.55804e-07
9.55309e-07
9.54402e-07
9.53044e-07
9.46866e-07
9.48165e-07
9.49021e-07
9.49496e-07
9.49611e-07
9.49682e-07
9.49613e-07
9.49587e-07
9.49519e-07
9.49494e-07
9.49448e-07
9.49435e-07
9.49406e-07
9.494e-07
9.4938e-07
9.49378e-07
9.49365e-07
9.49365e-07
9.49357e-07
9.49357e-07
9.49352e-07
9.49352e-07
9.49349e-07
9.4935e-07
9.49349e-07
9.49349e-07
9.4935e-07
9.4935e-07
9.49353e-07
9.49353e-07
9.49359e-07
9.49358e-07
9.49367e-07
9.49367e-07
9.4938e-07
9.49382e-07
9.49401e-07
9.49407e-07
9.49437e-07
9.4945e-07
9.49495e-07
9.4952e-07
9.49588e-07
9.49613e-07
9.49682e-07
9.4961e-07
9.49495e-07
9.49019e-07
9.48163e-07
9.46864e-07
9.41084e-07
9.42333e-07
9.43138e-07
9.43598e-07
9.43707e-07
9.43775e-07
9.43709e-07
9.43683e-07
9.43616e-07
9.43591e-07
9.43548e-07
9.43535e-07
9.43506e-07
9.435e-07
9.43481e-07
9.43479e-07
9.43466e-07
9.43466e-07
9.43457e-07
9.43458e-07
9.43452e-07
9.43453e-07
9.4345e-07
9.4345e-07
9.43449e-07
9.4345e-07
9.43451e-07
9.4345e-07
9.43454e-07
9.43453e-07
9.43459e-07
9.43459e-07
9.43467e-07
9.43467e-07
9.4348e-07
9.43482e-07
9.43502e-07
9.43508e-07
9.43536e-07
9.43549e-07
9.43592e-07
9.43617e-07
9.43683e-07
9.43709e-07
9.43774e-07
9.43706e-07
9.43597e-07
9.43136e-07
9.42331e-07
9.41082e-07
9.35504e-07
9.36704e-07
9.37462e-07
9.37906e-07
9.3801e-07
9.38074e-07
9.3801e-07
9.37984e-07
9.37921e-07
9.37896e-07
9.37851e-07
9.37836e-07
9.37806e-07
9.37799e-07
9.37779e-07
9.37777e-07
9.37763e-07
9.37763e-07
9.37754e-07
9.37755e-07
9.37749e-07
9.37749e-07
9.37746e-07
9.37747e-07
9.37746e-07
9.37746e-07
9.37747e-07
9.37747e-07
9.3775e-07
9.3775e-07
9.37756e-07
9.37756e-07
9.37765e-07
9.37765e-07
9.37778e-07
9.37781e-07
9.37801e-07
9.37808e-07
9.37837e-07
9.37852e-07
9.37896e-07
9.37921e-07
9.37984e-07
9.3801e-07
9.38073e-07
9.38009e-07
9.37904e-07
9.3746e-07
9.36701e-07
9.35502e-07
9.29969e-07
9.31121e-07
9.31831e-07
9.32254e-07
9.32349e-07
9.32405e-07
9.3234e-07
9.32312e-07
9.32249e-07
9.32223e-07
9.32179e-07
9.32164e-07
9.32134e-07
9.32127e-07
9.32107e-07
9.32104e-07
9.32091e-07
9.3209e-07
9.32082e-07
9.32082e-07
9.32076e-07
9.32077e-07
9.32073e-07
9.32074e-07
9.32073e-07
9.32073e-07
9.32074e-07
9.32074e-07
9.32077e-07
9.32077e-07
9.32083e-07
9.32083e-07
9.32092e-07
9.32092e-07
9.32106e-07
9.32108e-07
9.32128e-07
9.32135e-07
9.32165e-07
9.3218e-07
9.32224e-07
9.32249e-07
9.32312e-07
9.3234e-07
9.32404e-07
9.32347e-07
9.32252e-07
9.31829e-07
9.31118e-07
9.29967e-07
9.24598e-07
9.25695e-07
9.26362e-07
9.26767e-07
9.26859e-07
9.26912e-07
9.26851e-07
9.26822e-07
9.26762e-07
9.26736e-07
9.26694e-07
9.26679e-07
9.2665e-07
9.26643e-07
9.26623e-07
9.2662e-07
9.26607e-07
9.26607e-07
9.26598e-07
9.26598e-07
9.26593e-07
9.26593e-07
9.2659e-07
9.2659e-07
9.26589e-07
9.26589e-07
9.26591e-07
9.2659e-07
9.26594e-07
9.26594e-07
9.26599e-07
9.26599e-07
9.26608e-07
9.26609e-07
9.26622e-07
9.26625e-07
9.26644e-07
9.26652e-07
9.2668e-07
9.26695e-07
9.26737e-07
9.26762e-07
9.26822e-07
9.2685e-07
9.2691e-07
9.26858e-07
9.26764e-07
9.2636e-07
9.25691e-07
9.24595e-07
9.19579e-07
9.20627e-07
9.21253e-07
9.21642e-07
9.21732e-07
9.2178e-07
9.21722e-07
9.21694e-07
9.21636e-07
9.2161e-07
9.2157e-07
9.21554e-07
9.21527e-07
9.21519e-07
9.215e-07
9.21497e-07
9.21484e-07
9.21483e-07
9.21475e-07
9.21475e-07
9.21469e-07
9.21469e-07
9.21466e-07
9.21466e-07
9.21466e-07
9.21466e-07
9.21467e-07
9.21467e-07
9.2147e-07
9.2147e-07
9.21476e-07
9.21476e-07
9.21484e-07
9.21485e-07
9.21498e-07
9.21501e-07
9.2152e-07
9.21528e-07
9.21555e-07
9.2157e-07
9.2161e-07
9.21635e-07
9.21693e-07
9.21721e-07
9.21779e-07
9.21729e-07
9.21639e-07
9.21251e-07
9.20623e-07
9.19575e-07
9.14736e-07
9.15742e-07
9.16328e-07
9.16698e-07
9.16767e-07
9.16804e-07
9.16736e-07
9.16703e-07
9.16642e-07
9.16614e-07
9.16573e-07
9.16556e-07
9.16528e-07
9.1652e-07
9.16501e-07
9.16497e-07
9.16484e-07
9.16483e-07
9.16475e-07
9.16474e-07
9.16469e-07
9.16469e-07
9.16466e-07
9.16466e-07
9.16465e-07
9.16465e-07
9.16466e-07
9.16466e-07
9.1647e-07
9.1647e-07
9.16475e-07
9.16476e-07
9.16484e-07
9.16486e-07
9.16498e-07
9.16502e-07
9.16521e-07
9.16529e-07
9.16557e-07
9.16573e-07
9.16614e-07
9.16641e-07
9.16702e-07
9.16735e-07
9.16802e-07
9.16765e-07
9.16695e-07
9.16325e-07
9.15738e-07
9.14732e-07
9.10074e-07
9.11035e-07
9.11583e-07
9.11937e-07
9.12002e-07
9.12036e-07
9.1197e-07
9.11936e-07
9.11877e-07
9.1185e-07
9.11809e-07
9.11793e-07
9.11765e-07
9.11757e-07
9.11738e-07
9.11734e-07
9.11722e-07
9.1172e-07
9.11712e-07
9.11712e-07
9.11706e-07
9.11706e-07
9.11703e-07
9.11703e-07
9.11702e-07
9.11702e-07
9.11704e-07
9.11703e-07
9.11707e-07
9.11707e-07
9.11713e-07
9.11713e-07
9.11722e-07
9.11723e-07
9.11736e-07
9.11739e-07
9.11758e-07
9.11766e-07
9.11794e-07
9.1181e-07
9.11849e-07
9.11876e-07
9.11935e-07
9.11968e-07
9.12034e-07
9.12e-07
9.11934e-07
9.1158e-07
9.11031e-07
9.1007e-07
9.05585e-07
9.06501e-07
9.07012e-07
9.07351e-07
9.07412e-07
9.07442e-07
9.07377e-07
9.07343e-07
9.07286e-07
9.07259e-07
9.0722e-07
9.07203e-07
9.07176e-07
9.07168e-07
9.07149e-07
9.07145e-07
9.07133e-07
9.07131e-07
9.07123e-07
9.07123e-07
9.07117e-07
9.07117e-07
9.07114e-07
9.07114e-07
9.07113e-07
9.07113e-07
9.07114e-07
9.07114e-07
9.07118e-07
9.07118e-07
9.07124e-07
9.07124e-07
9.07133e-07
9.07134e-07
9.07147e-07
9.07151e-07
9.07169e-07
9.07178e-07
9.07204e-07
9.0722e-07
9.07259e-07
9.07285e-07
9.07342e-07
9.07376e-07
9.0744e-07
9.0741e-07
9.07347e-07
9.07008e-07
9.06497e-07
9.0558e-07
9.02702e-07
9.02701e-07
9.02696e-07
9.02696e-07
9.02693e-07
9.02693e-07
9.02692e-07
9.02692e-07
9.02693e-07
9.02693e-07
9.02697e-07
9.02697e-07
9.02703e-07
9.02704e-07
9.02712e-07
9.02714e-07
9.02726e-07
9.0273e-07
9.02748e-07
9.02757e-07
9.02783e-07
9.02799e-07
9.02836e-07
9.02863e-07
9.02918e-07
9.02952e-07
9.03015e-07
9.02988e-07
9.02929e-07
9.02605e-07
9.0213e-07
9.01256e-07
8.98341e-07
8.98341e-07
8.98347e-07
8.98348e-07
8.98356e-07
8.98358e-07
8.98371e-07
8.98375e-07
8.98393e-07
8.98402e-07
8.98428e-07
8.98445e-07
8.98483e-07
8.9851e-07
8.98567e-07
8.98604e-07
8.98672e-07
8.98652e-07
8.98605e-07
8.983e-07
8.97863e-07
8.97025e-07
8.94368e-07
8.94395e-07
8.94451e-07
8.94489e-07
8.94557e-07
8.9454e-07
8.94498e-07
8.94208e-07
8.93805e-07
8.93007e-07
)
;

boundaryField
{
    fuel
    {
        type            fixedValue;
        value           nonuniform 0();
    }
    wall
    {
        type            zeroGradient;
    }
    outlet
    {
        type            zeroGradient;
    }
    frontAndBack
    {
        type            empty;
    }
    procBoundary0to1
    {
        type            processor;
        value           nonuniform List<scalar> 
50
(
1.24663e-06
1.24919e-06
1.25159e-06
1.25282e-06
1.25326e-06
1.25351e-06
1.2534e-06
1.25344e-06
1.25332e-06
1.25334e-06
1.25327e-06
1.25328e-06
1.25323e-06
1.25324e-06
1.25321e-06
1.25322e-06
1.2532e-06
1.25321e-06
1.2532e-06
1.25321e-06
1.2532e-06
1.2532e-06
1.2532e-06
1.2532e-06
1.2532e-06
1.2532e-06
1.2532e-06
1.2532e-06
1.2532e-06
1.2532e-06
1.25321e-06
1.2532e-06
1.25321e-06
1.2532e-06
1.25322e-06
1.25321e-06
1.25324e-06
1.25323e-06
1.25328e-06
1.25327e-06
1.25334e-06
1.25332e-06
1.25344e-06
1.2534e-06
1.25351e-06
1.25326e-06
1.25282e-06
1.25159e-06
1.24919e-06
1.24663e-06
)
;
    }
    procBoundary0to2
    {
        type            processor;
        value           nonuniform List<scalar> 
53
(
9.01261e-07
9.02135e-07
9.02609e-07
9.02933e-07
9.02991e-07
9.03018e-07
9.02954e-07
9.0292e-07
9.02864e-07
9.02837e-07
9.02799e-07
9.02783e-07
9.02756e-07
9.02747e-07
9.02729e-07
9.02725e-07
9.02713e-07
9.02711e-07
9.02711e-07
8.98348e-07
8.98347e-07
8.98341e-07
8.98341e-07
8.98338e-07
8.98338e-07
8.98337e-07
8.98337e-07
8.98338e-07
8.98338e-07
8.98338e-07
8.94228e-07
8.94228e-07
8.94233e-07
8.94235e-07
8.94243e-07
8.94245e-07
8.94257e-07
8.94262e-07
8.9428e-07
8.9429e-07
8.94315e-07
8.94332e-07
8.94332e-07
8.90397e-07
8.90425e-07
8.90479e-07
8.90519e-07
8.90587e-07
8.90573e-07
8.90536e-07
8.90261e-07
8.8989e-07
8.89132e-07
)
;
    }
}


// ************************************************************************* //
