/*--------------------------------*- C++ -*----------------------------------*\
| =========                 |                                                 |
| \\      /  F ield         | OpenFOAM: The Open Source CFD Toolbox           |
|  \\    /   O peration     | Version:  dev                                   |
|   \\  /    A nd           | Web:      www.OpenFOAM.org                      |
|    \\/     M anipulation  |                                                 |
\*---------------------------------------------------------------------------*/
FoamFile
{
    version     2.0;
    format      ascii;
    class       volScalarField;
    location    "0.04";
    object      C;
}
// * * * * * * * * * * * * * * * * * * * * * * * * * * * * * * * * * * * * * //

dimensions      [0 0 0 0 0 0 0];

internalField   nonuniform List<scalar> 
250
(
2.92642e-09
2.94062e-09
2.92546e-09
2.94185e-09
2.94459e-09
2.93724e-09
2.87073e-09
2.35335e-09
1.02764e-09
3.07056e-10
2.5169e-09
2.53142e-09
2.51607e-09
2.53292e-09
2.53589e-09
2.53176e-09
2.48477e-09
2.07297e-09
9.52846e-10
2.68929e-10
2.28124e-10
8.41444e-10
1.77456e-09
2.11932e-09
2.13811e-09
2.14117e-09
2.13743e-09
2.11845e-09
2.13527e-09
2.11906e-09
2.11781e-09
2.1324e-09
2.11714e-09
2.13418e-09
2.13723e-09
2.13547e-09
2.10669e-09
1.78952e-09
8.65685e-10
2.41581e-10
2.08454e-10
7.50553e-10
1.49666e-09
1.75421e-09
1.75882e-09
1.76046e-09
1.75681e-09
1.73808e-09
1.75446e-09
1.73839e-09
1.73728e-09
1.75169e-09
1.73686e-09
1.75375e-09
1.75671e-09
1.7564e-09
1.74237e-09
1.50824e-09
7.68176e-10
2.20259e-10
1.91494e-10
6.48703e-10
1.22717e-09
1.41105e-09
1.40541e-09
1.40657e-09
1.40316e-09
1.38508e-09
1.40068e-09
1.38497e-09
1.38399e-09
1.39801e-09
1.38393e-09
1.40035e-09
1.40305e-09
1.40328e-09
1.40009e-09
1.23588e-09
6.60588e-10
2.01623e-10
1.74829e-10
5.49936e-10
9.73727e-10
1.09802e-09
1.0864e-09
1.08791e-09
1.08491e-09
1.06784e-09
1.08241e-09
1.0672e-09
1.06633e-09
1.07986e-09
1.06681e-09
1.08236e-09
1.08471e-09
1.08472e-09
1.08821e-09
9.80075e-10
5.5738e-10
1.83179e-10
1.56308e-10
4.45808e-10
7.43911e-10
8.22538e-10
8.09216e-10
8.11891e-10
8.09461e-10
7.93499e-10
8.06899e-10
7.92365e-10
7.91402e-10
8.04526e-10
7.92889e-10
8.06859e-10
8.09114e-10
8.08338e-10
8.14136e-10
7.48384e-10
4.48412e-10
1.62997e-10
1.3545e-10
3.47225e-10
5.44306e-10
5.90034e-10
5.72937e-10
5.72057e-10
5.70769e-10
5.57148e-10
5.68552e-10
5.56882e-10
5.54331e-10
5.66687e-10
5.57659e-10
5.67752e-10
5.70244e-10
5.73409e-10
5.83219e-10
5.4735e-10
3.47605e-10
1.40529e-10
1.11729e-10
2.56973e-10
3.79328e-10
4.03229e-10
3.83994e-10
3.77975e-10
3.77319e-10
3.71688e-10
3.7963e-10
3.7259e-10
3.74052e-10
3.7866e-10
3.70637e-10
3.77274e-10
3.76863e-10
3.82333e-10
3.97979e-10
3.81321e-10
2.56236e-10
1.14733e-10
8.75795e-11
1.7966e-10
2.50422e-10
2.60787e-10
2.47106e-10
2.42688e-10
2.42473e-10
2.3824e-10
2.43247e-10
2.39123e-10
2.39167e-10
2.4264e-10
2.3786e-10
2.42065e-10
2.42001e-10
2.46284e-10
2.56749e-10
2.51668e-10
1.77961e-10
8.94746e-11
6.40498e-11
1.18021e-10
1.55825e-10
1.59239e-10
1.49673e-10
1.4684e-10
1.46831e-10
1.43776e-10
1.47298e-10
1.44343e-10
1.44212e-10
1.46877e-10
1.43631e-10
1.46458e-10
1.46423e-10
1.49267e-10
1.56532e-10
1.56574e-10
1.16479e-10
6.51097e-11
4.37647e-11
7.25092e-11
9.0993e-11
9.13132e-11
8.5145e-11
8.34448e-11
8.35047e-11
8.14894e-11
8.38008e-11
8.1794e-11
8.16873e-11
8.35171e-11
8.14092e-11
8.32635e-11
8.31929e-11
8.49215e-11
8.96325e-11
9.14229e-11
7.13016e-11
4.43139e-11
2.76961e-11
4.1525e-11
4.96942e-11
4.90428e-11
4.53604e-11
4.44157e-11
4.4481e-11
4.32612e-11
4.4655e-11
4.34151e-11
4.33484e-11
4.44777e-11
4.32108e-11
4.43392e-11
4.42654e-11
4.52448e-11
4.80549e-11
4.99298e-11
4.0678e-11
2.79419e-11
2.152e-11
2.21527e-11
2.1451e-11
2.20799e-11
2.20237e-11
2.25339e-11
2.40902e-11
2.54493e-11
2.15872e-11
1.62624e-11
)
;

boundaryField
{
    fuel
    {
        type            fixedValue;
        value           nonuniform 0();
    }
    wall
    {
        type            zeroGradient;
    }
    outlet
    {
        type            zeroGradient;
    }
    frontAndBack
    {
        type            empty;
    }
    procBoundary0to1
    {
        type            processor;
        value           nonuniform List<scalar> 
21
(
1.61696e-11
2.21112e-11
2.53292e-11
2.46223e-11
2.2595e-11
2.2107e-11
2.21572e-11
2.14801e-11
2.2253e-11
2.1557e-11
2.1557e-11
9.99419e-12
1.03175e-11
9.95977e-12
1.02803e-11
1.02447e-11
1.04931e-11
1.12842e-11
1.20978e-11
1.06484e-11
8.72069e-12
)
;
    }
    procBoundary0to2
    {
        type            processor;
        value           nonuniform List<scalar> 
12
(
2.92762e-09
2.54069e-10
9.20126e-10
2.0541e-09
2.49743e-09
2.53445e-09
2.53982e-09
2.53622e-09
2.51737e-09
2.53425e-09
2.51818e-09
2.51818e-09
)
;
    }
    procBoundary0to3
    {
        type            processor;
        value           nonuniform List<scalar> 10(3.33929e-09 3.35297e-09 3.33826e-09 3.35396e-09 3.35625e-09 3.34513e-09 3.2556e-09 2.66139e-09 1.09486e-09 3.54754e-10);
    }
}


// ************************************************************************* //
