/*--------------------------------*- C++ -*----------------------------------*\
| =========                 |                                                 |
| \\      /  F ield         | OpenFOAM: The Open Source CFD Toolbox           |
|  \\    /   O peration     | Version:  dev                                   |
|   \\  /    A nd           | Web:      www.OpenFOAM.org                      |
|    \\/     M anipulation  |                                                 |
\*---------------------------------------------------------------------------*/
FoamFile
{
    version     2.0;
    format      ascii;
    class       volScalarField;
    location    "0.04";
    object      c-C6H7;
}
// * * * * * * * * * * * * * * * * * * * * * * * * * * * * * * * * * * * * * //

dimensions      [0 0 0 0 0 0 0];

internalField   nonuniform List<scalar> 
250
(
2.73774e-11
2.73823e-11
2.73603e-11
2.73796e-11
2.74272e-11
2.7712e-11
2.91084e-11
3.56894e-11
7.16658e-11
2.31292e-10
2.68543e-11
2.68554e-11
2.68384e-11
2.68539e-11
2.69006e-11
2.71722e-11
2.84657e-11
3.44289e-11
6.53989e-11
1.87425e-10
1.47723e-10
6.09115e-11
3.35506e-11
2.80466e-11
2.68078e-11
2.65444e-11
2.64969e-11
2.64852e-11
2.64952e-11
2.65043e-11
2.65021e-11
2.64991e-11
2.64877e-11
2.6499e-11
2.65451e-11
2.68034e-11
2.7996e-11
3.33616e-11
5.96507e-11
1.54876e-10
1.2381e-10
5.56481e-11
3.26433e-11
2.77285e-11
2.65972e-11
2.63463e-11
2.62992e-11
2.62915e-11
2.62954e-11
2.63087e-11
2.63069e-11
2.62998e-11
2.62942e-11
2.63015e-11
2.63474e-11
2.65925e-11
2.76853e-11
3.24791e-11
5.46297e-11
1.2962e-10
1.04909e-10
5.10284e-11
3.19075e-11
2.75514e-11
2.65234e-11
2.62851e-11
2.62376e-11
2.62331e-11
2.6231e-11
2.6248e-11
2.62466e-11
2.62359e-11
2.62358e-11
2.62401e-11
2.62863e-11
2.65183e-11
2.75143e-11
3.17658e-11
5.02289e-11
1.09636e-10
8.97976e-11
4.74128e-11
3.13164e-11
2.74847e-11
2.65538e-11
2.6329e-11
2.62805e-11
2.6277e-11
2.62697e-11
2.62887e-11
2.62876e-11
2.62747e-11
2.62792e-11
2.62829e-11
2.63297e-11
2.6548e-11
2.74519e-11
3.11948e-11
4.67748e-11
9.35993e-11
7.74653e-11
4.41762e-11
3.08268e-11
2.74837e-11
2.66419e-11
2.64325e-11
2.63824e-11
2.63759e-11
2.63659e-11
2.6383e-11
2.63821e-11
2.63703e-11
2.6377e-11
2.63848e-11
2.64322e-11
2.66351e-11
2.7453e-11
3.0723e-11
4.36324e-11
8.05747e-11
6.74993e-11
4.14083e-11
3.03824e-11
2.74893e-11
2.6722e-11
2.65284e-11
2.64765e-11
2.64613e-11
2.6455e-11
2.64627e-11
2.64616e-11
2.64578e-11
2.64615e-11
2.6478e-11
2.65265e-11
2.67151e-11
2.74585e-11
3.02945e-11
4.09711e-11
6.99733e-11
5.90866e-11
3.89305e-11
2.99169e-11
2.74325e-11
2.6724e-11
2.65328e-11
2.64799e-11
2.64632e-11
2.64536e-11
2.6463e-11
2.64617e-11
2.6456e-11
2.64608e-11
2.64825e-11
2.65295e-11
2.67142e-11
2.7399e-11
2.98432e-11
3.85812e-11
6.07877e-11
5.22476e-11
3.66544e-11
2.93624e-11
2.72416e-11
2.65815e-11
2.63985e-11
2.63457e-11
2.63178e-11
2.63177e-11
2.63163e-11
2.63147e-11
2.6319e-11
2.63175e-11
2.6344e-11
2.63941e-11
2.65725e-11
2.72031e-11
2.93012e-11
3.63548e-11
5.35225e-11
4.63959e-11
3.45033e-11
2.86634e-11
2.68602e-11
2.62456e-11
2.60676e-11
2.60159e-11
2.59753e-11
2.59865e-11
2.59704e-11
2.59683e-11
2.59859e-11
2.5975e-11
2.6012e-11
2.6062e-11
2.62352e-11
2.68175e-11
2.86132e-11
3.42558e-11
4.73199e-11
4.14881e-11
3.2427e-11
2.77914e-11
2.62627e-11
2.56916e-11
2.55179e-11
2.5468e-11
2.5414e-11
2.54367e-11
2.54047e-11
2.54021e-11
2.54336e-11
2.54127e-11
2.54626e-11
2.55109e-11
2.56793e-11
2.62152e-11
2.77505e-11
3.2216e-11
4.2147e-11
3.72865e-11
3.0411e-11
2.6757e-11
2.54674e-11
2.49345e-11
2.47687e-11
2.47208e-11
2.46541e-11
2.46872e-11
2.46403e-11
2.46372e-11
2.46816e-11
2.46515e-11
2.47138e-11
2.47599e-11
2.49225e-11
2.54131e-11
2.67237e-11
3.02249e-11
3.77389e-11
2.37391e-11
2.37938e-11
2.37568e-11
2.38289e-11
2.38728e-11
2.40251e-11
2.44759e-11
2.55876e-11
2.83138e-11
3.39806e-11
)
;

boundaryField
{
    fuel
    {
        type            fixedValue;
        value           nonuniform 0();
    }
    wall
    {
        type            zeroGradient;
    }
    outlet
    {
        type            zeroGradient;
    }
    frontAndBack
    {
        type            empty;
    }
    procBoundary0to1
    {
        type            processor;
        value           nonuniform List<scalar> 
21
(
3.36893e-11
2.84793e-11
2.56156e-11
2.45326e-11
2.40378e-11
2.38825e-11
2.3837e-11
2.376e-11
2.38011e-11
2.37424e-11
2.37424e-11
2.28105e-11
2.28715e-11
2.28311e-11
2.29091e-11
2.29508e-11
2.30922e-11
2.35006e-11
2.44389e-11
2.65494e-11
3.08191e-11
)
;
    }
    procBoundary0to2
    {
        type            processor;
        value           nonuniform List<scalar> 
12
(
2.73804e-11
1.78289e-10
6.68205e-11
3.46449e-11
2.85243e-11
2.71763e-11
2.69004e-11
2.68522e-11
2.68361e-11
2.68522e-11
2.6857e-11
2.6857e-11
)
;
    }
    procBoundary0to3
    {
        type            processor;
        value           nonuniform List<scalar> 10(2.80808e-11 2.80891e-11 2.80628e-11 2.80854e-11 2.8134e-11 2.84317e-11 2.99266e-11 3.73296e-11 7.84615e-11 2.83457e-10);
    }
}


// ************************************************************************* //
