/*--------------------------------*- C++ -*----------------------------------*\
| =========                 |                                                 |
| \\      /  F ield         | OpenFOAM: The Open Source CFD Toolbox           |
|  \\    /   O peration     | Version:  dev                                   |
|   \\  /    A nd           | Web:      www.OpenFOAM.org                      |
|    \\/     M anipulation  |                                                 |
\*---------------------------------------------------------------------------*/
FoamFile
{
    version     2.0;
    format      ascii;
    class       volScalarField;
    location    "0.04";
    object      C3H2;
}
// * * * * * * * * * * * * * * * * * * * * * * * * * * * * * * * * * * * * * //

dimensions      [0 0 0 0 0 0 0];

internalField   nonuniform List<scalar> 
2014
(
1.0589e-05
1.06255e-05
1.06621e-05
1.06814e-05
1.06896e-05
1.06938e-05
1.06931e-05
1.06935e-05
1.0692e-05
1.06919e-05
1.06909e-05
1.06908e-05
1.06902e-05
1.06902e-05
1.06898e-05
1.06898e-05
1.06896e-05
1.06897e-05
1.06895e-05
1.06895e-05
1.06894e-05
1.06895e-05
1.06894e-05
1.06894e-05
1.06894e-05
1.06894e-05
1.06894e-05
1.06894e-05
1.06895e-05
1.06894e-05
1.06895e-05
1.06895e-05
1.06896e-05
1.06896e-05
1.06898e-05
1.06898e-05
1.06902e-05
1.06902e-05
1.06908e-05
1.06909e-05
1.06919e-05
1.0692e-05
1.06935e-05
1.06931e-05
1.06938e-05
1.06896e-05
1.06814e-05
1.06621e-05
1.06255e-05
1.0589e-05
1.04444e-05
1.04804e-05
1.05161e-05
1.05349e-05
1.05428e-05
1.05469e-05
1.05462e-05
1.05465e-05
1.0545e-05
1.05448e-05
1.05438e-05
1.05438e-05
1.05431e-05
1.05431e-05
1.05427e-05
1.05427e-05
1.05425e-05
1.05425e-05
1.05424e-05
1.05424e-05
1.05423e-05
1.05423e-05
1.05423e-05
1.05423e-05
1.05423e-05
1.05423e-05
1.05423e-05
1.05423e-05
1.05423e-05
1.05423e-05
1.05424e-05
1.05424e-05
1.05425e-05
1.05425e-05
1.05427e-05
1.05427e-05
1.05431e-05
1.05431e-05
1.05438e-05
1.05438e-05
1.05448e-05
1.0545e-05
1.05465e-05
1.05462e-05
1.05469e-05
1.05428e-05
1.05349e-05
1.05161e-05
1.04804e-05
1.04444e-05
1.03023e-05
1.03378e-05
1.03725e-05
1.03909e-05
1.03985e-05
1.04025e-05
1.04017e-05
1.04019e-05
1.04004e-05
1.04002e-05
1.03992e-05
1.03991e-05
1.03984e-05
1.03984e-05
1.0398e-05
1.0398e-05
1.03977e-05
1.03978e-05
1.03976e-05
1.03977e-05
1.03976e-05
1.03976e-05
1.03975e-05
1.03976e-05
1.03975e-05
1.03975e-05
1.03976e-05
1.03975e-05
1.03976e-05
1.03976e-05
1.03977e-05
1.03976e-05
1.03978e-05
1.03977e-05
1.0398e-05
1.0398e-05
1.03984e-05
1.03984e-05
1.03991e-05
1.03992e-05
1.04002e-05
1.04004e-05
1.04019e-05
1.04017e-05
1.04024e-05
1.03985e-05
1.03908e-05
1.03725e-05
1.03378e-05
1.03023e-05
1.01624e-05
1.01976e-05
1.02312e-05
1.02491e-05
1.02565e-05
1.02603e-05
1.02594e-05
1.02596e-05
1.02581e-05
1.02578e-05
1.02568e-05
1.02567e-05
1.0256e-05
1.0256e-05
1.02556e-05
1.02556e-05
1.02553e-05
1.02554e-05
1.02552e-05
1.02553e-05
1.02551e-05
1.02552e-05
1.02551e-05
1.02551e-05
1.02551e-05
1.02551e-05
1.02551e-05
1.02551e-05
1.02552e-05
1.02551e-05
1.02553e-05
1.02552e-05
1.02554e-05
1.02553e-05
1.02556e-05
1.02556e-05
1.0256e-05
1.0256e-05
1.02567e-05
1.02568e-05
1.02578e-05
1.02581e-05
1.02596e-05
1.02594e-05
1.02603e-05
1.02564e-05
1.02491e-05
1.02312e-05
1.01975e-05
1.01624e-05
1.00248e-05
1.00595e-05
1.00923e-05
1.01096e-05
1.01166e-05
1.01203e-05
1.01194e-05
1.01195e-05
1.0118e-05
1.01177e-05
1.01166e-05
1.01165e-05
1.01158e-05
1.01158e-05
1.01153e-05
1.01154e-05
1.01151e-05
1.01152e-05
1.0115e-05
1.0115e-05
1.01149e-05
1.01149e-05
1.01149e-05
1.01149e-05
1.01149e-05
1.01149e-05
1.01149e-05
1.01149e-05
1.01149e-05
1.01149e-05
1.0115e-05
1.0115e-05
1.01151e-05
1.01151e-05
1.01154e-05
1.01153e-05
1.01158e-05
1.01158e-05
1.01165e-05
1.01166e-05
1.01177e-05
1.0118e-05
1.01195e-05
1.01194e-05
1.01203e-05
1.01166e-05
1.01096e-05
1.00923e-05
1.00595e-05
1.00248e-05
9.88937e-06
9.92364e-06
9.9555e-06
9.97216e-06
9.97894e-06
9.98246e-06
9.9815e-06
9.9815e-06
9.97995e-06
9.97963e-06
9.97857e-06
9.97839e-06
9.97772e-06
9.97765e-06
9.97722e-06
9.97723e-06
9.97696e-06
9.97702e-06
9.97685e-06
9.97689e-06
9.97678e-06
9.9768e-06
9.97674e-06
9.97675e-06
9.97674e-06
9.97674e-06
9.97675e-06
9.97674e-06
9.9768e-06
9.97678e-06
9.97689e-06
9.97685e-06
9.97701e-06
9.97696e-06
9.97723e-06
9.97722e-06
9.97764e-06
9.97771e-06
9.97839e-06
9.97857e-06
9.97963e-06
9.97994e-06
9.98149e-06
9.98148e-06
9.98245e-06
9.97892e-06
9.97214e-06
9.95549e-06
9.92363e-06
9.88936e-06
9.75593e-06
9.78978e-06
9.82072e-06
9.83675e-06
9.84323e-06
9.84659e-06
9.84556e-06
9.84549e-06
9.84392e-06
9.84356e-06
9.84248e-06
9.84228e-06
9.8416e-06
9.84152e-06
9.84109e-06
9.84109e-06
9.84082e-06
9.84087e-06
9.8407e-06
9.84074e-06
9.84063e-06
9.84065e-06
9.84058e-06
9.8406e-06
9.84058e-06
9.84058e-06
9.8406e-06
9.84058e-06
9.84065e-06
9.84063e-06
9.84073e-06
9.8407e-06
9.84086e-06
9.84082e-06
9.84109e-06
9.84109e-06
9.84151e-06
9.84159e-06
9.84228e-06
9.84248e-06
9.84355e-06
9.84391e-06
9.84548e-06
9.84554e-06
9.84658e-06
9.84322e-06
9.83674e-06
9.82071e-06
9.78977e-06
9.75592e-06
9.62442e-06
9.65785e-06
9.68784e-06
9.70325e-06
9.70941e-06
9.71261e-06
9.7115e-06
9.71136e-06
9.70976e-06
9.70936e-06
9.70828e-06
9.70805e-06
9.70736e-06
9.70726e-06
9.70683e-06
9.70683e-06
9.70656e-06
9.7066e-06
9.70643e-06
9.70646e-06
9.70635e-06
9.70637e-06
9.70631e-06
9.70632e-06
9.7063e-06
9.7063e-06
9.70632e-06
9.70631e-06
9.70637e-06
9.70635e-06
9.70646e-06
9.70643e-06
9.70659e-06
9.70655e-06
9.70682e-06
9.70683e-06
9.70726e-06
9.70735e-06
9.70804e-06
9.70827e-06
9.70936e-06
9.70975e-06
9.71135e-06
9.71149e-06
9.71259e-06
9.7094e-06
9.70323e-06
9.68783e-06
9.65784e-06
9.62441e-06
9.49474e-06
9.52775e-06
9.55674e-06
9.57154e-06
9.57738e-06
9.5804e-06
9.57922e-06
9.57901e-06
9.57739e-06
9.57694e-06
9.57584e-06
9.57559e-06
9.57489e-06
9.57479e-06
9.57435e-06
9.57434e-06
9.57406e-06
9.5741e-06
9.57393e-06
9.57396e-06
9.57385e-06
9.57387e-06
9.57381e-06
9.57382e-06
9.5738e-06
9.5738e-06
9.57382e-06
9.57381e-06
9.57387e-06
9.57385e-06
9.57396e-06
9.57393e-06
9.5741e-06
9.57406e-06
9.57433e-06
9.57435e-06
9.57478e-06
9.57489e-06
9.57559e-06
9.57584e-06
9.57694e-06
9.57738e-06
9.579e-06
9.57921e-06
9.58039e-06
9.57736e-06
9.57153e-06
9.55673e-06
9.52773e-06
9.49473e-06
9.36679e-06
9.39934e-06
9.42733e-06
9.44153e-06
9.44704e-06
9.44988e-06
9.44862e-06
9.44833e-06
9.44668e-06
9.4462e-06
9.44508e-06
9.44481e-06
9.4441e-06
9.44398e-06
9.44354e-06
9.44352e-06
9.44325e-06
9.44328e-06
9.44311e-06
9.44314e-06
9.44303e-06
9.44304e-06
9.44298e-06
9.44299e-06
9.44297e-06
9.44297e-06
9.44299e-06
9.44298e-06
9.44304e-06
9.44302e-06
9.44313e-06
9.4431e-06
9.44327e-06
9.44324e-06
9.44352e-06
9.44354e-06
9.44398e-06
9.4441e-06
9.4448e-06
9.44508e-06
9.44619e-06
9.44667e-06
9.44832e-06
9.4486e-06
9.44986e-06
9.44702e-06
9.44151e-06
9.42731e-06
9.39933e-06
9.36678e-06
9.24048e-06
9.27254e-06
9.29951e-06
9.31311e-06
9.31828e-06
9.32094e-06
9.3196e-06
9.31924e-06
9.31756e-06
9.31703e-06
9.3159e-06
9.31561e-06
9.31489e-06
9.31476e-06
9.31431e-06
9.31429e-06
9.31401e-06
9.31404e-06
9.31386e-06
9.31389e-06
9.31378e-06
9.31379e-06
9.31373e-06
9.31374e-06
9.31372e-06
9.31372e-06
9.31374e-06
9.31373e-06
9.31379e-06
9.31378e-06
9.31388e-06
9.31386e-06
9.31403e-06
9.314e-06
9.31428e-06
9.31431e-06
9.31475e-06
9.31488e-06
9.3156e-06
9.3159e-06
9.31702e-06
9.31755e-06
9.31922e-06
9.31958e-06
9.32092e-06
9.31826e-06
9.3131e-06
9.29949e-06
9.27253e-06
9.24046e-06
9.11571e-06
9.14724e-06
9.17317e-06
9.18619e-06
9.19102e-06
9.19349e-06
9.19206e-06
9.19162e-06
9.18992e-06
9.18935e-06
9.18821e-06
9.18788e-06
9.18716e-06
9.18702e-06
9.18657e-06
9.18653e-06
9.18625e-06
9.18627e-06
9.1861e-06
9.18612e-06
9.18601e-06
9.18603e-06
9.18596e-06
9.18597e-06
9.18595e-06
9.18595e-06
9.18597e-06
9.18596e-06
9.18602e-06
9.18601e-06
9.18612e-06
9.1861e-06
9.18627e-06
9.18625e-06
9.18653e-06
9.18656e-06
9.18701e-06
9.18716e-06
9.18787e-06
9.1882e-06
9.18934e-06
9.1899e-06
9.19161e-06
9.19205e-06
9.19347e-06
9.191e-06
9.18618e-06
9.17315e-06
9.14723e-06
9.11569e-06
8.99239e-06
9.02334e-06
9.04824e-06
9.06068e-06
9.06516e-06
9.06743e-06
9.06592e-06
9.0654e-06
9.06367e-06
9.06306e-06
9.0619e-06
9.06156e-06
9.06083e-06
9.06067e-06
9.06022e-06
9.06017e-06
9.05989e-06
9.05991e-06
9.05973e-06
9.05975e-06
9.05964e-06
9.05965e-06
9.05959e-06
9.0596e-06
9.05958e-06
9.05958e-06
9.0596e-06
9.05959e-06
9.05965e-06
9.05964e-06
9.05975e-06
9.05973e-06
9.0599e-06
9.05988e-06
9.06017e-06
9.06021e-06
9.06066e-06
9.06082e-06
9.06155e-06
9.06189e-06
9.06305e-06
9.06366e-06
9.06539e-06
9.06591e-06
9.06741e-06
9.06514e-06
9.06066e-06
9.04822e-06
9.02332e-06
8.99238e-06
8.87046e-06
8.90074e-06
8.92461e-06
8.93649e-06
8.94062e-06
8.94269e-06
8.94109e-06
8.94049e-06
8.93873e-06
8.93808e-06
8.9369e-06
8.93653e-06
8.9358e-06
8.93563e-06
8.93517e-06
8.93512e-06
8.93484e-06
8.93485e-06
8.93467e-06
8.93469e-06
8.93458e-06
8.93459e-06
8.93452e-06
8.93453e-06
8.93451e-06
8.93451e-06
8.93453e-06
8.93452e-06
8.93459e-06
8.93457e-06
8.93468e-06
8.93467e-06
8.93484e-06
8.93483e-06
8.93511e-06
8.93516e-06
8.93562e-06
8.93579e-06
8.93652e-06
8.93689e-06
8.93807e-06
8.93871e-06
8.94048e-06
8.94108e-06
8.94267e-06
8.9406e-06
8.93647e-06
8.92459e-06
8.90072e-06
8.87044e-06
8.74981e-06
8.77935e-06
8.80221e-06
8.81353e-06
8.81731e-06
8.81917e-06
8.81749e-06
8.81681e-06
8.81501e-06
8.81432e-06
8.81313e-06
8.81274e-06
8.81199e-06
8.81181e-06
8.81135e-06
8.81129e-06
8.811e-06
8.81101e-06
8.81083e-06
8.81085e-06
8.81073e-06
8.81074e-06
8.81068e-06
8.81069e-06
8.81067e-06
8.81067e-06
8.81069e-06
8.81068e-06
8.81074e-06
8.81073e-06
8.81084e-06
8.81083e-06
8.811e-06
8.81099e-06
8.81128e-06
8.81134e-06
8.8118e-06
8.81198e-06
8.81272e-06
8.81312e-06
8.8143e-06
8.81499e-06
8.81679e-06
8.81747e-06
8.81915e-06
8.81729e-06
8.81351e-06
8.80218e-06
8.77933e-06
8.74979e-06
8.63036e-06
8.65909e-06
8.68094e-06
8.69172e-06
8.69514e-06
8.6968e-06
8.69502e-06
8.69426e-06
8.69243e-06
8.6917e-06
8.69049e-06
8.69008e-06
8.68932e-06
8.68913e-06
8.68866e-06
8.6886e-06
8.68831e-06
8.68831e-06
8.68813e-06
8.68814e-06
8.68803e-06
8.68804e-06
8.68797e-06
8.68798e-06
8.68796e-06
8.68796e-06
8.68798e-06
8.68797e-06
8.68804e-06
8.68803e-06
8.68814e-06
8.68813e-06
8.6883e-06
8.6883e-06
8.68859e-06
8.68865e-06
8.68912e-06
8.68931e-06
8.69006e-06
8.69048e-06
8.69168e-06
8.69241e-06
8.69424e-06
8.695e-06
8.69678e-06
8.69512e-06
8.6917e-06
8.68092e-06
8.65907e-06
8.63034e-06
8.51202e-06
8.53988e-06
8.56074e-06
8.57099e-06
8.57404e-06
8.57549e-06
8.57362e-06
8.57277e-06
8.57091e-06
8.57013e-06
8.56891e-06
8.56847e-06
8.56771e-06
8.5675e-06
8.56704e-06
8.56696e-06
8.56667e-06
8.56667e-06
8.56649e-06
8.5665e-06
8.56639e-06
8.56639e-06
8.56633e-06
8.56634e-06
8.56631e-06
8.56631e-06
8.56633e-06
8.56633e-06
8.56639e-06
8.56638e-06
8.56649e-06
8.56648e-06
8.56666e-06
8.56667e-06
8.56695e-06
8.56703e-06
8.56749e-06
8.5677e-06
8.56846e-06
8.5689e-06
8.57012e-06
8.57089e-06
8.57275e-06
8.5736e-06
8.57547e-06
8.57401e-06
8.57096e-06
8.56071e-06
8.53985e-06
8.512e-06
8.3947e-06
8.42164e-06
8.44151e-06
8.45124e-06
8.45392e-06
8.45516e-06
8.45319e-06
8.45226e-06
8.45036e-06
8.44955e-06
8.44831e-06
8.44785e-06
8.44708e-06
8.44686e-06
8.44639e-06
8.44631e-06
8.44602e-06
8.44601e-06
8.44583e-06
8.44584e-06
8.44572e-06
8.44573e-06
8.44566e-06
8.44567e-06
8.44565e-06
8.44565e-06
8.44567e-06
8.44566e-06
8.44572e-06
8.44572e-06
8.44583e-06
8.44582e-06
8.446e-06
8.44601e-06
8.4463e-06
8.44638e-06
8.44685e-06
8.44707e-06
8.44784e-06
8.4483e-06
8.44953e-06
8.45035e-06
8.45224e-06
8.45317e-06
8.45514e-06
8.45389e-06
8.45121e-06
8.44148e-06
8.42162e-06
8.39468e-06
8.27832e-06
8.30431e-06
8.32317e-06
8.33239e-06
8.33471e-06
8.33574e-06
8.33367e-06
8.33265e-06
8.33072e-06
8.32987e-06
8.32861e-06
8.32813e-06
8.32736e-06
8.32712e-06
8.32665e-06
8.32656e-06
8.32627e-06
8.32625e-06
8.32607e-06
8.32607e-06
8.32596e-06
8.32596e-06
8.3259e-06
8.3259e-06
8.32588e-06
8.32588e-06
8.3259e-06
8.3259e-06
8.32596e-06
8.32595e-06
8.32607e-06
8.32606e-06
8.32624e-06
8.32626e-06
8.32655e-06
8.32664e-06
8.32711e-06
8.32735e-06
8.32812e-06
8.3286e-06
8.32985e-06
8.33071e-06
8.33263e-06
8.33365e-06
8.33572e-06
8.33468e-06
8.33237e-06
8.32315e-06
8.30428e-06
8.2783e-06
8.16278e-06
8.18781e-06
8.20565e-06
8.21438e-06
8.21632e-06
8.21714e-06
8.21497e-06
8.21387e-06
8.2119e-06
8.21101e-06
8.20974e-06
8.20924e-06
8.20845e-06
8.20821e-06
8.20773e-06
8.20763e-06
8.20734e-06
8.20732e-06
8.20713e-06
8.20713e-06
8.20702e-06
8.20702e-06
8.20696e-06
8.20696e-06
8.20694e-06
8.20694e-06
8.20696e-06
8.20695e-06
8.20702e-06
8.20701e-06
8.20713e-06
8.20713e-06
8.20731e-06
8.20732e-06
8.20762e-06
8.20772e-06
8.20819e-06
8.20844e-06
8.20922e-06
8.20972e-06
8.21099e-06
8.21189e-06
8.21385e-06
8.21495e-06
8.21712e-06
8.21629e-06
8.21435e-06
8.20562e-06
8.18778e-06
8.16276e-06
8.048e-06
8.07207e-06
8.08886e-06
8.09711e-06
8.09869e-06
8.09929e-06
8.09702e-06
8.09583e-06
8.09383e-06
8.09289e-06
8.09161e-06
8.09108e-06
8.09029e-06
8.09003e-06
8.08955e-06
8.08945e-06
8.08915e-06
8.08913e-06
8.08894e-06
8.08894e-06
8.08882e-06
8.08883e-06
8.08876e-06
8.08877e-06
8.08874e-06
8.08874e-06
8.08876e-06
8.08876e-06
8.08882e-06
8.08882e-06
8.08893e-06
8.08893e-06
8.08912e-06
8.08914e-06
8.08944e-06
8.08954e-06
8.09002e-06
8.09028e-06
8.09107e-06
8.09159e-06
8.09287e-06
8.09381e-06
8.09581e-06
8.09699e-06
8.09926e-06
8.09866e-06
8.09708e-06
8.08884e-06
8.07204e-06
8.04798e-06
7.93389e-06
7.95701e-06
7.97273e-06
7.98051e-06
7.98172e-06
7.98211e-06
7.97973e-06
7.97845e-06
7.97642e-06
7.97544e-06
7.97414e-06
7.9736e-06
7.9728e-06
7.97253e-06
7.97204e-06
7.97193e-06
7.97163e-06
7.97161e-06
7.97142e-06
7.97141e-06
7.9713e-06
7.9713e-06
7.97123e-06
7.97124e-06
7.97121e-06
7.97121e-06
7.97123e-06
7.97123e-06
7.97129e-06
7.97129e-06
7.97141e-06
7.97141e-06
7.9716e-06
7.97162e-06
7.97192e-06
7.97203e-06
7.97252e-06
7.97279e-06
7.97358e-06
7.97413e-06
7.97542e-06
7.9764e-06
7.97843e-06
7.9797e-06
7.98208e-06
7.98169e-06
7.98048e-06
7.9727e-06
7.95698e-06
7.93386e-06
7.82035e-06
7.84251e-06
7.85723e-06
7.8645e-06
7.86535e-06
7.86551e-06
7.86303e-06
7.86167e-06
7.8596e-06
7.85858e-06
7.85726e-06
7.8567e-06
7.85589e-06
7.85561e-06
7.85512e-06
7.85501e-06
7.8547e-06
7.85467e-06
7.85448e-06
7.85448e-06
7.85436e-06
7.85436e-06
7.85429e-06
7.85429e-06
7.85427e-06
7.85427e-06
7.85429e-06
7.85429e-06
7.85435e-06
7.85435e-06
7.85447e-06
7.85447e-06
7.85466e-06
7.85469e-06
7.85499e-06
7.85511e-06
7.8556e-06
7.85588e-06
7.85668e-06
7.85725e-06
7.85856e-06
7.85957e-06
7.86164e-06
7.863e-06
7.86548e-06
7.86532e-06
7.86447e-06
7.8572e-06
7.84247e-06
7.82032e-06
7.70731e-06
7.72852e-06
7.74223e-06
7.74899e-06
7.74948e-06
7.74942e-06
7.74683e-06
7.74538e-06
7.74328e-06
7.74222e-06
7.74089e-06
7.7403e-06
7.73949e-06
7.7392e-06
7.73871e-06
7.73859e-06
7.73828e-06
7.73825e-06
7.73805e-06
7.73804e-06
7.73793e-06
7.73793e-06
7.73786e-06
7.73786e-06
7.73784e-06
7.73784e-06
7.73786e-06
7.73786e-06
7.73792e-06
7.73792e-06
7.73804e-06
7.73804e-06
7.73823e-06
7.73827e-06
7.73857e-06
7.73869e-06
7.73919e-06
7.73948e-06
7.74029e-06
7.74087e-06
7.7422e-06
7.74325e-06
7.74536e-06
7.74681e-06
7.74939e-06
7.74945e-06
7.74896e-06
7.74221e-06
7.72848e-06
7.70728e-06
7.59468e-06
7.61496e-06
7.62765e-06
7.63391e-06
7.63404e-06
7.63376e-06
7.63106e-06
7.62952e-06
7.62738e-06
7.62628e-06
7.62494e-06
7.62434e-06
7.62352e-06
7.62322e-06
7.62272e-06
7.62259e-06
7.62229e-06
7.62225e-06
7.62205e-06
7.62204e-06
7.62192e-06
7.62192e-06
7.62185e-06
7.62185e-06
7.62183e-06
7.62183e-06
7.62185e-06
7.62185e-06
7.62192e-06
7.62192e-06
7.62203e-06
7.62204e-06
7.62223e-06
7.62227e-06
7.62258e-06
7.62271e-06
7.6232e-06
7.6235e-06
7.62432e-06
7.62492e-06
7.62626e-06
7.62736e-06
7.6295e-06
7.63104e-06
7.63372e-06
7.634e-06
7.63388e-06
7.62762e-06
7.61492e-06
7.59465e-06
7.48239e-06
7.50175e-06
7.5134e-06
7.51916e-06
7.51894e-06
7.51843e-06
7.51564e-06
7.514e-06
7.51183e-06
7.51069e-06
7.50934e-06
7.50871e-06
7.50789e-06
7.50758e-06
7.50708e-06
7.50694e-06
7.50663e-06
7.50659e-06
7.50639e-06
7.50638e-06
7.50626e-06
7.50626e-06
7.50619e-06
7.50619e-06
7.50617e-06
7.50617e-06
7.50619e-06
7.50619e-06
7.50625e-06
7.50626e-06
7.50637e-06
7.50639e-06
7.50658e-06
7.50662e-06
7.50693e-06
7.50706e-06
7.50756e-06
7.50787e-06
7.50869e-06
7.50932e-06
7.51067e-06
7.51181e-06
7.51398e-06
7.51561e-06
7.5184e-06
7.5189e-06
7.51913e-06
7.51337e-06
7.50171e-06
7.48236e-06
7.37418e-06
7.39278e-06
7.40337e-06
7.40871e-06
7.40812e-06
7.40741e-06
7.40449e-06
7.40277e-06
7.40056e-06
7.39939e-06
7.39801e-06
7.39737e-06
7.39654e-06
7.39622e-06
7.39571e-06
7.39558e-06
7.39526e-06
7.39522e-06
7.39502e-06
7.395e-06
7.39488e-06
7.39488e-06
7.39481e-06
7.39481e-06
7.39479e-06
7.39479e-06
7.39481e-06
7.39481e-06
7.39487e-06
7.39488e-06
7.395e-06
7.39501e-06
7.3952e-06
7.39525e-06
7.39556e-06
7.3957e-06
7.3962e-06
7.39653e-06
7.39735e-06
7.39799e-06
7.39936e-06
7.40053e-06
7.40275e-06
7.40446e-06
7.40737e-06
7.40809e-06
7.40867e-06
7.40334e-06
7.39275e-06
7.37414e-06
7.26453e-06
7.2825e-06
7.29173e-06
7.29645e-06
7.29527e-06
7.29419e-06
7.29101e-06
7.28913e-06
7.28681e-06
7.28556e-06
7.28414e-06
7.28347e-06
7.28261e-06
7.28227e-06
7.28175e-06
7.2816e-06
7.28129e-06
7.28123e-06
7.28103e-06
7.28101e-06
7.28089e-06
7.28089e-06
7.28082e-06
7.28082e-06
7.28079e-06
7.28079e-06
7.28081e-06
7.28081e-06
7.28088e-06
7.28088e-06
7.28101e-06
7.28102e-06
7.28122e-06
7.28127e-06
7.28159e-06
7.28174e-06
7.28226e-06
7.28259e-06
7.28344e-06
7.28412e-06
7.28553e-06
7.28678e-06
7.2891e-06
7.29098e-06
7.29416e-06
7.29523e-06
7.29641e-06
7.29169e-06
7.28246e-06
7.2645e-06
7.15318e-06
7.17029e-06
7.17841e-06
7.18267e-06
7.18112e-06
7.17981e-06
7.17651e-06
7.17454e-06
7.17218e-06
7.17089e-06
7.16946e-06
7.16876e-06
7.16791e-06
7.16756e-06
7.16703e-06
7.16688e-06
7.16656e-06
7.1665e-06
7.1663e-06
7.16628e-06
7.16615e-06
7.16615e-06
7.16608e-06
7.16608e-06
7.16606e-06
7.16605e-06
7.16608e-06
7.16608e-06
7.16614e-06
7.16615e-06
7.16627e-06
7.16629e-06
7.16649e-06
7.16654e-06
7.16686e-06
7.16702e-06
7.16754e-06
7.16789e-06
7.16874e-06
7.16944e-06
7.17086e-06
7.17215e-06
7.17451e-06
7.17648e-06
7.17978e-06
7.18108e-06
7.18263e-06
7.17837e-06
7.17026e-06
7.15314e-06
7.04185e-06
7.05811e-06
7.06513e-06
7.06891e-06
7.06701e-06
7.06547e-06
7.06206e-06
7.05998e-06
7.05759e-06
7.05626e-06
7.05482e-06
7.0541e-06
7.05324e-06
7.05288e-06
7.05236e-06
7.0522e-06
7.05187e-06
7.05181e-06
7.05161e-06
7.05158e-06
7.05146e-06
7.05145e-06
7.05138e-06
7.05138e-06
7.05136e-06
7.05136e-06
7.05138e-06
7.05138e-06
7.05145e-06
7.05145e-06
7.05158e-06
7.0516e-06
7.0518e-06
7.05186e-06
7.05218e-06
7.05234e-06
7.05286e-06
7.05322e-06
7.05408e-06
7.05479e-06
7.05623e-06
7.05756e-06
7.05995e-06
7.06203e-06
7.06544e-06
7.06697e-06
7.06888e-06
7.0651e-06
7.05807e-06
7.04181e-06
6.93047e-06
6.94585e-06
6.95183e-06
6.95511e-06
6.95286e-06
6.95109e-06
6.94755e-06
6.94538e-06
6.94295e-06
6.94158e-06
6.94013e-06
6.9394e-06
6.93853e-06
6.93816e-06
6.93764e-06
6.93747e-06
6.93715e-06
6.93708e-06
6.93687e-06
6.93685e-06
6.93673e-06
6.93672e-06
6.93665e-06
6.93664e-06
6.93662e-06
6.93662e-06
6.93664e-06
6.93664e-06
6.93671e-06
6.93672e-06
6.93684e-06
6.93686e-06
6.93706e-06
6.93713e-06
6.93745e-06
6.93762e-06
6.93814e-06
6.93851e-06
6.93937e-06
6.9401e-06
6.94155e-06
6.94292e-06
6.94535e-06
6.94752e-06
6.95105e-06
6.95281e-06
6.95507e-06
6.95179e-06
6.94581e-06
6.93043e-06
6.82267e-06
6.83731e-06
6.84225e-06
6.84508e-06
6.84247e-06
6.84048e-06
6.8368e-06
6.83455e-06
6.83207e-06
6.83066e-06
6.8292e-06
6.82845e-06
6.82758e-06
6.82721e-06
6.82668e-06
6.8265e-06
6.82618e-06
6.82611e-06
6.8259e-06
6.82587e-06
6.82575e-06
6.82574e-06
6.82567e-06
6.82567e-06
6.82564e-06
6.82564e-06
6.82567e-06
6.82567e-06
6.82574e-06
6.82574e-06
6.82587e-06
6.82589e-06
6.82609e-06
6.82616e-06
6.82648e-06
6.82666e-06
6.82719e-06
6.82756e-06
6.82843e-06
6.82917e-06
6.83063e-06
6.83204e-06
6.83452e-06
6.83677e-06
6.84044e-06
6.84242e-06
6.84504e-06
6.84221e-06
6.83727e-06
6.82263e-06
6.71489e-06
6.72879e-06
6.73271e-06
6.73508e-06
6.73211e-06
6.72991e-06
6.72609e-06
6.72375e-06
6.72123e-06
6.71978e-06
6.71826e-06
6.71746e-06
6.71653e-06
6.71613e-06
6.71557e-06
6.71539e-06
6.71505e-06
6.71498e-06
6.71475e-06
6.71473e-06
6.7146e-06
6.71459e-06
6.71451e-06
6.71451e-06
6.71449e-06
6.71449e-06
6.71451e-06
6.71451e-06
6.71458e-06
6.71459e-06
6.71472e-06
6.71475e-06
6.71496e-06
6.71503e-06
6.71537e-06
6.71555e-06
6.71611e-06
6.71651e-06
6.71743e-06
6.71823e-06
6.71975e-06
6.7212e-06
6.72372e-06
6.72606e-06
6.72987e-06
6.73206e-06
6.73504e-06
6.73268e-06
6.72875e-06
6.71485e-06
6.60392e-06
6.61709e-06
6.61997e-06
6.62176e-06
6.61831e-06
6.61581e-06
6.61177e-06
6.60929e-06
6.60669e-06
6.60518e-06
6.60362e-06
6.6028e-06
6.60186e-06
6.60144e-06
6.60087e-06
6.60068e-06
6.60034e-06
6.60026e-06
6.60003e-06
6.6e-06
6.59987e-06
6.59986e-06
6.59979e-06
6.59978e-06
6.59976e-06
6.59976e-06
6.59978e-06
6.59978e-06
6.59985e-06
6.59986e-06
6.6e-06
6.60003e-06
6.60024e-06
6.60032e-06
6.60066e-06
6.60085e-06
6.60142e-06
6.60184e-06
6.60277e-06
6.6036e-06
6.60515e-06
6.60666e-06
6.60926e-06
6.61174e-06
6.61578e-06
6.61827e-06
6.62173e-06
6.61994e-06
6.61706e-06
6.60388e-06
6.49207e-06
6.50436e-06
6.50627e-06
6.50754e-06
6.50374e-06
6.50103e-06
6.49685e-06
6.49428e-06
6.49163e-06
6.49009e-06
6.48852e-06
6.48768e-06
6.48673e-06
6.48631e-06
6.48574e-06
6.48554e-06
6.48519e-06
6.48511e-06
6.48489e-06
6.48485e-06
6.48472e-06
6.48471e-06
6.48463e-06
6.48463e-06
6.4846e-06
6.4846e-06
6.48463e-06
6.48463e-06
6.4847e-06
6.48471e-06
6.48485e-06
6.48488e-06
6.48509e-06
6.48517e-06
6.48552e-06
6.48572e-06
6.48629e-06
6.48671e-06
6.48765e-06
6.4885e-06
6.49006e-06
6.4916e-06
6.49425e-06
6.49682e-06
6.501e-06
6.5037e-06
6.50751e-06
6.50624e-06
6.50432e-06
6.49204e-06
6.38348e-06
6.395e-06
6.39595e-06
6.39675e-06
6.39259e-06
6.38968e-06
6.38534e-06
6.38268e-06
6.37999e-06
6.37841e-06
6.37683e-06
6.37596e-06
6.37501e-06
6.37458e-06
6.37401e-06
6.37381e-06
6.37345e-06
6.37337e-06
6.37314e-06
6.37311e-06
6.37297e-06
6.37296e-06
6.37289e-06
6.37288e-06
6.37285e-06
6.37285e-06
6.37288e-06
6.37288e-06
6.37296e-06
6.37297e-06
6.3731e-06
6.37314e-06
6.37335e-06
6.37343e-06
6.37379e-06
6.37399e-06
6.37456e-06
6.375e-06
6.37594e-06
6.3768e-06
6.37838e-06
6.37996e-06
6.38264e-06
6.38531e-06
6.38965e-06
6.39255e-06
6.39671e-06
6.39592e-06
6.39497e-06
6.38344e-06
6.27449e-06
6.28537e-06
6.28538e-06
6.28564e-06
6.28067e-06
6.27738e-06
6.2726e-06
6.26973e-06
6.26687e-06
6.26521e-06
6.26356e-06
6.26266e-06
6.26167e-06
6.26122e-06
6.26063e-06
6.26042e-06
6.26006e-06
6.25997e-06
6.25973e-06
6.2597e-06
6.25956e-06
6.25955e-06
6.25947e-06
6.25946e-06
6.25944e-06
6.25944e-06
6.25946e-06
6.25947e-06
6.25954e-06
6.25955e-06
6.25969e-06
6.25973e-06
6.25995e-06
6.26004e-06
6.2604e-06
6.26061e-06
6.2612e-06
6.26165e-06
6.26264e-06
6.26354e-06
6.26518e-06
6.26685e-06
6.26971e-06
6.27257e-06
6.27736e-06
6.28064e-06
6.28562e-06
6.28535e-06
6.28534e-06
6.27446e-06
6.16528e-06
6.17542e-06
6.17448e-06
6.17426e-06
6.16893e-06
6.16543e-06
6.16045e-06
6.1575e-06
6.15458e-06
6.15288e-06
6.15122e-06
6.1503e-06
6.14931e-06
6.14884e-06
6.14825e-06
6.14803e-06
6.14767e-06
6.14758e-06
6.14734e-06
6.1473e-06
6.14716e-06
6.14715e-06
6.14707e-06
6.14707e-06
6.14704e-06
6.14704e-06
6.14706e-06
6.14707e-06
6.14714e-06
6.14716e-06
6.1473e-06
6.14734e-06
6.14756e-06
6.14765e-06
6.14801e-06
6.14823e-06
6.14883e-06
6.14929e-06
6.15028e-06
6.1512e-06
6.15286e-06
6.15456e-06
6.15747e-06
6.16042e-06
6.16541e-06
6.1689e-06
6.17424e-06
6.17445e-06
6.17539e-06
6.16525e-06
6.05568e-06
6.06507e-06
6.06322e-06
6.06249e-06
6.05684e-06
6.05312e-06
6.04793e-06
6.0449e-06
6.04193e-06
6.04019e-06
6.03851e-06
6.03757e-06
6.03658e-06
6.0361e-06
6.0355e-06
6.03529e-06
6.03492e-06
6.03482e-06
6.03458e-06
6.03454e-06
6.03441e-06
6.03439e-06
6.03431e-06
6.03431e-06
6.03428e-06
6.03428e-06
6.0343e-06
6.03431e-06
6.03439e-06
6.0344e-06
6.03454e-06
6.03458e-06
6.03481e-06
6.0349e-06
6.03527e-06
6.03549e-06
6.03609e-06
6.03656e-06
6.03755e-06
6.03849e-06
6.04016e-06
6.0419e-06
6.04487e-06
6.0479e-06
6.05311e-06
6.0568e-06
6.06247e-06
6.06319e-06
6.06504e-06
6.05566e-06
5.92142e-06
5.92138e-06
5.92124e-06
5.92122e-06
5.92114e-06
5.92114e-06
5.92111e-06
5.92111e-06
5.92113e-06
5.92114e-06
5.92122e-06
5.92123e-06
5.92138e-06
5.92142e-06
5.92164e-06
5.92174e-06
5.92211e-06
5.92233e-06
5.92294e-06
5.92342e-06
5.92442e-06
5.92537e-06
5.92706e-06
5.92883e-06
5.93187e-06
5.93497e-06
5.94041e-06
5.94431e-06
5.95028e-06
5.95151e-06
5.95427e-06
5.94563e-06
5.80501e-06
5.80502e-06
5.80517e-06
5.80521e-06
5.80544e-06
5.80554e-06
5.80592e-06
5.80615e-06
5.80677e-06
5.80726e-06
5.80829e-06
5.80927e-06
5.81101e-06
5.81284e-06
5.81601e-06
5.81927e-06
5.82508e-06
5.82935e-06
5.83576e-06
5.83766e-06
5.84142e-06
5.83333e-06
5.6968e-06
5.69866e-06
5.70191e-06
5.70526e-06
5.7113e-06
5.7158e-06
5.72248e-06
5.7249e-06
5.72956e-06
5.72219e-06
)
;

boundaryField
{
    fuel
    {
        type            fixedValue;
        value           nonuniform 0();
    }
    wall
    {
        type            zeroGradient;
    }
    outlet
    {
        type            zeroGradient;
    }
    frontAndBack
    {
        type            empty;
    }
    procBoundary0to1
    {
        type            processor;
        value           nonuniform List<scalar> 
50
(
1.07361e-05
1.07732e-05
1.08106e-05
1.08304e-05
1.08388e-05
1.08432e-05
1.08425e-05
1.08429e-05
1.08415e-05
1.08414e-05
1.08404e-05
1.08404e-05
1.08398e-05
1.08398e-05
1.08394e-05
1.08394e-05
1.08392e-05
1.08392e-05
1.08391e-05
1.08391e-05
1.0839e-05
1.08391e-05
1.0839e-05
1.0839e-05
1.0839e-05
1.0839e-05
1.0839e-05
1.0839e-05
1.08391e-05
1.0839e-05
1.08391e-05
1.08391e-05
1.08392e-05
1.08392e-05
1.08394e-05
1.08394e-05
1.08398e-05
1.08398e-05
1.08404e-05
1.08404e-05
1.08414e-05
1.08415e-05
1.08429e-05
1.08425e-05
1.08432e-05
1.08388e-05
1.08304e-05
1.08106e-05
1.07732e-05
1.07361e-05
)
;
    }
    procBoundary0to2
    {
        type            processor;
        value           nonuniform List<scalar> 
53
(
5.94565e-06
5.9543e-06
5.95153e-06
5.9503e-06
5.94435e-06
5.94042e-06
5.93499e-06
5.93189e-06
5.92885e-06
5.92708e-06
5.92539e-06
5.92443e-06
5.92343e-06
5.92295e-06
5.92234e-06
5.92212e-06
5.92175e-06
5.92165e-06
5.92165e-06
5.80521e-06
5.80517e-06
5.80503e-06
5.80501e-06
5.80493e-06
5.80492e-06
5.80489e-06
5.80489e-06
5.80492e-06
5.80493e-06
5.80493e-06
5.69073e-06
5.69075e-06
5.69089e-06
5.69093e-06
5.69117e-06
5.69127e-06
5.69165e-06
5.69189e-06
5.69251e-06
5.69301e-06
5.69405e-06
5.69505e-06
5.69505e-06
5.58206e-06
5.58395e-06
5.58729e-06
5.59075e-06
5.59698e-06
5.60171e-06
5.60867e-06
5.6116e-06
5.61716e-06
5.61049e-06
)
;
    }
}


// ************************************************************************* //
