/*--------------------------------*- C++ -*----------------------------------*\
| =========                 |                                                 |
| \\      /  F ield         | OpenFOAM: The Open Source CFD Toolbox           |
|  \\    /   O peration     | Version:  dev                                   |
|   \\  /    A nd           | Web:      www.OpenFOAM.org                      |
|    \\/     M anipulation  |                                                 |
\*---------------------------------------------------------------------------*/
FoamFile
{
    version     2.0;
    format      ascii;
    class       volScalarField;
    location    "0.04";
    object      C4H;
}
// * * * * * * * * * * * * * * * * * * * * * * * * * * * * * * * * * * * * * //

dimensions      [0 0 0 0 0 0 0];

internalField   nonuniform List<scalar> 
2014
(
2.41993e-08
2.43518e-08
2.45057e-08
2.45875e-08
2.46224e-08
2.46404e-08
2.46378e-08
2.46391e-08
2.46331e-08
2.46326e-08
2.46284e-08
2.46281e-08
2.46254e-08
2.46253e-08
2.46236e-08
2.46238e-08
2.46227e-08
2.4623e-08
2.46224e-08
2.46226e-08
2.46221e-08
2.46222e-08
2.4622e-08
2.4622e-08
2.4622e-08
2.4622e-08
2.4622e-08
2.4622e-08
2.46222e-08
2.46221e-08
2.46226e-08
2.46223e-08
2.4623e-08
2.46227e-08
2.46238e-08
2.46236e-08
2.46253e-08
2.46253e-08
2.46281e-08
2.46283e-08
2.46325e-08
2.46331e-08
2.46391e-08
2.46377e-08
2.46403e-08
2.46224e-08
2.45874e-08
2.45056e-08
2.43518e-08
2.41993e-08
2.36079e-08
2.37563e-08
2.39047e-08
2.39835e-08
2.40169e-08
2.40341e-08
2.40313e-08
2.40324e-08
2.40263e-08
2.40256e-08
2.40214e-08
2.40211e-08
2.40183e-08
2.40182e-08
2.40165e-08
2.40167e-08
2.40156e-08
2.40159e-08
2.40152e-08
2.40154e-08
2.4015e-08
2.40151e-08
2.40148e-08
2.40149e-08
2.40148e-08
2.40148e-08
2.40149e-08
2.40148e-08
2.40151e-08
2.4015e-08
2.40154e-08
2.40152e-08
2.40159e-08
2.40156e-08
2.40167e-08
2.40165e-08
2.40182e-08
2.40183e-08
2.4021e-08
2.40214e-08
2.40256e-08
2.40263e-08
2.40323e-08
2.40312e-08
2.4034e-08
2.40168e-08
2.39834e-08
2.39046e-08
2.37562e-08
2.36079e-08
2.30346e-08
2.31792e-08
2.3322e-08
2.33978e-08
2.34297e-08
2.34461e-08
2.34431e-08
2.34439e-08
2.34379e-08
2.3437e-08
2.34328e-08
2.34323e-08
2.34296e-08
2.34295e-08
2.34278e-08
2.34279e-08
2.34268e-08
2.34271e-08
2.34264e-08
2.34266e-08
2.34262e-08
2.34263e-08
2.3426e-08
2.34261e-08
2.3426e-08
2.3426e-08
2.34261e-08
2.3426e-08
2.34263e-08
2.34262e-08
2.34266e-08
2.34264e-08
2.34271e-08
2.34268e-08
2.34279e-08
2.34278e-08
2.34295e-08
2.34296e-08
2.34323e-08
2.34328e-08
2.3437e-08
2.34378e-08
2.34439e-08
2.34431e-08
2.34461e-08
2.34296e-08
2.33977e-08
2.33219e-08
2.31792e-08
2.30345e-08
2.24779e-08
2.26193e-08
2.27561e-08
2.2829e-08
2.28594e-08
2.28751e-08
2.28719e-08
2.28724e-08
2.28663e-08
2.28653e-08
2.28611e-08
2.28605e-08
2.28578e-08
2.28576e-08
2.28559e-08
2.2856e-08
2.28549e-08
2.28552e-08
2.28545e-08
2.28547e-08
2.28542e-08
2.28543e-08
2.28541e-08
2.28541e-08
2.28541e-08
2.28541e-08
2.28541e-08
2.28541e-08
2.28543e-08
2.28542e-08
2.28547e-08
2.28545e-08
2.28551e-08
2.28549e-08
2.2856e-08
2.28559e-08
2.28576e-08
2.28578e-08
2.28605e-08
2.28611e-08
2.28653e-08
2.28663e-08
2.28723e-08
2.28718e-08
2.2875e-08
2.28593e-08
2.2829e-08
2.27561e-08
2.26192e-08
2.24779e-08
2.19368e-08
2.20748e-08
2.22063e-08
2.2276e-08
2.23049e-08
2.23197e-08
2.23163e-08
2.23165e-08
2.23105e-08
2.23093e-08
2.23051e-08
2.23044e-08
2.23017e-08
2.23014e-08
2.22998e-08
2.22998e-08
2.22987e-08
2.2299e-08
2.22983e-08
2.22985e-08
2.2298e-08
2.22981e-08
2.22979e-08
2.22979e-08
2.22978e-08
2.22978e-08
2.22979e-08
2.22979e-08
2.22981e-08
2.2298e-08
2.22984e-08
2.22983e-08
2.22989e-08
2.22987e-08
2.22998e-08
2.22997e-08
2.23014e-08
2.23017e-08
2.23044e-08
2.2305e-08
2.23092e-08
2.23104e-08
2.23165e-08
2.23163e-08
2.23197e-08
2.23048e-08
2.22759e-08
2.22062e-08
2.20747e-08
2.19367e-08
2.14101e-08
2.15448e-08
2.16712e-08
2.17376e-08
2.1765e-08
2.17791e-08
2.17754e-08
2.17753e-08
2.17692e-08
2.17679e-08
2.17637e-08
2.17629e-08
2.17602e-08
2.17599e-08
2.17583e-08
2.17583e-08
2.17572e-08
2.17574e-08
2.17567e-08
2.17569e-08
2.17565e-08
2.17565e-08
2.17563e-08
2.17563e-08
2.17563e-08
2.17563e-08
2.17563e-08
2.17563e-08
2.17565e-08
2.17565e-08
2.17569e-08
2.17567e-08
2.17574e-08
2.17572e-08
2.17582e-08
2.17582e-08
2.17599e-08
2.17602e-08
2.17629e-08
2.17637e-08
2.17679e-08
2.17692e-08
2.17753e-08
2.17754e-08
2.1779e-08
2.17649e-08
2.17376e-08
2.16712e-08
2.15448e-08
2.14101e-08
2.08971e-08
2.10285e-08
2.11499e-08
2.1213e-08
2.12389e-08
2.12521e-08
2.12482e-08
2.12479e-08
2.12417e-08
2.12402e-08
2.1236e-08
2.12352e-08
2.12325e-08
2.12321e-08
2.12305e-08
2.12304e-08
2.12294e-08
2.12296e-08
2.12289e-08
2.1229e-08
2.12286e-08
2.12287e-08
2.12284e-08
2.12285e-08
2.12284e-08
2.12284e-08
2.12285e-08
2.12284e-08
2.12287e-08
2.12286e-08
2.1229e-08
2.12289e-08
2.12295e-08
2.12294e-08
2.12304e-08
2.12304e-08
2.12321e-08
2.12325e-08
2.12351e-08
2.1236e-08
2.12402e-08
2.12417e-08
2.12478e-08
2.12482e-08
2.12521e-08
2.12388e-08
2.1213e-08
2.11498e-08
2.10285e-08
2.0897e-08
2.03968e-08
2.05251e-08
2.06414e-08
2.07014e-08
2.07257e-08
2.07381e-08
2.0734e-08
2.07333e-08
2.07272e-08
2.07255e-08
2.07213e-08
2.07204e-08
2.07177e-08
2.07173e-08
2.07156e-08
2.07155e-08
2.07145e-08
2.07146e-08
2.0714e-08
2.07141e-08
2.07137e-08
2.07138e-08
2.07135e-08
2.07136e-08
2.07135e-08
2.07135e-08
2.07136e-08
2.07135e-08
2.07138e-08
2.07137e-08
2.07141e-08
2.0714e-08
2.07146e-08
2.07145e-08
2.07155e-08
2.07156e-08
2.07172e-08
2.07176e-08
2.07203e-08
2.07213e-08
2.07255e-08
2.07271e-08
2.07333e-08
2.07339e-08
2.0738e-08
2.07256e-08
2.07013e-08
2.06413e-08
2.05251e-08
2.03968e-08
1.99087e-08
2.00338e-08
2.0145e-08
2.02019e-08
2.02247e-08
2.02363e-08
2.02319e-08
2.0231e-08
2.02248e-08
2.0223e-08
2.02187e-08
2.02177e-08
2.0215e-08
2.02146e-08
2.02129e-08
2.02128e-08
2.02118e-08
2.02119e-08
2.02113e-08
2.02114e-08
2.0211e-08
2.0211e-08
2.02108e-08
2.02108e-08
2.02107e-08
2.02107e-08
2.02108e-08
2.02108e-08
2.0211e-08
2.02109e-08
2.02114e-08
2.02112e-08
2.02119e-08
2.02118e-08
2.02128e-08
2.02129e-08
2.02145e-08
2.0215e-08
2.02177e-08
2.02187e-08
2.02229e-08
2.02247e-08
2.02309e-08
2.02318e-08
2.02362e-08
2.02246e-08
2.02019e-08
2.01449e-08
2.00338e-08
1.99086e-08
1.9432e-08
1.9554e-08
1.966e-08
1.9714e-08
1.97352e-08
1.9746e-08
1.97413e-08
1.97401e-08
1.97339e-08
1.97319e-08
1.97277e-08
1.97266e-08
1.97239e-08
1.97234e-08
1.97217e-08
1.97216e-08
1.97206e-08
1.97207e-08
1.97201e-08
1.97201e-08
1.97197e-08
1.97198e-08
1.97195e-08
1.97196e-08
1.97195e-08
1.97195e-08
1.97196e-08
1.97195e-08
1.97198e-08
1.97197e-08
1.97201e-08
1.972e-08
1.97207e-08
1.97206e-08
1.97216e-08
1.97217e-08
1.97234e-08
1.97239e-08
1.97265e-08
1.97277e-08
1.97319e-08
1.97338e-08
1.97401e-08
1.97412e-08
1.97459e-08
1.97351e-08
1.9714e-08
1.96599e-08
1.95539e-08
1.94319e-08
1.89661e-08
1.90849e-08
1.91859e-08
1.9237e-08
1.92566e-08
1.92666e-08
1.92617e-08
1.92602e-08
1.92539e-08
1.92518e-08
1.92476e-08
1.92464e-08
1.92437e-08
1.92432e-08
1.92415e-08
1.92414e-08
1.92403e-08
1.92404e-08
1.92398e-08
1.92399e-08
1.92394e-08
1.92395e-08
1.92393e-08
1.92393e-08
1.92392e-08
1.92392e-08
1.92393e-08
1.92392e-08
1.92395e-08
1.92394e-08
1.92398e-08
1.92397e-08
1.92404e-08
1.92403e-08
1.92413e-08
1.92415e-08
1.92431e-08
1.92437e-08
1.92463e-08
1.92475e-08
1.92518e-08
1.92538e-08
1.92601e-08
1.92616e-08
1.92665e-08
1.92566e-08
1.92369e-08
1.91858e-08
1.90849e-08
1.89661e-08
1.85106e-08
1.8626e-08
1.8722e-08
1.87704e-08
1.87885e-08
1.87976e-08
1.87924e-08
1.87906e-08
1.87843e-08
1.87821e-08
1.87778e-08
1.87766e-08
1.87739e-08
1.87733e-08
1.87716e-08
1.87715e-08
1.87704e-08
1.87705e-08
1.87699e-08
1.87699e-08
1.87695e-08
1.87696e-08
1.87693e-08
1.87694e-08
1.87693e-08
1.87693e-08
1.87694e-08
1.87693e-08
1.87696e-08
1.87695e-08
1.87699e-08
1.87698e-08
1.87705e-08
1.87704e-08
1.87714e-08
1.87716e-08
1.87733e-08
1.87738e-08
1.87765e-08
1.87778e-08
1.8782e-08
1.87842e-08
1.87906e-08
1.87923e-08
1.87975e-08
1.87884e-08
1.87703e-08
1.87219e-08
1.8626e-08
1.85106e-08
1.80649e-08
1.81769e-08
1.82679e-08
1.83136e-08
1.83302e-08
1.83384e-08
1.8333e-08
1.83309e-08
1.83246e-08
1.83222e-08
1.83179e-08
1.83166e-08
1.83139e-08
1.83133e-08
1.83116e-08
1.83114e-08
1.83104e-08
1.83105e-08
1.83098e-08
1.83099e-08
1.83095e-08
1.83095e-08
1.83093e-08
1.83093e-08
1.83093e-08
1.83093e-08
1.83093e-08
1.83093e-08
1.83095e-08
1.83095e-08
1.83099e-08
1.83098e-08
1.83104e-08
1.83104e-08
1.83114e-08
1.83116e-08
1.83133e-08
1.83139e-08
1.83166e-08
1.83179e-08
1.83222e-08
1.83245e-08
1.83309e-08
1.83329e-08
1.83384e-08
1.83301e-08
1.83135e-08
1.82678e-08
1.81768e-08
1.80649e-08
1.76286e-08
1.77368e-08
1.78231e-08
1.78662e-08
1.78813e-08
1.78887e-08
1.7883e-08
1.78806e-08
1.78742e-08
1.78717e-08
1.78675e-08
1.78661e-08
1.78634e-08
1.78627e-08
1.7861e-08
1.78608e-08
1.78598e-08
1.78598e-08
1.78592e-08
1.78593e-08
1.78588e-08
1.78589e-08
1.78586e-08
1.78587e-08
1.78586e-08
1.78586e-08
1.78587e-08
1.78586e-08
1.78589e-08
1.78588e-08
1.78592e-08
1.78592e-08
1.78598e-08
1.78598e-08
1.78608e-08
1.7861e-08
1.78627e-08
1.78633e-08
1.7866e-08
1.78674e-08
1.78717e-08
1.78742e-08
1.78806e-08
1.78829e-08
1.78886e-08
1.78812e-08
1.78661e-08
1.7823e-08
1.77368e-08
1.76285e-08
1.72012e-08
1.73055e-08
1.73872e-08
1.74277e-08
1.74414e-08
1.74479e-08
1.74419e-08
1.74393e-08
1.74328e-08
1.74302e-08
1.74259e-08
1.74245e-08
1.74218e-08
1.74211e-08
1.74194e-08
1.74192e-08
1.74182e-08
1.74182e-08
1.74175e-08
1.74176e-08
1.74172e-08
1.74172e-08
1.7417e-08
1.7417e-08
1.74169e-08
1.74169e-08
1.7417e-08
1.7417e-08
1.74172e-08
1.74172e-08
1.74175e-08
1.74175e-08
1.74181e-08
1.74181e-08
1.74191e-08
1.74194e-08
1.7421e-08
1.74217e-08
1.74244e-08
1.74259e-08
1.74302e-08
1.74328e-08
1.74392e-08
1.74418e-08
1.74478e-08
1.74413e-08
1.74276e-08
1.73871e-08
1.73055e-08
1.72011e-08
1.67822e-08
1.68825e-08
1.69597e-08
1.69978e-08
1.70099e-08
1.70157e-08
1.70094e-08
1.70065e-08
1.7e-08
1.69972e-08
1.69929e-08
1.69914e-08
1.69887e-08
1.6988e-08
1.69863e-08
1.69861e-08
1.6985e-08
1.6985e-08
1.69844e-08
1.69844e-08
1.6984e-08
1.69841e-08
1.69838e-08
1.69839e-08
1.69838e-08
1.69838e-08
1.69839e-08
1.69838e-08
1.6984e-08
1.6984e-08
1.69844e-08
1.69844e-08
1.6985e-08
1.6985e-08
1.6986e-08
1.69863e-08
1.69879e-08
1.69887e-08
1.69914e-08
1.69929e-08
1.69972e-08
1.69999e-08
1.70064e-08
1.70093e-08
1.70156e-08
1.70099e-08
1.69977e-08
1.69596e-08
1.68824e-08
1.67822e-08
1.63714e-08
1.64675e-08
1.65402e-08
1.65759e-08
1.65866e-08
1.65916e-08
1.6585e-08
1.65818e-08
1.65753e-08
1.65724e-08
1.65681e-08
1.65665e-08
1.65638e-08
1.6563e-08
1.65614e-08
1.65611e-08
1.65601e-08
1.65601e-08
1.65594e-08
1.65595e-08
1.65591e-08
1.65591e-08
1.65589e-08
1.65589e-08
1.65588e-08
1.65588e-08
1.65589e-08
1.65588e-08
1.65591e-08
1.6559e-08
1.65594e-08
1.65594e-08
1.656e-08
1.65601e-08
1.65611e-08
1.65614e-08
1.6563e-08
1.65638e-08
1.65665e-08
1.65681e-08
1.65724e-08
1.65752e-08
1.65818e-08
1.65849e-08
1.65915e-08
1.65866e-08
1.65759e-08
1.65401e-08
1.64674e-08
1.63713e-08
1.59681e-08
1.60599e-08
1.61283e-08
1.61619e-08
1.61711e-08
1.61752e-08
1.61683e-08
1.61649e-08
1.61583e-08
1.61554e-08
1.6151e-08
1.61494e-08
1.61467e-08
1.61459e-08
1.61442e-08
1.61439e-08
1.61429e-08
1.61429e-08
1.61422e-08
1.61423e-08
1.61419e-08
1.61419e-08
1.61417e-08
1.61417e-08
1.61416e-08
1.61416e-08
1.61417e-08
1.61416e-08
1.61419e-08
1.61418e-08
1.61422e-08
1.61422e-08
1.61428e-08
1.61429e-08
1.61439e-08
1.61442e-08
1.61458e-08
1.61467e-08
1.61493e-08
1.6151e-08
1.61553e-08
1.61583e-08
1.61649e-08
1.61683e-08
1.61751e-08
1.6171e-08
1.61618e-08
1.61282e-08
1.60599e-08
1.5968e-08
1.55721e-08
1.56597e-08
1.57238e-08
1.57551e-08
1.5763e-08
1.57663e-08
1.57591e-08
1.57555e-08
1.57488e-08
1.57457e-08
1.57414e-08
1.57397e-08
1.5737e-08
1.57361e-08
1.57345e-08
1.57342e-08
1.57332e-08
1.57331e-08
1.57325e-08
1.57325e-08
1.57321e-08
1.57321e-08
1.57319e-08
1.57319e-08
1.57318e-08
1.57318e-08
1.57319e-08
1.57319e-08
1.57321e-08
1.57321e-08
1.57325e-08
1.57325e-08
1.57331e-08
1.57331e-08
1.57341e-08
1.57345e-08
1.57361e-08
1.5737e-08
1.57396e-08
1.57413e-08
1.57457e-08
1.57487e-08
1.57554e-08
1.57591e-08
1.57662e-08
1.57629e-08
1.57551e-08
1.57237e-08
1.56596e-08
1.55721e-08
1.5183e-08
1.52663e-08
1.53262e-08
1.53555e-08
1.53619e-08
1.53645e-08
1.5357e-08
1.53531e-08
1.53463e-08
1.53432e-08
1.53388e-08
1.5337e-08
1.53344e-08
1.53335e-08
1.53319e-08
1.53315e-08
1.53305e-08
1.53304e-08
1.53298e-08
1.53298e-08
1.53294e-08
1.53294e-08
1.53292e-08
1.53292e-08
1.53291e-08
1.53291e-08
1.53292e-08
1.53292e-08
1.53294e-08
1.53294e-08
1.53298e-08
1.53298e-08
1.53304e-08
1.53305e-08
1.53315e-08
1.53318e-08
1.53335e-08
1.53343e-08
1.5337e-08
1.53388e-08
1.53431e-08
1.53463e-08
1.5353e-08
1.53569e-08
1.53644e-08
1.53618e-08
1.53554e-08
1.53261e-08
1.52662e-08
1.5183e-08
1.48004e-08
1.48796e-08
1.49352e-08
1.49625e-08
1.49676e-08
1.49693e-08
1.49616e-08
1.49574e-08
1.49506e-08
1.49474e-08
1.4943e-08
1.49412e-08
1.49385e-08
1.49376e-08
1.4936e-08
1.49356e-08
1.49346e-08
1.49345e-08
1.49339e-08
1.49339e-08
1.49335e-08
1.49335e-08
1.49333e-08
1.49333e-08
1.49332e-08
1.49332e-08
1.49333e-08
1.49333e-08
1.49335e-08
1.49335e-08
1.49338e-08
1.49339e-08
1.49345e-08
1.49346e-08
1.49356e-08
1.49359e-08
1.49376e-08
1.49385e-08
1.49411e-08
1.4943e-08
1.49473e-08
1.49506e-08
1.49573e-08
1.49615e-08
1.49692e-08
1.49675e-08
1.49624e-08
1.49351e-08
1.48795e-08
1.48004e-08
1.4424e-08
1.44991e-08
1.45505e-08
1.45759e-08
1.45797e-08
1.45806e-08
1.45726e-08
1.45682e-08
1.45614e-08
1.4558e-08
1.45536e-08
1.45517e-08
1.45491e-08
1.45481e-08
1.45465e-08
1.45461e-08
1.45451e-08
1.4545e-08
1.45444e-08
1.45444e-08
1.4544e-08
1.4544e-08
1.45438e-08
1.45438e-08
1.45437e-08
1.45437e-08
1.45438e-08
1.45438e-08
1.4544e-08
1.4544e-08
1.45444e-08
1.45444e-08
1.4545e-08
1.45451e-08
1.45461e-08
1.45465e-08
1.45481e-08
1.4549e-08
1.45517e-08
1.45536e-08
1.45579e-08
1.45613e-08
1.45681e-08
1.45725e-08
1.45805e-08
1.45796e-08
1.45757e-08
1.45504e-08
1.4499e-08
1.44239e-08
1.40534e-08
1.41245e-08
1.41719e-08
1.41953e-08
1.41978e-08
1.4198e-08
1.41898e-08
1.41851e-08
1.41782e-08
1.41747e-08
1.41704e-08
1.41684e-08
1.41658e-08
1.41648e-08
1.41632e-08
1.41628e-08
1.41618e-08
1.41617e-08
1.4161e-08
1.4161e-08
1.41606e-08
1.41606e-08
1.41604e-08
1.41604e-08
1.41604e-08
1.41604e-08
1.41604e-08
1.41604e-08
1.41606e-08
1.41606e-08
1.4161e-08
1.4161e-08
1.41616e-08
1.41617e-08
1.41627e-08
1.41631e-08
1.41648e-08
1.41657e-08
1.41684e-08
1.41703e-08
1.41746e-08
1.41781e-08
1.4185e-08
1.41897e-08
1.41979e-08
1.41977e-08
1.41952e-08
1.41719e-08
1.41244e-08
1.40533e-08
1.36884e-08
1.37555e-08
1.37991e-08
1.38205e-08
1.38218e-08
1.38212e-08
1.38127e-08
1.38077e-08
1.38008e-08
1.37973e-08
1.37929e-08
1.37909e-08
1.37883e-08
1.37873e-08
1.37857e-08
1.37853e-08
1.37843e-08
1.37841e-08
1.37835e-08
1.37835e-08
1.37831e-08
1.37831e-08
1.37829e-08
1.37829e-08
1.37828e-08
1.37828e-08
1.37829e-08
1.37829e-08
1.37831e-08
1.37831e-08
1.37835e-08
1.37835e-08
1.37841e-08
1.37842e-08
1.37852e-08
1.37856e-08
1.37872e-08
1.37882e-08
1.37909e-08
1.37928e-08
1.37972e-08
1.38007e-08
1.38077e-08
1.38126e-08
1.38211e-08
1.38217e-08
1.38204e-08
1.3799e-08
1.37554e-08
1.36883e-08
1.33285e-08
1.33919e-08
1.34316e-08
1.34511e-08
1.34512e-08
1.34499e-08
1.34411e-08
1.34359e-08
1.3429e-08
1.34253e-08
1.3421e-08
1.34189e-08
1.34163e-08
1.34153e-08
1.34137e-08
1.34132e-08
1.34123e-08
1.34121e-08
1.34115e-08
1.34114e-08
1.34111e-08
1.34111e-08
1.34108e-08
1.34108e-08
1.34108e-08
1.34108e-08
1.34108e-08
1.34108e-08
1.3411e-08
1.3411e-08
1.34114e-08
1.34115e-08
1.34121e-08
1.34122e-08
1.34132e-08
1.34136e-08
1.34152e-08
1.34162e-08
1.34189e-08
1.34209e-08
1.34252e-08
1.34289e-08
1.34358e-08
1.3441e-08
1.34498e-08
1.34511e-08
1.3451e-08
1.34315e-08
1.33917e-08
1.33284e-08
1.29735e-08
1.30332e-08
1.30691e-08
1.30867e-08
1.30857e-08
1.30837e-08
1.30746e-08
1.30692e-08
1.30622e-08
1.30585e-08
1.30541e-08
1.30521e-08
1.30495e-08
1.30484e-08
1.30468e-08
1.30464e-08
1.30454e-08
1.30452e-08
1.30446e-08
1.30446e-08
1.30442e-08
1.30442e-08
1.3044e-08
1.3044e-08
1.30439e-08
1.30439e-08
1.3044e-08
1.3044e-08
1.30442e-08
1.30442e-08
1.30445e-08
1.30446e-08
1.30452e-08
1.30453e-08
1.30463e-08
1.30468e-08
1.30484e-08
1.30494e-08
1.3052e-08
1.30541e-08
1.30584e-08
1.30621e-08
1.30691e-08
1.30745e-08
1.30836e-08
1.30856e-08
1.30866e-08
1.3069e-08
1.30331e-08
1.29734e-08
1.26349e-08
1.26915e-08
1.27237e-08
1.27396e-08
1.27375e-08
1.27348e-08
1.27255e-08
1.27198e-08
1.27128e-08
1.2709e-08
1.27046e-08
1.27026e-08
1.26999e-08
1.26989e-08
1.26973e-08
1.26968e-08
1.26959e-08
1.26957e-08
1.26951e-08
1.2695e-08
1.26946e-08
1.26946e-08
1.26944e-08
1.26944e-08
1.26943e-08
1.26943e-08
1.26944e-08
1.26944e-08
1.26946e-08
1.26946e-08
1.2695e-08
1.2695e-08
1.26956e-08
1.26958e-08
1.26968e-08
1.26972e-08
1.26988e-08
1.26999e-08
1.27025e-08
1.27046e-08
1.27089e-08
1.27127e-08
1.27197e-08
1.27254e-08
1.27347e-08
1.27373e-08
1.27395e-08
1.27235e-08
1.26913e-08
1.26347e-08
1.22955e-08
1.23495e-08
1.23771e-08
1.23909e-08
1.23869e-08
1.23831e-08
1.23731e-08
1.2367e-08
1.23597e-08
1.23557e-08
1.23513e-08
1.23491e-08
1.23465e-08
1.23454e-08
1.23438e-08
1.23433e-08
1.23423e-08
1.23421e-08
1.23415e-08
1.23414e-08
1.2341e-08
1.2341e-08
1.23408e-08
1.23408e-08
1.23407e-08
1.23407e-08
1.23408e-08
1.23408e-08
1.2341e-08
1.2341e-08
1.23414e-08
1.23414e-08
1.2342e-08
1.23422e-08
1.23432e-08
1.23437e-08
1.23453e-08
1.23464e-08
1.23491e-08
1.23512e-08
1.23556e-08
1.23596e-08
1.23669e-08
1.2373e-08
1.2383e-08
1.23868e-08
1.23908e-08
1.23769e-08
1.23494e-08
1.22954e-08
1.19549e-08
1.20056e-08
1.20294e-08
1.20417e-08
1.20365e-08
1.20321e-08
1.20218e-08
1.20155e-08
1.20082e-08
1.20041e-08
1.19997e-08
1.19975e-08
1.19948e-08
1.19937e-08
1.19921e-08
1.19916e-08
1.19906e-08
1.19904e-08
1.19898e-08
1.19897e-08
1.19894e-08
1.19893e-08
1.19891e-08
1.19891e-08
1.19891e-08
1.19891e-08
1.19891e-08
1.19891e-08
1.19893e-08
1.19893e-08
1.19897e-08
1.19898e-08
1.19904e-08
1.19906e-08
1.19915e-08
1.1992e-08
1.19936e-08
1.19948e-08
1.19974e-08
1.19996e-08
1.2004e-08
1.20081e-08
1.20154e-08
1.20217e-08
1.2032e-08
1.20364e-08
1.20415e-08
1.20293e-08
1.20055e-08
1.19548e-08
1.16184e-08
1.16658e-08
1.1686e-08
1.16966e-08
1.16904e-08
1.16853e-08
1.16748e-08
1.16683e-08
1.16609e-08
1.16568e-08
1.16524e-08
1.16501e-08
1.16475e-08
1.16464e-08
1.16448e-08
1.16443e-08
1.16433e-08
1.16431e-08
1.16425e-08
1.16424e-08
1.1642e-08
1.1642e-08
1.16418e-08
1.16418e-08
1.16417e-08
1.16417e-08
1.16418e-08
1.16418e-08
1.1642e-08
1.1642e-08
1.16424e-08
1.16424e-08
1.1643e-08
1.16432e-08
1.16442e-08
1.16447e-08
1.16463e-08
1.16474e-08
1.165e-08
1.16523e-08
1.16567e-08
1.16608e-08
1.16682e-08
1.16747e-08
1.16852e-08
1.16903e-08
1.16965e-08
1.16859e-08
1.16657e-08
1.16182e-08
1.12855e-08
1.13297e-08
1.13465e-08
1.13554e-08
1.13482e-08
1.13425e-08
1.13317e-08
1.1325e-08
1.13176e-08
1.13134e-08
1.1309e-08
1.13067e-08
1.13041e-08
1.1303e-08
1.13014e-08
1.13009e-08
1.12999e-08
1.12997e-08
1.12991e-08
1.1299e-08
1.12986e-08
1.12986e-08
1.12984e-08
1.12984e-08
1.12983e-08
1.12983e-08
1.12984e-08
1.12984e-08
1.12986e-08
1.12986e-08
1.1299e-08
1.12991e-08
1.12996e-08
1.12999e-08
1.13008e-08
1.13013e-08
1.13029e-08
1.13041e-08
1.13067e-08
1.13089e-08
1.13133e-08
1.13175e-08
1.13249e-08
1.13316e-08
1.13424e-08
1.13481e-08
1.13553e-08
1.13464e-08
1.13295e-08
1.12853e-08
1.09668e-08
1.10082e-08
1.10218e-08
1.10292e-08
1.10211e-08
1.10147e-08
1.10036e-08
1.09967e-08
1.09893e-08
1.0985e-08
1.09806e-08
1.09784e-08
1.09758e-08
1.09746e-08
1.09731e-08
1.09725e-08
1.09716e-08
1.09714e-08
1.09707e-08
1.09706e-08
1.09703e-08
1.09703e-08
1.097e-08
1.097e-08
1.097e-08
1.097e-08
1.097e-08
1.097e-08
1.09702e-08
1.09703e-08
1.09706e-08
1.09707e-08
1.09713e-08
1.09715e-08
1.09725e-08
1.0973e-08
1.09746e-08
1.09757e-08
1.09783e-08
1.09806e-08
1.09849e-08
1.09892e-08
1.09966e-08
1.10035e-08
1.10146e-08
1.10209e-08
1.10291e-08
1.10217e-08
1.10081e-08
1.09667e-08
1.06519e-08
1.06907e-08
1.07011e-08
1.0707e-08
1.06979e-08
1.0691e-08
1.06796e-08
1.06725e-08
1.06651e-08
1.06607e-08
1.06562e-08
1.06538e-08
1.06511e-08
1.06499e-08
1.06483e-08
1.06477e-08
1.06467e-08
1.06465e-08
1.06459e-08
1.06458e-08
1.06454e-08
1.06454e-08
1.06452e-08
1.06451e-08
1.06451e-08
1.06451e-08
1.06451e-08
1.06451e-08
1.06453e-08
1.06454e-08
1.06457e-08
1.06458e-08
1.06464e-08
1.06467e-08
1.06477e-08
1.06482e-08
1.06498e-08
1.0651e-08
1.06537e-08
1.06561e-08
1.06606e-08
1.06649e-08
1.06724e-08
1.06795e-08
1.06909e-08
1.06977e-08
1.07069e-08
1.07009e-08
1.06905e-08
1.06518e-08
1.03318e-08
1.03679e-08
1.03752e-08
1.03794e-08
1.0369e-08
1.03613e-08
1.03494e-08
1.0342e-08
1.03344e-08
1.033e-08
1.03254e-08
1.0323e-08
1.03203e-08
1.0319e-08
1.03174e-08
1.03168e-08
1.03158e-08
1.03156e-08
1.0315e-08
1.03149e-08
1.03145e-08
1.03145e-08
1.03142e-08
1.03142e-08
1.03142e-08
1.03142e-08
1.03142e-08
1.03142e-08
1.03144e-08
1.03145e-08
1.03148e-08
1.03149e-08
1.03155e-08
1.03158e-08
1.03168e-08
1.03173e-08
1.0319e-08
1.03202e-08
1.03229e-08
1.03253e-08
1.03299e-08
1.03343e-08
1.03419e-08
1.03493e-08
1.03612e-08
1.03688e-08
1.03792e-08
1.03751e-08
1.03678e-08
1.03317e-08
1.00132e-08
1.00463e-08
1.00507e-08
1.00534e-08
1.00421e-08
1.00339e-08
1.00218e-08
1.00142e-08
1.00066e-08
1.00021e-08
9.9976e-09
9.99513e-09
9.99244e-09
9.99119e-09
9.98958e-09
9.989e-09
9.98802e-09
9.98777e-09
9.98712e-09
9.98702e-09
9.98665e-09
9.98661e-09
9.9864e-09
9.98638e-09
9.98631e-09
9.98631e-09
9.98638e-09
9.98639e-09
9.98658e-09
9.98662e-09
9.98699e-09
9.98709e-09
9.98769e-09
9.98794e-09
9.98892e-09
9.9895e-09
9.99111e-09
9.99236e-09
9.99504e-09
9.9975e-09
1.0002e-08
1.00065e-08
1.00141e-08
1.00217e-08
1.00338e-08
1.0042e-08
1.00532e-08
1.00506e-08
1.00462e-08
1.00131e-08
9.70754e-09
9.73808e-09
9.73972e-09
9.74092e-09
9.72882e-09
9.72015e-09
9.70774e-09
9.70004e-09
9.69238e-09
9.68783e-09
9.68337e-09
9.68088e-09
9.67821e-09
9.67696e-09
9.67536e-09
9.67477e-09
9.67379e-09
9.67354e-09
9.67289e-09
9.67279e-09
9.67242e-09
9.67238e-09
9.67217e-09
9.67216e-09
9.67208e-09
9.67208e-09
9.67215e-09
9.67216e-09
9.67235e-09
9.67239e-09
9.67276e-09
9.67287e-09
9.67346e-09
9.67371e-09
9.67469e-09
9.67528e-09
9.67688e-09
9.67814e-09
9.68079e-09
9.68327e-09
9.68772e-09
9.69226e-09
9.69992e-09
9.70763e-09
9.72004e-09
9.72867e-09
9.74079e-09
9.73959e-09
9.73796e-09
9.70741e-09
9.40454e-09
9.43288e-09
9.43185e-09
9.43154e-09
9.41741e-09
9.40779e-09
9.39435e-09
9.3862e-09
9.37818e-09
9.37346e-09
9.36887e-09
9.3663e-09
9.36358e-09
9.36229e-09
9.36066e-09
9.36005e-09
9.35906e-09
9.35881e-09
9.35815e-09
9.35804e-09
9.35767e-09
9.35763e-09
9.35742e-09
9.3574e-09
9.35733e-09
9.35732e-09
9.35739e-09
9.35741e-09
9.3576e-09
9.35764e-09
9.35802e-09
9.35812e-09
9.35873e-09
9.35899e-09
9.35998e-09
9.36058e-09
9.36222e-09
9.36351e-09
9.36622e-09
9.36878e-09
9.37335e-09
9.37807e-09
9.38609e-09
9.39426e-09
9.4077e-09
9.41728e-09
9.43144e-09
9.43173e-09
9.43276e-09
9.40444e-09
9.10478e-09
9.13066e-09
9.12709e-09
9.12542e-09
9.11051e-09
9.10044e-09
9.08667e-09
9.07839e-09
9.07032e-09
9.06557e-09
9.061e-09
9.05843e-09
9.05572e-09
9.05442e-09
9.0528e-09
9.0522e-09
9.05121e-09
9.05095e-09
9.05029e-09
9.05019e-09
9.04982e-09
9.04978e-09
9.04957e-09
9.04955e-09
9.04947e-09
9.04947e-09
9.04954e-09
9.04956e-09
9.04975e-09
9.04979e-09
9.05017e-09
9.05028e-09
9.05088e-09
9.05114e-09
9.05212e-09
9.05273e-09
9.05436e-09
9.05565e-09
9.05835e-09
9.06092e-09
9.06547e-09
9.07022e-09
9.07829e-09
9.08657e-09
9.10037e-09
9.11038e-09
9.12532e-09
9.12697e-09
9.13055e-09
9.10468e-09
8.80789e-09
8.83138e-09
8.82537e-09
8.82235e-09
8.80677e-09
8.79627e-09
8.78213e-09
8.77376e-09
8.76564e-09
8.76086e-09
8.75631e-09
8.75373e-09
8.75104e-09
8.74974e-09
8.74813e-09
8.74752e-09
8.74655e-09
8.74628e-09
8.74562e-09
8.74551e-09
8.74515e-09
8.74511e-09
8.7449e-09
8.74487e-09
8.7448e-09
8.7448e-09
8.74487e-09
8.74489e-09
8.74508e-09
8.74513e-09
8.7455e-09
8.74561e-09
8.74621e-09
8.74647e-09
8.74745e-09
8.74806e-09
8.74967e-09
8.75098e-09
8.75366e-09
8.75623e-09
8.76076e-09
8.76554e-09
8.77365e-09
8.78202e-09
8.79621e-09
8.80664e-09
8.82226e-09
8.82527e-09
8.83128e-09
8.8078e-09
8.44414e-09
8.44403e-09
8.44367e-09
8.44362e-09
8.44341e-09
8.44339e-09
8.44332e-09
8.44332e-09
8.44338e-09
8.44341e-09
8.4436e-09
8.44365e-09
8.44402e-09
8.44413e-09
8.44472e-09
8.44499e-09
8.44596e-09
8.44658e-09
8.44818e-09
8.44948e-09
8.45215e-09
8.45473e-09
8.45922e-09
8.46403e-09
8.47219e-09
8.48065e-09
8.49519e-09
8.50606e-09
8.52223e-09
8.52657e-09
8.53492e-09
8.51377e-09
8.13858e-09
8.13863e-09
8.139e-09
8.13912e-09
8.13971e-09
8.13999e-09
8.14096e-09
8.14159e-09
8.14319e-09
8.14452e-09
8.1472e-09
8.14983e-09
8.15437e-09
8.15927e-09
8.16767e-09
8.17638e-09
8.19167e-09
8.2033e-09
8.22041e-09
8.22645e-09
8.23725e-09
8.2179e-09
7.85864e-09
7.86354e-09
7.87201e-09
7.88084e-09
7.89641e-09
7.90847e-09
7.92604e-09
7.93333e-09
7.9463e-09
7.9291e-09
)
;

boundaryField
{
    fuel
    {
        type            fixedValue;
        value           nonuniform 0();
    }
    wall
    {
        type            zeroGradient;
    }
    outlet
    {
        type            zeroGradient;
    }
    frontAndBack
    {
        type            empty;
    }
    procBoundary0to1
    {
        type            processor;
        value           nonuniform List<scalar> 
50
(
2.48104e-08
2.49674e-08
2.51266e-08
2.52115e-08
2.52479e-08
2.52666e-08
2.52642e-08
2.52658e-08
2.52598e-08
2.52594e-08
2.52552e-08
2.5255e-08
2.52523e-08
2.52523e-08
2.52506e-08
2.52508e-08
2.52497e-08
2.52501e-08
2.52494e-08
2.52496e-08
2.52492e-08
2.52493e-08
2.5249e-08
2.52491e-08
2.5249e-08
2.5249e-08
2.52491e-08
2.5249e-08
2.52493e-08
2.52492e-08
2.52496e-08
2.52494e-08
2.52501e-08
2.52497e-08
2.52508e-08
2.52506e-08
2.52523e-08
2.52523e-08
2.5255e-08
2.52552e-08
2.52594e-08
2.52598e-08
2.52658e-08
2.52641e-08
2.52666e-08
2.52479e-08
2.52114e-08
2.51265e-08
2.49673e-08
2.48104e-08
)
;
    }
    procBoundary0to2
    {
        type            processor;
        value           nonuniform List<scalar> 
53
(
8.51383e-09
8.53499e-09
8.52665e-09
8.52229e-09
8.50615e-09
8.49523e-09
8.48071e-09
8.47226e-09
8.46408e-09
8.45929e-09
8.45477e-09
8.45218e-09
8.44951e-09
8.4482e-09
8.4466e-09
8.44599e-09
8.44502e-09
8.44475e-09
8.44475e-09
8.13909e-09
8.13898e-09
8.13862e-09
8.13858e-09
8.13837e-09
8.13834e-09
8.13827e-09
8.13827e-09
8.13834e-09
8.13836e-09
8.13836e-09
7.84287e-09
7.84292e-09
7.84329e-09
7.84341e-09
7.844e-09
7.84428e-09
7.84524e-09
7.84588e-09
7.84747e-09
7.84881e-09
7.85147e-09
7.85409e-09
7.85409e-09
7.56585e-09
7.57077e-09
7.57931e-09
7.58827e-09
7.60408e-09
7.61653e-09
7.63454e-09
7.64303e-09
7.65807e-09
7.64295e-09
)
;
    }
}


// ************************************************************************* //
