/*--------------------------------*- C++ -*----------------------------------*\
| =========                 |                                                 |
| \\      /  F ield         | OpenFOAM: The Open Source CFD Toolbox           |
|  \\    /   O peration     | Version:  dev                                   |
|   \\  /    A nd           | Web:      www.OpenFOAM.org                      |
|    \\/     M anipulation  |                                                 |
\*---------------------------------------------------------------------------*/
FoamFile
{
    version     2.0;
    format      ascii;
    class       volScalarField;
    location    "0.04";
    object      CH2(S);
}
// * * * * * * * * * * * * * * * * * * * * * * * * * * * * * * * * * * * * * //

dimensions      [0 0 0 0 0 0 0];

internalField   nonuniform List<scalar> 
2014
(
3.46959e-08
3.48273e-08
3.49655e-08
3.50413e-08
3.50759e-08
3.50931e-08
3.50922e-08
3.5093e-08
3.50878e-08
3.50866e-08
3.50828e-08
3.5082e-08
3.50795e-08
3.50791e-08
3.50776e-08
3.50775e-08
3.50766e-08
3.50767e-08
3.50762e-08
3.50763e-08
3.50759e-08
3.50759e-08
3.50757e-08
3.50757e-08
3.50757e-08
3.50757e-08
3.50757e-08
3.50757e-08
3.50759e-08
3.50758e-08
3.50762e-08
3.50761e-08
3.50767e-08
3.50765e-08
3.50775e-08
3.50775e-08
3.50791e-08
3.50794e-08
3.50819e-08
3.50827e-08
3.50866e-08
3.50877e-08
3.50929e-08
3.50921e-08
3.5093e-08
3.50758e-08
3.50412e-08
3.49654e-08
3.48272e-08
3.46958e-08
3.42399e-08
3.43683e-08
3.45021e-08
3.45753e-08
3.46086e-08
3.4625e-08
3.46238e-08
3.46243e-08
3.4619e-08
3.46176e-08
3.46137e-08
3.46128e-08
3.46103e-08
3.46098e-08
3.46083e-08
3.46082e-08
3.46072e-08
3.46073e-08
3.46067e-08
3.46068e-08
3.46064e-08
3.46065e-08
3.46063e-08
3.46063e-08
3.46062e-08
3.46062e-08
3.46063e-08
3.46062e-08
3.46065e-08
3.46064e-08
3.46068e-08
3.46067e-08
3.46073e-08
3.46071e-08
3.46081e-08
3.46082e-08
3.46097e-08
3.46102e-08
3.46127e-08
3.46136e-08
3.46175e-08
3.46189e-08
3.46242e-08
3.46237e-08
3.46249e-08
3.46084e-08
3.45752e-08
3.4502e-08
3.43682e-08
3.42399e-08
3.37951e-08
3.39208e-08
3.40501e-08
3.41209e-08
3.41527e-08
3.41684e-08
3.41669e-08
3.4167e-08
3.41616e-08
3.416e-08
3.4156e-08
3.4155e-08
3.41524e-08
3.41519e-08
3.41503e-08
3.41502e-08
3.41492e-08
3.41493e-08
3.41487e-08
3.41488e-08
3.41484e-08
3.41484e-08
3.41482e-08
3.41482e-08
3.41482e-08
3.41482e-08
3.41482e-08
3.41482e-08
3.41484e-08
3.41484e-08
3.41487e-08
3.41486e-08
3.41492e-08
3.41491e-08
3.41501e-08
3.41502e-08
3.41518e-08
3.41523e-08
3.41549e-08
3.41559e-08
3.41599e-08
3.41615e-08
3.41669e-08
3.41668e-08
3.41683e-08
3.41526e-08
3.41208e-08
3.405e-08
3.39208e-08
3.37951e-08
3.33591e-08
3.34826e-08
3.36071e-08
3.36755e-08
3.37059e-08
3.37209e-08
3.3719e-08
3.37187e-08
3.37132e-08
3.37113e-08
3.37073e-08
3.37061e-08
3.37035e-08
3.37029e-08
3.37013e-08
3.37012e-08
3.37002e-08
3.37002e-08
3.36996e-08
3.36997e-08
3.36993e-08
3.36993e-08
3.36991e-08
3.36991e-08
3.36991e-08
3.36991e-08
3.36991e-08
3.36991e-08
3.36993e-08
3.36993e-08
3.36996e-08
3.36996e-08
3.37002e-08
3.37001e-08
3.37011e-08
3.37013e-08
3.37028e-08
3.37034e-08
3.3706e-08
3.37072e-08
3.37112e-08
3.37131e-08
3.37186e-08
3.37189e-08
3.37207e-08
3.37058e-08
3.36754e-08
3.3607e-08
3.34825e-08
3.3359e-08
3.29299e-08
3.30512e-08
3.31715e-08
3.32372e-08
3.32662e-08
3.32803e-08
3.3278e-08
3.32774e-08
3.32717e-08
3.32697e-08
3.32655e-08
3.32642e-08
3.32616e-08
3.32609e-08
3.32593e-08
3.32591e-08
3.32581e-08
3.32581e-08
3.32575e-08
3.32576e-08
3.32572e-08
3.32572e-08
3.3257e-08
3.3257e-08
3.32569e-08
3.32569e-08
3.3257e-08
3.3257e-08
3.32572e-08
3.32571e-08
3.32575e-08
3.32575e-08
3.32581e-08
3.3258e-08
3.3259e-08
3.32592e-08
3.32608e-08
3.32615e-08
3.32641e-08
3.32654e-08
3.32696e-08
3.32716e-08
3.32773e-08
3.32779e-08
3.32802e-08
3.32661e-08
3.32371e-08
3.31714e-08
3.30511e-08
3.29298e-08
3.25059e-08
3.2625e-08
3.27413e-08
3.28043e-08
3.28318e-08
3.28451e-08
3.28424e-08
3.28414e-08
3.28355e-08
3.28332e-08
3.2829e-08
3.28276e-08
3.28249e-08
3.28241e-08
3.28225e-08
3.28222e-08
3.28212e-08
3.28212e-08
3.28206e-08
3.28207e-08
3.28203e-08
3.28203e-08
3.28201e-08
3.28201e-08
3.282e-08
3.282e-08
3.28201e-08
3.282e-08
3.28203e-08
3.28202e-08
3.28206e-08
3.28206e-08
3.28212e-08
3.28212e-08
3.28222e-08
3.28224e-08
3.28241e-08
3.28248e-08
3.28275e-08
3.28289e-08
3.28331e-08
3.28354e-08
3.28413e-08
3.28423e-08
3.2845e-08
3.28317e-08
3.28042e-08
3.27413e-08
3.26249e-08
3.25058e-08
3.20856e-08
3.22027e-08
3.23151e-08
3.23753e-08
3.24013e-08
3.24137e-08
3.24105e-08
3.24092e-08
3.2403e-08
3.24006e-08
3.23962e-08
3.23947e-08
3.23919e-08
3.23912e-08
3.23895e-08
3.23892e-08
3.23882e-08
3.23881e-08
3.23875e-08
3.23875e-08
3.23872e-08
3.23872e-08
3.23869e-08
3.23869e-08
3.23869e-08
3.23869e-08
3.23869e-08
3.23869e-08
3.23871e-08
3.23871e-08
3.23875e-08
3.23875e-08
3.23881e-08
3.23881e-08
3.23891e-08
3.23894e-08
3.23911e-08
3.23918e-08
3.23946e-08
3.23961e-08
3.24005e-08
3.24029e-08
3.24091e-08
3.24104e-08
3.24136e-08
3.24012e-08
3.23752e-08
3.2315e-08
3.22026e-08
3.20855e-08
3.1668e-08
3.17831e-08
3.18914e-08
3.1949e-08
3.19734e-08
3.19849e-08
3.19812e-08
3.19795e-08
3.19731e-08
3.19705e-08
3.1966e-08
3.19644e-08
3.19615e-08
3.19607e-08
3.1959e-08
3.19586e-08
3.19576e-08
3.19576e-08
3.19569e-08
3.19569e-08
3.19565e-08
3.19565e-08
3.19563e-08
3.19563e-08
3.19563e-08
3.19562e-08
3.19563e-08
3.19563e-08
3.19565e-08
3.19565e-08
3.19569e-08
3.19569e-08
3.19575e-08
3.19575e-08
3.19586e-08
3.19589e-08
3.19606e-08
3.19614e-08
3.19643e-08
3.19659e-08
3.19704e-08
3.1973e-08
3.19794e-08
3.19811e-08
3.19848e-08
3.19733e-08
3.19488e-08
3.18913e-08
3.17831e-08
3.16679e-08
3.12519e-08
3.13652e-08
3.14693e-08
3.15242e-08
3.1547e-08
3.15577e-08
3.15534e-08
3.15513e-08
3.15447e-08
3.15418e-08
3.15372e-08
3.15355e-08
3.15326e-08
3.15317e-08
3.15299e-08
3.15295e-08
3.15285e-08
3.15284e-08
3.15278e-08
3.15278e-08
3.15274e-08
3.15274e-08
3.15271e-08
3.15271e-08
3.15271e-08
3.15271e-08
3.15271e-08
3.15271e-08
3.15273e-08
3.15273e-08
3.15277e-08
3.15277e-08
3.15283e-08
3.15284e-08
3.15294e-08
3.15298e-08
3.15316e-08
3.15325e-08
3.15353e-08
3.15371e-08
3.15417e-08
3.15446e-08
3.15512e-08
3.15533e-08
3.15575e-08
3.15469e-08
3.15241e-08
3.14691e-08
3.13651e-08
3.12518e-08
3.08365e-08
3.09478e-08
3.10477e-08
3.11001e-08
3.11212e-08
3.11309e-08
3.11262e-08
3.11236e-08
3.11168e-08
3.11137e-08
3.11089e-08
3.1107e-08
3.11041e-08
3.11031e-08
3.11013e-08
3.11009e-08
3.10998e-08
3.10998e-08
3.10991e-08
3.10991e-08
3.10987e-08
3.10987e-08
3.10984e-08
3.10984e-08
3.10984e-08
3.10984e-08
3.10984e-08
3.10984e-08
3.10986e-08
3.10986e-08
3.1099e-08
3.1099e-08
3.10997e-08
3.10998e-08
3.11008e-08
3.11012e-08
3.1103e-08
3.1104e-08
3.11069e-08
3.11088e-08
3.11136e-08
3.11166e-08
3.11235e-08
3.1126e-08
3.11308e-08
3.11211e-08
3.10999e-08
3.10476e-08
3.09477e-08
3.08364e-08
3.04209e-08
3.05303e-08
3.06258e-08
3.06757e-08
3.06952e-08
3.07039e-08
3.06986e-08
3.06956e-08
3.06885e-08
3.06852e-08
3.06803e-08
3.06783e-08
3.06753e-08
3.06742e-08
3.06724e-08
3.0672e-08
3.06709e-08
3.06708e-08
3.06701e-08
3.06701e-08
3.06697e-08
3.06696e-08
3.06694e-08
3.06694e-08
3.06693e-08
3.06693e-08
3.06694e-08
3.06694e-08
3.06696e-08
3.06696e-08
3.067e-08
3.067e-08
3.06707e-08
3.06708e-08
3.06719e-08
3.06723e-08
3.06741e-08
3.06752e-08
3.06782e-08
3.06802e-08
3.06851e-08
3.06884e-08
3.06955e-08
3.06984e-08
3.07038e-08
3.0695e-08
3.06756e-08
3.06257e-08
3.05302e-08
3.04208e-08
3.00044e-08
3.01117e-08
3.0203e-08
3.02504e-08
3.02681e-08
3.02759e-08
3.02699e-08
3.02665e-08
3.02592e-08
3.02556e-08
3.02506e-08
3.02485e-08
3.02454e-08
3.02443e-08
3.02424e-08
3.02419e-08
3.02408e-08
3.02407e-08
3.024e-08
3.024e-08
3.02395e-08
3.02395e-08
3.02393e-08
3.02393e-08
3.02392e-08
3.02392e-08
3.02392e-08
3.02392e-08
3.02395e-08
3.02395e-08
3.02399e-08
3.02399e-08
3.02406e-08
3.02407e-08
3.02418e-08
3.02423e-08
3.02442e-08
3.02453e-08
3.02484e-08
3.02505e-08
3.02555e-08
3.0259e-08
3.02664e-08
3.02698e-08
3.02758e-08
3.0268e-08
3.02502e-08
3.02029e-08
3.01116e-08
3.00043e-08
2.95865e-08
2.96916e-08
2.97785e-08
2.98234e-08
2.98394e-08
2.98462e-08
2.98396e-08
2.98357e-08
2.98281e-08
2.98243e-08
2.98191e-08
2.98169e-08
2.98137e-08
2.98125e-08
2.98106e-08
2.98101e-08
2.9809e-08
2.98088e-08
2.98081e-08
2.98081e-08
2.98076e-08
2.98076e-08
2.98074e-08
2.98074e-08
2.98073e-08
2.98073e-08
2.98074e-08
2.98073e-08
2.98076e-08
2.98076e-08
2.9808e-08
2.98081e-08
2.98087e-08
2.98089e-08
2.981e-08
2.98105e-08
2.98124e-08
2.98136e-08
2.98168e-08
2.9819e-08
2.98242e-08
2.98279e-08
2.98356e-08
2.98394e-08
2.9846e-08
2.98393e-08
2.98233e-08
2.97784e-08
2.96914e-08
2.95864e-08
2.91664e-08
2.92691e-08
2.93518e-08
2.93942e-08
2.94085e-08
2.94141e-08
2.94069e-08
2.94025e-08
2.93946e-08
2.93906e-08
2.93853e-08
2.9383e-08
2.93797e-08
2.93785e-08
2.93765e-08
2.9376e-08
2.93748e-08
2.93746e-08
2.93739e-08
2.93739e-08
2.93734e-08
2.93734e-08
2.93731e-08
2.93731e-08
2.9373e-08
2.9373e-08
2.93731e-08
2.93731e-08
2.93733e-08
2.93733e-08
2.93738e-08
2.93738e-08
2.93745e-08
2.93747e-08
2.93759e-08
2.93764e-08
2.93783e-08
2.93796e-08
2.93828e-08
2.93852e-08
2.93905e-08
2.93945e-08
2.94024e-08
2.94067e-08
2.9414e-08
2.94083e-08
2.93941e-08
2.93516e-08
2.9269e-08
2.91663e-08
2.87438e-08
2.88438e-08
2.89222e-08
2.89622e-08
2.89747e-08
2.89793e-08
2.89713e-08
2.89665e-08
2.89583e-08
2.89541e-08
2.89486e-08
2.89461e-08
2.89428e-08
2.89415e-08
2.89395e-08
2.89389e-08
2.89377e-08
2.89375e-08
2.89368e-08
2.89367e-08
2.89363e-08
2.89362e-08
2.8936e-08
2.8936e-08
2.89359e-08
2.89359e-08
2.89359e-08
2.89359e-08
2.89362e-08
2.89362e-08
2.89366e-08
2.89367e-08
2.89374e-08
2.89376e-08
2.89388e-08
2.89393e-08
2.89413e-08
2.89426e-08
2.8946e-08
2.89485e-08
2.89539e-08
2.89581e-08
2.89664e-08
2.89712e-08
2.89791e-08
2.89745e-08
2.89621e-08
2.8922e-08
2.88436e-08
2.87437e-08
2.8318e-08
2.84151e-08
2.84892e-08
2.85269e-08
2.85375e-08
2.8541e-08
2.85324e-08
2.85271e-08
2.85186e-08
2.85141e-08
2.85085e-08
2.85058e-08
2.85024e-08
2.85011e-08
2.8499e-08
2.84984e-08
2.84972e-08
2.8497e-08
2.84962e-08
2.84961e-08
2.84957e-08
2.84956e-08
2.84954e-08
2.84954e-08
2.84953e-08
2.84953e-08
2.84953e-08
2.84953e-08
2.84956e-08
2.84956e-08
2.84961e-08
2.84961e-08
2.84969e-08
2.84971e-08
2.84983e-08
2.84989e-08
2.85009e-08
2.85023e-08
2.85057e-08
2.85083e-08
2.85139e-08
2.85184e-08
2.85269e-08
2.85322e-08
2.85408e-08
2.85373e-08
2.85268e-08
2.84891e-08
2.8415e-08
2.83179e-08
2.78886e-08
2.79827e-08
2.80525e-08
2.80879e-08
2.80965e-08
2.80989e-08
2.80896e-08
2.80837e-08
2.80749e-08
2.80702e-08
2.80644e-08
2.80617e-08
2.80582e-08
2.80568e-08
2.80547e-08
2.8054e-08
2.80528e-08
2.80525e-08
2.80518e-08
2.80517e-08
2.80512e-08
2.80512e-08
2.80509e-08
2.80509e-08
2.80508e-08
2.80508e-08
2.80509e-08
2.80509e-08
2.80511e-08
2.80511e-08
2.80516e-08
2.80517e-08
2.80524e-08
2.80526e-08
2.80539e-08
2.80545e-08
2.80566e-08
2.8058e-08
2.80615e-08
2.80643e-08
2.807e-08
2.80748e-08
2.80836e-08
2.80894e-08
2.80987e-08
2.80964e-08
2.80877e-08
2.80523e-08
2.79825e-08
2.78885e-08
2.74552e-08
2.7546e-08
2.76115e-08
2.76446e-08
2.76513e-08
2.76525e-08
2.76424e-08
2.76361e-08
2.7627e-08
2.7622e-08
2.76161e-08
2.76132e-08
2.76096e-08
2.76081e-08
2.7606e-08
2.76053e-08
2.7604e-08
2.76038e-08
2.7603e-08
2.76029e-08
2.76024e-08
2.76024e-08
2.76021e-08
2.76021e-08
2.7602e-08
2.7602e-08
2.76021e-08
2.76021e-08
2.76023e-08
2.76023e-08
2.76028e-08
2.76029e-08
2.76037e-08
2.76039e-08
2.76052e-08
2.76058e-08
2.7608e-08
2.76095e-08
2.76131e-08
2.76159e-08
2.76218e-08
2.76268e-08
2.76359e-08
2.76423e-08
2.76523e-08
2.76511e-08
2.76444e-08
2.76114e-08
2.75459e-08
2.7455e-08
2.70172e-08
2.71048e-08
2.71659e-08
2.71966e-08
2.72014e-08
2.72015e-08
2.71906e-08
2.71838e-08
2.71743e-08
2.71691e-08
2.7163e-08
2.716e-08
2.71563e-08
2.71548e-08
2.71526e-08
2.71519e-08
2.71506e-08
2.71503e-08
2.71495e-08
2.71494e-08
2.71489e-08
2.71488e-08
2.71486e-08
2.71485e-08
2.71485e-08
2.71484e-08
2.71485e-08
2.71485e-08
2.71488e-08
2.71488e-08
2.71493e-08
2.71494e-08
2.71502e-08
2.71504e-08
2.71517e-08
2.71524e-08
2.71546e-08
2.71562e-08
2.71599e-08
2.71628e-08
2.71689e-08
2.71741e-08
2.71836e-08
2.71904e-08
2.72013e-08
2.72012e-08
2.71964e-08
2.71657e-08
2.71046e-08
2.7017e-08
2.65743e-08
2.66585e-08
2.67152e-08
2.67436e-08
2.67464e-08
2.67453e-08
2.67337e-08
2.67263e-08
2.67165e-08
2.67111e-08
2.67048e-08
2.67017e-08
2.66979e-08
2.66963e-08
2.66941e-08
2.66933e-08
2.6692e-08
2.66917e-08
2.66909e-08
2.66908e-08
2.66903e-08
2.66902e-08
2.66899e-08
2.66899e-08
2.66898e-08
2.66898e-08
2.66899e-08
2.66899e-08
2.66901e-08
2.66902e-08
2.66907e-08
2.66908e-08
2.66916e-08
2.66918e-08
2.66932e-08
2.66939e-08
2.66962e-08
2.66978e-08
2.67015e-08
2.67046e-08
2.67109e-08
2.67163e-08
2.67261e-08
2.67335e-08
2.67451e-08
2.67462e-08
2.67434e-08
2.6715e-08
2.66584e-08
2.65741e-08
2.61261e-08
2.6207e-08
2.6259e-08
2.62853e-08
2.62861e-08
2.62837e-08
2.62713e-08
2.62634e-08
2.62533e-08
2.62475e-08
2.62411e-08
2.62379e-08
2.6234e-08
2.62324e-08
2.62301e-08
2.62293e-08
2.62279e-08
2.62276e-08
2.62268e-08
2.62267e-08
2.62261e-08
2.62261e-08
2.62258e-08
2.62258e-08
2.62257e-08
2.62257e-08
2.62258e-08
2.62258e-08
2.6226e-08
2.62261e-08
2.62266e-08
2.62267e-08
2.62275e-08
2.62278e-08
2.62291e-08
2.62299e-08
2.62322e-08
2.62339e-08
2.62377e-08
2.6241e-08
2.62474e-08
2.62531e-08
2.62632e-08
2.62711e-08
2.62835e-08
2.62859e-08
2.62851e-08
2.62589e-08
2.62068e-08
2.61259e-08
2.56722e-08
2.57498e-08
2.57972e-08
2.58211e-08
2.58199e-08
2.58163e-08
2.58031e-08
2.57947e-08
2.57842e-08
2.57782e-08
2.57717e-08
2.57683e-08
2.57644e-08
2.57626e-08
2.57603e-08
2.57595e-08
2.57581e-08
2.57578e-08
2.57569e-08
2.57567e-08
2.57562e-08
2.57562e-08
2.57559e-08
2.57558e-08
2.57557e-08
2.57557e-08
2.57558e-08
2.57558e-08
2.57561e-08
2.57561e-08
2.57567e-08
2.57568e-08
2.57576e-08
2.57579e-08
2.57593e-08
2.57601e-08
2.57624e-08
2.57642e-08
2.57681e-08
2.57715e-08
2.5778e-08
2.5784e-08
2.57945e-08
2.58029e-08
2.58161e-08
2.58197e-08
2.58209e-08
2.5797e-08
2.57496e-08
2.5672e-08
2.52123e-08
2.52865e-08
2.53293e-08
2.53509e-08
2.53477e-08
2.53429e-08
2.53288e-08
2.53198e-08
2.5309e-08
2.53028e-08
2.52961e-08
2.52926e-08
2.52885e-08
2.52867e-08
2.52844e-08
2.52835e-08
2.52821e-08
2.52817e-08
2.52809e-08
2.52807e-08
2.52802e-08
2.52801e-08
2.52798e-08
2.52798e-08
2.52797e-08
2.52797e-08
2.52798e-08
2.52798e-08
2.528e-08
2.52801e-08
2.52806e-08
2.52807e-08
2.52816e-08
2.52819e-08
2.52833e-08
2.52842e-08
2.52866e-08
2.52884e-08
2.52924e-08
2.52959e-08
2.53026e-08
2.53088e-08
2.53196e-08
2.53286e-08
2.53426e-08
2.53475e-08
2.53507e-08
2.53292e-08
2.52863e-08
2.52121e-08
2.4746e-08
2.48169e-08
2.48552e-08
2.48743e-08
2.48691e-08
2.48629e-08
2.48481e-08
2.48385e-08
2.48274e-08
2.48209e-08
2.4814e-08
2.48104e-08
2.48063e-08
2.48044e-08
2.4802e-08
2.48011e-08
2.47997e-08
2.47993e-08
2.47984e-08
2.47983e-08
2.47977e-08
2.47977e-08
2.47973e-08
2.47973e-08
2.47972e-08
2.47972e-08
2.47973e-08
2.47973e-08
2.47976e-08
2.47976e-08
2.47982e-08
2.47983e-08
2.47992e-08
2.47995e-08
2.4801e-08
2.48018e-08
2.48043e-08
2.48061e-08
2.48102e-08
2.48138e-08
2.48207e-08
2.48271e-08
2.48383e-08
2.48479e-08
2.48627e-08
2.48688e-08
2.48741e-08
2.4855e-08
2.48167e-08
2.47458e-08
2.42731e-08
2.43406e-08
2.43743e-08
2.4391e-08
2.43837e-08
2.43763e-08
2.43606e-08
2.43504e-08
2.4339e-08
2.43322e-08
2.43252e-08
2.43215e-08
2.43173e-08
2.43154e-08
2.43129e-08
2.4312e-08
2.43105e-08
2.43102e-08
2.43092e-08
2.43091e-08
2.43085e-08
2.43084e-08
2.43081e-08
2.43081e-08
2.4308e-08
2.4308e-08
2.43081e-08
2.43081e-08
2.43084e-08
2.43084e-08
2.4309e-08
2.43091e-08
2.431e-08
2.43104e-08
2.43118e-08
2.43127e-08
2.43152e-08
2.43171e-08
2.43213e-08
2.4325e-08
2.4332e-08
2.43387e-08
2.43502e-08
2.43604e-08
2.43761e-08
2.43835e-08
2.43907e-08
2.43741e-08
2.43404e-08
2.42729e-08
2.37931e-08
2.38574e-08
2.38863e-08
2.39005e-08
2.38912e-08
2.38826e-08
2.38661e-08
2.38553e-08
2.38435e-08
2.38365e-08
2.38294e-08
2.38255e-08
2.38213e-08
2.38193e-08
2.38168e-08
2.38158e-08
2.38143e-08
2.38139e-08
2.3813e-08
2.38128e-08
2.38123e-08
2.38122e-08
2.38119e-08
2.38118e-08
2.38117e-08
2.38117e-08
2.38118e-08
2.38118e-08
2.38121e-08
2.38122e-08
2.38127e-08
2.38129e-08
2.38138e-08
2.38141e-08
2.38156e-08
2.38166e-08
2.38191e-08
2.38211e-08
2.38253e-08
2.38292e-08
2.38363e-08
2.38433e-08
2.38551e-08
2.38658e-08
2.38823e-08
2.3891e-08
2.39003e-08
2.38861e-08
2.38572e-08
2.3793e-08
2.33224e-08
2.33839e-08
2.34081e-08
2.34201e-08
2.34088e-08
2.33989e-08
2.33815e-08
2.33702e-08
2.33581e-08
2.33509e-08
2.33435e-08
2.33396e-08
2.33353e-08
2.33332e-08
2.33307e-08
2.33297e-08
2.33282e-08
2.33278e-08
2.33268e-08
2.33266e-08
2.33261e-08
2.3326e-08
2.33257e-08
2.33256e-08
2.33255e-08
2.33255e-08
2.33256e-08
2.33256e-08
2.33259e-08
2.3326e-08
2.33265e-08
2.33267e-08
2.33276e-08
2.3328e-08
2.33295e-08
2.33305e-08
2.3333e-08
2.33351e-08
2.33394e-08
2.33433e-08
2.33506e-08
2.33578e-08
2.337e-08
2.33813e-08
2.33987e-08
2.34085e-08
2.34199e-08
2.34079e-08
2.33837e-08
2.33222e-08
2.28376e-08
2.28967e-08
2.29149e-08
2.29239e-08
2.29095e-08
2.28977e-08
2.28788e-08
2.28667e-08
2.28539e-08
2.28462e-08
2.28386e-08
2.28345e-08
2.283e-08
2.28279e-08
2.28253e-08
2.28243e-08
2.28227e-08
2.28223e-08
2.28212e-08
2.28211e-08
2.28205e-08
2.28204e-08
2.28201e-08
2.282e-08
2.28199e-08
2.28199e-08
2.282e-08
2.282e-08
2.28203e-08
2.28204e-08
2.28209e-08
2.28211e-08
2.28221e-08
2.28225e-08
2.28241e-08
2.28251e-08
2.28277e-08
2.28298e-08
2.28343e-08
2.28384e-08
2.2846e-08
2.28536e-08
2.28664e-08
2.28786e-08
2.28975e-08
2.29092e-08
2.29237e-08
2.29147e-08
2.28965e-08
2.28374e-08
2.23374e-08
2.23933e-08
2.24066e-08
2.24132e-08
2.23967e-08
2.23836e-08
2.23638e-08
2.23511e-08
2.23379e-08
2.23301e-08
2.23223e-08
2.23181e-08
2.23136e-08
2.23114e-08
2.23087e-08
2.23077e-08
2.23061e-08
2.23056e-08
2.23046e-08
2.23044e-08
2.23038e-08
2.23037e-08
2.23034e-08
2.23034e-08
2.23032e-08
2.23032e-08
2.23033e-08
2.23033e-08
2.23036e-08
2.23037e-08
2.23043e-08
2.23045e-08
2.23054e-08
2.23059e-08
2.23075e-08
2.23085e-08
2.23112e-08
2.23133e-08
2.23179e-08
2.23221e-08
2.23298e-08
2.23377e-08
2.23508e-08
2.23636e-08
2.23834e-08
2.23964e-08
2.24129e-08
2.24064e-08
2.23931e-08
2.23372e-08
2.18299e-08
2.18823e-08
2.18909e-08
2.18949e-08
2.18763e-08
2.1862e-08
2.18413e-08
2.1828e-08
2.18145e-08
2.18064e-08
2.17986e-08
2.17942e-08
2.17896e-08
2.17874e-08
2.17847e-08
2.17836e-08
2.1782e-08
2.17815e-08
2.17805e-08
2.17803e-08
2.17797e-08
2.17796e-08
2.17793e-08
2.17792e-08
2.17791e-08
2.17791e-08
2.17792e-08
2.17792e-08
2.17795e-08
2.17796e-08
2.17802e-08
2.17804e-08
2.17813e-08
2.17818e-08
2.17834e-08
2.17845e-08
2.17872e-08
2.17894e-08
2.1794e-08
2.17983e-08
2.18062e-08
2.18143e-08
2.18277e-08
2.18411e-08
2.18618e-08
2.18761e-08
2.18947e-08
2.18906e-08
2.18821e-08
2.18297e-08
2.13146e-08
2.13636e-08
2.13674e-08
2.13689e-08
2.13483e-08
2.13326e-08
2.13111e-08
2.12972e-08
2.12834e-08
2.12751e-08
2.12671e-08
2.12626e-08
2.1258e-08
2.12557e-08
2.1253e-08
2.12519e-08
2.12503e-08
2.12498e-08
2.12487e-08
2.12485e-08
2.12479e-08
2.12478e-08
2.12475e-08
2.12474e-08
2.12473e-08
2.12473e-08
2.12474e-08
2.12474e-08
2.12477e-08
2.12478e-08
2.12484e-08
2.12486e-08
2.12496e-08
2.125e-08
2.12517e-08
2.12528e-08
2.12555e-08
2.12578e-08
2.12624e-08
2.12669e-08
2.12748e-08
2.12832e-08
2.12969e-08
2.13109e-08
2.13324e-08
2.1348e-08
2.13687e-08
2.13672e-08
2.13634e-08
2.13144e-08
2.08087e-08
2.08548e-08
2.08539e-08
2.08531e-08
2.08304e-08
2.08135e-08
2.07911e-08
2.07766e-08
2.07625e-08
2.07539e-08
2.07459e-08
2.07413e-08
2.07366e-08
2.07343e-08
2.07315e-08
2.07304e-08
2.07288e-08
2.07283e-08
2.07272e-08
2.0727e-08
2.07264e-08
2.07263e-08
2.07259e-08
2.07259e-08
2.07258e-08
2.07258e-08
2.07259e-08
2.07259e-08
2.07262e-08
2.07263e-08
2.07269e-08
2.07271e-08
2.07281e-08
2.07286e-08
2.07302e-08
2.07313e-08
2.07341e-08
2.07364e-08
2.07411e-08
2.07456e-08
2.07537e-08
2.07622e-08
2.07764e-08
2.07909e-08
2.08133e-08
2.08301e-08
2.08528e-08
2.08537e-08
2.08546e-08
2.08085e-08
2.02963e-08
2.03394e-08
2.03339e-08
2.03307e-08
2.0306e-08
2.0288e-08
2.02646e-08
2.02496e-08
2.02352e-08
2.02264e-08
2.0218e-08
2.02132e-08
2.02082e-08
2.02058e-08
2.02029e-08
2.02017e-08
2.02e-08
2.01995e-08
2.01983e-08
2.01981e-08
2.01975e-08
2.01974e-08
2.0197e-08
2.0197e-08
2.01968e-08
2.01968e-08
2.01969e-08
2.0197e-08
2.01973e-08
2.01974e-08
2.0198e-08
2.01982e-08
2.01993e-08
2.01997e-08
2.02015e-08
2.02026e-08
2.02056e-08
2.0208e-08
2.0213e-08
2.02178e-08
2.02262e-08
2.02349e-08
2.02494e-08
2.02644e-08
2.02878e-08
2.03057e-08
2.03305e-08
2.03337e-08
2.03392e-08
2.02961e-08
1.97627e-08
1.98029e-08
1.97927e-08
1.97866e-08
1.97593e-08
1.97397e-08
1.9715e-08
1.96993e-08
1.96844e-08
1.96753e-08
1.96666e-08
1.96617e-08
1.96566e-08
1.96541e-08
1.96512e-08
1.965e-08
1.96482e-08
1.96477e-08
1.96465e-08
1.96463e-08
1.96456e-08
1.96455e-08
1.96452e-08
1.96451e-08
1.9645e-08
1.9645e-08
1.96451e-08
1.96451e-08
1.96454e-08
1.96455e-08
1.96462e-08
1.96464e-08
1.96475e-08
1.9648e-08
1.96498e-08
1.9651e-08
1.96539e-08
1.96564e-08
1.96615e-08
1.96664e-08
1.9675e-08
1.96841e-08
1.96991e-08
1.97148e-08
1.97395e-08
1.9759e-08
1.97864e-08
1.97925e-08
1.98028e-08
1.97626e-08
1.92191e-08
1.92556e-08
1.9241e-08
1.92323e-08
1.92031e-08
1.91824e-08
1.91568e-08
1.91406e-08
1.91254e-08
1.91161e-08
1.91074e-08
1.91024e-08
1.90973e-08
1.90947e-08
1.90917e-08
1.90905e-08
1.90887e-08
1.90882e-08
1.9087e-08
1.90868e-08
1.90861e-08
1.9086e-08
1.90857e-08
1.90856e-08
1.90855e-08
1.90855e-08
1.90856e-08
1.90856e-08
1.90859e-08
1.9086e-08
1.90867e-08
1.90869e-08
1.9088e-08
1.90885e-08
1.90903e-08
1.90915e-08
1.90945e-08
1.90971e-08
1.91022e-08
1.91072e-08
1.91158e-08
1.91251e-08
1.91404e-08
1.91566e-08
1.91822e-08
1.92028e-08
1.92321e-08
1.92408e-08
1.92555e-08
1.9219e-08
1.86859e-08
1.87193e-08
1.87003e-08
1.86892e-08
1.8658e-08
1.86363e-08
1.86098e-08
1.85932e-08
1.85776e-08
1.85682e-08
1.85594e-08
1.85543e-08
1.85491e-08
1.85466e-08
1.85435e-08
1.85423e-08
1.85405e-08
1.854e-08
1.85388e-08
1.85386e-08
1.85379e-08
1.85378e-08
1.85374e-08
1.85374e-08
1.85372e-08
1.85372e-08
1.85373e-08
1.85374e-08
1.85377e-08
1.85378e-08
1.85385e-08
1.85387e-08
1.85398e-08
1.85403e-08
1.85421e-08
1.85434e-08
1.85464e-08
1.8549e-08
1.85541e-08
1.85592e-08
1.85679e-08
1.85774e-08
1.85929e-08
1.86097e-08
1.86362e-08
1.86578e-08
1.8689e-08
1.87001e-08
1.87192e-08
1.86858e-08
1.81459e-08
1.81767e-08
1.81534e-08
1.81398e-08
1.81045e-08
1.8081e-08
1.80522e-08
1.80345e-08
1.80181e-08
1.80082e-08
1.79991e-08
1.79938e-08
1.79885e-08
1.79858e-08
1.79827e-08
1.79815e-08
1.79796e-08
1.79791e-08
1.79779e-08
1.79776e-08
1.79769e-08
1.79768e-08
1.79765e-08
1.79764e-08
1.79763e-08
1.79763e-08
1.79764e-08
1.79764e-08
1.79768e-08
1.79769e-08
1.79775e-08
1.79778e-08
1.79789e-08
1.79794e-08
1.79813e-08
1.79826e-08
1.79857e-08
1.79884e-08
1.79936e-08
1.79989e-08
1.8008e-08
1.80179e-08
1.80343e-08
1.80521e-08
1.80809e-08
1.81043e-08
1.81397e-08
1.81533e-08
1.81766e-08
1.81459e-08
1.76007e-08
1.76284e-08
1.76008e-08
1.75849e-08
1.75478e-08
1.75233e-08
1.74935e-08
1.74754e-08
1.74587e-08
1.74487e-08
1.74395e-08
1.74341e-08
1.74287e-08
1.74261e-08
1.74229e-08
1.74217e-08
1.74198e-08
1.74192e-08
1.7418e-08
1.74178e-08
1.74171e-08
1.7417e-08
1.74166e-08
1.74165e-08
1.74164e-08
1.74164e-08
1.74165e-08
1.74166e-08
1.74169e-08
1.7417e-08
1.74177e-08
1.7418e-08
1.74191e-08
1.74196e-08
1.74215e-08
1.74228e-08
1.74259e-08
1.74286e-08
1.74339e-08
1.74393e-08
1.74485e-08
1.74586e-08
1.74753e-08
1.74933e-08
1.75232e-08
1.75477e-08
1.75848e-08
1.76008e-08
1.76283e-08
1.76007e-08
1.70501e-08
1.70746e-08
1.70431e-08
1.70247e-08
1.69861e-08
1.69605e-08
1.69296e-08
1.69112e-08
1.68942e-08
1.68841e-08
1.68748e-08
1.68694e-08
1.6864e-08
1.68613e-08
1.68581e-08
1.68569e-08
1.6855e-08
1.68544e-08
1.68532e-08
1.6853e-08
1.68523e-08
1.68522e-08
1.68518e-08
1.68517e-08
1.68516e-08
1.68516e-08
1.68517e-08
1.68518e-08
1.68521e-08
1.68522e-08
1.68529e-08
1.68532e-08
1.68543e-08
1.68549e-08
1.68567e-08
1.6858e-08
1.68612e-08
1.68639e-08
1.68693e-08
1.68747e-08
1.68839e-08
1.68941e-08
1.69111e-08
1.69295e-08
1.69606e-08
1.6986e-08
1.70247e-08
1.7043e-08
1.70746e-08
1.70502e-08
1.6284e-08
1.62838e-08
1.62831e-08
1.6283e-08
1.62826e-08
1.62826e-08
1.62824e-08
1.62824e-08
1.62825e-08
1.62826e-08
1.6283e-08
1.62831e-08
1.62838e-08
1.6284e-08
1.62852e-08
1.62857e-08
1.62876e-08
1.62889e-08
1.62921e-08
1.62948e-08
1.63002e-08
1.63057e-08
1.6315e-08
1.63253e-08
1.63426e-08
1.63613e-08
1.63934e-08
1.64198e-08
1.64598e-08
1.64806e-08
1.65161e-08
1.64948e-08
1.56972e-08
1.56973e-08
1.5698e-08
1.56983e-08
1.56994e-08
1.57e-08
1.57019e-08
1.57032e-08
1.57064e-08
1.57093e-08
1.57147e-08
1.57203e-08
1.57298e-08
1.57404e-08
1.57583e-08
1.57777e-08
1.58115e-08
1.58396e-08
1.58815e-08
1.59055e-08
1.59453e-08
1.59262e-08
1.51531e-08
1.51638e-08
1.5182e-08
1.52017e-08
1.52364e-08
1.52654e-08
1.53084e-08
1.53346e-08
1.53783e-08
1.53622e-08
)
;

boundaryField
{
    fuel
    {
        type            fixedValue;
        value           nonuniform 0();
    }
    wall
    {
        type            zeroGradient;
    }
    outlet
    {
        type            zeroGradient;
    }
    frontAndBack
    {
        type            empty;
    }
    procBoundary0to1
    {
        type            processor;
        value           nonuniform List<scalar> 
50
(
3.51658e-08
3.53007e-08
3.54432e-08
3.55216e-08
3.55576e-08
3.55755e-08
3.55749e-08
3.5576e-08
3.55709e-08
3.55699e-08
3.55662e-08
3.55655e-08
3.5563e-08
3.55627e-08
3.55612e-08
3.55612e-08
3.55602e-08
3.55604e-08
3.55598e-08
3.55599e-08
3.55596e-08
3.55596e-08
3.55594e-08
3.55594e-08
3.55594e-08
3.55594e-08
3.55594e-08
3.55594e-08
3.55596e-08
3.55595e-08
3.55599e-08
3.55598e-08
3.55603e-08
3.55602e-08
3.55611e-08
3.55611e-08
3.55627e-08
3.5563e-08
3.55654e-08
3.55661e-08
3.55699e-08
3.55708e-08
3.55759e-08
3.55748e-08
3.55754e-08
3.55575e-08
3.55215e-08
3.54431e-08
3.53006e-08
3.51658e-08
)
;
    }
    procBoundary0to2
    {
        type            processor;
        value           nonuniform List<scalar> 
53
(
1.64948e-08
1.65161e-08
1.64805e-08
1.64597e-08
1.64198e-08
1.63933e-08
1.63613e-08
1.63427e-08
1.63253e-08
1.63151e-08
1.63057e-08
1.63002e-08
1.62949e-08
1.62921e-08
1.62889e-08
1.62877e-08
1.62858e-08
1.62852e-08
1.62852e-08
1.56982e-08
1.5698e-08
1.56973e-08
1.56972e-08
1.56968e-08
1.56967e-08
1.56966e-08
1.56966e-08
1.56967e-08
1.56968e-08
1.56968e-08
1.51203e-08
1.51204e-08
1.51211e-08
1.51213e-08
1.51225e-08
1.51231e-08
1.5125e-08
1.51263e-08
1.51296e-08
1.51324e-08
1.51379e-08
1.51435e-08
1.51435e-08
1.45737e-08
1.45845e-08
1.4603e-08
1.4623e-08
1.46585e-08
1.46884e-08
1.47323e-08
1.47608e-08
1.48082e-08
1.47951e-08
)
;
    }
}


// ************************************************************************* //
