/*--------------------------------*- C++ -*----------------------------------*\
| =========                 |                                                 |
| \\      /  F ield         | OpenFOAM: The Open Source CFD Toolbox           |
|  \\    /   O peration     | Version:  dev                                   |
|   \\  /    A nd           | Web:      www.OpenFOAM.org                      |
|    \\/     M anipulation  |                                                 |
\*---------------------------------------------------------------------------*/
FoamFile
{
    version     2.0;
    format      ascii;
    class       volScalarField;
    location    "0.04";
    object      CO;
}
// * * * * * * * * * * * * * * * * * * * * * * * * * * * * * * * * * * * * * //

dimensions      [0 0 0 0 0 0 0];

internalField   nonuniform List<scalar> 
2014
(
0.174762
0.174712
0.174665
0.17464
0.174631
0.174626
0.174628
0.174627
0.174629
0.174629
0.17463
0.17463
0.174631
0.174631
0.174631
0.174631
0.174631
0.174631
0.174631
0.174631
0.174631
0.174631
0.174631
0.174631
0.174631
0.174631
0.174631
0.174631
0.174631
0.174631
0.174631
0.174631
0.174631
0.174631
0.174631
0.174631
0.174631
0.174631
0.17463
0.17463
0.174629
0.174629
0.174627
0.174628
0.174626
0.174631
0.17464
0.174665
0.174712
0.174762
0.175001
0.174951
0.174904
0.17488
0.174871
0.174866
0.174867
0.174867
0.174869
0.174869
0.17487
0.17487
0.174871
0.17487
0.174871
0.174871
0.174871
0.174871
0.174871
0.174871
0.174871
0.174871
0.174871
0.174871
0.174871
0.174871
0.174871
0.174871
0.174871
0.174871
0.174871
0.174871
0.174871
0.174871
0.174871
0.174871
0.17487
0.174871
0.17487
0.17487
0.174869
0.174869
0.174867
0.174867
0.174866
0.174871
0.17488
0.174904
0.174951
0.175001
0.175236
0.175186
0.175139
0.175116
0.175107
0.175102
0.175103
0.175103
0.175105
0.175105
0.175106
0.175106
0.175107
0.175106
0.175107
0.175107
0.175107
0.175107
0.175107
0.175107
0.175107
0.175107
0.175107
0.175107
0.175107
0.175107
0.175107
0.175107
0.175107
0.175107
0.175107
0.175107
0.175107
0.175107
0.175107
0.175107
0.175106
0.175107
0.175106
0.175106
0.175105
0.175105
0.175103
0.175103
0.175102
0.175107
0.175116
0.175139
0.175186
0.175236
0.175467
0.175417
0.175371
0.175347
0.175339
0.175334
0.175335
0.175335
0.175337
0.175337
0.175338
0.175338
0.175339
0.175339
0.175339
0.175339
0.175339
0.175339
0.175339
0.175339
0.175339
0.175339
0.175339
0.175339
0.175339
0.175339
0.175339
0.175339
0.175339
0.175339
0.175339
0.175339
0.175339
0.175339
0.175339
0.175339
0.175339
0.175339
0.175338
0.175338
0.175337
0.175337
0.175335
0.175335
0.175334
0.175339
0.175347
0.175371
0.175417
0.175467
0.175694
0.175643
0.175598
0.175575
0.175567
0.175562
0.175564
0.175563
0.175565
0.175565
0.175566
0.175566
0.175567
0.175567
0.175567
0.175567
0.175568
0.175567
0.175568
0.175568
0.175568
0.175568
0.175568
0.175568
0.175568
0.175568
0.175568
0.175568
0.175568
0.175568
0.175568
0.175568
0.175567
0.175568
0.175567
0.175567
0.175567
0.175567
0.175566
0.175566
0.175565
0.175565
0.175563
0.175564
0.175562
0.175567
0.175575
0.175598
0.175643
0.175694
0.175916
0.175866
0.175822
0.175799
0.175791
0.175786
0.175788
0.175787
0.175789
0.175789
0.175791
0.17579
0.175791
0.175791
0.175792
0.175792
0.175792
0.175792
0.175792
0.175792
0.175792
0.175792
0.175792
0.175792
0.175792
0.175792
0.175792
0.175792
0.175792
0.175792
0.175792
0.175792
0.175792
0.175792
0.175792
0.175792
0.175791
0.175791
0.17579
0.17579
0.175789
0.175789
0.175787
0.175788
0.175786
0.175791
0.175799
0.175822
0.175866
0.175916
0.176135
0.176085
0.176041
0.176019
0.176011
0.176006
0.176008
0.176007
0.176009
0.176009
0.176011
0.176011
0.176011
0.176011
0.176012
0.176012
0.176012
0.176012
0.176012
0.176012
0.176012
0.176012
0.176012
0.176012
0.176012
0.176012
0.176012
0.176012
0.176012
0.176012
0.176012
0.176012
0.176012
0.176012
0.176012
0.176012
0.176011
0.176011
0.176011
0.176011
0.176009
0.176009
0.176007
0.176008
0.176006
0.176011
0.176019
0.176041
0.176085
0.176135
0.176349
0.176299
0.176256
0.176235
0.176227
0.176222
0.176224
0.176223
0.176225
0.176225
0.176227
0.176227
0.176227
0.176227
0.176228
0.176228
0.176228
0.176228
0.176228
0.176228
0.176228
0.176228
0.176228
0.176228
0.176228
0.176228
0.176228
0.176228
0.176228
0.176228
0.176228
0.176228
0.176228
0.176228
0.176228
0.176228
0.176227
0.176227
0.176227
0.176227
0.176225
0.176225
0.176223
0.176224
0.176222
0.176227
0.176235
0.176256
0.176299
0.176349
0.176558
0.176509
0.176467
0.176446
0.176439
0.176434
0.176436
0.176435
0.176437
0.176437
0.176438
0.176438
0.176439
0.176439
0.17644
0.17644
0.17644
0.17644
0.17644
0.17644
0.17644
0.17644
0.17644
0.17644
0.17644
0.17644
0.17644
0.17644
0.17644
0.17644
0.17644
0.17644
0.17644
0.17644
0.176439
0.17644
0.176439
0.176439
0.176438
0.176438
0.176437
0.176437
0.176435
0.176436
0.176434
0.176439
0.176446
0.176467
0.176509
0.176558
0.176764
0.176714
0.176674
0.176653
0.176646
0.176641
0.176643
0.176643
0.176645
0.176645
0.176646
0.176646
0.176647
0.176647
0.176647
0.176647
0.176647
0.176647
0.176647
0.176647
0.176647
0.176647
0.176647
0.176647
0.176647
0.176647
0.176647
0.176647
0.176647
0.176647
0.176647
0.176647
0.176647
0.176647
0.176647
0.176647
0.176646
0.176647
0.176646
0.176646
0.176645
0.176645
0.176643
0.176643
0.176641
0.176646
0.176653
0.176674
0.176714
0.176764
0.176964
0.176915
0.176876
0.176856
0.176849
0.176844
0.176846
0.176846
0.176848
0.176848
0.176849
0.176849
0.17685
0.17685
0.17685
0.17685
0.17685
0.17685
0.17685
0.17685
0.17685
0.17685
0.17685
0.17685
0.17685
0.17685
0.17685
0.17685
0.17685
0.17685
0.17685
0.17685
0.17685
0.17685
0.17685
0.17685
0.176849
0.17685
0.176849
0.176849
0.176848
0.176847
0.176846
0.176846
0.176844
0.176849
0.176856
0.176876
0.176915
0.176964
0.17716
0.177112
0.177073
0.177054
0.177047
0.177043
0.177044
0.177044
0.177046
0.177046
0.177047
0.177047
0.177048
0.177048
0.177048
0.177048
0.177049
0.177049
0.177049
0.177049
0.177049
0.177049
0.177049
0.177049
0.177049
0.177049
0.177049
0.177049
0.177049
0.177049
0.177049
0.177049
0.177049
0.177049
0.177048
0.177048
0.177048
0.177048
0.177047
0.177047
0.177046
0.177046
0.177044
0.177044
0.177043
0.177047
0.177054
0.177073
0.177112
0.17716
0.177351
0.177304
0.177266
0.177248
0.177241
0.177237
0.177238
0.177238
0.17724
0.17724
0.177241
0.177241
0.177242
0.177242
0.177242
0.177242
0.177243
0.177242
0.177243
0.177243
0.177243
0.177243
0.177243
0.177243
0.177243
0.177243
0.177243
0.177243
0.177243
0.177243
0.177243
0.177243
0.177242
0.177243
0.177242
0.177242
0.177242
0.177242
0.177241
0.177241
0.17724
0.17724
0.177238
0.177238
0.177237
0.177241
0.177248
0.177266
0.177304
0.177351
0.177538
0.177491
0.177454
0.177437
0.17743
0.177426
0.177427
0.177427
0.177429
0.177429
0.17743
0.17743
0.177431
0.177431
0.177431
0.177431
0.177432
0.177432
0.177432
0.177432
0.177432
0.177432
0.177432
0.177432
0.177432
0.177432
0.177432
0.177432
0.177432
0.177432
0.177432
0.177432
0.177432
0.177432
0.177431
0.177431
0.177431
0.177431
0.17743
0.17743
0.177429
0.177429
0.177427
0.177427
0.177426
0.17743
0.177437
0.177454
0.177491
0.177538
0.177719
0.177674
0.177638
0.177621
0.177614
0.17761
0.177612
0.177612
0.177613
0.177613
0.177614
0.177615
0.177615
0.177615
0.177616
0.177616
0.177616
0.177616
0.177616
0.177616
0.177616
0.177616
0.177616
0.177616
0.177616
0.177616
0.177616
0.177616
0.177616
0.177616
0.177616
0.177616
0.177616
0.177616
0.177616
0.177616
0.177615
0.177615
0.177614
0.177614
0.177613
0.177613
0.177611
0.177612
0.17761
0.177614
0.177621
0.177638
0.177674
0.177719
0.177896
0.177851
0.177817
0.1778
0.177794
0.17779
0.177791
0.177791
0.177793
0.177793
0.177794
0.177794
0.177795
0.177795
0.177795
0.177795
0.177795
0.177795
0.177795
0.177795
0.177796
0.177795
0.177796
0.177796
0.177796
0.177796
0.177795
0.177796
0.177795
0.177795
0.177795
0.177795
0.177795
0.177795
0.177795
0.177795
0.177795
0.177795
0.177794
0.177794
0.177793
0.177793
0.177791
0.177791
0.17779
0.177794
0.1778
0.177817
0.177851
0.177896
0.178068
0.178024
0.17799
0.177974
0.177968
0.177964
0.177966
0.177965
0.177967
0.177967
0.177968
0.177968
0.177969
0.177969
0.177969
0.177969
0.17797
0.17797
0.17797
0.17797
0.17797
0.17797
0.17797
0.17797
0.17797
0.17797
0.17797
0.17797
0.17797
0.17797
0.17797
0.17797
0.17797
0.17797
0.177969
0.177969
0.177969
0.177969
0.177968
0.177968
0.177967
0.177967
0.177965
0.177966
0.177964
0.177968
0.177974
0.17799
0.178024
0.178068
0.178234
0.178192
0.178159
0.178143
0.178138
0.178134
0.178135
0.178135
0.178136
0.178137
0.178138
0.178138
0.178138
0.178138
0.178139
0.178139
0.178139
0.178139
0.178139
0.178139
0.178139
0.178139
0.178139
0.178139
0.178139
0.178139
0.178139
0.178139
0.178139
0.178139
0.178139
0.178139
0.178139
0.178139
0.178139
0.178139
0.178138
0.178138
0.178138
0.178138
0.178136
0.178136
0.178135
0.178135
0.178134
0.178138
0.178143
0.178159
0.178192
0.178234
0.178395
0.178354
0.178323
0.178307
0.178302
0.178298
0.178299
0.178299
0.1783
0.178301
0.178302
0.178302
0.178302
0.178302
0.178303
0.178303
0.178303
0.178303
0.178303
0.178303
0.178303
0.178303
0.178303
0.178303
0.178303
0.178303
0.178303
0.178303
0.178303
0.178303
0.178303
0.178303
0.178303
0.178303
0.178303
0.178303
0.178302
0.178302
0.178302
0.178302
0.178301
0.1783
0.178299
0.178299
0.178298
0.178302
0.178307
0.178323
0.178354
0.178395
0.178551
0.178512
0.178481
0.178466
0.178461
0.178457
0.178458
0.178458
0.178459
0.178459
0.17846
0.17846
0.178461
0.178461
0.178462
0.178461
0.178462
0.178462
0.178462
0.178462
0.178462
0.178462
0.178462
0.178462
0.178462
0.178462
0.178462
0.178462
0.178462
0.178462
0.178462
0.178462
0.178462
0.178462
0.178461
0.178461
0.178461
0.178461
0.17846
0.17846
0.178459
0.178459
0.178458
0.178458
0.178457
0.178461
0.178466
0.178481
0.178512
0.178551
0.178702
0.178664
0.178634
0.178619
0.178614
0.178611
0.178612
0.178611
0.178613
0.178613
0.178614
0.178614
0.178614
0.178614
0.178615
0.178615
0.178615
0.178615
0.178615
0.178615
0.178615
0.178615
0.178615
0.178615
0.178615
0.178615
0.178615
0.178615
0.178615
0.178615
0.178615
0.178615
0.178615
0.178615
0.178615
0.178615
0.178614
0.178614
0.178614
0.178614
0.178613
0.178613
0.178611
0.178612
0.178611
0.178614
0.178619
0.178634
0.178664
0.178702
0.178847
0.17881
0.178781
0.178767
0.178762
0.178759
0.17876
0.178759
0.178761
0.178761
0.178762
0.178762
0.178762
0.178762
0.178763
0.178763
0.178763
0.178763
0.178763
0.178763
0.178763
0.178763
0.178763
0.178763
0.178763
0.178763
0.178763
0.178763
0.178763
0.178763
0.178763
0.178763
0.178763
0.178763
0.178762
0.178763
0.178762
0.178762
0.178762
0.178761
0.178761
0.178761
0.178759
0.17876
0.178759
0.178762
0.178767
0.178781
0.17881
0.178847
0.178986
0.178951
0.178923
0.17891
0.178905
0.178901
0.178902
0.178902
0.178903
0.178903
0.178904
0.178904
0.178904
0.178904
0.178905
0.178905
0.178905
0.178905
0.178905
0.178905
0.178905
0.178905
0.178905
0.178905
0.178905
0.178905
0.178905
0.178905
0.178905
0.178905
0.178905
0.178905
0.178905
0.178905
0.178905
0.178905
0.178904
0.178904
0.178904
0.178904
0.178903
0.178903
0.178902
0.178902
0.178901
0.178905
0.17891
0.178923
0.178951
0.178986
0.17912
0.179087
0.17906
0.179046
0.179041
0.179038
0.179039
0.179038
0.179039
0.179039
0.17904
0.17904
0.179041
0.179041
0.179041
0.179041
0.179041
0.179041
0.179041
0.179041
0.179042
0.179041
0.179042
0.179042
0.179042
0.179042
0.179041
0.179042
0.179041
0.179041
0.179041
0.179041
0.179041
0.179041
0.179041
0.179041
0.179041
0.179041
0.17904
0.17904
0.179039
0.179039
0.179038
0.179039
0.179038
0.179041
0.179046
0.17906
0.179087
0.17912
0.179249
0.179216
0.17919
0.179177
0.179172
0.179169
0.179169
0.179169
0.17917
0.17917
0.179171
0.179171
0.179171
0.179171
0.179172
0.179172
0.179172
0.179172
0.179172
0.179172
0.179172
0.179172
0.179172
0.179172
0.179172
0.179172
0.179172
0.179172
0.179172
0.179172
0.179172
0.179172
0.179172
0.179172
0.179172
0.179172
0.179171
0.179171
0.179171
0.179171
0.17917
0.17917
0.179169
0.179169
0.179169
0.179172
0.179177
0.17919
0.179216
0.179249
0.179371
0.17934
0.179315
0.179302
0.179297
0.179294
0.179294
0.179294
0.179295
0.179295
0.179295
0.179295
0.179296
0.179296
0.179296
0.179296
0.179296
0.179296
0.179297
0.179296
0.179297
0.179297
0.179297
0.179297
0.179297
0.179297
0.179297
0.179297
0.179297
0.179297
0.179296
0.179296
0.179296
0.179296
0.179296
0.179296
0.179296
0.179296
0.179295
0.179295
0.179295
0.179295
0.179294
0.179294
0.179294
0.179297
0.179302
0.179315
0.17934
0.179371
0.179484
0.179454
0.179429
0.179417
0.179412
0.179409
0.179409
0.179409
0.179409
0.179409
0.17941
0.17941
0.17941
0.17941
0.179411
0.179411
0.179411
0.179411
0.179411
0.179411
0.179411
0.179411
0.179411
0.179411
0.179411
0.179411
0.179411
0.179411
0.179411
0.179411
0.179411
0.179411
0.179411
0.179411
0.179411
0.179411
0.17941
0.17941
0.17941
0.17941
0.179409
0.179409
0.179408
0.179409
0.179409
0.179412
0.179417
0.179429
0.179454
0.179484
0.179592
0.179563
0.17954
0.179528
0.179523
0.17952
0.17952
0.17952
0.17952
0.17952
0.179521
0.179521
0.179521
0.179521
0.179522
0.179522
0.179522
0.179522
0.179522
0.179522
0.179522
0.179522
0.179522
0.179522
0.179522
0.179522
0.179522
0.179522
0.179522
0.179522
0.179522
0.179522
0.179522
0.179522
0.179522
0.179522
0.179521
0.179521
0.179521
0.179521
0.17952
0.17952
0.17952
0.17952
0.17952
0.179523
0.179528
0.17954
0.179563
0.179592
0.179696
0.179668
0.179646
0.179634
0.17963
0.179626
0.179626
0.179626
0.179626
0.179626
0.179627
0.179627
0.179627
0.179627
0.179627
0.179627
0.179627
0.179627
0.179628
0.179628
0.179628
0.179628
0.179628
0.179628
0.179628
0.179628
0.179628
0.179628
0.179628
0.179628
0.179627
0.179627
0.179627
0.179627
0.179627
0.179627
0.179627
0.179627
0.179627
0.179627
0.179626
0.179626
0.179626
0.179626
0.179626
0.179629
0.179634
0.179646
0.179668
0.179696
0.179794
0.179767
0.179746
0.179734
0.179729
0.179726
0.179726
0.179725
0.179726
0.179725
0.179726
0.179726
0.179726
0.179726
0.179726
0.179726
0.179727
0.179727
0.179727
0.179727
0.179727
0.179727
0.179727
0.179727
0.179727
0.179727
0.179727
0.179727
0.179727
0.179727
0.179727
0.179727
0.179727
0.179727
0.179726
0.179726
0.179726
0.179726
0.179726
0.179726
0.179725
0.179726
0.179725
0.179726
0.179726
0.179729
0.179734
0.179746
0.179767
0.179794
0.179886
0.17986
0.179839
0.179828
0.179823
0.179819
0.179819
0.179818
0.179818
0.179818
0.179819
0.179819
0.179819
0.179819
0.179819
0.179819
0.179819
0.179819
0.179819
0.179819
0.179819
0.179819
0.179819
0.179819
0.179819
0.179819
0.179819
0.179819
0.179819
0.179819
0.179819
0.179819
0.179819
0.179819
0.179819
0.179819
0.179819
0.179819
0.179819
0.179819
0.179818
0.179818
0.179818
0.179819
0.179819
0.179823
0.179828
0.179839
0.17986
0.179886
0.179968
0.179943
0.179923
0.179912
0.179906
0.179903
0.179902
0.179901
0.179902
0.179901
0.179902
0.179902
0.179902
0.179902
0.179902
0.179902
0.179902
0.179902
0.179902
0.179902
0.179902
0.179902
0.179902
0.179902
0.179902
0.179902
0.179902
0.179902
0.179902
0.179902
0.179902
0.179902
0.179902
0.179902
0.179902
0.179902
0.179902
0.179902
0.179902
0.179902
0.179901
0.179902
0.179901
0.179902
0.179903
0.179906
0.179912
0.179923
0.179943
0.179968
0.180043
0.180019
0.18
0.179989
0.179983
0.17998
0.179979
0.179978
0.179978
0.179978
0.179978
0.179978
0.179978
0.179978
0.179979
0.179979
0.179979
0.179979
0.179979
0.179979
0.179979
0.179979
0.179979
0.179979
0.179979
0.179979
0.179979
0.179979
0.179979
0.179979
0.179979
0.179979
0.179979
0.179979
0.179978
0.179978
0.179978
0.179978
0.179978
0.179978
0.179978
0.179978
0.179978
0.179979
0.17998
0.179983
0.179989
0.18
0.180019
0.180043
0.180114
0.180091
0.180073
0.180062
0.180056
0.180052
0.180051
0.18005
0.18005
0.18005
0.18005
0.18005
0.18005
0.18005
0.18005
0.18005
0.18005
0.18005
0.180051
0.180051
0.180051
0.180051
0.180051
0.180051
0.180051
0.180051
0.180051
0.180051
0.180051
0.180051
0.18005
0.18005
0.18005
0.18005
0.18005
0.18005
0.18005
0.18005
0.18005
0.18005
0.18005
0.18005
0.18005
0.180051
0.180052
0.180056
0.180062
0.180073
0.180091
0.180114
0.180179
0.180157
0.180139
0.180128
0.180122
0.180118
0.180117
0.180115
0.180115
0.180115
0.180115
0.180115
0.180115
0.180115
0.180115
0.180115
0.180115
0.180115
0.180115
0.180115
0.180115
0.180115
0.180115
0.180115
0.180115
0.180115
0.180115
0.180115
0.180115
0.180115
0.180115
0.180115
0.180115
0.180115
0.180115
0.180115
0.180115
0.180115
0.180115
0.180115
0.180115
0.180115
0.180115
0.180117
0.180118
0.180122
0.180128
0.180138
0.180157
0.180179
0.180235
0.180213
0.180195
0.180185
0.180178
0.180175
0.180173
0.180172
0.180171
0.180171
0.180171
0.180171
0.180171
0.180171
0.180171
0.180171
0.180171
0.180171
0.180171
0.180171
0.180171
0.180171
0.180171
0.180171
0.180171
0.180171
0.180171
0.180171
0.180171
0.180171
0.180171
0.180171
0.180171
0.180171
0.180171
0.180171
0.180171
0.180171
0.180171
0.180171
0.180171
0.180171
0.180172
0.180173
0.180175
0.180178
0.180185
0.180195
0.180213
0.180235
0.180284
0.180263
0.180245
0.180235
0.180228
0.180225
0.180223
0.180221
0.180221
0.18022
0.18022
0.18022
0.18022
0.18022
0.18022
0.18022
0.18022
0.18022
0.18022
0.18022
0.180221
0.180221
0.180221
0.180221
0.180221
0.180221
0.18022
0.18022
0.18022
0.18022
0.18022
0.18022
0.18022
0.18022
0.18022
0.18022
0.18022
0.18022
0.18022
0.18022
0.18022
0.180221
0.180221
0.180223
0.180224
0.180228
0.180235
0.180245
0.180263
0.180284
0.180325
0.180306
0.180288
0.180277
0.180271
0.180267
0.180265
0.180263
0.180263
0.180262
0.180262
0.180262
0.180262
0.180262
0.180262
0.180262
0.180262
0.180262
0.180262
0.180262
0.180262
0.180262
0.180262
0.180262
0.180262
0.180262
0.180262
0.180262
0.180262
0.180262
0.180262
0.180262
0.180262
0.180262
0.180262
0.180262
0.180262
0.180262
0.180262
0.180262
0.180262
0.180263
0.180263
0.180265
0.180267
0.180271
0.180277
0.180288
0.180306
0.180325
0.18036
0.180341
0.180324
0.180313
0.180306
0.180302
0.180299
0.180298
0.180297
0.180297
0.180296
0.180296
0.180296
0.180296
0.180296
0.180296
0.180296
0.180296
0.180296
0.180296
0.180296
0.180296
0.180296
0.180296
0.180296
0.180296
0.180296
0.180296
0.180296
0.180296
0.180296
0.180296
0.180296
0.180296
0.180296
0.180296
0.180296
0.180296
0.180296
0.180296
0.180296
0.180297
0.180298
0.180299
0.180302
0.180306
0.180313
0.180324
0.180341
0.18036
0.180323
0.180323
0.180323
0.180323
0.180323
0.180323
0.180323
0.180323
0.180323
0.180323
0.180323
0.180323
0.180323
0.180323
0.180323
0.180323
0.180323
0.180323
0.180323
0.180323
0.180323
0.180323
0.180323
0.180324
0.180325
0.180327
0.18033
0.180334
0.180341
0.180352
0.18037
0.180388
0.180343
0.180343
0.180343
0.180343
0.180343
0.180343
0.180343
0.180343
0.180343
0.180343
0.180343
0.180343
0.180343
0.180344
0.180345
0.180347
0.18035
0.180355
0.180363
0.180374
0.180391
0.180409
0.180356
0.180356
0.180358
0.18036
0.180363
0.180368
0.180376
0.180387
0.180405
0.180422
)
;

boundaryField
{
    fuel
    {
        type            fixedValue;
        value           nonuniform 0();
    }
    wall
    {
        type            zeroGradient;
    }
    outlet
    {
        type            zeroGradient;
    }
    frontAndBack
    {
        type            empty;
    }
    procBoundary0to1
    {
        type            processor;
        value           nonuniform List<scalar> 
50
(
0.17452
0.174469
0.174421
0.174397
0.174388
0.174383
0.174384
0.174384
0.174386
0.174385
0.174387
0.174387
0.174387
0.174387
0.174388
0.174388
0.174388
0.174388
0.174388
0.174388
0.174388
0.174388
0.174388
0.174388
0.174388
0.174388
0.174388
0.174388
0.174388
0.174388
0.174388
0.174388
0.174388
0.174388
0.174388
0.174388
0.174387
0.174387
0.174387
0.174387
0.174385
0.174386
0.174384
0.174384
0.174383
0.174388
0.174397
0.174421
0.174469
0.17452
)
;
    }
    procBoundary0to2
    {
        type            processor;
        value           nonuniform List<scalar> 
53
(
0.180388
0.18037
0.180352
0.180341
0.180334
0.18033
0.180327
0.180325
0.180324
0.180324
0.180323
0.180323
0.180323
0.180323
0.180323
0.180323
0.180323
0.180323
0.180323
0.180343
0.180343
0.180343
0.180343
0.180343
0.180343
0.180343
0.180343
0.180343
0.180343
0.180343
0.180355
0.180355
0.180354
0.180354
0.180354
0.180354
0.180354
0.180354
0.180354
0.180355
0.180355
0.180355
0.180355
0.18036
0.180361
0.180362
0.180365
0.180369
0.180374
0.180382
0.180393
0.180411
0.180428
)
;
    }
}


// ************************************************************************* //
