/*--------------------------------*- C++ -*----------------------------------*\
| =========                 |                                                 |
| \\      /  F ield         | OpenFOAM: The Open Source CFD Toolbox           |
|  \\    /   O peration     | Version:  dev                                   |
|   \\  /    A nd           | Web:      www.OpenFOAM.org                      |
|    \\/     M anipulation  |                                                 |
\*---------------------------------------------------------------------------*/
FoamFile
{
    version     2.0;
    format      ascii;
    class       volScalarField;
    location    "0.04";
    object      CO2;
}
// * * * * * * * * * * * * * * * * * * * * * * * * * * * * * * * * * * * * * //

dimensions      [0 0 0 0 0 0 0];

internalField   nonuniform List<scalar> 
2014
(
0.0489066
0.0489201
0.0489323
0.0489384
0.0489405
0.0489417
0.0489411
0.0489413
0.0489407
0.0489407
0.0489404
0.0489404
0.0489402
0.0489403
0.0489401
0.0489402
0.0489401
0.0489401
0.0489401
0.0489401
0.0489401
0.0489401
0.0489401
0.0489401
0.0489401
0.0489401
0.0489401
0.0489401
0.0489401
0.0489401
0.0489401
0.0489401
0.0489401
0.0489401
0.0489402
0.0489401
0.0489403
0.0489402
0.0489405
0.0489404
0.0489407
0.0489407
0.0489413
0.0489411
0.0489417
0.0489405
0.0489384
0.0489323
0.0489201
0.0489066
0.0488391
0.0488528
0.0488651
0.0488712
0.0488733
0.0488745
0.0488739
0.048874
0.0488735
0.0488735
0.0488731
0.0488732
0.048873
0.048873
0.0488729
0.0488729
0.0488728
0.0488729
0.0488728
0.0488729
0.0488728
0.0488728
0.0488728
0.0488728
0.0488728
0.0488728
0.0488728
0.0488728
0.0488728
0.0488728
0.0488729
0.0488728
0.0488729
0.0488729
0.048873
0.0488729
0.048873
0.048873
0.0488732
0.0488732
0.0488735
0.0488735
0.0488741
0.0488739
0.0488745
0.0488733
0.0488712
0.0488651
0.0488528
0.0488391
0.0487719
0.0487857
0.048798
0.0488041
0.0488062
0.0488074
0.0488068
0.048807
0.0488064
0.0488064
0.0488061
0.0488061
0.0488059
0.0488059
0.0488058
0.0488058
0.0488057
0.0488058
0.0488057
0.0488058
0.0488057
0.0488057
0.0488057
0.0488057
0.0488057
0.0488057
0.0488057
0.0488057
0.0488058
0.0488057
0.0488058
0.0488057
0.0488058
0.0488058
0.0488059
0.0488058
0.048806
0.0488059
0.0488061
0.0488061
0.0488064
0.0488064
0.048807
0.0488068
0.0488074
0.0488062
0.0488041
0.048798
0.0487857
0.0487719
0.048705
0.048719
0.0487312
0.0487373
0.0487394
0.0487406
0.04874
0.0487402
0.0487396
0.0487396
0.0487393
0.0487393
0.0487391
0.0487391
0.048739
0.048739
0.0487389
0.048739
0.0487389
0.048739
0.0487389
0.0487389
0.0487389
0.0487389
0.0487389
0.0487389
0.0487389
0.0487389
0.0487389
0.0487389
0.048739
0.0487389
0.048739
0.0487389
0.048739
0.048739
0.0487391
0.0487391
0.0487393
0.0487393
0.0487396
0.0487396
0.0487402
0.0487401
0.0487406
0.0487394
0.0487373
0.0487312
0.048719
0.048705
0.0486386
0.0486528
0.0486649
0.0486709
0.048673
0.0486742
0.0486737
0.0486738
0.0486732
0.0486732
0.0486729
0.0486729
0.0486727
0.0486727
0.0486726
0.0486726
0.0486725
0.0486726
0.0486725
0.0486726
0.0486725
0.0486725
0.0486725
0.0486725
0.0486725
0.0486725
0.0486725
0.0486725
0.0486725
0.0486725
0.0486726
0.0486725
0.0486726
0.0486726
0.0486727
0.0486726
0.0486728
0.0486727
0.0486729
0.0486729
0.0486732
0.0486732
0.0486738
0.0486737
0.0486743
0.048673
0.048671
0.0486649
0.0486528
0.0486386
0.0485729
0.0485871
0.0485991
0.0486051
0.0486072
0.0486084
0.0486078
0.0486079
0.0486074
0.0486074
0.048607
0.0486071
0.0486069
0.0486069
0.0486068
0.0486068
0.0486067
0.0486068
0.0486067
0.0486067
0.0486067
0.0486067
0.0486067
0.0486067
0.0486067
0.0486067
0.0486067
0.0486067
0.0486067
0.0486067
0.0486067
0.0486067
0.0486068
0.0486067
0.0486068
0.0486068
0.0486069
0.0486069
0.0486071
0.048607
0.0486074
0.0486074
0.048608
0.0486078
0.0486084
0.0486072
0.0486051
0.0485992
0.0485871
0.0485729
0.0485078
0.0485222
0.0485341
0.04854
0.048542
0.0485432
0.0485426
0.0485428
0.0485422
0.0485422
0.0485419
0.0485419
0.0485417
0.0485417
0.0485416
0.0485416
0.0485415
0.0485416
0.0485415
0.0485415
0.0485415
0.0485415
0.0485415
0.0485415
0.0485415
0.0485415
0.0485415
0.0485415
0.0485415
0.0485415
0.0485415
0.0485415
0.0485416
0.0485415
0.0485416
0.0485416
0.0485417
0.0485417
0.0485419
0.0485419
0.0485422
0.0485422
0.0485428
0.0485427
0.0485432
0.048542
0.04854
0.0485341
0.0485222
0.0485079
0.0484436
0.048458
0.0484698
0.0484756
0.0484776
0.0484788
0.0484782
0.0484783
0.0484778
0.0484778
0.0484774
0.0484775
0.0484773
0.0484773
0.0484772
0.0484772
0.0484771
0.0484772
0.0484771
0.0484771
0.0484771
0.0484771
0.0484771
0.0484771
0.0484771
0.0484771
0.0484771
0.0484771
0.0484771
0.0484771
0.0484771
0.0484771
0.0484772
0.0484771
0.0484772
0.0484772
0.0484773
0.0484773
0.0484775
0.0484775
0.0484778
0.0484778
0.0484784
0.0484782
0.0484788
0.0484776
0.0484756
0.0484698
0.048458
0.0484437
0.0483804
0.0483948
0.0484064
0.0484121
0.048414
0.0484152
0.0484147
0.0484148
0.0484142
0.0484143
0.0484139
0.0484139
0.0484137
0.0484138
0.0484136
0.0484137
0.0484136
0.0484136
0.0484136
0.0484136
0.0484135
0.0484136
0.0484135
0.0484135
0.0484135
0.0484135
0.0484135
0.0484135
0.0484136
0.0484135
0.0484136
0.0484136
0.0484136
0.0484136
0.0484137
0.0484136
0.0484138
0.0484137
0.048414
0.0484139
0.0484143
0.0484142
0.0484148
0.0484147
0.0484152
0.0484141
0.0484121
0.0484064
0.0483948
0.0483804
0.0483182
0.0483326
0.048344
0.0483495
0.0483515
0.0483526
0.0483521
0.0483522
0.0483517
0.0483517
0.0483513
0.0483514
0.0483512
0.0483512
0.0483511
0.0483511
0.048351
0.0483511
0.048351
0.048351
0.048351
0.048351
0.048351
0.048351
0.048351
0.048351
0.048351
0.048351
0.048351
0.048351
0.048351
0.048351
0.0483511
0.048351
0.0483511
0.0483511
0.0483512
0.0483512
0.0483514
0.0483514
0.0483517
0.0483517
0.0483522
0.0483521
0.0483527
0.0483515
0.0483496
0.048344
0.0483326
0.0483182
0.0482571
0.0482714
0.0482826
0.0482881
0.04829
0.0482911
0.0482906
0.0482907
0.0482902
0.0482902
0.0482898
0.0482899
0.0482897
0.0482897
0.0482896
0.0482896
0.0482895
0.0482896
0.0482895
0.0482895
0.0482895
0.0482895
0.0482895
0.0482895
0.0482895
0.0482895
0.0482895
0.0482895
0.0482895
0.0482895
0.0482895
0.0482895
0.0482896
0.0482895
0.0482896
0.0482896
0.0482897
0.0482897
0.0482899
0.0482899
0.0482902
0.0482902
0.0482907
0.0482906
0.0482911
0.04829
0.0482881
0.0482827
0.0482715
0.0482571
0.0481972
0.0482115
0.0482225
0.0482278
0.0482296
0.0482308
0.0482303
0.0482304
0.0482298
0.0482298
0.0482295
0.0482295
0.0482293
0.0482294
0.0482292
0.0482293
0.0482292
0.0482292
0.0482292
0.0482292
0.0482292
0.0482292
0.0482292
0.0482292
0.0482292
0.0482292
0.0482292
0.0482292
0.0482292
0.0482292
0.0482292
0.0482292
0.0482292
0.0482292
0.0482293
0.0482293
0.0482294
0.0482294
0.0482296
0.0482295
0.0482299
0.0482298
0.0482304
0.0482303
0.0482308
0.0482296
0.0482278
0.0482225
0.0482115
0.0481972
0.0481386
0.0481528
0.0481635
0.0481687
0.0481705
0.0481716
0.0481711
0.0481712
0.0481707
0.0481707
0.0481704
0.0481705
0.0481703
0.0481703
0.0481702
0.0481702
0.0481701
0.0481701
0.0481701
0.0481701
0.0481701
0.0481701
0.0481701
0.0481701
0.0481701
0.0481701
0.0481701
0.0481701
0.0481701
0.0481701
0.0481701
0.0481701
0.0481702
0.0481701
0.0481702
0.0481702
0.0481703
0.0481703
0.0481705
0.0481704
0.0481708
0.0481708
0.0481713
0.0481712
0.0481716
0.0481705
0.0481687
0.0481635
0.0481528
0.0481386
0.0480814
0.0480954
0.0481059
0.0481109
0.0481127
0.0481138
0.0481133
0.0481134
0.048113
0.048113
0.0481127
0.0481127
0.0481125
0.0481125
0.0481124
0.0481124
0.0481124
0.0481124
0.0481123
0.0481124
0.0481123
0.0481123
0.0481123
0.0481123
0.0481123
0.0481123
0.0481123
0.0481123
0.0481124
0.0481123
0.0481124
0.0481123
0.0481124
0.0481124
0.0481125
0.0481124
0.0481125
0.0481125
0.0481127
0.0481127
0.048113
0.048113
0.0481135
0.0481134
0.0481138
0.0481127
0.0481109
0.0481059
0.0480954
0.0480814
0.0480256
0.0480394
0.0480496
0.0480545
0.0480563
0.0480574
0.048057
0.0480571
0.0480566
0.0480566
0.0480563
0.0480563
0.0480561
0.0480562
0.0480561
0.0480561
0.048056
0.0480561
0.048056
0.048056
0.048056
0.048056
0.048056
0.048056
0.048056
0.048056
0.048056
0.048056
0.048056
0.048056
0.048056
0.048056
0.0480561
0.048056
0.0480561
0.0480561
0.0480562
0.0480562
0.0480564
0.0480563
0.0480566
0.0480566
0.0480571
0.048057
0.0480574
0.0480563
0.0480546
0.0480497
0.0480394
0.0480257
0.0479714
0.0479848
0.0479949
0.0479997
0.0480013
0.0480024
0.048002
0.0480022
0.0480017
0.0480017
0.0480014
0.0480015
0.0480013
0.0480013
0.0480012
0.0480012
0.0480011
0.0480012
0.0480011
0.0480012
0.0480011
0.0480011
0.0480011
0.0480011
0.0480011
0.0480011
0.0480011
0.0480011
0.0480011
0.0480011
0.0480012
0.0480011
0.0480012
0.0480012
0.0480013
0.0480012
0.0480013
0.0480013
0.0480015
0.0480015
0.0480017
0.0480017
0.0480022
0.0480021
0.0480025
0.0480014
0.0479997
0.0479949
0.0479848
0.0479714
0.0479187
0.0479318
0.0479416
0.0479463
0.047948
0.0479491
0.0479487
0.0479488
0.0479484
0.0479484
0.0479481
0.0479482
0.047948
0.047948
0.0479479
0.0479479
0.0479478
0.0479479
0.0479478
0.0479479
0.0479478
0.0479478
0.0479478
0.0479478
0.0479478
0.0479478
0.0479478
0.0479478
0.0479478
0.0479478
0.0479479
0.0479478
0.0479479
0.0479479
0.0479479
0.0479479
0.047948
0.047948
0.0479482
0.0479481
0.0479484
0.0479484
0.0479488
0.0479487
0.0479491
0.047948
0.0479463
0.0479417
0.0479318
0.0479187
0.0478677
0.0478804
0.04789
0.0478946
0.0478962
0.0478973
0.0478969
0.0478971
0.0478967
0.0478967
0.0478964
0.0478965
0.0478963
0.0478963
0.0478962
0.0478962
0.0478962
0.0478962
0.0478962
0.0478962
0.0478962
0.0478962
0.0478961
0.0478962
0.0478961
0.0478961
0.0478962
0.0478962
0.0478962
0.0478962
0.0478962
0.0478962
0.0478962
0.0478962
0.0478963
0.0478962
0.0478963
0.0478963
0.0478965
0.0478965
0.0478967
0.0478967
0.0478971
0.047897
0.0478973
0.0478962
0.0478946
0.04789
0.0478804
0.0478677
0.0478183
0.0478307
0.0478401
0.0478445
0.0478461
0.0478472
0.0478469
0.047847
0.0478466
0.0478467
0.0478464
0.0478465
0.0478463
0.0478463
0.0478462
0.0478463
0.0478462
0.0478462
0.0478462
0.0478462
0.0478462
0.0478462
0.0478462
0.0478462
0.0478462
0.0478462
0.0478462
0.0478462
0.0478462
0.0478462
0.0478462
0.0478462
0.0478462
0.0478462
0.0478463
0.0478462
0.0478464
0.0478463
0.0478465
0.0478464
0.0478467
0.0478467
0.047847
0.0478469
0.0478472
0.0478461
0.0478445
0.0478401
0.0478307
0.0478184
0.0477707
0.0477827
0.0477918
0.0477962
0.0477977
0.0477988
0.0477986
0.0477987
0.0477984
0.0477984
0.0477982
0.0477982
0.0477981
0.0477981
0.047798
0.047798
0.047798
0.047798
0.047798
0.047798
0.0477979
0.047798
0.0477979
0.047798
0.0477979
0.0477979
0.047798
0.0477979
0.047798
0.047798
0.047798
0.047798
0.047798
0.047798
0.0477981
0.047798
0.0477981
0.0477981
0.0477982
0.0477982
0.0477984
0.0477984
0.0477987
0.0477986
0.0477988
0.0477978
0.0477962
0.0477918
0.0477827
0.0477708
0.047725
0.0477365
0.0477454
0.0477496
0.0477512
0.0477523
0.0477521
0.0477522
0.0477519
0.047752
0.0477518
0.0477518
0.0477517
0.0477517
0.0477516
0.0477516
0.0477516
0.0477516
0.0477516
0.0477516
0.0477515
0.0477516
0.0477515
0.0477516
0.0477515
0.0477515
0.0477516
0.0477515
0.0477516
0.0477516
0.0477516
0.0477516
0.0477516
0.0477516
0.0477517
0.0477516
0.0477517
0.0477517
0.0477518
0.0477518
0.047752
0.0477519
0.0477522
0.0477521
0.0477523
0.0477512
0.0477496
0.0477454
0.0477365
0.047725
0.047681
0.0476922
0.0477008
0.047705
0.0477065
0.0477076
0.0477074
0.0477076
0.0477073
0.0477074
0.0477072
0.0477073
0.0477071
0.0477072
0.0477071
0.0477071
0.047707
0.0477071
0.047707
0.0477071
0.047707
0.047707
0.047707
0.047707
0.047707
0.047707
0.047707
0.047707
0.047707
0.047707
0.0477071
0.047707
0.0477071
0.0477071
0.0477071
0.0477071
0.0477072
0.0477071
0.0477073
0.0477072
0.0477074
0.0477074
0.0477076
0.0477075
0.0477076
0.0477065
0.047705
0.0477008
0.0476922
0.0476811
0.047639
0.0476497
0.0476581
0.0476622
0.0476637
0.0476648
0.0476647
0.0476649
0.0476647
0.0476648
0.0476646
0.0476646
0.0476645
0.0476646
0.0476645
0.0476645
0.0476645
0.0476645
0.0476645
0.0476645
0.0476644
0.0476645
0.0476644
0.0476644
0.0476644
0.0476644
0.0476645
0.0476644
0.0476645
0.0476645
0.0476645
0.0476645
0.0476645
0.0476645
0.0476645
0.0476645
0.0476646
0.0476645
0.0476647
0.0476646
0.0476648
0.0476647
0.047665
0.0476648
0.0476649
0.0476638
0.0476622
0.0476581
0.0476498
0.047639
0.0475989
0.0476092
0.0476174
0.0476214
0.047623
0.0476241
0.047624
0.0476242
0.047624
0.0476241
0.047624
0.047624
0.0476239
0.047624
0.0476239
0.0476239
0.0476239
0.0476239
0.0476239
0.0476239
0.0476239
0.0476239
0.0476238
0.0476239
0.0476239
0.0476239
0.0476239
0.0476239
0.0476239
0.0476239
0.0476239
0.0476239
0.0476239
0.0476239
0.0476239
0.0476239
0.047624
0.0476239
0.047624
0.047624
0.0476241
0.0476241
0.0476243
0.047624
0.0476241
0.047623
0.0476214
0.0476174
0.0476093
0.0475989
0.0475608
0.0475708
0.0475787
0.0475826
0.0475842
0.0475853
0.0475853
0.0475856
0.0475854
0.0475855
0.0475854
0.0475854
0.0475853
0.0475854
0.0475853
0.0475854
0.0475853
0.0475853
0.0475853
0.0475853
0.0475853
0.0475853
0.0475853
0.0475853
0.0475853
0.0475853
0.0475853
0.0475853
0.0475853
0.0475853
0.0475853
0.0475853
0.0475854
0.0475853
0.0475854
0.0475853
0.0475854
0.0475854
0.0475855
0.0475854
0.0475855
0.0475854
0.0475856
0.0475854
0.0475853
0.0475842
0.0475826
0.0475787
0.0475708
0.0475609
0.0475248
0.0475343
0.0475421
0.0475459
0.0475475
0.0475486
0.0475487
0.047549
0.0475489
0.047549
0.0475489
0.047549
0.0475489
0.0475489
0.0475489
0.0475489
0.0475488
0.0475489
0.0475489
0.0475489
0.0475488
0.0475489
0.0475488
0.0475489
0.0475488
0.0475488
0.0475489
0.0475489
0.0475489
0.0475489
0.0475489
0.0475489
0.0475489
0.0475489
0.0475489
0.0475489
0.0475489
0.0475489
0.047549
0.0475489
0.047549
0.0475489
0.047549
0.0475488
0.0475487
0.0475475
0.0475459
0.0475421
0.0475344
0.0475248
0.047492
0.0475012
0.0475087
0.0475125
0.0475141
0.0475153
0.0475155
0.0475158
0.0475157
0.0475158
0.0475157
0.0475158
0.0475157
0.0475158
0.0475157
0.0475158
0.0475157
0.0475158
0.0475157
0.0475158
0.0475157
0.0475157
0.0475157
0.0475157
0.0475157
0.0475157
0.0475157
0.0475157
0.0475157
0.0475157
0.0475158
0.0475157
0.0475158
0.0475157
0.0475158
0.0475158
0.0475158
0.0475158
0.0475158
0.0475157
0.0475158
0.0475157
0.0475158
0.0475155
0.0475153
0.0475142
0.0475125
0.0475088
0.0475013
0.0474921
0.0474609
0.0474698
0.047477
0.0474806
0.0474823
0.0474834
0.0474836
0.0474839
0.0474838
0.047484
0.0474839
0.047484
0.0474839
0.047484
0.0474839
0.047484
0.0474839
0.047484
0.0474839
0.047484
0.0474839
0.0474839
0.0474839
0.0474839
0.0474839
0.0474839
0.0474839
0.0474839
0.047484
0.0474839
0.047484
0.047484
0.047484
0.047484
0.047484
0.047484
0.047484
0.047484
0.047484
0.0474839
0.047484
0.0474839
0.0474839
0.0474836
0.0474834
0.0474823
0.0474807
0.047477
0.0474698
0.0474609
0.0474313
0.0474399
0.0474468
0.0474505
0.0474522
0.0474534
0.0474536
0.047454
0.047454
0.0474541
0.0474541
0.0474542
0.0474541
0.0474542
0.0474541
0.0474542
0.0474541
0.0474542
0.0474541
0.0474542
0.0474541
0.0474541
0.0474541
0.0474541
0.0474541
0.0474541
0.0474541
0.0474541
0.0474542
0.0474541
0.0474542
0.0474541
0.0474542
0.0474541
0.0474542
0.0474541
0.0474542
0.0474541
0.0474542
0.0474541
0.0474541
0.047454
0.047454
0.0474536
0.0474534
0.0474522
0.0474505
0.0474469
0.0474399
0.0474314
0.047404
0.0474123
0.047419
0.0474226
0.0474244
0.0474256
0.0474259
0.0474263
0.0474263
0.0474265
0.0474265
0.0474266
0.0474265
0.0474266
0.0474266
0.0474266
0.0474266
0.0474266
0.0474266
0.0474266
0.0474266
0.0474266
0.0474266
0.0474266
0.0474266
0.0474266
0.0474266
0.0474266
0.0474266
0.0474266
0.0474266
0.0474266
0.0474266
0.0474266
0.0474266
0.0474266
0.0474266
0.0474266
0.0474266
0.0474265
0.0474265
0.0474264
0.0474263
0.0474259
0.0474256
0.0474244
0.0474226
0.047419
0.0474123
0.0474041
0.047379
0.0473869
0.0473934
0.047397
0.0473988
0.0474001
0.0474005
0.0474009
0.047401
0.0474012
0.0474012
0.0474013
0.0474013
0.0474014
0.0474013
0.0474014
0.0474013
0.0474014
0.0474014
0.0474014
0.0474014
0.0474014
0.0474014
0.0474014
0.0474014
0.0474014
0.0474014
0.0474014
0.0474014
0.0474014
0.0474014
0.0474014
0.0474014
0.0474014
0.0474014
0.0474014
0.0474014
0.0474013
0.0474013
0.0474012
0.0474012
0.047401
0.0474009
0.0474005
0.0474001
0.0473988
0.047397
0.0473934
0.0473869
0.047379
0.047357
0.0473646
0.0473709
0.0473745
0.0473764
0.0473777
0.0473782
0.0473786
0.0473788
0.047379
0.047379
0.0473791
0.0473791
0.0473792
0.0473792
0.0473792
0.0473792
0.0473792
0.0473792
0.0473792
0.0473792
0.0473792
0.0473792
0.0473792
0.0473792
0.0473792
0.0473792
0.0473792
0.0473792
0.0473792
0.0473793
0.0473792
0.0473793
0.0473792
0.0473793
0.0473792
0.0473792
0.0473792
0.0473792
0.047379
0.047379
0.0473788
0.0473787
0.0473782
0.0473777
0.0473764
0.0473745
0.0473709
0.0473646
0.047357
0.0473372
0.0473445
0.0473507
0.0473543
0.0473562
0.0473576
0.0473582
0.0473587
0.0473589
0.0473591
0.0473591
0.0473593
0.0473593
0.0473593
0.0473593
0.0473594
0.0473594
0.0473594
0.0473594
0.0473594
0.0473594
0.0473594
0.0473594
0.0473594
0.0473594
0.0473594
0.0473594
0.0473594
0.0473594
0.0473594
0.0473594
0.0473594
0.0473594
0.0473594
0.0473594
0.0473594
0.0473594
0.0473593
0.0473593
0.0473592
0.0473591
0.0473589
0.0473587
0.0473582
0.0473576
0.0473563
0.0473543
0.0473507
0.0473445
0.0473372
0.0473192
0.0473263
0.0473323
0.0473359
0.0473379
0.0473393
0.0473399
0.0473405
0.0473407
0.047341
0.047341
0.0473412
0.0473412
0.0473413
0.0473413
0.0473413
0.0473413
0.0473413
0.0473413
0.0473413
0.0473413
0.0473413
0.0473413
0.0473413
0.0473413
0.0473413
0.0473413
0.0473413
0.0473413
0.0473413
0.0473413
0.0473413
0.0473413
0.0473413
0.0473413
0.0473413
0.0473413
0.0473412
0.0473412
0.0473411
0.047341
0.0473407
0.0473405
0.04734
0.0473393
0.0473379
0.0473359
0.0473323
0.0473263
0.0473192
0.0473035
0.0473102
0.0473161
0.0473197
0.0473219
0.0473233
0.0473241
0.0473246
0.0473249
0.0473252
0.0473253
0.0473254
0.0473255
0.0473256
0.0473256
0.0473256
0.0473256
0.0473256
0.0473256
0.0473257
0.0473256
0.0473256
0.0473256
0.0473256
0.0473256
0.0473256
0.0473256
0.0473256
0.0473256
0.0473256
0.0473257
0.0473256
0.0473257
0.0473256
0.0473256
0.0473256
0.0473256
0.0473255
0.0473255
0.0473253
0.0473252
0.0473249
0.0473247
0.0473241
0.0473233
0.0473219
0.0473197
0.0473162
0.0473102
0.0473035
0.0472905
0.047297
0.0473029
0.0473064
0.0473087
0.0473101
0.047311
0.0473116
0.047312
0.0473123
0.0473124
0.0473126
0.0473126
0.0473127
0.0473127
0.0473128
0.0473128
0.0473128
0.0473128
0.0473128
0.0473128
0.0473128
0.0473128
0.0473128
0.0473128
0.0473128
0.0473128
0.0473128
0.0473128
0.0473128
0.0473128
0.0473128
0.0473128
0.0473128
0.0473128
0.0473127
0.0473127
0.0473126
0.0473126
0.0473124
0.0473123
0.047312
0.0473117
0.047311
0.0473102
0.0473087
0.0473064
0.0473029
0.047297
0.0472905
0.0472799
0.0472861
0.0472919
0.0472954
0.0472978
0.0472993
0.0473002
0.0473009
0.0473013
0.0473016
0.0473017
0.0473019
0.047302
0.0473021
0.0473021
0.0473021
0.0473021
0.0473022
0.0473022
0.0473022
0.0473022
0.0473022
0.0473022
0.0473022
0.0473022
0.0473022
0.0473022
0.0473022
0.0473022
0.0473022
0.0473022
0.0473022
0.0473022
0.0473022
0.0473022
0.0473021
0.0473021
0.047302
0.0473019
0.0473018
0.0473016
0.0473013
0.0473009
0.0473003
0.0472993
0.0472978
0.0472955
0.0472919
0.0472861
0.0472799
0.0472715
0.0472775
0.0472832
0.0472868
0.0472893
0.0472908
0.0472919
0.0472926
0.047293
0.0472934
0.0472936
0.0472937
0.0472938
0.0472939
0.0472939
0.047294
0.047294
0.047294
0.047294
0.047294
0.047294
0.047294
0.047294
0.047294
0.047294
0.047294
0.047294
0.047294
0.047294
0.047294
0.047294
0.047294
0.047294
0.047294
0.047294
0.047294
0.0472939
0.0472938
0.0472937
0.0472936
0.0472934
0.047293
0.0472926
0.0472919
0.0472908
0.0472893
0.0472868
0.0472833
0.0472775
0.0472715
0.0472654
0.0472713
0.0472769
0.0472805
0.0472831
0.0472847
0.0472859
0.0472866
0.0472871
0.0472875
0.0472877
0.0472879
0.047288
0.0472881
0.0472881
0.0472882
0.0472882
0.0472882
0.0472882
0.0472882
0.0472882
0.0472882
0.0472882
0.0472882
0.0472882
0.0472882
0.0472882
0.0472882
0.0472882
0.0472882
0.0472882
0.0472882
0.0472882
0.0472882
0.0472882
0.0472881
0.0472881
0.047288
0.0472879
0.0472877
0.0472875
0.0472871
0.0472866
0.0472859
0.0472847
0.0472831
0.0472805
0.0472769
0.0472713
0.0472655
0.0472847
0.0472847
0.0472847
0.0472847
0.0472847
0.0472847
0.0472847
0.0472847
0.0472847
0.0472847
0.0472847
0.0472847
0.0472847
0.0472847
0.0472847
0.0472847
0.0472847
0.0472846
0.0472846
0.0472845
0.0472843
0.0472841
0.0472839
0.0472835
0.047283
0.0472822
0.0472809
0.0472792
0.0472766
0.0472729
0.0472673
0.0472617
0.0472835
0.0472835
0.0472835
0.0472835
0.0472834
0.0472834
0.0472834
0.0472833
0.0472833
0.0472832
0.0472831
0.0472828
0.0472826
0.0472822
0.0472815
0.0472807
0.0472793
0.0472776
0.0472748
0.0472711
0.0472655
0.0472601
0.0472835
0.0472831
0.0472824
0.0472815
0.04728
0.0472782
0.0472754
0.0472716
0.047266
0.0472607
)
;

boundaryField
{
    fuel
    {
        type            fixedValue;
        value           nonuniform 0();
    }
    wall
    {
        type            zeroGradient;
    }
    outlet
    {
        type            zeroGradient;
    }
    frontAndBack
    {
        type            empty;
    }
    procBoundary0to1
    {
        type            processor;
        value           nonuniform List<scalar> 
50
(
0.0489741
0.0489875
0.0489996
0.0490056
0.0490077
0.0490089
0.0490083
0.0490085
0.0490079
0.049008
0.0490076
0.0490077
0.0490075
0.0490075
0.0490074
0.0490074
0.0490073
0.0490074
0.0490073
0.0490073
0.0490073
0.0490073
0.0490073
0.0490073
0.0490073
0.0490073
0.0490073
0.0490073
0.0490073
0.0490073
0.0490074
0.0490073
0.0490074
0.0490073
0.0490074
0.0490074
0.0490075
0.0490075
0.0490077
0.0490076
0.049008
0.0490079
0.0490085
0.0490084
0.0490089
0.0490077
0.0490056
0.0489996
0.0489875
0.0489741
)
;
    }
    procBoundary0to2
    {
        type            processor;
        value           nonuniform List<scalar> 
53
(
0.0472616
0.0472673
0.0472729
0.0472766
0.0472792
0.0472809
0.0472822
0.0472829
0.0472835
0.0472839
0.0472841
0.0472843
0.0472844
0.0472845
0.0472846
0.0472846
0.0472847
0.0472847
0.0472847
0.0472835
0.0472835
0.0472835
0.0472835
0.0472835
0.0472835
0.0472835
0.0472835
0.0472835
0.0472835
0.0472835
0.0472845
0.0472845
0.0472845
0.0472845
0.0472845
0.0472844
0.0472844
0.0472844
0.0472843
0.0472842
0.047284
0.0472838
0.0472838
0.0472866
0.0472862
0.0472855
0.0472846
0.0472829
0.047281
0.0472781
0.0472743
0.0472686
0.0472636
)
;
    }
}


// ************************************************************************* //
