/*--------------------------------*- C++ -*----------------------------------*\
| =========                 |                                                 |
| \\      /  F ield         | OpenFOAM: The Open Source CFD Toolbox           |
|  \\    /   O peration     | Version:  dev                                   |
|   \\  /    A nd           | Web:      www.OpenFOAM.org                      |
|    \\/     M anipulation  |                                                 |
\*---------------------------------------------------------------------------*/
FoamFile
{
    version     2.0;
    format      ascii;
    class       volScalarField;
    location    "0.04";
    object      HO2;
}
// * * * * * * * * * * * * * * * * * * * * * * * * * * * * * * * * * * * * * //

dimensions      [0 0 0 0 0 0 0];

internalField   nonuniform List<scalar> 
250
(
3.10797e-11
3.1193e-11
3.1073e-11
3.12032e-11
3.12227e-11
3.11548e-11
3.07538e-11
3.8471e-11
7.35243e-10
2.98973e-08
2.77513e-11
2.78715e-11
2.77453e-11
2.78842e-11
2.79064e-11
2.78631e-11
2.75686e-11
3.29747e-11
5.21237e-10
1.93481e-08
1.32228e-08
3.917e-10
2.84582e-11
2.44569e-11
2.45451e-11
2.45801e-11
2.455e-11
2.43869e-11
2.45312e-11
2.43909e-11
2.43813e-11
2.45074e-11
2.43766e-11
2.4523e-11
2.45471e-11
2.45232e-11
2.43436e-11
2.80964e-11
3.63133e-10
1.26575e-08
8.6067e-09
2.69878e-10
2.39649e-11
2.12176e-11
2.1206e-11
2.12285e-11
2.11976e-11
2.10289e-11
2.11765e-11
2.10303e-11
2.10206e-11
2.11515e-11
2.10179e-11
2.11703e-11
2.1195e-11
2.11845e-11
2.11076e-11
2.37386e-11
2.52272e-10
8.27323e-09
5.57135e-09
1.84356e-10
1.99488e-11
1.80226e-11
1.79297e-11
1.79466e-11
1.79162e-11
1.77445e-11
1.78932e-11
1.77421e-11
1.77328e-11
1.78676e-11
1.77334e-11
1.78897e-11
1.79134e-11
1.79098e-11
1.79164e-11
1.98159e-11
1.73961e-10
5.3859e-09
3.58503e-09
1.29529e-10
1.63556e-11
1.49374e-11
1.47894e-11
1.48076e-11
1.47795e-11
1.46074e-11
1.47556e-11
1.46001e-11
1.45912e-11
1.47296e-11
1.45971e-11
1.47537e-11
1.47758e-11
1.47729e-11
1.48373e-11
1.62827e-11
1.23341e-10
3.48819e-09
2.28405e-09
8.9958e-11
1.31363e-11
1.20353e-11
1.18647e-11
1.1893e-11
1.18689e-11
1.16971e-11
1.1843e-11
1.16853e-11
1.16743e-11
1.18174e-11
1.16913e-11
1.18402e-11
1.18636e-11
1.1856e-11
1.19438e-11
1.31e-11
8.615e-11
2.24748e-09
1.45442e-09
6.28713e-11
1.02864e-11
9.38871e-12
9.16868e-12
9.15592e-12
9.14251e-12
8.98522e-12
9.11585e-12
8.9832e-12
8.95143e-12
9.09438e-12
8.99117e-12
9.10756e-12
9.1351e-12
9.17362e-12
9.30852e-12
1.02727e-11
6.07579e-11
1.44669e-09
9.13662e-10
4.38439e-11
7.81593e-12
7.0635e-12
6.79955e-12
6.72342e-12
6.71599e-12
6.64201e-12
6.74592e-12
6.65339e-12
6.67173e-12
6.73313e-12
6.62831e-12
6.71536e-12
6.70908e-12
6.7782e-12
6.99585e-12
7.81536e-12
4.27447e-11
9.08391e-10
5.78551e-10
3.05089e-11
5.73901e-12
5.10016e-12
4.89019e-12
4.82855e-12
4.8261e-12
4.76338e-12
4.83688e-12
4.77546e-12
4.77546e-12
4.82775e-12
4.75776e-12
4.82008e-12
4.8185e-12
4.87848e-12
5.04264e-12
5.74581e-12
2.99399e-11
5.80561e-10
3.63659e-10
2.11403e-11
4.06033e-12
3.52926e-12
3.36236e-12
3.31758e-12
3.31785e-12
3.26676e-12
3.3254e-12
3.27562e-12
3.27323e-12
3.31827e-12
3.26433e-12
3.3116e-12
3.31062e-12
3.35579e-12
3.48606e-12
4.07149e-12
2.09535e-11
3.68602e-10
2.29437e-10
1.45565e-11
2.7652e-12
2.33534e-12
2.21103e-12
2.18004e-12
2.18143e-12
2.14305e-12
2.18706e-12
2.14859e-12
2.14651e-12
2.18161e-12
2.14151e-12
2.17681e-12
2.17521e-12
2.20683e-12
2.30489e-12
2.77908e-12
1.45962e-11
2.35517e-10
1.44023e-10
9.9185e-12
1.81677e-12
1.48154e-12
1.39438e-12
1.37433e-12
1.37588e-12
1.34911e-12
1.37979e-12
1.35241e-12
1.35094e-12
1.37587e-12
1.348e-12
1.37275e-12
1.37099e-12
1.39184e-12
1.46102e-12
1.83275e-12
1.0104e-11
1.50552e-10
8.24619e-13
8.40926e-13
8.22856e-13
8.38967e-13
8.37498e-13
8.50219e-13
8.96586e-13
1.17767e-12
6.93251e-12
9.58457e-11
)
;

boundaryField
{
    fuel
    {
        type            fixedValue;
        value           nonuniform 0();
    }
    wall
    {
        type            zeroGradient;
    }
    outlet
    {
        type            zeroGradient;
    }
    frontAndBack
    {
        type            empty;
    }
    procBoundary0to1
    {
        type            processor;
        value           nonuniform List<scalar> 
21
(
9.01963e-11
6.72105e-12
1.16339e-12
9.09365e-13
8.51822e-13
8.39647e-13
8.40959e-13
8.23587e-13
8.43497e-13
8.25538e-13
8.25538e-13
4.99287e-13
5.09204e-13
4.98229e-13
5.08012e-13
5.06986e-13
5.1432e-13
5.43849e-13
7.51783e-13
4.74929e-12
6.09645e-11
)
;
    }
    procBoundary0to2
    {
        type            processor;
        value           nonuniform List<scalar> 
12
(
3.10902e-11
2.03431e-08
5.65164e-10
3.35466e-11
2.76813e-11
2.78846e-11
2.79383e-11
2.79109e-11
2.77555e-11
2.78943e-11
2.77611e-11
2.77611e-11
)
;
    }
    procBoundary0to3
    {
        type            processor;
        value           nonuniform List<scalar> 10(3.43316e-11 3.44373e-11 3.43244e-11 3.44452e-11 3.44605e-11 3.43657e-11 3.38521e-11 4.54375e-11 1.01418e-09 4.47894e-08);
    }
}


// ************************************************************************* //
