/*--------------------------------*- C++ -*----------------------------------*\
| =========                 |                                                 |
| \\      /  F ield         | OpenFOAM: The Open Source CFD Toolbox           |
|  \\    /   O peration     | Version:  dev                                   |
|   \\  /    A nd           | Web:      www.OpenFOAM.org                      |
|    \\/     M anipulation  |                                                 |
\*---------------------------------------------------------------------------*/
FoamFile
{
    version     2.0;
    format      ascii;
    class       volScalarField;
    location    "0.04";
    object      i-C4H5;
}
// * * * * * * * * * * * * * * * * * * * * * * * * * * * * * * * * * * * * * //

dimensions      [0 0 0 0 0 0 0];

internalField   nonuniform List<scalar> 
2014
(
1.52287e-10
1.52885e-10
1.5347e-10
1.53774e-10
1.5389e-10
1.53956e-10
1.53937e-10
1.53944e-10
1.53919e-10
1.5392e-10
1.53903e-10
1.53904e-10
1.53893e-10
1.53894e-10
1.53887e-10
1.53889e-10
1.53884e-10
1.53886e-10
1.53884e-10
1.53885e-10
1.53883e-10
1.53884e-10
1.53882e-10
1.53883e-10
1.53883e-10
1.53883e-10
1.53883e-10
1.53882e-10
1.53884e-10
1.53883e-10
1.53885e-10
1.53884e-10
1.53887e-10
1.53885e-10
1.53889e-10
1.53887e-10
1.53894e-10
1.53893e-10
1.53904e-10
1.53903e-10
1.5392e-10
1.53919e-10
1.53944e-10
1.53937e-10
1.53955e-10
1.5389e-10
1.53773e-10
1.5347e-10
1.52885e-10
1.52287e-10
1.49371e-10
1.49958e-10
1.50524e-10
1.50818e-10
1.50931e-10
1.50994e-10
1.50976e-10
1.50982e-10
1.50956e-10
1.50957e-10
1.5094e-10
1.50941e-10
1.5093e-10
1.50931e-10
1.50924e-10
1.50926e-10
1.50921e-10
1.50923e-10
1.5092e-10
1.50921e-10
1.5092e-10
1.5092e-10
1.50919e-10
1.50919e-10
1.50919e-10
1.50919e-10
1.50919e-10
1.50919e-10
1.5092e-10
1.5092e-10
1.50921e-10
1.5092e-10
1.50923e-10
1.50921e-10
1.50926e-10
1.50924e-10
1.50931e-10
1.5093e-10
1.50941e-10
1.5094e-10
1.50957e-10
1.50956e-10
1.50982e-10
1.50975e-10
1.50994e-10
1.50931e-10
1.50818e-10
1.50524e-10
1.49958e-10
1.49371e-10
1.46582e-10
1.47158e-10
1.47706e-10
1.47991e-10
1.481e-10
1.4816e-10
1.48141e-10
1.48147e-10
1.48122e-10
1.48121e-10
1.48104e-10
1.48105e-10
1.48094e-10
1.48095e-10
1.48088e-10
1.4809e-10
1.48085e-10
1.48087e-10
1.48084e-10
1.48085e-10
1.48083e-10
1.48084e-10
1.48083e-10
1.48083e-10
1.48083e-10
1.48083e-10
1.48083e-10
1.48083e-10
1.48084e-10
1.48083e-10
1.48085e-10
1.48084e-10
1.48087e-10
1.48085e-10
1.4809e-10
1.48088e-10
1.48095e-10
1.48094e-10
1.48105e-10
1.48105e-10
1.48121e-10
1.48122e-10
1.48147e-10
1.48141e-10
1.4816e-10
1.48099e-10
1.47991e-10
1.47705e-10
1.47158e-10
1.46582e-10
1.43904e-10
1.44472e-10
1.45e-10
1.45276e-10
1.45381e-10
1.45439e-10
1.4542e-10
1.45425e-10
1.454e-10
1.45399e-10
1.45382e-10
1.45382e-10
1.45371e-10
1.45372e-10
1.45365e-10
1.45366e-10
1.45362e-10
1.45364e-10
1.45361e-10
1.45362e-10
1.4536e-10
1.45361e-10
1.4536e-10
1.4536e-10
1.4536e-10
1.4536e-10
1.4536e-10
1.4536e-10
1.45361e-10
1.4536e-10
1.45362e-10
1.45361e-10
1.45364e-10
1.45362e-10
1.45367e-10
1.45365e-10
1.45372e-10
1.45371e-10
1.45382e-10
1.45382e-10
1.45399e-10
1.454e-10
1.45425e-10
1.4542e-10
1.45439e-10
1.45381e-10
1.45276e-10
1.45e-10
1.44471e-10
1.43904e-10
1.41328e-10
1.41886e-10
1.42397e-10
1.42663e-10
1.42764e-10
1.4282e-10
1.42801e-10
1.42804e-10
1.42779e-10
1.42777e-10
1.42761e-10
1.4276e-10
1.4275e-10
1.4275e-10
1.42744e-10
1.42745e-10
1.4274e-10
1.42742e-10
1.42739e-10
1.4274e-10
1.42738e-10
1.42739e-10
1.42738e-10
1.42738e-10
1.42738e-10
1.42738e-10
1.42738e-10
1.42738e-10
1.42739e-10
1.42738e-10
1.4274e-10
1.42739e-10
1.42742e-10
1.4274e-10
1.42745e-10
1.42744e-10
1.4275e-10
1.4275e-10
1.4276e-10
1.42761e-10
1.42777e-10
1.42779e-10
1.42804e-10
1.42801e-10
1.4282e-10
1.42764e-10
1.42663e-10
1.42397e-10
1.41886e-10
1.41328e-10
1.38842e-10
1.39391e-10
1.39886e-10
1.40141e-10
1.40238e-10
1.40292e-10
1.40272e-10
1.40275e-10
1.4025e-10
1.40248e-10
1.40231e-10
1.4023e-10
1.4022e-10
1.4022e-10
1.40213e-10
1.40214e-10
1.4021e-10
1.40211e-10
1.40209e-10
1.4021e-10
1.40208e-10
1.40208e-10
1.40207e-10
1.40208e-10
1.40207e-10
1.40207e-10
1.40208e-10
1.40207e-10
1.40208e-10
1.40208e-10
1.4021e-10
1.40209e-10
1.40211e-10
1.4021e-10
1.40214e-10
1.40213e-10
1.4022e-10
1.4022e-10
1.4023e-10
1.40231e-10
1.40248e-10
1.4025e-10
1.40275e-10
1.40272e-10
1.40292e-10
1.40238e-10
1.40141e-10
1.39886e-10
1.39391e-10
1.38842e-10
1.36439e-10
1.3698e-10
1.37458e-10
1.37703e-10
1.37796e-10
1.37847e-10
1.37827e-10
1.37829e-10
1.37804e-10
1.37801e-10
1.37785e-10
1.37783e-10
1.37773e-10
1.37773e-10
1.37766e-10
1.37767e-10
1.37763e-10
1.37764e-10
1.37761e-10
1.37762e-10
1.3776e-10
1.37761e-10
1.3776e-10
1.3776e-10
1.3776e-10
1.3776e-10
1.3776e-10
1.3776e-10
1.37761e-10
1.37761e-10
1.37762e-10
1.37761e-10
1.37764e-10
1.37763e-10
1.37767e-10
1.37766e-10
1.37773e-10
1.37773e-10
1.37783e-10
1.37785e-10
1.37801e-10
1.37804e-10
1.37829e-10
1.37827e-10
1.37847e-10
1.37796e-10
1.37703e-10
1.37458e-10
1.36979e-10
1.36439e-10
1.34113e-10
1.34644e-10
1.35106e-10
1.35341e-10
1.35429e-10
1.35478e-10
1.35458e-10
1.35459e-10
1.35434e-10
1.3543e-10
1.35414e-10
1.35413e-10
1.35402e-10
1.35402e-10
1.35395e-10
1.35396e-10
1.35392e-10
1.35393e-10
1.3539e-10
1.35391e-10
1.35389e-10
1.3539e-10
1.35389e-10
1.35389e-10
1.35389e-10
1.35389e-10
1.35389e-10
1.35389e-10
1.3539e-10
1.35389e-10
1.35391e-10
1.3539e-10
1.35393e-10
1.35392e-10
1.35396e-10
1.35395e-10
1.35402e-10
1.35402e-10
1.35413e-10
1.35414e-10
1.3543e-10
1.35434e-10
1.35459e-10
1.35458e-10
1.35478e-10
1.35429e-10
1.35341e-10
1.35106e-10
1.34644e-10
1.34112e-10
1.31856e-10
1.32379e-10
1.32825e-10
1.3305e-10
1.33133e-10
1.3318e-10
1.33159e-10
1.33159e-10
1.33134e-10
1.3313e-10
1.33114e-10
1.33112e-10
1.33102e-10
1.33101e-10
1.33095e-10
1.33095e-10
1.33091e-10
1.33092e-10
1.33089e-10
1.3309e-10
1.33088e-10
1.33089e-10
1.33088e-10
1.33088e-10
1.33088e-10
1.33088e-10
1.33088e-10
1.33088e-10
1.33089e-10
1.33088e-10
1.3309e-10
1.33089e-10
1.33092e-10
1.33091e-10
1.33095e-10
1.33095e-10
1.33101e-10
1.33102e-10
1.33112e-10
1.33114e-10
1.3313e-10
1.33134e-10
1.33159e-10
1.33159e-10
1.3318e-10
1.33133e-10
1.3305e-10
1.32825e-10
1.32379e-10
1.31856e-10
1.29665e-10
1.30179e-10
1.30608e-10
1.30823e-10
1.30902e-10
1.30946e-10
1.30925e-10
1.30924e-10
1.30899e-10
1.30895e-10
1.30879e-10
1.30876e-10
1.30866e-10
1.30865e-10
1.30859e-10
1.30859e-10
1.30855e-10
1.30856e-10
1.30854e-10
1.30854e-10
1.30853e-10
1.30853e-10
1.30852e-10
1.30852e-10
1.30852e-10
1.30852e-10
1.30852e-10
1.30852e-10
1.30853e-10
1.30853e-10
1.30854e-10
1.30854e-10
1.30856e-10
1.30855e-10
1.30859e-10
1.30859e-10
1.30866e-10
1.30866e-10
1.30876e-10
1.30879e-10
1.30895e-10
1.30899e-10
1.30924e-10
1.30925e-10
1.30946e-10
1.30902e-10
1.30823e-10
1.30608e-10
1.30179e-10
1.29665e-10
1.27535e-10
1.2804e-10
1.28452e-10
1.28658e-10
1.28732e-10
1.28774e-10
1.28752e-10
1.2875e-10
1.28725e-10
1.2872e-10
1.28704e-10
1.28702e-10
1.28691e-10
1.2869e-10
1.28684e-10
1.28684e-10
1.2868e-10
1.28681e-10
1.28678e-10
1.28679e-10
1.28677e-10
1.28678e-10
1.28677e-10
1.28677e-10
1.28677e-10
1.28677e-10
1.28677e-10
1.28677e-10
1.28678e-10
1.28677e-10
1.28679e-10
1.28678e-10
1.28681e-10
1.2868e-10
1.28684e-10
1.28684e-10
1.2869e-10
1.28691e-10
1.28702e-10
1.28704e-10
1.2872e-10
1.28725e-10
1.2875e-10
1.28752e-10
1.28774e-10
1.28732e-10
1.28658e-10
1.28451e-10
1.2804e-10
1.27535e-10
1.25462e-10
1.25957e-10
1.26352e-10
1.26549e-10
1.26619e-10
1.26658e-10
1.26636e-10
1.26633e-10
1.26608e-10
1.26602e-10
1.26586e-10
1.26583e-10
1.26573e-10
1.26572e-10
1.26566e-10
1.26566e-10
1.26562e-10
1.26563e-10
1.2656e-10
1.26561e-10
1.26559e-10
1.26559e-10
1.26558e-10
1.26559e-10
1.26558e-10
1.26558e-10
1.26559e-10
1.26558e-10
1.26559e-10
1.26559e-10
1.26561e-10
1.2656e-10
1.26563e-10
1.26562e-10
1.26566e-10
1.26566e-10
1.26572e-10
1.26573e-10
1.26583e-10
1.26586e-10
1.26602e-10
1.26608e-10
1.26633e-10
1.26636e-10
1.26658e-10
1.26619e-10
1.26549e-10
1.26352e-10
1.25957e-10
1.25461e-10
1.23442e-10
1.23926e-10
1.24305e-10
1.24493e-10
1.24559e-10
1.24595e-10
1.24573e-10
1.24569e-10
1.24544e-10
1.24538e-10
1.24522e-10
1.24519e-10
1.24509e-10
1.24507e-10
1.24501e-10
1.24501e-10
1.24497e-10
1.24498e-10
1.24495e-10
1.24496e-10
1.24494e-10
1.24494e-10
1.24493e-10
1.24494e-10
1.24493e-10
1.24493e-10
1.24494e-10
1.24493e-10
1.24494e-10
1.24494e-10
1.24496e-10
1.24495e-10
1.24498e-10
1.24497e-10
1.24501e-10
1.24501e-10
1.24507e-10
1.24509e-10
1.24519e-10
1.24522e-10
1.24538e-10
1.24544e-10
1.24569e-10
1.24573e-10
1.24595e-10
1.24559e-10
1.24493e-10
1.24305e-10
1.23926e-10
1.23442e-10
1.21474e-10
1.21946e-10
1.22309e-10
1.22488e-10
1.22549e-10
1.22583e-10
1.2256e-10
1.22555e-10
1.22531e-10
1.22524e-10
1.22508e-10
1.22505e-10
1.22494e-10
1.22493e-10
1.22487e-10
1.22487e-10
1.22483e-10
1.22483e-10
1.22481e-10
1.22481e-10
1.22479e-10
1.2248e-10
1.22479e-10
1.22479e-10
1.22479e-10
1.22479e-10
1.22479e-10
1.22479e-10
1.2248e-10
1.2248e-10
1.22481e-10
1.22481e-10
1.22483e-10
1.22483e-10
1.22487e-10
1.22487e-10
1.22493e-10
1.22494e-10
1.22505e-10
1.22508e-10
1.22524e-10
1.22531e-10
1.22555e-10
1.2256e-10
1.22583e-10
1.22549e-10
1.22488e-10
1.22309e-10
1.21946e-10
1.21474e-10
1.19553e-10
1.20013e-10
1.2036e-10
1.20531e-10
1.20588e-10
1.20619e-10
1.20595e-10
1.20589e-10
1.20565e-10
1.20558e-10
1.20542e-10
1.20538e-10
1.20528e-10
1.20526e-10
1.2052e-10
1.2052e-10
1.20516e-10
1.20516e-10
1.20514e-10
1.20514e-10
1.20513e-10
1.20513e-10
1.20512e-10
1.20512e-10
1.20512e-10
1.20512e-10
1.20512e-10
1.20512e-10
1.20513e-10
1.20513e-10
1.20514e-10
1.20514e-10
1.20516e-10
1.20516e-10
1.2052e-10
1.2052e-10
1.20526e-10
1.20528e-10
1.20538e-10
1.20542e-10
1.20558e-10
1.20565e-10
1.20589e-10
1.20595e-10
1.20619e-10
1.20588e-10
1.20531e-10
1.2036e-10
1.20012e-10
1.19553e-10
1.17679e-10
1.18124e-10
1.18456e-10
1.18619e-10
1.18671e-10
1.187e-10
1.18676e-10
1.18669e-10
1.18644e-10
1.18637e-10
1.18621e-10
1.18617e-10
1.18607e-10
1.18605e-10
1.18599e-10
1.18599e-10
1.18595e-10
1.18595e-10
1.18593e-10
1.18593e-10
1.18591e-10
1.18592e-10
1.18591e-10
1.18591e-10
1.18591e-10
1.18591e-10
1.18591e-10
1.18591e-10
1.18592e-10
1.18591e-10
1.18593e-10
1.18593e-10
1.18595e-10
1.18595e-10
1.18599e-10
1.18599e-10
1.18605e-10
1.18607e-10
1.18617e-10
1.18621e-10
1.18637e-10
1.18644e-10
1.18669e-10
1.18676e-10
1.187e-10
1.18671e-10
1.18619e-10
1.18456e-10
1.18124e-10
1.17679e-10
1.15847e-10
1.16278e-10
1.16595e-10
1.1675e-10
1.16798e-10
1.16824e-10
1.16799e-10
1.16792e-10
1.16767e-10
1.16759e-10
1.16743e-10
1.16739e-10
1.16729e-10
1.16727e-10
1.16721e-10
1.16721e-10
1.16717e-10
1.16717e-10
1.16714e-10
1.16715e-10
1.16713e-10
1.16714e-10
1.16713e-10
1.16713e-10
1.16712e-10
1.16712e-10
1.16713e-10
1.16713e-10
1.16714e-10
1.16713e-10
1.16715e-10
1.16714e-10
1.16717e-10
1.16717e-10
1.16721e-10
1.16721e-10
1.16727e-10
1.16729e-10
1.16739e-10
1.16743e-10
1.16759e-10
1.16767e-10
1.16792e-10
1.16799e-10
1.16824e-10
1.16798e-10
1.1675e-10
1.16595e-10
1.16277e-10
1.15847e-10
1.14057e-10
1.14472e-10
1.14775e-10
1.14923e-10
1.14966e-10
1.1499e-10
1.14964e-10
1.14956e-10
1.14931e-10
1.14923e-10
1.14907e-10
1.14902e-10
1.14892e-10
1.1489e-10
1.14884e-10
1.14884e-10
1.1488e-10
1.1488e-10
1.14877e-10
1.14878e-10
1.14876e-10
1.14877e-10
1.14876e-10
1.14876e-10
1.14876e-10
1.14876e-10
1.14876e-10
1.14876e-10
1.14877e-10
1.14876e-10
1.14878e-10
1.14878e-10
1.1488e-10
1.1488e-10
1.14884e-10
1.14884e-10
1.1489e-10
1.14892e-10
1.14902e-10
1.14907e-10
1.14923e-10
1.14931e-10
1.14956e-10
1.14964e-10
1.14989e-10
1.14965e-10
1.14923e-10
1.14775e-10
1.14472e-10
1.14057e-10
1.12306e-10
1.12705e-10
1.12993e-10
1.13134e-10
1.13173e-10
1.13194e-10
1.13168e-10
1.13159e-10
1.13134e-10
1.13126e-10
1.1311e-10
1.13105e-10
1.13095e-10
1.13093e-10
1.13087e-10
1.13086e-10
1.13082e-10
1.13082e-10
1.1308e-10
1.1308e-10
1.13079e-10
1.13079e-10
1.13078e-10
1.13078e-10
1.13078e-10
1.13078e-10
1.13078e-10
1.13078e-10
1.13079e-10
1.13079e-10
1.1308e-10
1.1308e-10
1.13082e-10
1.13082e-10
1.13086e-10
1.13087e-10
1.13093e-10
1.13095e-10
1.13105e-10
1.1311e-10
1.13126e-10
1.13134e-10
1.13159e-10
1.13168e-10
1.13194e-10
1.13173e-10
1.13134e-10
1.12993e-10
1.12705e-10
1.12306e-10
1.10592e-10
1.10975e-10
1.11249e-10
1.11383e-10
1.11417e-10
1.11436e-10
1.1141e-10
1.114e-10
1.11375e-10
1.11366e-10
1.1135e-10
1.11345e-10
1.11335e-10
1.11333e-10
1.11327e-10
1.11326e-10
1.11322e-10
1.11322e-10
1.1132e-10
1.1132e-10
1.11319e-10
1.11319e-10
1.11318e-10
1.11318e-10
1.11318e-10
1.11318e-10
1.11318e-10
1.11318e-10
1.11319e-10
1.11319e-10
1.1132e-10
1.1132e-10
1.11322e-10
1.11322e-10
1.11326e-10
1.11327e-10
1.11333e-10
1.11335e-10
1.11345e-10
1.1135e-10
1.11366e-10
1.11375e-10
1.114e-10
1.1141e-10
1.11436e-10
1.11417e-10
1.11383e-10
1.11249e-10
1.10975e-10
1.10592e-10
1.08914e-10
1.09281e-10
1.0954e-10
1.09668e-10
1.09698e-10
1.09714e-10
1.09687e-10
1.09676e-10
1.09652e-10
1.09642e-10
1.09626e-10
1.09621e-10
1.09611e-10
1.09609e-10
1.09603e-10
1.09602e-10
1.09598e-10
1.09598e-10
1.09596e-10
1.09596e-10
1.09595e-10
1.09595e-10
1.09594e-10
1.09594e-10
1.09594e-10
1.09594e-10
1.09594e-10
1.09594e-10
1.09595e-10
1.09595e-10
1.09596e-10
1.09596e-10
1.09598e-10
1.09598e-10
1.09602e-10
1.09603e-10
1.09609e-10
1.09611e-10
1.09621e-10
1.09626e-10
1.09642e-10
1.09652e-10
1.09676e-10
1.09687e-10
1.09714e-10
1.09697e-10
1.09667e-10
1.0954e-10
1.09281e-10
1.08914e-10
1.07269e-10
1.07621e-10
1.07865e-10
1.07987e-10
1.08012e-10
1.08026e-10
1.07999e-10
1.07987e-10
1.07963e-10
1.07953e-10
1.07937e-10
1.07932e-10
1.07922e-10
1.07919e-10
1.07913e-10
1.07912e-10
1.07909e-10
1.07909e-10
1.07906e-10
1.07906e-10
1.07905e-10
1.07905e-10
1.07904e-10
1.07904e-10
1.07904e-10
1.07904e-10
1.07904e-10
1.07904e-10
1.07905e-10
1.07905e-10
1.07906e-10
1.07906e-10
1.07909e-10
1.07909e-10
1.07912e-10
1.07913e-10
1.07919e-10
1.07922e-10
1.07932e-10
1.07937e-10
1.07953e-10
1.07963e-10
1.07987e-10
1.07999e-10
1.08026e-10
1.08012e-10
1.07986e-10
1.07865e-10
1.07621e-10
1.07269e-10
1.05657e-10
1.05993e-10
1.06223e-10
1.06338e-10
1.0636e-10
1.06372e-10
1.06344e-10
1.06331e-10
1.06306e-10
1.06296e-10
1.06281e-10
1.06275e-10
1.06265e-10
1.06263e-10
1.06257e-10
1.06256e-10
1.06252e-10
1.06252e-10
1.06249e-10
1.0625e-10
1.06248e-10
1.06248e-10
1.06247e-10
1.06247e-10
1.06247e-10
1.06247e-10
1.06247e-10
1.06247e-10
1.06248e-10
1.06248e-10
1.0625e-10
1.06249e-10
1.06252e-10
1.06252e-10
1.06256e-10
1.06257e-10
1.06263e-10
1.06265e-10
1.06275e-10
1.06281e-10
1.06296e-10
1.06306e-10
1.06331e-10
1.06343e-10
1.06371e-10
1.0636e-10
1.06338e-10
1.06223e-10
1.05993e-10
1.05657e-10
1.04075e-10
1.04396e-10
1.04613e-10
1.04721e-10
1.04739e-10
1.04748e-10
1.0472e-10
1.04706e-10
1.04682e-10
1.04671e-10
1.04656e-10
1.0465e-10
1.0464e-10
1.04638e-10
1.04631e-10
1.04631e-10
1.04627e-10
1.04627e-10
1.04624e-10
1.04624e-10
1.04623e-10
1.04623e-10
1.04622e-10
1.04622e-10
1.04622e-10
1.04622e-10
1.04622e-10
1.04622e-10
1.04623e-10
1.04623e-10
1.04624e-10
1.04624e-10
1.04627e-10
1.04627e-10
1.04631e-10
1.04631e-10
1.04638e-10
1.0464e-10
1.0465e-10
1.04656e-10
1.04671e-10
1.04682e-10
1.04706e-10
1.04719e-10
1.04748e-10
1.04738e-10
1.0472e-10
1.04613e-10
1.04395e-10
1.04074e-10
1.02522e-10
1.02829e-10
1.03032e-10
1.03133e-10
1.03148e-10
1.03155e-10
1.03126e-10
1.03112e-10
1.03087e-10
1.03077e-10
1.03061e-10
1.03055e-10
1.03045e-10
1.03043e-10
1.03037e-10
1.03036e-10
1.03032e-10
1.03032e-10
1.03029e-10
1.0303e-10
1.03028e-10
1.03028e-10
1.03027e-10
1.03027e-10
1.03027e-10
1.03027e-10
1.03027e-10
1.03027e-10
1.03028e-10
1.03028e-10
1.0303e-10
1.03029e-10
1.03032e-10
1.03032e-10
1.03036e-10
1.03037e-10
1.03043e-10
1.03045e-10
1.03055e-10
1.03061e-10
1.03076e-10
1.03087e-10
1.03112e-10
1.03126e-10
1.03155e-10
1.03147e-10
1.03133e-10
1.03032e-10
1.02828e-10
1.02522e-10
1.00999e-10
1.01291e-10
1.0148e-10
1.01575e-10
1.01586e-10
1.01591e-10
1.01562e-10
1.01547e-10
1.01522e-10
1.01511e-10
1.01496e-10
1.0149e-10
1.0148e-10
1.01478e-10
1.01472e-10
1.0147e-10
1.01467e-10
1.01467e-10
1.01464e-10
1.01464e-10
1.01463e-10
1.01463e-10
1.01462e-10
1.01462e-10
1.01462e-10
1.01462e-10
1.01462e-10
1.01462e-10
1.01463e-10
1.01463e-10
1.01464e-10
1.01464e-10
1.01467e-10
1.01467e-10
1.01471e-10
1.01472e-10
1.01478e-10
1.0148e-10
1.0149e-10
1.01496e-10
1.01511e-10
1.01522e-10
1.01547e-10
1.01561e-10
1.01591e-10
1.01586e-10
1.01575e-10
1.0148e-10
1.0129e-10
1.00998e-10
9.9555e-11
9.98355e-11
1.00011e-10
1.00101e-10
1.00108e-10
1.00111e-10
1.00081e-10
1.00066e-10
1.00041e-10
1.0003e-10
1.00014e-10
1.00008e-10
9.99987e-11
9.99958e-11
9.99898e-11
9.99887e-11
9.9985e-11
9.99848e-11
9.99824e-11
9.99825e-11
9.99809e-11
9.9981e-11
9.99802e-11
9.99803e-11
9.998e-11
9.998e-11
9.99803e-11
9.99802e-11
9.99811e-11
9.9981e-11
9.99825e-11
9.99824e-11
9.99848e-11
9.9985e-11
9.99888e-11
9.99899e-11
9.99958e-11
9.99987e-11
1.00008e-10
1.00014e-10
1.0003e-10
1.00041e-10
1.00065e-10
1.00081e-10
1.00111e-10
1.00108e-10
1.00101e-10
1.00011e-10
9.98352e-11
9.95547e-11
9.81145e-11
9.83851e-11
9.85424e-11
9.86251e-11
9.86253e-11
9.8624e-11
9.85914e-11
9.85744e-11
9.8549e-11
9.8537e-11
9.85211e-11
9.85147e-11
9.8505e-11
9.85019e-11
9.84958e-11
9.84946e-11
9.84908e-11
9.84906e-11
9.84881e-11
9.84882e-11
9.84866e-11
9.84867e-11
9.84858e-11
9.84859e-11
9.84856e-11
9.84856e-11
9.84859e-11
9.84859e-11
9.84867e-11
9.84867e-11
9.84882e-11
9.84882e-11
9.84906e-11
9.84908e-11
9.84947e-11
9.84958e-11
9.85019e-11
9.8505e-11
9.85147e-11
9.85211e-11
9.85369e-11
9.85489e-11
9.85743e-11
9.85912e-11
9.86238e-11
9.8625e-11
9.86248e-11
9.85421e-11
9.83848e-11
9.81141e-11
9.66727e-11
9.69308e-11
9.70734e-11
9.71508e-11
9.71475e-11
9.7144e-11
9.71108e-11
9.70931e-11
9.70677e-11
9.70554e-11
9.70397e-11
9.70331e-11
9.70235e-11
9.70203e-11
9.70143e-11
9.70131e-11
9.70093e-11
9.7009e-11
9.70066e-11
9.70066e-11
9.7005e-11
9.70051e-11
9.70042e-11
9.70043e-11
9.7004e-11
9.70041e-11
9.70043e-11
9.70043e-11
9.70051e-11
9.70051e-11
9.70066e-11
9.70066e-11
9.7009e-11
9.70093e-11
9.70131e-11
9.70144e-11
9.70204e-11
9.70235e-11
9.70331e-11
9.70396e-11
9.70553e-11
9.70676e-11
9.70929e-11
9.71107e-11
9.71438e-11
9.71472e-11
9.71505e-11
9.70731e-11
9.69305e-11
9.66724e-11
9.52538e-11
9.54993e-11
9.56279e-11
9.56999e-11
9.56933e-11
9.56877e-11
9.5654e-11
9.56356e-11
9.56103e-11
9.55977e-11
9.55821e-11
9.55755e-11
9.5566e-11
9.55627e-11
9.55568e-11
9.55555e-11
9.55517e-11
9.55514e-11
9.5549e-11
9.5549e-11
9.55474e-11
9.55475e-11
9.55466e-11
9.55467e-11
9.55464e-11
9.55464e-11
9.55467e-11
9.55467e-11
9.55475e-11
9.55475e-11
9.5549e-11
9.5549e-11
9.55514e-11
9.55518e-11
9.55555e-11
9.55568e-11
9.55628e-11
9.5566e-11
9.55755e-11
9.55821e-11
9.55977e-11
9.56102e-11
9.56355e-11
9.56539e-11
9.56875e-11
9.56931e-11
9.56996e-11
9.56276e-11
9.5499e-11
9.52534e-11
9.38578e-11
9.40907e-11
9.42062e-11
9.42726e-11
9.42629e-11
9.42551e-11
9.4221e-11
9.4202e-11
9.41768e-11
9.4164e-11
9.41486e-11
9.41418e-11
9.41324e-11
9.41291e-11
9.41232e-11
9.41219e-11
9.41181e-11
9.41177e-11
9.41154e-11
9.41153e-11
9.41139e-11
9.41139e-11
9.4113e-11
9.41131e-11
9.41128e-11
9.41128e-11
9.41131e-11
9.41131e-11
9.41139e-11
9.41139e-11
9.41154e-11
9.41155e-11
9.41178e-11
9.41182e-11
9.41219e-11
9.41233e-11
9.41292e-11
9.41325e-11
9.41419e-11
9.41486e-11
9.41639e-11
9.41767e-11
9.42019e-11
9.42209e-11
9.4255e-11
9.42626e-11
9.42723e-11
9.42059e-11
9.40904e-11
9.38575e-11
9.25322e-11
9.27543e-11
9.2857e-11
9.29185e-11
9.29057e-11
9.28961e-11
9.28613e-11
9.28417e-11
9.28165e-11
9.28035e-11
9.27882e-11
9.27814e-11
9.27721e-11
9.27687e-11
9.27629e-11
9.27615e-11
9.27578e-11
9.27573e-11
9.2755e-11
9.27549e-11
9.27534e-11
9.27535e-11
9.27526e-11
9.27527e-11
9.27524e-11
9.27524e-11
9.27527e-11
9.27526e-11
9.27535e-11
9.27535e-11
9.2755e-11
9.27551e-11
9.27574e-11
9.27579e-11
9.27615e-11
9.2763e-11
9.27688e-11
9.27721e-11
9.27814e-11
9.27882e-11
9.28035e-11
9.28165e-11
9.28416e-11
9.28612e-11
9.28959e-11
9.29054e-11
9.29183e-11
9.28567e-11
9.27541e-11
9.25319e-11
9.12293e-11
9.1441e-11
9.15314e-11
9.1588e-11
9.1572e-11
9.15606e-11
9.15252e-11
9.15051e-11
9.14799e-11
9.14667e-11
9.14509e-11
9.14435e-11
9.14336e-11
9.143e-11
9.14239e-11
9.14224e-11
9.14185e-11
9.1418e-11
9.14156e-11
9.14155e-11
9.1414e-11
9.1414e-11
9.14131e-11
9.14131e-11
9.14129e-11
9.14129e-11
9.14132e-11
9.14131e-11
9.1414e-11
9.1414e-11
9.14156e-11
9.14157e-11
9.14181e-11
9.14186e-11
9.14225e-11
9.1424e-11
9.14302e-11
9.14337e-11
9.14436e-11
9.14509e-11
9.14667e-11
9.14799e-11
9.1505e-11
9.15252e-11
9.15605e-11
9.15718e-11
9.15878e-11
9.15312e-11
9.14407e-11
9.12291e-11
8.99081e-11
9.01096e-11
9.01876e-11
9.02378e-11
9.02173e-11
9.02032e-11
9.01661e-11
9.01448e-11
9.01192e-11
9.01056e-11
9.00896e-11
9.0082e-11
9.00721e-11
9.00683e-11
9.00622e-11
9.00606e-11
9.00567e-11
9.00561e-11
9.00537e-11
9.00536e-11
9.00521e-11
9.00521e-11
9.00512e-11
9.00512e-11
9.00509e-11
9.00509e-11
9.00512e-11
9.00512e-11
9.00521e-11
9.00521e-11
9.00537e-11
9.00538e-11
9.00563e-11
9.00568e-11
9.00607e-11
9.00623e-11
9.00685e-11
9.00722e-11
9.00821e-11
9.00897e-11
9.01056e-11
9.01193e-11
9.01448e-11
9.01661e-11
9.02031e-11
9.02172e-11
9.02377e-11
9.01874e-11
9.01094e-11
8.99079e-11
8.85988e-11
8.87882e-11
8.8855e-11
8.88998e-11
8.88765e-11
8.88606e-11
8.88229e-11
8.88011e-11
8.87756e-11
8.87618e-11
8.8746e-11
8.87383e-11
8.87285e-11
8.87247e-11
8.87186e-11
8.87169e-11
8.87131e-11
8.87125e-11
8.87101e-11
8.871e-11
8.87084e-11
8.87084e-11
8.87075e-11
8.87076e-11
8.87073e-11
8.87073e-11
8.87076e-11
8.87075e-11
8.87085e-11
8.87085e-11
8.87101e-11
8.87103e-11
8.87127e-11
8.87133e-11
8.87171e-11
8.87188e-11
8.87249e-11
8.87287e-11
8.87384e-11
8.87461e-11
8.87619e-11
8.87757e-11
8.88012e-11
8.8823e-11
8.88606e-11
8.88764e-11
8.88997e-11
8.8855e-11
8.8788e-11
8.85987e-11
8.73531e-11
8.75322e-11
8.75881e-11
8.76281e-11
8.76018e-11
8.75843e-11
8.75457e-11
8.75234e-11
8.7498e-11
8.7484e-11
8.74683e-11
8.74605e-11
8.74508e-11
8.7447e-11
8.74409e-11
8.74392e-11
8.74354e-11
8.74347e-11
8.74324e-11
8.74322e-11
8.74307e-11
8.74307e-11
8.74298e-11
8.74298e-11
8.74295e-11
8.74295e-11
8.74298e-11
8.74298e-11
8.74308e-11
8.74308e-11
8.74324e-11
8.74326e-11
8.7435e-11
8.74356e-11
8.74395e-11
8.74412e-11
8.74472e-11
8.7451e-11
8.74607e-11
8.74684e-11
8.74842e-11
8.74982e-11
8.75236e-11
8.75459e-11
8.75844e-11
8.76017e-11
8.76281e-11
8.75882e-11
8.75322e-11
8.73531e-11
8.61267e-11
8.62972e-11
8.63425e-11
8.63771e-11
8.63425e-11
8.63212e-11
8.62785e-11
8.62543e-11
8.62274e-11
8.62126e-11
8.61964e-11
8.61883e-11
8.61783e-11
8.61743e-11
8.61681e-11
8.61663e-11
8.61624e-11
8.61618e-11
8.61594e-11
8.61592e-11
8.61577e-11
8.61576e-11
8.61567e-11
8.61567e-11
8.61565e-11
8.61565e-11
8.61568e-11
8.61568e-11
8.61578e-11
8.61579e-11
8.61594e-11
8.61596e-11
8.61621e-11
8.61628e-11
8.61667e-11
8.61685e-11
8.61747e-11
8.61787e-11
8.61886e-11
8.61967e-11
8.6213e-11
8.62277e-11
8.62546e-11
8.62788e-11
8.63216e-11
8.63427e-11
8.63773e-11
8.63427e-11
8.62972e-11
8.61268e-11
8.4921e-11
8.50816e-11
8.51169e-11
8.51467e-11
8.51092e-11
8.50864e-11
8.50423e-11
8.50177e-11
8.49907e-11
8.49758e-11
8.49596e-11
8.49515e-11
8.49416e-11
8.49375e-11
8.49314e-11
8.49296e-11
8.49257e-11
8.4925e-11
8.49226e-11
8.49224e-11
8.49209e-11
8.49208e-11
8.49199e-11
8.49199e-11
8.49197e-11
8.49197e-11
8.49199e-11
8.492e-11
8.49211e-11
8.49211e-11
8.49227e-11
8.49229e-11
8.49254e-11
8.49261e-11
8.493e-11
8.49318e-11
8.49379e-11
8.4942e-11
8.49518e-11
8.49599e-11
8.49762e-11
8.49911e-11
8.5018e-11
8.50427e-11
8.50868e-11
8.51094e-11
8.5147e-11
8.51171e-11
8.50818e-11
8.49212e-11
8.37339e-11
8.3885e-11
8.39105e-11
8.39356e-11
8.38956e-11
8.38713e-11
8.38258e-11
8.38008e-11
8.37737e-11
8.37588e-11
8.37428e-11
8.37346e-11
8.37247e-11
8.37207e-11
8.37145e-11
8.37127e-11
8.37088e-11
8.37081e-11
8.37057e-11
8.37055e-11
8.37039e-11
8.37039e-11
8.3703e-11
8.3703e-11
8.37027e-11
8.37027e-11
8.3703e-11
8.3703e-11
8.37041e-11
8.37042e-11
8.37058e-11
8.3706e-11
8.37085e-11
8.37092e-11
8.37131e-11
8.37149e-11
8.3721e-11
8.37251e-11
8.37349e-11
8.3743e-11
8.37592e-11
8.37742e-11
8.38012e-11
8.38261e-11
8.38718e-11
8.38958e-11
8.39359e-11
8.39106e-11
8.38852e-11
8.37341e-11
8.25075e-11
8.25073e-11
8.25057e-11
8.25057e-11
8.25048e-11
8.25048e-11
8.25045e-11
8.25045e-11
8.25048e-11
8.25048e-11
8.25058e-11
8.25059e-11
8.25075e-11
8.25077e-11
8.25102e-11
8.25109e-11
8.25148e-11
8.25167e-11
8.25227e-11
8.25268e-11
8.25365e-11
8.25447e-11
8.25608e-11
8.25758e-11
8.26029e-11
8.26282e-11
8.26753e-11
8.27008e-11
8.2743e-11
8.27225e-11
8.27065e-11
8.25647e-11
8.12975e-11
8.12976e-11
8.12992e-11
8.12995e-11
8.13019e-11
8.13027e-11
8.13066e-11
8.13085e-11
8.13146e-11
8.13188e-11
8.13286e-11
8.13369e-11
8.13532e-11
8.13685e-11
8.13966e-11
8.1423e-11
8.14735e-11
8.1502e-11
8.15479e-11
8.15339e-11
8.15279e-11
8.13931e-11
8.01912e-11
8.02065e-11
8.02348e-11
8.02616e-11
8.03137e-11
8.03437e-11
8.03913e-11
8.03819e-11
8.03848e-11
8.02586e-11
)
;

boundaryField
{
    fuel
    {
        type            fixedValue;
        value           nonuniform 0();
    }
    wall
    {
        type            zeroGradient;
    }
    outlet
    {
        type            zeroGradient;
    }
    frontAndBack
    {
        type            empty;
    }
    procBoundary0to1
    {
        type            processor;
        value           nonuniform List<scalar> 
50
(
1.55346e-10
1.55958e-10
1.5656e-10
1.56873e-10
1.56994e-10
1.57061e-10
1.57042e-10
1.57051e-10
1.57025e-10
1.57027e-10
1.57009e-10
1.57011e-10
1.57e-10
1.57002e-10
1.56995e-10
1.56997e-10
1.56992e-10
1.56994e-10
1.56991e-10
1.56993e-10
1.56991e-10
1.56991e-10
1.5699e-10
1.56991e-10
1.5699e-10
1.5699e-10
1.56991e-10
1.5699e-10
1.56991e-10
1.56991e-10
1.56993e-10
1.56991e-10
1.56994e-10
1.56992e-10
1.56997e-10
1.56995e-10
1.57002e-10
1.57e-10
1.57011e-10
1.5701e-10
1.57027e-10
1.57025e-10
1.57051e-10
1.57042e-10
1.57061e-10
1.56994e-10
1.56873e-10
1.5656e-10
1.55958e-10
1.55346e-10
)
;
    }
    procBoundary0to2
    {
        type            processor;
        value           nonuniform List<scalar> 
53
(
8.25649e-11
8.27067e-11
8.27227e-11
8.27431e-11
8.2701e-11
8.26753e-11
8.26281e-11
8.26029e-11
8.25757e-11
8.25607e-11
8.25448e-11
8.25366e-11
8.25268e-11
8.25227e-11
8.25166e-11
8.25148e-11
8.25109e-11
8.25102e-11
8.25102e-11
8.12996e-11
8.12993e-11
8.12978e-11
8.12977e-11
8.12968e-11
8.12968e-11
8.12965e-11
8.12965e-11
8.12968e-11
8.12968e-11
8.12968e-11
8.01361e-11
8.01362e-11
8.01377e-11
8.0138e-11
8.01405e-11
8.01413e-11
8.01451e-11
8.01471e-11
8.01531e-11
8.01573e-11
8.0167e-11
8.01754e-11
8.01754e-11
7.90498e-11
7.9065e-11
7.90936e-11
7.9121e-11
7.91744e-11
7.92058e-11
7.92548e-11
7.92498e-11
7.92612e-11
7.91433e-11
)
;
    }
}


// ************************************************************************* //
