/*--------------------------------*- C++ -*----------------------------------*\
| =========                 |                                                 |
| \\      /  F ield         | OpenFOAM: The Open Source CFD Toolbox           |
|  \\    /   O peration     | Version:  dev                                   |
|   \\  /    A nd           | Web:      www.OpenFOAM.org                      |
|    \\/     M anipulation  |                                                 |
\*---------------------------------------------------------------------------*/
FoamFile
{
    version     2.0;
    format      ascii;
    class       volScalarField;
    location    "0.04";
    object      l-C6H6;
}
// * * * * * * * * * * * * * * * * * * * * * * * * * * * * * * * * * * * * * //

dimensions      [0 0 0 0 0 0 0];

internalField   nonuniform List<scalar> 
2014
(
4.22497e-09
4.24639e-09
4.26685e-09
4.27749e-09
4.28063e-09
4.28281e-09
4.28157e-09
4.28204e-09
4.2809e-09
4.28115e-09
4.28045e-09
4.28065e-09
4.2802e-09
4.28035e-09
4.28006e-09
4.28019e-09
4.27999e-09
4.28011e-09
4.27998e-09
4.28005e-09
4.27997e-09
4.28001e-09
4.27996e-09
4.27999e-09
4.27997e-09
4.27997e-09
4.27999e-09
4.27996e-09
4.28001e-09
4.27997e-09
4.28006e-09
4.27998e-09
4.28011e-09
4.27999e-09
4.2802e-09
4.28006e-09
4.28036e-09
4.2802e-09
4.28066e-09
4.28045e-09
4.28116e-09
4.2809e-09
4.28204e-09
4.28157e-09
4.28281e-09
4.28063e-09
4.27749e-09
4.26685e-09
4.24639e-09
4.22497e-09
4.06949e-09
4.09013e-09
4.10951e-09
4.11965e-09
4.12266e-09
4.12472e-09
4.12354e-09
4.12396e-09
4.12287e-09
4.12308e-09
4.12241e-09
4.12259e-09
4.12215e-09
4.12229e-09
4.12201e-09
4.12213e-09
4.12193e-09
4.12205e-09
4.12192e-09
4.12199e-09
4.12191e-09
4.12195e-09
4.1219e-09
4.12193e-09
4.12191e-09
4.12191e-09
4.12193e-09
4.12191e-09
4.12196e-09
4.12191e-09
4.122e-09
4.12193e-09
4.12205e-09
4.12194e-09
4.12213e-09
4.12201e-09
4.12229e-09
4.12216e-09
4.12259e-09
4.12242e-09
4.12309e-09
4.12287e-09
4.12396e-09
4.12355e-09
4.12472e-09
4.12265e-09
4.11965e-09
4.10951e-09
4.09013e-09
4.06949e-09
3.92574e-09
3.94567e-09
3.96401e-09
3.97367e-09
3.97654e-09
3.9785e-09
3.97739e-09
3.97774e-09
3.97671e-09
3.97688e-09
3.97624e-09
3.97639e-09
3.97597e-09
3.97609e-09
3.97582e-09
3.97593e-09
3.97575e-09
3.97585e-09
3.97573e-09
3.9758e-09
3.97572e-09
3.97576e-09
3.97571e-09
3.97574e-09
3.97572e-09
3.97572e-09
3.97574e-09
3.97572e-09
3.97576e-09
3.97573e-09
3.9758e-09
3.97574e-09
3.97586e-09
3.97576e-09
3.97594e-09
3.97583e-09
3.9761e-09
3.97598e-09
3.97639e-09
3.97624e-09
3.97689e-09
3.97671e-09
3.97775e-09
3.97739e-09
3.9785e-09
3.97654e-09
3.97367e-09
3.96402e-09
3.94567e-09
3.92574e-09
3.79255e-09
3.81183e-09
3.82916e-09
3.83836e-09
3.84111e-09
3.84296e-09
3.8419e-09
3.84221e-09
3.84121e-09
3.84136e-09
3.84074e-09
3.84087e-09
3.84047e-09
3.84057e-09
3.84032e-09
3.84041e-09
3.84024e-09
3.84033e-09
3.84022e-09
3.84028e-09
3.84021e-09
3.84024e-09
3.8402e-09
3.84022e-09
3.84021e-09
3.84021e-09
3.84022e-09
3.8402e-09
3.84025e-09
3.84021e-09
3.84028e-09
3.84022e-09
3.84034e-09
3.84025e-09
3.84042e-09
3.84032e-09
3.84058e-09
3.84047e-09
3.84087e-09
3.84075e-09
3.84136e-09
3.84122e-09
3.84221e-09
3.8419e-09
3.84296e-09
3.84111e-09
3.83836e-09
3.82916e-09
3.81183e-09
3.79255e-09
3.66885e-09
3.6875e-09
3.70394e-09
3.71265e-09
3.71528e-09
3.71703e-09
3.71602e-09
3.71628e-09
3.71533e-09
3.71544e-09
3.71485e-09
3.71495e-09
3.71457e-09
3.71466e-09
3.71442e-09
3.71451e-09
3.71434e-09
3.71442e-09
3.71432e-09
3.71437e-09
3.7143e-09
3.71434e-09
3.71429e-09
3.71431e-09
3.7143e-09
3.7143e-09
3.71431e-09
3.7143e-09
3.71434e-09
3.71431e-09
3.71438e-09
3.71432e-09
3.71443e-09
3.71434e-09
3.71451e-09
3.71442e-09
3.71467e-09
3.71458e-09
3.71496e-09
3.71485e-09
3.71545e-09
3.71534e-09
3.71628e-09
3.71602e-09
3.71703e-09
3.71528e-09
3.71265e-09
3.70394e-09
3.6875e-09
3.66885e-09
3.55372e-09
3.57176e-09
3.58737e-09
3.59561e-09
3.59812e-09
3.59977e-09
3.5988e-09
3.59902e-09
3.59811e-09
3.59819e-09
3.59762e-09
3.5977e-09
3.59734e-09
3.59742e-09
3.59718e-09
3.59726e-09
3.5971e-09
3.59718e-09
3.59708e-09
3.59713e-09
3.59706e-09
3.59709e-09
3.59705e-09
3.59707e-09
3.59706e-09
3.59706e-09
3.59707e-09
3.59705e-09
3.59709e-09
3.59707e-09
3.59713e-09
3.59708e-09
3.59718e-09
3.59711e-09
3.59727e-09
3.59719e-09
3.59742e-09
3.59734e-09
3.59771e-09
3.59763e-09
3.59819e-09
3.59811e-09
3.59902e-09
3.59881e-09
3.59977e-09
3.59812e-09
3.59561e-09
3.58737e-09
3.57176e-09
3.55372e-09
3.44631e-09
3.46377e-09
3.4786e-09
3.48639e-09
3.48877e-09
3.49033e-09
3.48941e-09
3.48958e-09
3.48871e-09
3.48876e-09
3.48821e-09
3.48828e-09
3.48792e-09
3.48799e-09
3.48776e-09
3.48783e-09
3.48768e-09
3.48775e-09
3.48766e-09
3.4877e-09
3.48764e-09
3.48767e-09
3.48763e-09
3.48765e-09
3.48764e-09
3.48764e-09
3.48765e-09
3.48763e-09
3.48767e-09
3.48764e-09
3.48771e-09
3.48766e-09
3.48776e-09
3.48769e-09
3.48784e-09
3.48777e-09
3.488e-09
3.48793e-09
3.48828e-09
3.48822e-09
3.48876e-09
3.48871e-09
3.48958e-09
3.48941e-09
3.49033e-09
3.48877e-09
3.48639e-09
3.4786e-09
3.46377e-09
3.44631e-09
3.34589e-09
3.36279e-09
3.37687e-09
3.38424e-09
3.3865e-09
3.38796e-09
3.38708e-09
3.38721e-09
3.38637e-09
3.3864e-09
3.38587e-09
3.38592e-09
3.38558e-09
3.38563e-09
3.38542e-09
3.38548e-09
3.38533e-09
3.3854e-09
3.3853e-09
3.38535e-09
3.38529e-09
3.38531e-09
3.38528e-09
3.38529e-09
3.38528e-09
3.38528e-09
3.38529e-09
3.38528e-09
3.38532e-09
3.38529e-09
3.38535e-09
3.38531e-09
3.3854e-09
3.38534e-09
3.38548e-09
3.38542e-09
3.38564e-09
3.38558e-09
3.38592e-09
3.38588e-09
3.3864e-09
3.38638e-09
3.38722e-09
3.38708e-09
3.38796e-09
3.3865e-09
3.38424e-09
3.37687e-09
3.36279e-09
3.34588e-09
3.25179e-09
3.26816e-09
3.28153e-09
3.28849e-09
3.29062e-09
3.292e-09
3.29115e-09
3.29125e-09
3.29044e-09
3.29044e-09
3.28993e-09
3.28996e-09
3.28964e-09
3.28968e-09
3.28947e-09
3.28953e-09
3.28939e-09
3.28945e-09
3.28936e-09
3.2894e-09
3.28934e-09
3.28936e-09
3.28933e-09
3.28934e-09
3.28933e-09
3.28933e-09
3.28934e-09
3.28933e-09
3.28936e-09
3.28934e-09
3.2894e-09
3.28936e-09
3.28945e-09
3.28939e-09
3.28953e-09
3.28948e-09
3.28969e-09
3.28964e-09
3.28997e-09
3.28994e-09
3.29045e-09
3.29044e-09
3.29125e-09
3.29115e-09
3.292e-09
3.29062e-09
3.28849e-09
3.28153e-09
3.26816e-09
3.25179e-09
3.16344e-09
3.17929e-09
3.19196e-09
3.19854e-09
3.20056e-09
3.20185e-09
3.20103e-09
3.2011e-09
3.20031e-09
3.20029e-09
3.1998e-09
3.19982e-09
3.1995e-09
3.19954e-09
3.19933e-09
3.19938e-09
3.19925e-09
3.1993e-09
3.19922e-09
3.19925e-09
3.1992e-09
3.19922e-09
3.19919e-09
3.1992e-09
3.19919e-09
3.19919e-09
3.1992e-09
3.19919e-09
3.19922e-09
3.1992e-09
3.19926e-09
3.19922e-09
3.19931e-09
3.19925e-09
3.19939e-09
3.19934e-09
3.19954e-09
3.19951e-09
3.19982e-09
3.19981e-09
3.2003e-09
3.20032e-09
3.2011e-09
3.20103e-09
3.20185e-09
3.20056e-09
3.19854e-09
3.19196e-09
3.17929e-09
3.16343e-09
3.0803e-09
3.09564e-09
3.10766e-09
3.11388e-09
3.11577e-09
3.11699e-09
3.11618e-09
3.11622e-09
3.11547e-09
3.11543e-09
3.11495e-09
3.11496e-09
3.11465e-09
3.11468e-09
3.11448e-09
3.11452e-09
3.11439e-09
3.11444e-09
3.11436e-09
3.11439e-09
3.11434e-09
3.11436e-09
3.11433e-09
3.11434e-09
3.11433e-09
3.11433e-09
3.11434e-09
3.11433e-09
3.11436e-09
3.11434e-09
3.1144e-09
3.11436e-09
3.11445e-09
3.1144e-09
3.11453e-09
3.11449e-09
3.11468e-09
3.11466e-09
3.11496e-09
3.11496e-09
3.11543e-09
3.11547e-09
3.11623e-09
3.11619e-09
3.11699e-09
3.11577e-09
3.11387e-09
3.10766e-09
3.09564e-09
3.0803e-09
3.00192e-09
3.01674e-09
3.02814e-09
3.03402e-09
3.0358e-09
3.03693e-09
3.03615e-09
3.03617e-09
3.03543e-09
3.03538e-09
3.03491e-09
3.03491e-09
3.03461e-09
3.03463e-09
3.03444e-09
3.03448e-09
3.03435e-09
3.03439e-09
3.03431e-09
3.03435e-09
3.03429e-09
3.03431e-09
3.03428e-09
3.03429e-09
3.03428e-09
3.03429e-09
3.03429e-09
3.03428e-09
3.03432e-09
3.0343e-09
3.03435e-09
3.03432e-09
3.0344e-09
3.03436e-09
3.03448e-09
3.03444e-09
3.03463e-09
3.03461e-09
3.03491e-09
3.03492e-09
3.03538e-09
3.03544e-09
3.03617e-09
3.03616e-09
3.03693e-09
3.0358e-09
3.03402e-09
3.02814e-09
3.01674e-09
3.00192e-09
2.92789e-09
2.94219e-09
2.953e-09
2.95855e-09
2.96021e-09
2.96127e-09
2.96052e-09
2.9605e-09
2.95979e-09
2.95972e-09
2.95927e-09
2.95925e-09
2.95896e-09
2.95897e-09
2.95879e-09
2.95882e-09
2.9587e-09
2.95874e-09
2.95866e-09
2.95869e-09
2.95864e-09
2.95866e-09
2.95863e-09
2.95864e-09
2.95863e-09
2.95863e-09
2.95864e-09
2.95863e-09
2.95866e-09
2.95865e-09
2.9587e-09
2.95867e-09
2.95875e-09
2.95871e-09
2.95883e-09
2.9588e-09
2.95898e-09
2.95897e-09
2.95925e-09
2.95927e-09
2.95972e-09
2.9598e-09
2.9605e-09
2.96052e-09
2.96127e-09
2.96021e-09
2.95855e-09
2.953e-09
2.94219e-09
2.92788e-09
2.85783e-09
2.8716e-09
2.88185e-09
2.8871e-09
2.88865e-09
2.88964e-09
2.8889e-09
2.88886e-09
2.88817e-09
2.88808e-09
2.88765e-09
2.88762e-09
2.88734e-09
2.88734e-09
2.88716e-09
2.88719e-09
2.88707e-09
2.88711e-09
2.88704e-09
2.88706e-09
2.88701e-09
2.88703e-09
2.887e-09
2.88701e-09
2.887e-09
2.887e-09
2.88701e-09
2.887e-09
2.88703e-09
2.88702e-09
2.88707e-09
2.88704e-09
2.88712e-09
2.88708e-09
2.8872e-09
2.88717e-09
2.88735e-09
2.88734e-09
2.88762e-09
2.88765e-09
2.88809e-09
2.88817e-09
2.88886e-09
2.8889e-09
2.88964e-09
2.88865e-09
2.88709e-09
2.88185e-09
2.8716e-09
2.85783e-09
2.79142e-09
2.80465e-09
2.81438e-09
2.81933e-09
2.82078e-09
2.82169e-09
2.82097e-09
2.82091e-09
2.82024e-09
2.82014e-09
2.81971e-09
2.81967e-09
2.8194e-09
2.8194e-09
2.81923e-09
2.81925e-09
2.81914e-09
2.81917e-09
2.8191e-09
2.81912e-09
2.81908e-09
2.81909e-09
2.81906e-09
2.81907e-09
2.81906e-09
2.81906e-09
2.81907e-09
2.81906e-09
2.81909e-09
2.81908e-09
2.81913e-09
2.8191e-09
2.81918e-09
2.81914e-09
2.81926e-09
2.81923e-09
2.81941e-09
2.81941e-09
2.81968e-09
2.81972e-09
2.82014e-09
2.82024e-09
2.82091e-09
2.82098e-09
2.82169e-09
2.82078e-09
2.81933e-09
2.81438e-09
2.80465e-09
2.79142e-09
2.72836e-09
2.74104e-09
2.75027e-09
2.75495e-09
2.7563e-09
2.75714e-09
2.75644e-09
2.75635e-09
2.7557e-09
2.75559e-09
2.75517e-09
2.75513e-09
2.75486e-09
2.75486e-09
2.75469e-09
2.7547e-09
2.7546e-09
2.75462e-09
2.75455e-09
2.75458e-09
2.75453e-09
2.75454e-09
2.75452e-09
2.75453e-09
2.75452e-09
2.75452e-09
2.75453e-09
2.75452e-09
2.75455e-09
2.75453e-09
2.75458e-09
2.75456e-09
2.75463e-09
2.7546e-09
2.75471e-09
2.75469e-09
2.75486e-09
2.75487e-09
2.75513e-09
2.75518e-09
2.75559e-09
2.7557e-09
2.75636e-09
2.75644e-09
2.75714e-09
2.7563e-09
2.75495e-09
2.75027e-09
2.74104e-09
2.72836e-09
2.6684e-09
2.68052e-09
2.68928e-09
2.6937e-09
2.69494e-09
2.69572e-09
2.69503e-09
2.69492e-09
2.69429e-09
2.69416e-09
2.69376e-09
2.69371e-09
2.69345e-09
2.69344e-09
2.69327e-09
2.69329e-09
2.69318e-09
2.69321e-09
2.69314e-09
2.69316e-09
2.69312e-09
2.69313e-09
2.6931e-09
2.69311e-09
2.6931e-09
2.6931e-09
2.69311e-09
2.6931e-09
2.69313e-09
2.69312e-09
2.69316e-09
2.69314e-09
2.69321e-09
2.69319e-09
2.69329e-09
2.69328e-09
2.69344e-09
2.69346e-09
2.69371e-09
2.69377e-09
2.69417e-09
2.69429e-09
2.69493e-09
2.69503e-09
2.69572e-09
2.69494e-09
2.6937e-09
2.68928e-09
2.68051e-09
2.66839e-09
2.61128e-09
2.62284e-09
2.63115e-09
2.63533e-09
2.63647e-09
2.63719e-09
2.63651e-09
2.63639e-09
2.63577e-09
2.63563e-09
2.63524e-09
2.63518e-09
2.63493e-09
2.63491e-09
2.63475e-09
2.63476e-09
2.63466e-09
2.63468e-09
2.63462e-09
2.63464e-09
2.63459e-09
2.6346e-09
2.63458e-09
2.63459e-09
2.63458e-09
2.63458e-09
2.63459e-09
2.63458e-09
2.63461e-09
2.6346e-09
2.63464e-09
2.63462e-09
2.63469e-09
2.63467e-09
2.63477e-09
2.63476e-09
2.63492e-09
2.63494e-09
2.63518e-09
2.63525e-09
2.63564e-09
2.63577e-09
2.63639e-09
2.63652e-09
2.63719e-09
2.63647e-09
2.63533e-09
2.63115e-09
2.62284e-09
2.61128e-09
2.5568e-09
2.56781e-09
2.57569e-09
2.57964e-09
2.58068e-09
2.58134e-09
2.58068e-09
2.58053e-09
2.57993e-09
2.57978e-09
2.5794e-09
2.57933e-09
2.57909e-09
2.57907e-09
2.57891e-09
2.57892e-09
2.57882e-09
2.57884e-09
2.57878e-09
2.57879e-09
2.57875e-09
2.57876e-09
2.57874e-09
2.57874e-09
2.57874e-09
2.57874e-09
2.57874e-09
2.57874e-09
2.57876e-09
2.57875e-09
2.5788e-09
2.57878e-09
2.57884e-09
2.57883e-09
2.57893e-09
2.57892e-09
2.57907e-09
2.5791e-09
2.57934e-09
2.57941e-09
2.57979e-09
2.57993e-09
2.58053e-09
2.58068e-09
2.58134e-09
2.58068e-09
2.57963e-09
2.57569e-09
2.56781e-09
2.5568e-09
2.50476e-09
2.51523e-09
2.52269e-09
2.52642e-09
2.52737e-09
2.52797e-09
2.52733e-09
2.52716e-09
2.52658e-09
2.52642e-09
2.52605e-09
2.52598e-09
2.52574e-09
2.52571e-09
2.52556e-09
2.52557e-09
2.52547e-09
2.52549e-09
2.52542e-09
2.52544e-09
2.5254e-09
2.52541e-09
2.52538e-09
2.52539e-09
2.52538e-09
2.52538e-09
2.52539e-09
2.52539e-09
2.52541e-09
2.5254e-09
2.52544e-09
2.52543e-09
2.52549e-09
2.52547e-09
2.52557e-09
2.52557e-09
2.52572e-09
2.52574e-09
2.52598e-09
2.52605e-09
2.52643e-09
2.52658e-09
2.52717e-09
2.52733e-09
2.52797e-09
2.52737e-09
2.52642e-09
2.52269e-09
2.51523e-09
2.50476e-09
2.455e-09
2.46494e-09
2.47199e-09
2.47552e-09
2.47638e-09
2.47693e-09
2.47629e-09
2.47611e-09
2.47554e-09
2.47538e-09
2.47501e-09
2.47493e-09
2.4747e-09
2.47467e-09
2.47453e-09
2.47453e-09
2.47443e-09
2.47445e-09
2.47439e-09
2.4744e-09
2.47436e-09
2.47437e-09
2.47435e-09
2.47435e-09
2.47435e-09
2.47435e-09
2.47435e-09
2.47435e-09
2.47437e-09
2.47436e-09
2.4744e-09
2.47439e-09
2.47445e-09
2.47444e-09
2.47453e-09
2.47453e-09
2.47468e-09
2.47471e-09
2.47494e-09
2.47502e-09
2.47538e-09
2.47554e-09
2.47611e-09
2.47629e-09
2.47693e-09
2.47638e-09
2.47552e-09
2.47199e-09
2.46494e-09
2.455e-09
2.40735e-09
2.41679e-09
2.42342e-09
2.42677e-09
2.42755e-09
2.42804e-09
2.42741e-09
2.42722e-09
2.42666e-09
2.4265e-09
2.42614e-09
2.42605e-09
2.42583e-09
2.4258e-09
2.42565e-09
2.42565e-09
2.42556e-09
2.42557e-09
2.42551e-09
2.42552e-09
2.42549e-09
2.42549e-09
2.42547e-09
2.42548e-09
2.42547e-09
2.42547e-09
2.42548e-09
2.42547e-09
2.4255e-09
2.42549e-09
2.42553e-09
2.42552e-09
2.42558e-09
2.42556e-09
2.42566e-09
2.42566e-09
2.4258e-09
2.42583e-09
2.42606e-09
2.42614e-09
2.4265e-09
2.42667e-09
2.42722e-09
2.42741e-09
2.42804e-09
2.42755e-09
2.42677e-09
2.42342e-09
2.41679e-09
2.40734e-09
2.36167e-09
2.37062e-09
2.37688e-09
2.38003e-09
2.38074e-09
2.38117e-09
2.38055e-09
2.38035e-09
2.37981e-09
2.37963e-09
2.37928e-09
2.37919e-09
2.37897e-09
2.37894e-09
2.3788e-09
2.37879e-09
2.3787e-09
2.37871e-09
2.37866e-09
2.37867e-09
2.37863e-09
2.37864e-09
2.37861e-09
2.37862e-09
2.37861e-09
2.37861e-09
2.37862e-09
2.37862e-09
2.37864e-09
2.37863e-09
2.37867e-09
2.37866e-09
2.37872e-09
2.37871e-09
2.3788e-09
2.3788e-09
2.37894e-09
2.37898e-09
2.3792e-09
2.37929e-09
2.37963e-09
2.37981e-09
2.38035e-09
2.38055e-09
2.38117e-09
2.38073e-09
2.38003e-09
2.37688e-09
2.37061e-09
2.36166e-09
2.31783e-09
2.3263e-09
2.33222e-09
2.33517e-09
2.3358e-09
2.33619e-09
2.33558e-09
2.33536e-09
2.33483e-09
2.33465e-09
2.33431e-09
2.33422e-09
2.33401e-09
2.33397e-09
2.33383e-09
2.33382e-09
2.33374e-09
2.33374e-09
2.33369e-09
2.3337e-09
2.33366e-09
2.33367e-09
2.33365e-09
2.33365e-09
2.33364e-09
2.33364e-09
2.33365e-09
2.33365e-09
2.33367e-09
2.33366e-09
2.3337e-09
2.33369e-09
2.33375e-09
2.33374e-09
2.33383e-09
2.33384e-09
2.33397e-09
2.33401e-09
2.33422e-09
2.33432e-09
2.33465e-09
2.33483e-09
2.33536e-09
2.33558e-09
2.33619e-09
2.3358e-09
2.33517e-09
2.33221e-09
2.32629e-09
2.31782e-09
2.2757e-09
2.28373e-09
2.28929e-09
2.29207e-09
2.29263e-09
2.29297e-09
2.29237e-09
2.29214e-09
2.29162e-09
2.29143e-09
2.2911e-09
2.29101e-09
2.2908e-09
2.29076e-09
2.29063e-09
2.29062e-09
2.29053e-09
2.29054e-09
2.29048e-09
2.29049e-09
2.29045e-09
2.29046e-09
2.29044e-09
2.29044e-09
2.29044e-09
2.29044e-09
2.29044e-09
2.29044e-09
2.29046e-09
2.29046e-09
2.29049e-09
2.29049e-09
2.29054e-09
2.29053e-09
2.29062e-09
2.29063e-09
2.29076e-09
2.2908e-09
2.29101e-09
2.29111e-09
2.29144e-09
2.29162e-09
2.29214e-09
2.29237e-09
2.29296e-09
2.29262e-09
2.29206e-09
2.28928e-09
2.28372e-09
2.2757e-09
2.23518e-09
2.24276e-09
2.24798e-09
2.25059e-09
2.25109e-09
2.25138e-09
2.25079e-09
2.25055e-09
2.25004e-09
2.24985e-09
2.24953e-09
2.24943e-09
2.24923e-09
2.24919e-09
2.24906e-09
2.24904e-09
2.24896e-09
2.24896e-09
2.24891e-09
2.24892e-09
2.24888e-09
2.24889e-09
2.24887e-09
2.24887e-09
2.24887e-09
2.24887e-09
2.24887e-09
2.24887e-09
2.24889e-09
2.24889e-09
2.24892e-09
2.24891e-09
2.24897e-09
2.24897e-09
2.24905e-09
2.24906e-09
2.24919e-09
2.24923e-09
2.24943e-09
2.24953e-09
2.24985e-09
2.25004e-09
2.25055e-09
2.25079e-09
2.25137e-09
2.25108e-09
2.25059e-09
2.24797e-09
2.24275e-09
2.23517e-09
2.19744e-09
2.20466e-09
2.20953e-09
2.21201e-09
2.21244e-09
2.21269e-09
2.21211e-09
2.21186e-09
2.21136e-09
2.21117e-09
2.21085e-09
2.21075e-09
2.21055e-09
2.21051e-09
2.21038e-09
2.21036e-09
2.21028e-09
2.21029e-09
2.21023e-09
2.21024e-09
2.2102e-09
2.21021e-09
2.21019e-09
2.21019e-09
2.21019e-09
2.21019e-09
2.21019e-09
2.21019e-09
2.21021e-09
2.21021e-09
2.21024e-09
2.21024e-09
2.21029e-09
2.21029e-09
2.21037e-09
2.21038e-09
2.21051e-09
2.21055e-09
2.21075e-09
2.21085e-09
2.21117e-09
2.21136e-09
2.21186e-09
2.2121e-09
2.21268e-09
2.21243e-09
2.212e-09
2.20952e-09
2.20465e-09
2.19743e-09
2.16055e-09
2.16746e-09
2.1719e-09
2.17419e-09
2.17448e-09
2.17464e-09
2.17402e-09
2.17374e-09
2.17323e-09
2.17302e-09
2.1727e-09
2.17259e-09
2.17239e-09
2.17234e-09
2.17222e-09
2.1722e-09
2.17212e-09
2.17212e-09
2.17206e-09
2.17207e-09
2.17203e-09
2.17204e-09
2.17202e-09
2.17202e-09
2.17202e-09
2.17202e-09
2.17202e-09
2.17202e-09
2.17204e-09
2.17204e-09
2.17207e-09
2.17207e-09
2.17212e-09
2.17212e-09
2.1722e-09
2.17222e-09
2.17235e-09
2.1724e-09
2.17259e-09
2.1727e-09
2.17302e-09
2.17323e-09
2.17373e-09
2.17402e-09
2.17464e-09
2.17447e-09
2.17418e-09
2.17189e-09
2.16745e-09
2.16054e-09
2.12444e-09
2.13099e-09
2.13507e-09
2.13722e-09
2.13746e-09
2.13758e-09
2.13697e-09
2.13667e-09
2.13618e-09
2.13596e-09
2.13565e-09
2.13554e-09
2.13535e-09
2.13529e-09
2.13517e-09
2.13515e-09
2.13507e-09
2.13507e-09
2.13502e-09
2.13502e-09
2.13499e-09
2.13499e-09
2.13497e-09
2.13497e-09
2.13497e-09
2.13497e-09
2.13498e-09
2.13497e-09
2.13499e-09
2.13499e-09
2.13502e-09
2.13502e-09
2.13507e-09
2.13507e-09
2.13515e-09
2.13517e-09
2.1353e-09
2.13535e-09
2.13554e-09
2.13565e-09
2.13596e-09
2.13617e-09
2.13667e-09
2.13696e-09
2.13757e-09
2.13745e-09
2.13721e-09
2.13506e-09
2.13098e-09
2.12443e-09
2.0896e-09
2.09579e-09
2.09954e-09
2.10157e-09
2.10175e-09
2.10183e-09
2.10122e-09
2.10091e-09
2.10043e-09
2.10021e-09
2.09991e-09
2.09979e-09
2.0996e-09
2.09955e-09
2.09943e-09
2.09941e-09
2.09933e-09
2.09933e-09
2.09927e-09
2.09928e-09
2.09924e-09
2.09925e-09
2.09923e-09
2.09923e-09
2.09922e-09
2.09922e-09
2.09923e-09
2.09923e-09
2.09925e-09
2.09925e-09
2.09928e-09
2.09928e-09
2.09933e-09
2.09933e-09
2.09941e-09
2.09943e-09
2.09955e-09
2.0996e-09
2.09979e-09
2.09991e-09
2.10021e-09
2.10042e-09
2.10091e-09
2.10121e-09
2.10182e-09
2.10174e-09
2.10155e-09
2.09953e-09
2.09578e-09
2.08959e-09
2.05593e-09
2.06177e-09
2.06521e-09
2.0671e-09
2.06723e-09
2.06726e-09
2.06666e-09
2.06635e-09
2.06587e-09
2.06565e-09
2.06535e-09
2.06523e-09
2.06505e-09
2.06499e-09
2.06488e-09
2.06485e-09
2.06478e-09
2.06477e-09
2.06472e-09
2.06472e-09
2.06469e-09
2.06469e-09
2.06467e-09
2.06468e-09
2.06467e-09
2.06467e-09
2.06468e-09
2.06468e-09
2.06469e-09
2.06469e-09
2.06472e-09
2.06472e-09
2.06477e-09
2.06478e-09
2.06485e-09
2.06488e-09
2.065e-09
2.06505e-09
2.06523e-09
2.06535e-09
2.06564e-09
2.06586e-09
2.06634e-09
2.06665e-09
2.06725e-09
2.06722e-09
2.06708e-09
2.0652e-09
2.06175e-09
2.05592e-09
2.02439e-09
2.02992e-09
2.03306e-09
2.03483e-09
2.03491e-09
2.0349e-09
2.0343e-09
2.03397e-09
2.0335e-09
2.03327e-09
2.03298e-09
2.03287e-09
2.03269e-09
2.03263e-09
2.03251e-09
2.03249e-09
2.03242e-09
2.03241e-09
2.03236e-09
2.03236e-09
2.03233e-09
2.03233e-09
2.03231e-09
2.03231e-09
2.03231e-09
2.03231e-09
2.03231e-09
2.03231e-09
2.03233e-09
2.03233e-09
2.03236e-09
2.03236e-09
2.03241e-09
2.03242e-09
2.03249e-09
2.03251e-09
2.03263e-09
2.03269e-09
2.03287e-09
2.03298e-09
2.03327e-09
2.03349e-09
2.03396e-09
2.03429e-09
2.03489e-09
2.03489e-09
2.03481e-09
2.03305e-09
2.0299e-09
2.02437e-09
1.99389e-09
1.99912e-09
2.00198e-09
2.00363e-09
2.00366e-09
2.00361e-09
2.00301e-09
2.00267e-09
2.00221e-09
2.00198e-09
2.00168e-09
2.00155e-09
2.00136e-09
2.0013e-09
2.00118e-09
2.00115e-09
2.00107e-09
2.00107e-09
2.00101e-09
2.00101e-09
2.00098e-09
2.00098e-09
2.00096e-09
2.00096e-09
2.00096e-09
2.00096e-09
2.00097e-09
2.00096e-09
2.00098e-09
2.00098e-09
2.00101e-09
2.00102e-09
2.00107e-09
2.00107e-09
2.00115e-09
2.00118e-09
2.0013e-09
2.00136e-09
2.00155e-09
2.00168e-09
2.00197e-09
2.0022e-09
2.00266e-09
2.003e-09
2.0036e-09
2.00364e-09
2.00361e-09
2.00197e-09
1.9991e-09
1.99387e-09
1.96357e-09
1.96853e-09
1.9711e-09
1.9726e-09
1.97255e-09
1.97245e-09
1.97182e-09
1.97146e-09
1.97099e-09
1.97075e-09
1.97046e-09
1.97032e-09
1.97013e-09
1.97007e-09
1.96995e-09
1.96992e-09
1.96984e-09
1.96983e-09
1.96978e-09
1.96978e-09
1.96975e-09
1.96975e-09
1.96973e-09
1.96973e-09
1.96972e-09
1.96972e-09
1.96973e-09
1.96973e-09
1.96975e-09
1.96975e-09
1.96978e-09
1.96978e-09
1.96983e-09
1.96984e-09
1.96992e-09
1.96995e-09
1.97007e-09
1.97013e-09
1.97032e-09
1.97045e-09
1.97074e-09
1.97098e-09
1.97145e-09
1.97181e-09
1.97243e-09
1.97253e-09
1.97258e-09
1.97109e-09
1.9685e-09
1.96355e-09
1.93401e-09
1.93865e-09
1.94097e-09
1.94233e-09
1.94224e-09
1.9421e-09
1.94147e-09
1.94111e-09
1.94064e-09
1.9404e-09
1.94011e-09
1.93997e-09
1.93979e-09
1.93972e-09
1.9396e-09
1.93957e-09
1.9395e-09
1.93949e-09
1.93943e-09
1.93943e-09
1.9394e-09
1.9394e-09
1.93938e-09
1.93938e-09
1.93937e-09
1.93938e-09
1.93938e-09
1.93938e-09
1.9394e-09
1.9394e-09
1.93943e-09
1.93943e-09
1.93948e-09
1.93949e-09
1.93957e-09
1.9396e-09
1.93972e-09
1.93979e-09
1.93997e-09
1.9401e-09
1.94039e-09
1.94063e-09
1.9411e-09
1.94146e-09
1.94209e-09
1.94223e-09
1.94231e-09
1.94095e-09
1.93863e-09
1.93399e-09
1.90614e-09
1.9105e-09
1.91257e-09
1.91381e-09
1.91368e-09
1.9135e-09
1.91287e-09
1.91249e-09
1.91203e-09
1.91178e-09
1.9115e-09
1.91136e-09
1.91118e-09
1.91111e-09
1.91099e-09
1.91096e-09
1.91088e-09
1.91087e-09
1.91082e-09
1.91081e-09
1.91078e-09
1.91078e-09
1.91076e-09
1.91076e-09
1.91076e-09
1.91076e-09
1.91076e-09
1.91076e-09
1.91078e-09
1.91078e-09
1.91081e-09
1.91082e-09
1.91087e-09
1.91088e-09
1.91095e-09
1.91099e-09
1.9111e-09
1.91117e-09
1.91135e-09
1.91149e-09
1.91177e-09
1.91202e-09
1.91248e-09
1.91285e-09
1.91348e-09
1.91366e-09
1.91379e-09
1.91255e-09
1.91047e-09
1.90611e-09
1.87896e-09
1.88309e-09
1.88491e-09
1.88602e-09
1.88574e-09
1.88548e-09
1.88478e-09
1.88436e-09
1.88388e-09
1.88361e-09
1.88332e-09
1.88317e-09
1.88298e-09
1.88291e-09
1.88279e-09
1.88275e-09
1.88268e-09
1.88266e-09
1.88261e-09
1.8826e-09
1.88257e-09
1.88257e-09
1.88255e-09
1.88255e-09
1.88255e-09
1.88255e-09
1.88256e-09
1.88256e-09
1.88257e-09
1.88257e-09
1.8826e-09
1.88261e-09
1.88266e-09
1.88267e-09
1.88275e-09
1.88278e-09
1.8829e-09
1.88298e-09
1.88316e-09
1.88331e-09
1.8836e-09
1.88386e-09
1.88435e-09
1.88476e-09
1.88546e-09
1.88572e-09
1.886e-09
1.88489e-09
1.88306e-09
1.87894e-09
1.85249e-09
1.85635e-09
1.85794e-09
1.85893e-09
1.8586e-09
1.8583e-09
1.85758e-09
1.85716e-09
1.85667e-09
1.8564e-09
1.85611e-09
1.85596e-09
1.85577e-09
1.85569e-09
1.85558e-09
1.85554e-09
1.85546e-09
1.85545e-09
1.85539e-09
1.85539e-09
1.85536e-09
1.85535e-09
1.85534e-09
1.85534e-09
1.85533e-09
1.85533e-09
1.85534e-09
1.85534e-09
1.85535e-09
1.85536e-09
1.85539e-09
1.85539e-09
1.85544e-09
1.85546e-09
1.85553e-09
1.85557e-09
1.85569e-09
1.85576e-09
1.85595e-09
1.8561e-09
1.85639e-09
1.85665e-09
1.85714e-09
1.85757e-09
1.85828e-09
1.85857e-09
1.8589e-09
1.85792e-09
1.85632e-09
1.85246e-09
1.82662e-09
1.83023e-09
1.83159e-09
1.83245e-09
1.83207e-09
1.83173e-09
1.831e-09
1.83056e-09
1.83006e-09
1.82979e-09
1.8295e-09
1.82934e-09
1.82916e-09
1.82908e-09
1.82896e-09
1.82892e-09
1.82885e-09
1.82883e-09
1.82878e-09
1.82877e-09
1.82874e-09
1.82874e-09
1.82872e-09
1.82872e-09
1.82871e-09
1.82871e-09
1.82872e-09
1.82872e-09
1.82874e-09
1.82874e-09
1.82877e-09
1.82878e-09
1.82883e-09
1.82884e-09
1.82892e-09
1.82896e-09
1.82907e-09
1.82916e-09
1.82934e-09
1.82949e-09
1.82978e-09
1.83005e-09
1.83054e-09
1.83098e-09
1.83171e-09
1.83205e-09
1.83243e-09
1.83156e-09
1.83021e-09
1.82659e-09
1.8027e-09
1.80269e-09
1.80266e-09
1.80266e-09
1.80264e-09
1.80264e-09
1.80263e-09
1.80263e-09
1.80264e-09
1.80264e-09
1.80266e-09
1.80266e-09
1.80269e-09
1.8027e-09
1.80275e-09
1.80277e-09
1.80285e-09
1.80289e-09
1.803e-09
1.80309e-09
1.80327e-09
1.80343e-09
1.80371e-09
1.80399e-09
1.80449e-09
1.80494e-09
1.80569e-09
1.80607e-09
1.80651e-09
1.80576e-09
1.80463e-09
1.80127e-09
1.77648e-09
1.77649e-09
1.77652e-09
1.77653e-09
1.77658e-09
1.7766e-09
1.77667e-09
1.77672e-09
1.77684e-09
1.77692e-09
1.77711e-09
1.77728e-09
1.77757e-09
1.77787e-09
1.77838e-09
1.77887e-09
1.77967e-09
1.78012e-09
1.78066e-09
1.78006e-09
1.77918e-09
1.77602e-09
1.75227e-09
1.75257e-09
1.7531e-09
1.75361e-09
1.75443e-09
1.75493e-09
1.75553e-09
1.75506e-09
1.75441e-09
1.75148e-09
)
;

boundaryField
{
    fuel
    {
        type            fixedValue;
        value           nonuniform 0();
    }
    wall
    {
        type            zeroGradient;
    }
    outlet
    {
        type            zeroGradient;
    }
    frontAndBack
    {
        type            empty;
    }
    procBoundary0to1
    {
        type            processor;
        value           nonuniform List<scalar> 
50
(
4.39352e-09
4.41579e-09
4.43736e-09
4.44854e-09
4.45181e-09
4.45411e-09
4.4528e-09
4.45333e-09
4.45213e-09
4.45243e-09
4.45169e-09
4.45192e-09
4.45144e-09
4.45162e-09
4.45131e-09
4.45146e-09
4.45124e-09
4.45137e-09
4.45123e-09
4.45132e-09
4.45123e-09
4.45128e-09
4.45122e-09
4.45125e-09
4.45123e-09
4.45123e-09
4.45125e-09
4.45122e-09
4.45128e-09
4.45123e-09
4.45132e-09
4.45124e-09
4.45138e-09
4.45125e-09
4.45146e-09
4.45131e-09
4.45162e-09
4.45145e-09
4.45193e-09
4.45169e-09
4.45243e-09
4.45213e-09
4.45333e-09
4.4528e-09
4.4541e-09
4.45181e-09
4.44854e-09
4.43736e-09
4.41579e-09
4.39352e-09
)
;
    }
    procBoundary0to2
    {
        type            processor;
        value           nonuniform List<scalar> 
53
(
1.80129e-09
1.80466e-09
1.80578e-09
1.80652e-09
1.80609e-09
1.8057e-09
1.80496e-09
1.8045e-09
1.804e-09
1.80372e-09
1.80343e-09
1.80327e-09
1.80309e-09
1.803e-09
1.80288e-09
1.80284e-09
1.80277e-09
1.80275e-09
1.80275e-09
1.77653e-09
1.77651e-09
1.77648e-09
1.77648e-09
1.77646e-09
1.77646e-09
1.77646e-09
1.77646e-09
1.77646e-09
1.77646e-09
1.77646e-09
1.75116e-09
1.75116e-09
1.75119e-09
1.75121e-09
1.75125e-09
1.75128e-09
1.75135e-09
1.7514e-09
1.75152e-09
1.75161e-09
1.7518e-09
1.75197e-09
1.75197e-09
1.7272e-09
1.72751e-09
1.72805e-09
1.72858e-09
1.72944e-09
1.72999e-09
1.73066e-09
1.73032e-09
1.7299e-09
1.72719e-09
)
;
    }
}


// ************************************************************************* //
