/*--------------------------------*- C++ -*----------------------------------*\
| =========                 |                                                 |
| \\      /  F ield         | OpenFOAM: The Open Source CFD Toolbox           |
|  \\    /   O peration     | Version:  dev                                   |
|   \\  /    A nd           | Web:      www.OpenFOAM.org                      |
|    \\/     M anipulation  |                                                 |
\*---------------------------------------------------------------------------*/
FoamFile
{
    version     2.0;
    format      ascii;
    class       volScalarField;
    location    "0.04";
    object      O;
}
// * * * * * * * * * * * * * * * * * * * * * * * * * * * * * * * * * * * * * //

dimensions      [0 0 0 0 0 0 0];

internalField   nonuniform List<scalar> 
250
(
5.86752e-08
5.89161e-08
5.86312e-08
5.91631e-08
5.91351e-08
5.92622e-08
5.93677e-08
5.29505e-08
3.67852e-08
1.53282e-08
5.30007e-08
5.32544e-08
5.29518e-08
5.35187e-08
5.34856e-08
5.3682e-08
5.40815e-08
4.85254e-08
3.58469e-08
1.66486e-08
2.21584e-08
3.47978e-08
4.34808e-08
4.75299e-08
4.86821e-08
4.71393e-08
4.81112e-08
4.67888e-08
4.76623e-08
4.69314e-08
4.70967e-08
4.73591e-08
4.70422e-08
4.7627e-08
4.75925e-08
4.78448e-08
4.84967e-08
4.37315e-08
3.40251e-08
1.7554e-08
2.01879e-08
3.14341e-08
3.84158e-08
4.17836e-08
4.27213e-08
4.1098e-08
4.21034e-08
4.07387e-08
4.16552e-08
4.08989e-08
4.10714e-08
4.13366e-08
4.10114e-08
4.15987e-08
4.1564e-08
4.18542e-08
4.27026e-08
3.86591e-08
3.15923e-08
1.78257e-08
1.79185e-08
2.78313e-08
3.32372e-08
3.59579e-08
3.67056e-08
3.50569e-08
3.60781e-08
3.47037e-08
3.56426e-08
3.48838e-08
3.50596e-08
3.53207e-08
3.49957e-08
3.55696e-08
3.55353e-08
3.5843e-08
3.6818e-08
3.34279e-08
2.87028e-08
1.73815e-08
1.55099e-08
2.40554e-08
2.80663e-08
3.02017e-08
3.07912e-08
2.91724e-08
3.01907e-08
2.88456e-08
2.97811e-08
2.90446e-08
2.92176e-08
2.94667e-08
2.91535e-08
2.96969e-08
2.96649e-08
2.99674e-08
3.09892e-08
2.81814e-08
2.53175e-08
1.62533e-08
1.30914e-08
2.02519e-08
2.30431e-08
2.46778e-08
2.51561e-08
2.36172e-08
2.46171e-08
2.33484e-08
2.42447e-08
2.35556e-08
2.37181e-08
2.39475e-08
2.36596e-08
2.41551e-08
2.41298e-08
2.4403e-08
2.53832e-08
2.30813e-08
2.16468e-08
1.45641e-08
1.07597e-08
1.65542e-08
1.83152e-08
1.94677e-08
1.95622e-08
1.81013e-08
1.90154e-08
1.7952e-08
1.86952e-08
1.81014e-08
1.82357e-08
1.84366e-08
1.81979e-08
1.86149e-08
1.85977e-08
1.88539e-08
2.00878e-08
1.82944e-08
1.78809e-08
1.24929e-08
8.5917e-09
1.30846e-08
1.40261e-08
1.44311e-08
1.45514e-08
1.36078e-08
1.41229e-08
1.32757e-08
1.3848e-08
1.33479e-08
1.34538e-08
1.36279e-08
1.34356e-08
1.37821e-08
1.37726e-08
1.39749e-08
1.49401e-08
1.38973e-08
1.42157e-08
1.0242e-08
6.53178e-09
9.95393e-09
1.03135e-08
1.05225e-08
1.05981e-08
9.81817e-09
1.02645e-08
9.59488e-09
1.00451e-08
9.63859e-09
9.72306e-09
9.86367e-09
9.71321e-09
9.98704e-09
9.98358e-09
1.01342e-08
1.09264e-08
1.01713e-08
1.0836e-08
8.007e-09
4.79152e-09
7.25179e-09
7.24882e-09
7.33418e-09
7.37757e-09
6.76872e-09
7.13181e-09
6.61597e-09
6.96652e-09
6.65153e-09
6.71652e-09
6.82447e-09
6.71106e-09
6.91744e-09
6.91643e-09
7.02394e-09
7.6388e-09
7.11016e-09
7.8849e-09
5.95213e-09
3.4068e-09
5.03348e-09
4.84815e-09
4.86343e-09
4.88637e-09
4.43943e-09
4.71528e-09
4.33522e-09
4.59811e-09
4.36645e-09
4.41445e-09
4.4929e-09
4.41081e-09
4.55844e-09
4.5578e-09
4.63134e-09
5.08108e-09
4.72577e-09
5.45222e-09
4.193e-09
2.30382e-09
3.31043e-09
3.07225e-09
3.05408e-09
3.06617e-09
2.75821e-09
2.95383e-09
2.68973e-09
2.87579e-09
2.715e-09
2.74869e-09
2.80241e-09
2.74584e-09
2.84546e-09
2.8446e-09
2.89249e-09
3.20123e-09
2.97336e-09
3.56603e-09
2.78881e-09
1.61471e-09
1.64922e-09
1.61247e-09
1.67553e-09
1.67452e-09
1.70397e-09
1.90191e-09
1.76339e-09
2.19591e-09
1.74424e-09
)
;

boundaryField
{
    fuel
    {
        type            fixedValue;
        value           nonuniform 0();
    }
    wall
    {
        type            zeroGradient;
    }
    outlet
    {
        type            zeroGradient;
    }
    frontAndBack
    {
        type            empty;
    }
    procBoundary0to1
    {
        type            processor;
        value           nonuniform List<scalar> 
21
(
1.47568e-09
2.05219e-09
1.83652e-09
1.80831e-09
1.81507e-09
1.61666e-09
1.74582e-09
1.57423e-09
1.69716e-09
1.59248e-09
1.59248e-09
8.91071e-10
9.11785e-10
8.89472e-10
9.26715e-10
9.25794e-10
9.42714e-10
1.06071e-09
9.81422e-10
1.26712e-09
1.02163e-09
)
;
    }
    procBoundary0to2
    {
        type            processor;
        value           nonuniform List<scalar> 
12
(
5.85306e-08
2.36027e-08
3.7715e-08
4.83361e-08
5.30919e-08
5.44452e-08
5.30518e-08
5.39667e-08
5.27182e-08
5.35266e-08
5.28452e-08
5.28452e-08
)
;
    }
    procBoundary0to3
    {
        type            processor;
        value           nonuniform List<scalar> 10(6.4039e-08 6.42637e-08 6.39993e-08 6.44593e-08 6.44442e-08 6.45055e-08 6.46558e-08 5.69317e-08 3.69773e-08 1.39185e-08);
    }
}


// ************************************************************************* //
