/*--------------------------------*- C++ -*----------------------------------*\
| =========                 |                                                 |
| \\      /  F ield         | OpenFOAM: The Open Source CFD Toolbox           |
|  \\    /   O peration     | Version:  dev                                   |
|   \\  /    A nd           | Web:      www.OpenFOAM.org                      |
|    \\/     M anipulation  |                                                 |
\*---------------------------------------------------------------------------*/
FoamFile
{
    version     2.0;
    format      ascii;
    class       volScalarField;
    location    "0.04";
    object      OH;
}
// * * * * * * * * * * * * * * * * * * * * * * * * * * * * * * * * * * * * * //

dimensions      [0 0 0 0 0 0 0];

internalField   nonuniform List<scalar> 
2014
(
3.32608e-05
3.33412e-05
3.34265e-05
3.34732e-05
3.3495e-05
3.35057e-05
3.35055e-05
3.3506e-05
3.35029e-05
3.35021e-05
3.34999e-05
3.34993e-05
3.34978e-05
3.34975e-05
3.34966e-05
3.34966e-05
3.3496e-05
3.34961e-05
3.34957e-05
3.34958e-05
3.34956e-05
3.34956e-05
3.34954e-05
3.34955e-05
3.34954e-05
3.34954e-05
3.34955e-05
3.34954e-05
3.34956e-05
3.34955e-05
3.34957e-05
3.34957e-05
3.3496e-05
3.3496e-05
3.34965e-05
3.34966e-05
3.34975e-05
3.34978e-05
3.34993e-05
3.34998e-05
3.35021e-05
3.35029e-05
3.35059e-05
3.35055e-05
3.35056e-05
3.3495e-05
3.34732e-05
3.34265e-05
3.33412e-05
3.32608e-05
3.30061e-05
3.30849e-05
3.31678e-05
3.32132e-05
3.32342e-05
3.32444e-05
3.3244e-05
3.32443e-05
3.32411e-05
3.32402e-05
3.32379e-05
3.32372e-05
3.32357e-05
3.32354e-05
3.32345e-05
3.32344e-05
3.32338e-05
3.32339e-05
3.32335e-05
3.32336e-05
3.32333e-05
3.32333e-05
3.32332e-05
3.32332e-05
3.32332e-05
3.32332e-05
3.32332e-05
3.32332e-05
3.32333e-05
3.32333e-05
3.32335e-05
3.32335e-05
3.32338e-05
3.32338e-05
3.32343e-05
3.32344e-05
3.32353e-05
3.32357e-05
3.32372e-05
3.32378e-05
3.32401e-05
3.32411e-05
3.32442e-05
3.3244e-05
3.32443e-05
3.32341e-05
3.32131e-05
3.31678e-05
3.30849e-05
3.30061e-05
3.27552e-05
3.28327e-05
3.29131e-05
3.2957e-05
3.29772e-05
3.2987e-05
3.29864e-05
3.29864e-05
3.29832e-05
3.29821e-05
3.29797e-05
3.2979e-05
3.29775e-05
3.29771e-05
3.29762e-05
3.29761e-05
3.29755e-05
3.29755e-05
3.29752e-05
3.29752e-05
3.2975e-05
3.2975e-05
3.29749e-05
3.29749e-05
3.29748e-05
3.29748e-05
3.29749e-05
3.29748e-05
3.2975e-05
3.2975e-05
3.29752e-05
3.29751e-05
3.29755e-05
3.29754e-05
3.2976e-05
3.29761e-05
3.29771e-05
3.29774e-05
3.2979e-05
3.29797e-05
3.29821e-05
3.29832e-05
3.29864e-05
3.29864e-05
3.2987e-05
3.29771e-05
3.2957e-05
3.2913e-05
3.28326e-05
3.27552e-05
3.25069e-05
3.25833e-05
3.2661e-05
3.27037e-05
3.2723e-05
3.27324e-05
3.27315e-05
3.27313e-05
3.2728e-05
3.27268e-05
3.27243e-05
3.27235e-05
3.27219e-05
3.27215e-05
3.27206e-05
3.27204e-05
3.27198e-05
3.27199e-05
3.27195e-05
3.27195e-05
3.27193e-05
3.27193e-05
3.27192e-05
3.27192e-05
3.27191e-05
3.27191e-05
3.27192e-05
3.27192e-05
3.27193e-05
3.27193e-05
3.27195e-05
3.27195e-05
3.27198e-05
3.27198e-05
3.27204e-05
3.27205e-05
3.27215e-05
3.27219e-05
3.27235e-05
3.27243e-05
3.27267e-05
3.27279e-05
3.27313e-05
3.27315e-05
3.27323e-05
3.2723e-05
3.27036e-05
3.2661e-05
3.25832e-05
3.25069e-05
3.22603e-05
3.23355e-05
3.24109e-05
3.2452e-05
3.24705e-05
3.24794e-05
3.24783e-05
3.24779e-05
3.24744e-05
3.2473e-05
3.24705e-05
3.24696e-05
3.2468e-05
3.24676e-05
3.24666e-05
3.24664e-05
3.24658e-05
3.24658e-05
3.24655e-05
3.24655e-05
3.24652e-05
3.24652e-05
3.24651e-05
3.24651e-05
3.24651e-05
3.24651e-05
3.24651e-05
3.24651e-05
3.24652e-05
3.24652e-05
3.24654e-05
3.24654e-05
3.24658e-05
3.24658e-05
3.24664e-05
3.24665e-05
3.24675e-05
3.2468e-05
3.24696e-05
3.24704e-05
3.2473e-05
3.24743e-05
3.24778e-05
3.24782e-05
3.24794e-05
3.24705e-05
3.2452e-05
3.24109e-05
3.23354e-05
3.22602e-05
3.20143e-05
3.20885e-05
3.21617e-05
3.22012e-05
3.22189e-05
3.22273e-05
3.22258e-05
3.22251e-05
3.22215e-05
3.222e-05
3.22174e-05
3.22165e-05
3.22148e-05
3.22143e-05
3.22133e-05
3.22131e-05
3.22125e-05
3.22125e-05
3.22121e-05
3.22121e-05
3.22119e-05
3.22119e-05
3.22117e-05
3.22118e-05
3.22117e-05
3.22117e-05
3.22117e-05
3.22117e-05
3.22119e-05
3.22119e-05
3.22121e-05
3.22121e-05
3.22124e-05
3.22124e-05
3.22131e-05
3.22132e-05
3.22143e-05
3.22147e-05
3.22164e-05
3.22174e-05
3.222e-05
3.22215e-05
3.22251e-05
3.22257e-05
3.22272e-05
3.22188e-05
3.22012e-05
3.21617e-05
3.20884e-05
3.20143e-05
3.17684e-05
3.18415e-05
3.19125e-05
3.19504e-05
3.19672e-05
3.19751e-05
3.19733e-05
3.19724e-05
3.19686e-05
3.1967e-05
3.19643e-05
3.19632e-05
3.19615e-05
3.1961e-05
3.196e-05
3.19597e-05
3.19591e-05
3.19591e-05
3.19587e-05
3.19587e-05
3.19585e-05
3.19585e-05
3.19583e-05
3.19583e-05
3.19583e-05
3.19583e-05
3.19583e-05
3.19583e-05
3.19584e-05
3.19584e-05
3.19587e-05
3.19587e-05
3.1959e-05
3.19591e-05
3.19597e-05
3.19599e-05
3.19609e-05
3.19615e-05
3.19632e-05
3.19642e-05
3.19669e-05
3.19685e-05
3.19723e-05
3.19732e-05
3.1975e-05
3.19671e-05
3.19504e-05
3.19125e-05
3.18415e-05
3.17684e-05
3.15218e-05
3.1594e-05
3.16627e-05
3.1699e-05
3.17148e-05
3.17221e-05
3.172e-05
3.17189e-05
3.17149e-05
3.17132e-05
3.17103e-05
3.17092e-05
3.17075e-05
3.17069e-05
3.17058e-05
3.17056e-05
3.1705e-05
3.17049e-05
3.17045e-05
3.17045e-05
3.17043e-05
3.17043e-05
3.17041e-05
3.17041e-05
3.17041e-05
3.17041e-05
3.17041e-05
3.17041e-05
3.17042e-05
3.17042e-05
3.17045e-05
3.17045e-05
3.17049e-05
3.17049e-05
3.17055e-05
3.17058e-05
3.17068e-05
3.17074e-05
3.17092e-05
3.17103e-05
3.17131e-05
3.17148e-05
3.17188e-05
3.17199e-05
3.17221e-05
3.17147e-05
3.16989e-05
3.16626e-05
3.15939e-05
3.15218e-05
3.1274e-05
3.13452e-05
3.14115e-05
3.14463e-05
3.14611e-05
3.14679e-05
3.14654e-05
3.1464e-05
3.14598e-05
3.14579e-05
3.1455e-05
3.14538e-05
3.1452e-05
3.14514e-05
3.14503e-05
3.145e-05
3.14494e-05
3.14493e-05
3.14489e-05
3.14489e-05
3.14487e-05
3.14487e-05
3.14485e-05
3.14485e-05
3.14485e-05
3.14485e-05
3.14485e-05
3.14485e-05
3.14486e-05
3.14486e-05
3.14489e-05
3.14489e-05
3.14493e-05
3.14493e-05
3.145e-05
3.14502e-05
3.14513e-05
3.1452e-05
3.14538e-05
3.1455e-05
3.14579e-05
3.14598e-05
3.14639e-05
3.14653e-05
3.14678e-05
3.1461e-05
3.14462e-05
3.14114e-05
3.13451e-05
3.12739e-05
3.10243e-05
3.10946e-05
3.11584e-05
3.11918e-05
3.12055e-05
3.12117e-05
3.12088e-05
3.12071e-05
3.12028e-05
3.12008e-05
3.11977e-05
3.11965e-05
3.11946e-05
3.11939e-05
3.11928e-05
3.11925e-05
3.11918e-05
3.11918e-05
3.11914e-05
3.11913e-05
3.11911e-05
3.11911e-05
3.11909e-05
3.11909e-05
3.11909e-05
3.11909e-05
3.11909e-05
3.11909e-05
3.1191e-05
3.11911e-05
3.11913e-05
3.11913e-05
3.11917e-05
3.11918e-05
3.11925e-05
3.11927e-05
3.11939e-05
3.11945e-05
3.11964e-05
3.11977e-05
3.12007e-05
3.12027e-05
3.1207e-05
3.12088e-05
3.12116e-05
3.12054e-05
3.11917e-05
3.11583e-05
3.10945e-05
3.10242e-05
3.07723e-05
3.08416e-05
3.0903e-05
3.09348e-05
3.09475e-05
3.09531e-05
3.09498e-05
3.09478e-05
3.09433e-05
3.09411e-05
3.0938e-05
3.09366e-05
3.09347e-05
3.0934e-05
3.09328e-05
3.09325e-05
3.09318e-05
3.09317e-05
3.09313e-05
3.09313e-05
3.0931e-05
3.0931e-05
3.09309e-05
3.09309e-05
3.09308e-05
3.09308e-05
3.09308e-05
3.09308e-05
3.0931e-05
3.0931e-05
3.09312e-05
3.09313e-05
3.09317e-05
3.09318e-05
3.09324e-05
3.09328e-05
3.09339e-05
3.09346e-05
3.09366e-05
3.09379e-05
3.0941e-05
3.09432e-05
3.09477e-05
3.09497e-05
3.0953e-05
3.09474e-05
3.09347e-05
3.09029e-05
3.08416e-05
3.07722e-05
3.05176e-05
3.05858e-05
3.06446e-05
3.0675e-05
3.06866e-05
3.06916e-05
3.06879e-05
3.06856e-05
3.06809e-05
3.06785e-05
3.06753e-05
3.06738e-05
3.06718e-05
3.06711e-05
3.06699e-05
3.06695e-05
3.06688e-05
3.06687e-05
3.06683e-05
3.06683e-05
3.0668e-05
3.0668e-05
3.06678e-05
3.06678e-05
3.06678e-05
3.06678e-05
3.06678e-05
3.06678e-05
3.06679e-05
3.06679e-05
3.06682e-05
3.06682e-05
3.06687e-05
3.06688e-05
3.06695e-05
3.06698e-05
3.0671e-05
3.06717e-05
3.06737e-05
3.06752e-05
3.06784e-05
3.06808e-05
3.06855e-05
3.06878e-05
3.06915e-05
3.06865e-05
3.06749e-05
3.06446e-05
3.05858e-05
3.05175e-05
3.02596e-05
3.03268e-05
3.0383e-05
3.04119e-05
3.04224e-05
3.04267e-05
3.04226e-05
3.04199e-05
3.0415e-05
3.04125e-05
3.04091e-05
3.04076e-05
3.04055e-05
3.04047e-05
3.04035e-05
3.04031e-05
3.04024e-05
3.04023e-05
3.04018e-05
3.04018e-05
3.04015e-05
3.04015e-05
3.04013e-05
3.04013e-05
3.04013e-05
3.04013e-05
3.04013e-05
3.04013e-05
3.04015e-05
3.04015e-05
3.04018e-05
3.04018e-05
3.04022e-05
3.04023e-05
3.04031e-05
3.04034e-05
3.04047e-05
3.04054e-05
3.04075e-05
3.0409e-05
3.04124e-05
3.04149e-05
3.04198e-05
3.04225e-05
3.04266e-05
3.04223e-05
3.04118e-05
3.03829e-05
3.03267e-05
3.02595e-05
2.99981e-05
3.0064e-05
3.01176e-05
3.01451e-05
3.01545e-05
3.01581e-05
3.01534e-05
3.01505e-05
3.01453e-05
3.01426e-05
3.01391e-05
3.01375e-05
3.01354e-05
3.01346e-05
3.01333e-05
3.01329e-05
3.01321e-05
3.0132e-05
3.01316e-05
3.01315e-05
3.01312e-05
3.01312e-05
3.0131e-05
3.0131e-05
3.0131e-05
3.0131e-05
3.0131e-05
3.0131e-05
3.01312e-05
3.01312e-05
3.01315e-05
3.01315e-05
3.01319e-05
3.01321e-05
3.01328e-05
3.01332e-05
3.01345e-05
3.01353e-05
3.01374e-05
3.01391e-05
3.01425e-05
3.01452e-05
3.01504e-05
3.01533e-05
3.0158e-05
3.01543e-05
3.0145e-05
3.01176e-05
3.00639e-05
2.9998e-05
2.97326e-05
2.9797e-05
2.98481e-05
2.98741e-05
2.98823e-05
2.98852e-05
2.98801e-05
2.98768e-05
2.98714e-05
2.98685e-05
2.98649e-05
2.98632e-05
2.9861e-05
2.98601e-05
2.98588e-05
2.98584e-05
2.98576e-05
2.98575e-05
2.9857e-05
2.9857e-05
2.98567e-05
2.98566e-05
2.98565e-05
2.98565e-05
2.98564e-05
2.98564e-05
2.98564e-05
2.98564e-05
2.98566e-05
2.98566e-05
2.98569e-05
2.98569e-05
2.98574e-05
2.98575e-05
2.98583e-05
2.98587e-05
2.986e-05
2.98609e-05
2.98631e-05
2.98648e-05
2.98684e-05
2.98713e-05
2.98767e-05
2.988e-05
2.98851e-05
2.98822e-05
2.9874e-05
2.9848e-05
2.9797e-05
2.97325e-05
2.94627e-05
2.95256e-05
2.95741e-05
2.95986e-05
2.96056e-05
2.96078e-05
2.96021e-05
2.95985e-05
2.95928e-05
2.95898e-05
2.95861e-05
2.95843e-05
2.9582e-05
2.95811e-05
2.95797e-05
2.95793e-05
2.95785e-05
2.95783e-05
2.95778e-05
2.95778e-05
2.95775e-05
2.95774e-05
2.95773e-05
2.95773e-05
2.95772e-05
2.95772e-05
2.95772e-05
2.95772e-05
2.95774e-05
2.95774e-05
2.95777e-05
2.95778e-05
2.95782e-05
2.95784e-05
2.95792e-05
2.95796e-05
2.9581e-05
2.95819e-05
2.95842e-05
2.9586e-05
2.95897e-05
2.95927e-05
2.95984e-05
2.9602e-05
2.96077e-05
2.96055e-05
2.95985e-05
2.9574e-05
2.95255e-05
2.94626e-05
2.9188e-05
2.92493e-05
2.92952e-05
2.93183e-05
2.9324e-05
2.93254e-05
2.93192e-05
2.93152e-05
2.93093e-05
2.93061e-05
2.93022e-05
2.93003e-05
2.9298e-05
2.9297e-05
2.92956e-05
2.92951e-05
2.92943e-05
2.92941e-05
2.92936e-05
2.92936e-05
2.92932e-05
2.92932e-05
2.9293e-05
2.9293e-05
2.9293e-05
2.9293e-05
2.9293e-05
2.9293e-05
2.92932e-05
2.92932e-05
2.92935e-05
2.92936e-05
2.9294e-05
2.92942e-05
2.9295e-05
2.92955e-05
2.92969e-05
2.92979e-05
2.93002e-05
2.93021e-05
2.93059e-05
2.93092e-05
2.93151e-05
2.93191e-05
2.93253e-05
2.93238e-05
2.93181e-05
2.9295e-05
2.92492e-05
2.91879e-05
2.89082e-05
2.89678e-05
2.90109e-05
2.90326e-05
2.9037e-05
2.90376e-05
2.90309e-05
2.90265e-05
2.90204e-05
2.90169e-05
2.9013e-05
2.9011e-05
2.90085e-05
2.90075e-05
2.90061e-05
2.90056e-05
2.90047e-05
2.90046e-05
2.9004e-05
2.9004e-05
2.90036e-05
2.90036e-05
2.90034e-05
2.90034e-05
2.90034e-05
2.90033e-05
2.90034e-05
2.90034e-05
2.90036e-05
2.90036e-05
2.90039e-05
2.9004e-05
2.90045e-05
2.90046e-05
2.90055e-05
2.9006e-05
2.90074e-05
2.90084e-05
2.90109e-05
2.90128e-05
2.90168e-05
2.90203e-05
2.90264e-05
2.90308e-05
2.90375e-05
2.90369e-05
2.90325e-05
2.90108e-05
2.89677e-05
2.89082e-05
2.8623e-05
2.86807e-05
2.87211e-05
2.87413e-05
2.87444e-05
2.87442e-05
2.87369e-05
2.87321e-05
2.87257e-05
2.87221e-05
2.8718e-05
2.87159e-05
2.87134e-05
2.87123e-05
2.87108e-05
2.87103e-05
2.87094e-05
2.87093e-05
2.87087e-05
2.87086e-05
2.87083e-05
2.87083e-05
2.87081e-05
2.87081e-05
2.8708e-05
2.8708e-05
2.8708e-05
2.8708e-05
2.87082e-05
2.87082e-05
2.87086e-05
2.87086e-05
2.87092e-05
2.87093e-05
2.87102e-05
2.87107e-05
2.87122e-05
2.87133e-05
2.87158e-05
2.87179e-05
2.8722e-05
2.87256e-05
2.8732e-05
2.87368e-05
2.87441e-05
2.87443e-05
2.87412e-05
2.8721e-05
2.86806e-05
2.86229e-05
2.83319e-05
2.83877e-05
2.84253e-05
2.84441e-05
2.84458e-05
2.84448e-05
2.84368e-05
2.84317e-05
2.8425e-05
2.84212e-05
2.84169e-05
2.84147e-05
2.84122e-05
2.8411e-05
2.84095e-05
2.8409e-05
2.84081e-05
2.84078e-05
2.84073e-05
2.84072e-05
2.84069e-05
2.84068e-05
2.84066e-05
2.84066e-05
2.84066e-05
2.84065e-05
2.84066e-05
2.84066e-05
2.84068e-05
2.84068e-05
2.84071e-05
2.84072e-05
2.84077e-05
2.84079e-05
2.84089e-05
2.84094e-05
2.84109e-05
2.8412e-05
2.84146e-05
2.84168e-05
2.8421e-05
2.84249e-05
2.84316e-05
2.84367e-05
2.84446e-05
2.84456e-05
2.84439e-05
2.84252e-05
2.83876e-05
2.83318e-05
2.80345e-05
2.80885e-05
2.81231e-05
2.81405e-05
2.81408e-05
2.81389e-05
2.81304e-05
2.81248e-05
2.81178e-05
2.81138e-05
2.81094e-05
2.81071e-05
2.81045e-05
2.81033e-05
2.81017e-05
2.81012e-05
2.81002e-05
2.81e-05
2.80994e-05
2.80993e-05
2.8099e-05
2.8099e-05
2.80988e-05
2.80987e-05
2.80987e-05
2.80987e-05
2.80987e-05
2.80987e-05
2.80989e-05
2.80989e-05
2.80993e-05
2.80994e-05
2.80999e-05
2.81001e-05
2.81011e-05
2.81016e-05
2.81032e-05
2.81044e-05
2.8107e-05
2.81093e-05
2.81137e-05
2.81177e-05
2.81247e-05
2.81303e-05
2.81388e-05
2.81407e-05
2.81403e-05
2.8123e-05
2.80883e-05
2.80344e-05
2.77306e-05
2.77827e-05
2.78143e-05
2.78302e-05
2.78291e-05
2.78264e-05
2.78172e-05
2.78112e-05
2.78039e-05
2.77997e-05
2.77951e-05
2.77928e-05
2.779e-05
2.77888e-05
2.77872e-05
2.77866e-05
2.77856e-05
2.77854e-05
2.77848e-05
2.77847e-05
2.77843e-05
2.77843e-05
2.77841e-05
2.77841e-05
2.7784e-05
2.7784e-05
2.77841e-05
2.77841e-05
2.77842e-05
2.77843e-05
2.77846e-05
2.77847e-05
2.77853e-05
2.77855e-05
2.77865e-05
2.7787e-05
2.77887e-05
2.77899e-05
2.77926e-05
2.7795e-05
2.77996e-05
2.78038e-05
2.7811e-05
2.7817e-05
2.78262e-05
2.7829e-05
2.78301e-05
2.78142e-05
2.77826e-05
2.77305e-05
2.74198e-05
2.74699e-05
2.74986e-05
2.75129e-05
2.75104e-05
2.75067e-05
2.74969e-05
2.74905e-05
2.74829e-05
2.74785e-05
2.74738e-05
2.74713e-05
2.74685e-05
2.74672e-05
2.74655e-05
2.74649e-05
2.74639e-05
2.74637e-05
2.74631e-05
2.74629e-05
2.74626e-05
2.74625e-05
2.74623e-05
2.74623e-05
2.74622e-05
2.74622e-05
2.74623e-05
2.74623e-05
2.74625e-05
2.74625e-05
2.74629e-05
2.7463e-05
2.74636e-05
2.74638e-05
2.74648e-05
2.74654e-05
2.7467e-05
2.74683e-05
2.74711e-05
2.74736e-05
2.74783e-05
2.74827e-05
2.74903e-05
2.74967e-05
2.75066e-05
2.75102e-05
2.75128e-05
2.74985e-05
2.74698e-05
2.74197e-05
2.71018e-05
2.71499e-05
2.71755e-05
2.71882e-05
2.71843e-05
2.71797e-05
2.71692e-05
2.71623e-05
2.71544e-05
2.71498e-05
2.71449e-05
2.71423e-05
2.71394e-05
2.71381e-05
2.71364e-05
2.71358e-05
2.71347e-05
2.71345e-05
2.71338e-05
2.71337e-05
2.71334e-05
2.71333e-05
2.71331e-05
2.71331e-05
2.7133e-05
2.7133e-05
2.71331e-05
2.71331e-05
2.71332e-05
2.71333e-05
2.71337e-05
2.71338e-05
2.71344e-05
2.71346e-05
2.71356e-05
2.71363e-05
2.7138e-05
2.71393e-05
2.71422e-05
2.71448e-05
2.71496e-05
2.71543e-05
2.71621e-05
2.7169e-05
2.71795e-05
2.71841e-05
2.71881e-05
2.71754e-05
2.71498e-05
2.71016e-05
2.67761e-05
2.68222e-05
2.68448e-05
2.68558e-05
2.68504e-05
2.68448e-05
2.68336e-05
2.68263e-05
2.68181e-05
2.68133e-05
2.68083e-05
2.68056e-05
2.68026e-05
2.68012e-05
2.67995e-05
2.67988e-05
2.67978e-05
2.67975e-05
2.67968e-05
2.67967e-05
2.67963e-05
2.67963e-05
2.67961e-05
2.6796e-05
2.67959e-05
2.67959e-05
2.6796e-05
2.6796e-05
2.67962e-05
2.67963e-05
2.67966e-05
2.67967e-05
2.67974e-05
2.67976e-05
2.67987e-05
2.67993e-05
2.68011e-05
2.68025e-05
2.68054e-05
2.68081e-05
2.68131e-05
2.6818e-05
2.68261e-05
2.68335e-05
2.68447e-05
2.68502e-05
2.68557e-05
2.68446e-05
2.68221e-05
2.67759e-05
2.64424e-05
2.64866e-05
2.65059e-05
2.65153e-05
2.65083e-05
2.65018e-05
2.64899e-05
2.64821e-05
2.64736e-05
2.64686e-05
2.64634e-05
2.64606e-05
2.64576e-05
2.64561e-05
2.64543e-05
2.64537e-05
2.64526e-05
2.64523e-05
2.64516e-05
2.64515e-05
2.64511e-05
2.6451e-05
2.64508e-05
2.64508e-05
2.64507e-05
2.64507e-05
2.64508e-05
2.64508e-05
2.6451e-05
2.6451e-05
2.64514e-05
2.64515e-05
2.64522e-05
2.64524e-05
2.64535e-05
2.64542e-05
2.6456e-05
2.64574e-05
2.64605e-05
2.64633e-05
2.64684e-05
2.64735e-05
2.64819e-05
2.64898e-05
2.65017e-05
2.65081e-05
2.65151e-05
2.65058e-05
2.64864e-05
2.64423e-05
2.61119e-05
2.61545e-05
2.61706e-05
2.61784e-05
2.61699e-05
2.61625e-05
2.61499e-05
2.61416e-05
2.61328e-05
2.61275e-05
2.61222e-05
2.61193e-05
2.61162e-05
2.61147e-05
2.61129e-05
2.61121e-05
2.61111e-05
2.61107e-05
2.611e-05
2.61099e-05
2.61095e-05
2.61095e-05
2.61092e-05
2.61092e-05
2.61091e-05
2.61091e-05
2.61092e-05
2.61092e-05
2.61094e-05
2.61094e-05
2.61098e-05
2.611e-05
2.61106e-05
2.61109e-05
2.6112e-05
2.61127e-05
2.61145e-05
2.6116e-05
2.61192e-05
2.6122e-05
2.61273e-05
2.61326e-05
2.61414e-05
2.61497e-05
2.61623e-05
2.61697e-05
2.61783e-05
2.61704e-05
2.61543e-05
2.61118e-05
2.57682e-05
2.58094e-05
2.58214e-05
2.58271e-05
2.58163e-05
2.58074e-05
2.57936e-05
2.57846e-05
2.57753e-05
2.57697e-05
2.57641e-05
2.57611e-05
2.57578e-05
2.57563e-05
2.57543e-05
2.57536e-05
2.57525e-05
2.57521e-05
2.57514e-05
2.57513e-05
2.57508e-05
2.57508e-05
2.57505e-05
2.57505e-05
2.57504e-05
2.57504e-05
2.57505e-05
2.57505e-05
2.57507e-05
2.57508e-05
2.57512e-05
2.57513e-05
2.5752e-05
2.57523e-05
2.57534e-05
2.57542e-05
2.57561e-05
2.57577e-05
2.57609e-05
2.5764e-05
2.57695e-05
2.57751e-05
2.57845e-05
2.57935e-05
2.58073e-05
2.58161e-05
2.5827e-05
2.58212e-05
2.58093e-05
2.57681e-05
2.54102e-05
2.54495e-05
2.54579e-05
2.5462e-05
2.54495e-05
2.54396e-05
2.5425e-05
2.54155e-05
2.54059e-05
2.54e-05
2.53943e-05
2.53912e-05
2.53878e-05
2.53862e-05
2.53843e-05
2.53835e-05
2.53823e-05
2.5382e-05
2.53812e-05
2.53811e-05
2.53807e-05
2.53806e-05
2.53804e-05
2.53803e-05
2.53802e-05
2.53802e-05
2.53803e-05
2.53803e-05
2.53805e-05
2.53806e-05
2.5381e-05
2.53811e-05
2.53818e-05
2.53822e-05
2.53833e-05
2.53841e-05
2.53861e-05
2.53877e-05
2.5391e-05
2.53942e-05
2.53998e-05
2.54057e-05
2.54154e-05
2.54249e-05
2.54394e-05
2.54493e-05
2.54618e-05
2.54578e-05
2.54493e-05
2.54101e-05
2.50433e-05
2.50805e-05
2.50855e-05
2.50877e-05
2.50736e-05
2.50627e-05
2.50473e-05
2.50373e-05
2.50273e-05
2.50212e-05
2.50154e-05
2.50121e-05
2.50087e-05
2.5007e-05
2.5005e-05
2.50042e-05
2.5003e-05
2.50027e-05
2.50019e-05
2.50018e-05
2.50013e-05
2.50013e-05
2.5001e-05
2.5001e-05
2.50009e-05
2.50009e-05
2.5001e-05
2.5001e-05
2.50012e-05
2.50012e-05
2.50017e-05
2.50018e-05
2.50025e-05
2.50029e-05
2.50041e-05
2.50049e-05
2.50069e-05
2.50085e-05
2.50119e-05
2.50152e-05
2.5021e-05
2.50271e-05
2.50371e-05
2.50471e-05
2.50625e-05
2.50734e-05
2.50875e-05
2.50853e-05
2.50803e-05
2.50432e-05
2.46671e-05
2.4702e-05
2.47036e-05
2.47039e-05
2.46881e-05
2.46762e-05
2.466e-05
2.46495e-05
2.46391e-05
2.46328e-05
2.46269e-05
2.46235e-05
2.462e-05
2.46183e-05
2.46162e-05
2.46154e-05
2.46142e-05
2.46138e-05
2.46131e-05
2.46129e-05
2.46125e-05
2.46124e-05
2.46121e-05
2.46121e-05
2.4612e-05
2.4612e-05
2.46121e-05
2.46121e-05
2.46123e-05
2.46124e-05
2.46128e-05
2.4613e-05
2.46137e-05
2.4614e-05
2.46153e-05
2.46161e-05
2.46181e-05
2.46198e-05
2.46233e-05
2.46267e-05
2.46326e-05
2.46389e-05
2.46493e-05
2.46598e-05
2.4676e-05
2.4688e-05
2.47038e-05
2.47034e-05
2.47019e-05
2.46669e-05
2.42939e-05
2.43269e-05
2.43251e-05
2.43237e-05
2.43062e-05
2.42932e-05
2.42762e-05
2.42651e-05
2.42544e-05
2.42479e-05
2.42418e-05
2.42383e-05
2.42348e-05
2.4233e-05
2.42309e-05
2.42301e-05
2.42289e-05
2.42285e-05
2.42277e-05
2.42275e-05
2.4227e-05
2.4227e-05
2.42267e-05
2.42267e-05
2.42266e-05
2.42266e-05
2.42267e-05
2.42267e-05
2.42269e-05
2.4227e-05
2.42274e-05
2.42276e-05
2.42283e-05
2.42287e-05
2.42299e-05
2.42308e-05
2.42329e-05
2.42346e-05
2.42382e-05
2.42416e-05
2.42477e-05
2.42542e-05
2.42649e-05
2.4276e-05
2.4293e-05
2.4306e-05
2.43235e-05
2.43249e-05
2.43268e-05
2.42937e-05
2.39119e-05
2.39431e-05
2.39378e-05
2.39346e-05
2.39154e-05
2.39014e-05
2.38835e-05
2.3872e-05
2.38609e-05
2.38542e-05
2.38477e-05
2.3844e-05
2.38403e-05
2.38384e-05
2.38362e-05
2.38353e-05
2.3834e-05
2.38336e-05
2.38327e-05
2.38325e-05
2.38321e-05
2.3832e-05
2.38317e-05
2.38317e-05
2.38316e-05
2.38316e-05
2.38317e-05
2.38317e-05
2.38319e-05
2.3832e-05
2.38325e-05
2.38326e-05
2.38334e-05
2.38338e-05
2.38351e-05
2.3836e-05
2.38382e-05
2.38401e-05
2.38439e-05
2.38475e-05
2.3854e-05
2.38607e-05
2.38718e-05
2.38833e-05
2.39012e-05
2.39152e-05
2.39344e-05
2.39376e-05
2.3943e-05
2.39118e-05
2.35101e-05
2.35394e-05
2.35304e-05
2.35249e-05
2.35036e-05
2.34883e-05
2.34692e-05
2.3457e-05
2.34455e-05
2.34384e-05
2.34318e-05
2.34279e-05
2.3424e-05
2.34221e-05
2.34198e-05
2.34189e-05
2.34176e-05
2.34171e-05
2.34163e-05
2.34161e-05
2.34156e-05
2.34155e-05
2.34152e-05
2.34152e-05
2.34151e-05
2.34151e-05
2.34152e-05
2.34152e-05
2.34154e-05
2.34155e-05
2.3416e-05
2.34162e-05
2.3417e-05
2.34174e-05
2.34187e-05
2.34196e-05
2.34219e-05
2.34239e-05
2.34278e-05
2.34316e-05
2.34382e-05
2.34453e-05
2.34568e-05
2.3469e-05
2.34881e-05
2.35034e-05
2.35248e-05
2.35303e-05
2.35393e-05
2.351e-05
2.30963e-05
2.31231e-05
2.31107e-05
2.31032e-05
2.30801e-05
2.30638e-05
2.30438e-05
2.30311e-05
2.30192e-05
2.3012e-05
2.30052e-05
2.30012e-05
2.29973e-05
2.29953e-05
2.2993e-05
2.2992e-05
2.29907e-05
2.29902e-05
2.29893e-05
2.29891e-05
2.29886e-05
2.29886e-05
2.29883e-05
2.29882e-05
2.29881e-05
2.29881e-05
2.29882e-05
2.29882e-05
2.29885e-05
2.29886e-05
2.29891e-05
2.29892e-05
2.29901e-05
2.29905e-05
2.29919e-05
2.29928e-05
2.29951e-05
2.29971e-05
2.30011e-05
2.3005e-05
2.30118e-05
2.3019e-05
2.30309e-05
2.30437e-05
2.30637e-05
2.30799e-05
2.3103e-05
2.31105e-05
2.3123e-05
2.30962e-05
2.26859e-05
2.27106e-05
2.26946e-05
2.26853e-05
2.26604e-05
2.26432e-05
2.26222e-05
2.2609e-05
2.25968e-05
2.25893e-05
2.25824e-05
2.25784e-05
2.25744e-05
2.25723e-05
2.257e-05
2.2569e-05
2.25676e-05
2.25672e-05
2.25662e-05
2.2566e-05
2.25655e-05
2.25655e-05
2.25652e-05
2.25651e-05
2.2565e-05
2.2565e-05
2.25651e-05
2.25651e-05
2.25654e-05
2.25655e-05
2.2566e-05
2.25662e-05
2.2567e-05
2.25674e-05
2.25688e-05
2.25698e-05
2.25722e-05
2.25742e-05
2.25782e-05
2.25823e-05
2.25891e-05
2.25966e-05
2.26089e-05
2.26221e-05
2.2643e-05
2.26603e-05
2.26851e-05
2.26945e-05
2.27105e-05
2.26858e-05
2.22656e-05
2.22886e-05
2.22692e-05
2.22577e-05
2.22294e-05
2.22105e-05
2.21875e-05
2.21734e-05
2.21604e-05
2.21525e-05
2.21452e-05
2.2141e-05
2.21368e-05
2.21347e-05
2.21322e-05
2.21312e-05
2.21298e-05
2.21293e-05
2.21284e-05
2.21282e-05
2.21277e-05
2.21276e-05
2.21273e-05
2.21272e-05
2.21271e-05
2.21271e-05
2.21272e-05
2.21272e-05
2.21275e-05
2.21276e-05
2.21281e-05
2.21283e-05
2.21292e-05
2.21296e-05
2.21311e-05
2.21321e-05
2.21345e-05
2.21367e-05
2.21409e-05
2.21451e-05
2.21523e-05
2.21602e-05
2.21733e-05
2.21874e-05
2.22104e-05
2.22292e-05
2.22576e-05
2.22691e-05
2.22886e-05
2.22656e-05
2.18365e-05
2.18573e-05
2.18343e-05
2.18208e-05
2.17908e-05
2.17709e-05
2.17469e-05
2.17323e-05
2.17189e-05
2.17108e-05
2.17034e-05
2.16991e-05
2.16948e-05
2.16926e-05
2.16901e-05
2.16891e-05
2.16876e-05
2.16872e-05
2.16862e-05
2.1686e-05
2.16855e-05
2.16854e-05
2.16851e-05
2.1685e-05
2.16849e-05
2.16849e-05
2.1685e-05
2.1685e-05
2.16853e-05
2.16854e-05
2.1686e-05
2.16861e-05
2.1687e-05
2.16875e-05
2.1689e-05
2.169e-05
2.16925e-05
2.16947e-05
2.1699e-05
2.17033e-05
2.17107e-05
2.17188e-05
2.17322e-05
2.17468e-05
2.17709e-05
2.17907e-05
2.18208e-05
2.18342e-05
2.18573e-05
2.18365e-05
2.1398e-05
2.14166e-05
2.13901e-05
2.13746e-05
2.1343e-05
2.13221e-05
2.12969e-05
2.12819e-05
2.12681e-05
2.12598e-05
2.12523e-05
2.12478e-05
2.12435e-05
2.12413e-05
2.12387e-05
2.12377e-05
2.12362e-05
2.12357e-05
2.12347e-05
2.12345e-05
2.1234e-05
2.12339e-05
2.12336e-05
2.12335e-05
2.12334e-05
2.12334e-05
2.12335e-05
2.12336e-05
2.12339e-05
2.12339e-05
2.12345e-05
2.12347e-05
2.12356e-05
2.12361e-05
2.12376e-05
2.12386e-05
2.12412e-05
2.12434e-05
2.12477e-05
2.12522e-05
2.12597e-05
2.1268e-05
2.12818e-05
2.12968e-05
2.13221e-05
2.13429e-05
2.13746e-05
2.13901e-05
2.14166e-05
2.13981e-05
2.07742e-05
2.0774e-05
2.07734e-05
2.07733e-05
2.0773e-05
2.0773e-05
2.07728e-05
2.07728e-05
2.07729e-05
2.0773e-05
2.07733e-05
2.07734e-05
2.0774e-05
2.07742e-05
2.07751e-05
2.07755e-05
2.07771e-05
2.07782e-05
2.07807e-05
2.0783e-05
2.07874e-05
2.07919e-05
2.07996e-05
2.08081e-05
2.08223e-05
2.08378e-05
2.08642e-05
2.08861e-05
2.09191e-05
2.09368e-05
2.09668e-05
2.09506e-05
2.02932e-05
2.02933e-05
2.02939e-05
2.02941e-05
2.0295e-05
2.02955e-05
2.02971e-05
2.02982e-05
2.03009e-05
2.03032e-05
2.03078e-05
2.03124e-05
2.03203e-05
2.03292e-05
2.03441e-05
2.03603e-05
2.03885e-05
2.0412e-05
2.0447e-05
2.04675e-05
2.05013e-05
2.04867e-05
1.98417e-05
1.98508e-05
1.98661e-05
1.98828e-05
1.99121e-05
1.99367e-05
1.9973e-05
1.99956e-05
2.0033e-05
2.00207e-05
)
;

boundaryField
{
    fuel
    {
        type            fixedValue;
        value           nonuniform 0();
    }
    wall
    {
        type            zeroGradient;
    }
    outlet
    {
        type            zeroGradient;
    }
    frontAndBack
    {
        type            empty;
    }
    procBoundary0to1
    {
        type            processor;
        value           nonuniform List<scalar> 
50
(
3.35207e-05
3.3603e-05
3.36906e-05
3.37387e-05
3.37613e-05
3.37724e-05
3.37724e-05
3.3773e-05
3.37701e-05
3.37694e-05
3.37672e-05
3.37667e-05
3.37652e-05
3.3765e-05
3.37641e-05
3.37641e-05
3.37635e-05
3.37636e-05
3.37632e-05
3.37633e-05
3.37631e-05
3.37631e-05
3.3763e-05
3.3763e-05
3.3763e-05
3.3763e-05
3.3763e-05
3.3763e-05
3.37631e-05
3.37631e-05
3.37633e-05
3.37632e-05
3.37635e-05
3.37635e-05
3.3764e-05
3.37641e-05
3.37649e-05
3.37652e-05
3.37666e-05
3.37671e-05
3.37693e-05
3.377e-05
3.3773e-05
3.37723e-05
3.37723e-05
3.37612e-05
3.37387e-05
3.36906e-05
3.3603e-05
3.35207e-05
)
;
    }
    procBoundary0to2
    {
        type            processor;
        value           nonuniform List<scalar> 
53
(
2.09505e-05
2.09667e-05
2.09368e-05
2.09191e-05
2.08861e-05
2.08641e-05
2.08378e-05
2.08224e-05
2.08081e-05
2.07996e-05
2.0792e-05
2.07874e-05
2.0783e-05
2.07807e-05
2.07782e-05
2.07771e-05
2.07756e-05
2.07751e-05
2.07751e-05
2.02941e-05
2.02939e-05
2.02933e-05
2.02932e-05
2.02929e-05
2.02928e-05
2.02927e-05
2.02927e-05
2.02928e-05
2.02929e-05
2.02929e-05
1.98141e-05
1.98142e-05
1.98148e-05
1.9815e-05
1.9816e-05
1.98165e-05
1.98181e-05
1.98192e-05
1.98219e-05
1.98243e-05
1.98289e-05
1.98337e-05
1.98337e-05
1.93544e-05
1.93636e-05
1.93794e-05
1.93966e-05
1.94269e-05
1.94525e-05
1.94902e-05
1.95149e-05
1.95559e-05
1.95458e-05
)
;
    }
}


// ************************************************************************* //
