/*--------------------------------*- C++ -*----------------------------------*\
| =========                 |                                                 |
| \\      /  F ield         | OpenFOAM: The Open Source CFD Toolbox           |
|  \\    /   O peration     | Version:  dev                                   |
|   \\  /    A nd           | Web:      www.OpenFOAM.org                      |
|    \\/     M anipulation  |                                                 |
\*---------------------------------------------------------------------------*/
FoamFile
{
    version     2.0;
    format      ascii;
    class       volScalarField;
    location    "0.04";
    object      P2-H;
}
// * * * * * * * * * * * * * * * * * * * * * * * * * * * * * * * * * * * * * //

dimensions      [0 0 0 0 0 0 0];

internalField   nonuniform List<scalar> 
250
(
6.87178e-17
6.87e-17
6.8603e-17
6.88428e-17
6.9181e-17
7.07776e-17
7.84022e-17
1.04009e-16
2.71783e-16
4.90908e-16
6.64676e-17
6.64301e-17
6.63769e-17
6.6565e-17
6.68769e-17
6.83556e-17
7.52869e-17
9.86453e-17
2.35527e-16
4.53808e-16
9.96968e-16
2.53814e-16
1.02606e-16
7.38973e-17
6.75849e-17
6.5548e-17
6.53964e-17
6.51136e-17
6.52107e-17
6.51993e-17
6.52991e-17
6.52406e-17
6.52338e-17
6.53601e-17
6.56603e-17
6.70403e-17
7.33398e-17
9.48902e-17
2.06697e-16
4.23621e-16
1.03023e-15
2.43972e-16
1.00018e-16
7.3064e-17
6.71275e-17
6.54275e-17
6.51269e-17
6.50286e-17
6.49813e-17
6.50678e-17
6.51273e-17
6.50478e-17
6.50894e-17
6.5153e-17
6.54522e-17
6.67489e-17
7.24762e-17
9.25836e-17
1.87672e-16
4.00232e-16
1.04946e-15
2.35907e-16
9.85809e-17
7.32261e-17
6.76085e-17
6.62191e-17
6.57624e-17
6.58383e-17
6.56436e-17
6.58232e-17
6.58468e-17
6.57491e-17
6.58383e-17
6.58459e-17
6.61525e-17
6.73831e-17
7.25989e-17
9.15352e-17
1.75309e-16
3.82683e-16
1.04622e-15
2.28458e-16
9.80692e-17
7.42426e-17
6.89035e-17
6.77789e-17
6.71696e-17
6.73904e-17
6.7061e-17
6.7315e-17
6.73083e-17
6.71984e-17
6.73294e-17
6.72967e-17
6.76163e-17
6.8802e-17
7.35721e-17
9.1507e-17
1.66707e-16
3.69496e-16
1.01704e-15
2.20956e-16
9.81948e-17
7.59043e-17
7.08162e-17
6.98844e-17
6.91451e-17
6.94494e-17
6.90252e-17
6.93182e-17
6.92905e-17
6.91793e-17
6.9339e-17
6.92917e-17
6.96271e-17
7.07942e-17
7.51905e-17
9.21873e-17
1.60812e-16
3.58851e-16
9.61728e-16
2.12764e-16
9.85641e-17
7.7937e-17
7.32293e-17
7.2414e-17
7.16167e-17
7.18733e-17
7.14522e-17
7.17229e-17
7.16903e-17
7.15944e-17
7.17615e-17
7.17413e-17
7.20966e-17
7.32628e-17
7.71771e-17
9.31639e-17
1.56512e-16
3.48683e-16
8.83088e-16
2.03284e-16
9.86909e-17
7.99873e-17
7.55142e-17
7.44836e-17
7.38506e-17
7.39546e-17
7.36097e-17
7.38e-17
7.37736e-17
7.37113e-17
7.38705e-17
7.39117e-17
7.42895e-17
7.54705e-17
7.92466e-17
9.39308e-17
1.52737e-16
3.36873e-16
7.8006e-16
1.9196e-16
9.80509e-17
8.11386e-17
7.69553e-17
7.57969e-17
7.52171e-17
7.51143e-17
7.48641e-17
7.49191e-17
7.49054e-17
7.48977e-17
7.50355e-17
7.51722e-17
7.55733e-17
7.67645e-17
8.0463e-17
9.38759e-17
1.48466e-16
3.21518e-16
6.68248e-16
1.78621e-16
9.60604e-17
8.11117e-17
7.72594e-17
7.5888e-17
7.54331e-17
7.50579e-17
7.49419e-17
7.48132e-17
7.48197e-17
7.48817e-17
7.4988e-17
7.52453e-17
7.56708e-17
7.6858e-17
8.05368e-17
9.24951e-17
1.42816e-16
3.01304e-16
5.5845e-16
1.63176e-16
9.25332e-17
7.95454e-17
7.60625e-17
7.44341e-17
7.41596e-17
7.34662e-17
7.35226e-17
7.31837e-17
7.32157e-17
7.33539e-17
7.34221e-17
7.38096e-17
7.42546e-17
7.54196e-17
7.90904e-17
8.9439e-17
1.35183e-16
2.75859e-16
4.53037e-16
1.46137e-16
8.73495e-17
7.63126e-17
7.323e-17
7.13565e-17
7.12838e-17
7.02736e-17
7.05133e-17
6.99676e-17
7.00272e-17
7.02375e-17
7.02659e-17
7.07743e-17
7.12291e-17
7.23523e-17
7.59771e-17
8.46406e-17
1.25393e-16
2.45945e-16
6.54593e-17
6.5728e-17
6.57218e-17
6.63248e-17
6.67779e-17
6.78415e-17
7.13431e-17
7.83553e-17
1.13781e-16
2.13441e-16
)
;

boundaryField
{
    fuel
    {
        type            fixedValue;
        value           nonuniform 0();
    }
    wall
    {
        type            zeroGradient;
    }
    outlet
    {
        type            zeroGradient;
    }
    frontAndBack
    {
        type            empty;
    }
    procBoundary0to1
    {
        type            processor;
        value           nonuniform List<scalar> 
21
(
3.57604e-16
1.28254e-16
8.07823e-17
7.15851e-17
6.89093e-17
6.68608e-17
6.69683e-17
6.56984e-17
6.60955e-17
6.53771e-17
6.53771e-17
5.99391e-17
6.02458e-17
6.02173e-17
6.08763e-17
6.13192e-17
6.23067e-17
6.55968e-17
7.10916e-17
1.01032e-16
1.8038e-16
)
;
    }
    procBoundary0to2
    {
        type            processor;
        value           nonuniform List<scalar> 
12
(
6.85515e-17
9.46586e-16
2.65104e-16
1.06456e-16
7.5822e-17
6.9067e-17
6.66902e-17
6.66715e-17
6.62064e-17
6.64309e-17
6.63314e-17
6.63314e-17
)
;
    }
    procBoundary0to3
    {
        type            processor;
        value           nonuniform List<scalar> 10(7.21562e-17 7.21556e-17 7.20181e-17 7.22671e-17 7.26502e-17 7.43762e-17 8.31501e-17 1.11226e-16 3.23176e-16 5.35079e-16);
    }
}


// ************************************************************************* //
