/*--------------------------------*- C++ -*----------------------------------*\
| =========                 |                                                 |
| \\      /  F ield         | OpenFOAM: The Open Source CFD Toolbox           |
|  \\    /   O peration     | Version:  dev                                   |
|   \\  /    A nd           | Web:      www.OpenFOAM.org                      |
|    \\/     M anipulation  |                                                 |
\*---------------------------------------------------------------------------*/
FoamFile
{
    version     2.0;
    format      ascii;
    class       volScalarField;
    location    "0.145";
    object      A2R5;
}
// * * * * * * * * * * * * * * * * * * * * * * * * * * * * * * * * * * * * * //

dimensions      [0 0 0 0 0 0 0];

internalField   nonuniform List<scalar> 
250
(
1.17766e-07
8.59841e-08
6.72469e-08
6.11643e-08
5.93699e-08
5.88747e-08
5.87827e-08
5.87756e-08
5.87043e-08
5.87371e-08
1.12282e-07
8.35501e-08
6.68074e-08
6.138e-08
5.97806e-08
5.93367e-08
5.92482e-08
5.92452e-08
5.91777e-08
5.92113e-08
5.92062e-08
5.91877e-08
5.92319e-08
5.92342e-08
5.93117e-08
5.96635e-08
6.11004e-08
6.58407e-08
7.88794e-08
9.7981e-08
1.06737e-07
8.11504e-08
6.63605e-08
6.15741e-08
6.01567e-08
5.97617e-08
5.96781e-08
5.96762e-08
5.96144e-08
5.96462e-08
5.964e-08
5.96233e-08
5.96626e-08
5.96679e-08
5.97423e-08
6.00618e-08
6.13339e-08
6.54099e-08
7.64398e-08
9.28499e-08
1.01219e-07
7.8789e-08
6.58942e-08
6.1725e-08
6.04781e-08
6.01298e-08
6.00521e-08
6.00493e-08
5.99946e-08
6.00227e-08
6.00158e-08
6.00011e-08
6.00356e-08
6.00437e-08
6.01143e-08
6.04048e-08
6.15204e-08
6.50123e-08
7.43108e-08
8.83655e-08
9.58265e-08
7.64863e-08
6.54078e-08
6.18243e-08
6.07406e-08
6.04323e-08
6.0361e-08
6.03565e-08
6.03091e-08
6.03328e-08
6.03253e-08
6.03128e-08
6.03424e-08
6.0353e-08
6.0419e-08
6.06855e-08
6.16555e-08
6.46297e-08
7.2426e-08
8.4437e-08
9.06624e-08
7.42728e-08
6.49085e-08
6.18698e-08
6.09357e-08
6.06685e-08
6.06039e-08
6.05973e-08
6.05571e-08
6.05762e-08
6.05683e-08
6.05577e-08
6.05829e-08
6.05955e-08
6.06563e-08
6.08942e-08
6.1734e-08
6.42537e-08
7.07713e-08
8.09885e-08
8.5821e-08
7.21824e-08
6.44079e-08
6.18678e-08
6.10723e-08
6.08431e-08
6.0785e-08
6.07765e-08
6.07429e-08
6.07577e-08
6.07495e-08
6.07406e-08
6.07618e-08
6.07756e-08
6.08309e-08
6.10408e-08
6.17617e-08
6.38831e-08
6.93036e-08
7.79579e-08
8.13837e-08
7.02485e-08
6.3919e-08
6.18268e-08
6.11583e-08
6.09636e-08
6.09118e-08
6.09018e-08
6.0874e-08
6.08848e-08
6.08764e-08
6.0869e-08
6.08867e-08
6.09011e-08
6.09507e-08
6.11337e-08
6.17475e-08
6.35187e-08
6.80013e-08
7.52954e-08
7.74168e-08
6.85017e-08
6.34557e-08
6.17575e-08
6.12032e-08
6.10393e-08
6.09935e-08
6.09823e-08
6.09595e-08
6.0967e-08
6.09584e-08
6.09522e-08
6.09669e-08
6.09813e-08
6.10253e-08
6.11829e-08
6.16999e-08
6.31679e-08
6.68508e-08
7.29656e-08
7.3975e-08
6.69708e-08
6.30326e-08
6.16718e-08
6.1218e-08
6.1081e-08
6.10405e-08
6.10287e-08
6.10097e-08
6.10148e-08
6.10061e-08
6.10007e-08
6.10129e-08
6.10268e-08
6.10655e-08
6.12003e-08
6.16307e-08
6.28392e-08
6.58481e-08
7.095e-08
7.11128e-08
6.56866e-08
6.26661e-08
6.15832e-08
6.12143e-08
6.10998e-08
6.10639e-08
6.10519e-08
6.10359e-08
6.10392e-08
6.10304e-08
6.10257e-08
6.10359e-08
6.1049e-08
6.10829e-08
6.11974e-08
6.15552e-08
6.25445e-08
6.50005e-08
6.9254e-08
6.89067e-08
6.46901e-08
6.23752e-08
6.15052e-08
6.12031e-08
6.11062e-08
6.1074e-08
6.1062e-08
6.10481e-08
6.10501e-08
6.10413e-08
6.1037e-08
6.10458e-08
6.1058e-08
6.1088e-08
6.1186e-08
6.14863e-08
6.23032e-08
6.43324e-08
6.79187e-08
6.7519e-08
6.40604e-08
6.21894e-08
6.14529e-08
6.11934e-08
6.11077e-08
6.10779e-08
6.1066e-08
6.10533e-08
6.10547e-08
6.10459e-08
6.10418e-08
6.10497e-08
6.10612e-08
6.10886e-08
6.11757e-08
6.14385e-08
6.2145e-08
6.39027e-08
6.70594e-08
)
;

boundaryField
{
    fuel
    {
        type            fixedValue;
        value           nonuniform 0();
    }
    wall
    {
        type            zeroGradient;
    }
    outlet
    {
        type            zeroGradient;
    }
    frontAndBack
    {
        type            empty;
    }
    procBoundary1to0
    {
        type            processor;
        value           nonuniform List<scalar> 
21
(
1.23154e-07
8.84777e-08
6.77067e-08
6.09623e-08
5.89573e-08
5.84084e-08
5.83145e-08
5.82991e-08
5.82273e-08
5.82554e-08
5.87334e-08
5.87334e-08
5.87136e-08
5.87623e-08
5.87622e-08
5.88417e-08
5.92252e-08
6.08457e-08
6.63341e-08
8.16927e-08
1.03849e-07
)
;
    }
}


// ************************************************************************* //
