/*--------------------------------*- C++ -*----------------------------------*\
| =========                 |                                                 |
| \\      /  F ield         | OpenFOAM: The Open Source CFD Toolbox           |
|  \\    /   O peration     | Version:  dev                                   |
|   \\  /    A nd           | Web:      www.OpenFOAM.org                      |
|    \\/     M anipulation  |                                                 |
\*---------------------------------------------------------------------------*/
FoamFile
{
    version     2.0;
    format      ascii;
    class       volScalarField;
    location    "0.145";
    object      C2O;
}
// * * * * * * * * * * * * * * * * * * * * * * * * * * * * * * * * * * * * * //

dimensions      [0 0 0 0 0 0 0];

internalField   nonuniform List<scalar> 
250
(
2.5117e-08
2.46649e-08
1.98215e-08
1.99749e-08
1.85733e-08
1.81401e-08
1.82557e-08
1.76693e-08
1.81179e-08
1.75977e-08
1.89516e-08
1.82853e-08
1.45969e-08
1.46631e-08
1.36521e-08
1.33422e-08
1.34259e-08
1.30041e-08
1.3334e-08
1.2953e-08
1.30575e-08
1.31702e-08
1.30721e-08
1.32268e-08
1.32408e-08
1.34141e-08
1.39685e-08
1.47833e-08
1.54001e-08
1.62154e-08
1.41048e-08
1.33993e-08
1.06811e-08
1.06983e-08
9.98831e-09
9.76915e-09
9.82872e-09
9.53178e-09
9.76948e-09
9.4959e-09
9.57093e-09
9.6504e-09
9.58074e-09
9.69074e-09
9.69979e-09
9.83064e-09
1.02279e-08
1.08484e-08
1.14448e-08
1.23834e-08
1.0374e-08
9.73176e-09
7.77754e-09
7.77507e-09
7.28576e-09
7.12897e-09
7.17084e-09
6.96391e-09
7.13391e-09
6.93899e-09
6.99256e-09
7.04829e-09
6.99918e-09
7.07643e-09
7.08224e-09
7.18409e-09
7.46192e-09
7.9158e-09
8.42823e-09
9.30133e-09
7.52552e-09
6.99545e-09
5.6152e-09
5.59376e-09
5.24924e-09
5.16302e-09
5.19248e-09
5.04842e-09
5.17027e-09
5.03117e-09
5.06953e-09
5.10879e-09
5.07403e-09
5.1281e-09
5.13165e-09
5.1814e-09
5.37837e-09
5.72492e-09
6.11882e-09
6.85983e-09
5.35303e-09
4.94633e-09
3.99014e-09
3.97431e-09
3.74021e-09
3.68206e-09
3.70257e-09
3.60312e-09
3.68992e-09
3.59134e-09
3.61862e-09
3.64617e-09
3.62166e-09
3.65909e-09
3.66114e-09
3.69727e-09
3.83136e-09
4.07485e-09
4.36828e-09
4.94387e-09
3.71764e-09
3.42159e-09
2.78082e-09
2.76972e-09
2.61539e-09
2.57777e-09
2.59137e-09
2.52531e-09
2.58478e-09
2.51757e-09
2.53618e-09
2.55486e-09
2.53819e-09
2.56312e-09
2.56423e-09
2.58953e-09
2.67749e-09
2.84294e-09
3.05027e-09
3.47189e-09
2.54152e-09
2.33255e-09
1.92469e-09
1.91468e-09
1.81848e-09
1.79568e-09
1.80386e-09
1.7631e-09
1.80082e-09
1.75831e-09
1.77002e-09
1.78185e-09
1.77132e-09
1.78678e-09
1.78741e-09
1.8042e-09
1.8589e-09
1.96625e-09
2.10687e-09
2.39916e-09
1.76285e-09
1.61613e-09
1.37051e-09
1.35908e-09
1.30298e-09
1.28998e-09
1.29429e-09
1.27136e-09
1.29302e-09
1.26856e-09
1.27519e-09
1.28208e-09
1.27605e-09
1.28484e-09
1.28533e-09
1.29588e-09
1.32827e-09
1.39516e-09
1.48912e-09
1.68353e-09
1.30118e-09
1.19609e-09
1.05332e-09
1.03998e-09
1.00904e-09
1.00168e-09
1.00365e-09
9.9178e-10
1.00304e-09
9.90149e-10
9.93507e-10
9.97265e-10
9.94179e-10
9.98762e-10
9.99315e-10
1.00575e-09
1.02473e-09
1.06587e-09
1.13042e-09
1.25869e-09
1.06334e-09
9.85564e-10
9.01828e-10
8.87437e-10
8.70608e-10
8.65912e-10
8.66785e-10
8.60704e-10
8.66313e-10
8.59653e-10
8.61243e-10
8.63326e-10
8.61878e-10
8.64184e-10
8.64879e-10
8.68866e-10
8.80832e-10
9.0691e-10
9.54277e-10
1.0421e-09
9.62567e-10
9.02421e-10
8.48253e-10
8.3396e-10
8.23797e-10
8.19891e-10
8.20566e-10
8.16595e-10
8.20046e-10
8.15749e-10
8.16673e-10
8.1814e-10
8.17365e-10
8.18721e-10
8.19555e-10
8.22321e-10
8.31288e-10
8.49638e-10
8.87589e-10
9.53446e-10
9.25305e-10
8.75274e-10
8.34223e-10
8.2045e-10
8.13032e-10
8.09196e-10
8.09993e-10
8.06499e-10
8.09418e-10
8.05704e-10
8.06457e-10
8.07807e-10
8.07221e-10
8.08271e-10
8.09188e-10
8.11443e-10
8.19264e-10
8.34134e-10
8.67228e-10
9.22632e-10
)
;

boundaryField
{
    fuel
    {
        type            fixedValue;
        value           nonuniform 0();
    }
    wall
    {
        type            zeroGradient;
    }
    outlet
    {
        type            zeroGradient;
    }
    frontAndBack
    {
        type            empty;
    }
    procBoundary1to0
    {
        type            processor;
        value           nonuniform List<scalar> 
21
(
3.26993e-08
3.27348e-08
2.66285e-08
2.69222e-08
2.50355e-08
2.44494e-08
2.46004e-08
2.38128e-08
2.44029e-08
2.37149e-08
1.77403e-08
1.77403e-08
1.78983e-08
1.7762e-08
1.79748e-08
1.79952e-08
1.82234e-08
1.89737e-08
1.99988e-08
2.04878e-08
2.08426e-08
)
;
    }
}


// ************************************************************************* //
