/*--------------------------------*- C++ -*----------------------------------*\
| =========                 |                                                 |
| \\      /  F ield         | OpenFOAM: The Open Source CFD Toolbox           |
|  \\    /   O peration     | Version:  dev                                   |
|   \\  /    A nd           | Web:      www.OpenFOAM.org                      |
|    \\/     M anipulation  |                                                 |
\*---------------------------------------------------------------------------*/
FoamFile
{
    version     2.0;
    format      ascii;
    class       volScalarField;
    location    "0.145";
    object      CH3O;
}
// * * * * * * * * * * * * * * * * * * * * * * * * * * * * * * * * * * * * * //

dimensions      [0 0 0 0 0 0 0];

internalField   nonuniform List<scalar> 
250
(
2.66491e-11
2.74852e-11
3.28488e-11
2.96345e-11
2.97765e-11
2.87919e-11
2.89742e-11
2.84255e-11
2.86648e-11
2.84419e-11
1.88295e-11
1.85885e-11
2.19432e-11
1.9577e-11
1.96674e-11
1.89709e-11
1.91053e-11
1.87175e-11
1.88908e-11
1.87326e-11
1.84669e-11
1.94185e-11
1.85144e-11
1.96305e-11
1.91397e-11
1.99718e-11
2.1387e-11
2.05248e-11
2.53567e-11
2.23817e-11
1.27605e-11
1.21308e-11
1.41401e-11
1.2511e-11
1.25671e-11
1.20925e-11
1.21868e-11
1.19256e-11
1.2045e-11
1.19379e-11
1.17569e-11
1.24135e-11
1.17878e-11
1.25461e-11
1.22069e-11
1.27581e-11
1.36934e-11
1.31278e-11
1.64473e-11
1.45933e-11
8.30763e-12
7.66142e-12
8.80957e-12
7.75866e-12
7.79369e-12
7.47706e-12
7.54014e-12
7.37228e-12
7.45061e-12
7.38142e-12
7.26305e-12
7.70436e-12
7.28207e-12
7.78373e-12
7.56188e-12
7.91011e-12
8.49438e-12
8.13431e-12
1.02961e-11
9.20037e-12
5.2142e-12
4.67532e-12
5.32602e-12
4.64715e-12
4.6616e-12
4.50467e-12
4.54512e-12
4.44206e-12
4.49109e-12
4.44831e-12
4.37381e-12
4.61383e-12
4.38451e-12
4.6608e-12
4.53309e-12
4.73878e-12
5.09483e-12
4.90359e-12
6.24179e-12
5.6379e-12
3.17657e-12
2.80391e-12
3.1469e-12
2.74911e-12
2.7566e-12
2.66429e-12
2.68908e-12
2.62848e-12
2.65783e-12
2.63239e-12
2.58732e-12
2.73219e-12
2.5932e-12
2.75838e-12
2.68476e-12
2.80332e-12
3.00448e-12
2.89768e-12
3.68611e-12
3.33278e-12
1.89656e-12
1.66112e-12
1.83509e-12
1.61161e-12
1.61509e-12
1.56242e-12
1.57703e-12
1.54263e-12
1.55956e-12
1.54484e-12
1.51847e-12
1.60327e-12
1.52168e-12
1.61735e-12
1.57447e-12
1.64231e-12
1.75169e-12
1.69525e-12
2.13997e-12
1.96244e-12
1.11856e-12
9.77702e-13
1.06394e-12
9.41435e-13
9.4293e-13
9.13337e-13
9.21773e-13
9.0261e-13
9.12194e-13
9.03723e-13
8.88589e-13
9.37397e-13
8.90371e-13
9.44742e-13
9.19921e-13
9.58177e-13
1.01641e-12
9.87817e-13
1.23123e-12
1.14661e-12
6.47876e-13
5.66039e-13
6.08769e-13
5.42322e-13
5.43082e-13
5.26544e-13
5.3139e-13
5.20805e-13
5.26183e-13
5.21296e-13
5.12726e-13
5.40535e-13
5.13718e-13
5.44245e-13
5.30061e-13
5.51256e-13
5.81987e-13
5.67697e-13
6.98622e-13
6.5962e-13
3.62e-13
3.16839e-13
3.37896e-13
3.02935e-13
3.03423e-13
2.94455e-13
2.97159e-13
2.91482e-13
2.94411e-13
2.91657e-13
2.86974e-13
3.02301e-13
2.87513e-13
3.04072e-13
2.96272e-13
3.07555e-13
3.23324e-13
3.16299e-13
3.84313e-13
3.67273e-13
1.91398e-13
1.66791e-13
1.76584e-13
1.58531e-13
1.58802e-13
1.54055e-13
1.55528e-13
1.52564e-13
1.54111e-13
1.52602e-13
1.50091e-13
1.58362e-13
1.50364e-13
1.59136e-13
1.54947e-13
1.60781e-13
1.68717e-13
1.65541e-13
2.00508e-13
1.95894e-13
8.41587e-14
7.19569e-14
7.54062e-14
6.7648e-14
6.77279e-14
6.56783e-14
6.63224e-14
6.50589e-14
6.57222e-14
6.50464e-14
6.39385e-14
6.76051e-14
6.40532e-14
6.78736e-14
6.60184e-14
6.85193e-14
7.18208e-14
7.0863e-14
8.72387e-14
9.53091e-14
3.99586e-14
3.07838e-14
3.06511e-14
2.79726e-14
2.78458e-14
2.71636e-14
2.73611e-14
2.69218e-14
2.71515e-14
2.68943e-14
2.64683e-14
2.78623e-14
2.65161e-14
2.7958e-14
2.72285e-14
2.82221e-14
2.93046e-14
2.98105e-14
4.33042e-14
1.01945e-13
)
;

boundaryField
{
    fuel
    {
        type            fixedValue;
        value           nonuniform 0();
    }
    wall
    {
        type            zeroGradient;
    }
    outlet
    {
        type            zeroGradient;
    }
    frontAndBack
    {
        type            empty;
    }
    procBoundary1to0
    {
        type            processor;
        value           nonuniform List<scalar> 
21
(
3.62336e-11
3.91194e-11
4.74333e-11
4.33031e-11
4.35517e-11
4.22009e-11
4.24407e-11
4.16984e-11
4.2014e-11
4.17129e-11
2.80699e-11
2.80699e-11
2.93965e-11
2.81414e-11
2.97179e-11
2.90417e-11
3.02367e-11
3.22832e-11
3.09987e-11
3.76571e-11
3.31073e-11
)
;
    }
}


// ************************************************************************* //
