/*--------------------------------*- C++ -*----------------------------------*\
| =========                 |                                                 |
| \\      /  F ield         | OpenFOAM: The Open Source CFD Toolbox           |
|  \\    /   O peration     | Version:  dev                                   |
|   \\  /    A nd           | Web:      www.OpenFOAM.org                      |
|    \\/     M anipulation  |                                                 |
\*---------------------------------------------------------------------------*/
FoamFile
{
    version     2.0;
    format      ascii;
    class       volScalarField;
    location    "0.145";
    object      H2C4O;
}
// * * * * * * * * * * * * * * * * * * * * * * * * * * * * * * * * * * * * * //

dimensions      [0 0 0 0 0 0 0];

internalField   nonuniform List<scalar> 
250
(
8.96241e-07
7.91254e-07
7.4891e-07
7.11044e-07
7.01941e-07
6.96291e-07
6.96375e-07
6.94549e-07
6.95098e-07
6.94441e-07
8.29541e-07
7.36661e-07
7.02212e-07
6.67953e-07
6.60243e-07
6.54674e-07
6.54871e-07
6.52907e-07
6.53559e-07
6.52817e-07
6.51293e-07
6.56069e-07
6.516e-07
6.57338e-07
6.55248e-07
6.61999e-07
6.76351e-07
6.96812e-07
7.80517e-07
8.58036e-07
7.60993e-07
6.78809e-07
6.51221e-07
6.20104e-07
6.1369e-07
6.08126e-07
6.08457e-07
6.06362e-07
6.07116e-07
6.06293e-07
6.04691e-07
6.09909e-07
6.04985e-07
6.11068e-07
6.08744e-07
6.1515e-07
6.28361e-07
6.44745e-07
7.19108e-07
7.84085e-07
6.89523e-07
6.16845e-07
5.95092e-07
5.66845e-07
5.6165e-07
5.56023e-07
5.56501e-07
5.54307e-07
5.55152e-07
5.54261e-07
5.52586e-07
5.58279e-07
5.52854e-07
5.59323e-07
5.56854e-07
5.62863e-07
5.7494e-07
5.87654e-07
6.53765e-07
7.07714e-07
6.14654e-07
5.50019e-07
5.33759e-07
5.0748e-07
5.03269e-07
4.9871e-07
4.99324e-07
4.97112e-07
4.98012e-07
4.97091e-07
4.95386e-07
5.00361e-07
4.95606e-07
5.01307e-07
4.9898e-07
5.0443e-07
5.15543e-07
5.25684e-07
5.84091e-07
6.28669e-07
5.3761e-07
4.81578e-07
4.69063e-07
4.46003e-07
4.42776e-07
4.38507e-07
4.39195e-07
4.3711e-07
4.37993e-07
4.37105e-07
4.35481e-07
4.40342e-07
4.3565e-07
4.41117e-07
4.3893e-07
4.43689e-07
4.53336e-07
4.60949e-07
5.11365e-07
5.46161e-07
4.62328e-07
4.15483e-07
4.05558e-07
3.86448e-07
3.84022e-07
3.80349e-07
3.81004e-07
3.79231e-07
3.79999e-07
3.79228e-07
3.77835e-07
3.82072e-07
3.77954e-07
3.82639e-07
3.80731e-07
3.84615e-07
3.9249e-07
3.98257e-07
4.39719e-07
4.68072e-07
3.95564e-07
3.58604e-07
3.502e-07
3.35672e-07
3.33819e-07
3.31007e-07
3.3151e-07
3.30201e-07
3.30769e-07
3.30179e-07
3.29148e-07
3.32316e-07
3.29228e-07
3.32676e-07
3.3126e-07
3.34079e-07
3.39951e-07
3.44541e-07
3.76162e-07
3.99376e-07
3.44465e-07
3.17149e-07
3.09562e-07
2.99534e-07
2.9802e-07
2.96134e-07
2.96417e-07
2.95597e-07
2.95939e-07
2.9554e-07
2.94897e-07
2.96882e-07
2.94958e-07
2.97082e-07
2.96234e-07
2.98042e-07
3.02e-07
3.05913e-07
3.28043e-07
3.47123e-07
3.12085e-07
2.92676e-07
2.85708e-07
2.792e-07
2.77862e-07
2.76713e-07
2.76799e-07
2.76347e-07
2.76517e-07
2.76255e-07
2.75903e-07
2.7699e-07
2.75965e-07
2.77105e-07
2.7669e-07
2.77796e-07
2.80298e-07
2.83774e-07
2.98434e-07
3.14094e-07
2.95257e-07
2.81299e-07
2.75049e-07
2.70757e-07
2.69531e-07
2.68829e-07
2.68793e-07
2.68543e-07
2.68622e-07
2.68422e-07
2.68228e-07
2.6884e-07
2.68301e-07
2.6893e-07
2.68733e-07
2.69493e-07
2.71096e-07
2.74191e-07
2.84009e-07
2.96799e-07
2.8776e-07
2.77084e-07
2.71608e-07
2.68489e-07
2.67363e-07
2.66875e-07
2.66786e-07
2.66615e-07
2.66665e-07
2.66475e-07
2.66339e-07
2.66791e-07
2.66426e-07
2.66881e-07
2.66747e-07
2.67393e-07
2.68522e-07
2.71268e-07
2.78355e-07
2.88882e-07
2.84429e-07
2.75495e-07
2.70602e-07
2.68048e-07
2.67005e-07
2.66607e-07
2.665e-07
2.66356e-07
2.66402e-07
2.66205e-07
2.66091e-07
2.66497e-07
2.66186e-07
2.66591e-07
2.66469e-07
2.6708e-07
2.67975e-07
2.70476e-07
2.76141e-07
2.85221e-07
)
;

boundaryField
{
    fuel
    {
        type            fixedValue;
        value           nonuniform 0();
    }
    wall
    {
        type            zeroGradient;
    }
    outlet
    {
        type            zeroGradient;
    }
    frontAndBack
    {
        type            empty;
    }
    procBoundary1to0
    {
        type            processor;
        value           nonuniform List<scalar> 
21
(
9.62704e-07
8.43489e-07
7.92427e-07
7.50239e-07
7.397e-07
7.33856e-07
7.33862e-07
7.32165e-07
7.32615e-07
7.32039e-07
6.92987e-07
6.92987e-07
6.97385e-07
6.93308e-07
6.98763e-07
6.96896e-07
7.04033e-07
7.19684e-07
7.44555e-07
8.38967e-07
9.30207e-07
)
;
    }
}


// ************************************************************************* //
