/*--------------------------------*- C++ -*----------------------------------*\
| =========                 |                                                 |
| \\      /  F ield         | OpenFOAM: The Open Source CFD Toolbox           |
|  \\    /   O peration     | Version:  dev                                   |
|   \\  /    A nd           | Web:      www.OpenFOAM.org                      |
|    \\/     M anipulation  |                                                 |
\*---------------------------------------------------------------------------*/
FoamFile
{
    version     2.0;
    format      ascii;
    class       volScalarField;
    location    "0.145";
    object      HCO;
}
// * * * * * * * * * * * * * * * * * * * * * * * * * * * * * * * * * * * * * //

dimensions      [0 0 0 0 0 0 0];

internalField   nonuniform List<scalar> 
250
(
1.77829e-08
1.88738e-08
2.0655e-08
2.00221e-08
2.0113e-08
1.98739e-08
1.99232e-08
1.97801e-08
1.98436e-08
1.97852e-08
1.5916e-08
1.65689e-08
1.79686e-08
1.7391e-08
1.74653e-08
1.72589e-08
1.73029e-08
1.71784e-08
1.7235e-08
1.71841e-08
1.70994e-08
1.7401e-08
1.71151e-08
1.74709e-08
1.73145e-08
1.75669e-08
1.79597e-08
1.75397e-08
1.84893e-08
1.68691e-08
1.41989e-08
1.45719e-08
1.56728e-08
1.51673e-08
1.52281e-08
1.50498e-08
1.50884e-08
1.49812e-08
1.50311e-08
1.49872e-08
1.49136e-08
1.51784e-08
1.49269e-08
1.52355e-08
1.5097e-08
1.53115e-08
1.56427e-08
1.52885e-08
1.6117e-08
1.47761e-08
1.26845e-08
1.2894e-08
1.37617e-08
1.33359e-08
1.33866e-08
1.32277e-08
1.3261e-08
1.31693e-08
1.32128e-08
1.31752e-08
1.31114e-08
1.33494e-08
1.31229e-08
1.33961e-08
1.32737e-08
1.34559e-08
1.37301e-08
1.34268e-08
1.41342e-08
1.30206e-08
1.14042e-08
1.15048e-08
1.22133e-08
1.18297e-08
1.1867e-08
1.17612e-08
1.179e-08
1.17113e-08
1.17495e-08
1.17171e-08
1.16612e-08
1.18406e-08
1.16708e-08
1.18807e-08
1.17834e-08
1.19337e-08
1.21677e-08
1.19264e-08
1.2526e-08
1.16014e-08
1.037e-08
1.04193e-08
1.09957e-08
1.06683e-08
1.06987e-08
1.06093e-08
1.06347e-08
1.0566e-08
1.06e-08
1.05717e-08
1.05216e-08
1.06805e-08
1.05299e-08
1.07151e-08
1.06334e-08
1.07618e-08
1.09561e-08
1.07499e-08
1.12636e-08
1.04508e-08
9.56968e-09
9.58082e-09
1.00615e-08
9.77231e-09
9.79758e-09
9.71814e-09
9.74182e-09
9.67974e-09
9.71107e-09
9.68533e-09
9.63859e-09
9.78581e-09
9.64594e-09
9.81642e-09
9.74126e-09
9.85875e-09
1.00253e-08
9.84523e-09
1.03048e-08
9.60782e-09
8.96314e-09
8.92778e-09
9.3438e-09
9.07037e-09
9.09293e-09
9.01659e-09
9.04067e-09
8.98149e-09
9.012e-09
8.98727e-09
8.94106e-09
9.08616e-09
8.94775e-09
9.11387e-09
9.03899e-09
9.1527e-09
9.30442e-09
9.14166e-09
9.58615e-09
8.98124e-09
8.49104e-09
8.39869e-09
8.77534e-09
8.50132e-09
8.52387e-09
8.44611e-09
8.47222e-09
8.41351e-09
8.44446e-09
8.41974e-09
8.3722e-09
8.52151e-09
8.37825e-09
8.5467e-09
8.46865e-09
8.58204e-09
8.72767e-09
8.57468e-09
9.03398e-09
8.49954e-09
8.24451e-09
8.12802e-09
8.477e-09
8.21261e-09
8.23503e-09
8.1586e-09
8.18575e-09
8.12868e-09
8.15951e-09
8.13521e-09
8.08712e-09
8.23797e-09
8.09257e-09
8.2607e-09
8.18048e-09
8.29239e-09
8.4282e-09
8.28409e-09
8.73953e-09
8.25492e-09
8.68788e-09
8.52572e-09
8.85411e-09
8.5667e-09
8.58389e-09
8.49979e-09
8.53042e-09
8.46842e-09
8.50253e-09
8.4751e-09
8.41856e-09
8.59442e-09
8.42373e-09
8.61627e-09
8.52074e-09
8.64914e-09
8.78934e-09
8.65765e-09
9.16646e-09
8.7307e-09
1.05867e-08
1.03531e-08
1.06514e-08
1.03255e-08
1.03215e-08
1.02286e-08
1.02612e-08
1.01901e-08
1.02299e-08
1.01953e-08
1.01218e-08
1.03477e-08
1.01279e-08
1.0372e-08
1.02433e-08
1.04149e-08
1.05607e-08
1.04618e-08
1.10937e-08
1.07428e-08
2.53743e-08
2.48267e-08
2.51431e-08
2.44603e-08
2.43259e-08
2.4138e-08
2.41954e-08
2.40321e-08
2.41211e-08
2.40368e-08
2.38213e-08
2.44562e-08
2.38331e-08
2.45148e-08
2.41265e-08
2.46402e-08
2.49134e-08
2.49032e-08
2.64768e-08
2.63585e-08
)
;

boundaryField
{
    fuel
    {
        type            fixedValue;
        value           nonuniform 0();
    }
    wall
    {
        type            zeroGradient;
    }
    outlet
    {
        type            zeroGradient;
    }
    frontAndBack
    {
        type            empty;
    }
    procBoundary1to0
    {
        type            processor;
        value           nonuniform List<scalar> 
21
(
1.97383e-08
2.14493e-08
2.37297e-08
2.30575e-08
2.31754e-08
2.2898e-08
2.29529e-08
2.27903e-08
2.28607e-08
2.27942e-08
1.96882e-08
1.96882e-08
2.00313e-08
1.97071e-08
2.01161e-08
1.99403e-08
2.02342e-08
2.06964e-08
2.01921e-08
2.1251e-08
1.92946e-08
)
;
    }
}


// ************************************************************************* //
