/*--------------------------------*- C++ -*----------------------------------*\
| =========                 |                                                 |
| \\      /  F ield         | OpenFOAM: The Open Source CFD Toolbox           |
|  \\    /   O peration     | Version:  dev                                   |
|   \\  /    A nd           | Web:      www.OpenFOAM.org                      |
|    \\/     M anipulation  |                                                 |
\*---------------------------------------------------------------------------*/
FoamFile
{
    version     2.0;
    format      ascii;
    class       volScalarField;
    location    "0.145";
    object      i-C6H7;
}
// * * * * * * * * * * * * * * * * * * * * * * * * * * * * * * * * * * * * * //

dimensions      [0 0 0 0 0 0 0];

internalField   nonuniform List<scalar> 
250
(
8.23219e-15
7.08174e-15
7.0615e-15
6.70034e-15
6.95403e-15
7.06639e-15
6.99628e-15
7.2514e-15
7.00055e-15
7.27513e-15
1.2377e-14
1.10886e-14
1.37735e-14
1.27752e-14
1.40779e-14
1.45696e-14
1.43161e-14
1.52784e-14
1.43622e-14
1.53696e-14
1.50599e-14
1.48002e-14
1.50492e-14
1.47221e-14
1.4731e-14
1.44285e-14
1.37206e-14
1.30131e-14
1.29988e-14
1.23815e-14
2.78813e-14
2.61449e-14
3.50316e-14
3.25567e-14
3.61791e-14
3.75087e-14
3.68205e-14
3.93626e-14
3.69113e-14
3.95913e-14
3.87681e-14
3.8088e-14
3.87445e-14
3.78933e-14
3.79212e-14
3.70868e-14
3.51378e-14
3.29502e-14
3.21653e-14
2.92521e-14
6.93921e-14
6.74683e-14
8.83278e-14
8.32468e-14
9.09645e-14
9.376e-14
9.22514e-14
9.75785e-14
9.23089e-14
9.8018e-14
9.62566e-14
9.48438e-14
9.62236e-14
9.44862e-14
9.45653e-14
9.27513e-14
8.86586e-14
8.36634e-14
8.08124e-14
7.24792e-14
1.59224e-13
1.59261e-13
1.97215e-13
1.89964e-13
2.0346e-13
2.0629e-13
2.03666e-13
2.12377e-13
2.03426e-13
2.12997e-13
2.10021e-13
2.07734e-13
2.10007e-13
2.07287e-13
2.07468e-13
2.06344e-13
1.99262e-13
1.88922e-13
1.82682e-13
1.63798e-13
3.15172e-13
3.22301e-13
3.73527e-13
3.65226e-13
3.80903e-13
3.84421e-13
3.81009e-13
3.91269e-13
3.80025e-13
3.91778e-13
3.88071e-13
3.85426e-13
3.88143e-13
3.85217e-13
3.85526e-13
3.83599e-13
3.75643e-13
3.6251e-13
3.50906e-13
3.19566e-13
5.20325e-13
5.40742e-13
5.83956e-13
5.79932e-13
5.89409e-13
5.91073e-13
5.88225e-13
5.94721e-13
5.86199e-13
5.94563e-13
5.91808e-13
5.90249e-13
5.92049e-13
5.90811e-13
5.91202e-13
5.89847e-13
5.85499e-13
5.74835e-13
5.59528e-13
5.21195e-13
6.93036e-13
7.27547e-13
7.30388e-13
7.36518e-13
7.29902e-13
7.27288e-13
7.26783e-13
7.23492e-13
7.24115e-13
7.22232e-13
7.22547e-13
7.23691e-13
7.22974e-13
7.25324e-13
7.25651e-13
7.26455e-13
7.30527e-13
7.29972e-13
7.16376e-13
6.86878e-13
7.12022e-13
7.50851e-13
7.01405e-13
7.17634e-13
6.9447e-13
6.88065e-13
6.90297e-13
6.77144e-13
6.88073e-13
6.75081e-13
6.78798e-13
6.82624e-13
6.79287e-13
6.84866e-13
6.84982e-13
6.88222e-13
7.00212e-13
7.12023e-13
7.05168e-13
6.98928e-13
5.39062e-13
5.68094e-13
4.99763e-13
5.17333e-13
4.91239e-13
4.8476e-13
4.87865e-13
4.72977e-13
4.86793e-13
4.71084e-13
4.75721e-13
4.79959e-13
4.76095e-13
4.81828e-13
4.81774e-13
4.85617e-13
4.9831e-13
5.14294e-13
5.13347e-13
5.24992e-13
2.96737e-13
3.10231e-13
2.6257e-13
2.73386e-13
2.56651e-13
2.52696e-13
2.54854e-13
2.45219e-13
2.54625e-13
2.441e-13
2.47263e-13
2.49975e-13
2.4748e-13
2.5099e-13
2.50943e-13
2.53536e-13
2.61427e-13
2.72612e-13
2.73994e-13
2.87377e-13
1.41776e-13
1.45868e-13
1.26364e-13
1.30096e-13
1.2352e-13
1.21529e-13
1.22657e-13
1.18337e-13
1.22584e-13
1.17838e-13
1.19323e-13
1.20482e-13
1.1947e-13
1.20902e-13
1.20999e-13
1.22038e-13
1.25557e-13
1.30028e-13
1.31225e-13
1.37052e-13
1.40536e-13
1.40446e-13
1.25836e-13
1.26697e-13
1.22369e-13
1.1956e-13
1.21259e-13
1.16726e-13
1.21113e-13
1.16262e-13
1.1791e-13
1.18936e-13
1.18182e-13
1.19287e-13
1.19708e-13
1.20344e-13
1.24189e-13
1.27097e-13
1.30086e-13
1.34441e-13
)
;

boundaryField
{
    fuel
    {
        type            fixedValue;
        value           nonuniform 0();
    }
    wall
    {
        type            zeroGradient;
    }
    outlet
    {
        type            zeroGradient;
    }
    frontAndBack
    {
        type            empty;
    }
    procBoundary1to0
    {
        type            processor;
        value           nonuniform List<scalar> 
21
(
8.38741e-15
7.0883e-15
5.90933e-15
5.75363e-15
5.58309e-15
5.54331e-15
5.53916e-15
5.522e-15
5.51786e-15
5.51747e-15
7.18886e-15
7.18886e-15
7.11921e-15
7.18684e-15
7.10038e-15
7.10488e-15
7.03464e-15
6.89416e-15
6.82818e-15
7.0583e-15
7.24965e-15
)
;
    }
}


// ************************************************************************* //
