/*--------------------------------*- C++ -*----------------------------------*\
| =========                 |                                                 |
| \\      /  F ield         | OpenFOAM: The Open Source CFD Toolbox           |
|  \\    /   O peration     | Version:  dev                                   |
|   \\  /    A nd           | Web:      www.OpenFOAM.org                      |
|    \\/     M anipulation  |                                                 |
\*---------------------------------------------------------------------------*/
FoamFile
{
    version     2.0;
    format      ascii;
    class       volScalarField;
    location    "0.145";
    object      P2-;
}
// * * * * * * * * * * * * * * * * * * * * * * * * * * * * * * * * * * * * * //

dimensions      [0 0 0 0 0 0 0];

internalField   nonuniform List<scalar> 
250
(
3.93964e-12
2.12185e-12
1.79924e-12
1.56253e-12
1.52748e-12
1.49173e-12
1.49496e-12
1.48082e-12
1.48605e-12
1.48106e-12
2.73533e-12
1.59247e-12
1.40715e-12
1.22412e-12
1.20119e-12
1.17026e-12
1.17384e-12
1.16074e-12
1.16591e-12
1.16115e-12
1.15189e-12
1.18307e-12
1.15331e-12
1.19003e-12
1.17561e-12
1.20955e-12
1.28587e-12
1.37081e-12
2.12138e-12
3.90061e-12
1.85774e-12
1.15491e-12
1.05571e-12
9.19479e-13
9.05343e-13
8.79832e-13
8.83333e-13
8.72084e-13
8.76746e-13
8.72572e-13
8.64628e-13
8.92067e-13
8.65758e-13
8.97465e-13
8.84539e-13
9.11547e-13
9.70181e-13
1.01964e-12
1.54934e-12
2.69531e-12
1.22977e-12
8.07664e-13
7.58748e-13
6.61796e-13
6.53745e-13
6.33397e-13
6.36516e-13
6.27491e-13
6.31383e-13
6.27986e-13
6.21552e-13
6.44574e-13
6.22381e-13
6.48512e-13
6.37895e-13
6.58173e-13
7.00829e-13
7.26667e-13
1.08318e-12
1.78055e-12
7.89353e-13
5.40127e-13
5.20929e-13
4.52347e-13
4.47786e-13
4.3546e-13
4.38048e-13
4.31246e-13
4.34282e-13
4.31692e-13
4.26755e-13
4.41933e-13
4.27287e-13
4.44743e-13
4.37201e-13
4.51385e-13
4.81489e-13
4.94903e-13
7.23453e-13
1.12406e-12
4.87334e-13
3.45468e-13
3.39586e-13
2.94736e-13
2.92565e-13
2.8398e-13
2.85986e-13
2.81164e-13
2.83383e-13
2.81529e-13
2.77947e-13
2.89053e-13
2.78267e-13
2.9088e-13
2.85594e-13
2.95085e-13
3.14769e-13
3.20096e-13
4.59179e-13
6.65962e-13
2.8514e-13
2.07476e-13
2.07347e-13
1.79582e-13
1.78741e-13
1.73106e-13
1.74559e-13
1.71359e-13
1.72873e-13
1.71632e-13
1.6919e-13
1.76812e-13
1.69366e-13
1.77907e-13
1.74263e-13
1.80374e-13
1.92518e-13
1.93854e-13
2.73635e-13
3.74181e-13
1.53781e-13
1.13675e-13
1.15371e-13
9.94109e-14
9.92276e-14
9.58084e-14
9.67742e-14
9.48233e-14
9.57696e-14
9.50071e-14
9.34748e-14
9.82866e-14
9.35593e-14
9.88725e-14
9.65337e-14
1.00169e-13
1.07115e-13
1.06852e-13
1.49256e-13
1.92547e-13
7.27083e-14
5.40166e-14
5.56728e-14
4.75469e-14
4.76132e-14
4.57902e-14
4.63492e-14
4.53107e-14
4.58251e-14
4.54174e-14
4.45782e-14
4.72274e-14
4.46102e-14
4.74914e-14
4.61846e-14
4.80679e-14
5.15803e-14
5.09865e-14
7.10253e-14
8.65621e-14
2.80513e-14
2.0824e-14
2.1771e-14
1.84102e-14
1.85006e-14
1.77191e-14
1.79758e-14
1.75334e-14
1.7756e-14
1.75823e-14
1.7215e-14
1.83785e-14
1.72229e-14
1.84697e-14
1.78907e-14
1.86702e-14
2.01104e-14
1.97175e-14
2.7495e-14
3.18051e-14
7.99933e-15
5.89119e-15
6.22824e-15
5.20257e-15
5.24567e-15
5.00085e-15
5.0856e-15
4.9485e-15
5.0181e-15
4.96427e-15
4.84705e-15
5.21877e-15
4.84786e-15
5.24022e-15
5.05463e-15
5.29012e-15
5.72471e-15
5.57906e-15
7.8369e-15
8.71225e-15
1.42263e-15
1.04557e-15
1.111e-15
9.24995e-16
9.3526e-16
8.90124e-16
9.06269e-16
8.81399e-16
8.94092e-16
8.84289e-16
8.62749e-16
9.31149e-16
8.62744e-16
9.34033e-16
9.00149e-16
9.41534e-16
1.01925e-15
9.91327e-16
1.38774e-15
1.5113e-15
2.81502e-16
2.16357e-16
2.2583e-16
1.93218e-16
1.94484e-16
1.86472e-16
1.8932e-16
1.84824e-16
1.87101e-16
1.85342e-16
1.81211e-16
1.94084e-16
1.81237e-16
1.94599e-16
1.88194e-16
1.96058e-16
2.0982e-16
2.05703e-16
2.75687e-16
2.99982e-16
)
;

boundaryField
{
    fuel
    {
        type            fixedValue;
        value           nonuniform 0();
    }
    wall
    {
        type            zeroGradient;
    }
    outlet
    {
        type            zeroGradient;
    }
    frontAndBack
    {
        type            empty;
    }
    procBoundary1to0
    {
        type            processor;
        value           nonuniform List<scalar> 
21
(
5.58052e-12
2.73699e-12
2.21196e-12
1.9132e-12
1.86327e-12
1.82349e-12
1.82604e-12
1.81191e-12
1.81667e-12
1.81188e-12
1.47101e-12
1.47101e-12
1.50415e-12
1.47273e-12
1.5125e-12
1.49781e-12
1.53809e-12
1.6331e-12
1.76711e-12
2.78251e-12
5.39084e-12
)
;
    }
}


// ************************************************************************* //
