/*--------------------------------*- C++ -*----------------------------------*\
| =========                 |                                                 |
| \\      /  F ield         | OpenFOAM: The Open Source CFD Toolbox           |
|  \\    /   O peration     | Version:  dev                                   |
|   \\  /    A nd           | Web:      www.OpenFOAM.org                      |
|    \\/     M anipulation  |                                                 |
\*---------------------------------------------------------------------------*/
FoamFile
{
    version     2.0;
    format      ascii;
    class       volScalarField;
    location    "0.025";
    object      A2R5-;
}
// * * * * * * * * * * * * * * * * * * * * * * * * * * * * * * * * * * * * * //

dimensions      [0 0 0 0 0 0 0];

internalField   nonuniform List<scalar> 
250
(
3.20432e-09
3.23185e-09
3.21355e-09
3.28554e-09
3.2986e-09
3.45324e-09
3.74445e-09
4.49018e-09
6.7082e-09
7.9681e-09
2.89055e-09
2.91841e-09
2.90265e-09
2.97334e-09
2.98904e-09
3.13855e-09
3.4113e-09
4.11185e-09
6.20805e-09
7.95048e-09
7.93376e-09
5.78528e-09
3.78913e-09
3.10852e-09
2.86318e-09
2.70342e-09
2.69245e-09
2.61582e-09
2.63311e-09
2.60129e-09
2.60237e-09
2.63061e-09
2.61725e-09
2.68672e-09
2.70558e-09
2.8506e-09
3.10881e-09
3.75731e-09
5.73769e-09
7.73619e-09
7.5271e-09
5.29912e-09
3.45122e-09
2.82895e-09
2.59579e-09
2.44168e-09
2.4266e-09
2.35155e-09
2.36647e-09
2.33451e-09
2.33546e-09
2.36408e-09
2.35283e-09
2.42117e-09
2.44352e-09
2.58418e-09
2.82875e-09
3.42293e-09
5.26259e-09
7.3562e-09
6.99155e-09
4.81356e-09
3.13032e-09
2.56678e-09
2.34562e-09
2.19715e-09
2.17789e-09
2.1043e-09
2.11727e-09
2.08519e-09
2.08601e-09
2.11498e-09
2.10543e-09
2.1727e-09
2.19869e-09
2.33489e-09
2.56638e-09
3.10523e-09
4.78519e-09
6.84607e-09
6.36389e-09
4.33125e-09
2.82327e-09
2.31791e-09
2.10881e-09
1.96629e-09
1.94294e-09
1.8708e-09
1.88233e-09
1.8502e-09
1.8509e-09
1.88012e-09
1.8718e-09
1.93791e-09
1.96754e-09
2.09884e-09
2.31749e-09
2.80107e-09
4.30939e-09
6.24207e-09
5.67904e-09
3.85572e-09
2.52744e-09
2.07896e-09
1.88215e-09
1.74664e-09
1.71921e-09
1.64871e-09
1.65932e-09
1.62722e-09
1.62784e-09
1.6572e-09
1.64958e-09
1.71428e-09
1.7476e-09
1.87288e-09
2.07861e-09
2.50784e-09
3.8393e-09
5.57862e-09
4.96849e-09
3.39117e-09
2.24098e-09
1.84742e-09
1.66337e-09
1.52346e-09
1.50525e-09
1.43678e-09
1.44719e-09
1.41506e-09
1.41558e-09
1.44515e-09
1.43753e-09
1.50046e-09
1.52464e-09
1.65476e-09
1.84721e-09
2.22376e-09
3.37928e-09
4.88676e-09
4.2588e-09
2.94235e-09
1.96317e-09
1.62202e-09
1.45184e-09
1.32003e-09
1.30114e-09
1.23511e-09
1.23253e-09
1.20484e-09
1.2056e-09
1.23068e-09
1.23575e-09
1.2968e-09
1.32105e-09
1.44387e-09
1.62201e-09
1.94816e-09
2.93398e-09
4.19285e-09
3.56946e-09
2.51416e-09
1.69469e-09
1.40297e-09
1.24791e-09
1.1253e-09
1.10129e-09
1.03624e-09
1.04076e-09
1.01419e-09
1.01487e-09
1.03904e-09
1.03698e-09
1.09747e-09
1.1262e-09
1.2406e-09
1.40318e-09
1.68179e-09
2.50834e-09
3.51894e-09
2.92218e-09
2.11164e-09
1.43782e-09
1.19207e-09
1.05333e-09
9.41386e-10
9.1857e-10
8.5811e-10
8.61746e-10
8.3703e-10
8.37646e-10
8.60184e-10
8.5877e-10
9.15317e-10
9.42204e-10
1.04672e-09
1.1925e-09
1.42689e-09
2.10764e-09
2.88718e-09
2.34437e-09
1.74007e-09
1.19615e-09
9.92498e-10
8.7098e-10
7.71091e-10
7.49722e-10
6.95208e-10
6.98089e-10
6.75787e-10
6.76333e-10
6.96703e-10
6.9579e-10
7.46793e-10
7.71815e-10
8.65134e-10
9.93094e-10
1.18702e-09
1.73735e-09
2.31903e-09
1.84232e-09
1.40452e-09
9.73988e-10
8.08191e-10
7.04283e-10
6.17453e-10
5.97921e-10
5.50238e-10
5.52386e-10
5.32884e-10
5.33356e-10
5.51191e-10
5.50737e-10
5.95314e-10
6.18078e-10
6.99242e-10
8.08894e-10
9.66457e-10
1.40275e-09
1.82385e-09
4.10496e-10
4.25613e-10
4.25584e-10
4.63388e-10
4.83515e-10
5.52138e-10
6.43683e-10
7.6925e-10
1.10815e-09
1.40408e-09
)
;

boundaryField
{
    fuel
    {
        type            fixedValue;
        value           nonuniform 0();
    }
    wall
    {
        type            zeroGradient;
    }
    outlet
    {
        type            zeroGradient;
    }
    frontAndBack
    {
        type            empty;
    }
    procBoundary0to1
    {
        type            processor;
        value           nonuniform List<scalar> 
21
(
1.41709e-09
1.10919e-09
7.75402e-10
6.42932e-10
5.56363e-10
4.82985e-10
4.65615e-10
4.25168e-10
4.26612e-10
4.10102e-10
4.10102e-10
3.08319e-10
3.20724e-10
3.21045e-10
3.5218e-10
3.69438e-10
4.25774e-10
5.00125e-10
5.98172e-10
8.55967e-10
1.05808e-09
)
;
    }
    procBoundary0to2
    {
        type            processor;
        value           nonuniform List<scalar> 
12
(
3.2028e-09
8.18094e-09
6.27125e-09
4.14747e-09
3.40982e-09
3.15201e-09
2.98637e-09
2.97928e-09
2.90087e-09
2.92087e-09
2.88915e-09
2.88915e-09
)
;
    }
    procBoundary0to3
    {
        type            processor;
        value           nonuniform List<scalar> 10(3.54804e-09 3.57532e-09 3.55444e-09 3.62775e-09 3.63893e-09 3.79798e-09 4.10522e-09 4.89549e-09 7.16158e-09 7.7728e-09);
    }
}


// ************************************************************************* //
