/*--------------------------------*- C++ -*----------------------------------*\
| =========                 |                                                 |
| \\      /  F ield         | OpenFOAM: The Open Source CFD Toolbox           |
|  \\    /   O peration     | Version:  dev                                   |
|   \\  /    A nd           | Web:      www.OpenFOAM.org                      |
|    \\/     M anipulation  |                                                 |
\*---------------------------------------------------------------------------*/
FoamFile
{
    version     2.0;
    format      ascii;
    class       volScalarField;
    location    "0.025";
    object      AC3H4;
}
// * * * * * * * * * * * * * * * * * * * * * * * * * * * * * * * * * * * * * //

dimensions      [0 0 0 0 0 0 0];

internalField   nonuniform List<scalar> 
250
(
7.21669e-07
7.2448e-07
7.25791e-07
7.33136e-07
7.37954e-07
7.52552e-07
7.77121e-07
8.35405e-07
9.95178e-07
1.16045e-06
7.04577e-07
7.07545e-07
7.09193e-07
7.16779e-07
7.22079e-07
7.36842e-07
7.61038e-07
8.17964e-07
9.70843e-07
1.1536e-06
1.15348e-06
9.52393e-07
8.03862e-07
7.46727e-07
7.23417e-07
7.07564e-07
7.0217e-07
6.93866e-07
6.92064e-07
6.88677e-07
6.88745e-07
6.91893e-07
6.9388e-07
7.01724e-07
7.07532e-07
7.22493e-07
7.46471e-07
8.0166e-07
9.48978e-07
1.14212e-06
1.13818e-06
9.30638e-07
7.88369e-07
7.33312e-07
7.10115e-07
6.94099e-07
6.88148e-07
6.79573e-07
6.77431e-07
6.73846e-07
6.73904e-07
6.77258e-07
6.7957e-07
6.87702e-07
6.94035e-07
7.09213e-07
7.33001e-07
7.86278e-07
9.27522e-07
1.12614e-06
1.11817e-06
9.09047e-07
7.73534e-07
7.20652e-07
6.97567e-07
6.81357e-07
6.74845e-07
6.65957e-07
6.63506e-07
6.59691e-07
6.59739e-07
6.63329e-07
6.65938e-07
6.74392e-07
6.8126e-07
6.96681e-07
7.20305e-07
7.71549e-07
9.06201e-07
1.10583e-06
1.09375e-06
8.87373e-07
7.59047e-07
7.08386e-07
6.85407e-07
6.68968e-07
6.61902e-07
6.52649e-07
6.49938e-07
6.45857e-07
6.45898e-07
6.49754e-07
6.52616e-07
6.61434e-07
6.68842e-07
6.84526e-07
7.08017e-07
7.57157e-07
8.84808e-07
1.08147e-06
1.06535e-06
8.65403e-07
7.4456e-07
6.96125e-07
6.73233e-07
6.56551e-07
6.48934e-07
6.39261e-07
6.36349e-07
6.31961e-07
6.31996e-07
6.36156e-07
6.39214e-07
6.48442e-07
6.56398e-07
6.72349e-07
6.95743e-07
7.42754e-07
8.63136e-07
1.05343e-06
1.03351e-06
8.4296e-07
7.29714e-07
6.83465e-07
6.60633e-07
6.42892e-07
6.35558e-07
6.25411e-07
6.22371e-07
6.17621e-07
6.17651e-07
6.22166e-07
6.25351e-07
6.35038e-07
6.42745e-07
6.59737e-07
6.8308e-07
7.2798e-07
8.40991e-07
1.02217e-06
9.98758e-07
8.199e-07
7.14176e-07
6.70033e-07
6.47251e-07
6.29098e-07
6.21453e-07
6.10768e-07
6.06652e-07
6.01805e-07
6.01857e-07
6.06438e-07
6.10697e-07
6.20923e-07
6.28936e-07
6.46337e-07
6.69652e-07
7.12508e-07
8.18203e-07
9.8814e-07
9.61484e-07
7.96125e-07
6.97697e-07
6.55535e-07
6.32792e-07
6.14185e-07
6.05828e-07
5.9435e-07
5.90725e-07
5.85515e-07
5.85565e-07
5.90498e-07
5.94289e-07
6.0529e-07
6.14014e-07
6.31857e-07
6.55163e-07
6.96091e-07
7.94655e-07
9.51803e-07
9.2249e-07
7.71634e-07
6.80197e-07
6.39847e-07
6.17124e-07
5.98071e-07
5.8942e-07
5.77392e-07
5.73596e-07
5.68048e-07
5.68098e-07
5.73357e-07
5.77324e-07
5.88877e-07
5.97892e-07
6.1617e-07
6.39486e-07
6.78655e-07
7.70344e-07
9.13976e-07
8.83678e-07
7.46672e-07
6.61932e-07
6.2317e-07
6.00425e-07
5.80973e-07
5.71912e-07
5.59423e-07
5.55412e-07
5.49562e-07
5.49611e-07
5.55163e-07
5.59346e-07
5.71345e-07
5.80781e-07
5.9946e-07
6.22812e-07
6.60456e-07
7.45521e-07
8.76094e-07
8.46369e-07
7.22002e-07
6.43799e-07
6.06328e-07
5.83458e-07
5.637e-07
5.54004e-07
5.41192e-07
5.36809e-07
5.30728e-07
5.30771e-07
5.36555e-07
5.41098e-07
5.53424e-07
5.63479e-07
5.82504e-07
6.05948e-07
6.42395e-07
7.20952e-07
8.39619e-07
5.13206e-07
5.19117e-07
5.24339e-07
5.36813e-07
5.47884e-07
5.67186e-07
5.90856e-07
6.26575e-07
6.98445e-07
8.06843e-07
)
;

boundaryField
{
    fuel
    {
        type            fixedValue;
        value           nonuniform 0();
    }
    wall
    {
        type            zeroGradient;
    }
    outlet
    {
        type            zeroGradient;
    }
    frontAndBack
    {
        type            empty;
    }
    procBoundary0to1
    {
        type            processor;
        value           nonuniform List<scalar> 
21
(
8.12757e-07
6.99434e-07
6.27887e-07
5.9131e-07
5.68087e-07
5.48166e-07
5.37377e-07
5.24466e-07
5.19361e-07
5.13177e-07
5.13177e-07
5.00241e-07
5.06105e-07
5.12594e-07
5.24948e-07
5.37761e-07
5.57285e-07
5.81465e-07
6.17121e-07
6.81666e-07
7.8186e-07
)
;
    }
    procBoundary0to2
    {
        type            processor;
        value           nonuniform List<scalar> 
12
(
7.21582e-07
1.16402e-06
9.74644e-07
8.20286e-07
7.61212e-07
7.37793e-07
7.22076e-07
7.17227e-07
7.0916e-07
7.07714e-07
7.04498e-07
7.04498e-07
)
;
    }
    procBoundary0to3
    {
        type            processor;
        value           nonuniform List<scalar> 10(7.40236e-07 7.42908e-07 7.43894e-07 7.51007e-07 7.55381e-07 7.69769e-07 7.94545e-07 8.54136e-07 1.01849e-06 1.16253e-06);
    }
}


// ************************************************************************* //
