/*--------------------------------*- C++ -*----------------------------------*\
| =========                 |                                                 |
| \\      /  F ield         | OpenFOAM: The Open Source CFD Toolbox           |
|  \\    /   O peration     | Version:  dev                                   |
|   \\  /    A nd           | Web:      www.OpenFOAM.org                      |
|    \\/     M anipulation  |                                                 |
\*---------------------------------------------------------------------------*/
FoamFile
{
    version     2.0;
    format      ascii;
    class       volScalarField;
    location    "0.025";
    object      C2O;
}
// * * * * * * * * * * * * * * * * * * * * * * * * * * * * * * * * * * * * * //

dimensions      [0 0 0 0 0 0 0];

internalField   nonuniform List<scalar> 
25
(
3.45478e-05
3.51956e-05
2.71479e-05
1.88948e-05
1.25355e-05
8.16584e-06
5.26923e-06
3.4484e-06
2.29406e-06
1.56204e-06
1.09472e-06
7.92215e-07
5.92232e-07
4.55931e-07
3.59763e-07
2.92514e-07
2.44214e-07
2.09816e-07
1.8592e-07
1.69976e-07
1.59897e-07
1.53901e-07
1.50439e-07
1.48288e-07
1.46444e-07
)
;

boundaryField
{
    wall
    {
        type            zeroGradient;
    }
    fuel
    {
        type            fixedValue;
        value           uniform 0;
    }
    outlet
    {
        type            inletOutlet;
        inletValue      nonuniform 0();
        value           nonuniform 0();
    }
    procBoundary0to1
    {
        type            processor;
        value           uniform 1.44086e-07;
    }
}


// ************************************************************************* //
