/*--------------------------------*- C++ -*----------------------------------*\
| =========                 |                                                 |
| \\      /  F ield         | OpenFOAM: The Open Source CFD Toolbox           |
|  \\    /   O peration     | Version:  dev                                   |
|   \\  /    A nd           | Web:      www.OpenFOAM.org                      |
|    \\/     M anipulation  |                                                 |
\*---------------------------------------------------------------------------*/
FoamFile
{
    version     2.0;
    format      ascii;
    class       volScalarField;
    location    "0.025";
    object      CH2CO;
}
// * * * * * * * * * * * * * * * * * * * * * * * * * * * * * * * * * * * * * //

dimensions      [0 0 0 0 0 0 0];

internalField   nonuniform List<scalar> 
25
(
5.39544e-05
6.29735e-05
5.05947e-05
3.53598e-05
2.31845e-05
1.48279e-05
9.38435e-06
6.03022e-06
3.95759e-06
2.67903e-06
1.88579e-06
1.38727e-06
1.06758e-06
8.56262e-07
7.11728e-07
6.14313e-07
5.48352e-07
5.06844e-07
4.85941e-07
4.83313e-07
4.97223e-07
5.26059e-07
5.68469e-07
6.22084e-07
6.85326e-07
)
;

boundaryField
{
    wall
    {
        type            zeroGradient;
    }
    fuel
    {
        type            fixedValue;
        value           uniform 0;
    }
    outlet
    {
        type            inletOutlet;
        inletValue      nonuniform 0();
        value           nonuniform 0();
    }
    procBoundary0to1
    {
        type            processor;
        value           uniform 7.55898e-07;
    }
}


// ************************************************************************* //
