/*--------------------------------*- C++ -*----------------------------------*\
| =========                 |                                                 |
| \\      /  F ield         | OpenFOAM: The Open Source CFD Toolbox           |
|  \\    /   O peration     | Version:  dev                                   |
|   \\  /    A nd           | Web:      www.OpenFOAM.org                      |
|    \\/     M anipulation  |                                                 |
\*---------------------------------------------------------------------------*/
FoamFile
{
    version     2.0;
    format      ascii;
    class       volScalarField;
    location    "0.025";
    object      CH2O;
}
// * * * * * * * * * * * * * * * * * * * * * * * * * * * * * * * * * * * * * //

dimensions      [0 0 0 0 0 0 0];

internalField   nonuniform List<scalar> 
250
(
2.36525e-06
2.37036e-06
2.3548e-06
2.34912e-06
2.33961e-06
2.32637e-06
2.33893e-06
2.24316e-06
1.93161e-06
1.35825e-06
2.22716e-06
2.2312e-06
2.21542e-06
2.20936e-06
2.19878e-06
2.1843e-06
2.19928e-06
2.11369e-06
1.85042e-06
1.30018e-06
1.21596e-06
1.74671e-06
1.97434e-06
2.0569e-06
2.03465e-06
2.04674e-06
2.06104e-06
2.06727e-06
2.09054e-06
2.08383e-06
2.0821e-06
2.08712e-06
2.06931e-06
2.0627e-06
2.05101e-06
2.03555e-06
2.05262e-06
1.97646e-06
1.75517e-06
1.25922e-06
1.19087e-06
1.65503e-06
1.83008e-06
1.90379e-06
1.87899e-06
1.89217e-06
1.90751e-06
1.91432e-06
1.94022e-06
1.93177e-06
1.92992e-06
1.936e-06
1.91634e-06
1.90904e-06
1.89645e-06
1.87999e-06
1.89885e-06
1.8315e-06
1.65874e-06
1.22212e-06
1.16024e-06
1.55142e-06
1.67859e-06
1.74425e-06
1.71708e-06
1.73118e-06
1.74747e-06
1.75473e-06
1.7833e-06
1.77286e-06
1.77094e-06
1.77826e-06
1.75684e-06
1.74888e-06
1.73551e-06
1.71821e-06
1.73847e-06
1.67941e-06
1.55079e-06
1.18101e-06
1.11873e-06
1.43621e-06
1.52079e-06
1.57966e-06
1.55018e-06
1.56494e-06
1.5818e-06
1.58951e-06
1.62078e-06
1.60803e-06
1.6061e-06
1.61501e-06
1.59179e-06
1.58326e-06
1.56928e-06
1.55145e-06
1.57261e-06
1.52182e-06
1.4319e-06
1.13058e-06
1.06354e-06
1.31094e-06
1.35758e-06
1.41232e-06
1.38026e-06
1.39537e-06
1.41131e-06
1.42042e-06
1.45453e-06
1.43894e-06
1.43704e-06
1.44826e-06
1.42289e-06
1.41399e-06
1.39972e-06
1.38167e-06
1.40325e-06
1.35828e-06
1.30366e-06
1.068e-06
9.94419e-07
1.17841e-06
1.19445e-06
1.23168e-06
1.21015e-06
1.22513e-06
1.24077e-06
1.24994e-06
1.27423e-06
1.26804e-06
1.26616e-06
1.27371e-06
1.25259e-06
1.24361e-06
1.22936e-06
1.21177e-06
1.23316e-06
1.19546e-06
1.16875e-06
9.92922e-07
9.1335e-07
1.04234e-06
1.0347e-06
1.06541e-06
1.04336e-06
1.05748e-06
1.07269e-06
1.08149e-06
1.10622e-06
1.0986e-06
1.09655e-06
1.10635e-06
1.08418e-06
1.0754e-06
1.06147e-06
1.04463e-06
1.06582e-06
1.03465e-06
1.03081e-06
9.07175e-07
8.2415e-07
9.07148e-07
8.81662e-07
9.05728e-07
8.83555e-07
8.9627e-07
9.10552e-07
9.18745e-07
9.43031e-07
9.34383e-07
9.31749e-07
9.39092e-07
9.21296e-07
9.13005e-07
8.99929e-07
8.84768e-07
9.05152e-07
8.80686e-07
8.94225e-07
8.14368e-07
7.31914e-07
7.77667e-07
7.39961e-07
7.56587e-07
7.34497e-07
7.45249e-07
7.58104e-07
7.65491e-07
7.88477e-07
7.79314e-07
7.76523e-07
7.84651e-07
7.67834e-07
7.60267e-07
7.48478e-07
7.35402e-07
7.55066e-07
7.37781e-07
7.63674e-07
7.19341e-07
6.42729e-07
6.5882e-07
6.13123e-07
6.21567e-07
5.99514e-07
6.078e-07
6.18777e-07
6.25195e-07
6.46151e-07
6.37028e-07
6.34391e-07
6.42557e-07
6.27278e-07
6.20644e-07
6.10506e-07
5.99948e-07
6.19099e-07
6.09516e-07
6.43821e-07
6.27821e-07
5.64366e-07
5.56106e-07
5.04881e-07
5.03709e-07
4.81196e-07
4.86504e-07
4.95246e-07
5.00561e-07
5.18972e-07
5.10373e-07
5.08061e-07
5.15724e-07
5.02373e-07
4.96831e-07
4.88632e-07
4.81005e-07
5.00165e-07
4.9926e-07
5.39625e-07
5.4696e-07
3.99202e-07
4.06034e-07
3.94816e-07
3.90475e-07
3.84466e-07
3.80327e-07
4.00811e-07
4.11374e-07
4.5806e-07
4.87924e-07
)
;

boundaryField
{
    fuel
    {
        type            fixedValue;
        value           nonuniform 0();
    }
    wall
    {
        type            zeroGradient;
    }
    outlet
    {
        type            zeroGradient;
    }
    frontAndBack
    {
        type            empty;
    }
    procBoundary0to1
    {
        type            processor;
        value           nonuniform List<scalar> 
21
(
5.07974e-07
4.76898e-07
4.20302e-07
4.05922e-07
3.81531e-07
3.83099e-07
3.8927e-07
3.93358e-07
4.08902e-07
4.01199e-07
4.01199e-07
3.08416e-07
3.14281e-07
3.05254e-07
3.02219e-07
2.98802e-07
2.99288e-07
3.24188e-07
3.53543e-07
4.11158e-07
4.70688e-07
)
;
    }
    procBoundary0to2
    {
        type            processor;
        value           nonuniform List<scalar> 
12
(
2.36668e-06
1.24483e-06
1.83607e-06
2.11088e-06
2.203e-06
2.18359e-06
2.19446e-06
2.20773e-06
2.21325e-06
2.23389e-06
2.22874e-06
2.22874e-06
)
;
    }
    procBoundary0to3
    {
        type            processor;
        value           nonuniform List<scalar> 10(2.49679e-06 2.50091e-06 2.48786e-06 2.48245e-06 2.47398e-06 2.46215e-06 2.47195e-06 2.36535e-06 1.99819e-06 1.44935e-06);
    }
}


// ************************************************************************* //
