/*--------------------------------*- C++ -*----------------------------------*\
| =========                 |                                                 |
| \\      /  F ield         | OpenFOAM: The Open Source CFD Toolbox           |
|  \\    /   O peration     | Version:  dev                                   |
|   \\  /    A nd           | Web:      www.OpenFOAM.org                      |
|    \\/     M anipulation  |                                                 |
\*---------------------------------------------------------------------------*/
FoamFile
{
    version     2.0;
    format      ascii;
    class       volScalarField;
    location    "0.025";
    object      CH3OH;
}
// * * * * * * * * * * * * * * * * * * * * * * * * * * * * * * * * * * * * * //

dimensions      [0 0 0 0 0 0 0];

internalField   nonuniform List<scalar> 
250
(
1.66109e-07
1.66553e-07
1.66414e-07
1.6682e-07
1.67267e-07
1.67925e-07
1.69967e-07
1.69773e-07
1.66355e-07
1.58099e-07
1.60551e-07
1.60962e-07
1.60824e-07
1.61241e-07
1.61679e-07
1.62302e-07
1.64439e-07
1.64233e-07
1.61025e-07
1.47901e-07
1.37093e-07
1.5518e-07
1.58634e-07
1.59075e-07
1.5656e-07
1.55878e-07
1.55486e-07
1.5497e-07
1.55332e-07
1.54739e-07
1.5464e-07
1.55105e-07
1.54881e-07
1.55297e-07
1.55719e-07
1.56288e-07
1.58528e-07
1.58309e-07
1.55198e-07
1.40641e-07
1.32423e-07
1.49858e-07
1.52303e-07
1.52756e-07
1.50103e-07
1.49454e-07
1.4911e-07
1.48604e-07
1.49101e-07
1.4841e-07
1.48301e-07
1.48828e-07
1.4851e-07
1.48912e-07
1.49299e-07
1.4981e-07
1.52151e-07
1.51927e-07
1.4963e-07
1.34861e-07
1.28279e-07
1.44061e-07
1.45454e-07
1.45917e-07
1.43109e-07
1.42501e-07
1.4222e-07
1.41729e-07
1.42392e-07
1.41584e-07
1.41467e-07
1.42065e-07
1.41639e-07
1.42013e-07
1.42354e-07
1.428e-07
1.45234e-07
1.45022e-07
1.43593e-07
1.29806e-07
1.2415e-07
1.37706e-07
1.38016e-07
1.38516e-07
1.35528e-07
1.34965e-07
1.34753e-07
1.34293e-07
1.35161e-07
1.34205e-07
1.34082e-07
1.34777e-07
1.34213e-07
1.34547e-07
1.34831e-07
1.35205e-07
1.37722e-07
1.37565e-07
1.37013e-07
1.24919e-07
1.19684e-07
1.30752e-07
1.29894e-07
1.30545e-07
1.27336e-07
1.26827e-07
1.26624e-07
1.26268e-07
1.27384e-07
1.26243e-07
1.26118e-07
1.26955e-07
1.26205e-07
1.2649e-07
1.2671e-07
1.27008e-07
1.29594e-07
1.29414e-07
1.29849e-07
1.19818e-07
1.14687e-07
1.23219e-07
1.21269e-07
1.21261e-07
1.18558e-07
1.18112e-07
1.17969e-07
1.17666e-07
1.18362e-07
1.17707e-07
1.17579e-07
1.18245e-07
1.17625e-07
1.17856e-07
1.1801e-07
1.18238e-07
1.20872e-07
1.20784e-07
1.22115e-07
1.14287e-07
1.09105e-07
1.15179e-07
1.12222e-07
1.12088e-07
1.09278e-07
1.08891e-07
1.08818e-07
1.08559e-07
1.09403e-07
1.08657e-07
1.08514e-07
1.09333e-07
1.08538e-07
1.08715e-07
1.08801e-07
1.08945e-07
1.11635e-07
1.11645e-07
1.13882e-07
1.08252e-07
1.03008e-07
1.06773e-07
1.0286e-07
1.02545e-07
9.96362e-08
9.92891e-08
9.928e-08
9.90678e-08
1.00042e-07
9.92087e-08
9.90159e-08
9.97125e-08
9.90608e-08
9.91858e-08
9.92095e-08
9.93129e-08
1.02025e-07
1.022e-07
1.05288e-07
1.01764e-07
9.65681e-08
9.82017e-08
9.34346e-08
9.28235e-08
8.98203e-08
8.94842e-08
8.95247e-08
8.93602e-08
9.04336e-08
8.95335e-08
8.93144e-08
9.00932e-08
8.93661e-08
8.9441e-08
8.94135e-08
8.94976e-08
9.22327e-08
9.26716e-08
9.65306e-08
9.49761e-08
9.00566e-08
8.97247e-08
8.41828e-08
8.31535e-08
8.00517e-08
7.96915e-08
7.9761e-08
7.9643e-08
8.07791e-08
7.9841e-08
7.9617e-08
8.04378e-08
7.9661e-08
7.96903e-08
7.96276e-08
7.97227e-08
8.24891e-08
8.32986e-08
8.78562e-08
8.81361e-08
8.39295e-08
8.17071e-08
7.54161e-08
7.37939e-08
7.0565e-08
7.01375e-08
7.02113e-08
7.01354e-08
7.12981e-08
7.03539e-08
7.01405e-08
7.09658e-08
7.01666e-08
7.01574e-08
7.00788e-08
7.02214e-08
7.30447e-08
7.43623e-08
7.95893e-08
8.16506e-08
6.1088e-08
6.1888e-08
6.10904e-08
6.10522e-08
6.0982e-08
6.12216e-08
6.41826e-08
6.62936e-08
7.23081e-08
7.63817e-08
)
;

boundaryField
{
    fuel
    {
        type            fixedValue;
        value           nonuniform 0();
    }
    wall
    {
        type            zeroGradient;
    }
    outlet
    {
        type            zeroGradient;
    }
    frontAndBack
    {
        type            empty;
    }
    procBoundary0to1
    {
        type            processor;
        value           nonuniform List<scalar> 
21
(
7.90179e-08
7.47422e-08
6.76225e-08
6.50471e-08
6.16059e-08
6.10482e-08
6.10959e-08
6.10542e-08
6.22083e-08
6.12915e-08
6.12915e-08
5.26361e-08
5.33901e-08
5.26153e-08
5.25622e-08
5.25377e-08
5.29662e-08
5.62935e-08
5.99418e-08
6.72371e-08
7.43279e-08
)
;
    }
    procBoundary0to2
    {
        type            processor;
        value           nonuniform List<scalar> 
12
(
1.66192e-07
1.43241e-07
1.60741e-07
1.64509e-07
1.64931e-07
1.62547e-07
1.61838e-07
1.61418e-07
1.60899e-07
1.6115e-07
1.60641e-07
1.60641e-07
)
;
    }
    procBoundary0to3
    {
        type            processor;
        value           nonuniform List<scalar> 10(1.71386e-07 1.71774e-07 1.71722e-07 1.72109e-07 1.72558e-07 1.73233e-07 1.75183e-07 1.75004e-07 1.71143e-07 1.72416e-07);
    }
}


// ************************************************************************* //
