/*--------------------------------*- C++ -*----------------------------------*\
| =========                 |                                                 |
| \\      /  F ield         | OpenFOAM: The Open Source CFD Toolbox           |
|  \\    /   O peration     | Version:  dev                                   |
|   \\  /    A nd           | Web:      www.OpenFOAM.org                      |
|    \\/     M anipulation  |                                                 |
\*---------------------------------------------------------------------------*/
FoamFile
{
    version     2.0;
    format      ascii;
    class       volScalarField;
    location    "0.025";
    object      CH3O;
}
// * * * * * * * * * * * * * * * * * * * * * * * * * * * * * * * * * * * * * //

dimensions      [0 0 0 0 0 0 0];

internalField   nonuniform List<scalar> 
2014
(
6.73419e-10
6.75559e-10
6.77502e-10
6.78604e-10
6.78967e-10
6.79155e-10
6.7908e-10
6.79135e-10
6.79121e-10
6.79227e-10
6.79295e-10
6.79433e-10
6.79531e-10
6.79664e-10
6.79758e-10
6.79868e-10
6.79942e-10
6.80022e-10
6.80073e-10
6.80126e-10
6.80158e-10
6.8019e-10
6.80207e-10
6.80222e-10
6.80228e-10
6.80227e-10
6.80221e-10
6.80204e-10
6.80186e-10
6.80154e-10
6.80121e-10
6.80069e-10
6.80018e-10
6.79938e-10
6.79866e-10
6.79758e-10
6.79665e-10
6.79534e-10
6.79438e-10
6.79302e-10
6.79236e-10
6.79131e-10
6.79147e-10
6.79093e-10
6.79169e-10
6.78982e-10
6.78619e-10
6.77517e-10
6.75577e-10
6.7344e-10
6.63789e-10
6.65847e-10
6.6768e-10
6.68723e-10
6.69054e-10
6.69222e-10
6.69142e-10
6.69193e-10
6.69182e-10
6.69291e-10
6.69365e-10
6.69508e-10
6.69612e-10
6.6975e-10
6.6985e-10
6.69964e-10
6.70042e-10
6.70125e-10
6.7018e-10
6.70235e-10
6.70268e-10
6.70301e-10
6.7032e-10
6.70336e-10
6.70341e-10
6.70341e-10
6.70334e-10
6.70317e-10
6.70298e-10
6.70264e-10
6.7023e-10
6.70175e-10
6.70121e-10
6.70038e-10
6.69961e-10
6.69849e-10
6.69751e-10
6.69615e-10
6.69513e-10
6.69372e-10
6.693e-10
6.69193e-10
6.69205e-10
6.69156e-10
6.69237e-10
6.69069e-10
6.6874e-10
6.67696e-10
6.65866e-10
6.63811e-10
6.54475e-10
6.56449e-10
6.58176e-10
6.59163e-10
6.59458e-10
6.59608e-10
6.59521e-10
6.59569e-10
6.59561e-10
6.59673e-10
6.59754e-10
6.59901e-10
6.60012e-10
6.60155e-10
6.60261e-10
6.60379e-10
6.60461e-10
6.60548e-10
6.60605e-10
6.60662e-10
6.60698e-10
6.60733e-10
6.60752e-10
6.60768e-10
6.60775e-10
6.60774e-10
6.60767e-10
6.60749e-10
6.60729e-10
6.60694e-10
6.60658e-10
6.606e-10
6.60543e-10
6.60458e-10
6.60376e-10
6.6026e-10
6.60156e-10
6.60014e-10
6.59906e-10
6.5976e-10
6.59682e-10
6.59572e-10
6.59582e-10
6.59536e-10
6.59624e-10
6.59475e-10
6.5918e-10
6.58193e-10
6.56469e-10
6.54498e-10
6.45421e-10
6.4731e-10
6.48935e-10
6.49864e-10
6.50124e-10
6.50254e-10
6.50161e-10
6.50205e-10
6.502e-10
6.50315e-10
6.50402e-10
6.50555e-10
6.50672e-10
6.50821e-10
6.50933e-10
6.51055e-10
6.51142e-10
6.51232e-10
6.51293e-10
6.51352e-10
6.5139e-10
6.51426e-10
6.51446e-10
6.51463e-10
6.5147e-10
6.51469e-10
6.51461e-10
6.51443e-10
6.51422e-10
6.51385e-10
6.51347e-10
6.51288e-10
6.51227e-10
6.51138e-10
6.51053e-10
6.50931e-10
6.50822e-10
6.50675e-10
6.5056e-10
6.50409e-10
6.50325e-10
6.50212e-10
6.50218e-10
6.50176e-10
6.50271e-10
6.50141e-10
6.49882e-10
6.48952e-10
6.4733e-10
6.45444e-10
6.36578e-10
6.38381e-10
6.3991e-10
6.40779e-10
6.41002e-10
6.41113e-10
6.41013e-10
6.41053e-10
6.41051e-10
6.4117e-10
6.41263e-10
6.41422e-10
6.41546e-10
6.417e-10
6.41818e-10
6.41946e-10
6.42037e-10
6.4213e-10
6.42194e-10
6.42256e-10
6.42296e-10
6.42333e-10
6.42355e-10
6.42372e-10
6.42379e-10
6.42378e-10
6.4237e-10
6.42351e-10
6.42328e-10
6.42291e-10
6.4225e-10
6.42189e-10
6.42125e-10
6.42033e-10
6.41942e-10
6.41817e-10
6.41701e-10
6.41548e-10
6.41427e-10
6.41271e-10
6.4118e-10
6.41064e-10
6.41067e-10
6.41029e-10
6.41131e-10
6.41021e-10
6.40798e-10
6.39929e-10
6.38401e-10
6.36601e-10
6.27906e-10
6.29623e-10
6.31062e-10
6.31869e-10
6.32054e-10
6.32144e-10
6.32036e-10
6.32073e-10
6.32075e-10
6.32197e-10
6.32297e-10
6.32461e-10
6.32592e-10
6.32753e-10
6.32877e-10
6.33009e-10
6.33105e-10
6.33202e-10
6.33269e-10
6.33334e-10
6.33375e-10
6.33414e-10
6.33437e-10
6.33455e-10
6.33462e-10
6.33461e-10
6.33453e-10
6.33433e-10
6.33409e-10
6.3337e-10
6.33328e-10
6.33263e-10
6.33197e-10
6.33101e-10
6.33006e-10
6.32875e-10
6.32753e-10
6.32595e-10
6.32466e-10
6.32305e-10
6.32207e-10
6.32088e-10
6.32088e-10
6.32053e-10
6.32163e-10
6.32074e-10
6.31889e-10
6.31082e-10
6.29644e-10
6.2793e-10
6.19373e-10
6.21008e-10
6.22354e-10
6.23098e-10
6.23246e-10
6.23315e-10
6.23198e-10
6.23231e-10
6.23236e-10
6.23362e-10
6.23469e-10
6.23639e-10
6.23778e-10
6.23944e-10
6.24075e-10
6.24212e-10
6.24313e-10
6.24414e-10
6.24485e-10
6.24551e-10
6.24595e-10
6.24635e-10
6.24659e-10
6.24678e-10
6.24685e-10
6.24685e-10
6.24676e-10
6.24655e-10
6.2463e-10
6.24589e-10
6.24545e-10
6.24478e-10
6.24408e-10
6.24308e-10
6.24209e-10
6.24073e-10
6.23945e-10
6.2378e-10
6.23645e-10
6.23477e-10
6.23373e-10
6.2325e-10
6.23247e-10
6.23216e-10
6.23334e-10
6.23266e-10
6.23119e-10
6.22374e-10
6.2103e-10
6.19397e-10
6.10949e-10
6.12507e-10
6.13755e-10
6.14439e-10
6.14547e-10
6.14595e-10
6.14469e-10
6.14499e-10
6.14507e-10
6.14637e-10
6.14751e-10
6.14928e-10
6.15073e-10
6.15247e-10
6.15384e-10
6.15526e-10
6.15632e-10
6.15737e-10
6.15811e-10
6.1588e-10
6.15926e-10
6.15968e-10
6.15993e-10
6.16012e-10
6.1602e-10
6.16019e-10
6.1601e-10
6.15989e-10
6.15963e-10
6.1592e-10
6.15874e-10
6.15804e-10
6.15731e-10
6.15627e-10
6.15522e-10
6.15381e-10
6.15247e-10
6.15076e-10
6.14933e-10
6.14759e-10
6.14649e-10
6.14521e-10
6.14516e-10
6.14488e-10
6.14616e-10
6.14569e-10
6.1446e-10
6.13777e-10
6.1253e-10
6.10975e-10
6.02612e-10
6.04095e-10
6.05242e-10
6.05866e-10
6.05935e-10
6.0596e-10
6.05825e-10
6.05851e-10
6.05863e-10
6.05997e-10
6.06118e-10
6.06302e-10
6.06455e-10
6.06634e-10
6.06778e-10
6.06926e-10
6.07037e-10
6.07146e-10
6.07223e-10
6.07295e-10
6.07343e-10
6.07387e-10
6.07413e-10
6.07433e-10
6.07441e-10
6.0744e-10
6.07431e-10
6.07409e-10
6.07381e-10
6.07337e-10
6.07288e-10
6.07216e-10
6.07139e-10
6.07031e-10
6.06922e-10
6.06776e-10
6.06634e-10
6.06457e-10
6.06307e-10
6.06127e-10
6.06009e-10
6.05878e-10
6.05869e-10
6.05845e-10
6.05982e-10
6.05957e-10
6.05889e-10
6.05265e-10
6.0412e-10
6.02638e-10
5.9434e-10
5.95751e-10
5.96793e-10
5.97359e-10
5.97386e-10
5.97389e-10
5.97244e-10
5.97267e-10
5.97281e-10
5.97421e-10
5.97549e-10
5.97739e-10
5.979e-10
5.98086e-10
5.98237e-10
5.98391e-10
5.98507e-10
5.98619e-10
5.98701e-10
5.98775e-10
5.98826e-10
5.98871e-10
5.98898e-10
5.98919e-10
5.98927e-10
5.98926e-10
5.98916e-10
5.98894e-10
5.98865e-10
5.98819e-10
5.98768e-10
5.98693e-10
5.98612e-10
5.985e-10
5.98386e-10
5.98234e-10
5.98086e-10
5.97902e-10
5.97745e-10
5.97558e-10
5.97433e-10
5.97297e-10
5.97286e-10
5.97265e-10
5.97412e-10
5.9741e-10
5.97382e-10
5.96817e-10
5.95777e-10
5.94367e-10
5.86114e-10
5.87456e-10
5.8839e-10
5.88897e-10
5.88883e-10
5.88862e-10
5.88707e-10
5.88726e-10
5.88744e-10
5.88889e-10
5.89024e-10
5.89222e-10
5.8939e-10
5.89584e-10
5.89741e-10
5.89901e-10
5.90022e-10
5.90139e-10
5.90224e-10
5.90302e-10
5.90354e-10
5.90401e-10
5.90429e-10
5.90451e-10
5.9046e-10
5.90459e-10
5.90448e-10
5.90425e-10
5.90395e-10
5.90347e-10
5.90294e-10
5.90216e-10
5.90132e-10
5.90015e-10
5.89896e-10
5.89739e-10
5.89583e-10
5.89393e-10
5.89227e-10
5.89033e-10
5.88902e-10
5.88761e-10
5.88746e-10
5.8873e-10
5.88887e-10
5.88908e-10
5.88922e-10
5.88415e-10
5.87482e-10
5.86142e-10
5.77919e-10
5.79192e-10
5.80016e-10
5.80466e-10
5.80409e-10
5.80364e-10
5.80198e-10
5.80214e-10
5.80235e-10
5.80385e-10
5.80527e-10
5.80733e-10
5.80909e-10
5.8111e-10
5.81275e-10
5.8144e-10
5.81566e-10
5.81688e-10
5.81777e-10
5.81857e-10
5.81912e-10
5.8196e-10
5.8199e-10
5.82012e-10
5.82021e-10
5.8202e-10
5.82009e-10
5.81985e-10
5.81954e-10
5.81904e-10
5.81849e-10
5.81768e-10
5.8168e-10
5.81559e-10
5.81435e-10
5.81272e-10
5.81109e-10
5.80911e-10
5.80738e-10
5.80537e-10
5.80398e-10
5.80253e-10
5.80235e-10
5.80222e-10
5.8039e-10
5.80435e-10
5.80492e-10
5.80042e-10
5.79219e-10
5.77948e-10
5.69739e-10
5.70944e-10
5.71658e-10
5.72049e-10
5.71948e-10
5.71879e-10
5.71701e-10
5.71714e-10
5.71739e-10
5.71894e-10
5.72044e-10
5.72257e-10
5.72441e-10
5.7265e-10
5.72822e-10
5.72993e-10
5.73125e-10
5.73251e-10
5.73344e-10
5.73427e-10
5.73484e-10
5.73534e-10
5.73565e-10
5.73588e-10
5.73598e-10
5.73597e-10
5.73585e-10
5.7356e-10
5.73527e-10
5.73476e-10
5.73418e-10
5.73335e-10
5.73243e-10
5.73118e-10
5.72988e-10
5.72818e-10
5.72649e-10
5.72443e-10
5.72263e-10
5.72054e-10
5.71908e-10
5.71757e-10
5.71736e-10
5.71727e-10
5.71906e-10
5.71975e-10
5.72076e-10
5.71685e-10
5.70973e-10
5.6977e-10
5.61562e-10
5.62698e-10
5.63302e-10
5.63633e-10
5.63488e-10
5.63394e-10
5.63204e-10
5.63214e-10
5.63242e-10
5.63402e-10
5.6356e-10
5.63781e-10
5.63974e-10
5.6419e-10
5.6437e-10
5.64547e-10
5.64685e-10
5.64815e-10
5.64912e-10
5.64998e-10
5.65057e-10
5.65109e-10
5.65141e-10
5.65165e-10
5.65175e-10
5.65174e-10
5.65162e-10
5.65136e-10
5.65102e-10
5.65049e-10
5.64989e-10
5.64902e-10
5.64806e-10
5.64677e-10
5.64541e-10
5.64366e-10
5.64189e-10
5.63976e-10
5.63787e-10
5.6357e-10
5.63417e-10
5.63261e-10
5.63237e-10
5.63231e-10
5.63423e-10
5.63516e-10
5.63662e-10
5.6333e-10
5.62728e-10
5.61594e-10
5.53375e-10
5.54441e-10
5.54936e-10
5.55207e-10
5.55016e-10
5.54897e-10
5.54694e-10
5.54701e-10
5.54732e-10
5.54898e-10
5.55064e-10
5.55293e-10
5.55494e-10
5.55718e-10
5.55906e-10
5.5609e-10
5.56233e-10
5.56367e-10
5.56468e-10
5.56558e-10
5.56619e-10
5.56673e-10
5.56706e-10
5.56731e-10
5.56741e-10
5.5674e-10
5.56728e-10
5.56701e-10
5.56665e-10
5.56611e-10
5.56548e-10
5.56459e-10
5.56358e-10
5.56224e-10
5.56083e-10
5.55902e-10
5.55717e-10
5.55496e-10
5.55299e-10
5.55074e-10
5.54913e-10
5.54752e-10
5.54726e-10
5.54723e-10
5.54926e-10
5.55046e-10
5.55236e-10
5.54966e-10
5.54473e-10
5.53408e-10
5.45168e-10
5.46163e-10
5.4655e-10
5.46758e-10
5.46521e-10
5.46375e-10
5.46161e-10
5.46163e-10
5.46199e-10
5.46371e-10
5.46544e-10
5.46781e-10
5.46991e-10
5.47223e-10
5.47419e-10
5.47609e-10
5.47758e-10
5.47897e-10
5.48002e-10
5.48095e-10
5.48159e-10
5.48214e-10
5.48249e-10
5.48274e-10
5.48285e-10
5.48284e-10
5.48271e-10
5.48243e-10
5.48206e-10
5.4815e-10
5.48085e-10
5.47992e-10
5.47887e-10
5.47749e-10
5.47602e-10
5.47414e-10
5.47222e-10
5.46993e-10
5.46787e-10
5.46555e-10
5.46386e-10
5.46219e-10
5.4619e-10
5.46191e-10
5.46407e-10
5.46552e-10
5.46788e-10
5.46581e-10
5.46195e-10
5.45202e-10
5.36929e-10
5.37853e-10
5.38132e-10
5.38276e-10
5.37992e-10
5.3782e-10
5.37593e-10
5.37592e-10
5.37631e-10
5.37808e-10
5.3799e-10
5.38236e-10
5.38454e-10
5.38695e-10
5.38899e-10
5.39096e-10
5.3925e-10
5.39394e-10
5.39503e-10
5.39598e-10
5.39665e-10
5.39722e-10
5.39758e-10
5.39785e-10
5.39796e-10
5.39794e-10
5.39781e-10
5.39752e-10
5.39714e-10
5.39656e-10
5.39588e-10
5.39493e-10
5.39383e-10
5.3924e-10
5.39088e-10
5.38894e-10
5.38693e-10
5.38456e-10
5.38242e-10
5.38001e-10
5.37824e-10
5.37652e-10
5.3762e-10
5.37625e-10
5.37853e-10
5.38024e-10
5.38307e-10
5.38164e-10
5.37886e-10
5.36964e-10
5.2865e-10
5.29501e-10
5.29673e-10
5.29751e-10
5.2942e-10
5.29221e-10
5.2898e-10
5.28977e-10
5.29019e-10
5.29202e-10
5.29393e-10
5.29647e-10
5.29874e-10
5.30123e-10
5.30335e-10
5.30539e-10
5.30699e-10
5.30848e-10
5.30961e-10
5.3106e-10
5.31129e-10
5.31188e-10
5.31225e-10
5.31252e-10
5.31263e-10
5.31262e-10
5.31248e-10
5.31219e-10
5.31179e-10
5.31119e-10
5.31049e-10
5.3095e-10
5.30837e-10
5.30688e-10
5.3053e-10
5.3033e-10
5.30121e-10
5.29876e-10
5.29653e-10
5.29403e-10
5.29218e-10
5.29041e-10
5.29006e-10
5.29015e-10
5.29256e-10
5.29453e-10
5.29784e-10
5.29706e-10
5.29536e-10
5.28686e-10
5.2032e-10
5.21098e-10
5.21162e-10
5.21175e-10
5.20795e-10
5.2057e-10
5.20315e-10
5.20308e-10
5.20354e-10
5.20543e-10
5.20742e-10
5.21005e-10
5.21241e-10
5.21499e-10
5.21719e-10
5.2193e-10
5.22095e-10
5.22249e-10
5.22367e-10
5.22469e-10
5.2254e-10
5.22601e-10
5.2264e-10
5.22668e-10
5.22679e-10
5.22678e-10
5.22664e-10
5.22633e-10
5.22592e-10
5.2253e-10
5.22457e-10
5.22356e-10
5.22237e-10
5.22085e-10
5.21921e-10
5.21714e-10
5.21496e-10
5.21243e-10
5.21011e-10
5.20753e-10
5.2056e-10
5.20377e-10
5.20338e-10
5.20351e-10
5.20606e-10
5.2083e-10
5.21209e-10
5.21197e-10
5.21134e-10
5.20358e-10
5.11932e-10
5.12635e-10
5.12592e-10
5.12538e-10
5.1211e-10
5.11857e-10
5.11589e-10
5.11578e-10
5.11627e-10
5.11823e-10
5.12029e-10
5.12302e-10
5.12547e-10
5.12813e-10
5.13043e-10
5.1326e-10
5.13431e-10
5.1359e-10
5.13713e-10
5.13817e-10
5.13891e-10
5.13954e-10
5.13993e-10
5.14022e-10
5.14034e-10
5.14033e-10
5.14018e-10
5.13986e-10
5.13944e-10
5.1388e-10
5.13805e-10
5.137e-10
5.13578e-10
5.1342e-10
5.1325e-10
5.13036e-10
5.1281e-10
5.12549e-10
5.12308e-10
5.1204e-10
5.11839e-10
5.11651e-10
5.1161e-10
5.11627e-10
5.11894e-10
5.12146e-10
5.12573e-10
5.12628e-10
5.12673e-10
5.11971e-10
5.03477e-10
5.04105e-10
5.03953e-10
5.03832e-10
5.03355e-10
5.03075e-10
5.02793e-10
5.02779e-10
5.02831e-10
5.03032e-10
5.03247e-10
5.03529e-10
5.03784e-10
5.04058e-10
5.04297e-10
5.0452e-10
5.04698e-10
5.04862e-10
5.04989e-10
5.05096e-10
5.05173e-10
5.05237e-10
5.05278e-10
5.05308e-10
5.0532e-10
5.05319e-10
5.05303e-10
5.05271e-10
5.05227e-10
5.05161e-10
5.05084e-10
5.04976e-10
5.04849e-10
5.04686e-10
5.04511e-10
5.0429e-10
5.04055e-10
5.03785e-10
5.03535e-10
5.03258e-10
5.03049e-10
5.02855e-10
5.02811e-10
5.02832e-10
5.03113e-10
5.03392e-10
5.03868e-10
5.0399e-10
5.04143e-10
5.03517e-10
4.94946e-10
4.95499e-10
4.95238e-10
4.9505e-10
4.94523e-10
4.94215e-10
4.9392e-10
4.93902e-10
4.93957e-10
4.94164e-10
4.94388e-10
4.94679e-10
4.94943e-10
4.95226e-10
4.95474e-10
4.95704e-10
4.95888e-10
4.96057e-10
4.96188e-10
4.96298e-10
4.96377e-10
4.96444e-10
4.96486e-10
4.96516e-10
4.96529e-10
4.96527e-10
4.96512e-10
4.96478e-10
4.96433e-10
4.96365e-10
4.96285e-10
4.96174e-10
4.96043e-10
4.95875e-10
4.95694e-10
4.95467e-10
4.95223e-10
4.94944e-10
4.94685e-10
4.94399e-10
4.94182e-10
4.93982e-10
4.93935e-10
4.93961e-10
4.94254e-10
4.94561e-10
4.95087e-10
4.95277e-10
4.95539e-10
4.94988e-10
4.86334e-10
4.86809e-10
4.8644e-10
4.86183e-10
4.85606e-10
4.85271e-10
4.84963e-10
4.8494e-10
4.84998e-10
4.85211e-10
4.85443e-10
4.85744e-10
4.86018e-10
4.8631e-10
4.86567e-10
4.86804e-10
4.86994e-10
4.87167e-10
4.87303e-10
4.87416e-10
4.87498e-10
4.87566e-10
4.87609e-10
4.8764e-10
4.87653e-10
4.87652e-10
4.87636e-10
4.87601e-10
4.87555e-10
4.87485e-10
4.87403e-10
4.87289e-10
4.87153e-10
4.8698e-10
4.86793e-10
4.86559e-10
4.86306e-10
4.86018e-10
4.8575e-10
4.85455e-10
4.85229e-10
4.85023e-10
4.84974e-10
4.85005e-10
4.85311e-10
4.85645e-10
4.86221e-10
4.8648e-10
4.8685e-10
4.86377e-10
4.77631e-10
4.78026e-10
4.77552e-10
4.77224e-10
4.76598e-10
4.76235e-10
4.75914e-10
4.75886e-10
4.75947e-10
4.76166e-10
4.76407e-10
4.76717e-10
4.77001e-10
4.77301e-10
4.77568e-10
4.77812e-10
4.78008e-10
4.78186e-10
4.78326e-10
4.78442e-10
4.78526e-10
4.78596e-10
4.7864e-10
4.78672e-10
4.78686e-10
4.78684e-10
4.78667e-10
4.78632e-10
4.78585e-10
4.78513e-10
4.78428e-10
4.78311e-10
4.78171e-10
4.77993e-10
4.778e-10
4.7756e-10
4.77297e-10
4.77001e-10
4.76723e-10
4.76418e-10
4.76184e-10
4.75973e-10
4.75921e-10
4.75957e-10
4.76276e-10
4.76638e-10
4.77264e-10
4.77593e-10
4.78069e-10
4.77676e-10
4.68832e-10
4.69144e-10
4.68567e-10
4.68167e-10
4.67491e-10
4.671e-10
4.66767e-10
4.66734e-10
4.66797e-10
4.67022e-10
4.67272e-10
4.67591e-10
4.67885e-10
4.68194e-10
4.68471e-10
4.68721e-10
4.68923e-10
4.69106e-10
4.6925e-10
4.6937e-10
4.69456e-10
4.69527e-10
4.69573e-10
4.69606e-10
4.69619e-10
4.69617e-10
4.696e-10
4.69564e-10
4.69516e-10
4.69442e-10
4.69355e-10
4.69235e-10
4.6909e-10
4.68908e-10
4.68709e-10
4.68462e-10
4.68189e-10
4.67885e-10
4.67597e-10
4.67283e-10
4.6704e-10
4.66824e-10
4.6677e-10
4.66811e-10
4.67142e-10
4.67531e-10
4.68208e-10
4.68609e-10
4.69188e-10
4.68879e-10
4.59929e-10
4.60157e-10
4.59477e-10
4.59005e-10
4.58278e-10
4.5786e-10
4.57516e-10
4.57477e-10
4.57542e-10
4.57773e-10
4.58031e-10
4.5836e-10
4.58664e-10
4.58982e-10
4.59268e-10
4.59525e-10
4.59733e-10
4.59921e-10
4.60069e-10
4.60191e-10
4.6028e-10
4.60353e-10
4.604e-10
4.60433e-10
4.60447e-10
4.60445e-10
4.60428e-10
4.60391e-10
4.60341e-10
4.60265e-10
4.60176e-10
4.60053e-10
4.59904e-10
4.59717e-10
4.59512e-10
4.59259e-10
4.58977e-10
4.58664e-10
4.58366e-10
4.58043e-10
4.57791e-10
4.57569e-10
4.57513e-10
4.57559e-10
4.57903e-10
4.58319e-10
4.59046e-10
4.5952e-10
4.60203e-10
4.59977e-10
4.50915e-10
4.51058e-10
4.50274e-10
4.4973e-10
4.48954e-10
4.48509e-10
4.48153e-10
4.48109e-10
4.48176e-10
4.48412e-10
4.48679e-10
4.49017e-10
4.49332e-10
4.49657e-10
4.49954e-10
4.50217e-10
4.50431e-10
4.50623e-10
4.50775e-10
4.50901e-10
4.50991e-10
4.51066e-10
4.51114e-10
4.51148e-10
4.51162e-10
4.5116e-10
4.51142e-10
4.51105e-10
4.51054e-10
4.50977e-10
4.50885e-10
4.50759e-10
4.50606e-10
4.50415e-10
4.50203e-10
4.49945e-10
4.49652e-10
4.49331e-10
4.49023e-10
4.4869e-10
4.48431e-10
4.48203e-10
4.48145e-10
4.48197e-10
4.48553e-10
4.48996e-10
4.49773e-10
4.5032e-10
4.51105e-10
4.50966e-10
4.41785e-10
4.4184e-10
4.40954e-10
4.40337e-10
4.39512e-10
4.3904e-10
4.38674e-10
4.38623e-10
4.38692e-10
4.38933e-10
4.39208e-10
4.39557e-10
4.39882e-10
4.40215e-10
4.40523e-10
4.4079e-10
4.41011e-10
4.41208e-10
4.41364e-10
4.41492e-10
4.41584e-10
4.4166e-10
4.4171e-10
4.41744e-10
4.41758e-10
4.41756e-10
4.41738e-10
4.417e-10
4.41648e-10
4.41569e-10
4.41475e-10
4.41347e-10
4.4119e-10
4.40994e-10
4.40777e-10
4.40513e-10
4.40209e-10
4.39881e-10
4.39563e-10
4.3922e-10
4.38953e-10
4.3872e-10
4.3866e-10
4.38717e-10
4.39084e-10
4.39554e-10
4.40381e-10
4.41e-10
4.4189e-10
4.41837e-10
4.32847e-10
4.32825e-10
4.31834e-10
4.31151e-10
4.30276e-10
4.29779e-10
4.29401e-10
4.29345e-10
4.29414e-10
4.29662e-10
4.29945e-10
4.30303e-10
4.30637e-10
4.30978e-10
4.31297e-10
4.3157e-10
4.31795e-10
4.31997e-10
4.32156e-10
4.32287e-10
4.32382e-10
4.32459e-10
4.32509e-10
4.32544e-10
4.32558e-10
4.32556e-10
4.32538e-10
4.32499e-10
4.32446e-10
4.32366e-10
4.3227e-10
4.32139e-10
4.31979e-10
4.31778e-10
4.31556e-10
4.31287e-10
4.30972e-10
4.30636e-10
4.30309e-10
4.29957e-10
4.29682e-10
4.29443e-10
4.29381e-10
4.29444e-10
4.29824e-10
4.30319e-10
4.31196e-10
4.31883e-10
4.32876e-10
4.32901e-10
4.23644e-10
4.23515e-10
4.2238e-10
4.21599e-10
4.20653e-10
4.20122e-10
4.1973e-10
4.1967e-10
4.19745e-10
4.20008e-10
4.20309e-10
4.20689e-10
4.21047e-10
4.21408e-10
4.21756e-10
4.22045e-10
4.2229e-10
4.22508e-10
4.2268e-10
4.22823e-10
4.22927e-10
4.23012e-10
4.23067e-10
4.23106e-10
4.23122e-10
4.2312e-10
4.231e-10
4.23057e-10
4.22998e-10
4.22911e-10
4.22805e-10
4.22661e-10
4.22489e-10
4.22271e-10
4.22031e-10
4.21746e-10
4.21402e-10
4.21047e-10
4.20696e-10
4.20322e-10
4.20029e-10
4.19775e-10
4.19707e-10
4.19773e-10
4.20168e-10
4.20698e-10
4.21647e-10
4.22433e-10
4.23572e-10
4.23704e-10
4.14484e-10
4.14275e-10
4.13033e-10
4.12184e-10
4.11187e-10
4.10633e-10
4.10229e-10
4.10163e-10
4.10239e-10
4.10509e-10
4.10818e-10
4.11208e-10
4.11577e-10
4.11946e-10
4.12306e-10
4.126e-10
4.12851e-10
4.13073e-10
4.13249e-10
4.13395e-10
4.13501e-10
4.13588e-10
4.13644e-10
4.13683e-10
4.137e-10
4.13698e-10
4.13677e-10
4.13633e-10
4.13574e-10
4.13485e-10
4.13377e-10
4.1323e-10
4.13055e-10
4.12832e-10
4.12586e-10
4.12296e-10
4.1194e-10
4.11577e-10
4.11216e-10
4.10831e-10
4.10531e-10
4.1027e-10
4.10201e-10
4.10272e-10
4.10679e-10
4.11233e-10
4.12234e-10
4.13088e-10
4.14334e-10
4.14547e-10
4.05215e-10
4.04925e-10
4.03577e-10
4.0266e-10
4.01613e-10
4.01035e-10
4.00621e-10
4.00548e-10
4.00625e-10
4.00901e-10
4.01218e-10
4.01619e-10
4.01999e-10
4.02375e-10
4.02746e-10
4.03046e-10
4.03302e-10
4.03529e-10
4.03708e-10
4.03857e-10
4.03965e-10
4.04053e-10
4.0411e-10
4.0415e-10
4.04167e-10
4.04165e-10
4.04144e-10
4.04099e-10
4.04039e-10
4.03948e-10
4.03839e-10
4.03689e-10
4.03511e-10
4.03283e-10
4.03032e-10
4.02736e-10
4.0237e-10
4.01999e-10
4.01627e-10
4.01233e-10
4.00924e-10
4.00658e-10
4.00586e-10
4.00663e-10
4.01081e-10
4.01659e-10
4.02711e-10
4.03634e-10
4.04986e-10
4.0528e-10
3.95835e-10
3.95464e-10
3.9401e-10
3.93027e-10
3.91928e-10
3.91328e-10
3.90904e-10
3.90825e-10
3.90903e-10
3.91186e-10
3.91511e-10
3.91921e-10
3.92312e-10
3.92696e-10
3.93077e-10
3.93382e-10
3.93644e-10
3.93875e-10
3.94058e-10
3.94209e-10
3.94319e-10
3.94408e-10
3.94466e-10
3.94506e-10
3.94523e-10
3.94521e-10
3.945e-10
3.94455e-10
3.94394e-10
3.94302e-10
3.94191e-10
3.94038e-10
3.93857e-10
3.93625e-10
3.93368e-10
3.93067e-10
3.92691e-10
3.92312e-10
3.9193e-10
3.91526e-10
3.91211e-10
3.90937e-10
3.90864e-10
3.90946e-10
3.91376e-10
3.91976e-10
3.9308e-10
3.94069e-10
3.95527e-10
3.95903e-10
3.86119e-10
3.85649e-10
3.84061e-10
3.82994e-10
3.8183e-10
3.81203e-10
3.80767e-10
3.80687e-10
3.80773e-10
3.81075e-10
3.81418e-10
3.81852e-10
3.8227e-10
3.82677e-10
3.83083e-10
3.83406e-10
3.83688e-10
3.83935e-10
3.84131e-10
3.84293e-10
3.84412e-10
3.84508e-10
3.84571e-10
3.84614e-10
3.84633e-10
3.8463e-10
3.84607e-10
3.84558e-10
3.84494e-10
3.84395e-10
3.84275e-10
3.84111e-10
3.83917e-10
3.8367e-10
3.83394e-10
3.83075e-10
3.82673e-10
3.82272e-10
3.81863e-10
3.81435e-10
3.81102e-10
3.8081e-10
3.80728e-10
3.80811e-10
3.81253e-10
3.8188e-10
3.83052e-10
3.84126e-10
3.85719e-10
3.86195e-10
3.76175e-10
3.7561e-10
3.73919e-10
3.72784e-10
3.71569e-10
3.70921e-10
3.70476e-10
3.7039e-10
3.70478e-10
3.70788e-10
3.71139e-10
3.71583e-10
3.72014e-10
3.72429e-10
3.72845e-10
3.73174e-10
3.73463e-10
3.73713e-10
3.73914e-10
3.74079e-10
3.74199e-10
3.74296e-10
3.7436e-10
3.74404e-10
3.74423e-10
3.7442e-10
3.74397e-10
3.74348e-10
3.74282e-10
3.74182e-10
3.7406e-10
3.73894e-10
3.73696e-10
3.73444e-10
3.73163e-10
3.72838e-10
3.72427e-10
3.72017e-10
3.71595e-10
3.71157e-10
3.70818e-10
3.70517e-10
3.70432e-10
3.70521e-10
3.70973e-10
3.71621e-10
3.72844e-10
3.73988e-10
3.75684e-10
3.76254e-10
3.66432e-10
3.65784e-10
3.63987e-10
3.62788e-10
3.61521e-10
3.60855e-10
3.60399e-10
3.60309e-10
3.60399e-10
3.60716e-10
3.61074e-10
3.61528e-10
3.61973e-10
3.62397e-10
3.62821e-10
3.63156e-10
3.63451e-10
3.63705e-10
3.6391e-10
3.64077e-10
3.642e-10
3.64298e-10
3.64362e-10
3.64407e-10
3.64425e-10
3.64423e-10
3.64399e-10
3.64349e-10
3.64284e-10
3.64182e-10
3.64058e-10
3.6389e-10
3.63689e-10
3.63433e-10
3.63146e-10
3.62815e-10
3.62396e-10
3.61978e-10
3.61543e-10
3.61095e-10
3.60749e-10
3.6044e-10
3.60353e-10
3.60446e-10
3.60908e-10
3.61575e-10
3.62851e-10
3.6406e-10
3.65861e-10
3.66515e-10
3.56581e-10
3.55851e-10
3.53948e-10
3.52688e-10
3.51368e-10
3.50685e-10
3.50219e-10
3.50124e-10
3.50216e-10
3.50542e-10
3.50907e-10
3.51369e-10
3.51829e-10
3.52261e-10
3.52664e-10
3.53029e-10
3.53335e-10
3.53592e-10
3.53802e-10
3.53971e-10
3.54095e-10
3.54194e-10
3.5426e-10
3.54304e-10
3.54323e-10
3.5432e-10
3.54297e-10
3.54246e-10
3.54181e-10
3.54078e-10
3.53953e-10
3.53782e-10
3.53578e-10
3.53318e-10
3.5302e-10
3.52658e-10
3.52262e-10
3.51835e-10
3.51386e-10
3.50929e-10
3.50578e-10
3.50261e-10
3.5017e-10
3.50267e-10
3.5074e-10
3.51424e-10
3.52754e-10
3.54026e-10
3.55931e-10
3.56669e-10
3.46626e-10
3.45813e-10
3.43805e-10
3.42483e-10
3.41115e-10
3.40415e-10
3.3994e-10
3.3984e-10
3.39936e-10
3.4027e-10
3.40641e-10
3.41112e-10
3.41586e-10
3.42027e-10
3.42435e-10
3.42806e-10
3.43119e-10
3.43379e-10
3.43593e-10
3.43764e-10
3.4389e-10
3.4399e-10
3.44056e-10
3.44101e-10
3.4412e-10
3.44117e-10
3.44093e-10
3.44042e-10
3.43978e-10
3.43874e-10
3.43746e-10
3.43573e-10
3.43367e-10
3.43103e-10
3.428e-10
3.42431e-10
3.42029e-10
3.41594e-10
3.41131e-10
3.40665e-10
3.40309e-10
3.39983e-10
3.39889e-10
3.3999e-10
3.40472e-10
3.41173e-10
3.42555e-10
3.43889e-10
3.45897e-10
3.46705e-10
3.36569e-10
3.35675e-10
3.33566e-10
3.32181e-10
3.3077e-10
3.30053e-10
3.29568e-10
3.29466e-10
3.29565e-10
3.29907e-10
3.30283e-10
3.30764e-10
3.3125e-10
3.31701e-10
3.32114e-10
3.32491e-10
3.32811e-10
3.33073e-10
3.3329e-10
3.33462e-10
3.33589e-10
3.3369e-10
3.33757e-10
3.33802e-10
3.33821e-10
3.33818e-10
3.33794e-10
3.33743e-10
3.33678e-10
3.33574e-10
3.33445e-10
3.3327e-10
3.33061e-10
3.32794e-10
3.32485e-10
3.3211e-10
3.31703e-10
3.31259e-10
3.30784e-10
3.30308e-10
3.29947e-10
3.29614e-10
3.29516e-10
3.29619e-10
3.30111e-10
3.30829e-10
3.32258e-10
3.33654e-10
3.35764e-10
3.36654e-10
3.229e-10
3.23073e-10
3.23202e-10
3.23303e-10
3.23371e-10
3.23416e-10
3.23435e-10
3.23432e-10
3.23408e-10
3.23356e-10
3.23291e-10
3.23185e-10
3.23055e-10
3.22879e-10
3.22667e-10
3.22398e-10
3.22083e-10
3.21703e-10
3.21291e-10
3.20838e-10
3.20351e-10
3.19865e-10
3.19501e-10
3.19159e-10
3.19057e-10
3.19162e-10
3.19663e-10
3.20402e-10
3.21868e-10
3.23328e-10
3.25538e-10
3.26509e-10
3.12825e-10
3.12719e-10
3.12587e-10
3.1241e-10
3.12196e-10
3.11925e-10
3.11605e-10
3.1122e-10
3.10803e-10
3.10341e-10
3.09842e-10
3.09347e-10
3.08979e-10
3.08628e-10
3.08522e-10
3.0863e-10
3.09139e-10
3.09899e-10
3.11394e-10
3.12921e-10
3.15228e-10
3.16276e-10
2.98395e-10
2.98033e-10
2.97924e-10
2.98034e-10
2.98548e-10
2.99329e-10
3.00851e-10
3.02441e-10
3.04842e-10
3.05966e-10
)
;

boundaryField
{
    fuel
    {
        type            fixedValue;
        value           nonuniform 0();
    }
    wall
    {
        type            zeroGradient;
    }
    outlet
    {
        type            zeroGradient;
    }
    frontAndBack
    {
        type            empty;
    }
    procBoundary0to1
    {
        type            processor;
        value           nonuniform List<scalar> 
50
(
6.83431e-10
6.85654e-10
6.8771e-10
6.88873e-10
6.89269e-10
6.89476e-10
6.89406e-10
6.89466e-10
6.89448e-10
6.89553e-10
6.89614e-10
6.89748e-10
6.89839e-10
6.89968e-10
6.90056e-10
6.90162e-10
6.90231e-10
6.90308e-10
6.90356e-10
6.90407e-10
6.90437e-10
6.90467e-10
6.90484e-10
6.90498e-10
6.90504e-10
6.90503e-10
6.90497e-10
6.90481e-10
6.90464e-10
6.90433e-10
6.90403e-10
6.90352e-10
6.90304e-10
6.90228e-10
6.90159e-10
6.90055e-10
6.89968e-10
6.89842e-10
6.89752e-10
6.89621e-10
6.89561e-10
6.89457e-10
6.89477e-10
6.89418e-10
6.89489e-10
6.89283e-10
6.88888e-10
6.87724e-10
6.85671e-10
6.83451e-10
)
;
    }
    procBoundary0to2
    {
        type            processor;
        value           nonuniform List<scalar> 
53
(
3.26417e-10
3.25446e-10
3.23239e-10
3.21791e-10
3.20349e-10
3.19614e-10
3.1912e-10
3.19017e-10
3.1912e-10
3.19471e-10
3.19852e-10
3.20343e-10
3.20839e-10
3.213e-10
3.21719e-10
3.22099e-10
3.22426e-10
3.22689e-10
3.22689e-10
3.1244e-10
3.12615e-10
3.12744e-10
3.12846e-10
3.12913e-10
3.12959e-10
3.12978e-10
3.12975e-10
3.1295e-10
3.12898e-10
3.12898e-10
3.02298e-10
3.02191e-10
3.0206e-10
3.01882e-10
3.01666e-10
3.01394e-10
3.01068e-10
3.00681e-10
3.0026e-10
2.99788e-10
2.99277e-10
2.98777e-10
2.98777e-10
2.87769e-10
2.87397e-10
2.87285e-10
2.87396e-10
2.8791e-10
2.88709e-10
2.90258e-10
2.91906e-10
2.94392e-10
2.95586e-10
)
;
    }
}


// ************************************************************************* //
