/*--------------------------------*- C++ -*----------------------------------*\
| =========                 |                                                 |
| \\      /  F ield         | OpenFOAM: The Open Source CFD Toolbox           |
|  \\    /   O peration     | Version:  dev                                   |
|   \\  /    A nd           | Web:      www.OpenFOAM.org                      |
|    \\/     M anipulation  |                                                 |
\*---------------------------------------------------------------------------*/
FoamFile
{
    version     2.0;
    format      ascii;
    class       surfaceScalarField;
    location    "0.025";
    object      phi;
}
// * * * * * * * * * * * * * * * * * * * * * * * * * * * * * * * * * * * * * //

dimensions      [1 0 -1 0 0 0 0];

internalField   nonuniform List<scalar> 
3936
(
-2.09727e-07
2.56528e-06
-2.04304e-07
2.6279e-06
-1.96346e-07
2.65383e-06
-1.88087e-07
2.68455e-06
-1.79194e-07
2.68277e-06
-1.70258e-07
2.69353e-06
-1.612e-07
2.68564e-06
-1.52123e-07
2.69179e-06
-1.43054e-07
2.68713e-06
-1.33992e-07
2.69119e-06
-1.24958e-07
2.68869e-06
-1.15947e-07
2.69157e-06
-1.06962e-07
2.69003e-06
-9.80018e-08
2.69206e-06
-8.90588e-08
2.69095e-06
-8.01336e-08
2.69231e-06
-7.12163e-08
2.69146e-06
-6.23098e-08
2.69231e-06
-5.34047e-08
2.69166e-06
-4.4505e-08
2.69216e-06
-3.56041e-08
2.6917e-06
-2.67049e-08
2.69199e-06
-1.78038e-08
2.69172e-06
-8.90296e-09
2.69185e-06
-1.08172e-12
2.69177e-06
8.90089e-09
2.69176e-06
1.78022e-08
2.69185e-06
2.67039e-08
2.6917e-06
3.5604e-08
2.69198e-06
4.45059e-08
2.69168e-06
5.34067e-08
2.69215e-06
6.23128e-08
2.69163e-06
7.12204e-08
2.69229e-06
8.01388e-08
2.69143e-06
8.90652e-08
2.6923e-06
9.80092e-08
2.69092e-06
1.06971e-07
2.69205e-06
1.15956e-07
2.69001e-06
1.24967e-07
2.69156e-06
1.34001e-07
2.68867e-06
1.43064e-07
2.69119e-06
1.52132e-07
2.68712e-06
1.61209e-07
2.69179e-06
1.70266e-07
2.68565e-06
1.792e-07
2.69355e-06
1.88091e-07
2.68279e-06
1.96348e-07
2.68459e-06
2.04303e-07
2.65386e-06
2.09724e-07
2.62794e-06
2.56534e-06
-2.14325e-07
2.55921e-06
-2.08769e-07
2.62233e-06
-2.00676e-07
2.64573e-06
-1.92259e-07
2.67613e-06
-1.83182e-07
2.67369e-06
-1.74048e-07
2.68439e-06
-1.64793e-07
2.67639e-06
-1.55512e-07
2.6825e-06
-1.46241e-07
2.67786e-06
-1.36974e-07
2.68193e-06
-1.27738e-07
2.67945e-06
-1.18524e-07
2.68236e-06
-1.09339e-07
2.68085e-06
-1.00178e-07
2.68289e-06
-9.10347e-08
2.68181e-06
-8.19104e-08
2.68319e-06
-7.27944e-08
2.68234e-06
-6.369e-08
2.6832e-06
-5.45871e-08
2.68255e-06
-4.54902e-08
2.68306e-06
-3.63919e-08
2.6826e-06
-2.72957e-08
2.68289e-06
-1.81975e-08
2.68262e-06
-9.09984e-09
2.68275e-06
-9.64447e-13
2.68266e-06
9.09785e-09
2.68266e-06
1.81962e-08
2.68274e-06
2.72948e-08
2.6826e-06
3.63922e-08
2.68287e-06
4.54912e-08
2.68257e-06
5.45895e-08
2.68304e-06
6.36932e-08
2.68252e-06
7.27991e-08
2.68319e-06
8.19159e-08
2.68231e-06
9.10416e-08
2.68317e-06
1.00185e-07
2.68178e-06
1.09348e-07
2.68288e-06
1.18533e-07
2.68082e-06
1.27748e-07
2.68235e-06
1.36984e-07
2.67943e-06
1.46251e-07
2.68193e-06
1.55521e-07
2.67785e-06
1.64802e-07
2.68251e-06
1.74055e-07
2.67639e-06
1.83187e-07
2.68441e-06
1.92263e-07
2.67371e-06
2.00677e-07
2.67617e-06
2.08768e-07
2.64576e-06
2.14322e-07
2.62238e-06
2.55927e-06
-2.18916e-07
2.55304e-06
-2.13222e-07
2.61663e-06
-2.0499e-07
2.63749e-06
-1.96415e-07
2.66755e-06
-1.87154e-07
2.66442e-06
-1.77822e-07
2.67506e-06
-1.68372e-07
2.66694e-06
-1.58888e-07
2.67302e-06
-1.49415e-07
2.66839e-06
-1.39945e-07
2.67246e-06
-1.30507e-07
2.67002e-06
-1.21092e-07
2.67294e-06
-1.11706e-07
2.67146e-06
-1.02345e-07
2.67353e-06
-9.30028e-08
2.67247e-06
-8.36801e-08
2.67386e-06
-7.43664e-08
2.67303e-06
-6.50647e-08
2.6739e-06
-5.57648e-08
2.67325e-06
-4.64713e-08
2.67377e-06
-3.71766e-08
2.6733e-06
-2.78841e-08
2.67359e-06
-1.85897e-08
2.67332e-06
-9.29589e-09
2.67345e-06
-8.63674e-13
2.67337e-06
9.29405e-09
2.67336e-06
1.85887e-08
2.67345e-06
2.78834e-08
2.6733e-06
3.71771e-08
2.67358e-06
4.64725e-08
2.67328e-06
5.57676e-08
2.67375e-06
6.50682e-08
2.67322e-06
7.43715e-08
2.67388e-06
8.36859e-08
2.673e-06
9.30102e-08
2.67384e-06
1.02353e-07
2.67244e-06
1.11715e-07
2.67352e-06
1.21101e-07
2.67144e-06
1.30517e-07
2.67293e-06
1.39955e-07
2.67e-06
1.49425e-07
2.67246e-06
1.58898e-07
2.66838e-06
1.68381e-07
2.67303e-06
1.7783e-07
2.66694e-06
1.8716e-07
2.67508e-06
1.96419e-07
2.66445e-06
2.04992e-07
2.66759e-06
2.13221e-07
2.63753e-06
2.18913e-07
2.61668e-06
2.5531e-06
-2.23499e-07
2.54677e-06
-2.17663e-07
2.61078e-06
-2.09289e-07
2.62911e-06
-2.00554e-07
2.65881e-06
-1.9111e-07
2.65498e-06
-1.81582e-07
2.66553e-06
-1.71936e-07
2.65729e-06
-1.6225e-07
2.66334e-06
-1.52576e-07
2.65872e-06
-1.42904e-07
2.66279e-06
-1.33265e-07
2.66038e-06
-1.23649e-07
2.66333e-06
-1.14063e-07
2.66187e-06
-1.04503e-07
2.66397e-06
-9.49631e-08
2.66293e-06
-8.54428e-08
2.66434e-06
-7.59321e-08
2.66352e-06
-6.64338e-08
2.6644e-06
-5.69378e-08
2.66375e-06
-4.74484e-08
2.66428e-06
-3.79581e-08
2.66381e-06
-2.84701e-08
2.6641e-06
-1.89803e-08
2.66383e-06
-9.49112e-09
2.66396e-06
-7.7338e-13
2.66387e-06
9.48949e-09
2.66387e-06
1.89794e-08
2.66395e-06
2.84696e-08
2.66381e-06
3.79589e-08
2.66409e-06
4.74499e-08
2.66378e-06
5.69409e-08
2.66425e-06
6.64377e-08
2.66372e-06
7.59376e-08
2.66438e-06
8.5449e-08
2.66348e-06
9.49709e-08
2.66432e-06
1.04512e-07
2.6629e-06
1.14073e-07
2.66396e-06
1.23659e-07
2.66185e-06
1.33276e-07
2.66332e-06
1.42915e-07
2.66036e-06
1.52587e-07
2.66278e-06
1.6226e-07
2.65871e-06
1.71946e-07
2.66334e-06
1.8159e-07
2.6573e-06
1.91116e-07
2.66555e-06
2.00558e-07
2.655e-06
2.09291e-07
2.65885e-06
2.17662e-07
2.62915e-06
2.23496e-07
2.61083e-06
2.54683e-06
-2.28075e-07
2.54039e-06
-2.22091e-07
2.60479e-06
-2.13573e-07
2.62058e-06
-2.04676e-07
2.64991e-06
-1.9505e-07
2.64535e-06
-1.85326e-07
2.6558e-06
-1.75486e-07
2.64745e-06
-1.65599e-07
2.65345e-06
-1.55725e-07
2.64884e-06
-1.45851e-07
2.65292e-06
-1.36012e-07
2.65054e-06
-1.26196e-07
2.65351e-06
-1.16411e-07
2.65209e-06
-1.06653e-07
2.65422e-06
-9.69155e-08
2.65319e-06
-8.71983e-08
2.65462e-06
-7.74915e-08
2.65381e-06
-6.77973e-08
2.65471e-06
-5.81061e-08
2.65406e-06
-4.84215e-08
2.65459e-06
-3.87364e-08
2.65412e-06
-2.90537e-08
2.65442e-06
-1.93693e-08
2.65414e-06
-9.68554e-09
2.65427e-06
-6.75032e-13
2.65419e-06
9.68413e-09
2.65418e-06
1.93687e-08
2.65427e-06
2.90534e-08
2.65412e-06
3.87374e-08
2.6544e-06
4.84234e-08
2.6541e-06
5.81095e-08
2.65457e-06
6.78017e-08
2.65403e-06
7.74973e-08
2.65468e-06
8.7205e-08
2.65378e-06
9.69237e-08
2.6546e-06
1.06662e-07
2.65316e-06
1.16422e-07
2.6542e-06
1.26206e-07
2.65207e-06
1.36023e-07
2.6535e-06
1.45862e-07
2.65052e-06
1.55736e-07
2.65291e-06
1.6561e-07
2.64884e-06
1.75496e-07
2.65346e-06
1.85334e-07
2.64746e-06
1.95056e-07
2.65583e-06
2.0468e-07
2.64538e-06
2.13574e-07
2.64995e-06
2.22091e-07
2.62063e-06
2.28071e-07
2.60485e-06
2.54046e-06
-2.32642e-07
2.5339e-06
-2.26507e-07
2.59865e-06
-2.17841e-07
2.61191e-06
-2.0878e-07
2.64084e-06
-1.98974e-07
2.63554e-06
-1.89055e-07
2.64588e-06
-1.79022e-07
2.63742e-06
-1.68934e-07
2.64336e-06
-1.58861e-07
2.63877e-06
-1.48786e-07
2.64284e-06
-1.38748e-07
2.6405e-06
-1.28733e-07
2.6435e-06
-1.1875e-07
2.64211e-06
-1.08794e-07
2.64426e-06
-9.88599e-08
2.64326e-06
-8.89467e-08
2.64471e-06
-7.90445e-08
2.64391e-06
-6.91553e-08
2.64482e-06
-5.92695e-08
2.64417e-06
-4.93907e-08
2.64471e-06
-3.95115e-08
2.64424e-06
-2.96349e-08
2.64454e-06
-1.97567e-08
2.64426e-06
-9.87915e-09
2.6444e-06
-5.69419e-13
2.6443e-06
9.87798e-09
2.6443e-06
1.97563e-08
2.64439e-06
2.96349e-08
2.64424e-06
3.95128e-08
2.64452e-06
4.93928e-08
2.64421e-06
5.92733e-08
2.64469e-06
6.916e-08
2.64414e-06
7.90507e-08
2.64479e-06
8.89538e-08
2.64387e-06
9.88686e-08
2.64469e-06
1.08803e-07
2.64322e-06
1.18761e-07
2.64424e-06
1.28743e-07
2.64209e-06
1.3876e-07
2.64349e-06
1.48798e-07
2.64048e-06
1.58873e-07
2.64284e-06
1.68945e-07
2.63877e-06
1.79032e-07
2.64337e-06
1.89063e-07
2.63743e-06
1.98981e-07
2.64591e-06
2.08784e-07
2.63557e-06
2.17843e-07
2.64089e-06
2.26507e-07
2.61196e-06
2.32638e-07
2.5987e-06
2.53397e-06
-2.37201e-07
2.52729e-06
-2.3091e-07
2.59235e-06
-2.22094e-07
2.60309e-06
-2.12868e-07
2.63161e-06
-2.02882e-07
2.62555e-06
-1.92769e-07
2.63577e-06
-1.82542e-07
2.62719e-06
-1.72256e-07
2.63308e-06
-1.61984e-07
2.62851e-06
-1.5171e-07
2.63257e-06
-1.41473e-07
2.63027e-06
-1.31259e-07
2.63329e-06
-1.21079e-07
2.63193e-06
-1.10926e-07
2.63411e-06
-1.00796e-07
2.63313e-06
-9.06879e-08
2.6346e-06
-8.05911e-08
2.63381e-06
-7.05077e-08
2.63473e-06
-6.04281e-08
2.63409e-06
-5.03558e-08
2.63464e-06
-4.02834e-08
2.63417e-06
-3.02136e-08
2.63447e-06
-2.01425e-08
2.63419e-06
-1.00719e-08
2.63432e-06
-4.54768e-13
2.63423e-06
1.0071e-08
2.63423e-06
2.01423e-08
2.63431e-06
3.02139e-08
2.63417e-06
4.02849e-08
2.63445e-06
5.03583e-08
2.63414e-06
6.04322e-08
2.63461e-06
7.05128e-08
2.63406e-06
8.05977e-08
2.63471e-06
9.06954e-08
2.63378e-06
1.00806e-07
2.63458e-06
1.10936e-07
2.63309e-06
1.2109e-07
2.63409e-06
1.3127e-07
2.63191e-06
1.41485e-07
2.63328e-06
1.51721e-07
2.63025e-06
1.61996e-07
2.63257e-06
1.72267e-07
2.6285e-06
1.82553e-07
2.63309e-06
1.92777e-07
2.62721e-06
2.02888e-07
2.6358e-06
2.12872e-07
2.62559e-06
2.22096e-07
2.63166e-06
2.30909e-07
2.60314e-06
2.37196e-07
2.59241e-06
2.52736e-06
-2.4175e-07
2.52056e-06
-2.353e-07
2.58589e-06
-2.26332e-07
2.59411e-06
-2.16938e-07
2.62222e-06
-2.06774e-07
2.61539e-06
-1.96467e-07
2.62546e-06
-1.86048e-07
2.61678e-06
-1.75563e-07
2.6226e-06
-1.65094e-07
2.61804e-06
-1.5462e-07
2.6221e-06
-1.44186e-07
2.61984e-06
-1.33775e-07
2.62288e-06
-1.23398e-07
2.62156e-06
-1.1305e-07
2.62376e-06
-1.02725e-07
2.62281e-06
-9.24218e-08
2.6243e-06
-8.21313e-08
2.62352e-06
-7.18545e-08
2.62446e-06
-6.15819e-08
2.62382e-06
-5.13169e-08
2.62437e-06
-4.1052e-08
2.6239e-06
-3.07899e-08
2.6242e-06
-2.05266e-08
2.62392e-06
-1.02639e-08
2.62406e-06
-3.36471e-13
2.62397e-06
1.02633e-08
2.62396e-06
2.05266e-08
2.62405e-06
3.07905e-08
2.62391e-06
4.10539e-08
2.62418e-06
5.13197e-08
2.62387e-06
6.15864e-08
2.62434e-06
7.186e-08
2.62379e-06
8.21383e-08
2.62443e-06
9.24299e-08
2.62348e-06
1.02734e-07
2.62428e-06
1.1306e-07
2.62277e-06
1.2341e-07
2.62374e-06
1.33786e-07
2.62153e-06
1.44198e-07
2.62287e-06
1.54633e-07
2.61982e-06
1.65106e-07
2.6221e-06
1.75574e-07
2.61804e-06
1.86059e-07
2.62261e-06
1.96476e-07
2.61679e-06
2.0678e-07
2.6255e-06
2.16943e-07
2.61542e-06
2.26333e-07
2.62227e-06
2.35299e-07
2.59416e-06
2.41745e-07
2.58595e-06
2.52064e-06
-2.4629e-07
2.51372e-06
-2.39677e-07
2.57927e-06
-2.30553e-07
2.58498e-06
-2.20992e-07
2.61265e-06
-2.10648e-07
2.60504e-06
-2.0015e-07
2.61497e-06
-1.89539e-07
2.60617e-06
-1.78856e-07
2.61192e-06
-1.68191e-07
2.60738e-06
-1.57519e-07
2.61143e-06
-1.46888e-07
2.60921e-06
-1.3628e-07
2.61228e-06
-1.25708e-07
2.61099e-06
-1.15164e-07
2.61322e-06
-1.04645e-07
2.61229e-06
-9.41486e-08
2.61381e-06
-8.3665e-08
2.61304e-06
-7.31956e-08
2.61399e-06
-6.27309e-08
2.61336e-06
-5.22739e-08
2.61391e-06
-4.18174e-08
2.61345e-06
-3.13638e-08
2.61375e-06
-2.09091e-08
2.61347e-06
-1.04551e-08
2.6136e-06
-2.01113e-13
2.61351e-06
1.04547e-08
2.61351e-06
2.09094e-08
2.61359e-06
3.13647e-08
2.61345e-06
4.18196e-08
2.61373e-06
5.22772e-08
2.61342e-06
6.27357e-08
2.61389e-06
7.32016e-08
2.61332e-06
8.36725e-08
2.61396e-06
9.41572e-08
2.613e-06
1.04655e-07
2.61378e-06
1.15175e-07
2.61225e-06
1.2572e-07
2.6132e-06
1.36292e-07
2.61097e-06
1.46901e-07
2.61226e-06
1.57532e-07
2.60919e-06
1.68203e-07
2.61143e-06
1.78868e-07
2.60738e-06
1.8955e-07
2.61193e-06
2.00158e-07
2.60619e-06
2.10655e-07
2.615e-06
2.20996e-07
2.60508e-06
2.30555e-07
2.61271e-06
2.39676e-07
2.58504e-06
2.46285e-07
2.57934e-06
2.51379e-06
-2.50819e-07
2.50674e-06
-2.44041e-07
2.57248e-06
-2.34759e-07
2.5757e-06
-2.25028e-07
2.60292e-06
-2.14507e-07
2.59452e-06
-2.03816e-07
2.60428e-06
-1.93015e-07
2.59537e-06
-1.82135e-07
2.60104e-06
-1.71274e-07
2.59652e-06
-1.60405e-07
2.60057e-06
-1.49578e-07
2.59839e-06
-1.38775e-07
2.60148e-06
-1.28008e-07
2.60023e-06
-1.1727e-07
2.60249e-06
-1.06558e-07
2.60158e-06
-9.58681e-08
2.60312e-06
-8.51923e-08
2.60236e-06
-7.45311e-08
2.60333e-06
-6.3875e-08
2.6027e-06
-5.32269e-08
2.60327e-06
-4.25796e-08
2.6028e-06
-3.19353e-08
2.60311e-06
-2.129e-08
2.60282e-06
-1.06454e-08
2.60296e-06
-5.07065e-14
2.60287e-06
1.06454e-08
2.60286e-06
2.12906e-08
2.60295e-06
3.19365e-08
2.6028e-06
4.25821e-08
2.60308e-06
5.32306e-08
2.60277e-06
6.38803e-08
2.60324e-06
7.45376e-08
2.60266e-06
8.52003e-08
2.6033e-06
9.58772e-08
2.60233e-06
1.06568e-07
2.60309e-06
1.17282e-07
2.60154e-06
1.28021e-07
2.60247e-06
1.38787e-07
2.6002e-06
1.49592e-07
2.60146e-06
1.60419e-07
2.59837e-06
1.71287e-07
2.60057e-06
1.82147e-07
2.59652e-06
1.93026e-07
2.60106e-06
2.03825e-07
2.59539e-06
2.14513e-07
2.60432e-06
2.25032e-07
2.59456e-06
2.34761e-07
2.60297e-06
2.44039e-07
2.57575e-06
2.50814e-07
2.57255e-06
2.50682e-06
-2.55339e-07
2.49964e-06
-2.4839e-07
2.56552e-06
-2.3895e-07
2.56625e-06
-2.29046e-07
2.59301e-06
-2.18349e-07
2.58382e-06
-2.07467e-07
2.5934e-06
-1.96476e-07
2.58439e-06
-1.854e-07
2.58997e-06
-1.74345e-07
2.58547e-06
-1.63279e-07
2.58951e-06
-1.52258e-07
2.58738e-06
-1.41259e-07
2.59048e-06
-1.30298e-07
2.58927e-06
-1.19367e-07
2.59156e-06
-1.08462e-07
2.59068e-06
-9.75804e-08
2.59224e-06
-8.67132e-08
2.5915e-06
-7.5861e-08
2.59248e-06
-6.50143e-08
2.59186e-06
-5.41759e-08
2.59243e-06
-4.33385e-08
2.59196e-06
-3.25043e-08
2.59227e-06
-2.16692e-08
2.59199e-06
-1.0835e-08
2.59212e-06
1.01857e-13
2.59203e-06
1.08352e-08
2.59202e-06
2.16702e-08
2.59211e-06
3.25059e-08
2.59197e-06
4.33414e-08
2.59225e-06
5.418e-08
2.59193e-06
6.502e-08
2.5924e-06
7.58679e-08
2.59182e-06
8.67216e-08
2.59245e-06
9.759e-08
2.59146e-06
1.08473e-07
2.59221e-06
1.19379e-07
2.59064e-06
1.30311e-07
2.59154e-06
1.41272e-07
2.58925e-06
1.52271e-07
2.59047e-06
1.63293e-07
2.58736e-06
1.74358e-07
2.58951e-06
1.85412e-07
2.58547e-06
1.96487e-07
2.58999e-06
2.07477e-07
2.58441e-06
2.18355e-07
2.59344e-06
2.29051e-07
2.58387e-06
2.38951e-07
2.59307e-06
2.48389e-07
2.56631e-06
2.55334e-07
2.5656e-06
2.49972e-06
-2.59848e-07
2.4924e-06
-2.52726e-07
2.55839e-06
-2.43124e-07
2.55664e-06
-2.33048e-07
2.58293e-06
-2.22174e-07
2.57295e-06
-2.11102e-07
2.58233e-06
-1.99921e-07
2.57321e-06
-1.8865e-07
2.57871e-06
-1.77401e-07
2.57423e-06
-1.66141e-07
2.57826e-06
-1.54925e-07
2.57617e-06
-1.43732e-07
2.5793e-06
-1.32579e-07
2.57813e-06
-1.21455e-07
2.58044e-06
-1.10358e-07
2.57959e-06
-9.92855e-08
2.58117e-06
-8.82277e-08
2.58045e-06
-7.71852e-08
2.58144e-06
-6.61488e-08
2.58082e-06
-5.51209e-08
2.5814e-06
-4.40942e-08
2.58094e-06
-3.30709e-08
2.58125e-06
-2.20468e-08
2.58096e-06
-1.10237e-08
2.5811e-06
2.62502e-13
2.58101e-06
1.10243e-08
2.581e-06
2.20482e-08
2.58109e-06
3.30729e-08
2.58094e-06
4.40975e-08
2.58122e-06
5.51254e-08
2.5809e-06
6.61549e-08
2.58137e-06
7.71927e-08
2.58078e-06
8.82366e-08
2.58141e-06
9.92956e-08
2.5804e-06
1.1037e-07
2.58114e-06
1.21468e-07
2.57955e-06
1.32593e-07
2.58042e-06
1.43746e-07
2.5781e-06
1.54939e-07
2.57928e-06
1.66155e-07
2.57615e-06
1.77415e-07
2.57825e-06
1.88663e-07
2.57423e-06
1.99933e-07
2.57872e-06
2.11112e-07
2.57323e-06
2.22181e-07
2.58237e-06
2.33052e-07
2.57299e-06
2.43125e-07
2.58299e-06
2.52725e-07
2.5567e-06
2.59842e-07
2.55847e-06
2.49249e-06
-2.64345e-07
2.48503e-06
-2.57048e-07
2.55108e-06
-2.47282e-07
2.54687e-06
-2.37032e-07
2.57268e-06
-2.25982e-07
2.5619e-06
-2.14721e-07
2.57107e-06
-2.03352e-07
2.56185e-06
-1.91887e-07
2.56725e-06
-1.80445e-07
2.5628e-06
-1.6899e-07
2.56681e-06
-1.57581e-07
2.56476e-06
-1.46195e-07
2.56792e-06
-1.3485e-07
2.56679e-06
-1.23534e-07
2.56913e-06
-1.12247e-07
2.5683e-06
-1.00983e-07
2.56991e-06
-8.97357e-08
2.5692e-06
-7.85038e-08
2.57021e-06
-6.72784e-08
2.5696e-06
-5.60618e-08
2.57019e-06
-4.48467e-08
2.56972e-06
-3.36351e-08
2.57004e-06
-2.24229e-08
2.56975e-06
-1.12116e-08
2.56989e-06
4.31951e-13
2.5698e-06
1.12125e-08
2.56979e-06
2.24245e-08
2.56988e-06
3.36375e-08
2.56973e-06
4.48504e-08
2.57001e-06
5.60667e-08
2.56969e-06
6.7285e-08
2.57015e-06
7.85118e-08
2.56956e-06
8.97451e-08
2.57018e-06
1.00994e-07
2.56916e-06
1.12259e-07
2.56988e-06
1.23547e-07
2.56826e-06
1.34864e-07
2.56911e-06
1.4621e-07
2.56676e-06
1.57596e-07
2.5679e-06
1.69005e-07
2.56474e-06
1.80459e-07
2.56681e-06
1.919e-07
2.5628e-06
2.03364e-07
2.56727e-06
2.14731e-07
2.56187e-06
2.25989e-07
2.57112e-06
2.37036e-07
2.56195e-06
2.47283e-07
2.57274e-06
2.57047e-07
2.54693e-06
2.6434e-07
2.55117e-06
2.48512e-06
-2.68832e-07
2.47753e-06
-2.61356e-07
2.5436e-06
-2.51424e-07
2.53693e-06
-2.40999e-07
2.56225e-06
-2.29774e-07
2.55068e-06
-2.18324e-07
2.55963e-06
-2.06767e-07
2.5503e-06
-1.95109e-07
2.5556e-06
-1.83475e-07
2.55117e-06
-1.71827e-07
2.55517e-06
-1.60226e-07
2.55317e-06
-1.48648e-07
2.55635e-06
-1.37111e-07
2.55526e-06
-1.25604e-07
2.55763e-06
-1.14127e-07
2.55683e-06
-1.02674e-07
2.55847e-06
-9.12374e-08
2.55777e-06
-7.98169e-08
2.55879e-06
-6.84033e-08
2.55819e-06
-5.69987e-08
2.55879e-06
-4.5596e-08
2.55832e-06
-3.41969e-08
2.55864e-06
-2.27973e-08
2.55835e-06
-1.13987e-08
2.55849e-06
6.10473e-13
2.5584e-06
1.14e-08
2.55839e-06
2.27993e-08
2.55848e-06
3.41997e-08
2.55833e-06
4.56001e-08
2.55861e-06
5.70041e-08
2.55829e-06
6.84103e-08
2.55875e-06
7.98254e-08
2.55815e-06
9.12472e-08
2.55876e-06
1.02685e-07
2.55773e-06
1.14139e-07
2.55843e-06
1.25618e-07
2.55679e-06
1.37126e-07
2.55761e-06
1.48662e-07
2.55523e-06
1.60241e-07
2.55633e-06
1.71842e-07
2.55315e-06
1.8349e-07
2.55517e-06
1.95122e-07
2.55117e-06
2.06779e-07
2.55562e-06
2.18334e-07
2.55032e-06
2.29781e-07
2.55968e-06
2.41003e-07
2.55073e-06
2.51426e-07
2.56232e-06
2.61354e-07
2.53699e-06
2.68826e-07
2.54368e-06
2.47762e-06
-2.73308e-07
2.46988e-06
-2.6565e-07
2.53593e-06
-2.55551e-07
2.52682e-06
-2.44948e-07
2.55164e-06
-2.33549e-07
2.53928e-06
-2.21911e-07
2.548e-06
-2.10167e-07
2.53856e-06
-1.98316e-07
2.54376e-06
-1.86492e-07
2.53936e-06
-1.74651e-07
2.54334e-06
-1.62859e-07
2.54139e-06
-1.51089e-07
2.54459e-06
-1.39362e-07
2.54354e-06
-1.27666e-07
2.54594e-06
-1.15999e-07
2.54517e-06
-1.04357e-07
2.54683e-06
-9.27327e-08
2.54615e-06
-8.11244e-08
2.54719e-06
-6.95234e-08
2.54659e-06
-5.79317e-08
2.5472e-06
-4.63421e-08
2.54673e-06
-3.47563e-08
2.54706e-06
-2.31701e-08
2.54677e-06
-1.15849e-08
2.54691e-06
7.98199e-13
2.54681e-06
1.15867e-08
2.54681e-06
2.31725e-08
2.5469e-06
3.47595e-08
2.54675e-06
4.63466e-08
2.54703e-06
5.79376e-08
2.5467e-06
6.95309e-08
2.54716e-06
8.11334e-08
2.54655e-06
9.2743e-08
2.54715e-06
1.04369e-07
2.54611e-06
1.16012e-07
2.5468e-06
1.2768e-07
2.54513e-06
1.39377e-07
2.54592e-06
1.51105e-07
2.54351e-06
1.62875e-07
2.54457e-06
1.74667e-07
2.54137e-06
1.86507e-07
2.54334e-06
1.9833e-07
2.53936e-06
2.10179e-07
2.54378e-06
2.21921e-07
2.53859e-06
2.33556e-07
2.54805e-06
2.44953e-07
2.53933e-06
2.55552e-07
2.55172e-06
2.65648e-07
2.52689e-06
2.73301e-07
2.53602e-06
2.46997e-06
-2.77771e-07
2.46209e-06
-2.69929e-07
2.52807e-06
-2.59661e-07
2.51655e-06
-2.48881e-07
2.54086e-06
-2.37307e-07
2.52771e-06
-2.25481e-07
2.53618e-06
-2.13551e-07
2.52664e-06
-2.01509e-07
2.53173e-06
-1.89495e-07
2.52735e-06
-1.77463e-07
2.53132e-06
-1.6548e-07
2.52942e-06
-1.53521e-07
2.53264e-06
-1.41604e-07
2.53163e-06
-1.29718e-07
2.53407e-06
-1.17863e-07
2.53332e-06
-1.06034e-07
2.53501e-06
-9.42216e-08
2.53434e-06
-8.24263e-08
2.5354e-06
-7.06387e-08
2.53481e-06
-5.88607e-08
2.53542e-06
-4.7085e-08
2.53496e-06
-3.53133e-08
2.53529e-06
-2.35413e-08
2.535e-06
-1.17704e-08
2.53514e-06
9.95205e-13
2.53504e-06
1.17726e-08
2.53504e-06
2.35441e-08
2.53513e-06
3.53169e-08
2.53498e-06
4.709e-08
2.53526e-06
5.88671e-08
2.53492e-06
7.06467e-08
2.53538e-06
8.24359e-08
2.53476e-06
9.42325e-08
2.53536e-06
1.06046e-07
2.5343e-06
1.17877e-07
2.53497e-06
1.29733e-07
2.53328e-06
1.4162e-07
2.53404e-06
1.53537e-07
2.5316e-06
1.65497e-07
2.53262e-06
1.77479e-07
2.5294e-06
1.89511e-07
2.53132e-06
2.01524e-07
2.52736e-06
2.13564e-07
2.53175e-06
2.25492e-07
2.52667e-06
2.37314e-07
2.53623e-06
2.48886e-07
2.52776e-06
2.59662e-07
2.54094e-06
2.69927e-07
2.51662e-06
2.77765e-07
2.52817e-06
2.46218e-06
-2.82223e-07
2.45415e-06
-2.74194e-07
2.52003e-06
-2.63755e-07
2.5061e-06
-2.52796e-07
2.5299e-06
-2.41048e-07
2.51596e-06
-2.29036e-07
2.52417e-06
-2.1692e-07
2.51453e-06
-2.04688e-07
2.51951e-06
-1.92485e-07
2.51516e-06
-1.80262e-07
2.51911e-06
-1.6809e-07
2.51726e-06
-1.55941e-07
2.5205e-06
-1.43836e-07
2.51954e-06
-1.31762e-07
2.522e-06
-1.19719e-07
2.52129e-06
-1.07703e-07
2.523e-06
-9.57042e-08
2.52235e-06
-8.37227e-08
2.52342e-06
-7.17493e-08
2.52284e-06
-5.97858e-08
2.52346e-06
-4.78248e-08
2.52301e-06
-3.58679e-08
2.52334e-06
-2.39109e-08
2.52305e-06
-1.19551e-08
2.52319e-06
1.20154e-12
2.52309e-06
1.19577e-08
2.52308e-06
2.39142e-08
2.52317e-06
3.5872e-08
2.52302e-06
4.78303e-08
2.52331e-06
5.97926e-08
2.52297e-06
7.17579e-08
2.52342e-06
8.37329e-08
2.52279e-06
9.57157e-08
2.52338e-06
1.07716e-07
2.5223e-06
1.19734e-07
2.52296e-06
1.31778e-07
2.52125e-06
1.43852e-07
2.52198e-06
1.55958e-07
2.51951e-06
1.68107e-07
2.52048e-06
1.80279e-07
2.51724e-06
1.92501e-07
2.51911e-06
2.04703e-07
2.51517e-06
2.16933e-07
2.51953e-06
2.29047e-07
2.51457e-06
2.41056e-07
2.52423e-06
2.52801e-07
2.51602e-06
2.63756e-07
2.52998e-06
2.74192e-07
2.50618e-06
2.82217e-07
2.52013e-06
2.45424e-06
-2.86664e-07
2.44606e-06
-2.78445e-07
2.5118e-06
-2.67833e-07
2.49548e-06
-2.56695e-07
2.51876e-06
-2.44773e-07
2.50404e-06
-2.32574e-07
2.51198e-06
-2.20274e-07
2.50225e-06
-2.07853e-07
2.5071e-06
-1.95462e-07
2.50279e-06
-1.83049e-07
2.50671e-06
-1.70689e-07
2.50491e-06
-1.58351e-07
2.50817e-06
-1.46059e-07
2.50726e-06
-1.33797e-07
2.50975e-06
-1.21568e-07
2.50907e-06
-1.09365e-07
2.51081e-06
-9.71806e-08
2.51018e-06
-8.50137e-08
2.51126e-06
-7.28553e-08
2.51069e-06
-6.0707e-08
2.51132e-06
-4.85615e-08
2.51086e-06
-3.64202e-08
2.5112e-06
-2.4279e-08
2.51091e-06
-1.2139e-08
2.51105e-06
1.41724e-12
2.51095e-06
1.2142e-08
2.51095e-06
2.42827e-08
2.51104e-06
3.64248e-08
2.51089e-06
4.85674e-08
2.51117e-06
6.07143e-08
2.51082e-06
7.28644e-08
2.51128e-06
8.50244e-08
2.51064e-06
9.71926e-08
2.51122e-06
1.09378e-07
2.51013e-06
1.21583e-07
2.51077e-06
1.33813e-07
2.50902e-06
1.46075e-07
2.50972e-06
1.58369e-07
2.50723e-06
1.70706e-07
2.50816e-06
1.83066e-07
2.50489e-06
1.95478e-07
2.50671e-06
2.07868e-07
2.50279e-06
2.20288e-07
2.50712e-06
2.32585e-07
2.50228e-06
2.44781e-07
2.51204e-06
2.567e-07
2.5041e-06
2.67835e-07
2.51884e-06
2.78443e-07
2.49556e-06
2.86657e-07
2.51191e-06
2.44616e-06
-2.91092e-07
2.43782e-06
-2.82681e-07
2.50338e-06
-2.71896e-07
2.48469e-06
-2.60576e-07
2.50744e-06
-2.48482e-07
2.49195e-06
-2.36097e-07
2.4996e-06
-2.23613e-07
2.48978e-06
-2.11003e-07
2.4945e-06
-1.98425e-07
2.49022e-06
-1.85824e-07
2.49412e-06
-1.73277e-07
2.49238e-06
-1.60751e-07
2.49566e-06
-1.48271e-07
2.49479e-06
-1.35824e-07
2.49732e-06
-1.23408e-07
2.49666e-06
-1.1102e-07
2.49843e-06
-9.86508e-08
2.49781e-06
-8.62992e-08
2.49892e-06
-7.39566e-08
2.49835e-06
-6.16243e-08
2.499e-06
-4.9295e-08
2.49854e-06
-3.69702e-08
2.49888e-06
-2.46455e-08
2.49859e-06
-1.23222e-08
2.49874e-06
1.64231e-12
2.49863e-06
1.23256e-08
2.49863e-06
2.46497e-08
2.49872e-06
3.69753e-08
2.49856e-06
4.93015e-08
2.49885e-06
6.16322e-08
2.4985e-06
7.39662e-08
2.49895e-06
8.63106e-08
2.4983e-06
9.86634e-08
2.49888e-06
1.11034e-07
2.49776e-06
1.23424e-07
2.49839e-06
1.35841e-07
2.49662e-06
1.48289e-07
2.49729e-06
1.60769e-07
2.49476e-06
1.73294e-07
2.49564e-06
1.85842e-07
2.49236e-06
1.98442e-07
2.49412e-06
2.11018e-07
2.49023e-06
2.23627e-07
2.49452e-06
2.36108e-07
2.48981e-06
2.4849e-07
2.49967e-06
2.60581e-07
2.49202e-06
2.71897e-07
2.50753e-06
2.82679e-07
2.48477e-06
2.91085e-07
2.50349e-06
2.43792e-06
-2.95508e-07
2.42942e-06
-2.86903e-07
2.49476e-06
-2.75942e-07
2.47373e-06
-2.64441e-07
2.49594e-06
-2.52174e-07
2.47969e-06
-2.39604e-07
2.48704e-06
-2.26937e-07
2.47712e-06
-2.14139e-07
2.48172e-06
-2.01375e-07
2.47747e-06
-1.88587e-07
2.48135e-06
-1.75853e-07
2.47966e-06
-1.63141e-07
2.48296e-06
-1.50475e-07
2.48214e-06
-1.37842e-07
2.4847e-06
-1.25241e-07
2.48408e-06
-1.12668e-07
2.48587e-06
-1.00115e-07
2.48527e-06
-8.75794e-08
2.48639e-06
-7.50533e-08
2.48583e-06
-6.25378e-08
2.48649e-06
-5.00256e-08
2.48604e-06
-3.75179e-08
2.48638e-06
-2.50105e-08
2.48609e-06
-1.25045e-08
2.48623e-06
1.87677e-12
2.48613e-06
1.25084e-08
2.48613e-06
2.50152e-08
2.48622e-06
3.75235e-08
2.48606e-06
5.00325e-08
2.48634e-06
6.25463e-08
2.48599e-06
7.50635e-08
2.48644e-06
8.75914e-08
2.48578e-06
1.00128e-07
2.48635e-06
1.12683e-07
2.48522e-06
1.25257e-07
2.48582e-06
1.37859e-07
2.48403e-06
1.50493e-07
2.48467e-06
1.63159e-07
2.48211e-06
1.75871e-07
2.48295e-06
1.88605e-07
2.47964e-06
2.01393e-07
2.48135e-06
2.14155e-07
2.47748e-06
2.26951e-07
2.48174e-06
2.39615e-07
2.47716e-06
2.52182e-07
2.48711e-06
2.64446e-07
2.47976e-06
2.75943e-07
2.49603e-06
2.86901e-07
2.47381e-06
2.95501e-07
2.49487e-06
2.42953e-06
-2.99912e-07
2.42087e-06
-2.9111e-07
2.48594e-06
-2.79973e-07
2.46258e-06
-2.68289e-07
2.48425e-06
-2.55849e-07
2.46726e-06
-2.43094e-07
2.4743e-06
-2.30246e-07
2.46429e-06
-2.17261e-07
2.46875e-06
-2.04313e-07
2.46454e-06
-1.91337e-07
2.46839e-06
-1.78418e-07
2.46675e-06
-1.6552e-07
2.47008e-06
-1.52669e-07
2.4693e-06
-1.39851e-07
2.47189e-06
-1.27066e-07
2.4713e-06
-1.1431e-07
2.47312e-06
-1.01573e-07
2.47254e-06
-8.88544e-08
2.47368e-06
-7.61455e-08
2.47313e-06
-6.34476e-08
2.4738e-06
-5.07531e-08
2.47335e-06
-3.80633e-08
2.4737e-06
-2.5374e-08
2.47341e-06
-1.26861e-08
2.47355e-06
2.12061e-12
2.47345e-06
1.26905e-08
2.47344e-06
2.53792e-08
2.47353e-06
3.80694e-08
2.47338e-06
5.07606e-08
2.47366e-06
6.34566e-08
2.4733e-06
7.61563e-08
2.47375e-06
8.8867e-08
2.47308e-06
1.01587e-07
2.47364e-06
1.14325e-07
2.47249e-06
1.27083e-07
2.47308e-06
1.39869e-07
2.47125e-06
1.52688e-07
2.47186e-06
1.65539e-07
2.46927e-06
1.78437e-07
2.47006e-06
1.91356e-07
2.46673e-06
2.0433e-07
2.46839e-06
2.17278e-07
2.46455e-06
2.30261e-07
2.46877e-06
2.43106e-07
2.46433e-06
2.55858e-07
2.47437e-06
2.68294e-07
2.46733e-06
2.79974e-07
2.48435e-06
2.91108e-07
2.46267e-06
2.99905e-07
2.48606e-06
2.42098e-06
-3.04304e-07
2.41216e-06
-2.95303e-07
2.47693e-06
-2.83988e-07
2.45126e-06
-2.7212e-07
2.47239e-06
-2.59509e-07
2.45465e-06
-2.4657e-07
2.46137e-06
-2.3354e-07
2.45128e-06
-2.2037e-07
2.4556e-06
-2.07237e-07
2.45143e-06
-1.94076e-07
2.45524e-06
-1.80972e-07
2.45367e-06
-1.67889e-07
2.45702e-06
-1.54854e-07
2.45628e-06
-1.41852e-07
2.45891e-06
-1.28884e-07
2.45835e-06
-1.15944e-07
2.46019e-06
-1.03025e-07
2.45964e-06
-9.01241e-08
2.46079e-06
-7.72333e-08
2.46025e-06
-6.43536e-08
2.46093e-06
-5.14777e-08
2.46048e-06
-3.86066e-08
2.46083e-06
-2.5736e-08
2.46054e-06
-1.2867e-08
2.46069e-06
2.3738e-12
2.46059e-06
1.28719e-08
2.46058e-06
2.57417e-08
2.46067e-06
3.86132e-08
2.46051e-06
5.14857e-08
2.46079e-06
6.43632e-08
2.46043e-06
7.72447e-08
2.46088e-06
9.01374e-08
2.4602e-06
1.03039e-07
2.46075e-06
1.1596e-07
2.45958e-06
1.28901e-07
2.46015e-06
1.41871e-07
2.4583e-06
1.54874e-07
2.45887e-06
1.67909e-07
2.45625e-06
1.80991e-07
2.457e-06
1.94095e-07
2.45365e-06
2.07255e-07
2.45525e-06
2.20386e-07
2.45144e-06
2.33555e-07
2.45562e-06
2.46582e-07
2.45132e-06
2.59517e-07
2.46144e-06
2.72126e-07
2.45472e-06
2.83989e-07
2.47248e-06
2.95301e-07
2.45135e-06
3.04296e-07
2.47706e-06
2.41227e-06
-3.08684e-07
2.40329e-06
-2.99482e-07
2.46772e-06
-2.87988e-07
2.43976e-06
-2.75936e-07
2.46033e-06
-2.63153e-07
2.44188e-06
-2.5003e-07
2.44826e-06
-2.3682e-07
2.43809e-06
-2.23464e-07
2.44226e-06
-2.10148e-07
2.43813e-06
-1.96803e-07
2.44192e-06
-1.83515e-07
2.4404e-06
-1.70248e-07
2.44377e-06
-1.5703e-07
2.44308e-06
-1.43845e-07
2.44574e-06
-1.30694e-07
2.44521e-06
-1.17572e-07
2.44709e-06
-1.04471e-07
2.44655e-06
-9.13887e-08
2.44772e-06
-7.83167e-08
2.44719e-06
-6.52561e-08
2.44788e-06
-5.21993e-08
2.44743e-06
-3.91476e-08
2.44779e-06
-2.60965e-08
2.4475e-06
-1.30471e-08
2.44765e-06
2.63633e-12
2.44755e-06
1.30525e-08
2.44754e-06
2.61028e-08
2.44763e-06
3.91548e-08
2.44747e-06
5.22079e-08
2.44775e-06
6.52662e-08
2.44739e-06
7.83287e-08
2.44782e-06
9.14026e-08
2.44713e-06
1.04486e-07
2.44768e-06
1.17589e-07
2.44649e-06
1.30712e-07
2.44704e-06
1.43865e-07
2.44516e-06
1.5705e-07
2.4457e-06
1.70269e-07
2.44305e-06
1.83535e-07
2.44375e-06
1.96823e-07
2.44038e-06
2.10167e-07
2.44192e-06
2.23481e-07
2.43814e-06
2.36835e-07
2.44229e-06
2.50042e-07
2.43813e-06
2.63161e-07
2.44834e-06
2.75941e-07
2.44195e-06
2.87989e-07
2.46044e-06
2.9948e-07
2.43985e-06
3.08676e-07
2.46785e-06
2.4034e-06
-3.13052e-07
2.39425e-06
-3.03647e-07
2.4583e-06
-2.91973e-07
2.42808e-06
-2.79735e-07
2.4481e-06
-2.66781e-07
2.42893e-06
-2.53474e-07
2.43497e-06
-2.40085e-07
2.42472e-06
-2.26545e-07
2.42874e-06
-2.13047e-07
2.42465e-06
-1.99518e-07
2.42841e-06
-1.86047e-07
2.42695e-06
-1.72598e-07
2.43034e-06
-1.59197e-07
2.4297e-06
-1.4583e-07
2.43239e-06
-1.32497e-07
2.4319e-06
-1.19194e-07
2.4338e-06
-1.05911e-07
2.43328e-06
-9.26484e-08
2.43447e-06
-7.93958e-08
2.43395e-06
-6.61549e-08
2.43465e-06
-5.29181e-08
2.43421e-06
-3.96865e-08
2.43457e-06
-2.64556e-08
2.43428e-06
-1.32265e-08
2.43443e-06
2.90814e-12
2.43433e-06
1.32325e-08
2.43432e-06
2.64624e-08
2.43441e-06
3.96943e-08
2.43425e-06
5.29273e-08
2.43453e-06
6.61657e-08
2.43416e-06
7.94085e-08
2.43459e-06
9.26629e-08
2.43389e-06
1.05927e-07
2.43443e-06
1.19211e-07
2.43322e-06
1.32516e-07
2.43375e-06
1.4585e-07
2.43184e-06
1.59218e-07
2.43235e-06
1.72619e-07
2.42967e-06
1.86068e-07
2.43032e-06
1.99538e-07
2.42693e-06
2.13067e-07
2.42842e-06
2.26563e-07
2.42466e-06
2.40101e-07
2.42877e-06
2.53487e-07
2.42476e-06
2.66789e-07
2.43505e-06
2.79741e-07
2.429e-06
2.91974e-07
2.4482e-06
3.03644e-07
2.42817e-06
3.13044e-07
2.45844e-06
2.39436e-06
-3.17408e-07
2.38504e-06
-3.07797e-07
2.44868e-06
-2.95942e-07
2.41621e-06
-2.83519e-07
2.43568e-06
-2.70393e-07
2.41581e-06
-2.56904e-07
2.42149e-06
-2.43336e-07
2.41117e-06
-2.29613e-07
2.41504e-06
-2.15934e-07
2.411e-06
-2.02221e-07
2.41472e-06
-1.88569e-07
2.41332e-06
-1.74938e-07