/*--------------------------------*- C++ -*----------------------------------*\
| =========                 |                                                 |
| \\      /  F ield         | OpenFOAM: The Open Source CFD Toolbox           |
|  \\    /   O peration     | Version:  dev                                   |
|   \\  /    A nd           | Web:      www.OpenFOAM.org                      |
|    \\/     M anipulation  |                                                 |
\*---------------------------------------------------------------------------*/
FoamFile
{
    version     2.0;
    format      ascii;
    class       volScalarField;
    location    "0.155";
    object      A1C2H22;
}
// * * * * * * * * * * * * * * * * * * * * * * * * * * * * * * * * * * * * * //

dimensions      [0 0 0 0 0 0 0];

internalField   nonuniform List<scalar> 
50
(
1.4569e-18
1.33735e-18
1.22839e-18
1.12912e-18
1.03999e-18
9.58601e-19
8.83824e-19
8.15798e-19
7.53853e-19
6.98215e-19
6.46943e-19
5.99961e-19
5.57645e-19
5.1894e-19
4.83519e-19
4.51083e-19
4.21364e-19
3.94123e-19
3.68907e-19
3.45961e-19
3.24883e-19
3.05339e-19
2.87238e-19
2.70806e-19
2.55647e-19
2.41655e-19
2.28731e-19
2.16785e-19
2.05729e-19
1.95487e-19
1.8598e-19
1.77137e-19
1.68783e-19
1.61038e-19
1.53691e-19
1.46748e-19
1.3999e-19
1.33557e-19
1.27278e-19
1.21016e-19
1.14765e-19
1.08597e-19
1.02327e-19
9.59295e-20
8.95495e-20
8.30928e-20
7.659e-20
7.00856e-20
6.35182e-20
5.71545e-20
)
;

boundaryField
{
    wall
    {
        type            zeroGradient;
    }
    fuel
    {
        type            fixedValue;
        value           nonuniform 0();
    }
    outlet
    {
        type            inletOutlet;
        inletValue      nonuniform 0();
        value           nonuniform 0();
    }
    procBoundary2to1
    {
        type            processor;
        value           uniform 1.59211e-18;
    }
    procBoundary2to3
    {
        type            processor;
        value           uniform 5.09825e-20;
    }
}


// ************************************************************************* //
