/*--------------------------------*- C++ -*----------------------------------*\
| =========                 |                                                 |
| \\      /  F ield         | OpenFOAM: The Open Source CFD Toolbox           |
|  \\    /   O peration     | Version:  dev                                   |
|   \\  /    A nd           | Web:      www.OpenFOAM.org                      |
|    \\/     M anipulation  |                                                 |
\*---------------------------------------------------------------------------*/
FoamFile
{
    version     2.0;
    format      ascii;
    class       volScalarField;
    location    "0.155";
    object      A1C2H-;
}
// * * * * * * * * * * * * * * * * * * * * * * * * * * * * * * * * * * * * * //

dimensions      [0 0 0 0 0 0 0];

internalField   nonuniform List<scalar> 
250
(
9.96584e-10
7.05617e-07
7.31117e-07
7.27636e-07
7.27361e-07
7.26883e-07
7.2659e-07
7.26455e-07
7.26355e-07
6.90854e-10
7.32974e-07
6.45236e-07
6.34803e-07
6.33046e-07
6.32368e-07
6.3224e-07
6.32257e-07
6.32251e-07
4.5493e-10
5.35363e-07
4.32009e-07
4.21264e-07
4.19048e-07
4.18428e-07
4.1821e-07
4.18287e-07
4.18192e-07
3.30414e-10
3.56718e-07
2.7066e-07
2.61987e-07
2.59749e-07
2.59331e-07
2.59042e-07
2.59087e-07
2.58816e-07
2.43358e-10
2.36456e-07
1.70818e-07
1.6441e-07
1.6249e-07
1.62327e-07
1.62052e-07
1.61983e-07
1.61332e-07
1.90109e-10
1.49797e-07
1.12164e-07
1.06646e-07
1.04574e-07
1.0405e-07
1.04e-07
1.03459e-07
1.04632e-07
1.70989e-10
1.04283e-07
7.75334e-08
7.30651e-08
7.15939e-08
7.09758e-08
7.11846e-08
7.03154e-08
7.1518e-08
1.85664e-10
7.6421e-08
5.64876e-08
5.26512e-08
5.00448e-08
4.98314e-08
4.97304e-08
5.01165e-08
4.97131e-08
2.77808e-10
5.86931e-08
4.27979e-08
3.89016e-08
3.73901e-08
3.69782e-08
3.70283e-08
3.73021e-08
3.70303e-08
5.70623e-10
4.67215e-08
3.31143e-08
3.03032e-08
2.91251e-08
2.86758e-08
2.86509e-08
2.88978e-08
2.87588e-08
1.18938e-09
3.72822e-08
2.6548e-08
2.44031e-08
2.31915e-08
2.26324e-08
2.29488e-08
2.27701e-08
2.27422e-08
2.26323e-08
2.2357e-09
3.11062e-08
2.24551e-08
1.97132e-08
1.87972e-08
1.82234e-08
1.84442e-08
1.82909e-08
1.83445e-08
1.82334e-08
3.73367e-09
2.70307e-08
1.91122e-08
1.63259e-08
1.56317e-08
1.50516e-08
1.51932e-08
1.50747e-08
1.5179e-08
1.50699e-08
5.7402e-09
2.40092e-08
1.65825e-08
1.38063e-08
1.32764e-08
1.27013e-08
1.27568e-08
1.26969e-08
1.2829e-08
1.27242e-08
8.2877e-09
2.17402e-08
1.46004e-08
1.1878e-08
1.14686e-08
1.09112e-08
1.11042e-08
1.08872e-08
1.10323e-08
1.09333e-08
1.13341e-08
1.99513e-08
1.29966e-08
1.03615e-08
1.00403e-08
9.50933e-09
9.80184e-09
9.46905e-09
9.62063e-09
9.52813e-09
1.47907e-08
1.85215e-08
1.16608e-08
9.13867e-09
8.8821e-09
8.38245e-09
8.64131e-09
8.32596e-09
8.48381e-09
8.39823e-09
1.85585e-08
1.71826e-08
1.05192e-08
8.13047e-09
7.92174e-09
7.4569e-09
7.68394e-09
7.37977e-09
7.54859e-09
7.46997e-09
2.25054e-08
1.60303e-08
9.52134e-09
7.28275e-09
7.11053e-09
6.68294e-09
6.88183e-09
6.67542e-09
6.7655e-09
6.69358e-09
2.64029e-08
1.51083e-08
8.73991e-09
6.55746e-09
6.41495e-09
6.02624e-09
6.19916e-09
6.00826e-09
6.09968e-09
6.03466e-09
2.99239e-08
1.42266e-08
7.99154e-09
5.9251e-09
5.81124e-09
5.46238e-09
5.61129e-09
5.43211e-09
5.52673e-09
5.46876e-09
3.27151e-08
1.33729e-08
7.29719e-09
5.4369e-09
5.28138e-09
4.97294e-09
5.0996e-09
4.98509e-09
5.02822e-09
4.97742e-09
3.4494e-08
1.24971e-08
6.66299e-09
5.01326e-09
4.86803e-09
4.59231e-09
4.70253e-09
4.6003e-09
4.64103e-09
4.59528e-09
3.51215e-08
1.16484e-08
6.14371e-09
4.61387e-09
4.49023e-09
4.23414e-09
4.33379e-09
4.23914e-09
4.27834e-09
4.23611e-09
3.46126e-08
1.0786e-08
5.65109e-09
4.28652e-09
4.17345e-09
3.94469e-09
4.03135e-09
3.9473e-09
3.98325e-09
3.94553e-09
3.31065e-08
9.83487e-09
5.22131e-09
3.99816e-09
3.89307e-09
3.69165e-09
3.76711e-09
3.69244e-09
3.72528e-09
3.69159e-09
)
;

boundaryField
{
    fuel
    {
        type            fixedValue;
        value           uniform 0;
    }
    wall
    {
        type            zeroGradient;
    }
    outlet
    {
        type            zeroGradient;
    }
    frontAndBack
    {
        type            empty;
    }
    procBoundary2to0
    {
        type            processor;
        value           nonuniform List<scalar> 
12
(
3.96281e-09
3.07789e-08
8.86175e-09
4.82884e-09
3.74214e-09
3.64789e-09
3.4684e-09
3.53445e-09
3.46777e-09
3.49788e-09
3.70711e-09
3.46764e-09
)
;
    }
    procBoundary2to3
    {
        type            processor;
        value           nonuniform List<scalar> 
25
(
7.26459e-07
6.32302e-07
4.1828e-07
2.58905e-07
1.61391e-07
1.04654e-07
7.15089e-08
4.96548e-08
3.69532e-08
2.86695e-08
2.86695e-08
2.26678e-08
1.82779e-08
1.51157e-08
1.27684e-08
1.09752e-08
9.56776e-09
8.43547e-09
7.50474e-09
6.7257e-09
6.06396e-09
5.49507e-09
5.00057e-09
4.61628e-09
4.25531e-09
)
;
    }
}


// ************************************************************************* //
