/*--------------------------------*- C++ -*----------------------------------*\
| =========                 |                                                 |
| \\      /  F ield         | OpenFOAM: The Open Source CFD Toolbox           |
|  \\    /   O peration     | Version:  dev                                   |
|   \\  /    A nd           | Web:      www.OpenFOAM.org                      |
|    \\/     M anipulation  |                                                 |
\*---------------------------------------------------------------------------*/
FoamFile
{
    version     2.0;
    format      ascii;
    class       volScalarField;
    location    "0.155";
    object      A2-2;
}
// * * * * * * * * * * * * * * * * * * * * * * * * * * * * * * * * * * * * * //

dimensions      [0 0 0 0 0 0 0];

internalField   nonuniform List<scalar> 
250
(
7.1366e-10
8.34511e-08
6.91318e-08
6.70008e-08
6.67059e-08
6.66831e-08
6.66478e-08
6.66949e-08
6.66835e-08
5.92783e-10
6.02877e-08
4.26307e-08
4.038e-08
4.00686e-08
4.00398e-08
4.00154e-08
4.00404e-08
4.00373e-08
2.86218e-10
3.59633e-08
2.16436e-08
2.00006e-08
1.97683e-08
1.97469e-08
1.97315e-08
1.97433e-08
1.97449e-08
1.33712e-10
2.23945e-08
1.12146e-08
1.00652e-08
9.89014e-09
9.87405e-09
9.86352e-09
9.87014e-09
9.87208e-09
7.2277e-11
1.53742e-08
6.30607e-09
5.50237e-09
5.33336e-09
5.32009e-09
5.31217e-09
5.31592e-09
5.3163e-09
4.68525e-11
1.15792e-08
3.86971e-09
3.18195e-09
3.14933e-09
3.13889e-09
3.1329e-09
3.13236e-09
3.12889e-09
3.63424e-11
9.33954e-09
2.60129e-09
2.06212e-09
2.0215e-09
2.00826e-09
2.00145e-09
2.01644e-09
1.97655e-09
3.63239e-11
7.87547e-09
1.88683e-09
1.40382e-09
1.32663e-09
1.32013e-09
1.31779e-09
1.32186e-09
1.34387e-09
6.19698e-11
6.75763e-09
1.41139e-09
1.01196e-09
9.57905e-10
9.55442e-10
9.54853e-10
9.53353e-10
9.64791e-10
1.57442e-10
5.91946e-09
1.09762e-09
7.6966e-10
7.20543e-10
7.18487e-10
7.18273e-10
7.14775e-10
7.21206e-10
3.35804e-10
5.22252e-09
9.08202e-10
5.90782e-10
5.48728e-10
5.46552e-10
5.46182e-10
5.43301e-10
5.46161e-10
5.46548e-10
6.4183e-10
4.62213e-09
7.58728e-10
4.6943e-10
4.32952e-10
4.30279e-10
4.29437e-10
4.27809e-10
4.29089e-10
4.2945e-10
1.02992e-09
4.09577e-09
6.45389e-10
3.84506e-10
3.52281e-10
3.49251e-10
3.47519e-10
3.47385e-10
3.48048e-10
3.48379e-10
1.42747e-09
3.63007e-09
5.58482e-10
3.23265e-10
2.94351e-10
2.9119e-10
2.87812e-10
2.89668e-10
2.90145e-10
2.90449e-10
1.80032e-09
3.21127e-09
4.88837e-10
2.77767e-10
2.51556e-10
2.48471e-10
2.48269e-10
2.47055e-10
2.47532e-10
2.47814e-10
2.13504e-09
2.84625e-09
4.3838e-10
2.42978e-10
2.1908e-10
2.16158e-10
2.18341e-10
2.1469e-10
2.15291e-10
2.1556e-10
2.41405e-09
2.49355e-09
3.93328e-10
2.156e-10
1.93818e-10
1.91056e-10
1.92411e-10
1.8942e-10
1.9028e-10
1.90537e-10
2.6119e-09
2.16067e-09
3.52397e-10
1.93478e-10
1.73736e-10
1.7113e-10
1.71917e-10
1.69162e-10
1.70453e-10
1.70698e-10
2.70707e-09
1.86177e-09
3.1685e-10
1.7517e-10
1.57492e-10
1.55041e-10
1.55472e-10
1.54615e-10
1.54466e-10
1.54691e-10
2.69439e-09
1.59366e-09
2.85832e-10
1.61672e-10
1.44191e-10
1.41893e-10
1.42096e-10
1.41324e-10
1.41409e-10
1.41619e-10
2.58828e-09
1.38363e-09
2.5876e-10
1.49389e-10
1.33222e-10
1.31089e-10
1.31151e-10
1.30332e-10
1.30686e-10
1.30879e-10
2.41598e-09
1.18384e-09
2.35089e-10
1.38836e-10
1.24179e-10
1.22232e-10
1.22216e-10
1.22308e-10
1.21901e-10
1.22077e-10
2.1936e-09
9.99783e-10
2.14515e-10
1.31114e-10
1.17675e-10
1.15918e-10
1.15859e-10
1.15973e-10
1.15638e-10
1.15809e-10
1.96642e-09
8.47993e-10
1.96982e-10
1.24666e-10
1.12721e-10
1.10702e-10
1.10614e-10
1.10739e-10
1.10457e-10
1.10621e-10
1.73939e-09
7.1946e-10
1.82357e-10
1.20166e-10
1.09327e-10
1.07431e-10
1.07329e-10
1.0748e-10
1.07222e-10
1.07396e-10
1.52094e-09
6.12994e-10
1.71919e-10
1.17333e-10
1.07578e-10
1.05798e-10
1.05691e-10
1.05879e-10
1.05623e-10
1.05818e-10
)
;

boundaryField
{
    fuel
    {
        type            fixedValue;
        value           uniform 0;
    }
    wall
    {
        type            zeroGradient;
    }
    outlet
    {
        type            zeroGradient;
    }
    frontAndBack
    {
        type            empty;
    }
    procBoundary2to0
    {
        type            processor;
        value           nonuniform List<scalar> 
12
(
1.0705e-10
1.31576e-09
5.26268e-10
1.64294e-10
1.16384e-10
1.07644e-10
1.05975e-10
1.05871e-10
1.06111e-10
1.05836e-10
1.0555e-10
1.06066e-10
)
;
    }
    procBoundary2to3
    {
        type            processor;
        value           nonuniform List<scalar> 
25
(
6.66515e-08
4.00178e-08
1.97336e-08
9.86571e-09
5.31286e-09
3.1272e-09
1.97579e-09
1.3437e-09
9.64943e-10
7.21477e-10
7.21477e-10
5.42861e-10
4.27419e-10
3.47078e-10
2.8947e-10
2.46984e-10
2.14805e-10
1.89826e-10
1.70019e-10
1.54042e-10
1.41003e-10
1.30306e-10
1.21559e-10
1.15335e-10
1.10209e-10
)
;
    }
}


// ************************************************************************* //
