/*--------------------------------*- C++ -*----------------------------------*\
| =========                 |                                                 |
| \\      /  F ield         | OpenFOAM: The Open Source CFD Toolbox           |
|  \\    /   O peration     | Version:  dev                                   |
|   \\  /    A nd           | Web:      www.OpenFOAM.org                      |
|    \\/     M anipulation  |                                                 |
\*---------------------------------------------------------------------------*/
FoamFile
{
    version     2.0;
    format      ascii;
    class       volScalarField;
    location    "0.155";
    object      A2C2H22;
}
// * * * * * * * * * * * * * * * * * * * * * * * * * * * * * * * * * * * * * //

dimensions      [0 0 0 0 0 0 0];

internalField   nonuniform List<scalar> 
250
(
6.53978e-15
2.37845e-12
2.02942e-12
1.96774e-12
1.95946e-12
1.95883e-12
1.95734e-12
1.9589e-12
1.95875e-12
1.94142e-15
2.21514e-12
1.57324e-12
1.48057e-12
1.46744e-12
1.46622e-12
1.46479e-12
1.46614e-12
1.46617e-12
1.81371e-15
1.71299e-12
1.07649e-12
9.85247e-13
9.72048e-13
9.70595e-13
9.69314e-13
9.70421e-13
9.70525e-13
6.34902e-15
1.35022e-12
7.78939e-13
6.93807e-13
6.80781e-13
6.79157e-13
6.77922e-13
6.78971e-13
6.79026e-13
7.29884e-15
1.09063e-12
5.8985e-13
5.13483e-13
4.99123e-13
4.97363e-13
4.96148e-13
4.97148e-13
4.96984e-13
5.25571e-15
8.97018e-13
4.56024e-13
3.81951e-13
3.75451e-13
3.73731e-13
3.72597e-13
3.73354e-13
3.7257e-13
3.08576e-15
7.49379e-13
3.59179e-13
2.92862e-13
2.86067e-13
2.84131e-13
2.82962e-13
2.85056e-13
2.80548e-13
1.79126e-15
6.35244e-13
2.8723e-13
2.22974e-13
2.12023e-13
2.11047e-13
2.10517e-13
2.11112e-13
2.13774e-13
1.34134e-15
5.40611e-13
2.27292e-13
1.71827e-13
1.6348e-13
1.63121e-13
1.62888e-13
1.62638e-13
1.64189e-13
1.4647e-15
4.68504e-13
1.80762e-13
1.34805e-13
1.26873e-13
1.26576e-13
1.26443e-13
1.25861e-13
1.26822e-13
1.70331e-15
4.09827e-13
1.49454e-13
1.04089e-13
9.71738e-14
9.68558e-14
9.67279e-14
9.62356e-14
9.67035e-14
9.67677e-14
2.12464e-15
3.60938e-13
1.22822e-13
8.15973e-14
7.55921e-14
7.51961e-14
7.49954e-14
7.47165e-14
7.49564e-14
7.50181e-14
2.8755e-15
3.19296e-13
1.01747e-13
6.50911e-14
5.98345e-14
5.93861e-14
5.90189e-14
5.90134e-14
5.91629e-14
5.92194e-14
4.15779e-15
2.83069e-13
8.52827e-14
5.28723e-14
4.82319e-14
4.77699e-14
4.70877e-14
4.74582e-14
4.75811e-14
4.76319e-14
6.23297e-15
2.50639e-13
7.20917e-14
4.37027e-14
3.95848e-14
3.91453e-14
3.91137e-14
3.88523e-14
3.89763e-14
3.90217e-14
9.38453e-15
2.22259e-13
6.26431e-14
3.67018e-14
3.30396e-14
3.26357e-14
3.30778e-14
3.23345e-14
3.248e-14
3.25203e-14
1.38058e-14
1.94549e-13
5.43738e-14
3.12398e-14
2.79938e-14
2.76229e-14
2.78925e-14
2.72938e-14
2.74839e-14
2.75194e-14
1.95132e-14
1.68114e-13
4.70436e-14
2.68761e-14
2.40247e-14
2.36849e-14
2.38384e-14
2.32972e-14
2.35635e-14
2.35938e-14
2.62498e-14
1.44234e-13
4.08243e-14
2.32966e-14
2.08359e-14
2.05264e-14
2.06086e-14
2.0434e-14
2.04223e-14
2.04461e-14
3.34659e-14
1.22783e-13
3.54945e-14
2.06483e-14
1.82194e-14
1.79395e-14
1.7977e-14
1.78148e-14
1.78498e-14
1.78676e-14
4.04207e-14
1.06004e-13
3.08846e-14
1.82127e-14
1.6025e-14
1.57769e-14
1.57873e-14
1.56116e-14
1.56989e-14
1.57108e-14
4.62808e-14
9.00172e-14
2.6862e-14
1.60606e-14
1.41432e-14
1.39306e-14
1.39263e-14
1.39257e-14
1.38623e-14
1.38679e-14
5.0537e-14
7.52386e-14
2.33351e-14
1.43845e-14
1.26744e-14
1.25e-14
1.24874e-14
1.24813e-14
1.24378e-14
1.24397e-14
5.25712e-14
6.30475e-14
2.02384e-14
1.28349e-14
1.13906e-14
1.11459e-14
1.11273e-14
1.11133e-14
1.10855e-14
1.10817e-14
5.24608e-14
5.26486e-14
1.75061e-14
1.15358e-14
1.02628e-14
1.00453e-14
1.00234e-14
1.00056e-14
9.9878e-15
9.98139e-15
5.04054e-14
4.39096e-14
1.53459e-14
1.03731e-14
9.26755e-15
9.07433e-15
9.05075e-15
9.03011e-15
9.01921e-15
9.01084e-15
)
;

boundaryField
{
    fuel
    {
        type            fixedValue;
        value           uniform 0;
    }
    wall
    {
        type            zeroGradient;
    }
    outlet
    {
        type            zeroGradient;
    }
    frontAndBack
    {
        type            empty;
    }
    procBoundary2to0
    {
        type            processor;
        value           nonuniform List<scalar> 
12
(
9.91309e-15
4.68143e-14
3.66141e-14
1.34588e-14
9.35416e-15
8.38877e-15
8.21755e-15
8.19351e-15
8.17103e-15
8.1648e-15
8.94989e-15
8.15518e-15
)
;
    }
    procBoundary2to3
    {
        type            processor;
        value           nonuniform List<scalar> 
25
(
1.95769e-12
1.4652e-12
9.69896e-13
6.78631e-13
4.96739e-13
3.72432e-13
2.80483e-13
2.13767e-13
1.64222e-13
1.26875e-13
1.26875e-13
9.61634e-14
7.46518e-14
5.89643e-14
4.74306e-14
3.88496e-14
3.23666e-14
2.7379e-14
2.3464e-14
2.03258e-14
1.77566e-14
1.56095e-14
1.3777e-14
1.23555e-14
1.10061e-14
)
;
    }
}


// ************************************************************************* //
