/*--------------------------------*- C++ -*----------------------------------*\
| =========                 |                                                 |
| \\      /  F ield         | OpenFOAM: The Open Source CFD Toolbox           |
|  \\    /   O peration     | Version:  dev                                   |
|   \\  /    A nd           | Web:      www.OpenFOAM.org                      |
|    \\/     M anipulation  |                                                 |
\*---------------------------------------------------------------------------*/
FoamFile
{
    version     2.0;
    format      ascii;
    class       volScalarField;
    location    "0.155";
    object      A3C2H2;
}
// * * * * * * * * * * * * * * * * * * * * * * * * * * * * * * * * * * * * * //

dimensions      [0 0 0 0 0 0 0];

internalField   nonuniform List<scalar> 
250
(
7.19677e-15
4.89307e-14
3.49825e-14
3.36901e-14
3.3465e-14
3.34033e-14
3.34032e-14
3.33964e-14
3.34289e-14
2.1549e-15
4.96336e-14
2.98e-14
2.82595e-14
2.80059e-14
2.79376e-14
2.79289e-14
2.79247e-14
2.7942e-14
6.71614e-16
3.71304e-14
1.99036e-14
1.85987e-14
1.83625e-14
1.83048e-14
1.82894e-14
1.82879e-14
1.82958e-14
2.95682e-16
2.50724e-14
1.26155e-14
1.16337e-14
1.14301e-14
1.13879e-14
1.13703e-14
1.13671e-14
1.13654e-14
1.77211e-16
1.66393e-14
8.18372e-15
7.4603e-15
7.29478e-15
7.26769e-15
7.25285e-15
7.24379e-15
7.2255e-15
1.32905e-16
1.04621e-14
5.5893e-15
5.00457e-15
4.84942e-15
4.80977e-15
4.80671e-15
4.77676e-15
4.83471e-15
1.08555e-16
7.22799e-15
4.04274e-15
3.56309e-15
3.44355e-15
3.40116e-15
3.41079e-15
3.36701e-15
3.42519e-15
1.01532e-16
5.27812e-15
3.08009e-15
2.66409e-15
2.49944e-15
2.47562e-15
2.47255e-15
2.48579e-15
2.47145e-15
1.23593e-16
4.07007e-15
2.42829e-15
2.03277e-15
1.92232e-15
1.8906e-15
1.89431e-15
1.90384e-15
1.89431e-15
1.85957e-16
3.28381e-15
1.94089e-15
1.61739e-15
1.52537e-15
1.49289e-15
1.49282e-15
1.50223e-15
1.49814e-15
2.79424e-16
2.68513e-15
1.58888e-15
1.31588e-15
1.22316e-15
1.18611e-15
1.20384e-15
1.19203e-15
1.19266e-15
1.1861e-15
3.88035e-16
2.29951e-15
1.35596e-15
1.06226e-15
9.86487e-16
9.49921e-16
9.62618e-16
9.52731e-16
9.56868e-16
9.50391e-16
5.21767e-16
2.04449e-15
1.1543e-15
8.70669e-16
8.08468e-16
7.72861e-16
7.81012e-16
7.73651e-16
7.799e-16
7.73677e-16
6.96019e-16
1.85142e-15
9.9498e-16
7.23935e-16
6.72508e-16
6.38415e-16
6.41344e-16
6.37936e-16
6.45218e-16
6.39382e-16
9.24097e-16
1.70121e-15
8.66996e-16
6.10314e-16
5.67371e-16
5.35365e-16
5.46004e-16
5.33975e-16
5.4158e-16
5.36211e-16
1.21164e-15
1.57772e-15
7.62691e-16
5.21416e-16
4.85122e-16
4.55513e-16
4.71517e-16
4.5336e-16
4.61001e-16
4.56129e-16
1.55645e-15
1.47504e-15
6.7645e-16
4.51082e-16
4.19999e-16
3.92849e-16
4.06555e-16
3.89912e-16
3.97652e-16
3.93277e-16
1.94928e-15
1.37543e-15
6.04e-16
3.94717e-16
3.67758e-16
3.43048e-16
3.54649e-16
3.39054e-16
3.4723e-16
3.43323e-16
2.37252e-15
1.28786e-15
5.4205e-16
3.48859e-16
3.25246e-16
3.02908e-16
3.12722e-16
3.02547e-16
3.06541e-16
3.03057e-16
2.79664e-15
1.2164e-15
4.94698e-16
3.10876e-16
2.90111e-16
2.70047e-16
2.78312e-16
2.69124e-16
2.73176e-16
2.70092e-16
3.18157e-15
1.14653e-15
4.50189e-16
2.78657e-16
2.60581e-16
2.42692e-16
2.49612e-16
2.41112e-16
2.45354e-16
2.42648e-16
3.48435e-15
1.07713e-15
4.09414e-16
2.54351e-16
2.35297e-16
2.19495e-16
2.25244e-16
2.19926e-16
2.21722e-16
2.19375e-16
3.66974e-15
1.00374e-15
3.72376e-16
2.33556e-16
2.15959e-16
2.01785e-16
2.06709e-16
2.01991e-16
2.03716e-16
2.0161e-16
3.7192e-15
9.30627e-16
3.42112e-16
2.14014e-16
1.98433e-16
1.85201e-16
1.89629e-16
1.85243e-16
1.86951e-16
1.84999e-16
3.63356e-15
8.54369e-16
3.1318e-16
1.98018e-16
1.83797e-16
1.71847e-16
1.75688e-16
1.71769e-16
1.73369e-16
1.71612e-16
3.4308e-15
7.68579e-16
2.87701e-16
1.83846e-16
1.70802e-16
1.60129e-16
1.63481e-16
1.59966e-16
1.61459e-16
1.59873e-16
)
;

boundaryField
{
    fuel
    {
        type            fixedValue;
        value           uniform 0;
    }
    wall
    {
        type            zeroGradient;
    }
    outlet
    {
        type            zeroGradient;
    }
    frontAndBack
    {
        type            empty;
    }
    procBoundary2to0
    {
        type            processor;
        value           nonuniform List<scalar> 
12
(
1.72422e-16
3.13725e-15
6.80426e-16
2.64182e-16
1.71155e-16
1.59374e-16
1.49728e-16
1.52677e-16
1.49505e-16
1.509e-16
1.60608e-16
1.49461e-16
)
;
    }
    procBoundary2to3
    {
        type            processor;
        value           nonuniform List<scalar> 
25
(
3.34233e-14
2.79385e-14
1.8296e-14
1.13666e-14
7.22587e-15
4.83377e-15
3.42304e-15
2.46718e-15
1.8892e-15
1.49252e-15
1.49252e-15
1.18826e-15
9.52853e-16
7.76119e-16
6.41685e-16
5.38348e-16
4.58105e-16
3.95098e-16
3.44993e-16
3.04577e-16
2.71462e-16
2.43868e-16
2.20444e-16
2.0258e-16
1.85891e-16
)
;
    }
}


// ************************************************************************* //
