/*--------------------------------*- C++ -*----------------------------------*\
| =========                 |                                                 |
| \\      /  F ield         | OpenFOAM: The Open Source CFD Toolbox           |
|  \\    /   O peration     | Version:  dev                                   |
|   \\  /    A nd           | Web:      www.OpenFOAM.org                      |
|    \\/     M anipulation  |                                                 |
\*---------------------------------------------------------------------------*/
FoamFile
{
    version     2.0;
    format      ascii;
    class       volScalarField;
    location    "0.155";
    object      C2O;
}
// * * * * * * * * * * * * * * * * * * * * * * * * * * * * * * * * * * * * * //

dimensions      [0 0 0 0 0 0 0];

internalField   nonuniform List<scalar> 
250
(
4.06491e-09
7.95397e-06
8.92291e-06
9.05525e-06
9.07158e-06
9.075e-06
9.07455e-06
9.07473e-06
9.07761e-06
5.26929e-09
6.57721e-06
7.06735e-06
7.14206e-06
7.14905e-06
7.15187e-06
7.15095e-06
7.1512e-06
7.15259e-06
3.92325e-09
4.00067e-06
4.23907e-06
4.28909e-06
4.29176e-06
4.29413e-06
4.29302e-06
4.29315e-06
4.29443e-06
2.72117e-09
2.40835e-06
2.49909e-06
2.53618e-06
2.53491e-06
2.53655e-06
2.53541e-06
2.53563e-06
2.53657e-06
2.01808e-09
1.57773e-06
1.59329e-06
1.62947e-06
1.6192e-06
1.62011e-06
1.61898e-06
1.61912e-06
1.61957e-06
1.64773e-09
1.13549e-06
1.12039e-06
1.13514e-06
1.14829e-06
1.14895e-06
1.14792e-06
1.14734e-06
1.14687e-06
1.46162e-09
8.77696e-07
8.66422e-07
8.8578e-07
8.93546e-07
8.92937e-07
8.91506e-07
8.9461e-07
8.85646e-07
1.37751e-09
7.11334e-07
7.1931e-07
7.33708e-07
7.30191e-07
7.3062e-07
7.30053e-07
7.30798e-07
7.36363e-07
1.3634e-09
5.88083e-07
6.17744e-07
6.39056e-07
6.39288e-07
6.40385e-07
6.40131e-07
6.39627e-07
6.42639e-07
1.55522e-09
5.00467e-07
5.46733e-07
5.76536e-07
5.76585e-07
5.77574e-07
5.77317e-07
5.76344e-07
5.7818e-07
2.31e-09
4.32905e-07
5.0029e-07
5.25569e-07
5.26276e-07
5.271e-07
5.26671e-07
5.25889e-07
5.26887e-07
5.26713e-07
4.56575e-09
3.79578e-07
4.59798e-07
4.86103e-07
4.87348e-07
4.87948e-07
4.87196e-07
4.86824e-07
4.87494e-07
4.87445e-07
8.57792e-09
3.36911e-07
4.25573e-07
4.53723e-07
4.55317e-07
4.5575e-07
4.54442e-07
4.54652e-07
4.55259e-07
4.5525e-07
1.31505e-08
3.02513e-07
3.96335e-07
4.25908e-07
4.27694e-07
4.28037e-07
4.25771e-07
4.26868e-07
4.27549e-07
4.27563e-07
1.75234e-08
2.74374e-07
3.70492e-07
4.01163e-07
4.03027e-07
4.03363e-07
4.0298e-07
4.0201e-07
4.02846e-07
4.02874e-07
2.18261e-08
2.52081e-07
3.50154e-07
3.78556e-07
3.80414e-07
3.80775e-07
3.82242e-07
3.79136e-07
3.80217e-07
3.80251e-07
2.63193e-08
2.3256e-07
3.30623e-07
3.57433e-07
3.59249e-07
3.59618e-07
3.60601e-07
3.57588e-07
3.59043e-07
3.59072e-07
3.10225e-08
2.15742e-07
3.11637e-07
3.37302e-07
3.39092e-07
3.3946e-07
3.40077e-07
3.3686e-07
3.38882e-07
3.38891e-07
3.57912e-08
2.01769e-07
2.9395e-07
3.1774e-07
3.19598e-07
3.19963e-07
3.20334e-07
3.19064e-07
3.1939e-07
3.19359e-07
4.0514e-08
1.8995e-07
2.77233e-07
3.00809e-07
3.00478e-07
3.00845e-07
3.01033e-07
2.99553e-07
3.00266e-07
3.00186e-07
4.5201e-08
1.80987e-07
2.61123e-07
2.82599e-07
2.81447e-07
2.81848e-07
2.81906e-07
2.80044e-07
2.81255e-07
2.81114e-07
4.98689e-08
1.7244e-07
2.45331e-07
2.63852e-07
2.6222e-07
2.62715e-07
2.62691e-07
2.62545e-07
2.62102e-07
2.61883e-07
5.46984e-08
1.6419e-07
2.29629e-07
2.47018e-07
2.44774e-07
2.45451e-07
2.45364e-07
2.45064e-07
2.44807e-07
2.44534e-07
5.91731e-08
1.56712e-07
2.13731e-07
2.29032e-07
2.27115e-07
2.26382e-07
2.26228e-07
2.25735e-07
2.25651e-07
2.25285e-07
6.31902e-08
1.49323e-07
1.97375e-07
2.11718e-07
2.09235e-07
2.08532e-07
2.08325e-07
2.07713e-07
2.07753e-07
2.07333e-07
6.64195e-08
1.41815e-07
1.82258e-07
1.93914e-07
1.91118e-07
1.90431e-07
1.90182e-07
1.89467e-07
1.89611e-07
1.8914e-07
)
;

boundaryField
{
    fuel
    {
        type            fixedValue;
        value           uniform 0;
    }
    wall
    {
        type            zeroGradient;
    }
    outlet
    {
        type            zeroGradient;
    }
    frontAndBack
    {
        type            empty;
    }
    procBoundary2to0
    {
        type            processor;
        value           nonuniform List<scalar> 
12
(
2.06411e-07
6.85696e-08
1.33888e-07
1.66706e-07
1.76026e-07
1.72798e-07
1.72121e-07
1.71843e-07
1.71045e-07
1.71273e-07
1.88221e-07
1.70762e-07
)
;
    }
    procBoundary2to3
    {
        type            processor;
        value           nonuniform List<scalar> 
25
(
9.07466e-06
7.15077e-06
4.29282e-06
2.53533e-06
1.61873e-06
1.14635e-06
8.85324e-07
7.36172e-07
6.42511e-07
5.78018e-07
5.78018e-07
5.2593e-07
4.86891e-07
4.54769e-07
4.27066e-07
4.02323e-07
3.79631e-07
3.58381e-07
3.38134e-07
3.18545e-07
2.9933e-07
2.80233e-07
2.61e-07
2.43622e-07
2.24368e-07
)
;
    }
}


// ************************************************************************* //
