/*--------------------------------*- C++ -*----------------------------------*\
| =========                 |                                                 |
| \\      /  F ield         | OpenFOAM: The Open Source CFD Toolbox           |
|  \\    /   O peration     | Version:  dev                                   |
|   \\  /    A nd           | Web:      www.OpenFOAM.org                      |
|    \\/     M anipulation  |                                                 |
\*---------------------------------------------------------------------------*/
FoamFile
{
    version     2.0;
    format      ascii;
    class       volScalarField;
    location    "0.155";
    object      HCO;
}
// * * * * * * * * * * * * * * * * * * * * * * * * * * * * * * * * * * * * * //

dimensions      [0 0 0 0 0 0 0];

internalField   nonuniform List<scalar> 
250
(
4.00965e-09
1.16792e-05
1.08704e-05
1.0839e-05
1.08504e-05
1.08487e-05
1.08436e-05
1.08436e-05
1.08377e-05
5.87288e-09
5.10535e-06
4.88112e-06
4.87611e-06
4.87783e-06
4.87637e-06
4.87538e-06
4.87638e-06
4.87417e-06
1.91244e-08
1.99164e-06
1.96582e-06
1.9716e-06
1.97091e-06
1.97023e-06
1.96962e-06
1.97076e-06
1.9692e-06
7.25813e-08
8.24581e-07
8.44682e-07
8.5286e-07
8.51611e-07
8.51636e-07
8.51069e-07
8.51885e-07
8.50438e-07
1.41878e-07
3.9933e-07
4.29079e-07
4.375e-07
4.36875e-07
4.37451e-07
4.36973e-07
4.37463e-07
4.35186e-07
1.55184e-07
2.14987e-07
2.64925e-07
2.71216e-07
2.70025e-07
2.69599e-07
2.6957e-07
2.69074e-07
2.71091e-07
1.05084e-07
1.46159e-07
1.93116e-07
1.99024e-07
1.99059e-07
1.9846e-07
1.98846e-07
1.97747e-07
1.99562e-07
6.22407e-08
1.14298e-07
1.58174e-07
1.63651e-07
1.6207e-07
1.62136e-07
1.6197e-07
1.62681e-07
1.6201e-07
4.32267e-08
9.88587e-08
1.38917e-07
1.43344e-07
1.43414e-07
1.43082e-07
1.43209e-07
1.43602e-07
1.43227e-07
3.68532e-08
9.12201e-08
1.26777e-07
1.31845e-07
1.32392e-07
1.31932e-07
1.31997e-07
1.32274e-07
1.3213e-07
3.45639e-08
8.71186e-08
1.18967e-07
1.2431e-07
1.24853e-07
1.24175e-07
1.24689e-07
1.24386e-07
1.24426e-07
1.24247e-07
3.41528e-08
8.54272e-08
1.14035e-07
1.18247e-07
1.19186e-07
1.18399e-07
1.18815e-07
1.18506e-07
1.18691e-07
1.18486e-07
3.65216e-08
8.474e-08
1.09706e-07
1.13527e-07
1.14771e-07
1.13876e-07
1.14209e-07
1.13914e-07
1.14207e-07
1.1398e-07
4.15572e-08
8.4267e-08
1.06017e-07
1.09551e-07
1.11034e-07
1.10041e-07
1.10268e-07
1.10026e-07
1.10404e-07
1.10156e-07
4.87632e-08
8.36399e-08
1.02676e-07
1.05991e-07
1.07667e-07
1.06589e-07
1.07141e-07
1.06524e-07
1.06975e-07
1.06706e-07
5.70485e-08
8.26359e-08
9.95255e-08
1.02662e-07
1.04494e-07
1.03341e-07
1.04209e-07
1.0322e-07
1.03743e-07
1.03455e-07
6.48402e-08
8.12133e-08
9.6472e-08
9.94507e-08
1.01411e-07
1.00185e-07
1.01063e-07
9.9995e-08
1.00604e-07
1.00297e-07
7.06142e-08
7.91631e-08
9.34542e-08
9.62796e-08
9.83456e-08
9.70505e-08
9.79371e-08
9.67627e-08
9.74865e-08
9.7159e-08
7.34792e-08
7.67921e-08
9.04219e-08
9.3089e-08
9.52462e-08
9.38833e-08
9.47849e-08
9.3871e-08
9.43382e-08
9.39888e-08
7.33781e-08
7.44666e-08
8.77133e-08
8.98222e-08
9.20662e-08
9.06379e-08
9.1555e-08
9.05581e-08
9.11108e-08
9.074e-08
7.08914e-08
7.19555e-08
8.47458e-08
8.64116e-08
8.87605e-08
8.72698e-08
8.82027e-08
8.71006e-08
8.77594e-08
8.7368e-08
6.68754e-08
6.9358e-08
8.15893e-08
8.32779e-08
8.52778e-08
8.37302e-08
8.46785e-08
8.3875e-08
8.42344e-08
8.38239e-08
6.21445e-08
6.6607e-08
7.82729e-08
8.00279e-08
8.20292e-08
8.04123e-08
8.13894e-08
8.05233e-08
8.09399e-08
8.05027e-08
5.73117e-08
6.39155e-08
7.51561e-08
7.63379e-08
7.84516e-08
7.66122e-08
7.76839e-08
7.6697e-08
7.71917e-08
7.67053e-08
5.27444e-08
6.1161e-08
7.17406e-08
7.27254e-08
7.48494e-08
7.29092e-08
7.40212e-08
7.29714e-08
7.35183e-08
7.30026e-08
4.86066e-08
5.80676e-08
6.83022e-08
6.89284e-08
7.10198e-08
6.90148e-08
7.017e-08
6.90595e-08
6.96567e-08
6.91116e-08
)
;

boundaryField
{
    fuel
    {
        type            fixedValue;
        value           uniform 0;
    }
    wall
    {
        type            zeroGradient;
    }
    outlet
    {
        type            zeroGradient;
    }
    frontAndBack
    {
        type            empty;
    }
    procBoundary2to0
    {
        type            processor;
        value           nonuniform List<scalar> 
12
(
7.31904e-08
4.49471e-08
5.48132e-08
6.46869e-08
6.49447e-08
6.70322e-08
6.49295e-08
6.61273e-08
6.49609e-08
6.56056e-08
6.93094e-08
6.50324e-08
)
;
    }
    procBoundary2to3
    {
        type            processor;
        value           nonuniform List<scalar> 
25
(
1.08359e-05
4.87467e-06
1.97002e-06
8.50995e-07
4.35485e-07
2.71227e-07
1.99601e-07
1.61948e-07
1.43123e-07
1.31993e-07
1.31993e-07
1.24301e-07
1.18568e-07
1.14075e-07
1.10261e-07
1.06819e-07
1.03575e-07
1.00423e-07
9.72925e-08
9.41284e-08
9.08852e-08
8.75181e-08
8.39778e-08
8.06652e-08
7.68829e-08
)
;
    }
}


// ************************************************************************* //
