/*--------------------------------*- C++ -*----------------------------------*\
| =========                 |                                                 |
| \\      /  F ield         | OpenFOAM: The Open Source CFD Toolbox           |
|  \\    /   O peration     | Version:  dev                                   |
|   \\  /    A nd           | Web:      www.OpenFOAM.org                      |
|    \\/     M anipulation  |                                                 |
\*---------------------------------------------------------------------------*/
FoamFile
{
    version     2.0;
    format      ascii;
    class       volScalarField;
    location    "0.155";
    object      l-C6H4;
}
// * * * * * * * * * * * * * * * * * * * * * * * * * * * * * * * * * * * * * //

dimensions      [0 0 0 0 0 0 0];

internalField   nonuniform List<scalar> 
250
(
1.25355e-07
4.89282e-07
4.60499e-07
4.55587e-07
4.54775e-07
4.54732e-07
4.54632e-07
4.54786e-07
4.54737e-07
3.6062e-07
4.76073e-07
4.25642e-07
4.16665e-07
4.15274e-07
4.15137e-07
4.14989e-07
4.15129e-07
4.15132e-07
6.11804e-07
4.58995e-07
3.92072e-07
3.79086e-07
3.77031e-07
3.7679e-07
3.76589e-07
3.76758e-07
3.76767e-07
8.68925e-07
4.35725e-07
3.56611e-07
3.40109e-07
3.37267e-07
3.36907e-07
3.36647e-07
3.36853e-07
3.3685e-07
1.13137e-06
4.02928e-07
3.15076e-07
2.96586e-07
2.9248e-07
2.91994e-07
2.91679e-07
2.919e-07
2.91816e-07
1.40437e-06
3.66902e-07
2.71633e-07
2.49639e-07
2.47873e-07
2.47311e-07
2.46966e-07
2.47126e-07
2.4674e-07
1.70138e-06
3.3277e-07
2.32279e-07
2.09726e-07
2.0743e-07
2.06654e-07
2.06221e-07
2.07104e-07
2.04821e-07
2.04423e-06
3.02841e-07
1.99032e-07
1.73961e-07
1.68941e-07
1.68546e-07
1.68377e-07
1.68584e-07
1.70068e-07
2.45443e-06
2.75903e-07
1.69126e-07
1.45696e-07
1.41614e-07
1.41495e-07
1.41445e-07
1.41222e-07
1.42134e-07
2.88676e-06
2.54243e-07
1.44777e-07
1.24234e-07
1.19966e-07
1.19831e-07
1.19799e-07
1.19397e-07
1.19988e-07
3.02988e-06
2.35506e-07
1.27899e-07
1.0574e-07
1.01688e-07
1.0149e-07
1.01423e-07
1.01087e-07
1.01383e-07
1.01427e-07
2.59919e-06
2.18549e-07
1.13147e-07
9.16533e-08
8.78389e-08
8.75432e-08
8.73964e-08
8.72093e-08
8.73632e-08
8.74067e-08
1.8655e-06
2.02961e-07
1.0109e-07
8.08266e-08
7.72147e-08
7.68414e-08
7.65479e-08
7.65617e-08
7.66608e-08
7.67034e-08
1.2331e-06
1.88689e-07
9.12979e-08
7.23493e-08
6.89083e-08
6.84899e-08
6.79316e-08
6.82356e-08
6.83249e-08
6.8367e-08
8.10117e-07
1.7543e-07
8.30891e-08
6.55531e-08
6.22671e-08
6.18367e-08
6.17769e-08
6.15768e-08
6.16792e-08
6.17214e-08
5.50323e-07
1.63387e-07
7.69415e-08
5.99688e-08
5.68345e-08
5.6409e-08
5.67712e-08
5.61204e-08
5.62555e-08
5.62984e-08
3.91814e-07
1.51157e-07
7.12988e-08
5.52666e-08
5.22964e-08
5.18785e-08
5.21122e-08
5.15416e-08
5.17346e-08
5.17782e-08
2.92313e-07
1.38931e-07
6.60419e-08
5.12201e-08
4.84385e-08
4.8031e-08
4.81719e-08
4.76145e-08
4.79002e-08
4.79433e-08
2.2728e-07
1.27285e-07
6.13627e-08
4.76699e-08
4.51148e-08
4.47206e-08
4.48012e-08
4.46165e-08
4.46054e-08
4.46457e-08
1.83117e-07
1.16217e-07
5.71719e-08
4.49106e-08
4.22251e-08
4.18473e-08
4.1887e-08
4.17065e-08
4.17465e-08
4.17838e-08
1.52276e-07
1.07046e-07
5.34001e-08
4.22628e-08
3.96954e-08
3.93401e-08
3.93532e-08
3.91494e-08
3.92523e-08
3.92859e-08
1.30358e-07
9.78135e-08
5.00001e-08
3.98555e-08
3.74703e-08
3.71461e-08
3.7144e-08
3.71576e-08
3.707e-08
3.70985e-08
1.13877e-07
8.88167e-08
4.69458e-08
3.7975e-08
3.5738e-08
3.54523e-08
3.5441e-08
3.54537e-08
3.53841e-08
3.541e-08
1.0216e-07
8.09856e-08
4.42155e-08
3.62532e-08
3.42573e-08
3.38767e-08
3.3858e-08
3.38656e-08
3.38109e-08
3.38314e-08
9.31757e-08
7.39555e-08
4.17827e-08
3.48589e-08
3.3015e-08
3.26584e-08
3.26349e-08
3.26411e-08
3.25958e-08
3.2614e-08
8.59547e-08
6.77592e-08
3.98726e-08
3.36765e-08
3.19951e-08
3.16613e-08
3.16345e-08
3.16393e-08
3.16004e-08
3.16169e-08
)
;

boundaryField
{
    fuel
    {
        type            fixedValue;
        value           uniform 0;
    }
    wall
    {
        type            zeroGradient;
    }
    outlet
    {
        type            zeroGradient;
    }
    frontAndBack
    {
        type            empty;
    }
    procBoundary2to0
    {
        type            processor;
        value           nonuniform List<scalar> 
12
(
3.25159e-08
7.98077e-08
6.23531e-08
3.82295e-08
3.2718e-08
3.11805e-08
3.08688e-08
3.08398e-08
3.08432e-08
3.08086e-08
3.15299e-08
3.08238e-08
)
;
    }
    procBoundary2to3
    {
        type            processor;
        value           nonuniform List<scalar> 
25
(
4.54644e-07
4.15041e-07
3.7669e-07
3.3678e-07
2.91756e-07
2.46696e-07
2.04796e-07
1.70066e-07
1.42154e-07
1.20018e-07
1.20018e-07
1.01043e-07
8.71694e-08
7.65322e-08
6.82224e-08
6.15855e-08
5.61635e-08
5.16415e-08
4.78046e-08
4.45064e-08
4.16462e-08
3.91531e-08
3.69742e-08
3.52917e-08
3.37232e-08
)
;
    }
}


// ************************************************************************* //
