/*--------------------------------*- C++ -*----------------------------------*\
| =========                 |                                                 |
| \\      /  F ield         | OpenFOAM: The Open Source CFD Toolbox           |
|  \\    /   O peration     | Version:  dev                                   |
|   \\  /    A nd           | Web:      www.OpenFOAM.org                      |
|    \\/     M anipulation  |                                                 |
\*---------------------------------------------------------------------------*/
FoamFile
{
    version     2.0;
    format      ascii;
    class       volScalarField;
    location    "0.155";
    object      P2-;
}
// * * * * * * * * * * * * * * * * * * * * * * * * * * * * * * * * * * * * * //

dimensions      [0 0 0 0 0 0 0];

internalField   nonuniform List<scalar> 
250
(
1.71906e-11
5.64467e-09
4.89115e-09
4.80766e-09
4.79936e-09
4.79451e-09
4.7927e-09
4.7918e-09
4.7901e-09
1.24164e-11
6.57097e-09
4.40617e-09
4.25303e-09
4.23069e-09
4.22463e-09
4.22355e-09
4.22386e-09
4.2236e-09
6.48402e-12
4.96697e-09
2.80995e-09
2.67153e-09
2.64764e-09
2.64313e-09
2.64107e-09
2.64207e-09
2.64091e-09
3.59149e-12
3.18865e-09
1.57498e-09
1.4781e-09
1.45758e-09
1.45549e-09
1.45294e-09
1.45387e-09
1.45132e-09
2.06018e-12
1.93524e-09
8.50468e-10
7.90077e-10
7.75044e-10
7.75136e-10
7.72874e-10
7.73174e-10
7.68224e-10
1.21069e-12
1.05591e-09
4.66096e-10
4.25097e-10
4.1182e-10
4.09991e-10
4.09237e-10
4.06973e-10
4.12862e-10
8.46316e-13
6.26823e-10
2.6724e-10
2.40545e-10
2.32495e-10
2.30506e-10
2.31088e-10
2.27429e-10
2.32855e-10
7.16576e-13
3.87602e-10
1.63059e-10
1.44591e-10
1.33334e-10
1.33393e-10
1.32576e-10
1.3435e-10
1.32608e-10
8.0704e-13
2.50998e-10
1.05116e-10
8.98913e-11
8.40474e-11
8.33089e-11
8.3252e-11
8.43825e-11
8.32852e-11
1.29802e-12
1.69649e-10
7.01571e-11
6.07022e-11
5.66646e-11
5.58457e-11
5.56277e-11
5.65257e-11
5.59472e-11
2.26086e-12
1.14043e-10
4.97316e-11
4.34271e-11
3.98183e-11
3.87732e-11
3.94746e-11
3.91604e-11
3.89456e-11
3.87318e-11
3.87996e-12
8.25334e-11
3.85292e-11
3.14919e-11
2.8988e-11
2.79827e-11
2.84183e-11
2.81628e-11
2.81732e-11
2.79725e-11
6.32447e-12
6.45052e-11
3.04125e-11
2.38748e-11
2.20939e-11
2.11342e-11
2.13818e-11
2.1201e-11
2.13298e-11
2.11461e-11
9.92023e-12
5.28163e-11
2.48764e-11
1.87882e-11
1.74852e-11
1.65811e-11
1.66521e-11
1.65875e-11
1.677e-11
1.66044e-11
1.50749e-11
4.51657e-11
2.09114e-11
1.52444e-11
1.42616e-11
1.34245e-11
1.37165e-11
1.33955e-11
1.3596e-11
1.34483e-11
2.22017e-11
3.99361e-11
1.79438e-11
1.26783e-11
1.19137e-11
1.11483e-11
1.15782e-11
1.10952e-11
1.12989e-11
1.1168e-11
3.1778e-11
3.63143e-11
1.5634e-11
1.07553e-11
1.01421e-11
9.44783e-12
9.80843e-12
9.37356e-12
9.57893e-12
9.46348e-12
4.44176e-11
3.33756e-11
1.3772e-11
9.26984e-12
8.76455e-12
8.13957e-12
8.4409e-12
8.03894e-12
8.25314e-12
8.15164e-12
6.0742e-11
3.11475e-11
1.22245e-11
8.09194e-12
7.66612e-12
7.10808e-12
7.36052e-12
7.09982e-12
7.20614e-12
7.11698e-12
8.09611e-11
2.95486e-11
1.1062e-11
7.13602e-12
6.77212e-12
6.27828e-12
6.48879e-12
6.25704e-12
6.36197e-12
6.28441e-12
1.04387e-10
2.81251e-11
9.99036e-12
6.34152e-12
6.03229e-12
5.59993e-12
5.77398e-12
5.56405e-12
5.67017e-12
5.60359e-12
1.29169e-10
2.67867e-11
9.02884e-12
5.75341e-12
5.4112e-12
5.03782e-12
5.17977e-12
5.04964e-12
5.09534e-12
5.03924e-12
1.52489e-10
2.53968e-11
8.17657e-12
5.2641e-12
4.94628e-12
4.61966e-12
4.73822e-12
4.62645e-12
4.66791e-12
4.61932e-12
1.71236e-10
2.39871e-11
7.49675e-12
4.8236e-12
4.54007e-12
4.2457e-12
4.34757e-12
4.249e-12
4.28682e-12
4.24412e-12
1.8283e-10
2.24593e-11
6.86909e-12
4.47973e-12
4.21583e-12
3.96e-12
4.04369e-12
3.96064e-12
3.9931e-12
3.95705e-12
1.85857e-10
2.06528e-11
6.33666e-12
4.19434e-12
3.94574e-12
3.72752e-12
3.7952e-12
3.72617e-12
3.75326e-12
3.72335e-12
)
;

boundaryField
{
    fuel
    {
        type            fixedValue;
        value           uniform 0;
    }
    wall
    {
        type            zeroGradient;
    }
    outlet
    {
        type            zeroGradient;
    }
    frontAndBack
    {
        type            empty;
    }
    procBoundary2to0
    {
        type            processor;
        value           nonuniform List<scalar> 
12
(
3.97484e-12
1.79967e-10
1.86695e-11
5.8657e-12
3.95924e-12
3.72699e-12
3.54069e-12
3.59431e-12
3.53778e-12
3.55974e-12
3.73858e-12
3.53538e-12
)
;
    }
    procBoundary2to3
    {
        type            processor;
        value           nonuniform List<scalar> 
25
(
4.7907e-09
4.2239e-09
2.64168e-09
1.45214e-09
7.68812e-10
4.13184e-10
2.32985e-10
1.32519e-10
8.31354e-11
5.57734e-11
5.57734e-11
3.87849e-11
2.80488e-11
2.12221e-11
1.66737e-11
1.35101e-11
1.12233e-11
9.51312e-12
8.19623e-12
7.15683e-12
6.31969e-12
5.63438e-12
5.06559e-12
4.64257e-12
4.26465e-12
)
;
    }
}


// ************************************************************************* //
