/*--------------------------------*- C++ -*----------------------------------*\
| =========                 |                                                 |
| \\      /  F ield         | OpenFOAM: The Open Source CFD Toolbox           |
|  \\    /   O peration     | Version:  dev                                   |
|   \\  /    A nd           | Web:      www.OpenFOAM.org                      |
|    \\/     M anipulation  |                                                 |
\*---------------------------------------------------------------------------*/
FoamFile
{
    version     2.0;
    format      ascii;
    class       volScalarField;
    location    "0.23";
    object      dQ;
}
// * * * * * * * * * * * * * * * * * * * * * * * * * * * * * * * * * * * * * //

dimensions      [ 1 2 -3 0 0 0 0 ];

internalField   nonuniform List<scalar> 
100
(
34.3003
13.669
6.48484
3.25106
1.665
0.859807
0.462314
0.258433
0.153688
0.0969177
0.0645038
0.0451259
0.0330361
0.025189
0.0198877
0.0161646
0.0134722
0.0114666
0.00992883
0.00871646
0.00773458
0.00691908
0.0062261
0.00562531
0.00509562
0.00462225
0.00419444
0.00380473
0.00344828
0.00312124
0.00282067
0.00254423
0.00229005
0.00205663
0.00184266
0.00164703
0.00146873
0.00130685
0.00116049
0.00102886
0.000909925
0.00080336
0.000710139
0.000627776
0.000555386
0.000491955
0.000436525
0.000388054
0.000345868
0.000309092
0.000277036
0.000248717
0.000224232
0.00020229
0.000183059
0.000166164
0.000151618
0.000138505
0.000126664
0.000116343
0.000106971
9.8355e-05
9.03286e-05
8.27623e-05
7.53294e-05
6.83689e-05
6.16338e-05
5.51321e-05
4.89036e-05
4.28429e-05
3.72981e-05
3.21661e-05
2.74748e-05
2.32324e-05
1.94314e-05
1.60653e-05
1.30612e-05
1.0468e-05
8.30006e-06
6.59697e-06
5.20875e-06
4.09062e-06
3.19605e-06
2.48525e-06
1.91898e-06
1.4607e-06
1.12575e-06
8.64084e-07
6.6103e-07
5.0405e-07
3.82913e-07
2.89784e-07
2.17516e-07
1.60545e-07
1.17148e-07
8.13441e-08
5.30565e-08
2.88913e-08
1.19171e-08
3.4322e-09
)
;

boundaryField
{
    front
    {
        type            wedge;
    }
    back
    {
        type            wedge;
    }
    wall
    {
        type            calculated;
        value           uniform 0;
    }
    fuel
    {
        type            calculated;
        value           uniform 0;
    }
    outlet
    {
        type            calculated;
        value           uniform 0;
    }
    axis
    {
        type            empty;
    }
}


// ************************************************************************* //
