/*--------------------------------*- C++ -*----------------------------------*\
| =========                 |                                                 |
| \\      /  F ield         | OpenFOAM: The Open Source CFD Toolbox           |
|  \\    /   O peration     | Version:  dev                                   |
|   \\  /    A nd           | Web:      www.OpenFOAM.org                      |
|    \\/     M anipulation  |                                                 |
\*---------------------------------------------------------------------------*/
FoamFile
{
    version     2.0;
    format      ascii;
    class       volScalarField;
    location    "0.0245";
    object      moment.4.populationBalance;
}
// * * * * * * * * * * * * * * * * * * * * * * * * * * * * * * * * * * * * * //

dimensions      [0 9 0 0 0 0 0];

internalField   nonuniform List<scalar> 
251
(
7.45078e+14
7.24838e+14
7.05131e+14
6.85944e+14
6.67262e+14
6.49073e+14
6.31364e+14
6.14122e+14
5.97336e+14
5.80992e+14
5.65081e+14
5.4959e+14
5.34509e+14
5.19827e+14
5.05533e+14
4.91619e+14
4.78073e+14
4.64886e+14
4.52049e+14
4.39552e+14
4.27388e+14
4.15547e+14
4.04021e+14
3.92801e+14
3.81881e+14
3.71251e+14
3.60905e+14
3.50835e+14
3.41034e+14
3.31494e+14
3.2221e+14
3.13174e+14
3.0438e+14
2.95822e+14
2.87494e+14
2.79389e+14
2.71502e+14
2.63827e+14
2.56358e+14
2.49091e+14
2.4202e+14
2.3514e+14
2.28445e+14
2.21932e+14
2.15594e+14
2.09429e+14
2.0343e+14
1.97595e+14
1.91918e+14
1.86396e+14
1.81024e+14
1.75798e+14
1.70715e+14
1.65771e+14
1.60962e+14
1.56285e+14
1.51737e+14
1.47313e+14
1.4301e+14
1.38827e+14
1.34758e+14
1.30802e+14
1.26955e+14
1.23215e+14
1.19578e+14
1.16043e+14
1.12605e+14
1.09263e+14
1.06015e+14
1.02857e+14
9.97872e+13
9.68035e+13
9.39035e+13
9.1085e+13
8.83457e+13
8.56837e+13
8.30968e+13
8.0583e+13
7.81404e+13
7.5767e+13
7.34611e+13
7.12207e+13
6.9044e+13
6.69294e+13
6.4875e+13
6.28791e+13
6.09399e+13
5.90559e+13
5.72251e+13
5.54457e+13
5.3716e+13
5.20339e+13
5.03975e+13
4.88044e+13
4.72526e+13
4.57394e+13
4.42622e+13
4.28182e+13
4.14045e+13
4.00178e+13
3.86549e+13
3.73124e+13
3.59869e+13
3.4675e+13
3.33733e+13
3.20789e+13
3.07889e+13
2.95009e+13
2.82131e+13
2.69242e+13
2.56337e+13
2.43418e+13
2.30496e+13
2.17589e+13
2.04724e+13
1.91936e+13
1.79265e+13
1.66758e+13
1.54467e+13
1.42447e+13
1.30751e+13
1.19435e+13
1.08552e+13
9.81481e+12
8.82674e+12
7.89456e+12
7.02109e+12
6.20834e+12
5.45746e+12
4.76874e+12
4.14165e+12
3.57488e+12
3.06642e+12
2.6137e+12
2.21363e+12
1.86275e+12
1.55734e+12
1.29351e+12
1.06734e+12
8.74906e+11
7.12422e+11
5.7626e+11
4.63016e+11
3.69543e+11
2.92966e+11
2.30702e+11
1.80452e+11
1.402e+11
1.08196e+11
8.29371e+10
6.31487e+10
4.77594e+10
3.58786e+10
2.67731e+10
1.9845e+10
1.46116e+10
1.06867e+10
7.76422e+09
5.60354e+09
4.0174e+09
2.86124e+09
2.02439e+09
1.42291e+09
9.93586e+08
6.89272e+08
4.75051e+08
3.25284e+08
2.21292e+08
1.49575e+08
1.0045e+08
6.70273e+07
4.44394e+07
2.9276e+07
1.91642e+07
1.24656e+07
8.05734e+06
5.17527e+06
3.30329e+06
2.09529e+06
1.32078e+06
827413
515138
318746
196018
119809
72782.7
43946.8
26375.1
15733.9
9329.72
5499.15
3222.02
1876.61
1086.54
625.389
357.847
203.561
115.121
64.7264
36.1816
20.1086
11.1115
6.10473
3.33484
1.81137
0.978293
0.525377
0.280557
0.14898
0.0786685
0.0413091
0.0215712
0.0112019
0.00578504
0.00297117
0.00151762
0.000770944
0.000389504
0.000195722
9.78164e-05
4.86227e-05
2.40396e-05
1.18218e-05
5.7825e-06
2.81339e-06
1.36154e-06
6.55421e-07
3.13827e-07
1.49458e-07
7.07854e-08
3.33287e-08
1.55883e-08
7.22915e-09
3.30965e-09
1.47999e-09
6.2979e-10
2.34572e-10
5.30706e-11
0
0
0
0
0
0
0
0
0
0
0
0
0
)
;

boundaryField
{
    wall
    {
        type            zeroGradient;
    }
    fuel
    {
        type            fixedValue;
        value           uniform 7.65865e+14;
    }
    outlet
    {
        type            inletOutlet;
        inletValue      nonuniform 0();
        value           nonuniform 0();
    }
    procBoundary0to1
    {
        type            processor;
        value           uniform 0;
    }
}


// ************************************************************************* //
