/*--------------------------------*- C++ -*----------------------------------*\
| =========                 |                                                 |
| \\      /  F ield         | OpenFOAM: The Open Source CFD Toolbox           |
|  \\    /   O peration     | Version:  dev                                   |
|   \\  /    A nd           | Web:      www.OpenFOAM.org                      |
|    \\/     M anipulation  |                                                 |
\*---------------------------------------------------------------------------*/
FoamFile
{
    version     2.0;
    format      ascii;
    class       volScalarField;
    location    "0.0245";
    object      moment.3.populationBalance;
}
// * * * * * * * * * * * * * * * * * * * * * * * * * * * * * * * * * * * * * //

dimensions      [0 6 0 0 0 0 0];

internalField   nonuniform List<scalar> 
251
(
8.66522e+12
8.43768e+12
8.21622e+12
8.00067e+12
7.79088e+12
7.58669e+12
7.38795e+12
7.19451e+12
7.00623e+12
6.82298e+12
6.64461e+12
6.47099e+12
6.302e+12
6.13751e+12
5.9774e+12
5.82155e+12
5.66984e+12
5.52217e+12
5.37842e+12
5.2385e+12
5.10228e+12
4.96968e+12
4.8406e+12
4.71494e+12
4.59261e+12
4.47352e+12
4.35758e+12
4.2447e+12
4.13481e+12
4.02782e+12
3.92365e+12
3.82223e+12
3.72349e+12
3.62734e+12
3.53372e+12
3.44257e+12
3.35381e+12
3.26739e+12
3.18323e+12
3.10127e+12
3.02147e+12
2.94375e+12
2.86807e+12
2.79437e+12
2.72259e+12
2.65268e+12
2.5846e+12
2.51829e+12
2.45371e+12
2.3908e+12
2.32953e+12
2.26986e+12
2.21173e+12
2.15511e+12
2.09995e+12
2.04622e+12
1.99388e+12
1.9429e+12
1.89322e+12
1.84483e+12
1.79769e+12
1.75176e+12
1.70701e+12
1.66341e+12
1.62092e+12
1.57953e+12
1.5392e+12
1.4999e+12
1.46161e+12
1.42429e+12
1.38792e+12
1.35249e+12
1.31795e+12
1.2843e+12
1.2515e+12
1.21953e+12
1.18838e+12
1.15802e+12
1.12842e+12
1.09958e+12
1.07146e+12
1.04405e+12
1.01733e+12
9.91284e+11
9.65889e+11
9.41126e+11
9.16975e+11
8.93418e+11
8.70432e+11
8.47996e+11
8.26085e+11
8.04675e+11
7.83737e+11
7.63241e+11
7.43152e+11
7.23434e+11
7.04045e+11
6.8494e+11
6.66072e+11
6.47386e+11
6.28829e+11
6.10344e+11
5.9187e+11
5.73351e+11
5.5473e+11
5.35953e+11
5.16973e+11
4.97752e+11
4.78259e+11
4.58476e+11
4.38398e+11
4.18035e+11
3.97414e+11
3.76576e+11
3.55578e+11
3.34492e+11
3.13405e+11
2.92412e+11
2.71619e+11
2.51138e+11
2.31082e+11
2.11563e+11
1.92689e+11
1.74562e+11
1.57272e+11
1.40896e+11
1.25498e+11
1.11126e+11
9.78104e+10
8.55665e+10
7.43931e+10
6.42742e+10
5.51802e+10
4.707e+10
3.98928e+10
3.35902e+10
2.80981e+10
2.33492e+10
1.92744e+10
1.5805e+10
1.28735e+10
1.04156e+10
8.37042e+09
6.68159e+09
5.29759e+09
4.17196e+09
3.26334e+09
2.53539e+09
1.95654e+09
1.49967e+09
1.14174e+09
8.63382e+08
6.48501e+08
4.83831e+08
3.58556e+08
2.63939e+08
1.92994e+08
1.40178e+08
1.01139e+08
7.24885e+07
5.16104e+07
3.65033e+07
2.56484e+07
1.79032e+07
1.24151e+07
8.55321e+06
5.8543e+06
3.98105e+06
2.68971e+06
1.80554e+06
1.20424e+06
798054
525501
343832
223542
144419
92715
59148.7
37499
23625.6
14792.7
9204.87
5692.55
3498.84
2137.36
1297.72
783.137
469.744
280.066
165.976
97.7742
57.2541
33.3275
19.2851
11.0936
6.34398
3.60664
2.03847
1.14544
0.639908
0.355427
0.196281
0.107773
0.0588373
0.0319388
0.0172391
0.00925228
0.00493777
0.00262041
0.00138284
0.000725681
0.000378706
0.000196538
0.000101436
5.20642e-05
2.65767e-05
1.34923e-05
6.81239e-06
3.42098e-06
1.70863e-06
8.48786e-07
4.19382e-07
2.06105e-07
1.0075e-07
4.89869e-08
2.3692e-08
1.13976e-08
5.45385e-09
2.59568e-09
1.22856e-09
5.78083e-10
2.70202e-10
1.25226e-10
5.72935e-11
2.56033e-11
1.08879e-11
4.05255e-12
9.16226e-13
0
0
0
0
0
0
0
0
0
0
0
0
0
)
;

boundaryField
{
    wall
    {
        type            zeroGradient;
    }
    fuel
    {
        type            fixedValue;
        value           uniform 8.899e+12;
    }
    outlet
    {
        type            inletOutlet;
        inletValue      nonuniform 0();
        value           nonuniform 0();
    }
    procBoundary0to1
    {
        type            processor;
        value           uniform 0;
    }
}


// ************************************************************************* //
