/*--------------------------------*- C++ -*----------------------------------*\
| =========                 |                                                 |
| \\      /  F ield         | OpenFOAM: The Open Source CFD Toolbox           |
|  \\    /   O peration     | Version:  dev                                   |
|   \\  /    A nd           | Web:      www.OpenFOAM.org                      |
|    \\/     M anipulation  |                                                 |
\*---------------------------------------------------------------------------*/
FoamFile
{
    version     2.0;
    format      ascii;
    class       volScalarField;
    location    "0.0245";
    object      moment.0.populationBalance;
}
// * * * * * * * * * * * * * * * * * * * * * * * * * * * * * * * * * * * * * //

dimensions      [0 -3 0 0 0 0 0];

internalField   nonuniform List<scalar> 
251
(
6.08107e+09
6.081e+09
6.08093e+09
6.08084e+09
6.08073e+09
6.08061e+09
6.08046e+09
6.08028e+09
6.08007e+09
6.07983e+09
6.07954e+09
6.0792e+09
6.07879e+09
6.07832e+09
6.07777e+09
6.07712e+09
6.07636e+09
6.07546e+09
6.07442e+09
6.07321e+09
6.0718e+09
6.07016e+09
6.06826e+09
6.06605e+09
6.0635e+09
6.06057e+09
6.05718e+09
6.0533e+09
6.04885e+09
6.04377e+09
6.03798e+09
6.0314e+09
6.02394e+09
6.01552e+09
6.00603e+09
5.99539e+09
5.98348e+09
5.97022e+09
5.9555e+09
5.93923e+09
5.92131e+09
5.90166e+09
5.88021e+09
5.85689e+09
5.83164e+09
5.80443e+09
5.77523e+09
5.74403e+09
5.71084e+09
5.67568e+09
5.63859e+09
5.59961e+09
5.55882e+09
5.51628e+09
5.4721e+09
5.42635e+09
5.37914e+09
5.33059e+09
5.28079e+09
5.22985e+09
5.1779e+09
5.12504e+09
5.07137e+09
5.01699e+09
4.96202e+09
4.90654e+09
4.85064e+09
4.7944e+09
4.73791e+09
4.68124e+09
4.62445e+09
4.56762e+09
4.51078e+09
4.45401e+09
4.39734e+09
4.34082e+09
4.28448e+09
4.22837e+09
4.17251e+09
4.11693e+09
4.06165e+09
4.00669e+09
3.95208e+09
3.8978e+09
3.84389e+09
3.79032e+09
3.73711e+09
3.68423e+09
3.63167e+09
3.57939e+09
3.52733e+09
3.47545e+09
3.42366e+09
3.37185e+09
3.31991e+09
3.26768e+09
3.21498e+09
3.16161e+09
3.10735e+09
3.05191e+09
2.99503e+09
2.9364e+09
2.87571e+09
2.81262e+09
2.74683e+09
2.67804e+09
2.60597e+09
2.53042e+09
2.45121e+09
2.36824e+09
2.2815e+09
2.19107e+09
2.09713e+09
1.99995e+09
1.89991e+09
1.79748e+09
1.69322e+09
1.58778e+09
1.48184e+09
1.37614e+09
1.27143e+09
1.16847e+09
1.06798e+09
9.70673e+08
8.77164e+08
7.88013e+08
7.03687e+08
6.24558e+08
5.509e+08
4.82882e+08
4.20574e+08
3.63955e+08
3.12917e+08
2.67278e+08
2.26792e+08
1.91163e+08
1.60058e+08
1.33117e+08
1.09966e+08
9.02287e+07
7.35333e+07
5.95209e+07
4.78516e+07
3.82087e+07
3.03014e+07
2.3867e+07
1.8671e+07
1.45069e+07
1.11948e+07
8.58027e+06
6.53173e+06
4.9386e+06
3.70878e+06
2.76641e+06
2.04958e+06
1.50829e+06
1.1025e+06
800492
577333
413613
294353
208093
146140
101956
70664.3
48655.9
33283.5
22619.9
15273.2
10246.1
6829.38
4522.84
2976.16
1945.93
1264.25
816.18
523.591
333.783
211.451
133.119
83.2849
51.784
31.9992
19.6519
11.9952
7.27695
4.38779
2.62969
1.56652
0.927576
0.545951
0.319418
0.18577
0.107401
0.0617269
0.0352677
0.0200321
0.0113119
0.00635048
0.0035445
0.00196692
0.0010852
0.000595303
0.000324695
0.000176089
9.49551e-05
5.09144e-05
2.71462e-05
1.43923e-05
7.58779e-06
3.97806e-06
2.07399e-06
1.0753e-06
5.54432e-07
2.84296e-07
1.4498e-07
7.35297e-08
3.70891e-08
1.86066e-08
9.28393e-09
4.60732e-09
2.27418e-09
1.11652e-09
5.45236e-10
2.64839e-10
1.27957e-10
6.14941e-11
2.93956e-11
1.39761e-11
6.60826e-12
3.10624e-12
1.4504e-12
6.71494e-13
3.06902e-13
1.37003e-13
5.81987e-14
2.16384e-14
4.88668e-15
0
0
0
0
0
0
0
0
0
0
0
0
0
)
;

boundaryField
{
    wall
    {
        type            zeroGradient;
    }
    fuel
    {
        type            fixedValue;
        value           uniform 6.08112e+09;
    }
    outlet
    {
        type            inletOutlet;
        inletValue      nonuniform 0();
        value           nonuniform 0();
    }
    procBoundary0to1
    {
        type            processor;
        value           uniform 0;
    }
}


// ************************************************************************* //
