/*--------------------------------*- C++ -*----------------------------------*\
| =========                 |                                                 |
| \\      /  F ield         | OpenFOAM: The Open Source CFD Toolbox           |
|  \\    /   O peration     | Version:  dev                                   |
|   \\  /    A nd           | Web:      www.OpenFOAM.org                      |
|    \\/     M anipulation  |                                                 |
\*---------------------------------------------------------------------------*/
FoamFile
{
    version     2.0;
    format      ascii;
    class       volScalarField;
    location    "0.015";
    object      A1C2H-;
}
// * * * * * * * * * * * * * * * * * * * * * * * * * * * * * * * * * * * * * //

dimensions      [0 0 0 0 0 0 0];

internalField   nonuniform List<scalar> 
250
(
5.48757e-07
5.48762e-07
5.4895e-07
5.4946e-07
5.50425e-07
5.52516e-07
5.47552e-07
4.71885e-07
3.12131e-09
2.51732e-10
2.8135e-11
6.45873e-07
6.45849e-07
6.47003e-07
6.50292e-07
6.56689e-07
6.68768e-07
6.46509e-07
3.90633e-07
1.87348e-09
6.79221e-10
1.37733e-10
4.34928e-07
4.34927e-07
4.36282e-07
4.40169e-07
4.47787e-07
4.6182e-07
4.40465e-07
1.96705e-07
8.46721e-10
6.99157e-10
2.74334e-10
2.64412e-07
2.64423e-07
2.65665e-07
2.69155e-07
2.76016e-07
2.88762e-07
2.74638e-07
9.19626e-08
4.84455e-10
4.80587e-10
3.47511e-10
1.62832e-07
1.62841e-07
1.63922e-07
1.66609e-07
1.72621e-07
1.83973e-07
1.77294e-07
4.63954e-08
8.42153e-10
3.35808e-10
3.72206e-10
1.05143e-07
1.05143e-07
1.06112e-07
1.07253e-07
1.13443e-07
1.24314e-07
1.23986e-07
2.79756e-08
6.01097e-09
4.15812e-10
3.84256e-10
7.1796e-08
7.17881e-08
7.2703e-08
7.29566e-08
7.91579e-08
8.83826e-08
9.54687e-08
2.18663e-08
4.49541e-08
1.42324e-09
4.17942e-10
4.88638e-08
4.88434e-08
4.98822e-08
5.24619e-08
5.68844e-08
6.54779e-08
8.09598e-08
2.24356e-08
9.1188e-08
3.5832e-09
5.02045e-10
3.6079e-08
3.6053e-08
3.70842e-08
3.83864e-08
4.2046e-08
5.11213e-08
7.46741e-08
2.82402e-08
1.27725e-07
4.72657e-09
5.67674e-10
2.77672e-08
2.77373e-08
2.83736e-08
2.99941e-08
3.34817e-08
4.28879e-08
7.33071e-08
4.00499e-08
1.23439e-07
4.8425e-09
5.79536e-10
2.14452e-08
2.19976e-08
2.36075e-08
2.68785e-08
3.74633e-08
7.47292e-08
5.93435e-08
9.535e-08
4.32472e-09
5.44454e-10
1.70223e-08
1.7564e-08
1.90942e-08
2.22919e-08
3.3841e-08
7.74344e-08
8.63569e-08
7.33207e-08
3.49492e-09
4.79735e-10
1.38156e-08
1.4367e-08
1.58672e-08
1.89916e-08
3.13977e-08
8.02911e-08
1.17879e-07
5.46052e-08
2.41301e-09
4.03545e-10
1.14175e-08
1.19787e-08
1.34817e-08
1.68127e-08
2.97417e-08
8.24429e-08
1.47457e-07
3.0142e-08
1.40372e-09
3.33303e-10
9.56666e-09
1.0133e-08
1.1654e-08
1.50066e-08
2.86008e-08
8.34415e-08
1.68534e-07
1.44071e-08
7.76163e-10
2.75694e-10
8.09441e-09
8.66117e-09
1.02055e-08
1.36683e-08
2.77973e-08
8.31809e-08
1.77658e-07
6.43814e-09
4.67683e-10
2.29389e-10
6.89206e-09
7.45613e-09
9.02107e-09
1.26054e-08
2.72093e-08
8.17681e-08
1.75012e-07
2.79339e-09
3.51547e-10
1.90491e-10
5.88893e-09
6.44767e-09
8.02799e-09
1.1746e-08
2.67526e-08
7.94435e-08
1.62693e-07
1.5251e-09
3.21588e-10
1.57508e-10
5.03862e-09
5.59e-09
7.17909e-09
1.10427e-08
2.63693e-08
7.64957e-08
1.4317e-07
1.14854e-09
3.14044e-10
1.28829e-10
4.30998e-09
4.85253e-09
6.44292e-09
1.04652e-08
2.60085e-08
7.31822e-08
1.19102e-07
1.0064e-09
3.01841e-10
1.03752e-10
3.68132e-09
4.21421e-09
5.79759e-09
9.99355e-09
2.56526e-08
6.96841e-08
9.36548e-08
8.91945e-10
2.78392e-10
8.20589e-11
3.13676e-09
3.6598e-09
5.2266e-09
9.61431e-09
2.52519e-08
6.60897e-08
7.01313e-08
7.87438e-10
2.45794e-10
6.36745e-11
2.66391e-09
3.17767e-09
4.77431e-09
9.31607e-09
2.48008e-08
6.24197e-08
5.08928e-08
7.0618e-10
2.08244e-10
4.85791e-11
2.25224e-09
2.75489e-09
4.38058e-09
9.08655e-09
2.42771e-08
5.86364e-08
3.65527e-08
6.46796e-10
1.6957e-10
3.6313e-11
)
;

boundaryField
{
    fuel
    {
        type            fixedValue;
        value           uniform 0;
    }
    wall
    {
        type            zeroGradient;
    }
    outlet
    {
        type            zeroGradient;
    }
    frontAndBack
    {
        type            empty;
    }
    procBoundary3to0
    {
        type            processor;
        value           nonuniform List<scalar> 10(1.93234e-09 2.42357e-09 4.04058e-09 8.91168e-09 2.36128e-08 5.46829e-08 2.60958e-08 5.92319e-10 1.32466e-10 2.69252e-11);
    }
    procBoundary3to2
    {
        type            processor;
        value           nonuniform List<scalar> 
25
(
5.4897e-07
6.47067e-07
4.3631e-07
2.65658e-07
1.63901e-07
1.06089e-07
7.26833e-08
4.98873e-08
3.70841e-08
2.83768e-08
2.14653e-08
2.14653e-08
1.70426e-08
1.38365e-08
1.14381e-08
9.58654e-09
8.11357e-09
6.91037e-09
5.90636e-09
5.0552e-09
4.32576e-09
3.69636e-09
3.15111e-09
2.67767e-09
2.26564e-09
)
;
    }
}


// ************************************************************************* //
