/*--------------------------------*- C++ -*----------------------------------*\
| =========                 |                                                 |
| \\      /  F ield         | OpenFOAM: The Open Source CFD Toolbox           |
|  \\    /   O peration     | Version:  dev                                   |
|   \\  /    A nd           | Web:      www.OpenFOAM.org                      |
|    \\/     M anipulation  |                                                 |
\*---------------------------------------------------------------------------*/
FoamFile
{
    version     2.0;
    format      ascii;
    class       volScalarField;
    location    "0.015";
    object      A1C2H*;
}
// * * * * * * * * * * * * * * * * * * * * * * * * * * * * * * * * * * * * * //

dimensions      [0 0 0 0 0 0 0];

internalField   nonuniform List<scalar> 
250
(
6.56901e-07
6.56901e-07
6.57369e-07
6.57694e-07
6.58679e-07
6.5997e-07
6.61718e-07
6.64476e-07
6.71177e-07
6.91986e-07
1.30813e-09
5.4535e-07
5.45349e-07
5.45853e-07
5.47058e-07
5.49204e-07
5.52005e-07
5.55743e-07
5.61629e-07
5.77855e-07
7.0853e-07
7.66282e-10
3.51071e-07
3.51069e-07
3.51539e-07
3.52858e-07
3.55101e-07
3.58043e-07
3.61953e-07
3.68411e-07
3.85385e-07
5.3203e-07
3.96492e-10
2.12945e-07
2.12943e-07
2.13352e-07
2.14514e-07
2.16573e-07
2.19153e-07
2.22552e-07
2.28515e-07
2.43286e-07
3.71068e-07
2.59537e-10
1.30491e-07
1.30489e-07
1.30866e-07
1.31794e-07
1.33816e-07
1.35515e-07
1.38598e-07
1.43784e-07
1.56113e-07
2.57963e-07
2.14725e-10
8.3375e-08
8.33736e-08
8.37746e-08
8.44398e-08
8.49396e-08
8.76071e-08
9.02752e-08
9.46521e-08
1.05223e-07
1.82435e-07
2.38234e-10
5.62499e-08
5.62487e-08
5.67534e-08
5.71074e-08
5.74887e-08
5.97998e-08
6.22785e-08
6.59756e-08
7.52802e-08
1.31169e-07
4.8416e-10
3.84761e-08
3.84751e-08
3.93946e-08
3.95268e-08
4.10541e-08
4.31891e-08
4.5012e-08
4.88902e-08
5.52311e-08
9.9442e-08
1.05417e-09
2.82408e-08
2.82398e-08
2.81694e-08
2.9238e-08
3.04319e-08
3.20794e-08
3.32521e-08
3.70341e-08
4.2624e-08
7.83981e-08
2.06415e-09
2.1482e-08
2.14818e-08
2.17458e-08
2.25697e-08
2.30568e-08
2.45498e-08
2.64431e-08
2.92995e-08
3.53455e-08
6.42482e-08
3.60977e-09
1.69457e-08
1.69029e-08
1.76499e-08
1.86414e-08
1.94309e-08
2.15789e-08
2.47144e-08
2.98734e-08
5.40772e-08
5.68728e-09
1.33653e-08
1.34986e-08
1.41221e-08
1.51411e-08
1.62376e-08
1.79626e-08
2.12777e-08
2.6557e-08
4.75864e-08
8.33065e-09
1.07722e-08
1.10193e-08
1.15664e-08
1.25863e-08
1.38425e-08
1.56515e-08
1.87297e-08
2.43078e-08
4.33238e-08
1.1675e-08
8.82869e-09
9.14496e-09
9.64796e-09
1.0665e-08
1.19257e-08
1.39065e-08
1.71091e-08
2.28216e-08
4.06597e-08
1.58482e-08
7.3196e-09
7.6806e-09
8.16008e-09
9.17799e-09
1.04606e-08
1.25517e-08
1.59561e-08
2.18937e-08
3.9122e-08
2.07937e-08
6.18278e-09
6.50495e-09
6.97249e-09
7.99593e-09
9.3074e-09
1.16044e-08
1.51648e-08
2.13838e-08
3.83086e-08
2.61619e-08
5.26812e-09
5.53976e-09
6.0014e-09
7.03381e-09
8.48266e-09
1.08813e-08
1.46647e-08
2.11879e-08
3.78605e-08
3.13428e-08
4.51461e-09
4.73375e-09
5.19181e-09
6.23435e-09
7.76314e-09
1.03456e-08
1.44077e-08
2.12215e-08
3.74655e-08
3.56419e-08
3.84576e-09
4.05187e-09
4.50668e-09
5.55897e-09
7.21358e-09
9.97135e-09
1.43579e-08
2.14123e-08
3.6875e-08
3.85053e-08
3.25941e-09
3.46977e-09
3.92027e-09
4.98034e-09
6.76865e-09
9.73952e-09
1.44832e-08
2.16565e-08
3.59231e-08
3.96496e-08
2.7586e-09
2.96993e-09
3.41409e-09
4.47811e-09
6.41443e-09
9.63566e-09
1.47504e-08
2.1899e-08
3.45327e-08
3.90455e-08
2.32995e-09
2.53912e-09
2.97427e-09
4.08624e-09
6.14147e-09
9.64621e-09
1.51444e-08
2.20297e-08
3.27097e-08
3.68334e-08
1.9626e-09
2.16698e-09
2.58928e-09
3.74772e-09
5.94141e-09
9.75664e-09
1.56021e-08
2.19882e-08
3.05202e-08
3.32757e-08
1.64746e-09
1.84503e-09
2.28635e-09
3.45641e-09
5.80631e-09
9.9435e-09
1.60077e-08
2.17164e-08
2.80636e-08
2.87561e-08
)
;

boundaryField
{
    fuel
    {
        type            fixedValue;
        value           uniform 0;
    }
    wall
    {
        type            zeroGradient;
    }
    outlet
    {
        type            zeroGradient;
    }
    frontAndBack
    {
        type            empty;
    }
    procBoundary3to0
    {
        type            processor;
        value           nonuniform List<scalar> 10(1.37682e-09 1.56581e-09 2.01223e-09 3.20658e-09 5.72641e-09 1.01751e-08 1.62712e-08 2.11521e-08 2.54532e-08 2.37435e-08);
    }
    procBoundary3to2
    {
        type            processor;
        value           nonuniform List<scalar> 
25
(
6.57123e-07
5.45858e-07
3.51585e-07
2.13394e-07
1.30897e-07
8.37974e-08
5.67709e-08
3.94063e-08
2.81786e-08
2.17536e-08
1.69444e-08
1.69444e-08
1.33637e-08
1.07708e-08
8.82839e-09
7.32118e-09
6.1882e-09
5.26756e-09
4.51457e-09
3.84607e-09
3.26e-09
2.75932e-09
2.33076e-09
1.96345e-09
1.64835e-09
)
;
    }
}


// ************************************************************************* //
