/*--------------------------------*- C++ -*----------------------------------*\
| =========                 |                                                 |
| \\      /  F ield         | OpenFOAM: The Open Source CFD Toolbox           |
|  \\    /   O peration     | Version:  dev                                   |
|   \\  /    A nd           | Web:      www.OpenFOAM.org                      |
|    \\/     M anipulation  |                                                 |
\*---------------------------------------------------------------------------*/
FoamFile
{
    version     2.0;
    format      ascii;
    class       volScalarField;
    location    "0.015";
    object      A2C2HA*;
}
// * * * * * * * * * * * * * * * * * * * * * * * * * * * * * * * * * * * * * //

dimensions      [0 0 0 0 0 0 0];

internalField   nonuniform List<scalar> 
250
(
9.60701e-10
9.60701e-10
9.62287e-10
9.64243e-10
9.68773e-10
9.7463e-10
9.82286e-10
9.94529e-10
1.03056e-09
1.34477e-09
2.31468e-12
5.59374e-10
5.59373e-10
5.60582e-10
5.62998e-10
5.67626e-10
5.73677e-10
5.81715e-10
5.94592e-10
6.34035e-10
1.09129e-09
1.0172e-12
2.71293e-10
2.7129e-10
2.72032e-10
2.73803e-10
2.76992e-10
2.81253e-10
2.86957e-10
2.96525e-10
3.24759e-10
6.71937e-10
4.38885e-13
1.36268e-10
1.36266e-10
1.36733e-10
1.37939e-10
1.40114e-10
1.43017e-10
1.46905e-10
1.53854e-10
1.73319e-10
4.06708e-10
2.58901e-13
7.50509e-11
7.50493e-11
7.53829e-11
7.6202e-11
7.79076e-11
7.96691e-11
8.26151e-11
8.78872e-11
1.02032e-10
2.57003e-10
1.94922e-13
4.58148e-11
4.58136e-11
4.61005e-11
4.66416e-11
4.72354e-11
4.92616e-11
5.15673e-11
5.57545e-11
6.69195e-11
1.70771e-10
1.94626e-13
3.07486e-11
3.07477e-11
3.10546e-11
3.13573e-11
3.17827e-11
3.34228e-11
3.54166e-11
3.89103e-11
4.83732e-11
1.18191e-10
3.68698e-13
2.14739e-11
2.14733e-11
2.19691e-11
2.21095e-11
2.30544e-11
2.44936e-11
2.60297e-11
2.94689e-11
3.68272e-11
8.82032e-11
8.0357e-13
1.62442e-11
1.62437e-11
1.62212e-11
1.68084e-11
1.75307e-11
1.86451e-11
1.97857e-11
2.31186e-11
2.99059e-11
6.97657e-11
1.7037e-12
1.27701e-11
1.27701e-11
1.29097e-11
1.33502e-11
1.36677e-11
1.46503e-11
1.61579e-11
1.90138e-11
2.60508e-11
5.83808e-11
3.40705e-12
1.03832e-11
1.03482e-11
1.07322e-11
1.12944e-11
1.18633e-11
1.35178e-11
1.65774e-11
2.32966e-11
5.11717e-11
6.22924e-12
8.43365e-12
8.48313e-12
8.78614e-12
9.34233e-12
1.00681e-11
1.15078e-11
1.47581e-11
2.17545e-11
4.75177e-11
1.04611e-11
6.97083e-12
7.07493e-12
7.32279e-12
7.86279e-12
8.6778e-12
1.01993e-11
1.34428e-11
2.08788e-11
4.62295e-11
1.64581e-11
5.84048e-12
5.97719e-12
6.18847e-12
6.71377e-12
7.53677e-12
9.20649e-12
1.26595e-11
2.05352e-11
4.67982e-11
2.45963e-11
4.94269e-12
5.10034e-12
5.28806e-12
5.8044e-12
6.65404e-12
8.4498e-12
1.21897e-11
2.06544e-11
4.88678e-11
3.50452e-11
4.25697e-12
4.38702e-12
4.55966e-12
5.07369e-12
5.96258e-12
7.94972e-12
1.19971e-11
2.12131e-11
5.21157e-11
4.74941e-11
3.70129e-12
3.79799e-12
3.96127e-12
4.47946e-12
5.47936e-12
7.61223e-12
1.20677e-11
2.22173e-11
5.61776e-11
6.09871e-11
3.24209e-12
3.30558e-12
3.46326e-12
3.99119e-12
5.0773e-12
7.42359e-12
1.24074e-11
2.36848e-11
6.06038e-11
7.39984e-11
2.8339e-12
2.88923e-12
3.04401e-12
3.58668e-12
4.79146e-12
7.37759e-12
1.30383e-11
2.56743e-11
6.48599e-11
8.47519e-11
2.47477e-12
2.53349e-12
2.68728e-12
3.24884e-12
4.58508e-12
7.47528e-12
1.39931e-11
2.80287e-11
6.83755e-11
9.16267e-11
2.16529e-12
2.22648e-12
2.38052e-12
2.96388e-12
4.45014e-12
7.72562e-12
1.53082e-11
3.08581e-11
7.06254e-11
9.34808e-11
1.89605e-12
1.95885e-12
2.11383e-12
2.7475e-12
4.38211e-12
8.14343e-12
1.71069e-11
3.37621e-11
7.12205e-11
8.98771e-11
1.65939e-12
1.72318e-12
1.87881e-12
2.56583e-12
4.37887e-12
8.75645e-12
1.93798e-11
3.66219e-11
6.9973e-11
8.12607e-11
1.44908e-12
1.51354e-12
1.69118e-12
2.4139e-12
4.44092e-12
9.56972e-12
2.18946e-11
3.91347e-11
6.69124e-11
6.89925e-11
)
;

boundaryField
{
    fuel
    {
        type            fixedValue;
        value           uniform 0;
    }
    wall
    {
        type            zeroGradient;
    }
    outlet
    {
        type            zeroGradient;
    }
    frontAndBack
    {
        type            empty;
    }
    procBoundary3to0
    {
        type            processor;
        value           nonuniform List<scalar> 10(1.26001e-12 1.32486e-12 1.51791e-12 2.28727e-12 4.56992e-12 1.05859e-11 2.44717e-11 4.10806e-11 6.22839e-11 5.50509e-11);
    }
    procBoundary3to2
    {
        type            processor;
        value           nonuniform List<scalar> 
25
(
9.6185e-10
5.60533e-10
2.7206e-10
1.36764e-10
7.54059e-11
4.61164e-11
3.1066e-11
2.19764e-11
1.62265e-11
1.29139e-11
1.03831e-11
1.03831e-11
8.43322e-12
6.97038e-12
5.84047e-12
4.94365e-12
4.26016e-12
3.70076e-12
3.24181e-12
2.83379e-12
2.47479e-12
2.16537e-12
1.89617e-12
1.65953e-12
1.44925e-12
)
;
    }
}


// ************************************************************************* //
