/*--------------------------------*- C++ -*----------------------------------*\
| =========                 |                                                 |
| \\      /  F ield         | OpenFOAM: The Open Source CFD Toolbox           |
|  \\    /   O peration     | Version:  dev                                   |
|   \\  /    A nd           | Web:      www.OpenFOAM.org                      |
|    \\/     M anipulation  |                                                 |
\*---------------------------------------------------------------------------*/
FoamFile
{
    version     2.0;
    format      ascii;
    class       volScalarField;
    location    "0.015";
    object      A2C2HA;
}
// * * * * * * * * * * * * * * * * * * * * * * * * * * * * * * * * * * * * * //

dimensions      [0 0 0 0 0 0 0];

internalField   nonuniform List<scalar> 
250
(
3.30828e-08
3.30828e-08
3.3145e-08
3.3246e-08
3.34572e-08
3.37285e-08
3.40779e-08
3.46364e-08
3.63807e-08
5.65497e-08
1.07823e-09
2.05167e-08
2.05166e-08
2.05705e-08
2.06799e-08
2.08903e-08
2.11647e-08
2.15226e-08
2.21021e-08
2.39307e-08
4.92124e-08
2.20893e-09
1.20587e-08
1.20586e-08
1.21021e-08
1.21995e-08
1.23804e-08
1.26214e-08
1.29387e-08
1.34695e-08
1.51034e-08
3.93397e-08
2.76122e-09
7.71646e-09
7.71633e-09
7.75369e-09
7.8403e-09
8.00141e-09
8.21842e-09
8.50634e-09
9.00754e-09
1.04994e-08
3.26563e-08
2.93091e-09
5.35258e-09
5.35247e-09
5.38706e-09
5.464e-09
5.6174e-09
5.80644e-09
6.08356e-09
6.57082e-09
7.98022e-09
2.7835e-08
2.95333e-09
3.93556e-09
3.93546e-09
3.97037e-09
4.03666e-09
4.13834e-09
4.35873e-09
4.62697e-09
5.10534e-09
6.47538e-09
2.39041e-08
3.0337e-09
3.01833e-09
3.01824e-09
3.05742e-09
3.10985e-09
3.20193e-09
3.41467e-09
3.68259e-09
4.15629e-09
5.51002e-09
2.04769e-08
3.38119e-09
2.32428e-09
2.3242e-09
2.38133e-09
2.42184e-09
2.55794e-09
2.76779e-09
3.01531e-09
3.51974e-09
4.79757e-09
1.78483e-08
4.14398e-09
1.86765e-09
1.86758e-09
1.87863e-09
1.96174e-09
2.08187e-09
2.27135e-09
2.49536e-09
3.02617e-09
4.32353e-09
1.58186e-08
5.40586e-09
1.5289e-09
1.52888e-09
1.55567e-09
1.6266e-09
1.70814e-09
1.89038e-09
2.16062e-09
2.67837e-09
4.06214e-09
1.43845e-08
7.23985e-09
1.2779e-09
1.28555e-09
1.35196e-09
1.46061e-09
1.60325e-09
1.90142e-09
2.46885e-09
3.91493e-09
1.3489e-08
9.72823e-09
1.06154e-09
1.07817e-09
1.13643e-09
1.24602e-09
1.4102e-09
1.69911e-09
2.32323e-09
3.89744e-09
1.32326e-08
1.29637e-08
8.93064e-10
9.15809e-10
9.68294e-10
1.07763e-09
1.25748e-09
1.56988e-09
2.24201e-09
3.99057e-09
1.35854e-08
1.70619e-08
7.59357e-10
7.85893e-10
8.34517e-10
9.43923e-10
1.13158e-09
1.4786e-09
2.22662e-09
4.20127e-09
1.45873e-08
2.21755e-08
6.50988e-10
6.80044e-10
7.26261e-10
8.36632e-10
1.03565e-09
1.42059e-09
2.26819e-09
4.54739e-09
1.6302e-08
2.84791e-08
5.66925e-10
5.92579e-10
6.37393e-10
7.49828e-10
9.63634e-10
1.39787e-09
2.37229e-09
5.05985e-09
1.88059e-08
3.61097e-08
4.97955e-10
5.19452e-10
5.63582e-10
6.79245e-10
9.17648e-10
1.40518e-09
2.55056e-09
5.78451e-09
2.21675e-08
4.50552e-08
4.4044e-10
4.57738e-10
5.01695e-10
6.21753e-10
8.85795e-10
1.44487e-09
2.82247e-09
6.78353e-09
2.64164e-08
5.50161e-08
3.88985e-10
4.05224e-10
4.49411e-10
5.75077e-10
8.71329e-10
1.52199e-09
3.21742e-09
8.17035e-09
3.15103e-08
6.53056e-08
3.43559e-10
3.60219e-10
4.04961e-10
5.37516e-10
8.72333e-10
1.64506e-09
3.77662e-09
9.9524e-09
3.73078e-08
7.48779e-08
3.0442e-10
3.21408e-10
3.66967e-10
5.07786e-10
8.89845e-10
1.82722e-09
4.55524e-09
1.23674e-08
4.35673e-08
8.25258e-08
2.70506e-10
2.87736e-10
3.34327e-10
4.87564e-10
9.26093e-10
2.08708e-09
5.68584e-09
1.53061e-08
4.99603e-08
8.72038e-08
2.40932e-10
2.58348e-10
3.06109e-10
4.73606e-10
9.84746e-10
2.45627e-09
7.28338e-09
1.89117e-08
5.61206e-08
8.8353e-08
2.14953e-10
2.32543e-10
2.84252e-10
4.65813e-10
1.07137e-09
2.96248e-09
9.36385e-09
2.31697e-08
6.16924e-08
8.60883e-08
)
;

boundaryField
{
    fuel
    {
        type            fixedValue;
        value           uniform 0;
    }
    wall
    {
        type            zeroGradient;
    }
    outlet
    {
        type            zeroGradient;
    }
    frontAndBack
    {
        type            empty;
    }
    procBoundary3to0
    {
        type            processor;
        value           nonuniform List<scalar> 10(1.91939e-10 2.09708e-10 2.6487e-10 4.64305e-10 1.19361e-09 3.64781e-09 1.20021e-08 2.82524e-08 6.63626e-08 8.11631e-08);
    }
    procBoundary3to2
    {
        type            processor;
        value           nonuniform List<scalar> 
25
(
3.31381e-08
2.05707e-08
1.21038e-08
7.75547e-09
5.38865e-09
3.97171e-09
3.05856e-09
2.3822e-09
1.87935e-09
1.5563e-09
1.27791e-09
1.27791e-09
1.06152e-09
8.93041e-10
7.59389e-10
6.51143e-10
5.6736e-10
4.97933e-10
4.4045e-10
3.89017e-10
3.43609e-10
3.04478e-10
2.7057e-10
2.41e-10
2.15024e-10
)
;
    }
}


// ************************************************************************* //
