/*--------------------------------*- C++ -*----------------------------------*\
| =========                 |                                                 |
| \\      /  F ield         | OpenFOAM: The Open Source CFD Toolbox           |
|  \\    /   O peration     | Version:  dev                                   |
|   \\  /    A nd           | Web:      www.OpenFOAM.org                      |
|    \\/     M anipulation  |                                                 |
\*---------------------------------------------------------------------------*/
FoamFile
{
    version     2.0;
    format      ascii;
    class       volScalarField;
    location    "0.015";
    object      A2C2HB*;
}
// * * * * * * * * * * * * * * * * * * * * * * * * * * * * * * * * * * * * * //

dimensions      [0 0 0 0 0 0 0];

internalField   nonuniform List<scalar> 
250
(
1.23672e-09
1.23675e-09
1.23874e-09
1.2439e-09
1.2548e-09
1.27655e-09
1.23753e-09
7.64843e-10
3.77226e-12
3.63098e-13
4.74429e-14
1.15872e-09
1.15863e-09
1.16297e-09
1.17509e-09
1.20018e-09
1.24912e-09
1.17351e-09
4.40876e-10
1.57414e-12
9.35727e-13
2.23435e-13
6.02206e-10
6.02171e-10
6.05486e-10
6.14918e-10
6.34851e-10
6.7464e-10
6.31035e-10
1.64212e-10
4.27679e-13
8.42669e-13
4.18423e-13
3.06266e-10
3.06258e-10
3.08522e-10
3.14932e-10
3.28826e-10
3.58438e-10
3.44561e-10
6.81714e-11
3.50249e-13
4.30493e-13
4.82029e-13
1.70239e-10
1.70235e-10
1.7184e-10
1.76071e-10
1.86301e-10
2.10097e-10
2.16966e-10
3.99413e-11
1.56623e-12
2.18185e-13
4.53492e-13
1.04613e-10
1.04606e-10
1.0584e-10
1.07841e-10
1.16857e-10
1.38268e-10
1.60801e-10
3.48574e-11
1.7535e-11
6.0887e-13
4.10601e-13
7.00919e-11
7.00797e-11
7.11232e-11
7.1912e-11
8.02262e-11
9.92547e-11
1.37448e-10
4.00171e-11
1.50227e-10
3.98354e-12
4.47139e-13
4.74406e-11
4.74185e-11
4.84947e-11
5.13755e-11
5.7547e-11
7.60262e-11
1.30801e-10
5.24484e-11
2.51823e-10
9.45595e-12
6.27646e-13
3.49268e-11
3.49003e-11
3.59209e-11
3.74142e-11
4.2644e-11
6.21233e-11
1.3369e-10
7.25258e-11
3.13508e-10
1.08835e-11
7.30469e-13
2.66969e-11
2.6667e-11
2.72568e-11
2.89851e-11
3.39721e-11
5.44638e-11
1.42491e-10
1.03103e-10
3.06325e-10
1.04406e-11
7.16669e-13
2.03037e-11
2.07715e-11
2.24204e-11
2.71665e-11
4.97134e-11
1.54989e-10
1.48526e-10
2.60723e-10
9.29318e-12
6.28672e-13
1.57463e-11
1.61716e-11
1.76827e-11
2.23776e-11
4.6875e-11
1.69531e-10
2.12581e-10
2.17105e-10
7.70198e-12
5.0259e-13
1.24209e-11
1.28297e-11
1.42634e-11
1.89398e-11
4.53478e-11
1.84571e-10
2.92539e-10
1.68148e-10
5.40539e-12
3.67705e-13
9.96115e-12
1.03581e-11
1.17563e-11
1.67093e-11
4.47559e-11
1.98472e-10
3.74591e-10
9.28822e-11
2.94363e-12
2.57437e-13
8.11686e-12
8.50101e-12
9.88683e-12
1.49334e-11
4.48114e-11
2.10077e-10
4.38525e-10
3.99026e-11
1.33752e-12
1.84736e-13
6.71243e-12
7.08249e-12
8.46907e-12
1.36954e-11
4.53117e-11
2.18764e-10
4.69398e-10
1.53222e-11
5.51027e-13
1.39628e-13
5.62397e-12
5.98037e-12
7.37336e-12
1.27961e-11
4.61035e-11
2.24276e-10
4.64327e-10
5.62448e-12
2.44277e-13
1.09257e-13
4.76397e-12
5.10779e-12
6.51131e-12
1.21546e-11
4.7071e-11
2.26725e-10
4.29615e-10
2.68175e-12
1.48099e-13
8.64133e-14
4.07081e-12
4.40386e-12
5.82169e-12
1.17167e-11
4.81279e-11
2.26468e-10
3.75146e-10
1.8507e-12
1.22024e-13
6.74481e-14
3.50108e-12
3.82587e-12
5.26189e-12
1.14484e-11
4.92627e-11
2.23908e-10
3.11549e-10
1.53208e-12
1.13353e-13
5.11472e-14
3.02404e-12
3.34381e-12
4.8019e-12
1.13304e-11
5.03512e-11
2.19327e-10
2.48846e-10
1.31596e-12
1.06796e-13
3.73372e-14
2.61766e-12
2.93635e-12
4.42002e-12
1.13544e-11
5.14747e-11
2.12799e-10
1.94494e-10
1.15657e-12
9.94016e-14
2.61512e-14
2.26584e-12
2.58811e-12
4.13568e-12
1.1516e-11
5.23791e-11
2.04257e-10
1.51589e-10
1.05685e-12
9.08164e-14
1.76861e-14
1.95637e-12
2.28425e-12
3.90672e-12
1.18139e-11
5.3081e-11
1.93551e-10
1.18766e-10
9.96895e-13
8.07689e-14
1.15983e-14
)
;

boundaryField
{
    fuel
    {
        type            fixedValue;
        value           uniform 0;
    }
    wall
    {
        type            zeroGradient;
    }
    outlet
    {
        type            zeroGradient;
    }
    frontAndBack
    {
        type            empty;
    }
    procBoundary3to0
    {
        type            processor;
        value           nonuniform List<scalar> 10(1.71037e-12 2.04467e-12 3.72882e-12 1.2245e-11 5.35836e-11 1.80603e-10 9.17629e-11 9.35274e-13 6.87348e-14 7.61515e-15);
    }
    procBoundary3to2
    {
        type            processor;
        value           nonuniform List<scalar> 
25
(
1.23876e-09
1.16319e-09
6.05611e-10
3.08575e-10
1.71861e-10
1.05848e-10
7.11247e-11
4.85121e-11
3.59272e-11
2.72613e-11
2.03225e-11
2.03225e-11
1.57645e-11
1.24387e-11
9.9778e-12
8.13205e-12
6.72623e-12
5.63645e-12
4.77528e-12
4.08114e-12
3.51064e-12
3.03301e-12
2.62621e-12
2.27418e-12
1.9648e-12
)
;
    }
}


// ************************************************************************* //
