/*--------------------------------*- C++ -*----------------------------------*\
| =========                 |                                                 |
| \\      /  F ield         | OpenFOAM: The Open Source CFD Toolbox           |
|  \\    /   O peration     | Version:  dev                                   |
|   \\  /    A nd           | Web:      www.OpenFOAM.org                      |
|    \\/     M anipulation  |                                                 |
\*---------------------------------------------------------------------------*/
FoamFile
{
    version     2.0;
    format      ascii;
    class       volScalarField;
    location    "0.015";
    object      A2R5-;
}
// * * * * * * * * * * * * * * * * * * * * * * * * * * * * * * * * * * * * * //

dimensions      [0 0 0 0 0 0 0];

internalField   nonuniform List<scalar> 
25
(
1.6985e-12
1.60893e-12
1.49882e-12
1.39019e-12
1.27625e-12
1.15987e-12
1.0374e-12
9.12362e-13
7.95979e-13
6.68116e-13
5.4715e-13
4.60131e-13
3.80855e-13
3.05784e-13
2.39652e-13
1.83142e-13
1.36147e-13
9.78505e-14
6.93699e-14
4.85008e-14
3.31383e-14
2.25734e-14
1.56158e-14
1.08085e-14
5.49872e-15
)
;

boundaryField
{
    wall
    {
        type            zeroGradient;
    }
    fuel
    {
        type            fixedValue;
        value           nonuniform 0();
    }
    outlet
    {
        type            inletOutlet;
        inletValue      uniform 0;
        value           uniform 5.49872e-15;
    }
    procBoundary3to2
    {
        type            processor;
        value           uniform 1.7701e-12;
    }
}


// ************************************************************************* //
