/*--------------------------------*- C++ -*----------------------------------*\
| =========                 |                                                 |
| \\      /  F ield         | OpenFOAM: The Open Source CFD Toolbox           |
|  \\    /   O peration     | Version:  dev                                   |
|   \\  /    A nd           | Web:      www.OpenFOAM.org                      |
|    \\/     M anipulation  |                                                 |
\*---------------------------------------------------------------------------*/
FoamFile
{
    version     2.0;
    format      ascii;
    class       volScalarField;
    location    "0.015";
    object      C2H;
}
// * * * * * * * * * * * * * * * * * * * * * * * * * * * * * * * * * * * * * //

dimensions      [0 0 0 0 0 0 0];

internalField   nonuniform List<scalar> 
1989
(
8.58077e-09
8.30616e-09
8.16109e-09
8.0882e-09
8.09407e-09
8.10944e-09
8.16158e-09
8.19885e-09
8.24848e-09
8.28367e-09
8.32148e-09
8.34962e-09
8.36753e-09
8.37484e-09
8.37487e-09
8.36766e-09
8.35037e-09
8.32397e-09
8.28791e-09
8.25471e-09
8.2107e-09
8.17781e-09
8.12965e-09
8.11872e-09
8.11683e-09
8.19337e-09
8.34151e-09
8.61837e-09
9.02666e-09
9.58607e-09
1.04254e-08
1.17836e-08
1.32773e-08
1.4869e-08
1.62262e-08
1.68957e-08
1.66919e-08
1.51844e-08
1.29824e-08
1.09234e-08
1.27751e-08
1.40243e-08
1.41513e-08
1.35585e-08
1.23923e-08
1.10248e-08
9.73826e-09
8.6209e-09
7.89035e-09
7.44204e-09
7.11648e-09
6.89395e-09
6.77246e-09
6.7115e-09
6.69237e-09
6.70595e-09
6.7529e-09
6.78414e-09
6.82567e-09
6.85471e-09
6.88562e-09
6.91213e-09
6.92726e-09
6.9334e-09
6.93345e-09
6.92742e-09
6.91284e-09
6.88773e-09
6.8584e-09
6.83112e-09
6.79424e-09
6.76664e-09
6.72328e-09
6.71338e-09
6.736e-09
6.79996e-09
6.92404e-09
7.14965e-09
7.47984e-09
7.93126e-09
8.64709e-09
9.7935e-09
1.10645e-08
1.2412e-08
1.35783e-08
1.41585e-08
1.40156e-08
1.27513e-08
1.08863e-08
9.08375e-09
1.0654e-08
1.16944e-08
1.17753e-08
1.12667e-08
1.02666e-08
9.10713e-09
8.00153e-09
7.08389e-09
6.47551e-09
6.10965e-09
5.83956e-09
5.66122e-09
5.56645e-09
5.52656e-09
5.51698e-09
5.52856e-09
5.54554e-09
5.57135e-09
5.6057e-09
5.6293e-09
5.6538e-09
5.6797e-09
5.69235e-09
5.69747e-09
5.69752e-09
5.69253e-09
5.68038e-09
5.65548e-09
5.63247e-09
5.61041e-09
5.57992e-09
5.55697e-09
5.54347e-09
5.53477e-09
5.54792e-09
5.59009e-09
5.68698e-09
5.86741e-09
6.14021e-09
6.50904e-09
7.10669e-09
8.04724e-09
9.14282e-09
1.02819e-08
1.1282e-08
1.17787e-08
1.16832e-08
1.06286e-08
9.05478e-09
7.50414e-09
8.81748e-09
9.67914e-09
9.72407e-09
9.27859e-09
8.43976e-09
7.44631e-09
6.55211e-09
5.77242e-09
5.27147e-09
4.97577e-09
4.75398e-09
4.61098e-09
4.53343e-09
4.50225e-09
4.49972e-09
4.51493e-09
4.53972e-09
4.56087e-09
4.58902e-09
4.60792e-09
4.62669e-09
4.63017e-09
4.64059e-09
4.64481e-09
4.64487e-09
4.64077e-09
4.63079e-09
4.62794e-09
4.6106e-09
4.59308e-09
4.56807e-09
4.54916e-09
4.5268e-09
4.51518e-09
4.52013e-09
4.5531e-09
4.63245e-09
4.77718e-09
5.00074e-09
5.29925e-09
5.79237e-09
6.58871e-09
7.47553e-09
8.45147e-09
9.29378e-09
9.72634e-09
9.6687e-09
8.79425e-09
7.47678e-09
6.12143e-09
7.20953e-09
7.91664e-09
7.96207e-09
7.59361e-09
6.8794e-09
6.07064e-09
5.32154e-09
4.68624e-09
4.27614e-09
4.01743e-09
3.83703e-09
3.72464e-09
3.66151e-09
3.63774e-09
3.63722e-09
3.65042e-09
3.67159e-09
3.69134e-09
3.71818e-09
3.73681e-09
3.75514e-09
3.76112e-09
3.76968e-09
3.77313e-09
3.77319e-09
3.76986e-09
3.76168e-09
3.75642e-09
3.73931e-09
3.72162e-09
3.69754e-09
3.67979e-09
3.66035e-09
3.65006e-09
3.65241e-09
3.67767e-09
3.74235e-09
3.85618e-09
4.03783e-09
4.29929e-09
4.70353e-09
5.34595e-09
6.09446e-09
6.88914e-09
7.60704e-09
7.96412e-09
7.90749e-09
7.19036e-09
6.09791e-09
4.94447e-09
5.83591e-09
6.4067e-09
6.43209e-09
6.13101e-09
5.53086e-09
4.88396e-09
4.2693e-09
3.75611e-09
3.43408e-09
3.22985e-09
3.08357e-09
2.98168e-09
2.93041e-09
2.91276e-09
2.91392e-09
2.92523e-09
2.94292e-09
2.959e-09
2.98081e-09
2.99585e-09
3.00997e-09
3.01561e-09
3.02312e-09
3.02622e-09
3.02628e-09
3.02332e-09
3.01615e-09
3.01098e-09
2.99794e-09
2.98374e-09
2.96412e-09
2.94961e-09
2.93346e-09
2.92447e-09
2.92458e-09
2.94351e-09
2.99615e-09
3.09931e-09
3.24652e-09
3.4536e-09
3.77183e-09
4.28669e-09
4.9031e-09
5.53811e-09
6.14393e-09
6.43397e-09
6.39929e-09
5.82001e-09
4.92464e-09
3.97433e-09
4.67996e-09
5.13486e-09
5.14629e-09
4.90001e-09
4.40503e-09
3.88853e-09
3.38668e-09
2.99728e-09
2.73869e-09
2.57359e-09
2.4562e-09
2.37593e-09
2.33383e-09
2.32096e-09
2.32404e-09
2.33358e-09
2.34834e-09
2.3614e-09
2.37902e-09
2.39115e-09
2.4021e-09
2.40687e-09
2.41289e-09
2.4154e-09
2.41546e-09
2.41308e-09
2.40735e-09
2.40293e-09
2.39288e-09
2.38149e-09
2.3656e-09
2.35379e-09
2.34036e-09
2.33266e-09
2.33043e-09
2.3444e-09
2.38768e-09
2.46902e-09
2.58711e-09
2.75407e-09
3.01092e-09
3.40038e-09
3.90415e-09
4.41132e-09
4.91071e-09
5.14804e-09
5.12898e-09
4.66701e-09
3.9579e-09
3.16355e-09
3.71478e-09
4.07189e-09
4.07405e-09
3.87514e-09
3.47212e-09
3.08221e-09
2.67193e-09
2.36948e-09
2.15692e-09
2.02368e-09
1.92959e-09
1.86688e-09
1.84074e-09
1.82212e-09
1.82803e-09
1.83599e-09
1.84832e-09
1.859e-09
1.87317e-09
1.88304e-09
1.89179e-09
1.89557e-09
1.90011e-09
1.90216e-09
1.90221e-09
1.90028e-09
1.89599e-09
1.8925e-09
1.88447e-09
1.87528e-09
1.86243e-09
1.85277e-09
1.84157e-09
1.83502e-09
1.82974e-09
1.84924e-09
1.8764e-09
1.94004e-09
2.03472e-09
2.16904e-09
2.38137e-09
2.68306e-09
3.09512e-09
3.4769e-09
3.88428e-09
4.07565e-09
4.0673e-09
3.70437e-09
3.15017e-09
2.48871e-09
2.93444e-09
3.21473e-09
3.21062e-09
3.05114e-09
2.72254e-09
2.41416e-09
2.07994e-09
1.84436e-09
1.67536e-09
1.57139e-09
1.4975e-09
1.44948e-09
1.42893e-09
1.41987e-09
1.42173e-09
1.42797e-09
1.43803e-09
1.44659e-09
1.45766e-09
1.46552e-09
1.47264e-09
1.47568e-09
1.47802e-09
1.47965e-09
1.4797e-09
1.47817e-09
1.47604e-09
1.47326e-09
1.46668e-09
1.4594e-09
1.44933e-09
1.44158e-09
1.43247e-09
1.42719e-09
1.42594e-09
1.43572e-09
1.45705e-09
1.50582e-09
1.58015e-09
1.68435e-09
1.85443e-09
2.08923e-09
2.4243e-09
2.72629e-09
3.05952e-09
3.21204e-09
3.21115e-09
2.92609e-09
2.47783e-09
1.92797e-09
2.28286e-09
2.5094e-09
2.50286e-09
2.37644e-09
2.11137e-09
1.87161e-09
1.60622e-09
1.42669e-09
1.29244e-09
1.21193e-09
1.15414e-09
1.11754e-09
1.10139e-09
1.09405e-09
1.09249e-09
1.09718e-09
1.10533e-09
1.11218e-09
1.12061e-09
1.12685e-09
1.13283e-09
1.13706e-09
1.14195e-09
1.14323e-09
1.14328e-09
1.14207e-09
1.13737e-09
1.13336e-09
1.12779e-09
1.12203e-09
1.11436e-09
1.10815e-09
1.10077e-09
1.0966e-09
1.09887e-09
1.1068e-09
1.12351e-09
1.16072e-09
1.21886e-09
1.29967e-09
1.43437e-09
1.6138e-09
1.87925e-09
2.11507e-09
2.38298e-09
2.50407e-09
2.50653e-09
2.27625e-09
1.9194e-09
1.47391e-09
1.74781e-09
1.92394e-09
1.91907e-09
1.82172e-09
1.61283e-09
1.4288e-09
1.21943e-09
1.08614e-09
9.8493e-10
9.23237e-10
8.78454e-10
8.50908e-10
8.38289e-10
8.32873e-10
8.33052e-10
8.36683e-10
8.43307e-10
8.48837e-10
8.55053e-10
8.59998e-10
8.64965e-10
8.68518e-10
8.71577e-10
8.72583e-10
8.72618e-10
8.71689e-10
8.68775e-10
8.65404e-10
8.60753e-10
8.56193e-10
8.5055e-10
8.45534e-10
8.39524e-10
8.36152e-10
8.36669e-10
8.42559e-10
8.55554e-10
8.83609e-10
9.28658e-10
9.90633e-10
1.09191e-09
1.22578e-09
1.43435e-09
1.61667e-09
1.82651e-09
1.92006e-09
1.92172e-09
1.7427e-09
1.46725e-09
1.11775e-09
1.32799e-09
1.4532e-09
1.44741e-09
1.37212e-09
1.2199e-09
1.07934e-09
9.1741e-10
8.18179e-10
7.4095e-10
6.94107e-10
6.59601e-10
6.38567e-10
6.29363e-10
6.25811e-10
6.26129e-10
6.27918e-10
6.33045e-10
6.37521e-10
6.41777e-10
6.45682e-10
6.4973e-10
6.52448e-10
6.54625e-10
6.55419e-10
6.5545e-10
6.54724e-10
6.52669e-10
6.50102e-10
6.463e-10
6.42701e-10
6.38893e-10
6.34822e-10
6.30118e-10
6.28596e-10
6.2877e-10
6.32697e-10
6.42263e-10
6.63582e-10
6.98294e-10
7.45368e-10
8.22439e-10
9.22791e-10
1.08318e-09
1.22322e-09
1.37564e-09
1.44821e-09
1.45154e-09
1.32407e-09
1.11261e-09
8.31594e-10
9.93724e-10
1.08944e-09
1.08326e-09
1.02572e-09
9.08572e-10
7.99698e-10
6.80886e-10
6.07101e-10
5.46832e-10
5.11135e-10
4.88007e-10
4.72521e-10
4.65537e-10
4.60953e-10
4.61348e-10
4.62767e-10
4.66827e-10
4.7039e-10
4.75955e-10
4.78973e-10
4.82106e-10
4.84092e-10
4.8569e-10
4.86297e-10
4.86323e-10
4.85772e-10
4.8427e-10
4.82407e-10
4.79459e-10
4.76674e-10
4.71453e-10
4.68187e-10
4.64459e-10
4.63239e-10
4.6322e-10
4.68102e-10
4.75335e-10
4.91037e-10
5.14306e-10
5.50248e-10
6.10521e-10
6.85643e-10
8.02028e-10
9.11603e-10
1.02831e-09
1.08389e-09
1.0882e-09
9.9065e-10
8.27644e-10
6.07246e-10
7.26792e-10
7.98083e-10
7.92471e-10
7.49028e-10
6.66794e-10
5.85172e-10
4.94965e-10
4.40565e-10
3.98802e-10
3.72342e-10
3.55297e-10
3.44072e-10
3.38875e-10
3.35691e-10
3.36225e-10
3.37392e-10
3.40568e-10
3.43377e-10
3.47432e-10
3.49717e-10
3.52079e-10
3.53522e-10
3.54711e-10
3.55168e-10
3.5519e-10
3.54777e-10
3.53665e-10
3.52318e-10
3.50095e-10
3.47983e-10
3.44192e-10
3.41612e-10
3.38668e-10
3.37674e-10
3.37405e-10
3.40815e-10
3.46187e-10
3.57563e-10
3.74719e-10
4.01363e-10
4.4307e-10
4.98201e-10
5.87141e-10
6.6911e-10
7.50942e-10
7.92968e-10
7.97166e-10
7.24516e-10
6.04306e-10
4.38075e-10
5.25775e-10
5.78164e-10
5.73144e-10
5.41091e-10
4.78337e-10
4.17779e-10
3.55157e-10
3.15979e-10
2.85842e-10
2.66464e-10
2.54258e-10
2.46204e-10
2.42424e-10
2.40276e-10
2.40818e-10
2.41782e-10
2.44213e-10
2.46377e-10
2.49287e-10
2.50981e-10
2.52727e-10
2.53772e-10
2.54652e-10
2.54992e-10
2.55009e-10
2.54705e-10
2.53884e-10
2.52912e-10
2.51271e-10
2.49703e-10
2.46992e-10
2.45e-10
2.42729e-10
2.41911e-10
2.41549e-10
2.43864e-10
2.47771e-10
2.55923e-10
2.68212e-10
2.87728e-10
3.17816e-10
3.5749e-10
4.19396e-10
4.80056e-10
5.42488e-10
5.73521e-10
5.77498e-10
5.241e-10
4.35905e-10
3.09929e-10
3.73137e-10
4.10966e-10
4.06728e-10
3.83557e-10
3.38341e-10
2.94351e-10
2.50149e-10
2.22455e-10
2.00943e-10
1.87191e-10
1.78542e-10
1.72879e-10
1.70194e-10
1.68786e-10
1.69277e-10
1.70058e-10
1.71877e-10
1.73498e-10
1.75561e-10
1.76792e-10
1.78059e-10
1.78811e-10
1.79454e-10
1.79702e-10
1.79715e-10
1.79496e-10
1.78897e-10
1.782e-10
1.77009e-10
1.75869e-10
1.73954e-10
1.72457e-10
1.7075e-10
1.70083e-10
1.69713e-10
1.71242e-10
1.74021e-10
1.79741e-10
1.88454e-10
2.02304e-10
2.23778e-10
2.51823e-10
2.9562e-10
3.39566e-10
3.84561e-10
4.07009e-10
4.10491e-10
3.71925e-10
3.08355e-10
2.14624e-10
2.593e-10
2.86094e-10
2.82689e-10
2.66307e-10
2.34253e-10
2.03417e-10
1.72492e-10
1.53433e-10
1.38364e-10
1.28852e-10
1.22829e-10
1.18956e-10
1.17087e-10
1.1619e-10
1.16605e-10
1.17218e-10
1.18551e-10
1.19727e-10
1.21175e-10
1.22051e-10
1.22955e-10
1.23488e-10
1.2395e-10
1.24127e-10
1.24137e-10
1.23981e-10
1.23553e-10
1.23059e-10
1.22211e-10
1.21398e-10
1.20059e-10
1.18971e-10
1.17714e-10
1.17185e-10
1.16851e-10
1.17832e-10
1.19774e-10
1.23676e-10
1.29745e-10
1.39328e-10
1.54374e-10
1.73666e-10
2.0445e-10
2.35029e-10
2.67014e-10
2.82894e-10
2.85761e-10
2.58441e-10
2.13505e-10
1.45193e-10
1.76096e-10
1.94674e-10
1.9206e-10
1.80762e-10
1.58571e-10
1.3735e-10
1.16423e-10
1.03515e-10
9.31854e-11
8.677e-11
8.26512e-11
8.01191e-11
7.88174e-11
7.82633e-11
7.85977e-11
7.90631e-11
8.00178e-11
8.08427e-11
8.18493e-11
8.24584e-11
8.30911e-11
8.34622e-11
8.37862e-11
8.39098e-11
8.39174e-11
8.38095e-11
8.35095e-11
8.31663e-11
8.25738e-11
8.20072e-11
8.10811e-11
8.03133e-11
7.94102e-11
7.90048e-11
7.87237e-11
7.93348e-11
8.06872e-11
8.32403e-11
8.73857e-11
9.3854e-11
1.04172e-10
1.1723e-10
1.38166e-10
1.59027e-10
1.81249e-10
1.92206e-10
1.94444e-10
1.75499e-10
1.44415e-10
9.57701e-11
1.16638e-10
1.29221e-10
1.273e-10
1.19719e-10
1.04703e-10
9.05193e-11
7.67669e-11
6.8211e-11
6.12472e-11
5.68921e-11
5.43133e-11
5.25658e-11
5.18397e-11
5.15087e-11
5.17664e-11
5.21072e-11
5.27738e-11
5.33389e-11
5.40265e-11
5.4441e-11
5.4873e-11
5.51254e-11
5.53473e-11
5.54317e-11
5.54372e-11
5.53641e-11
5.51589e-11
5.4926e-11
5.45216e-11
5.4136e-11
5.35069e-11
5.29768e-11
5.23445e-11
5.20445e-11
5.18214e-11
5.21899e-11
5.29408e-11
5.47184e-11
5.73161e-11
6.16976e-11
6.86592e-11
7.73062e-11
9.10814e-11
1.05014e-10
1.20048e-10
1.27401e-10
1.29066e-10
1.16233e-10
9.52423e-11
6.14816e-11
7.52051e-11
8.35106e-11
8.21588e-11
7.72291e-11
6.73042e-11
5.81797e-11
4.93378e-11
4.3804e-11
3.92791e-11
3.649e-11
3.48185e-11
3.37383e-11
3.3268e-11
3.30774e-11
3.32677e-11
3.35083e-11
3.39612e-11
3.43462e-11
3.48049e-11
3.50781e-11
3.53649e-11
3.5532e-11
3.56797e-11
3.57359e-11
3.57397e-11
3.56915e-11
3.55549e-11
3.54012e-11
3.51325e-11
3.48778e-11
3.44631e-11
3.40969e-11
3.36664e-11
3.34528e-11
3.3284e-11
3.34989e-11
3.39828e-11
3.50893e-11
3.67694e-11
3.95746e-11
4.41014e-11
4.96889e-11
5.85453e-11
6.75211e-11
7.74457e-11
8.22267e-11
8.34089e-11
7.49373e-11
6.11331e-11
3.83529e-11
4.71216e-11
5.24523e-11
5.15397e-11
4.83552e-11
4.20743e-11
3.63885e-11
3.08617e-11
2.738e-11
2.45441e-11
2.27954e-11
2.17474e-11
2.1092e-11
2.08029e-11
2.06972e-11
2.0832e-11
2.09956e-11
2.12942e-11
2.15175e-11
2.17996e-11
2.19753e-11
2.2162e-11
2.22706e-11
2.23672e-11
2.24038e-11
2.24065e-11
2.23753e-11
2.2286e-11
2.21865e-11
2.20114e-11
2.18471e-11
2.15862e-11
2.13823e-11
2.10979e-11
2.09516e-11
2.08301e-11
2.09509e-11
2.12492e-11
2.19215e-11
2.29748e-11
2.47322e-11
2.75714e-11
3.1084e-11
3.66158e-11
4.22227e-11
4.85029e-11
5.1584e-11
5.2387e-11
4.69493e-11
3.81294e-11
2.32162e-11
2.86501e-11
3.197e-11
3.138e-11
2.94318e-11
2.55419e-11
2.21139e-11
1.87631e-11
1.66415e-11
1.49147e-11
1.38529e-11
1.32161e-11
1.28268e-11
1.2657e-11
1.26006e-11
1.26921e-11
1.2799e-11
1.29897e-11
1.31331e-11
1.33086e-11
1.34173e-11
1.35341e-11
1.36019e-11
1.36627e-11
1.36857e-11
1.36874e-11
1.3668e-11
1.36118e-11
1.35499e-11
1.34401e-11
1.33381e-11
1.31768e-11
1.30453e-11
1.28632e-11
1.27671e-11
1.26837e-11
1.27491e-11
1.29252e-11
1.3324e-11
1.39642e-11
1.50316e-11
1.67607e-11
1.88998e-11
2.22509e-11
2.56391e-11
2.95258e-11
3.14079e-11
3.19292e-11
2.85426e-11
2.30773e-11
1.36202e-11
1.68865e-11
1.88897e-11
1.85232e-11
1.73707e-11
1.50356e-11
1.3039e-11
1.10726e-11
9.82223e-12
8.79848e-12
8.17909e-12
7.8021e-12
7.57665e-12
7.48067e-12
7.4518e-12
7.51102e-12
7.57799e-12
7.69569e-12
7.78315e-12
7.89009e-12
7.95577e-12
8.02665e-12
8.06769e-12
8.10468e-12
8.11864e-12
8.11978e-12
8.10808e-12
8.07385e-12
8.03656e-12
7.96985e-12
7.90833e-12
7.8102e-12
7.72982e-12
7.61694e-12
7.55661e-12
7.50208e-12
7.53624e-12
7.63622e-12
7.86671e-12
8.24585e-12
8.86896e-12
9.8939e-12
1.11541e-11
1.31191e-11
1.50962e-11
1.743e-11
1.85402e-11
1.88648e-11
1.68213e-11
1.35368e-11
7.73401e-12
9.56753e-12
1.07287e-11
1.05173e-11
9.8794e-12
8.56899e-12
7.44821e-12
6.33428e-12
5.62279e-12
5.03142e-12
4.68217e-12
4.46616e-12
4.3393e-12
4.28694e-12
4.27261e-12
4.30917e-12
4.3492e-12
4.41926e-12
4.47018e-12
4.53328e-12
4.57176e-12
4.61338e-12
4.63743e-12
4.65923e-12
4.66738e-12
4.66809e-12
4.66131e-12
4.64115e-12
4.61942e-12
4.58019e-12
4.5442e-12
4.48637e-12
4.43926e-12
4.37228e-12
4.33595e-12
4.30206e-12
4.31938e-12
4.37412e-12
4.50361e-12
4.72093e-12
5.07252e-12
5.66432e-12
6.38133e-12
7.49354e-12
8.60492e-12
9.91674e-12
1.05269e-11
1.07143e-11
9.53009e-12
7.68551e-12
4.24578e-12
5.26461e-12
5.92198e-12
5.80147e-12
5.45711e-12
4.71939e-12
4.10226e-12
3.48561e-12
3.09298e-12
2.78384e-12
2.59389e-12
2.47423e-12
2.4051e-12
2.37746e-12
2.37051e-12
2.39194e-12
2.41478e-12
2.45471e-12
2.48314e-12
2.51887e-12
2.54059e-12
2.5642e-12
2.57785e-12
2.59022e-12
2.59479e-12
2.59521e-12
2.59145e-12
2.58002e-12
2.56781e-12
2.54548e-12
2.5252e-12
2.49241e-12
2.46598e-12
2.42797e-12
2.40711e-12
2.38714e-12
2.39572e-12
2.42471e-12
2.4952e-12
2.61562e-12
2.80695e-12
3.11625e-12
3.51209e-12
4.12766e-12
4.73969e-12
5.47886e-12
5.80672e-12
5.91377e-12
5.24347e-12
4.21857e-12
2.25035e-12
2.79365e-12
3.12295e-12
3.05723e-12
2.88314e-12
2.50704e-12
2.18504e-12
1.86028e-12
1.65273e-12
1.48801e-12
1.38868e-12
1.32474e-12
1.28841e-12
1.27428e-12
1.27095e-12
1.28285e-12
1.29525e-12
1.31694e-12
1.33213e-12
1.35148e-12
1.36321e-12
1.37629e-12
1.38375e-12
1.39043e-12
1.39286e-12
1.39309e-12
1.39111e-12
1.38496e-12
1.37843e-12
1.36593e-12
1.355e-12
1.33722e-12
1.32309e-12
1.30245e-12
1.2911e-12
1.27997e-12
1.28415e-12
1.299e-12
1.33604e-12
1.40039e-12
1.50049e-12
1.66514e-12
1.87453e-12
2.1985e-12
2.518e-12
2.89134e-12
3.05989e-12
3.11852e-12
2.78199e-12
2.23566e-12
1.15062e-12
1.42873e-12
1.59776e-12
1.56271e-12
1.47788e-12
1.28303e-12
1.12199e-12
9.58077e-13
8.52943e-13
7.68389e-13
7.18771e-13
6.8595e-13
6.6763e-13
6.60665e-13
6.59096e-13
6.65353e-13
6.71738e-13
6.82951e-13
6.90692e-13
7.00667e-13
7.06699e-13
7.12994e-13
7.16638e-13
7.20144e-13
7.21428e-13
7.21562e-13
7.20525e-13
7.17309e-13
7.13975e-13
7.08145e-13
7.02534e-13
6.93351e-13
6.8618e-13
6.75461e-13
6.69635e-13
6.63772e-13
6.65767e-13
6.73103e-13
6.91765e-13
7.24818e-13
7.7483e-13
8.59105e-13
9.65586e-13
1.12882e-12
1.28848e-12
1.48159e-12
1.56396e-12
1.59546e-12
1.42172e-12
1.143e-12
5.68343e-13
7.02066e-13
7.85469e-13
7.68453e-13
7.2894e-13
6.3332e-13
5.56423e-13
4.77382e-13
4.26632e-13
3.85591e-13
3.61793e-13
3.45736e-13
3.36968e-13
3.33707e-13
3.33012e-13
3.36138e-13
3.3926e-13
3.44782e-13
3.48532e-13
3.53418e-13
3.56364e-13
3.59546e-13
3.61299e-13
3.63008e-13
3.63628e-13
3.63697e-13
3.63202e-13
3.6164e-13
3.6004e-13
3.57093e-13
3.54356e-13
3.4985e-13
3.46371e-13
3.41108e-13
3.38248e-13
3.35311e-13
3.36209e-13
3.39648e-13
3.48571e-13
3.6476e-13
3.88742e-13
4.29692e-13
4.80981e-13
5.59719e-13
6.35966e-13
7.30733e-13
7.68965e-13
7.84241e-13
7.00098e-13
5.64569e-13
2.73671e-13
3.35577e-13
3.74404e-13
3.66093e-13
3.48401e-13
3.04188e-13
2.69493e-13
2.33509e-13
2.10405e-13
1.91695e-13
1.80994e-13
1.73646e-13
1.69759e-13
1.68377e-13
1.68141e-13
1.69653e-13
1.71126e-13
1.73725e-13
1.75459e-13
1.77732e-13
1.791e-13
1.806e-13
1.81416e-13
1.82211e-13
1.82496e-13
1.82529e-13
1.82303e-13
1.81578e-13
1.80839e-13
1.79444e-13
1.78173e-13
1.76071e-13
1.74456e-13
1.71985e-13
1.70625e-13
1.69197e-13
1.69523e-13
1.70984e-13
1.74932e-13
1.82357e-13
1.93132e-13
2.11806e-13
2.35137e-13
2.70979e-13
3.05384e-13
3.4923e-13
3.66278e-13
3.73803e-13
3.34355e-13
2.71866e-13
1.32816e-13
1.59697e-13
1.76996e-13
1.73197e-13
1.65925e-13
1.46977e-13
1.325e-13
1.1734e-13
1.07705e-13
9.98903e-14
9.55379e-14
9.25291e-14
9.10347e-14
9.0587e-14
9.0606e-14
9.13549e-14
9.20614e-14
9.32536e-14
9.40381e-14
9.50521e-14
9.5666e-14
9.63343e-14
9.67003e-14
9.70521e-14
9.71783e-14
9.71931e-14
9.70929e-14
9.67717e-14
9.64395e-14
9.58141e-14
9.52404e-14
9.42982e-14
9.35617e-14
9.24244e-14
9.17619e-14
9.10455e-14
9.10613e-14
9.15395e-14
9.30517e-14
9.61036e-14
1.00478e-13
1.08283e-13
1.17999e-13
1.33099e-13
1.47458e-13
1.66248e-13
1.73226e-13
1.76687e-13
1.59065e-13
1.31981e-13
7.09353e-14
8.17931e-14
8.87057e-14
8.77385e-14
8.52496e-14
7.80009e-14
7.26966e-14
6.70653e-14
6.3603e-14
6.08141e-14
5.93703e-14
5.84128e-14
5.80339e-14
5.80417e-14
5.8209e-14
5.86359e-14
5.9025e-14
5.95933e-14
5.99697e-14
6.04245e-14
6.07072e-14
6.09998e-14
6.11668e-14
6.13181e-14
6.13754e-14
6.13814e-14
6.13343e-14
6.11945e-14
6.10402e-14
6.07627e-14
6.04929e-14
6.00659e-14
5.97064e-14
5.91547e-14
5.87797e-14
5.83615e-14
5.82036e-14
5.82041e-14
5.85874e-14
5.95566e-14
6.10059e-14
6.37902e-14
6.72769e-14
7.28844e-14
7.81445e-14
8.53242e-14
8.7694e-14
8.85163e-14
8.14763e-14
7.05487e-14
4.76364e-14
5.17349e-14
5.45604e-14
5.4618e-14
5.41395e-14
5.20588e-14
5.0582e-14
4.90262e-14
4.81752e-14
4.75574e-14
4.7356e-14
4.73152e-14
4.74285e-14
4.76566e-14
4.79144e-14
4.82316e-14
4.85105e-14
4.88408e-14
4.90622e-14
4.92959e-14
4.94507e-14
4.95922e-14
4.96816e-14
4.97515e-14
4.97824e-14
4.97846e-14
4.97569e-14
4.96901e-14
4.96039e-14
4.94657e-14
4.93119e-14
4.90879e-14
4.88688e-14
4.8541e-14
4.82616e-14
4.79434e-14
4.76839e-14
4.74542e-14
4.73386e-14
4.73782e-14
4.75767e-14
4.81892e-14
4.9043e-14
5.05896e-14
5.20494e-14
5.41034e-14
5.45378e-14
5.44271e-14
5.15577e-14
4.7438e-14
4.21926e-14
4.37251e-14
4.49798e-14
4.55385e-14
4.58794e-14
4.58324e-14
4.58515e-14
4.58896e-14
4.60475e-14
4.62862e-14
4.65753e-14
4.69087e-14
4.7233e-14
4.75704e-14
4.78872e-14
4.81881e-14
4.84462e-14
4.87115e-14
4.88891e-14
4.90539e-14
4.91712e-14
4.9264e-14
4.93303e-14
4.93733e-14
4.93966e-14
4.93972e-14
4.93744e-14
4.93312e-14
4.92643e-14
4.91703e-14
4.90493e-14
4.88874e-14
4.87061e-14
4.84389e-14
4.81737e-14
4.78688e-14
4.75452e-14
4.72021e-14
4.68718e-14
4.65328e-14
4.62364e-14
4.59907e-14
4.58269e-14
4.57844e-14
4.57577e-14
4.5794e-14
4.54387e-14
4.48645e-14
4.35981e-14
4.2062e-14
4.47019e-14
4.54217e-14
4.61734e-14
4.69638e-14
4.76083e-14
4.82615e-14
4.87867e-14
4.93533e-14
4.98364e-14
5.03542e-14
5.08049e-14
5.1267e-14
5.16747e-14
5.20671e-14
5.24242e-14
5.27425e-14
5.30131e-14
5.32876e-14
5.34646e-14
5.36241e-14
5.37412e-14
5.38288e-14
5.38947e-14
5.39341e-14
5.39576e-14
5.39577e-14
5.39338e-14
5.38931e-14
5.38255e-14
5.37354e-14
5.36134e-14
5.34544e-14
5.32714e-14
5.29954e-14
5.27153e-14
5.23912e-14
5.20259e-14
5.16263e-14
5.12108e-14
5.07414e-14
5.02809e-14
4.97539e-14
4.92619e-14
4.86904e-14
4.81598e-14
4.75004e-14
4.68511e-14
4.60577e-14
4.53056e-14
4.45879e-14
5.07886e-14
5.13806e-14
5.20428e-14
5.29223e-14
5.36432e-14
5.44443e-14
5.50558e-14
5.56947e-14
5.62067e-14
5.67437e-14
5.72053e-14
5.76779e-14
5.81042e-14
5.85182e-14
5.88992e-14
5.92422e-14
5.95352e-14
5.98417e-14
6.00341e-14
6.0213e-14
6.03433e-14
6.0443e-14
6.05166e-14
6.0562e-14
6.05884e-14
6.05884e-14
6.05614e-14
6.05148e-14
6.04394e-14
6.03374e-14
6.02024e-14
6.00242e-14
5.98249e-14
5.95194e-14
5.92162e-14
5.88667e-14
5.84776e-14
5.80559e-14
5.76214e-14
5.71405e-14
5.66678e-14
5.61198e-14
5.55974e-14
5.49508e-14
5.43328e-14
5.35252e-14
5.28009e-14
5.19205e-14
5.12606e-14
5.06719e-14
5.87273e-14
5.94479e-14
6.01622e-14
6.10406e-14
6.17174e-14
6.24161e-14
6.29128e-14
6.34056e-14
6.37985e-14
6.42197e-14
6.46098e-14
6.50272e-14
6.54269e-14
6.58351e-14
6.62221e-14
6.6584e-14
6.68981e-14
6.72362e-14
6.74479e-14
6.76537e-14
6.78001e-14
6.79174e-14
6.80009e-14
6.80555e-14
6.80857e-14
6.80856e-14
6.80552e-14
6.79997e-14
6.79151e-14
6.77962e-14
6.76457e-14
6.74425e-14
6.72239e-14
6.68899e-14
6.65657e-14
6.61978e-14
6.58036e-14
6.53881e-14
6.49798e-14
6.45538e-14
6.41523e-14
6.37189e-14
6.33142e-14
6.28102e-14
6.23044e-14
6.15968e-14
6.09147e-14
6.00336e-14
5.93205e-14
5.86021e-14
6.82844e-14
6.92322e-14
7.00347e-14
7.0842e-14
7.13871e-14
7.18406e-14
7.20964e-14
7.23099e-14
7.24883e-14
7.27044e-14
7.2964e-14
7.32762e-14
7.36169e-14
7.39931e-14
7.43674e-14
7.47357e-14
7.50663e-14
7.54248e-14
7.56543e-14
7.5889e-14
7.60494e-14
7.61851e-14
7.6278e-14
7.63425e-14
7.63763e-14
7.63763e-14
7.63426e-14
7.62779e-14
7.61846e-14
7.60486e-14
7.58841e-14
7.56566e-14
7.54243e-14
7.50648e-14
7.47285e-14
7.43558e-14
7.39759e-14
7.35934e-14
7.32451e-14
7.29226e-14
7.26534e-14
7.24245e-14
7.2232e-14
7.2005e-14
7.17361e-14
7.12702e-14
7.07162e-14
6.99026e-14
6.90984e-14
6.81505e-14
8.06937e-14
8.19457e-14
8.28506e-14
8.3529e-14
8.38612e-14
8.39445e-14
8.38441e-14
8.36515e-14
8.35375e-14
8.34737e-14
8.35359e-14
8.36872e-14
8.39346e-14
8.42539e-14
8.45986e-14
8.49612e-14
8.53042e-14
8.56766e-14
8.59225e-14
8.61866e-14
8.63604e-14
8.65154e-14
8.66176e-14
8.66928e-14
8.673e-14
8.673e-14
8.66932e-14
8.66188e-14
8.65174e-14
8.63636e-14
8.61862e-14
8.59344e-14
8.56886e-14
8.53156e-14
8.49677e-14
8.46041e-14
8.42561e-14
8.39321e-14
8.36782e-14
8.35209e-14
8.3446e-14
8.34963e-14
8.35933e-14
8.37721e-14
8.38538e-14
8.37535e-14
8.34075e-14
8.27176e-14
8.18065e-14
8.05506e-14
9.92512e-14
1.00993e-13
1.02076e-13
1.02577e-13
1.02599e-13
1.02132e-13
1.01505e-13
1.00696e-13
1.00154e-13
9.96764e-14
9.94607e-14
9.93941e-14
9.95073e-14
9.97453e-14
1.00049e-13
1.00407e-13
1.00762e-13
1.01159e-13
1.01425e-13
1.01736e-13
1.01927e-13
1.02109e-13
1.02224e-13
1.02314e-13
1.02356e-13
1.02356e-13
1.02316e-13
1.02227e-13
1.02115e-13
1.01936e-13
1.01741e-13
1.01454e-13
1.01187e-13
1.00794e-13
1.00434e-13
1.0008e-13
9.97759e-14
9.95353e-14
9.94174e-14
9.94777e-14
9.96827e-14
1.00147e-13
1.0066e-13
1.01468e-13
1.02061e-13
1.02507e-13
1.02461e-13
1.01941e-13
1.00844e-13
9.90912e-14
1.27913e-13
1.30607e-13
1.32109e-13
1.32359e-13
1.3188e-13
1.30589e-13
1.29113e-13
1.2731e-13
1.26136e-13
1.25028e-13
1.244e-13
1.24012e-13
1.23939e-13
1.24075e-13
1.24339e-13
1.24714e-13
1.25098e-13
1.25557e-13
1.25869e-13
1.26259e-13
1.26486e-13
1.26716e-13
1.26856e-13
1.26972e-13
1.27022e-13
1.27023e-13
1.26976e-13
1.26864e-13
1.2673e-13
1.26507e-13
1.26276e-13
1.25923e-13
1.25613e-13
1.25161e-13
1.24779e-13
1.24411e-13
1.24151e-13
1.24016e-13
1.24086e-13
1.24468e-13
1.25085e-13
1.26181e-13
1.27326e-13
1.29105e-13
1.3055e-13
1.31801e-13
1.32244e-13
1.3196e-13
1.3043e-13
1.27714e-13
)
;

boundaryField
{
    fuel
    {
        type            fixedValue;
        value           nonuniform 0();
    }
    wall
    {
        type            zeroGradient;
    }
    outlet
    {
        type            zeroGradient;
    }
    frontAndBack
    {
        type            empty;
    }
    procBoundary3to2
    {
        type            processor;
        value           nonuniform List<scalar> 
51
(
1.02781e-08
9.98732e-09
9.8141e-09
9.72646e-09
9.72702e-09
9.74412e-09
9.80292e-09
9.84687e-09
9.90581e-09
9.94774e-09
9.99273e-09
1.00235e-08
1.00445e-08
1.00531e-08
1.00531e-08
1.00446e-08
1.00242e-08
9.99544e-09
9.9526e-09
9.91279e-09
9.86075e-09
9.82192e-09
9.76762e-09
9.75574e-09
9.75987e-09
9.85183e-09
1.00287e-08
1.03222e-08
1.08048e-08
1.14742e-08
1.2467e-08
1.40733e-08
1.58407e-08
1.76953e-08
1.92704e-08
2.004e-08
1.97642e-08
1.79831e-08
1.5401e-08
1.30434e-08
1.5231e-08
1.67171e-08
1.68989e-08
1.62113e-08
1.4854e-08
1.32309e-08
1.17175e-08
1.03997e-08
9.54165e-09
8.98497e-09
8.98497e-09
)
;
    }
}


// ************************************************************************* //
