/*--------------------------------*- C++ -*----------------------------------*\
| =========                 |                                                 |
| \\      /  F ield         | OpenFOAM: The Open Source CFD Toolbox           |
|  \\    /   O peration     | Version:  dev                                   |
|   \\  /    A nd           | Web:      www.OpenFOAM.org                      |
|    \\/     M anipulation  |                                                 |
\*---------------------------------------------------------------------------*/
FoamFile
{
    version     2.0;
    format      ascii;
    class       volScalarField;
    location    "0.015";
    object      C2O;
}
// * * * * * * * * * * * * * * * * * * * * * * * * * * * * * * * * * * * * * //

dimensions      [0 0 0 0 0 0 0];

internalField   nonuniform List<scalar> 
250
(
9.30533e-06
9.30535e-06
9.31262e-06
9.29218e-06
9.27479e-06
9.25317e-06
9.22725e-06
9.18655e-06
9.0416e-06
7.19386e-06
1.70016e-09
7.19739e-06
7.1974e-06
7.19664e-06
7.19032e-06
7.18074e-06
7.16879e-06
7.15625e-06
7.13383e-06
7.05339e-06
6.01377e-06
2.22626e-09
4.33174e-06
4.33173e-06
4.32973e-06
4.32714e-06
4.32077e-06
4.31304e-06
4.30558e-06
4.2938e-06
4.24141e-06
3.63284e-06
1.73394e-09
2.56295e-06
2.56294e-06
2.56113e-06
2.55973e-06
2.55613e-06
2.5508e-06
2.54536e-06
2.54006e-06
2.50345e-06
2.12463e-06
1.20364e-09
1.63252e-06
1.63252e-06
1.63128e-06
1.63e-06
1.63073e-06
1.62176e-06
1.62023e-06
1.61837e-06
1.59232e-06
1.3322e-06
8.78028e-10
1.15096e-06
1.15096e-06
1.15052e-06
1.1485e-06
1.13835e-06
1.14189e-06
1.14128e-06
1.14023e-06
1.12228e-06
9.17646e-07
7.64895e-10
8.92435e-07
8.92435e-07
8.9324e-07
8.89382e-07
8.80288e-07
8.82236e-07
8.82939e-07
8.81048e-07
8.68265e-07
6.85116e-07
1.18733e-09
7.3029e-07
7.30291e-07
7.35109e-07
7.29603e-07
7.31554e-07
7.32673e-07
7.2942e-07
7.31775e-07
7.05712e-07
5.58131e-07
2.20185e-09
6.37523e-07
6.37524e-07
6.3382e-07
6.36575e-07
6.35876e-07
6.32645e-07
6.24342e-07
6.27283e-07
6.02343e-07
4.79957e-07
4.6224e-09
5.74561e-07
5.74572e-07
5.74149e-07
5.74429e-07
5.66979e-07
5.61547e-07
5.59928e-07
5.54494e-07
5.38239e-07
4.28489e-07
1.04049e-08
5.29594e-07
5.26053e-07
5.25252e-07
5.22369e-07
5.08337e-07
5.08773e-07
5.05899e-07
4.83096e-07
3.89895e-07
2.15576e-08
4.90472e-07
4.88658e-07
4.86018e-07
4.82643e-07
4.70525e-07
4.64531e-07
4.6278e-07
4.42603e-07
3.62025e-07
3.88862e-08
4.58571e-07
4.57878e-07
4.53638e-07
4.4926e-07
4.37351e-07
4.30772e-07
4.23351e-07
4.07391e-07
3.38986e-07
6.11933e-08
4.31382e-07
4.31354e-07
4.25665e-07
4.20002e-07
4.05749e-07
3.99796e-07
3.91725e-07
3.75655e-07
3.18343e-07
8.52302e-08
4.0737e-07
4.07736e-07
4.00674e-07
3.93562e-07
3.76871e-07
3.70118e-07
3.62406e-07
3.46312e-07
2.9861e-07
1.06928e-07
3.86925e-07
3.8621e-07
3.7778e-07
3.69108e-07
3.49719e-07
3.44244e-07
3.34845e-07
3.18764e-07
2.78916e-07
1.22766e-07
3.68385e-07
3.66219e-07
3.56393e-07
3.46082e-07
3.26666e-07
3.19343e-07
3.08698e-07
2.92697e-07
2.58833e-07
1.30212e-07
3.51242e-07
3.47353e-07
3.36086e-07
3.24059e-07
3.02757e-07
2.95379e-07
2.83784e-07
2.67979e-07
2.38208e-07
1.28024e-07
3.34026e-07
3.29273e-07
3.16525e-07
3.02718e-07
2.81059e-07
2.72306e-07
2.60023e-07
2.43987e-07
2.17008e-07
1.16838e-07
3.16784e-07
3.11688e-07
2.97433e-07
2.81775e-07
2.59966e-07
2.5006e-07
2.37425e-07
2.21954e-07
1.95239e-07
9.92807e-08
2.99771e-07
2.94339e-07
2.78565e-07
2.60946e-07
2.39405e-07
2.28621e-07
2.16066e-07
2.00415e-07
1.72905e-07
7.9057e-08
2.82733e-07
2.76984e-07
2.59702e-07
2.4232e-07
2.1936e-07
2.0805e-07
1.94962e-07
1.80973e-07
1.50171e-07
5.95327e-08
2.65423e-07
2.59399e-07
2.40607e-07
2.23813e-07
1.99809e-07
1.88119e-07
1.74426e-07
1.62768e-07
1.27428e-07
4.27864e-08
2.47606e-07
2.41382e-07
2.23189e-07
2.05398e-07
1.80767e-07
1.69269e-07
1.55508e-07
1.4582e-07
1.05336e-07
2.95484e-08
)
;

boundaryField
{
    fuel
    {
        type            fixedValue;
        value           uniform 0;
    }
    wall
    {
        type            zeroGradient;
    }
    outlet
    {
        type            zeroGradient;
    }
    frontAndBack
    {
        type            empty;
    }
    procBoundary3to0
    {
        type            processor;
        value           nonuniform List<scalar> 10(2.29062e-07 2.22733e-07 2.04866e-07 1.8705e-07 1.62295e-07 1.51396e-07 1.38023e-07 1.29288e-07 8.48205e-08 1.96724e-08);
    }
    procBoundary3to2
    {
        type            processor;
        value           nonuniform List<scalar> 
25
(
9.30023e-06
7.19429e-06
4.32936e-06
2.56113e-06
1.63131e-06
1.15054e-06
8.93259e-07
7.3511e-07
6.3382e-07
5.74148e-07
5.29549e-07
5.29549e-07
4.90418e-07
4.58521e-07
4.31351e-07
4.07371e-07
3.87002e-07
3.68338e-07
3.51198e-07
3.33981e-07
3.16739e-07
2.99723e-07
2.82684e-07
2.65372e-07
2.47553e-07
)
;
    }
}


// ************************************************************************* //
