/*--------------------------------*- C++ -*----------------------------------*\
| =========                 |                                                 |
| \\      /  F ield         | OpenFOAM: The Open Source CFD Toolbox           |
|  \\    /   O peration     | Version:  dev                                   |
|   \\  /    A nd           | Web:      www.OpenFOAM.org                      |
|    \\/     M anipulation  |                                                 |
\*---------------------------------------------------------------------------*/
FoamFile
{
    version     2.0;
    format      ascii;
    class       volScalarField;
    location    "0.015";
    object      C5H4O;
}
// * * * * * * * * * * * * * * * * * * * * * * * * * * * * * * * * * * * * * //

dimensions      [0 0 0 0 0 0 0];

internalField   nonuniform List<scalar> 
25
(
1.05846e-09
9.55908e-10
8.48713e-10
7.56196e-10
6.69063e-10
5.87845e-10
5.08891e-10
4.33802e-10
3.68103e-10
2.99984e-10
2.38717e-10
1.96383e-10
1.59313e-10
1.25441e-10
9.65114e-11
7.24708e-11
5.29825e-11
3.74685e-11
2.61715e-11
1.80521e-11
1.218e-11
8.20637e-12
5.62609e-12
3.86991e-12
1.96027e-12
)
;

boundaryField
{
    wall
    {
        type            zeroGradient;
    }
    fuel
    {
        type            fixedValue;
        value           nonuniform 0();
    }
    outlet
    {
        type            inletOutlet;
        inletValue      uniform 0;
        value           uniform 1.96027e-12;
    }
    procBoundary3to2
    {
        type            processor;
        value           uniform 1.15846e-09;
    }
}


// ************************************************************************* //
