/*--------------------------------*- C++ -*----------------------------------*\
| =========                 |                                                 |
| \\      /  F ield         | OpenFOAM: The Open Source CFD Toolbox           |
|  \\    /   O peration     | Version:  dev                                   |
|   \\  /    A nd           | Web:      www.OpenFOAM.org                      |
|    \\/     M anipulation  |                                                 |
\*---------------------------------------------------------------------------*/
FoamFile
{
    version     2.0;
    format      ascii;
    class       volScalarField;
    location    "0.015";
    object      CO;
}
// * * * * * * * * * * * * * * * * * * * * * * * * * * * * * * * * * * * * * //

dimensions      [0 0 0 0 0 0 0];

internalField   nonuniform List<scalar> 
25
(
0.00618687
0.00529248
0.00444082
0.003767
0.0031805
0.00267298
0.00221338
0.00180557
0.00147139
0.00114706
0.00087279
0.000692855
0.000543534
0.00041392
0.000308255
0.000224199
0.000158844
0.000108844
7.37684e-05
4.94414e-05
3.24373e-05
2.13009e-05
1.42848e-05
9.67098e-06
4.84284e-06
)
;

boundaryField
{
    wall
    {
        type            zeroGradient;
    }
    fuel
    {
        type            fixedValue;
        value           nonuniform 0();
    }
    outlet
    {
        type            inletOutlet;
        inletValue      uniform 0;
        value           uniform 4.84284e-06;
    }
    procBoundary3to2
    {
        type            processor;
        value           uniform 0.00714779;
    }
}


// ************************************************************************* //
