/*--------------------------------*- C++ -*----------------------------------*\
| =========                 |                                                 |
| \\      /  F ield         | OpenFOAM: The Open Source CFD Toolbox           |
|  \\    /   O peration     | Version:  dev                                   |
|   \\  /    A nd           | Web:      www.OpenFOAM.org                      |
|    \\/     M anipulation  |                                                 |
\*---------------------------------------------------------------------------*/
FoamFile
{
    version     2.0;
    format      ascii;
    class       volScalarField;
    location    "0.015";
    object      HO2;
}
// * * * * * * * * * * * * * * * * * * * * * * * * * * * * * * * * * * * * * //

dimensions      [0 0 0 0 0 0 0];

internalField   nonuniform List<scalar> 
25
(
3.8577e-06
3.39127e-06
2.9383e-06
2.57215e-06
2.24588e-06
1.95587e-06
1.68507e-06
1.43596e-06
1.22337e-06
1.00681e-06
8.13595e-07
6.80014e-07
5.62194e-07
4.53091e-07
3.58124e-07
2.7727e-07
2.09784e-07
1.54223e-07
1.1223e-07
8.07903e-08
5.70217e-08
4.0139e-08
2.8604e-08
2.02388e-08
1.04667e-08
)
;

boundaryField
{
    wall
    {
        type            zeroGradient;
    }
    fuel
    {
        type            fixedValue;
        value           nonuniform 0();
    }
    outlet
    {
        type            inletOutlet;
        inletValue      uniform 0;
        value           uniform 1.04667e-08;
    }
    procBoundary3to2
    {
        type            processor;
        value           uniform 4.35109e-06;
    }
}


// ************************************************************************* //
