/*--------------------------------*- C++ -*----------------------------------*\
| =========                 |                                                 |
| \\      /  F ield         | OpenFOAM: The Open Source CFD Toolbox           |
|  \\    /   O peration     | Version:  dev                                   |
|   \\  /    A nd           | Web:      www.OpenFOAM.org                      |
|    \\/     M anipulation  |                                                 |
\*---------------------------------------------------------------------------*/
FoamFile
{
    version     2.0;
    format      ascii;
    class       volScalarField;
    location    "0.015";
    object      N2;
}
// * * * * * * * * * * * * * * * * * * * * * * * * * * * * * * * * * * * * * //

dimensions      [0 0 0 0 0 0 0];

internalField   nonuniform List<scalar> 
1989
(
0.301947
0.303246
0.303702
0.303699
0.303147
0.302627
0.301855
0.30133
0.300734
0.300334
0.299935
0.299643
0.299465
0.299393
0.299395
0.29947
0.299646
0.299924
0.30031
0.300695
0.301234
0.301719
0.302456
0.302933
0.303446
0.303418
0.302936
0.301632
0.299593
0.296819
0.292725
0.28668
0.280692
0.275274
0.271476
0.270907
0.273861
0.282303
0.294563
0.304582
0.292512
0.284347
0.281744
0.282572
0.286619
0.292265
0.298588
0.304646
0.309009
0.311691
0.31367
0.31492
0.315399
0.315408
0.315115
0.314602
0.313825
0.31331
0.312725
0.312337
0.311953
0.311636
0.311459
0.311388
0.311389
0.311463
0.311638
0.311942
0.312311
0.312683
0.313212
0.313687
0.314424
0.314897
0.315148
0.315107
0.314604
0.313337
0.311365
0.308682
0.304433
0.298236
0.292043
0.286499
0.282482
0.28173
0.284422
0.292685
0.304868
0.31535
0.303281
0.295298
0.29296
0.293963
0.29825
0.30411
0.310779
0.316842
0.321272
0.323946
0.325952
0.327155
0.327589
0.327488
0.327133
0.326626
0.326125
0.325624
0.325051
0.324677
0.324316
0.323968
0.323792
0.323722
0.323724
0.323796
0.323969
0.324307
0.32465
0.325006
0.325523
0.325988
0.326442
0.32691
0.327215
0.327287
0.326829
0.325614
0.323614
0.320935
0.316606
0.310419
0.303859
0.298124
0.293864
0.292939
0.295366
0.30345
0.315578
0.326418
0.314436
0.306636
0.304565
0.305827
0.310268
0.316489
0.323045
0.329402
0.333878
0.336547
0.338577
0.339754
0.34021
0.340106
0.339691
0.339116
0.338471
0.337983
0.337421
0.337063
0.336729
0.33664
0.336466
0.336397
0.336399
0.336469
0.336639
0.336722
0.337034
0.337373
0.33788
0.338334
0.338937
0.339456
0.339829
0.339905
0.339424
0.338234
0.336209
0.333532
0.329147
0.322693
0.316234
0.310143
0.305703
0.304539
0.306699
0.314603
0.326654
0.338144
0.326244
0.318626
0.316617
0.317982
0.322703
0.328917
0.335706
0.342015
0.346523
0.349494
0.351545
0.352686
0.353165
0.353055
0.352633
0.35206
0.351416
0.350898
0.350281
0.349876
0.3495
0.349355
0.349183
0.349116
0.349117
0.349186
0.349354
0.349488
0.349842
0.35023
0.35079
0.351271
0.351877
0.352394
0.352778
0.35286
0.352353
0.351197
0.349151
0.346167
0.341744
0.335415
0.32866
0.322571
0.317848
0.316583
0.318686
0.326402
0.338381
0.350314
0.338535
0.331148
0.329385
0.33086
0.335852
0.34202
0.348955
0.355229
0.359599
0.362485
0.36456
0.365949
0.366458
0.36634
0.365903
0.365335
0.364697
0.364192
0.363588
0.363195
0.362843
0.362684
0.362503
0.362431
0.362432
0.362505
0.36268
0.362832
0.363159
0.363534
0.364083
0.364551
0.365148
0.365661
0.366066
0.366152
0.365614
0.364208
0.362138
0.359229
0.354928
0.348689
0.341763
0.33572
0.330704
0.329345
0.331203
0.338691
0.350552
0.362606
0.351228
0.344097
0.34257
0.344183
0.349378
0.355542
0.362651
0.36848
0.37288
0.375801
0.377893
0.379251
0.379794
0.37968
0.379202
0.378643
0.378009
0.377516
0.376926
0.376542
0.376209
0.376048
0.375873
0.375803
0.375803
0.375874
0.376044
0.376196
0.376506
0.376869
0.377406
0.377862
0.378452
0.378957
0.379408
0.379488
0.378914
0.377536
0.375449
0.372516
0.368161
0.362378
0.35528
0.349237
0.344021
0.342524
0.344147
0.351381
0.362845
0.375295
0.364327
0.357477
0.356175
0.35791
0.363284
0.369081
0.376393
0.382059
0.386664
0.389653
0.391792
0.39313
0.393454
0.393644
0.393075
0.392528
0.391892
0.391405
0.390826
0.390443
0.390112
0.389958
0.389798
0.389727
0.389727
0.389798
0.389952
0.390097
0.390405
0.390763
0.391292
0.391742
0.392331
0.392827
0.393369
0.393146
0.392788
0.391427
0.389291
0.386301
0.381718
0.376106
0.368813
0.363142
0.357737
0.356123
0.357522
0.364477
0.375533
0.388459
0.377499
0.370883
0.369797
0.371636
0.377215
0.383063
0.390641
0.396259
0.400939
0.403912
0.406067
0.407372
0.407732
0.407711
0.407286
0.406769
0.406136
0.405657
0.405097
0.404719
0.40438
0.404224
0.404115
0.404046
0.404046
0.404114
0.404217
0.404362
0.404679
0.405031
0.405543
0.405984
0.406568
0.407041
0.407433
0.407419
0.407028
0.405699
0.403545
0.400589
0.395901
0.390334
0.382796
0.377068
0.371442
0.36974
0.370924
0.377646
0.388699
0.402235
0.391324
0.384718
0.383806
0.385738
0.391499
0.397333
0.405011
0.410467
0.415228
0.418181
0.420356
0.421636
0.422033
0.422051
0.421806
0.421328
0.420697
0.420221
0.419688
0.419312
0.418951
0.418695
0.418444
0.418375
0.418375
0.418442
0.418686
0.418931
0.41927
0.419618
0.420105
0.420542
0.421124
0.421571
0.421768
0.421715
0.421289
0.419985
0.41781
0.414867
0.410122
0.404687
0.397076
0.39133
0.385547
0.383745
0.384758
0.391469
0.402472
0.416411
0.405733
0.399291
0.398471
0.400446
0.406311
0.412129
0.419958
0.425196
0.429811
0.432748
0.434944
0.436201
0.436638
0.436658
0.436343
0.435894
0.43526
0.434779
0.434282
0.433906
0.43353
0.433273
0.433071
0.433004
0.433003
0.433068
0.433263
0.433507
0.433862
0.43421
0.434661
0.435101
0.435686
0.436113
0.436371
0.436314
0.435852
0.434569
0.432374
0.429444
0.424861
0.419606
0.411885
0.40611
0.400262
0.398407
0.399328
0.405875
0.416645
0.430655
0.420187
0.41431
0.413669
0.41574
0.421268
0.427098
0.434951
0.440064
0.444673
0.447604
0.449821
0.451106
0.451536
0.451538
0.45124
0.450898
0.450276
0.449784
0.449331
0.448953
0.448567
0.448322
0.448133
0.448065
0.448064
0.448129
0.44831
0.44854
0.448905
0.449255
0.449661
0.450111
0.450689
0.450999
0.451247
0.451207
0.450746
0.449444
0.447228
0.444301
0.439738
0.434569
0.426871
0.421052
0.41556
0.413602
0.414343
0.420325
0.430887
0.445512
0.435074
0.429307
0.428845
0.43099
0.436622
0.442654
0.45021
0.45527
0.46006
0.463058
0.464978
0.466248
0.466715
0.466965
0.466679
0.466344
0.465717
0.465215
0.464503
0.464129
0.463747
0.463518
0.463334
0.463268
0.463266
0.463329
0.463504
0.463718
0.464078
0.464425
0.465088
0.465549
0.466131
0.466433
0.46667
0.466381
0.465886
0.464599
0.462679
0.459679
0.454923
0.449785
0.442453
0.43638
0.430811
0.428776
0.429336
0.435215
0.445744
0.460826
0.450677
0.445056
0.444747
0.446987
0.452255
0.458324
0.46602
0.471076
0.475486
0.478481
0.480402
0.481659
0.482155
0.482385
0.482091
0.481754
0.481124
0.480614
0.479943
0.479574
0.4792
0.478982
0.478801
0.478735
0.478733
0.478795
0.478966
0.479169
0.479521
0.479862
0.480484
0.480952
0.481539
0.481838
0.482087
0.481818
0.481295
0.480022
0.4781
0.475102
0.470731
0.465631
0.458091
0.452013
0.446808
0.444674
0.445083
0.450813
0.461055
0.476175
0.466256
0.4608
0.460647
0.462938
0.468478
0.474646
0.481858
0.486827
0.491176
0.494175
0.496069
0.497322
0.497839
0.49805
0.497753
0.497411
0.496784
0.496272
0.495636
0.495275
0.494909
0.494699
0.494519
0.494454
0.494452
0.494512
0.494681
0.494876
0.495219
0.495553
0.496138
0.496608
0.497195
0.497494
0.497749
0.4975
0.496956
0.49569
0.493794
0.490791
0.48648
0.481477
0.474384
0.468238
0.462759
0.460571
0.460824
0.466389
0.476401
0.491865
0.482175
0.476885
0.476877
0.479206
0.484729
0.49091
0.497947
0.502818
0.507139
0.510092
0.511977
0.513219
0.513752
0.513945
0.513648
0.513302
0.512682
0.512175
0.511567
0.511216
0.510856
0.510652
0.510474
0.51041
0.510408
0.510465
0.510632
0.510821
0.511157
0.511482
0.512037
0.512502
0.513083
0.513385
0.513643
0.513411
0.51285
0.511599
0.509711
0.506753
0.502469
0.497569
0.490625
0.484496
0.479027
0.476799
0.476906
0.482305
0.492089
0.507882
0.49842
0.493297
0.493419
0.495774
0.501297
0.507371
0.514305
0.519047
0.523341
0.526232
0.528111
0.529327
0.529874
0.530054
0.529758
0.529411
0.528799
0.528304
0.527718
0.527376
0.527023
0.526824
0.526647
0.526586
0.526583
0.526638
0.526802
0.526986
0.527314
0.527631
0.528163
0.528617
0.52919
0.529493
0.529751
0.529533
0.528955
0.527735
0.525851
0.522954
0.518696
0.513932
0.507052
0.501087
0.495596
0.493338
0.493315
0.498547
0.508104
0.524206
0.514972
0.510014
0.510253
0.512624
0.518125
0.524118
0.530848
0.535494
0.539757
0.542583
0.544457
0.545615
0.546188
0.546357
0.546063
0.545718
0.545116
0.544639
0.544068
0.543735
0.543389
0.543195
0.543021
0.542961
0.542957
0.54301
0.543171
0.543349
0.54367
0.543978
0.544493
0.544932
0.545495
0.545797
0.546053
0.545847
0.545244
0.544078
0.542203
0.53937
0.53514
0.530479
0.523767
0.517938
0.512446
0.510171
0.510029
0.515095
0.524425
0.540815
0.531808
0.527013
0.527358
0.529732
0.535217
0.541077
0.547577
0.552135
0.556388
0.55925
0.560993
0.562195
0.562672
0.562833
0.562543
0.562203
0.561613
0.561152
0.560593
0.56027
0.559932
0.559744
0.559573
0.559514
0.55951
0.559561
0.559718
0.55989
0.560203
0.560501
0.561001
0.561427
0.561978
0.562275
0.562529
0.562332
0.561835
0.560608
0.558864
0.556002
0.551778
0.547213
0.540729
0.535022
0.529554
0.527273
0.527025
0.531928
0.54103
0.55768
0.548904
0.544268
0.544705
0.547072
0.552544
0.558195
0.564501
0.568976
0.573151
0.575939
0.577674
0.578811
0.579303
0.579458
0.579173
0.578841
0.578264
0.577811
0.577267
0.576957
0.576629
0.576446
0.576279
0.576223
0.576218
0.576266
0.57642
0.576585
0.576889
0.577174
0.577654
0.578077
0.578615
0.578904
0.579155
0.578964
0.578453
0.577287
0.575554
0.572767
0.568617
0.564141
0.55786
0.552336
0.546894
0.544618
0.544278
0.549021
0.557892
0.574775
0.566229
0.561749
0.562265
0.564681
0.570046
0.575482
0.581589
0.585976
0.590033
0.592764
0.594472
0.595566
0.596055
0.596206
0.595927
0.595605
0.595043
0.594649
0.594151
0.593854
0.593532
0.593354
0.593189
0.593133
0.593128
0.593174
0.593326
0.593485
0.593783
0.594057
0.594506
0.594855
0.595378
0.595658
0.595903
0.595718
0.595208
0.594088
0.59238
0.589652
0.585617
0.581232
0.575159
0.569827
0.564494
0.562177
0.561756
0.566343
0.574982
0.592066
0.583751
0.579421
0.580003
0.582394
0.587694
0.592908
0.598806
0.603085
0.60703
0.609686
0.611361
0.612423
0.6129
0.613047
0.612775
0.612465
0.611919
0.611532
0.61105
0.610767
0.610455
0.610284
0.610123
0.610069
0.610063
0.610107
0.610254
0.610407
0.610694
0.610955
0.611385
0.611731
0.612238
0.612507
0.612745
0.612565
0.612066
0.610982
0.609305
0.60665
0.602728
0.598453
0.592595
0.587467
0.582203
0.579913
0.579426
0.583862
0.59227
0.609521
0.601435
0.597249
0.597881
0.600234
0.605453
0.610438
0.616117
0.620269
0.624116
0.626665
0.628312
0.629345
0.629805
0.629949
0.629685
0.629389
0.628859
0.628487
0.628018
0.627744
0.627442
0.627276
0.627119
0.627067
0.627061
0.627102
0.627245
0.627391
0.627669
0.627919
0.628338
0.62867
0.629162
0.629417
0.629648
0.629473
0.628989
0.627938
0.626289
0.623738
0.619916
0.615767
0.610135
0.605223
0.600038
0.597789
0.597252
0.601542
0.60972
0.627101
0.619469
0.615422
0.61607
0.618315
0.623287
0.628038
0.633482
0.637491
0.641241
0.64368
0.645291
0.646292
0.646734
0.646874
0.646621
0.646338
0.645826
0.645471
0.645015
0.64475
0.644456
0.644295
0.644141
0.644091
0.644085
0.644123
0.644263
0.644403
0.644673
0.644914
0.64532
0.645638
0.64611
0.646354
0.646575
0.646405
0.645939
0.644921
0.643308
0.640865
0.637144
0.633134
0.627741
0.623055
0.618108
0.615977
0.615423
0.619571
0.627295
0.644752
0.637371
0.633443
0.634108
0.636249
0.64115
0.645751
0.651035
0.654935
0.658364
0.660687
0.662259
0.663224
0.663648
0.663784
0.663541
0.663273
0.662779
0.662441
0.662001
0.661743
0.661457
0.661299
0.661149
0.661101
0.661094
0.661129
0.661265
0.6614
0.661664
0.661896
0.662289
0.662592
0.663044
0.663275
0.663487
0.663322
0.662875
0.661894
0.66032
0.657992
0.65459
0.650688
0.645456
0.640921
0.636042
0.634015
0.633442
0.637472
0.644942
0.662425
0.65531
0.651779
0.652446
0.654426
0.658995
0.663355
0.668384
0.672123
0.675441
0.677642
0.679171
0.680096
0.680501
0.680633
0.680401
0.680146
0.679673
0.679351
0.678928
0.678679
0.678395
0.678241
0.678095
0.678049
0.678042
0.678075
0.678205
0.678334
0.678598
0.678821
0.679199
0.679486
0.679919
0.680137
0.680339
0.680179
0.679751
0.678811
0.677279
0.675073
0.671786
0.668039
0.663066
0.658768
0.654272
0.652355
0.651775
0.655411
0.66261
0.680062
0.673206
0.669795
0.670457
0.672307
0.676761
0.680882
0.685648
0.689218
0.69242
0.694493
0.695977
0.696858
0.697245
0.697372
0.697151
0.69691
0.696458
0.696151
0.695745
0.695506
0.695247
0.695109
0.694966
0.69492
0.694912
0.694944
0.695071
0.695192
0.695423
0.695636
0.695999
0.69627
0.696685
0.69689
0.697082
0.696927
0.696519
0.695623
0.694136
0.692058
0.688893
0.685303
0.680598
0.676543
0.672153
0.670367
0.669789
0.673323
0.680242
0.697605
0.691084
0.687773
0.688387
0.690118
0.694388
0.698272
0.702784
0.706176
0.709219
0.711185
0.712621
0.713455
0.713823
0.713946
0.713736
0.713509
0.713077
0.712786
0.712398
0.712168
0.711912
0.711778
0.71164
0.711597
0.711588
0.711617
0.711739
0.711854
0.712083
0.712287
0.712634
0.712892
0.713285
0.713478
0.713659
0.713511
0.713122
0.712274
0.710833
0.708864
0.70585
0.702452
0.697995
0.694171
0.689959
0.688298
0.687767
0.691147
0.697779
0.714984
0.708731
0.705527
0.706126
0.707756
0.711815
0.71546
0.719713
0.722924
0.725801
0.727656
0.729041
0.729826
0.730175
0.730292
0.730094
0.729881
0.729469
0.729193
0.728823
0.728603
0.728356
0.728225
0.728091
0.72805
0.728041
0.728067
0.728184
0.728295
0.728517
0.728711
0.729042
0.729286
0.729658
0.72984
0.730009
0.729868
0.729499
0.728703
0.727308
0.725453
0.722602
0.719388
0.715189
0.711601
0.707596
0.706039
0.705518
0.70881
0.715151
0.732119
0.726153
0.72303
0.723617
0.725132
0.728973
0.732372
0.736369
0.73938
0.742095
0.743836
0.745166
0.7459
0.746232
0.746342
0.746156
0.745956
0.745565
0.745303
0.744951
0.744741
0.744504
0.744378
0.744248
0.744208
0.744199
0.744223
0.744335
0.744441
0.744653
0.744837
0.745153
0.745384
0.745736
0.745906
0.746064
0.745931
0.745581
0.74484
0.743492
0.741755
0.739062
0.736053
0.732109
0.728761
0.724976
0.723532
0.72302
0.726233
0.73228
0.748919
0.743251
0.740351
0.74077
0.742148
0.745781
0.748925
0.752667
0.755463
0.75802
0.759645
0.760918
0.761601
0.761915
0.762018
0.761844
0.761654
0.761287
0.761038
0.760703
0.760503
0.760277
0.760156
0.76003
0.759992
0.759982
0.760004
0.760112
0.760213
0.760415
0.760589
0.760889
0.761107
0.761437
0.761598
0.761745
0.76162
0.761288
0.760597
0.759313
0.757689
0.755151
0.75236
0.748669
0.745572
0.741999
0.740687
0.740347
0.743328
0.749074
0.76528
0.75991
0.757102
0.757483
0.758768
0.762077
0.765021
0.768501
0.771092
0.773484
0.775003
0.776194
0.776837
0.777133
0.777228
0.777067
0.776887
0.776543
0.776306
0.775989
0.775799
0.775584
0.775467
0.775346
0.77531
0.7753
0.775319
0.775423
0.775518
0.775709
0.775874
0.776159
0.776365
0.776674
0.776826
0.776961
0.776846
0.776532
0.77588
0.774683
0.773163
0.770787
0.768203
0.764772
0.761874
0.758621
0.757403
0.757098
0.759984
0.765429
0.781084
0.776012
0.773317
0.773633
0.774809
0.77781
0.780547
0.783763
0.786157
0.788381
0.789794
0.790901
0.791504
0.791783
0.79187
0.79172
0.791551
0.791227
0.791003
0.790704
0.790523
0.790319
0.790208
0.790091
0.790057
0.790046
0.790064
0.790162
0.790253
0.790433
0.790588
0.790858
0.791052
0.791342
0.791484
0.791609
0.791503
0.791208
0.790595
0.789484
0.78807
0.785858
0.783476
0.780306
0.777614
0.774667
0.773556
0.773312
0.776082
0.781226
0.796191
0.791414
0.788843
0.789076
0.790136
0.792845
0.795371
0.798322
0.800528
0.802583
0.803891
0.804915
0.805477
0.80574
0.805818
0.80568
0.805522
0.805214
0.805005
0.804722
0.804551
0.804358
0.804251
0.804139
0.804107
0.804096
0.804111
0.804204
0.804291
0.80446
0.804606
0.804862
0.805043
0.805316
0.805449
0.805563
0.805467
0.805191
0.804618
0.803592
0.802282
0.800237
0.798047
0.795136
0.792655
0.79
0.789001
0.788836
0.79148
0.796327
0.810435
0.805943
0.803499
0.80364
0.804583
0.807014
0.809331
0.812023
0.814048
0.815936
0.817143
0.818084
0.818607
0.818852
0.818921
0.818795
0.818644
0.818358
0.81816
0.817892
0.81773
0.817549
0.817446
0.817339
0.817308
0.817297
0.817311
0.817399
0.817481
0.81764
0.817778
0.818018
0.818189
0.818443
0.81857
0.818673
0.818588
0.818329
0.817798
0.816854
0.815645
0.813766
0.811761
0.809102
0.806831
0.804452
0.803568
0.803491
0.806006
0.810564
0.823605
0.819384
0.817066
0.81711
0.81794
0.820111
0.822224
0.824669
0.826521
0.828246
0.829359
0.830226
0.830704
0.830932
0.830991
0.830876
0.83073
0.830468
0.830279
0.830026
0.829873
0.829702
0.829604
0.829502
0.829472
0.82946
0.829472
0.829556
0.829634
0.829783
0.829913
0.830138
0.830302
0.830534
0.830657
0.830751
0.830676
0.830435
0.829948
0.829079
0.827966
0.826248
0.82442
0.822
0.819934
0.817815
0.817041
0.817059
0.819443
0.823729
0.835431
0.831458
0.829264
0.829211
0.829933
0.831868
0.833787
0.836007
0.837692
0.839261
0.840289
0.841082
0.841524
0.841736
0.841785
0.84168
0.841536
0.8413
0.841119
0.840876
0.840733
0.840572
0.840478
0.84038
0.840352
0.84034
0.840351
0.84043
0.840504
0.840643
0.840767
0.840977
0.841134
0.841347
0.841467
0.841552
0.841487
0.841263
0.840814
0.840016
0.838992
0.837429
0.835767
0.833573
0.831696
0.829814
0.829145
0.829256
0.831514
0.835548
0.84554
0.841788
0.839709
0.839565
0.840202
0.841903
0.843661
0.845689
0.847229
0.848662
0.849605
0.850326
0.850733
0.85093
0.850971
0.850875
0.850732
0.850518
0.850344
0.850112
0.849977
0.849825
0.849734
0.849641
0.849614
0.849602
0.849611
0.849686
0.849758
0.849888
0.850005
0.850204
0.850354
0.850548
0.850669
0.850745
0.850688
0.850481
0.850067
0.849345
0.848403
0.846975
0.845462
0.843451
0.841741
0.840085
0.839502
0.839702
0.841842
0.845653
0.853396
0.849822
0.847845
0.847622
0.848191
0.849698
0.851322
0.853207
0.854608
0.855922
0.856805
0.857472
0.857851
0.858034
0.858069
0.857979
0.857839
0.857642
0.857475
0.857248
0.857122
0.856978
0.85689
0.8568
0.856774
0.856761
0.85677
0.856841
0.85691
0.857034
0.857145
0.857335
0.857481
0.857658
0.857778
0.857848
0.8578
0.857606
0.857221
0.856552
0.855672
0.854362
0.853009
0.8511
0.849546
0.848072
0.847562
0.847839
0.849875
0.853506
0.858154
0.854695
0.85279
0.852509
0.853026
0.854401
0.855926
0.857744
0.859039
0.860277
0.861122
0.861752
0.862112
0.862286
0.862316
0.862229
0.862093
0.861906
0.861744
0.86152
0.8614
0.861261
0.861174
0.861087
0.861061
0.861049
0.861057
0.861126
0.861194
0.861312
0.86142
0.861604
0.861747
0.861915
0.862032
0.8621
0.862057
0.861873
0.861506
0.860875
0.860033
0.858799
0.857534
0.855728
0.854249
0.852916
0.852452
0.852786
0.854748
0.858263
)
;

boundaryField
{
    fuel
    {
        type            fixedValue;
        value           nonuniform 0();
    }
    wall
    {
        type            zeroGradient;
    }
    outlet
    {
        type            zeroGradient;
    }
    frontAndBack
    {
        type            empty;
    }
    procBoundary3to2
    {
        type            processor;
        value           nonuniform List<scalar> 
51
(
0.290596
0.291631
0.292066
0.292049
0.291512
0.290987
0.29022
0.289687
0.28908
0.288672
0.288265
0.287991
0.287813
0.28774
0.287742
0.287818
0.287995
0.288257
0.288649
0.289046
0.289592
0.290089
0.290821
0.291306
0.291802
0.29179
0.291331
0.290288
0.288295
0.285528
0.281514
0.275532
0.269671
0.264444
0.260848
0.260471
0.263688
0.272311
0.28465
0.294295
0.282136
0.273787
0.270918
0.271561
0.275388
0.280914
0.287039
0.29292
0.297134
0.299914
0.299914
)
;
    }
}


// ************************************************************************* //
