/*--------------------------------*- C++ -*----------------------------------*\
| =========                 |                                                 |
| \\      /  F ield         | OpenFOAM: The Open Source CFD Toolbox           |
|  \\    /   O peration     | Version:  dev                                   |
|   \\  /    A nd           | Web:      www.OpenFOAM.org                      |
|    \\/     M anipulation  |                                                 |
\*---------------------------------------------------------------------------*/
FoamFile
{
    version     2.0;
    format      ascii;
    class       volScalarField;
    location    "0.015";
    object      N2;
}
// * * * * * * * * * * * * * * * * * * * * * * * * * * * * * * * * * * * * * //

dimensions      [0 0 0 0 0 0 0];

internalField   nonuniform List<scalar> 
25
(
0.944117
0.950292
0.956396
0.961424
0.965985
0.970109
0.97402
0.97767
0.980825
0.984076
0.987004
0.989041
0.990849
0.992534
0.994007
0.99527
0.996333
0.997218
0.997898
0.998419
0.998826
0.999129
0.999349
0.999523
0.999747
)
;

boundaryField
{
    wall
    {
        type            zeroGradient;
    }
    fuel
    {
        type            fixedValue;
        value           nonuniform 0();
    }
    outlet
    {
        type            inletOutlet;
        inletValue      uniform 1;
        value           uniform 0.999747;
    }
    procBoundary3to2
    {
        type            processor;
        value           uniform 0.937716;
    }
}


// ************************************************************************* //
