/*--------------------------------*- C++ -*----------------------------------*\
| =========                 |                                                 |
| \\      /  F ield         | OpenFOAM: The Open Source CFD Toolbox           |
|  \\    /   O peration     | Version:  dev                                   |
|   \\  /    A nd           | Web:      www.OpenFOAM.org                      |
|    \\/     M anipulation  |                                                 |
\*---------------------------------------------------------------------------*/
FoamFile
{
    version     2.0;
    format      ascii;
    class       volScalarField;
    location    "0.015";
    object      P2;
}
// * * * * * * * * * * * * * * * * * * * * * * * * * * * * * * * * * * * * * //

dimensions      [0 0 0 0 0 0 0];

internalField   nonuniform List<scalar> 
250
(
8.72487e-08
8.72483e-08
8.73678e-08
8.76145e-08
8.80866e-08
8.86913e-08
8.94691e-08
9.07073e-08
9.45352e-08
1.37928e-07
3.56118e-09
7.29019e-08
7.29011e-08
7.3054e-08
7.34344e-08
7.41182e-08
7.50044e-08
7.61469e-08
7.80046e-08
8.38146e-08
1.61115e-07
7.72129e-09
4.94623e-08
4.94616e-08
4.96162e-08
5.00108e-08
5.07135e-08
5.16302e-08
5.28205e-08
5.48103e-08
6.09855e-08
1.51773e-07
9.88757e-09
3.07878e-08
3.07872e-08
3.09246e-08
3.12729e-08
3.19081e-08
3.2721e-08
3.37817e-08
3.563e-08
4.12634e-08
1.30802e-07
1.0419e-08
1.84434e-08
1.84429e-08
1.85605e-08
1.88384e-08
1.94051e-08
2.00021e-08
2.09201e-08
2.25109e-08
2.72952e-08
1.07044e-07
1.00474e-08
1.09682e-08
1.09677e-08
1.10726e-08
1.12745e-08
1.15248e-08
1.22036e-08
1.29557e-08
1.42589e-08
1.82425e-08
8.4318e-08
9.37269e-09
6.63278e-09
6.63247e-09
6.73674e-09
6.86131e-09
7.03627e-09
7.58486e-09
8.21902e-09
9.26587e-09
1.25764e-08
6.41194e-08
8.87087e-09
3.91928e-09
3.91906e-09
4.06779e-09
4.13496e-09
4.43891e-09
4.89817e-09
5.35551e-09
6.31639e-09
8.71256e-09
4.91256e-08
8.76389e-09
2.48581e-09
2.48563e-09
2.48799e-09
2.66159e-09
2.88129e-09
3.21958e-09
3.5225e-09
4.3679e-09
6.3437e-09
3.79295e-08
9.21497e-09
1.64142e-09
1.64136e-09
1.67862e-09
1.80301e-09
1.90807e-09
2.18866e-09
2.54891e-09
3.19481e-09
5.0605e-09
2.99576e-08
1.03633e-08
1.14218e-09
1.14357e-09
1.24424e-09
1.38849e-09
1.56288e-09
1.92329e-09
2.56602e-09
4.19999e-09
2.42423e-08
1.23738e-08
7.98487e-10
8.14488e-10
8.92223e-10
1.02452e-09
1.21378e-09
1.5097e-09
2.1532e-09
3.77171e-09
2.08678e-08
1.54906e-08
5.80029e-10
6.03453e-10
6.66926e-10
7.88308e-10
9.80068e-10
1.27607e-09
1.89864e-09
3.58706e-09
1.91212e-08
2.00464e-08
4.3491e-10
4.61437e-10
5.15961e-10
6.28969e-10
8.13383e-10
1.12357e-09
1.77967e-09
3.59785e-09
1.87332e-08
2.64506e-08
3.33816e-10
3.61436e-10
4.10211e-10
5.17321e-10
6.9996e-10
1.02663e-09
1.74371e-09
3.78663e-09
1.95625e-08
3.51311e-08
2.6449e-10
2.88228e-10
3.33092e-10
4.36283e-10
6.2127e-10
9.78522e-10
1.78171e-09
4.15956e-09
2.15521e-08
4.64274e-08
2.13261e-10
2.32881e-10
2.74896e-10
3.75662e-10
5.72909e-10
9.63758e-10
1.89512e-09
4.74291e-09
2.46876e-08
6.04132e-08
1.74077e-10
1.8999e-10
2.29756e-10
3.29202e-10
5.389e-10
9.80596e-10
2.09487e-09
5.58176e-09
2.89514e-08
7.66688e-08
1.41701e-10
1.56122e-10
1.93995e-10
2.93007e-10
5.20974e-10
1.03095e-09
2.4016e-09
6.77048e-09
3.4279e-08
9.41191e-08
1.15213e-10
1.29023e-10
1.65221e-10
2.64577e-10
5.15971e-10
1.12041e-09
2.84673e-09
8.31847e-09
4.05284e-08
1.11087e-07
9.40383e-11
1.07148e-10
1.4181e-10
2.42275e-10
5.24144e-10
1.25873e-09
3.47496e-09
1.04466e-08
4.74804e-08
1.25625e-07
7.70377e-11
8.93848e-11
1.22617e-10
2.27031e-10
5.46978e-10
1.46033e-09
4.39922e-09
1.30892e-08
5.48547e-08
1.3601e-07
6.33423e-11
7.49037e-11
1.06775e-10
2.16224e-10
5.87214e-10
1.75045e-09
5.73016e-09
1.64267e-08
6.23589e-08
1.41229e-07
5.22735e-11
6.30642e-11
9.50656e-11
2.09681e-10
6.49064e-10
2.15251e-09
7.51073e-09
2.05286e-08
6.97296e-08
1.4127e-07
)
;

boundaryField
{
    fuel
    {
        type            fixedValue;
        value           uniform 0;
    }
    wall
    {
        type            zeroGradient;
    }
    outlet
    {
        type            zeroGradient;
    }
    frontAndBack
    {
        type            empty;
    }
    procBoundary3to0
    {
        type            processor;
        value           nonuniform List<scalar> 10(4.3287e-11 5.33423e-11 8.51738e-11 2.07439e-10 7.38315e-10 2.70421e-09 9.85024e-09 2.56938e-08 7.67359e-08 1.37147e-07);
    }
    procBoundary3to2
    {
        type            processor;
        value           nonuniform List<scalar> 
25
(
8.73711e-08
7.30762e-08
4.96366e-08
3.09396e-08
1.85706e-08
1.10792e-08
6.7411e-09
4.07037e-09
2.48966e-09
1.67984e-09
1.14219e-09
1.14219e-09
7.98443e-10
5.79987e-10
4.34925e-10
3.33935e-10
2.64817e-10
2.13245e-10
1.74093e-10
1.41736e-10
1.15259e-10
9.40878e-11
7.70876e-11
6.33907e-11
5.23192e-11
)
;
    }
}


// ************************************************************************* //
