/*--------------------------------*- C++ -*----------------------------------*\
| =========                 |                                                 |
| \\      /  F ield         | OpenFOAM: The Open Source CFD Toolbox           |
|  \\    /   O peration     | Version:  dev                                   |
|   \\  /    A nd           | Web:      www.OpenFOAM.org                      |
|    \\/     M anipulation  |                                                 |
\*---------------------------------------------------------------------------*/
FoamFile
{
    version     2.0;
    format      ascii;
    class       volScalarField;
    location    "0.015";
    object      P2-H;
}
// * * * * * * * * * * * * * * * * * * * * * * * * * * * * * * * * * * * * * //

dimensions      [0 0 0 0 0 0 0];

internalField   nonuniform List<scalar> 
1989
(
5.87886e-17
5.55477e-17
5.30246e-17
5.09895e-17
4.93737e-17
4.80842e-17
4.70179e-17
4.6238e-17
4.55727e-17
4.51137e-17
4.47642e-17
4.45171e-17
4.43535e-17
4.42651e-17
4.42618e-17
4.43442e-17
4.45045e-17
4.47481e-17
4.51003e-17
4.55729e-17
4.62178e-17
4.70029e-17
4.81001e-17
4.94041e-17
5.10267e-17
5.30785e-17
5.56144e-17
5.88782e-17
6.29189e-17
6.76872e-17
7.42808e-17
8.54351e-17
9.75096e-17
1.11768e-16
1.26304e-16
1.40869e-16
1.54712e-16
1.64613e-16
1.6796e-16
1.57623e-16
1.54634e-16
1.45531e-16
1.32646e-16
1.19078e-16
1.05551e-16
9.1958e-17
8.04622e-17
7.03866e-17
6.40125e-17
5.96538e-17
5.59408e-17
5.29143e-17
5.05442e-17
4.86316e-17
4.70707e-17
4.58574e-17
4.4866e-17
4.41336e-17
4.35104e-17
4.30794e-17
4.2751e-17
4.25251e-17
4.23715e-17
4.22885e-17
4.22854e-17
4.23629e-17
4.25133e-17
4.27363e-17
4.30667e-17
4.351e-17
4.41153e-17
4.48519e-17
4.58723e-17
4.71008e-17
4.86671e-17
5.05954e-17
5.29784e-17
5.60288e-17
5.97838e-17
6.41841e-17
7.0435e-17
8.08054e-17
9.22144e-17
1.0562e-16
1.19278e-16
1.32831e-16
1.45682e-16
1.54732e-16
1.57637e-16
1.47753e-16
1.45236e-16
1.36921e-16
1.24965e-16
1.12355e-16
9.96156e-17
8.68957e-17
7.60073e-17
6.66555e-17
6.06795e-17
5.6643e-17
5.31753e-17
5.03586e-17
4.81524e-17
4.63841e-17
4.49371e-17
4.37952e-17
4.28225e-17
4.21357e-17
4.15518e-17
4.11472e-17
4.08375e-17
4.06325e-17
4.04884e-17
4.04104e-17
4.04075e-17
4.04804e-17
4.06214e-17
4.08238e-17
4.11352e-17
4.15512e-17
4.21185e-17
4.28116e-17
4.3807e-17
4.49663e-17
4.64195e-17
4.82021e-17
5.04209e-17
5.32584e-17
5.67609e-17
6.08408e-17
6.67178e-17
7.63034e-17
8.7139e-17
9.96853e-17
1.12553e-16
1.25139e-16
1.37056e-16
1.45315e-16
1.47799e-16
1.38469e-16
1.36307e-16
1.28722e-16
1.17639e-16
1.05889e-16
9.39318e-17
8.20399e-17
7.18656e-17
6.30913e-17
5.75226e-17
5.37799e-17
5.05473e-17
4.79271e-17
4.58648e-17
4.42155e-17
4.28787e-17
4.18197e-17
4.09354e-17
4.02911e-17
3.97441e-17
3.93636e-17
3.90704e-17
3.88405e-17
3.87054e-17
3.86321e-17
3.86295e-17
3.86979e-17
3.88302e-17
3.90573e-17
3.93524e-17
3.97431e-17
4.02752e-17
4.09264e-17
4.18276e-17
4.29078e-17
4.42497e-17
4.59116e-17
4.79862e-17
5.06255e-17
5.38869e-17
5.76752e-17
6.31644e-17
7.21131e-17
8.22609e-17
9.39947e-17
1.06095e-16
1.17802e-16
1.28845e-16
1.36371e-16
1.38493e-16
1.29473e-16
1.27644e-16
1.20755e-16
1.10638e-16
9.97856e-17
8.8463e-17
7.75516e-17
6.79814e-17
5.9779e-17
5.46173e-17
5.10647e-17
4.80568e-17
4.56253e-17
4.36995e-17
4.2165e-17
4.09236e-17
3.99331e-17
3.91113e-17
3.85157e-17
3.80142e-17
3.7666e-17
3.73985e-17
3.71902e-17
3.70634e-17
3.69946e-17
3.69921e-17
3.70565e-17
3.71805e-17
3.73868e-17
3.7656e-17
3.80122e-17
3.85021e-17
3.91047e-17
3.99396e-17
4.09507e-17
4.21972e-17
4.37431e-17
4.56811e-17
4.81302e-17
5.1162e-17
5.4763e-17
5.98595e-17
6.81665e-17
7.77494e-17
8.85199e-17
9.9996e-17
1.10792e-16
1.20866e-16
1.27702e-16
1.29485e-16
1.20952e-16
1.19396e-16
1.13125e-16
1.03813e-16
9.3828e-17
8.31424e-17
7.31878e-17
6.41805e-17
5.66022e-17
5.18673e-17
4.85589e-17
4.57592e-17
4.34516e-17
4.1655e-17
4.02305e-17
3.90799e-17
3.81547e-17
3.73909e-17
3.68352e-17
3.63689e-17
3.60428e-17
3.57909e-17
3.55992e-17
3.54822e-17
3.54185e-17
3.54163e-17
3.54758e-17
3.55903e-17
3.57799e-17
3.60335e-17
3.63665e-17
3.6823e-17
3.73849e-17
3.81606e-17
3.91049e-17
4.02601e-17
4.1695e-17
4.35039e-17
4.58279e-17
4.86475e-17
5.20051e-17
5.6694e-17
6.43212e-17
7.33666e-17
8.31807e-17
9.40514e-17
1.03958e-16
1.13227e-16
1.19446e-16
1.20954e-16
1.13122e-16
1.11623e-16
1.05903e-16
9.7344e-17
8.81601e-17
7.81304e-17
6.90338e-17
6.05213e-17
5.36997e-17
4.93047e-17
4.61952e-17
4.35944e-17
4.14514e-17
3.97744e-17
3.84503e-17
3.73869e-17
3.65228e-17
3.58124e-17
3.52931e-17
3.48601e-17
3.45543e-17
3.43169e-17
3.41394e-17
3.40297e-17
3.39702e-17
3.39681e-17
3.40239e-17
3.41311e-17
3.43067e-17
3.45459e-17
3.48571e-17
3.52822e-17
3.58065e-17
3.65285e-17
3.741e-17
3.84775e-17
3.98111e-17
4.15003e-17
4.36586e-17
4.6276e-17
4.94223e-17
5.38009e-17
6.06389e-17
6.91982e-17
7.81713e-17
8.83697e-17
9.74799e-17
1.05996e-16
1.11666e-16
1.13118e-16
1.05768e-16
1.04319e-16
9.90839e-17
9.12288e-17
8.28031e-17
7.34157e-17
6.52176e-17
5.71231e-17
5.09877e-17
4.68467e-17
4.39321e-17
4.15145e-17
3.95303e-17
3.80066e-17
3.67365e-17
3.57627e-17
3.49609e-17
3.43011e-17
3.38175e-17
3.34174e-17
3.31325e-17
3.29105e-17
3.27452e-17
3.26421e-17
3.25866e-17
3.25847e-17
3.26367e-17
3.27376e-17
3.29011e-17
3.31251e-17
3.34135e-17
3.38084e-17
3.4296e-17
3.49655e-17
3.57852e-17
3.6762e-17
3.80405e-17
3.95764e-17
4.15749e-17
4.40067e-17
4.69444e-17
5.10946e-17
5.72299e-17
6.53726e-17
7.34436e-17
8.30089e-17
9.13558e-17
9.91688e-17
1.04355e-16
1.05759e-16
9.88202e-17
9.76422e-17
9.28612e-17
8.56389e-17
7.79083e-17
6.9085e-17
6.15673e-17
5.39373e-17
4.83775e-17
4.44936e-17
4.17932e-17
3.95496e-17
3.77196e-17
3.63075e-17
3.5154e-17
3.42373e-17
3.34935e-17
3.28807e-17
3.24313e-17
3.20597e-17
3.17961e-17
3.15902e-17
3.14367e-17
3.13365e-17
3.12849e-17
3.12831e-17
3.13316e-17
3.14297e-17
3.15816e-17
3.17891e-17
3.20555e-17
3.24239e-17
3.28763e-17
3.34977e-17
3.42573e-17
3.51779e-17
3.63392e-17
3.77625e-17
3.96057e-17
4.18614e-17
4.45674e-17
4.84891e-17
5.40402e-17
6.16926e-17
6.91062e-17
7.81262e-17
8.57574e-17
9.29387e-17
9.76729e-17
9.8806e-17
9.21939e-17
9.12532e-17
8.70041e-17
8.03858e-17
7.33002e-17
6.50373e-17
5.8157e-17
5.09877e-17
4.59863e-17
4.23329e-17
3.98343e-17
3.77508e-17
3.60634e-17
3.47529e-17
3.36806e-17
3.28137e-17
3.21235e-17
3.15551e-17
3.11389e-17
3.07933e-17
3.05503e-17
3.03624e-17
3.02317e-17
3.01502e-17
3.0102e-17
3.01004e-17
3.01456e-17
3.02253e-17
3.03545e-17
3.05437e-17
3.07894e-17
3.11326e-17
3.15513e-17
3.2128e-17
3.28297e-17
3.37033e-17
3.47829e-17
3.61034e-17
3.7803e-17
3.98969e-17
4.24048e-17
4.60797e-17
5.10882e-17
5.82555e-17
6.50814e-17
7.34947e-17
8.04954e-17
8.70733e-17
9.12784e-17
9.21773e-17
8.59883e-17
8.51798e-17
8.13636e-17
7.53496e-17
6.88419e-17
6.12544e-17
5.49195e-17
4.81686e-17
4.37039e-17
4.03223e-17
3.8006e-17
3.60734e-17
3.45204e-17
3.33054e-17
3.23144e-17
3.1521e-17
3.08816e-17
3.03544e-17
2.9969e-17
2.96477e-17
2.94235e-17
2.92523e-17
2.9132e-17
2.90528e-17
2.9008e-17
2.90065e-17
2.90486e-17
2.91261e-17
2.92452e-17
2.94174e-17
2.96442e-17
2.99639e-17
3.03511e-17
3.08864e-17
3.15339e-17
3.23359e-17
3.33338e-17
3.45577e-17
3.61218e-17
3.80633e-17
4.03903e-17
4.37812e-17
4.82747e-17
5.49903e-17
6.13271e-17
6.9005e-17
7.545e-17
8.14257e-17
8.52009e-17
8.597e-17
8.03307e-17
7.9645e-17
7.60594e-17
7.05753e-17
6.45978e-17
5.77686e-17
5.19033e-17
4.56164e-17
4.15899e-17
3.84638e-17
3.63057e-17
3.45164e-17
3.3085e-17
3.1965e-17
3.1053e-17
3.0321e-17
2.97228e-17
2.9233e-17
2.88791e-17
2.8581e-17
2.83748e-17
2.82191e-17
2.81067e-17
2.80326e-17
2.79912e-17
2.79899e-17
2.80289e-17
2.81014e-17
2.82126e-17
2.83693e-17
2.85783e-17
2.88745e-17
2.92312e-17
2.97276e-17
3.03327e-17
3.10734e-17
3.19919e-17
3.31208e-17
3.45611e-17
3.63583e-17
3.85269e-17
4.16529e-17
4.57342e-17
5.19446e-17
5.78546e-17
6.47378e-17
7.06666e-17
7.61152e-17
7.96623e-17
8.03109e-17
7.49643e-17
7.44595e-17
7.12478e-17
6.62367e-17
6.07486e-17
5.45022e-17
4.90129e-17
4.32833e-17
3.9614e-17
3.67199e-17
3.46964e-17
3.30825e-17
3.17705e-17
3.07353e-17
2.98727e-17
2.91996e-17
2.86511e-17
2.81962e-17
2.78762e-17
2.76227e-17
2.74332e-17
2.72902e-17
2.71852e-17
2.71164e-17
2.70781e-17
2.70769e-17
2.7113e-17
2.71803e-17
2.72845e-17
2.74282e-17
2.76209e-17
2.78718e-17
2.81958e-17
2.86554e-17
2.92102e-17
2.98919e-17
3.07606e-17
3.18038e-17
3.31236e-17
3.47444e-17
3.67781e-17
3.96693e-17
4.3421e-17
4.90194e-17
5.45981e-17
6.08715e-17
6.63196e-17
7.12977e-17
7.44712e-17
7.49421e-17
6.99479e-17
6.95144e-17
6.66457e-17
6.20915e-17
5.70688e-17
5.14774e-17
4.63559e-17
4.11108e-17
3.7751e-17
3.51521e-17
3.32606e-17
3.17792e-17
3.05801e-17
2.96249e-17
2.88318e-17
2.82144e-17
2.77114e-17
2.72919e-17
2.70017e-17
2.67678e-17
2.65938e-17
2.64622e-17
2.63645e-17
2.63009e-17
2.62655e-17
2.62644e-17
2.62979e-17
2.63601e-17
2.6457e-17
2.65893e-17
2.67668e-17
2.69975e-17
2.72907e-17
2.77168e-17
2.82242e-17
2.88496e-17
2.96486e-17
3.06106e-17
3.18168e-17
3.33042e-17
3.52049e-17
3.77971e-17
4.12233e-17
4.63758e-17
5.15688e-17
5.71777e-17
6.21666e-17
6.66898e-17
6.95232e-17
6.9925e-17
6.54284e-17
6.50639e-17
6.24924e-17
5.83478e-17
5.3761e-17
4.86341e-17
4.38656e-17
3.91608e-17
3.61033e-17
3.37438e-17
3.19699e-17
3.06292e-17
2.95287e-17
2.8649e-17
2.79222e-17
2.73561e-17
2.68951e-17
2.65102e-17
2.62466e-17
2.60294e-17
2.58695e-17
2.57483e-17
2.56578e-17
2.5599e-17
2.55663e-17
2.55653e-17
2.55962e-17
2.56538e-17
2.57435e-17
2.58654e-17
2.6029e-17
2.62425e-17
2.65089e-17
2.69007e-17
2.73649e-17
2.79385e-17
2.86709e-17
2.95564e-17
3.06632e-17
3.20087e-17
3.37911e-17
3.61432e-17
3.92555e-17
4.38965e-17
4.87177e-17
5.38578e-17
5.84154e-17
6.25314e-17
6.50701e-17
6.54051e-17
6.13094e-17
6.09932e-17
5.86862e-17
5.49217e-17
5.07447e-17
4.61016e-17
4.1659e-17
3.74347e-17
3.46634e-17
3.25057e-17
3.08705e-17
2.96507e-17
2.86425e-17
2.78337e-17
2.71687e-17
2.66493e-17
2.62265e-17
2.58736e-17
2.56331e-17
2.54303e-17
2.52831e-17
2.51711e-17
2.50873e-17
2.50328e-17
2.50025e-17
2.50016e-17
2.50303e-17
2.50836e-17
2.51667e-17
2.52794e-17
2.54303e-17
2.56289e-17
2.58724e-17
2.62313e-17
2.66567e-17
2.71832e-17
2.78533e-17
2.86671e-17
2.96807e-17
3.09046e-17
3.25473e-17
3.46975e-17
3.75166e-17
4.16974e-17
4.6174e-17
5.08304e-17
5.49823e-17
5.87205e-17
6.09971e-17
6.12861e-17
5.76272e-17
5.73312e-17
5.52531e-17
5.18404e-17
4.80468e-17
4.38332e-17
3.97762e-17
3.59465e-17
3.34605e-17
3.14909e-17
2.99945e-17
2.8887e-17
2.7965e-17
2.72217e-17
2.66129e-17
2.61348e-17
2.57463e-17
2.54203e-17
2.51995e-17
2.50086e-17
2.48724e-17
2.4768e-17
2.46901e-17
2.46392e-17
2.46109e-17
2.46101e-17
2.46369e-17
2.46867e-17
2.47639e-17
2.48688e-17
2.50088e-17
2.51949e-17
2.54189e-17
2.57496e-17
2.61402e-17
2.66251e-17
2.72383e-17
2.7986e-17
2.89123e-17
3.00233e-17
3.15269e-17
3.34899e-17
3.60163e-17
3.98316e-17
4.3882e-17
4.81218e-17
5.18943e-17
5.52831e-17
5.73334e-17
5.76046e-17
5.44572e-17
5.41402e-17
5.22489e-17
4.91592e-17
4.57228e-17
4.19185e-17
3.82092e-17
3.4801e-17
3.25632e-17
3.07735e-17
2.94077e-17
2.8408e-17
2.75666e-17
2.68821e-17
2.63225e-17
2.5879e-17
2.55192e-17
2.52139e-17
2.50083e-17
2.48261e-17
2.46983e-17
2.45996e-17
2.45261e-17
2.44777e-17
2.4451e-17
2.44502e-17
2.44755e-17
2.45229e-17
2.45956e-17
2.46947e-17
2.48261e-17
2.50028e-17
2.52116e-17
2.55203e-17
2.58814e-17
2.63317e-17
2.68948e-17
2.75833e-17
2.84279e-17
2.94305e-17
3.08032e-17
3.25878e-17
3.48593e-17
3.82794e-17
4.19432e-17
4.5788e-17
4.9207e-17
5.22749e-17
5.41414e-17
5.44364e-17
5.19323e-17
5.15325e-17
4.97747e-17
4.69776e-17
4.3871e-17
4.0443e-17
3.70939e-17
3.40921e-17
3.20832e-17
3.04555e-17
2.92286e-17
2.8326e-17
2.75573e-17
2.69249e-17
2.64055e-17
2.59875e-17
2.56486e-17
2.53559e-17
2.5159e-17
2.49815e-17
2.48584e-17
2.47622e-17
2.46912e-17
2.46437e-17
2.46179e-17
2.46171e-17
2.46415e-17
2.46878e-17
2.47579e-17
2.48542e-17
2.49805e-17
2.5152e-17
2.53517e-17
2.56465e-17
2.59857e-17
2.64105e-17
2.69323e-17
2.7567e-17
2.83395e-17
2.92452e-17
3.0477e-17
3.21019e-17
3.41385e-17
3.71556e-17
4.04643e-17
4.39271e-17
4.70194e-17
4.97974e-17
5.15337e-17
5.19148e-17
5.02721e-17
4.96976e-17
4.80023e-17
4.54627e-17
4.26557e-17
3.95803e-17
3.6613e-17
3.3978e-17
3.21846e-17
3.07422e-17
2.96373e-17
2.88229e-17
2.81176e-17
2.75236e-17
2.70323e-17
2.66271e-17
2.62985e-17
2.60068e-17
2.58098e-17
2.56298e-17
2.55065e-17
2.54082e-17
2.53368e-17
2.52878e-17
2.52619e-17
2.5261e-17
2.52854e-17
2.53329e-17
2.54031e-17
2.55011e-17
2.56272e-17
2.58003e-17
2.59993e-17
2.62918e-17
2.66193e-17
2.70314e-17
2.75236e-17
2.81192e-17
2.88283e-17
2.96448e-17
3.07535e-17
3.21952e-17
3.40117e-17
3.66601e-17
3.9601e-17
4.27031e-17
4.5499e-17
4.80224e-17
4.97001e-17
5.02604e-17
4.98294e-17
4.89442e-17
4.72129e-17
4.48882e-17
4.23413e-17
3.96226e-17
3.70192e-17
3.47393e-17
3.31544e-17
3.19127e-17
3.09138e-17
3.018e-17
2.95234e-17
2.89514e-17
2.84713e-17
2.80608e-17
2.77271e-17
2.74197e-17
2.72155e-17
2.70216e-17
2.68903e-17
2.67829e-17
2.67066e-17
2.66527e-17
2.6625e-17
2.6624e-17
2.66498e-17
2.67017e-17
2.67762e-17
2.68826e-17
2.70159e-17
2.72021e-17
2.74066e-17
2.77135e-17
2.80446e-17
2.84611e-17
2.89408e-17
2.95139e-17
3.01732e-17
3.09092e-17
3.19106e-17
3.31537e-17
3.47585e-17
3.70495e-17
3.96412e-17
4.23799e-17
4.49192e-17
4.72314e-17
4.89503e-17
4.98269e-17
5.1163e-17
4.97669e-17
4.78592e-17
4.56951e-17
4.33681e-17
4.1006e-17
3.87479e-17
3.68195e-17
3.54424e-17
3.44043e-17
3.35048e-17
3.28382e-17
3.22098e-17
3.16355e-17
3.11425e-17
3.07001e-17
3.03393e-17
2.99915e-17
2.97602e-17
2.95357e-17
2.9386e-17
2.92597e-17
2.91722e-17
2.91084e-17
2.90769e-17
2.90755e-17
2.91045e-17
2.91657e-17
2.92504e-17
2.93746e-17
2.95255e-17
2.974e-17
2.99696e-17
3.03156e-17
3.0672e-17
3.11185e-17
3.16099e-17
3.21841e-17
3.28139e-17
3.34824e-17
3.43851e-17
3.54259e-17
3.68212e-17
3.87599e-17
4.10187e-17
4.33958e-17
4.57209e-17
4.78774e-17
4.97797e-17
5.11747e-17
5.51517e-17
5.29493e-17
5.06617e-17
4.85854e-17
4.6418e-17
4.44232e-17
4.24894e-17
4.09158e-17
3.97426e-17
3.89133e-17
3.81053e-17
3.74836e-17
3.68537e-17
3.62411e-17
3.56999e-17
3.51869e-17
3.4767e-17
3.43423e-17
3.40608e-17
3.37822e-17
3.35979e-17
3.34378e-17
3.33297e-17
3.32483e-17
3.32097e-17
3.32078e-17
3.3243e-17
3.33204e-17
3.34242e-17
3.35807e-17
3.37644e-17
3.40305e-17
3.43069e-17
3.47284e-17
3.5141e-17
3.56562e-17
3.61938e-17
3.6805e-17
3.74349e-17
3.80579e-17
3.88701e-17
3.97037e-17
4.08952e-17
4.24801e-17
4.44254e-17
4.64316e-17
4.86062e-17
5.06814e-17
5.29731e-17
5.51846e-17
6.31705e-17
5.98041e-17
5.68307e-17
5.47357e-17
5.26206e-17
5.09687e-17
4.93288e-17
4.81161e-17
4.7133e-17
4.65284e-17
4.57816e-17
4.51768e-17
4.45005e-17
4.37956e-17
4.31542e-17
4.25137e-17
4.19882e-17
4.14326e-17
4.10678e-17
4.06988e-17
4.04568e-17
4.02412e-17
4.00984e-17
3.99884e-17
3.99378e-17
3.9935e-17
3.99806e-17
4.00847e-17
4.02206e-17
4.04307e-17
4.06701e-17
4.10217e-17
4.13793e-17
4.19258e-17
4.24417e-17
4.3082e-17
4.37172e-17
4.44188e-17
4.50935e-17
4.56993e-17
4.64516e-17
4.70625e-17
4.80659e-17
4.9293e-17
5.09549e-17
5.26164e-17
5.47519e-17
5.68542e-17
5.98453e-17
6.32345e-17
7.73521e-17
7.21686e-17
6.80721e-17
6.58142e-17
6.35988e-17
6.23577e-17
6.10122e-17
6.02229e-17
5.94267e-17
5.89172e-17
5.81798e-17
5.75441e-17
5.67526e-17
5.58741e-17
5.50558e-17
5.42044e-17
5.35048e-17
5.2742e-17
5.22442e-17
5.17325e-17
5.13992e-17
5.10952e-17
5.08972e-17
5.07427e-17
5.06732e-17
5.06691e-17
5.07312e-17
5.08769e-17
5.10635e-17
5.136e-17
5.16877e-17
5.2175e-17
5.26617e-17
5.34087e-17
5.40949e-17
5.49429e-17
5.57517e-17
5.66241e-17
5.74122e-17
5.80485e-17
5.87931e-17
5.93094e-17
6.01301e-17
6.09387e-17
6.23211e-17
6.35807e-17
6.58264e-17
6.81024e-17
7.2238e-17
7.74606e-17
1.00992e-16
9.31446e-17
8.75724e-17
8.49307e-17
8.23631e-17
8.12593e-17
8.00809e-17
7.96629e-17
7.89547e-17
7.86344e-17
7.78193e-17
7.70721e-17
7.60596e-17
7.48859e-17
7.37772e-17
7.25934e-17
7.16202e-17
7.05389e-17
6.98367e-17
6.91074e-17
6.86341e-17
6.81887e-17
6.79081e-17
6.76875e-17
6.75892e-17
6.75833e-17
6.76706e-17
6.78783e-17
6.8141e-17
6.85757e-17
6.9039e-17
6.97344e-17
7.04177e-17
7.14786e-17
7.24307e-17
7.3607e-17
7.47016e-17
7.58657e-17
7.68724e-17
7.76202e-17
7.84449e-17
7.87747e-17
7.95153e-17
7.99605e-17
8.11909e-17
8.23564e-17
8.49386e-17
8.76128e-17
9.32635e-17
1.01163e-16
1.39187e-16
1.27423e-16
1.19293e-16
1.15954e-16
1.12657e-16
1.11835e-16
1.10666e-16
1.10586e-16
1.09856e-16
1.09669e-16
1.08632e-16
1.07641e-16
1.06245e-16
1.04594e-16
1.03027e-16
1.01332e-16
9.99406e-17
9.83757e-17
9.73663e-17
9.63098e-17
9.56262e-17
9.50091e-17
9.46167e-17
9.42918e-17
9.41464e-17
9.41374e-17
9.4266e-17
9.45716e-17
9.49509e-17
9.55401e-17
9.62074e-17
9.7217e-17
9.81941e-17
9.97373e-17
1.01095e-16
1.02776e-16
1.04324e-16
1.0596e-16
1.07347e-16
1.08339e-16
1.09389e-16
1.09589e-16
1.10365e-16
1.10482e-16
1.11722e-16
1.12638e-16
1.15958e-16
1.19346e-16
1.27654e-16
1.39445e-16
2.00066e-16
1.8284e-16
1.70747e-16
1.66142e-16
1.61486e-16
1.60753e-16
1.59314e-16
1.59484e-16
1.5852e-16
1.58387e-16
1.5689e-16
1.55446e-16
1.53422e-16
1.51019e-16
1.48741e-16
1.46267e-16
1.44245e-16
1.41943e-16
1.40477e-16
1.3893e-16
1.37932e-16
1.37009e-16
1.36432e-16
1.35957e-16
1.35745e-16
1.35732e-16
1.3592e-16
1.36367e-16
1.36919e-16
1.37806e-16
1.38778e-16
1.40261e-16
1.41686e-16
1.43944e-16
1.45924e-16
1.48376e-16
1.50626e-16
1.53008e-16
1.55017e-16
1.56468e-16
1.57982e-16
1.58136e-16
1.59159e-16
1.59043e-16
1.60582e-16
1.6143e-16
1.66143e-16
1.70825e-16
1.82984e-16
2.0044e-16
2.97106e-16
2.71484e-16
2.53402e-16
2.46925e-16
2.40022e-16
2.39105e-16
2.36959e-16
2.37271e-16
2.35739e-16
2.35555e-16
2.33241e-16
2.31024e-16
2.27995e-16
2.24418e-16
2.21041e-16
2.17369e-16
2.14386e-16
2.10953e-16
2.08796e-16
2.06504e-16
2.05028e-16
2.03654e-16
2.02793e-16
2.02085e-16
2.01771e-16
2.01752e-16
2.02031e-16
2.02698e-16
2.03518e-16
2.04843e-16
2.06278e-16
2.08484e-16
2.10586e-16
2.13942e-16
2.16873e-16
2.20508e-16
2.23847e-16
2.27395e-16
2.30397e-16
2.32636e-16
2.34971e-16
2.35188e-16
2.36802e-16
2.36568e-16
2.38854e-16
2.3991e-16
2.46919e-16
2.53505e-16
2.71787e-16
2.97648e-16
4.54554e-16
4.16038e-16
3.88285e-16
3.78963e-16
3.68299e-16
3.66863e-16
3.63366e-16
3.63753e-16
3.61211e-16
3.60876e-16
3.57201e-16
3.53734e-16
3.49101e-16
3.43666e-16
3.38559e-16
3.32996e-16
3.285e-16
3.23289e-16
3.20049e-16
3.16581e-16
3.14358e-16
3.12275e-16
3.10972e-16
3.09895e-16
3.0942e-16
3.09392e-16
3.09815e-16
3.10831e-16
3.12072e-16
3.14084e-16
3.16239e-16
3.19592e-16
3.22749e-16
3.27845e-16
3.32267e-16
3.37766e-16
3.42823e-16
3.48215e-16
3.528e-16
3.5632e-16
3.6002e-16
3.60415e-16
3.63066e-16
3.62796e-16
3.66496e-16
3.68107e-16
3.78946e-16
3.88438e-16
4.16503e-16
4.55349e-16
7.2014e-16
6.60435e-16
6.18394e-16
6.02646e-16
5.8562e-16
5.83406e-16
5.77612e-16
5.78258e-16
5.74124e-16
5.73667e-16
5.67763e-16
5.62328e-16
5.55067e-16
5.4659e-16
5.3865e-16
5.29952e-16
5.22938e-16
5.14823e-16
5.09771e-16
5.04345e-16
5.0089e-16
4.97627e-16
4.95594e-16
4.93901e-16
4.93159e-16
4.93117e-16
4.9378e-16
4.95378e-16
4.97315e-16
5.00471e-16
5.03808e-16
5.09078e-16
5.13982e-16
5.21951e-16
5.28844e-16
5.37422e-16
5.45294e-16
5.53706e-16
5.60919e-16
5.66391e-16
5.72363e-16
5.72929e-16
5.77219e-16
5.76754e-16
5.82854e-16
5.85303e-16
6.02609e-16
6.18679e-16
6.61143e-16
7.21348e-16
1.19749e-15
1.09988e-15
1.02975e-15
1.00553e-15
9.77126e-16
9.7467e-16
9.64945e-16
9.66871e-16
9.60313e-16
9.60264e-16
9.50549e-16
9.42173e-16
9.30292e-16
9.16532e-16
9.03648e-16
8.8938e-16
8.77943e-16
8.64567e-16
8.56335e-16
8.47384e-16
8.41743e-16
8.36356e-16
8.33027e-16
8.30223e-16
8.29005e-16
8.28939e-16
8.30031e-16
8.32682e-16
8.35856e-16
8.41067e-16
8.46495e-16
8.55228e-16
8.63216e-16
8.76332e-16
8.87596e-16
9.01627e-16
9.14417e-16
9.28071e-16
9.39895e-16
9.48293e-16
9.58145e-16
9.58402e-16
9.65206e-16
9.6358e-16
9.73779e-16
9.7659e-16
1.00545e-15
1.03021e-15
1.10101e-15
1.19945e-15
2.13889e-15
1.96623e-15
1.84084e-15
1.80105e-15
1.75103e-15
1.7503e-15
1.73425e-15
1.74099e-15
1.73095e-15
1.73343e-15
1.717e-15
1.70387e-15
1.68338e-15
1.65961e-15
1.63728e-15
1.61212e-15
1.59212e-15
1.56824e-15
1.55385e-15
1.53787e-15
1.52796e-15
1.51834e-15
1.51246e-15
1.50744e-15
1.50529e-15
1.50518e-15
1.50712e-15
1.51187e-15
1.51747e-15
1.52678e-15
1.53629e-15
1.55192e-15
1.56587e-15
1.58927e-15
1.609e-15
1.63365e-15
1.65584e-15
1.67942e-15
1.69982e-15
1.71298e-15
1.72966e-15
1.72763e-15
1.73805e-15
1.73188e-15
1.74872e-15
1.75005e-15
1.80088e-15
1.84159e-15
1.96822e-15
2.14236e-15
4.25285e-15
3.91105e-15
3.66104e-15
3.59019e-15
3.49417e-15
3.50327e-15
3.47709e-15
3.50074e-15
3.48657e-15
3.49931e-15
3.47011e-15
3.449e-15
3.41058e-15
3.36542e-15
3.32247e-15
3.27337e-15
3.23437e-15
3.18654e-15
3.15858e-15
3.12658e-15
3.10713e-15
3.08789e-15
3.0763e-15
3.06623e-15
3.06198e-15
3.06177e-15
3.06562e-15
3.07516e-15
3.08623e-15
3.10484e-15
3.12346e-15
3.15478e-15
3.18184e-15
3.22868e-15
3.26709e-15
3.31527e-15
3.35786e-15
3.40261e-15
3.44086e-15
3.46197e-15
3.4917e-15
3.48e-15
3.49489e-15
3.47245e-15
3.5001e-15
3.49217e-15
3.58981e-15
3.6624e-15
3.91505e-15
4.25984e-15
9.90949e-15
9.11493e-15
8.53033e-15
8.38895e-15
8.17813e-15
8.23182e-15
8.19126e-15
8.27848e-15
8.26516e-15
8.31947e-15
8.26375e-15
8.23006e-15
8.1483e-15
8.04936e-15
7.95334e-15
7.84121e-15
7.7511e-15
7.6404e-15
7.5757e-15
7.49988e-15
7.4551e-15
7.4097e-15
7.3828e-15
7.35898e-15
7.34909e-15
7.34866e-15
7.35765e-15
7.38026e-15
7.40596e-15
7.44989e-15
7.49286e-15
7.56669e-15
7.6292e-15
7.73769e-15
7.82633e-15
7.93638e-15
8.03132e-15
8.12925e-15
8.2108e-15
8.24398e-15
8.30113e-15
8.24967e-15
8.26461e-15
8.18048e-15
8.22422e-15
8.17332e-15
8.38796e-15
8.53337e-15
9.12446e-15
9.92624e-15
2.87737e-14
2.64616e-14
2.47559e-14
2.44255e-14
2.38662e-14
2.41416e-14
2.41055e-14
2.44786e-14
2.45213e-14
2.47718e-14
2.46616e-14
2.46327e-14
2.44183e-14
2.41539e-14
2.38889e-14
2.35693e-14
2.33066e-14
2.29901e-14
2.28003e-14
2.2573e-14
2.2444e-14
2.2309e-14
2.22304e-14
2.21594e-14
2.21306e-14
2.21295e-14
2.21559e-14
2.22234e-14
2.22984e-14
2.2429e-14
2.25537e-14
2.27726e-14
2.29556e-14
2.32666e-14
2.35249e-14
2.38378e-14
2.4099e-14
2.43601e-14
2.45722e-14
2.45991e-14
2.47156e-14
2.44749e-14
2.44368e-14
2.40735e-14
2.41182e-14
2.38517e-14
2.44224e-14
2.47647e-14
2.64904e-14
2.88244e-14
1.0816e-13
9.95419e-14
9.31378e-14
9.21755e-14
9.02774e-14
9.17218e-14
9.18455e-14
9.35845e-14
9.39841e-14
9.51351e-14
9.48364e-14
9.49066e-14
9.41816e-14
9.32601e-14
9.23123e-14
9.11502e-14
9.0168e-14
8.90317e-14
8.83223e-14
8.74602e-14
8.69912e-14
8.64857e-14
8.61951e-14
8.5929e-14
8.5822e-14
8.58187e-14
8.59178e-14
8.61718e-14
8.64501e-14
8.69399e-14
8.73982e-14
8.82193e-14
8.88968e-14
9.0029e-14
9.09935e-14
9.21268e-14
9.3059e-14
9.39677e-14
9.46848e-14
9.45934e-14
9.4928e-14
9.38144e-14
9.34283e-14
9.17254e-14
9.16282e-14
9.02236e-14
9.2163e-14
9.31712e-14
9.96528e-14
1.08354e-13
4.38828e-13
4.13327e-13
3.9174e-13
3.86637e-13
3.77532e-13
3.78473e-13
3.74585e-13
3.7528e-13
3.73043e-13
3.72891e-13
3.68738e-13
3.66182e-13
3.62192e-13
3.58168e-13
3.54393e-13
3.50398e-13
3.46956e-13
3.43433e-13
3.41128e-13
3.38436e-13
3.37e-13
3.35485e-13
3.34573e-13
3.33785e-13
3.33439e-13
3.33443e-13
3.33785e-13
3.34558e-13
3.35455e-13
3.36949e-13
3.38396e-13
3.40969e-13
3.43207e-13
3.46747e-13
3.50206e-13
3.5412e-13
3.57865e-13
3.61861e-13
3.6583e-13
3.68468e-13
3.7257e-13
3.72792e-13
3.75023e-13
3.74434e-13
3.78295e-13
3.77447e-13
3.86625e-13
3.91828e-13
4.13603e-13
4.3926e-13
1.02712e-12
1.00396e-12
9.74244e-13
9.53734e-13
9.24599e-13
9.02879e-13
8.76017e-13
8.54345e-13
8.35135e-13
8.19633e-13
8.03079e-13
7.90797e-13
7.78866e-13
7.68661e-13
7.59986e-13
7.52276e-13
7.457e-13
7.39889e-13
7.35953e-13
7.31633e-13
7.29409e-13
7.27202e-13
7.25724e-13
7.24615e-13
7.24027e-13
7.24076e-13
7.2472e-13
7.25873e-13
7.27399e-13
7.29658e-13
7.32041e-13
7.36175e-13
7.40143e-13
7.46028e-13
7.52828e-13
7.60449e-13
7.69142e-13
7.79356e-13
7.91298e-13
8.03673e-13
8.20225e-13
8.35927e-13
8.54811e-13
8.76937e-13
9.03262e-13
9.25022e-13
9.53886e-13
9.74218e-13
1.00382e-12
1.02682e-12
1.33218e-12
1.31517e-12
1.28542e-12
1.2553e-12
1.21499e-12
1.17874e-12
1.13815e-12
1.10184e-12
1.07333e-12
1.04858e-12
1.0252e-12
1.0074e-12
9.91289e-13
9.77931e-13
9.6682e-13
9.57369e-13
9.49448e-13
9.42699e-13
9.38072e-13
9.33107e-13
9.30606e-13
9.2818e-13
9.2648e-13
9.25282e-13
9.24591e-13
9.2467e-13
9.25456e-13
9.26737e-13
9.28528e-13
9.31053e-13
9.33793e-13
9.38571e-13
9.43288e-13
9.50193e-13
9.58351e-13
9.67773e-13
9.78935e-13
9.92328e-13
1.00847e-12
1.0264e-12
1.04977e-12
1.07481e-12
1.10322e-12
1.13937e-12
1.17971e-12
1.21562e-12
1.25555e-12
1.2853e-12
1.31471e-12
1.33134e-12
)
;

boundaryField
{
    fuel
    {
        type            fixedValue;
        value           nonuniform 0();
    }
    wall
    {
        type            zeroGradient;
    }
    outlet
    {
        type            zeroGradient;
    }
    frontAndBack
    {
        type            empty;
    }
    procBoundary3to2
    {
        type            processor;
        value           nonuniform List<scalar> 
51
(
6.17674e-17
5.83845e-17
5.56989e-17
5.35288e-17
5.18029e-17
5.04293e-17
4.92838e-17
4.84555e-17
4.77431e-17
4.72556e-17
4.68826e-17
4.66153e-17
4.64409e-17
4.63471e-17
4.63435e-17
4.6431e-17
4.66019e-17
4.68652e-17
4.72411e-17
4.77457e-17
4.84313e-17
4.92698e-17
5.04439e-17
5.18354e-17
5.3566e-17
5.57555e-17
5.84538e-17
6.18615e-17
6.61655e-17
7.12912e-17
7.83077e-17
9.01609e-17
1.03096e-16
1.18119e-16
1.33602e-16
1.49224e-16
1.64119e-16
1.7495e-16
1.78798e-16
1.67928e-16
1.64499e-16
1.54538e-16
1.40662e-16
1.26088e-16
1.11702e-16
9.72071e-17
8.50269e-17
7.42517e-17
6.75065e-17
6.27782e-17
6.27782e-17
)
;
    }
}


// ************************************************************************* //
