/*--------------------------------*- C++ -*----------------------------------*\
| =========                 |                                                 |
| \\      /  F ield         | OpenFOAM: The Open Source CFD Toolbox           |
|  \\    /   O peration     | Version:  dev                                   |
|   \\  /    A nd           | Web:      www.OpenFOAM.org                      |
|    \\/     M anipulation  |                                                 |
\*---------------------------------------------------------------------------*/
FoamFile
{
    version     2.0;
    format      ascii;
    class       volScalarField;
    location    "0.015";
    object      PC3H4;
}
// * * * * * * * * * * * * * * * * * * * * * * * * * * * * * * * * * * * * * //

dimensions      [0 0 0 0 0 0 0];

internalField   nonuniform List<scalar> 
25
(
1.28426e-07
1.1555e-07
1.02244e-07
9.0875e-08
8.02554e-08
7.04248e-08
6.09226e-08
5.19275e-08
4.40843e-08
3.59722e-08
2.86849e-08
2.36499e-08
1.92372e-08
1.51986e-08
1.1741e-08
8.85857e-09
6.51259e-09
4.63605e-09
3.26197e-09
2.26799e-09
1.54379e-09
1.0495e-09
7.25455e-10
5.02095e-10
2.55505e-10
)
;

boundaryField
{
    wall
    {
        type            zeroGradient;
    }
    fuel
    {
        type            fixedValue;
        value           nonuniform 0();
    }
    outlet
    {
        type            inletOutlet;
        inletValue      uniform 0;
        value           uniform 2.55505e-10;
    }
    procBoundary3to2
    {
        type            processor;
        value           uniform 1.41145e-07;
    }
}


// ************************************************************************* //
