/*--------------------------------*- C++ -*----------------------------------*\
| =========                 |                                                 |
| \\      /  F ield         | OpenFOAM: The Open Source CFD Toolbox           |
|  \\    /   O peration     | Version:  dev                                   |
|   \\  /    A nd           | Web:      www.OpenFOAM.org                      |
|    \\/     M anipulation  |                                                 |
\*---------------------------------------------------------------------------*/
FoamFile
{
    version     2.0;
    format      ascii;
    class       volScalarField;
    location    "0.065";
    object      A2C2HA;
}
// * * * * * * * * * * * * * * * * * * * * * * * * * * * * * * * * * * * * * //

dimensions      [0 0 0 0 0 0 0];

internalField   nonuniform List<scalar> 
25
(
2.58002e-11
6.59512e-12
1.72254e-12
4.72613e-13
1.40546e-13
4.75059e-14
1.95985e-14
1.037e-14
6.79224e-15
5.0614e-15
4.03242e-15
3.30048e-15
2.72388e-15
2.24389e-15
1.83699e-15
1.49311e-15
1.20666e-15
9.72805e-16
7.86495e-16
6.42611e-16
5.36327e-16
4.63597e-16
4.21278e-16
4.06676e-16
4.18463e-16
)
;

boundaryField
{
    wall
    {
        type            zeroGradient;
    }
    fuel
    {
        type            fixedValue;
        value           uniform 0;
    }
    outlet
    {
        type            inletOutlet;
        inletValue      nonuniform 0();
        value           nonuniform 0();
    }
    procBoundary0to1
    {
        type            processor;
        value           uniform 4.56699e-16;
    }
}


// ************************************************************************* //
