/*--------------------------------*- C++ -*----------------------------------*\
| =========                 |                                                 |
| \\      /  F ield         | OpenFOAM: The Open Source CFD Toolbox           |
|  \\    /   O peration     | Version:  dev                                   |
|   \\  /    A nd           | Web:      www.OpenFOAM.org                      |
|    \\/     M anipulation  |                                                 |
\*---------------------------------------------------------------------------*/
FoamFile
{
    version     2.0;
    format      ascii;
    class       volScalarField;
    location    "0.065";
    object      A2C2HB*;
}
// * * * * * * * * * * * * * * * * * * * * * * * * * * * * * * * * * * * * * //

dimensions      [0 0 0 0 0 0 0];

internalField   nonuniform List<scalar> 
250
(
2.04786e-12
2.05895e-12
2.04153e-12
2.07437e-12
2.06486e-12
2.14729e-12
2.37438e-12
3.12184e-12
6.61693e-12
1.23224e-11
1.85571e-12
1.866e-12
1.85034e-12
1.87969e-12
1.87124e-12
1.94535e-12
2.14533e-12
2.82698e-12
6.00257e-12
1.26671e-11
5.53785e-11
8.54092e-12
2.99166e-12
1.88575e-12
1.82042e-12
1.68062e-12
1.72529e-12
1.67899e-12
1.70319e-12
1.68845e-12
1.69065e-12
1.70002e-12
1.68613e-12
1.71203e-12
1.70474e-12
1.7707e-12
1.94638e-12
2.56267e-12
5.49438e-12
1.27398e-11
4.9047e-11
7.57581e-12
2.68007e-12
1.72069e-12
1.66086e-12
1.54099e-12
1.57862e-12
1.53898e-12
1.55979e-12
1.54719e-12
1.549e-12
1.55734e-12
1.54522e-12
1.56773e-12
1.56166e-12
1.61971e-12
1.7735e-12
2.3252e-12
5.02318e-12
1.25371e-11
4.23846e-11
6.6201e-12
2.40145e-12
1.57761e-12
1.52347e-12
1.42134e-12
1.45278e-12
1.41908e-12
1.43687e-12
1.42617e-12
1.42768e-12
1.43495e-12
1.42455e-12
1.44382e-12
1.43896e-12
1.48943e-12
1.62347e-12
2.1117e-12
4.57349e-12
1.20696e-11
3.56775e-11
5.67833e-12
2.15297e-12
1.4532e-12
1.40523e-12
1.31844e-12
1.34472e-12
1.31607e-12
1.33131e-12
1.3222e-12
1.3235e-12
1.32977e-12
1.3209e-12
1.33726e-12
1.33347e-12
1.37694e-12
1.49327e-12
1.91962e-12
4.13781e-12
1.13612e-11
2.90011e-11
4.81346e-12
1.93145e-12
1.34331e-12
1.30256e-12
1.22807e-12
1.25057e-12
1.22575e-12
1.23911e-12
1.23116e-12
1.23231e-12
1.23779e-12
1.23011e-12
1.24416e-12
1.24114e-12
1.27844e-12
1.3794e-12
1.74609e-12
3.71323e-12
1.0447e-11
2.293e-11
4.02346e-12
1.73257e-12
1.24236e-12
1.21058e-12
1.14449e-12
1.16503e-12
1.14244e-12
1.15481e-12
1.14742e-12
1.14849e-12
1.15358e-12
1.14654e-12
1.15916e-12
1.15643e-12
1.18867e-12
1.27067e-12
1.57934e-12
3.2986e-12
9.37038e-12
1.76676e-11
3.31755e-12
1.55082e-12
1.14061e-12
1.12008e-12
1.06075e-12
1.08138e-12
1.05918e-12
1.07162e-12
1.06407e-12
1.06511e-12
1.07033e-12
1.06324e-12
1.0755e-12
1.07245e-12
1.10091e-12
1.17064e-12
1.42565e-12
2.89369e-12
8.18151e-12
1.33599e-11
2.66321e-12
1.36936e-12
1.03583e-12
1.02824e-12
9.69971e-13
9.92521e-13
9.69088e-13
9.82528e-13
9.74186e-13
9.7522e-13
9.81057e-13
9.73297e-13
9.86158e-13
9.82198e-13
1.00805e-12
1.06708e-12
1.27221e-12
2.49811e-12
6.93632e-12
9.88734e-12
2.12085e-12
1.19893e-12
9.21044e-13
9.26817e-13
8.67496e-13
8.92975e-13
8.67401e-13
8.82345e-13
8.72865e-13
8.73891e-13
8.80643e-13
8.71843e-13
8.85876e-13
8.80633e-13
9.047e-13
9.54439e-13
1.1145e-12
2.11286e-12
5.61957e-12
7.00287e-12
1.65535e-12
1.02726e-12
7.95595e-13
8.13237e-13
7.52786e-13
7.80969e-13
7.53451e-13
7.6975e-13
7.59233e-13
7.60223e-13
7.67845e-13
7.58064e-13
7.73201e-13
7.66683e-13
7.89235e-13
8.30733e-13
9.5147e-13
1.74215e-12
4.44818e-12
4.90103e-12
1.26221e-12
8.55579e-13
6.63449e-13
6.89635e-13
6.2997e-13
6.59454e-13
6.31231e-13
6.48114e-13
6.37089e-13
6.38001e-13
6.4611e-13
6.35822e-13
6.5139e-13
6.43998e-13
6.64786e-13
6.98748e-13
7.86529e-13
1.39326e-12
3.39213e-12
5.14489e-13
5.22508e-13
5.12421e-13
5.2742e-13
5.19797e-13
5.38274e-13
5.65256e-13
6.26631e-13
1.07587e-12
2.48372e-12
)
;

boundaryField
{
    fuel
    {
        type            fixedValue;
        value           nonuniform 0();
    }
    wall
    {
        type            zeroGradient;
    }
    outlet
    {
        type            zeroGradient;
    }
    frontAndBack
    {
        type            empty;
    }
    procBoundary0to1
    {
        type            processor;
        value           nonuniform List<scalar> 
21
(
3.32647e-12
9.37259e-13
6.8875e-13
5.3198e-13
5.62341e-13
5.06504e-13
5.35235e-13
5.08109e-13
5.24465e-13
5.13698e-13
5.13698e-13
3.97911e-13
4.05266e-13
3.96075e-13
4.09547e-13
4.02358e-13
4.17993e-13
4.3863e-13
4.79822e-13
7.99417e-13
1.74169e-12
)
;
    }
    procBoundary0to2
    {
        type            processor;
        value           nonuniform List<scalar> 
12
(
2.04439e-12
6.10204e-11
9.62659e-12
3.33936e-12
2.07587e-12
2.0053e-12
1.8432e-12
1.89582e-12
1.84212e-12
1.87008e-12
1.85295e-12
1.85295e-12
)
;
    }
    procBoundary0to3
    {
        type            processor;
        value           nonuniform List<scalar> 10(2.27191e-12 2.28366e-12 2.26451e-12 2.30085e-12 2.29041e-12 2.38132e-12 2.63852e-12 3.48065e-12 7.25261e-12 1.17221e-11);
    }
}


// ************************************************************************* //
