/*--------------------------------*- C++ -*----------------------------------*\
| =========                 |                                                 |
| \\      /  F ield         | OpenFOAM: The Open Source CFD Toolbox           |
|  \\    /   O peration     | Version:  dev                                   |
|   \\  /    A nd           | Web:      www.OpenFOAM.org                      |
|    \\/     M anipulation  |                                                 |
\*---------------------------------------------------------------------------*/
FoamFile
{
    version     2.0;
    format      ascii;
    class       volScalarField;
    location    "0.065";
    object      A2R5-;
}
// * * * * * * * * * * * * * * * * * * * * * * * * * * * * * * * * * * * * * //

dimensions      [0 0 0 0 0 0 0];

internalField   nonuniform List<scalar> 
250
(
3.46315e-09
3.48308e-09
3.45328e-09
3.50849e-09
3.48826e-09
3.60744e-09
3.87716e-09
4.57166e-09
6.74188e-09
7.57213e-09
3.14266e-09
3.16214e-09
3.1339e-09
3.18565e-09
3.16653e-09
3.27685e-09
3.52046e-09
4.16711e-09
6.20648e-09
7.57336e-09
9.90172e-09
5.56546e-09
4.14892e-09
3.07061e-09
3.05708e-09
2.82789e-09
2.91241e-09
2.82853e-09
2.8728e-09
2.84479e-09
2.84815e-09
2.86713e-09
2.84041e-09
2.8888e-09
2.87075e-09
2.97225e-09
3.19122e-09
3.78334e-09
5.70787e-09
7.38447e-09
8.833e-09
4.99552e-09
3.74109e-09
2.77368e-09
2.76518e-09
2.55672e-09
2.63447e-09
2.55693e-09
2.59821e-09
2.57194e-09
2.57484e-09
2.59333e-09
2.56799e-09
2.61325e-09
2.59615e-09
2.68899e-09
2.8849e-09
3.41791e-09
5.20583e-09
7.03279e-09
7.81067e-09
4.43964e-09
3.35479e-09
2.49401e-09
2.49216e-09
2.30205e-09
2.37412e-09
2.30204e-09
2.3408e-09
2.31595e-09
2.31848e-09
2.33648e-09
2.31238e-09
2.35476e-09
2.33846e-09
2.4229e-09
2.5973e-09
3.06858e-09
4.70022e-09
6.54979e-09
6.8281e-09
3.8914e-09
2.98769e-09
2.22827e-09
2.23424e-09
2.06028e-09
2.12763e-09
2.06026e-09
2.09689e-09
2.07322e-09
2.07544e-09
2.09297e-09
2.06996e-09
2.10972e-09
2.09405e-09
2.17037e-09
2.32488e-09
2.73389e-09
4.19412e-09
5.96847e-09
5.85935e-09
3.37875e-09
2.63803e-09
1.97395e-09
1.98838e-09
1.82867e-09
1.89204e-09
1.82881e-09
1.86361e-09
1.84093e-09
1.84288e-09
1.85995e-09
1.83792e-09
1.87527e-09
1.86009e-09
1.92853e-09
2.06523e-09
2.41353e-09
3.6927e-09
5.32142e-09
4.95519e-09
2.89499e-09
2.30483e-09
1.72962e-09
1.75263e-09
1.60548e-09
1.66536e-09
1.60591e-09
1.63904e-09
1.61727e-09
1.61899e-09
1.63556e-09
1.61447e-09
1.64953e-09
1.63474e-09
1.69554e-09
1.80216e-09
2.09376e-09
3.20216e-09
4.63947e-09
4.12541e-09
2.44348e-09
1.98854e-09
1.48859e-09
1.51913e-09
1.3902e-09
1.44674e-09
1.39099e-09
1.42245e-09
1.40163e-09
1.40315e-09
1.41911e-09
1.399e-09
1.43177e-09
1.41739e-09
1.47084e-09
1.56137e-09
1.79926e-09
2.72991e-09
3.95094e-09
3.39063e-09
2.00553e-09
1.67335e-09
1.26388e-09
1.30058e-09
1.18367e-09
1.23665e-09
1.18482e-09
1.21444e-09
1.19471e-09
1.19604e-09
1.21123e-09
1.19224e-09
1.22259e-09
1.20872e-09
1.25516e-09
1.33072e-09
1.51938e-09
2.28303e-09
3.28195e-09
2.73968e-09
1.62653e-09
1.39166e-09
1.052e-09
1.09247e-09
9.87975e-10
1.0369e-09
9.89427e-10
1.01687e-09
9.98496e-10
9.99649e-10
1.01384e-09
9.96213e-10
1.02387e-09
1.01072e-09
1.05051e-09
1.11234e-09
1.2575e-09
1.86861e-09
2.61962e-09
2.13852e-09
1.29016e-09
1.13193e-09
8.56065e-10
8.97698e-10
8.06163e-10
8.50345e-10
8.07821e-10
8.3268e-10
8.15966e-10
8.16946e-10
8.29872e-10
8.13891e-10
8.38547e-10
8.26381e-10
8.59879e-10
9.09293e-10
1.01746e-09
1.49354e-09
2.05877e-09
1.64676e-09
9.9892e-10
8.98746e-10
6.79507e-10
7.19773e-10
6.41642e-10
6.80411e-10
6.43383e-10
6.6525e-10
6.50504e-10
6.51312e-10
6.62736e-10
6.48666e-10
6.70036e-10
6.59126e-10
6.86717e-10
7.2515e-10
8.03084e-10
1.16335e-09
1.57267e-09
5.05751e-10
5.15507e-10
5.0353e-10
5.2146e-10
5.1202e-10
5.34151e-10
5.6315e-10
6.17383e-10
8.81657e-10
1.16562e-09
)
;

boundaryField
{
    fuel
    {
        type            fixedValue;
        value           nonuniform 0();
    }
    wall
    {
        type            zeroGradient;
    }
    outlet
    {
        type            zeroGradient;
    }
    frontAndBack
    {
        type            empty;
    }
    procBoundary0to1
    {
        type            processor;
        value           nonuniform List<scalar> 
21
(
1.23289e-09
7.53944e-10
6.9536e-10
5.25302e-10
5.62032e-10
4.97379e-10
5.30266e-10
4.99071e-10
5.17671e-10
5.05103e-10
5.05103e-10
3.82107e-10
3.90142e-10
3.80307e-10
3.94833e-10
3.86974e-10
4.04197e-10
4.25387e-10
4.61807e-10
6.49479e-10
8.37747e-10
)
;
    }
    procBoundary0to2
    {
        type            processor;
        value           nonuniform List<scalar> 
12
(
3.45836e-09
1.10158e-08
6.22392e-09
4.5809e-09
3.38848e-09
3.37206e-09
3.11958e-09
3.21208e-09
3.12092e-09
3.16869e-09
3.1386e-09
3.1386e-09
)
;
    }
    procBoundary0to3
    {
        type            processor;
        value           nonuniform List<scalar> 10(3.81448e-09 3.83478e-09 3.80339e-09 3.86211e-09 3.84078e-09 3.96867e-09 4.2654e-09 5.03574e-09 7.21147e-09 7.36388e-09);
    }
}


// ************************************************************************* //
