/*--------------------------------*- C++ -*----------------------------------*\
| =========                 |                                                 |
| \\      /  F ield         | OpenFOAM: The Open Source CFD Toolbox           |
|  \\    /   O peration     | Version:  dev                                   |
|   \\  /    A nd           | Web:      www.OpenFOAM.org                      |
|    \\/     M anipulation  |                                                 |
\*---------------------------------------------------------------------------*/
FoamFile
{
    version     2.0;
    format      ascii;
    class       volScalarField;
    location    "0.065";
    object      A2R5;
}
// * * * * * * * * * * * * * * * * * * * * * * * * * * * * * * * * * * * * * //

dimensions      [0 0 0 0 0 0 0];

internalField   nonuniform List<scalar> 
250
(
7.02676e-08
7.03275e-08
7.01965e-08
7.03134e-08
7.04724e-08
7.14143e-08
7.70574e-08
1.01451e-07
1.92851e-07
2.59228e-07
6.72194e-08
6.727e-08
6.71485e-08
6.7258e-08
6.74131e-08
6.83065e-08
7.35186e-08
9.56627e-08
1.77902e-07
2.41539e-07
1.75458e-07
1.50644e-07
8.61196e-08
7.07845e-08
6.58621e-08
6.49331e-08
6.47216e-08
6.45107e-08
6.46602e-08
6.45552e-08
6.45466e-08
6.45874e-08
6.44765e-08
6.45775e-08
6.47283e-08
6.55725e-08
7.03592e-08
9.03444e-08
1.62862e-07
2.23817e-07
1.64724e-07
1.36947e-07
8.18281e-08
6.80667e-08
6.34923e-08
6.26103e-08
6.241e-08
6.22153e-08
6.23511e-08
6.22563e-08
6.22518e-08
6.22823e-08
6.21829e-08
6.22744e-08
6.24207e-08
6.32162e-08
6.75912e-08
8.55278e-08
1.48604e-07
2.06492e-07
1.54724e-07
1.2447e-07
7.81003e-08
6.57321e-08
6.14981e-08
6.06628e-08
6.04737e-08
6.02973e-08
6.04176e-08
6.03354e-08
6.03342e-08
6.03541e-08
6.0267e-08
6.03482e-08
6.04898e-08
6.12378e-08
6.52208e-08
8.12381e-08
1.35525e-07
1.8994e-07
1.45631e-07
1.15159e-07
7.49298e-08
6.37755e-08
5.98768e-08
5.9087e-08
5.89078e-08
5.87513e-08
5.88547e-08
5.87871e-08
5.87883e-08
5.87978e-08
5.87233e-08
5.87936e-08
5.89305e-08
5.96327e-08
6.32463e-08
7.74896e-08
1.24978e-07
1.74471e-07
1.37474e-07
1.07175e-07
7.22866e-08
6.21858e-08
5.86197e-08
5.78711e-08
5.7701e-08
5.75653e-08
5.7651e-08
5.75994e-08
5.76022e-08
5.76015e-08
5.75399e-08
5.75991e-08
5.77312e-08
5.83893e-08
6.16571e-08
7.42763e-08
1.15227e-07
1.60246e-07
1.30237e-07
1.00706e-07
7.01286e-08
6.09449e-08
5.7708e-08
5.69952e-08
5.6834e-08
5.67194e-08
5.67872e-08
5.67521e-08
5.67558e-08
5.67457e-08
5.66966e-08
5.6745e-08
5.68722e-08
5.74881e-08
6.04181e-08
7.15824e-08
1.07046e-07
1.47377e-07
1.23852e-07
9.53308e-08
6.83825e-08
6.00299e-08
5.70784e-08
5.63955e-08
5.62421e-08
5.61462e-08
5.61979e-08
5.61776e-08
5.61818e-08
5.61637e-08
5.61261e-08
5.61645e-08
5.62878e-08
5.68666e-08
5.95257e-08
6.93786e-08
9.9975e-08
1.3589e-07
1.18219e-07
9.08859e-08
6.7008e-08
5.94047e-08
5.67409e-08
5.60932e-08
5.59481e-08
5.58707e-08
5.59068e-08
5.59011e-08
5.59053e-08
5.58802e-08
5.58533e-08
5.58827e-08
5.60013e-08
5.65422e-08
5.89283e-08
6.7505e-08
9.392e-08
1.25751e-07
1.13214e-07
8.7204e-08
6.59514e-08
5.90232e-08
5.66236e-08
5.60124e-08
5.58753e-08
5.58141e-08
5.58369e-08
5.58434e-08
5.58474e-08
5.58171e-08
5.57992e-08
5.58211e-08
5.59351e-08
5.64398e-08
5.85776e-08
6.61004e-08
8.87787e-08
1.16883e-07
1.08704e-07
8.41227e-08
6.51433e-08
5.88323e-08
5.66732e-08
5.61002e-08
5.59711e-08
5.59232e-08
5.59354e-08
5.59515e-08
5.5955e-08
5.59214e-08
5.59107e-08
5.5927e-08
5.60362e-08
5.65058e-08
5.8419e-08
6.50027e-08
8.44336e-08
1.09177e-07
1.04555e-07
8.14927e-08
6.45093e-08
5.8776e-08
5.68356e-08
5.63026e-08
5.61814e-08
5.61441e-08
5.61484e-08
5.6171e-08
5.61741e-08
5.61391e-08
5.61337e-08
5.6146e-08
5.62501e-08
5.66858e-08
5.83958e-08
6.4145e-08
8.07655e-08
1.02504e-07
5.64546e-08
5.64199e-08
5.64179e-08
5.64278e-08
5.65264e-08
5.69288e-08
5.84549e-08
6.34635e-08
7.76593e-08
9.67249e-08
)
;

boundaryField
{
    fuel
    {
        type            fixedValue;
        value           nonuniform 0();
    }
    wall
    {
        type            zeroGradient;
    }
    outlet
    {
        type            zeroGradient;
    }
    frontAndBack
    {
        type            empty;
    }
    procBoundary0to1
    {
        type            processor;
        value           nonuniform List<scalar> 
21
(
1.0065e-07
7.91845e-08
6.39844e-08
5.88014e-08
5.70606e-08
5.6569e-08
5.6456e-08
5.64265e-08
5.64257e-08
5.64519e-08
5.64519e-08
5.67544e-08
5.67213e-08
5.67213e-08
5.67301e-08
5.68227e-08
5.71921e-08
5.85509e-08
6.29027e-08
7.50108e-08
9.17069e-08
)
;
    }
    procBoundary0to2
    {
        type            processor;
        value           nonuniform List<scalar> 
12
(
7.02868e-08
1.86731e-07
1.65682e-07
9.09704e-08
7.38834e-08
6.86069e-08
6.76307e-08
6.74089e-08
6.71842e-08
6.73453e-08
6.72329e-08
6.72329e-08
)
;
    }
    procBoundary0to3
    {
        type            processor;
        value           nonuniform List<scalar> 10(7.36866e-08 7.37552e-08 7.36159e-08 7.37389e-08 7.39013e-08 7.48902e-08 8.09593e-08 1.08388e-07 2.1026e-07 2.76426e-07);
    }
}


// ************************************************************************* //
