/*--------------------------------*- C++ -*----------------------------------*\
| =========                 |                                                 |
| \\      /  F ield         | OpenFOAM: The Open Source CFD Toolbox           |
|  \\    /   O peration     | Version:  dev                                   |
|   \\  /    A nd           | Web:      www.OpenFOAM.org                      |
|    \\/     M anipulation  |                                                 |
\*---------------------------------------------------------------------------*/
FoamFile
{
    version     2.0;
    format      ascii;
    class       volScalarField;
    location    "0.065";
    object      A2R5;
}
// * * * * * * * * * * * * * * * * * * * * * * * * * * * * * * * * * * * * * //

dimensions      [0 0 0 0 0 0 0];

internalField   nonuniform List<scalar> 
250
(
6.1572e-08
6.17051e-08
6.14545e-08
6.19401e-08
6.18509e-08
6.34591e-08
6.83994e-08
8.45134e-08
1.39336e-07
2.06911e-07
5.895e-08
5.9067e-08
5.88483e-08
5.92739e-08
5.92092e-08
6.07014e-08
6.52989e-08
8.07714e-08
1.32644e-07
2.05944e-07
3.4081e-07
1.43042e-07
8.44989e-08
6.21393e-08
5.92096e-08
5.67145e-08
5.72917e-08
5.66371e-08
5.69743e-08
5.68043e-08
5.6834e-08
5.69328e-08
5.67474e-08
5.7111e-08
5.70729e-08
5.84463e-08
6.27179e-08
7.74963e-08
1.26999e-07
2.03982e-07
3.2674e-07
1.35166e-07
8.0811e-08
6.01933e-08
5.72535e-08
5.51096e-08
5.55441e-08
5.5018e-08
5.52874e-08
5.5161e-08
5.51834e-08
5.52622e-08
5.5111e-08
5.54121e-08
5.54018e-08
5.6656e-08
6.06195e-08
7.46598e-08
1.21772e-07
2.00942e-07
3.09308e-07
1.27571e-07
7.75932e-08
5.86763e-08
5.57435e-08
5.39272e-08
5.42289e-08
5.38231e-08
5.40286e-08
5.3943e-08
5.3959e-08
5.40171e-08
5.38996e-08
5.41394e-08
5.41569e-08
5.52939e-08
5.89665e-08
7.22332e-08
1.16849e-07
1.96772e-07
2.89275e-07
1.20191e-07
7.48201e-08
5.75504e-08
5.46428e-08
5.31279e-08
5.33078e-08
5.3013e-08
5.31592e-08
5.31113e-08
5.31218e-08
5.3159e-08
5.30739e-08
5.32552e-08
5.32996e-08
5.43235e-08
5.77218e-08
7.01892e-08
1.12166e-07
1.91475e-07
2.66793e-07
1.1344e-07
7.24637e-08
5.67757e-08
5.3913e-08
5.26707e-08
5.27415e-08
5.25467e-08
5.2639e-08
5.26251e-08
5.26309e-08
5.26481e-08
5.2593e-08
5.27203e-08
5.27895e-08
5.37063e-08
5.6847e-08
6.85007e-08
1.07698e-07
1.85113e-07
2.43909e-07
1.07219e-07
7.04909e-08
5.63083e-08
5.35128e-08
5.25109e-08
5.24873e-08
5.23795e-08
5.24247e-08
5.24403e-08
5.24423e-08
5.24409e-08
5.24126e-08
5.24919e-08
5.25829e-08
5.33999e-08
5.62622e-08
6.70652e-08
1.03433e-07
1.77796e-07
2.21756e-07
1.01545e-07
6.88635e-08
5.60921e-08
5.33908e-08
5.25987e-08
5.24974e-08
5.2462e-08
5.24679e-08
5.25077e-08
5.25066e-08
5.24893e-08
5.24836e-08
5.25222e-08
5.2631e-08
5.33572e-08
5.59833e-08
6.59562e-08
9.93677e-08
1.69668e-07
2.01386e-07
9.6101e-08
6.74459e-08
5.60836e-08
5.35011e-08
5.28795e-08
5.27188e-08
5.27396e-08
5.27149e-08
5.27729e-08
5.27697e-08
5.27397e-08
5.27516e-08
5.2758e-08
5.288e-08
5.35249e-08
5.59266e-08
6.50674e-08
9.54961e-08
1.609e-07
1.82797e-07
9.14095e-08
6.63312e-08
5.62191e-08
5.37821e-08
5.3294e-08
5.30937e-08
5.31534e-08
5.31076e-08
5.31774e-08
5.31727e-08
5.31341e-08
5.3158e-08
5.31415e-08
5.32713e-08
5.38449e-08
5.60338e-08
6.43486e-08
9.18074e-08
1.51097e-07
1.6497e-07
8.71794e-08
6.53935e-08
5.64389e-08
5.41729e-08
5.37824e-08
5.35616e-08
5.36435e-08
5.35861e-08
5.3661e-08
5.36557e-08
5.36125e-08
5.36429e-08
5.36128e-08
5.37448e-08
5.4257e-08
5.62442e-08
6.37475e-08
8.82919e-08
1.41742e-07
1.49713e-07
8.33598e-08
6.45823e-08
5.66868e-08
5.46131e-08
5.42877e-08
5.40641e-08
5.41527e-08
5.40925e-08
5.41666e-08
5.41611e-08
5.41175e-08
5.41491e-08
5.41138e-08
5.4243e-08
5.47028e-08
5.64988e-08
6.32132e-08
8.49339e-08
1.32439e-07
5.46393e-08
5.45987e-08
5.46274e-08
5.45938e-08
5.47157e-08
5.51308e-08
5.67453e-08
6.27006e-08
8.17198e-08
1.23321e-07
)
;

boundaryField
{
    fuel
    {
        type            fixedValue;
        value           nonuniform 0();
    }
    wall
    {
        type            zeroGradient;
    }
    outlet
    {
        type            zeroGradient;
    }
    frontAndBack
    {
        type            empty;
    }
    procBoundary0to1
    {
        type            processor;
        value           nonuniform List<scalar> 
21
(
1.35985e-07
7.98977e-08
6.38461e-08
5.69139e-08
5.50477e-08
5.47607e-08
5.45488e-08
5.46316e-08
5.45757e-08
5.4644e-08
5.4644e-08
5.50518e-08
5.50167e-08
5.50394e-08
5.50125e-08
5.51237e-08
5.55002e-08
5.69421e-08
6.21749e-08
7.86397e-08
1.14526e-07
)
;
    }
    procBoundary0to2
    {
        type            processor;
        value           nonuniform List<scalar> 
12
(
6.15204e-08
3.50769e-07
1.52212e-07
8.86803e-08
6.45474e-08
6.16459e-08
5.8778e-08
5.95068e-08
5.87168e-08
5.91249e-08
5.89092e-08
5.89092e-08
)
;
    }
    procBoundary0to3
    {
        type            processor;
        value           nonuniform List<scalar> 10(6.47387e-08 6.48851e-08 6.46051e-08 6.51473e-08 6.50366e-08 6.67555e-08 7.20483e-08 8.91118e-08 1.45864e-07 2.06952e-07);
    }
}


// ************************************************************************* //
