/*--------------------------------*- C++ -*----------------------------------*\
| =========                 |                                                 |
| \\      /  F ield         | OpenFOAM: The Open Source CFD Toolbox           |
|  \\    /   O peration     | Version:  dev                                   |
|   \\  /    A nd           | Web:      www.OpenFOAM.org                      |
|    \\/     M anipulation  |                                                 |
\*---------------------------------------------------------------------------*/
FoamFile
{
    version     2.0;
    format      ascii;
    class       volScalarField;
    location    "0.065";
    object      A2R5;
}
// * * * * * * * * * * * * * * * * * * * * * * * * * * * * * * * * * * * * * //

dimensions      [0 0 0 0 0 0 0];

internalField   nonuniform List<scalar> 
25
(
2.63746e-11
1.88223e-11
1.27644e-11
8.42108e-12
5.55555e-12
3.75469e-12
2.6444e-12
1.96189e-12
1.52963e-12
1.2354e-12
1.02074e-12
8.50703e-13
7.09353e-13
5.88409e-13
4.84308e-13
3.95498e-13
3.2104e-13
2.59952e-13
2.1109e-13
1.73232e-13
1.45195e-13
1.25991e-13
1.14863e-13
1.11171e-13
1.14644e-13
)
;

boundaryField
{
    wall
    {
        type            zeroGradient;
    }
    fuel
    {
        type            fixedValue;
        value           uniform 0;
    }
    outlet
    {
        type            inletOutlet;
        inletValue      nonuniform 0();
        value           nonuniform 0();
    }
    procBoundary0to1
    {
        type            processor;
        value           uniform 1.25395e-13;
    }
}


// ************************************************************************* //
