/*--------------------------------*- C++ -*----------------------------------*\
| =========                 |                                                 |
| \\      /  F ield         | OpenFOAM: The Open Source CFD Toolbox           |
|  \\    /   O peration     | Version:  dev                                   |
|   \\  /    A nd           | Web:      www.OpenFOAM.org                      |
|    \\/     M anipulation  |                                                 |
\*---------------------------------------------------------------------------*/
FoamFile
{
    version     2.0;
    format      ascii;
    class       volScalarField;
    location    "0.065";
    object      A3-1;
}
// * * * * * * * * * * * * * * * * * * * * * * * * * * * * * * * * * * * * * //

dimensions      [0 0 0 0 0 0 0];

internalField   nonuniform List<scalar> 
250
(
5.34788e-11
5.36905e-11
5.33493e-11
5.39967e-11
5.3855e-11
5.56804e-11
6.13728e-11
8.10465e-11
1.66535e-10
3.02724e-10
4.95023e-11
4.9713e-11
4.93887e-11
4.99974e-11
4.98596e-11
5.15573e-11
5.67005e-11
7.49668e-11
1.54516e-10
3.10405e-10
8.07386e-10
1.83794e-10
7.88957e-11
5.12971e-11
4.89537e-11
4.56963e-11
4.66758e-11
4.5634e-11
4.61802e-11
4.58458e-11
4.58939e-11
4.61048e-11
4.57938e-11
4.63702e-11
4.62343e-11
4.78097e-11
5.24493e-11
6.9243e-11
1.43946e-10
3.1044e-10
6.93526e-10
1.62004e-10
7.18228e-11
4.73634e-11
4.53323e-11
4.23559e-11
4.32648e-11
4.22921e-11
4.28066e-11
4.24892e-11
4.253e-11
4.27435e-11
4.24407e-11
4.29928e-11
4.28553e-11
4.43156e-11
4.84913e-11
6.37489e-11
1.33417e-10
3.02827e-10
5.82752e-10
1.40769e-10
6.51156e-11
4.35803e-11
4.18957e-11
3.91388e-11
4.00068e-11
3.90781e-11
3.95749e-11
3.92649e-11
3.93005e-11
3.95192e-11
3.92193e-11
3.97557e-11
3.96119e-11
4.09649e-11
4.47112e-11
5.83787e-11
1.2257e-10
2.87978e-10
4.78497e-10
1.2012e-10
5.86886e-11
3.9855e-11
3.8543e-11
3.5952e-11
3.68047e-11
3.58986e-11
3.63897e-11
3.6079e-11
3.6111e-11
3.63377e-11
3.60356e-11
3.65642e-11
3.64094e-11
3.76617e-11
4.10108e-11
5.3055e-11
1.1124e-10
2.66737e-10
3.80618e-10
1.0135e-10
5.24758e-11
3.61179e-11
3.51921e-11
3.27244e-11
3.35805e-11
3.26818e-11
3.31758e-11
3.28587e-11
3.28882e-11
3.31247e-11
3.28166e-11
3.33431e-11
3.31734e-11
3.43292e-11
3.73165e-11
4.77384e-11
9.94235e-11
2.40352e-10
2.95896e-10
8.43031e-11
4.64324e-11
3.23295e-11
3.17884e-11
2.94136e-11
3.02834e-11
2.93844e-11
2.98856e-11
2.95595e-11
2.95871e-11
2.98336e-11
2.9518e-11
3.00447e-11
2.9858e-11
3.09181e-11
3.33469e-11
4.21652e-11
8.72455e-11
2.10381e-10
2.25498e-10
6.91036e-11
4.05515e-11
2.8374e-11
2.81957e-11
2.60134e-11
2.68965e-11
2.5999e-11
2.65062e-11
2.61724e-11
2.61984e-11
2.64526e-11
2.61313e-11
2.66557e-11
2.64527e-11
2.74164e-11
2.95022e-11
3.67921e-11
7.49556e-11
1.78565e-10
1.69876e-10
5.50332e-11
3.45125e-11
2.44963e-11
2.46292e-11
2.25581e-11
2.34426e-11
2.25581e-11
2.30641e-11
2.2728e-11
2.27524e-11
2.30093e-11
2.26875e-11
2.32021e-11
2.29869e-11
2.3852e-11
2.56118e-11
3.14639e-11
6.28676e-11
1.46696e-10
1.26188e-10
4.34376e-11
2.8977e-11
2.06755e-11
2.10483e-11
1.91186e-11
1.9983e-11
1.9131e-11
1.9624e-11
1.92943e-11
1.93166e-11
1.95692e-11
1.9255e-11
1.97483e-11
1.95281e-11
2.02918e-11
2.17451e-11
2.6295e-11
5.13377e-11
1.1465e-10
9.05019e-11
3.35912e-11
2.37503e-11
1.70114e-11
1.75439e-11
1.57921e-11
1.66097e-11
1.58139e-11
1.62791e-11
1.59663e-11
1.59862e-11
1.62262e-11
1.59292e-11
1.63878e-11
1.61715e-11
1.68317e-11
1.80016e-11
2.14197e-11
4.07268e-11
8.76926e-11
6.4618e-11
2.5395e-11
1.89623e-11
1.36126e-11
1.42244e-11
1.26844e-11
1.34286e-11
1.27121e-11
1.31349e-11
1.28496e-11
1.28665e-11
1.30859e-11
1.28156e-11
1.32268e-11
1.30236e-11
1.35797e-11
1.44942e-11
1.69705e-11
3.13264e-11
6.47189e-11
1.0053e-11
1.02455e-11
1.00093e-11
1.03636e-11
1.01815e-11
1.06357e-11
1.13277e-11
1.30549e-11
2.3329e-11
4.59977e-11
)
;

boundaryField
{
    fuel
    {
        type            fixedValue;
        value           nonuniform 0();
    }
    wall
    {
        type            zeroGradient;
    }
    outlet
    {
        type            zeroGradient;
    }
    frontAndBack
    {
        type            empty;
    }
    procBoundary0to1
    {
        type            processor;
        value           nonuniform List<scalar> 
21
(
4.51033e-11
1.87324e-11
1.4715e-11
1.05753e-11
1.11947e-11
9.89004e-12
1.05395e-11
9.91979e-12
1.02888e-11
1.00392e-11
1.00392e-11
7.61378e-12
7.77557e-12
7.57766e-12
7.87071e-12
7.71503e-12
8.07347e-12
8.57904e-12
9.73743e-12
1.68041e-11
3.14589e-11
)
;
    }
    procBoundary0to2
    {
        type            processor;
        value           nonuniform List<scalar> 
12
(
5.34052e-11
9.18848e-10
2.08676e-10
8.64315e-11
5.54894e-11
5.28736e-11
4.9268e-11
5.03504e-11
4.92122e-11
4.98052e-11
4.94431e-11
4.94431e-11
)
;
    }
    procBoundary0to3
    {
        type            processor;
        value           nonuniform List<scalar> 10(5.79593e-11 5.81721e-11 5.78114e-11 5.85022e-11 5.83566e-11 6.03125e-11 6.66005e-11 8.81904e-11 1.78348e-10 2.87789e-10);
    }
}


// ************************************************************************* //
