/*--------------------------------*- C++ -*----------------------------------*\
| =========                 |                                                 |
| \\      /  F ield         | OpenFOAM: The Open Source CFD Toolbox           |
|  \\    /   O peration     | Version:  dev                                   |
|   \\  /    A nd           | Web:      www.OpenFOAM.org                      |
|    \\/     M anipulation  |                                                 |
\*---------------------------------------------------------------------------*/
FoamFile
{
    version     2.0;
    format      ascii;
    class       volScalarField;
    location    "0.065";
    object      H;
}
// * * * * * * * * * * * * * * * * * * * * * * * * * * * * * * * * * * * * * //

dimensions      [0 0 0 0 0 0 0];

internalField   nonuniform List<scalar> 
2014
(
2.27963e-05
2.28243e-05
2.28549e-05
2.28719e-05
2.28801e-05
2.2884e-05
2.28842e-05
2.28841e-05
2.28829e-05
2.28824e-05
2.28815e-05
2.28811e-05
2.28805e-05
2.28803e-05
2.288e-05
2.28799e-05
2.28797e-05
2.28796e-05
2.28795e-05
2.28795e-05
2.28794e-05
2.28794e-05
2.28794e-05
2.28794e-05
2.28794e-05
2.28794e-05
2.28794e-05
2.28794e-05
2.28794e-05
2.28794e-05
2.28795e-05
2.28795e-05
2.28796e-05
2.28797e-05
2.28799e-05
2.288e-05
2.28803e-05
2.28805e-05
2.28811e-05
2.28815e-05
2.28824e-05
2.28829e-05
2.28841e-05
2.28841e-05
2.2884e-05
2.28801e-05
2.28719e-05
2.28549e-05
2.28243e-05
2.27963e-05
2.27275e-05
2.27548e-05
2.27846e-05
2.2801e-05
2.2809e-05
2.28127e-05
2.28127e-05
2.28125e-05
2.28113e-05
2.28107e-05
2.28098e-05
2.28094e-05
2.28088e-05
2.28085e-05
2.28082e-05
2.2808e-05
2.28078e-05
2.28078e-05
2.28077e-05
2.28077e-05
2.28076e-05
2.28076e-05
2.28075e-05
2.28075e-05
2.28075e-05
2.28075e-05
2.28075e-05
2.28075e-05
2.28076e-05
2.28076e-05
2.28077e-05
2.28077e-05
2.28078e-05
2.28078e-05
2.2808e-05
2.28082e-05
2.28085e-05
2.28088e-05
2.28094e-05
2.28098e-05
2.28107e-05
2.28113e-05
2.28125e-05
2.28127e-05
2.28127e-05
2.2809e-05
2.2801e-05
2.27846e-05
2.27548e-05
2.27275e-05
2.26592e-05
2.2686e-05
2.2715e-05
2.27308e-05
2.27385e-05
2.2742e-05
2.27419e-05
2.27416e-05
2.27403e-05
2.27397e-05
2.27387e-05
2.27383e-05
2.27376e-05
2.27374e-05
2.2737e-05
2.27369e-05
2.27367e-05
2.27366e-05
2.27365e-05
2.27365e-05
2.27364e-05
2.27364e-05
2.27363e-05
2.27363e-05
2.27363e-05
2.27363e-05
2.27363e-05
2.27363e-05
2.27364e-05
2.27364e-05
2.27365e-05
2.27365e-05
2.27366e-05
2.27366e-05
2.27369e-05
2.2737e-05
2.27374e-05
2.27376e-05
2.27383e-05
2.27387e-05
2.27397e-05
2.27403e-05
2.27416e-05
2.27419e-05
2.2742e-05
2.27385e-05
2.27308e-05
2.2715e-05
2.2686e-05
2.26592e-05
2.25908e-05
2.26173e-05
2.26453e-05
2.26607e-05
2.2668e-05
2.26713e-05
2.26711e-05
2.26706e-05
2.26693e-05
2.26686e-05
2.26676e-05
2.26671e-05
2.26664e-05
2.26662e-05
2.26658e-05
2.26656e-05
2.26654e-05
2.26654e-05
2.26652e-05
2.26652e-05
2.26651e-05
2.26651e-05
2.26651e-05
2.26651e-05
2.2665e-05
2.2665e-05
2.26651e-05
2.26651e-05
2.26651e-05
2.26651e-05
2.26652e-05
2.26652e-05
2.26654e-05
2.26654e-05
2.26656e-05
2.26658e-05
2.26662e-05
2.26664e-05
2.26671e-05
2.26676e-05
2.26686e-05
2.26693e-05
2.26706e-05
2.2671e-05
2.26713e-05
2.2668e-05
2.26606e-05
2.26453e-05
2.26173e-05
2.25908e-05
2.25218e-05
2.25478e-05
2.25751e-05
2.25899e-05
2.25969e-05
2.26e-05
2.25996e-05
2.2599e-05
2.25976e-05
2.25968e-05
2.25958e-05
2.25953e-05
2.25946e-05
2.25943e-05
2.25939e-05
2.25937e-05
2.25935e-05
2.25934e-05
2.25933e-05
2.25933e-05
2.25932e-05
2.25932e-05
2.25931e-05
2.25931e-05
2.25931e-05
2.25931e-05
2.25931e-05
2.25931e-05
2.25932e-05
2.25932e-05
2.25933e-05
2.25933e-05
2.25934e-05
2.25935e-05
2.25937e-05
2.25939e-05
2.25943e-05
2.25946e-05
2.25953e-05
2.25958e-05
2.25968e-05
2.25976e-05
2.2599e-05
2.25996e-05
2.26e-05
2.25969e-05
2.25899e-05
2.25751e-05
2.25478e-05
2.25218e-05
2.24516e-05
2.24773e-05
2.25037e-05
2.2518e-05
2.25246e-05
2.25275e-05
2.25269e-05
2.25263e-05
2.25248e-05
2.25239e-05
2.25228e-05
2.25222e-05
2.25215e-05
2.25212e-05
2.25208e-05
2.25206e-05
2.25204e-05
2.25203e-05
2.25202e-05
2.25201e-05
2.25201e-05
2.252e-05
2.252e-05
2.252e-05
2.252e-05
2.252e-05
2.252e-05
2.252e-05
2.252e-05
2.252e-05
2.25201e-05
2.25202e-05
2.25203e-05
2.25204e-05
2.25206e-05
2.25208e-05
2.25212e-05
2.25215e-05
2.25222e-05
2.25228e-05
2.25239e-05
2.25248e-05
2.25263e-05
2.25269e-05
2.25275e-05
2.25246e-05
2.2518e-05
2.25037e-05
2.24773e-05
2.24515e-05
2.23797e-05
2.24051e-05
2.24307e-05
2.24445e-05
2.24507e-05
2.24534e-05
2.24526e-05
2.24518e-05
2.24502e-05
2.24493e-05
2.24481e-05
2.24475e-05
2.24468e-05
2.24465e-05
2.2446e-05
2.24458e-05
2.24456e-05
2.24455e-05
2.24454e-05
2.24453e-05
2.24452e-05
2.24452e-05
2.24452e-05
2.24452e-05
2.24452e-05
2.24452e-05
2.24452e-05
2.24452e-05
2.24452e-05
2.24452e-05
2.24453e-05
2.24454e-05
2.24455e-05
2.24456e-05
2.24458e-05
2.2446e-05
2.24465e-05
2.24468e-05
2.24475e-05
2.24481e-05
2.24493e-05
2.24502e-05
2.24518e-05
2.24526e-05
2.24533e-05
2.24507e-05
2.24444e-05
2.24307e-05
2.24051e-05
2.23797e-05
2.23058e-05
2.2331e-05
2.23557e-05
2.23689e-05
2.23748e-05
2.23772e-05
2.23762e-05
2.23753e-05
2.23736e-05
2.23726e-05
2.23714e-05
2.23708e-05
2.237e-05
2.23696e-05
2.23692e-05
2.2369e-05
2.23687e-05
2.23687e-05
2.23685e-05
2.23685e-05
2.23684e-05
2.23683e-05
2.23683e-05
2.23683e-05
2.23683e-05
2.23683e-05
2.23683e-05
2.23683e-05
2.23683e-05
2.23684e-05
2.23685e-05
2.23685e-05
2.23686e-05
2.23687e-05
2.2369e-05
2.23692e-05
2.23696e-05
2.237e-05
2.23708e-05
2.23714e-05
2.23726e-05
2.23736e-05
2.23753e-05
2.23762e-05
2.23772e-05
2.23748e-05
2.23689e-05
2.23557e-05
2.2331e-05
2.23058e-05
2.22295e-05
2.22545e-05
2.22784e-05
2.22911e-05
2.22965e-05
2.22986e-05
2.22974e-05
2.22964e-05
2.22946e-05
2.22935e-05
2.22923e-05
2.22916e-05
2.22908e-05
2.22904e-05
2.22899e-05
2.22897e-05
2.22894e-05
2.22893e-05
2.22892e-05
2.22891e-05
2.2289e-05
2.2289e-05
2.2289e-05
2.2289e-05
2.22889e-05
2.22889e-05
2.2289e-05
2.2289e-05
2.2289e-05
2.2289e-05
2.22891e-05
2.22892e-05
2.22893e-05
2.22894e-05
2.22897e-05
2.22899e-05
2.22904e-05
2.22908e-05
2.22916e-05
2.22922e-05
2.22935e-05
2.22946e-05
2.22964e-05
2.22974e-05
2.22986e-05
2.22965e-05
2.2291e-05
2.22783e-05
2.22545e-05
2.22295e-05
2.21506e-05
2.21753e-05
2.21983e-05
2.22105e-05
2.22155e-05
2.22173e-05
2.22159e-05
2.22148e-05
2.22128e-05
2.22117e-05
2.22103e-05
2.22096e-05
2.22087e-05
2.22083e-05
2.22078e-05
2.22076e-05
2.22073e-05
2.22073e-05
2.22071e-05
2.2207e-05
2.22069e-05
2.22069e-05
2.22069e-05
2.22069e-05
2.22068e-05
2.22068e-05
2.22069e-05
2.22069e-05
2.22069e-05
2.22069e-05
2.2207e-05
2.22071e-05
2.22073e-05
2.22073e-05
2.22076e-05
2.22078e-05
2.22083e-05
2.22087e-05
2.22096e-05
2.22103e-05
2.22117e-05
2.22128e-05
2.22147e-05
2.22159e-05
2.22173e-05
2.22155e-05
2.22105e-05
2.21983e-05
2.21753e-05
2.21506e-05
2.20687e-05
2.20932e-05
2.21152e-05
2.21269e-05
2.21314e-05
2.2133e-05
2.21313e-05
2.213e-05
2.2128e-05
2.21267e-05
2.21253e-05
2.21245e-05
2.21237e-05
2.21232e-05
2.21227e-05
2.21225e-05
2.21222e-05
2.21221e-05
2.21219e-05
2.21219e-05
2.21218e-05
2.21217e-05
2.21217e-05
2.21217e-05
2.21217e-05
2.21217e-05
2.21217e-05
2.21217e-05
2.21217e-05
2.21218e-05
2.21219e-05
2.21219e-05
2.21221e-05
2.21222e-05
2.21225e-05
2.21227e-05
2.21232e-05
2.21237e-05
2.21245e-05
2.21253e-05
2.21267e-05
2.2128e-05
2.213e-05
2.21313e-05
2.2133e-05
2.21314e-05
2.21269e-05
2.21152e-05
2.20932e-05
2.20687e-05
2.19835e-05
2.20078e-05
2.20289e-05
2.204e-05
2.20441e-05
2.20453e-05
2.20434e-05
2.2042e-05
2.20398e-05
2.20384e-05
2.2037e-05
2.20361e-05
2.20352e-05
2.20348e-05
2.20342e-05
2.2034e-05
2.20337e-05
2.20336e-05
2.20334e-05
2.20333e-05
2.20332e-05
2.20332e-05
2.20331e-05
2.20331e-05
2.20331e-05
2.20331e-05
2.20331e-05
2.20331e-05
2.20332e-05
2.20332e-05
2.20333e-05
2.20334e-05
2.20336e-05
2.20337e-05
2.2034e-05
2.20342e-05
2.20348e-05
2.20352e-05
2.20361e-05
2.2037e-05
2.20384e-05
2.20398e-05
2.20419e-05
2.20434e-05
2.20453e-05
2.20441e-05
2.204e-05
2.20289e-05
2.20077e-05
2.19835e-05
2.18949e-05
2.19188e-05
2.1939e-05
2.19496e-05
2.19532e-05
2.19541e-05
2.19519e-05
2.19503e-05
2.1948e-05
2.19465e-05
2.1945e-05
2.19441e-05
2.19431e-05
2.19427e-05
2.19421e-05
2.19418e-05
2.19415e-05
2.19414e-05
2.19412e-05
2.19412e-05
2.1941e-05
2.1941e-05
2.1941e-05
2.1941e-05
2.19409e-05
2.19409e-05
2.19409e-05
2.1941e-05
2.1941e-05
2.1941e-05
2.19412e-05
2.19412e-05
2.19414e-05
2.19415e-05
2.19418e-05
2.19421e-05
2.19426e-05
2.19431e-05
2.19441e-05
2.1945e-05
2.19465e-05
2.19479e-05
2.19503e-05
2.19519e-05
2.19541e-05
2.19532e-05
2.19496e-05
2.1939e-05
2.19188e-05
2.18949e-05
2.18025e-05
2.1826e-05
2.18453e-05
2.18554e-05
2.18584e-05
2.1859e-05
2.18565e-05
2.18547e-05
2.18523e-05
2.18507e-05
2.18491e-05
2.18482e-05
2.18472e-05
2.18467e-05
2.18461e-05
2.18458e-05
2.18455e-05
2.18454e-05
2.18452e-05
2.18451e-05
2.1845e-05
2.1845e-05
2.18449e-05
2.18449e-05
2.18449e-05
2.18449e-05
2.18449e-05
2.18449e-05
2.1845e-05
2.1845e-05
2.18451e-05
2.18451e-05
2.18453e-05
2.18455e-05
2.18458e-05
2.18461e-05
2.18467e-05
2.18472e-05
2.18482e-05
2.18491e-05
2.18507e-05
2.18522e-05
2.18547e-05
2.18565e-05
2.1859e-05
2.18584e-05
2.18553e-05
2.18453e-05
2.1826e-05
2.18025e-05
2.17061e-05
2.17293e-05
2.17475e-05
2.17571e-05
2.17596e-05
2.17598e-05
2.1757e-05
2.1755e-05
2.17524e-05
2.17508e-05
2.17491e-05
2.17481e-05
2.17471e-05
2.17465e-05
2.17459e-05
2.17456e-05
2.17453e-05
2.17452e-05
2.1745e-05
2.17449e-05
2.17448e-05
2.17448e-05
2.17447e-05
2.17447e-05
2.17447e-05
2.17447e-05
2.17447e-05
2.17447e-05
2.17447e-05
2.17448e-05
2.17449e-05
2.1745e-05
2.17452e-05
2.17453e-05
2.17456e-05
2.17459e-05
2.17465e-05
2.17471e-05
2.17481e-05
2.17491e-05
2.17508e-05
2.17524e-05
2.1755e-05
2.1757e-05
2.17598e-05
2.17596e-05
2.17571e-05
2.17475e-05
2.17292e-05
2.17061e-05
2.16055e-05
2.16282e-05
2.16455e-05
2.16545e-05
2.16564e-05
2.16563e-05
2.16532e-05
2.1651e-05
2.16483e-05
2.16465e-05
2.16447e-05
2.16437e-05
2.16426e-05
2.1642e-05
2.16414e-05
2.16411e-05
2.16407e-05
2.16406e-05
2.16404e-05
2.16403e-05
2.16402e-05
2.16402e-05
2.16401e-05
2.16401e-05
2.16401e-05
2.16401e-05
2.16401e-05
2.16401e-05
2.16402e-05
2.16402e-05
2.16403e-05
2.16404e-05
2.16406e-05
2.16407e-05
2.16411e-05
2.16414e-05
2.1642e-05
2.16426e-05
2.16437e-05
2.16447e-05
2.16465e-05
2.16482e-05
2.1651e-05
2.16532e-05
2.16563e-05
2.16564e-05
2.16545e-05
2.16455e-05
2.16282e-05
2.16055e-05
2.15005e-05
2.15227e-05
2.1539e-05
2.15474e-05
2.15487e-05
2.15482e-05
2.15448e-05
2.15424e-05
2.15395e-05
2.15377e-05
2.15358e-05
2.15347e-05
2.15335e-05
2.15329e-05
2.15323e-05
2.1532e-05
2.15316e-05
2.15314e-05
2.15312e-05
2.15312e-05
2.1531e-05
2.1531e-05
2.15309e-05
2.15309e-05
2.15309e-05
2.15309e-05
2.15309e-05
2.15309e-05
2.1531e-05
2.1531e-05
2.15311e-05
2.15312e-05
2.15314e-05
2.15316e-05
2.1532e-05
2.15323e-05
2.15329e-05
2.15335e-05
2.15347e-05
2.15358e-05
2.15377e-05
2.15395e-05
2.15424e-05
2.15448e-05
2.15482e-05
2.15487e-05
2.15474e-05
2.1539e-05
2.15227e-05
2.15005e-05
2.13908e-05
2.14125e-05
2.14277e-05
2.14356e-05
2.14363e-05
2.14354e-05
2.14316e-05
2.1429e-05
2.14259e-05
2.1424e-05
2.1422e-05
2.14208e-05
2.14196e-05
2.1419e-05
2.14183e-05
2.1418e-05
2.14176e-05
2.14174e-05
2.14172e-05
2.14171e-05
2.1417e-05
2.1417e-05
2.14169e-05
2.14169e-05
2.14168e-05
2.14168e-05
2.14169e-05
2.14169e-05
2.1417e-05
2.1417e-05
2.14171e-05
2.14172e-05
2.14174e-05
2.14176e-05
2.1418e-05
2.14183e-05
2.1419e-05
2.14196e-05
2.14208e-05
2.1422e-05
2.14239e-05
2.14259e-05
2.14289e-05
2.14316e-05
2.14354e-05
2.14363e-05
2.14356e-05
2.14277e-05
2.14125e-05
2.13907e-05
2.12762e-05
2.12974e-05
2.13115e-05
2.13188e-05
2.13188e-05
2.13175e-05
2.13133e-05
2.13105e-05
2.13072e-05
2.13052e-05
2.13031e-05
2.13019e-05
2.13006e-05
2.13e-05
2.12992e-05
2.12989e-05
2.12985e-05
2.12984e-05
2.12981e-05
2.1298e-05
2.12979e-05
2.12979e-05
2.12978e-05
2.12978e-05
2.12977e-05
2.12977e-05
2.12978e-05
2.12978e-05
2.12979e-05
2.12979e-05
2.1298e-05
2.12981e-05
2.12983e-05
2.12985e-05
2.12989e-05
2.12992e-05
2.13e-05
2.13006e-05
2.13019e-05
2.13031e-05
2.13052e-05
2.13072e-05
2.13105e-05
2.13133e-05
2.13175e-05
2.13188e-05
2.13188e-05
2.13115e-05
2.12974e-05
2.12761e-05
2.11564e-05
2.11771e-05
2.11902e-05
2.11968e-05
2.11961e-05
2.11943e-05
2.11898e-05
2.11867e-05
2.11833e-05
2.11811e-05
2.11789e-05
2.11777e-05
2.11764e-05
2.11757e-05
2.11749e-05
2.11746e-05
2.11741e-05
2.1174e-05
2.11737e-05
2.11736e-05
2.11735e-05
2.11735e-05
2.11734e-05
2.11734e-05
2.11733e-05
2.11733e-05
2.11734e-05
2.11734e-05
2.11734e-05
2.11735e-05
2.11736e-05
2.11737e-05
2.1174e-05
2.11741e-05
2.11746e-05
2.11749e-05
2.11757e-05
2.11763e-05
2.11777e-05
2.11789e-05
2.11811e-05
2.11832e-05
2.11867e-05
2.11897e-05
2.11943e-05
2.11961e-05
2.11967e-05
2.11901e-05
2.11771e-05
2.11564e-05
2.10313e-05
2.10514e-05
2.10634e-05
2.10693e-05
2.10679e-05
2.10657e-05
2.10607e-05
2.10574e-05
2.10538e-05
2.10515e-05
2.10492e-05
2.10479e-05
2.10465e-05
2.10458e-05
2.1045e-05
2.10447e-05
2.10442e-05
2.10441e-05
2.10438e-05
2.10437e-05
2.10435e-05
2.10435e-05
2.10434e-05
2.10434e-05
2.10434e-05
2.10434e-05
2.10434e-05
2.10434e-05
2.10435e-05
2.10435e-05
2.10437e-05
2.10438e-05
2.1044e-05
2.10442e-05
2.10447e-05
2.1045e-05
2.10458e-05
2.10465e-05
2.10479e-05
2.10492e-05
2.10515e-05
2.10538e-05
2.10574e-05
2.10607e-05
2.10657e-05
2.10679e-05
2.10693e-05
2.10633e-05
2.10514e-05
2.10313e-05
2.09006e-05
2.09202e-05
2.09309e-05
2.09361e-05
2.0934e-05
2.09314e-05
2.09259e-05
2.09224e-05
2.09186e-05
2.09162e-05
2.09138e-05
2.09124e-05
2.0911e-05
2.09102e-05
2.09094e-05
2.0909e-05
2.09085e-05
2.09084e-05
2.09081e-05
2.0908e-05
2.09078e-05
2.09078e-05
2.09077e-05
2.09077e-05
2.09077e-05
2.09077e-05
2.09077e-05
2.09077e-05
2.09078e-05
2.09078e-05
2.0908e-05
2.09081e-05
2.09084e-05
2.09085e-05
2.0909e-05
2.09094e-05
2.09102e-05
2.0911e-05
2.09124e-05
2.09138e-05
2.09162e-05
2.09186e-05
2.09224e-05
2.09259e-05
2.09313e-05
2.0934e-05
2.09361e-05
2.09309e-05
2.09202e-05
2.09005e-05
2.0764e-05
2.07831e-05
2.07926e-05
2.07971e-05
2.07942e-05
2.0791e-05
2.07851e-05
2.07813e-05
2.07773e-05
2.07748e-05
2.07723e-05
2.07709e-05
2.07694e-05
2.07686e-05
2.07677e-05
2.07674e-05
2.07669e-05
2.07667e-05
2.07664e-05
2.07663e-05
2.07661e-05
2.07661e-05
2.0766e-05
2.0766e-05
2.0766e-05
2.0766e-05
2.0766e-05
2.0766e-05
2.07661e-05
2.07661e-05
2.07663e-05
2.07664e-05
2.07667e-05
2.07668e-05
2.07674e-05
2.07677e-05
2.07686e-05
2.07694e-05
2.07709e-05
2.07723e-05
2.07748e-05
2.07773e-05
2.07813e-05
2.07851e-05
2.0791e-05
2.07942e-05
2.0797e-05
2.07925e-05
2.07831e-05
2.0764e-05
2.06215e-05
2.064e-05
2.06481e-05
2.06518e-05
2.06482e-05
2.06445e-05
2.06382e-05
2.06341e-05
2.06299e-05
2.06273e-05
2.06247e-05
2.06231e-05
2.06216e-05
2.06208e-05
2.06199e-05
2.06195e-05
2.06189e-05
2.06188e-05
2.06185e-05
2.06184e-05
2.06182e-05
2.06182e-05
2.06181e-05
2.06181e-05
2.0618e-05
2.0618e-05
2.06181e-05
2.06181e-05
2.06182e-05
2.06182e-05
2.06184e-05
2.06184e-05
2.06188e-05
2.06189e-05
2.06195e-05
2.06199e-05
2.06208e-05
2.06216e-05
2.06231e-05
2.06246e-05
2.06272e-05
2.06299e-05
2.06341e-05
2.06381e-05
2.06445e-05
2.06482e-05
2.06518e-05
2.0648e-05
2.06399e-05
2.06214e-05
2.04726e-05
2.04905e-05
2.04972e-05
2.05002e-05
2.04958e-05
2.04916e-05
2.04847e-05
2.04804e-05
2.0476e-05
2.04732e-05
2.04705e-05
2.04689e-05
2.04673e-05
2.04665e-05
2.04655e-05
2.04651e-05
2.04645e-05
2.04644e-05
2.0464e-05
2.0464e-05
2.04638e-05
2.04637e-05
2.04636e-05
2.04636e-05
2.04636e-05
2.04636e-05
2.04636e-05
2.04636e-05
2.04637e-05
2.04638e-05
2.04639e-05
2.0464e-05
2.04643e-05
2.04645e-05
2.04651e-05
2.04655e-05
2.04664e-05
2.04673e-05
2.04689e-05
2.04705e-05
2.04732e-05
2.0476e-05
2.04803e-05
2.04847e-05
2.04916e-05
2.04958e-05
2.05002e-05
2.04972e-05
2.04905e-05
2.04726e-05
2.03225e-05
2.034e-05
2.03452e-05
2.03476e-05
2.03423e-05
2.03376e-05
2.03302e-05
2.03256e-05
2.0321e-05
2.03181e-05
2.03152e-05
2.03136e-05
2.03119e-05
2.0311e-05
2.03101e-05
2.03096e-05
2.03091e-05
2.03089e-05
2.03085e-05
2.03084e-05
2.03083e-05
2.03082e-05
2.03081e-05
2.03081e-05
2.03081e-05
2.03081e-05
2.03081e-05
2.03081e-05
2.03082e-05
2.03082e-05
2.03084e-05
2.03085e-05
2.03089e-05
2.0309e-05
2.03096e-05
2.03101e-05
2.0311e-05
2.03119e-05
2.03136e-05
2.03152e-05
2.0318e-05
2.0321e-05
2.03255e-05
2.03301e-05
2.03376e-05
2.03423e-05
2.03475e-05
2.03452e-05
2.03399e-05
2.03225e-05
2.01645e-05
2.01817e-05
2.0185e-05
2.01863e-05
2.01797e-05
2.01742e-05
2.01659e-05
2.01609e-05
2.01559e-05
2.01528e-05
2.01498e-05
2.01481e-05
2.01463e-05
2.01454e-05
2.01443e-05
2.01439e-05
2.01433e-05
2.01431e-05
2.01427e-05
2.01426e-05
2.01424e-05
2.01424e-05
2.01423e-05
2.01423e-05
2.01422e-05
2.01422e-05
2.01423e-05
2.01423e-05
2.01424e-05
2.01424e-05
2.01426e-05
2.01427e-05
2.01431e-05
2.01433e-05
2.01439e-05
2.01443e-05
2.01454e-05
2.01463e-05
2.01481e-05
2.01498e-05
2.01528e-05
2.01559e-05
2.01608e-05
2.01659e-05
2.01742e-05
2.01796e-05
2.01862e-05
2.0185e-05
2.01817e-05
2.01645e-05
1.99962e-05
2.00127e-05
2.00144e-05
2.00148e-05
2.00073e-05
2.00013e-05
1.99923e-05
1.9987e-05
1.99819e-05
1.99786e-05
1.99755e-05
1.99737e-05
1.99718e-05
1.99709e-05
1.99698e-05
1.99693e-05
1.99687e-05
1.99685e-05
1.99681e-05
1.9968e-05
1.99678e-05
1.99678e-05
1.99677e-05
1.99676e-05
1.99676e-05
1.99676e-05
1.99676e-05
1.99677e-05
1.99678e-05
1.99678e-05
1.9968e-05
1.99681e-05
1.99685e-05
1.99687e-05
1.99693e-05
1.99698e-05
1.99709e-05
1.99718e-05
1.99737e-05
1.99755e-05
1.99786e-05
1.99819e-05
1.9987e-05
1.99923e-05
2.00012e-05
2.00073e-05
2.00148e-05
2.00144e-05
2.00127e-05
1.99962e-05
1.98207e-05
1.98365e-05
1.98367e-05
1.98362e-05
1.98277e-05
1.98211e-05
1.98114e-05
1.98058e-05
1.98005e-05
1.97971e-05
1.97939e-05
1.9792e-05
1.97901e-05
1.97891e-05
1.97879e-05
1.97874e-05
1.97868e-05
1.97866e-05
1.97862e-05
1.97861e-05
1.97859e-05
1.97858e-05
1.97857e-05
1.97857e-05
1.97857e-05
1.97857e-05
1.97857e-05
1.97857e-05
1.97858e-05
1.97859e-05
1.97861e-05
1.97862e-05
1.97866e-05
1.97868e-05
1.97874e-05
1.97879e-05
1.9789e-05
1.979e-05
1.97919e-05
1.97938e-05
1.97971e-05
1.98005e-05
1.98058e-05
1.98114e-05
1.98211e-05
1.98277e-05
1.98361e-05
1.98367e-05
1.98365e-05
1.98207e-05
1.96379e-05
1.9653e-05
1.96515e-05
1.965e-05
1.96406e-05
1.96334e-05
1.9623e-05
1.96171e-05
1.96115e-05
1.9608e-05
1.96046e-05
1.96027e-05
1.96007e-05
1.95997e-05
1.95985e-05
1.9598e-05
1.95973e-05
1.95971e-05
1.95967e-05
1.95966e-05
1.95964e-05
1.95963e-05
1.95962e-05
1.95962e-05
1.95962e-05
1.95962e-05
1.95962e-05
1.95962e-05
1.95963e-05
1.95964e-05
1.95966e-05
1.95967e-05
1.95971e-05
1.95973e-05
1.9598e-05
1.95985e-05
1.95997e-05
1.96007e-05
1.96027e-05
1.96046e-05
1.9608e-05
1.96115e-05
1.96171e-05
1.9623e-05
1.96334e-05
1.96406e-05
1.965e-05
1.96515e-05
1.96529e-05
1.96379e-05
1.94476e-05
1.94617e-05
1.94586e-05
1.94562e-05
1.94457e-05
1.94379e-05
1.94267e-05
1.94205e-05
1.94148e-05
1.9411e-05
1.94076e-05
1.94055e-05
1.94035e-05
1.94024e-05
1.94012e-05
1.94007e-05
1.94e-05
1.93998e-05
1.93994e-05
1.93993e-05
1.9399e-05
1.9399e-05
1.93989e-05
1.93989e-05
1.93988e-05
1.93988e-05
1.93989e-05
1.93989e-05
1.9399e-05
1.9399e-05
1.93993e-05
1.93994e-05
1.93998e-05
1.94e-05
1.94007e-05
1.94012e-05
1.94024e-05
1.94035e-05
1.94055e-05
1.94076e-05
1.9411e-05
1.94148e-05
1.94205e-05
1.94267e-05
1.94379e-05
1.94457e-05
1.94561e-05
1.94586e-05
1.94617e-05
1.94475e-05
1.9256e-05
1.92695e-05
1.92646e-05
1.92613e-05
1.92498e-05
1.92415e-05
1.92293e-05
1.92228e-05
1.92169e-05
1.9213e-05
1.92094e-05
1.92073e-05
1.92052e-05
1.92041e-05
1.92029e-05
1.92023e-05
1.92016e-05
1.92014e-05
1.92009e-05
1.92008e-05
1.92006e-05
1.92006e-05
1.92004e-05
1.92004e-05
1.92004e-05
1.92004e-05
1.92004e-05
1.92004e-05
1.92005e-05
1.92006e-05
1.92008e-05
1.92009e-05
1.92014e-05
1.92016e-05
1.92023e-05
1.92029e-05
1.92041e-05
1.92052e-05
1.92073e-05
1.92094e-05
1.9213e-05
1.92169e-05
1.92228e-05
1.92293e-05
1.92414e-05
1.92497e-05
1.92612e-05
1.92646e-05
1.92694e-05
1.92559e-05
1.9057e-05
1.90698e-05
1.90632e-05
1.90589e-05
1.90463e-05
1.90375e-05
1.90244e-05
1.90174e-05
1.90109e-05
1.90067e-05
1.90029e-05
1.90006e-05
1.89984e-05
1.89972e-05
1.89959e-05
1.89953e-05
1.89945e-05
1.89942e-05
1.89938e-05
1.89937e-05
1.89934e-05
1.89934e-05
1.89932e-05
1.89932e-05
1.89932e-05
1.89932e-05
1.89932e-05
1.89932e-05
1.89934e-05
1.89934e-05
1.89937e-05
1.89938e-05
1.89942e-05
1.89945e-05
1.89953e-05
1.89959e-05
1.89972e-05
1.89984e-05
1.90006e-05
1.90029e-05
1.90067e-05
1.90109e-05
1.90174e-05
1.90244e-05
1.90375e-05
1.90463e-05
1.90589e-05
1.90632e-05
1.90698e-05
1.9057e-05
1.88445e-05
1.88565e-05
1.8848e-05
1.88425e-05
1.88286e-05
1.88191e-05
1.88047e-05
1.87973e-05
1.87906e-05
1.87861e-05
1.87821e-05
1.87797e-05
1.87774e-05
1.87762e-05
1.87748e-05
1.87742e-05
1.87734e-05
1.87731e-05
1.87727e-05
1.87725e-05
1.87723e-05
1.87722e-05
1.87721e-05
1.87721e-05
1.8772e-05
1.8772e-05
1.87721e-05
1.87721e-05
1.87722e-05
1.87723e-05
1.87725e-05
1.87726e-05
1.87731e-05
1.87734e-05
1.87742e-05
1.87748e-05
1.87762e-05
1.87774e-05
1.87797e-05
1.87821e-05
1.87861e-05
1.87905e-05
1.87973e-05
1.88047e-05
1.88191e-05
1.88285e-05
1.88425e-05
1.8848e-05
1.88565e-05
1.88444e-05
1.86227e-05
1.86337e-05
1.86234e-05
1.86168e-05
1.86017e-05
1.85918e-05
1.85837e-05
1.85761e-05
1.85691e-05
1.85645e-05
1.85603e-05
1.85579e-05
1.85555e-05
1.85542e-05
1.85528e-05
1.85521e-05
1.85513e-05
1.8551e-05
1.85506e-05
1.85504e-05
1.85502e-05
1.85501e-05
1.855e-05
1.855e-05
1.85499e-05
1.85499e-05
1.855e-05
1.855e-05
1.85501e-05
1.85502e-05
1.85504e-05
1.85506e-05
1.8551e-05
1.85513e-05
1.85521e-05
1.85528e-05
1.85542e-05
1.85555e-05
1.85579e-05
1.85603e-05
1.85645e-05
1.8569e-05
1.85761e-05
1.85837e-05
1.85918e-05
1.86017e-05
1.86168e-05
1.86234e-05
1.86336e-05
1.86227e-05
1.84e-05
1.841e-05
1.83979e-05
1.83903e-05
1.8374e-05
1.83636e-05
1.83547e-05
1.83468e-05
1.83395e-05
1.83348e-05
1.83305e-05
1.8328e-05
1.83255e-05
1.83242e-05
1.83227e-05
1.83221e-05
1.83212e-05
1.8321e-05
1.83205e-05
1.83203e-05
1.832e-05
1.832e-05
1.83199e-05
1.83198e-05
1.83198e-05
1.83198e-05
1.83198e-05
1.83199e-05
1.832e-05
1.832e-05
1.83203e-05
1.83204e-05
1.83209e-05
1.83212e-05
1.83221e-05
1.83227e-05
1.83242e-05
1.83255e-05
1.8328e-05
1.83305e-05
1.83348e-05
1.83395e-05
1.83468e-05
1.83547e-05
1.83636e-05
1.83739e-05
1.83902e-05
1.83979e-05
1.841e-05
1.83999e-05
1.81678e-05
1.81776e-05
1.81633e-05
1.81542e-05
1.81358e-05
1.81247e-05
1.81145e-05
1.81061e-05
1.80984e-05
1.80934e-05
1.80889e-05
1.80862e-05
1.80836e-05
1.80822e-05
1.80806e-05
1.808e-05
1.80791e-05
1.80788e-05
1.80783e-05
1.80781e-05
1.80778e-05
1.80778e-05
1.80776e-05
1.80776e-05
1.80776e-05
1.80776e-05
1.80776e-05
1.80776e-05
1.80778e-05
1.80778e-05
1.80781e-05
1.80783e-05
1.80788e-05
1.80791e-05
1.808e-05
1.80807e-05
1.80822e-05
1.80836e-05
1.80862e-05
1.80889e-05
1.80933e-05
1.80984e-05
1.81061e-05
1.81145e-05
1.81246e-05
1.81358e-05
1.81542e-05
1.81633e-05
1.81776e-05
1.81678e-05
1.79289e-05
1.79377e-05
1.79215e-05
1.79113e-05
1.78915e-05
1.78799e-05
1.7869e-05
1.78603e-05
1.78523e-05
1.78471e-05
1.78425e-05
1.78397e-05
1.7837e-05
1.78356e-05
1.7834e-05
1.78333e-05
1.78324e-05
1.78321e-05
1.78316e-05
1.78314e-05
1.78311e-05
1.78311e-05
1.78309e-05
1.78309e-05
1.78308e-05
1.78308e-05
1.78309e-05
1.78309e-05
1.78311e-05
1.78311e-05
1.78314e-05
1.78316e-05
1.78321e-05
1.78324e-05
1.78333e-05
1.7834e-05
1.78356e-05
1.7837e-05
1.78397e-05
1.78425e-05
1.78471e-05
1.78523e-05
1.78603e-05
1.7869e-05
1.78799e-05
1.78915e-05
1.79113e-05
1.79215e-05
1.79376e-05
1.79288e-05
1.76817e-05
1.76894e-05
1.76714e-05
1.76601e-05
1.76389e-05
1.76268e-05
1.76152e-05
1.76061e-05
1.75979e-05
1.75925e-05
1.75878e-05
1.75849e-05
1.75822e-05
1.75807e-05
1.75791e-05
1.75784e-05
1.75774e-05
1.75771e-05
1.75766e-05
1.75764e-05
1.75761e-05
1.75761e-05
1.75759e-05
1.75759e-05
1.75758e-05
1.75758e-05
1.75759e-05
1.75759e-05
1.75761e-05
1.75761e-05
1.75764e-05
1.75766e-05
1.75771e-05
1.75774e-05
1.75784e-05
1.75791e-05
1.75807e-05
1.75822e-05
1.75849e-05
1.75878e-05
1.75925e-05
1.75979e-05
1.76061e-05
1.76152e-05
1.76268e-05
1.76389e-05
1.76601e-05
1.76714e-05
1.76894e-05
1.76817e-05
1.73132e-05
1.73131e-05
1.73128e-05
1.73127e-05
1.73125e-05
1.73125e-05
1.73125e-05
1.73125e-05
1.73125e-05
1.73125e-05
1.73127e-05
1.73128e-05
1.73131e-05
1.73132e-05
1.73138e-05
1.73141e-05
1.73151e-05
1.73158e-05
1.73175e-05
1.7319e-05
1.73218e-05
1.73248e-05
1.73296e-05
1.73352e-05
1.73436e-05
1.7353e-05
1.73653e-05
1.73779e-05
1.74005e-05
1.74131e-05
1.74329e-05
1.74263e-05
1.7041e-05
1.7041e-05
1.70414e-05
1.70415e-05
1.70421e-05
1.70424e-05
1.70434e-05
1.70442e-05
1.70459e-05
1.70474e-05
1.70503e-05
1.70534e-05
1.70583e-05
1.70641e-05
1.70727e-05
1.70824e-05
1.70954e-05
1.71086e-05
1.71326e-05
1.71463e-05
1.7168e-05
1.71627e-05
1.67787e-05
1.67846e-05
1.67935e-05
1.68035e-05
1.68171e-05
1.68308e-05
1.68563e-05
1.68712e-05
1.68948e-05
1.68907e-05
)
;

boundaryField
{
    fuel
    {
        type            fixedValue;
        value           nonuniform 0();
    }
    wall
    {
        type            zeroGradient;
    }
    outlet
    {
        type            zeroGradient;
    }
    frontAndBack
    {
        type            empty;
    }
    procBoundary0to1
    {
        type            processor;
        value           nonuniform List<scalar> 
50
(
2.28666e-05
2.28953e-05
2.29268e-05
2.29443e-05
2.29528e-05
2.29569e-05
2.29571e-05
2.29571e-05
2.29561e-05
2.29556e-05
2.29547e-05
2.29544e-05
2.29538e-05
2.29536e-05
2.29533e-05
2.29532e-05
2.2953e-05
2.2953e-05
2.29528e-05
2.29528e-05
2.29528e-05
2.29528e-05
2.29527e-05
2.29527e-05
2.29527e-05
2.29527e-05
2.29527e-05
2.29527e-05
2.29527e-05
2.29528e-05
2.29528e-05
2.29528e-05
2.2953e-05
2.2953e-05
2.29532e-05
2.29533e-05
2.29536e-05
2.29538e-05
2.29544e-05
2.29547e-05
2.29556e-05
2.29561e-05
2.29571e-05
2.29571e-05
2.29569e-05
2.29528e-05
2.29443e-05
2.29267e-05
2.28953e-05
2.28666e-05
)
;
    }
    procBoundary0to2
    {
        type            processor;
        value           nonuniform List<scalar> 
53
(
1.74263e-05
1.74329e-05
1.74131e-05
1.74005e-05
1.7378e-05
1.73653e-05
1.7353e-05
1.73436e-05
1.73352e-05
1.73296e-05
1.73248e-05
1.73218e-05
1.7319e-05
1.73175e-05
1.73158e-05
1.73151e-05
1.73141e-05
1.73138e-05
1.73138e-05
1.70415e-05
1.70414e-05
1.7041e-05
1.7041e-05
1.70408e-05
1.70408e-05
1.70408e-05
1.70408e-05
1.70408e-05
1.70408e-05
1.70408e-05
1.67609e-05
1.6761e-05
1.67613e-05
1.67615e-05
1.67621e-05
1.67624e-05
1.67634e-05
1.67642e-05
1.67659e-05
1.67675e-05
1.67705e-05
1.67736e-05
1.67736e-05
1.64907e-05
1.64968e-05
1.65059e-05
1.65163e-05
1.65305e-05
1.65448e-05
1.65716e-05
1.65877e-05
1.66133e-05
1.66104e-05
)
;
    }
}


// ************************************************************************* //
