/*--------------------------------*- C++ -*----------------------------------*\
| =========                 |                                                 |
| \\      /  F ield         | OpenFOAM: The Open Source CFD Toolbox           |
|  \\    /   O peration     | Version:  dev                                   |
|   \\  /    A nd           | Web:      www.OpenFOAM.org                      |
|    \\/     M anipulation  |                                                 |
\*---------------------------------------------------------------------------*/
FoamFile
{
    version     2.0;
    format      ascii;
    class       volScalarField;
    location    "0.065";
    object      H2C4O;
}
// * * * * * * * * * * * * * * * * * * * * * * * * * * * * * * * * * * * * * //

dimensions      [0 0 0 0 0 0 0];

internalField   nonuniform List<scalar> 
2014
(
2.78759e-06
2.80091e-06
2.81352e-06
2.81998e-06
2.82248e-06
2.8239e-06
2.82355e-06
2.82374e-06
2.82322e-06
2.82328e-06
2.82295e-06
2.823e-06
2.82279e-06
2.82284e-06
2.82271e-06
2.82277e-06
2.82268e-06
2.82273e-06
2.82268e-06
2.82271e-06
2.82267e-06
2.82269e-06
2.82267e-06
2.82268e-06
2.82267e-06
2.82267e-06
2.82268e-06
2.82267e-06
2.82269e-06
2.82267e-06
2.82271e-06
2.82268e-06
2.82273e-06
2.82268e-06
2.82277e-06
2.82271e-06
2.82284e-06
2.82279e-06
2.823e-06
2.82295e-06
2.82328e-06
2.82322e-06
2.82373e-06
2.82355e-06
2.8239e-06
2.82248e-06
2.81998e-06
2.81352e-06
2.80091e-06
2.78759e-06
2.72827e-06
2.74132e-06
2.7536e-06
2.75987e-06
2.76231e-06
2.76369e-06
2.76333e-06
2.7635e-06
2.76299e-06
2.76304e-06
2.76271e-06
2.76276e-06
2.76255e-06
2.7626e-06
2.76247e-06
2.76252e-06
2.76244e-06
2.76248e-06
2.76243e-06
2.76246e-06
2.76243e-06
2.76245e-06
2.76242e-06
2.76243e-06
2.76243e-06
2.76243e-06
2.76243e-06
2.76242e-06
2.76245e-06
2.76243e-06
2.76246e-06
2.76243e-06
2.76248e-06
2.76244e-06
2.76252e-06
2.76247e-06
2.7626e-06
2.76255e-06
2.76276e-06
2.76271e-06
2.76304e-06
2.76299e-06
2.7635e-06
2.76333e-06
2.76368e-06
2.7623e-06
2.75987e-06
2.7536e-06
2.74132e-06
2.72826e-06
2.67076e-06
2.68358e-06
2.6955e-06
2.70158e-06
2.70394e-06
2.70528e-06
2.70492e-06
2.70508e-06
2.70458e-06
2.70461e-06
2.70429e-06
2.70433e-06
2.70412e-06
2.70417e-06
2.70404e-06
2.70409e-06
2.704e-06
2.70405e-06
2.704e-06
2.70403e-06
2.704e-06
2.70401e-06
2.70399e-06
2.704e-06
2.704e-06
2.704e-06
2.704e-06
2.70399e-06
2.70401e-06
2.704e-06
2.70403e-06
2.704e-06
2.70405e-06
2.704e-06
2.70409e-06
2.70404e-06
2.70417e-06
2.70412e-06
2.70433e-06
2.70429e-06
2.70461e-06
2.70458e-06
2.70507e-06
2.70492e-06
2.70528e-06
2.70394e-06
2.70158e-06
2.6955e-06
2.68358e-06
2.67076e-06
2.61502e-06
2.62762e-06
2.63916e-06
2.64505e-06
2.64733e-06
2.64862e-06
2.64826e-06
2.6484e-06
2.64791e-06
2.64793e-06
2.64761e-06
2.64765e-06
2.64745e-06
2.64749e-06
2.64736e-06
2.64741e-06
2.64733e-06
2.64737e-06
2.64732e-06
2.64735e-06
2.64731e-06
2.64733e-06
2.64731e-06
2.64732e-06
2.64732e-06
2.64732e-06
2.64732e-06
2.64731e-06
2.64733e-06
2.64732e-06
2.64735e-06
2.64732e-06
2.64737e-06
2.64733e-06
2.64741e-06
2.64736e-06
2.64749e-06
2.64745e-06
2.64765e-06
2.64761e-06
2.64793e-06
2.64791e-06
2.6484e-06
2.64826e-06
2.64862e-06
2.64733e-06
2.64505e-06
2.63916e-06
2.62762e-06
2.61502e-06
2.56098e-06
2.57336e-06
2.58453e-06
2.59022e-06
2.59241e-06
2.59366e-06
2.5933e-06
2.59342e-06
2.59294e-06
2.59295e-06
2.59263e-06
2.59266e-06
2.59247e-06
2.5925e-06
2.59238e-06
2.59242e-06
2.59234e-06
2.59238e-06
2.59233e-06
2.59236e-06
2.59233e-06
2.59235e-06
2.59233e-06
2.59233e-06
2.59233e-06
2.59233e-06
2.59233e-06
2.59233e-06
2.59235e-06
2.59233e-06
2.59236e-06
2.59233e-06
2.59238e-06
2.59234e-06
2.59242e-06
2.59238e-06
2.5925e-06
2.59247e-06
2.59266e-06
2.59264e-06
2.59295e-06
2.59294e-06
2.59342e-06
2.5933e-06
2.59366e-06
2.59241e-06
2.59021e-06
2.58453e-06
2.57336e-06
2.56098e-06
2.50859e-06
2.52075e-06
2.53155e-06
2.53702e-06
2.53914e-06
2.54034e-06
2.53997e-06
2.54008e-06
2.5396e-06
2.5396e-06
2.53929e-06
2.53931e-06
2.53912e-06
2.53915e-06
2.53903e-06
2.53907e-06
2.53899e-06
2.53904e-06
2.53899e-06
2.53901e-06
2.53898e-06
2.539e-06
2.53898e-06
2.53899e-06
2.53898e-06
2.53898e-06
2.53899e-06
2.53898e-06
2.539e-06
2.53898e-06
2.53901e-06
2.53899e-06
2.53904e-06
2.53899e-06
2.53907e-06
2.53903e-06
2.53915e-06
2.53912e-06
2.53931e-06
2.53929e-06
2.5396e-06
2.5396e-06
2.54008e-06
2.53997e-06
2.54034e-06
2.53913e-06
2.53702e-06
2.53155e-06
2.52075e-06
2.50859e-06
2.45779e-06
2.46974e-06
2.48015e-06
2.48542e-06
2.48744e-06
2.4886e-06
2.48823e-06
2.48832e-06
2.48785e-06
2.48784e-06
2.48754e-06
2.48755e-06
2.48736e-06
2.48739e-06
2.48727e-06
2.48731e-06
2.48724e-06
2.48727e-06
2.48723e-06
2.48725e-06
2.48722e-06
2.48724e-06
2.48722e-06
2.48723e-06
2.48722e-06
2.48722e-06
2.48723e-06
2.48722e-06
2.48724e-06
2.48722e-06
2.48725e-06
2.48723e-06
2.48727e-06
2.48724e-06
2.48731e-06
2.48728e-06
2.48739e-06
2.48736e-06
2.48755e-06
2.48754e-06
2.48784e-06
2.48785e-06
2.48832e-06
2.48823e-06
2.4886e-06
2.48744e-06
2.48542e-06
2.48015e-06
2.46974e-06
2.45779e-06
2.40853e-06
2.42027e-06
2.43029e-06
2.43535e-06
2.43729e-06
2.4384e-06
2.43803e-06
2.4381e-06
2.43764e-06
2.43762e-06
2.43732e-06
2.43733e-06
2.43714e-06
2.43717e-06
2.43705e-06
2.43709e-06
2.43701e-06
2.43705e-06
2.437e-06
2.43703e-06
2.437e-06
2.43701e-06
2.437e-06
2.437e-06
2.437e-06
2.437e-06
2.437e-06
2.437e-06
2.43701e-06
2.437e-06
2.43703e-06
2.437e-06
2.43705e-06
2.43701e-06
2.43709e-06
2.43705e-06
2.43717e-06
2.43714e-06
2.43733e-06
2.43732e-06
2.43762e-06
2.43764e-06
2.4381e-06
2.43803e-06
2.4384e-06
2.43729e-06
2.43535e-06
2.43028e-06
2.42027e-06
2.40853e-06
2.36078e-06
2.37228e-06
2.38191e-06
2.38678e-06
2.38863e-06
2.38968e-06
2.38931e-06
2.38937e-06
2.38891e-06
2.38889e-06
2.38859e-06
2.3886e-06
2.38841e-06
2.38843e-06
2.38832e-06
2.38835e-06
2.38828e-06
2.38832e-06
2.38827e-06
2.3883e-06
2.38827e-06
2.38828e-06
2.38826e-06
2.38827e-06
2.38827e-06
2.38827e-06
2.38827e-06
2.38826e-06
2.38828e-06
2.38827e-06
2.3883e-06
2.38827e-06
2.38832e-06
2.38828e-06
2.38835e-06
2.38832e-06
2.38844e-06
2.38841e-06
2.3886e-06
2.38859e-06
2.38889e-06
2.38891e-06
2.38937e-06
2.38931e-06
2.38968e-06
2.38862e-06
2.38678e-06
2.38191e-06
2.37228e-06
2.36078e-06
2.31447e-06
2.32574e-06
2.33497e-06
2.33964e-06
2.3414e-06
2.34241e-06
2.34204e-06
2.34208e-06
2.34163e-06
2.3416e-06
2.34131e-06
2.34131e-06
2.34112e-06
2.34114e-06
2.34103e-06
2.34106e-06
2.34099e-06
2.34103e-06
2.34098e-06
2.34101e-06
2.34098e-06
2.34099e-06
2.34097e-06
2.34098e-06
2.34098e-06
2.34098e-06
2.34098e-06
2.34097e-06
2.34099e-06
2.34098e-06
2.34101e-06
2.34098e-06
2.34103e-06
2.34099e-06
2.34106e-06
2.34103e-06
2.34114e-06
2.34112e-06
2.3413e-06
2.34131e-06
2.3416e-06
2.34163e-06
2.34208e-06
2.34204e-06
2.34241e-06
2.3414e-06
2.33964e-06
2.33497e-06
2.32574e-06
2.31447e-06
2.26957e-06
2.28057e-06
2.28943e-06
2.29391e-06
2.29558e-06
2.29654e-06
2.29616e-06
2.29619e-06
2.29575e-06
2.29571e-06
2.29542e-06
2.29541e-06
2.29524e-06
2.29525e-06
2.29514e-06
2.29517e-06
2.2951e-06
2.29514e-06
2.29509e-06
2.29512e-06
2.29509e-06
2.2951e-06
2.29508e-06
2.29509e-06
2.29509e-06
2.29509e-06
2.29509e-06
2.29508e-06
2.2951e-06
2.29509e-06
2.29512e-06
2.29509e-06
2.29514e-06
2.2951e-06
2.29517e-06
2.29514e-06
2.29525e-06
2.29524e-06
2.29541e-06
2.29542e-06
2.29571e-06
2.29575e-06
2.29619e-06
2.29616e-06
2.29654e-06
2.29558e-06
2.29391e-06
2.28942e-06
2.28057e-06
2.26957e-06
2.22603e-06
2.23676e-06
2.24524e-06
2.24953e-06
2.25112e-06
2.25202e-06
2.25164e-06
2.25166e-06
2.25122e-06
2.25117e-06
2.25089e-06
2.25088e-06
2.25071e-06
2.25072e-06
2.25061e-06
2.25064e-06
2.25057e-06
2.2506e-06
2.25056e-06
2.25058e-06
2.25056e-06
2.25057e-06
2.25055e-06
2.25056e-06
2.25056e-06
2.25056e-06
2.25056e-06
2.25055e-06
2.25057e-06
2.25056e-06
2.25058e-06
2.25056e-06
2.2506e-06
2.25057e-06
2.25064e-06
2.25061e-06
2.25072e-06
2.25071e-06
2.25088e-06
2.25089e-06
2.25117e-06
2.25122e-06
2.25166e-06
2.25164e-06
2.25202e-06
2.25111e-06
2.24953e-06
2.24523e-06
2.23675e-06
2.22603e-06
2.18382e-06
2.19423e-06
2.20236e-06
2.20647e-06
2.20797e-06
2.20882e-06
2.20844e-06
2.20844e-06
2.20801e-06
2.20796e-06
2.20768e-06
2.20767e-06
2.2075e-06
2.20751e-06
2.2074e-06
2.20743e-06
2.20736e-06
2.20739e-06
2.20735e-06
2.20737e-06
2.20734e-06
2.20736e-06
2.20734e-06
2.20735e-06
2.20734e-06
2.20734e-06
2.20735e-06
2.20734e-06
2.20736e-06
2.20734e-06
2.20737e-06
2.20735e-06
2.20739e-06
2.20736e-06
2.20743e-06
2.2074e-06
2.20751e-06
2.2075e-06
2.20767e-06
2.20768e-06
2.20796e-06
2.20801e-06
2.20844e-06
2.20844e-06
2.20882e-06
2.20797e-06
2.20647e-06
2.20235e-06
2.19423e-06
2.18382e-06
2.14289e-06
2.15297e-06
2.16075e-06
2.16468e-06
2.1661e-06
2.1669e-06
2.16652e-06
2.16651e-06
2.16608e-06
2.16602e-06
2.16575e-06
2.16573e-06
2.16556e-06
2.16557e-06
2.16547e-06
2.16549e-06
2.16543e-06
2.16546e-06
2.16542e-06
2.16544e-06
2.16541e-06
2.16542e-06
2.16541e-06
2.16542e-06
2.16541e-06
2.16541e-06
2.16542e-06
2.16541e-06
2.16542e-06
2.16541e-06
2.16544e-06
2.16542e-06
2.16546e-06
2.16543e-06
2.16549e-06
2.16547e-06
2.16557e-06
2.16556e-06
2.16573e-06
2.16575e-06
2.16602e-06
2.16608e-06
2.16651e-06
2.16652e-06
2.1669e-06
2.1661e-06
2.16468e-06
2.16075e-06
2.15297e-06
2.14289e-06
2.1032e-06
2.11293e-06
2.12037e-06
2.12414e-06
2.12547e-06
2.12623e-06
2.12584e-06
2.12581e-06
2.1254e-06
2.12533e-06
2.12506e-06
2.12504e-06
2.12488e-06
2.12488e-06
2.12478e-06
2.1248e-06
2.12474e-06
2.12477e-06
2.12473e-06
2.12475e-06
2.12472e-06
2.12474e-06
2.12472e-06
2.12473e-06
2.12472e-06
2.12472e-06
2.12473e-06
2.12472e-06
2.12474e-06
2.12472e-06
2.12475e-06
2.12473e-06
2.12477e-06
2.12474e-06
2.12481e-06
2.12478e-06
2.12488e-06
2.12488e-06
2.12504e-06
2.12506e-06
2.12533e-06
2.1254e-06
2.12581e-06
2.12584e-06
2.12622e-06
2.12546e-06
2.12414e-06
2.12037e-06
2.11293e-06
2.1032e-06
2.06471e-06
2.07408e-06
2.0812e-06
2.0848e-06
2.08604e-06
2.08675e-06
2.08636e-06
2.08632e-06
2.08591e-06
2.08584e-06
2.08558e-06
2.08556e-06
2.0854e-06
2.0854e-06
2.0853e-06
2.08532e-06
2.08526e-06
2.08529e-06
2.08525e-06
2.08527e-06
2.08524e-06
2.08526e-06
2.08524e-06
2.08525e-06
2.08524e-06
2.08524e-06
2.08525e-06
2.08524e-06
2.08526e-06
2.08524e-06
2.08527e-06
2.08525e-06
2.08529e-06
2.08526e-06
2.08532e-06
2.0853e-06
2.0854e-06
2.0854e-06
2.08556e-06
2.08558e-06
2.08584e-06
2.08591e-06
2.08632e-06
2.08636e-06
2.08675e-06
2.08604e-06
2.0848e-06
2.08119e-06
2.07408e-06
2.06471e-06
2.02739e-06
2.03638e-06
2.04318e-06
2.04663e-06
2.04778e-06
2.04845e-06
2.04806e-06
2.04801e-06
2.04761e-06
2.04753e-06
2.04727e-06
2.04725e-06
2.04709e-06
2.04709e-06
2.04699e-06
2.04701e-06
2.04695e-06
2.04698e-06
2.04694e-06
2.04696e-06
2.04694e-06
2.04695e-06
2.04693e-06
2.04694e-06
2.04694e-06
2.04694e-06
2.04694e-06
2.04693e-06
2.04695e-06
2.04694e-06
2.04696e-06
2.04694e-06
2.04698e-06
2.04695e-06
2.04701e-06
2.047e-06
2.04709e-06
2.04709e-06
2.04725e-06
2.04727e-06
2.04753e-06
2.04761e-06
2.04801e-06
2.04806e-06
2.04845e-06
2.04778e-06
2.04663e-06
2.04318e-06
2.03638e-06
2.02739e-06
1.99119e-06
1.99981e-06
2.0063e-06
2.0096e-06
2.01067e-06
2.01129e-06
2.01089e-06
2.01083e-06
2.01044e-06
2.01036e-06
2.0101e-06
2.01007e-06
2.00992e-06
2.00992e-06
2.00983e-06
2.00985e-06
2.00979e-06
2.00981e-06
2.00978e-06
2.00979e-06
2.00977e-06
2.00978e-06
2.00977e-06
2.00977e-06
2.00977e-06
2.00977e-06
2.00977e-06
2.00977e-06
2.00978e-06
2.00977e-06
2.00979e-06
2.00978e-06
2.00981e-06
2.00979e-06
2.00985e-06
2.00983e-06
2.00992e-06
2.00992e-06
2.01007e-06
2.01011e-06
2.01036e-06
2.01044e-06
2.01083e-06
2.01089e-06
2.01129e-06
2.01067e-06
2.00959e-06
2.0063e-06
1.9998e-06
1.99118e-06
1.95607e-06
1.96432e-06
1.97052e-06
1.97366e-06
1.97466e-06
1.97524e-06
1.97483e-06
1.97476e-06
1.97437e-06
1.97429e-06
1.97404e-06
1.97401e-06
1.97386e-06
1.97386e-06
1.97377e-06
1.97379e-06
1.97373e-06
1.97375e-06
1.97372e-06
1.97373e-06
1.97371e-06
1.97372e-06
1.97371e-06
1.97371e-06
1.97371e-06
1.97371e-06
1.97371e-06
1.97371e-06
1.97372e-06
1.97371e-06
1.97373e-06
1.97372e-06
1.97375e-06
1.97373e-06
1.97379e-06
1.97377e-06
1.97386e-06
1.97386e-06
1.97401e-06
1.97404e-06
1.97429e-06
1.97437e-06
1.97476e-06
1.97483e-06
1.97523e-06
1.97465e-06
1.97366e-06
1.97052e-06
1.96431e-06
1.95607e-06
1.92201e-06
1.92987e-06
1.93583e-06
1.9388e-06
1.93972e-06
1.94025e-06
1.93984e-06
1.93976e-06
1.93939e-06
1.9393e-06
1.93906e-06
1.93902e-06
1.93888e-06
1.93887e-06
1.93878e-06
1.9388e-06
1.93875e-06
1.93877e-06
1.93873e-06
1.93875e-06
1.93873e-06
1.93874e-06
1.93873e-06
1.93873e-06
1.93873e-06
1.93873e-06
1.93873e-06
1.93873e-06
1.93874e-06
1.93873e-06
1.93875e-06
1.93873e-06
1.93877e-06
1.93875e-06
1.9388e-06
1.93879e-06
1.93887e-06
1.93888e-06
1.93902e-06
1.93906e-06
1.9393e-06
1.93938e-06
1.93976e-06
1.93984e-06
1.94025e-06
1.93972e-06
1.9388e-06
1.93583e-06
1.92987e-06
1.92201e-06
1.88897e-06
1.89647e-06
1.90216e-06
1.90498e-06
1.90582e-06
1.90632e-06
1.9059e-06
1.90581e-06
1.90544e-06
1.90535e-06
1.90512e-06
1.90508e-06
1.90494e-06
1.90493e-06
1.90485e-06
1.90486e-06
1.90481e-06
1.90483e-06
1.9048e-06
1.90481e-06
1.90479e-06
1.9048e-06
1.90479e-06
1.90479e-06
1.90479e-06
1.90479e-06
1.90479e-06
1.90479e-06
1.9048e-06
1.90479e-06
1.90481e-06
1.9048e-06
1.90483e-06
1.90481e-06
1.90486e-06
1.90485e-06
1.90493e-06
1.90494e-06
1.90508e-06
1.90512e-06
1.90535e-06
1.90544e-06
1.90581e-06
1.9059e-06
1.90631e-06
1.90582e-06
1.90498e-06
1.90216e-06
1.89646e-06
1.88897e-06
1.85692e-06
1.86407e-06
1.86949e-06
1.87216e-06
1.87294e-06
1.87339e-06
1.87297e-06
1.87287e-06
1.87251e-06
1.87242e-06
1.87219e-06
1.87215e-06
1.87201e-06
1.87201e-06
1.87193e-06
1.87194e-06
1.87189e-06
1.87191e-06
1.87188e-06
1.87189e-06
1.87187e-06
1.87188e-06
1.87187e-06
1.87187e-06
1.87187e-06
1.87187e-06
1.87187e-06
1.87187e-06
1.87188e-06
1.87187e-06
1.87189e-06
1.87188e-06
1.87191e-06
1.87189e-06
1.87194e-06
1.87193e-06
1.87201e-06
1.87201e-06
1.87215e-06
1.87219e-06
1.87242e-06
1.87251e-06
1.87287e-06
1.87297e-06
1.87339e-06
1.87294e-06
1.87216e-06
1.86949e-06
1.86406e-06
1.85692e-06
1.82583e-06
1.83264e-06
1.8378e-06
1.84033e-06
1.84104e-06
1.84145e-06
1.84103e-06
1.84092e-06
1.84057e-06
1.84047e-06
1.84025e-06
1.84021e-06
1.84008e-06
1.84007e-06
1.83999e-06
1.84e-06
1.83995e-06
1.83997e-06
1.83994e-06
1.83996e-06
1.83994e-06
1.83995e-06
1.83993e-06
1.83994e-06
1.83994e-06
1.83994e-06
1.83994e-06
1.83993e-06
1.83995e-06
1.83994e-06
1.83996e-06
1.83994e-06
1.83997e-06
1.83995e-06
1.84e-06
1.83999e-06
1.84007e-06
1.84008e-06
1.84021e-06
1.84025e-06
1.84047e-06
1.84057e-06
1.84092e-06
1.84103e-06
1.84145e-06
1.84104e-06
1.84033e-06
1.83779e-06
1.83264e-06
1.82583e-06
1.79567e-06
1.80216e-06
1.80704e-06
1.80945e-06
1.8101e-06
1.81047e-06
1.81004e-06
1.80992e-06
1.80958e-06
1.80948e-06
1.80927e-06
1.80923e-06
1.8091e-06
1.80909e-06
1.80901e-06
1.80902e-06
1.80897e-06
1.80899e-06
1.80896e-06
1.80898e-06
1.80896e-06
1.80897e-06
1.80896e-06
1.80896e-06
1.80896e-06
1.80896e-06
1.80896e-06
1.80896e-06
1.80897e-06
1.80896e-06
1.80898e-06
1.80896e-06
1.80899e-06
1.80897e-06
1.80902e-06
1.80901e-06
1.80909e-06
1.8091e-06
1.80923e-06
1.80927e-06
1.80948e-06
1.80958e-06
1.80992e-06
1.81004e-06
1.81047e-06
1.81009e-06
1.80944e-06
1.80704e-06
1.80216e-06
1.79566e-06
1.7664e-06
1.7726e-06
1.77719e-06
1.77948e-06
1.78007e-06
1.78041e-06
1.77997e-06
1.77985e-06
1.77952e-06
1.77942e-06
1.77921e-06
1.77917e-06
1.77904e-06
1.77904e-06
1.77896e-06
1.77897e-06
1.77892e-06
1.77894e-06
1.77891e-06
1.77893e-06
1.77891e-06
1.77892e-06
1.77891e-06
1.77891e-06
1.77891e-06
1.77891e-06
1.77891e-06
1.77891e-06
1.77892e-06
1.77891e-06
1.77893e-06
1.77891e-06
1.77894e-06
1.77892e-06
1.77897e-06
1.77896e-06
1.77904e-06
1.77904e-06
1.77917e-06
1.77921e-06
1.77942e-06
1.77952e-06
1.77985e-06
1.77997e-06
1.78041e-06
1.78007e-06
1.77948e-06
1.77719e-06
1.77259e-06
1.7664e-06
1.73899e-06
1.74492e-06
1.74924e-06
1.75143e-06
1.75197e-06
1.75227e-06
1.75182e-06
1.7517e-06
1.75137e-06
1.75128e-06
1.75107e-06
1.75103e-06
1.75091e-06
1.7509e-06
1.75083e-06
1.75084e-06
1.75079e-06
1.75081e-06
1.75078e-06
1.7508e-06
1.75078e-06
1.75079e-06
1.75077e-06
1.75078e-06
1.75078e-06
1.75078e-06
1.75078e-06
1.75077e-06
1.75079e-06
1.75078e-06
1.7508e-06
1.75078e-06
1.75081e-06
1.75079e-06
1.75084e-06
1.75083e-06
1.7509e-06
1.75091e-06
1.75103e-06
1.75107e-06
1.75127e-06
1.75137e-06
1.7517e-06
1.75182e-06
1.75227e-06
1.75197e-06
1.75143e-06
1.74924e-06
1.74492e-06
1.73898e-06
1.71216e-06
1.71788e-06
1.72183e-06
1.72388e-06
1.72429e-06
1.72451e-06
1.724e-06
1.72384e-06
1.72351e-06
1.7234e-06
1.72319e-06
1.72314e-06
1.72302e-06
1.72301e-06
1.72293e-06
1.72294e-06
1.7229e-06
1.72291e-06
1.72288e-06
1.7229e-06
1.72288e-06
1.72289e-06
1.72288e-06
1.72288e-06
1.72288e-06
1.72288e-06
1.72288e-06
1.72288e-06
1.72289e-06
1.72288e-06
1.7229e-06
1.72288e-06
1.72291e-06
1.7229e-06
1.72294e-06
1.72293e-06
1.72301e-06
1.72302e-06
1.72314e-06
1.72319e-06
1.7234e-06
1.72351e-06
1.72384e-06
1.724e-06
1.72451e-06
1.72429e-06
1.72387e-06
1.72183e-06
1.71788e-06
1.71215e-06
1.68556e-06
1.69102e-06
1.69469e-06
1.69663e-06
1.697e-06
1.69719e-06
1.69666e-06
1.69649e-06
1.69617e-06
1.69606e-06
1.69586e-06
1.69581e-06
1.69569e-06
1.69568e-06
1.69561e-06
1.69561e-06
1.69557e-06
1.69559e-06
1.69556e-06
1.69557e-06
1.69555e-06
1.69556e-06
1.69555e-06
1.69556e-06
1.69555e-06
1.69555e-06
1.69556e-06
1.69555e-06
1.69556e-06
1.69555e-06
1.69557e-06
1.69556e-06
1.69558e-06
1.69557e-06
1.69561e-06
1.69561e-06
1.69568e-06
1.69569e-06
1.69581e-06
1.69586e-06
1.69606e-06
1.69617e-06
1.69649e-06
1.69665e-06
1.69718e-06
1.69699e-06
1.69663e-06
1.69468e-06
1.69102e-06
1.68556e-06
1.65976e-06
1.66497e-06
1.66836e-06
1.67022e-06
1.67053e-06
1.67069e-06
1.67014e-06
1.66997e-06
1.66966e-06
1.66955e-06
1.66936e-06
1.66931e-06
1.66919e-06
1.66918e-06
1.66911e-06
1.66912e-06
1.66907e-06
1.66909e-06
1.66906e-06
1.66907e-06
1.66906e-06
1.66907e-06
1.66906e-06
1.66906e-06
1.66906e-06
1.66906e-06
1.66906e-06
1.66906e-06
1.66907e-06
1.66906e-06
1.66907e-06
1.66906e-06
1.66909e-06
1.66907e-06
1.66912e-06
1.66911e-06
1.66918e-06
1.66919e-06
1.66931e-06
1.66936e-06
1.66955e-06
1.66966e-06
1.66997e-06
1.67014e-06
1.67069e-06
1.67053e-06
1.67021e-06
1.66836e-06
1.66496e-06
1.65976e-06
1.63475e-06
1.63969e-06
1.64284e-06
1.6446e-06
1.64487e-06
1.645e-06
1.64442e-06
1.64425e-06
1.64395e-06
1.64384e-06
1.64365e-06
1.6436e-06
1.64349e-06
1.64348e-06
1.64341e-06
1.64342e-06
1.64338e-06
1.64339e-06
1.64337e-06
1.64338e-06
1.64336e-06
1.64337e-06
1.64336e-06
1.64337e-06
1.64336e-06
1.64336e-06
1.64337e-06
1.64336e-06
1.64337e-06
1.64336e-06
1.64338e-06
1.64337e-06
1.64339e-06
1.64338e-06
1.64342e-06
1.64341e-06
1.64348e-06
1.64349e-06
1.6436e-06
1.64365e-06
1.64384e-06
1.64395e-06
1.64425e-06
1.64442e-06
1.645e-06
1.64487e-06
1.64459e-06
1.64284e-06
1.63969e-06
1.63475e-06
1.61049e-06
1.61517e-06
1.61809e-06
1.61975e-06
1.61999e-06
1.62008e-06
1.61948e-06
1.61931e-06
1.61902e-06
1.61891e-06
1.61873e-06
1.61868e-06
1.61857e-06
1.61856e-06
1.61849e-06
1.6185e-06
1.61846e-06
1.61847e-06
1.61845e-06
1.61846e-06
1.61845e-06
1.61845e-06
1.61845e-06
1.61845e-06
1.61845e-06
1.61845e-06
1.61845e-06
1.61845e-06
1.61845e-06
1.61845e-06
1.61846e-06
1.61845e-06
1.61847e-06
1.61846e-06
1.6185e-06
1.61849e-06
1.61856e-06
1.61857e-06
1.61868e-06
1.61873e-06
1.61891e-06
1.61902e-06
1.61931e-06
1.61948e-06
1.62008e-06
1.61998e-06
1.61974e-06
1.61809e-06
1.61517e-06
1.61048e-06
1.58773e-06
1.5922e-06
1.5949e-06
1.59646e-06
1.59667e-06
1.59674e-06
1.5961e-06
1.59593e-06
1.59565e-06
1.59554e-06
1.59536e-06
1.59532e-06
1.59521e-06
1.5952e-06
1.59514e-06
1.59514e-06
1.59511e-06
1.59512e-06
1.5951e-06
1.59511e-06
1.59509e-06
1.5951e-06
1.59509e-06
1.5951e-06
1.59509e-06
1.59509e-06
1.5951e-06
1.59509e-06
1.5951e-06
1.59509e-06
1.59511e-06
1.5951e-06
1.59512e-06
1.59511e-06
1.59514e-06
1.59514e-06
1.5952e-06
1.59521e-06
1.59532e-06
1.59536e-06
1.59554e-06
1.59565e-06
1.59593e-06
1.5961e-06
1.59674e-06
1.59666e-06
1.59646e-06
1.59489e-06
1.5922e-06
1.58773e-06
1.56571e-06
1.56996e-06
1.57245e-06
1.57393e-06
1.5741e-06
1.57416e-06
1.57346e-06
1.57327e-06
1.57297e-06
1.57284e-06
1.57266e-06
1.5726e-06
1.57249e-06
1.57248e-06
1.57241e-06
1.57241e-06
1.57238e-06
1.57239e-06
1.57236e-06
1.57237e-06
1.57236e-06
1.57237e-06
1.57236e-06
1.57236e-06
1.57236e-06
1.57236e-06
1.57236e-06
1.57236e-06
1.57237e-06
1.57236e-06
1.57237e-06
1.57236e-06
1.57239e-06
1.57238e-06
1.57241e-06
1.57241e-06
1.57248e-06
1.57249e-06
1.5726e-06
1.57266e-06
1.57284e-06
1.57297e-06
1.57327e-06
1.57346e-06
1.57416e-06
1.5741e-06
1.57393e-06
1.57245e-06
1.56995e-06
1.5657e-06
1.54375e-06
1.54779e-06
1.55007e-06
1.55145e-06
1.55156e-06
1.55159e-06
1.55083e-06
1.55063e-06
1.55033e-06
1.5502e-06
1.55002e-06
1.54996e-06
1.54985e-06
1.54983e-06
1.54977e-06
1.54977e-06
1.54973e-06
1.54974e-06
1.54972e-06
1.54973e-06
1.54972e-06
1.54972e-06
1.54971e-06
1.54972e-06
1.54971e-06
1.54972e-06
1.54972e-06
1.54971e-06
1.54972e-06
1.54972e-06
1.54973e-06
1.54972e-06
1.54974e-06
1.54973e-06
1.54977e-06
1.54977e-06
1.54983e-06
1.54985e-06
1.54996e-06
1.55001e-06
1.5502e-06
1.55033e-06
1.55063e-06
1.55083e-06
1.55159e-06
1.55156e-06
1.55145e-06
1.55007e-06
1.54779e-06
1.54375e-06
1.52237e-06
1.52617e-06
1.52827e-06
1.52956e-06
1.52965e-06
1.52967e-06
1.52957e-06
1.52937e-06
1.52908e-06
1.52895e-06
1.52877e-06
1.52871e-06
1.52861e-06
1.52859e-06
1.52853e-06
1.52853e-06
1.5285e-06
1.52851e-06
1.52848e-06
1.52849e-06
1.52848e-06
1.52849e-06
1.52848e-06
1.52848e-06
1.52848e-06
1.52848e-06
1.52848e-06
1.52848e-06
1.52849e-06
1.52848e-06
1.52849e-06
1.52848e-06
1.52851e-06
1.5285e-06
1.52853e-06
1.52853e-06
1.52859e-06
1.52861e-06
1.52871e-06
1.52877e-06
1.52895e-06
1.52908e-06
1.52937e-06
1.52957e-06
1.52967e-06
1.52965e-06
1.52956e-06
1.52827e-06
1.52617e-06
1.52236e-06
1.5023e-06
1.5059e-06
1.50783e-06
1.50904e-06
1.5091e-06
1.50911e-06
1.50898e-06
1.50879e-06
1.50851e-06
1.50838e-06
1.50821e-06
1.50815e-06
1.50805e-06
1.50803e-06
1.50797e-06
1.50797e-06
1.50794e-06
1.50795e-06
1.50793e-06
1.50793e-06
1.50792e-06
1.50793e-06
1.50792e-06
1.50792e-06
1.50792e-06
1.50792e-06
1.50792e-06
1.50792e-06
1.50793e-06
1.50792e-06
1.50793e-06
1.50792e-06
1.50795e-06
1.50794e-06
1.50797e-06
1.50797e-06
1.50803e-06
1.50805e-06
1.50815e-06
1.50821e-06
1.50838e-06
1.50851e-06
1.50879e-06
1.50898e-06
1.50911e-06
1.5091e-06
1.50903e-06
1.50783e-06
1.5059e-06
1.5023e-06
1.48275e-06
1.48622e-06
1.48794e-06
1.48904e-06
1.489e-06
1.48898e-06
1.4888e-06
1.48859e-06
1.4883e-06
1.48816e-06
1.48798e-06
1.48792e-06
1.48782e-06
1.4878e-06
1.48773e-06
1.48774e-06
1.4877e-06
1.48771e-06
1.48769e-06
1.4877e-06
1.48768e-06
1.48769e-06
1.48768e-06
1.48769e-06
1.48768e-06
1.48768e-06
1.48769e-06
1.48768e-06
1.48769e-06
1.48768e-06
1.4877e-06
1.48769e-06
1.48771e-06
1.4877e-06
1.48774e-06
1.48773e-06
1.48779e-06
1.48782e-06
1.48792e-06
1.48798e-06
1.48816e-06
1.4883e-06
1.48859e-06
1.4888e-06
1.48898e-06
1.489e-06
1.48904e-06
1.48793e-06
1.48621e-06
1.48274e-06
1.46391e-06
1.46719e-06
1.46875e-06
1.46978e-06
1.46972e-06
1.46968e-06
1.46948e-06
1.46928e-06
1.46899e-06
1.46885e-06
1.46868e-06
1.46862e-06
1.46852e-06
1.4685e-06
1.46844e-06
1.46844e-06
1.4684e-06
1.46841e-06
1.46839e-06
1.4684e-06
1.46839e-06
1.46839e-06
1.46839e-06
1.46839e-06
1.46839e-06
1.46839e-06
1.46839e-06
1.46839e-06
1.46839e-06
1.46839e-06
1.4684e-06
1.46839e-06
1.46841e-06
1.4684e-06
1.46844e-06
1.46844e-06
1.4685e-06
1.46852e-06
1.46862e-06
1.46868e-06
1.46885e-06
1.46899e-06
1.46927e-06
1.46948e-06
1.46968e-06
1.46972e-06
1.46978e-06
1.46875e-06
1.46719e-06
1.46391e-06
1.44567e-06
1.44877e-06
1.45017e-06
1.45113e-06
1.45104e-06
1.45099e-06
1.45077e-06
1.45057e-06
1.45029e-06
1.45015e-06
1.44998e-06
1.44992e-06
1.44982e-06
1.4498e-06
1.44975e-06
1.44975e-06
1.44971e-06
1.44972e-06
1.4497e-06
1.44971e-06
1.4497e-06
1.4497e-06
1.4497e-06
1.4497e-06
1.4497e-06
1.4497e-06
1.4497e-06
1.4497e-06
1.4497e-06
1.4497e-06
1.44971e-06
1.4497e-06
1.44972e-06
1.44971e-06
1.44975e-06
1.44975e-06
1.4498e-06
1.44982e-06
1.44992e-06
1.44998e-06
1.45015e-06
1.45029e-06
1.45057e-06
1.45077e-06
1.45099e-06
1.45104e-06
1.45112e-06
1.45016e-06
1.44877e-06
1.44566e-06
1.4316e-06
1.43161e-06
1.43159e-06
1.4316e-06
1.43159e-06
1.4316e-06
1.43159e-06
1.43159e-06
1.4316e-06
1.43159e-06
1.4316e-06
1.43159e-06
1.43161e-06
1.4316e-06
1.43162e-06
1.43161e-06
1.43164e-06
1.43164e-06
1.4317e-06
1.43172e-06
1.43181e-06
1.43187e-06
1.43203e-06
1.43217e-06
1.43244e-06
1.43265e-06
1.43288e-06
1.43294e-06
1.43305e-06
1.43216e-06
1.43091e-06
1.42798e-06
1.41406e-06
1.41405e-06
1.41406e-06
1.41405e-06
1.41407e-06
1.41407e-06
1.4141e-06
1.4141e-06
1.41415e-06
1.41417e-06
1.41426e-06
1.41432e-06
1.41448e-06
1.41462e-06
1.41488e-06
1.41509e-06
1.41533e-06
1.4154e-06
1.41554e-06
1.41471e-06
1.41361e-06
1.41085e-06
1.39747e-06
1.3976e-06
1.39786e-06
1.39807e-06
1.39832e-06
1.39841e-06
1.39856e-06
1.3978e-06
1.39683e-06
1.39423e-06
)
;

boundaryField
{
    fuel
    {
        type            fixedValue;
        value           nonuniform 0();
    }
    wall
    {
        type            zeroGradient;
    }
    outlet
    {
        type            zeroGradient;
    }
    frontAndBack
    {
        type            empty;
    }
    procBoundary0to1
    {
        type            processor;
        value           nonuniform List<scalar> 
50
(
2.84882e-06
2.86241e-06
2.87532e-06
2.88197e-06
2.88454e-06
2.886e-06
2.88564e-06
2.88585e-06
2.88533e-06
2.88539e-06
2.88506e-06
2.88512e-06
2.88491e-06
2.88497e-06
2.88484e-06
2.88489e-06
2.8848e-06
2.88485e-06
2.8848e-06
2.88483e-06
2.8848e-06
2.88481e-06
2.88479e-06
2.8848e-06
2.8848e-06
2.8848e-06
2.8848e-06
2.88479e-06
2.88481e-06
2.8848e-06
2.88483e-06
2.8848e-06
2.88485e-06
2.8848e-06
2.88489e-06
2.88484e-06
2.88497e-06
2.88491e-06
2.88512e-06
2.88506e-06
2.88539e-06
2.88533e-06
2.88585e-06
2.88564e-06
2.886e-06
2.88454e-06
2.88197e-06
2.87532e-06
2.86241e-06
2.84882e-06
)
;
    }
    procBoundary0to2
    {
        type            processor;
        value           nonuniform List<scalar> 
53
(
1.42799e-06
1.43091e-06
1.43216e-06
1.43305e-06
1.43294e-06
1.43288e-06
1.43265e-06
1.43244e-06
1.43217e-06
1.43203e-06
1.43187e-06
1.43181e-06
1.43172e-06
1.4317e-06
1.43164e-06
1.43164e-06
1.43161e-06
1.43162e-06
1.43162e-06
1.41405e-06
1.41406e-06
1.41405e-06
1.41406e-06
1.41405e-06
1.41405e-06
1.41405e-06
1.41405e-06
1.41405e-06
1.41405e-06
1.41405e-06
1.39705e-06
1.39705e-06
1.39706e-06
1.39705e-06
1.39707e-06
1.39706e-06
1.39709e-06
1.39709e-06
1.39714e-06
1.39716e-06
1.39725e-06
1.39731e-06
1.39731e-06
1.38097e-06
1.38111e-06
1.38136e-06
1.38157e-06
1.38182e-06
1.38193e-06
1.3821e-06
1.38141e-06
1.38055e-06
1.37812e-06
)
;
    }
}


// ************************************************************************* //
