/*--------------------------------*- C++ -*----------------------------------*\
| =========                 |                                                 |
| \\      /  F ield         | OpenFOAM: The Open Source CFD Toolbox           |
|  \\    /   O peration     | Version:  dev                                   |
|   \\  /    A nd           | Web:      www.OpenFOAM.org                      |
|    \\/     M anipulation  |                                                 |
\*---------------------------------------------------------------------------*/
FoamFile
{
    version     2.0;
    format      ascii;
    class       volScalarField;
    location    "0.065";
    object      H2O;
}
// * * * * * * * * * * * * * * * * * * * * * * * * * * * * * * * * * * * * * //

dimensions      [0 0 0 0 0 0 0];

internalField   nonuniform List<scalar> 
250
(
0.0594733
0.0594843
0.0594672
0.0594984
0.0594858
0.0595524
0.0596691
0.0599072
0.0605442
0.0606166
0.0593063
0.0593174
0.0593006
0.0593311
0.0593187
0.0593834
0.0594937
0.0597266
0.0603194
0.0604928
0.0611807
0.0599827
0.0596892
0.0592469
0.0592657
0.0591337
0.0591836
0.059135
0.0591609
0.0591456
0.0591475
0.0591587
0.0591422
0.0591719
0.0591598
0.0592223
0.0593264
0.0595519
0.0601198
0.0603576
0.0609418
0.0597877
0.0595093
0.0590908
0.0591086
0.0589832
0.0590307
0.0589841
0.0590091
0.0589944
0.058996
0.0590073
0.0589911
0.0590199
0.0590081
0.0590682
0.0591665
0.0593825
0.0599262
0.0602112
0.0606929
0.0595958
0.059336
0.0589412
0.0589583
0.0588392
0.0588844
0.0588397
0.0588639
0.0588496
0.058851
0.0588623
0.0588464
0.0588743
0.0588629
0.0589205
0.0590133
0.0592182
0.0597364
0.0600544
0.0604359
0.059404
0.0591688
0.0587975
0.058814
0.0587009
0.0587439
0.0587012
0.0587245
0.0587107
0.0587119
0.0587232
0.0587076
0.0587345
0.0587235
0.0587784
0.0588662
0.059059
0.0595493
0.0598886
0.0601658
0.0592221
0.0590077
0.0586595
0.0586755
0.0585682
0.058609
0.0585681
0.0585906
0.0585772
0.0585782
0.0585894
0.0585742
0.0586001
0.0585895
0.0586415
0.0587248
0.0589053
0.0593652
0.0597158
0.0598999
0.0590473
0.0588527
0.0585271
0.0585426
0.058441
0.0584794
0.0584406
0.0584621
0.0584493
0.05845
0.0584611
0.0584464
0.0584712
0.0584609
0.0585097
0.0585802
0.0587501
0.0591846
0.0595382
0.0596451
0.0588801
0.0587041
0.0583969
0.0584113
0.0583198
0.0583557
0.0583191
0.0583395
0.0583273
0.0583278
0.0583386
0.0583244
0.058348
0.0583382
0.0583837
0.0584488
0.0586066
0.0590088
0.0593583
0.0594097
0.0587117
0.0585536
0.0582769
0.0582901
0.0582054
0.0582385
0.0582045
0.0582236
0.058212
0.0582124
0.0582228
0.0582093
0.0582314
0.0582222
0.0582642
0.0583241
0.0584695
0.0588392
0.0591786
0.0591916
0.0585604
0.0584175
0.0581651
0.0581764
0.0580992
0.0581291
0.0580979
0.0581155
0.0581048
0.058105
0.0581148
0.0581022
0.0581227
0.0581142
0.0581525
0.0582072
0.0583402
0.0586773
0.0589906
0.0589781
0.0584199
0.0582899
0.0580628
0.0580715
0.0580023
0.0580287
0.0580007
0.0580166
0.0580068
0.0580068
0.058016
0.0580044
0.058023
0.0580154
0.0580501
0.0580995
0.0582204
0.0585249
0.0588209
0.0587912
0.0582913
0.0581729
0.0579711
0.0579769
0.0579159
0.0579386
0.057914
0.057928
0.0579193
0.0579192
0.0579275
0.0579171
0.0579337
0.0579271
0.0579582
0.0580024
0.0581115
0.0583837
0.0586608
0.0578429
0.0578504
0.0578412
0.0578557
0.0578502
0.0578778
0.0579168
0.0580146
0.0582552
0.0585114
)
;

boundaryField
{
    fuel
    {
        type            fixedValue;
        value           nonuniform 0();
    }
    wall
    {
        type            zeroGradient;
    }
    outlet
    {
        type            zeroGradient;
    }
    frontAndBack
    {
        type            empty;
    }
    procBoundary0to1
    {
        type            processor;
        value           nonuniform List<scalar> 
21
(
0.0586194
0.0581757
0.0580679
0.057891
0.0578935
0.057841
0.0578598
0.0578387
0.0578507
0.0578431
0.0578431
0.0577783
0.0577849
0.057777
0.0577894
0.057785
0.0578092
0.0578434
0.0579304
0.0581405
0.0583742
)
;
    }
    procBoundary0to2
    {
        type            processor;
        value           nonuniform List<scalar> 
12
(
0.0594708
0.0614061
0.0602067
0.0598759
0.05941
0.0594303
0.0592914
0.0593438
0.0592932
0.05932
0.0593041
0.0593041
)
;
    }
    procBoundary0to3
    {
        type            processor;
        value           nonuniform List<scalar> 10(0.0596494 0.0596602 0.0596431 0.0596748 0.059662 0.0597302 0.059853 0.0601099 0.060751 0.0607279);
    }
}


// ************************************************************************* //
