/*--------------------------------*- C++ -*----------------------------------*\
| =========                 |                                                 |
| \\      /  F ield         | OpenFOAM: The Open Source CFD Toolbox           |
|  \\    /   O peration     | Version:  dev                                   |
|   \\  /    A nd           | Web:      www.OpenFOAM.org                      |
|    \\/     M anipulation  |                                                 |
\*---------------------------------------------------------------------------*/
FoamFile
{
    version     2.0;
    format      ascii;
    class       volScalarField;
    location    "0.065";
    object      HCCO;
}
// * * * * * * * * * * * * * * * * * * * * * * * * * * * * * * * * * * * * * //

dimensions      [0 0 0 0 0 0 0];

internalField   nonuniform List<scalar> 
2014
(
1.15153e-06
1.1566e-06
1.16167e-06
1.16434e-06
1.16548e-06
1.16607e-06
1.16599e-06
1.16603e-06
1.16583e-06
1.16582e-06
1.16568e-06
1.16567e-06
1.16558e-06
1.16558e-06
1.16553e-06
1.16553e-06
1.1655e-06
1.16551e-06
1.16549e-06
1.1655e-06
1.16548e-06
1.16549e-06
1.16548e-06
1.16548e-06
1.16548e-06
1.16548e-06
1.16548e-06
1.16548e-06
1.16549e-06
1.16548e-06
1.1655e-06
1.16549e-06
1.16551e-06
1.1655e-06
1.16553e-06
1.16553e-06
1.16558e-06
1.16558e-06
1.16567e-06
1.16568e-06
1.16582e-06
1.16583e-06
1.16603e-06
1.16599e-06
1.16607e-06
1.16547e-06
1.16434e-06
1.16167e-06
1.1566e-06
1.15153e-06
1.13194e-06
1.13689e-06
1.1418e-06
1.14438e-06
1.14547e-06
1.14605e-06
1.14595e-06
1.14599e-06
1.14579e-06
1.14576e-06
1.14562e-06
1.14561e-06
1.14552e-06
1.14552e-06
1.14547e-06
1.14547e-06
1.14544e-06
1.14545e-06
1.14543e-06
1.14543e-06
1.14542e-06
1.14542e-06
1.14542e-06
1.14542e-06
1.14542e-06
1.14542e-06
1.14542e-06
1.14542e-06
1.14542e-06
1.14542e-06
1.14543e-06
1.14543e-06
1.14545e-06
1.14544e-06
1.14547e-06
1.14547e-06
1.14552e-06
1.14552e-06
1.14561e-06
1.14562e-06
1.14576e-06
1.14579e-06
1.14599e-06
1.14595e-06
1.14605e-06
1.14547e-06
1.14438e-06
1.1418e-06
1.13689e-06
1.13193e-06
1.11296e-06
1.11781e-06
1.12256e-06
1.12505e-06
1.1261e-06
1.12665e-06
1.12655e-06
1.12657e-06
1.12637e-06
1.12634e-06
1.1262e-06
1.12619e-06
1.1261e-06
1.12609e-06
1.12604e-06
1.12604e-06
1.12601e-06
1.12602e-06
1.126e-06
1.126e-06
1.12599e-06
1.12599e-06
1.12599e-06
1.12599e-06
1.12599e-06
1.12599e-06
1.12599e-06
1.12599e-06
1.12599e-06
1.12599e-06
1.126e-06
1.126e-06
1.12602e-06
1.12601e-06
1.12604e-06
1.12604e-06
1.12609e-06
1.1261e-06
1.12619e-06
1.1262e-06
1.12634e-06
1.12637e-06
1.12657e-06
1.12655e-06
1.12665e-06
1.1261e-06
1.12505e-06
1.12256e-06
1.11781e-06
1.11296e-06
1.09453e-06
1.09929e-06
1.10387e-06
1.10627e-06
1.10728e-06
1.1078e-06
1.1077e-06
1.10771e-06
1.1075e-06
1.10747e-06
1.10733e-06
1.10731e-06
1.10722e-06
1.10721e-06
1.10716e-06
1.10716e-06
1.10713e-06
1.10714e-06
1.10711e-06
1.10712e-06
1.10711e-06
1.10711e-06
1.1071e-06
1.10711e-06
1.1071e-06
1.1071e-06
1.10711e-06
1.1071e-06
1.10711e-06
1.10711e-06
1.10712e-06
1.10711e-06
1.10714e-06
1.10713e-06
1.10716e-06
1.10716e-06
1.10721e-06
1.10722e-06
1.10731e-06
1.10733e-06
1.10747e-06
1.1075e-06
1.10771e-06
1.1077e-06
1.1078e-06
1.10728e-06
1.10627e-06
1.10387e-06
1.09929e-06
1.09453e-06
1.07657e-06
1.08124e-06
1.08566e-06
1.08797e-06
1.08894e-06
1.08944e-06
1.08932e-06
1.08932e-06
1.08911e-06
1.08907e-06
1.08893e-06
1.08891e-06
1.08882e-06
1.08881e-06
1.08876e-06
1.08876e-06
1.08872e-06
1.08873e-06
1.08871e-06
1.08872e-06
1.0887e-06
1.08871e-06
1.0887e-06
1.0887e-06
1.0887e-06
1.0887e-06
1.0887e-06
1.0887e-06
1.08871e-06
1.0887e-06
1.08872e-06
1.08871e-06
1.08873e-06
1.08872e-06
1.08876e-06
1.08876e-06
1.08881e-06
1.08882e-06
1.08891e-06
1.08893e-06
1.08907e-06
1.08911e-06
1.08932e-06
1.08932e-06
1.08943e-06
1.08894e-06
1.08797e-06
1.08566e-06
1.08124e-06
1.07657e-06
1.05904e-06
1.06361e-06
1.06788e-06
1.0701e-06
1.07102e-06
1.07149e-06
1.07136e-06
1.07135e-06
1.07115e-06
1.0711e-06
1.07095e-06
1.07093e-06
1.07084e-06
1.07083e-06
1.07077e-06
1.07077e-06
1.07074e-06
1.07075e-06
1.07073e-06
1.07073e-06
1.07072e-06
1.07072e-06
1.07071e-06
1.07072e-06
1.07071e-06
1.07071e-06
1.07072e-06
1.07071e-06
1.07072e-06
1.07072e-06
1.07073e-06
1.07073e-06
1.07075e-06
1.07074e-06
1.07077e-06
1.07077e-06
1.07083e-06
1.07084e-06
1.07093e-06
1.07096e-06
1.0711e-06
1.07115e-06
1.07135e-06
1.07136e-06
1.07149e-06
1.07102e-06
1.0701e-06
1.06788e-06
1.06361e-06
1.05904e-06
1.04187e-06
1.04637e-06
1.05047e-06
1.0526e-06
1.05347e-06
1.05392e-06
1.05378e-06
1.05376e-06
1.05355e-06
1.0535e-06
1.05335e-06
1.05332e-06
1.05323e-06
1.05322e-06
1.05316e-06
1.05316e-06
1.05313e-06
1.05314e-06
1.05312e-06
1.05312e-06
1.05311e-06
1.05311e-06
1.0531e-06
1.05311e-06
1.0531e-06
1.0531e-06
1.05311e-06
1.0531e-06
1.05311e-06
1.05311e-06
1.05312e-06
1.05312e-06
1.05314e-06
1.05313e-06
1.05316e-06
1.05316e-06
1.05322e-06
1.05323e-06
1.05332e-06
1.05335e-06
1.0535e-06
1.05355e-06
1.05376e-06
1.05378e-06
1.05392e-06
1.05347e-06
1.0526e-06
1.05047e-06
1.04637e-06
1.04187e-06
1.02504e-06
1.02945e-06
1.0334e-06
1.03544e-06
1.03626e-06
1.03668e-06
1.03653e-06
1.0365e-06
1.03629e-06
1.03623e-06
1.03608e-06
1.03605e-06
1.03596e-06
1.03594e-06
1.03589e-06
1.03589e-06
1.03585e-06
1.03586e-06
1.03584e-06
1.03584e-06
1.03583e-06
1.03583e-06
1.03582e-06
1.03583e-06
1.03582e-06
1.03582e-06
1.03583e-06
1.03582e-06
1.03583e-06
1.03583e-06
1.03584e-06
1.03584e-06
1.03586e-06
1.03585e-06
1.03589e-06
1.03589e-06
1.03594e-06
1.03596e-06
1.03605e-06
1.03608e-06
1.03623e-06
1.03629e-06
1.0365e-06
1.03653e-06
1.03668e-06
1.03626e-06
1.03544e-06
1.0334e-06
1.02945e-06
1.02504e-06
1.0085e-06
1.01284e-06
1.01662e-06
1.01858e-06
1.01935e-06
1.01974e-06
1.01958e-06
1.01954e-06
1.01932e-06
1.01926e-06
1.01911e-06
1.01907e-06
1.01898e-06
1.01896e-06
1.01891e-06
1.01891e-06
1.01887e-06
1.01888e-06
1.01886e-06
1.01886e-06
1.01885e-06
1.01885e-06
1.01884e-06
1.01884e-06
1.01884e-06
1.01884e-06
1.01884e-06
1.01884e-06
1.01885e-06
1.01885e-06
1.01886e-06
1.01886e-06
1.01888e-06
1.01887e-06
1.01891e-06
1.01891e-06
1.01896e-06
1.01898e-06
1.01907e-06
1.01911e-06
1.01925e-06
1.01932e-06
1.01954e-06
1.01958e-06
1.01974e-06
1.01935e-06
1.01857e-06
1.01662e-06
1.01284e-06
1.0085e-06
9.92241e-07
9.96488e-07
1.00011e-06
1.00198e-06
1.00271e-06
1.00307e-06
1.0029e-06
1.00284e-06
1.00262e-06
1.00255e-06
1.0024e-06
1.00236e-06
1.00227e-06
1.00225e-06
1.0022e-06
1.00219e-06
1.00216e-06
1.00216e-06
1.00214e-06
1.00215e-06
1.00213e-06
1.00214e-06
1.00213e-06
1.00213e-06
1.00213e-06
1.00213e-06
1.00213e-06
1.00213e-06
1.00214e-06
1.00213e-06
1.00215e-06
1.00214e-06
1.00216e-06
1.00216e-06
1.00219e-06
1.0022e-06
1.00225e-06
1.00227e-06
1.00236e-06
1.0024e-06
1.00255e-06
1.00262e-06
1.00284e-06
1.0029e-06
1.00307e-06
1.00271e-06
1.00198e-06
1.00011e-06
9.96488e-07
9.9224e-07
9.76224e-07
9.8038e-07
9.83848e-07
9.85632e-07
9.86308e-07
9.8664e-07
9.86454e-07
9.86391e-07
9.86165e-07
9.86088e-07
9.85938e-07
9.85895e-07
9.85801e-07
9.85782e-07
9.85726e-07
9.85722e-07
9.85687e-07
9.85691e-07
9.8567e-07
9.85674e-07
9.85661e-07
9.85663e-07
9.85655e-07
9.85657e-07
9.85655e-07
9.85655e-07
9.85657e-07
9.85655e-07
9.85663e-07
9.8566e-07
9.85674e-07
9.8567e-07
9.85691e-07
9.85687e-07
9.85722e-07
9.85726e-07
9.85782e-07
9.85801e-07
9.85894e-07
9.85938e-07
9.86088e-07
9.86165e-07
9.8639e-07
9.86453e-07
9.86639e-07
9.86307e-07
9.85631e-07
9.83846e-07
9.80379e-07
9.76224e-07
9.60431e-07
9.64487e-07
9.678e-07
9.69502e-07
9.70128e-07
9.7043e-07
9.7023e-07
9.70156e-07
9.69926e-07
9.69844e-07
9.69691e-07
9.69645e-07
9.69551e-07
9.6953e-07
9.69473e-07
9.69468e-07
9.69434e-07
9.69437e-07
9.69416e-07
9.69419e-07
9.69406e-07
9.69408e-07
9.69401e-07
9.69402e-07
9.694e-07
9.694e-07
9.69402e-07
9.69401e-07
9.69408e-07
9.69406e-07
9.69419e-07
9.69416e-07
9.69437e-07
9.69434e-07
9.69468e-07
9.69473e-07
9.6953e-07
9.69551e-07
9.69645e-07
9.69691e-07
9.69843e-07
9.69926e-07
9.70155e-07
9.70229e-07
9.70429e-07
9.70128e-07
9.69501e-07
9.67798e-07
9.64487e-07
9.6043e-07
9.44842e-07
9.48789e-07
9.5195e-07
9.53571e-07
9.54148e-07
9.54419e-07
9.54205e-07
9.54119e-07
9.53885e-07
9.53797e-07
9.53643e-07
9.53594e-07
9.53498e-07
9.53476e-07
9.53419e-07
9.53413e-07
9.53378e-07
9.53381e-07
9.5336e-07
9.53363e-07
9.53349e-07
9.53352e-07
9.53344e-07
9.53346e-07
9.53343e-07
9.53343e-07
9.53346e-07
9.53344e-07
9.53352e-07
9.53349e-07
9.53363e-07
9.53359e-07
9.5338e-07
9.53378e-07
9.53413e-07
9.53419e-07
9.53476e-07
9.53498e-07
9.53593e-07
9.53643e-07
9.53797e-07
9.53885e-07
9.54118e-07
9.54204e-07
9.54418e-07
9.54147e-07
9.5357e-07
9.51948e-07
9.48789e-07
9.44841e-07
9.29437e-07
9.33267e-07
9.36279e-07
9.37822e-07
9.38347e-07
9.38588e-07
9.38359e-07
9.38261e-07
9.38024e-07
9.3793e-07
9.37774e-07
9.37721e-07
9.37625e-07
9.37602e-07
9.37544e-07
9.37537e-07
9.37502e-07
9.37504e-07
9.37483e-07
9.37485e-07
9.37472e-07
9.37474e-07
9.37466e-07
9.37468e-07
9.37466e-07
9.37466e-07
9.37468e-07
9.37467e-07
9.37474e-07
9.37472e-07
9.37485e-07
9.37482e-07
9.37503e-07
9.37502e-07
9.37537e-07
9.37544e-07
9.37601e-07
9.37625e-07
9.37721e-07
9.37774e-07
9.3793e-07
9.38023e-07
9.38261e-07
9.38358e-07
9.38587e-07
9.38346e-07
9.37821e-07
9.36278e-07
9.33267e-07
9.29435e-07
9.14198e-07
9.17905e-07
9.20771e-07
9.22238e-07
9.2271e-07
9.2292e-07
9.22676e-07
9.22567e-07
9.22325e-07
9.22225e-07
9.22067e-07
9.22012e-07
9.21915e-07
9.21889e-07
9.21831e-07
9.21823e-07
9.21788e-07
9.21789e-07
9.21768e-07
9.21771e-07
9.21757e-07
9.21759e-07
9.21752e-07
9.21753e-07
9.21751e-07
9.21751e-07
9.21753e-07
9.21752e-07
9.21759e-07
9.21757e-07
9.2177e-07
9.21768e-07
9.21789e-07
9.21788e-07
9.21823e-07
9.21831e-07
9.21889e-07
9.21915e-07
9.22011e-07
9.22067e-07
9.22225e-07
9.22324e-07
9.22566e-07
9.22675e-07
9.22919e-07
9.22709e-07
9.22237e-07
9.2077e-07
9.17905e-07
9.14197e-07
8.9911e-07
9.02689e-07
9.0541e-07
9.06802e-07
9.0722e-07
9.074e-07
9.0714e-07
9.07019e-07
9.06773e-07
9.06668e-07
9.06507e-07
9.06449e-07
9.06351e-07
9.06324e-07
9.06265e-07
9.06257e-07
9.06221e-07
9.06222e-07
9.06201e-07
9.06203e-07
9.0619e-07
9.06191e-07
9.06184e-07
9.06185e-07
9.06183e-07
9.06183e-07
9.06185e-07
9.06184e-07
9.06191e-07
9.06189e-07
9.06203e-07
9.062e-07
9.06222e-07
9.06221e-07
9.06256e-07
9.06265e-07
9.06324e-07
9.06351e-07
9.06449e-07
9.06507e-07
9.06667e-07
9.06772e-07
9.07018e-07
9.07139e-07
9.07399e-07
9.07219e-07
9.06801e-07
9.05409e-07
9.02688e-07
8.99109e-07
8.84156e-07
8.87603e-07
8.90182e-07
8.915e-07
8.91864e-07
8.92013e-07
8.91737e-07
8.91604e-07
8.91353e-07
8.91243e-07
8.9108e-07
8.91019e-07
8.9092e-07
8.90892e-07
8.90832e-07
8.90823e-07
8.90787e-07
8.90787e-07
8.90766e-07
8.90768e-07
8.90755e-07
8.90756e-07
8.90749e-07
8.9075e-07
8.90748e-07
8.90748e-07
8.9075e-07
8.90749e-07
8.90756e-07
8.90754e-07
8.90768e-07
8.90766e-07
8.90787e-07
8.90787e-07
8.90823e-07
8.90832e-07
8.90891e-07
8.9092e-07
8.91019e-07
8.9108e-07
8.91242e-07
8.91353e-07
8.91603e-07
8.91736e-07
8.92012e-07
8.91863e-07
8.91498e-07
8.9018e-07
8.87602e-07
8.84155e-07
8.69322e-07
8.72635e-07
8.75073e-07
8.76317e-07
8.76629e-07
8.76746e-07
8.76453e-07
8.76308e-07
8.76053e-07
8.75937e-07
8.75773e-07
8.75708e-07
8.75608e-07
8.75578e-07
8.75518e-07
8.75508e-07
8.75472e-07
8.75472e-07
8.7545e-07
8.75452e-07
8.75439e-07
8.7544e-07
8.75433e-07
8.75434e-07
8.75432e-07
8.75432e-07
8.75434e-07
8.75433e-07
8.7544e-07
8.75438e-07
8.75452e-07
8.7545e-07
8.75471e-07
8.75472e-07
8.75508e-07
8.75518e-07
8.75578e-07
8.75608e-07
8.75708e-07
8.75772e-07
8.75936e-07
8.76052e-07
8.76307e-07
8.76452e-07
8.76745e-07
8.76628e-07
8.76316e-07
8.75072e-07
8.72634e-07
8.69321e-07
8.54594e-07
8.57771e-07
8.60072e-07
8.61242e-07
8.615e-07
8.61586e-07
8.61276e-07
8.61119e-07
8.60859e-07
8.60737e-07
8.60571e-07
8.60504e-07
8.60403e-07
8.60371e-07
8.60311e-07
8.603e-07
8.60264e-07
8.60263e-07
8.60241e-07
8.60243e-07
8.60229e-07
8.60231e-07
8.60223e-07
8.60224e-07
8.60222e-07
8.60222e-07
8.60224e-07
8.60223e-07
8.60231e-07
8.60229e-07
8.60242e-07
8.60241e-07
8.60262e-07
8.60263e-07
8.603e-07
8.60311e-07
8.60371e-07
8.60403e-07
8.60504e-07
8.60571e-07
8.60737e-07
8.60858e-07
8.61118e-07
8.61275e-07
8.61585e-07
8.61499e-07
8.61241e-07
8.60071e-07
8.5777e-07
8.54593e-07
8.39959e-07
8.42996e-07
8.45172e-07
8.46262e-07
8.46467e-07
8.46521e-07
8.46193e-07
8.46023e-07
8.45759e-07
8.45632e-07
8.45464e-07
8.45394e-07
8.45292e-07
8.45259e-07
8.45198e-07
8.45186e-07
8.45149e-07
8.45148e-07
8.45126e-07
8.45128e-07
8.45114e-07
8.45116e-07
8.45108e-07
8.45109e-07
8.45107e-07
8.45107e-07
8.45109e-07
8.45108e-07
8.45115e-07
8.45114e-07
8.45127e-07
8.45126e-07
8.45148e-07
8.45149e-07
8.45186e-07
8.45198e-07
8.45259e-07
8.45292e-07
8.45393e-07
8.45463e-07
8.45631e-07
8.45758e-07
8.46022e-07
8.46192e-07
8.4652e-07
8.46466e-07
8.4626e-07
8.4517e-07
8.42995e-07
8.39957e-07
8.25403e-07
8.28306e-07
8.30351e-07
8.31364e-07
8.31517e-07
8.31539e-07
8.31192e-07
8.3101e-07
8.30741e-07
8.30609e-07
8.30439e-07
8.30366e-07
8.30263e-07
8.30229e-07
8.30167e-07
8.30154e-07
8.30118e-07
8.30116e-07
8.30094e-07
8.30095e-07
8.30082e-07
8.30083e-07
8.30075e-07
8.30076e-07
8.30074e-07
8.30074e-07
8.30076e-07
8.30075e-07
8.30083e-07
8.30081e-07
8.30095e-07
8.30094e-07
8.30116e-07
8.30118e-07
8.30154e-07
8.30167e-07
8.30228e-07
8.30263e-07
8.30366e-07
8.30439e-07
8.30609e-07
8.3074e-07
8.31009e-07
8.31191e-07
8.31538e-07
8.31515e-07
8.31363e-07
8.3035e-07
8.28305e-07
8.25401e-07
8.10915e-07
8.13689e-07
8.156e-07
8.16538e-07
8.16638e-07
8.16628e-07
8.16262e-07
8.16068e-07
8.15795e-07
8.15657e-07
8.15485e-07
8.1541e-07
8.15306e-07
8.1527e-07
8.15208e-07
8.15194e-07
8.15157e-07
8.15155e-07
8.15133e-07
8.15134e-07
8.1512e-07
8.15122e-07
8.15114e-07
8.15115e-07
8.15113e-07
8.15113e-07
8.15115e-07
8.15114e-07
8.15121e-07
8.1512e-07
8.15134e-07
8.15133e-07
8.15155e-07
8.15157e-07
8.15194e-07
8.15208e-07
8.1527e-07
8.15306e-07
8.15409e-07
8.15485e-07
8.15657e-07
8.15794e-07
8.16067e-07
8.16261e-07
8.16627e-07
8.16637e-07
8.16536e-07
8.15598e-07
8.13688e-07
8.10913e-07
7.96484e-07
7.99134e-07
8.00906e-07
8.01771e-07
8.0182e-07
8.01778e-07
8.01391e-07
8.01186e-07
8.00908e-07
8.00765e-07
8.00591e-07
8.00513e-07
8.00408e-07
8.00371e-07
8.00309e-07
8.00294e-07
8.00257e-07
8.00254e-07
8.00232e-07
8.00233e-07
8.00219e-07
8.0022e-07
8.00213e-07
8.00214e-07
8.00211e-07
8.00211e-07
8.00214e-07
8.00213e-07
8.0022e-07
8.00219e-07
8.00232e-07
8.00232e-07
8.00254e-07
8.00257e-07
8.00294e-07
8.00309e-07
8.00371e-07
8.00408e-07
8.00513e-07
8.00591e-07
8.00765e-07
8.00907e-07
8.01185e-07
8.01391e-07
8.01777e-07
8.01819e-07
8.0177e-07
8.00904e-07
7.99132e-07
7.96482e-07
7.82099e-07
7.84628e-07
7.86258e-07
7.87053e-07
7.87051e-07
7.86977e-07
7.8657e-07
7.86352e-07
7.8607e-07
7.85922e-07
7.85746e-07
7.85665e-07
7.8556e-07
7.85521e-07
7.85458e-07
7.85443e-07
7.85406e-07
7.85403e-07
7.8538e-07
7.85381e-07
7.85367e-07
7.85368e-07
7.85361e-07
7.85361e-07
7.85359e-07
7.85359e-07
7.85361e-07
7.85361e-07
7.85368e-07
7.85367e-07
7.8538e-07
7.8538e-07
7.85402e-07
7.85406e-07
7.85443e-07
7.85458e-07
7.85521e-07
7.8556e-07
7.85665e-07
7.85746e-07
7.85921e-07
7.86069e-07
7.86351e-07
7.86569e-07
7.86976e-07
7.8705e-07
7.87051e-07
7.86256e-07
7.84626e-07
7.82098e-07
7.67749e-07
7.70158e-07
7.71645e-07
7.72371e-07
7.7232e-07
7.72213e-07
7.71784e-07
7.71554e-07
7.71269e-07
7.71116e-07
7.70939e-07
7.70855e-07
7.70749e-07
7.70709e-07
7.70646e-07
7.7063e-07
7.70592e-07
7.70589e-07
7.70566e-07
7.70566e-07
7.70553e-07
7.70554e-07
7.70546e-07
7.70547e-07
7.70545e-07
7.70545e-07
7.70547e-07
7.70546e-07
7.70553e-07
7.70552e-07
7.70566e-07
7.70566e-07
7.70588e-07
7.70592e-07
7.70629e-07
7.70646e-07
7.70709e-07
7.70749e-07
7.70855e-07
7.70938e-07
7.71115e-07
7.71268e-07
7.71553e-07
7.71784e-07
7.72212e-07
7.72318e-07
7.7237e-07
7.71644e-07
7.70157e-07
7.67747e-07
7.53911e-07
7.56222e-07
7.57566e-07
7.58232e-07
7.58131e-07
7.57995e-07
7.57542e-07
7.57301e-07
7.5701e-07
7.56853e-07
7.56674e-07
7.56588e-07
7.56481e-07
7.5644e-07
7.56376e-07
7.56359e-07
7.56322e-07
7.56317e-07
7.56295e-07
7.56295e-07
7.56281e-07
7.56282e-07
7.56274e-07
7.56275e-07
7.56273e-07
7.56273e-07
7.56275e-07
7.56274e-07
7.56282e-07
7.56281e-07
7.56294e-07
7.56294e-07
7.56317e-07
7.56321e-07
7.56359e-07
7.56376e-07
7.56439e-07
7.56481e-07
7.56588e-07
7.56673e-07
7.56853e-07
7.5701e-07
7.573e-07
7.57541e-07
7.57994e-07
7.58129e-07
7.58231e-07
7.57564e-07
7.5622e-07
7.5391e-07
7.39968e-07
7.42198e-07
7.43353e-07
7.43929e-07
7.43738e-07
7.4355e-07
7.43046e-07
7.42782e-07
7.42476e-07
7.42308e-07
7.42121e-07
7.4203e-07
7.41919e-07
7.41875e-07
7.41808e-07
7.4179e-07
7.41751e-07
7.41746e-07
7.41723e-07
7.41723e-07
7.41709e-07
7.41709e-07
7.41701e-07
7.41702e-07
7.417e-07
7.417e-07
7.41702e-07
7.41701e-07
7.41709e-07
7.41708e-07
7.41722e-07
7.41723e-07
7.41746e-07
7.41751e-07
7.4179e-07
7.41808e-07
7.41874e-07
7.41918e-07
7.4203e-07
7.42121e-07
7.42307e-07
7.42475e-07
7.42781e-07
7.43045e-07
7.43548e-07
7.43736e-07
7.43928e-07
7.43351e-07
7.42196e-07
7.39966e-07
7.25724e-07
7.27843e-07
7.28851e-07
7.29362e-07
7.2912e-07
7.28901e-07
7.28369e-07
7.28093e-07
7.27783e-07
7.2761e-07
7.27422e-07
7.27328e-07
7.27216e-07
7.27171e-07
7.27104e-07
7.27085e-07
7.27046e-07
7.27041e-07
7.27017e-07
7.27017e-07
7.27003e-07
7.27003e-07
7.26995e-07
7.26996e-07
7.26994e-07
7.26994e-07
7.26996e-07
7.26995e-07
7.27003e-07
7.27002e-07
7.27016e-07
7.27017e-07
7.2704e-07
7.27046e-07
7.27085e-07
7.27104e-07
7.2717e-07
7.27216e-07
7.27328e-07
7.27421e-07
7.2761e-07
7.27783e-07
7.28092e-07
7.28368e-07
7.28899e-07
7.29119e-07
7.29361e-07
7.28849e-07
7.27842e-07
7.25722e-07
7.11483e-07
7.13491e-07
7.14356e-07
7.14801e-07
7.1451e-07
7.14259e-07
7.13697e-07
7.13409e-07
7.13096e-07
7.12918e-07
7.12728e-07
7.12632e-07
7.12519e-07
7.12473e-07
7.12406e-07
7.12386e-07
7.12347e-07
7.12341e-07
7.12318e-07
7.12317e-07
7.12303e-07
7.12303e-07
7.12295e-07
7.12296e-07
7.12294e-07
7.12294e-07
7.12296e-07
7.12295e-07
7.12303e-07
7.12302e-07
7.12316e-07
7.12317e-07
7.12341e-07
7.12346e-07
7.12386e-07
7.12406e-07
7.12473e-07
7.12519e-07
7.12632e-07
7.12728e-07
7.12918e-07
7.13095e-07
7.13408e-07
7.13696e-07
7.14258e-07
7.14508e-07
7.14799e-07
7.14354e-07
7.1349e-07
7.11481e-07
6.97235e-07
6.99131e-07
6.99858e-07
7.00236e-07
6.99895e-07
6.99615e-07
6.9902e-07
6.98721e-07
6.98405e-07
6.98222e-07
6.98031e-07
6.97933e-07
6.97819e-07
6.97771e-07
6.97704e-07
6.97684e-07
6.97644e-07
6.97638e-07
6.97614e-07
6.97613e-07
6.97599e-07
6.97599e-07
6.97592e-07
6.97592e-07
6.9759e-07
6.9759e-07
6.97592e-07
6.97592e-07
6.97599e-07
6.97599e-07
6.97613e-07
6.97614e-07
6.97637e-07
6.97644e-07
6.97683e-07
6.97704e-07
6.97771e-07
6.97819e-07
6.97932e-07
6.9803e-07
6.98221e-07
6.98404e-07
6.9872e-07
6.99019e-07
6.99614e-07
6.99894e-07
7.00234e-07
6.99857e-07
6.99129e-07
6.97233e-07
6.82971e-07
6.84753e-07
6.85346e-07
6.85656e-07
6.85267e-07
6.84959e-07
6.84327e-07
6.84018e-07
6.83699e-07
6.83511e-07
6.83319e-07
6.83219e-07
6.83105e-07
6.83056e-07
6.82988e-07
6.82967e-07
6.82927e-07
6.82921e-07
6.82897e-07
6.82896e-07
6.82882e-07
6.82882e-07
6.82874e-07
6.82875e-07
6.82872e-07
6.82872e-07
6.82875e-07
6.82874e-07
6.82882e-07
6.82881e-07
6.82895e-07
6.82897e-07
6.8292e-07
6.82927e-07
6.82967e-07
6.82988e-07
6.83055e-07
6.83105e-07
6.83218e-07
6.83319e-07
6.83511e-07
6.83698e-07
6.84017e-07
6.84326e-07
6.84958e-07
6.85266e-07
6.85654e-07
6.85345e-07
6.84751e-07
6.82969e-07
6.69156e-07
6.70841e-07
6.71304e-07
6.71552e-07
6.71113e-07
6.70781e-07
6.70106e-07
6.69788e-07
6.69466e-07
6.69274e-07
6.69081e-07
6.68978e-07
6.68864e-07
6.68814e-07
6.68746e-07
6.68724e-07
6.68684e-07
6.68677e-07
6.68654e-07
6.68652e-07
6.68638e-07
6.68638e-07
6.6863e-07
6.68631e-07
6.68629e-07
6.68629e-07
6.68631e-07
6.6863e-07
6.68638e-07
6.68638e-07
6.68652e-07
6.68653e-07
6.68677e-07
6.68684e-07
6.68724e-07
6.68746e-07
6.68813e-07
6.68864e-07
6.68978e-07
6.6908e-07
6.69274e-07
6.69465e-07
6.69787e-07
6.70105e-07
6.70779e-07
6.71112e-07
6.7155e-07
6.71302e-07
6.70839e-07
6.69154e-07
6.55338e-07
6.56925e-07
6.57263e-07
6.57448e-07
6.56961e-07
6.56606e-07
6.55883e-07
6.55545e-07
6.55198e-07
6.54991e-07
6.54785e-07
6.54675e-07
6.54554e-07
6.545e-07
6.54428e-07
6.54405e-07
6.54362e-07
6.54355e-07
6.54329e-07
6.54328e-07
6.54313e-07
6.54313e-07
6.54305e-07
6.54305e-07
6.54303e-07
6.54303e-07
6.54305e-07
6.54305e-07
6.54313e-07
6.54312e-07
6.54327e-07
6.54329e-07
6.54354e-07
6.54362e-07
6.54404e-07
6.54428e-07
6.545e-07
6.54554e-07
6.54675e-07
6.54785e-07
6.5499e-07
6.55197e-07
6.55544e-07
6.55882e-07
6.56605e-07
6.56959e-07
6.57446e-07
6.57261e-07
6.56923e-07
6.55336e-07
6.41099e-07
6.42591e-07
6.42796e-07
6.42907e-07
6.42355e-07
6.41972e-07
6.41184e-07
6.40831e-07
6.40476e-07
6.40261e-07
6.40051e-07
6.39937e-07
6.39814e-07
6.39758e-07
6.39686e-07
6.39661e-07
6.39619e-07
6.39611e-07
6.39586e-07
6.39583e-07
6.39568e-07
6.39568e-07
6.3956e-07
6.39561e-07
6.39558e-07
6.39558e-07
6.39561e-07
6.3956e-07
6.39568e-07
6.39568e-07
6.39583e-07
6.39585e-07
6.3961e-07
6.39619e-07
6.39661e-07
6.39686e-07
6.39758e-07
6.39814e-07
6.39937e-07
6.40051e-07
6.4026e-07
6.40476e-07
6.4083e-07
6.41183e-07
6.41971e-07
6.42354e-07
6.42905e-07
6.42795e-07
6.42589e-07
6.41097e-07
6.26763e-07
6.2814e-07
6.28228e-07
6.2827e-07
6.27672e-07
6.27273e-07
6.26911e-07
6.26552e-07
6.26193e-07
6.25974e-07
6.25762e-07
6.25646e-07
6.25522e-07
6.25465e-07
6.25392e-07
6.25367e-07
6.25325e-07
6.25316e-07
6.25291e-07
6.25289e-07
6.25274e-07
6.25274e-07
6.25265e-07
6.25266e-07
6.25263e-07
6.25263e-07
6.25266e-07
6.25265e-07
6.25273e-07
6.25273e-07
6.25288e-07
6.25291e-07
6.25316e-07
6.25324e-07
6.25367e-07
6.25392e-07
6.25465e-07
6.25522e-07
6.25646e-07
6.25762e-07
6.25973e-07
6.26193e-07
6.26551e-07
6.2691e-07
6.27272e-07
6.27671e-07
6.28269e-07
6.28226e-07
6.28138e-07
6.26761e-07
6.12848e-07
6.14124e-07
6.14097e-07
6.14078e-07
6.13432e-07
6.13016e-07
6.12621e-07
6.12256e-07
6.11894e-07
6.1167e-07
6.11457e-07
6.11339e-07
6.11214e-07
6.11156e-07
6.11083e-07
6.11057e-07
6.11014e-07
6.11006e-07
6.1098e-07
6.10978e-07
6.10963e-07
6.10962e-07
6.10954e-07
6.10955e-07
6.10952e-07
6.10952e-07
6.10955e-07
6.10954e-07
6.10962e-07
6.10962e-07
6.10977e-07
6.1098e-07
6.11005e-07
6.11014e-07
6.11057e-07
6.11083e-07
6.11156e-07
6.11214e-07
6.11338e-07
6.11456e-07
6.11669e-07
6.11893e-07
6.12255e-07
6.1262e-07
6.13015e-07
6.13431e-07
6.14077e-07
6.14095e-07
6.14122e-07
6.12846e-07
5.98821e-07
6.00044e-07
5.99879e-07
5.99778e-07
5.99031e-07
5.98579e-07
5.98129e-07
5.97742e-07
5.97364e-07
5.97129e-07
5.96908e-07
5.96784e-07
5.96655e-07
5.96594e-07
5.96519e-07
5.96492e-07
5.96448e-07
5.96438e-07
5.96412e-07
5.96409e-07
5.96393e-07
5.96393e-07
5.96385e-07
5.96385e-07
5.96383e-07
5.96383e-07
5.96385e-07
5.96385e-07
5.96393e-07
5.96393e-07
5.96409e-07
5.96412e-07
5.96438e-07
5.96447e-07
5.96492e-07
5.96519e-07
5.96595e-07
5.96655e-07
5.96784e-07
5.96908e-07
5.97128e-07
5.97364e-07
5.97742e-07
5.98128e-07
5.98578e-07
5.9903e-07
5.99777e-07
5.99877e-07
6.00043e-07
5.98819e-07
5.84842e-07
5.85969e-07
5.85693e-07
5.85532e-07
5.84734e-07
5.84264e-07
5.83786e-07
5.83391e-07
5.83009e-07
5.82769e-07
5.82547e-07
5.82421e-07
5.82291e-07
5.8223e-07
5.82154e-07
5.82126e-07
5.82082e-07
5.82072e-07
5.82045e-07
5.82043e-07
5.82027e-07
5.82027e-07
5.82018e-07
5.82019e-07
5.82016e-07
5.82016e-07
5.82019e-07
5.82018e-07
5.82026e-07
5.82027e-07
5.82042e-07
5.82045e-07
5.82072e-07
5.82082e-07
5.82126e-07
5.82154e-07
5.8223e-07
5.82292e-07
5.82422e-07
5.82547e-07
5.82769e-07
5.83009e-07
5.83391e-07
5.83785e-07
5.84263e-07
5.84733e-07
5.85531e-07
5.85692e-07
5.85967e-07
5.84841e-07
5.70831e-07
5.7186e-07
5.7148e-07
5.71259e-07
5.70409e-07
5.69921e-07
5.69417e-07
5.69014e-07
5.68629e-07
5.68385e-07
5.68161e-07
5.68034e-07
5.67903e-07
5.67841e-07
5.67764e-07
5.67736e-07
5.67691e-07
5.67681e-07
5.67655e-07
5.67652e-07
5.67636e-07
5.67636e-07
5.67627e-07
5.67628e-07
5.67625e-07
5.67625e-07
5.67628e-07
5.67627e-07
5.67636e-07
5.67636e-07
5.67652e-07
5.67655e-07
5.67681e-07
5.67692e-07
5.67737e-07
5.67765e-07
5.67841e-07
5.67904e-07
5.68034e-07
5.68161e-07
5.68385e-07
5.68629e-07
5.69014e-07
5.69417e-07
5.69921e-07
5.70407e-07
5.71259e-07
5.71479e-07
5.71859e-07
5.7083e-07
5.5324e-07
5.53236e-07
5.53221e-07
5.5322e-07
5.53212e-07
5.53212e-07
5.5321e-07
5.5321e-07
5.53212e-07
5.53212e-07
5.5322e-07
5.53221e-07
5.53236e-07
5.5324e-07
5.53266e-07
5.53277e-07
5.53322e-07
5.53351e-07
5.53428e-07
5.53491e-07
5.53622e-07
5.53751e-07
5.53975e-07
5.54224e-07
5.54612e-07
5.55023e-07
5.55551e-07
5.56055e-07
5.56957e-07
5.57236e-07
5.57718e-07
5.56785e-07
5.38781e-07
5.38781e-07
5.38797e-07
5.38801e-07
5.38828e-07
5.38838e-07
5.38884e-07
5.38913e-07
5.3899e-07
5.39054e-07
5.39185e-07
5.39316e-07
5.39541e-07
5.39794e-07
5.40185e-07
5.40603e-07
5.41153e-07
5.41674e-07
5.42627e-07
5.42964e-07
5.43545e-07
5.42706e-07
5.25084e-07
5.25341e-07
5.25734e-07
5.2616e-07
5.2673e-07
5.27269e-07
5.28269e-07
5.28662e-07
5.29339e-07
5.28594e-07
)
;

boundaryField
{
    fuel
    {
        type            fixedValue;
        value           nonuniform 0();
    }
    wall
    {
        type            zeroGradient;
    }
    outlet
    {
        type            zeroGradient;
    }
    frontAndBack
    {
        type            empty;
    }
    procBoundary0to1
    {
        type            processor;
        value           nonuniform List<scalar> 
50
(
1.17185e-06
1.17706e-06
1.18227e-06
1.18504e-06
1.18621e-06
1.18684e-06
1.18676e-06
1.18681e-06
1.18661e-06
1.1866e-06
1.18646e-06
1.18646e-06
1.18637e-06
1.18637e-06
1.18632e-06
1.18633e-06
1.18629e-06
1.1863e-06
1.18628e-06
1.18629e-06
1.18627e-06
1.18628e-06
1.18627e-06
1.18627e-06
1.18627e-06
1.18627e-06
1.18627e-06
1.18627e-06
1.18628e-06
1.18627e-06
1.18629e-06
1.18628e-06
1.1863e-06
1.18629e-06
1.18633e-06
1.18632e-06
1.18637e-06
1.18637e-06
1.18646e-06
1.18646e-06
1.1866e-06
1.18661e-06
1.18681e-06
1.18676e-06
1.18684e-06
1.18621e-06
1.18504e-06
1.18227e-06
1.17706e-06
1.17185e-06
)
;
    }
    procBoundary0to2
    {
        type            processor;
        value           nonuniform List<scalar> 
53
(
5.56786e-07
5.57719e-07
5.57237e-07
5.56956e-07
5.56057e-07
5.55551e-07
5.55022e-07
5.54612e-07
5.54224e-07
5.53975e-07
5.5375e-07
5.53622e-07
5.5349e-07
5.53427e-07
5.5335e-07
5.53322e-07
5.53277e-07
5.53266e-07
5.53266e-07
5.38801e-07
5.38797e-07
5.38781e-07
5.38781e-07
5.38773e-07
5.38773e-07
5.3877e-07
5.3877e-07
5.38773e-07
5.38773e-07
5.38773e-07
5.24319e-07
5.2432e-07
5.24336e-07
5.2434e-07
5.24367e-07
5.24377e-07
5.24423e-07
5.24453e-07
5.2453e-07
5.24594e-07
5.24726e-07
5.24858e-07
5.24858e-07
5.10607e-07
5.10867e-07
5.11263e-07
5.11695e-07
5.12284e-07
5.1284e-07
5.13885e-07
5.14333e-07
5.15103e-07
5.14452e-07
)
;
    }
}


// ************************************************************************* //
