/*--------------------------------*- C++ -*----------------------------------*\
| =========                 |                                                 |
| \\      /  F ield         | OpenFOAM: The Open Source CFD Toolbox           |
|  \\    /   O peration     | Version:  dev                                   |
|   \\  /    A nd           | Web:      www.OpenFOAM.org                      |
|    \\/     M anipulation  |                                                 |
\*---------------------------------------------------------------------------*/
FoamFile
{
    version     2.0;
    format      ascii;
    class       volScalarField;
    location    "0.065";
    object      HO2;
}
// * * * * * * * * * * * * * * * * * * * * * * * * * * * * * * * * * * * * * //

dimensions      [0 0 0 0 0 0 0];

internalField   nonuniform List<scalar> 
250
(
3.10075e-11
3.11179e-11
3.10169e-11
3.11597e-11
3.11915e-11
3.11115e-11
3.09032e-11
3.68718e-11
6.30037e-10
2.44714e-08
2.7705e-11
2.78184e-11
2.77147e-11
2.78623e-11
2.78977e-11
2.78417e-11
2.77367e-11
3.16247e-11
4.44268e-10
1.56932e-08
2.36989e-09
1.00944e-10
2.3861e-11
2.52706e-11
2.47393e-11
2.4707e-11
2.46417e-11
2.43811e-11
2.45672e-11
2.43382e-11
2.43609e-11
2.44757e-11
2.43705e-11
2.45207e-11
2.45581e-11
2.45235e-11
2.45206e-11
2.69962e-11
3.05188e-10
1.00344e-08
1.36836e-09
6.6311e-11
2.06627e-11
2.20223e-11
2.1403e-11
2.13637e-11
2.1299e-11
2.10431e-11
2.12292e-11
2.09991e-11
2.10241e-11
2.11381e-11
2.10334e-11
2.11829e-11
2.12207e-11
2.12042e-11
2.12931e-11
2.28536e-11
2.07155e-10
6.38307e-09
7.81175e-10
4.31637e-11
1.75906e-11
1.87939e-11
1.81236e-11
1.80806e-11
1.80189e-11
1.77734e-11
1.79554e-11
1.77298e-11
1.77561e-11
1.78669e-11
1.77649e-11
1.79101e-11
1.79465e-11
1.79443e-11
1.81076e-11
1.91113e-11
1.39352e-10
4.03386e-09
4.4241e-10
2.98322e-11
1.46598e-11
1.56527e-11
1.49719e-11
1.49287e-11
1.48721e-11
1.46433e-11
1.48162e-11
1.46014e-11
1.4628e-11
1.47328e-11
1.4636e-11
1.47732e-11
1.48064e-11
1.48143e-11
1.50294e-11
1.57261e-11
9.67311e-11
2.532e-09
2.49511e-10
2.08053e-11
1.19008e-11
1.26749e-11
1.20244e-11
1.19841e-11
1.19343e-11
1.17283e-11
1.18871e-11
1.16895e-11
1.17152e-11
1.18112e-11
1.17224e-11
1.18476e-11
1.18764e-11
1.189e-11
1.21313e-11
1.26655e-11
6.60733e-11
1.57971e-09
1.40693e-10
1.48005e-11
9.36256e-12
9.93849e-12
9.35697e-12
9.32318e-12
9.28158e-12
9.10346e-12
9.24361e-12
9.06892e-12
9.09267e-12
9.17732e-12
9.09887e-12
9.20881e-12
9.2323e-12
9.24685e-12
9.457e-12
9.93925e-12
4.56648e-11
9.81136e-10
7.95987e-11
1.0533e-11
7.07929e-12
7.51403e-12
6.93744e-12
6.88859e-12
6.85107e-12
6.69569e-12
6.82072e-12
6.6661e-12
6.68696e-12
6.7613e-12
6.6921e-12
6.7862e-12
6.80778e-12
6.8389e-12
7.12432e-12
7.57205e-12
3.15148e-11
6.0777e-10
4.52898e-11
7.41844e-12
5.1342e-12
5.45739e-12
4.98919e-12
4.95043e-12
4.92164e-12
4.79839e-12
4.89959e-12
4.77439e-12
4.79181e-12
4.85192e-12
4.79593e-12
4.87128e-12
4.88745e-12
4.91399e-12
5.15612e-12
5.47311e-12
2.16808e-11
3.76185e-10
2.59235e-11
5.11823e-12
3.56714e-12
3.7946e-12
3.43553e-12
3.4067e-12
3.38582e-12
3.29305e-12
3.37083e-12
3.27466e-12
3.28838e-12
3.33455e-12
3.29148e-12
3.34872e-12
3.36008e-12
3.38109e-12
3.5734e-12
3.85784e-12
1.48333e-11
2.32966e-10
1.48864e-11
3.43182e-12
2.37233e-12
2.52092e-12
2.26184e-12
2.24177e-12
2.22754e-12
2.16157e-12
2.21804e-12
2.14833e-12
2.15849e-12
2.19199e-12
2.16066e-12
2.20171e-12
2.20917e-12
2.22461e-12
2.36736e-12
2.60896e-12
1.0063e-11
1.44382e-10
8.49833e-12
2.22735e-12
1.51253e-12
1.60217e-12
1.42682e-12
1.41374e-12
1.40466e-12
1.36047e-12
1.39908e-12
1.35152e-12
1.35859e-12
1.38145e-12
1.36001e-12
1.38769e-12
1.39227e-12
1.4028e-12
1.50172e-12
1.69555e-12
6.74787e-12
8.93749e-11
8.27784e-13
8.42414e-13
8.28659e-13
8.46165e-13
8.48843e-13
8.55462e-13
9.19655e-13
1.06647e-12
4.45278e-12
5.48679e-11
)
;

boundaryField
{
    fuel
    {
        type            fixedValue;
        value           nonuniform 0();
    }
    wall
    {
        type            zeroGradient;
    }
    outlet
    {
        type            zeroGradient;
    }
    frontAndBack
    {
        type            empty;
    }
    procBoundary0to1
    {
        type            processor;
        value           nonuniform List<scalar> 
21
(
4.84912e-12
1.41126e-12
9.32903e-13
9.81412e-13
8.70121e-13
8.62106e-13
8.5669e-13
8.2882e-13
8.53623e-13
8.23153e-13
8.23153e-13
4.98601e-13
5.07413e-13
4.99113e-13
5.09557e-13
5.11073e-13
5.14932e-13
5.54254e-13
6.61338e-13
2.91644e-12
3.34947e-11
)
;
    }
    procBoundary0to2
    {
        type            processor;
        value           nonuniform List<scalar> 
12
(
3.09919e-11
4.18418e-09
1.56599e-10
2.72578e-11
2.8479e-11
2.80699e-11
2.80488e-11
2.79848e-11
2.77261e-11
2.79077e-11
2.76855e-11
2.76855e-11
)
;
    }
    procBoundary0to3
    {
        type            processor;
        value           nonuniform List<scalar> 10(3.4233e-11 3.43393e-11 3.42419e-11 3.4378e-11 3.44047e-11 3.42992e-11 3.39911e-11 4.37372e-11 9.18513e-10 3.83906e-08);
    }
}


// ************************************************************************* //
