/*--------------------------------*- C++ -*----------------------------------*\
| =========                 |                                                 |
| \\      /  F ield         | OpenFOAM: The Open Source CFD Toolbox           |
|  \\    /   O peration     | Version:  dev                                   |
|   \\  /    A nd           | Web:      www.OpenFOAM.org                      |
|    \\/     M anipulation  |                                                 |
\*---------------------------------------------------------------------------*/
FoamFile
{
    version     2.0;
    format      ascii;
    class       volScalarField;
    location    "0.065";
    object      HO2;
}
// * * * * * * * * * * * * * * * * * * * * * * * * * * * * * * * * * * * * * //

dimensions      [0 0 0 0 0 0 0];

internalField   nonuniform List<scalar> 
25
(
1.75389e-06
7.94356e-07
3.30316e-07
1.37898e-07
6.17904e-08
3.20847e-08
2.05662e-08
1.58361e-08
1.35404e-08
1.21139e-08
1.10423e-08
1.01308e-08
9.31461e-09
8.56346e-09
7.86378e-09
7.20876e-09
6.59475e-09
6.0193e-09
5.48054e-09
4.97705e-09
4.50808e-09
4.07422e-09
3.67707e-09
3.31364e-09
2.98015e-09
)
;

boundaryField
{
    wall
    {
        type            zeroGradient;
    }
    fuel
    {
        type            fixedValue;
        value           uniform 0;
    }
    outlet
    {
        type            inletOutlet;
        inletValue      nonuniform 0();
        value           nonuniform 0();
    }
    procBoundary0to1
    {
        type            processor;
        value           uniform 2.67558e-09;
    }
}


// ************************************************************************* //
