/*--------------------------------*- C++ -*----------------------------------*\
| =========                 |                                                 |
| \\      /  F ield         | OpenFOAM: The Open Source CFD Toolbox           |
|  \\    /   O peration     | Version:  dev                                   |
|   \\  /    A nd           | Web:      www.OpenFOAM.org                      |
|    \\/     M anipulation  |                                                 |
\*---------------------------------------------------------------------------*/
FoamFile
{
    version     2.0;
    format      ascii;
    class       volScalarField;
    location    "0.065";
    object      n-C6H7;
}
// * * * * * * * * * * * * * * * * * * * * * * * * * * * * * * * * * * * * * //

dimensions      [0 0 0 0 0 0 0];

internalField   nonuniform List<scalar> 
250
(
6.03967e-14
6.04802e-14
6.03505e-14
6.04862e-14
6.0594e-14
6.10644e-14
6.36431e-14
7.21562e-14
1.05471e-13
1.02452e-13
5.69792e-14
5.70596e-14
5.69361e-14
5.70704e-14
5.71761e-14
5.76171e-14
5.99599e-14
6.74203e-14
9.61251e-14
9.59452e-14
6.55743e-14
8.70224e-14
6.27243e-14
5.73895e-14
5.46407e-14
5.41264e-14
5.39745e-14
5.37267e-14
5.39058e-14
5.37373e-14
5.37426e-14
5.38215e-14
5.37031e-14
5.38375e-14
5.39409e-14
5.43509e-14
5.64681e-14
6.292e-14
8.67526e-14
8.90528e-14
6.42088e-14
7.82373e-14
5.85011e-14
5.40073e-14
5.14607e-14
5.0987e-14
5.08422e-14
5.05939e-14
5.07737e-14
5.05968e-14
5.06079e-14
5.06879e-14
5.05725e-14
5.07093e-14
5.08099e-14
5.11883e-14
5.30947e-14
5.85958e-14
7.77728e-14
8.19138e-14
6.18038e-14
6.9751e-14
5.43844e-14
5.06563e-14
4.8294e-14
4.78611e-14
4.77232e-14
4.74705e-14
4.76546e-14
4.74652e-14
4.7482e-14
4.75661e-14
4.74514e-14
4.75932e-14
4.76907e-14
4.8037e-14
4.97521e-14
5.43737e-14
6.93019e-14
7.45827e-14
5.85335e-14
6.28721e-14
5.02785e-14
4.72336e-14
4.5037e-14
4.46456e-14
4.45134e-14
4.42521e-14
4.44449e-14
4.42381e-14
4.42607e-14
4.43523e-14
4.42352e-14
4.43853e-14
4.44789e-14
4.47931e-14
4.63382e-14
5.01661e-14
6.20912e-14
6.71385e-14
5.45324e-14
5.62788e-14
4.60688e-14
4.36299e-14
4.15842e-14
4.1234e-14
4.11074e-14
4.08339e-14
4.10393e-14
4.08106e-14
4.08393e-14
4.09413e-14
4.08192e-14
4.09802e-14
4.10691e-14
4.13506e-14
4.27461e-14
4.58745e-14
5.49187e-14
5.96493e-14
4.99228e-14
5.01073e-14
4.16459e-14
3.97458e-14
3.78465e-14
3.75385e-14
3.74185e-14
3.71318e-14
3.73521e-14
3.70992e-14
3.71338e-14
3.72481e-14
3.71192e-14
3.72925e-14
3.73752e-14
3.76222e-14
3.88352e-14
4.14143e-14
4.82721e-14
5.22187e-14
4.4798e-14
4.40188e-14
3.68867e-14
3.55175e-14
3.35929e-14
3.32861e-14
3.3165e-14
3.28475e-14
3.30986e-14
3.28047e-14
3.28455e-14
3.29798e-14
3.28365e-14
3.3027e-14
3.31091e-14
3.33548e-14
3.46212e-14
3.67413e-14
4.17981e-14
4.4936e-14
3.92499e-14
3.79355e-14
3.18446e-14
3.09495e-14
2.91492e-14
2.88824e-14
2.87702e-14
2.84453e-14
2.87091e-14
2.83955e-14
2.84408e-14
2.85857e-14
2.84364e-14
2.86347e-14
2.87085e-14
2.89237e-14
3.00805e-14
3.15698e-14
3.54654e-14
3.78879e-14
3.3401e-14
3.18582e-14
2.66467e-14
2.61279e-14
2.44714e-14
2.42458e-14
2.4145e-14
2.38238e-14
2.40917e-14
2.37698e-14
2.38176e-14
2.39679e-14
2.38169e-14
2.40158e-14
2.40795e-14
2.42643e-14
2.53086e-14
2.64874e-14
2.93187e-14
3.11663e-14
2.74346e-14
2.58812e-14
2.14779e-14
2.12287e-14
1.97505e-14
1.9567e-14
1.94802e-14
1.91774e-14
1.94369e-14
1.91232e-14
1.91706e-14
1.93185e-14
1.91724e-14
1.93623e-14
1.94146e-14
1.95685e-14
2.04859e-14
2.14064e-14
2.34573e-14
2.48783e-14
2.16059e-14
2.01894e-14
1.65642e-14
1.64941e-14
1.52316e-14
1.50893e-14
1.50183e-14
1.47486e-14
1.4986e-14
1.46982e-14
1.47424e-14
1.4879e-14
1.47455e-14
1.49162e-14
1.49568e-14
1.508e-14
1.58534e-14
1.65577e-14
1.80388e-14
1.91515e-14
1.07764e-14
1.08939e-14
1.07798e-14
1.0923e-14
1.09526e-14
1.10463e-14
1.16647e-14
1.21859e-14
1.32467e-14
1.41243e-14
)
;

boundaryField
{
    fuel
    {
        type            fixedValue;
        value           nonuniform 0();
    }
    wall
    {
        type            zeroGradient;
    }
    outlet
    {
        type            zeroGradient;
    }
    frontAndBack
    {
        type            empty;
    }
    procBoundary0to1
    {
        type            processor;
        value           nonuniform List<scalar> 
21
(
1.61942e-14
1.50101e-14
1.21494e-14
1.21844e-14
1.11647e-14
1.10606e-14
1.10059e-14
1.07813e-14
1.09842e-14
1.0738e-14
1.0738e-14
7.46768e-15
7.56098e-15
7.4707e-15
7.58179e-15
7.60177e-15
7.66899e-15
8.13105e-15
8.49942e-15
9.24016e-15
9.92e-15
)
;
    }
    procBoundary0to2
    {
        type            processor;
        value           nonuniform List<scalar> 
12
(
6.04049e-14
6.58198e-14
9.62815e-14
6.71342e-14
6.08854e-14
5.79237e-14
5.73706e-14
5.72114e-14
5.69621e-14
5.71426e-14
5.69804e-14
5.69804e-14
)
;
    }
    procBoundary0to3
    {
        type            processor;
        value           nonuniform List<scalar> 10(6.40592e-14 6.41474e-14 6.40107e-14 6.41486e-14 6.42576e-14 6.47558e-14 6.75684e-14 7.77549e-14 1.16539e-13 1.08876e-13);
    }
}


// ************************************************************************* //
