/*--------------------------------*- C++ -*----------------------------------*\
| =========                 |                                                 |
| \\      /  F ield         | OpenFOAM: The Open Source CFD Toolbox           |
|  \\    /   O peration     | Version:  dev                                   |
|   \\  /    A nd           | Web:      www.OpenFOAM.org                      |
|    \\/     M anipulation  |                                                 |
\*---------------------------------------------------------------------------*/
FoamFile
{
    version     2.0;
    format      ascii;
    class       volScalarField;
    location    "0.065";
    object      n-C6H5;
}
// * * * * * * * * * * * * * * * * * * * * * * * * * * * * * * * * * * * * * //

dimensions      [0 0 0 0 0 0 0];

internalField   nonuniform List<scalar> 
25
(
8.11607e-09
2.57681e-09
7.29908e-10
1.9855e-10
5.29894e-11
1.40023e-11
3.66344e-12
9.58526e-13
2.53408e-13
6.69377e-14
1.79095e-14
4.80075e-15
1.2975e-15
3.54566e-16
9.88278e-17
2.87594e-17
9.21075e-18
3.54011e-18
1.75041e-18
1.09058e-18
7.91927e-19
6.32984e-19
5.45744e-19
5.06252e-19
5.06581e-19
)
;

boundaryField
{
    wall
    {
        type            zeroGradient;
    }
    fuel
    {
        type            fixedValue;
        value           uniform 0;
    }
    outlet
    {
        type            inletOutlet;
        inletValue      nonuniform 0();
        value           nonuniform 0();
    }
    procBoundary0to1
    {
        type            processor;
        value           uniform 5.45507e-19;
    }
}


// ************************************************************************* //
