/*--------------------------------*- C++ -*----------------------------------*\
| =========                 |                                                 |
| \\      /  F ield         | OpenFOAM: The Open Source CFD Toolbox           |
|  \\    /   O peration     | Version:  dev                                   |
|   \\  /    A nd           | Web:      www.OpenFOAM.org                      |
|    \\/     M anipulation  |                                                 |
\*---------------------------------------------------------------------------*/
FoamFile
{
    version     2.0;
    format      ascii;
    class       volScalarField;
    location    "0.065";
    object      naphthyne;
}
// * * * * * * * * * * * * * * * * * * * * * * * * * * * * * * * * * * * * * //

dimensions      [0 0 0 0 0 0 0];

internalField   nonuniform List<scalar> 
25
(
2.09094e-09
5.76718e-10
1.45558e-10
3.59477e-11
8.76978e-12
2.12037e-12
5.04987e-13
1.19503e-13
2.85638e-14
6.98179e-15
1.91129e-15
6.81911e-16
3.59727e-16
2.52079e-16
1.98154e-16
1.60697e-16
1.31013e-16
1.06896e-16
8.75612e-17
7.25221e-17
6.13782e-17
5.3814e-17
4.96054e-17
4.85773e-17
5.07099e-17
)
;

boundaryField
{
    wall
    {
        type            zeroGradient;
    }
    fuel
    {
        type            fixedValue;
        value           uniform 0;
    }
    outlet
    {
        type            inletOutlet;
        inletValue      nonuniform 0();
        value           nonuniform 0();
    }
    procBoundary0to1
    {
        type            processor;
        value           uniform 5.61531e-17;
    }
}


// ************************************************************************* //
