/*--------------------------------*- C++ -*----------------------------------*\
| =========                 |                                                 |
| \\      /  F ield         | OpenFOAM: The Open Source CFD Toolbox           |
|  \\    /   O peration     | Version:  dev                                   |
|   \\  /    A nd           | Web:      www.OpenFOAM.org                      |
|    \\/     M anipulation  |                                                 |
\*---------------------------------------------------------------------------*/
FoamFile
{
    version     2.0;
    format      ascii;
    class       volScalarField;
    location    "0.065";
    object      PC3H4;
}
// * * * * * * * * * * * * * * * * * * * * * * * * * * * * * * * * * * * * * //

dimensions      [0 0 0 0 0 0 0];

internalField   nonuniform List<scalar> 
25
(
1.83063e-07
9.49605e-08
4.27162e-08
1.86851e-08
8.15535e-09
3.61315e-09
1.6454e-09
7.80391e-10
3.86047e-10
1.95767e-10
1.01025e-10
5.21094e-11
2.67044e-11
1.35112e-11
6.73195e-12
3.30639e-12
1.60772e-12
7.79165e-13
3.79548e-13
1.8766e-13
9.52096e-14
5.02106e-14
2.79745e-14
1.66625e-14
1.07168e-14
)
;

boundaryField
{
    wall
    {
        type            zeroGradient;
    }
    fuel
    {
        type            fixedValue;
        value           uniform 0;
    }
    outlet
    {
        type            inletOutlet;
        inletValue      nonuniform 0();
        value           nonuniform 0();
    }
    procBoundary0to1
    {
        type            processor;
        value           uniform 7.33954e-15;
    }
}


// ************************************************************************* //
