/*--------------------------------*- C++ -*----------------------------------*\
| =========                 |                                                 |
| \\      /  F ield         | OpenFOAM: The Open Source CFD Toolbox           |
|  \\    /   O peration     | Version:  dev                                   |
|   \\  /    A nd           | Web:      www.OpenFOAM.org                      |
|    \\/     M anipulation  |                                                 |
\*---------------------------------------------------------------------------*/
FoamFile
{
    version     2.0;
    format      ascii;
    class       volScalarField;
    location    "0.065";
    object      PC3H4;
}
// * * * * * * * * * * * * * * * * * * * * * * * * * * * * * * * * * * * * * //

dimensions      [0 0 0 0 0 0 0];

internalField   nonuniform List<scalar> 
2014
(
2.11913e-07
2.12395e-07
2.12836e-07
2.1306e-07
2.1314e-07
2.13188e-07
2.13171e-07
2.13179e-07
2.13159e-07
2.13163e-07
2.13151e-07
2.13154e-07
2.13147e-07
2.1315e-07
2.13145e-07
2.13147e-07
2.13144e-07
2.13146e-07
2.13144e-07
2.13146e-07
2.13145e-07
2.13145e-07
2.13145e-07
2.13145e-07
2.13145e-07
2.13145e-07
2.13145e-07
2.13145e-07
2.13145e-07
2.13145e-07
2.13146e-07
2.13144e-07
2.13146e-07
2.13144e-07
2.13147e-07
2.13145e-07
2.1315e-07
2.13147e-07
2.13154e-07
2.13151e-07
2.13163e-07
2.13159e-07
2.13179e-07
2.13171e-07
2.13188e-07
2.1314e-07
2.1306e-07
2.12836e-07
2.12395e-07
2.11913e-07
2.09408e-07
2.09888e-07
2.10324e-07
2.10545e-07
2.10624e-07
2.10672e-07
2.10655e-07
2.10662e-07
2.10643e-07
2.10646e-07
2.10634e-07
2.10637e-07
2.1063e-07
2.10633e-07
2.10628e-07
2.1063e-07
2.10627e-07
2.10629e-07
2.10627e-07
2.10629e-07
2.10627e-07
2.10628e-07
2.10627e-07
2.10628e-07
2.10628e-07
2.10628e-07
2.10628e-07
2.10627e-07
2.10628e-07
2.10627e-07
2.10629e-07
2.10627e-07
2.10629e-07
2.10627e-07
2.1063e-07
2.10628e-07
2.10633e-07
2.1063e-07
2.10637e-07
2.10634e-07
2.10646e-07
2.10643e-07
2.10662e-07
2.10655e-07
2.10672e-07
2.10624e-07
2.10545e-07
2.10324e-07
2.09888e-07
2.09408e-07
2.06964e-07
2.07443e-07
2.07873e-07
2.0809e-07
2.08169e-07
2.08216e-07
2.08198e-07
2.08206e-07
2.08186e-07
2.08189e-07
2.08178e-07
2.08181e-07
2.08173e-07
2.08176e-07
2.08171e-07
2.08173e-07
2.0817e-07
2.08173e-07
2.08171e-07
2.08172e-07
2.08171e-07
2.08171e-07
2.08171e-07
2.08171e-07
2.08171e-07
2.08171e-07
2.08171e-07
2.08171e-07
2.08172e-07
2.08171e-07
2.08172e-07
2.08171e-07
2.08173e-07
2.0817e-07
2.08174e-07
2.08171e-07
2.08176e-07
2.08173e-07
2.0818e-07
2.08178e-07
2.08189e-07
2.08186e-07
2.08206e-07
2.08198e-07
2.08216e-07
2.08168e-07
2.0809e-07
2.07872e-07
2.07443e-07
2.06964e-07
2.04582e-07
2.05059e-07
2.0548e-07
2.05695e-07
2.05772e-07
2.05818e-07
2.05801e-07
2.05808e-07
2.05789e-07
2.05792e-07
2.0578e-07
2.05783e-07
2.05775e-07
2.05778e-07
2.05773e-07
2.05776e-07
2.05772e-07
2.05775e-07
2.05773e-07
2.05774e-07
2.05773e-07
2.05774e-07
2.05773e-07
2.05773e-07
2.05773e-07
2.05773e-07
2.05773e-07
2.05773e-07
2.05774e-07
2.05773e-07
2.05774e-07
2.05773e-07
2.05775e-07
2.05772e-07
2.05776e-07
2.05773e-07
2.05778e-07
2.05775e-07
2.05783e-07
2.0578e-07
2.05792e-07
2.05789e-07
2.05808e-07
2.05801e-07
2.05818e-07
2.05772e-07
2.05695e-07
2.0548e-07
2.05059e-07
2.04582e-07
2.02258e-07
2.02734e-07
2.03147e-07
2.03357e-07
2.03432e-07
2.03478e-07
2.03461e-07
2.03468e-07
2.03449e-07
2.03451e-07
2.0344e-07
2.03442e-07
2.03435e-07
2.03437e-07
2.03433e-07
2.03435e-07
2.03432e-07
2.03434e-07
2.03432e-07
2.03434e-07
2.03432e-07
2.03433e-07
2.03432e-07
2.03433e-07
2.03433e-07
2.03433e-07
2.03433e-07
2.03432e-07
2.03433e-07
2.03432e-07
2.03434e-07
2.03432e-07
2.03434e-07
2.03432e-07
2.03435e-07
2.03433e-07
2.03437e-07
2.03435e-07
2.03442e-07
2.0344e-07
2.03451e-07
2.03449e-07
2.03468e-07
2.03461e-07
2.03478e-07
2.03432e-07
2.03357e-07
2.03147e-07
2.02734e-07
2.02258e-07
1.99992e-07
2.00466e-07
2.00871e-07
2.01076e-07
2.0115e-07
2.01194e-07
2.01178e-07
2.01184e-07
2.01165e-07
2.01167e-07
2.01156e-07
2.01158e-07
2.01151e-07
2.01153e-07
2.01149e-07
2.01151e-07
2.01148e-07
2.0115e-07
2.01148e-07
2.0115e-07
2.01148e-07
2.01149e-07
2.01148e-07
2.01149e-07
2.01149e-07
2.01149e-07
2.01149e-07
2.01148e-07
2.01149e-07
2.01148e-07
2.0115e-07
2.01148e-07
2.0115e-07
2.01148e-07
2.01151e-07
2.01149e-07
2.01153e-07
2.01151e-07
2.01158e-07
2.01156e-07
2.01167e-07
2.01165e-07
2.01184e-07
2.01178e-07
2.01194e-07
2.0115e-07
2.01076e-07
2.0087e-07
2.00466e-07
1.99992e-07
1.97782e-07
1.98254e-07
1.9865e-07
1.9885e-07
1.98922e-07
1.98966e-07
1.9895e-07
1.98955e-07
1.98937e-07
1.98939e-07
1.98927e-07
1.98929e-07
1.98922e-07
1.98925e-07
1.9892e-07
1.98922e-07
1.98919e-07
1.98921e-07
1.9892e-07
1.98921e-07
1.9892e-07
1.9892e-07
1.9892e-07
1.9892e-07
1.9892e-07
1.9892e-07
1.9892e-07
1.9892e-07
1.9892e-07
1.9892e-07
1.98921e-07
1.9892e-07
1.98921e-07
1.98919e-07
1.98922e-07
1.9892e-07
1.98925e-07
1.98922e-07
1.98929e-07
1.98927e-07
1.98939e-07
1.98937e-07
1.98955e-07
1.9895e-07
1.98966e-07
1.98922e-07
1.9885e-07
1.98649e-07
1.98254e-07
1.97782e-07
1.95629e-07
1.96098e-07
1.96483e-07
1.96679e-07
1.96749e-07
1.96792e-07
1.96776e-07
1.96781e-07
1.96763e-07
1.96764e-07
1.96753e-07
1.96755e-07
1.96748e-07
1.9675e-07
1.96746e-07
1.96748e-07
1.96745e-07
1.96747e-07
1.96745e-07
1.96747e-07
1.96745e-07
1.96746e-07
1.96745e-07
1.96746e-07
1.96746e-07
1.96746e-07
1.96746e-07
1.96745e-07
1.96746e-07
1.96745e-07
1.96747e-07
1.96745e-07
1.96747e-07
1.96745e-07
1.96748e-07
1.96746e-07
1.9675e-07
1.96748e-07
1.96755e-07
1.96753e-07
1.96764e-07
1.96763e-07
1.9678e-07
1.96776e-07
1.96792e-07
1.96749e-07
1.96679e-07
1.96483e-07
1.96098e-07
1.95629e-07
1.9353e-07
1.93995e-07
1.9437e-07
1.94561e-07
1.94629e-07
1.94671e-07
1.94655e-07
1.94659e-07
1.94642e-07
1.94643e-07
1.94632e-07
1.94634e-07
1.94627e-07
1.94629e-07
1.94625e-07
1.94627e-07
1.94624e-07
1.94626e-07
1.94624e-07
1.94626e-07
1.94624e-07
1.94625e-07
1.94624e-07
1.94625e-07
1.94625e-07
1.94625e-07
1.94625e-07
1.94624e-07
1.94625e-07
1.94624e-07
1.94626e-07
1.94624e-07
1.94626e-07
1.94624e-07
1.94627e-07
1.94625e-07
1.94629e-07
1.94627e-07
1.94634e-07
1.94632e-07
1.94643e-07
1.94642e-07
1.94659e-07
1.94655e-07
1.94671e-07
1.94629e-07
1.94561e-07
1.9437e-07
1.93995e-07
1.9353e-07
1.91485e-07
1.91946e-07
1.9231e-07
1.92495e-07
1.92562e-07
1.92602e-07
1.92587e-07
1.92591e-07
1.92574e-07
1.92575e-07
1.92564e-07
1.92565e-07
1.92559e-07
1.92561e-07
1.92557e-07
1.92558e-07
1.92556e-07
1.92558e-07
1.92556e-07
1.92557e-07
1.92556e-07
1.92557e-07
1.92556e-07
1.92556e-07
1.92556e-07
1.92556e-07
1.92556e-07
1.92556e-07
1.92557e-07
1.92556e-07
1.92557e-07
1.92556e-07
1.92558e-07
1.92556e-07
1.92559e-07
1.92557e-07
1.92561e-07
1.92559e-07
1.92565e-07
1.92564e-07
1.92575e-07
1.92574e-07
1.92591e-07
1.92587e-07
1.92602e-07
1.92562e-07
1.92495e-07
1.9231e-07
1.91946e-07
1.91485e-07
1.89493e-07
1.89948e-07
1.90302e-07
1.90482e-07
1.90546e-07
1.90586e-07
1.9057e-07
1.90574e-07
1.90557e-07
1.90558e-07
1.90547e-07
1.90549e-07
1.90542e-07
1.90544e-07
1.9054e-07
1.90542e-07
1.90539e-07
1.90541e-07
1.90539e-07
1.90541e-07
1.90539e-07
1.9054e-07
1.9054e-07
1.9054e-07
1.9054e-07
1.9054e-07
1.9054e-07
1.9054e-07
1.9054e-07
1.90539e-07
1.90541e-07
1.90539e-07
1.90541e-07
1.90539e-07
1.90542e-07
1.9054e-07
1.90544e-07
1.90542e-07
1.90549e-07
1.90547e-07
1.90558e-07
1.90557e-07
1.90574e-07
1.9057e-07
1.90586e-07
1.90546e-07
1.90482e-07
1.90302e-07
1.89948e-07
1.89493e-07
1.87553e-07
1.88001e-07
1.88345e-07
1.8852e-07
1.88582e-07
1.8862e-07
1.88605e-07
1.88608e-07
1.88592e-07
1.88592e-07
1.88582e-07
1.88583e-07
1.88577e-07
1.88579e-07
1.88575e-07
1.88576e-07
1.88574e-07
1.88576e-07
1.88574e-07
1.88575e-07
1.88574e-07
1.88575e-07
1.88574e-07
1.88575e-07
1.88574e-07
1.88574e-07
1.88575e-07
1.88574e-07
1.88575e-07
1.88574e-07
1.88575e-07
1.88574e-07
1.88576e-07
1.88574e-07
1.88576e-07
1.88575e-07
1.88579e-07
1.88577e-07
1.88583e-07
1.88582e-07
1.88592e-07
1.88592e-07
1.88608e-07
1.88605e-07
1.8862e-07
1.88582e-07
1.88519e-07
1.88344e-07
1.88001e-07
1.87553e-07
1.85665e-07
1.86105e-07
1.86438e-07
1.86607e-07
1.86668e-07
1.86705e-07
1.8669e-07
1.86693e-07
1.86676e-07
1.86677e-07
1.86667e-07
1.86668e-07
1.86662e-07
1.86663e-07
1.8666e-07
1.86661e-07
1.86659e-07
1.86661e-07
1.86659e-07
1.8666e-07
1.86659e-07
1.8666e-07
1.86659e-07
1.8666e-07
1.86659e-07
1.86659e-07
1.8666e-07
1.86659e-07
1.8666e-07
1.86659e-07
1.8666e-07
1.86659e-07
1.86661e-07
1.86659e-07
1.86661e-07
1.8666e-07
1.86664e-07
1.86662e-07
1.86668e-07
1.86667e-07
1.86677e-07
1.86676e-07
1.86693e-07
1.8669e-07
1.86705e-07
1.86668e-07
1.86607e-07
1.86438e-07
1.86105e-07
1.85665e-07
1.83827e-07
1.84257e-07
1.84581e-07
1.84745e-07
1.84803e-07
1.84839e-07
1.84824e-07
1.84827e-07
1.84811e-07
1.84811e-07
1.84802e-07
1.84803e-07
1.84797e-07
1.84798e-07
1.84795e-07
1.84796e-07
1.84794e-07
1.84796e-07
1.84794e-07
1.84795e-07
1.84794e-07
1.84795e-07
1.84794e-07
1.84795e-07
1.84794e-07
1.84794e-07
1.84795e-07
1.84794e-07
1.84795e-07
1.84794e-07
1.84795e-07
1.84794e-07
1.84796e-07
1.84794e-07
1.84796e-07
1.84795e-07
1.84798e-07
1.84797e-07
1.84803e-07
1.84802e-07
1.84811e-07
1.84811e-07
1.84827e-07
1.84824e-07
1.84839e-07
1.84803e-07
1.84745e-07
1.8458e-07
1.84257e-07
1.83827e-07
1.8204e-07
1.82459e-07
1.82772e-07
1.82932e-07
1.82988e-07
1.83023e-07
1.83008e-07
1.83011e-07
1.82995e-07
1.82995e-07
1.82986e-07
1.82987e-07
1.82981e-07
1.82982e-07
1.82979e-07
1.8298e-07
1.82978e-07
1.8298e-07
1.82978e-07
1.82979e-07
1.82978e-07
1.82979e-07
1.82978e-07
1.82979e-07
1.82979e-07
1.82979e-07
1.82979e-07
1.82978e-07
1.82979e-07
1.82978e-07
1.82979e-07
1.82978e-07
1.8298e-07
1.82978e-07
1.82981e-07
1.82979e-07
1.82982e-07
1.82981e-07
1.82987e-07
1.82986e-07
1.82995e-07
1.82995e-07
1.83011e-07
1.83008e-07
1.83023e-07
1.82988e-07
1.82932e-07
1.82772e-07
1.82459e-07
1.8204e-07
1.80302e-07
1.80709e-07
1.81013e-07
1.81168e-07
1.81221e-07
1.81255e-07
1.81241e-07
1.81243e-07
1.81228e-07
1.81228e-07
1.81219e-07
1.8122e-07
1.81214e-07
1.81215e-07
1.81212e-07
1.81213e-07
1.81211e-07
1.81213e-07
1.81211e-07
1.81212e-07
1.81211e-07
1.81212e-07
1.81212e-07
1.81212e-07
1.81212e-07
1.81212e-07
1.81212e-07
1.81212e-07
1.81212e-07
1.81212e-07
1.81212e-07
1.81211e-07
1.81213e-07
1.81211e-07
1.81213e-07
1.81212e-07
1.81215e-07
1.81214e-07
1.8122e-07
1.81219e-07
1.81228e-07
1.81228e-07
1.81243e-07
1.81241e-07
1.81255e-07
1.81221e-07
1.81168e-07
1.81013e-07
1.80709e-07
1.80302e-07
1.78612e-07
1.79007e-07
1.79302e-07
1.79452e-07
1.79503e-07
1.79535e-07
1.79521e-07
1.79523e-07
1.79509e-07
1.79509e-07
1.795e-07
1.79501e-07
1.79495e-07
1.79497e-07
1.79493e-07
1.79495e-07
1.79493e-07
1.79494e-07
1.79493e-07
1.79494e-07
1.79493e-07
1.79494e-07
1.79493e-07
1.79493e-07
1.79493e-07
1.79493e-07
1.79493e-07
1.79493e-07
1.79494e-07
1.79493e-07
1.79494e-07
1.79493e-07
1.79494e-07
1.79493e-07
1.79495e-07
1.79493e-07
1.79497e-07
1.79495e-07
1.79501e-07
1.795e-07
1.79509e-07
1.79509e-07
1.79523e-07
1.79521e-07
1.79535e-07
1.79503e-07
1.79452e-07
1.79301e-07
1.79007e-07
1.78612e-07
1.76971e-07
1.77353e-07
1.77638e-07
1.77783e-07
1.77832e-07
1.77863e-07
1.7785e-07
1.77852e-07
1.77838e-07
1.77837e-07
1.77829e-07
1.77829e-07
1.77824e-07
1.77826e-07
1.77822e-07
1.77824e-07
1.77822e-07
1.77823e-07
1.77822e-07
1.77823e-07
1.77822e-07
1.77823e-07
1.77822e-07
1.77823e-07
1.77822e-07
1.77822e-07
1.77823e-07
1.77822e-07
1.77823e-07
1.77822e-07
1.77823e-07
1.77822e-07
1.77823e-07
1.77822e-07
1.77824e-07
1.77822e-07
1.77826e-07
1.77824e-07
1.77829e-07
1.77829e-07
1.77837e-07
1.77838e-07
1.77852e-07
1.7785e-07
1.77863e-07
1.77832e-07
1.77783e-07
1.77638e-07
1.77353e-07
1.76971e-07
1.75376e-07
1.75745e-07
1.76021e-07
1.76162e-07
1.76209e-07
1.76239e-07
1.76225e-07
1.76227e-07
1.76214e-07
1.76213e-07
1.76205e-07
1.76206e-07
1.76201e-07
1.76202e-07
1.76199e-07
1.762e-07
1.76198e-07
1.762e-07
1.76198e-07
1.76199e-07
1.76199e-07
1.76199e-07
1.76199e-07
1.76199e-07
1.76199e-07
1.76199e-07
1.76199e-07
1.76199e-07
1.76199e-07
1.76199e-07
1.762e-07
1.76198e-07
1.762e-07
1.76198e-07
1.762e-07
1.76199e-07
1.76202e-07
1.76201e-07
1.76206e-07
1.76205e-07
1.76213e-07
1.76214e-07
1.76227e-07
1.76225e-07
1.76239e-07
1.76209e-07
1.76162e-07
1.76021e-07
1.75745e-07
1.75376e-07
1.73828e-07
1.74183e-07
1.74452e-07
1.74587e-07
1.74632e-07
1.74661e-07
1.74648e-07
1.74649e-07
1.74636e-07
1.74636e-07
1.74628e-07
1.74629e-07
1.74624e-07
1.74625e-07
1.74622e-07
1.74624e-07
1.74622e-07
1.74623e-07
1.74622e-07
1.74623e-07
1.74622e-07
1.74623e-07
1.74622e-07
1.74623e-07
1.74622e-07
1.74622e-07
1.74623e-07
1.74622e-07
1.74623e-07
1.74622e-07
1.74623e-07
1.74622e-07
1.74623e-07
1.74622e-07
1.74624e-07
1.74622e-07
1.74625e-07
1.74624e-07
1.74629e-07
1.74628e-07
1.74636e-07
1.74636e-07
1.74649e-07
1.74648e-07
1.74661e-07
1.74632e-07
1.74587e-07
1.74451e-07
1.74183e-07
1.73828e-07
1.72326e-07
1.72667e-07
1.72928e-07
1.73058e-07
1.73101e-07
1.73129e-07
1.73117e-07
1.73118e-07
1.73106e-07
1.73105e-07
1.73097e-07
1.73098e-07
1.73093e-07
1.73095e-07
1.73092e-07
1.73093e-07
1.73092e-07
1.73093e-07
1.73092e-07
1.73093e-07
1.73092e-07
1.73093e-07
1.73092e-07
1.73092e-07
1.73092e-07
1.73092e-07
1.73092e-07
1.73092e-07
1.73093e-07
1.73092e-07
1.73093e-07
1.73092e-07
1.73093e-07
1.73092e-07
1.73093e-07
1.73092e-07
1.73095e-07
1.73093e-07
1.73098e-07
1.73097e-07
1.73105e-07
1.73105e-07
1.73118e-07
1.73116e-07
1.73129e-07
1.73101e-07
1.73058e-07
1.72928e-07
1.72667e-07
1.72326e-07
1.70869e-07
1.71198e-07
1.7145e-07
1.71575e-07
1.71617e-07
1.71644e-07
1.71631e-07
1.71632e-07
1.71621e-07
1.7162e-07
1.71613e-07
1.71614e-07
1.71609e-07
1.7161e-07
1.71608e-07
1.71609e-07
1.71607e-07
1.71609e-07
1.71608e-07
1.71609e-07
1.71608e-07
1.71609e-07
1.71608e-07
1.71608e-07
1.71608e-07
1.71608e-07
1.71608e-07
1.71608e-07
1.71609e-07
1.71608e-07
1.71609e-07
1.71608e-07
1.71609e-07
1.71607e-07
1.71609e-07
1.71608e-07
1.7161e-07
1.71609e-07
1.71614e-07
1.71613e-07
1.7162e-07
1.71621e-07
1.71632e-07
1.71631e-07
1.71644e-07
1.71617e-07
1.71575e-07
1.7145e-07
1.71198e-07
1.70869e-07
1.69457e-07
1.69773e-07
1.70016e-07
1.70138e-07
1.70177e-07
1.70203e-07
1.70191e-07
1.70192e-07
1.70181e-07
1.70181e-07
1.70174e-07
1.70175e-07
1.7017e-07
1.70172e-07
1.70169e-07
1.70171e-07
1.70169e-07
1.7017e-07
1.70169e-07
1.7017e-07
1.70169e-07
1.7017e-07
1.7017e-07
1.7017e-07
1.7017e-07
1.7017e-07
1.7017e-07
1.7017e-07
1.7017e-07
1.70169e-07
1.7017e-07
1.70169e-07
1.7017e-07
1.70169e-07
1.70171e-07
1.70169e-07
1.70172e-07
1.7017e-07
1.70175e-07
1.70174e-07
1.70181e-07
1.70181e-07
1.70192e-07
1.70191e-07
1.70203e-07
1.70177e-07
1.70138e-07
1.70016e-07
1.69773e-07
1.69457e-07
1.6809e-07
1.68394e-07
1.68628e-07
1.68745e-07
1.68783e-07
1.68808e-07
1.68796e-07
1.68797e-07
1.68787e-07
1.68786e-07
1.6878e-07
1.68781e-07
1.68777e-07
1.68778e-07
1.68776e-07
1.68777e-07
1.68775e-07
1.68777e-07
1.68776e-07
1.68777e-07
1.68776e-07
1.68777e-07
1.68776e-07
1.68777e-07
1.68776e-07
1.68776e-07
1.68777e-07
1.68776e-07
1.68777e-07
1.68776e-07
1.68777e-07
1.68776e-07
1.68777e-07
1.68775e-07
1.68777e-07
1.68776e-07
1.68778e-07
1.68777e-07
1.68781e-07
1.6878e-07
1.68786e-07
1.68787e-07
1.68797e-07
1.68796e-07
1.68808e-07
1.68783e-07
1.68745e-07
1.68627e-07
1.68394e-07
1.6809e-07
1.66766e-07
1.67058e-07
1.67282e-07
1.67396e-07
1.67433e-07
1.67457e-07
1.67445e-07
1.67446e-07
1.67437e-07
1.67437e-07
1.6743e-07
1.67431e-07
1.67428e-07
1.67429e-07
1.67426e-07
1.67428e-07
1.67426e-07
1.67428e-07
1.67427e-07
1.67428e-07
1.67427e-07
1.67428e-07
1.67427e-07
1.67428e-07
1.67428e-07
1.67428e-07
1.67428e-07
1.67427e-07
1.67428e-07
1.67427e-07
1.67428e-07
1.67427e-07
1.67428e-07
1.67426e-07
1.67428e-07
1.67427e-07
1.67429e-07
1.67428e-07
1.67431e-07
1.6743e-07
1.67437e-07
1.67437e-07
1.67446e-07
1.67445e-07
1.67457e-07
1.67433e-07
1.67396e-07
1.67282e-07
1.67058e-07
1.66766e-07
1.65529e-07
1.65812e-07
1.66026e-07
1.66137e-07
1.66173e-07
1.66196e-07
1.66184e-07
1.66185e-07
1.66176e-07
1.66176e-07
1.66171e-07
1.66171e-07
1.66168e-07
1.66169e-07
1.66167e-07
1.66168e-07
1.66167e-07
1.66168e-07
1.66168e-07
1.66168e-07
1.66168e-07
1.66168e-07
1.66168e-07
1.66168e-07
1.66168e-07
1.66168e-07
1.66168e-07
1.66168e-07
1.66168e-07
1.66168e-07
1.66169e-07
1.66168e-07
1.66168e-07
1.66167e-07
1.66168e-07
1.66167e-07
1.66169e-07
1.66168e-07
1.66171e-07
1.66171e-07
1.66176e-07
1.66176e-07
1.66185e-07
1.66184e-07
1.66196e-07
1.66173e-07
1.66137e-07
1.66026e-07
1.65812e-07
1.65529e-07
1.64323e-07
1.64598e-07
1.64798e-07
1.64904e-07
1.64935e-07
1.64956e-07
1.64942e-07
1.64942e-07
1.64933e-07
1.64933e-07
1.64927e-07
1.64927e-07
1.64924e-07
1.64925e-07
1.64923e-07
1.64924e-07
1.64923e-07
1.64924e-07
1.64923e-07
1.64924e-07
1.64924e-07
1.64924e-07
1.64924e-07
1.64924e-07
1.64924e-07
1.64924e-07
1.64924e-07
1.64924e-07
1.64924e-07
1.64924e-07
1.64924e-07
1.64923e-07
1.64924e-07
1.64923e-07
1.64924e-07
1.64923e-07
1.64925e-07
1.64924e-07
1.64927e-07
1.64927e-07
1.64933e-07
1.64933e-07
1.64942e-07
1.64942e-07
1.64956e-07
1.64935e-07
1.64904e-07
1.64798e-07
1.64598e-07
1.64323e-07
1.63133e-07
1.63398e-07
1.63588e-07
1.63691e-07
1.63721e-07
1.63741e-07
1.63727e-07
1.63727e-07
1.63718e-07
1.63718e-07
1.63713e-07
1.63713e-07
1.6371e-07
1.63711e-07
1.63709e-07
1.63711e-07
1.63709e-07
1.63711e-07
1.6371e-07
1.63711e-07
1.6371e-07
1.63711e-07
1.6371e-07
1.63711e-07
1.63711e-07
1.63711e-07
1.63711e-07
1.6371e-07
1.63711e-07
1.6371e-07
1.63711e-07
1.6371e-07
1.63711e-07
1.63709e-07
1.63711e-07
1.63709e-07
1.63711e-07
1.6371e-07
1.63713e-07
1.63713e-07
1.63718e-07
1.63718e-07
1.63727e-07
1.63727e-07
1.63741e-07
1.63721e-07
1.6369e-07
1.63588e-07
1.63398e-07
1.63133e-07
1.61985e-07
1.6224e-07
1.6242e-07
1.6252e-07
1.6255e-07
1.62569e-07
1.62554e-07
1.62555e-07
1.62547e-07
1.62547e-07
1.62542e-07
1.62542e-07
1.62539e-07
1.62541e-07
1.62539e-07
1.6254e-07
1.62539e-07
1.6254e-07
1.62539e-07
1.6254e-07
1.6254e-07
1.6254e-07
1.6254e-07
1.6254e-07
1.6254e-07
1.6254e-07
1.6254e-07
1.6254e-07
1.6254e-07
1.6254e-07
1.6254e-07
1.62539e-07
1.6254e-07
1.62539e-07
1.6254e-07
1.62539e-07
1.62541e-07
1.62539e-07
1.62542e-07
1.62542e-07
1.62547e-07
1.62547e-07
1.62555e-07
1.62554e-07
1.62569e-07
1.6255e-07
1.6252e-07
1.6242e-07
1.6224e-07
1.61985e-07
1.60879e-07
1.61123e-07
1.61294e-07
1.61391e-07
1.6142e-07
1.61439e-07
1.61424e-07
1.61424e-07
1.61417e-07
1.61417e-07
1.61413e-07
1.61414e-07
1.61411e-07
1.61412e-07
1.6141e-07
1.61412e-07
1.61411e-07
1.61412e-07
1.61411e-07
1.61412e-07
1.61412e-07
1.61412e-07
1.61412e-07
1.61412e-07
1.61412e-07
1.61412e-07
1.61412e-07
1.61412e-07
1.61412e-07
1.61412e-07
1.61412e-07
1.61411e-07
1.61412e-07
1.61411e-07
1.61412e-07
1.6141e-07
1.61412e-07
1.61411e-07
1.61414e-07
1.61413e-07
1.61417e-07
1.61417e-07
1.61424e-07
1.61424e-07
1.61439e-07
1.6142e-07
1.61391e-07
1.61294e-07
1.61123e-07
1.60879e-07
1.59814e-07
1.60048e-07
1.6021e-07
1.60304e-07
1.60333e-07
1.6035e-07
1.60335e-07
1.60336e-07
1.60329e-07
1.60329e-07
1.60325e-07
1.60326e-07
1.60324e-07
1.60325e-07
1.60324e-07
1.60325e-07
1.60324e-07
1.60325e-07
1.60325e-07
1.60326e-07
1.60325e-07
1.60326e-07
1.60325e-07
1.60326e-07
1.60326e-07
1.60326e-07
1.60326e-07
1.60325e-07
1.60326e-07
1.60325e-07
1.60326e-07
1.60325e-07
1.60325e-07
1.60324e-07
1.60325e-07
1.60324e-07
1.60325e-07
1.60324e-07
1.60326e-07
1.60325e-07
1.60329e-07
1.60329e-07
1.60336e-07
1.60335e-07
1.6035e-07
1.60333e-07
1.60304e-07
1.6021e-07
1.60048e-07
1.59813e-07
1.58822e-07
1.59047e-07
1.59201e-07
1.59293e-07
1.59321e-07
1.59338e-07
1.59322e-07
1.59323e-07
1.59317e-07
1.59318e-07
1.59314e-07
1.59315e-07
1.59313e-07
1.59314e-07
1.59313e-07
1.59314e-07
1.59313e-07
1.59315e-07
1.59314e-07
1.59315e-07
1.59314e-07
1.59315e-07
1.59315e-07
1.59315e-07
1.59315e-07
1.59315e-07
1.59315e-07
1.59315e-07
1.59315e-07
1.59314e-07
1.59315e-07
1.59314e-07
1.59315e-07
1.59313e-07
1.59314e-07
1.59313e-07
1.59314e-07
1.59313e-07
1.59315e-07
1.59314e-07
1.59318e-07
1.59317e-07
1.59323e-07
1.59322e-07
1.59338e-07
1.59321e-07
1.59292e-07
1.59201e-07
1.59047e-07
1.58822e-07
1.57871e-07
1.58087e-07
1.58234e-07
1.58322e-07
1.58351e-07
1.58368e-07
1.58349e-07
1.5835e-07
1.58344e-07
1.58344e-07
1.5834e-07
1.5834e-07
1.58338e-07
1.58339e-07
1.58338e-07
1.58339e-07
1.58338e-07
1.58339e-07
1.58339e-07
1.5834e-07
1.58339e-07
1.5834e-07
1.58339e-07
1.5834e-07
1.5834e-07
1.5834e-07
1.5834e-07
1.58339e-07
1.5834e-07
1.58339e-07
1.5834e-07
1.58339e-07
1.58339e-07
1.58338e-07
1.58339e-07
1.58338e-07
1.58339e-07
1.58338e-07
1.5834e-07
1.5834e-07
1.58344e-07
1.58344e-07
1.5835e-07
1.58349e-07
1.58368e-07
1.58351e-07
1.58322e-07
1.58234e-07
1.58087e-07
1.57871e-07
1.56932e-07
1.5714e-07
1.57278e-07
1.57364e-07
1.57391e-07
1.57407e-07
1.57387e-07
1.57387e-07
1.57381e-07
1.57381e-07
1.57377e-07
1.57378e-07
1.57376e-07
1.57377e-07
1.57376e-07
1.57377e-07
1.57376e-07
1.57377e-07
1.57377e-07
1.57378e-07
1.57377e-07
1.57378e-07
1.57378e-07
1.57378e-07
1.57378e-07
1.57378e-07
1.57378e-07
1.57378e-07
1.57378e-07
1.57377e-07
1.57378e-07
1.57377e-07
1.57377e-07
1.57376e-07
1.57377e-07
1.57376e-07
1.57377e-07
1.57376e-07
1.57378e-07
1.57377e-07
1.57381e-07
1.57381e-07
1.57387e-07
1.57387e-07
1.57407e-07
1.57391e-07
1.57364e-07
1.57278e-07
1.5714e-07
1.56932e-07
1.56028e-07
1.56226e-07
1.56358e-07
1.56441e-07
1.56468e-07
1.56484e-07
1.56492e-07
1.56493e-07
1.56488e-07
1.56488e-07
1.56484e-07
1.56485e-07
1.56483e-07
1.56484e-07
1.56483e-07
1.56484e-07
1.56484e-07
1.56485e-07
1.56484e-07
1.56485e-07
1.56485e-07
1.56485e-07
1.56485e-07
1.56485e-07
1.56485e-07
1.56485e-07
1.56485e-07
1.56485e-07
1.56485e-07
1.56485e-07
1.56485e-07
1.56484e-07
1.56485e-07
1.56484e-07
1.56484e-07
1.56483e-07
1.56484e-07
1.56483e-07
1.56485e-07
1.56484e-07
1.56488e-07
1.56487e-07
1.56493e-07
1.56492e-07
1.56484e-07
1.56468e-07
1.5644e-07
1.56358e-07
1.56226e-07
1.56028e-07
1.55189e-07
1.55378e-07
1.55505e-07
1.55584e-07
1.55612e-07
1.55629e-07
1.55635e-07
1.55637e-07
1.55632e-07
1.55632e-07
1.55629e-07
1.5563e-07
1.55629e-07
1.5563e-07
1.55629e-07
1.5563e-07
1.5563e-07
1.55631e-07
1.5563e-07
1.55631e-07
1.55631e-07
1.55631e-07
1.55631e-07
1.55631e-07
1.55631e-07
1.55631e-07
1.55631e-07
1.55631e-07
1.55631e-07
1.55631e-07
1.55631e-07
1.5563e-07
1.55631e-07
1.5563e-07
1.5563e-07
1.55629e-07
1.5563e-07
1.55629e-07
1.5563e-07
1.55629e-07
1.55632e-07
1.55632e-07
1.55637e-07
1.55635e-07
1.55628e-07
1.55612e-07
1.55584e-07
1.55504e-07
1.55378e-07
1.55189e-07
1.54382e-07
1.54566e-07
1.54684e-07
1.54761e-07
1.54786e-07
1.54801e-07
1.54806e-07
1.54807e-07
1.54802e-07
1.54802e-07
1.54799e-07
1.548e-07
1.54799e-07
1.548e-07
1.54799e-07
1.548e-07
1.54799e-07
1.54801e-07
1.548e-07
1.54801e-07
1.54801e-07
1.54801e-07
1.54801e-07
1.54801e-07
1.54801e-07
1.54801e-07
1.54801e-07
1.54801e-07
1.54801e-07
1.54801e-07
1.54801e-07
1.548e-07
1.54801e-07
1.54799e-07
1.548e-07
1.54799e-07
1.548e-07
1.54799e-07
1.548e-07
1.54799e-07
1.54802e-07
1.54802e-07
1.54807e-07
1.54806e-07
1.54801e-07
1.54786e-07
1.5476e-07
1.54684e-07
1.54566e-07
1.54382e-07
1.53615e-07
1.53791e-07
1.53904e-07
1.53978e-07
1.54003e-07
1.54018e-07
1.54023e-07
1.54025e-07
1.5402e-07
1.54021e-07
1.54018e-07
1.54019e-07
1.54017e-07
1.54019e-07
1.54018e-07
1.54019e-07
1.54018e-07
1.5402e-07
1.54019e-07
1.5402e-07
1.5402e-07
1.5402e-07
1.5402e-07
1.5402e-07
1.5402e-07
1.5402e-07
1.5402e-07
1.5402e-07
1.5402e-07
1.5402e-07
1.5402e-07
1.54019e-07
1.5402e-07
1.54018e-07
1.54019e-07
1.54018e-07
1.54019e-07
1.54017e-07
1.54019e-07
1.54018e-07
1.54021e-07
1.5402e-07
1.54025e-07
1.54023e-07
1.54018e-07
1.54003e-07
1.53978e-07
1.53904e-07
1.53791e-07
1.53615e-07
1.52884e-07
1.53052e-07
1.53158e-07
1.5323e-07
1.53256e-07
1.53271e-07
1.53276e-07
1.53278e-07
1.53274e-07
1.53274e-07
1.53272e-07
1.53273e-07
1.53272e-07
1.53273e-07
1.53272e-07
1.53273e-07
1.53273e-07
1.53274e-07
1.53274e-07
1.53274e-07
1.53274e-07
1.53275e-07
1.53275e-07
1.53275e-07
1.53275e-07
1.53275e-07
1.53275e-07
1.53275e-07
1.53275e-07
1.53274e-07
1.53274e-07
1.53274e-07
1.53274e-07
1.53273e-07
1.53273e-07
1.53272e-07
1.53273e-07
1.53271e-07
1.53273e-07
1.53272e-07
1.53274e-07
1.53274e-07
1.53277e-07
1.53276e-07
1.53271e-07
1.53256e-07
1.5323e-07
1.53158e-07
1.53052e-07
1.52883e-07
1.52562e-07
1.52563e-07
1.52563e-07
1.52563e-07
1.52563e-07
1.52564e-07
1.52563e-07
1.52563e-07
1.52564e-07
1.52563e-07
1.52563e-07
1.52563e-07
1.52563e-07
1.52562e-07
1.52563e-07
1.52562e-07
1.52562e-07
1.52561e-07
1.52561e-07
1.5256e-07
1.52561e-07
1.5256e-07
1.52562e-07
1.52561e-07
1.52565e-07
1.52563e-07
1.52558e-07
1.52543e-07
1.52517e-07
1.52447e-07
1.52347e-07
1.52185e-07
1.51885e-07
1.51885e-07
1.51885e-07
1.51884e-07
1.51884e-07
1.51883e-07
1.51884e-07
1.51882e-07
1.51883e-07
1.51881e-07
1.51882e-07
1.51881e-07
1.51883e-07
1.51882e-07
1.51885e-07
1.51883e-07
1.51878e-07
1.51864e-07
1.51837e-07
1.51769e-07
1.51674e-07
1.5152e-07
1.51236e-07
1.51235e-07
1.51237e-07
1.51234e-07
1.5123e-07
1.51216e-07
1.51189e-07
1.51123e-07
1.51033e-07
1.50886e-07
)
;

boundaryField
{
    fuel
    {
        type            fixedValue;
        value           nonuniform 0();
    }
    wall
    {
        type            zeroGradient;
    }
    outlet
    {
        type            zeroGradient;
    }
    frontAndBack
    {
        type            empty;
    }
    procBoundary0to1
    {
        type            processor;
        value           nonuniform List<scalar> 
50
(
2.14482e-07
2.14966e-07
2.15411e-07
2.15638e-07
2.15718e-07
2.15767e-07
2.15749e-07
2.15757e-07
2.15738e-07
2.15742e-07
2.1573e-07
2.15733e-07
2.15726e-07
2.15729e-07
2.15724e-07
2.15726e-07
2.15723e-07
2.15725e-07
2.15723e-07
2.15725e-07
2.15723e-07
2.15724e-07
2.15723e-07
2.15724e-07
2.15724e-07
2.15724e-07
2.15724e-07
2.15723e-07
2.15724e-07
2.15723e-07
2.15725e-07
2.15723e-07
2.15725e-07
2.15723e-07
2.15726e-07
2.15724e-07
2.15729e-07
2.15726e-07
2.15733e-07
2.1573e-07
2.15742e-07
2.15738e-07
2.15757e-07
2.15749e-07
2.15767e-07
2.15718e-07
2.15638e-07
2.15411e-07
2.14966e-07
2.14482e-07
)
;
    }
    procBoundary0to2
    {
        type            processor;
        value           nonuniform List<scalar> 
53
(
1.52186e-07
1.52347e-07
1.52447e-07
1.52517e-07
1.52543e-07
1.52558e-07
1.52563e-07
1.52565e-07
1.52562e-07
1.52562e-07
1.5256e-07
1.52561e-07
1.5256e-07
1.52561e-07
1.52561e-07
1.52562e-07
1.52562e-07
1.52563e-07
1.52563e-07
1.51884e-07
1.51885e-07
1.51885e-07
1.51885e-07
1.51885e-07
1.51885e-07
1.51885e-07
1.51885e-07
1.51885e-07
1.51885e-07
1.51885e-07
1.51239e-07
1.51238e-07
1.51238e-07
1.51238e-07
1.51238e-07
1.51237e-07
1.51237e-07
1.51236e-07
1.51236e-07
1.51235e-07
1.51235e-07
1.51234e-07
1.51234e-07
1.50619e-07
1.50618e-07
1.50619e-07
1.50617e-07
1.50612e-07
1.50598e-07
1.50571e-07
1.50508e-07
1.50423e-07
1.50282e-07
)
;
    }
}


// ************************************************************************* //
