/*--------------------------------*- C++ -*----------------------------------*\
| =========                 |                                                 |
| \\      /  F ield         | OpenFOAM: The Open Source CFD Toolbox           |
|  \\    /   O peration     | Version:  dev                                   |
|   \\  /    A nd           | Web:      www.OpenFOAM.org                      |
|    \\/     M anipulation  |                                                 |
\*---------------------------------------------------------------------------*/
FoamFile
{
    version     2.0;
    format      ascii;
    class       volScalarField;
    location    "0.09";
    object      A1-;
}
// * * * * * * * * * * * * * * * * * * * * * * * * * * * * * * * * * * * * * //

dimensions      [0 0 0 0 0 0 0];

internalField   nonuniform List<scalar> 
25
(
2.23822e-12
2.08025e-12
1.91241e-12
1.73314e-12
1.55575e-12
1.37754e-12
1.20271e-12
1.03305e-12
8.70528e-13
7.15882e-13
5.79264e-13
4.56403e-13
3.48916e-13
2.57543e-13
1.82402e-13
1.22977e-13
7.8146e-14
4.62256e-14
2.50783e-14
1.22791e-14
5.35853e-15
2.0953e-15
7.69636e-16
2.86942e-16
1.02032e-16
)
;

boundaryField
{
    wall
    {
        type            zeroGradient;
    }
    fuel
    {
        type            fixedValue;
        value           nonuniform 0();
    }
    outlet
    {
        type            inletOutlet;
        inletValue      uniform 0;
        value           uniform 1.02032e-16;
    }
    procBoundary3to2
    {
        type            processor;
        value           uniform 2.38574e-12;
    }
}


// ************************************************************************* //
