/*--------------------------------*- C++ -*----------------------------------*\
| =========                 |                                                 |
| \\      /  F ield         | OpenFOAM: The Open Source CFD Toolbox           |
|  \\    /   O peration     | Version:  dev                                   |
|   \\  /    A nd           | Web:      www.OpenFOAM.org                      |
|    \\/     M anipulation  |                                                 |
\*---------------------------------------------------------------------------*/
FoamFile
{
    version     2.0;
    format      ascii;
    class       volScalarField;
    location    "0.09";
    object      A2R5-;
}
// * * * * * * * * * * * * * * * * * * * * * * * * * * * * * * * * * * * * * //

dimensions      [0 0 0 0 0 0 0];

internalField   nonuniform List<scalar> 
25
(
5.38115e-15
4.95944e-15
4.5244e-15
4.07041e-15
3.62941e-15
3.19301e-15
2.77055e-15
2.36542e-15
1.98155e-15
1.61996e-15
1.30351e-15
1.02137e-15
7.76551e-16
5.70058e-16
4.01522e-16
2.69238e-16
1.70174e-16
1.00151e-16
5.40923e-17
2.64061e-17
1.15257e-17
4.52687e-18
1.6699e-18
6.22754e-19
2.21188e-19
)
;

boundaryField
{
    wall
    {
        type            zeroGradient;
    }
    fuel
    {
        type            fixedValue;
        value           nonuniform 0();
    }
    outlet
    {
        type            inletOutlet;
        inletValue      uniform 0;
        value           uniform 2.21188e-19;
    }
    procBoundary3to2
    {
        type            processor;
        value           uniform 5.79598e-15;
    }
}


// ************************************************************************* //
