/*--------------------------------*- C++ -*----------------------------------*\
| =========                 |                                                 |
| \\      /  F ield         | OpenFOAM: The Open Source CFD Toolbox           |
|  \\    /   O peration     | Version:  dev                                   |
|   \\  /    A nd           | Web:      www.OpenFOAM.org                      |
|    \\/     M anipulation  |                                                 |
\*---------------------------------------------------------------------------*/
FoamFile
{
    version     2.0;
    format      ascii;
    class       volScalarField;
    location    "0.09";
    object      A4-;
}
// * * * * * * * * * * * * * * * * * * * * * * * * * * * * * * * * * * * * * //

dimensions      [0 0 0 0 0 0 0];

internalField   nonuniform List<scalar> 
25
(
9.25962e-18
7.13619e-18
5.49474e-18
4.23224e-18
3.24709e-18
2.53771e-18
2.00395e-18
1.60522e-18
1.30245e-18
1.08147e-18
9.14667e-19
7.87216e-19
6.87851e-19
6.07888e-19
5.41228e-19
4.82223e-19
4.28225e-19
3.77252e-19
3.26904e-19
2.80845e-19
2.31822e-19
1.8309e-19
1.2973e-19
7.8442e-20
3.66746e-20
)
;

boundaryField
{
    wall
    {
        type            zeroGradient;
    }
    fuel
    {
        type            fixedValue;
        value           nonuniform 0();
    }
    outlet
    {
        type            inletOutlet;
        inletValue      uniform 0;
        value           uniform 3.66746e-20;
    }
    procBoundary3to2
    {
        type            processor;
        value           uniform 1.19611e-17;
    }
}


// ************************************************************************* //
