/*--------------------------------*- C++ -*----------------------------------*\
| =========                 |                                                 |
| \\      /  F ield         | OpenFOAM: The Open Source CFD Toolbox           |
|  \\    /   O peration     | Version:  dev                                   |
|   \\  /    A nd           | Web:      www.OpenFOAM.org                      |
|    \\/     M anipulation  |                                                 |
\*---------------------------------------------------------------------------*/
FoamFile
{
    version     2.0;
    format      ascii;
    class       volScalarField;
    location    "0.09";
    object      C5H2;
}
// * * * * * * * * * * * * * * * * * * * * * * * * * * * * * * * * * * * * * //

dimensions      [0 0 0 0 0 0 0];

internalField   nonuniform List<scalar> 
25
(
1.57599e-11
1.48574e-11
1.39769e-11
1.31166e-11
1.22557e-11
1.14563e-11
1.06784e-11
9.92552e-12
9.18418e-12
8.48528e-12
7.8113e-12
7.16485e-12
6.5431e-12
5.94278e-12
5.36482e-12
4.79731e-12
4.24469e-12
3.70894e-12
3.17887e-12
2.70109e-12
2.2048e-12
1.72444e-12
1.21118e-12
7.27675e-13
3.38984e-13
)
;

boundaryField
{
    wall
    {
        type            zeroGradient;
    }
    fuel
    {
        type            fixedValue;
        value           nonuniform 0();
    }
    outlet
    {
        type            inletOutlet;
        inletValue      uniform 0;
        value           uniform 3.38984e-13;
    }
    procBoundary3to2
    {
        type            processor;
        value           uniform 1.66766e-11;
    }
}


// ************************************************************************* //
