/*--------------------------------*- C++ -*----------------------------------*\
| =========                 |                                                 |
| \\      /  F ield         | OpenFOAM: The Open Source CFD Toolbox           |
|  \\    /   O peration     | Version:  dev                                   |
|   \\  /    A nd           | Web:      www.OpenFOAM.org                      |
|    \\/     M anipulation  |                                                 |
\*---------------------------------------------------------------------------*/
FoamFile
{
    version     2.0;
    format      ascii;
    class       volScalarField;
    location    "0.09";
    object      C5H5O;
}
// * * * * * * * * * * * * * * * * * * * * * * * * * * * * * * * * * * * * * //

dimensions      [0 0 0 0 0 0 0];

internalField   nonuniform List<scalar> 
25
(
8.7275e-20
8.82392e-20
8.79063e-20
8.6169e-20
8.32182e-20
7.91959e-20
7.44894e-20
6.94805e-20
6.45502e-20
6.00695e-20
5.6537e-20
5.39105e-20
5.22484e-20
5.15492e-20
5.18131e-20
5.30829e-20
5.54535e-20
5.89919e-20
6.34917e-20
6.80136e-20
7.04433e-20
6.78247e-20
5.80797e-20
4.17598e-20
2.10176e-20
)
;

boundaryField
{
    wall
    {
        type            zeroGradient;
    }
    fuel
    {
        type            fixedValue;
        value           nonuniform 0();
    }
    outlet
    {
        type            inletOutlet;
        inletValue      uniform 0;
        value           uniform 2.10176e-20;
    }
    procBoundary3to2
    {
        type            processor;
        value           uniform 8.49995e-20;
    }
}


// ************************************************************************* //
