/*--------------------------------*- C++ -*----------------------------------*\
| =========                 |                                                 |
| \\      /  F ield         | OpenFOAM: The Open Source CFD Toolbox           |
|  \\    /   O peration     | Version:  dev                                   |
|   \\  /    A nd           | Web:      www.OpenFOAM.org                      |
|    \\/     M anipulation  |                                                 |
\*---------------------------------------------------------------------------*/
FoamFile
{
    version     2.0;
    format      ascii;
    class       volVectorField;
    location    "0.09";
    object      U;
}
// * * * * * * * * * * * * * * * * * * * * * * * * * * * * * * * * * * * * * //

dimensions      [0 1 -1 0 0 0 0];

internalField   nonuniform List<vector> 
25
(
(3.70967e-13 -3.70967e-13 0.506213)
(3.65372e-13 -3.65372e-13 0.508707)
(3.59378e-13 -3.59378e-13 0.511636)
(3.52997e-13 -3.52997e-13 0.514582)
(3.46215e-13 -3.46215e-13 0.517035)
(3.39006e-13 -3.39006e-13 0.519585)
(3.31329e-13 -3.31329e-13 0.522329)
(3.23057e-13 -3.23057e-13 0.524777)
(3.1447e-13 -3.1447e-13 0.527595)
(3.04994e-13 -3.04994e-13 0.531113)
(2.95266e-13 -2.95266e-13 0.533321)
(2.84406e-13 -2.84406e-13 0.535442)
(2.72924e-13 -2.72924e-13 0.537664)
(2.60645e-13 -2.60645e-13 0.540055)
(2.47185e-13 -2.47185e-13 0.54215)
(2.32646e-13 -2.32646e-13 0.544081)
(2.16974e-13 -2.16974e-13 0.545905)
(2.0017e-13 -2.0017e-13 0.547392)
(1.81765e-13 -1.81765e-13 0.548464)
(1.61412e-13 -1.61412e-13 0.549092)
(1.38859e-13 -1.38859e-13 0.549794)
(1.13554e-13 -1.13554e-13 0.550822)
(8.50699e-14 -8.50699e-14 0.551461)
(5.35604e-14 -5.35604e-14 0.54701)
(2.5512e-14 -2.5512e-14 0.589617)
)
;

boundaryField
{
    wall
    {
        type            zeroGradient;
    }
    fuel
    {
        type            fixedValue;
        value           nonuniform 0();
    }
    outlet
    {
        type            pressureInletOutletVelocity;
        value           uniform (2.5512e-14 -2.5512e-14 0.589617);
    }
    procBoundary3to2
    {
        type            processor;
        value           uniform (3.76253e-13 -3.76253e-13 0.503173);
    }
}


// ************************************************************************* //
