/*--------------------------------*- C++ -*----------------------------------*\
| =========                 |                                                 |
| \\      /  F ield         | OpenFOAM: The Open Source CFD Toolbox           |
|  \\    /   O peration     | Version:  dev                                   |
|   \\  /    A nd           | Web:      www.OpenFOAM.org                      |
|    \\/     M anipulation  |                                                 |
\*---------------------------------------------------------------------------*/
FoamFile
{
    version     2.0;
    format      ascii;
    class       volScalarField;
    location    "0.07";
    object      A1C2H3*;
}
// * * * * * * * * * * * * * * * * * * * * * * * * * * * * * * * * * * * * * //

dimensions      [0 0 0 0 0 0 0];

internalField   nonuniform List<scalar> 
25
(
4.70435e-16
3.66905e-16
2.84936e-16
2.20648e-16
1.69698e-16
1.32588e-16
1.04461e-16
8.33876e-17
6.74132e-17
5.58303e-17
4.71803e-17
4.06495e-17
3.56193e-17
3.16194e-17
2.82941e-17
2.53505e-17
2.26415e-17
2.00568e-17
1.74686e-17
1.50682e-17
1.24817e-17
9.88452e-18
7.01925e-18
4.25064e-18
1.98895e-18
)
;

boundaryField
{
    wall
    {
        type            zeroGradient;
    }
    fuel
    {
        type            fixedValue;
        value           nonuniform 0();
    }
    outlet
    {
        type            inletOutlet;
        inletValue      uniform 0;
        value           uniform 1.98895e-18;
    }
    procBoundary3to2
    {
        type            processor;
        value           uniform 5.99653e-16;
    }
}


// ************************************************************************* //
