/*--------------------------------*- C++ -*----------------------------------*\
| =========                 |                                                 |
| \\      /  F ield         | OpenFOAM: The Open Source CFD Toolbox           |
|  \\    /   O peration     | Version:  dev                                   |
|   \\  /    A nd           | Web:      www.OpenFOAM.org                      |
|    \\/     M anipulation  |                                                 |
\*---------------------------------------------------------------------------*/
FoamFile
{
    version     2.0;
    format      ascii;
    class       volScalarField;
    location    "0.07";
    object      A2;
}
// * * * * * * * * * * * * * * * * * * * * * * * * * * * * * * * * * * * * * //

dimensions      [0 0 0 0 0 0 0];

internalField   nonuniform List<scalar> 
25
(
2.91924e-13
3.06544e-13
3.20415e-13
3.33672e-13
3.45402e-13
3.55959e-13
3.65038e-13
3.72541e-13
3.78393e-13
3.82353e-13
3.84054e-13
3.83469e-13
3.80384e-13
3.74582e-13
3.6584e-13
3.53921e-13
3.38578e-13
3.19548e-13
2.96552e-13
2.6929e-13
2.37438e-13
2.00652e-13
1.58523e-13
1.10472e-13
5.52997e-14
)
;

boundaryField
{
    wall
    {
        type            zeroGradient;
    }
    fuel
    {
        type            fixedValue;
        value           nonuniform 0();
    }
    outlet
    {
        type            inletOutlet;
        inletValue      uniform 0;
        value           uniform 5.52997e-14;
    }
    procBoundary3to2
    {
        type            processor;
        value           uniform 2.75709e-13;
    }
}


// ************************************************************************* //
