/*--------------------------------*- C++ -*----------------------------------*\
| =========                 |                                                 |
| \\      /  F ield         | OpenFOAM: The Open Source CFD Toolbox           |
|  \\    /   O peration     | Version:  dev                                   |
|   \\  /    A nd           | Web:      www.OpenFOAM.org                      |
|    \\/     M anipulation  |                                                 |
\*---------------------------------------------------------------------------*/
FoamFile
{
    version     2.0;
    format      ascii;
    class       volScalarField;
    location    "0.07";
    object      CH3OH;
}
// * * * * * * * * * * * * * * * * * * * * * * * * * * * * * * * * * * * * * //

dimensions      [0 0 0 0 0 0 0];

internalField   nonuniform List<scalar> 
25
(
5.78711e-11
5.81658e-11
5.77998e-11
5.66683e-11
5.48173e-11
5.22299e-11
4.90376e-11
4.54011e-11
4.15829e-11
3.80643e-11
3.56563e-11
3.4989e-11
3.69467e-11
4.23808e-11
5.19098e-11
6.56411e-11
8.28739e-11
1.01862e-10
1.19729e-10
1.32677e-10
1.36708e-10
1.28961e-10
1.08968e-10
7.85095e-11
3.97381e-11
)
;

boundaryField
{
    wall
    {
        type            zeroGradient;
    }
    fuel
    {
        type            fixedValue;
        value           nonuniform 0();
    }
    outlet
    {
        type            inletOutlet;
        inletValue      uniform 0;
        value           uniform 3.97381e-11;
    }
    procBoundary3to2
    {
        type            processor;
        value           uniform 5.6917e-11;
    }
}


// ************************************************************************* //
