/*--------------------------------*- C++ -*----------------------------------*\
| =========                 |                                                 |
| \\      /  F ield         | OpenFOAM: The Open Source CFD Toolbox           |
|  \\    /   O peration     | Version:  dev                                   |
|   \\  /    A nd           | Web:      www.OpenFOAM.org                      |
|    \\/     M anipulation  |                                                 |
\*---------------------------------------------------------------------------*/
FoamFile
{
    version     2.0;
    format      ascii;
    class       volScalarField;
    location    "0.07";
    object      CO2;
}
// * * * * * * * * * * * * * * * * * * * * * * * * * * * * * * * * * * * * * //

dimensions      [0 0 0 0 0 0 0];

internalField   nonuniform List<scalar> 
25
(
0.0251917
0.0246864
0.0241447
0.0235505
0.0229394
0.0222904
0.0216123
0.0208984
0.0201385
0.01933
0.018516
0.0176633
0.0167726
0.0158422
0.0148697
0.0138526
0.0127878
0.0116712
0.0104977
0.00926122
0.00795415
0.00656693
0.00508589
0.00348892
0.00172785
)
;

boundaryField
{
    wall
    {
        type            zeroGradient;
    }
    fuel
    {
        type            fixedValue;
        value           nonuniform 0();
    }
    outlet
    {
        type            inletOutlet;
        inletValue      uniform 0;
        value           uniform 0.00172785;
    }
    procBoundary3to2
    {
        type            processor;
        value           uniform 0.025675;
    }
}


// ************************************************************************* //
