/*--------------------------------*- C++ -*----------------------------------*\
| =========                 |                                                 |
| \\      /  F ield         | OpenFOAM: The Open Source CFD Toolbox           |
|  \\    /   O peration     | Version:  dev                                   |
|   \\  /    A nd           | Web:      www.OpenFOAM.org                      |
|    \\/     M anipulation  |                                                 |
\*---------------------------------------------------------------------------*/
FoamFile
{
    version     2.0;
    format      ascii;
    class       volScalarField;
    location    "0.07";
    object      P2-;
}
// * * * * * * * * * * * * * * * * * * * * * * * * * * * * * * * * * * * * * //

dimensions      [0 0 0 0 0 0 0];

internalField   nonuniform List<scalar> 
25
(
7.00495e-20
5.52112e-20
4.32353e-20
3.36732e-20
2.59702e-20
2.0279e-20
1.59144e-20
1.26145e-20
1.0098e-20
8.26935e-21
6.90807e-21
5.89158e-21
5.12438e-21
4.53047e-21
4.05316e-21
3.6425e-21
3.27129e-21
2.91876e-21
2.56311e-21
2.22808e-21
1.85972e-21
1.48237e-21
1.05877e-21
6.43818e-22
3.01945e-22
)
;

boundaryField
{
    wall
    {
        type            zeroGradient;
    }
    fuel
    {
        type            fixedValue;
        value           nonuniform 0();
    }
    outlet
    {
        type            inletOutlet;
        inletValue      uniform 0;
        value           uniform 3.01945e-22;
    }
    procBoundary3to2
    {
        type            processor;
        value           uniform 8.80644e-20;
    }
}


// ************************************************************************* //
