/*--------------------------------*- C++ -*----------------------------------*\
| =========                 |                                                 |
| \\      /  F ield         | OpenFOAM: The Open Source CFD Toolbox           |
|  \\    /   O peration     | Version:  dev                                   |
|   \\  /    A nd           | Web:      www.OpenFOAM.org                      |
|    \\/     M anipulation  |                                                 |
\*---------------------------------------------------------------------------*/
FoamFile
{
    version     2.0;
    format      ascii;
    class       volScalarField;
    location    "0.07";
    object      p_rgh;
}
// * * * * * * * * * * * * * * * * * * * * * * * * * * * * * * * * * * * * * //

dimensions      [1 -1 -2 0 0 0 0];

internalField   nonuniform List<scalar> 
25
(
99995.3
99995.7
99996
99996.4
99996.8
99997.2
99997.5
99997.9
99998.3
99998.6
99999
99999.4
99999.7
100000
100000
100001
100001
100001
100002
100002
100002
100002
100002
100002
100001
)
;

boundaryField
{
    wall
    {
        type            fixedFluxPressure;
        gradient        uniform 0;
        value           nonuniform List<scalar> 
100
(
99995.3
99995.7
99996
99996.4
99996.8
99997.2
99997.5
99997.9
99998.3
99998.6
99999
99999.4
99999.7
100000
100000
100001
100001
100001
100002
100002
100002
100002
100002
100002
100001
99995.3
99995.7
99996
99996.4
99996.8
99997.2
99997.5
99997.9
99998.3
99998.6
99999
99999.4
99999.7
100000
100000
100001
100001
100001
100002
100002
100002
100002
100002
100002
100001
99995.3
99995.7
99996
99996.4
99996.8
99997.2
99997.5
99997.9
99998.3
99998.6
99999
99999.4
99999.7
100000
100000
100001
100001
100001
100002
100002
100002
100002
100002
100002
100001
99995.3
99995.7
99996
99996.4
99996.8
99997.2
99997.5
99997.9
99998.3
99998.6
99999
99999.4
99999.7
100000
100000
100001
100001
100001
100002
100002
100002
100002
100002
100002
100001
)
;
    }
    fuel
    {
        type            fixedFluxPressure;
        gradient        nonuniform 0();
        value           nonuniform 0();
    }
    outlet
    {
        type            fixedFluxPressure;
        gradient        uniform 0;
        value           uniform 100000;
    }
    procBoundary3to2
    {
        type            processor;
        value           uniform 99994.9;
    }
}


// ************************************************************************* //
