/*--------------------------------*- C++ -*----------------------------------*\
| =========                 |                                                 |
| \\      /  F ield         | OpenFOAM: The Open Source CFD Toolbox           |
|  \\    /   O peration     | Version:  dev                                   |
|   \\  /    A nd           | Web:      www.OpenFOAM.org                      |
|    \\/     M anipulation  |                                                 |
\*---------------------------------------------------------------------------*/
FoamFile
{
    version     2.0;
    format      ascii;
    class       volScalarField;
    location    "0.07";
    object      T;
}
// * * * * * * * * * * * * * * * * * * * * * * * * * * * * * * * * * * * * * //

dimensions      [0 0 0 1 0 0 0];

internalField   nonuniform List<scalar> 
25
(
792.4
773.634
754.924
736.221
717.162
698.821
680.552
662.414
644.129
626.291
608.577
590.99
573.519
556.112
538.746
521.239
503.858
486.47
468.776
452.158
434.631
417.479
399.174
381.765
368.127
)
;

boundaryField
{
    wall
    {
        type            zeroGradient;
    }
    fuel
    {
        type            fixedValue;
        value           nonuniform 0();
    }
    outlet
    {
        type            inletOutlet;
        inletValue      uniform 353;
        value           uniform 365.89;
    }
    procBoundary3to2
    {
        type            processor;
        value           uniform 811.179;
    }
}


// ************************************************************************* //
