/*--------------------------------*- C++ -*----------------------------------*\
| =========                 |                                                 |
| \\      /  F ield         | OpenFOAM: The Open Source CFD Toolbox           |
|  \\    /   O peration     | Version:  dev                                   |
|   \\  /    A nd           | Web:      www.OpenFOAM.org                      |
|    \\/     M anipulation  |                                                 |
\*---------------------------------------------------------------------------*/
FoamFile
{
    version     2.0;
    format      ascii;
    class       volScalarField;
    location    "0.185";
    object      A1C2H*;
}
// * * * * * * * * * * * * * * * * * * * * * * * * * * * * * * * * * * * * * //

dimensions      [0 0 0 0 0 0 0];

internalField   nonuniform List<scalar> 
250
(
6.62198e-07
6.62182e-07
6.61611e-07
6.61529e-07
6.61908e-07
6.6182e-07
6.62515e-07
6.63017e-07
6.6838e-07
6.96193e-07
5.87535e-09
5.43255e-07
5.43158e-07
5.43345e-07
5.43001e-07
5.43292e-07
5.43357e-07
5.4361e-07
5.45628e-07
5.57555e-07
6.33027e-07
4.79938e-09
3.49919e-07
3.49749e-07
3.50154e-07
3.50088e-07
3.50082e-07
3.50197e-07
3.50416e-07
3.52469e-07
3.64892e-07
4.47898e-07
2.17139e-09
2.1303e-07
2.12816e-07
2.13489e-07
2.13475e-07
2.13439e-07
2.13548e-07
2.1371e-07
2.15398e-07
2.26199e-07
3.03491e-07
9.92914e-10
1.30972e-07
1.30847e-07
1.32087e-07
1.32077e-07
1.32054e-07
1.32137e-07
1.32255e-07
1.33424e-07
1.42193e-07
2.11241e-07
5.62386e-10
8.3607e-08
8.37918e-08
8.29413e-08
8.28832e-08
8.28712e-08
8.29775e-08
8.31733e-08
8.48613e-08
9.35415e-08
1.54533e-07
4.12829e-10
5.61508e-08
5.64784e-08
5.60105e-08
5.59536e-08
5.59152e-08
5.60328e-08
5.62244e-08
5.76478e-08
6.52361e-08
1.18643e-07
4.71457e-10
3.97404e-08
4.00739e-08
3.98626e-08
3.98138e-08
3.96848e-08
3.98802e-08
4.00858e-08
4.14092e-08
4.73137e-08
9.45237e-08
1.47793e-09
2.95756e-08
2.99083e-08
2.98236e-08
2.9751e-08
2.94612e-08
2.98188e-08
2.99119e-08
3.05616e-08
3.52161e-08
7.72094e-08
4.40869e-09
2.24404e-08
2.24756e-08
2.24809e-08
2.24168e-08
2.27303e-08
2.24813e-08
2.25735e-08
2.31685e-08
2.81931e-08
6.4134e-08
8.07576e-09
1.80528e-08
1.81236e-08
1.80588e-08
1.82339e-08
1.81248e-08
1.82179e-08
1.87513e-08
2.29042e-08
5.39765e-08
1.02068e-08
1.45481e-08
1.47164e-08
1.46445e-08
1.47504e-08
1.47183e-08
1.48157e-08
1.54042e-08
1.90289e-08
4.60069e-08
1.17199e-08
1.22724e-08
1.22643e-08
1.21747e-08
1.2267e-08
1.22657e-08
1.23592e-08
1.29022e-08
1.61251e-08
3.90315e-08
1.32902e-08
1.05536e-08
1.04355e-08
1.03136e-08
1.04282e-08
1.04368e-08
1.05254e-08
1.1029e-08
1.41608e-08
3.38666e-08
1.49875e-08
9.07783e-09
9.02462e-09
9.04238e-09
9.01715e-09
9.02658e-09
9.10982e-09
9.57661e-09
1.24192e-08
2.96356e-08
1.66595e-08
7.9227e-09
7.90256e-09
7.90959e-09
7.89732e-09
7.90579e-09
7.98356e-09
8.4145e-09
1.09448e-08
2.60241e-08
1.80909e-08
6.99216e-09
6.98698e-09
6.98505e-09
6.9844e-09
6.99171e-09
7.06403e-09
7.45888e-09
9.84872e-09
2.26879e-08
1.90696e-08
6.22326e-09
6.22426e-09
6.21392e-09
6.22416e-09
6.2305e-09
6.29757e-09
6.65321e-09
8.89462e-09
2.01516e-08
1.94789e-08
5.57557e-09
5.57872e-09
5.55932e-09
5.58076e-09
5.58631e-09
5.64813e-09
5.95831e-09
7.98371e-09
1.77585e-08
1.92859e-08
5.0223e-09
5.02588e-09
4.99509e-09
5.02978e-09
5.03455e-09
5.09113e-09
5.42132e-09
7.18778e-09
1.55901e-08
1.85522e-08
4.54481e-09
4.54826e-09
4.56122e-09
4.55396e-09
4.55758e-09
4.60837e-09
4.94205e-09
6.48714e-09
1.36775e-08
1.74084e-08
4.12896e-09
4.13184e-09
4.14164e-09
4.13873e-09
4.14173e-09
4.18564e-09
4.48625e-09
5.86679e-09
1.19777e-08
1.60136e-08
3.80552e-09
3.80798e-09
3.81551e-09
3.81551e-09
3.81804e-09
3.85499e-09
4.12892e-09
5.31689e-09
1.04543e-08
1.45177e-08
3.50389e-09
3.50626e-09
3.51201e-09
3.51417e-09
3.51694e-09
3.56719e-09
3.80573e-09
4.82759e-09
9.24503e-09
1.30332e-08
)
;

boundaryField
{
    fuel
    {
        type            fixedValue;
        value           uniform 0;
    }
    wall
    {
        type            zeroGradient;
    }
    outlet
    {
        type            zeroGradient;
    }
    frontAndBack
    {
        type            empty;
    }
    procBoundary3to0
    {
        type            processor;
        value           nonuniform List<scalar> 10(3.25865e-09 3.26068e-09 3.26525e-09 3.26861e-09 3.27137e-09 3.31684e-09 3.53189e-09 4.38869e-09 8.18398e-09 1.16692e-08);
    }
    procBoundary3to2
    {
        type            processor;
        value           nonuniform List<scalar> 
25
(
6.61562e-07
5.43191e-07
3.50108e-07
2.13464e-07
1.32071e-07
8.28948e-08
5.59641e-08
3.98102e-08
2.97258e-08
2.23491e-08
1.80431e-08
1.80431e-08
1.48522e-08
1.23394e-08
1.04645e-08
9.15069e-09
7.97605e-09
7.02743e-09
6.24573e-09
5.58933e-09
5.03006e-09
4.54836e-09
4.12951e-09
3.80426e-09
3.50112e-09
)
;
    }
}


// ************************************************************************* //
