/*--------------------------------*- C++ -*----------------------------------*\
| =========                 |                                                 |
| \\      /  F ield         | OpenFOAM: The Open Source CFD Toolbox           |
|  \\    /   O peration     | Version:  dev                                   |
|   \\  /    A nd           | Web:      www.OpenFOAM.org                      |
|    \\/     M anipulation  |                                                 |
\*---------------------------------------------------------------------------*/
FoamFile
{
    version     2.0;
    format      ascii;
    class       volScalarField;
    location    "0.185";
    object      A2C2HA;
}
// * * * * * * * * * * * * * * * * * * * * * * * * * * * * * * * * * * * * * //

dimensions      [0 0 0 0 0 0 0];

internalField   nonuniform List<scalar> 
250
(
3.40376e-08
3.40245e-08
3.40231e-08
3.40408e-08
3.40313e-08
3.40287e-08
3.40478e-08
3.42332e-08
3.61211e-08
5.74487e-08
1.00019e-09
2.1457e-08
2.14539e-08
2.14545e-08
2.14583e-08
2.14574e-08
2.1458e-08
2.14787e-08
2.16799e-08
2.38362e-08
5.52795e-08
1.9278e-09
1.23675e-08
1.23689e-08
1.2371e-08
1.23685e-08
1.23704e-08
1.2372e-08
1.23929e-08
1.25666e-08
1.44549e-08
4.71302e-08
2.51777e-09
7.82188e-09
7.82617e-09
7.82915e-09
7.8231e-09
7.82558e-09
7.82914e-09
7.85387e-09
8.00627e-09
9.68121e-09
4.26642e-08
2.82901e-09
5.40748e-09
5.41302e-09
5.41613e-09
5.4088e-09
5.41062e-09
5.41593e-09
5.45552e-09
5.59093e-09
7.1136e-09
4.00751e-08
2.91667e-09
3.97504e-09
3.97883e-09
3.97938e-09
3.97562e-09
3.97564e-09
3.97927e-09
3.97851e-09
4.1239e-09
5.5458e-09
3.78192e-08
2.86389e-09
3.04913e-09
3.05237e-09
3.05204e-09
3.0496e-09
3.04583e-09
3.05226e-09
3.064e-09
3.20126e-09
4.50465e-09
3.52111e-08
2.75442e-09
2.42079e-09
2.42426e-09
2.42367e-09
2.42155e-09
2.40998e-09
2.42427e-09
2.44256e-09
2.57554e-09
3.75775e-09
3.18657e-08
2.67154e-09
1.96583e-09
1.96947e-09
1.96886e-09
1.96628e-09
1.96611e-09
1.96987e-09
1.98785e-09
2.09469e-09
3.14399e-09
2.8319e-08
2.66144e-09
1.60415e-09
1.60675e-09
1.60633e-09
1.60371e-09
1.6149e-09
1.60794e-09
1.62587e-09
1.72383e-09
2.63065e-09
2.4646e-08
2.70397e-09
1.37174e-09
1.37158e-09
1.3684e-09
1.38174e-09
1.37348e-09
1.39029e-09
1.48164e-09
2.26754e-09
2.10647e-08
2.7721e-09
1.17024e-09
1.1704e-09
1.16612e-09
1.1783e-09
1.17242e-09
1.18832e-09
1.27772e-09
1.95547e-09
1.71182e-08
2.85136e-09
1.01443e-09
1.01486e-09
1.00882e-09
1.02024e-09
1.01689e-09
1.03158e-09
1.11391e-09
1.67136e-09
1.33425e-08
2.94246e-09
8.90877e-10
8.91561e-10
8.82569e-10
8.95189e-10
8.93557e-10
9.07366e-10
9.8331e-10
1.46152e-09
1.0621e-08
3.05361e-09
7.90574e-10
7.91541e-10
7.92714e-10
7.94181e-10
7.93445e-10
8.06659e-10
8.7684e-10
1.27395e-09
8.36622e-09
3.17347e-09
7.07442e-10
7.08643e-10
7.08724e-10
7.10769e-10
7.10483e-10
7.23294e-10
7.88271e-10
1.11939e-09
6.54429e-09
3.27848e-09
6.37368e-10
6.38754e-10
6.37951e-10
6.40653e-10
6.40545e-10
6.53049e-10
7.13301e-10
9.91754e-10
5.10927e-09
3.34115e-09
5.77537e-10
5.79058e-10
5.77424e-10
5.80879e-10
5.80804e-10
5.93019e-10
6.48936e-10
8.85836e-10
4.01217e-09
3.33762e-09
5.25993e-10
5.27596e-10
5.25073e-10
5.29404e-10
5.29292e-10
5.41184e-10
5.93064e-10
7.96963e-10
3.03462e-09
3.2548e-09
4.81337e-10
4.82975e-10
4.79319e-10
4.84787e-10
4.84607e-10
4.96109e-10
5.44168e-10
7.22485e-10
2.41163e-09
3.10148e-09
4.42534e-10
4.44165e-10
4.44221e-10
4.45993e-10
4.45712e-10
4.56746e-10
5.01107e-10
6.59617e-10
1.93611e-09
2.89476e-09
4.08753e-10
4.10305e-10
4.10118e-10
4.12101e-10
4.11775e-10
4.22262e-10
4.62929e-10
6.06255e-10
1.60369e-09
2.66057e-09
3.83047e-10
3.84487e-10
3.84188e-10
3.8622e-10
3.85902e-10
3.95817e-10
4.33627e-10
5.607e-10
1.36019e-09
2.42669e-09
3.59722e-10
3.61119e-10
3.60688e-10
3.62808e-10
3.62461e-10
3.71965e-10
4.07536e-10
5.26275e-10
1.18274e-09
2.21459e-09
)
;

boundaryField
{
    fuel
    {
        type            fixedValue;
        value           uniform 0;
    }
    wall
    {
        type            zeroGradient;
    }
    outlet
    {
        type            zeroGradient;
    }
    frontAndBack
    {
        type            empty;
    }
    procBoundary3to0
    {
        type            processor;
        value           nonuniform List<scalar> 10(3.42083e-10 3.43267e-10 3.42902e-10 3.44832e-10 3.44577e-10 3.53442e-10 3.86465e-10 4.95708e-10 1.05324e-09 2.03728e-09);
    }
    procBoundary3to2
    {
        type            processor;
        value           nonuniform List<scalar> 
25
(
3.40181e-08
2.14488e-08
1.23664e-08
7.825e-09
5.4124e-09
3.97841e-09
3.052e-09
2.42392e-09
1.9692e-09
1.60651e-09
1.37004e-09
1.37004e-09
1.16965e-09
1.01451e-09
8.91126e-10
7.90707e-10
7.074e-10
6.37214e-10
5.77362e-10
5.25867e-10
4.81298e-10
4.42593e-10
4.08903e-10
3.83255e-10
3.59994e-10
)
;
    }
}


// ************************************************************************* //
