/*--------------------------------*- C++ -*----------------------------------*\
| =========                 |                                                 |
| \\      /  F ield         | OpenFOAM: The Open Source CFD Toolbox           |
|  \\    /   O peration     | Version:  dev                                   |
|   \\  /    A nd           | Web:      www.OpenFOAM.org                      |
|    \\/     M anipulation  |                                                 |
\*---------------------------------------------------------------------------*/
FoamFile
{
    version     2.0;
    format      ascii;
    class       volScalarField;
    location    "0.185";
    object      C2O;
}
// * * * * * * * * * * * * * * * * * * * * * * * * * * * * * * * * * * * * * //

dimensions      [0 0 0 0 0 0 0];

internalField   nonuniform List<scalar> 
250
(
9.3845e-06
9.38431e-06
9.37964e-06
9.38025e-06
9.38154e-06
9.38206e-06
9.38145e-06
9.37702e-06
9.26165e-06
8.5172e-06
4.72429e-09
7.19557e-06
7.19493e-06
7.19534e-06
7.18762e-06
7.19517e-06
7.19623e-06
7.19102e-06
7.18971e-06
7.12477e-06
6.75273e-06
6.64747e-09
4.34038e-06
4.33964e-06
4.34165e-06
4.33971e-06
4.34116e-06
4.34227e-06
4.33909e-06
4.33719e-06
4.29344e-06
4.14052e-06
5.31343e-09
2.57264e-06
2.5718e-06
2.5762e-06
2.57559e-06
2.57574e-06
2.57664e-06
2.57449e-06
2.5721e-06
2.54128e-06
2.53448e-06
3.90088e-09
1.63705e-06
1.63674e-06
1.64735e-06
1.64699e-06
1.64697e-06
1.64758e-06
1.64596e-06
1.64167e-06
1.61679e-06
1.69405e-06
3.02516e-09
1.14842e-06
1.15023e-06
1.14142e-06
1.14065e-06
1.14068e-06
1.14153e-06
1.14122e-06
1.14434e-06
1.13698e-06
1.24757e-06
2.56193e-09
8.83732e-07
8.86692e-07
8.82256e-07
8.81472e-07
8.81277e-07
8.82242e-07
8.82215e-07
8.84316e-07
8.78442e-07
9.86397e-07
2.37864e-09
7.31416e-07
7.34572e-07
7.32734e-07
7.31966e-07
7.30981e-07
7.32688e-07
7.33005e-07
7.35228e-07
7.21967e-07
8.13266e-07
3.00349e-09
6.37718e-07
6.41021e-07
6.40463e-07
6.39404e-07
6.3694e-07
6.40222e-07
6.39672e-07
6.36528e-07
6.17173e-07
6.85359e-07
1.02934e-08
5.6995e-07
5.70561e-07
5.70963e-07
5.69874e-07
5.73187e-07
5.7078e-07
5.70326e-07
5.67108e-07
5.54228e-07
5.84296e-07
3.62508e-08
5.25545e-07
5.26733e-07
5.25519e-07
5.27635e-07
5.26567e-07
5.26184e-07
5.22578e-07
5.03481e-07
5.02564e-07
5.54754e-08
4.85735e-07
4.88191e-07
4.86743e-07
4.88369e-07
4.88047e-07
4.87766e-07
4.85051e-07
4.62532e-07
4.37118e-07
6.06236e-08
4.5626e-07
4.56445e-07
4.54605e-07
4.56332e-07
4.56312e-07
4.56032e-07
4.53039e-07
4.28274e-07
3.79859e-07
5.94401e-08
4.30592e-07
4.2899e-07
4.26535e-07
4.28806e-07
4.28878e-07
4.28583e-07
4.25375e-07
4.02452e-07
3.37996e-07
5.71906e-08
4.05043e-07
4.0437e-07
4.04363e-07
4.04234e-07
4.04294e-07
4.03978e-07
4.00599e-07
3.77007e-07
3.04454e-07
5.58284e-08
3.81869e-07
3.81688e-07
3.81474e-07
3.81629e-07
3.81668e-07
3.81333e-07
3.77817e-07
3.53297e-07
2.7665e-07
5.56381e-08
3.60309e-07
3.60362e-07
3.59936e-07
3.60388e-07
3.6041e-07
3.60061e-07
3.56428e-07
3.34127e-07
2.51845e-07
5.64436e-08
3.3982e-07
3.39979e-07
3.39309e-07
3.40088e-07
3.40103e-07
3.39746e-07
3.35957e-07
3.1608e-07
2.33572e-07
5.7934e-08
3.20014e-07
3.20221e-07
3.19246e-07
3.2041e-07
3.20424e-07
3.20064e-07
3.1597e-07
2.97469e-07
2.16867e-07
5.97399e-08
3.00591e-07
3.00823e-07
2.99418e-07
3.01091e-07
3.01103e-07
3.00744e-07
2.9851e-07
2.7985e-07
2.02092e-07
6.16182e-08
2.81294e-07
2.81547e-07
2.81911e-07
2.81901e-07
2.81898e-07
2.81519e-07
2.80855e-07
2.62913e-07
1.89201e-07
6.34615e-08
2.61867e-07
2.62129e-07
2.62367e-07
2.62552e-07
2.62556e-07
2.62106e-07
2.61721e-07
2.46363e-07
1.77647e-07
6.52442e-08
2.44346e-07
2.44623e-07
2.44763e-07
2.45097e-07
2.45108e-07
2.4454e-07
2.44542e-07
2.2999e-07
1.66922e-07
6.69465e-08
2.25311e-07
2.25624e-07
2.25681e-07
2.26145e-07
2.26204e-07
2.26795e-07
2.26649e-07
2.13517e-07
1.57827e-07
6.84898e-08
)
;

boundaryField
{
    fuel
    {
        type            fixedValue;
        value           uniform 0;
    }
    wall
    {
        type            zeroGradient;
    }
    outlet
    {
        type            zeroGradient;
    }
    frontAndBack
    {
        type            empty;
    }
    procBoundary3to0
    {
        type            processor;
        value           nonuniform List<scalar> 10(2.07295e-07 2.07618e-07 2.07616e-07 2.08171e-07 2.08253e-07 2.08854e-07 2.09142e-07 1.96666e-07 1.4905e-07 6.97691e-08);
    }
    procBoundary3to2
    {
        type            processor;
        value           nonuniform List<scalar> 
25
(
9.38358e-06
7.19349e-06
4.34114e-06
2.5759e-06
1.64707e-06
1.1408e-06
8.81576e-07
7.31924e-07
6.39149e-07
5.6921e-07
5.25163e-07
5.25163e-07
4.89193e-07
4.56867e-07
4.289e-07
4.06189e-07
3.82718e-07
3.60864e-07
3.40148e-07
3.20168e-07
3.00604e-07
2.81187e-07
2.61652e-07
2.44049e-07
2.24917e-07
)
;
    }
}


// ************************************************************************* //
