/*--------------------------------*- C++ -*----------------------------------*\
| =========                 |                                                 |
| \\      /  F ield         | OpenFOAM: The Open Source CFD Toolbox           |
|  \\    /   O peration     | Version:  dev                                   |
|   \\  /    A nd           | Web:      www.OpenFOAM.org                      |
|    \\/     M anipulation  |                                                 |
\*---------------------------------------------------------------------------*/
FoamFile
{
    version     2.0;
    format      ascii;
    class       volScalarField;
    location    "0.185";
    object      HCCOH;
}
// * * * * * * * * * * * * * * * * * * * * * * * * * * * * * * * * * * * * * //

dimensions      [0 0 0 0 0 0 0];

internalField   nonuniform List<scalar> 
250
(
2.1731e-05
2.17302e-05
2.17299e-05
2.17297e-05
2.17293e-05
2.17291e-05
2.17312e-05
2.17417e-05
2.17015e-05
2.13847e-05
5.85508e-07
2.03871e-05
2.03849e-05
2.039e-05
2.03833e-05
2.03884e-05
2.03902e-05
2.03862e-05
2.03998e-05
2.03995e-05
2.01941e-05
1.32015e-06
1.83131e-05
1.83093e-05
1.83194e-05
1.83165e-05
1.83173e-05
1.83202e-05
1.8318e-05
1.8333e-05
1.83509e-05
1.80473e-05
1.84629e-06
1.68253e-05
1.6821e-05
1.68386e-05
1.68356e-05
1.68358e-05
1.68395e-05
1.68384e-05
1.6856e-05
1.68809e-05
1.63822e-05
2.21466e-06
1.57229e-05
1.57232e-05
1.57528e-05
1.57486e-05
1.57491e-05
1.57534e-05
1.57535e-05
1.57731e-05
1.57982e-05
1.50718e-05
2.45951e-06
1.48282e-05
1.48424e-05
1.48262e-05
1.48194e-05
1.48199e-05
1.48265e-05
1.48309e-05
1.48752e-05
1.49334e-05
1.39813e-05
2.58241e-06
1.40661e-05
1.40913e-05
1.40813e-05
1.40727e-05
1.40713e-05
1.40811e-05
1.40883e-05
1.41399e-05
1.42045e-05
1.30439e-05
2.54216e-06
1.33954e-05
1.34273e-05
1.34254e-05
1.34154e-05
1.34071e-05
1.34251e-05
1.34357e-05
1.34965e-05
1.35276e-05
1.22255e-05
2.25934e-06
1.27959e-05
1.28329e-05
1.2837e-05
1.28233e-05
1.28014e-05
1.28353e-05
1.28408e-05
1.28691e-05
1.28663e-05
1.15066e-05
1.87524e-06
1.21981e-05
1.221e-05
1.22219e-05
1.22058e-05
1.22404e-05
1.22206e-05
1.22279e-05
1.22593e-05
1.23372e-05
1.08756e-05
1.71132e-06
1.17019e-05
1.17238e-05
1.17045e-05
1.17304e-05
1.17226e-05
1.17318e-05
1.17637e-05
1.17997e-05
1.03227e-05
1.72259e-06
1.11579e-05
1.11989e-05
1.11745e-05
1.11982e-05
1.1198e-05
1.12101e-05
1.1262e-05
1.12836e-05
9.8411e-06
1.79216e-06
1.07004e-05
1.07052e-05
1.06729e-05
1.07013e-05
1.07044e-05
1.0718e-05
1.07738e-05
1.0794e-05
9.3781e-06
1.87347e-06
1.02659e-05
1.02387e-05
1.01948e-05
1.0234e-05
1.02381e-05
1.02529e-05
1.03124e-05
1.03904e-05
9.00459e-06
1.96514e-06
9.8081e-06
9.79618e-06
9.79675e-06
9.79252e-06
9.79616e-06
9.8118e-06
9.87425e-06
9.9641e-06
8.67477e-06
2.07422e-06
9.37857e-06
9.37511e-06
9.3725e-06
9.37286e-06
9.37596e-06
9.39222e-06
9.45631e-06
9.54507e-06
8.37348e-06
2.20489e-06
8.97263e-06
8.9733e-06
8.96714e-06
8.97259e-06
8.97524e-06
8.99188e-06
9.05589e-06
9.19255e-06
8.0766e-06
2.35803e-06
8.58622e-06
8.58875e-06
8.57828e-06
8.58958e-06
8.59192e-06
8.60873e-06
8.66973e-06
8.85056e-06
7.83592e-06
2.53226e-06
8.21627e-06
8.21953e-06
8.20352e-06
8.22186e-06
8.22399e-06
8.2407e-06
8.29394e-06
8.49013e-06
7.59229e-06
2.72384e-06
7.86017e-06
7.86368e-06
7.83996e-06
7.8675e-06
7.86938e-06
7.8857e-06
7.96938e-06
8.1441e-06
7.35367e-06
2.92807e-06
7.5154e-06
7.51904e-06
7.52668e-06
7.52446e-06
7.52583e-06
7.54107e-06
7.64753e-06
7.80982e-06
7.12374e-06
3.13906e-06
7.17889e-06
7.18246e-06
7.18816e-06
7.18917e-06
7.19041e-06
7.20341e-06
7.30765e-06
7.48451e-06
6.89756e-06
3.3498e-06
6.88476e-06
6.88837e-06
6.89259e-06
6.89604e-06
6.89718e-06
6.90715e-06
7.01036e-06
7.16648e-06
6.67016e-06
3.55257e-06
6.57632e-06
6.58034e-06
6.58327e-06
6.58885e-06
6.59057e-06
6.61756e-06
6.70994e-06
6.8524e-06
6.46577e-06
3.73954e-06
)
;

boundaryField
{
    fuel
    {
        type            fixedValue;
        value           uniform 0;
    }
    wall
    {
        type            zeroGradient;
    }
    outlet
    {
        type            zeroGradient;
    }
    frontAndBack
    {
        type            empty;
    }
    procBoundary3to0
    {
        type            processor;
        value           nonuniform List<scalar> 10(6.29229e-06 6.29639e-06 6.29837e-06 6.30547e-06 6.30747e-06 6.33332e-06 6.42392e-06 6.53807e-06 6.25977e-06 3.90273e-06);
    }
    procBoundary3to2
    {
        type            processor;
        value           nonuniform List<scalar> 
25
(
2.17346e-05
2.03871e-05
1.8317e-05
1.68353e-05
1.57483e-05
1.48194e-05
1.4072e-05
1.34127e-05
1.28172e-05
1.21939e-05
1.16927e-05
1.16927e-05
1.12078e-05
1.07087e-05
1.0236e-05
9.82977e-06
9.39553e-06
8.98454e-06
8.59407e-06
8.2209e-06
7.86217e-06
7.51517e-06
7.17673e-06
6.88114e-06
6.57109e-06
)
;
    }
}


// ************************************************************************* //
