/*--------------------------------*- C++ -*----------------------------------*\
| =========                 |                                                 |
| \\      /  F ield         | OpenFOAM: The Open Source CFD Toolbox           |
|  \\    /   O peration     | Version:  dev                                   |
|   \\  /    A nd           | Web:      www.OpenFOAM.org                      |
|    \\/     M anipulation  |                                                 |
\*---------------------------------------------------------------------------*/
FoamFile
{
    version     2.0;
    format      ascii;
    class       volScalarField;
    location    "0.185";
    object      O;
}
// * * * * * * * * * * * * * * * * * * * * * * * * * * * * * * * * * * * * * //

dimensions      [0 0 0 0 0 0 0];

internalField   nonuniform List<scalar> 
50
(
2.22178e-07
2.05086e-07
1.88965e-07
1.73658e-07
1.59519e-07
1.46249e-07
1.33655e-07
1.2201e-07
1.11129e-07
1.00814e-07
9.12048e-08
8.24127e-08
7.42384e-08
6.66604e-08
5.95489e-08
5.3088e-08
4.71353e-08
4.16531e-08
3.65906e-08
3.19801e-08
2.78598e-08
2.41251e-08
2.07197e-08
1.77004e-08
1.50032e-08
1.25967e-08
1.0491e-08
8.65039e-09
7.03647e-09
5.65077e-09
4.49186e-09
3.51536e-09
2.70426e-09
2.04161e-09
1.50477e-09
1.0887e-09
7.64965e-10
5.25651e-10
3.51175e-10
2.28241e-10
1.44812e-10
9.04783e-11
5.66092e-11
3.63836e-11
2.46862e-11
1.78953e-11
1.3601e-11
1.0297e-11
7.04398e-12
2.95126e-12
)
;

boundaryField
{
    wall
    {
        type            zeroGradient;
    }
    fuel
    {
        type            fixedValue;
        value           nonuniform 0();
    }
    outlet
    {
        type            inletOutlet;
        inletValue      uniform 0;
        value           uniform 0;
    }
    procBoundary3to2
    {
        type            processor;
        value           uniform 2.40281e-07;
    }
}


// ************************************************************************* //
