/*--------------------------------*- C++ -*----------------------------------*\
| =========                 |                                                 |
| \\      /  F ield         | OpenFOAM: The Open Source CFD Toolbox           |
|  \\    /   O peration     | Version:  dev                                   |
|   \\  /    A nd           | Web:      www.OpenFOAM.org                      |
|    \\/     M anipulation  |                                                 |
\*---------------------------------------------------------------------------*/
FoamFile
{
    version     2.0;
    format      ascii;
    class       volScalarField;
    location    "0.005";
    object      A1-;
}
// * * * * * * * * * * * * * * * * * * * * * * * * * * * * * * * * * * * * * //

dimensions      [0 0 0 0 0 0 0];

internalField   nonuniform List<scalar> 
250
(
1.11615e-15
9.47265e-15
1.01898e-13
7.66405e-13
2.11378e-12
1.63384e-12
1.59084e-12
1.30696e-12
1.28182e-12
1.93308e-14
1.92172e-13
2.58413e-12
2.36714e-11
6.95177e-11
5.3184e-11
5.14603e-11
4.17695e-11
4.08556e-11
2.97046e-13
3.23971e-12
6.07521e-11
7.02897e-10
2.15882e-09
1.64557e-09
1.58959e-09
1.28557e-09
1.25781e-09
4.41265e-12
5.15871e-11
1.38911e-09
2.16696e-08
6.78491e-08
5.18973e-08
5.00068e-08
4.06737e-08
3.97447e-08
6.12883e-11
9.93658e-10
2.75213e-08
5.80243e-07
1.65538e-06
1.33279e-06
1.27728e-06
1.07223e-06
1.04403e-06
5.19939e-10
9.77418e-09
3.72291e-07
4.16486e-06
8.04209e-06
7.27516e-06
6.96277e-06
6.30643e-06
6.11854e-06
2.18556e-09
3.79765e-08
1.29602e-06
9.32547e-06
1.30052e-05
1.28199e-05
1.24102e-05
1.19985e-05
1.17173e-05
6.17406e-09
9.86666e-08
2.48472e-06
1.13949e-05
1.40594e-05
1.43613e-05
1.40021e-05
1.38838e-05
1.36127e-05
1.28682e-08
1.80068e-07
3.11283e-06
1.09109e-05
1.29356e-05
1.34738e-05
1.31824e-05
1.32181e-05
1.2973e-05
2.03106e-08
2.39099e-07
3.07276e-06
9.31434e-06
1.09899e-05
1.16154e-05
1.13805e-05
1.14823e-05
1.12593e-05
2.64874e-08
2.64353e-07
2.67543e-06
7.46156e-06
8.89855e-06
9.5275e-06
9.33963e-06
9.4633e-06
9.26228e-06
9.32957e-06
3.0365e-08
2.65455e-07
2.2073e-06
5.74497e-06
6.96642e-06
7.54782e-06
7.40102e-06
7.52375e-06
7.34794e-06
7.39903e-06
3.1851e-08
2.50689e-07
1.70596e-06
4.31092e-06
5.31509e-06
5.81817e-06
5.70716e-06
5.81808e-06
5.67079e-06
5.70403e-06
3.17456e-08
2.30315e-07
1.3279e-06
3.17259e-06
3.97611e-06
4.38793e-06
4.30659e-06
4.40207e-06
4.28279e-06
4.30605e-06
3.09036e-08
2.09208e-07
1.03167e-06
2.33905e-06
2.94928e-06
3.26917e-06
3.21256e-06
3.29076e-06
3.19834e-06
3.21766e-06
2.98304e-08
1.89753e-07
8.05862e-07
1.74429e-06
2.1957e-06
2.43452e-06
2.39783e-06
2.45849e-06
2.39029e-06
2.40615e-06
2.87119e-08
1.74138e-07
6.5116e-07
1.32572e-06
1.65731e-06
1.83143e-06
1.8093e-06
1.85435e-06
1.80572e-06
1.81792e-06
2.7504e-08
1.61469e-07
5.4552e-07
1.0351e-06
1.27737e-06
1.40308e-06
1.39074e-06
1.42352e-06
1.38915e-06
1.39813e-06
2.60202e-08
1.50008e-07
4.70305e-07
7.92747e-07
1.00163e-06
1.10255e-06
1.09635e-06
1.12122e-06
1.096e-06
1.10279e-06
2.41454e-08
1.38331e-07
4.08223e-07
6.54975e-07
7.71045e-07
8.38391e-07
8.35386e-07
8.58621e-07
8.35763e-07
8.41348e-07
2.18302e-08
1.25807e-07
3.56211e-07
5.55069e-07
6.50107e-07
6.96912e-07
6.97107e-07
7.05847e-07
6.98117e-07
7.02388e-07
1.90308e-08
1.12115e-07
3.07917e-07
4.7371e-07
5.49396e-07
5.85816e-07
5.87175e-07
5.96935e-07
5.89334e-07
5.92169e-07
1.60557e-08
9.61946e-08
2.57378e-07
3.96447e-07
4.6275e-07
4.97628e-07
5.00315e-07
5.08676e-07
5.02627e-07
5.05528e-07
1.30069e-08
8.00053e-08
2.11257e-07
3.30734e-07
3.87772e-07
4.11531e-07
4.15192e-07
4.2182e-07
4.17872e-07
4.1932e-07
1.0334e-08
6.50215e-08
1.71498e-07
2.606e-07
3.133e-07
3.40768e-07
3.45218e-07
3.5194e-07
3.48556e-07
3.50178e-07
7.97603e-09
5.10987e-08
1.33108e-07
2.02079e-07
2.4061e-07
2.62219e-07
2.67274e-07
2.73845e-07
2.71008e-07
2.72657e-07
)
;

boundaryField
{
    fuel
    {
        type            fixedValue;
        value           uniform 0;
    }
    wall
    {
        type            zeroGradient;
    }
    outlet
    {
        type            zeroGradient;
    }
    frontAndBack
    {
        type            empty;
    }
    procBoundary2to0
    {
        type            processor;
        value           nonuniform List<scalar> 
12
(
3.50949e-07
6.01585e-09
3.91623e-08
1.00871e-07
1.49351e-07
1.77556e-07
1.96004e-07
2.02554e-07
2.0779e-07
2.06435e-07
2.72154e-07
2.07582e-07
)
;
    }
    procBoundary2to3
    {
        type            processor;
        value           nonuniform List<scalar> 
25
(
1.20156e-12
3.81514e-11
1.17217e-09
3.71058e-08
9.84706e-07
5.93622e-06
1.16025e-05
1.35804e-05
1.2988e-05
1.13049e-05
1.13049e-05
9.27433e-06
7.3656e-06
5.68975e-06
4.30039e-06
3.21254e-06
2.40136e-06
1.81433e-06
1.39571e-06
1.10116e-06
8.40366e-07
7.01731e-07
5.91549e-07
5.04301e-07
4.19896e-07
)
;
    }
}


// ************************************************************************* //
