/*--------------------------------*- C++ -*----------------------------------*\
| =========                 |                                                 |
| \\      /  F ield         | OpenFOAM: The Open Source CFD Toolbox           |
|  \\    /   O peration     | Version:  dev                                   |
|   \\  /    A nd           | Web:      www.OpenFOAM.org                      |
|    \\/     M anipulation  |                                                 |
\*---------------------------------------------------------------------------*/
FoamFile
{
    version     2.0;
    format      ascii;
    class       volScalarField;
    location    "0.005";
    object      A1C2H;
}
// * * * * * * * * * * * * * * * * * * * * * * * * * * * * * * * * * * * * * //

dimensions      [0 0 0 0 0 0 0];

internalField   nonuniform List<scalar> 
25
(
3.43111e-12
1.31907e-12
4.10827e-13
1.27535e-13
3.27322e-14
1.34569e-14
3.97257e-15
1.71491e-15
6.16041e-16
1.75287e-16
6.80502e-17
2.61056e-17
1.03588e-17
4.2376e-18
1.77178e-18
5.93298e-19
2.58903e-19
1.03594e-19
3.32348e-20
1.56331e-20
6.66331e-21
2.1508e-21
7.77084e-22
2.68005e-22
8.28941e-23
)
;

boundaryField
{
    wall
    {
        type            zeroGradient;
    }
    fuel
    {
        type            fixedValue;
        value           nonuniform 0();
    }
    outlet
    {
        type            inletOutlet;
        inletValue      nonuniform 0();
        value           nonuniform 0();
    }
    procBoundary2to1
    {
        type            processor;
        value           uniform 9.42928e-12;
    }
    procBoundary2to3
    {
        type            processor;
        value           uniform 2.59181e-23;
    }
}


// ************************************************************************* //
