/*--------------------------------*- C++ -*----------------------------------*\
| =========                 |                                                 |
| \\      /  F ield         | OpenFOAM: The Open Source CFD Toolbox           |
|  \\    /   O peration     | Version:  dev                                   |
|   \\  /    A nd           | Web:      www.OpenFOAM.org                      |
|    \\/     M anipulation  |                                                 |
\*---------------------------------------------------------------------------*/
FoamFile
{
    version     2.0;
    format      ascii;
    class       volScalarField;
    location    "0.005";
    object      A2R5-;
}
// * * * * * * * * * * * * * * * * * * * * * * * * * * * * * * * * * * * * * //

dimensions      [0 0 0 0 0 0 0];

internalField   nonuniform List<scalar> 
250
(
5.02803e-16
1.74386e-15
4.71731e-15
5.91017e-15
5.5782e-15
4.91143e-15
4.6786e-15
4.59919e-15
4.89175e-15
4.80507e-15
1.95816e-14
7.31994e-14
1.06129e-13
9.64602e-14
8.00233e-14
7.39442e-14
7.23539e-14
7.9799e-14
3.71104e-14
2.14933e-13
1.17796e-12
1.8996e-12
1.68473e-12
1.34564e-12
1.21713e-12
1.18825e-12
1.34435e-12
2.65194e-13
2.18694e-12
1.54647e-11
2.58505e-11
2.28514e-11
1.81792e-11
1.6332e-11
1.59455e-11
1.82004e-11
1.72559e-12
1.54578e-11
1.29794e-10
2.20986e-10
1.95186e-10
1.55408e-10
1.3942e-10
1.36146e-10
1.55782e-10
7.31691e-12
7.5111e-11
7.21031e-10
1.149e-09
1.04779e-09
8.9866e-10
8.29038e-10
8.20615e-10
9.01702e-10
1.98011e-11
2.3966e-10
1.68548e-09
2.42437e-09
2.30135e-09
2.11976e-09
2.00759e-09
2.00589e-09
2.12737e-09
3.57944e-11
4.42375e-10
2.2473e-09
3.09332e-09
3.00405e-09
2.86071e-09
2.74188e-09
2.75014e-09
2.87311e-09
5.20826e-11
5.56969e-10
2.25864e-09
3.0779e-09
3.03385e-09
2.9389e-09
2.8328e-09
2.8477e-09
2.9556e-09
6.22646e-11
5.52705e-10
1.94051e-09
2.6588e-09
2.65179e-09
2.59609e-09
2.51031e-09
2.52784e-09
2.61553e-09
6.41414e-11
4.75903e-10
1.51396e-09
2.09707e-09
2.11356e-09
2.0849e-09
2.02058e-09
2.03759e-09
2.10497e-09
2.15587e-09
5.9972e-11
3.8117e-10
1.10959e-09
1.55314e-09
1.58089e-09
1.5689e-09
1.52382e-09
1.53851e-09
1.58768e-09
1.62337e-09
5.25392e-11
2.78101e-10
7.81228e-10
1.09962e-09
1.12989e-09
1.12721e-09
1.09765e-09
1.10944e-09
1.14353e-09
1.16723e-09
4.43639e-11
2.05328e-10
5.3409e-10
7.53934e-10
7.81626e-10
7.8333e-10
7.64062e-10
7.73723e-10
7.969e-10
8.12587e-10
3.66895e-11
1.5067e-10
3.63978e-10
5.09808e-10
5.32574e-10
5.35922e-10
5.24077e-10
5.30999e-10
5.46609e-10
5.56975e-10
3.01725e-11
1.10745e-10
2.50766e-10
3.46116e-10
3.6372e-10
3.67311e-10
3.60411e-10
3.65152e-10
3.75226e-10
3.81927e-10
2.48364e-11
8.10282e-11
1.76864e-10
2.39038e-10
2.52264e-10
2.55454e-10
2.51611e-10
2.54835e-10
2.61133e-10
2.65419e-10
2.0926e-11
6.11559e-11
1.28372e-10
1.6934e-10
1.7916e-10
1.81736e-10
1.79682e-10
1.81849e-10
1.85817e-10
1.88588e-10
1.76195e-11
4.8914e-11
8.96654e-11
1.22085e-10
1.3028e-10
1.32701e-10
1.31584e-10
1.33195e-10
1.35977e-10
1.37852e-10
1.47055e-11
3.92556e-11
6.84042e-11
8.518e-11
9.0364e-11
9.19505e-11
9.14661e-11
9.25748e-11
9.42103e-11
9.53798e-11
1.19605e-11
3.14864e-11
5.37753e-11
6.67681e-11
7.0906e-11
7.1999e-11
7.18571e-11
7.26327e-11
7.35286e-11
7.42812e-11
9.41916e-12
2.50391e-11
4.24486e-11
5.2092e-11
5.51298e-11
5.61834e-11
5.62419e-11
5.68201e-11
5.74939e-11
5.80366e-11
7.23355e-12
1.90754e-11
3.24777e-11
4.0295e-11
4.32853e-11
4.43676e-11
4.45273e-11
4.49337e-11
4.55523e-11
4.59332e-11
5.41461e-12
1.39644e-11
2.48413e-11
3.09521e-11
3.3068e-11
3.37777e-11
3.39932e-11
3.43159e-11
3.45805e-11
3.48608e-11
3.89713e-12
1.00595e-11
1.75055e-11
2.25454e-11
2.47276e-11
2.55651e-11
2.58117e-11
2.61139e-11
2.63959e-11
2.66121e-11
2.75246e-12
6.97555e-12
1.21534e-11
1.54336e-11
1.6895e-11
1.75992e-11
1.78379e-11
1.80768e-11
1.83088e-11
1.84536e-11
)
;

boundaryField
{
    fuel
    {
        type            fixedValue;
        value           uniform 0;
    }
    wall
    {
        type            zeroGradient;
    }
    outlet
    {
        type            zeroGradient;
    }
    frontAndBack
    {
        type            empty;
    }
    procBoundary2to0
    {
        type            processor;
        value           nonuniform List<scalar> 
12
(
2.68283e-11
1.8544e-12
4.84323e-12
8.00649e-12
1.01358e-11
1.12595e-11
1.1928e-11
1.21678e-11
1.23681e-11
1.25342e-11
1.85457e-11
1.26208e-11
)
;
    }
    procBoundary2to3
    {
        type            processor;
        value           nonuniform List<scalar> 
25
(
5.07098e-15
8.44961e-14
1.44423e-12
1.9637e-11
1.68173e-10
9.54513e-10
2.20849e-09
2.95705e-09
3.03076e-09
2.67844e-09
2.67844e-09
2.18959e-09
1.65193e-09
1.18987e-09
8.29086e-10
5.6806e-10
3.89118e-10
2.6999e-10
1.91451e-10
1.3976e-10
9.65768e-11
7.49008e-11
5.84836e-11
4.62205e-11
3.51049e-11
)
;
    }
}


// ************************************************************************* //
