/*--------------------------------*- C++ -*----------------------------------*\
| =========                 |                                                 |
| \\      /  F ield         | OpenFOAM: The Open Source CFD Toolbox           |
|  \\    /   O peration     | Version:  dev                                   |
|   \\  /    A nd           | Web:      www.OpenFOAM.org                      |
|    \\/     M anipulation  |                                                 |
\*---------------------------------------------------------------------------*/
FoamFile
{
    version     2.0;
    format      ascii;
    class       volScalarField;
    location    "0.005";
    object      A2R5-;
}
// * * * * * * * * * * * * * * * * * * * * * * * * * * * * * * * * * * * * * //

dimensions      [0 0 0 0 0 0 0];

internalField   nonuniform List<scalar> 
1997
(
1.85351e-10
1.68984e-10
1.89504e-10
2.43756e-10
3.27688e-10
4.39402e-10
5.69563e-10
7.07585e-10
8.38822e-10
9.55276e-10
1.0549e-09
1.13352e-09
1.19857e-09
1.24811e-09
1.28559e-09
1.31588e-09
1.33772e-09
1.35357e-09
1.6148e-10
1.4703e-10
1.65043e-10
2.13165e-10
2.87737e-10
3.88107e-10
5.0737e-10
6.35753e-10
7.59976e-10
8.71263e-10
9.68219e-10
1.04444e-09
1.10848e-09
1.15706e-09
1.1937e-09
1.22353e-09
1.24516e-09
1.26085e-09
1.27238e-09
1.282e-09
1.28835e-09
1.29325e-09
1.29633e-09
1.29824e-09
1.29922e-09
1.29934e-09
1.29851e-09
1.29663e-09
1.4007e-10
1.27377e-10
1.43101e-10
1.85539e-10
2.51273e-10
3.41195e-10
4.49212e-10
5.67572e-10
6.82866e-10
7.90137e-10
8.826e-10
9.56763e-10
1.01907e-09
1.06654e-09
1.10238e-09
1.13165e-09
1.1529e-09
1.16839e-09
1.17975e-09
1.18918e-09
1.19545e-09
1.2003e-09
1.20333e-09
1.20522e-09
1.20621e-09
1.20635e-09
1.20553e-09
1.20368e-09
1.20066e-09
1.19626e-09
1.18951e-09
1.18076e-09
1.16849e-09
1.15244e-09
1.13081e-09
1.10132e-09
1.06505e-09
1.01762e-09
9.55491e-10
8.80294e-10
1.20965e-10
1.09762e-10
1.2352e-10
1.60217e-10
2.18358e-10
2.98162e-10
3.95276e-10
5.03478e-10
6.0896e-10
7.11001e-10
7.99526e-10
8.71027e-10
9.30923e-10
9.77238e-10
1.01213e-09
1.04066e-09
1.06138e-09
1.07663e-09
1.08775e-09
1.097e-09
1.10314e-09
1.10789e-09
1.11088e-09
1.11274e-09
1.11373e-09
1.11388e-09
1.11309e-09
1.11127e-09
1.1083e-09
1.10398e-09
1.09736e-09
1.08872e-09
1.07668e-09
1.06088e-09
1.0399e-09
1.01114e-09
9.75616e-10
9.29494e-10
8.69452e-10
7.97574e-10
7.08399e-10
6.07908e-10
5.01415e-10
3.93292e-10
2.96465e-10
2.16979e-10
1.5937e-10
1.2283e-10
1.09197e-10
1.20297e-10
1.03915e-10
9.42293e-11
1.0612e-10
1.38077e-10
1.88747e-10
2.59117e-10
3.45704e-10
4.4365e-10
5.40391e-10
6.33856e-10
7.19283e-10
7.87686e-10
8.45034e-10
8.89828e-10
9.23321e-10
9.51072e-10
9.71264e-10
9.86123e-10
9.96919e-10
1.00594e-09
1.01192e-09
1.01655e-09
1.01947e-09
1.0213e-09
1.02228e-09
1.02243e-09
1.02167e-09
1.01991e-09
1.01698e-09
1.01275e-09
1.00631e-09
9.9783e-10
9.86088e-10
9.70651e-10
9.50409e-10
9.22399e-10
8.88032e-10
8.43637e-10
7.85971e-10
7.17287e-10
6.31975e-10
5.39412e-10
4.4172e-10
3.43895e-10
2.5761e-10
1.87539e-10
1.37236e-10
1.05512e-10
9.37207e-11
1.03403e-10
8.89389e-11
8.05223e-11
9.07555e-11
1.18334e-10
1.62237e-10
2.23927e-10
3.00514e-10
3.88522e-10
4.76963e-10
5.62143e-10
6.39934e-10
7.06686e-10
7.62149e-10
8.04891e-10
8.36858e-10
8.63532e-10
8.83021e-10
8.97377e-10
9.07868e-10
9.16573e-10
9.22358e-10
9.26841e-10
9.29703e-10
9.31475e-10
9.32433e-10
9.32599e-10
9.31873e-10
9.30168e-10
9.27301e-10
9.23166e-10
9.16942e-10
9.08679e-10
8.97286e-10
8.82413e-10
8.62825e-10
8.35919e-10
8.03066e-10
7.60832e-10
7.04731e-10
6.38024e-10
5.60449e-10
4.75699e-10
3.86754e-10
2.98874e-10
2.2258e-10
1.61068e-10
1.1759e-10
9.0207e-11
8.00622e-11
8.84846e-11
7.57823e-11
6.84884e-11
7.72457e-11
1.0092e-10
1.38851e-10
1.92446e-10
2.5965e-10
3.38006e-10
4.17501e-10
4.9569e-10
5.66823e-10
6.2714e-10
6.80469e-10
7.22864e-10
7.53532e-10
7.78719e-10
7.9744e-10
8.11089e-10
8.21198e-10
8.2952e-10
8.35113e-10
8.3941e-10
8.42224e-10
8.43928e-10
8.44853e-10
8.45023e-10
8.44336e-10
8.42713e-10
8.39931e-10
8.35874e-10
8.29904e-10
8.21894e-10
8.11024e-10
7.9672e-10
7.78002e-10
7.52615e-10
7.21065e-10
6.79211e-10
6.25118e-10
5.65038e-10
4.9413e-10
4.16171e-10
3.36367e-10
2.58174e-10
1.91248e-10
1.378e-10
1.00239e-10
7.67554e-11
6.80776e-11
7.53795e-11
6.42821e-11
5.79784e-11
6.54334e-11
8.55994e-11
1.18125e-10
1.64488e-10
2.22997e-10
2.92192e-10
3.63353e-10
4.3404e-10
4.99216e-10
5.54526e-10
6.01138e-10
6.41112e-10
6.71512e-10
6.96688e-10
7.15011e-10
7.28004e-10
7.376e-10
7.45446e-10
7.50933e-10
7.54973e-10
7.57811e-10
7.59423e-10
7.603e-10
7.60469e-10
7.59828e-10
7.58306e-10
7.55644e-10
7.51651e-10
7.45819e-10
7.38201e-10
7.27975e-10
7.14272e-10
6.95864e-10
6.70498e-10
6.39303e-10
6.00011e-10
5.5248e-10
4.97565e-10
4.32576e-10
3.62036e-10
2.9069e-10
2.21682e-10
1.63431e-10
1.17335e-10
8.49909e-11
6.49989e-11
5.76149e-11
6.39266e-11
5.42814e-11
4.88482e-11
5.5166e-11
7.23996e-11
9.99675e-11
1.39835e-10
1.90389e-10
2.51025e-10
3.13791e-10
3.77426e-10
4.36523e-10
4.87119e-10
5.30316e-10
5.66873e-10
5.92617e-10
6.14994e-10
6.32292e-10
6.4492e-10
6.54208e-10
6.61887e-10
6.68098e-10
6.72125e-10
6.75216e-10
6.76844e-10
6.77729e-10
6.77913e-10
6.77284e-10
6.7577e-10
6.73069e-10
6.68851e-10
6.62288e-10
6.54793e-10
6.44824e-10
6.31568e-10
6.1425e-10
5.9168e-10
5.65122e-10
5.29092e-10
4.85272e-10
4.35009e-10
3.76075e-10
3.12465e-10
2.49613e-10
1.89223e-10
1.38909e-10
9.92464e-11
7.18744e-11
5.47841e-11
4.85287e-11
5.39697e-11
4.56297e-11
4.09564e-11
4.62871e-11
6.09379e-11
8.41692e-11
1.18149e-10
1.61599e-10
2.14114e-10
2.69222e-10
3.25923e-10
3.78948e-10
4.24765e-10
4.64477e-10
4.97589e-10
5.22147e-10
5.42424e-10
5.58157e-10
5.69928e-10
5.78503e-10
5.85616e-10
5.8951e-10
5.93217e-10
5.95194e-10
5.96693e-10
5.97512e-10
5.97689e-10
5.97116e-10
5.95732e-10
5.93219e-10
5.902e-10
5.85999e-10
5.79032e-10
5.69778e-10
5.57481e-10
5.41739e-10
5.21114e-10
4.96093e-10
4.63239e-10
4.23093e-10
3.7758e-10
3.24695e-10
2.67992e-10
2.12999e-10
1.60578e-10
1.1737e-10
8.35312e-11
6.04866e-11
4.59539e-11
4.06793e-11
4.53585e-11
3.81845e-11
3.41755e-11
3.8648e-11
5.10404e-11
7.05342e-11
9.93341e-11
1.36374e-10
1.81662e-10
2.29291e-10
2.79253e-10
3.26564e-10
3.67747e-10
4.03476e-10
4.33597e-10
4.5632e-10
4.74598e-10
4.89137e-10
4.9997e-10
5.07816e-10
5.14355e-10
5.18562e-10
5.21981e-10
5.23929e-10
5.25313e-10
5.26073e-10
5.26243e-10
5.25719e-10
5.24452e-10
5.22116e-10
5.19206e-10
5.14708e-10
5.08309e-10
4.99796e-10
4.88516e-10
4.73966e-10
4.55356e-10
4.32297e-10
4.02234e-10
3.66229e-10
3.25343e-10
2.78098e-10
2.28178e-10
1.80634e-10
1.35486e-10
9.86593e-11
6.99852e-11
5.06552e-11
3.83597e-11
3.39345e-11
3.79506e-11
3.18115e-11
2.83508e-11
3.20092e-11
4.25436e-11
5.88357e-11
8.30554e-11
1.14433e-10
1.53173e-10
1.94226e-10
2.37868e-10
2.79137e-10
3.1613e-10
3.48085e-10
3.75143e-10
3.9567e-10
4.12332e-10
4.25521e-10
4.35347e-10
4.42447e-10
4.48386e-10
4.52397e-10
4.55518e-10
4.57428e-10
4.58699e-10
4.59397e-10
4.59558e-10
4.59084e-10
4.57936e-10
4.55786e-10
4.52988e-10
4.48715e-10
4.42895e-10
4.35131e-10
4.24902e-10
4.11792e-10
3.94821e-10
3.7391e-10
3.46986e-10
3.14752e-10
2.78056e-10
2.36757e-10
1.9325e-10
1.52269e-10
1.13667e-10
8.24733e-11
5.83713e-11
4.2211e-11
3.1762e-11
2.81434e-11
3.16118e-11
2.63626e-11
2.34036e-11
2.6423e-11
3.53007e-11
4.88489e-11
6.90742e-11
9.54818e-11
1.28305e-10
1.63431e-10
2.00537e-10
2.37204e-10
2.69426e-10
2.9811e-10
3.22182e-10
3.40435e-10
3.5556e-10
3.67393e-10
3.76236e-10
3.82581e-10
3.87933e-10
3.91601e-10
3.94432e-10
3.96214e-10
3.97378e-10
3.98015e-10
3.98166e-10
3.97741e-10
3.96711e-10
3.94744e-10
3.92149e-10
3.88218e-10
3.82952e-10
3.76041e-10
3.66812e-10
3.55076e-10
3.39658e-10
3.21048e-10
2.97173e-10
2.68194e-10
2.36237e-10
1.99743e-10
1.62587e-10
1.2754e-10
9.48294e-11
6.85762e-11
4.84607e-11
3.50176e-11
2.62065e-11
2.32269e-11
2.61857e-11
2.16973e-11
1.92312e-11
2.16786e-11
2.908e-11
4.03634e-11
5.71501e-11
7.92357e-11
1.06887e-10
1.36616e-10
1.68625e-10
1.99434e-10
2.27796e-10
2.53437e-10
2.74376e-10
2.90864e-10
3.04299e-10
3.14797e-10
3.22605e-10
3.28294e-10
3.33056e-10
3.3639e-10
3.38941e-10
3.40559e-10
3.41623e-10
3.42198e-10
3.42338e-10
3.4196e-10
3.41047e-10
3.39257e-10
3.36879e-10
3.33317e-10
3.28601e-10
3.22421e-10
3.14284e-10
3.03846e-10
2.90206e-10
2.73337e-10
2.52592e-10
2.26682e-10
1.9858e-10
1.67906e-10
1.35886e-10
1.06234e-10
7.86809e-11
5.67277e-11
4.00415e-11
2.88381e-11
2.14951e-11
1.90814e-11
2.15483e-11
1.77633e-11
1.57278e-11
1.76691e-11
2.38623e-11
3.31855e-11
4.7047e-11
6.54011e-11
8.85368e-11
1.13431e-10
1.40842e-10
1.67302e-10
1.91191e-10
2.12804e-10
2.31871e-10
2.46771e-10
2.58467e-10
2.67605e-10
2.7444e-10
2.79525e-10
2.83812e-10
2.86827e-10
2.89119e-10
2.90562e-10
2.91527e-10
2.92042e-10
2.9217e-10
2.91837e-10
2.91033e-10
2.89421e-10
2.87275e-10
2.84031e-10
2.79789e-10
2.74255e-10
2.67145e-10
2.58103e-10
2.46193e-10
2.30966e-10
2.1202e-10
1.90237e-10
1.66574e-10
1.40201e-10
1.12804e-10
8.79806e-11
6.49327e-11
4.66914e-11
3.29138e-11
2.36612e-11
1.75163e-11
1.56022e-11
1.76384e-11
1.44938e-11
1.27963e-11
1.4304e-11
1.95042e-11
2.70787e-11
3.85409e-11
5.36986e-11
7.2928e-11
9.35359e-11
1.16898e-10
1.39333e-10
1.59614e-10
1.78234e-10
1.9439e-10
2.06362e-10
2.16828e-10
2.25217e-10
2.31489e-10
2.36388e-10
2.40253e-10
2.42949e-10
2.4495e-10
2.4622e-10
2.47054e-10
2.47507e-10
2.47622e-10
2.47332e-10
2.46634e-10
2.45231e-10
2.43346e-10
2.40455e-10
2.36609e-10
2.31339e-10
2.24809e-10
2.16485e-10
2.05907e-10
1.93637e-10
1.77538e-10
1.58811e-10
1.3872e-10
1.16353e-10
9.29954e-11
7.2457e-11
5.33054e-11
3.82429e-11
2.68514e-11
1.93373e-11
1.41761e-11
1.26916e-11
1.43891e-11
1.17968e-11
1.03637e-11
1.15225e-11
1.58516e-11
2.19832e-11
3.14268e-11
4.38623e-11
5.97511e-11
7.68826e-11
9.61524e-11
1.1528e-10
1.32368e-10
1.48296e-10
1.6197e-10
1.72381e-10
1.81331e-10
1.88443e-10
1.93867e-10
1.97383e-10
2.0044e-10
2.02661e-10
2.04339e-10
2.05483e-10
2.06165e-10
2.06573e-10
2.06682e-10
2.06422e-10
2.05803e-10
2.04611e-10
2.03024e-10
2.00626e-10
1.97591e-10
1.93727e-10
1.88096e-10
1.81052e-10
1.72041e-10
1.6134e-10
1.4771e-10
1.3169e-10
1.14764e-10
9.56832e-11
7.6439e-11
5.93548e-11
4.35339e-11
3.11775e-11
2.17953e-11
1.57113e-11
1.1417e-11
1.02768e-11
1.17102e-11
9.53288e-12
8.35666e-12
9.24737e-12
1.27931e-11
1.77465e-11
2.54885e-11
3.56437e-11
4.87007e-11
6.28219e-11
7.87737e-11
9.45643e-11
1.09103e-10
1.22325e-10
1.34015e-10
1.43075e-10
1.50588e-10
1.56619e-10
1.61223e-10
1.64481e-10
1.67156e-10
1.69041e-10
1.70445e-10
1.71431e-10
1.71981e-10
1.72329e-10
1.72426e-10
1.72203e-10
1.7168e-10
1.70688e-10
1.69357e-10
1.67319e-10
1.64655e-10
1.61113e-10
1.56326e-10
1.50379e-10
1.42786e-10
1.33494e-10
1.21793e-10
1.0854e-10
9.41376e-11
7.83796e-11
6.24513e-11
4.83689e-11
3.53705e-11
2.52809e-11
1.75926e-11
1.26743e-11
9.16173e-12
8.28504e-12
9.46124e-12
7.66811e-12
6.70969e-12
7.40647e-12
1.02361e-11
1.42332e-11
2.05971e-11
2.88142e-11
3.94951e-11
5.10277e-11
6.41714e-11
7.7221e-11
8.92606e-11
1.00358e-10
1.10206e-10
1.17722e-10
1.24157e-10
1.29263e-10
1.33138e-10
1.35979e-10
1.38297e-10
1.39934e-10
1.41132e-10
1.41976e-10
1.42443e-10
1.42737e-10
1.42822e-10
1.42632e-10
1.42194e-10
1.41347e-10
1.40205e-10
1.38446e-10
1.36132e-10
1.33053e-10
1.29028e-10
1.23969e-10
1.17467e-10
1.09782e-10
9.98994e-11
8.88071e-11
7.68693e-11
6.38478e-11
5.07167e-11
3.92187e-11
2.85874e-11
2.04254e-11
1.41077e-11
1.01356e-11
7.33774e-12
6.65096e-12
7.60911e-12
6.139e-12
5.36457e-12
5.94084e-12
8.09655e-12
1.13452e-11
1.65782e-11
2.31664e-11
3.18776e-11
4.12036e-11
5.19838e-11
6.26615e-11
7.26331e-11
8.18853e-11
8.99416e-11
9.64125e-11
1.01703e-10
1.05969e-10
1.0922e-10
1.11631e-10
1.13598e-10
1.14999e-10
1.16019e-10
1.16737e-10
1.1714e-10
1.17386e-10
1.1746e-10
1.173e-10
1.16934e-10
1.16212e-10
1.15225e-10
1.13725e-10
1.11756e-10
1.09152e-10
1.05793e-10
1.01544e-10
9.61908e-11
8.9587e-11
8.15077e-11
7.22751e-11
6.23737e-11
5.17212e-11
4.09436e-11
3.16485e-11
2.29774e-11
1.64321e-11
1.12484e-11
8.01287e-12
5.88528e-12
5.31655e-12
6.09059e-12
4.89126e-12
4.26955e-12
4.73334e-12
6.36721e-12
9.03306e-12
1.32442e-11
1.85042e-11
2.56158e-11
3.30758e-11
4.18843e-11
5.05514e-11
5.87759e-11
6.63722e-11
7.3018e-11
7.83894e-11
8.27748e-11
8.63094e-11
8.90205e-11
9.10359e-11
9.26839e-11
9.38621e-11
9.4722e-11
9.53259e-11
9.56692e-11
9.58742e-11
9.59376e-11
9.58038e-11
9.55021e-11
9.48914e-11
9.40512e-11
9.27906e-11
9.1131e-11
8.8973e-11
8.61844e-11
8.265e-11
7.81929e-11
7.27205e-11
6.60569e-11
5.84984e-11
5.03144e-11
4.16725e-11
3.286e-11
2.5427e-11
1.83473e-11
1.31196e-11
8.96039e-12
6.29887e-12
4.68765e-12
4.23037e-12
4.85171e-12
3.87801e-12
3.38175e-12
3.74645e-12
4.97348e-12
7.21133e-12
1.0477e-11
1.46828e-11
2.04693e-11
2.63917e-11
3.35768e-11
4.05265e-11
4.73293e-11
5.34587e-11
5.89162e-11
6.33506e-11
6.69618e-11
6.98506e-11
7.20988e-11
7.37687e-11
7.51363e-11
7.61133e-11
7.68308e-11
7.73323e-11
7.76199e-11
7.77901e-11
7.78442e-11
7.77331e-11
7.74855e-11
7.6977e-11
7.627e-11
7.52264e-11
7.38399e-11
7.20672e-11
6.97603e-11
6.68624e-11
6.31741e-11
5.86625e-11
5.32132e-11
4.71148e-11
4.03314e-11
3.34063e-11
2.62144e-11
2.03123e-11
1.45523e-11
1.03786e-11
7.15115e-12
4.91778e-12
3.70891e-12
3.34993e-12
3.84586e-12
3.05898e-12
2.66536e-12
2.94727e-12
3.86059e-12
5.7022e-12
8.26987e-12
1.15619e-11
1.62715e-11
2.08783e-11
2.67926e-11
3.23499e-11
3.78574e-11
4.28051e-11
4.72855e-11
5.08848e-11
5.38375e-11
5.61969e-11
5.80332e-11
5.94135e-11
6.05314e-11
6.13388e-11
6.19285e-11
6.23422e-11
6.25794e-11
6.27203e-11
6.27661e-11
6.26746e-11
6.24723e-11
6.20547e-11
6.14659e-11
6.06047e-11
5.94679e-11
5.80106e-11
5.6134e-11
5.37568e-11
5.07089e-11
4.70982e-11
4.26119e-11
3.76915e-11
3.21909e-11
2.6656e-11
2.07309e-11
1.61435e-11
1.14538e-11
8.19344e-12
5.65095e-12
3.81606e-12
2.91675e-12
2.63965e-12
3.03298e-12
2.39983e-12
2.09018e-12
2.3089e-12
2.989e-12
4.44958e-12
6.52316e-12
9.05828e-12
1.28554e-11
1.63351e-11
2.12749e-11
2.56523e-11
3.01807e-11
3.4085e-11
3.77189e-11
4.06228e-11
4.30556e-11
4.49321e-11
4.64414e-11
4.75651e-11
4.84776e-11
4.91373e-11
4.96195e-11
4.99565e-11
5.01496e-11
5.0266e-11
5.03043e-11
5.02296e-11
5.00652e-11
4.97264e-11
4.92396e-11
4.85373e-11
4.76092e-11
4.64257e-11
4.48959e-11
4.29804e-11
4.04674e-11
3.75775e-11
3.39275e-11
3.00514e-11
2.55252e-11
2.11594e-11
1.6218e-11
1.275e-11
8.97086e-12
6.46298e-12
4.40679e-12
2.95412e-12
2.2845e-12
2.06954e-12
2.37893e-12
1.87148e-12
1.63053e-12
1.8005e-12
2.3147e-12
3.44057e-12
5.1223e-12
7.08013e-12
1.00772e-11
1.27079e-11
1.66909e-11
2.02467e-11
2.39128e-11
2.69696e-11
2.99547e-11
3.22699e-11
3.42342e-11
3.57203e-11
3.69563e-11
3.78621e-11
3.86051e-11
3.9138e-11
3.9531e-11
3.98036e-11
3.99593e-11
4.00548e-11
4.00867e-11
4.00261e-11
3.98934e-11
3.96211e-11
3.92224e-11
3.86489e-11
3.78968e-11
3.6949e-11
3.56992e-11
3.41705e-11
3.21335e-11
2.9849e-11
2.68532e-11
2.37969e-11
2.01355e-11
1.65955e-11
1.26147e-11
9.99094e-12
7.01054e-12
5.07312e-12
3.40608e-12
2.28763e-12
1.78099e-12
1.61406e-12
1.85477e-12
1.45938e-12
1.26689e-12
1.3962e-12
1.7931e-12
2.62959e-12
3.99448e-12
5.5321e-12
7.81281e-12
9.86901e-12
1.30012e-11
1.58613e-11
1.86957e-11
2.12522e-11
2.36793e-11
2.55069e-11
2.70723e-11
2.82436e-11
2.92515e-11
2.99801e-11
3.05804e-11
3.10103e-11
3.13272e-11
3.15467e-11
3.16713e-11
3.1749e-11
3.17753e-11
3.17264e-11
3.162e-11
3.1403e-11
3.10783e-11
3.06171e-11
3.00088e-11
2.92453e-11
2.82331e-11
2.7016e-11
2.53906e-11
2.35999e-11
2.11686e-11
1.86243e-11
1.57733e-11
1.29253e-11
9.79371e-12
7.74289e-12
5.47728e-12
3.95347e-12
2.60221e-12
1.77234e-12
1.38081e-12
1.25379e-12
1.44604e-12
1.13179e-12
9.77549e-13
1.07739e-12
1.39135e-12
1.99595e-12
3.09362e-12
4.27601e-12
6.06055e-12
7.6284e-12
1.00641e-11
1.23101e-11
1.45756e-11
1.65133e-11
1.84752e-11
1.99649e-11
2.12765e-11
2.22337e-11
2.30473e-11
2.3635e-11
2.4114e-11
2.44589e-11
2.47114e-11
2.48858e-11
2.49842e-11
2.50466e-11
2.50679e-11
2.50291e-11
2.49446e-11
2.47733e-11
2.45141e-11
2.41456e-11
2.36568e-11
2.30448e-11
2.22278e-11
2.12328e-11
1.98768e-11
1.83968e-11
1.64438e-11
1.44997e-11
1.22412e-11
1.00066e-11
7.56824e-12
6.00237e-12
4.2337e-12
3.05997e-12
1.97494e-12
1.37529e-12
1.06534e-12
9.67209e-13
1.12121e-12
8.68035e-13
7.50671e-13
8.26391e-13
1.06898e-12
1.52255e-12
2.3731e-12
3.27322e-12
4.66308e-12
5.911e-12
7.73512e-12
9.50059e-12
1.12241e-11
1.28403e-11
1.42715e-11
1.54007e-11
1.64434e-11
1.72193e-11
1.78786e-11
1.83631e-11
1.87584e-11
1.90453e-11
1.92568e-11
1.94028e-11
1.94842e-11
1.95367e-11
1.95549e-11
1.95221e-11
1.94519e-11
1.93097e-11
1.90912e-11
1.8786e-11
1.83811e-11
1.78761e-11
1.72151e-11
1.64093e-11
1.53366e-11
1.42239e-11
1.28003e-11
1.11443e-11
9.44092e-12
7.69319e-12
5.86418e-12
4.6161e-12
3.23942e-12
2.34678e-12
1.50611e-12
1.05655e-12
8.17003e-13
7.42551e-13
8.59699e-13
6.65058e-13
5.72199e-13
6.29905e-13
8.12808e-13
1.17215e-12
1.79866e-12
2.49075e-12
3.56552e-12
4.52784e-12
5.94827e-12
7.29208e-12
8.57375e-12
9.86139e-12
1.10609e-11
1.194e-11
1.2652e-11
1.3231e-11
1.37234e-11
1.40909e-11
1.44211e-11
1.46367e-11
1.48124e-11
1.49263e-11
1.49888e-11
1.50298e-11
1.50442e-11
1.50188e-11
1.49646e-11
1.48548e-11
1.46729e-11
1.44366e-11
1.41038e-11
1.37212e-11
1.32289e-11
1.26265e-11
1.18906e-11
1.10133e-11
9.84489e-12
8.52281e-12
7.23536e-12
5.91854e-12
4.48993e-12
3.53035e-12
2.46334e-12
1.77816e-12
1.15958e-12
8.03238e-13
6.22671e-13
5.65867e-13
6.58516e-13
5.04152e-13
4.32612e-13
4.76511e-13
6.14321e-13
8.93163e-13
1.3608e-12
1.88482e-12
2.71759e-12
3.45972e-12
4.53079e-12
5.55641e-12
6.54174e-12
7.50013e-12
8.44195e-12
9.16431e-12
9.76011e-12
1.02218e-11
1.06046e-11
1.08893e-11
1.10894e-11
1.12531e-11
1.13548e-11
1.1444e-11
1.14921e-11
1.1524e-11
1.15354e-11
1.15156e-11
1.14738e-11
1.13888e-11
1.12812e-11
1.10989e-11
1.08988e-11
1.06024e-11
1.02223e-11
9.7412e-12
9.12083e-12
8.39038e-12
7.49472e-12
6.50134e-12
5.51496e-12
4.50989e-12
3.42849e-12
2.68998e-12
1.86302e-12
1.34454e-12
8.83826e-13
6.0717e-13
4.70924e-13
4.27738e-13
4.99043e-13
3.80769e-13
3.25319e-13
3.57515e-13
4.61269e-13
6.70878e-13
1.02648e-12
1.42595e-12
2.04325e-12
2.62251e-12
3.45688e-12
4.23833e-12
4.95373e-12
5.69412e-12
6.37443e-12
6.91236e-12
7.38583e-12
7.76376e-12
8.08631e-12
8.32489e-12
8.50529e-12
8.63761e-12
8.72707e-12
8.79825e-12
8.8361e-12
8.86152e-12
8.87071e-12
8.855e-12
8.82192e-12
8.75477e-12
8.66063e-12
8.5155e-12
8.33742e-12
8.08404e-12
7.77762e-12
7.37386e-12
6.87516e-12
6.33509e-12
5.66566e-12
4.92048e-12
4.21071e-12
3.44156e-12
2.59689e-12
2.02132e-12
1.4089e-12
1.01263e-12
6.64858e-13
4.56039e-13
3.53281e-13
3.21584e-13
3.76829e-13
2.84894e-13
2.42051e-13
2.65945e-13
3.44043e-13
5.01091e-13
7.66626e-13
1.06519e-12
1.53364e-12
1.96745e-12
2.60864e-12
3.21969e-12
3.77295e-12
4.32869e-12
4.84062e-12
5.23297e-12
5.56966e-12
5.85262e-12
6.06377e-12
6.24501e-12
6.38449e-12
6.48788e-12
6.56157e-12
6.61715e-12
6.64627e-12
6.66614e-12
6.67342e-12
6.66124e-12
6.63568e-12
6.58365e-12
6.50599e-12
6.39445e-12
6.25553e-12
6.0623e-12
5.83321e-12
5.56072e-12
5.21389e-12
4.81616e-12
4.31285e-12
3.74604e-12
3.19946e-12
2.59759e-12
1.94706e-12
1.51678e-12
1.05195e-12
7.55893e-13
4.96459e-13
3.40201e-13
2.62759e-13
2.3921e-13
2.81851e-13
2.10337e-13
1.78303e-13
1.95952e-13
2.56011e-13
3.67992e-13
5.68202e-13
7.85886e-13
1.13928e-12
1.4758e-12
1.94439e-12
2.41737e-12
2.84931e-12
3.27713e-12
3.66574e-12
3.96139e-12
4.21539e-12
4.42837e-12
4.59656e-12
4.73296e-12
4.83839e-12
4.91657e-12
4.97293e-12
5.01511e-12
5.03689e-12
5.0519e-12
5.05724e-12
5.04825e-12
5.02922e-12
4.98963e-12
4.93012e-12
4.84587e-12
4.74114e-12
4.59509e-12
4.42283e-12
4.20861e-12
3.94642e-12
3.64824e-12
3.26407e-12
2.82632e-12
2.4008e-12
1.93571e-12
1.46025e-12
1.12616e-12
7.76048e-13
5.60241e-13
3.64253e-13
2.53132e-13
1.93565e-13
1.76166e-13
2.08043e-13
1.53798e-13
1.29945e-13
1.42723e-13
1.88367e-13
2.67482e-13
4.16537e-13
5.76041e-13
8.431e-13
1.09578e-12
1.44352e-12
1.79308e-12
2.12188e-12
2.44672e-12
2.74689e-12
2.97919e-12
3.17598e-12
3.34144e-12
3.47067e-12
3.57396e-12
3.65406e-12
3.71325e-12
3.75591e-12
3.78801e-12
3.80437e-12
3.81574e-12
3.81958e-12
3.81301e-12
3.79884e-12
3.76866e-12
3.72342e-12
3.65972e-12
3.5807e-12
3.46884e-12
3.33776e-12
3.1708e-12
2.96679e-12
2.73377e-12
2.43469e-12
2.10483e-12
1.77989e-12
1.436e-12
1.0836e-12
8.33189e-13
5.68764e-13
4.10746e-13
2.64546e-13
1.86212e-13
1.40945e-13
1.28354e-13
1.5208e-13
1.11306e-13
9.35689e-14
1.02478e-13
1.37068e-13
1.94164e-13
2.99162e-13
4.22765e-13
6.15259e-13
8.02957e-13
1.06841e-12
1.31946e-12
1.56319e-12
1.79954e-12
2.03036e-12
2.20739e-12
2.35558e-12
2.48276e-12
2.58102e-12
2.65926e-12
2.72069e-12
2.76576e-12
2.7982e-12
2.82298e-12
2.83546e-12
2.84419e-12
2.84687e-12
2.84222e-12
2.83161e-12
2.80842e-12
2.77359e-12
2.72517e-12
2.6652e-12
2.5789e-12
2.47931e-12
2.35219e-12
2.19659e-12
2.02027e-12
1.78994e-12
1.55177e-12
1.31035e-12
1.06259e-12
7.93312e-13
6.07735e-13
4.17325e-13
2.95083e-13
1.91884e-13
1.35468e-13
1.01157e-13
9.23991e-14
1.10034e-13
7.96909e-14
6.68138e-14
7.24012e-14
9.85376e-14
1.38362e-13
2.14414e-13
3.04487e-13
4.42819e-13
5.8411e-13
7.77506e-13
9.70845e-13
1.15544e-12
1.33063e-12
1.48844e-12
1.61506e-12
1.72267e-12
1.81596e-12
1.88742e-12
1.94491e-12
1.99039e-12
2.02374e-12
2.04769e-12
2.06614e-12
2.07532e-12
2.08183e-12
2.08375e-12
2.08043e-12
2.07271e-12
2.05538e-12
2.02957e-12
1.99383e-12
1.94967e-12
1.88572e-12
1.81272e-12
1.72041e-12
1.60753e-12
1.48278e-12
1.32363e-12
1.148e-12
9.63199e-13
7.72777e-13
5.76795e-13
4.36595e-13
3.00986e-13
2.1145e-13
1.36639e-13
9.73418e-14
7.14427e-14
6.59612e-14
7.87932e-14
5.69077e-14
4.70147e-14
5.03512e-14
6.96313e-14
9.73992e-14
1.50899e-13
2.18336e-13
3.14658e-13
4.16734e-13
5.6135e-13
6.96644e-13
8.39104e-13
9.70059e-13
1.09623e-12
1.19108e-12
1.27063e-12
1.3411e-12
1.39378e-12
1.43628e-12
1.47013e-12
1.49479e-12
1.51251e-12
1.52614e-12
1.53287e-12
1.53768e-12
1.53909e-12
1.53664e-12
1.53101e-12
1.51808e-12
1.49905e-12
1.47266e-12
1.44005e-12
1.39248e-12
1.33792e-12
1.26966e-12
1.18546e-12
1.091e-12
9.64443e-13
8.34677e-13
6.91743e-13
5.57031e-13
4.10826e-13
3.10497e-13
2.15667e-13
1.48589e-13
9.62585e-14
6.87528e-14
4.96679e-14
4.63994e-14
5.62603e-14
3.98253e-14
3.25446e-14
3.44742e-14
4.80096e-14
6.8409e-14
1.0426e-13
1.53298e-13
2.22705e-13
2.94862e-13
3.97699e-13
4.92882e-13
5.98759e-13
6.92797e-13
7.86152e-13
8.5675e-13
9.16471e-13
9.71559e-13
1.01132e-12
1.044e-12
1.07015e-12
1.08944e-12
1.10313e-12
1.11384e-12
1.11899e-12
1.1228e-12
1.12398e-12
1.12202e-12
1.11776e-12
1.10746e-12
1.09275e-12
1.07217e-12
1.04709e-12
1.01024e-12
9.68383e-13
9.16666e-13
8.524e-13
7.81974e-13
6.88726e-13
5.95993e-13
4.8877e-13
3.94436e-13
2.90624e-13
2.19862e-13
1.5122e-13
1.02731e-13
6.75194e-14
4.73842e-14
3.39977e-14
3.21119e-14
3.936e-14
2.74211e-14
2.21966e-14
2.32711e-14
3.25456e-14
4.6597e-14
7.24364e-14
1.04951e-13
1.54633e-13
2.08122e-13
2.79627e-13
3.47165e-13
4.20475e-13
4.87369e-13
5.52737e-13
6.04757e-13
6.49242e-13
6.90051e-13
7.17935e-13
7.41848e-13
7.60384e-13
7.74498e-13
7.84236e-13
7.91979e-13
7.95616e-13
7.98379e-13
7.99272e-13
7.97836e-13
7.94828e-13
7.87336e-13
7.76849e-13
7.61907e-13
7.44195e-13
7.17208e-13
6.87587e-13
6.4934e-13
6.01787e-13
5.49954e-13
4.84013e-13
4.18739e-13
3.4482e-13
2.77217e-13
2.05262e-13
1.52645e-13
1.03478e-13
7.14014e-14
4.59402e-14
3.21161e-14
2.29468e-14
2.18986e-14
2.70959e-14
1.85969e-14
1.49085e-14
1.54958e-14
2.1705e-14
3.10718e-14
4.92364e-14
7.15523e-14
1.05562e-13
1.43167e-13
1.94401e-13
2.44429e-13
2.95322e-13
3.4305e-13
3.89905e-13
4.26283e-13
4.54549e-13
4.82651e-13
5.01815e-13
5.1879e-13
5.31568e-13
5.4168e-13
5.4848e-13
5.53939e-13
5.56454e-13
5.5845e-13
5.59116e-13
5.58083e-13
5.55966e-13
5.50702e-13
5.43322e-13
5.32708e-13
5.20352e-13
5.01399e-13
4.80912e-13
4.54559e-13
4.24332e-13
3.87531e-13
3.40718e-13
2.94252e-13
2.4264e-13
1.9248e-13
1.41275e-13
1.04223e-13
7.05649e-14
4.85168e-14
3.06337e-14
2.14193e-14
1.52815e-14
1.47094e-14
1.83771e-14
1.24159e-14
9.85753e-15
1.01883e-14
1.42198e-14
2.03911e-14
3.2471e-14
4.79213e-14
7.1387e-14
9.62358e-14
1.3319e-13
1.67153e-13
2.02826e-13
2.38514e-13
2.72284e-13
2.99542e-13
3.19992e-13
3.40151e-13
3.53569e-13
3.65541e-13
3.74624e-13
3.81878e-13
3.86811e-13
3.90642e-13
3.92401e-13
3.93938e-13
3.94432e-13
3.93682e-13
3.92085e-13
3.88404e-13
3.83032e-13
3.75468e-13
3.66594e-13
3.53255e-13
3.38923e-13
3.19976e-13
2.98313e-13
2.7042e-13
2.36737e-13
2.02271e-13
1.6586e-13
1.31868e-13
9.50788e-14
7.05121e-14
4.72871e-14
3.20115e-14
2.01181e-14
1.40401e-14
1.00539e-14
9.73127e-15
1.22752e-14
8.1565e-15
6.41556e-15
6.64677e-15
9.13154e-15
1.31602e-14
2.10413e-14
3.1277e-14
4.72751e-14
6.40051e-14
8.89262e-14
1.13454e-13
)
;

boundaryField
{
    fuel
    {
        type            fixedValue;
        value           nonuniform 0();
    }
    wall
    {
        type            zeroGradient;
    }
    outlet
    {
        type            zeroGradient;
    }
    frontAndBack
    {
        type            empty;
    }
    procBoundary2to0
    {
        type            processor;
        value           nonuniform List<scalar> 
53
(
2.11882e-10
1.93271e-10
2.16468e-10
2.77391e-10
3.71176e-10
4.94082e-10
6.35449e-10
7.83132e-10
9.20076e-10
1.04071e-09
1.14276e-09
1.22308e-09
1.28905e-09
1.33929e-09
1.3774e-09
1.40827e-09
1.43012e-09
1.44615e-09
1.36515e-09
1.36515e-09
1.37492e-09
1.38134e-09
1.38628e-09
1.3894e-09
1.39132e-09
1.39229e-09
1.39239e-09
1.39153e-09
1.38964e-09
1.29348e-09
1.29348e-09
1.28902e-09
1.28221e-09
1.2733e-09
1.26094e-09
1.24458e-09
1.22274e-09
1.1924e-09
1.15554e-09
1.10683e-09
1.043e-09
9.65999e-10
7.86932e-10
7.86932e-10
6.80305e-10
5.65264e-10
4.46987e-10
3.39408e-10
2.49682e-10
1.84197e-10
1.42303e-10
1.26634e-10
1.39323e-10
)
;
    }
    procBoundary2to3
    {
        type            processor;
        value           nonuniform List<scalar> 
51
(
1.38305e-13
1.63363e-13
1.84085e-13
2.02818e-13
2.17785e-13
2.32071e-13
2.41902e-13
2.50603e-13
2.57175e-13
2.63144e-13
2.67111e-13
2.69975e-13
2.71241e-13
2.72666e-13
2.73065e-13
2.7249e-13
2.71097e-13
2.68331e-13
2.6401e-13
2.57802e-13
2.51323e-13
2.41678e-13
2.31307e-13
2.17732e-13
2.02061e-13
1.8285e-13
1.62094e-13
1.37997e-13
1.12569e-13
8.80214e-14
6.33112e-14
4.66436e-14
3.08542e-14
2.07406e-14
1.29845e-14
9.01534e-15
6.55931e-15
6.33372e-15
8.06486e-15
5.26458e-15
4.10093e-15
4.22006e-15
5.85665e-15
8.32356e-15
1.33721e-14
2.00004e-14
3.0523e-14
4.14999e-14
5.86192e-14
1.38305e-13
7.42472e-14
)
;
    }
}


// ************************************************************************* //
