/*--------------------------------*- C++ -*----------------------------------*\
| =========                 |                                                 |
| \\      /  F ield         | OpenFOAM: The Open Source CFD Toolbox           |
|  \\    /   O peration     | Version:  dev                                   |
|   \\  /    A nd           | Web:      www.OpenFOAM.org                      |
|    \\/     M anipulation  |                                                 |
\*---------------------------------------------------------------------------*/
FoamFile
{
    version     2.0;
    format      ascii;
    class       volScalarField;
    location    "0.005";
    object      C6H5OH;
}
// * * * * * * * * * * * * * * * * * * * * * * * * * * * * * * * * * * * * * //

dimensions      [0 0 0 0 0 0 0];

internalField   nonuniform List<scalar> 
250
(
2.54313e-10
7.08778e-10
1.38963e-09
1.48939e-09
1.45428e-09
1.35925e-09
1.33187e-09
1.31728e-09
1.35601e-09
1.79531e-09
5.07418e-09
1.1587e-08
1.34314e-08
1.27997e-08
1.14906e-08
1.10784e-08
1.09078e-08
1.14662e-08
8.90932e-09
3.07372e-08
9.93551e-08
1.28278e-07
1.18813e-07
1.01661e-07
9.57308e-08
9.3794e-08
1.01475e-07
4.01249e-08
1.95001e-07
8.68205e-07
1.16266e-06
1.07526e-06
9.15307e-07
8.52894e-07
8.34639e-07
9.145e-07
1.76588e-07
1.04723e-06
5.18123e-06
6.23075e-06
6.03455e-06
5.59244e-06
5.32353e-06
5.254e-06
5.59515e-06
5.75806e-07
3.6567e-06
8.16929e-06
7.91548e-06
8.11631e-06
8.4897e-06
8.54183e-06
8.58604e-06
8.4928e-06
1.25164e-06
5.37716e-06
6.89865e-06
6.19944e-06
6.38314e-06
6.70203e-06
6.80319e-06
6.82398e-06
6.6956e-06
2.12908e-06
5.66913e-06
5.41884e-06
4.84358e-06
4.92693e-06
5.06227e-06
5.12435e-06
5.12143e-06
5.05235e-06
2.66859e-06
5.28313e-06
4.53168e-06
4.08116e-06
4.109e-06
4.15862e-06
4.20055e-06
4.19064e-06
4.14848e-06
2.79696e-06
4.76142e-06
4.07673e-06
3.69735e-06
3.70363e-06
3.72838e-06
3.76555e-06
3.75549e-06
3.71913e-06
2.68551e-06
4.269e-06
3.85456e-06
3.5405e-06
3.54117e-06
3.56316e-06
3.59862e-06
3.59048e-06
3.55502e-06
3.57017e-06
2.46737e-06
3.83814e-06
3.71004e-06
3.48881e-06
3.49153e-06
3.51491e-06
3.54559e-06
3.54021e-06
3.5087e-06
3.51924e-06
2.2173e-06
3.35612e-06
3.53939e-06
3.4354e-06
3.44568e-06
3.46963e-06
3.49227e-06
3.49039e-06
3.46713e-06
3.47213e-06
1.95383e-06
2.95103e-06
3.2908e-06
3.30701e-06
3.32917e-06
3.35316e-06
3.36628e-06
3.36889e-06
3.3564e-06
3.36036e-06
1.69216e-06
2.5632e-06
2.98007e-06
3.08524e-06
3.12054e-06
3.1452e-06
3.15109e-06
3.15704e-06
3.15478e-06
3.16037e-06
1.45072e-06
2.18718e-06
2.63343e-06
2.79104e-06
2.8378e-06
2.86381e-06
2.866e-06
2.87429e-06
2.87843e-06
2.88552e-06
1.23519e-06
1.82419e-06
2.28094e-06
2.45867e-06
2.51348e-06
2.54072e-06
2.54201e-06
2.5516e-06
2.55867e-06
2.56636e-06
1.05913e-06
1.51433e-06
1.94487e-06
2.11958e-06
2.17824e-06
2.20586e-06
2.20783e-06
2.2176e-06
2.22593e-06
2.23352e-06
8.93979e-07
1.2849e-06
1.56772e-06
1.78397e-06
1.85091e-06
1.8814e-06
1.884e-06
1.89457e-06
1.90495e-06
1.91226e-06
7.4217e-07
1.06891e-06
1.30062e-06
1.42264e-06
1.47716e-06
1.50219e-06
1.50576e-06
1.51606e-06
1.52388e-06
1.53012e-06
5.97648e-07
8.74515e-07
1.07228e-06
1.18949e-06
1.24211e-06
1.26317e-06
1.26826e-06
1.27719e-06
1.28123e-06
1.28567e-06
4.66377e-07
7.02417e-07
8.7145e-07
9.6764e-07
1.01047e-06
1.03162e-06
1.03767e-06
1.04538e-06
1.04986e-06
1.05368e-06
3.58121e-07
5.3843e-07
6.79564e-07
7.67648e-07
8.14026e-07
8.36017e-07
8.42421e-07
8.48333e-07
8.54367e-07
8.57184e-07
2.70566e-07
3.97613e-07
5.26189e-07
5.99259e-07
6.324e-07
6.47355e-07
6.53669e-07
6.5871e-07
6.60116e-07
6.62474e-07
1.98445e-07
2.91316e-07
3.76513e-07
4.42756e-07
4.78743e-07
4.95558e-07
5.01707e-07
5.06688e-07
5.09473e-07
5.11502e-07
1.44644e-07
2.07528e-07
2.66944e-07
3.08855e-07
3.3273e-07
3.46583e-07
3.51892e-07
3.55919e-07
3.58649e-07
3.60072e-07
)
;

boundaryField
{
    fuel
    {
        type            fixedValue;
        value           uniform 0;
    }
    wall
    {
        type            zeroGradient;
    }
    outlet
    {
        type            zeroGradient;
    }
    frontAndBack
    {
        type            empty;
    }
    procBoundary2to0
    {
        type            processor;
        value           nonuniform List<scalar> 
12
(
5.14346e-07
1.01859e-07
1.49845e-07
1.82161e-07
2.08966e-07
2.27674e-07
2.40577e-07
2.45501e-07
2.4895e-07
2.51007e-07
3.6107e-07
2.51804e-07
)
;
    }
    procBoundary2to3
    {
        type            processor;
        value           nonuniform List<scalar> 
25
(
1.378e-09
1.17911e-08
1.06036e-07
9.61002e-07
5.76719e-06
8.41931e-06
6.60242e-06
5.00237e-06
4.12638e-06
3.71895e-06
3.71895e-06
3.50883e-06
3.46881e-06
3.43845e-06
3.3416e-06
3.15231e-06
2.88461e-06
2.56954e-06
2.23838e-06
1.91806e-06
1.53597e-06
1.28851e-06
1.05674e-06
8.59258e-07
6.64969e-07
)
;
    }
}


// ************************************************************************* //
