/*--------------------------------*- C++ -*----------------------------------*\
| =========                 |                                                 |
| \\      /  F ield         | OpenFOAM: The Open Source CFD Toolbox           |
|  \\    /   O peration     | Version:  dev                                   |
|   \\  /    A nd           | Web:      www.OpenFOAM.org                      |
|    \\/     M anipulation  |                                                 |
\*---------------------------------------------------------------------------*/
FoamFile
{
    version     2.0;
    format      ascii;
    class       volScalarField;
    location    "0.005";
    object      CH2OH;
}
// * * * * * * * * * * * * * * * * * * * * * * * * * * * * * * * * * * * * * //

dimensions      [0 0 0 0 0 0 0];

internalField   nonuniform List<scalar> 
25
(
1.80295e-18
4.41895e-19
8.11998e-20
1.50028e-20
1.96612e-21
4.89982e-22
8.55985e-23
2.47919e-23
6.4503e-24
1.39611e-24
4.71261e-25
1.85265e-25
8.25565e-26
4.07433e-26
2.14661e-26
9.8166e-27
5.60577e-27
2.92146e-27
1.30999e-27
7.7559e-28
4.12597e-28
1.78148e-28
8.28543e-29
3.57402e-29
1.38903e-29
)
;

boundaryField
{
    wall
    {
        type            zeroGradient;
    }
    fuel
    {
        type            fixedValue;
        value           nonuniform 0();
    }
    outlet
    {
        type            inletOutlet;
        inletValue      nonuniform 0();
        value           nonuniform 0();
    }
    procBoundary2to1
    {
        type            processor;
        value           uniform 8.32187e-18;
    }
    procBoundary2to3
    {
        type            processor;
        value           uniform 5.49687e-30;
    }
}


// ************************************************************************* //
