/*--------------------------------*- C++ -*----------------------------------*\
| =========                 |                                                 |
| \\      /  F ield         | OpenFOAM: The Open Source CFD Toolbox           |
|  \\    /   O peration     | Version:  dev                                   |
|   \\  /    A nd           | Web:      www.OpenFOAM.org                      |
|    \\/     M anipulation  |                                                 |
\*---------------------------------------------------------------------------*/
FoamFile
{
    version     2.0;
    format      ascii;
    class       volScalarField;
    location    "0.005";
    object      CH2O;
}
// * * * * * * * * * * * * * * * * * * * * * * * * * * * * * * * * * * * * * //

dimensions      [0 0 0 0 0 0 0];

internalField   nonuniform List<scalar> 
250
(
1.1994e-06
5.63086e-06
1.4518e-05
1.7346e-05
1.98349e-05
1.80966e-05
1.88356e-05
1.78812e-05
1.82713e-05
7.01327e-06
2.71925e-05
6.53699e-05
8.33186e-05
9.84584e-05
8.90485e-05
9.20543e-05
8.67865e-05
8.85065e-05
2.29669e-05
7.90436e-05
0.000204028
0.000303252
0.000385443
0.000344606
0.000351962
0.00032807
0.000332791
5.92103e-05
0.000186614
0.000616546
0.00111558
0.00142459
0.00130661
0.00131542
0.0012414
0.00124846
0.000135969
0.000472742
0.00158776
0.0023824
0.00121845
0.00150923
0.00152119
0.00179741
0.00179892
0.000264585
0.00090642
0.0019138
0.000710865
0.000381672
0.000466639
0.000473584
0.000549695
0.000553528
0.000406685
0.00124089
0.00080714
0.000228811
0.000154062
0.000176159
0.000178672
0.000195611
0.0001972
0.000534479
0.00148632
0.000340791
0.000103274
8.11949e-05
8.76367e-05
8.89197e-05
9.3037e-05
9.39241e-05
0.000606881
0.00137705
0.000177278
6.10933e-05
5.10366e-05
5.27495e-05
5.36711e-05
5.47234e-05
5.54268e-05
0.000597369
0.00104314
0.00011368
4.3724e-05
3.68407e-05
3.69199e-05
3.77162e-05
3.7996e-05
3.86518e-05
0.000530714
0.000740217
8.44335e-05
3.57629e-05
2.99892e-05
2.94846e-05
3.0216e-05
3.03075e-05
3.09373e-05
3.15517e-05
0.000439151
0.000521219
6.90932e-05
3.18631e-05
2.67932e-05
2.61008e-05
2.67731e-05
2.68143e-05
2.74079e-05
2.78212e-05
0.00034516
0.000370111
5.80466e-05
2.97547e-05
2.53701e-05
2.46624e-05
2.52691e-05
2.52879e-05
2.5831e-05
2.60337e-05
0.000261026
0.000265424
5.05526e-05
2.82881e-05
2.46768e-05
2.40506e-05
2.45879e-05
2.45956e-05
2.50775e-05
2.51549e-05
0.000191621
0.00019127
4.37729e-05
2.69532e-05
2.41094e-05
2.36327e-05
2.41021e-05
2.41144e-05
2.45272e-05
2.45509e-05
0.000137316
0.000136217
3.69295e-05
2.54492e-05
2.33166e-05
2.30385e-05
2.34467e-05
2.34813e-05
2.38201e-05
2.38296e-05
9.6587e-05
9.74882e-05
3.06947e-05
2.35648e-05
2.21186e-05
2.20637e-05
2.24196e-05
2.24901e-05
2.27522e-05
2.27652e-05
6.69585e-05
6.94907e-05
2.55627e-05
2.12818e-05
2.04751e-05
2.06388e-05
2.09518e-05
2.10654e-05
2.1249e-05
2.12718e-05
4.58935e-05
4.91871e-05
2.1291e-05
1.81831e-05
1.83992e-05
1.88401e-05
1.91184e-05
1.92803e-05
1.9386e-05
1.94216e-05
3.12525e-05
3.44651e-05
1.73153e-05
1.57003e-05
1.56761e-05
1.61838e-05
1.64057e-05
1.66716e-05
1.66335e-05
1.66913e-05
2.12158e-05
2.40957e-05
1.39951e-05
1.33758e-05
1.36798e-05
1.4171e-05
1.43821e-05
1.45121e-05
1.45851e-05
1.46445e-05
1.41071e-05
1.70188e-05
1.11798e-05
1.12648e-05
1.16467e-05
1.2129e-05
1.2306e-05
1.24872e-05
1.24958e-05
1.2541e-05
9.59381e-06
1.18079e-05
8.67549e-06
9.21066e-06
9.73174e-06
1.02891e-05
1.04503e-05
1.06231e-05
1.06104e-05
1.06663e-05
6.48667e-06
8.29982e-06
6.78489e-06
7.53355e-06
8.05948e-06
8.42428e-06
8.56601e-06
8.70733e-06
8.70049e-06
8.72765e-06
4.49089e-06
6.00299e-06
5.39871e-06
5.87883e-06
6.46554e-06
6.9274e-06
7.05666e-06
7.19723e-06
7.17872e-06
7.21091e-06
3.13974e-06
4.42265e-06
4.22367e-06
4.61899e-06
5.01298e-06
5.36145e-06
5.47489e-06
5.6055e-06
5.57956e-06
5.61238e-06
)
;

boundaryField
{
    fuel
    {
        type            fixedValue;
        value           uniform 0;
    }
    wall
    {
        type            zeroGradient;
    }
    outlet
    {
        type            zeroGradient;
    }
    frontAndBack
    {
        type            empty;
    }
    procBoundary2to0
    {
        type            processor;
        value           nonuniform List<scalar> 
12
(
7.21429e-06
2.21638e-06
3.31706e-06
3.32751e-06
3.56844e-06
3.84357e-06
4.13172e-06
4.25508e-06
4.35342e-06
4.34549e-06
5.59836e-06
4.36809e-06
)
;
    }
    procBoundary2to3
    {
        type            processor;
        value           nonuniform List<scalar> 
25
(
1.7941e-05
8.67005e-05
0.000324802
0.00122328
0.0018971
0.000578834
0.000202159
9.48887e-05
5.56565e-05
3.89981e-05
3.89981e-05
3.10071e-05
2.74818e-05
2.58996e-05
2.51341e-05
2.45721e-05
2.38585e-05
2.27898e-05
2.12894e-05
1.94324e-05
1.66962e-05
1.46465e-05
1.2537e-05
1.06433e-05
8.7364e-06
)
;
    }
}


// ************************************************************************* //
