/*--------------------------------*- C++ -*----------------------------------*\
| =========                 |                                                 |
| \\      /  F ield         | OpenFOAM: The Open Source CFD Toolbox           |
|  \\    /   O peration     | Version:  dev                                   |
|   \\  /    A nd           | Web:      www.OpenFOAM.org                      |
|    \\/     M anipulation  |                                                 |
\*---------------------------------------------------------------------------*/
FoamFile
{
    version     2.0;
    format      ascii;
    class       volScalarField;
    location    "0.005";
    object      CH3OH;
}
// * * * * * * * * * * * * * * * * * * * * * * * * * * * * * * * * * * * * * //

dimensions      [0 0 0 0 0 0 0];

internalField   nonuniform List<scalar> 
25
(
9.60385e-10
3.90162e-10
1.29657e-10
4.30226e-11
1.19017e-11
5.13479e-12
1.60488e-12
7.24076e-13
2.72359e-13
8.19733e-14
3.33742e-14
1.32486e-14
5.4403e-15
2.29222e-15
9.81595e-16
3.35733e-16
1.48574e-16
5.99169e-17
1.93031e-17
9.08948e-18
3.87467e-18
1.2508e-18
4.52303e-19
1.56331e-19
4.85557e-20
)
;

boundaryField
{
    wall
    {
        type            zeroGradient;
    }
    fuel
    {
        type            fixedValue;
        value           nonuniform 0();
    }
    outlet
    {
        type            inletOutlet;
        inletValue      nonuniform 0();
        value           nonuniform 0();
    }
    procBoundary2to1
    {
        type            processor;
        value           uniform 2.46649e-09;
    }
    procBoundary2to3
    {
        type            processor;
        value           uniform 1.53595e-20;
    }
}


// ************************************************************************* //
