/*--------------------------------*- C++ -*----------------------------------*\
| =========                 |                                                 |
| \\      /  F ield         | OpenFOAM: The Open Source CFD Toolbox           |
|  \\    /   O peration     | Version:  dev                                   |
|   \\  /    A nd           | Web:      www.OpenFOAM.org                      |
|    \\/     M anipulation  |                                                 |
\*---------------------------------------------------------------------------*/
FoamFile
{
    version     2.0;
    format      ascii;
    class       volScalarField;
    location    "0.005";
    object      CO2;
}
// * * * * * * * * * * * * * * * * * * * * * * * * * * * * * * * * * * * * * //

dimensions      [0 0 0 0 0 0 0];

internalField   nonuniform List<scalar> 
1997
(
0.0060227
0.00586468
0.00633208
0.00730971
0.00861733
0.0101475
0.0117567
0.0133406
0.0147722
0.0159941
0.01701
0.0177912
0.0184254
0.0188978
0.0192477
0.0195317
0.0197317
0.0198747
0.00564887
0.00549144
0.00592374
0.00684465
0.00807664
0.00952675
0.0110686
0.0125945
0.013987
0.0151803
0.0161868
0.0169571
0.0175922
0.0180641
0.0184129
0.0186981
0.018901
0.0190457
0.0191535
0.0192424
0.0193003
0.0193464
0.0193748
0.0193929
0.0194022
0.0194051
0.0193996
0.0193833
0.00528641
0.00513021
0.005529
0.00639417
0.00755065
0.0089267
0.0103948
0.0118602
0.0131964
0.0143774
0.0153587
0.0161236
0.0167533
0.0172237
0.0175717
0.0178572
0.0180611
0.0182071
0.0183153
0.0184045
0.0184629
0.0185095
0.0185381
0.0185563
0.0185658
0.0185688
0.0185631
0.0185468
0.0185197
0.0184789
0.0184147
0.0183321
0.0182144
0.018061
0.0178507
0.0175605
0.0172061
0.016736
0.0161066
0.0153306
0.00493572
0.00477914
0.00514811
0.00594941
0.0070424
0.00834189
0.0097367
0.0111402
0.0124117
0.0135716
0.014537
0.0152927
0.0159113
0.0163808
0.016727
0.017011
0.0172145
0.0173616
0.0174697
0.0175592
0.0176176
0.0176644
0.0176931
0.0177113
0.0177209
0.0177239
0.0177183
0.0177018
0.0176745
0.0176335
0.0175692
0.0174859
0.0173679
0.0172135
0.017005
0.0167163
0.0163616
0.0158939
0.0152724
0.0145117
0.0135387
0.0123972
0.0111143
0.00971097
0.00831831
0.00702102
0.00593478
0.00513505
0.00476798
0.00492292
0.00459538
0.00444251
0.00478097
0.00552935
0.00655097
0.00777552
0.00909633
0.0104349
0.0116539
0.0127587
0.0137202
0.014465
0.0150726
0.0155392
0.0158794
0.0161621
0.0163654
0.0165122
0.0166196
0.0167091
0.0167674
0.016814
0.0168427
0.0168609
0.0168706
0.0168736
0.016868
0.0168515
0.0168239
0.0167829
0.016719
0.0166353
0.0165175
0.0163629
0.0161571
0.0158694
0.0155178
0.0150557
0.0144429
0.0136938
0.0127326
0.0116397
0.0104092
0.00907118
0.00775283
0.00653059
0.00551349
0.00476839
0.00443156
0.00458487
0.00426948
0.00411864
0.00442835
0.00512338
0.00607632
0.00722822
0.00847497
0.0097491
0.0109206
0.011972
0.0128835
0.0136354
0.0142413
0.0147008
0.0150345
0.0153136
0.0155154
0.0156612
0.0157684
0.0158571
0.015915
0.0159612
0.01599
0.0160081
0.0160177
0.0160207
0.0160151
0.0159988
0.0159712
0.0159299
0.0158667
0.0157829
0.0156657
0.0155127
0.0153081
0.0150244
0.0146787
0.0142251
0.0136101
0.0128575
0.0119477
0.0109023
0.00972412
0.00845053
0.00720629
0.00605479
0.00510814
0.00441593
0.00410782
0.00425938
0.00395651
0.00380782
0.00409017
0.00473416
0.00562314
0.00670099
0.00787387
0.00908204
0.0101963
0.0112102
0.012081
0.0127902
0.0133936
0.0138657
0.0141966
0.0144688
0.014669
0.014812
0.0149184
0.0150059
0.0150636
0.0151091
0.0151382
0.015156
0.0151656
0.0151686
0.0151631
0.0151471
0.0151194
0.0150777
0.0150154
0.0149316
0.0148165
0.0146645
0.0144629
0.0141866
0.0138433
0.0133778
0.0127633
0.0120556
0.0111869
0.0101762
0.00905735
0.00785022
0.00667987
0.00560209
0.0047189
0.00407802
0.00379729
0.00394678
0.00365671
0.00351034
0.0037668
0.00436099
0.00518661
0.00619469
0.00729425
0.00843639
0.00949713
0.0104664
0.0113052
0.0119859
0.0125374
0.0130015
0.0133421
0.0136236
0.0138268
0.0139681
0.0140727
0.0141582
0.0142168
0.0142611
0.0142913
0.0143088
0.0143181
0.014321
0.0143156
0.0143001
0.0142727
0.0142302
0.0141672
0.0140846
0.0139726
0.0138214
0.0136162
0.0133306
0.0129783
0.0125225
0.0119575
0.0112806
0.0104435
0.00947614
0.00841212
0.00727147
0.00617446
0.00516937
0.00434608
0.00375499
0.00350015
0.00364736
0.00337031
0.00322646
0.0034586
0.0040097
0.00476901
0.00570999
0.00673727
0.00781387
0.00881471
0.00974294
0.0105475
0.0112032
0.0117395
0.0121835
0.0124866
0.0127477
0.0129476
0.0130909
0.0131963
0.0132835
0.0133522
0.0133979
0.0134321
0.0134503
0.01346
0.013463
0.0134574
0.0134413
0.0134123
0.0133657
0.0132924
0.0132077
0.0130941
0.0129416
0.0127406
0.0124753
0.0121602
0.0117225
0.0111763
0.0105237
0.00972059
0.00879237
0.00778937
0.00671534
0.00569068
0.00475171
0.00399561
0.00344718
0.00321664
0.00336137
0.0030975
0.00295629
0.00316557
0.0036753
0.00437192
0.00524522
0.00620375
0.00721182
0.0081567
0.00904143
0.00980985
0.0104393
0.0109597
0.0113831
0.011687
0.0119352
0.0121256
0.0122656
0.0123674
0.0124518
0.0124978
0.0125418
0.0125649
0.0125824
0.0125917
0.0125946
0.0125893
0.0125738
0.0125455
0.0125103
0.0124602
0.0123778
0.0122676
0.0121195
0.0119281
0.0116739
0.0113621
0.0109416
0.0104133
0.009787
0.00901975
0.00813449
0.00719059
0.00618279
0.00522742
0.00435515
0.00366198
0.00315459
0.00294692
0.00308898
0.00283839
0.00270011
0.00288769
0.00335791
0.00399623
0.00480412
0.00569444
0.00663803
0.00752105
0.0083594
0.00909369
0.00969728
0.010195
0.0106029
0.0109004
0.0111367
0.0113222
0.011458
0.0115558
0.0116375
0.0116892
0.0117319
0.0117559
0.0117729
0.0117818
0.0117847
0.0117795
0.0117646
0.0117368
0.0117011
0.0116452
0.0115656
0.0114589
0.0113159
0.0111295
0.0108873
0.0105835
0.0101758
0.00967216
0.00907186
0.00833762
0.00749938
0.00661684
0.00567449
0.00478712
0.0039804
0.00334537
0.0028772
0.00269113
0.00283033
0.00259305
0.00245676
0.00262081
0.00305769
0.00364174
0.00438532
0.0052099
0.00608959
0.00691605
0.00770755
0.00839724
0.00897913
0.00945514
0.00984589
0.010132
0.0103608
0.0105394
0.01067
0.0107637
0.0108422
0.0108942
0.0109354
0.0109602
0.0109766
0.0109853
0.010988
0.010983
0.0109688
0.0109416
0.0109053
0.0108494
0.0107727
0.0106698
0.0105322
0.0103541
0.0101195
0.00982639
0.00943682
0.00895472
0.00837642
0.00768529
0.00689538
0.00606926
0.00519098
0.00436913
0.00362701
0.00304571
0.00261086
0.00244824
0.00258548
0.00236048
0.00222775
0.00237231
0.00277504
0.00330792
0.00398944
0.00475044
0.00556601
0.00633723
0.00706988
0.00773267
0.00827938
0.00873951
0.00911234
0.00938515
0.00960701
0.00977823
0.00990373
0.00999294
0.0100682
0.0101188
0.0101585
0.010183
0.010199
0.0102074
0.01021
0.0102052
0.0101916
0.0101651
0.0101293
0.0100746
0.0100006
0.0099031
0.00977072
0.0096004
0.0093728
0.0090932
0.0087225
0.00825586
0.00771264
0.00705193
0.00631764
0.00554711
0.00473266
0.00397413
0.00329433
0.00276374
0.00236265
0.00221973
0.00235307
0.00213922
0.0020134
0.00213841
0.00250624
0.00299416
0.00361675
0.00431654
0.00507089
0.0057855
0.00647567
0.00708255
0.0076042
0.00804909
0.00839923
0.00866529
0.00887703
0.0090403
0.00915933
0.00924515
0.00931701
0.00936627
0.00940463
0.00942841
0.00944403
0.0094521
0.00945463
0.00945
0.00943709
0.00941112
0.00937597
0.00932282
0.0092518
0.00915821
0.00903296
0.00887021
0.00865393
0.00838036
0.00803242
0.00758141
0.00706339
0.00645801
0.00576691
0.00505309
0.00429983
0.00360238
0.00298167
0.00249552
0.00212937
0.00200589
0.00213234
0.0019315
0.00181333
0.00191886
0.00225601
0.00269979
0.00326722
0.0039082
0.00460344
0.00526105
0.00590915
0.00647877
0.00695793
0.00736689
0.00771245
0.00797302
0.00817233
0.00832607
0.00843879
0.00852175
0.00859153
0.00863967
0.00867676
0.00869961
0.00871484
0.00872259
0.00872502
0.00872058
0.00870831
0.00868304
0.00864885
0.0085966
0.00852764
0.00843707
0.00831874
0.00816634
0.00796211
0.00769474
0.00735017
0.00693663
0.00646104
0.00589206
0.0052435
0.00458668
0.00389256
0.00325381
0.00268808
0.00224612
0.00191056
0.00180639
0.00192513
0.0017391
0.00162694
0.00171402
0.00202353
0.00242143
0.00294067
0.00352531
0.0041638
0.00476452
0.00537205
0.00590236
0.00634824
0.00673342
0.00705285
0.00728211
0.00747629
0.00762953
0.00774187
0.00782854
0.00789668
0.00794332
0.00797834
0.00800013
0.00801431
0.00802167
0.00802399
0.00801976
0.00800818
0.00798437
0.00795186
0.00790143
0.00783369
0.00774019
0.00762235
0.00747005
0.00727263
0.00703668
0.0067173
0.00632869
0.00588601
0.00535614
0.00474785
0.00414807
0.00351074
0.00292819
0.00241055
0.0020144
0.00170636
0.00162056
0.00173321
0.00156205
0.00145447
0.0015255
0.00180631
0.00216274
0.00263697
0.00316755
0.00375211
0.00430421
0.00485739
0.00535604
0.00576978
0.00613154
0.00642821
0.0066468
0.00682841
0.00697034
0.00707642
0.00714502
0.00720409
0.00724607
0.00727808
0.00729952
0.00731205
0.00731927
0.0073216
0.00731739
0.00730617
0.00728411
0.00725426
0.00720859
0.00714995
0.0070744
0.00696354
0.00682276
0.00663874
0.00641338
0.00611665
0.00575174
0.00534095
0.00484235
0.00428899
0.00373741
0.003154
0.00262536
0.00215276
0.00179776
0.00151854
0.00144863
0.00155668
0.0013958
0.00129552
0.00135346
0.00160338
0.00192278
0.00235452
0.00283435
0.00336809
0.00387196
0.00437966
0.00483484
0.00522429
0.00555555
0.00583525
0.00604463
0.00621223
0.00634441
0.00644326
0.00651264
0.00656938
0.0066086
0.00663804
0.00665826
0.00666939
0.00667612
0.00667833
0.00667434
0.00666395
0.00664374
0.0066162
0.00657352
0.00651697
0.00644143
0.00633809
0.00620744
0.00603689
0.00582168
0.00554085
0.00520789
0.00482107
0.00436582
0.00385777
0.00335439
0.00282179
0.00234377
0.00191372
0.00159533
0.00134724
0.00129022
0.0013909
0.00124238
0.00114961
0.00119775
0.00141411
0.00170057
0.00209489
0.00252496
0.00301138
0.00346744
0.00393295
0.00435022
0.00470799
0.00501596
0.00527669
0.00546898
0.00562745
0.00575092
0.00584276
0.0059093
0.00596333
0.00600089
0.00602858
0.00604766
0.00605811
0.00606433
0.00606643
0.00606266
0.00605307
0.00603399
0.00600787
0.00596727
0.00591327
0.00584109
0.0057453
0.00562251
0.00546132
0.00526445
0.00500203
0.00469347
0.00433773
0.00392043
0.00345415
0.00299866
0.0025133
0.00208499
0.00169239
0.00140659
0.00119224
0.00114481
0.00123794
0.00110127
0.00101611
0.00105853
0.00123757
0.00149646
0.00185636
0.00223845
0.00268152
0.00309041
0.0035167
0.00389648
0.00422648
0.00451132
0.00474851
0.00493198
0.0050767
0.00519089
0.00527632
0.00533879
0.00538942
0.00542494
0.00545099
0.00546894
0.0054789
0.00548465
0.00548664
0.00548308
0.00547424
0.00545624
0.00543125
0.00539301
0.00534221
0.00527479
0.00518618
0.00507193
0.00492449
0.00473707
0.00449872
0.00421382
0.00388518
0.00350547
0.00307802
0.00266977
0.00222758
0.00184697
0.00148946
0.00123067
0.00105361
0.0010118
0.00109725
0.000971985
0.0008943
0.000930342
0.0010783
0.00131337
0.00163464
0.00197322
0.00237792
0.00274045
0.00313058
0.00347422
0.00377813
0.0040382
0.00425669
0.00442594
0.0045596
0.00466472
0.00474407
0.00480211
0.00484921
0.00488236
0.00490668
0.00492344
0.00493282
0.00493814
0.00494002
0.00493667
0.00492856
0.00491171
0.00488807
0.00485241
0.00480487
0.00474283
0.00466095
0.00455528
0.00441845
0.00424609
0.00402661
0.00376722
0.00346393
0.00312055
0.00272898
0.00236711
0.00196311
0.00162577
0.00130752
0.00107213
0.000925881
0.000890429
0.000968367
0.000853993
0.000783555
0.000813285
0.000934854
0.00115133
0.00142841
0.00172928
0.002098
0.00241678
0.00277421
0.00308211
0.00336299
0.00359704
0.00379794
0.00395379
0.00407666
0.00417236
0.0042459
0.00429958
0.00434315
0.00437379
0.00439638
0.00441188
0.00442057
0.00442552
0.00442728
0.00442416
0.00441672
0.00440112
0.00437892
0.00434604
0.00430179
0.00424493
0.00416927
0.00407265
0.00394621
0.00378798
0.00358703
0.00335354
0.00307273
0.00276527
0.00240627
0.00208796
0.00171987
0.0014207
0.00114593
0.000929346
0.000809262
0.000780101
0.000850757
0.00074674
0.000683314
0.000707311
0.000806713
0.00100116
0.00124444
0.00150577
0.00184145
0.00211597
0.00244696
0.00272253
0.00297661
0.00318817
0.00337308
0.0035145
0.00362698
0.00371423
0.00378158
0.00383124
0.00387108
0.0038994
0.00392017
0.00393446
0.00394242
0.00394703
0.00394867
0.00394577
0.00393896
0.00392466
0.00390394
0.0038736
0.00383306
0.00378072
0.00371181
0.00362315
0.00350621
0.00336487
0.00317946
0.00296833
0.00271407
0.00243901
0.00210624
0.00183232
0.0014971
0.00123782
0.000996088
0.000801897
0.00070373
0.00068025
0.000743863
0.000649639
0.000593007
0.00061256
0.000694165
0.000862014
0.00108124
0.00130452
0.00160633
0.00183656
0.00214709
0.00239058
0.00262384
0.00281116
0.00297953
0.00310734
0.00321126
0.00328895
0.00335114
0.00339649
0.00343297
0.00345894
0.00347798
0.00349103
0.00349827
0.00350255
0.00350407
0.00350139
0.00349518
0.00348218
0.00346293
0.0034352
0.00339811
0.00335039
0.00328732
0.00320724
0.00309927
0.00297246
0.0028034
0.00261647
0.00238302
0.00213968
0.00182793
0.00159796
0.00129674
0.00107544
0.000857372
0.000690042
0.000609434
0.000590309
0.000647098
0.000562089
0.000512007
0.000527983
0.000596257
0.000737
0.000934386
0.00112589
0.00139084
0.00158517
0.00186576
0.00208811
0.00229852
0.00246379
0.00261917
0.00273336
0.00282743
0.00289665
0.00295386
0.00299498
0.00302837
0.00305197
0.0030694
0.00308127
0.0030878
0.00309175
0.00309317
0.00309069
0.00308506
0.00307332
0.00305557
0.00303013
0.0029964
0.00295334
0.00289544
0.00282361
0.00272564
0.00261304
0.00245756
0.00229105
0.0020808
0.00185901
0.00157752
0.00138324
0.00111902
0.000929111
0.000732917
0.000592759
0.000525245
0.000509647
0.000559859
0.000485338
0.000440091
0.000452527
0.000510811
0.000624951
0.000801917
0.000968564
0.00119305
0.00136338
0.00160985
0.00181077
0.00199221
0.0021483
0.0022898
0.00239089
0.00247505
0.0025367
0.00258909
0.00262638
0.0026567
0.00267816
0.00269395
0.00270472
0.00271057
0.00271419
0.00271549
0.00271323
0.00270816
0.00269761
0.00268134
0.00265836
0.0026277
0.00258847
0.0025358
0.00247133
0.00238374
0.00228439
0.00214346
0.0019867
0.00180425
0.00160398
0.00135656
0.00118624
0.000962585
0.000797059
0.000621413
0.000507874
0.000450163
0.000438033
0.000483388
0.000416757
0.000375881
0.000385786
0.000436476
0.00052726
0.000683477
0.000825243
0.00102069
0.00116603
0.00137967
0.00155684
0.00171873
0.00185217
0.00198025
0.00207289
0.00215211
0.0022091
0.0022565
0.00229041
0.00231757
0.002337
0.00235112
0.00236076
0.00236595
0.00236922
0.00237041
0.00236836
0.00236384
0.00235445
0.00233983
0.00231918
0.00229152
0.00225596
0.00220829
0.00214886
0.00206699
0.00197436
0.00184766
0.00171241
0.00155099
0.00137483
0.00116001
0.00101445
0.000820156
0.000679093
0.000524294
0.000433989
0.000383761
0.000374101
0.000415063
0.000354671
0.000319428
0.000326927
0.000369876
0.000445344
0.000577597
0.000697016
0.000866431
0.000995439
0.00117368
0.0013297
0.0014674
0.0015924
0.00169679
0.00177587
0.00184676
0.00189903
0.00194208
0.00197363
0.00199887
0.00201708
0.0020304
0.00203955
0.00204437
0.00204748
0.00204862
0.00204665
0.00204243
0.0020336
0.00201967
0.0020004
0.00197463
0.00194143
0.00189816
0.00184395
0.00177111
0.00169264
0.00158945
0.00146041
0.00132398
0.00116984
0.000990291
0.000860899
0.000692579
0.000573834
0.000442815
0.000367766
0.000325201
0.000317895
0.000353204
0.000301013
0.000269657
0.000275383
0.000310873
0.00037691
0.00048342
0.000585023
0.000730369
0.000841001
0.000995729
0.00112801
0.00124281
0.0013544
0.00145177
0.00152084
0.00157521
0.00161929
0.0016553
0.00168225
0.00170604
0.00172142
0.00173391
0.00174197
0.00174613
0.00174886
0.00174987
0.00174813
0.0017445
0.00173677
0.00172366
0.00170686
0.00168302
0.00165459
0.00161846
0.0015729
0.00151678
0.00144733
0.00135283
0.00123783
0.00112208
0.000992764
0.000836396
0.000725839
0.000581102
0.000480186
0.000374811
0.000309094
0.00027393
0.000268347
0.000299753
0.000253258
0.000226047
0.000230398
0.000259751
0.000316076
0.000403369
0.000488054
0.000612425
0.000707335
0.000836999
0.000949491
0.00104827
0.00114115
0.00122614
0.00128976
0.00134073
0.00138026
0.00141154
0.00143494
0.00145107
0.00146422
0.00147226
0.00147938
0.00148296
0.00148535
0.00148625
0.00148472
0.00148159
0.00147484
0.00146613
0.00145158
0.00143557
0.00141079
0.00137959
0.00133885
0.00128581
0.00122114
0.00114036
0.00104394
0.000944682
0.000834675
0.000703197
0.000608549
0.000484673
0.000400527
0.000314374
0.000258302
0.000229165
0.000224942
0.000252176
0.000212184
0.0001885
0.000191397
0.000215665
0.000262068
0.000335105
0.000405916
0.000507476
0.000590008
0.000702066
0.000797073
0.000876848
0.000957133
0.00102525
0.00107825
0.00112348
0.00115969
0.00118923
0.00121114
0.00122735
0.00123925
0.00124719
0.00125355
0.00125668
0.00125881
0.00125961
0.00125825
0.00125551
0.00124952
0.00124098
0.00122803
0.00121213
0.00118845
0.00116032
0.00112213
0.00107456
0.00102115
0.000953782
0.000872997
0.000793537
0.000700133
0.000586326
0.000504143
0.000403062
0.000332425
0.000260864
0.000214505
0.000190373
0.000187572
0.000211272
0.000176366
0.000155849
0.00015785
0.000177941
0.000215925
0.000275929
0.000334109
0.000418963
0.000487401
0.000582642
0.000664993
0.000733709
0.000800747
0.000857581
0.00090062
0.000936362
0.000966599
0.000988061
0.00100662
0.00102058
0.00103099
0.00103823
0.0010438
0.00104648
0.00104834
0.00104904
0.00104786
0.00104551
0.0010403
0.00103249
0.00102132
0.0010075
0.000987349
0.000963872
0.000935213
0.00089862
0.000854818
0.000798572
0.000730423
0.000662115
0.00058103
0.000484222
0.00041622
0.00033171
0.000273665
0.000214891
0.000177003
0.000157003
0.000155071
0.000175589
0.000145082
0.000127829
0.000129172
0.000146163
0.000175756
0.00022558
0.000272417
0.000342885
0.000401329
0.000478147
0.000548554
0.000608213
0.000665493
0.000713475
0.000749644
0.00077973
0.000805066
0.000824094
0.000839602
0.000851324
0.000860073
0.000866162
0.000870878
0.000873091
0.000874662
0.00087522
0.000874257
0.000872333
0.000867895
0.000861294
0.000851884
0.000840309
0.000823389
0.000803766
0.000778754
0.000747901
0.000711229
0.000663529
0.000605272
0.000545971
0.000476683
0.000398712
0.000340587
0.000270482
0.000223757
0.000174829
0.000145388
0.000128473
0.000127185
0.000144438
0.000118425
0.000103985
0.00010478
0.000118991
0.000141943
0.000182737
0.000220783
0.000279303
0.00032746
0.000390284
0.000447478
0.000497761
0.000545906
0.000587151
0.00061878
0.00064474
0.000666618
0.000682846
0.000695867
0.000705756
0.000713114
0.000718192
0.000722189
0.000724025
0.00072535
0.000725792
0.000725009
0.000723433
0.000719657
0.000714116
0.000706192
0.000696488
0.000682117
0.000665524
0.000643921
0.0006172
0.000585217
0.000544007
0.000495523
0.000445247
0.000388889
0.00032523
0.000277433
0.000219223
0.0001813
0.000141141
0.000118351
0.000104205
0.000103457
0.000117893
9.58985e-05
8.38416e-05
8.41497e-05
9.60149e-05
0.000114268
0.000145934
0.000178606
0.000224839
0.000264285
0.000317178
0.000362204
0.000403239
0.000441923
0.000477154
0.000503794
0.000525473
0.000544112
0.00055781
0.000568749
0.000577165
0.000583392
0.000587657
0.000591088
0.000592634
0.000593772
0.000594116
0.000593495
0.000592196
0.000588957
0.000584244
0.000577537
0.000569347
0.000557073
0.000543071
0.000524881
0.000502276
0.00047544
0.000440338
0.000401753
0.000360557
0.000316015
0.00026237
0.000223297
0.000177341
0.000144834
0.000113587
9.54913e-05
8.36789e-05
8.3415e-05
9.54658e-05
7.7027e-05
6.71762e-05
6.68781e-05
7.6747e-05
9.08644e-05
0.000116196
0.000142486
0.000179127
0.000211741
0.000254171
0.000292413
0.000326709
0.000358213
0.00038459
0.000405491
0.000422842
0.000437965
0.000448986
0.000457896
0.000464788
0.000469907
0.000473379
0.000476211
0.000477461
0.000478407
0.000478687
0.000478185
0.00047715
0.000474449
0.000470603
0.000465093
0.000458402
0.000448352
0.000436992
0.000422418
0.000404337
0.000383483
0.000356993
0.000325744
0.000290958
0.000253179
0.000210186
0.000177727
0.000141604
0.00011533
9.03046e-05
7.63162e-05
6.65014e-05
6.68348e-05
7.67005e-05
6.16843e-05
5.32582e-05
5.25952e-05
6.06114e-05
7.16317e-05
9.14176e-05
0.000113104
0.000141342
0.00016724
0.000202137
0.0002315
0.00026083
0.000286782
0.000310157
0.000327379
0.000341468
0.000354045
0.000362984
0.000370248
0.000375875
0.000380053
0.000382861
0.000385167
0.000386163
0.000386936
0.000387169
0.000386751
0.000385931
0.000383699
0.0003806
0.000376102
0.000370664
0.000362448
0.000353121
0.000341251
0.000326425
0.000309043
0.000285726
0.00026025
0.000230557
0.000201214
0.000165898
0.000140359
0.00011238
9.06813e-05
7.12335e-05
6.02642e-05
5.23011e-05
5.29879e-05
6.14287e-05
4.86673e-05
4.17361e-05
4.09349e-05
4.71362e-05
5.62361e-05
7.10995e-05
8.84817e-05
0.000111159
0.000131211
0.000158506
0.000181361
0.000205367
0.000225883
0.000244869
0.000259024
0.000270728
0.00028159
0.000289047
0.000295246
0.00030003
0.000303655
0.000306037
0.000308043
0.000308879
0.000309562
0.000309784
0.000309409
0.000308727
0.000306757
0.000304126
0.000300231
0.000295612
0.000288583
0.000280704
0.000270715
0.000258196
0.000243923
0.000225052
0.000204973
0.000180517
0.000157814
0.000130223
0.000110456
8.78699e-05
7.05851e-05
5.59006e-05
4.68676e-05
4.07133e-05
4.15309e-05
4.84678e-05
3.79435e-05
3.23651e-05
3.15479e-05
3.6243e-05
4.33101e-05
5.53708e-05
6.81059e-05
8.62611e-05
0.000102663
0.000123666
0.000141608
0.000159824
0.000175899
0.000190486
0.000202014
0.000211659
0.000220494
0.000226248
0.000231252
0.000234959
0.000237883
0.000239732
0.000241327
0.000241969
0.000242519
0.000242704
0.0002424
0.000241873
0.000240294
0.000238244
0.000235121
0.00023154
0.000225884
0.000219787
0.000211616
0.000201387
0.000189807
0.000175144
0.00015954
0.000141162
0.000123181
0.000101998
8.57501e-05
6.76534e-05
5.5011e-05
4.30472e-05
3.60479e-05
3.13892e-05
3.22165e-05
3.77973e-05
2.92587e-05
2.48265e-05
2.4076e-05
2.7563e-05
3.29076e-05
4.2477e-05
5.22305e-05
6.61268e-05
7.89279e-05
9.57055e-05
0.000110469
0.00012445
0.000137091
0.000148595
0.000157437
0.000164122
0.000170763
0.000175109
0.000179021
0.000181813
0.000184124
0.000185533
0.00018677
0.000187252
0.000187696
0.000187849
0.000187606
0.000187198
0.000185976
0.000184395
0.000181945
0.000179199
0.000174844
0.000170233
0.000164057
0.000156981
0.000147979
0.000136513
0.00012425
0.00011013
9.53474e-05
7.85126e-05
6.57917e-05
5.19366e-05
4.22248e-05
3.27322e-05
2.74332e-05
2.39721e-05
2.4728e-05
2.91619e-05
2.23068e-05
1.88318e-05
1.81963e-05
2.07233e-05
2.47406e-05
3.19754e-05
3.95752e-05
5.02992e-05
5.97742e-05
7.33132e-05
8.44222e-05
9.54283e-05
0.00010593
0.000115144
0.000122446
0.00012782
0.000133042
0.000136397
0.000139436
0.000141605
0.000143441
0.000144566
0.00014552
0.000145887
0.000146273
0.000146397
0.000146201
0.000145856
0.000144913
0.000143646
0.000141711
0.000139548
0.000136185
0.000132645
0.000127755
0.000122124
0.000114633
0.00010544
9.53187e-05
8.42255e-05
7.31387e-05
5.95877e-05
5.01209e-05
3.94165e-05
3.18331e-05
2.46463e-05
2.06537e-05
1.81418e-05
1.87794e-05
2.2257e-05
1.68112e-05
1.41236e-05
1.36377e-05
1.53987e-05
1.83986e-05
2.37952e-05
2.95006e-05
3.77395e-05
4.49474e-05
5.51767e-05
6.42031e-05
)
;

boundaryField
{
    fuel
    {
        type            fixedValue;
        value           nonuniform 0();
    }
    wall
    {
        type            zeroGradient;
    }
    outlet
    {
        type            zeroGradient;
    }
    frontAndBack
    {
        type            empty;
    }
    procBoundary2to0
    {
        type            processor;
        value           nonuniform List<scalar> 
53
(
0.00640822
0.00624738
0.00675031
0.00778763
0.00917122
0.0107756
0.0124558
0.0141006
0.0155617
0.016806
0.017832
0.0186179
0.0192513
0.0197213
0.02007
0.020353
0.0205486
0.0206892
0.0199793
0.0199793
0.0200675
0.0201246
0.0201701
0.0201981
0.0202159
0.020225
0.0202278
0.0202223
0.0202063
0.0193542
0.0193542
0.0193133
0.0192498
0.0191675
0.0190514
0.0188983
0.0186904
0.0183975
0.0180445
0.0175708
0.0169375
0.0161567
0.0143378
0.0143378
0.0131643
0.0118308
0.0103661
0.00890207
0.00752668
0.00637179
0.00551446
0.00511607
0.00527276
)
;
    }
    procBoundary2to3
    {
        type            processor;
        value           nonuniform List<scalar> 
51
(
7.28353e-05
8.1019e-05
8.72386e-05
9.27832e-05
9.71727e-05
0.000101273
0.000104026
0.000106493
0.000108237
0.000109929
0.000110951
0.000111747
0.000112041
0.000112449
0.00011256
0.000112393
0.000112042
0.00011125
0.000110108
0.000108332
0.000106578
0.000103869
0.00010101
9.71169e-05
9.25638e-05
8.69011e-05
8.06383e-05
7.27849e-05
6.40934e-05
5.50782e-05
4.48779e-05
3.7602e-05
2.93946e-05
2.36996e-05
1.83345e-05
1.53513e-05
1.35995e-05
1.4088e-05
1.6779e-05
1.25021e-05
1.04508e-05
1.005e-05
1.13814e-05
1.34948e-05
1.74651e-05
2.16904e-05
2.78343e-05
3.32385e-05
4.11379e-05
7.28353e-05
4.75873e-05
)
;
    }
}


// ************************************************************************* //
