/*--------------------------------*- C++ -*----------------------------------*\
| =========                 |                                                 |
| \\      /  F ield         | OpenFOAM: The Open Source CFD Toolbox           |
|  \\    /   O peration     | Version:  dev                                   |
|   \\  /    A nd           | Web:      www.OpenFOAM.org                      |
|    \\/     M anipulation  |                                                 |
\*---------------------------------------------------------------------------*/
FoamFile
{
    version     2.0;
    format      ascii;
    class       volScalarField;
    location    "0.005";
    object      H;
}
// * * * * * * * * * * * * * * * * * * * * * * * * * * * * * * * * * * * * * //

dimensions      [0 0 0 0 0 0 0];

internalField   nonuniform List<scalar> 
250
(
9.46355e-19
4.87626e-17
2.56364e-15
5.89582e-14
2.16593e-13
1.48048e-13
1.49577e-13
1.12451e-13
1.1357e-13
1.31226e-16
9.1363e-15
6.44336e-13
1.60748e-11
5.87387e-11
4.05758e-11
4.08077e-11
3.08469e-11
3.10721e-11
1.3647e-14
1.21163e-12
1.09592e-10
2.96142e-09
1.04872e-08
7.43844e-09
7.42245e-09
5.69426e-09
5.70809e-09
1.24094e-12
1.11831e-10
1.19913e-08
3.37067e-07
1.08899e-06
8.12182e-07
8.03965e-07
6.3582e-07
6.33806e-07
7.71705e-11
8.30838e-09
7.43685e-07
1.82157e-05
4.23648e-05
3.63871e-05
3.56672e-05
3.08126e-05
3.0489e-05
1.65641e-09
1.80603e-07
1.67729e-05
5.69927e-05
7.87271e-05
7.46898e-05
7.28158e-05
6.91558e-05
6.79613e-05
6.85414e-09
6.05596e-07
3.13544e-05
7.63006e-05
8.93222e-05
9.11247e-05
8.90853e-05
8.85551e-05
8.69672e-05
2.60853e-08
1.81775e-06
3.49694e-05
7.03795e-05
7.69059e-05
8.08646e-05
7.9433e-05
8.02742e-05
7.90174e-05
7.58076e-08
4.26567e-06
3.20644e-05
5.52232e-05
5.91432e-05
6.26419e-05
6.17883e-05
6.26392e-05
6.18017e-05
1.44071e-07
6.16937e-06
2.65493e-05
4.14204e-05
4.40858e-05
4.66612e-05
4.62017e-05
4.68456e-05
4.63169e-05
2.15008e-07
6.68909e-06
2.11154e-05
3.11542e-05
3.31358e-05
3.50159e-05
3.47825e-05
3.52777e-05
3.49308e-05
3.53916e-05
2.7139e-07
6.41218e-06
1.68697e-05
2.38281e-05
2.54558e-05
2.68934e-05
2.67737e-05
2.71686e-05
2.6917e-05
2.71889e-05
3.05533e-07
5.83468e-06
1.31778e-05
1.8553e-05
1.99708e-05
2.11162e-05
2.10494e-05
2.13691e-05
2.11697e-05
2.12879e-05
3.26393e-07
5.22133e-06
1.06771e-05
1.46327e-05
1.59168e-05
1.68474e-05
1.68046e-05
1.70669e-05
1.6899e-05
1.69476e-05
3.42548e-07
4.66166e-06
8.76737e-06
1.17796e-05
1.28751e-05
1.36252e-05
1.35982e-05
1.38132e-05
1.36723e-05
1.37037e-05
3.58351e-07
4.17204e-06
7.28976e-06
9.68925e-06
1.05891e-05
1.1184e-05
1.11719e-05
1.13447e-05
1.12318e-05
1.12595e-05
3.76511e-07
3.7862e-06
6.25667e-06
8.14285e-06
8.87207e-06
9.33798e-06
9.3389e-06
9.47444e-06
9.3876e-06
9.41198e-06
3.97944e-07
3.48129e-06
5.55162e-06
6.99985e-06
7.58159e-06
7.94412e-06
7.95451e-06
8.05969e-06
7.99349e-06
8.01344e-06
4.22119e-07
3.23347e-06
5.04948e-06
5.98301e-06
6.58101e-06
6.89995e-06
6.91602e-06
7.00134e-06
6.94786e-06
6.96443e-06
4.48619e-07
3.02545e-06
4.63575e-06
5.37952e-06
5.68988e-06
5.9164e-06
5.93046e-06
6.01704e-06
5.95448e-06
5.97013e-06
4.76945e-07
2.84973e-06
4.30502e-06
4.93133e-06
5.2026e-06
5.36399e-06
5.38355e-06
5.41592e-06
5.40436e-06
5.41647e-06
5.09694e-07
2.6975e-06
4.01709e-06
4.5665e-06
4.789e-06
4.91762e-06
4.93685e-06
4.97424e-06
4.95796e-06
4.96527e-06
5.38722e-07
2.5459e-06
3.7328e-06
4.22323e-06
4.43168e-06
4.55943e-06
4.58082e-06
4.61287e-06
4.5994e-06
4.6077e-06
5.65612e-07
2.39985e-06
3.47838e-06
3.93283e-06
4.12168e-06
4.20764e-06
4.23091e-06
4.25605e-06
4.24859e-06
4.25137e-06
5.85685e-07
2.2571e-06
3.25088e-06
3.61639e-06
3.80893e-06
3.91459e-06
3.94059e-06
3.96639e-06
3.95965e-06
3.96349e-06
5.94717e-07
2.1037e-06
3.00404e-06
3.32891e-06
3.48481e-06
3.57401e-06
3.60372e-06
3.63038e-06
3.62426e-06
3.62884e-06
)
;

boundaryField
{
    fuel
    {
        type            fixedValue;
        value           uniform 0;
    }
    wall
    {
        type            zeroGradient;
    }
    outlet
    {
        type            zeroGradient;
    }
    frontAndBack
    {
        type            empty;
    }
    procBoundary2to0
    {
        type            processor;
        value           nonuniform List<scalar> 
12
(
3.96555e-06
5.8874e-07
1.94118e-06
2.75967e-06
3.0267e-06
3.16243e-06
3.25221e-06
3.29314e-06
3.31689e-06
3.31594e-06
3.62762e-06
3.3191e-06
)
;
    }
    procBoundary2to3
    {
        type            processor;
        value           nonuniform List<scalar> 
25
(
1.02824e-13
2.81848e-11
5.20363e-09
5.83645e-07
2.8867e-05
6.70141e-05
8.68988e-05
7.92441e-05
6.20324e-05
4.6649e-05
4.6649e-05
3.5035e-05
2.70122e-05
2.12523e-05
1.69668e-05
1.37242e-05
1.12714e-05
9.41874e-06
8.01805e-06
6.96801e-06
5.97315e-06
5.41926e-06
4.96696e-06
4.60563e-06
4.25462e-06
)
;
    }
}


// ************************************************************************* //
