/*--------------------------------*- C++ -*----------------------------------*\
| =========                 |                                                 |
| \\      /  F ield         | OpenFOAM: The Open Source CFD Toolbox           |
|  \\    /   O peration     | Version:  dev                                   |
|   \\  /    A nd           | Web:      www.OpenFOAM.org                      |
|    \\/     M anipulation  |                                                 |
\*---------------------------------------------------------------------------*/
FoamFile
{
    version     2.0;
    format      ascii;
    class       volScalarField;
    location    "0.005";
    object      H2O;
}
// * * * * * * * * * * * * * * * * * * * * * * * * * * * * * * * * * * * * * //

dimensions      [0 0 0 0 0 0 0];

internalField   nonuniform List<scalar> 
250
(
3.52002e-06
1.76879e-05
4.98576e-05
6.67288e-05
7.95154e-05
7.1262e-05
7.44595e-05
6.99195e-05
7.16211e-05
2.26375e-05
9.6072e-05
0.00025922
0.000374306
0.000464352
0.000411882
0.000426545
0.000397296
0.000405768
8.41664e-05
0.000324522
0.000974397
0.00165407
0.0022389
0.00195529
0.00199567
0.00183267
0.00185904
0.000249095
0.00089304
0.00348819
0.00729932
0.0106581
0.00940023
0.00944237
0.00862341
0.00866625
0.000667987
0.00270064
0.0107634
0.0275505
0.0359645
0.0344531
0.034253
0.032729
0.0326381
0.00151505
0.00626274
0.0271186
0.0404478
0.0452482
0.0445377
0.0442401
0.0434239
0.0432362
0.00269717
0.0103338
0.0344951
0.0447785
0.0472892
0.0473231
0.0470442
0.0467957
0.0465926
0.00396101
0.0142295
0.0365944
0.0447125
0.0463397
0.0467122
0.0464712
0.0464586
0.0462644
0.00511288
0.0173358
0.0360681
0.0429405
0.0443308
0.0448723
0.0446582
0.0447413
0.0445486
0.00594231
0.0187825
0.0342538
0.040484
0.0418773
0.0425335
0.0423395
0.0424701
0.0422717
0.00635168
0.0187838
0.0318619
0.0376924
0.0391628
0.0399115
0.0397376
0.0398972
0.0396917
0.039743
0.00637787
0.0179157
0.0293671
0.0347079
0.0362602
0.037085
0.0369349
0.0371163
0.0369071
0.0369542
0.00611128
0.0165468
0.0263432
0.0316024
0.0332151
0.034099
0.0339759
0.0341782
0.03397
0.034015
0.00564913
0.0149301
0.0235149
0.0283738
0.0300632
0.0309903
0.0308936
0.0311198
0.0309119
0.0309616
0.00507732
0.0132172
0.0206383
0.0252216
0.0269004
0.0278432
0.0277768
0.0280221
0.0278198
0.0278802
0.00446046
0.0114597
0.0176994
0.0221765
0.0238084
0.0247409
0.0247102
0.0249627
0.024775
0.0248411
0.00384994
0.00985021
0.0150412
0.0192702
0.0208432
0.0217444
0.0217493
0.0219975
0.0218288
0.0218948
0.00327489
0.0084018
0.0128245
0.0165754
0.0180499
0.0189031
0.0189394
0.0191776
0.019025
0.0190876
0.00274707
0.00709292
0.0109665
0.0136079
0.0153887
0.01629
0.0163502
0.0165858
0.0164394
0.0165004
0.00227489
0.00590579
0.00922733
0.0115233
0.0125461
0.0132868
0.0133484
0.0136373
0.013434
0.013501
0.00185852
0.00485971
0.00771343
0.00973781
0.0107328
0.0113303
0.0114146
0.0115425
0.0114991
0.011559
0.00148324
0.00396272
0.00635324
0.00817137
0.00902348
0.00953982
0.00962063
0.00978111
0.00971238
0.00975544
0.00117541
0.00313848
0.00505209
0.00666122
0.0074715
0.00800612
0.00809236
0.00823815
0.00817467
0.00822323
0.000911755
0.00245713
0.00399438
0.00541886
0.00613153
0.00648491
0.00657105
0.00668768
0.00664638
0.00667039
0.00070717
0.00192288
0.00317241
0.00417344
0.004853
0.00526932
0.00535588
0.00547071
0.00543114
0.00545834
0.000541674
0.0014894
0.00244678
0.00320955
0.00368027
0.00399329
0.00407655
0.00418292
0.00414671
0.0041738
)
;

boundaryField
{
    fuel
    {
        type            fixedValue;
        value           uniform 0;
    }
    wall
    {
        type            zeroGradient;
    }
    outlet
    {
        type            zeroGradient;
    }
    frontAndBack
    {
        type            empty;
    }
    procBoundary2to0
    {
        type            processor;
        value           nonuniform List<scalar> 
12
(
0.00547225
0.00040987
0.00114808
0.00187785
0.00239827
0.00273144
0.00298767
0.00308463
0.00316489
0.00314898
0.00416532
0.00316744
)
;
    }
    procBoundary2to3
    {
        type            processor;
        value           nonuniform List<scalar> 
25
(
7.00558e-05
0.000395832
0.00180594
0.00840074
0.0320441
0.0429564
0.0465096
0.0462554
0.0445684
0.0423078
0.0423078
0.0397133
0.0369371
0.0340089
0.0309591
0.0278701
0.0248276
0.0218829
0.0190785
0.0164931
0.013496
0.0115552
0.00974937
0.00820423
0.00668235
)
;
    }
}


// ************************************************************************* //
