/*--------------------------------*- C++ -*----------------------------------*\
| =========                 |                                                 |
| \\      /  F ield         | OpenFOAM: The Open Source CFD Toolbox           |
|  \\    /   O peration     | Version:  dev                                   |
|   \\  /    A nd           | Web:      www.OpenFOAM.org                      |
|    \\/     M anipulation  |                                                 |
\*---------------------------------------------------------------------------*/
FoamFile
{
    version     2.0;
    format      ascii;
    class       volScalarField;
    location    "0.005";
    object      HO2;
}
// * * * * * * * * * * * * * * * * * * * * * * * * * * * * * * * * * * * * * //

dimensions      [0 0 0 0 0 0 0];

internalField   nonuniform List<scalar> 
250
(
1.15657e-06
2.03566e-06
2.76132e-06
2.78371e-06
2.75123e-06
2.65171e-06
2.62796e-06
2.61105e-06
2.65056e-06
5.20556e-06
9.44227e-06
1.50827e-05
1.57926e-05
1.54026e-05
1.44477e-05
1.42023e-05
1.40537e-05
1.44388e-05
1.63549e-05
3.66364e-05
7.83922e-05
8.79132e-05
8.38594e-05
7.56019e-05
7.32291e-05
7.2108e-05
7.55117e-05
5.06215e-05
0.000154878
0.000389108
0.000451382
0.000428789
0.000383548
0.000368654
0.000362674
0.000383158
0.000157355
0.000486729
0.000244715
0.000161921
0.00018467
0.000250081
0.000280334
0.000293478
0.000250169
0.000347837
0.000211875
4.12655e-05
2.81052e-05
3.22781e-05
4.29671e-05
4.74915e-05
4.93557e-05
4.30078e-05
0.000379069
4.5836e-05
8.10274e-06
5.91042e-06
6.63821e-06
8.27369e-06
8.9154e-06
9.15838e-06
8.27988e-06
0.000190753
1.20315e-05
2.3545e-06
1.83055e-06
1.97605e-06
2.25265e-06
2.3606e-06
2.39032e-06
2.25066e-06
7.74583e-05
4.71956e-06
1.08813e-06
8.62976e-07
8.98384e-07
9.56083e-07
9.85374e-07
9.86732e-07
9.53112e-07
3.48392e-05
2.67093e-06
7.32952e-07
5.74039e-07
5.84778e-07
6.03772e-07
6.20379e-07
6.18132e-07
6.00997e-07
1.82986e-05
1.91537e-06
6.29158e-07
4.8907e-07
4.92797e-07
5.04314e-07
5.18549e-07
5.15943e-07
5.01489e-07
5.10528e-07
1.09373e-05
1.57605e-06
6.12607e-07
4.83265e-07
4.84248e-07
4.93913e-07
5.07117e-07
5.04534e-07
4.90861e-07
4.9436e-07
7.22161e-06
1.35315e-06
6.24318e-07
5.08521e-07
5.08314e-07
5.17029e-07
5.28998e-07
5.26543e-07
5.13879e-07
5.12918e-07
4.92337e-06
1.20909e-06
6.36234e-07
5.39159e-07
5.39005e-07
5.47054e-07
5.57613e-07
5.5539e-07
5.4417e-07
5.41102e-07
3.3823e-06
1.0702e-06
6.33975e-07
5.58845e-07
5.60074e-07
5.67869e-07
5.76889e-07
5.75187e-07
5.65749e-07
5.62181e-07
2.33177e-06
9.16652e-07
6.11444e-07
5.5819e-07
5.61972e-07
5.70016e-07
5.7761e-07
5.76627e-07
5.69094e-07
5.65852e-07
1.61362e-06
7.50123e-07
5.65269e-07
5.33958e-07
5.40945e-07
5.49567e-07
5.55954e-07
5.5577e-07
5.50117e-07
5.47555e-07
1.14903e-06
5.9696e-07
5.01366e-07
4.8836e-07
4.98393e-07
5.07558e-07
5.12963e-07
5.13515e-07
5.09702e-07
5.07931e-07
8.00322e-07
4.81869e-07
4.09699e-07
4.25343e-07
4.39356e-07
4.49416e-07
4.53894e-07
4.55307e-07
4.53503e-07
4.52521e-07
5.52929e-07
3.74404e-07
3.36191e-07
3.42443e-07
3.55274e-07
3.63827e-07
3.67342e-07
3.69383e-07
3.6846e-07
3.68199e-07
3.72962e-07
2.83983e-07
2.69117e-07
2.82564e-07
2.95798e-07
3.03112e-07
3.06281e-07
3.08325e-07
3.07408e-07
3.07263e-07
2.48592e-07
2.11435e-07
2.10448e-07
2.23479e-07
2.34162e-07
2.40953e-07
2.4374e-07
2.45601e-07
2.45503e-07
2.45631e-07
1.69075e-07
1.50117e-07
1.56809e-07
1.70994e-07
1.82268e-07
1.88718e-07
1.91123e-07
1.9254e-07
1.93283e-07
1.93423e-07
1.16798e-07
1.03924e-07
1.16654e-07
1.28779e-07
1.36295e-07
1.40403e-07
1.42389e-07
1.43563e-07
1.43404e-07
1.43623e-07
8.04048e-08
7.30917e-08
8.04603e-08
9.19535e-08
9.97249e-08
1.03839e-07
1.05516e-07
1.06626e-07
1.06952e-07
1.07194e-07
5.68238e-08
5.09986e-08
5.59184e-08
6.25814e-08
6.73307e-08
7.03966e-08
7.16527e-08
7.24959e-08
7.29104e-08
7.30918e-08
)
;

boundaryField
{
    fuel
    {
        type            fixedValue;
        value           uniform 0;
    }
    wall
    {
        type            zeroGradient;
    }
    outlet
    {
        type            zeroGradient;
    }
    frontAndBack
    {
        type            empty;
    }
    procBoundary2to0
    {
        type            processor;
        value           nonuniform List<scalar> 
12
(
1.06859e-07
3.98616e-08
3.69189e-08
3.81349e-08
4.20347e-08
4.54977e-08
4.81034e-08
4.91422e-08
4.98174e-08
5.01275e-08
7.30205e-08
5.02138e-08
)
;
    }
    procBoundary2to3
    {
        type            processor;
        value           nonuniform List<scalar> 
25
(
2.67183e-06
1.46459e-05
7.7411e-05
0.00039467
0.000229663
3.98069e-05
7.80788e-06
2.16991e-06
9.34503e-07
5.99628e-07
5.99628e-07
4.84172e-07
4.74405e-07
4.9847e-07
5.30338e-07
5.53983e-07
5.59701e-07
5.43168e-07
5.05008e-07
4.50808e-07
3.67606e-07
3.06598e-07
2.45513e-07
1.93285e-07
1.434e-07
)
;
    }
}


// ************************************************************************* //
