/*--------------------------------*- C++ -*----------------------------------*\
| =========                 |                                                 |
| \\      /  F ield         | OpenFOAM: The Open Source CFD Toolbox           |
|  \\    /   O peration     | Version:  dev                                   |
|   \\  /    A nd           | Web:      www.OpenFOAM.org                      |
|    \\/     M anipulation  |                                                 |
\*---------------------------------------------------------------------------*/
FoamFile
{
    version     2.0;
    format      ascii;
    class       volScalarField;
    location    "0.005";
    object      i-C4H5;
}
// * * * * * * * * * * * * * * * * * * * * * * * * * * * * * * * * * * * * * //

dimensions      [0 0 0 0 0 0 0];

internalField   nonuniform List<scalar> 
1997
(
4.29123e-09
4.38578e-09
4.2225e-09
3.78662e-09
3.14686e-09
2.42684e-09
1.78139e-09
1.28298e-09
9.4122e-10
7.17207e-10
5.70484e-10
4.77813e-10
4.13843e-10
3.71566e-10
3.43338e-10
3.2218e-10
3.07864e-10
2.98158e-10
4.47286e-09
4.55757e-09
4.42105e-09
4.03121e-09
3.43144e-09
2.7212e-09
2.04897e-09
1.50695e-09
1.12155e-09
8.6262e-10
6.88542e-10
5.7822e-10
5.00591e-10
4.49331e-10
4.14983e-10
3.89091e-10
3.71436e-10
3.59433e-10
3.52753e-10
3.45798e-10
3.41297e-10
3.37803e-10
3.35642e-10
3.34261e-10
3.33514e-10
3.33255e-10
3.33648e-10
3.34858e-10
4.64017e-09
4.71491e-09
4.60628e-09
4.26595e-09
3.71623e-09
3.02715e-09
2.34248e-09
1.76258e-09
1.33708e-09
1.03632e-09
8.33984e-10
7.01931e-10
6.08817e-10
5.46704e-10
5.04878e-10
4.73236e-10
4.5163e-10
4.36807e-10
4.27027e-10
4.18515e-10
4.12979e-10
4.08675e-10
4.06026e-10
4.04324e-10
4.03396e-10
4.03075e-10
4.03559e-10
4.05041e-10
4.09878e-10
4.13705e-10
4.19734e-10
4.27782e-10
4.39472e-10
4.55265e-10
4.77752e-10
5.10203e-10
5.53398e-10
6.16296e-10
7.10444e-10
8.46077e-10
4.7906e-09
4.85646e-09
4.77498e-09
4.48921e-09
3.99241e-09
3.33904e-09
2.65566e-09
2.04685e-09
1.58644e-09
1.24295e-09
1.00773e-09
8.5174e-10
7.41368e-10
6.66337e-10
6.15775e-10
5.77436e-10
5.51174e-10
5.3295e-10
5.20411e-10
5.09992e-10
5.03222e-10
4.97959e-10
4.94702e-10
4.92614e-10
4.91467e-10
4.91068e-10
4.9166e-10
4.93471e-10
4.97538e-10
5.0222e-10
5.0956e-10
5.19454e-10
5.33677e-10
5.52985e-10
5.80009e-10
6.19239e-10
6.71525e-10
7.46927e-10
8.58845e-10
1.01708e-09
1.26152e-09
1.60307e-09
2.07049e-09
2.68212e-09
3.36568e-09
4.01664e-09
4.5076e-09
4.79094e-09
4.8706e-09
4.80522e-09
4.92409e-09
4.98115e-09
4.9266e-09
4.69156e-09
4.25554e-09
3.64894e-09
2.98215e-09
2.35697e-09
1.86338e-09
1.487e-09
1.21297e-09
1.03105e-09
9.01104e-10
8.11646e-10
7.5139e-10
7.05149e-10
6.73341e-10
6.5122e-10
6.35777e-10
6.23107e-10
6.14882e-10
6.08501e-10
6.04514e-10
6.0197e-10
6.00566e-10
6.00075e-10
6.00793e-10
6.02987e-10
6.07256e-10
6.12968e-10
6.21844e-10
6.33939e-10
6.5117e-10
6.74611e-10
7.06994e-10
7.54261e-10
8.1689e-10
9.06329e-10
1.03837e-09
1.22248e-09
1.50063e-09
1.87588e-09
2.37579e-09
3.00276e-09
3.66887e-09
4.2731e-09
4.7051e-09
4.93742e-09
4.99089e-09
4.9342e-09
5.04058e-09
5.09045e-09
5.0615e-09
4.87644e-09
4.50187e-09
3.95073e-09
3.31502e-09
2.687e-09
2.16713e-09
1.76113e-09
1.4597e-09
1.24436e-09
1.09112e-09
9.86245e-10
9.15049e-10
8.60162e-10
8.22089e-10
7.95514e-10
7.7671e-10
7.6152e-10
7.51594e-10
7.43922e-10
7.39041e-10
7.35971e-10
7.34268e-10
7.33667e-10
7.34528e-10
7.37158e-10
7.42028e-10
7.48987e-10
7.59668e-10
7.74302e-10
7.95036e-10
8.2308e-10
8.61906e-10
9.1794e-10
9.91916e-10
1.09647e-09
1.25296e-09
1.46979e-09
1.77379e-09
2.18003e-09
2.70436e-09
3.33351e-09
3.96789e-09
4.51716e-09
4.88735e-09
5.07014e-09
5.09819e-09
5.04891e-09
5.14192e-09
5.18592e-09
5.18128e-09
5.04294e-09
4.72873e-09
4.23894e-09
3.64689e-09
3.03123e-09
2.50008e-09
2.06481e-09
1.73591e-09
1.49976e-09
1.32055e-09
1.19383e-09
1.10976e-09
1.04613e-09
1.00096e-09
9.6965e-10
9.4713e-10
9.29134e-10
9.17163e-10
9.08048e-10
9.02056e-10
8.98398e-10
8.96365e-10
8.9564e-10
8.96658e-10
8.99762e-10
9.05433e-10
9.13931e-10
9.26701e-10
9.44254e-10
9.68739e-10
1.00209e-09
1.04791e-09
1.11284e-09
1.20007e-09
1.3263e-09
1.5097e-09
1.74667e-09
2.0775e-09
2.51356e-09
3.04816e-09
3.66413e-09
4.25432e-09
4.74218e-09
5.05235e-09
5.18851e-09
5.19238e-09
5.14906e-09
5.23005e-09
5.26971e-09
5.28805e-09
5.19301e-09
4.93701e-09
4.50949e-09
3.97057e-09
3.38157e-09
2.85028e-09
2.39729e-09
2.04286e-09
1.78399e-09
1.59272e-09
1.44684e-09
1.34499e-09
1.26759e-09
1.21368e-09
1.17695e-09
1.15057e-09
1.12963e-09
1.11497e-09
1.10439e-09
1.09693e-09
1.09266e-09
1.09028e-09
1.08942e-09
1.09059e-09
1.09419e-09
1.10077e-09
1.11111e-09
1.12664e-09
1.14723e-09
1.17562e-09
1.21484e-09
1.26978e-09
1.34868e-09
1.45403e-09
1.59887e-09
1.79525e-09
2.05439e-09
2.41031e-09
2.86423e-09
3.39818e-09
3.98668e-09
4.52335e-09
4.94777e-09
5.20113e-09
5.29413e-09
5.27517e-09
5.23624e-09
5.3074e-09
5.34435e-09
5.38439e-09
5.3286e-09
5.12548e-09
4.75992e-09
4.27984e-09
3.72955e-09
3.21433e-09
2.75273e-09
2.38045e-09
2.10109e-09
1.88939e-09
1.72848e-09
1.62306e-09
1.53789e-09
1.4753e-09
1.4314e-09
1.39997e-09
1.37478e-09
1.35433e-09
1.3414e-09
1.33173e-09
1.32646e-09
1.32353e-09
1.32246e-09
1.32391e-09
1.32831e-09
1.33642e-09
1.34955e-09
1.37108e-09
1.39596e-09
1.42997e-09
1.47657e-09
1.54008e-09
1.62691e-09
1.73648e-09
1.89677e-09
2.11303e-09
2.3926e-09
2.76604e-09
3.22901e-09
3.7461e-09
4.29482e-09
4.77238e-09
5.13503e-09
5.33556e-09
5.38947e-09
5.34898e-09
5.31278e-09
5.37673e-09
5.4126e-09
5.47308e-09
5.45324e-09
5.29691e-09
4.99025e-09
4.57019e-09
4.06965e-09
3.58075e-09
3.12339e-09
2.74295e-09
2.44904e-09
2.22026e-09
2.0463e-09
1.92602e-09
1.83272e-09
1.76364e-09
1.71407e-09
1.67879e-09
1.65047e-09
1.63477e-09
1.62022e-09
1.6123e-09
1.60634e-09
1.603e-09
1.60176e-09
1.60338e-09
1.60832e-09
1.61749e-09
1.62932e-09
1.64618e-09
1.67424e-09
1.71256e-09
1.76495e-09
1.83491e-09
1.93089e-09
2.05439e-09
2.22861e-09
2.46159e-09
2.75552e-09
3.13681e-09
3.59536e-09
4.08404e-09
4.58395e-09
5.00124e-09
5.30525e-09
5.45918e-09
5.47725e-09
5.41646e-09
5.38141e-09
5.44096e-09
5.47721e-09
5.55671e-09
5.57001e-09
5.45462e-09
5.2001e-09
4.83916e-09
4.39165e-09
3.94249e-09
3.50171e-09
3.1225e-09
2.8211e-09
2.58278e-09
2.3968e-09
2.26563e-09
2.16536e-09
2.08901e-09
2.03429e-09
1.99545e-09
1.96412e-09
1.94382e-09
1.92766e-09
1.91829e-09
1.91164e-09
1.9079e-09
1.90648e-09
1.90826e-09
1.91371e-09
1.92393e-09
1.93769e-09
1.9593e-09
1.99033e-09
2.03267e-09
2.09031e-09
2.16768e-09
2.27086e-09
2.40507e-09
2.5921e-09
2.83416e-09
3.13523e-09
3.51542e-09
3.95678e-09
4.40562e-09
4.8517e-09
5.20987e-09
5.46191e-09
5.57506e-09
5.56006e-09
5.48036e-09
5.44502e-09
5.5029e-09
5.54102e-09
5.638e-09
5.68231e-09
5.6024e-09
5.39274e-09
5.08651e-09
4.69345e-09
4.28869e-09
3.87413e-09
3.51079e-09
3.20864e-09
2.96598e-09
2.77357e-09
2.63586e-09
2.52902e-09
2.44747e-09
2.38887e-09
2.34716e-09
2.31337e-09
2.29052e-09
2.27296e-09
2.26215e-09
2.25487e-09
2.25075e-09
2.24917e-09
2.25107e-09
2.25695e-09
2.26813e-09
2.28376e-09
2.30801e-09
2.34156e-09
2.3873e-09
2.44906e-09
2.53114e-09
2.6411e-09
2.78257e-09
2.97529e-09
3.22202e-09
3.52342e-09
3.88798e-09
4.30224e-09
4.70646e-09
5.09786e-09
5.40138e-09
5.60876e-09
5.68663e-09
5.64059e-09
5.54353e-09
5.50641e-09
5.56503e-09
5.60704e-09
5.71924e-09
5.7935e-09
5.74427e-09
5.57186e-09
5.31409e-09
4.97364e-09
4.61632e-09
4.24182e-09
3.89292e-09
3.60462e-09
3.36172e-09
3.16862e-09
3.02863e-09
2.91742e-09
2.83303e-09
2.77185e-09
2.72831e-09
2.69274e-09
2.66829e-09
2.64963e-09
2.6379e-09
2.63006e-09
2.62564e-09
2.6239e-09
2.62589e-09
2.63205e-09
2.64401e-09
2.66097e-09
2.68701e-09
2.72254e-09
2.77008e-09
2.83465e-09
2.91949e-09
3.03388e-09
3.17795e-09
3.37071e-09
3.61783e-09
3.9053e-09
4.25352e-09
4.62896e-09
4.9855e-09
5.32429e-09
5.5795e-09
5.74981e-09
5.79711e-09
5.72108e-09
5.60899e-09
5.56799e-09
5.63004e-09
5.67818e-09
5.80507e-09
5.90745e-09
5.88424e-09
5.74193e-09
5.52531e-09
5.23147e-09
4.92219e-09
4.58358e-09
4.27096e-09
3.99632e-09
3.75995e-09
3.57373e-09
3.43227e-09
3.32144e-09
3.23673e-09
3.17521e-09
3.1304e-09
3.09404e-09
3.06849e-09
3.04919e-09
3.03696e-09
3.02874e-09
3.02414e-09
3.02227e-09
3.02428e-09
3.03053e-09
3.04298e-09
3.06081e-09
3.08793e-09
3.12456e-09
3.17329e-09
3.23813e-09
3.32352e-09
3.4371e-09
3.58301e-09
3.76883e-09
4.00944e-09
4.28284e-09
4.59463e-09
4.93388e-09
5.24228e-09
5.53452e-09
5.74871e-09
5.88905e-09
5.91035e-09
5.80616e-09
5.67961e-09
5.63252e-09
5.70104e-09
5.75705e-09
5.89663e-09
6.02751e-09
6.02569e-09
5.90773e-09
5.72501e-09
5.4706e-09
5.20636e-09
4.90456e-09
4.62167e-09
4.37473e-09
4.15922e-09
3.97557e-09
3.8367e-09
3.73012e-09
3.64828e-09
3.58803e-09
3.54294e-09
3.50612e-09
3.48022e-09
3.46084e-09
3.44857e-09
3.44029e-09
3.43563e-09
3.43367e-09
3.43562e-09
3.44178e-09
3.45424e-09
3.47225e-09
3.49988e-09
3.53699e-09
3.58617e-09
3.64948e-09
3.73174e-09
3.84113e-09
3.98437e-09
4.168e-09
4.38693e-09
4.63276e-09
4.9148e-09
5.21712e-09
5.48043e-09
5.73335e-09
5.91379e-09
6.0297e-09
6.02982e-09
5.89713e-09
5.75799e-09
5.70308e-09
5.78038e-09
5.84579e-09
5.99589e-09
6.15612e-09
6.17324e-09
6.07405e-09
5.9187e-09
5.69553e-09
5.47172e-09
5.20365e-09
4.9525e-09
4.73117e-09
4.5338e-09
4.36664e-09
4.24501e-09
4.14144e-09
4.05996e-09
3.99986e-09
3.95223e-09
3.91618e-09
3.89103e-09
3.87262e-09
3.8607e-09
3.85291e-09
3.84835e-09
3.84634e-09
3.84815e-09
3.85401e-09
3.86578e-09
3.88301e-09
3.90976e-09
3.94638e-09
3.99768e-09
4.06092e-09
4.14319e-09
4.24896e-09
4.37447e-09
4.54209e-09
4.74237e-09
4.96271e-09
5.21275e-09
5.48168e-09
5.70447e-09
5.92631e-09
6.07946e-09
6.17655e-09
6.15774e-09
5.99572e-09
5.84624e-09
5.782e-09
5.87143e-09
5.94595e-09
6.10614e-09
6.29279e-09
6.32934e-09
6.24535e-09
6.11218e-09
5.91202e-09
5.72155e-09
5.48537e-09
5.26203e-09
5.06576e-09
4.88823e-09
4.73748e-09
4.62468e-09
4.52973e-09
4.45553e-09
4.39942e-09
4.3628e-09
4.33135e-09
4.30823e-09
4.29101e-09
4.27936e-09
4.2721e-09
4.26759e-09
4.2655e-09
4.26721e-09
4.27281e-09
4.28389e-09
4.30016e-09
4.32486e-09
4.35687e-09
4.39718e-09
4.45598e-09
4.53116e-09
4.62779e-09
4.74445e-09
4.8958e-09
5.07588e-09
5.27142e-09
5.49351e-09
5.73053e-09
5.92014e-09
6.11916e-09
6.25012e-09
6.33196e-09
6.29347e-09
6.10541e-09
5.9459e-09
5.87259e-09
5.97516e-09
6.05806e-09
6.22902e-09
6.4363e-09
6.49602e-09
6.42629e-09
6.31089e-09
6.12638e-09
5.96404e-09
5.75103e-09
5.55479e-09
5.37905e-09
5.22342e-09
5.08733e-09
4.98365e-09
4.89909e-09
4.83177e-09
4.78078e-09
4.74417e-09
4.71499e-09
4.69399e-09
4.67845e-09
4.66769e-09
4.6612e-09
4.65697e-09
4.65489e-09
4.65637e-09
4.66139e-09
4.67132e-09
4.68615e-09
4.70862e-09
4.73845e-09
4.77828e-09
4.83191e-09
4.89996e-09
4.98625e-09
5.09331e-09
5.23066e-09
5.38816e-09
5.56333e-09
5.75835e-09
5.97209e-09
6.13374e-09
6.31731e-09
6.43044e-09
6.49789e-09
6.43577e-09
6.22783e-09
6.05747e-09
5.97586e-09
6.09044e-09
6.18091e-09
6.36427e-09
6.58397e-09
6.67373e-09
6.61949e-09
6.51935e-09
6.345e-09
6.20563e-09
6.00886e-09
5.83286e-09
5.67702e-09
5.53839e-09
5.41608e-09
5.32581e-09
5.2479e-09
5.18751e-09
5.14161e-09
5.10743e-09
5.08059e-09
5.06122e-09
5.04714e-09
5.03729e-09
5.03142e-09
5.02747e-09
5.0254e-09
5.02666e-09
5.03111e-09
5.04005e-09
5.05368e-09
5.0743e-09
5.10185e-09
5.13888e-09
5.18722e-09
5.24858e-09
5.32801e-09
5.42123e-09
5.54477e-09
5.68521e-09
5.84078e-09
6.01536e-09
6.21281e-09
6.3516e-09
6.52521e-09
6.62298e-09
6.67479e-09
6.58206e-09
6.36255e-09
6.1797e-09
6.09059e-09
6.21564e-09
6.311e-09
6.50936e-09
6.73086e-09
6.86199e-09
6.8256e-09
6.74036e-09
6.57379e-09
6.45296e-09
6.2659e-09
6.10518e-09
5.9643e-09
5.83914e-09
5.73058e-09
5.64773e-09
5.57906e-09
5.52478e-09
5.4832e-09
5.45196e-09
5.42754e-09
5.40974e-09
5.39691e-09
5.3879e-09
5.38255e-09
5.37883e-09
5.37677e-09
5.37781e-09
5.38176e-09
5.38983e-09
5.40249e-09
5.42139e-09
5.44656e-09
5.48043e-09
5.52397e-09
5.5794e-09
5.64947e-09
5.73485e-09
5.84478e-09
5.9718e-09
6.11258e-09
6.27169e-09
6.45929e-09
6.57955e-09
6.74552e-09
6.82821e-09
6.86228e-09
6.72766e-09
6.50674e-09
6.30902e-09
6.21513e-09
6.34662e-09
6.44193e-09
6.65068e-09
6.87741e-09
7.05729e-09
7.04276e-09
6.97511e-09
6.81727e-09
6.71168e-09
6.52953e-09
6.37875e-09
6.24951e-09
6.1345e-09
6.03554e-09
5.96024e-09
5.89808e-09
5.8488e-09
5.81076e-09
5.78206e-09
5.75976e-09
5.74332e-09
5.73153e-09
5.72323e-09
5.71828e-09
5.71475e-09
5.71269e-09
5.71355e-09
5.71705e-09
5.72441e-09
5.7363e-09
5.75371e-09
5.77685e-09
5.8079e-09
5.84754e-09
5.89794e-09
5.96155e-09
6.03916e-09
6.13945e-09
6.25641e-09
6.38583e-09
6.53471e-09
6.71706e-09
6.82203e-09
6.97928e-09
7.04425e-09
7.05671e-09
6.87291e-09
6.64684e-09
6.43902e-09
6.34534e-09
6.47628e-09
6.56446e-09
6.77888e-09
7.01373e-09
7.24983e-09
7.26716e-09
7.2214e-09
7.07848e-09
6.98491e-09
6.80634e-09
6.66149e-09
6.5408e-09
6.43236e-09
6.34032e-09
6.27041e-09
6.21277e-09
6.16722e-09
6.13175e-09
6.10488e-09
6.08418e-09
6.06878e-09
6.05776e-09
6.05e-09
6.04536e-09
6.04195e-09
6.03985e-09
6.04057e-09
6.04371e-09
6.05057e-09
6.06188e-09
6.07815e-09
6.09977e-09
6.12886e-09
6.16563e-09
6.21217e-09
6.27123e-09
6.34362e-09
6.4364e-09
6.54722e-09
6.66837e-09
6.81093e-09
6.9892e-09
7.08207e-09
7.22416e-09
7.26773e-09
7.24755e-09
7.00779e-09
6.77369e-09
6.56048e-09
6.47408e-09
6.59418e-09
6.66644e-09
6.88198e-09
7.12827e-09
7.42207e-09
7.49146e-09
7.47443e-09
7.35702e-09
7.27343e-09
7.10053e-09
6.95995e-09
6.84624e-09
6.74062e-09
6.65309e-09
6.5874e-09
6.5324e-09
6.48857e-09
6.45514e-09
6.42917e-09
6.40963e-09
6.39472e-09
6.38429e-09
6.37679e-09
6.37235e-09
6.36901e-09
6.36683e-09
6.36747e-09
6.37032e-09
6.37692e-09
6.38787e-09
6.40353e-09
6.42403e-09
6.45227e-09
6.48683e-09
6.53122e-09
6.58772e-09
6.65612e-09
6.7439e-09
6.85226e-09
6.96662e-09
7.10439e-09
7.27659e-09
7.35898e-09
7.47531e-09
7.49075e-09
7.41778e-09
7.12086e-09
6.87541e-09
6.66126e-09
6.59094e-09
6.68687e-09
6.73327e-09
6.94531e-09
7.20858e-09
7.55358e-09
7.70164e-09
7.72456e-09
7.64613e-09
7.57546e-09
7.41215e-09
7.27826e-09
7.16911e-09
7.06705e-09
6.98246e-09
6.91911e-09
6.86529e-09
6.82234e-09
6.78977e-09
6.76421e-09
6.74517e-09
6.73035e-09
6.72027e-09
6.71282e-09
6.70849e-09
6.70514e-09
6.70286e-09
6.70345e-09
6.70609e-09
6.71265e-09
6.72341e-09
6.73891e-09
6.7589e-09
6.78698e-09
6.82054e-09
6.86334e-09
6.91866e-09
6.98533e-09
7.06966e-09
7.17482e-09
7.28467e-09
7.4152e-09
7.57711e-09
7.64601e-09
7.72321e-09
7.69895e-09
7.54718e-09
7.19972e-09
6.9373e-09
6.72679e-09
6.68248e-09
6.73899e-09
6.74921e-09
6.95321e-09
7.23926e-09
7.62575e-09
7.87594e-09
7.95612e-09
7.93306e-09
7.88079e-09
7.74195e-09
7.61456e-09
7.51183e-09
7.41459e-09
7.33251e-09
7.27146e-09
7.21873e-09
7.17575e-09
7.14351e-09
7.1178e-09
7.09898e-09
7.08392e-09
7.07407e-09
7.06649e-09
7.06221e-09
7.05881e-09
7.05638e-09
7.05696e-09
7.05943e-09
7.06611e-09
7.07678e-09
7.0925e-09
7.11238e-09
7.14075e-09
7.17403e-09
7.21583e-09
7.2703e-09
7.3349e-09
7.41639e-09
7.51681e-09
7.62119e-09
7.74387e-09
7.88072e-09
7.93046e-09
7.95201e-09
7.87066e-09
7.61728e-09
7.22896e-09
6.94375e-09
6.74138e-09
6.73335e-09
6.73544e-09
6.69971e-09
6.89027e-09
7.20418e-09
7.62277e-09
7.98947e-09
8.14514e-09
8.19681e-09
8.17543e-09
8.07527e-09
7.9643e-09
7.87713e-09
7.77906e-09
7.70334e-09
7.64582e-09
7.59515e-09
7.55222e-09
7.52046e-09
7.49446e-09
7.47608e-09
7.46069e-09
7.45112e-09
7.44335e-09
7.43912e-09
7.43565e-09
7.43308e-09
7.43363e-09
7.43593e-09
7.44279e-09
7.45336e-09
7.46922e-09
7.48905e-09
7.51777e-09
7.55059e-09
7.59138e-09
7.64388e-09
7.70488e-09
7.78083e-09
7.87868e-09
7.9704e-09
8.07564e-09
8.1733e-09
8.19159e-09
8.13753e-09
7.98107e-09
7.61228e-09
7.1925e-09
6.8794e-09
6.69054e-09
6.72857e-09
6.66228e-09
6.57232e-09
6.74482e-09
7.08781e-09
7.53367e-09
8.01851e-09
8.25917e-09
8.41067e-09
8.43743e-09
8.39295e-09
8.31617e-09
8.23972e-09
8.16556e-09
8.09639e-09
8.04069e-09
7.98932e-09
7.94722e-09
7.91734e-09
7.89201e-09
7.8747e-09
7.85961e-09
7.8504e-09
7.84266e-09
7.83863e-09
7.83516e-09
7.83249e-09
7.83293e-09
7.83496e-09
7.84184e-09
7.85213e-09
7.86778e-09
7.88669e-09
7.91453e-09
7.94569e-09
7.98424e-09
8.03822e-09
8.09736e-09
8.16817e-09
8.23937e-09
8.32036e-09
8.39192e-09
8.43276e-09
8.40213e-09
8.24819e-09
8.00672e-09
7.52156e-09
7.07475e-09
6.73268e-09
6.56193e-09
6.65418e-09
6.50531e-09
6.36258e-09
6.51117e-09
6.87106e-09
7.36252e-09
7.93977e-09
8.26953e-09
8.5427e-09
8.63796e-09
8.66717e-09
8.64117e-09
8.59424e-09
8.53422e-09
8.49471e-09
8.45108e-09
8.4034e-09
8.36404e-09
8.33648e-09
8.3123e-09
8.29522e-09
8.28037e-09
8.27073e-09
8.26278e-09
8.25885e-09
8.2553e-09
8.25252e-09
8.2529e-09
8.25477e-09
8.26193e-09
8.27276e-09
8.28848e-09
8.30682e-09
8.33351e-09
8.36246e-09
8.39718e-09
8.44795e-09
8.49285e-09
8.53633e-09
8.59252e-09
8.64269e-09
8.66517e-09
8.63024e-09
8.53051e-09
8.25509e-09
7.92501e-09
7.3488e-09
6.85687e-09
6.49804e-09
6.35117e-09
6.49617e-09
6.26782e-09
6.06915e-09
6.19185e-09
6.55552e-09
7.10522e-09
7.73675e-09
8.15832e-09
8.5623e-09
8.73927e-09
8.8657e-09
8.90577e-09
8.90281e-09
8.87737e-09
8.85247e-09
8.82612e-09
8.80195e-09
8.77404e-09
8.75397e-09
8.73484e-09
8.71837e-09
8.70579e-09
8.69677e-09
8.68982e-09
8.6866e-09
8.68339e-09
8.68069e-09
8.68071e-09
8.68191e-09
8.68823e-09
8.69843e-09
8.71185e-09
8.72965e-09
8.75071e-09
8.77195e-09
8.79488e-09
8.82228e-09
8.84943e-09
8.8766e-09
8.89769e-09
8.90389e-09
8.8627e-09
8.7279e-09
8.5469e-09
8.14063e-09
7.71888e-09
7.09058e-09
6.54057e-09
6.17814e-09
6.05703e-09
6.25788e-09
5.94439e-09
5.69857e-09
5.7951e-09
6.15703e-09
6.73689e-09
7.42562e-09
7.91824e-09
8.44489e-09
8.71277e-09
8.94967e-09
9.07166e-09
9.12527e-09
9.15233e-09
9.1565e-09
9.14991e-09
9.13874e-09
9.12481e-09
9.11444e-09
9.10307e-09
9.09927e-09
9.09055e-09
9.08835e-09
9.08321e-09
9.08102e-09
9.07842e-09
9.07592e-09
9.07546e-09
9.07574e-09
9.08052e-09
9.08377e-09
9.09336e-09
9.0987e-09
9.11088e-09
9.12167e-09
9.13133e-09
9.14572e-09
9.15346e-09
9.14885e-09
9.11705e-09
9.06626e-09
8.94545e-09
8.6977e-09
8.42656e-09
7.89795e-09
7.4042e-09
6.72212e-09
6.14211e-09
5.781e-09
5.68612e-09
5.93385e-09
5.55374e-09
5.26828e-09
5.33543e-09
5.68979e-09
6.26727e-09
7.00818e-09
7.55703e-09
8.17132e-09
8.53789e-09
8.8909e-09
9.10027e-09
9.22072e-09
9.30747e-09
9.35832e-09
9.38512e-09
9.39608e-09
9.39976e-09
9.39944e-09
9.39655e-09
9.3965e-09
9.39266e-09
9.39302e-09
9.39052e-09
9.38963e-09
9.38792e-09
9.38573e-09
9.38472e-09
9.38392e-09
9.38639e-09
9.38667e-09
9.39121e-09
9.39274e-09
9.39543e-09
9.39426e-09
9.38857e-09
9.37998e-09
9.35372e-09
9.30411e-09
9.20992e-09
9.09202e-09
8.8848e-09
8.51937e-09
8.15071e-09
7.53504e-09
6.98217e-09
6.25412e-09
5.67537e-09
5.32147e-09
5.25579e-09
5.54299e-09
5.10242e-09
4.78787e-09
4.83157e-09
5.17346e-09
5.731e-09
6.48729e-09
7.06986e-09
7.76676e-09
8.20365e-09
8.66567e-09
8.96725e-09
9.16019e-09
9.31224e-09
9.40977e-09
9.47342e-09
9.51401e-09
9.54206e-09
9.56126e-09
9.57173e-09
9.5809e-09
9.58405e-09
9.58855e-09
9.5898e-09
9.59058e-09
9.59017e-09
9.5884e-09
9.58674e-09
9.58461e-09
9.58369e-09
9.57936e-09
9.57636e-09
9.5691e-09
9.5566e-09
9.53761e-09
9.50649e-09
9.46738e-09
9.40385e-09
9.30586e-09
9.14813e-09
8.95612e-09
8.65724e-09
8.18234e-09
7.74508e-09
7.047e-09
6.4606e-09
5.71694e-09
5.15955e-09
4.81802e-09
4.77558e-09
5.09154e-09
4.60325e-09
4.27913e-09
4.30299e-09
4.63359e-09
5.13732e-09
5.89616e-09
6.48489e-09
7.23446e-09
7.73677e-09
8.26687e-09
8.65282e-09
8.92104e-09
9.13888e-09
9.28889e-09
9.39204e-09
9.46361e-09
9.51782e-09
9.5542e-09
9.57921e-09
9.59925e-09
9.61059e-09
9.62024e-09
9.62599e-09
9.62874e-09
9.62992e-09
9.6287e-09
9.62631e-09
9.6227e-09
9.61764e-09
9.60754e-09
9.59572e-09
9.57791e-09
9.54887e-09
9.51097e-09
9.45635e-09
9.38507e-09
9.28089e-09
9.13024e-09
8.90891e-09
8.63848e-09
8.25563e-09
7.71371e-09
7.21202e-09
6.46234e-09
5.87061e-09
5.12236e-09
4.62e-09
4.29002e-09
4.26734e-09
4.59265e-09
4.08425e-09
3.76171e-09
3.76808e-09
4.07948e-09
4.52807e-09
5.25773e-09
5.84248e-09
6.61276e-09
7.14164e-09
7.72818e-09
8.16277e-09
8.49185e-09
8.76805e-09
8.97168e-09
9.11608e-09
9.21997e-09
9.30174e-09
9.35668e-09
9.39664e-09
9.428e-09
9.44804e-09
9.463e-09
9.4736e-09
9.47839e-09
9.48131e-09
9.48075e-09
9.47761e-09
9.47255e-09
9.46294e-09
9.44682e-09
9.42564e-09
9.39681e-09
9.35062e-09
9.29321e-09
9.21336e-09
9.10818e-09
8.96128e-09
8.75761e-09
8.4821e-09
8.14611e-09
7.71407e-09
7.11716e-09
6.59034e-09
5.82026e-09
5.23407e-09
4.51284e-09
4.06643e-09
3.7558e-09
3.7506e-09
4.07402e-09
3.56513e-09
3.25281e-09
3.24349e-09
3.53241e-09
3.9365e-09
4.58884e-09
5.18337e-09
5.91295e-09
6.4501e-09
7.08023e-09
7.53193e-09
7.89767e-09
8.2093e-09
8.45957e-09
8.63591e-09
8.76645e-09
8.87376e-09
8.94619e-09
9.00046e-09
9.04287e-09
9.07161e-09
9.09173e-09
9.10723e-09
9.1139e-09
9.11865e-09
9.11882e-09
9.115e-09
9.10863e-09
9.0944e-09
9.07235e-09
9.0419e-09
9.00234e-09
8.93952e-09
8.86382e-09
8.76142e-09
8.62636e-09
8.44672e-09
8.19853e-09
7.89209e-09
7.51571e-09
7.06575e-09
6.42424e-09
5.89026e-09
5.16155e-09
4.56763e-09
3.92132e-09
3.52e-09
3.23192e-09
3.24246e-09
3.55546e-09
3.06275e-09
2.77317e-09
2.74491e-09
3.00838e-09
3.35899e-09
3.95045e-09
4.49996e-09
5.18132e-09
5.7128e-09
6.33208e-09
6.81367e-09
7.20728e-09
7.53867e-09
7.79171e-09
7.98004e-09
8.12525e-09
8.24911e-09
8.33254e-09
8.39766e-09
8.44804e-09
8.48376e-09
8.5077e-09
8.5271e-09
8.53511e-09
8.54141e-09
8.54236e-09
8.53794e-09
8.5307e-09
8.51258e-09
8.48623e-09
8.44837e-09
8.40081e-09
8.32597e-09
8.23792e-09
8.12187e-09
7.97096e-09
7.78059e-09
7.52876e-09
7.20498e-09
6.79629e-09
6.31654e-09
5.68685e-09
5.1562e-09
4.48145e-09
3.9304e-09
3.34437e-09
2.99638e-09
2.73411e-09
2.7635e-09
3.0542e-09
2.60028e-09
2.32461e-09
2.28433e-09
2.51619e-09
2.8211e-09
3.33745e-09
3.84706e-09
4.45368e-09
4.94497e-09
5.55101e-09
5.9976e-09
6.41296e-09
6.75509e-09
7.03914e-09
7.23827e-09
7.39139e-09
7.52692e-09
7.61637e-09
7.68801e-09
7.74272e-09
7.78265e-09
7.80849e-09
7.83021e-09
7.83885e-09
7.8461e-09
7.84768e-09
7.84283e-09
7.83527e-09
7.81467e-09
7.78625e-09
7.74386e-09
7.69198e-09
7.61009e-09
7.51492e-09
7.39015e-09
7.22914e-09
7.02591e-09
6.74449e-09
6.41277e-09
5.98381e-09
5.53266e-09
4.91785e-09
4.43174e-09
3.82812e-09
3.31698e-09
2.80814e-09
2.50454e-09
2.27414e-09
2.31534e-09
2.59207e-09
2.16308e-09
1.91458e-09
1.86977e-09
2.06231e-09
2.33904e-09
2.76906e-09
3.22056e-09
3.77366e-09
4.20651e-09
4.75476e-09
5.16692e-09
5.56653e-09
5.8945e-09
6.174e-09
6.37573e-09
6.53572e-09
6.68298e-09
6.77744e-09
6.85612e-09
6.91488e-09
6.95983e-09
6.98763e-09
7.01224e-09
7.02156e-09
7.03001e-09
7.03236e-09
7.02698e-09
7.01908e-09
6.99552e-09
6.96469e-09
6.91706e-09
6.86084e-09
6.77144e-09
6.67044e-09
6.53689e-09
6.36636e-09
6.16173e-09
5.88434e-09
5.56718e-09
5.14924e-09
4.73607e-09
4.18071e-09
3.75272e-09
3.20029e-09
2.75073e-09
2.32507e-09
2.05086e-09
1.85993e-09
1.90556e-09
2.15473e-09
1.76711e-09
1.55059e-09
1.50564e-09
1.66091e-09
1.89396e-09
2.27619e-09
2.63776e-09
3.13109e-09
3.52802e-09
4.00728e-09
4.38001e-09
4.72156e-09
5.02308e-09
5.27577e-09
5.47184e-09
5.63126e-09
5.77448e-09
5.86268e-09
5.9405e-09
5.99545e-09
6.04024e-09
6.06634e-09
6.09059e-09
6.09939e-09
6.1079e-09
6.11053e-09
6.10528e-09
6.09792e-09
6.07467e-09
6.04531e-09
5.9982e-09
5.94515e-09
5.85776e-09
5.76383e-09
5.63181e-09
5.46407e-09
5.26673e-09
5.01214e-09
4.72271e-09
4.36293e-09
3.98658e-09
3.50269e-09
3.10897e-09
2.61686e-09
2.25793e-09
1.87914e-09
1.64921e-09
1.4957e-09
1.54137e-09
1.75832e-09
1.41818e-09
1.23384e-09
1.19204e-09
1.31384e-09
1.50303e-09
1.83036e-09
2.1315e-09
2.54482e-09
2.88738e-09
3.31614e-09
3.66046e-09
3.94613e-09
4.21584e-09
4.44499e-09
4.61712e-09
4.74418e-09
4.8677e-09
4.94582e-09
5.01711e-09
5.06546e-09
5.10716e-09
5.1304e-09
5.15271e-09
5.16053e-09
5.16875e-09
5.17142e-09
5.16657e-09
5.15995e-09
5.13863e-09
5.11206e-09
5.06842e-09
5.02075e-09
4.94211e-09
4.85974e-09
4.74432e-09
4.61117e-09
4.43594e-09
4.20671e-09
3.94795e-09
3.6365e-09
3.28934e-09
2.86001e-09
2.52018e-09
2.10895e-09
1.81054e-09
1.48719e-09
1.3012e-09
1.18137e-09
1.22387e-09
1.40843e-09
1.1166e-09
9.63211e-10
9.26674e-10
1.01899e-09
1.16976e-09
1.43379e-09
1.68606e-09
2.02992e-09
2.30716e-09
2.68723e-09
2.97111e-09
3.20538e-09
3.45575e-09
3.66369e-09
3.82149e-09
3.93732e-09
4.04619e-09
4.1148e-09
4.17739e-09
4.21984e-09
4.25673e-09
4.27755e-09
4.29711e-09
4.30382e-09
4.31206e-09
4.31457e-09
4.31024e-09
4.30386e-09
4.28509e-09
4.26124e-09
4.22271e-09
4.18025e-09
4.11169e-09
4.04027e-09
3.93743e-09
3.81738e-09
3.65569e-09
3.44697e-09
3.2087e-09
2.93704e-09
2.65279e-09
2.27504e-09
2.00042e-09
1.66002e-09
1.41146e-09
1.15182e-09
1.00455e-09
9.1453e-10
9.5174e-10
1.10513e-09
8.60407e-10
7.35722e-10
7.06039e-10
7.72443e-10
8.89738e-10
1.09673e-09
1.29713e-09
1.57756e-09
1.8043e-09
2.11316e-09
2.36464e-09
)
;

boundaryField
{
    fuel
    {
        type            fixedValue;
        value           nonuniform 0();
    }
    wall
    {
        type            zeroGradient;
    }
    outlet
    {
        type            zeroGradient;
    }
    frontAndBack
    {
        type            empty;
    }
    procBoundary2to0
    {
        type            processor;
        value           nonuniform List<scalar> 
53
(
4.09073e-09
4.19502e-09
4.00532e-09
3.52795e-09
2.85886e-09
2.14531e-09
1.53495e-09
1.08286e-09
7.85305e-10
5.94147e-10
4.71445e-10
3.94553e-10
3.42149e-10
3.07617e-10
2.84597e-10
2.6731e-10
2.55874e-10
2.48011e-10
2.91835e-10
2.91835e-10
2.86179e-10
2.82547e-10
2.79727e-10
2.7798e-10
2.76867e-10
2.7627e-10
2.76064e-10
2.7638e-10
2.77346e-10
3.37721e-10
3.37721e-10
3.40814e-10
3.45692e-10
3.52245e-10
3.61713e-10
3.74603e-10
3.92872e-10
4.1971e-10
4.5505e-10
5.07191e-10
5.8577e-10
6.98641e-10
1.05457e-09
1.05457e-09
1.35689e-09
1.78531e-09
2.36845e-09
3.05298e-09
3.74126e-09
4.28796e-09
4.623e-09
4.73002e-09
4.65531e-09
)
;
    }
    procBoundary2to3
    {
        type            processor;
        value           nonuniform List<scalar> 
51
(
2.57477e-09
2.78662e-09
2.93813e-09
3.07096e-09
3.17747e-09
3.27281e-09
3.33636e-09
3.39367e-09
3.43197e-09
3.47146e-09
3.49327e-09
3.51172e-09
3.51781e-09
3.52752e-09
3.5301e-09
3.526e-09
3.51863e-09
3.50058e-09
3.47588e-09
3.43472e-09
3.39586e-09
3.33372e-09
3.26882e-09
3.1772e-09
3.06789e-09
2.93251e-09
2.779e-09
2.57737e-09
2.34541e-09
2.09171e-09
1.78512e-09
1.55842e-09
1.28031e-09
1.08226e-09
8.7805e-10
7.6308e-10
6.98183e-10
7.28226e-10
8.52872e-10
6.51443e-10
5.52287e-10
5.2751e-10
5.7932e-10
6.65056e-10
8.24049e-10
9.80417e-10
1.20097e-09
1.38259e-09
1.63619e-09
2.57477e-09
1.8304e-09
)
;
    }
}


// ************************************************************************* //
