/*--------------------------------*- C++ -*----------------------------------*\
| =========                 |                                                 |
| \\      /  F ield         | OpenFOAM: The Open Source CFD Toolbox           |
|  \\    /   O peration     | Version:  dev                                   |
|   \\  /    A nd           | Web:      www.OpenFOAM.org                      |
|    \\/     M anipulation  |                                                 |
\*---------------------------------------------------------------------------*/
FoamFile
{
    version     2.0;
    format      ascii;
    class       volScalarField;
    location    "0.005";
    object      p;
}
// * * * * * * * * * * * * * * * * * * * * * * * * * * * * * * * * * * * * * //

dimensions      [1 -1 -2 0 0 0 0];

internalField   nonuniform List<scalar> 
250
(
100016
100036
100056
100073
100091
100109
100123
100133
100137
100017
100036
100056
100073
100091
100109
100123
100133
100137
100017
100036
100056
100073
100091
100109
100123
100133
100137
100017
100036
100056
100073
100091
100109
100123
100133
100137
100017
100036
100056
100072
100090
100108
100122
100132
100136
100017
100035
100055
100072
100090
100107
100121
100131
100136
100017
100035
100055
100072
100089
100107
100121
100131
100135
100016
100035
100054
100071
100089
100106
100120
100130
100135
100016
100035
100054
100072
100089
100106
100120
100130
100135
100016
100035
100054
100072
100089
100106
100120
100130
100134
100015
100035
100054
100072
100090
100106
100120
100129
100134
100136
100015
100035
100054
100072
100090
100106
100120
100129
100134
100136
100015
100035
100054
100072
100090
100106
100120
100129
100134
100136
100015
100035
100054
100072
100090
100106
100119
100129
100134
100136
100015
100034
100054
100072
100090
100106
100119
100129
100134
100136
100015
100034
100054
100072
100090
100106
100119
100129
100134
100136
100014
100034
100054
100072
100090
100106
100119
100129
100134
100136
100014
100034
100054
100072
100090
100106
100119
100129
100134
100136
100014
100034
100054
100073
100090
100106
100119
100128
100134
100136
100014
100034
100054
100073
100090
100106
100119
100128
100134
100136
100014
100034
100054
100073
100090
100106
100119
100128
100134
100136
100014
100034
100055
100073
100090
100106
100119
100128
100134
100136
100014
100034
100055
100073
100090
100106
100119
100128
100134
100136
100014
100034
100055
100073
100090
100106
100119
100128
100134
100136
100014
100034
100055
100073
100090
100106
100119
100128
100134
100136
100013
100034
100055
100073
100091
100106
100119
100128
100134
100136
)
;

boundaryField
{
    fuel
    {
        type            zeroGradient;
    }
    wall
    {
        type            zeroGradient;
    }
    outlet
    {
        type            totalPressure;
        rho             none;
        psi             none;
        gamma           1;
        p0              uniform 100000;
        value           uniform 100000;
    }
    frontAndBack
    {
        type            empty;
    }
    procBoundary2to0
    {
        type            processor;
        value           nonuniform List<scalar> 
12
(
100135
100013
100034
100055
100073
100091
100106
100119
100128
100134
100135
100136
)
;
    }
    procBoundary2to3
    {
        type            processor;
        value           nonuniform List<scalar> 
25
(
100139
100138
100138
100138
100137
100137
100136
100136
100136
100136
100136
100134
100134
100134
100134
100134
100135
100135
100135
100135
100135
100135
100135
100135
100135
)
;
    }
}


// ************************************************************************* //
