/*--------------------------------*- C++ -*----------------------------------*\
| =========                 |                                                 |
| \\      /  F ield         | OpenFOAM: The Open Source CFD Toolbox           |
|  \\    /   O peration     | Version:  dev                                   |
|   \\  /    A nd           | Web:      www.OpenFOAM.org                      |
|    \\/     M anipulation  |                                                 |
\*---------------------------------------------------------------------------*/
FoamFile
{
    version     2.0;
    format      ascii;
    class       volScalarField;
    location    "0.1";
    object      CO;
}
// * * * * * * * * * * * * * * * * * * * * * * * * * * * * * * * * * * * * * //

dimensions      [0 0 0 0 0 0 0];

internalField   nonuniform List<scalar> 
250
(
0.181696
0.18288
0.183805
0.184177
0.184302
0.18434
0.184346
0.184341
0.184341
0.184335
0.181928
0.182988
0.183799
0.184127
0.184237
0.184272
0.184278
0.184273
0.184273
0.184267
0.184275
0.184286
0.184288
0.18429
0.184279
0.184253
0.184139
0.183821
0.183104
0.181717
0.182148
0.183092
0.183802
0.184088
0.184186
0.184218
0.184223
0.184219
0.184218
0.184213
0.18422
0.18423
0.184233
0.184234
0.184225
0.184201
0.184101
0.183826
0.183215
0.182043
0.18236
0.183196
0.183814
0.184062
0.184149
0.184177
0.184181
0.184178
0.184176
0.184172
0.184179
0.184188
0.184191
0.184193
0.184185
0.184162
0.184076
0.183838
0.183321
0.182334
0.182566
0.1833
0.183836
0.184048
0.184125
0.184149
0.184152
0.18415
0.184148
0.184144
0.18415
0.184159
0.184163
0.184164
0.184157
0.184136
0.184062
0.183858
0.183424
0.182596
0.18277
0.183405
0.183864
0.184044
0.184111
0.184132
0.184135
0.184133
0.18413
0.184127
0.184133
0.184141
0.184145
0.184146
0.184141
0.184122
0.184059
0.183885
0.183521
0.182832
0.182961
0.183508
0.183896
0.184048
0.184105
0.184123
0.184126
0.184124
0.184121
0.184118
0.184123
0.184131
0.184135
0.184137
0.184133
0.184116
0.184063
0.183915
0.183614
0.183043
0.183141
0.183606
0.18393
0.184057
0.184105
0.18412
0.184122
0.18412
0.184118
0.184115
0.18412
0.184127
0.184131
0.184133
0.18413
0.184116
0.184071
0.183948
0.183699
0.18323
0.183307
0.183697
0.183963
0.184067
0.184107
0.18412
0.184122
0.18412
0.184117
0.184114
0.184119
0.184126
0.184131
0.184133
0.18413
0.184118
0.184081
0.18398
0.183775
0.183394
0.183456
0.183777
0.183994
0.184078
0.184111
0.184121
0.184123
0.184121
0.184118
0.184116
0.18412
0.184126
0.184131
0.184134
0.184132
0.184122
0.184091
0.184009
0.183842
0.183534
0.183583
0.183846
0.184019
0.184087
0.184114
0.184123
0.184124
0.184122
0.18412
0.184117
0.184121
0.184127
0.184132
0.184135
0.184134
0.184126
0.184101
0.184034
0.183898
0.183649
0.183684
0.183901
0.184039
0.184095
0.184117
0.184124
0.184125
0.184123
0.184121
0.184118
0.184122
0.184128
0.184133
0.184136
0.184136
0.184129
0.184108
0.184054
0.183941
0.183738
0.183749
0.183936
0.184052
0.1841
0.184119
0.184125
0.184126
0.184124
0.184122
0.184119
0.184123
0.184129
0.184134
0.184137
0.184137
0.184131
0.184113
0.184066
0.183968
0.183795
)
;

boundaryField
{
    fuel
    {
        type            fixedValue;
        value           nonuniform 0();
    }
    wall
    {
        type            zeroGradient;
    }
    outlet
    {
        type            zeroGradient;
    }
    frontAndBack
    {
        type            empty;
    }
    procBoundary1to0
    {
        type            processor;
        value           nonuniform List<scalar> 
21
(
0.181449
0.182764
0.183816
0.184236
0.184376
0.184419
0.184425
0.18442
0.18442
0.184413
0.184343
0.184343
0.184355
0.184356
0.184358
0.184347
0.184318
0.184189
0.183822
0.182985
0.181343
)
;
    }
}


// ************************************************************************* //
