/*--------------------------------*- C++ -*----------------------------------*\
| =========                 |                                                 |
| \\      /  F ield         | OpenFOAM: The Open Source CFD Toolbox           |
|  \\    /   O peration     | Version:  dev                                   |
|   \\  /    A nd           | Web:      www.OpenFOAM.org                      |
|    \\/     M anipulation  |                                                 |
\*---------------------------------------------------------------------------*/
FoamFile
{
    version     2.0;
    format      ascii;
    class       volScalarField;
    location    "0.1";
    object      CO2;
}
// * * * * * * * * * * * * * * * * * * * * * * * * * * * * * * * * * * * * * //

dimensions      [0 0 0 0 0 0 0];

internalField   nonuniform List<scalar> 
250
(
0.048667
0.0480624
0.0477342
0.047661
0.0475719
0.047625
0.047586
0.0476253
0.0476028
0.0476236
0.0486363
0.0481192
0.0478427
0.0477794
0.047704
0.0477474
0.0477154
0.047748
0.0477296
0.0477471
0.0477428
0.047732
0.0477392
0.0477261
0.0477288
0.0477334
0.0477432
0.0478674
0.0480738
0.0484256
0.0485998
0.04816
0.0479286
0.0478719
0.0478099
0.0478433
0.0478182
0.0478441
0.0478298
0.047844
0.0478407
0.0478312
0.0478371
0.047826
0.0478284
0.0478324
0.0478435
0.0479491
0.0481331
0.0484406
0.048556
0.0481836
0.0479913
0.0479391
0.0478897
0.0479137
0.047895
0.0479146
0.0479041
0.0479153
0.0479129
0.0479047
0.0479093
0.0479001
0.0479021
0.0479058
0.0479179
0.0480067
0.0481709
0.0484377
0.0485047
0.0481908
0.0480323
0.0479847
0.0479455
0.0479615
0.0479491
0.0479626
0.0479561
0.0479639
0.0479622
0.0479558
0.0479587
0.0479519
0.0479536
0.0479561
0.0479692
0.0480426
0.0481884
0.048418
0.0484465
0.0481843
0.0480548
0.0480111
0.0479812
0.0479909
0.0479828
0.0479921
0.0479882
0.0479939
0.0479928
0.0479874
0.0479893
0.0479839
0.0479852
0.0479874
0.0480004
0.0480606
0.0481886
0.0483845
0.0483833
0.048168
0.0480632
0.0480238
0.0480014
0.0480065
0.0480017
0.0480079
0.0480058
0.04801
0.0480093
0.0480046
0.0480059
0.0480015
0.0480026
0.0480043
0.0480166
0.0480655
0.0481759
0.0483414
0.0483217
0.0481459
0.048062
0.0480275
0.0480109
0.0480131
0.0480105
0.0480145
0.0480137
0.0480169
0.0480164
0.0480124
0.0480132
0.0480096
0.0480103
0.0480117
0.0480228
0.048062
0.0481552
0.0482934
0.0482633
0.0481221
0.0480557
0.0480264
0.0480141
0.0480146
0.0480134
0.0480161
0.0480159
0.0480185
0.0480181
0.0480146
0.0480151
0.0480121
0.0480126
0.0480136
0.0480232
0.0480544
0.0481311
0.048245
0.0482111
0.0480996
0.0480476
0.0480233
0.0480142
0.0480139
0.0480136
0.0480154
0.0480156
0.0480178
0.0480175
0.0480144
0.0480146
0.0480121
0.0480124
0.0480131
0.0480211
0.0480457
0.0481073
0.0482001
0.0481673
0.0480803
0.0480397
0.04802
0.0480133
0.0480126
0.0480127
0.0480141
0.0480145
0.0480165
0.0480161
0.0480135
0.0480134
0.0480113
0.0480114
0.0480119
0.0480184
0.0480377
0.0480864
0.0481613
0.0481335
0.0480654
0.0480333
0.0480172
0.0480121
0.0480114
0.0480118
0.0480129
0.0480134
0.0480152
0.0480148
0.0480124
0.0480122
0.0480105
0.0480104
0.0480108
0.048016
0.0480313
0.0480698
0.0481307
0.0481122
0.0480559
0.0480291
0.0480154
0.0480113
0.0480105
0.048011
0.048012
0.0480126
0.0480144
0.0480139
0.0480117
0.0480114
0.0480099
0.0480097
0.04801
0.0480144
0.0480273
0.0480591
0.0481111
)
;

boundaryField
{
    fuel
    {
        type            fixedValue;
        value           nonuniform 0();
    }
    wall
    {
        type            zeroGradient;
    }
    outlet
    {
        type            zeroGradient;
    }
    frontAndBack
    {
        type            empty;
    }
    procBoundary1to0
    {
        type            processor;
        value           nonuniform List<scalar> 
21
(
0.0486949
0.0479927
0.0476059
0.0475182
0.0474157
0.0474772
0.047432
0.0474773
0.0474511
0.0474749
0.0476184
0.0476184
0.0476063
0.0476148
0.0475997
0.0476027
0.047608
0.0476169
0.047761
0.0479943
0.0483939
)
;
    }
}


// ************************************************************************* //
