/*--------------------------------*- C++ -*----------------------------------*\
| =========                 |                                                 |
| \\      /  F ield         | OpenFOAM: The Open Source CFD Toolbox           |
|  \\    /   O peration     | Version:  dev                                   |
|   \\  /    A nd           | Web:      www.OpenFOAM.org                      |
|    \\/     M anipulation  |                                                 |
\*---------------------------------------------------------------------------*/
FoamFile
{
    version     2.0;
    format      ascii;
    class       volScalarField;
    location    "0.1";
    object      n-C4H5;
}
// * * * * * * * * * * * * * * * * * * * * * * * * * * * * * * * * * * * * * //

dimensions      [0 0 0 0 0 0 0];

internalField   nonuniform List<scalar> 
250
(
1.81608e-11
1.65517e-11
1.5553e-11
1.66284e-11
1.56695e-11
1.68971e-11
1.60368e-11
1.68785e-11
1.63017e-11
1.67489e-11
2.23625e-11
2.19606e-11
2.09681e-11
2.3389e-11
2.17092e-11
2.40172e-11
2.24092e-11
2.39802e-11
2.289e-11
2.37295e-11
2.35554e-11
2.3086e-11
2.35426e-11
2.29769e-11
2.3023e-11
2.29153e-11
2.18183e-11
2.27807e-11
2.07861e-11
2.19447e-11
3.09507e-11
3.24729e-11
3.146e-11
3.60624e-11
3.32162e-11
3.72457e-11
3.44206e-11
3.71693e-11
3.52396e-11
3.67189e-11
3.6419e-11
3.55906e-11
3.64055e-11
3.54172e-11
3.54949e-11
3.53288e-11
3.33249e-11
3.4745e-11
3.04609e-11
3.14003e-11
4.71214e-11
5.19487e-11
5.09701e-11
5.89392e-11
5.43173e-11
6.0945e-11
5.62418e-11
6.07952e-11
5.75637e-11
6.00309e-11
5.95433e-11
5.82037e-11
5.95328e-11
5.78962e-11
5.80281e-11
5.78135e-11
5.44325e-11
5.65277e-11
4.86477e-11
4.90307e-11
7.6366e-11
8.676e-11
8.60579e-11
9.96235e-11
9.17405e-11
1.02058e-10
9.51663e-11
1.01783e-10
9.7292e-11
1.00547e-10
9.97909e-11
9.81096e-11
9.97921e-11
9.78755e-11
9.81032e-11
9.7223e-11
9.21505e-11
9.48707e-11
8.15778e-11
8.06782e-11
1.28858e-10
1.47521e-10
1.47728e-10
1.68394e-10
1.5676e-10
1.72259e-10
1.61553e-10
1.71782e-10
1.64662e-10
1.69842e-10
1.68699e-10
1.66033e-10
1.68715e-10
1.65697e-10
1.66012e-10
1.65025e-10
1.57245e-10
1.61069e-10
1.39744e-10
1.36224e-10
2.25256e-10
2.55378e-10
2.57652e-10
2.89367e-10
2.71785e-10
2.95416e-10
2.78617e-10
2.9459e-10
2.83246e-10
2.91468e-10
2.89694e-10
2.8548e-10
2.89737e-10
2.8514e-10
2.85532e-10
2.844e-10
2.72401e-10
2.77806e-10
2.43602e-10
2.35111e-10
4.08483e-10
4.63155e-10
4.69512e-10
5.21786e-10
4.92849e-10
5.31881e-10
5.03416e-10
5.30355e-10
5.10897e-10
5.24891e-10
5.21893e-10
5.14894e-10
5.22002e-10
5.14618e-10
5.15046e-10
5.13732e-10
4.93789e-10
5.02084e-10
4.43785e-10
4.25684e-10
8.22754e-10
9.29352e-10
9.44033e-10
1.04094e-09
9.86843e-10
1.05945e-09
1.00537e-09
1.05626e-09
1.019e-09
1.04551e-09
1.03983e-09
1.02709e-09
1.04013e-09
1.0271e-09
1.02738e-09
1.02599e-09
9.88816e-10
1.00329e-09
8.92947e-10
8.53857e-10
1.97218e-09
2.20052e-09
2.23627e-09
2.43063e-09
2.32024e-09
2.46584e-09
2.35472e-09
2.45826e-09
2.38144e-09
2.43535e-09
2.42348e-09
2.39958e-09
2.42446e-09
2.40092e-09
2.40002e-09
2.4003e-09
2.32543e-09
2.35325e-09
2.12505e-09
2.03342e-09
5.70959e-09
6.08924e-09
6.20978e-09
6.42639e-09
6.29321e-09
6.46e-09
6.31563e-09
6.44467e-09
6.34348e-09
6.4117e-09
6.39286e-09
6.37636e-09
6.39662e-09
6.38448e-09
6.37542e-09
6.39366e-09
6.30077e-09
6.33288e-09
5.99722e-09
5.79553e-09
1.59556e-08
1.55296e-08
1.60281e-08
1.52006e-08
1.55715e-08
1.50814e-08
1.53355e-08
1.50682e-08
1.52282e-08
1.51004e-08
1.50977e-08
1.52447e-08
1.51118e-08
1.52728e-08
1.52286e-08
1.53277e-08
1.5538e-08
1.54471e-08
1.59165e-08
1.57195e-08
3.83411e-08
3.44162e-08
3.61554e-08
3.20382e-08
3.39391e-08
3.15592e-08
3.29611e-08
3.15706e-08
3.24711e-08
3.17984e-08
3.18116e-08
3.24682e-08
3.18577e-08
3.25257e-08
3.23699e-08
3.26855e-08
3.37577e-08
3.33864e-08
3.64885e-08
3.69076e-08
)
;

boundaryField
{
    fuel
    {
        type            fixedValue;
        value           nonuniform 0();
    }
    wall
    {
        type            zeroGradient;
    }
    outlet
    {
        type            zeroGradient;
    }
    frontAndBack
    {
        type            empty;
    }
    procBoundary1to0
    {
        type            processor;
        value           nonuniform List<scalar> 
21
(
1.65768e-11
1.4023e-11
1.2978e-11
1.32094e-11
1.26932e-11
1.32508e-11
1.28411e-11
1.32411e-11
1.29697e-11
1.31839e-11
1.66542e-11
1.66542e-11
1.64033e-11
1.66423e-11
1.63386e-11
1.63659e-11
1.63125e-11
1.57878e-11
1.64648e-11
1.59033e-11
1.71515e-11
)
;
    }
}


// ************************************************************************* //
