/*--------------------------------*- C++ -*----------------------------------*\
| =========                 |                                                 |
| \\      /  F ield         | OpenFOAM: The Open Source CFD Toolbox           |
|  \\    /   O peration     | Version:  dev                                   |
|   \\  /    A nd           | Web:      www.OpenFOAM.org                      |
|    \\/     M anipulation  |                                                 |
\*---------------------------------------------------------------------------*/
FoamFile
{
    version     2.0;
    format      ascii;
    class       volScalarField;
    location    "0.1";
    object      OH;
}
// * * * * * * * * * * * * * * * * * * * * * * * * * * * * * * * * * * * * * //

dimensions      [0 0 0 0 0 0 0];

internalField   nonuniform List<scalar> 
250
(
3.34082e-06
3.66759e-06
3.41228e-06
3.54024e-06
3.30013e-06
3.28455e-06
3.26926e-06
3.20578e-06
3.25933e-06
3.18964e-06
2.463e-06
2.63987e-06
2.40565e-06
2.49503e-06
2.31276e-06
2.3015e-06
2.29019e-06
2.24212e-06
2.28351e-06
2.22967e-06
2.23384e-06
2.26915e-06
2.23608e-06
2.28106e-06
2.26036e-06
2.3398e-06
2.30639e-06
2.57438e-06
2.19262e-06
2.27817e-06
1.7257e-06
1.81105e-06
1.61915e-06
1.68016e-06
1.54874e-06
1.54149e-06
1.53357e-06
1.49905e-06
1.5294e-06
1.48989e-06
1.49195e-06
1.51803e-06
1.49343e-06
1.52606e-06
1.51129e-06
1.56887e-06
1.54549e-06
1.74619e-06
1.49776e-06
1.63e-06
1.14281e-06
1.1767e-06
1.03354e-06
1.07411e-06
9.83706e-07
9.80684e-07
9.75522e-07
9.52176e-07
9.73148e-07
9.45857e-07
9.46474e-07
9.63374e-07
9.45932e-07
9.69148e-07
9.59791e-07
9.99044e-07
9.83203e-07
1.12305e-06
9.69717e-07
1.09961e-06
7.09477e-07
7.17125e-07
6.19239e-07
6.41994e-07
5.84992e-07
5.80782e-07
5.77505e-07
5.62575e-07
5.76336e-07
5.58425e-07
5.60721e-07
5.73717e-07
5.61852e-07
5.76459e-07
5.673e-07
5.92101e-07
5.83038e-07
6.77894e-07
5.86234e-07
6.92809e-07
4.01622e-07
4.03562e-07
3.42613e-07
3.55854e-07
3.21688e-07
3.1997e-07
3.18117e-07
3.0939e-07
3.17641e-07
3.06908e-07
3.08159e-07
3.1543e-07
3.0806e-07
3.17275e-07
3.11908e-07
3.2645e-07
3.21101e-07
3.7803e-07
3.28135e-07
4.01726e-07
2.06481e-07
2.04331e-07
1.70356e-07
1.77386e-07
1.59079e-07
1.58374e-07
1.57404e-07
1.5278e-07
1.57275e-07
1.51416e-07
1.51884e-07
1.55842e-07
1.51762e-07
1.56763e-07
1.5397e-07
1.61735e-07
1.5883e-07
1.89671e-07
1.64892e-07
2.09117e-07
9.14327e-08
8.90931e-08
7.27757e-08
7.60371e-08
6.75557e-08
6.73043e-08
6.68486e-08
6.4722e-08
6.68519e-08
6.4069e-08
6.42239e-08
6.61329e-08
6.41792e-08
6.65104e-08
6.52009e-08
6.88276e-08
6.74281e-08
8.19275e-08
7.11123e-08
9.36572e-08
3.24645e-08
3.11523e-08
2.48854e-08
2.61118e-08
2.29537e-08
2.28881e-08
2.27111e-08
2.19269e-08
2.27371e-08
2.16765e-08
2.17241e-08
2.24645e-08
2.1711e-08
2.25871e-08
2.20773e-08
2.34481e-08
2.28914e-08
2.83831e-08
2.45108e-08
3.362e-08
8.38538e-09
7.9403e-09
6.2295e-09
6.56164e-09
5.71803e-09
5.70812e-09
5.65803e-09
5.45109e-09
5.6717e-09
5.3824e-09
5.39392e-09
5.59907e-09
5.39025e-09
5.62763e-09
5.48344e-09
5.85642e-09
5.69492e-09
7.18649e-09
6.17229e-09
8.76295e-09
1.39934e-09
1.30868e-09
1.01622e-09
1.07168e-09
9.29801e-10
9.29291e-10
9.20274e-10
8.85913e-10
9.23803e-10
8.74042e-10
8.75972e-10
9.1168e-10
8.75289e-10
9.15872e-10
8.9038e-10
9.54249e-10
9.25397e-10
1.17932e-09
1.01338e-09
1.46801e-09
1.31255e-10
1.22359e-10
9.73855e-11
1.0194e-10
8.98362e-11
8.98454e-11
8.90211e-11
8.60774e-11
8.942e-11
8.50145e-11
8.52126e-11
8.83746e-11
8.51622e-11
8.86942e-11
8.64524e-11
9.19783e-11
8.95023e-11
1.11107e-10
9.76705e-11
1.36521e-10
8.66659e-12
8.14716e-12
6.85309e-12
7.07548e-12
6.43206e-12
6.43144e-12
6.38301e-12
6.21989e-12
6.40963e-12
6.15578e-12
6.17223e-12
6.34703e-12
6.17248e-12
6.36049e-12
6.24728e-12
6.52935e-12
6.4308e-12
7.50043e-12
6.91892e-12
8.75601e-12
)
;

boundaryField
{
    fuel
    {
        type            fixedValue;
        value           nonuniform 0();
    }
    wall
    {
        type            zeroGradient;
    }
    outlet
    {
        type            zeroGradient;
    }
    frontAndBack
    {
        type            empty;
    }
    procBoundary1to0
    {
        type            processor;
        value           nonuniform List<scalar> 
21
(
4.32127e-06
4.87675e-06
4.64291e-06
4.82213e-06
4.52133e-06
4.50136e-06
4.4816e-06
4.40183e-06
4.46776e-06
4.38181e-06
3.19568e-06
3.19568e-06
3.24084e-06
3.19853e-06
3.25774e-06
3.23098e-06
3.3362e-06
3.28766e-06
3.62665e-06
3.05921e-06
3.02526e-06
)
;
    }
}


// ************************************************************************* //
