/*--------------------------------*- C++ -*----------------------------------*\
| =========                 |                                                 |
| \\      /  F ield         | OpenFOAM: The Open Source CFD Toolbox           |
|  \\    /   O peration     | Version:  dev                                   |
|   \\  /    A nd           | Web:      www.OpenFOAM.org                      |
|    \\/     M anipulation  |                                                 |
\*---------------------------------------------------------------------------*/
FoamFile
{
    version     2.0;
    format      ascii;
    class       volScalarField;
    location    "0.1";
    object      P2-;
}
// * * * * * * * * * * * * * * * * * * * * * * * * * * * * * * * * * * * * * //

dimensions      [0 0 0 0 0 0 0];

internalField   nonuniform List<scalar> 
250
(
3.07287e-12
2.31883e-12
1.74431e-12
1.64375e-12
1.53231e-12
1.51683e-12
1.51085e-12
1.49458e-12
1.51162e-12
1.49493e-12
2.33577e-12
1.78644e-12
1.35986e-12
1.29624e-12
1.20432e-12
1.19294e-12
1.18802e-12
1.17312e-12
1.18869e-12
1.17301e-12
1.17579e-12
1.18808e-12
1.17777e-12
1.1954e-12
1.1917e-12
1.22882e-12
1.24497e-12
1.44634e-12
1.59676e-12
2.8823e-12
1.70889e-12
1.32339e-12
1.01669e-12
9.79537e-13
9.07254e-13
8.99477e-13
8.95668e-13
8.82994e-13
8.9628e-13
8.82633e-13
8.84798e-13
8.95686e-13
8.86683e-13
9.01608e-13
8.98139e-13
9.28448e-13
9.36892e-13
1.0889e-12
1.16068e-12
1.95452e-12
1.20015e-12
9.4044e-13
7.2815e-13
7.08785e-13
6.54269e-13
6.4991e-13
6.47146e-13
6.37105e-13
6.47725e-13
6.36682e-13
6.3816e-13
6.46517e-13
6.39083e-13
6.51367e-13
6.48745e-13
6.7205e-13
6.75659e-13
7.85278e-13
8.13719e-13
1.29344e-12
8.06759e-13
6.38976e-13
4.98192e-13
4.8799e-13
4.49581e-13
4.45528e-13
4.43559e-13
4.35971e-13
4.44091e-13
4.35517e-13
4.37886e-13
4.45475e-13
4.39535e-13
4.48587e-13
4.44616e-13
4.61411e-13
4.62926e-13
5.40913e-13
5.45946e-13
8.30839e-13
5.10036e-13
4.1238e-13
3.23552e-13
3.19652e-13
2.93394e-13
2.91346e-13
2.90069e-13
2.84759e-13
2.90528e-13
2.8438e-13
2.86049e-13
2.91149e-13
2.86748e-13
2.93507e-13
2.90699e-13
3.02142e-13
3.0229e-13
3.53725e-13
3.50226e-13
5.13748e-13
3.04671e-13
2.49417e-13
1.96648e-13
1.95906e-13
1.79168e-13
1.7814e-13
1.77344e-13
1.73847e-13
1.7771e-13
1.73529e-13
1.74494e-13
1.77947e-13
1.74941e-13
1.79453e-13
1.77643e-13
1.85001e-13
1.84585e-13
2.16642e-13
2.10957e-13
3.01283e-13
1.66024e-13
1.37601e-13
1.08712e-13
1.09221e-13
9.94023e-14
9.89324e-14
9.84567e-14
9.63314e-14
9.87185e-14
9.60816e-14
9.6612e-14
9.88032e-14
9.6915e-14
9.96566e-14
9.85279e-14
1.02917e-13
1.02374e-13
1.20902e-13
1.15881e-13
1.6297e-13
7.85507e-14
6.58989e-14
5.19859e-14
5.26862e-14
4.76291e-14
4.74525e-14
4.71944e-14
4.60675e-14
4.73557e-14
4.59015e-14
4.61697e-14
4.73823e-14
4.63405e-14
4.77989e-14
4.71569e-14
4.94656e-14
4.90249e-14
5.84943e-14
5.51592e-14
7.73096e-14
3.00908e-14
2.55588e-14
2.01262e-14
2.05625e-14
1.84656e-14
1.84178e-14
1.83033e-14
1.78276e-14
1.83825e-14
1.77444e-14
1.7856e-14
1.83893e-14
1.79292e-14
1.85529e-14
1.8258e-14
1.92368e-14
1.89897e-14
2.29099e-14
2.12803e-14
2.9901e-14
8.48747e-15
7.26978e-15
5.69525e-15
5.85599e-15
5.21939e-15
5.21162e-15
5.17411e-15
5.02859e-15
5.20272e-15
4.99925e-15
5.03338e-15
5.20327e-15
5.05553e-15
5.24996e-15
5.15237e-15
5.45588e-15
5.36509e-15
6.55797e-15
6.02022e-15
8.53678e-15
1.49161e-15
1.28352e-15
1.00961e-15
1.03967e-15
9.26575e-16
9.25958e-16
9.18956e-16
8.93132e-16
9.24841e-16
8.8763e-16
8.93983e-16
9.2535e-16
8.98067e-16
9.33594e-16
9.15059e-16
9.70701e-16
9.5186e-16
1.16717e-15
1.06672e-15
1.51457e-15
2.95163e-16
2.56421e-16
2.07341e-16
2.12346e-16
1.9196e-16
1.91833e-16
1.90499e-16
1.858e-16
1.9169e-16
1.84795e-16
1.86145e-16
1.91927e-16
1.87058e-16
1.93472e-16
1.90369e-16
2.0008e-16
1.976e-16
2.34649e-16
2.19871e-16
2.95555e-16
)
;

boundaryField
{
    fuel
    {
        type            fixedValue;
        value           nonuniform 0();
    }
    wall
    {
        type            zeroGradient;
    }
    outlet
    {
        type            zeroGradient;
    }
    frontAndBack
    {
        type            empty;
    }
    procBoundary1to0
    {
        type            processor;
        value           nonuniform List<scalar> 
21
(
3.90275e-12
2.90185e-12
2.14831e-12
1.99915e-12
1.87002e-12
1.85006e-12
1.84317e-12
1.82682e-12
1.84418e-12
1.82789e-12
1.49786e-12
1.49786e-12
1.51056e-12
1.49956e-12
1.51916e-12
1.51594e-12
1.55933e-12
1.58592e-12
1.84448e-12
2.12175e-12
4.17236e-12
)
;
    }
}


// ************************************************************************* //
