/*--------------------------------*- C++ -*----------------------------------*\
| =========                 |                                                 |
| \\      /  F ield         | OpenFOAM: The Open Source CFD Toolbox           |
|  \\    /   O peration     | Version:  dev                                   |
|   \\  /    A nd           | Web:      www.OpenFOAM.org                      |
|    \\/     M anipulation  |                                                 |
\*---------------------------------------------------------------------------*/
FoamFile
{
    version     2.0;
    format      ascii;
    class       volVectorField;
    location    "0.1";
    object      U;
}
// * * * * * * * * * * * * * * * * * * * * * * * * * * * * * * * * * * * * * //

dimensions      [0 1 -1 0 0 0 0];

internalField   nonuniform List<vector> 
250
(
(0 2.04475 0.361158)
(0 1.62031 0.4727)
(0 1.4895 0.30814)
(0 1.18177 0.3263)
(0 1.09854 0.324984)
(0 0.760572 0.285814)
(0 0.722985 0.323078)
(0 0.385762 0.283392)
(0 0.330843 0.314174)
(0 0.0296715 0.290821)
(0 2.06702 0.336413)
(0 1.6282 0.434322)
(0 1.49942 0.283743)
(0 1.18791 0.29945)
(0 1.10417 0.299362)
(0 0.765908 0.262047)
(0 0.726067 0.297993)
(0 0.388839 0.259844)
(0 0.332128 0.289624)
(0 0.0301772 0.267048)
(0 -0.0585248 0.277347)
(0 -0.332117 0.274621)
(0 -0.451373 0.274401)
(0 -0.692035 0.276732)
(0 -0.842982 0.279729)
(0 -1.06227 0.271964)
(0 -1.22652 0.316585)
(0 -1.48503 0.266265)
(0 -1.63106 0.393117)
(0 -2.03613 0.339142)
(0 2.08375 0.30983)
(0 1.63247 0.395212)
(0 1.50587 0.258683)
(0 1.1911 0.272202)
(0 1.10748 0.273126)
(0 0.769345 0.237917)
(0 0.727649 0.272273)
(0 0.390954 0.235912)
(0 0.332801 0.264487)
(0 0.0305365 0.242849)
(0 -0.0581336 0.252697)
(0 -0.333119 0.250007)
(0 -0.452138 0.250027)
(0 -0.69404 0.251922)
(0 -0.845209 0.25505)
(0 -1.06532 0.247593)
(0 -1.23101 0.288796)
(0 -1.49038 0.241453)
(0 -1.63289 0.358681)
(0 -2.05008 0.311239)
(0 2.09438 0.281616)
(0 1.63281 0.35554)
(0 1.50863 0.233028)
(0 1.19122 0.244617)
(0 1.10828 0.246362)
(0 0.770812 0.213505)
(0 0.72762 0.24597)
(0 0.392078 0.211681)
(0 0.332817 0.238807)
(0 0.0307499 0.218306)
(0 -0.0574203 0.227625)
(0 -0.333395 0.224615)
(0 -0.451707 0.225248)
(0 -0.694426 0.226658)
(0 -0.845171 0.229915)
(0 -1.0659 0.222787)
(0 -1.23225 0.260437)
(0 -1.49208 0.216548)
(0 -1.63077 0.323405)
(0 -2.05793 0.282227)
(0 2.09837 0.251993)
(0 1.62892 0.315568)
(0 1.50746 0.206889)
(0 1.18816 0.216812)
(0 1.10644 0.219161)
(0 0.770256 0.188918)
(0 0.725876 0.21917)
(0 0.392196 0.187252)
(0 0.332133 0.21267)
(0 0.0308182 0.193516)
(0 -0.0563489 0.202227)
(0 -0.332906 0.199313)
(0 -0.450046 0.200156)
(0 -0.693112 0.201028)
(0 -0.842745 0.204414)
(0 -1.0639 0.197657)
(0 -1.23002 0.231612)
(0 -1.48997 0.191629)
(0 -1.62457 0.28746)
(0 -2.05946 0.252243)
(0 2.09526 0.221121)
(0 1.62052 0.275504)
(0 1.50216 0.180402)
(0 1.18186 0.188965)
(0 1.10181 0.191647)
(0 0.767644 0.164272)
(0 0.722317 0.192026)
(0 0.391305 0.162747)
(0 0.330708 0.186226)
(0 0.0307497 0.168596)
(0 -0.0549754 0.176616)
(0 -0.331619 0.174216)
(0 -0.447044 0.174861)
(0 -0.690038 0.175199)
(0 -0.837832 0.178697)
(0 -1.05926 0.17233)
(0 -1.22414 0.202477)
(0 -1.4839 0.16678)
(0 -1.61419 0.251048)
(0 -2.05441 0.221457)
(0 2.08469 0.189265)
(0 1.60744 0.23546)
(0 1.49262 0.153731)
(0 1.1723 0.161212)
(0 1.09429 0.163982)
(0 0.762977 0.139703)
(0 0.716867 0.164681)
(0 0.389423 0.138318)
(0 0.328507 0.159613)
(0 0.0305584 0.143688)
(0 -0.0532775 0.150924)
(0 -0.329513 0.148714)
(0 -0.442698 0.149491)
(0 -0.685173 0.149343)
(0 -0.830367 0.152898)
(0 -1.05194 0.14695)
(0 -1.21447 0.1732)
(0 -1.47374 0.142095)
(0 -1.59957 0.21441)
(0 -2.04263 0.190084)
(0 2.06645 0.156952)
(0 1.58962 0.195667)
(0 1.47879 0.127093)
(0 1.15954 0.133692)
(0 1.08388 0.136352)
(0 0.756307 0.115375)
(0 0.709488 0.137277)
(0 0.386593 0.114138)
(0 0.325508 0.132961)
(0 0.0302623 0.118957)
(0 -0.0512625 0.125316)
(0 -0.326583 0.123228)
(0 -0.437017 0.124206)
(0 -0.678533 0.123621)
(0 -0.820346 0.127147)
(0 -1.04196 0.121688)
(0 -1.20099 0.143959)
(0 -1.45949 0.117692)
(0 -1.58074 0.177828)
(0 -2.02403 0.158386)
(0 2.04059 0.124709)
(0 1.56725 0.15646)
(0 1.46088 0.100755)
(0 1.14375 0.106591)
(0 1.07071 0.108963)
(0 0.74775 0.0914827)
(0 0.700219 0.110001)
(0 0.382899 0.0904129)
(0 0.321717 0.10645)
(0 0.0298851 0.0945927)
(0 -0.0489672 0.0999831)
(0 -0.322859 0.0980431)
(0 -0.430061 0.0991886)
(0 -0.670205 0.0982411)
(0 -0.807877 0.101621)
(0 -1.02948 0.0967476)
(0 -1.18383 0.114981)
(0 -1.44128 0.0937117)
(0 -1.55791 0.141629)
(0 -1.99876 0.126679)
(0 2.00763 0.0929979)
(0 1.54085 0.118175)
(0 1.43942 0.0750453)
(0 1.12531 0.0801299)
(0 1.05516 0.0820772)
(0 0.737526 0.0682567)
(0 0.689249 0.0831002)
(0 0.378477 0.0673851)
(0 0.317195 0.0803193)
(0 0.0294569 0.0708281)
(0 -0.0464641 0.0751596)
(0 -0.318428 0.0734123)
(0 -0.421991 0.0746625)
(0 -0.66041 0.0734655)
(0 -0.793258 0.0765545)
(0 -1.01479 0.0723854)
(0 -1.16337 0.0865453)
(0 -1.41956 0.0703308)
(0 -1.53162 0.106201)
(0 -1.96735 0.0953402)
(0 1.96899 0.0625336)
(0 1.51159 0.0813298)
(0 1.41562 0.0504862)
(0 1.10492 0.0546871)
(0 1.03808 0.0561483)
(0 0.726051 0.0460815)
(0 0.677077 0.057022)
(0 0.373554 0.0454522)
(0 0.312124 0.055007)
(0 0.0290161 0.0480644)
(0 -0.0438816 0.0512603)
(0 -0.313481 0.0497706)
(0 -0.413162 0.0510278)
(0 -0.649602 0.0497342)
(0 -0.777148 0.0523604)
(0 -0.99858 0.0490346)
(0 -1.14055 0.0591388)
(0 -1.39529 0.0478888)
(0 -1.50304 0.072178)
(0 -1.93114 0.0649772)
(0 1.92803 0.0347487)
(0 1.48196 0.0470892)
(0 1.39189 0.0281506)
(0 1.0841 0.0311681)
(0 1.02127 0.032169)
(0 0.714202 0.0258343)
(0 0.664867 0.0327689)
(0 0.368544 0.0254843)
(0 0.30696 0.0315)
(0 0.0286137 0.0271919)
(0 -0.0414421 0.0292081)
(0 -0.308438 0.0280781)
(0 -0.404333 0.0291781)
(0 -0.638723 0.0280087)
(0 -0.760949 0.029964)
(0 -0.982238 0.0276402)
(0 -1.11736 0.0338173)
(0 -1.37063 0.0272172)
(0 -1.47465 0.0409213)
(0 -1.89321 0.0368735)
(0 1.89306 0.0126773)
(0 1.45781 0.0172538)
(0 1.37338 0.0103438)
(0 1.06666 0.0112)
(0 1.00839 0.0119184)
(0 0.704201 0.00924204)
(0 0.655296 0.0120613)
(0 0.364386 0.00917043)
(0 0.302825 0.0115237)
(0 0.0283288 0.00986227)
(0 -0.0395771 0.0106396)
(0 -0.304298 0.0101699)
(0 -0.397254 0.0106548)
(0 -0.62993 0.0101289)
(0 -0.747905 0.0109653)
(0 -0.969022 0.00999422)
(0 -1.0985 0.0124057)
(0 -1.35057 0.00990298)
(0 -1.45207 0.015)
(0 -1.86124 0.0134717)
)
;

boundaryField
{
    fuel
    {
        type            fixedValue;
        value           nonuniform 0();
    }
    wall
    {
        type            slip;
    }
    outlet
    {
        type            pressureInletOutletVelocity;
        value           nonuniform List<vector> 
25
(
(0 2.04475 0.361158)
(0 2.06702 0.336413)
(0 2.08375 0.30983)
(0 2.09438 0.281616)
(0 2.09837 0.251993)
(0 2.09526 0.221121)
(0 2.08469 0.189265)
(0 2.06645 0.156952)
(0 2.04059 0.124709)
(0 2.00763 0.0929979)
(0 1.96899 0.0625336)
(0 1.92803 0.0347487)
(0 1.89306 0.0126773)
(0 -2.03613 0.339142)
(0 -2.05008 0.311239)
(0 -2.05793 0.282227)
(0 -2.05946 0.252243)
(0 -2.05441 0.221457)
(0 -2.04263 0.190084)
(0 -2.02403 0.158386)
(0 -1.99876 0.126679)
(0 -1.96735 0.0953402)
(0 -1.93114 0.0649772)
(0 -1.89321 0.0368735)
(0 -1.86124 0.0134717)
)
;
    }
    frontAndBack
    {
        type            empty;
    }
    procBoundary1to0
    {
        type            processor;
        value           nonuniform List<vector> 
21
(
(0 2.01755 0.383919)
(0 1.60911 0.510218)
(0 1.47639 0.331836)
(0 1.1728 0.352681)
(0 1.09073 0.349924)
(0 0.753417 0.309152)
(0 0.718511 0.347476)
(0 0.381756 0.306489)
(0 0.328984 0.338087)
(0 0.0290199 0.3141)
(0 -0.0586168 0.3015)
(0 -0.0586168 0.3015)
(0 -0.330432 0.298653)
(0 -0.449466 0.298294)
(0 -0.688499 0.301027)
(0 -0.838624 0.303905)
(0 -1.05685 0.295813)
(0 -1.21901 0.343731)
(0 -1.47623 0.290921)
(0 -1.62536 0.426571)
(0 -2.01637 0.365836)
)
;
    }
}


// ************************************************************************* //
