/*--------------------------------*- C++ -*----------------------------------*\
| =========                 |                                                 |
| \\      /  F ield         | OpenFOAM: The Open Source CFD Toolbox           |
|  \\    /   O peration     | Version:  dev                                   |
|   \\  /    A nd           | Web:      www.OpenFOAM.org                      |
|    \\/     M anipulation  |                                                 |
\*---------------------------------------------------------------------------*/
FoamFile
{
    version     2.0;
    format      ascii;
    class       volScalarField;
    location    "0.115";
    object      A1C2H3*;
}
// * * * * * * * * * * * * * * * * * * * * * * * * * * * * * * * * * * * * * //

dimensions      [0 0 0 0 0 0 0];

internalField   nonuniform List<scalar> 
50
(
2.70074e-19
2.36668e-19
2.07398e-19
1.81831e-19
1.59533e-19
1.40098e-19
1.23156e-19
1.08379e-19
9.54784e-20
8.42038e-20
7.43381e-20
6.56942e-20
5.81106e-20
5.14486e-20
4.55887e-20
4.04279e-20
3.58774e-20
3.18606e-20
2.83112e-20
2.51718e-20
2.23927e-20
1.99305e-20
1.77475e-20
1.58109e-20
1.40918e-20
1.25651e-20
1.12086e-20
1.00028e-20
8.93066e-21
7.97702e-21
7.12855e-21
6.37343e-21
5.70123e-21
5.10268e-21
4.56958e-21
4.09465e-21
3.67143e-21
3.29418e-21
2.95781e-21
2.65778e-21
2.39009e-21
2.15114e-21
1.93776e-21
1.74713e-21
1.57673e-21
1.42604e-21
1.28997e-21
1.16774e-21
1.05805e-21
9.59394e-22
)
;

boundaryField
{
    wall
    {
        type            zeroGradient;
    }
    fuel
    {
        type            fixedValue;
        value           nonuniform 0();
    }
    outlet
    {
        type            inletOutlet;
        inletValue      nonuniform 0();
        value           nonuniform 0();
    }
    procBoundary1to0
    {
        type            processor;
        value           uniform 3.10592e-19;
    }
    procBoundary1to2
    {
        type            processor;
        value           uniform 8.71408e-22;
    }
}


// ************************************************************************* //
