/*--------------------------------*- C++ -*----------------------------------*\
| =========                 |                                                 |
| \\      /  F ield         | OpenFOAM: The Open Source CFD Toolbox           |
|  \\    /   O peration     | Version:  dev                                   |
|   \\  /    A nd           | Web:      www.OpenFOAM.org                      |
|    \\/     M anipulation  |                                                 |
\*---------------------------------------------------------------------------*/
FoamFile
{
    version     2.0;
    format      ascii;
    class       volScalarField;
    location    "0.115";
    object      A1C2H-;
}
// * * * * * * * * * * * * * * * * * * * * * * * * * * * * * * * * * * * * * //

dimensions      [0 0 0 0 0 0 0];

internalField   nonuniform List<scalar> 
250
(
1.57963e-09
1.36321e-09
1.18194e-09
1.11387e-09
1.05699e-09
1.04534e-09
1.0442e-09
1.03199e-09
1.03984e-09
1.03194e-09
1.19811e-09
1.04017e-09
9.11381e-10
8.62719e-10
8.17383e-10
8.08156e-10
8.0774e-10
7.96877e-10
8.03934e-10
7.9673e-10
7.90409e-10
8.1293e-10
7.83614e-10
8.2967e-10
7.78686e-10
8.78579e-10
7.94048e-10
1.04844e-09
9.70337e-10
2.0932e-09
8.79833e-10
7.67078e-10
6.77686e-10
6.44157e-10
6.0945e-10
6.02243e-10
6.02522e-10
5.93234e-10
5.99443e-10
5.93048e-10
5.87904e-10
6.06893e-10
5.8234e-10
6.20434e-10
5.78281e-10
6.5924e-10
5.88317e-10
7.88511e-10
7.05609e-10
1.43401e-09
6.23352e-10
5.44959e-10
4.8458e-10
4.62533e-10
4.37078e-10
4.31349e-10
4.32361e-10
4.24551e-10
4.301e-10
4.24363e-10
4.20374e-10
4.35877e-10
4.16021e-10
4.46237e-10
4.12844e-10
4.75297e-10
4.19038e-10
5.70141e-10
4.95859e-10
9.56328e-10
4.23641e-10
3.70699e-10
3.31233e-10
3.16063e-10
2.98004e-10
2.95063e-10
2.94448e-10
2.90245e-10
2.93051e-10
2.90089e-10
2.87144e-10
2.97146e-10
2.83879e-10
3.0484e-10
2.81509e-10
3.27372e-10
2.85066e-10
3.94203e-10
3.31884e-10
6.18089e-10
2.71513e-10
2.38873e-10
2.14063e-10
2.04766e-10
1.92709e-10
1.90588e-10
1.90414e-10
1.87379e-10
1.89627e-10
1.87249e-10
1.85194e-10
1.92378e-10
1.82882e-10
1.97646e-10
1.81214e-10
2.13042e-10
1.83076e-10
2.57932e-10
2.11841e-10
3.84027e-10
1.62806e-10
1.43068e-10
1.28386e-10
1.23003e-10
1.15475e-10
1.14052e-10
1.14094e-10
1.12064e-10
1.13678e-10
1.11961e-10
1.10628e-10
1.15437e-10
1.09106e-10
1.18785e-10
1.08013e-10
1.28567e-10
1.08891e-10
1.56845e-10
1.2568e-10
2.22359e-10
8.83534e-11
7.7369e-11
6.94166e-11
6.65638e-11
6.23033e-11
6.1453e-11
6.15554e-11
6.03338e-11
6.13446e-11
6.02623e-11
5.94816e-11
6.23896e-11
5.85773e-11
6.43082e-11
5.7931e-11
6.99162e-11
5.82899e-11
8.61239e-11
6.72947e-11
1.19018e-10
4.17893e-11
3.64858e-11
3.27652e-11
3.14498e-11
2.9391e-11
2.89641e-11
2.90453e-11
2.84234e-11
2.8948e-11
2.83828e-11
2.79951e-11
2.94842e-11
2.75392e-11
3.042e-11
2.72158e-11
3.31594e-11
2.73392e-11
4.11472e-11
3.15259e-11
5.58772e-11
1.78006e-11
1.57641e-11
1.4371e-11
1.38802e-11
1.31085e-11
1.29448e-11
1.29809e-11
1.27434e-11
1.29469e-11
1.27263e-11
1.25821e-11
1.31502e-11
1.24104e-11
1.34955e-11
1.22932e-11
1.45206e-11
1.23457e-11
1.75862e-11
1.39155e-11
2.2953e-11
1.08552e-11
1.01128e-11
9.56598e-12
9.37689e-12
9.09708e-12
9.03999e-12
9.0454e-12
8.96825e-12
9.04059e-12
8.95835e-12
8.91725e-12
9.08947e-12
8.86847e-12
9.18932e-12
8.84415e-12
9.51418e-12
8.90729e-12
1.0532e-11
9.55748e-12
1.227e-11
1.2228e-11
1.13872e-11
1.07301e-11
1.05135e-11
1.01649e-11
1.00976e-11
1.01014e-11
1.00002e-11
1.01013e-11
9.97788e-12
9.93428e-12
1.01512e-11
9.88179e-12
1.02556e-11
9.86165e-12
1.06131e-11
9.94792e-12
1.17329e-11
1.07494e-11
1.34823e-11
1.06823e-11
9.67668e-12
8.93092e-12
8.6978e-12
8.29529e-12
8.22129e-12
8.22644e-12
8.10254e-12
8.22796e-12
8.07044e-12
8.02345e-12
8.28859e-12
7.96572e-12
8.40299e-12
7.94596e-12
8.80674e-12
8.0285e-12
1.01329e-11
8.88493e-12
1.2285e-11
)
;

boundaryField
{
    fuel
    {
        type            fixedValue;
        value           nonuniform 0();
    }
    wall
    {
        type            zeroGradient;
    }
    outlet
    {
        type            zeroGradient;
    }
    frontAndBack
    {
        type            empty;
    }
    procBoundary1to0
    {
        type            processor;
        value           nonuniform List<scalar> 
21
(
2.0225e-09
1.73112e-09
1.48069e-09
1.38842e-09
1.31961e-09
1.30533e-09
1.30341e-09
1.29037e-09
1.29875e-09
1.29051e-09
1.02455e-09
1.02455e-09
1.05007e-09
1.01665e-09
1.06962e-09
1.01097e-09
1.1281e-09
1.0334e-09
1.34418e-09
1.29292e-09
2.98104e-09
)
;
    }
}


// ************************************************************************* //
