/*--------------------------------*- C++ -*----------------------------------*\
| =========                 |                                                 |
| \\      /  F ield         | OpenFOAM: The Open Source CFD Toolbox           |
|  \\    /   O peration     | Version:  dev                                   |
|   \\  /    A nd           | Web:      www.OpenFOAM.org                      |
|    \\/     M anipulation  |                                                 |
\*---------------------------------------------------------------------------*/
FoamFile
{
    version     2.0;
    format      ascii;
    class       volScalarField;
    location    "0.115";
    object      A2R5;
}
// * * * * * * * * * * * * * * * * * * * * * * * * * * * * * * * * * * * * * //

dimensions      [0 0 0 0 0 0 0];

internalField   nonuniform List<scalar> 
250
(
1.38229e-07
8.69739e-08
6.77146e-08
6.08253e-08
5.90036e-08
5.865e-08
5.85061e-08
5.86005e-08
5.8517e-08
5.85916e-08
1.26759e-07
8.34712e-08
6.70831e-08
6.10806e-08
5.94572e-08
5.91597e-08
5.9017e-08
5.91139e-08
5.90348e-08
5.91097e-08
5.91015e-08
5.90803e-08
5.91039e-08
5.90885e-08
5.91491e-08
5.95405e-08
6.09852e-08
6.55212e-08
7.84745e-08
9.72786e-08
1.16457e-07
8.02987e-08
6.64962e-08
6.13102e-08
5.988e-08
5.96245e-08
5.94906e-08
5.95819e-08
5.95118e-08
5.95823e-08
5.95724e-08
5.95525e-08
5.95716e-08
5.95583e-08
5.96134e-08
5.99695e-08
6.12584e-08
6.52919e-08
7.67601e-08
9.3893e-08
1.07313e-07
7.74342e-08
6.59324e-08
6.14926e-08
6.02475e-08
6.00239e-08
5.99034e-08
5.99843e-08
5.99261e-08
5.99893e-08
5.99792e-08
5.99609e-08
5.99753e-08
5.99643e-08
6.00136e-08
6.03336e-08
6.14774e-08
6.50319e-08
7.51384e-08
9.06001e-08
9.92858e-08
7.48599e-08
6.53814e-08
6.16196e-08
6.05505e-08
6.03486e-08
6.02493e-08
6.0312e-08
6.02666e-08
6.0321e-08
6.03121e-08
6.02954e-08
6.03051e-08
6.02966e-08
6.03455e-08
6.06288e-08
6.16325e-08
6.4731e-08
7.35756e-08
8.73784e-08
9.21171e-08
7.25605e-08
6.48409e-08
6.1686e-08
6.07789e-08
6.05976e-08
6.05153e-08
6.05641e-08
6.05313e-08
6.05767e-08
6.05695e-08
6.05543e-08
6.05598e-08
6.05533e-08
6.05964e-08
6.08444e-08
6.17192e-08
6.43892e-08
7.20161e-08
8.41426e-08
8.6039e-08
7.0524e-08
6.43138e-08
6.16981e-08
6.09387e-08
6.07755e-08
6.07096e-08
6.07453e-08
6.0724e-08
6.07607e-08
6.07556e-08
6.07417e-08
6.07435e-08
6.07385e-08
6.07761e-08
6.09902e-08
6.17438e-08
6.40142e-08
7.05343e-08
8.10635e-08
8.08762e-08
6.87391e-08
6.38063e-08
6.16643e-08
6.10368e-08
6.08903e-08
6.08393e-08
6.08637e-08
6.08522e-08
6.08813e-08
6.08783e-08
6.08655e-08
6.08642e-08
6.08602e-08
6.08926e-08
6.10747e-08
6.17152e-08
6.36182e-08
6.91064e-08
7.80996e-08
7.6558e-08
6.71965e-08
6.33271e-08
6.15951e-08
6.10831e-08
6.09529e-08
6.09146e-08
6.093e-08
6.09262e-08
6.09491e-08
6.09478e-08
6.09359e-08
6.09322e-08
6.09288e-08
6.09563e-08
6.11091e-08
6.16456e-08
6.32167e-08
6.77547e-08
7.53008e-08
7.30103e-08
6.58902e-08
6.28876e-08
6.15036e-08
6.10898e-08
6.09757e-08
6.09476e-08
6.09566e-08
6.09583e-08
6.09766e-08
6.09768e-08
6.09654e-08
6.096e-08
6.09568e-08
6.09798e-08
6.11064e-08
6.15494e-08
6.28282e-08
6.6511e-08
7.27315e-08
7.01867e-08
6.48221e-08
6.25032e-08
6.14049e-08
6.10714e-08
6.09728e-08
6.09522e-08
6.09574e-08
6.09624e-08
6.09779e-08
6.09789e-08
6.09679e-08
6.09612e-08
6.0958e-08
6.09771e-08
6.10813e-08
6.14434e-08
6.24747e-08
6.5417e-08
7.04736e-08
6.80841e-08
6.40081e-08
6.21944e-08
6.13151e-08
6.10429e-08
6.09579e-08
6.09424e-08
6.09458e-08
6.09526e-08
6.09664e-08
6.09679e-08
6.09571e-08
6.09497e-08
6.09463e-08
6.09622e-08
6.10487e-08
6.13458e-08
6.21826e-08
6.45305e-08
6.86427e-08
6.67938e-08
6.34995e-08
6.19948e-08
6.12531e-08
6.10192e-08
6.09436e-08
6.0931e-08
6.09339e-08
6.09415e-08
6.09545e-08
6.09562e-08
6.09454e-08
6.09376e-08
6.09342e-08
6.09479e-08
6.10229e-08
6.12779e-08
6.19901e-08
6.39504e-08
6.74429e-08
)
;

boundaryField
{
    fuel
    {
        type            fixedValue;
        value           nonuniform 0();
    }
    wall
    {
        type            zeroGradient;
    }
    outlet
    {
        type            zeroGradient;
    }
    frontAndBack
    {
        type            empty;
    }
    procBoundary1to0
    {
        type            processor;
        value           nonuniform List<scalar> 
21
(
1.5085e-07
9.08291e-08
6.84249e-08
6.05788e-08
5.85565e-08
5.81284e-08
5.79937e-08
5.80743e-08
5.79935e-08
5.80615e-08
5.85877e-08
5.85877e-08
5.85656e-08
5.85931e-08
5.85764e-08
5.86421e-08
5.90678e-08
6.06816e-08
6.5745e-08
8.03424e-08
1.00815e-07
)
;
    }
}


// ************************************************************************* //
