/*--------------------------------*- C++ -*----------------------------------*\
| =========                 |                                                 |
| \\      /  F ield         | OpenFOAM: The Open Source CFD Toolbox           |
|  \\    /   O peration     | Version:  dev                                   |
|   \\  /    A nd           | Web:      www.OpenFOAM.org                      |
|    \\/     M anipulation  |                                                 |
\*---------------------------------------------------------------------------*/
FoamFile
{
    version     2.0;
    format      ascii;
    class       volScalarField;
    location    "0.115";
    object      A4-;
}
// * * * * * * * * * * * * * * * * * * * * * * * * * * * * * * * * * * * * * //

dimensions      [0 0 0 0 0 0 0];

internalField   nonuniform List<scalar> 
50
(
3.29441e-16
2.73571e-16
2.27023e-16
1.88435e-16
1.56543e-16
1.30228e-16
1.0853e-16
9.06364e-17
7.58701e-17
6.36701e-17
5.35745e-17
4.52041e-17
3.82488e-17
3.2455e-17
2.7616e-17
2.35631e-17
2.01586e-17
1.72902e-17
1.48662e-17
1.28114e-17
1.10645e-17
9.57496e-18
8.30138e-18
7.20954e-18
6.27117e-18
5.46281e-18
4.76495e-18
4.16128e-18
3.63816e-18
3.1841e-18
2.78939e-18
2.44583e-18
2.14643e-18
1.88524e-18
1.65717e-18
1.45784e-18
1.2835e-18
1.1309e-18
9.97259e-19
8.80138e-19
7.7744e-19
6.87338e-19
6.08242e-19
5.38767e-19
4.77701e-19
4.24592e-19
3.77442e-19
3.35802e-19
2.99085e-19
2.66671e-19
)
;

boundaryField
{
    wall
    {
        type            zeroGradient;
    }
    fuel
    {
        type            fixedValue;
        value           nonuniform 0();
    }
    outlet
    {
        type            inletOutlet;
        inletValue      nonuniform 0();
        value           nonuniform 0();
    }
    procBoundary1to0
    {
        type            processor;
        value           uniform 4.06373e-16;
    }
    procBoundary1to2
    {
        type            processor;
        value           uniform 2.38056e-19;
    }
}


// ************************************************************************* //
