/*--------------------------------*- C++ -*----------------------------------*\
| =========                 |                                                 |
| \\      /  F ield         | OpenFOAM: The Open Source CFD Toolbox           |
|  \\    /   O peration     | Version:  dev                                   |
|   \\  /    A nd           | Web:      www.OpenFOAM.org                      |
|    \\/     M anipulation  |                                                 |
\*---------------------------------------------------------------------------*/
FoamFile
{
    version     2.0;
    format      ascii;
    class       volScalarField;
    location    "0.115";
    object      c-C6H4;
}
// * * * * * * * * * * * * * * * * * * * * * * * * * * * * * * * * * * * * * //

dimensions      [0 0 0 0 0 0 0];

internalField   nonuniform List<scalar> 
50
(
1.29613e-15
1.1295e-15
9.88572e-16
8.68194e-16
7.64599e-16
6.74933e-16
5.96976e-16
5.28952e-16
4.69417e-16
4.17176e-16
3.71233e-16
3.30744e-16
2.94995e-16
2.63376e-16
2.35365e-16
2.10514e-16
1.88434e-16
1.68791e-16
1.51296e-16
1.35696e-16
1.21773e-16
1.09334e-16
9.82135e-17
8.82633e-17
7.93548e-17
7.13745e-17
6.4222e-17
5.78087e-17
5.2056e-17
4.6894e-17
4.22606e-17
3.81006e-17
3.43647e-17
3.10088e-17
2.79936e-17
2.52838e-17
2.2848e-17
2.0658e-17
1.86885e-17
1.69169e-17
1.53227e-17
1.3888e-17
1.25962e-17
1.14328e-17
1.03845e-17
9.45019e-18
8.6003e-18
7.83146e-18
7.13708e-18
6.5092e-18
)
;

boundaryField
{
    wall
    {
        type            zeroGradient;
    }
    fuel
    {
        type            fixedValue;
        value           nonuniform 0();
    }
    outlet
    {
        type            inletOutlet;
        inletValue      nonuniform 0();
        value           nonuniform 0();
    }
    procBoundary1to0
    {
        type            processor;
        value           uniform 1.50658e-15;
    }
    procBoundary1to2
    {
        type            processor;
        value           uniform 5.94232e-18;
    }
}


// ************************************************************************* //
