/*--------------------------------*- C++ -*----------------------------------*\
| =========                 |                                                 |
| \\      /  F ield         | OpenFOAM: The Open Source CFD Toolbox           |
|  \\    /   O peration     | Version:  dev                                   |
|   \\  /    A nd           | Web:      www.OpenFOAM.org                      |
|    \\/     M anipulation  |                                                 |
\*---------------------------------------------------------------------------*/
FoamFile
{
    version     2.0;
    format      ascii;
    class       volScalarField;
    location    "0.115";
    object      C2O;
}
// * * * * * * * * * * * * * * * * * * * * * * * * * * * * * * * * * * * * * //

dimensions      [0 0 0 0 0 0 0];

internalField   nonuniform List<scalar> 
250
(
2.14407e-08
2.11868e-08
1.99061e-08
1.9213e-08
1.81613e-08
1.79625e-08
1.79437e-08
1.76679e-08
1.78447e-08
1.76557e-08
1.66109e-08
1.58729e-08
1.46882e-08
1.41223e-08
1.33565e-08
1.32067e-08
1.32005e-08
1.29954e-08
1.31284e-08
1.29864e-08
1.28735e-08
1.32935e-08
1.27564e-08
1.36125e-08
1.26693e-08
1.45334e-08
1.2858e-08
1.72266e-08
1.42829e-08
2.02987e-08
1.26363e-08
1.17576e-08
1.07608e-08
1.03239e-08
9.78003e-09
9.6674e-09
9.67095e-09
9.52e-09
9.62081e-09
9.51338e-09
9.43359e-09
9.73915e-09
9.34911e-09
9.95838e-09
9.28842e-09
1.05912e-08
9.43404e-09
1.25419e-08
1.06299e-08
1.53876e-08
9.45909e-09
8.62746e-09
7.84118e-09
7.51964e-09
7.14018e-09
7.0525e-09
7.06564e-09
6.95188e-09
7.03284e-09
6.94701e-09
6.8912e-09
7.11502e-09
6.83075e-09
7.26303e-09
6.78855e-09
7.68747e-09
6.89481e-09
9.06761e-09
7.84298e-09
1.14587e-08
6.95891e-09
6.25526e-09
5.66415e-09
5.41674e-09
5.15206e-09
5.10472e-09
5.09505e-09
5.03719e-09
5.07604e-09
5.03383e-09
4.99472e-09
5.13094e-09
4.95111e-09
5.23292e-09
4.92139e-09
5.54104e-09
4.99536e-09
6.50131e-09
5.68333e-09
8.37342e-09
4.98329e-09
4.45359e-09
4.02633e-09
3.85355e-09
3.67331e-09
3.6378e-09
3.63453e-09
3.59324e-09
3.6239e-09
3.59086e-09
3.56356e-09
3.66063e-09
3.53235e-09
3.72897e-09
3.51133e-09
3.93593e-09
3.56055e-09
4.59306e-09
4.06059e-09
5.98461e-09
3.48917e-09
3.10022e-09
2.80543e-09
2.68829e-09
2.5698e-09
2.54454e-09
2.54447e-09
2.51622e-09
2.53866e-09
2.51466e-09
2.49619e-09
2.56297e-09
2.4746e-09
2.6073e-09
2.46012e-09
2.74196e-09
2.49192e-09
3.17759e-09
2.83947e-09
4.12636e-09
2.40318e-09
2.13219e-09
1.93769e-09
1.86102e-09
1.78752e-09
1.77082e-09
1.77183e-09
1.75395e-09
1.76873e-09
1.75307e-09
1.74137e-09
1.78405e-09
1.72737e-09
1.81092e-09
1.71806e-09
1.89324e-09
1.73856e-09
2.16705e-09
1.96939e-09
2.79921e-09
1.6798e-09
1.49791e-09
1.37333e-09
1.32417e-09
1.28132e-09
1.27102e-09
1.27197e-09
1.26175e-09
1.2705e-09
1.26134e-09
1.25457e-09
1.2792e-09
1.24626e-09
1.29396e-09
1.24091e-09
1.34042e-09
1.25474e-09
1.50249e-09
1.40349e-09
1.90522e-09
1.25134e-09
1.12942e-09
1.04885e-09
1.01699e-09
9.92851e-10
9.86782e-10
9.87272e-10
9.82032e-10
9.86811e-10
9.81859e-10
9.78347e-10
9.9093e-10
9.7391e-10
9.98011e-10
9.7136e-10
1.0222e-09
9.81645e-10
1.11435e-09
1.07808e-09
1.36699e-09
1.03396e-09
9.48653e-10
8.93372e-10
8.71699e-10
8.57579e-10
8.53965e-10
8.53988e-10
8.51523e-10
8.54159e-10
8.5137e-10
8.49764e-10
8.55416e-10
8.4767e-10
8.58152e-10
8.46901e-10
8.70032e-10
8.55486e-10
9.22918e-10
9.21499e-10
1.08566e-09
9.45987e-10
8.80763e-10
8.38551e-10
8.22391e-10
8.12592e-10
8.10176e-10
8.09892e-10
8.0858e-10
8.10431e-10
8.08299e-10
8.07611e-10
8.10194e-10
8.06688e-10
8.10893e-10
8.06872e-10
8.17134e-10
8.14676e-10
8.51129e-10
8.64888e-10
9.64757e-10
9.16102e-10
8.60661e-10
8.24661e-10
8.11169e-10
8.02964e-10
8.01041e-10
8.00619e-10
7.99652e-10
8.01341e-10
7.99238e-10
7.9891e-10
8.00474e-10
7.98455e-10
8.00387e-10
7.9904e-10
8.04427e-10
8.0645e-10
8.30359e-10
8.49275e-10
9.1991e-10
)
;

boundaryField
{
    fuel
    {
        type            fixedValue;
        value           nonuniform 0();
    }
    wall
    {
        type            zeroGradient;
    }
    outlet
    {
        type            zeroGradient;
    }
    frontAndBack
    {
        type            empty;
    }
    procBoundary1to0
    {
        type            processor;
        value           nonuniform List<scalar> 
21
(
2.7057e-08
2.78316e-08
2.66672e-08
2.58733e-08
2.44792e-08
2.42199e-08
2.41855e-08
2.38245e-08
2.4054e-08
2.38093e-08
1.74991e-08
1.74991e-08
1.80713e-08
1.73391e-08
1.85243e-08
1.72167e-08
1.98211e-08
1.74571e-08
2.33913e-08
1.9049e-08
2.62214e-08
)
;
    }
}


// ************************************************************************* //
