/*--------------------------------*- C++ -*----------------------------------*\
| =========                 |                                                 |
| \\      /  F ield         | OpenFOAM: The Open Source CFD Toolbox           |
|  \\    /   O peration     | Version:  dev                                   |
|   \\  /    A nd           | Web:      www.OpenFOAM.org                      |
|    \\/     M anipulation  |                                                 |
\*---------------------------------------------------------------------------*/
FoamFile
{
    version     2.0;
    format      ascii;
    class       volScalarField;
    location    "0.115";
    object      C6H5O;
}
// * * * * * * * * * * * * * * * * * * * * * * * * * * * * * * * * * * * * * //

dimensions      [0 0 0 0 0 0 0];

internalField   nonuniform List<scalar> 
50
(
8.59001e-19
7.5815e-19
6.70001e-19
5.92883e-19
5.25344e-19
4.66123e-19
4.14128e-19
3.68415e-19
3.28165e-19
2.92674e-19
2.61332e-19
2.33612e-19
2.09059e-19
1.87281e-19
1.67937e-19
1.50732e-19
1.35409e-19
1.21746e-19
1.09549e-19
9.86504e-20
8.89015e-20
8.01733e-20
7.23526e-20
6.53398e-20
5.90472e-20
5.33973e-20
4.83217e-20
4.37597e-20
3.96574e-20
3.5967e-20
3.26457e-20
2.96555e-20
2.69625e-20
2.45363e-20
2.23498e-20
2.03785e-20
1.86007e-20
1.69969e-20
1.55495e-20
1.42429e-20
1.30628e-20
1.19967e-20
1.10332e-20
1.01621e-20
9.37421e-21
8.6695e-21
8.02594e-21
7.44149e-21
6.91172e-21
6.43106e-21
)
;

boundaryField
{
    wall
    {
        type            zeroGradient;
    }
    fuel
    {
        type            fixedValue;
        value           nonuniform 0();
    }
    outlet
    {
        type            inletOutlet;
        inletValue      nonuniform 0();
        value           nonuniform 0();
    }
    procBoundary1to0
    {
        type            processor;
        value           uniform 9.81782e-19;
    }
    procBoundary1to2
    {
        type            processor;
        value           uniform 5.99505e-21;
    }
}


// ************************************************************************* //
