/*--------------------------------*- C++ -*----------------------------------*\
| =========                 |                                                 |
| \\      /  F ield         | OpenFOAM: The Open Source CFD Toolbox           |
|  \\    /   O peration     | Version:  dev                                   |
|   \\  /    A nd           | Web:      www.OpenFOAM.org                      |
|    \\/     M anipulation  |                                                 |
\*---------------------------------------------------------------------------*/
FoamFile
{
    version     2.0;
    format      ascii;
    class       volScalarField;
    location    "0.115";
    object      CO;
}
// * * * * * * * * * * * * * * * * * * * * * * * * * * * * * * * * * * * * * //

dimensions      [0 0 0 0 0 0 0];

internalField   nonuniform List<scalar> 
50
(
0.205679
0.205483
0.205284
0.205082
0.204877
0.204669
0.204458
0.204243
0.204025
0.203803
0.203578
0.203349
0.203116
0.20288
0.20264
0.202396
0.202148
0.201896
0.20164
0.20138
0.201115
0.200846
0.200572
0.200294
0.20001
0.199723
0.19943
0.199132
0.198829
0.198521
0.198208
0.197889
0.197564
0.197234
0.196898
0.196556
0.196209
0.195854
0.195494
0.195127
0.194754
0.194374
0.193986
0.193592
0.193191
0.192787
0.192371
0.191947
0.191515
0.191075
)
;

boundaryField
{
    wall
    {
        type            zeroGradient;
    }
    fuel
    {
        type            fixedValue;
        value           nonuniform 0();
    }
    outlet
    {
        type            inletOutlet;
        inletValue      nonuniform 0();
        value           nonuniform 0();
    }
    procBoundary1to0
    {
        type            processor;
        value           uniform 0.205872;
    }
    procBoundary1to2
    {
        type            processor;
        value           uniform 0.190627;
    }
}


// ************************************************************************* //
