/*--------------------------------*- C++ -*----------------------------------*\
| =========                 |                                                 |
| \\      /  F ield         | OpenFOAM: The Open Source CFD Toolbox           |
|  \\    /   O peration     | Version:  dev                                   |
|   \\  /    A nd           | Web:      www.OpenFOAM.org                      |
|    \\/     M anipulation  |                                                 |
\*---------------------------------------------------------------------------*/
FoamFile
{
    version     2.0;
    format      ascii;
    class       volScalarField;
    location    "0.115";
    object      H2O;
}
// * * * * * * * * * * * * * * * * * * * * * * * * * * * * * * * * * * * * * //

dimensions      [0 0 0 0 0 0 0];

internalField   nonuniform List<scalar> 
250
(
0.0584902
0.0582928
0.058107
0.0580206
0.057971
0.0579582
0.0579554
0.0579508
0.0579539
0.0579512
0.0583791
0.0581977
0.0580331
0.0579567
0.0579132
0.0579016
0.057899
0.0578949
0.0578976
0.0578951
0.0578932
0.0578992
0.0578904
0.0579034
0.0578908
0.0579285
0.0579278
0.0580818
0.058144
0.0585729
0.0582818
0.0581172
0.0579727
0.0579057
0.057868
0.0578575
0.0578552
0.0578517
0.0578539
0.0578517
0.0578503
0.0578548
0.057848
0.0578579
0.0578488
0.0578786
0.057882
0.0580099
0.058071
0.0584364
0.0581983
0.0580507
0.057925
0.0578667
0.0578344
0.057825
0.057823
0.0578199
0.0578219
0.0578198
0.0578188
0.0578222
0.057817
0.0578243
0.0578182
0.057841
0.0578477
0.057952
0.0580115
0.058318
0.0581279
0.0579969
0.0578885
0.057838
0.0578106
0.0578025
0.0578004
0.0577982
0.0577995
0.057798
0.0577972
0.0577993
0.0577958
0.0578006
0.0577973
0.0578143
0.0578233
0.0579071
0.0579631
0.0582172
0.0580682
0.0579542
0.0578614
0.0578183
0.0577952
0.0577881
0.0577862
0.0577844
0.0577856
0.0577842
0.0577836
0.0577849
0.0577825
0.0577857
0.0577841
0.0577966
0.0578068
0.0578734
0.0579257
0.0581331
0.0580191
0.0579202
0.0578417
0.0578051
0.0577858
0.0577797
0.0577781
0.0577766
0.0577776
0.0577763
0.0577758
0.0577766
0.0577749
0.057777
0.0577766
0.0577858
0.0577963
0.0578489
0.0578965
0.058062
0.057978
0.0578931
0.0578273
0.0577965
0.0577805
0.0577752
0.0577738
0.0577727
0.0577736
0.0577724
0.0577719
0.0577724
0.0577712
0.0577724
0.0577727
0.0577795
0.0577898
0.0578311
0.0578735
0.0580051
0.0579433
0.0578711
0.0578164
0.0577907
0.0577775
0.057773
0.0577719
0.057771
0.0577717
0.0577707
0.0577701
0.0577704
0.0577695
0.0577703
0.057771
0.0577761
0.0577855
0.0578181
0.057855
0.0579586
0.0579138
0.0578528
0.0578077
0.0577865
0.0577757
0.0577719
0.057771
0.0577703
0.057771
0.05777
0.0577694
0.0577696
0.0577688
0.0577694
0.0577702
0.0577742
0.0577825
0.0578081
0.0578399
0.0579208
0.0578889
0.0578377
0.0578007
0.0577832
0.0577744
0.0577712
0.0577705
0.0577699
0.0577706
0.0577697
0.057769
0.0577691
0.0577685
0.0577689
0.0577697
0.0577729
0.0577801
0.0578004
0.0578276
0.0578904
0.0578693
0.0578258
0.0577952
0.0577807
0.0577734
0.0577707
0.0577701
0.0577697
0.0577703
0.0577695
0.0577688
0.0577689
0.0577683
0.0577686
0.0577693
0.057772
0.0577783
0.0577945
0.0578181
0.0578674
0.0578565
0.0578182
0.0577917
0.057779
0.0577728
0.0577704
0.0577699
0.0577696
0.0577702
0.0577694
0.0577686
0.0577687
0.0577682
0.0577684
0.0577691
0.0577714
0.0577771
0.0577908
0.057812
0.0578529
)
;

boundaryField
{
    fuel
    {
        type            fixedValue;
        value           nonuniform 0();
    }
    wall
    {
        type            zeroGradient;
    }
    outlet
    {
        type            zeroGradient;
    }
    frontAndBack
    {
        type            empty;
    }
    procBoundary1to0
    {
        type            processor;
        value           nonuniform List<scalar> 
21
(
0.0586145
0.0584024
0.0581945
0.0580975
0.0580416
0.0580276
0.0580247
0.0580196
0.0580232
0.0580202
0.0579488
0.0579488
0.0579562
0.0579454
0.0579616
0.0579451
0.0579915
0.0579861
0.0581684
0.0582309
0.0587276
)
;
    }
}


// ************************************************************************* //
