/*--------------------------------*- C++ -*----------------------------------*\
| =========                 |                                                 |
| \\      /  F ield         | OpenFOAM: The Open Source CFD Toolbox           |
|  \\    /   O peration     | Version:  dev                                   |
|   \\  /    A nd           | Web:      www.OpenFOAM.org                      |
|    \\/     M anipulation  |                                                 |
\*---------------------------------------------------------------------------*/
FoamFile
{
    version     2.0;
    format      ascii;
    class       volScalarField;
    location    "0.115";
    object      HCO;
}
// * * * * * * * * * * * * * * * * * * * * * * * * * * * * * * * * * * * * * //

dimensions      [0 0 0 0 0 0 0];

internalField   nonuniform List<scalar> 
50
(
2.80594e-07
2.78546e-07
2.76464e-07
2.74353e-07
2.72212e-07
2.70046e-07
2.67856e-07
2.65643e-07
2.63409e-07
2.61157e-07
2.58887e-07
2.56602e-07
2.54302e-07
2.5199e-07
2.49667e-07
2.47334e-07
2.44993e-07
2.42646e-07
2.40292e-07
2.37935e-07
2.35575e-07
2.33213e-07
2.30851e-07
2.28491e-07
2.26132e-07
2.23777e-07
2.21427e-07
2.19082e-07
2.16745e-07
2.14416e-07
2.12096e-07
2.09787e-07
2.07489e-07
2.05204e-07
2.02933e-07
2.00677e-07
1.98436e-07
1.96213e-07
1.94007e-07
1.91821e-07
1.89654e-07
1.87508e-07
1.85384e-07
1.83282e-07
1.81204e-07
1.79175e-07
1.77151e-07
1.75148e-07
1.73169e-07
1.71214e-07
)
;

boundaryField
{
    wall
    {
        type            zeroGradient;
    }
    fuel
    {
        type            fixedValue;
        value           nonuniform 0();
    }
    outlet
    {
        type            inletOutlet;
        inletValue      nonuniform 0();
        value           nonuniform 0();
    }
    procBoundary1to0
    {
        type            processor;
        value           uniform 2.82618e-07;
    }
    procBoundary1to2
    {
        type            processor;
        value           uniform 1.69297e-07;
    }
}


// ************************************************************************* //
