/*--------------------------------*- C++ -*----------------------------------*\
| =========                 |                                                 |
| \\      /  F ield         | OpenFOAM: The Open Source CFD Toolbox           |
|  \\    /   O peration     | Version:  dev                                   |
|   \\  /    A nd           | Web:      www.OpenFOAM.org                      |
|    \\/     M anipulation  |                                                 |
\*---------------------------------------------------------------------------*/
FoamFile
{
    version     2.0;
    format      ascii;
    class       volScalarField;
    location    "0.115";
    object      n-A1C2H2;
}
// * * * * * * * * * * * * * * * * * * * * * * * * * * * * * * * * * * * * * //

dimensions      [0 0 0 0 0 0 0];

internalField   nonuniform List<scalar> 
250
(
2.28552e-11
1.89311e-11
1.65582e-11
1.57482e-11
1.54991e-11
1.54322e-11
1.54143e-11
1.54336e-11
1.54211e-11
1.54481e-11
2.21769e-11
1.90184e-11
1.70795e-11
1.63912e-11
1.61913e-11
1.6139e-11
1.6117e-11
1.61459e-11
1.61234e-11
1.61614e-11
1.61657e-11
1.61058e-11
1.61612e-11
1.60808e-11
1.61694e-11
1.61167e-11
1.645e-11
1.71568e-11
1.94321e-11
3.41374e-11
2.2188e-11
1.96567e-11
1.80943e-11
1.75178e-11
1.73794e-11
1.73469e-11
1.73175e-11
1.73628e-11
1.73222e-11
1.73803e-11
1.73917e-11
1.72954e-11
1.73956e-11
1.72579e-11
1.7411e-11
1.7254e-11
1.76622e-11
1.80455e-11
2.00099e-11
3.08112e-11
2.3143e-11
2.1143e-11
1.99119e-11
1.94381e-11
1.93639e-11
1.93537e-11
1.93148e-11
1.9378e-11
1.93144e-11
1.93979e-11
1.94178e-11
1.92776e-11
1.94327e-11
1.92249e-11
1.94579e-11
1.91716e-11
1.96893e-11
1.9705e-11
2.14877e-11
2.91771e-11
2.53057e-11
2.37509e-11
2.27928e-11
2.24262e-11
2.23978e-11
2.23815e-11
2.23634e-11
2.24061e-11
2.23559e-11
2.24277e-11
2.24527e-11
2.23103e-11
2.24756e-11
2.2249e-11
2.25095e-11
2.21436e-11
2.27282e-11
2.24742e-11
2.41021e-11
2.93711e-11
2.88007e-11
2.75644e-11
2.67853e-11
2.64751e-11
2.64307e-11
2.64254e-11
2.63882e-11
2.64362e-11
2.63777e-11
2.64575e-11
2.64785e-11
2.63264e-11
2.64995e-11
2.62849e-11
2.65359e-11
2.62333e-11
2.6745e-11
2.65214e-11
2.78019e-11
3.14832e-11
3.34482e-11
3.24091e-11
3.16826e-11
3.13966e-11
3.12634e-11
3.12455e-11
3.12004e-11
3.12259e-11
3.11898e-11
3.12437e-11
3.12487e-11
3.1143e-11
3.12541e-11
3.11497e-11
3.12841e-11
3.12366e-11
3.14856e-11
3.17216e-11
3.2409e-11
3.54349e-11
3.90683e-11
3.80414e-11
3.7237e-11
3.69447e-11
3.66608e-11
3.66127e-11
3.65697e-11
3.655e-11
3.65592e-11
3.65612e-11
3.65403e-11
3.65321e-11
3.65183e-11
3.66083e-11
3.65338e-11
3.69014e-11
3.67311e-11
3.78127e-11
3.76923e-11
4.08626e-11
4.60372e-11
4.49116e-11
4.39767e-11
4.3675e-11
4.32403e-11
4.31627e-11
4.31247e-11
4.30602e-11
4.31147e-11
4.30636e-11
4.30215e-11
4.31067e-11
4.29774e-11
4.32427e-11
4.29849e-11
4.37294e-11
4.3189e-11
4.51341e-11
4.424e-11
4.79942e-11
5.90553e-11
5.80984e-11
5.72224e-11
5.70042e-11
5.65972e-11
5.65389e-11
5.64798e-11
5.64517e-11
5.64859e-11
5.64485e-11
5.64445e-11
5.64056e-11
5.64536e-11
5.64835e-11
5.65232e-11
5.68871e-11
5.68042e-11
5.82643e-11
5.76617e-11
6.06453e-11
1.00671e-10
9.9774e-11
9.84784e-11
9.82432e-11
9.7566e-11
9.74986e-11
9.73641e-11
9.7324e-11
9.74124e-11
9.72648e-11
9.73235e-11
9.71679e-11
9.74269e-11
9.71629e-11
9.76435e-11
9.75517e-11
9.82559e-11
9.91606e-11
9.96473e-11
1.01111e-10
1.93064e-10
1.85993e-10
1.79232e-10
1.77339e-10
1.7314e-10
1.72431e-10
1.72335e-10
1.71156e-10
1.72365e-10
1.70793e-10
1.70422e-10
1.72676e-10
1.70011e-10
1.73736e-10
1.70035e-10
1.77649e-10
1.71258e-10
1.89589e-10
1.7939e-10
2.0422e-10
2.35307e-10
2.18414e-10
2.04609e-10
2.00643e-10
1.92293e-10
1.90856e-10
1.90865e-10
1.88257e-10
1.90885e-10
1.87495e-10
1.8663e-10
1.92004e-10
1.85588e-10
1.94288e-10
1.85362e-10
2.02428e-10
1.86995e-10
2.28548e-10
2.02634e-10
2.65529e-10
)
;

boundaryField
{
    fuel
    {
        type            fixedValue;
        value           nonuniform 0();
    }
    wall
    {
        type            zeroGradient;
    }
    outlet
    {
        type            zeroGradient;
    }
    frontAndBack
    {
        type            empty;
    }
    procBoundary1to0
    {
        type            processor;
        value           nonuniform List<scalar> 
21
(
2.40598e-11
1.91758e-11
1.62892e-11
1.53446e-11
1.50567e-11
1.49795e-11
1.49633e-11
1.49796e-11
1.49711e-11
1.49939e-11
1.54485e-11
1.54485e-11
1.54091e-11
1.54397e-11
1.53887e-11
1.54443e-11
1.54454e-11
1.5763e-11
1.67122e-11
1.94784e-11
3.911e-11
)
;
    }
}


// ************************************************************************* //
