/*--------------------------------*- C++ -*----------------------------------*\
| =========                 |                                                 |
| \\      /  F ield         | OpenFOAM: The Open Source CFD Toolbox           |
|  \\    /   O peration     | Version:  dev                                   |
|   \\  /    A nd           | Web:      www.OpenFOAM.org                      |
|    \\/     M anipulation  |                                                 |
\*---------------------------------------------------------------------------*/
FoamFile
{
    version     2.0;
    format      ascii;
    class       volScalarField;
    location    "0.115";
    object      naphthyne;
}
// * * * * * * * * * * * * * * * * * * * * * * * * * * * * * * * * * * * * * //

dimensions      [0 0 0 0 0 0 0];

internalField   nonuniform List<scalar> 
250
(
4.75977e-09
2.07285e-09
1.50437e-09
1.36695e-09
1.33051e-09
1.32227e-09
1.32084e-09
1.32131e-09
1.32116e-09
1.32184e-09
4.03564e-09
1.92773e-09
1.46111e-09
1.34169e-09
1.31114e-09
1.30077e-09
1.3017e-09
1.29965e-09
1.30132e-09
1.30056e-09
1.30146e-09
1.30126e-09
1.30143e-09
1.3017e-09
1.30354e-09
1.31215e-09
1.34513e-09
1.43586e-09
1.7261e-09
2.22419e-09
3.42743e-09
1.78891e-09
1.41045e-09
1.30862e-09
1.28292e-09
1.27232e-09
1.27432e-09
1.27125e-09
1.27368e-09
1.27236e-09
1.27341e-09
1.27327e-09
1.27328e-09
1.27369e-09
1.27548e-09
1.28301e-09
1.31297e-09
1.39093e-09
1.64331e-09
2.07666e-09
2.93123e-09
1.66492e-09
1.36123e-09
1.27608e-09
1.25418e-09
1.24488e-09
1.24685e-09
1.24401e-09
1.2463e-09
1.24515e-09
1.24612e-09
1.24588e-09
1.24588e-09
1.24617e-09
1.24783e-09
1.25431e-09
1.2803e-09
1.34723e-09
1.56496e-09
1.94277e-09
2.53632e-09
1.56154e-09
1.32032e-09
1.24981e-09
1.23112e-09
1.22412e-09
1.22507e-09
1.22351e-09
1.22515e-09
1.22459e-09
1.22536e-09
1.22494e-09
1.22501e-09
1.22506e-09
1.22613e-09
1.23164e-09
1.25352e-09
1.31126e-09
1.49794e-09
1.8282e-09
2.21899e-09
1.48037e-09
1.29081e-09
1.23321e-09
1.21714e-09
1.21208e-09
1.21229e-09
1.21171e-09
1.21265e-09
1.21271e-09
1.21328e-09
1.2127e-09
1.21284e-09
1.21266e-09
1.21354e-09
1.21821e-09
1.23616e-09
1.28571e-09
1.44379e-09
1.73191e-09
1.97571e-09
1.41896e-09
1.27165e-09
1.22463e-09
1.21104e-09
1.20728e-09
1.20708e-09
1.2071e-09
1.2076e-09
1.20806e-09
1.20849e-09
1.20785e-09
1.208e-09
1.2077e-09
1.20843e-09
1.21237e-09
1.22708e-09
1.26931e-09
1.40366e-09
1.65523e-09
1.78592e-09
1.37235e-09
1.25923e-09
1.22075e-09
1.20954e-09
1.20647e-09
1.2062e-09
1.20641e-09
1.20678e-09
1.20739e-09
1.20776e-09
1.20714e-09
1.20725e-09
1.20692e-09
1.20754e-09
1.21085e-09
1.22301e-09
1.25857e-09
1.37208e-09
1.5901e-09
1.63744e-09
1.33576e-09
1.24994e-09
1.21856e-09
1.2095e-09
1.20683e-09
1.20666e-09
1.20687e-09
1.20723e-09
1.20786e-09
1.20823e-09
1.20766e-09
1.20772e-09
1.20741e-09
1.20794e-09
1.21069e-09
1.22077e-09
1.25027e-09
1.34503e-09
1.53151e-09
1.52198e-09
1.30645e-09
1.24202e-09
1.21671e-09
1.20944e-09
1.20716e-09
1.20707e-09
1.20728e-09
1.20765e-09
1.20829e-09
1.20865e-09
1.20816e-09
1.20815e-09
1.20789e-09
1.20833e-09
1.21061e-09
1.21888e-09
1.24299e-09
1.32075e-09
1.4776e-09
1.43483e-09
1.28352e-09
1.23531e-09
1.2151e-09
1.20925e-09
1.20736e-09
1.20732e-09
1.20756e-09
1.20793e-09
1.20858e-09
1.20894e-09
1.2085e-09
1.20846e-09
1.20824e-09
1.2086e-09
1.21048e-09
1.21722e-09
1.23673e-09
1.29946e-09
1.42941e-09
1.37323e-09
1.26675e-09
1.23006e-09
1.21384e-09
1.20905e-09
1.20752e-09
1.20751e-09
1.20778e-09
1.20814e-09
1.20881e-09
1.20917e-09
1.20878e-09
1.2087e-09
1.20852e-09
1.20883e-09
1.21039e-09
1.21592e-09
1.23178e-09
1.28223e-09
1.38961e-09
1.33706e-09
1.25658e-09
1.22672e-09
1.21303e-09
1.20891e-09
1.20762e-09
1.20763e-09
1.20793e-09
1.20828e-09
1.20897e-09
1.20933e-09
1.20897e-09
1.20887e-09
1.20872e-09
1.20899e-09
1.21035e-09
1.2151e-09
1.22861e-09
1.27091e-09
1.36304e-09
)
;

boundaryField
{
    fuel
    {
        type            fixedValue;
        value           nonuniform 0();
    }
    wall
    {
        type            zeroGradient;
    }
    outlet
    {
        type            zeroGradient;
    }
    frontAndBack
    {
        type            empty;
    }
    procBoundary1to0
    {
        type            processor;
        value           nonuniform List<scalar> 
21
(
5.59814e-09
2.21548e-09
1.53223e-09
1.37654e-09
1.33352e-09
1.32899e-09
1.32418e-09
1.32837e-09
1.32558e-09
1.32839e-09
1.32232e-09
1.32232e-09
1.32182e-09
1.32236e-09
1.32214e-09
1.3239e-09
1.33354e-09
1.36822e-09
1.47335e-09
1.80491e-09
2.37836e-09
)
;
    }
}


// ************************************************************************* //
