/*--------------------------------*- C++ -*----------------------------------*\
| =========                 |                                                 |
| \\      /  F ield         | OpenFOAM: The Open Source CFD Toolbox           |
|  \\    /   O peration     | Version:  dev                                   |
|   \\  /    A nd           | Web:      www.OpenFOAM.org                      |
|    \\/     M anipulation  |                                                 |
\*---------------------------------------------------------------------------*/
FoamFile
{
    version     2.0;
    format      ascii;
    class       volScalarField;
    location    "0.1";
    object      A3-1;
}
// * * * * * * * * * * * * * * * * * * * * * * * * * * * * * * * * * * * * * //

dimensions      [0 0 0 0 0 0 0];

internalField   nonuniform List<scalar> 
25
(
5.28888e-18
4.07566e-18
3.1797e-18
2.5331e-18
2.08282e-18
1.78843e-18
1.62587e-18
1.56786e-18
1.60464e-18
1.73378e-18
1.96019e-18
2.29654e-18
2.76418e-18
3.3933e-18
4.2209e-18
5.31523e-18
6.73901e-18
8.56248e-18
1.07905e-17
1.35709e-17
1.70159e-17
2.12512e-17
2.60607e-17
3.16682e-17
3.82431e-17
)
;

boundaryField
{
    wall
    {
        type            zeroGradient;
    }
    fuel
    {
        type            fixedValue;
        value           nonuniform 0();
    }
    outlet
    {
        type            inletOutlet;
        inletValue      nonuniform 0();
        value           nonuniform 0();
    }
    procBoundary1to0
    {
        type            processor;
        value           uniform 6.92429e-18;
    }
    procBoundary1to2
    {
        type            processor;
        value           uniform 4.54693e-17;
    }
}


// ************************************************************************* //
