/*--------------------------------*- C++ -*----------------------------------*\
| =========                 |                                                 |
| \\      /  F ield         | OpenFOAM: The Open Source CFD Toolbox           |
|  \\    /   O peration     | Version:  dev                                   |
|   \\  /    A nd           | Web:      www.OpenFOAM.org                      |
|    \\/     M anipulation  |                                                 |
\*---------------------------------------------------------------------------*/
FoamFile
{
    version     2.0;
    format      ascii;
    class       volScalarField;
    location    "0.1";
    object      c-C6H4;
}
// * * * * * * * * * * * * * * * * * * * * * * * * * * * * * * * * * * * * * //

dimensions      [0 0 0 0 0 0 0];

internalField   nonuniform List<scalar> 
25
(
3.31151e-16
2.60614e-16
2.07198e-16
1.672e-16
1.3829e-16
1.19626e-16
1.12718e-16
1.21583e-16
1.56555e-16
2.37867e-16
4.02507e-16
7.14683e-16
1.2805e-15
2.26579e-15
3.91346e-15
6.62896e-15
1.09439e-14
1.75297e-14
2.68505e-14
3.9966e-14
5.78913e-14
8.17221e-14
1.10364e-13
1.44992e-13
1.8625e-13
)
;

boundaryField
{
    wall
    {
        type            zeroGradient;
    }
    fuel
    {
        type            fixedValue;
        value           nonuniform 0();
    }
    outlet
    {
        type            inletOutlet;
        inletValue      nonuniform 0();
        value           nonuniform 0();
    }
    procBoundary1to0
    {
        type            processor;
        value           uniform 4.26188e-16;
    }
    procBoundary1to2
    {
        type            processor;
        value           uniform 2.3143e-13;
    }
}


// ************************************************************************* //
