/*--------------------------------*- C++ -*----------------------------------*\
| =========                 |                                                 |
| \\      /  F ield         | OpenFOAM: The Open Source CFD Toolbox           |
|  \\    /   O peration     | Version:  dev                                   |
|   \\  /    A nd           | Web:      www.OpenFOAM.org                      |
|    \\/     M anipulation  |                                                 |
\*---------------------------------------------------------------------------*/
FoamFile
{
    version     2.0;
    format      ascii;
    class       volScalarField;
    location    "0.1";
    object      C5H2;
}
// * * * * * * * * * * * * * * * * * * * * * * * * * * * * * * * * * * * * * //

dimensions      [0 0 0 0 0 0 0];

internalField   nonuniform List<scalar> 
25
(
4.32295e-17
1.89869e-17
9.03465e-18
4.70936e-18
2.69788e-18
1.69004e-18
1.16703e-18
8.87143e-19
7.7157e-19
8.1116e-19
1.04919e-18
1.58522e-18
2.59085e-18
4.33059e-18
7.17852e-18
1.17443e-17
1.87833e-17
2.92069e-17
4.35518e-17
6.32157e-17
8.94253e-17
1.23417e-16
1.63336e-16
2.10466e-16
2.65273e-16
)
;

boundaryField
{
    wall
    {
        type            zeroGradient;
    }
    fuel
    {
        type            fixedValue;
        value           nonuniform 0();
    }
    outlet
    {
        type            inletOutlet;
        inletValue      nonuniform 0();
        value           nonuniform 0();
    }
    procBoundary1to0
    {
        type            processor;
        value           uniform 1.02858e-16;
    }
    procBoundary1to2
    {
        type            processor;
        value           uniform 3.24362e-16;
    }
}


// ************************************************************************* //
