/*--------------------------------*- C++ -*----------------------------------*\
| =========                 |                                                 |
| \\      /  F ield         | OpenFOAM: The Open Source CFD Toolbox           |
|  \\    /   O peration     | Version:  dev                                   |
|   \\  /    A nd           | Web:      www.OpenFOAM.org                      |
|    \\/     M anipulation  |                                                 |
\*---------------------------------------------------------------------------*/
FoamFile
{
    version     2.0;
    format      ascii;
    class       volScalarField;
    location    "0.1";
    object      C6H5OH;
}
// * * * * * * * * * * * * * * * * * * * * * * * * * * * * * * * * * * * * * //

dimensions      [0 0 0 0 0 0 0];

internalField   nonuniform List<scalar> 
13
(
1.11642e-11
8.26718e-12
6.43906e-12
5.31129e-12
4.66176e-12
4.3542e-12
4.30473e-12
4.46065e-12
4.78727e-12
5.26016e-12
5.86066e-12
6.57332e-12
7.38432e-12
)
;

boundaryField
{
    front
    {
        type            wedge;
    }
    back
    {
        type            wedge;
    }
    wall
    {
        type            zeroGradient;
    }
    fuel
    {
        type            fixedValue;
        value           nonuniform 0();
    }
    outlet
    {
        type            inletOutlet;
        inletValue      nonuniform 0();
        value           nonuniform 0();
    }
    axis
    {
        type            empty;
    }
    procBoundary1to0
    {
        type            processor;
        value           uniform 1.56794e-11;
    }
    procBoundary1to2
    {
        type            processor;
        value           uniform 8.28005e-12;
    }
}


// ************************************************************************* //
