/*--------------------------------*- C++ -*----------------------------------*\
| =========                 |                                                 |
| \\      /  F ield         | OpenFOAM: The Open Source CFD Toolbox           |
|  \\    /   O peration     | Version:  dev                                   |
|   \\  /    A nd           | Web:      www.OpenFOAM.org                      |
|    \\/     M anipulation  |                                                 |
\*---------------------------------------------------------------------------*/
FoamFile
{
    version     2.0;
    format      ascii;
    class       volScalarField;
    location    "0.1";
    object      A1C2H-;
}
// * * * * * * * * * * * * * * * * * * * * * * * * * * * * * * * * * * * * * //

dimensions      [0 0 0 0 0 0 0];

internalField   nonuniform List<scalar> 
2014
(
1.87959e-08
1.89389e-08
1.90742e-08
1.91443e-08
1.91668e-08
1.91818e-08
1.91749e-08
1.91781e-08
1.91712e-08
1.91729e-08
1.91686e-08
1.917e-08
1.91673e-08
1.91684e-08
1.91666e-08
1.91675e-08
1.91664e-08
1.91672e-08
1.91664e-08
1.91669e-08
1.91664e-08
1.91667e-08
1.91664e-08
1.91666e-08
1.91665e-08
1.91665e-08
1.91666e-08
1.91664e-08
1.91667e-08
1.91664e-08
1.91669e-08
1.91664e-08
1.91672e-08
1.91664e-08
1.91676e-08
1.91666e-08
1.91684e-08
1.91673e-08
1.917e-08
1.91686e-08
1.91729e-08
1.91712e-08
1.91781e-08
1.91749e-08
1.91817e-08
1.91667e-08
1.91443e-08
1.90742e-08
1.89389e-08
1.87959e-08
1.7879e-08
1.8015e-08
1.8142e-08
1.82079e-08
1.82292e-08
1.82432e-08
1.82368e-08
1.82396e-08
1.82331e-08
1.82345e-08
1.82305e-08
1.82317e-08
1.82292e-08
1.82301e-08
1.82285e-08
1.82293e-08
1.82282e-08
1.8229e-08
1.82283e-08
1.82287e-08
1.82283e-08
1.82285e-08
1.82283e-08
1.82284e-08
1.82283e-08
1.82283e-08
1.82284e-08
1.82283e-08
1.82285e-08
1.82283e-08
1.82287e-08
1.82283e-08
1.8229e-08
1.82282e-08
1.82293e-08
1.82285e-08
1.82301e-08
1.82292e-08
1.82317e-08
1.82305e-08
1.82345e-08
1.82331e-08
1.82396e-08
1.82368e-08
1.82432e-08
1.82291e-08
1.82079e-08
1.8142e-08
1.8015e-08
1.7879e-08
1.70378e-08
1.71675e-08
1.72866e-08
1.73485e-08
1.73687e-08
1.73819e-08
1.73758e-08
1.73783e-08
1.73722e-08
1.73733e-08
1.73696e-08
1.73706e-08
1.73682e-08
1.73691e-08
1.73675e-08
1.73683e-08
1.73672e-08
1.73679e-08
1.73673e-08
1.73677e-08
1.73673e-08
1.73675e-08
1.73673e-08
1.73674e-08
1.73673e-08
1.73673e-08
1.73674e-08
1.73673e-08
1.73675e-08
1.73673e-08
1.73677e-08
1.73673e-08
1.73679e-08
1.73673e-08
1.73683e-08
1.73675e-08
1.73691e-08
1.73682e-08
1.73706e-08
1.73696e-08
1.73733e-08
1.73722e-08
1.73783e-08
1.73758e-08
1.73818e-08
1.73687e-08
1.73485e-08
1.72866e-08
1.71674e-08
1.70378e-08
1.62641e-08
1.6388e-08
1.64995e-08
1.65578e-08
1.65769e-08
1.65893e-08
1.65836e-08
1.65857e-08
1.65799e-08
1.65809e-08
1.65773e-08
1.65782e-08
1.65759e-08
1.65767e-08
1.65753e-08
1.6576e-08
1.6575e-08
1.65756e-08
1.6575e-08
1.65754e-08
1.6575e-08
1.65752e-08
1.6575e-08
1.65751e-08
1.6575e-08
1.6575e-08
1.65751e-08
1.6575e-08
1.65752e-08
1.6575e-08
1.65754e-08
1.6575e-08
1.65756e-08
1.6575e-08
1.6576e-08
1.65753e-08
1.65767e-08
1.65759e-08
1.65782e-08
1.65773e-08
1.65809e-08
1.65799e-08
1.65857e-08
1.65836e-08
1.65892e-08
1.65769e-08
1.65578e-08
1.64995e-08
1.6388e-08
1.62641e-08
1.55506e-08
1.5669e-08
1.57738e-08
1.58285e-08
1.58465e-08
1.58581e-08
1.58527e-08
1.58545e-08
1.58491e-08
1.58498e-08
1.58465e-08
1.58472e-08
1.58451e-08
1.58457e-08
1.58444e-08
1.5845e-08
1.58441e-08
1.58447e-08
1.58441e-08
1.58445e-08
1.58441e-08
1.58443e-08
1.58441e-08
1.58442e-08
1.58441e-08
1.58441e-08
1.58442e-08
1.58441e-08
1.58443e-08
1.58441e-08
1.58445e-08
1.58441e-08
1.58447e-08
1.58441e-08
1.5845e-08
1.58444e-08
1.58458e-08
1.58451e-08
1.58472e-08
1.58465e-08
1.58498e-08
1.58491e-08
1.58545e-08
1.58527e-08
1.5858e-08
1.58465e-08
1.58285e-08
1.57738e-08
1.5669e-08
1.55506e-08
1.48909e-08
1.50043e-08
1.51028e-08
1.5154e-08
1.5171e-08
1.51818e-08
1.51767e-08
1.51783e-08
1.51731e-08
1.51737e-08
1.51705e-08
1.51712e-08
1.51691e-08
1.51697e-08
1.51684e-08
1.5169e-08
1.51682e-08
1.51687e-08
1.51681e-08
1.51685e-08
1.51681e-08
1.51683e-08
1.51681e-08
1.51682e-08
1.51682e-08
1.51682e-08
1.51682e-08
1.51681e-08
1.51683e-08
1.51681e-08
1.51685e-08
1.51681e-08
1.51687e-08
1.51682e-08
1.5169e-08
1.51685e-08
1.51697e-08
1.51691e-08
1.51712e-08
1.51705e-08
1.51737e-08
1.51731e-08
1.51783e-08
1.51767e-08
1.51818e-08
1.5171e-08
1.5154e-08
1.51028e-08
1.50043e-08
1.48909e-08
1.42796e-08
1.43882e-08
1.44808e-08
1.45288e-08
1.45447e-08
1.45549e-08
1.45501e-08
1.45514e-08
1.45465e-08
1.45469e-08
1.45439e-08
1.45444e-08
1.45425e-08
1.4543e-08
1.45418e-08
1.45423e-08
1.45415e-08
1.4542e-08
1.45415e-08
1.45418e-08
1.45415e-08
1.45417e-08
1.45415e-08
1.45416e-08
1.45415e-08
1.45415e-08
1.45416e-08
1.45415e-08
1.45417e-08
1.45415e-08
1.45418e-08
1.45415e-08
1.4542e-08
1.45415e-08
1.45423e-08
1.45418e-08
1.4543e-08
1.45425e-08
1.45444e-08
1.45439e-08
1.45469e-08
1.45465e-08
1.45514e-08
1.45501e-08
1.45549e-08
1.45447e-08
1.45288e-08
1.44807e-08
1.43882e-08
1.42796e-08
1.37117e-08
1.38159e-08
1.39028e-08
1.39479e-08
1.39628e-08
1.39723e-08
1.39677e-08
1.39688e-08
1.39642e-08
1.39645e-08
1.39616e-08
1.3962e-08
1.39602e-08
1.39606e-08
1.39595e-08
1.39599e-08
1.39592e-08
1.39596e-08
1.39592e-08
1.39594e-08
1.39591e-08
1.39593e-08
1.39591e-08
1.39592e-08
1.39592e-08
1.39592e-08
1.39592e-08
1.39591e-08
1.39593e-08
1.39591e-08
1.39594e-08
1.39591e-08
1.39596e-08
1.39592e-08
1.396e-08
1.39595e-08
1.39606e-08
1.39602e-08
1.3962e-08
1.39616e-08
1.39645e-08
1.39641e-08
1.39688e-08
1.39677e-08
1.39723e-08
1.39628e-08
1.39479e-08
1.39028e-08
1.38159e-08
1.37117e-08
1.31831e-08
1.3283e-08
1.33645e-08
1.34068e-08
1.34208e-08
1.34297e-08
1.34253e-08
1.34262e-08
1.34218e-08
1.3422e-08
1.34192e-08
1.34195e-08
1.34178e-08
1.34182e-08
1.34171e-08
1.34175e-08
1.34168e-08
1.34172e-08
1.34168e-08
1.34171e-08
1.34168e-08
1.34169e-08
1.34167e-08
1.34168e-08
1.34168e-08
1.34168e-08
1.34168e-08
1.34167e-08
1.34169e-08
1.34168e-08
1.34171e-08
1.34168e-08
1.34172e-08
1.34168e-08
1.34175e-08
1.34171e-08
1.34182e-08
1.34178e-08
1.34195e-08
1.34192e-08
1.3422e-08
1.34218e-08
1.34262e-08
1.34253e-08
1.34297e-08
1.34208e-08
1.34068e-08
1.33645e-08
1.3283e-08
1.31831e-08
1.26899e-08
1.27856e-08
1.28622e-08
1.29019e-08
1.2915e-08
1.29232e-08
1.2919e-08
1.29198e-08
1.29155e-08
1.29156e-08
1.29129e-08
1.29132e-08
1.29116e-08
1.29119e-08
1.29109e-08
1.29113e-08
1.29106e-08
1.2911e-08
1.29105e-08
1.29108e-08
1.29105e-08
1.29107e-08
1.29105e-08
1.29106e-08
1.29105e-08
1.29105e-08
1.29106e-08
1.29105e-08
1.29107e-08
1.29105e-08
1.29108e-08
1.29105e-08
1.2911e-08
1.29106e-08
1.29113e-08
1.29109e-08
1.29119e-08
1.29116e-08
1.29132e-08
1.29129e-08
1.29156e-08
1.29155e-08
1.29198e-08
1.2919e-08
1.29232e-08
1.2915e-08
1.29019e-08
1.28622e-08
1.27856e-08
1.26899e-08
1.22289e-08
1.23204e-08
1.23923e-08
1.24296e-08
1.24418e-08
1.24495e-08
1.24455e-08
1.2446e-08
1.2442e-08
1.2442e-08
1.24394e-08
1.24396e-08
1.24381e-08
1.24384e-08
1.24374e-08
1.24377e-08
1.24371e-08
1.24374e-08
1.2437e-08
1.24373e-08
1.2437e-08
1.24372e-08
1.2437e-08
1.24371e-08
1.2437e-08
1.2437e-08
1.24371e-08
1.2437e-08
1.24372e-08
1.2437e-08
1.24373e-08
1.2437e-08
1.24374e-08
1.24371e-08
1.24377e-08
1.24374e-08
1.24384e-08
1.24381e-08
1.24396e-08
1.24394e-08
1.2442e-08
1.2442e-08
1.2446e-08
1.24455e-08
1.24495e-08
1.24418e-08
1.24296e-08
1.23923e-08
1.23204e-08
1.22288e-08
1.1797e-08
1.18844e-08
1.1952e-08
1.1987e-08
1.19984e-08
1.20055e-08
1.20017e-08
1.20021e-08
1.19982e-08
1.19981e-08
1.19957e-08
1.19958e-08
1.19943e-08
1.19946e-08
1.19936e-08
1.19939e-08
1.19933e-08
1.19937e-08
1.19933e-08
1.19935e-08
1.19932e-08
1.19934e-08
1.19932e-08
1.19933e-08
1.19933e-08
1.19933e-08
1.19933e-08
1.19932e-08
1.19934e-08
1.19932e-08
1.19935e-08
1.19933e-08
1.19937e-08
1.19933e-08
1.19939e-08
1.19936e-08
1.19946e-08
1.19943e-08
1.19958e-08
1.19957e-08
1.19981e-08
1.19982e-08
1.20021e-08
1.20017e-08
1.20055e-08
1.19984e-08
1.1987e-08
1.1952e-08
1.18844e-08
1.1797e-08
1.13917e-08
1.1475e-08
1.15386e-08
1.15714e-08
1.15821e-08
1.15887e-08
1.15849e-08
1.15852e-08
1.15815e-08
1.15813e-08
1.1579e-08
1.15791e-08
1.15776e-08
1.15778e-08
1.15769e-08
1.15772e-08
1.15767e-08
1.1577e-08
1.15766e-08
1.15768e-08
1.15766e-08
1.15767e-08
1.15766e-08
1.15766e-08
1.15766e-08
1.15766e-08
1.15766e-08
1.15766e-08
1.15767e-08
1.15766e-08
1.15768e-08
1.15766e-08
1.1577e-08
1.15767e-08
1.15772e-08
1.1577e-08
1.15778e-08
1.15776e-08
1.15791e-08
1.1579e-08
1.15813e-08
1.15815e-08
1.15852e-08
1.15849e-08
1.15887e-08
1.1582e-08
1.15714e-08
1.15386e-08
1.1475e-08
1.13917e-08
1.10106e-08
1.10899e-08
1.11497e-08
1.11806e-08
1.11904e-08
1.11966e-08
1.11929e-08
1.11931e-08
1.11895e-08
1.11893e-08
1.1187e-08
1.11871e-08
1.11857e-08
1.11859e-08
1.1185e-08
1.11853e-08
1.11848e-08
1.1185e-08
1.11847e-08
1.11849e-08
1.11847e-08
1.11848e-08
1.11846e-08
1.11847e-08
1.11847e-08
1.11847e-08
1.11847e-08
1.11846e-08
1.11848e-08
1.11847e-08
1.11849e-08
1.11847e-08
1.1185e-08
1.11848e-08
1.11853e-08
1.1185e-08
1.11859e-08
1.11857e-08
1.11871e-08
1.1187e-08
1.11893e-08
1.11895e-08
1.11931e-08
1.11929e-08
1.11965e-08
1.11904e-08
1.11805e-08
1.11497e-08
1.10899e-08
1.10106e-08
1.06518e-08
1.0727e-08
1.07834e-08
1.08123e-08
1.08214e-08
1.08271e-08
1.08236e-08
1.08236e-08
1.08202e-08
1.08199e-08
1.08178e-08
1.08178e-08
1.08164e-08
1.08166e-08
1.08158e-08
1.0816e-08
1.08155e-08
1.08158e-08
1.08154e-08
1.08156e-08
1.08154e-08
1.08155e-08
1.08154e-08
1.08155e-08
1.08154e-08
1.08154e-08
1.08155e-08
1.08154e-08
1.08155e-08
1.08154e-08
1.08156e-08
1.08154e-08
1.08158e-08
1.08155e-08
1.0816e-08
1.08158e-08
1.08166e-08
1.08164e-08
1.08178e-08
1.08178e-08
1.08199e-08
1.08202e-08
1.08236e-08
1.08236e-08
1.08271e-08
1.08214e-08
1.08123e-08
1.07833e-08
1.0727e-08
1.06518e-08
1.03133e-08
1.03845e-08
1.04376e-08
1.04649e-08
1.04732e-08
1.04785e-08
1.04751e-08
1.0475e-08
1.04717e-08
1.04714e-08
1.04693e-08
1.04693e-08
1.0468e-08
1.04681e-08
1.04674e-08
1.04676e-08
1.04671e-08
1.04673e-08
1.0467e-08
1.04672e-08
1.0467e-08
1.04671e-08
1.0467e-08
1.0467e-08
1.0467e-08
1.0467e-08
1.0467e-08
1.0467e-08
1.04671e-08
1.0467e-08
1.04672e-08
1.0467e-08
1.04673e-08
1.04671e-08
1.04676e-08
1.04674e-08
1.04682e-08
1.0468e-08
1.04693e-08
1.04693e-08
1.04714e-08
1.04717e-08
1.0475e-08
1.04751e-08
1.04785e-08
1.04732e-08
1.04648e-08
1.04376e-08
1.03845e-08
1.03133e-08
9.99354e-09
1.00609e-08
1.01109e-08
1.01365e-08
1.01442e-08
1.0149e-08
1.01457e-08
1.01455e-08
1.01424e-08
1.0142e-08
1.014e-08
1.014e-08
1.01387e-08
1.01389e-08
1.01381e-08
1.01383e-08
1.01378e-08
1.01381e-08
1.01378e-08
1.01379e-08
1.01377e-08
1.01378e-08
1.01377e-08
1.01378e-08
1.01378e-08
1.01378e-08
1.01378e-08
1.01377e-08
1.01379e-08
1.01377e-08
1.01379e-08
1.01378e-08
1.01381e-08
1.01378e-08
1.01383e-08
1.01381e-08
1.01389e-08
1.01387e-08
1.014e-08
1.014e-08
1.0142e-08
1.01424e-08
1.01455e-08
1.01457e-08
1.0149e-08
1.01442e-08
1.01365e-08
1.01109e-08
1.00609e-08
9.99353e-09
9.69102e-09
9.75457e-09
9.80173e-09
9.82579e-09
9.83284e-09
9.83724e-09
9.83406e-09
9.83379e-09
9.83077e-09
9.83032e-09
9.82844e-09
9.82833e-09
9.82717e-09
9.82727e-09
9.82655e-09
9.82674e-09
9.82629e-09
9.82651e-09
9.82622e-09
9.82638e-09
9.82619e-09
9.82629e-09
9.82618e-09
9.82624e-09
9.8262e-09
9.8262e-09
9.82624e-09
9.82618e-09
9.82629e-09
9.82619e-09
9.82638e-09
9.82622e-09
9.82651e-09
9.8263e-09
9.82675e-09
9.82656e-09
9.82727e-09
9.82717e-09
9.82833e-09
9.82844e-09
9.83032e-09
9.83076e-09
9.83378e-09
9.83405e-09
9.83723e-09
9.83283e-09
9.82578e-09
9.80172e-09
9.75457e-09
9.69101e-09
9.40442e-09
9.46436e-09
9.5088e-09
9.5314e-09
9.53783e-09
9.54184e-09
9.53875e-09
9.5384e-09
9.53551e-09
9.53503e-09
9.53322e-09
9.53309e-09
9.53198e-09
9.53205e-09
9.53137e-09
9.53155e-09
9.53112e-09
9.53132e-09
9.53105e-09
9.5312e-09
9.53102e-09
9.53111e-09
9.53101e-09
9.53106e-09
9.53103e-09
9.53103e-09
9.53106e-09
9.53101e-09
9.53111e-09
9.53102e-09
9.5312e-09
9.53105e-09
9.53132e-09
9.53112e-09
9.53155e-09
9.53138e-09
9.53206e-09
9.53198e-09
9.53309e-09
9.53322e-09
9.53503e-09
9.5355e-09
9.5384e-09
9.53875e-09
9.54184e-09
9.53782e-09
9.53139e-09
9.50879e-09
9.46435e-09
9.40442e-09
9.13257e-09
9.18897e-09
9.23103e-09
9.25214e-09
9.25799e-09
9.26163e-09
9.25863e-09
9.25821e-09
9.25543e-09
9.25492e-09
9.25319e-09
9.25303e-09
9.25197e-09
9.25203e-09
9.25138e-09
9.25154e-09
9.25113e-09
9.25132e-09
9.25106e-09
9.2512e-09
9.25103e-09
9.25112e-09
9.25102e-09
9.25107e-09
9.25104e-09
9.25104e-09
9.25107e-09
9.25102e-09
9.25112e-09
9.25103e-09
9.2512e-09
9.25106e-09
9.25132e-09
9.25113e-09
9.25154e-09
9.25138e-09
9.25203e-09
9.25198e-09
9.25303e-09
9.25319e-09
9.25492e-09
9.25543e-09
9.2582e-09
9.25862e-09
9.26162e-09
9.25798e-09
9.25213e-09
9.23101e-09
9.18897e-09
9.13256e-09
8.8744e-09
8.9275e-09
8.96721e-09
8.98694e-09
8.99225e-09
8.99553e-09
8.99261e-09
8.99213e-09
8.98947e-09
8.98894e-09
8.98727e-09
8.9871e-09
8.98609e-09
8.98613e-09
8.98551e-09
8.98566e-09
8.98527e-09
8.98545e-09
8.9852e-09
8.98533e-09
8.98517e-09
8.98526e-09
8.98516e-09
8.98521e-09
8.98518e-09
8.98518e-09
8.98521e-09
8.98516e-09
8.98526e-09
8.98517e-09
8.98533e-09
8.9852e-09
8.98545e-09
8.98527e-09
8.98566e-09
8.98552e-09
8.98614e-09
8.98609e-09
8.9871e-09
8.98728e-09
8.98894e-09
8.98947e-09
8.99213e-09
8.99261e-09
8.99552e-09
8.99224e-09
8.98693e-09
8.9672e-09
8.92749e-09
8.87439e-09
8.62897e-09
8.67898e-09
8.71639e-09
8.73484e-09
8.73965e-09
8.74257e-09
8.73975e-09
8.73921e-09
8.73666e-09
8.73611e-09
8.73451e-09
8.73433e-09
8.73336e-09
8.73339e-09
8.7328e-09
8.73293e-09
8.73256e-09
8.73273e-09
8.73249e-09
8.73262e-09
8.73247e-09
8.73255e-09
8.73246e-09
8.7325e-09
8.73248e-09
8.73248e-09
8.7325e-09
8.73246e-09
8.73255e-09
8.73247e-09
8.73262e-09
8.73249e-09
8.73273e-09
8.73256e-09
8.73293e-09
8.7328e-09
8.73339e-09
8.73336e-09
8.73433e-09
8.73452e-09
8.73611e-09
8.73666e-09
8.73921e-09
8.73974e-09
8.74257e-09
8.73964e-09
8.73483e-09
8.71638e-09
8.67898e-09
8.62896e-09
8.39543e-09
8.44254e-09
8.47768e-09
8.49496e-09
8.4993e-09
8.50188e-09
8.49914e-09
8.49856e-09
8.49611e-09
8.49555e-09
8.49402e-09
8.49382e-09
8.4929e-09
8.49292e-09
8.49235e-09
8.49248e-09
8.49213e-09
8.49228e-09
8.49206e-09
8.49218e-09
8.49203e-09
8.49211e-09
8.49203e-09
8.49207e-09
8.49204e-09
8.49204e-09
8.49207e-09
8.49203e-09
8.49211e-09
8.49203e-09
8.49218e-09
8.49206e-09
8.49228e-09
8.49213e-09
8.49248e-09
8.49236e-09
8.49292e-09
8.4929e-09
8.49382e-09
8.49402e-09
8.49555e-09
8.49611e-09
8.49855e-09
8.49913e-09
8.50187e-09
8.49929e-09
8.49495e-09
8.47767e-09
8.44254e-09
8.39542e-09
8.17297e-09
8.21737e-09
8.25029e-09
8.26648e-09
8.27038e-09
8.27263e-09
8.26998e-09
8.26936e-09
8.26702e-09
8.26645e-09
8.26499e-09
8.26478e-09
8.2639e-09
8.26391e-09
8.26337e-09
8.26348e-09
8.26315e-09
8.2633e-09
8.26309e-09
8.2632e-09
8.26306e-09
8.26314e-09
8.26305e-09
8.2631e-09
8.26307e-09
8.26307e-09
8.2631e-09
8.26306e-09
8.26314e-09
8.26306e-09
8.2632e-09
8.26309e-09
8.2633e-09
8.26315e-09
8.26349e-09
8.26337e-09
8.26391e-09
8.2639e-09
8.26478e-09
8.26499e-09
8.26644e-09
8.26702e-09
8.26935e-09
8.26997e-09
8.27263e-09
8.27038e-09
8.26647e-09
8.25028e-09
8.21736e-09
8.17297e-09
7.96088e-09
8.0027e-09
8.03344e-09
8.04864e-09
8.05215e-09
8.05407e-09
8.05151e-09
8.05085e-09
8.04862e-09
8.04804e-09
8.04665e-09
8.04643e-09
8.0456e-09
8.04559e-09
8.04509e-09
8.04519e-09
8.04488e-09
8.04501e-09
8.04481e-09
8.04492e-09
8.04479e-09
8.04486e-09
8.04479e-09
8.04482e-09
8.0448e-09
8.0448e-09
8.04482e-09
8.04479e-09
8.04486e-09
8.04479e-09
8.04492e-09
8.04482e-09
8.04501e-09
8.04488e-09
8.04519e-09
8.04509e-09
8.0456e-09
8.0456e-09
8.04643e-09
8.04665e-09
8.04804e-09
8.04862e-09
8.05085e-09
8.0515e-09
8.05406e-09
8.05214e-09
8.04863e-09
8.03344e-09
8.00269e-09
7.96087e-09
7.76534e-09
7.80502e-09
7.83367e-09
7.84806e-09
7.85119e-09
7.85281e-09
7.8503e-09
7.84963e-09
7.84749e-09
7.84691e-09
7.84558e-09
7.84535e-09
7.84455e-09
7.84454e-09
7.84406e-09
7.84416e-09
7.84386e-09
7.84399e-09
7.8438e-09
7.8439e-09
7.84377e-09
7.84384e-09
7.84377e-09
7.84381e-09
7.84378e-09
7.84378e-09
7.84381e-09
7.84377e-09
7.84384e-09
7.84378e-09
7.8439e-09
7.8438e-09
7.84399e-09
7.84386e-09
7.84416e-09
7.84406e-09
7.84455e-09
7.84455e-09
7.84535e-09
7.84558e-09
7.84691e-09
7.84749e-09
7.84962e-09
7.8503e-09
7.8528e-09
7.85118e-09
7.84805e-09
7.83367e-09
7.80501e-09
7.76533e-09
7.57616e-09
7.61395e-09
7.64e-09
7.65329e-09
7.65562e-09
7.65664e-09
7.65396e-09
7.65313e-09
7.65097e-09
7.65032e-09
7.64898e-09
7.64873e-09
7.64792e-09
7.64789e-09
7.64741e-09
7.6475e-09
7.6472e-09
7.64732e-09
7.64713e-09
7.64723e-09
7.6471e-09
7.64717e-09
7.6471e-09
7.64713e-09
7.64711e-09
7.64711e-09
7.64713e-09
7.6471e-09
7.64717e-09
7.6471e-09
7.64723e-09
7.64713e-09
7.64732e-09
7.6472e-09
7.6475e-09
7.64741e-09
7.6479e-09
7.64792e-09
7.64873e-09
7.64898e-09
7.65032e-09
7.65096e-09
7.65313e-09
7.65395e-09
7.65663e-09
7.65561e-09
7.65328e-09
7.63999e-09
7.61394e-09
7.57616e-09
7.39228e-09
7.42794e-09
7.45197e-09
7.46448e-09
7.46649e-09
7.46717e-09
7.46457e-09
7.46372e-09
7.46165e-09
7.46101e-09
7.45973e-09
7.45947e-09
7.4587e-09
7.45867e-09
7.45821e-09
7.45829e-09
7.458e-09
7.45812e-09
7.45794e-09
7.45803e-09
7.45792e-09
7.45798e-09
7.45791e-09
7.45794e-09
7.45792e-09
7.45792e-09
7.45794e-09
7.45791e-09
7.45798e-09
7.45792e-09
7.45803e-09
7.45794e-09
7.45812e-09
7.45801e-09
7.45829e-09
7.45821e-09
7.45867e-09
7.4587e-09
7.45947e-09
7.45973e-09
7.461e-09
7.46165e-09
7.46371e-09
7.46456e-09
7.46716e-09
7.46649e-09
7.46447e-09
7.45196e-09
7.42793e-09
7.39228e-09
7.21658e-09
7.25019e-09
7.27234e-09
7.28409e-09
7.28581e-09
7.28613e-09
7.28361e-09
7.28274e-09
7.28078e-09
7.28013e-09
7.27892e-09
7.27865e-09
7.27792e-09
7.27789e-09
7.27745e-09
7.27752e-09
7.27725e-09
7.27736e-09
7.27719e-09
7.27728e-09
7.27717e-09
7.27723e-09
7.27716e-09
7.2772e-09
7.27718e-09
7.27718e-09
7.2772e-09
7.27717e-09
7.27723e-09
7.27717e-09
7.27728e-09
7.27719e-09
7.27736e-09
7.27725e-09
7.27752e-09
7.27745e-09
7.27789e-09
7.27792e-09
7.27865e-09
7.27892e-09
7.28013e-09
7.28077e-09
7.28274e-09
7.28361e-09
7.28613e-09
7.28581e-09
7.28408e-09
7.27233e-09
7.25018e-09
7.21657e-09
7.04854e-09
7.08014e-09
7.10061e-09
7.1116e-09
7.11306e-09
7.11301e-09
7.11057e-09
7.10968e-09
7.10781e-09
7.10717e-09
7.10602e-09
7.10575e-09
7.10506e-09
7.10502e-09
7.10461e-09
7.10467e-09
7.10442e-09
7.10452e-09
7.10436e-09
7.10444e-09
7.10434e-09
7.1044e-09
7.10434e-09
7.10437e-09
7.10435e-09
7.10435e-09
7.10437e-09
7.10434e-09
7.1044e-09
7.10434e-09
7.10444e-09
7.10436e-09
7.10452e-09
7.10442e-09
7.10467e-09
7.10461e-09
7.10502e-09
7.10506e-09
7.10575e-09
7.10602e-09
7.10717e-09
7.10781e-09
7.10968e-09
7.11056e-09
7.113e-09
7.11305e-09
7.11159e-09
7.10061e-09
7.08013e-09
7.04854e-09
6.88768e-09
6.91735e-09
6.93622e-09
6.94648e-09
6.94771e-09
6.94726e-09
6.94491e-09
6.94402e-09
6.94224e-09
6.94161e-09
6.94052e-09
6.94025e-09
6.9396e-09
6.93955e-09
6.93916e-09
6.93922e-09
6.93899e-09
6.93908e-09
6.93893e-09
6.93901e-09
6.93891e-09
6.93896e-09
6.93891e-09
6.93894e-09
6.93892e-09
6.93892e-09
6.93894e-09
6.93891e-09
6.93896e-09
6.93891e-09
6.93901e-09
6.93893e-09
6.93908e-09
6.93899e-09
6.93922e-09
6.93917e-09
6.93955e-09
6.9396e-09
6.94025e-09
6.94052e-09
6.94161e-09
6.94224e-09
6.94401e-09
6.9449e-09
6.94726e-09
6.94771e-09
6.94647e-09
6.93622e-09
6.91734e-09
6.88768e-09
6.73863e-09
6.76661e-09
6.78406e-09
6.79365e-09
6.79466e-09
6.79379e-09
6.7915e-09
6.7906e-09
6.78891e-09
6.78829e-09
6.78725e-09
6.78699e-09
6.78637e-09
6.78632e-09
6.78595e-09
6.786e-09
6.78578e-09
6.78587e-09
6.78573e-09
6.7858e-09
6.78571e-09
6.78576e-09
6.78571e-09
6.78574e-09
6.78572e-09
6.78572e-09
6.78574e-09
6.78571e-09
6.78576e-09
6.78571e-09
6.7858e-09
6.78573e-09
6.78587e-09
6.78578e-09
6.78601e-09
6.78595e-09
6.78632e-09
6.78637e-09
6.78699e-09
6.78725e-09
6.78829e-09
6.78891e-09
6.7906e-09
6.79149e-09
6.79378e-09
6.79465e-09
6.79364e-09
6.78405e-09
6.7666e-09
6.73862e-09
6.59601e-09
6.62236e-09
6.63852e-09
6.64744e-09
6.64826e-09
6.64692e-09
6.64469e-09
6.64369e-09
6.64188e-09
6.64116e-09
6.64006e-09
6.63975e-09
6.6391e-09
6.63903e-09
6.63864e-09
6.63869e-09
6.63845e-09
6.63853e-09
6.63839e-09
6.63846e-09
6.63836e-09
6.63841e-09
6.63836e-09
6.63839e-09
6.63837e-09
6.63837e-09
6.63839e-09
6.63836e-09
6.63841e-09
6.63836e-09
6.63846e-09
6.63839e-09
6.63853e-09
6.63845e-09
6.63869e-09
6.63865e-09
6.63903e-09
6.6391e-09
6.63975e-09
6.64006e-09
6.64116e-09
6.64187e-09
6.64368e-09
6.64469e-09
6.64691e-09
6.64826e-09
6.64743e-09
6.63851e-09
6.62235e-09
6.59601e-09
6.45549e-09
6.48029e-09
6.49506e-09
6.50325e-09
6.5038e-09
6.50177e-09
6.49954e-09
6.49848e-09
6.4967e-09
6.49596e-09
6.49489e-09
6.49456e-09
6.49393e-09
6.49385e-09
6.49347e-09
6.49351e-09
6.49328e-09
6.49336e-09
6.49322e-09
6.49329e-09
6.4932e-09
6.49324e-09
6.49319e-09
6.49322e-09
6.4932e-09
6.4932e-09
6.49322e-09
6.49319e-09
6.49324e-09
6.4932e-09
6.49329e-09
6.49322e-09
6.49336e-09
6.49328e-09
6.49351e-09
6.49347e-09
6.49385e-09
6.49393e-09
6.49456e-09
6.49488e-09
6.49596e-09
6.4967e-09
6.49847e-09
6.49954e-09
6.50176e-09
6.50379e-09
6.50325e-09
6.49506e-09
6.48027e-09
6.45549e-09
6.32006e-09
6.34319e-09
6.35676e-09
6.36433e-09
6.3648e-09
6.36669e-09
6.36455e-09
6.36348e-09
6.36177e-09
6.36104e-09
6.36e-09
6.35968e-09
6.35907e-09
6.35899e-09
6.35863e-09
6.35866e-09
6.35845e-09
6.35852e-09
6.35838e-09
6.35845e-09
6.35836e-09
6.35841e-09
6.35836e-09
6.35838e-09
6.35837e-09
6.35837e-09
6.35838e-09
6.35836e-09
6.35841e-09
6.35836e-09
6.35845e-09
6.35839e-09
6.35852e-09
6.35845e-09
6.35866e-09
6.35863e-09
6.35899e-09
6.35907e-09
6.35968e-09
6.36e-09
6.36103e-09
6.36176e-09
6.36348e-09
6.36455e-09
6.36668e-09
6.3648e-09
6.36432e-09
6.35675e-09
6.34318e-09
6.32005e-09
6.19407e-09
6.2158e-09
6.22815e-09
6.23521e-09
6.23557e-09
6.23709e-09
6.23503e-09
6.23395e-09
6.23231e-09
6.23158e-09
6.23058e-09
6.23026e-09
6.22968e-09
6.22959e-09
6.22925e-09
6.22928e-09
6.22907e-09
6.22914e-09
6.22902e-09
6.22908e-09
6.229e-09
6.22904e-09
6.22899e-09
6.22902e-09
6.229e-09
6.229e-09
6.22902e-09
6.22899e-09
6.22904e-09
6.229e-09
6.22908e-09
6.22902e-09
6.22914e-09
6.22908e-09
6.22928e-09
6.22925e-09
6.2296e-09
6.22968e-09
6.23026e-09
6.23058e-09
6.23158e-09
6.2323e-09
6.23395e-09
6.23502e-09
6.23708e-09
6.23557e-09
6.2352e-09
6.22814e-09
6.21579e-09
6.19406e-09
6.07233e-09
6.09305e-09
6.10402e-09
6.11035e-09
6.11023e-09
6.11123e-09
6.10903e-09
6.10784e-09
6.10615e-09
6.10537e-09
6.10436e-09
6.10402e-09
6.10343e-09
6.10333e-09
6.10298e-09
6.103e-09
6.1028e-09
6.10286e-09
6.10273e-09
6.10279e-09
6.10271e-09
6.10275e-09
6.1027e-09
6.10273e-09
6.10271e-09
6.10271e-09
6.10273e-09
6.1027e-09
6.10275e-09
6.10271e-09
6.10279e-09
6.10273e-09
6.10286e-09
6.1028e-09
6.103e-09
6.10299e-09
6.10333e-09
6.10343e-09
6.10402e-09
6.10436e-09
6.10537e-09
6.10615e-09
6.10783e-09
6.10903e-09
6.11122e-09
6.11022e-09
6.11035e-09
6.10402e-09
6.09304e-09
6.07232e-09
5.95587e-09
5.97533e-09
5.98515e-09
5.99101e-09
5.99075e-09
5.99145e-09
5.98931e-09
5.9881e-09
5.98647e-09
5.98569e-09
5.98471e-09
5.98437e-09
5.9838e-09
5.9837e-09
5.98336e-09
5.98338e-09
5.98318e-09
5.98324e-09
5.98312e-09
5.98317e-09
5.9831e-09
5.98313e-09
5.98309e-09
5.98311e-09
5.9831e-09
5.9831e-09
5.98311e-09
5.98309e-09
5.98313e-09
5.9831e-09
5.98317e-09
5.98312e-09
5.98324e-09
5.98318e-09
5.98338e-09
5.98337e-09
5.9837e-09
5.9838e-09
5.98437e-09
5.98471e-09
5.98569e-09
5.98646e-09
5.9881e-09
5.9893e-09
5.99145e-09
5.99074e-09
5.991e-09
5.98514e-09
5.97532e-09
5.95586e-09
5.8437e-09
5.86197e-09
5.87067e-09
5.87608e-09
5.87567e-09
5.87611e-09
5.874e-09
5.87278e-09
5.87119e-09
5.87042e-09
5.86947e-09
5.86912e-09
5.86857e-09
5.86847e-09
5.86814e-09
5.86815e-09
5.86796e-09
5.86802e-09
5.8679e-09
5.86795e-09
5.86788e-09
5.86792e-09
5.86788e-09
5.8679e-09
5.86788e-09
5.86788e-09
5.8679e-09
5.86788e-09
5.86792e-09
5.86788e-09
5.86795e-09
5.8679e-09
5.86802e-09
5.86797e-09
5.86816e-09
5.86815e-09
5.86847e-09
5.86857e-09
5.86912e-09
5.86947e-09
5.87041e-09
5.87119e-09
5.87278e-09
5.874e-09
5.87611e-09
5.87567e-09
5.87607e-09
5.87066e-09
5.86196e-09
5.8437e-09
5.75675e-09
5.75679e-09
5.75672e-09
5.75676e-09
5.75672e-09
5.75674e-09
5.75673e-09
5.75673e-09
5.75674e-09
5.75672e-09
5.75676e-09
5.75673e-09
5.7568e-09
5.75675e-09
5.75686e-09
5.75681e-09
5.75699e-09
5.75699e-09
5.7573e-09
5.7574e-09
5.75794e-09
5.75829e-09
5.75921e-09
5.75998e-09
5.76153e-09
5.76277e-09
5.76485e-09
5.76466e-09
5.76522e-09
5.76026e-09
5.75261e-09
5.73551e-09
5.64932e-09
5.64929e-09
5.64935e-09
5.64931e-09
5.64941e-09
5.64937e-09
5.64955e-09
5.64954e-09
5.64985e-09
5.64996e-09
5.65048e-09
5.65083e-09
5.65172e-09
5.6525e-09
5.65402e-09
5.65528e-09
5.65734e-09
5.65739e-09
5.65811e-09
5.65361e-09
5.64694e-09
5.63097e-09
5.54762e-09
5.5484e-09
5.54989e-09
5.55117e-09
5.55323e-09
5.55351e-09
5.5544e-09
5.55036e-09
5.54463e-09
5.52975e-09
)
;

boundaryField
{
    fuel
    {
        type            fixedValue;
        value           nonuniform 0();
    }
    wall
    {
        type            zeroGradient;
    }
    outlet
    {
        type            zeroGradient;
    }
    frontAndBack
    {
        type            empty;
    }
    procBoundary0to1
    {
        type            processor;
        value           nonuniform List<scalar> 
50
(
1.9798e-08
1.99487e-08
2.00928e-08
2.01674e-08
2.01911e-08
2.02071e-08
2.01998e-08
2.02033e-08
2.0196e-08
2.0198e-08
2.01934e-08
2.0195e-08
2.01921e-08
2.01933e-08
2.01915e-08
2.01925e-08
2.01912e-08
2.01921e-08
2.01913e-08
2.01918e-08
2.01913e-08
2.01916e-08
2.01913e-08
2.01915e-08
2.01914e-08
2.01914e-08
2.01915e-08
2.01913e-08
2.01916e-08
2.01913e-08
2.01918e-08
2.01913e-08
2.01921e-08
2.01912e-08
2.01925e-08
2.01915e-08
2.01933e-08
2.01921e-08
2.0195e-08
2.01935e-08
2.0198e-08
2.0196e-08
2.02033e-08
2.01998e-08
2.02071e-08
2.01911e-08
2.01674e-08
2.00928e-08
1.99487e-08
1.9798e-08
)
;
    }
    procBoundary0to2
    {
        type            processor;
        value           nonuniform List<scalar> 
53
(
5.73552e-09
5.75262e-09
5.76027e-09
5.76523e-09
5.76467e-09
5.76486e-09
5.76278e-09
5.76154e-09
5.75998e-09
5.75921e-09
5.75829e-09
5.75794e-09
5.7574e-09
5.7573e-09
5.75698e-09
5.75699e-09
5.75681e-09
5.75686e-09
5.75686e-09
5.64931e-09
5.64935e-09
5.64929e-09
5.64932e-09
5.64928e-09
5.6493e-09
5.64929e-09
5.64929e-09
5.6493e-09
5.64928e-09
5.64928e-09
5.54525e-09
5.54522e-09
5.54528e-09
5.54524e-09
5.54534e-09
5.5453e-09
5.54547e-09
5.54547e-09
5.54577e-09
5.54588e-09
5.54639e-09
5.54674e-09
5.54674e-09
5.44655e-09
5.44734e-09
5.4488e-09
5.45011e-09
5.45217e-09
5.45267e-09
5.45374e-09
5.45017e-09
5.44533e-09
5.43151e-09
)
;
    }
}


// ************************************************************************* //
