/*--------------------------------*- C++ -*----------------------------------*\
| =========                 |                                                 |
| \\      /  F ield         | OpenFOAM: The Open Source CFD Toolbox           |
|  \\    /   O peration     | Version:  dev                                   |
|   \\  /    A nd           | Web:      www.OpenFOAM.org                      |
|    \\/     M anipulation  |                                                 |
\*---------------------------------------------------------------------------*/
FoamFile
{
    version     2.0;
    format      ascii;
    class       volScalarField;
    location    "0.1";
    object      A2C2HA*;
}
// * * * * * * * * * * * * * * * * * * * * * * * * * * * * * * * * * * * * * //

dimensions      [0 0 0 0 0 0 0];

internalField   nonuniform List<scalar> 
250
(
1.78488e-12
1.78665e-12
1.77841e-12
1.78808e-12
1.78429e-12
1.83548e-12
1.95302e-12
2.73578e-12
5.54689e-12
2.46186e-11
1.62108e-12
1.62268e-12
1.61578e-12
1.62503e-12
1.62199e-12
1.66824e-12
1.77309e-12
2.46469e-12
4.82155e-12
2.0747e-11
4.99914e-12
4.44675e-12
2.08718e-12
1.65725e-12
1.50782e-12
1.48408e-12
1.47805e-12
1.47124e-12
1.47907e-12
1.47487e-12
1.47292e-12
1.4743e-12
1.46845e-12
1.47728e-12
1.47495e-12
1.51647e-12
1.60934e-12
2.21403e-12
4.16894e-12
1.7298e-11
4.42598e-12
3.70849e-12
1.85977e-12
1.50407e-12
1.37248e-12
1.35114e-12
1.34558e-12
1.33905e-12
1.34627e-12
1.34181e-12
1.34004e-12
1.34121e-12
1.33616e-12
1.34449e-12
1.34285e-12
1.37982e-12
1.46145e-12
1.98431e-12
3.58637e-12
1.40819e-11
3.87451e-12
3.06218e-12
1.66041e-12
1.36689e-12
1.25192e-12
1.23286e-12
1.22781e-12
1.22174e-12
1.22827e-12
1.22386e-12
1.22226e-12
1.22328e-12
1.21886e-12
1.22658e-12
1.22558e-12
1.25815e-12
1.32931e-12
1.77613e-12
3.07134e-12
1.16354e-11
3.36647e-12
2.59045e-12
1.48754e-12
1.24549e-12
1.14594e-12
1.12903e-12
1.12452e-12
1.11906e-12
1.12486e-12
1.12071e-12
1.11931e-12
1.12018e-12
1.11632e-12
1.12333e-12
1.12288e-12
1.15127e-12
1.21271e-12
1.5899e-12
2.64434e-12
9.45223e-12
2.9117e-12
2.19459e-12
1.33863e-12
1.13912e-12
1.05369e-12
1.03877e-12
1.03478e-12
1.02999e-12
1.03509e-12
1.03135e-12
1.03014e-12
1.0309e-12
1.02754e-12
1.0338e-12
1.03378e-12
1.05835e-12
1.11071e-12
1.42517e-12
2.27083e-12
7.37166e-12
2.51251e-12
1.87912e-12
1.21033e-12
1.0457e-12
9.73002e-13
9.59873e-13
9.56351e-13
9.52178e-13
9.56704e-13
9.53404e-13
9.52365e-13
9.53078e-13
9.50095e-13
9.55696e-13
9.55936e-13
9.77201e-13
1.02099e-12
1.28019e-12
1.94698e-12
5.87228e-12
2.16393e-12
1.61802e-12
1.09405e-12
9.61426e-13
8.98014e-13
8.86529e-13
8.83447e-13
8.79355e-13
8.83611e-13
8.80206e-13
8.79562e-13
8.80787e-13
8.78053e-13
8.83402e-13
8.83971e-13
9.02747e-13
9.39297e-13
1.15138e-12
1.66536e-12
4.56053e-12
1.85676e-12
1.39619e-12
9.80098e-13
8.80653e-13
8.25674e-13
8.15688e-13
8.12901e-13
8.08825e-13
8.13053e-13
8.0953e-13
8.09152e-13
8.10765e-13
8.08021e-13
8.13286e-13
8.13715e-13
8.3072e-13
8.59785e-13
1.03122e-12
1.40692e-12
3.53481e-12
1.58029e-12
1.20023e-12
8.74077e-13
7.96968e-13
7.48384e-13
7.39811e-13
7.37244e-13
7.32861e-13
7.37345e-13
7.33364e-13
7.33285e-13
7.35495e-13
7.32525e-13
7.37999e-13
7.38074e-13
7.54007e-13
7.76186e-13
9.16117e-13
1.18365e-12
2.70761e-12
1.32509e-12
1.01877e-12
7.62615e-13
7.05216e-13
6.61667e-13
6.5445e-13
6.5207e-13
6.47223e-13
6.52103e-13
6.47477e-13
6.47698e-13
6.50586e-13
6.47271e-13
6.53078e-13
6.52652e-13
6.67869e-13
6.83941e-13
7.9866e-13
9.78437e-13
2.04562e-12
1.08559e-12
8.45096e-13
6.44314e-13
6.03761e-13
5.6479e-13
5.5889e-13
5.56715e-13
5.51494e-13
5.56692e-13
5.5149e-13
5.51966e-13
5.5543e-13
5.51809e-13
5.5783e-13
5.56887e-13
5.7129e-13
5.82255e-13
6.76272e-13
7.88697e-13
1.51931e-12
4.50087e-13
4.53853e-13
4.50132e-13
4.56027e-13
4.5471e-13
4.67825e-13
4.74849e-13
5.50843e-13
6.15359e-13
1.10401e-12
)
;

boundaryField
{
    fuel
    {
        type            fixedValue;
        value           nonuniform 0();
    }
    wall
    {
        type            zeroGradient;
    }
    outlet
    {
        type            zeroGradient;
    }
    frontAndBack
    {
        type            empty;
    }
    procBoundary0to1
    {
        type            processor;
        value           nonuniform List<scalar> 
21
(
8.6105e-13
6.77924e-13
5.22418e-13
4.95536e-13
4.6149e-13
4.56865e-13
4.54949e-13
4.49679e-13
4.54904e-13
4.49461e-13
4.49461e-13
3.49137e-13
3.52849e-13
3.49313e-13
3.54682e-13
3.53222e-13
3.64566e-13
3.6864e-13
4.28517e-13
4.61448e-13
7.811e-13
)
;
    }
    procBoundary0to2
    {
        type            processor;
        value           nonuniform List<scalar> 
12
(
1.7874e-12
5.56592e-12
5.2875e-12
2.34433e-12
1.82654e-12
1.65801e-12
1.63182e-12
1.62538e-12
1.61852e-12
1.62686e-12
1.62325e-12
1.62325e-12
)
;
    }
    procBoundary0to3
    {
        type            processor;
        value           nonuniform List<scalar> 10(1.96507e-12 1.96681e-12 1.95717e-12 1.96721e-12 1.96259e-12 2.01974e-12 2.14967e-12 3.07622e-12 6.35268e-12 2.91035e-11);
    }
}


// ************************************************************************* //
