/*--------------------------------*- C++ -*----------------------------------*\
| =========                 |                                                 |
| \\      /  F ield         | OpenFOAM: The Open Source CFD Toolbox           |
|  \\    /   O peration     | Version:  dev                                   |
|   \\  /    A nd           | Web:      www.OpenFOAM.org                      |
|    \\/     M anipulation  |                                                 |
\*---------------------------------------------------------------------------*/
FoamFile
{
    version     2.0;
    format      ascii;
    class       volScalarField;
    location    "0.1";
    object      CH;
}
// * * * * * * * * * * * * * * * * * * * * * * * * * * * * * * * * * * * * * //

dimensions      [0 0 0 0 0 0 0];

internalField   nonuniform List<scalar> 
2014
(
1.13296e-08
1.13873e-08
1.14473e-08
1.148e-08
1.14948e-08
1.15022e-08
1.15018e-08
1.15021e-08
1.14998e-08
1.14992e-08
1.14975e-08
1.14971e-08
1.1496e-08
1.14958e-08
1.14951e-08
1.1495e-08
1.14946e-08
1.14947e-08
1.14944e-08
1.14945e-08
1.14943e-08
1.14943e-08
1.14942e-08
1.14942e-08
1.14942e-08
1.14942e-08
1.14942e-08
1.14942e-08
1.14943e-08
1.14943e-08
1.14944e-08
1.14944e-08
1.14947e-08
1.14946e-08
1.14951e-08
1.14951e-08
1.14958e-08
1.1496e-08
1.14971e-08
1.14975e-08
1.14992e-08
1.14998e-08
1.15021e-08
1.15018e-08
1.15022e-08
1.14948e-08
1.148e-08
1.14473e-08
1.13873e-08
1.13296e-08
1.11371e-08
1.11932e-08
1.1251e-08
1.12823e-08
1.12965e-08
1.13036e-08
1.1303e-08
1.13031e-08
1.13008e-08
1.13001e-08
1.12983e-08
1.12979e-08
1.12968e-08
1.12966e-08
1.12959e-08
1.12958e-08
1.12954e-08
1.12954e-08
1.12952e-08
1.12952e-08
1.1295e-08
1.1295e-08
1.1295e-08
1.1295e-08
1.12949e-08
1.12949e-08
1.1295e-08
1.1295e-08
1.1295e-08
1.1295e-08
1.12952e-08
1.12952e-08
1.12954e-08
1.12954e-08
1.12958e-08
1.12959e-08
1.12966e-08
1.12968e-08
1.12979e-08
1.12983e-08
1.13001e-08
1.13008e-08
1.13031e-08
1.1303e-08
1.13035e-08
1.12965e-08
1.12823e-08
1.1251e-08
1.11932e-08
1.11371e-08
1.09503e-08
1.10048e-08
1.10604e-08
1.10905e-08
1.1104e-08
1.11107e-08
1.111e-08
1.11099e-08
1.11075e-08
1.11068e-08
1.1105e-08
1.11045e-08
1.11034e-08
1.11031e-08
1.11024e-08
1.11023e-08
1.11019e-08
1.11019e-08
1.11017e-08
1.11017e-08
1.11015e-08
1.11016e-08
1.11015e-08
1.11015e-08
1.11015e-08
1.11015e-08
1.11015e-08
1.11015e-08
1.11016e-08
1.11015e-08
1.11017e-08
1.11017e-08
1.11019e-08
1.11019e-08
1.11023e-08
1.11024e-08
1.11031e-08
1.11034e-08
1.11045e-08
1.1105e-08
1.11068e-08
1.11075e-08
1.11099e-08
1.111e-08
1.11107e-08
1.1104e-08
1.10905e-08
1.10604e-08
1.10048e-08
1.09503e-08
1.07679e-08
1.08211e-08
1.08744e-08
1.09033e-08
1.09162e-08
1.09225e-08
1.09216e-08
1.09214e-08
1.09189e-08
1.09181e-08
1.09163e-08
1.09157e-08
1.09146e-08
1.09143e-08
1.09136e-08
1.09135e-08
1.09131e-08
1.09131e-08
1.09128e-08
1.09129e-08
1.09127e-08
1.09127e-08
1.09126e-08
1.09126e-08
1.09126e-08
1.09126e-08
1.09126e-08
1.09126e-08
1.09127e-08
1.09127e-08
1.09129e-08
1.09128e-08
1.09131e-08
1.09131e-08
1.09135e-08
1.09136e-08
1.09143e-08
1.09146e-08
1.09157e-08
1.09163e-08
1.09181e-08
1.09189e-08
1.09214e-08
1.09216e-08
1.09224e-08
1.09162e-08
1.09033e-08
1.08744e-08
1.08211e-08
1.07679e-08
1.0589e-08
1.0641e-08
1.06923e-08
1.07199e-08
1.07321e-08
1.07379e-08
1.07369e-08
1.07365e-08
1.0734e-08
1.07331e-08
1.07313e-08
1.07307e-08
1.07295e-08
1.07292e-08
1.07285e-08
1.07284e-08
1.07279e-08
1.07279e-08
1.07277e-08
1.07277e-08
1.07275e-08
1.07275e-08
1.07274e-08
1.07275e-08
1.07274e-08
1.07274e-08
1.07275e-08
1.07274e-08
1.07275e-08
1.07275e-08
1.07277e-08
1.07277e-08
1.07279e-08
1.07279e-08
1.07284e-08
1.07285e-08
1.07292e-08
1.07295e-08
1.07307e-08
1.07313e-08
1.07331e-08
1.0734e-08
1.07365e-08
1.07369e-08
1.07379e-08
1.07321e-08
1.07199e-08
1.06923e-08
1.0641e-08
1.0589e-08
1.0413e-08
1.04638e-08
1.05131e-08
1.05394e-08
1.05509e-08
1.05563e-08
1.05551e-08
1.05546e-08
1.0552e-08
1.0551e-08
1.05491e-08
1.05485e-08
1.05473e-08
1.05469e-08
1.05462e-08
1.05461e-08
1.05457e-08
1.05457e-08
1.05454e-08
1.05454e-08
1.05452e-08
1.05452e-08
1.05452e-08
1.05452e-08
1.05451e-08
1.05451e-08
1.05452e-08
1.05452e-08
1.05452e-08
1.05452e-08
1.05454e-08
1.05454e-08
1.05457e-08
1.05457e-08
1.05461e-08
1.05462e-08
1.0547e-08
1.05473e-08
1.05485e-08
1.05491e-08
1.0551e-08
1.0552e-08
1.05546e-08
1.05551e-08
1.05563e-08
1.05509e-08
1.05394e-08
1.0513e-08
1.04637e-08
1.0413e-08
1.02391e-08
1.02888e-08
1.0336e-08
1.03612e-08
1.03719e-08
1.0377e-08
1.03755e-08
1.03749e-08
1.03722e-08
1.03711e-08
1.03692e-08
1.03685e-08
1.03673e-08
1.03669e-08
1.03662e-08
1.03661e-08
1.03656e-08
1.03656e-08
1.03653e-08
1.03653e-08
1.03652e-08
1.03652e-08
1.03651e-08
1.03651e-08
1.03651e-08
1.03651e-08
1.03651e-08
1.03651e-08
1.03652e-08
1.03652e-08
1.03653e-08
1.03653e-08
1.03656e-08
1.03656e-08
1.03661e-08
1.03662e-08
1.03669e-08
1.03673e-08
1.03685e-08
1.03692e-08
1.03711e-08
1.03722e-08
1.03749e-08
1.03755e-08
1.0377e-08
1.03719e-08
1.03612e-08
1.0336e-08
1.02888e-08
1.02391e-08
1.00669e-08
1.01155e-08
1.01607e-08
1.01846e-08
1.01947e-08
1.01993e-08
1.01977e-08
1.01968e-08
1.01941e-08
1.01929e-08
1.01909e-08
1.01902e-08
1.0189e-08
1.01886e-08
1.01878e-08
1.01877e-08
1.01872e-08
1.01872e-08
1.01869e-08
1.01869e-08
1.01868e-08
1.01868e-08
1.01867e-08
1.01867e-08
1.01867e-08
1.01867e-08
1.01867e-08
1.01867e-08
1.01868e-08
1.01868e-08
1.01869e-08
1.01869e-08
1.01872e-08
1.01872e-08
1.01877e-08
1.01878e-08
1.01886e-08
1.0189e-08
1.01902e-08
1.01909e-08
1.01929e-08
1.01941e-08
1.01968e-08
1.01976e-08
1.01993e-08
1.01947e-08
1.01846e-08
1.01607e-08
1.01155e-08
1.00669e-08
9.89594e-09
9.94345e-09
9.98659e-09
1.00094e-08
1.00187e-08
1.00229e-08
1.0021e-08
1.002e-08
1.00171e-08
1.00159e-08
1.00139e-08
1.00131e-08
1.00118e-08
1.00114e-08
1.00107e-08
1.00105e-08
1.001e-08
1.001e-08
1.00097e-08
1.00097e-08
1.00096e-08
1.00096e-08
1.00095e-08
1.00095e-08
1.00095e-08
1.00095e-08
1.00095e-08
1.00095e-08
1.00096e-08
1.00096e-08
1.00097e-08
1.00097e-08
1.001e-08
1.001e-08
1.00105e-08
1.00107e-08
1.00114e-08
1.00118e-08
1.00131e-08
1.00139e-08
1.00159e-08
1.00171e-08
1.002e-08
1.0021e-08
1.00229e-08
1.00186e-08
1.00093e-08
9.98658e-09
9.94344e-09
9.89593e-09
9.72574e-09
9.77215e-09
9.81326e-09
9.83488e-09
9.84343e-09
9.8472e-09
9.84507e-09
9.84391e-09
9.84099e-09
9.83963e-09
9.8376e-09
9.83676e-09
9.83549e-09
9.83505e-09
9.83428e-09
9.8341e-09
9.83364e-09
9.83359e-09
9.83332e-09
9.83331e-09
9.83315e-09
9.83315e-09
9.83305e-09
9.83306e-09
9.83303e-09
9.83303e-09
9.83306e-09
9.83305e-09
9.83315e-09
9.83314e-09
9.83331e-09
9.83332e-09
9.83359e-09
9.83364e-09
9.8341e-09
9.83429e-09
9.83506e-09
9.83549e-09
9.83676e-09
9.8376e-09
9.83963e-09
9.84099e-09
9.8439e-09
9.84507e-09
9.8472e-09
9.84343e-09
9.83487e-09
9.81325e-09
9.77214e-09
9.72573e-09
9.55601e-09
9.60129e-09
9.64039e-09
9.66087e-09
9.66868e-09
9.67199e-09
9.66962e-09
9.66828e-09
9.66527e-09
9.66383e-09
9.66175e-09
9.66087e-09
9.65957e-09
9.65911e-09
9.65833e-09
9.65813e-09
9.65766e-09
9.65761e-09
9.65733e-09
9.65732e-09
9.65715e-09
9.65715e-09
9.65705e-09
9.65706e-09
9.65703e-09
9.65703e-09
9.65706e-09
9.65705e-09
9.65715e-09
9.65715e-09
9.65732e-09
9.65733e-09
9.6576e-09
9.65766e-09
9.65813e-09
9.65833e-09
9.65911e-09
9.65957e-09
9.66087e-09
9.66175e-09
9.66383e-09
9.66527e-09
9.66828e-09
9.66962e-09
9.67199e-09
9.66867e-09
9.66086e-09
9.64037e-09
9.60128e-09
9.556e-09
9.38648e-09
9.43055e-09
9.46765e-09
9.48703e-09
9.49407e-09
9.49693e-09
9.49431e-09
9.49279e-09
9.48969e-09
9.48816e-09
9.48604e-09
9.4851e-09
9.48378e-09
9.4833e-09
9.4825e-09
9.48229e-09
9.48181e-09
9.48175e-09
9.48147e-09
9.48145e-09
9.48128e-09
9.48128e-09
9.48118e-09
9.48119e-09
9.48116e-09
9.48116e-09
9.48119e-09
9.48118e-09
9.48128e-09
9.48128e-09
9.48145e-09
9.48147e-09
9.48175e-09
9.48181e-09
9.48229e-09
9.4825e-09
9.4833e-09
9.48378e-09
9.48511e-09
9.48604e-09
9.48816e-09
9.48969e-09
9.49279e-09
9.4943e-09
9.49692e-09
9.49407e-09
9.48702e-09
9.46764e-09
9.43054e-09
9.38647e-09
9.21688e-09
9.25965e-09
9.29481e-09
9.31309e-09
9.31937e-09
9.32175e-09
9.31887e-09
9.31718e-09
9.31398e-09
9.31236e-09
9.31019e-09
9.30921e-09
9.30786e-09
9.30735e-09
9.30654e-09
9.30631e-09
9.30583e-09
9.30576e-09
9.30548e-09
9.30546e-09
9.30528e-09
9.30528e-09
9.30518e-09
9.30519e-09
9.30516e-09
9.30516e-09
9.30519e-09
9.30518e-09
9.30528e-09
9.30528e-09
9.30546e-09
9.30547e-09
9.30576e-09
9.30583e-09
9.30631e-09
9.30654e-09
9.30735e-09
9.30786e-09
9.30921e-09
9.31019e-09
9.31236e-09
9.31397e-09
9.31718e-09
9.31886e-09
9.32174e-09
9.31936e-09
9.31308e-09
9.29479e-09
9.25964e-09
9.21687e-09
9.04699e-09
9.08838e-09
9.12161e-09
9.13883e-09
9.14431e-09
9.14622e-09
9.14307e-09
9.1412e-09
9.1379e-09
9.1362e-09
9.13398e-09
9.13296e-09
9.13158e-09
9.13104e-09
9.13022e-09
9.12998e-09
9.12949e-09
9.12941e-09
9.12912e-09
9.1291e-09
9.12892e-09
9.12892e-09
9.12882e-09
9.12883e-09
9.1288e-09
9.1288e-09
9.12883e-09
9.12882e-09
9.12892e-09
9.12892e-09
9.1291e-09
9.12912e-09
9.12941e-09
9.12949e-09
9.12998e-09
9.13022e-09
9.13105e-09
9.13158e-09
9.13296e-09
9.13398e-09
9.1362e-09
9.1379e-09
9.1412e-09
9.14307e-09
9.14621e-09
9.1443e-09
9.13882e-09
9.1216e-09
9.08837e-09
9.04697e-09
8.87659e-09
8.91655e-09
8.94787e-09
8.96404e-09
8.96871e-09
8.97014e-09
8.96672e-09
8.96467e-09
8.96127e-09
8.95948e-09
8.95721e-09
8.95614e-09
8.95474e-09
8.95418e-09
8.95334e-09
8.95309e-09
8.95258e-09
8.9525e-09
8.95221e-09
8.95218e-09
8.952e-09
8.952e-09
8.9519e-09
8.9519e-09
8.95187e-09
8.95187e-09
8.9519e-09
8.9519e-09
8.952e-09
8.952e-09
8.95218e-09
8.95221e-09
8.9525e-09
8.95259e-09
8.95309e-09
8.95334e-09
8.95418e-09
8.95474e-09
8.95614e-09
8.95721e-09
8.95948e-09
8.96127e-09
8.96467e-09
8.96672e-09
8.97013e-09
8.9687e-09
8.96402e-09
8.94785e-09
8.91654e-09
8.87657e-09
8.7055e-09
8.74398e-09
8.7734e-09
8.78853e-09
8.79239e-09
8.79332e-09
8.78964e-09
8.7874e-09
8.7839e-09
8.78202e-09
8.7797e-09
8.77859e-09
8.77716e-09
8.77657e-09
8.77572e-09
8.77545e-09
8.77495e-09
8.77486e-09
8.77456e-09
8.77453e-09
8.77435e-09
8.77434e-09
8.77424e-09
8.77424e-09
8.77421e-09
8.77421e-09
8.77424e-09
8.77424e-09
8.77434e-09
8.77435e-09
8.77453e-09
8.77456e-09
8.77485e-09
8.77495e-09
8.77546e-09
8.77572e-09
8.77658e-09
8.77716e-09
8.77859e-09
8.7797e-09
8.78202e-09
8.78389e-09
8.7874e-09
8.78963e-09
8.79331e-09
8.79238e-09
8.78852e-09
8.77338e-09
8.74397e-09
8.70548e-09
8.53355e-09
8.57052e-09
8.59804e-09
8.61215e-09
8.61519e-09
8.61562e-09
8.61166e-09
8.60924e-09
8.60563e-09
8.60367e-09
8.6013e-09
8.60014e-09
8.59868e-09
8.59808e-09
8.59721e-09
8.59693e-09
8.59641e-09
8.59632e-09
8.59601e-09
8.59598e-09
8.5958e-09
8.59579e-09
8.59569e-09
8.59569e-09
8.59566e-09
8.59566e-09
8.59569e-09
8.59569e-09
8.59579e-09
8.5958e-09
8.59598e-09
8.59601e-09
8.59632e-09
8.59642e-09
8.59693e-09
8.59721e-09
8.59808e-09
8.59868e-09
8.60014e-09
8.6013e-09
8.60367e-09
8.60563e-09
8.60924e-09
8.61166e-09
8.61562e-09
8.61518e-09
8.61214e-09
8.59802e-09
8.57051e-09
8.53353e-09
8.3606e-09
8.39605e-09
8.42167e-09
8.43476e-09
8.43697e-09
8.4369e-09
8.43266e-09
8.43005e-09
8.42634e-09
8.4243e-09
8.42187e-09
8.42067e-09
8.41918e-09
8.41856e-09
8.41767e-09
8.41738e-09
8.41686e-09
8.41676e-09
8.41645e-09
8.41641e-09
8.41623e-09
8.41622e-09
8.41611e-09
8.41612e-09
8.41609e-09
8.41609e-09
8.41612e-09
8.41611e-09
8.41621e-09
8.41622e-09
8.41641e-09
8.41644e-09
8.41675e-09
8.41686e-09
8.41738e-09
8.41767e-09
8.41856e-09
8.41919e-09
8.42067e-09
8.42187e-09
8.4243e-09
8.42634e-09
8.43005e-09
8.43265e-09
8.43689e-09
8.43696e-09
8.43475e-09
8.42165e-09
8.39603e-09
8.36058e-09
8.1865e-09
8.22043e-09
8.24416e-09
8.25624e-09
8.25762e-09
8.25703e-09
8.25251e-09
8.24971e-09
8.2459e-09
8.24377e-09
8.24129e-09
8.24005e-09
8.23854e-09
8.23789e-09
8.23699e-09
8.23669e-09
8.23616e-09
8.23605e-09
8.23573e-09
8.2357e-09
8.23551e-09
8.2355e-09
8.2354e-09
8.2354e-09
8.23537e-09
8.23537e-09
8.2354e-09
8.23539e-09
8.2355e-09
8.23551e-09
8.2357e-09
8.23573e-09
8.23605e-09
8.23616e-09
8.23669e-09
8.23699e-09
8.23789e-09
8.23854e-09
8.24005e-09
8.24129e-09
8.24377e-09
8.2459e-09
8.24971e-09
8.2525e-09
8.25702e-09
8.25761e-09
8.25622e-09
8.24415e-09
8.22042e-09
8.18649e-09
8.01116e-09
8.04353e-09
8.06547e-09
8.07647e-09
8.07703e-09
8.07591e-09
8.07111e-09
8.06812e-09
8.06421e-09
8.06199e-09
8.05947e-09
8.05818e-09
8.05665e-09
8.05598e-09
8.05506e-09
8.05475e-09
8.05421e-09
8.05409e-09
8.05378e-09
8.05374e-09
8.05355e-09
8.05353e-09
8.05343e-09
8.05343e-09
8.0534e-09
8.0534e-09
8.05343e-09
8.05343e-09
8.05353e-09
8.05354e-09
8.05373e-09
8.05377e-09
8.05409e-09
8.05421e-09
8.05475e-09
8.05506e-09
8.05598e-09
8.05665e-09
8.05818e-09
8.05947e-09
8.06199e-09
8.0642e-09
8.06812e-09
8.0711e-09
8.0759e-09
8.07702e-09
8.07646e-09
8.06545e-09
8.04351e-09
8.01114e-09
7.83445e-09
7.86532e-09
7.88542e-09
7.89537e-09
7.8951e-09
7.89344e-09
7.88836e-09
7.88519e-09
7.88117e-09
7.87888e-09
7.87631e-09
7.87498e-09
7.87342e-09
7.87273e-09
7.8718e-09
7.87148e-09
7.87093e-09
7.87081e-09
7.87048e-09
7.87044e-09
7.87025e-09
7.87024e-09
7.87013e-09
7.87013e-09
7.8701e-09
7.8701e-09
7.87013e-09
7.87013e-09
7.87023e-09
7.87025e-09
7.87044e-09
7.87048e-09
7.87081e-09
7.87093e-09
7.87148e-09
7.8718e-09
7.87273e-09
7.87342e-09
7.87498e-09
7.87631e-09
7.87888e-09
7.88117e-09
7.88519e-09
7.88836e-09
7.89343e-09
7.89509e-09
7.89535e-09
7.8854e-09
7.8653e-09
7.83443e-09
7.65631e-09
7.68572e-09
7.70393e-09
7.71285e-09
7.71176e-09
7.70956e-09
7.7042e-09
7.70084e-09
7.69673e-09
7.69435e-09
7.69173e-09
7.69037e-09
7.68878e-09
7.68807e-09
7.68713e-09
7.6868e-09
7.68624e-09
7.68611e-09
7.68579e-09
7.68574e-09
7.68555e-09
7.68553e-09
7.68543e-09
7.68543e-09
7.68539e-09
7.68539e-09
7.68543e-09
7.68543e-09
7.68553e-09
7.68554e-09
7.68574e-09
7.68578e-09
7.68611e-09
7.68624e-09
7.6868e-09
7.68713e-09
7.68807e-09
7.68878e-09
7.69037e-09
7.69174e-09
7.69435e-09
7.69673e-09
7.70084e-09
7.70419e-09
7.70955e-09
7.71175e-09
7.71283e-09
7.70392e-09
7.6857e-09
7.6563e-09
7.47667e-09
7.50464e-09
7.52094e-09
7.52884e-09
7.52695e-09
7.52418e-09
7.51855e-09
7.51501e-09
7.5108e-09
7.50835e-09
7.50569e-09
7.50428e-09
7.50267e-09
7.50194e-09
7.50098e-09
7.50064e-09
7.50008e-09
7.49995e-09
7.49962e-09
7.49957e-09
7.49937e-09
7.49936e-09
7.49925e-09
7.49925e-09
7.49922e-09
7.49922e-09
7.49925e-09
7.49925e-09
7.49936e-09
7.49937e-09
7.49957e-09
7.49961e-09
7.49995e-09
7.50008e-09
7.50065e-09
7.50099e-09
7.50194e-09
7.50267e-09
7.50428e-09
7.50569e-09
7.50835e-09
7.5108e-09
7.51501e-09
7.51854e-09
7.52417e-09
7.52694e-09
7.52883e-09
7.52093e-09
7.50463e-09
7.47666e-09
7.29547e-09
7.32203e-09
7.33639e-09
7.34328e-09
7.34059e-09
7.33725e-09
7.33135e-09
7.32763e-09
7.32334e-09
7.3208e-09
7.3181e-09
7.31666e-09
7.31503e-09
7.31428e-09
7.31331e-09
7.31296e-09
7.31239e-09
7.31226e-09
7.31192e-09
7.31187e-09
7.31167e-09
7.31166e-09
7.31155e-09
7.31155e-09
7.31152e-09
7.31152e-09
7.31155e-09
7.31155e-09
7.31165e-09
7.31167e-09
7.31187e-09
7.31192e-09
7.31225e-09
7.31239e-09
7.31297e-09
7.31332e-09
7.31428e-09
7.31503e-09
7.31666e-09
7.31811e-09
7.3208e-09
7.32333e-09
7.32763e-09
7.33135e-09
7.33724e-09
7.34058e-09
7.34327e-09
7.33637e-09
7.32201e-09
7.29545e-09
7.11263e-09
7.13779e-09
7.1502e-09
7.1561e-09
7.15263e-09
7.14871e-09
7.14255e-09
7.13866e-09
7.13428e-09
7.13167e-09
7.12893e-09
7.12745e-09
7.12581e-09
7.12504e-09
7.12406e-09
7.1237e-09
7.12313e-09
7.12298e-09
7.12264e-09
7.12259e-09
7.12239e-09
7.12237e-09
7.12227e-09
7.12227e-09
7.12223e-09
7.12223e-09
7.12226e-09
7.12227e-09
7.12237e-09
7.12239e-09
7.12259e-09
7.12264e-09
7.12298e-09
7.12313e-09
7.1237e-09
7.12406e-09
7.12504e-09
7.12581e-09
7.12745e-09
7.12893e-09
7.13167e-09
7.13427e-09
7.13865e-09
7.14255e-09
7.1487e-09
7.15262e-09
7.15609e-09
7.15018e-09
7.13777e-09
7.11262e-09
6.9344e-09
6.95839e-09
6.96888e-09
6.97391e-09
6.96966e-09
6.96518e-09
6.95876e-09
6.9547e-09
6.95023e-09
6.94756e-09
6.94478e-09
6.94327e-09
6.9416e-09
6.94082e-09
6.93983e-09
6.93946e-09
6.93888e-09
6.93873e-09
6.93839e-09
6.93834e-09
6.93813e-09
6.93812e-09
6.93801e-09
6.93801e-09
6.93797e-09
6.93797e-09
6.93801e-09
6.93801e-09
6.93812e-09
6.93813e-09
6.93834e-09
6.93839e-09
6.93873e-09
6.93888e-09
6.93946e-09
6.93983e-09
6.94082e-09
6.9416e-09
6.94327e-09
6.94478e-09
6.94756e-09
6.95023e-09
6.95469e-09
6.95875e-09
6.96517e-09
6.96965e-09
6.97389e-09
6.96886e-09
6.95837e-09
6.93438e-09
6.75218e-09
6.77512e-09
6.78317e-09
6.78698e-09
6.78154e-09
6.77618e-09
6.76927e-09
6.76492e-09
6.76026e-09
6.75746e-09
6.75458e-09
6.75301e-09
6.75129e-09
6.75048e-09
6.74946e-09
6.74908e-09
6.74847e-09
6.74832e-09
6.74797e-09
6.74791e-09
6.7477e-09
6.74769e-09
6.74757e-09
6.74757e-09
6.74754e-09
6.74754e-09
6.74757e-09
6.74757e-09
6.74768e-09
6.7477e-09
6.74791e-09
6.74797e-09
6.74832e-09
6.74848e-09
6.74908e-09
6.74946e-09
6.75048e-09
6.75129e-09
6.75301e-09
6.75458e-09
6.75746e-09
6.76026e-09
6.76492e-09
6.76927e-09
6.77617e-09
6.78153e-09
6.78697e-09
6.78315e-09
6.77511e-09
6.75216e-09
6.56515e-09
6.58673e-09
6.59284e-09
6.59569e-09
6.5895e-09
6.5835e-09
6.57635e-09
6.57183e-09
6.5671e-09
6.56423e-09
6.56133e-09
6.55972e-09
6.55799e-09
6.55716e-09
6.55613e-09
6.55574e-09
6.55514e-09
6.55498e-09
6.55462e-09
6.55457e-09
6.55436e-09
6.55434e-09
6.55423e-09
6.55422e-09
6.55419e-09
6.55419e-09
6.55422e-09
6.55423e-09
6.55434e-09
6.55435e-09
6.55456e-09
6.55462e-09
6.55498e-09
6.55514e-09
6.55574e-09
6.55613e-09
6.55716e-09
6.55799e-09
6.55972e-09
6.56133e-09
6.56423e-09
6.5671e-09
6.57183e-09
6.57634e-09
6.58349e-09
6.58949e-09
6.59567e-09
6.59282e-09
6.58671e-09
6.56513e-09
6.37661e-09
6.39681e-09
6.40103e-09
6.40292e-09
6.396e-09
6.38933e-09
6.38196e-09
6.37728e-09
6.37249e-09
6.36955e-09
6.36663e-09
6.365e-09
6.36325e-09
6.36241e-09
6.36138e-09
6.36098e-09
6.36037e-09
6.36021e-09
6.35985e-09
6.35979e-09
6.35958e-09
6.35956e-09
6.35945e-09
6.35945e-09
6.35941e-09
6.35941e-09
6.35945e-09
6.35945e-09
6.35956e-09
6.35958e-09
6.35979e-09
6.35985e-09
6.36021e-09
6.36037e-09
6.36098e-09
6.36138e-09
6.36241e-09
6.36325e-09
6.365e-09
6.36663e-09
6.36955e-09
6.37249e-09
6.37728e-09
6.38195e-09
6.38932e-09
6.39599e-09
6.40291e-09
6.40101e-09
6.39679e-09
6.37659e-09
6.18658e-09
6.20538e-09
6.20777e-09
6.2087e-09
6.20107e-09
6.19371e-09
6.18613e-09
6.1813e-09
6.17646e-09
6.17347e-09
6.17052e-09
6.16886e-09
6.16711e-09
6.16626e-09
6.16522e-09
6.16482e-09
6.16421e-09
6.16404e-09
6.16368e-09
6.16362e-09
6.16341e-09
6.16339e-09
6.16328e-09
6.16328e-09
6.16324e-09
6.16324e-09
6.16327e-09
6.16328e-09
6.16339e-09
6.16341e-09
6.16362e-09
6.16368e-09
6.16404e-09
6.16421e-09
6.16482e-09
6.16522e-09
6.16626e-09
6.16712e-09
6.16887e-09
6.17053e-09
6.17347e-09
6.17646e-09
6.1813e-09
6.18613e-09
6.19371e-09
6.20106e-09
6.20868e-09
6.20776e-09
6.20536e-09
6.18655e-09
5.99507e-09
6.01245e-09
6.01307e-09
6.01304e-09
6.00475e-09
5.99666e-09
5.98889e-09
5.98391e-09
5.97903e-09
5.97599e-09
5.97303e-09
5.97135e-09
5.9696e-09
5.96873e-09
5.96769e-09
5.96728e-09
5.96667e-09
5.9665e-09
5.96614e-09
5.96608e-09
5.96587e-09
5.96585e-09
5.96574e-09
5.96573e-09
5.9657e-09
5.9657e-09
5.96573e-09
5.96573e-09
5.96584e-09
5.96587e-09
5.96608e-09
5.96614e-09
5.9665e-09
5.96667e-09
5.96728e-09
5.96769e-09
5.96873e-09
5.9696e-09
5.97135e-09
5.97303e-09
5.97598e-09
5.97903e-09
5.98391e-09
5.98888e-09
5.99665e-09
6.00474e-09
6.01302e-09
6.01306e-09
6.01243e-09
5.99505e-09
5.80852e-09
5.8247e-09
5.8236e-09
5.8227e-09
5.81376e-09
5.80492e-09
5.79696e-09
5.79186e-09
5.78694e-09
5.78385e-09
5.78089e-09
5.77919e-09
5.77743e-09
5.77655e-09
5.77551e-09
5.7751e-09
5.77449e-09
5.77432e-09
5.77396e-09
5.77389e-09
5.77368e-09
5.77366e-09
5.77355e-09
5.77354e-09
5.77351e-09
5.77351e-09
5.77354e-09
5.77355e-09
5.77366e-09
5.77368e-09
5.77389e-09
5.77395e-09
5.77431e-09
5.77449e-09
5.7751e-09
5.77552e-09
5.77655e-09
5.77743e-09
5.77919e-09
5.78089e-09
5.78385e-09
5.78693e-09
5.79185e-09
5.79695e-09
5.80491e-09
5.81375e-09
5.82268e-09
5.82358e-09
5.82468e-09
5.8085e-09
5.62107e-09
5.63605e-09
5.63326e-09
5.63152e-09
5.62199e-09
5.61232e-09
5.6042e-09
5.59884e-09
5.59362e-09
5.59036e-09
5.58724e-09
5.58546e-09
5.58362e-09
5.58271e-09
5.58162e-09
5.58119e-09
5.58055e-09
5.58037e-09
5.57999e-09
5.57993e-09
5.57971e-09
5.57969e-09
5.57957e-09
5.57957e-09
5.57953e-09
5.57953e-09
5.57957e-09
5.57957e-09
5.57968e-09
5.5797e-09
5.57993e-09
5.57999e-09
5.58037e-09
5.58055e-09
5.58119e-09
5.58162e-09
5.58271e-09
5.58362e-09
5.58546e-09
5.58724e-09
5.59035e-09
5.59362e-09
5.59884e-09
5.6042e-09
5.61231e-09
5.62197e-09
5.63151e-09
5.63324e-09
5.63603e-09
5.62105e-09
5.42733e-09
5.44112e-09
5.43655e-09
5.43381e-09
5.42355e-09
5.41279e-09
5.40444e-09
5.39888e-09
5.39357e-09
5.39022e-09
5.38707e-09
5.38526e-09
5.3834e-09
5.38247e-09
5.38137e-09
5.38093e-09
5.38029e-09
5.3801e-09
5.37973e-09
5.37966e-09
5.37944e-09
5.37942e-09
5.3793e-09
5.3793e-09
5.37926e-09
5.37926e-09
5.3793e-09
5.3793e-09
5.37942e-09
5.37944e-09
5.37966e-09
5.37973e-09
5.3801e-09
5.38029e-09
5.38093e-09
5.38137e-09
5.38247e-09
5.3834e-09
5.38526e-09
5.38708e-09
5.39022e-09
5.39357e-09
5.39888e-09
5.40443e-09
5.41278e-09
5.42354e-09
5.4338e-09
5.43653e-09
5.4411e-09
5.42731e-09
5.23182e-09
5.24415e-09
5.23808e-09
5.23444e-09
5.22374e-09
5.21856e-09
5.21011e-09
5.20445e-09
5.19912e-09
5.19574e-09
5.19259e-09
5.19076e-09
5.1889e-09
5.18797e-09
5.18687e-09
5.18643e-09
5.18579e-09
5.1856e-09
5.18523e-09
5.18516e-09
5.18494e-09
5.18492e-09
5.1848e-09
5.1848e-09
5.18476e-09
5.18476e-09
5.1848e-09
5.1848e-09
5.18492e-09
5.18494e-09
5.18516e-09
5.18523e-09
5.1856e-09
5.18579e-09
5.18643e-09
5.18687e-09
5.18797e-09
5.1889e-09
5.19076e-09
5.19259e-09
5.19574e-09
5.19911e-09
5.20444e-09
5.2101e-09
5.21855e-09
5.22373e-09
5.23443e-09
5.23806e-09
5.24413e-09
5.2318e-09
5.04183e-09
5.0529e-09
5.04539e-09
5.04094e-09
5.02976e-09
5.02397e-09
5.01542e-09
5.00967e-09
5.00433e-09
5.00093e-09
4.99778e-09
4.99595e-09
4.99409e-09
4.99316e-09
4.99206e-09
4.99162e-09
4.99098e-09
4.9908e-09
4.99042e-09
4.99035e-09
4.99014e-09
4.99011e-09
4.99e-09
4.99e-09
4.98996e-09
4.98996e-09
4.98999e-09
4.99e-09
4.99011e-09
4.99013e-09
4.99035e-09
4.99042e-09
4.9908e-09
4.99098e-09
4.99162e-09
4.99207e-09
4.99316e-09
4.9941e-09
4.99595e-09
4.99778e-09
5.00093e-09
5.00433e-09
5.00967e-09
5.01541e-09
5.02396e-09
5.02975e-09
5.04092e-09
5.04537e-09
5.05288e-09
5.04181e-09
4.85038e-09
4.86068e-09
4.85158e-09
4.84593e-09
4.83368e-09
4.82701e-09
4.81807e-09
4.81207e-09
4.80657e-09
4.80306e-09
4.79984e-09
4.79796e-09
4.79607e-09
4.79511e-09
4.794e-09
4.79355e-09
4.79289e-09
4.7927e-09
4.79232e-09
4.79225e-09
4.79203e-09
4.79201e-09
4.79189e-09
4.79189e-09
4.79185e-09
4.79185e-09
4.79189e-09
4.79189e-09
4.79201e-09
4.79203e-09
4.79225e-09
4.79232e-09
4.7927e-09
4.79289e-09
4.79355e-09
4.794e-09
4.79512e-09
4.79607e-09
4.79796e-09
4.79984e-09
4.80306e-09
4.80657e-09
4.81207e-09
4.81807e-09
4.827e-09
4.83366e-09
4.84591e-09
4.85156e-09
4.86066e-09
4.85036e-09
4.65986e-09
4.6689e-09
4.65854e-09
4.6521e-09
4.63936e-09
4.6322e-09
4.62319e-09
4.61711e-09
4.61162e-09
4.6081e-09
4.60489e-09
4.60301e-09
4.60112e-09
4.60017e-09
4.59906e-09
4.59861e-09
4.59796e-09
4.59777e-09
4.59739e-09
4.59732e-09
4.5971e-09
4.59708e-09
4.59696e-09
4.59696e-09
4.59692e-09
4.59692e-09
4.59696e-09
4.59696e-09
4.59708e-09
4.5971e-09
4.59732e-09
4.59739e-09
4.59777e-09
4.59796e-09
4.59862e-09
4.59907e-09
4.60018e-09
4.60113e-09
4.60301e-09
4.60489e-09
4.6081e-09
4.61162e-09
4.61711e-09
4.62318e-09
4.63219e-09
4.63935e-09
4.65208e-09
4.65852e-09
4.66888e-09
4.65983e-09
4.46944e-09
4.47725e-09
4.46572e-09
4.4585e-09
4.4453e-09
4.4377e-09
4.42863e-09
4.4225e-09
4.41702e-09
4.41349e-09
4.41031e-09
4.40843e-09
4.40656e-09
4.40561e-09
4.40451e-09
4.40406e-09
4.40341e-09
4.40323e-09
4.40285e-09
4.40278e-09
4.40256e-09
4.40254e-09
4.40242e-09
4.40242e-09
4.40239e-09
4.40238e-09
4.40242e-09
4.40242e-09
4.40254e-09
4.40256e-09
4.40278e-09
4.40285e-09
4.40323e-09
4.40342e-09
4.40407e-09
4.40451e-09
4.40562e-09
4.40657e-09
4.40843e-09
4.41031e-09
4.4135e-09
4.41702e-09
4.4225e-09
4.42862e-09
4.43769e-09
4.44529e-09
4.45849e-09
4.4657e-09
4.47722e-09
4.46941e-09
4.20898e-09
4.20891e-09
4.20869e-09
4.20867e-09
4.20856e-09
4.20856e-09
4.20852e-09
4.20852e-09
4.20855e-09
4.20856e-09
4.20867e-09
4.20869e-09
4.20891e-09
4.20898e-09
4.20935e-09
4.20954e-09
4.21018e-09
4.21063e-09
4.21172e-09
4.21266e-09
4.21452e-09
4.21639e-09
4.21954e-09
4.22307e-09
4.22851e-09
4.23468e-09
4.24379e-09
4.25175e-09
4.26541e-09
4.27333e-09
4.28597e-09
4.27937e-09
4.01578e-09
4.0158e-09
4.01602e-09
4.01608e-09
4.01646e-09
4.01664e-09
4.01728e-09
4.01772e-09
4.0188e-09
4.01973e-09
4.02156e-09
4.02342e-09
4.02654e-09
4.03006e-09
4.03546e-09
4.04165e-09
4.05079e-09
4.05904e-09
4.07314e-09
4.08172e-09
4.0954e-09
4.08998e-09
3.83483e-09
3.83832e-09
3.84366e-09
3.84986e-09
3.859e-09
3.86749e-09
3.882e-09
3.89118e-09
3.90583e-09
3.90155e-09
)
;

boundaryField
{
    fuel
    {
        type            fixedValue;
        value           nonuniform 0();
    }
    wall
    {
        type            zeroGradient;
    }
    outlet
    {
        type            zeroGradient;
    }
    frontAndBack
    {
        type            empty;
    }
    procBoundary0to1
    {
        type            processor;
        value           nonuniform List<scalar> 
50
(
1.1529e-08
1.15887e-08
1.16508e-08
1.16849e-08
1.17003e-08
1.17081e-08
1.17078e-08
1.17083e-08
1.1706e-08
1.17055e-08
1.17038e-08
1.17034e-08
1.17023e-08
1.17022e-08
1.17015e-08
1.17015e-08
1.1701e-08
1.17011e-08
1.17008e-08
1.17009e-08
1.17007e-08
1.17007e-08
1.17006e-08
1.17007e-08
1.17006e-08
1.17006e-08
1.17007e-08
1.17006e-08
1.17007e-08
1.17007e-08
1.17009e-08
1.17008e-08
1.17011e-08
1.1701e-08
1.17015e-08
1.17015e-08
1.17022e-08
1.17023e-08
1.17034e-08
1.17038e-08
1.17055e-08
1.1706e-08
1.17083e-08
1.17078e-08
1.17081e-08
1.17003e-08
1.16849e-08
1.16508e-08
1.15887e-08
1.1529e-08
)
;
    }
    procBoundary0to2
    {
        type            processor;
        value           nonuniform List<scalar> 
53
(
4.27939e-09
4.28599e-09
4.27335e-09
4.26542e-09
4.25176e-09
4.2438e-09
4.23468e-09
4.22852e-09
4.22307e-09
4.21954e-09
4.21638e-09
4.21451e-09
4.21266e-09
4.21172e-09
4.21062e-09
4.21018e-09
4.20954e-09
4.20935e-09
4.20935e-09
4.01609e-09
4.01602e-09
4.0158e-09
4.01579e-09
4.01567e-09
4.01567e-09
4.01563e-09
4.01563e-09
4.01567e-09
4.01567e-09
4.01567e-09
3.8242e-09
3.82422e-09
3.82443e-09
3.8245e-09
3.82487e-09
3.82505e-09
3.82568e-09
3.82611e-09
3.82718e-09
3.8281e-09
3.82991e-09
3.83174e-09
3.83174e-09
3.64474e-09
3.64821e-09
3.65348e-09
3.65966e-09
3.66877e-09
3.67744e-09
3.69234e-09
3.70204e-09
3.71759e-09
3.71442e-09
)
;
    }
}


// ************************************************************************* //
