/*--------------------------------*- C++ -*----------------------------------*\
| =========                 |                                                 |
| \\      /  F ield         | OpenFOAM: The Open Source CFD Toolbox           |
|  \\    /   O peration     | Version:  dev                                   |
|   \\  /    A nd           | Web:      www.OpenFOAM.org                      |
|    \\/     M anipulation  |                                                 |
\*---------------------------------------------------------------------------*/
FoamFile
{
    version     2.0;
    format      ascii;
    class       volScalarField;
    location    "0.1";
    object      naphthyne;
}
// * * * * * * * * * * * * * * * * * * * * * * * * * * * * * * * * * * * * * //

dimensions      [0 0 0 0 0 0 0];

internalField   nonuniform List<scalar> 
250
(
1.02063e-09
1.01833e-09
1.0155e-09
1.01809e-09
1.01758e-09
1.04218e-09
1.13079e-09
1.67117e-09
4.94245e-09
2.84087e-08
9.91658e-10
9.89058e-10
9.87069e-10
9.89066e-10
9.89193e-10
1.01068e-09
1.09415e-09
1.57607e-09
4.35558e-09
2.43733e-08
6.76528e-09
3.82959e-09
1.43153e-09
1.07849e-09
9.9227e-10
9.75423e-10
9.73185e-10
9.74909e-10
9.76232e-10
9.7935e-10
9.7752e-10
9.7455e-10
9.7335e-10
9.74718e-10
9.75514e-10
9.94103e-10
1.07303e-09
1.5018e-09
3.85803e-09
2.07055e-08
5.9639e-09
3.30129e-09
1.38136e-09
1.06809e-09
9.91475e-10
9.75497e-10
9.7353e-10
9.75771e-10
9.76483e-10
9.79887e-10
9.78134e-10
9.74772e-10
9.74293e-10
9.74997e-10
9.76497e-10
9.9237e-10
1.06732e-09
1.44791e-09
3.44285e-09
1.72302e-08
5.24104e-09
2.87267e-09
1.35299e-09
1.07314e-09
1.00531e-09
9.90087e-10
9.88388e-10
9.91223e-10
9.91288e-10
9.95118e-10
9.93433e-10
9.89684e-10
9.89877e-10
9.89885e-10
9.92121e-10
1.00545e-09
1.07692e-09
1.4139e-09
3.10226e-09
1.45562e-08
4.61911e-09
2.58741e-09
1.34504e-09
1.09334e-09
1.03345e-09
1.01887e-09
1.01742e-09
1.02088e-09
1.0203e-09
1.02465e-09
1.02303e-09
1.01892e-09
1.01975e-09
1.01907e-09
1.02205e-09
1.03305e-09
1.10146e-09
1.39901e-09
2.84284e-09
1.21613e-08
4.10393e-09
2.3742e-09
1.35525e-09
1.12767e-09
1.07478e-09
1.06076e-09
1.05952e-09
1.06356e-09
1.06239e-09
1.06725e-09
1.06571e-09
1.06133e-09
1.06273e-09
1.06143e-09
1.06514e-09
1.07413e-09
1.13972e-09
1.40168e-09
2.63554e-09
9.88173e-09
3.69011e-09
2.22755e-09
1.38024e-09
1.17381e-09
1.12682e-09
1.11328e-09
1.11219e-09
1.11665e-09
1.11504e-09
1.12031e-09
1.11887e-09
1.11434e-09
1.11622e-09
1.11448e-09
1.11883e-09
1.12632e-09
1.18903e-09
1.41913e-09
2.47218e-09
8.24672e-09
3.3638e-09
2.12643e-09
1.41624e-09
1.22763e-09
1.18663e-09
1.17362e-09
1.17253e-09
1.17748e-09
1.17559e-09
1.18142e-09
1.17992e-09
1.17502e-09
1.17717e-09
1.17509e-09
1.17965e-09
1.18616e-09
1.24468e-09
1.44682e-09
2.34207e-09
6.82683e-09
3.1064e-09
2.05574e-09
1.45739e-09
1.28273e-09
1.24471e-09
1.23214e-09
1.23101e-09
1.23573e-09
1.23401e-09
1.23965e-09
1.23835e-09
1.23378e-09
1.23596e-09
1.23413e-09
1.23892e-09
1.24537e-09
1.29992e-09
1.47882e-09
2.22942e-09
5.72226e-09
2.89757e-09
2.00068e-09
1.48857e-09
1.33116e-09
1.29452e-09
1.28241e-09
1.28117e-09
1.28522e-09
1.28405e-09
1.28905e-09
1.28804e-09
1.28417e-09
1.2861e-09
1.28492e-09
1.2897e-09
1.29682e-09
1.3468e-09
1.50623e-09
2.13252e-09
4.83274e-09
2.71802e-09
1.94816e-09
1.50523e-09
1.36511e-09
1.32874e-09
1.31716e-09
1.31576e-09
1.31882e-09
1.31851e-09
1.32251e-09
1.32188e-09
1.31897e-09
1.32041e-09
1.32021e-09
1.32473e-09
1.33303e-09
1.37795e-09
1.52159e-09
2.03765e-09
4.11649e-09
2.55247e-09
1.88849e-09
1.50233e-09
1.37916e-09
1.34278e-09
1.33188e-09
1.33035e-09
1.33231e-09
1.33296e-09
1.33584e-09
1.33563e-09
1.33381e-09
1.33465e-09
1.33553e-09
1.33959e-09
1.34922e-09
1.38886e-09
1.51916e-09
1.93942e-09
3.53701e-09
1.32965e-09
1.32884e-09
1.32913e-09
1.33096e-09
1.3345e-09
1.34516e-09
1.3796e-09
1.49757e-09
1.83702e-09
3.06511e-09
)
;

boundaryField
{
    fuel
    {
        type            fixedValue;
        value           nonuniform 0();
    }
    wall
    {
        type            zeroGradient;
    }
    outlet
    {
        type            zeroGradient;
    }
    frontAndBack
    {
        type            empty;
    }
    procBoundary0to1
    {
        type            processor;
        value           nonuniform List<scalar> 
21
(
2.39199e-09
1.81728e-09
1.47947e-09
1.37242e-09
1.33664e-09
1.3266e-09
1.32501e-09
1.32604e-09
1.32754e-09
1.32944e-09
1.32944e-09
1.3089e-09
1.30884e-09
1.30881e-09
1.31123e-09
1.31434e-09
1.3254e-09
1.35503e-09
1.46049e-09
1.734e-09
2.67968e-09
)
;
    }
    procBoundary0to2
    {
        type            processor;
        value           nonuniform List<scalar> 
12
(
1.02274e-09
7.61061e-09
4.47405e-09
1.50484e-09
1.10446e-09
1.00774e-09
9.89899e-10
9.87396e-10
9.88708e-10
9.90583e-10
9.93592e-10
9.93592e-10
)
;
    }
    procBoundary0to3
    {
        type            processor;
        value           nonuniform List<scalar> 10(1.06472e-09 1.06255e-09 1.05895e-09 1.06205e-09 1.06094e-09 1.08907e-09 1.1833e-09 1.80696e-09 5.62644e-09 3.28982e-08);
    }
}


// ************************************************************************* //
