/*--------------------------------*- C++ -*----------------------------------*\
| =========                 |                                                 |
| \\      /  F ield         | OpenFOAM: The Open Source CFD Toolbox           |
|  \\    /   O peration     | Version:  dev                                   |
|   \\  /    A nd           | Web:      www.OpenFOAM.org                      |
|    \\/     M anipulation  |                                                 |
\*---------------------------------------------------------------------------*/
FoamFile
{
    version     2.0;
    format      ascii;
    class       volScalarField;
    location    "0.1";
    object      P2-H;
}
// * * * * * * * * * * * * * * * * * * * * * * * * * * * * * * * * * * * * * //

dimensions      [0 0 0 0 0 0 0];

internalField   nonuniform List<scalar> 
250
(
7.42115e-17
7.40216e-17
7.38103e-17
7.40013e-17
7.39717e-17
7.59065e-17
8.31857e-17
1.31274e-16
5.49324e-16
9.0442e-15
7.21144e-17
7.19042e-17
7.17586e-17
7.19054e-17
7.19247e-17
7.36171e-17
8.04362e-17
1.22981e-16
4.63132e-16
6.81662e-15
7.09777e-16
3.62736e-16
1.09781e-16
7.9182e-17
7.22749e-17
7.09437e-17
7.07692e-17
7.09163e-17
7.10143e-17
7.12716e-17
7.11317e-17
7.08967e-17
7.08114e-17
7.09133e-17
7.09834e-17
7.2454e-17
7.88645e-17
1.16428e-16
3.92366e-16
5.07336e-15
5.85885e-16
2.99782e-16
1.05182e-16
7.83949e-17
7.22503e-17
7.09894e-17
7.08339e-17
7.10144e-17
7.10701e-17
7.1344e-17
7.12119e-17
7.09523e-17
7.09204e-17
7.09779e-17
7.11004e-17
7.23699e-17
7.84132e-17
1.11514e-16
3.34865e-16
3.66407e-15
4.87111e-16
2.5021e-16
1.02268e-16
7.8684e-17
7.32175e-17
7.20185e-17
7.18803e-17
7.20955e-17
7.21102e-17
7.24067e-17
7.22824e-17
7.20018e-17
7.2017e-17
7.20326e-17
7.22076e-17
7.32983e-17
7.90056e-17
1.08113e-16
2.88674e-16
2.73372e-15
4.09458e-16
2.17728e-16
1.00806e-16
7.99323e-17
7.50574e-17
7.39136e-17
7.37899e-17
7.40355e-17
7.40147e-17
7.43341e-17
7.42185e-17
7.39242e-17
7.39795e-17
7.39601e-17
7.41852e-17
7.51251e-17
8.05134e-17
1.06052e-16
2.53683e-16
2.01617e-15
3.48941e-16
1.93193e-16
1.00474e-16
8.19421e-17
7.7565e-17
7.64723e-17
7.63586e-17
7.66233e-17
7.65781e-17
7.69131e-17
7.6808e-17
7.65112e-17
7.65975e-17
7.65564e-17
7.68253e-17
7.7652e-17
8.27172e-17
1.05072e-16
2.25401e-16
1.42904e-15
3.01984e-16
1.75536e-16
1.00862e-16
8.43988e-17
8.042e-17
7.93761e-17
7.92664e-17
7.95312e-17
7.94795e-17
7.98144e-17
7.97225e-17
7.94385e-17
7.95427e-17
7.95009e-17
7.98015e-17
8.05637e-17
8.52736e-17
1.04809e-16
2.02494e-16
1.06162e-15
2.65293e-16
1.62138e-16
1.01467e-16
8.68593e-17
8.32275e-17
8.22371e-17
8.21226e-17
8.23735e-17
8.23368e-17
8.26618e-17
8.258e-17
8.23135e-17
8.24161e-17
8.23943e-17
8.26967e-17
8.34453e-17
8.77082e-17
1.04787e-16
1.83453e-16
7.7989e-16
2.35946e-16
1.51325e-16
1.01573e-16
8.87656e-17
8.52939e-17
8.43574e-17
8.4235e-17
8.44242e-17
8.44346e-17
8.47001e-17
8.46441e-17
8.4441e-17
8.45223e-17
8.45607e-17
8.48585e-17
8.56546e-17
8.94556e-17
1.04425e-16
1.6623e-16
5.84584e-16
2.11461e-16
1.41723e-16
1.00537e-16
8.95363e-17
8.61333e-17
8.52572e-17
8.51235e-17
8.52223e-17
8.53053e-17
8.5481e-17
8.54574e-17
8.53419e-17
8.53815e-17
8.55073e-17
8.5779e-17
8.66652e-17
8.99573e-17
1.03142e-16
1.51209e-16
4.43018e-16
1.89876e-16
1.32269e-16
9.7937e-17
8.86946e-17
8.53141e-17
8.45084e-17
8.4364e-17
8.43546e-17
8.45265e-17
8.45921e-17
8.46052e-17
8.45924e-17
8.45754e-17
8.48043e-17
8.50309e-17
8.60267e-17
8.87871e-17
1.00448e-16
1.36897e-16
3.3964e-16
1.69836e-16
1.22302e-16
9.35709e-17
8.60059e-17
8.26562e-17
8.19325e-17
8.17813e-17
8.16624e-17
8.19251e-17
8.18762e-17
8.19274e-17
8.20187e-17
8.19401e-17
8.2271e-17
8.24404e-17
8.35337e-17
8.57743e-17
9.60849e-17
1.2293e-16
2.63287e-16
7.7578e-17
7.7761e-17
7.76271e-17
7.8041e-17
7.81513e-17
7.92992e-17
8.10685e-17
9.01106e-17
1.09297e-16
2.06115e-16
)
;

boundaryField
{
    fuel
    {
        type            fixedValue;
        value           nonuniform 0();
    }
    wall
    {
        type            zeroGradient;
    }
    outlet
    {
        type            zeroGradient;
    }
    frontAndBack
    {
        type            empty;
    }
    procBoundary0to1
    {
        type            processor;
        value           nonuniform List<scalar> 
21
(
1.50592e-16
1.11584e-16
8.75718e-17
8.15545e-17
7.82947e-17
7.76623e-17
7.75108e-17
7.72987e-17
7.7638e-17
7.74887e-17
7.74887e-17
7.19816e-17
7.22353e-17
7.20611e-17
7.25278e-17
7.25848e-17
7.37367e-17
7.50937e-17
8.29233e-17
9.62095e-17
1.6286e-16
)
;
    }
    procBoundary0to2
    {
        type            processor;
        value           nonuniform List<scalar> 
12
(
7.43753e-17
8.64374e-16
4.42437e-16
1.16279e-16
8.11155e-17
7.33594e-17
7.19484e-17
7.17546e-17
7.18736e-17
7.20118e-17
7.22637e-17
7.22637e-17
)
;
    }
    procBoundary0to3
    {
        type            processor;
        value           nonuniform List<scalar> 10(7.7476e-17 7.72943e-17 7.7022e-17 7.72526e-17 7.71751e-17 7.93903e-17 8.71706e-17 1.43133e-16 6.53693e-16 1.19176e-14);
    }
}


// ************************************************************************* //
