/*--------------------------------*- C++ -*----------------------------------*\
| =========                 |                                                 |
| \\      /  F ield         | OpenFOAM: The Open Source CFD Toolbox           |
|  \\    /   O peration     | Version:  dev                                   |
|   \\  /    A nd           | Web:      www.OpenFOAM.org                      |
|    \\/     M anipulation  |                                                 |
\*---------------------------------------------------------------------------*/
FoamFile
{
    version     2.0;
    format      ascii;
    class       volScalarField;
    location    "0.1";
    object      T;
}
// * * * * * * * * * * * * * * * * * * * * * * * * * * * * * * * * * * * * * //

dimensions      [0 0 0 1 0 0 0];

internalField   nonuniform List<scalar> 
250
(
2008.76
2009.08
2008.73
2009.39
2009.36
2009.55
2009.81
2000.42
1964.47
1870.61
2001.29
2001.67
2001.26
2002.02
2002
2002.27
2003.05
1994.2
1964.36
1886.09
1927.38
1961.99
1988.19
1991.51
1996.17
1992.09
1994.46
1992.05
1993.47
1992.35
1992.66
1993.11
1992.64
1993.51
1993.49
1993.85
1995.15
1987.09
1962.71
1897.45
1917.8
1954.73
1979.77
1981.87
1986.8
1982.05
1984.76
1982
1983.63
1982.34
1982.7
1983.23
1982.67
1983.67
1983.66
1984.12
1985.95
1978.63
1959.04
1904.87
1908.26
1946.55
1970
1970.72
1975.98
1970.47
1973.57
1970.41
1972.29
1970.8
1971.21
1971.83
1971.18
1972.32
1972.32
1972.89
1975.24
1968.61
1953.19
1908.5
1898.48
1936.67
1958.65
1957.83
1963.48
1957.14
1960.68
1957.06
1959.22
1957.52
1957.98
1958.69
1957.95
1959.24
1959.23
1959.94
1962.82
1956.82
1945.73
1908.45
1888.07
1924.43
1945.47
1942.95
1949.08
1941.8
1945.85
1941.71
1944.18
1942.24
1942.77
1943.59
1942.74
1944.18
1944.18
1945.04
1948.41
1943.03
1935.92
1904.78
1876.61
1911.15
1930.16
1925.79
1931.62
1924.2
1928.82
1924.11
1926.92
1924.72
1925.31
1926.25
1925.27
1926.9
1926.89
1927.91
1931.78
1926.97
1923.52
1897.49
1863.42
1895.47
1912.41
1906.1
1912.43
1904.05
1909.02
1903.95
1907.15
1904.65
1905.31
1906.4
1905.28
1907.09
1907.07
1907.81
1912.61
1907.63
1908.25
1886.52
1848.49
1876.31
1891.12
1883.55
1890.42
1881.03
1886.64
1880.94
1884.54
1881.74
1882.46
1883.7
1882.43
1884.44
1884.41
1885.26
1890.62
1885.56
1889.86
1871.74
1830.54
1854.52
1867.32
1857.8
1865.23
1854.8
1861.08
1854.71
1858.76
1855.62
1856.41
1857.83
1856.38
1858.61
1858.56
1859.51
1865.44
1860.63
1868.01
1852.98
1809.86
1829.04
1839.95
1828.46
1836.46
1824.98
1831.96
1824.9
1829.43
1825.93
1826.79
1828.39
1826.76
1829.21
1829.14
1830.18
1836.7
1832.04
1842.34
1829.79
1785.26
1799.42
1808.56
1795.12
1803.7
1791.17
1798.87
1791.11
1796.14
1792.25
1793.2
1795
1793.17
1795.83
1795.75
1796.85
1803.95
1799.37
1812.42
1802.18
1755.18
1757.2
1755.15
1758.05
1757.95
1759.09
1766.72
1762.17
1777.78
1769.58
)
;

boundaryField
{
    fuel
    {
        type            fixedValue;
        value           nonuniform 0();
    }
    wall
    {
        type            fixedValue;
        value           nonuniform 0();
    }
    outlet
    {
        type            inletOutlet;
        inletValue      uniform 353;
        value           nonuniform List<scalar> 
25
(
1926.41
1916.84
1907.36
1897.66
1887.35
1876.04
1862.83
1848.07
1830.3
1809.73
1785.24
1871.58
1886.96
1898.21
1905.52
1909.04
1908.89
1905.14
1897.76
1886.72
1871.88
1853.07
1829.85
1802.21
1769.58
)
;
    }
    frontAndBack
    {
        type            empty;
    }
    procBoundary0to1
    {
        type            processor;
        value           nonuniform List<scalar> 
21
(
1756.13
1765.14
1772.66
1757.3
1766.48
1752.92
1761.36
1752.89
1758.44
1754.16
1754.16
1712.25
1714.51
1712.22
1715.36
1715.24
1716.39
1724.52
1719.95
1737.9
1731.51
)
;
    }
    procBoundary0to2
    {
        type            processor;
        value           nonuniform List<scalar> 
12
(
2008.52
1937.14
1969.21
1995.46
1999.84
2004.27
2000.78
2002.85
2000.76
2001.99
2001.02
2001.02
)
;
    }
    procBoundary0to3
    {
        type            processor;
        value           nonuniform List<scalar> 10(2015.22 2015.49 2015.19 2015.76 2015.73 2015.84 2016.01 2005.33 1963.2 1850.85);
    }
}


// ************************************************************************* //
