/*--------------------------------*- C++ -*----------------------------------*\
| =========                 |                                                 |
| \\      /  F ield         | OpenFOAM: The Open Source CFD Toolbox           |
|  \\    /   O peration     | Version:  dev                                   |
|   \\  /    A nd           | Web:      www.OpenFOAM.org                      |
|    \\/     M anipulation  |                                                 |
\*---------------------------------------------------------------------------*/
FoamFile
{
    version     2.0;
    format      ascii;
    class       volVectorField;
    location    "0.02";
    object      U;
}
// * * * * * * * * * * * * * * * * * * * * * * * * * * * * * * * * * * * * * //

dimensions      [0 1 -1 0 0 0 0];

internalField   nonuniform List<vector> 
13
(
(-1.70964e-05 -1.54195e-11 0.112272)
(-1.57083e-05 -1.57582e-11 0.113091)
(-1.43223e-05 -1.61596e-11 0.113906)
(-1.29233e-05 -1.45407e-11 0.114753)
(-1.15488e-05 -1.28789e-11 0.115612)
(-1.01751e-05 -1.12069e-11 0.116345)
(-8.83156e-06 -9.60247e-12 0.117047)
(-7.49705e-06 -8.03702e-12 0.117594)
(-6.18085e-06 -6.52121e-12 0.117898)
(-4.82306e-06 -4.99551e-12 0.118131)
(-3.49615e-06 -3.54455e-12 0.119473)
(-2.28141e-06 -2.24114e-12 0.125353)
(-1.35366e-06 -1.27541e-12 0.139167)
)
;

boundaryField
{
    front
    {
        type            wedge;
    }
    back
    {
        type            wedge;
    }
    wall
    {
        type            zeroGradient;
    }
    fuel
    {
        type            fixedValue;
        value           nonuniform 0();
    }
    outlet
    {
        type            pressureInletOutletVelocity;
        value           uniform (-1.35366e-06 -1.27541e-12 0.139167);
    }
    axis
    {
        type            empty;
    }
    procBoundary7to6
    {
        type            processor;
        value           uniform (-1.84568e-05 -1.4997e-11 0.111512);
    }
}


// ************************************************************************* //
