/*--------------------------------*- C++ -*----------------------------------*\
| =========                 |                                                 |
| \\      /  F ield         | OpenFOAM: The Open Source CFD Toolbox           |
|  \\    /   O peration     | Version:  dev                                   |
|   \\  /    A nd           | Web:      www.OpenFOAM.org                      |
|    \\/     M anipulation  |                                                 |
\*---------------------------------------------------------------------------*/
FoamFile
{
    version     2.0;
    format      ascii;
    class       volScalarField;
    location    "0.025";
    object      A2C2HA;
}
// * * * * * * * * * * * * * * * * * * * * * * * * * * * * * * * * * * * * * //

dimensions      [0 0 0 0 0 0 0];

internalField   nonuniform List<scalar> 
1989
(
1.05235e-09
1.04866e-09
1.04524e-09
1.04204e-09
1.03923e-09
1.03653e-09
1.03444e-09
1.03231e-09
1.03073e-09
1.02917e-09
1.02809e-09
1.02719e-09
1.02659e-09
1.02627e-09
1.02626e-09
1.02657e-09
1.02717e-09
1.02804e-09
1.02911e-09
1.03063e-09
1.0322e-09
1.0343e-09
1.03638e-09
1.03904e-09
1.04184e-09
1.04498e-09
1.04837e-09
1.052e-09
1.0565e-09
1.06081e-09
1.06502e-09
1.06919e-09
1.07347e-09
1.0776e-09
1.08153e-09
1.08624e-09
1.0901e-09
1.09364e-09
1.09742e-09
1.09292e-09
1.08833e-09
1.08415e-09
1.07984e-09
1.0747e-09
1.07057e-09
1.06628e-09
1.06191e-09
1.05772e-09
1.05348e-09
1.04921e-09
1.04509e-09
1.04146e-09
1.0381e-09
1.03497e-09
1.03221e-09
1.02957e-09
1.0275e-09
1.0254e-09
1.02385e-09
1.02231e-09
1.02124e-09
1.02035e-09
1.01975e-09
1.01944e-09
1.01943e-09
1.01973e-09
1.02032e-09
1.02118e-09
1.02225e-09
1.02374e-09
1.02529e-09
1.02735e-09
1.02942e-09
1.03202e-09
1.03476e-09
1.03784e-09
1.04117e-09
1.04476e-09
1.04914e-09
1.0534e-09
1.0576e-09
1.06177e-09
1.06612e-09
1.07036e-09
1.07451e-09
1.07962e-09
1.08391e-09
1.08807e-09
1.0926e-09
1.08582e-09
1.08054e-09
1.07576e-09
1.07105e-09
1.06549e-09
1.06116e-09
1.05686e-09
1.05243e-09
1.04825e-09
1.04404e-09
1.03985e-09
1.03578e-09
1.03222e-09
1.02894e-09
1.02586e-09
1.02316e-09
1.02058e-09
1.01854e-09
1.01648e-09
1.01494e-09
1.01343e-09
1.01236e-09
1.01148e-09
1.0109e-09
1.01058e-09
1.01057e-09
1.01087e-09
1.01145e-09
1.0123e-09
1.01336e-09
1.01483e-09
1.01636e-09
1.01838e-09
1.02042e-09
1.02296e-09
1.02566e-09
1.02868e-09
1.03193e-09
1.03548e-09
1.03975e-09
1.04395e-09
1.04813e-09
1.0523e-09
1.05671e-09
1.06104e-09
1.06532e-09
1.07085e-09
1.07555e-09
1.0803e-09
1.08553e-09
1.0766e-09
1.07071e-09
1.06535e-09
1.06027e-09
1.05443e-09
1.0499e-09
1.04552e-09
1.04105e-09
1.03688e-09
1.03271e-09
1.02859e-09
1.02458e-09
1.02109e-09
1.01788e-09
1.01486e-09
1.01221e-09
1.00969e-09
1.00768e-09
1.00566e-09
1.00415e-09
1.00265e-09
1.00161e-09
1.00073e-09
1.00016e-09
9.99842e-10
9.99833e-10
1.00013e-09
1.0007e-09
1.00154e-09
1.00258e-09
1.00403e-09
1.00554e-09
1.00752e-09
1.00953e-09
1.01202e-09
1.01465e-09
1.01762e-09
1.0208e-09
1.0243e-09
1.02846e-09
1.03261e-09
1.03676e-09
1.04092e-09
1.04538e-09
1.04979e-09
1.05428e-09
1.06008e-09
1.06516e-09
1.07049e-09
1.07633e-09
1.06544e-09
1.05885e-09
1.05294e-09
1.04749e-09
1.04142e-09
1.03669e-09
1.03223e-09
1.02772e-09
1.02357e-09
1.01945e-09
1.01543e-09
1.01147e-09
1.00805e-09
1.00493e-09
1.00198e-09
9.9939e-10
9.96932e-10
9.94947e-10
9.92984e-10
9.91491e-10
9.9002e-10
9.88995e-10
9.88137e-10
9.87568e-10
9.87259e-10
9.87249e-10
9.87543e-10
9.88102e-10
9.88927e-10
9.89942e-10
9.91375e-10
9.92854e-10
9.94789e-10
9.96764e-10
9.99193e-10
1.00177e-09
1.00467e-09
1.00777e-09
1.01121e-09
1.01527e-09
1.01935e-09
1.02346e-09
1.0276e-09
1.0321e-09
1.03658e-09
1.04129e-09
1.04733e-09
1.05277e-09
1.05867e-09
1.0652e-09
1.05219e-09
1.04504e-09
1.03866e-09
1.03294e-09
1.02696e-09
1.02207e-09
1.01756e-09
1.01302e-09
1.0089e-09
1.00482e-09
1.00087e-09
9.96963e-10
9.93615e-10
9.90564e-10
9.87674e-10
9.85142e-10
9.82738e-10
9.80784e-10
9.78863e-10
9.77394e-10
9.75942e-10
9.7494e-10
9.74093e-10
9.73535e-10
9.73229e-10
9.73219e-10
9.73508e-10
9.74056e-10
9.74865e-10
9.75862e-10
9.77273e-10
9.7873e-10
9.80623e-10
9.82568e-10
9.84945e-10
9.87465e-10
9.90309e-10
9.93339e-10
9.96721e-10
1.00069e-09
1.00471e-09
1.00878e-09
1.0129e-09
1.01744e-09
1.02196e-09
1.02684e-09
1.03279e-09
1.03851e-09
1.04489e-09
1.05197e-09
1.03726e-09
1.03e-09
1.02319e-09
1.01726e-09
1.01103e-09
1.00592e-09
1.00133e-09
9.96748e-10
9.92639e-10
9.88599e-10
9.84739e-10
9.80872e-10
9.776e-10
9.74637e-10
9.71808e-10
9.6934e-10
9.66997e-10
9.65076e-10
9.63205e-10
9.61761e-10
9.60333e-10
9.59363e-10
9.58529e-10
9.57985e-10
9.57682e-10
9.57671e-10
9.57956e-10
9.58489e-10
9.59278e-10
9.60251e-10
9.61635e-10
9.63068e-10
9.64914e-10
9.66824e-10
9.69141e-10
9.71599e-10
9.74384e-10
9.77329e-10
9.80655e-10
9.84528e-10
9.88481e-10
9.92524e-10
9.96634e-10
1.00122e-09
1.00581e-09
1.01091e-09
1.01712e-09
1.02306e-09
1.02986e-09
1.03706e-09
1.02129e-09
1.01344e-09
1.00615e-09
9.99963e-10
9.9357e-10
9.88336e-10
9.83717e-10
9.79123e-10
9.75044e-10
9.71051e-10
9.67276e-10
9.63425e-10
9.60232e-10
9.57347e-10
9.5457e-10
9.52157e-10
9.49865e-10
9.47976e-10
9.46146e-10
9.44723e-10
9.43323e-10
9.42398e-10
9.41576e-10
9.41045e-10
9.40746e-10
9.40735e-10
9.41016e-10
9.41534e-10
9.42298e-10
9.4324e-10
9.44595e-10
9.46006e-10
9.47812e-10
9.49691e-10
9.51959e-10
9.54362e-10
9.57098e-10
9.59964e-10
9.63242e-10
9.67031e-10
9.70926e-10
9.74929e-10
9.79014e-10
9.83608e-10
9.88235e-10
9.93466e-10
9.99841e-10
1.00603e-09
1.01332e-09
1.02111e-09
1.00377e-09
9.95474e-10
9.87907e-10
9.81581e-10
9.75104e-10
9.69752e-10
9.65114e-10
9.60518e-10
9.5647e-10
9.52524e-10
9.48827e-10
9.44992e-10
9.4187e-10
9.39063e-10
9.36334e-10
9.33973e-10
9.31728e-10
9.29872e-10
9.28079e-10
9.26678e-10
9.25306e-10
9.2446e-10
9.23648e-10
9.23123e-10
9.22826e-10
9.22815e-10
9.23092e-10
9.23606e-10
9.24351e-10
9.25221e-10
9.26547e-10
9.27938e-10
9.29707e-10
9.31554e-10
9.33776e-10
9.36127e-10
9.38818e-10
9.41607e-10
9.44836e-10
9.48555e-10
9.52393e-10
9.56354e-10
9.60412e-10
9.65011e-10
9.69655e-10
9.75007e-10
9.81468e-10
9.87809e-10
9.9537e-10
1.00362e-09
9.85272e-10
9.76524e-10
9.68765e-10
9.62353e-10
9.56158e-10
9.50705e-10
9.46061e-10
9.41466e-10
9.37453e-10
9.33552e-10
9.29916e-10
9.26118e-10
9.23051e-10
9.20321e-10
9.17634e-10
9.15325e-10
9.13123e-10
9.11299e-10
9.0954e-10
9.0816e-10
9.06816e-10
9.05752e-10
9.04951e-10
9.04408e-10
9.04115e-10
9.04104e-10
9.04377e-10
9.04908e-10
9.05702e-10
9.06731e-10
9.08028e-10
9.09399e-10
9.11134e-10
9.12949e-10
9.15128e-10
9.1743e-10
9.20078e-10
9.22792e-10
9.25973e-10
9.29634e-10
9.33417e-10
9.37338e-10
9.41363e-10
9.45962e-10
9.50612e-10
9.56066e-10
9.62248e-10
9.68678e-10
9.76428e-10
9.85146e-10
9.66301e-10
9.57196e-10
9.49323e-10
9.42816e-10
9.36585e-10
9.31051e-10
9.26411e-10
9.21822e-10
9.1785e-10
9.1399e-10
9.10397e-10
9.06655e-10
9.03626e-10
9.00972e-10
8.98323e-10
8.96063e-10
8.93902e-10
8.9211e-10
8.90382e-10
8.89022e-10
8.87708e-10
8.86716e-10
8.85926e-10
8.85386e-10
8.85097e-10
8.85085e-10
8.85354e-10
8.85882e-10
8.86661e-10
8.87621e-10
8.8889e-10
8.90242e-10
8.91944e-10
8.93729e-10
8.95868e-10
8.98122e-10
9.00732e-10
9.03371e-10
9.06505e-10
9.10121e-10
9.1385e-10
9.17733e-10
9.21723e-10
9.26315e-10
9.30963e-10
9.36498e-10
9.42718e-10
9.49245e-10
9.5711e-10
9.66194e-10
9.46727e-10
9.37296e-10
9.29432e-10
9.22819e-10
9.16571e-10
9.10976e-10
9.06346e-10
9.0177e-10
8.97845e-10
8.94019e-10
8.90475e-10
8.8676e-10
8.83777e-10
8.80908e-10
8.78298e-10
8.76093e-10
8.73978e-10
8.72221e-10
8.70527e-10
8.69189e-10
8.6791e-10
8.66961e-10
8.66182e-10
8.65655e-10
8.65369e-10
8.65357e-10
8.65622e-10
8.66137e-10
8.66892e-10
8.6782e-10
8.69058e-10
8.70387e-10
8.72054e-10
8.73805e-10
8.759e-10
8.781e-10
8.80673e-10
8.83526e-10
8.86611e-10
8.902e-10
8.93875e-10
8.97725e-10
9.01672e-10
9.06253e-10
9.10893e-10
9.16488e-10
9.22727e-10
9.29362e-10
9.37212e-10
9.46644e-10
9.26716e-10
9.17088e-10
9.0922e-10
9.02478e-10
8.96182e-10
8.90655e-10
8.8604e-10
8.81479e-10
8.77498e-10
8.73713e-10
8.70228e-10
8.66585e-10
8.6366e-10
8.60869e-10
8.58288e-10
8.56129e-10
8.54048e-10
8.52322e-10
8.50655e-10
8.49337e-10
8.48085e-10
8.47162e-10
8.46393e-10
8.45879e-10
8.45597e-10
8.45585e-10
8.45847e-10
8.46349e-10
8.47085e-10
8.47994e-10
8.49207e-10
8.50516e-10
8.52156e-10
8.53876e-10
8.55938e-10
8.58096e-10
8.60636e-10
8.63413e-10
8.6642e-10
8.69974e-10
8.73568e-10
8.77372e-10
8.81382e-10
8.8595e-10
8.90575e-10
8.96106e-10
9.02395e-10
9.09158e-10
9.17012e-10
9.26648e-10
9.06441e-10
8.96755e-10
8.88859e-10
8.82083e-10
8.75797e-10
8.70251e-10
8.65655e-10
8.61109e-10
8.57181e-10
8.53422e-10
8.49966e-10
8.46365e-10
8.43475e-10
8.40741e-10
8.38183e-10
8.36068e-10
8.34018e-10
8.32319e-10
8.30682e-10
8.29381e-10
8.28156e-10
8.27249e-10
8.26491e-10
8.25988e-10
8.2571e-10
8.25698e-10
8.25956e-10
8.26446e-10
8.27169e-10
8.28064e-10
8.29252e-10
8.30545e-10
8.32154e-10
8.33848e-10
8.35879e-10
8.37997e-10
8.40509e-10
8.43231e-10
8.46185e-10
8.49731e-10
8.53274e-10
8.5705e-10
8.61016e-10
8.65567e-10
8.70174e-10
8.75726e-10
8.82005e-10
8.88804e-10
8.96691e-10
9.06384e-10
8.86175e-10
8.76358e-10
8.68506e-10
8.61728e-10
8.55462e-10
8.49914e-10
8.4534e-10
8.40811e-10
8.3693e-10
8.33198e-10
8.29757e-10
8.26216e-10
8.23349e-10
8.20655e-10
8.18142e-10
8.16058e-10
8.14035e-10
8.12361e-10
8.10754e-10
8.09469e-10
8.08268e-10
8.07375e-10
8.06627e-10
8.06134e-10
8.05859e-10
8.05847e-10
8.06101e-10
8.06583e-10
8.07293e-10
8.08176e-10
8.09342e-10
8.10618e-10
8.12198e-10
8.13867e-10
8.15871e-10
8.17962e-10
8.20426e-10
8.23108e-10
8.26024e-10
8.29539e-10
8.33048e-10
8.368e-10
8.40716e-10
8.45253e-10
8.49839e-10
8.55394e-10
8.61656e-10
8.68456e-10
8.76304e-10
8.86126e-10
8.6598e-10
8.56098e-10
8.48338e-10
8.41552e-10
8.35241e-10
8.29699e-10
8.25145e-10
8.20629e-10
8.16785e-10
8.13081e-10
8.09649e-10
8.06175e-10
8.03328e-10
8.0067e-10
7.98195e-10
7.9614e-10
7.9414e-10
7.9249e-10
7.90908e-10
7.89638e-10
7.88458e-10
7.87576e-10
7.86838e-10
7.86351e-10
7.8608e-10
7.86067e-10
7.86319e-10
7.86793e-10
7.87493e-10
7.88365e-10
7.89512e-10
7.90773e-10
7.92328e-10
7.93974e-10
7.95955e-10
7.98021e-10
8.00443e-10
8.0309e-10
8.05967e-10
8.09453e-10
8.1293e-10
8.16656e-10
8.20533e-10
8.25061e-10
8.29627e-10
8.35178e-10
8.41485e-10
8.48294e-10
8.56054e-10
8.65938e-10
8.45782e-10
8.36062e-10
8.28446e-10
8.21662e-10
8.15412e-10
8.09879e-10
8.0535e-10
8.00854e-10
7.97045e-10
7.93371e-10
7.89952e-10
7.86519e-10
7.83701e-10
7.81077e-10
7.78637e-10
7.7661e-10
7.74631e-10
7.73004e-10
7.7145e-10
7.70194e-10
7.69036e-10
7.68164e-10
7.67436e-10
7.66956e-10
7.66688e-10
7.66676e-10
7.66924e-10
7.67391e-10
7.68081e-10
7.68943e-10
7.7007e-10
7.71316e-10
7.72845e-10
7.74468e-10
7.76429e-10
7.78469e-10
7.80852e-10
7.83465e-10
7.86297e-10
7.89777e-10
7.93218e-10
7.96916e-10
8.00756e-10
8.05266e-10
8.09809e-10
8.15352e-10
8.216e-10
8.28407e-10
8.3602e-10
8.45749e-10
8.26072e-10
8.16557e-10
8.08941e-10
8.02169e-10
7.96005e-10
7.9048e-10
7.85975e-10
7.81501e-10
7.77722e-10
7.74079e-10
7.70677e-10
7.67265e-10
7.64483e-10
7.61891e-10
7.59482e-10
7.57484e-10
7.55521e-10
7.53917e-10
7.52388e-10
7.51146e-10
7.50008e-10
7.49146e-10
7.48429e-10
7.47954e-10
7.47689e-10
7.47677e-10
7.47922e-10
7.48383e-10
7.49064e-10
7.49915e-10
7.51024e-10
7.52255e-10
7.53761e-10
7.55361e-10
7.57305e-10
7.5932e-10
7.61669e-10
7.64251e-10
7.67032e-10
7.70521e-10
7.73923e-10
7.77593e-10
7.81402e-10
7.85892e-10
7.90412e-10
7.95948e-10
8.02112e-10
8.08908e-10
8.16521e-10
8.26047e-10
8.06867e-10
7.97482e-10
7.89914e-10
7.83172e-10
7.77094e-10
7.71586e-10
7.67104e-10
7.62653e-10
7.58899e-10
7.55289e-10
7.51905e-10
7.485e-10
7.45757e-10
7.43197e-10
7.40813e-10
7.38842e-10
7.36895e-10
7.35313e-10
7.33807e-10
7.32579e-10
7.31459e-10
7.30606e-10
7.299e-10
7.29431e-10
7.29169e-10
7.29157e-10
7.29399e-10
7.29854e-10
7.30526e-10
7.31367e-10
7.32459e-10
7.33675e-10
7.3516e-10
7.36738e-10
7.38666e-10
7.40656e-10
7.42978e-10
7.4553e-10
7.48281e-10
7.51741e-10
7.55129e-10
7.5877e-10
7.62552e-10
7.67021e-10
7.71519e-10
7.77039e-10
7.83121e-10
7.89885e-10
7.9745e-10
8.06849e-10
7.88251e-10
7.78913e-10
7.71436e-10
7.64742e-10
7.58746e-10
7.53261e-10
7.48802e-10
7.44373e-10
7.40643e-10
7.37065e-10
7.33681e-10
7.30309e-10
7.27588e-10
7.2506e-10
7.22696e-10
7.20748e-10
7.18826e-10
7.17259e-10
7.15774e-10
7.14559e-10
7.13457e-10
7.12613e-10
7.11917e-10
7.11453e-10
7.11194e-10
7.11182e-10
7.11421e-10
7.11871e-10
7.12534e-10
7.13366e-10
7.14442e-10
7.15644e-10
7.17109e-10
7.18671e-10
7.20575e-10
7.22544e-10
7.24845e-10
7.27367e-10
7.30085e-10
7.33529e-10
7.36902e-10
7.40513e-10
7.44271e-10
7.48719e-10
7.53196e-10
7.58693e-10
7.64696e-10
7.71412e-10
7.78885e-10
7.88239e-10
7.7029e-10
7.60905e-10
7.53561e-10
7.46928e-10
7.41011e-10
7.35553e-10
7.31115e-10
7.2671e-10
7.23e-10
7.19456e-10
7.1608e-10
7.12715e-10
7.10022e-10
7.0753e-10
7.0518e-10
7.03255e-10
7.01355e-10
6.99804e-10
6.98338e-10
6.97138e-10
6.96052e-10
6.95216e-10
6.9453e-10
6.94071e-10
6.93814e-10
6.93802e-10
6.94039e-10
6.94484e-10
6.95139e-10
6.95961e-10
6.97022e-10
6.98211e-10
6.99657e-10
7.01203e-10
7.03085e-10
7.05032e-10
7.0732e-10
7.09812e-10
7.12491e-10
7.15931e-10
7.1929e-10
7.22869e-10
7.26607e-10
7.31033e-10
7.3549e-10
7.40961e-10
7.46888e-10
7.53541e-10
7.6088e-10
7.70284e-10
7.52824e-10
7.43435e-10
7.36179e-10
7.29567e-10
7.23711e-10
7.18284e-10
7.13862e-10
7.09485e-10
7.05798e-10
7.02295e-10
6.98918e-10
6.95575e-10
6.92932e-10
6.9046e-10
6.88145e-10
6.8624e-10
6.84365e-10
6.82835e-10
6.81391e-10
6.80206e-10
6.79139e-10
6.78314e-10
6.77638e-10
6.77184e-10
6.7693e-10
6.76919e-10
6.77152e-10
6.77591e-10
6.78237e-10
6.79049e-10
6.80093e-10
6.81265e-10
6.8269e-10
6.84216e-10
6.86073e-10
6.88001e-10
6.90253e-10
6.92719e-10
6.9536e-10
6.98776e-10
7.02128e-10
7.05666e-10
7.09382e-10
7.13782e-10
7.18223e-10
7.23664e-10
7.29532e-10
7.36166e-10
7.43418e-10
7.52825e-10
7.35705e-10
7.26862e-10
7.19629e-10
7.13059e-10
7.07269e-10
7.01875e-10
6.9747e-10
6.93114e-10
6.89445e-10
6.85973e-10
6.82605e-10
6.79258e-10
6.76658e-10
6.74202e-10
6.71911e-10
6.70023e-10
6.68167e-10
6.66654e-10
6.65226e-10
6.64055e-10
6.63003e-10
6.62186e-10
6.61519e-10
6.6107e-10
6.60818e-10
6.60806e-10
6.61038e-10
6.61472e-10
6.62111e-10
6.62913e-10
6.63943e-10
6.65102e-10
6.66511e-10
6.68021e-10
6.69859e-10
6.71771e-10
6.74001e-10
6.76445e-10
6.79077e-10
6.82442e-10
6.85804e-10
6.89312e-10
6.93012e-10
6.97391e-10
7.01816e-10
7.07226e-10
7.13029e-10
7.19621e-10
7.26853e-10
7.35707e-10
7.19604e-10
7.10918e-10
7.03738e-10
6.97207e-10
6.91464e-10
6.86093e-10
6.81704e-10
6.77368e-10
6.73718e-10
6.70283e-10
6.66909e-10
6.63595e-10
6.61023e-10
6.5859e-10
6.56326e-10
6.54454e-10
6.5262e-10
6.51121e-10
6.49709e-10
6.48552e-10
6.47514e-10
6.46705e-10
6.46047e-10
6.45602e-10
6.45353e-10
6.45341e-10
6.4557e-10
6.46e-10
6.46631e-10
6.47425e-10
6.48442e-10
6.49587e-10
6.50981e-10
6.52477e-10
6.54293e-10
6.56186e-10
6.58395e-10
6.60812e-10
6.63425e-10
6.66744e-10
6.70117e-10
6.73586e-10
6.77266e-10
6.81626e-10
6.86037e-10
6.91425e-10
6.97182e-10
7.03735e-10
7.10918e-10
7.19607e-10
7.04211e-10
6.95593e-10
6.88494e-10
6.82015e-10
6.76326e-10
6.70986e-10
6.6661e-10
6.62296e-10
6.58661e-10
6.55268e-10
6.51856e-10
6.48605e-10
6.46037e-10
6.43624e-10
6.41378e-10
6.39525e-10
6.37711e-10
6.36227e-10
6.34829e-10
6.33686e-10
6.32662e-10
6.31862e-10
6.31212e-10
6.30771e-10
6.30524e-10
6.30512e-10
6.30739e-10
6.31165e-10
6.31789e-10
6.32574e-10
6.33578e-10
6.3471e-10
6.36089e-10
6.3757e-10
6.39366e-10
6.41242e-10
6.43434e-10
6.4583e-10
6.48438e-10
6.51691e-10
6.55105e-10
6.58528e-10
6.62194e-10
6.66534e-10
6.70933e-10
6.7629e-10
6.81996e-10
6.88496e-10
6.95608e-10
7.0421e-10
6.89511e-10
6.80859e-10
6.73833e-10
6.67455e-10
6.61812e-10
6.56504e-10
6.5214e-10
6.47846e-10
6.44224e-10
6.40848e-10
6.37451e-10
6.34239e-10
6.31671e-10
6.29278e-10
6.27047e-10
6.25216e-10
6.23421e-10
6.21954e-10
6.20568e-10
6.1944e-10
6.1843e-10
6.17637e-10
6.16995e-10
6.16559e-10
6.16314e-10
6.16302e-10
6.16527e-10
6.16948e-10
6.17565e-10
6.18342e-10
6.19334e-10
6.20451e-10
6.21818e-10
6.23283e-10
6.2506e-10
6.26914e-10
6.29095e-10
6.3147e-10
6.34077e-10
6.37283e-10
6.40693e-10
6.44091e-10
6.47745e-10
6.52066e-10
6.56453e-10
6.6178e-10
6.6744e-10
6.73841e-10
6.809e-10
6.89499e-10
6.75488e-10
6.66697e-10
6.5981e-10
6.53499e-10
6.47898e-10
6.4262e-10
6.38266e-10
6.33993e-10
6.30383e-10
6.27004e-10
6.23668e-10
6.20475e-10
6.17899e-10
6.15528e-10
6.1331e-10
6.11504e-10
6.09725e-10
6.08277e-10
6.06902e-10
6.05789e-10
6.04792e-10
6.04008e-10
6.03373e-10
6.02941e-10
6.02699e-10
6.02687e-10
6.0291e-10
6.03327e-10
6.03937e-10
6.04705e-10
6.05685e-10
6.06787e-10
6.08143e-10
6.0959e-10
6.11351e-10
6.13176e-10
6.15353e-10
6.17705e-10
6.20324e-10
6.23489e-10
6.26852e-10
6.30249e-10
6.33893e-10
6.38194e-10
6.42572e-10
6.4787e-10
6.5349e-10
6.59825e-10
6.66789e-10
6.75438e-10
6.62001e-10
6.53126e-10
6.46338e-10
6.40049e-10
6.34474e-10
6.29222e-10
6.24877e-10
6.20624e-10
6.17027e-10
6.13654e-10
6.10392e-10
6.07198e-10
6.04617e-10
6.02272e-10
6.00095e-10
5.98305e-10
5.96542e-10
5.95116e-10
5.93753e-10
5.92658e-10
5.91675e-10
5.909e-10
5.90273e-10
5.89845e-10
5.89605e-10
5.89593e-10
5.89814e-10
5.90226e-10
5.90829e-10
5.91588e-10
5.92555e-10
5.9364e-10
5.94984e-10
5.9641e-10
5.98153e-10
5.9996e-10
6.02105e-10
6.04438e-10
6.07063e-10
6.10212e-10
6.13493e-10
6.16894e-10
6.20526e-10
6.24808e-10
6.29178e-10
6.34451e-10
6.40046e-10
6.46357e-10
6.53304e-10
6.61882e-10
6.48986e-10
6.40246e-10
6.33463e-10
6.27217e-10
6.21673e-10
6.16449e-10
6.12113e-10
6.0788e-10
6.04296e-10
6.00931e-10
5.9772e-10
5.94531e-10
5.9196e-10
5.89619e-10
5.87482e-10
5.85707e-10
5.83955e-10
5.82553e-10
5.81197e-10
5.8012e-10
5.79149e-10
5.78382e-10
5.77763e-10
5.77339e-10
5.771e-10
5.77088e-10
5.77308e-10
5.77716e-10
5.78312e-10
5.79063e-10
5.80018e-10
5.81087e-10
5.82423e-10
5.83827e-10
5.85557e-10
5.87343e-10
5.89462e-10
5.91779e-10
5.94408e-10
5.97558e-10
6.00763e-10
6.04161e-10
6.07784e-10
6.12047e-10
6.16409e-10
6.21654e-10
6.27219e-10
6.33484e-10
6.40371e-10
6.48936e-10
6.36402e-10
6.27964e-10
6.21166e-10
6.14911e-10
6.09394e-10
6.04198e-10
5.9987e-10
5.95658e-10
5.92085e-10
5.88738e-10
5.85564e-10
5.82393e-10
5.79823e-10
5.77484e-10
5.75389e-10
5.73633e-10
5.71888e-10
5.70511e-10
5.69164e-10
5.68103e-10
5.67145e-10
5.66387e-10
5.65774e-10
5.65355e-10
5.65118e-10
5.65106e-10
5.65323e-10
5.65728e-10
5.66317e-10
5.6706e-10
5.68003e-10
5.69054e-10
5.70384e-10
5.71765e-10
5.73484e-10
5.75245e-10
5.77339e-10
5.7964e-10
5.823e-10
5.85398e-10
5.88564e-10
5.91951e-10
5.95563e-10
5.99807e-10
6.04162e-10
6.0938e-10
6.14919e-10
6.21193e-10
6.2805e-10
6.36405e-10
6.24306e-10
6.1606e-10
6.09265e-10
6.03005e-10
5.97505e-10
5.92339e-10
5.88016e-10
5.83828e-10
5.80269e-10
5.76949e-10
5.73792e-10
5.7066e-10
5.68074e-10
5.65762e-10
5.63705e-10
5.61964e-10
5.60232e-10
5.58876e-10
5.57542e-10
5.56498e-10
5.55551e-10
5.54803e-10
5.54197e-10
5.53782e-10
5.53547e-10
5.53535e-10
5.5375e-10
5.54151e-10
5.54733e-10
5.55467e-10
5.56399e-10
5.57436e-10
5.58749e-10
5.60109e-10
5.61818e-10
5.63554e-10
5.65629e-10
5.67897e-10
5.70573e-10
5.73641e-10
5.76771e-10
5.80134e-10
5.83735e-10
5.87956e-10
5.92307e-10
5.97496e-10
6.03019e-10
6.09299e-10
6.16122e-10
6.24346e-10
6.12673e-10
6.04564e-10
5.97811e-10
5.91561e-10
5.86078e-10
5.80949e-10
5.76627e-10
5.72466e-10
5.68918e-10
5.65634e-10
5.62494e-10
5.59377e-10
5.5678e-10
5.54488e-10
5.52476e-10
5.5075e-10
5.49026e-10
5.47692e-10
5.46371e-10
5.45342e-10
5.44406e-10
5.43667e-10
5.43067e-10
5.42656e-10
5.42423e-10
5.42411e-10
5.42625e-10
5.43022e-10
5.43598e-10
5.44322e-10
5.45245e-10
5.46266e-10
5.47567e-10
5.48902e-10
5.50607e-10
5.52317e-10
5.54371e-10
5.56609e-10
5.59304e-10
5.62351e-10
5.65454e-10
5.68783e-10
5.72376e-10
5.76571e-10
5.80921e-10
5.86074e-10
5.91581e-10
5.97851e-10
6.04613e-10
6.1274e-10
6.01748e-10
5.93698e-10
5.87003e-10
5.80759e-10
5.75294e-10
5.70192e-10
5.65878e-10
5.61739e-10
5.58205e-10
5.54966e-10
5.51798e-10
5.48733e-10
5.46153e-10
5.43842e-10
5.41882e-10
5.40174e-10
5.38452e-10
5.37144e-10
5.35831e-10
5.34819e-10
5.33895e-10
5.33164e-10
5.3257e-10
5.32163e-10
5.31932e-10
5.3192e-10
5.32132e-10
5.32526e-10
5.33095e-10
5.33811e-10
5.34724e-10
5.35729e-10
5.37021e-10
5.38328e-10
5.40032e-10
5.41715e-10
5.43743e-10
5.45988e-10
5.48635e-10
5.51699e-10
5.54786e-10
5.58071e-10
5.61652e-10
5.65825e-10
5.70169e-10
5.75295e-10
5.80785e-10
5.87049e-10
5.9374e-10
6.01834e-10
5.91307e-10
5.83433e-10
5.76727e-10
5.70493e-10
5.65043e-10
5.5997e-10
5.55663e-10
5.51547e-10
5.48026e-10
5.44847e-10
5.41628e-10
5.38593e-10
5.36068e-10
5.33734e-10
5.3182e-10
5.30132e-10
5.28412e-10
5.27129e-10
5.25819e-10
5.24826e-10
5.23911e-10
5.23189e-10
5.22601e-10
5.22199e-10
5.21968e-10
5.21956e-10
5.22168e-10
5.22557e-10
5.23121e-10
5.23828e-10
5.24732e-10
5.25718e-10
5.27008e-10
5.28289e-10
5.29986e-10
5.31656e-10
5.3365e-10
5.35903e-10
5.38487e-10
5.41553e-10
5.44668e-10
5.47894e-10
5.51462e-10
5.55614e-10
5.5995e-10
5.6505e-10
5.70525e-10
5.76779e-10
5.83476e-10
5.91405e-10
5.81481e-10
5.73731e-10
5.67016e-10
5.60823e-10
5.55387e-10
5.50341e-10
5.46006e-10
5.41915e-10
5.38405e-10
5.3525e-10
5.32042e-10
5.29021e-10
5.26545e-10
5.24213e-10
5.22323e-10
5.20648e-10
5.18948e-10
5.17678e-10
5.16384e-10
5.15402e-10
5.14496e-10
5.13784e-10
5.132e-10
5.12802e-10
5.12574e-10
5.12561e-10
5.12772e-10
5.13158e-10
5.13715e-10
5.14413e-10
5.1531e-10
5.16284e-10
5.1756e-10
5.18822e-10
5.2051e-10
5.22171e-10
5.24125e-10
5.26389e-10
5.2891e-10
5.31976e-10
5.35077e-10
5.38276e-10
5.41834e-10
5.45961e-10
5.50326e-10
5.55399e-10
5.6086e-10
5.67074e-10
5.73775e-10
5.8159e-10
5.72372e-10
5.6473e-10
5.58023e-10
5.5185e-10
5.46427e-10
5.41409e-10
5.37077e-10
5.3301e-10
5.29507e-10
5.26326e-10
5.23207e-10
5.20174e-10
5.17724e-10
5.15426e-10
5.13536e-10
5.11864e-10
5.10196e-10
5.08921e-10
5.07659e-10
5.06678e-10
5.05778e-10
5.05076e-10
5.04496e-10
5.04102e-10
5.03875e-10
5.03863e-10
5.04072e-10
5.04455e-10
5.05007e-10
5.05696e-10
5.06587e-10
5.0756e-10
5.08806e-10
5.10064e-10
5.11744e-10
5.13384e-10
5.15336e-10
5.17568e-10
5.20078e-10
5.23132e-10
5.26165e-10
5.29382e-10
5.32932e-10
5.37037e-10
5.41398e-10
5.46443e-10
5.51893e-10
5.58086e-10
5.64776e-10
5.7249e-10
5.64131e-10
5.56572e-10
5.49878e-10
5.43729e-10
5.38316e-10
5.33327e-10
5.28998e-10
5.24954e-10
5.21455e-10
5.1826e-10
5.15187e-10
5.12178e-10
5.09731e-10
5.07503e-10
5.05585e-10
5.0392e-10
5.02279e-10
5.01e-10
4.99765e-10
4.98787e-10
4.97891e-10
4.97198e-10
4.96621e-10
4.96232e-10
4.96005e-10
4.95993e-10
4.96201e-10
4.96582e-10
4.97129e-10
4.97809e-10
4.98697e-10
4.99666e-10
5.0089e-10
5.02158e-10
5.03803e-10
5.05438e-10
5.07404e-10
5.09593e-10
5.12089e-10
5.15087e-10
5.18114e-10
5.21335e-10
5.2488e-10
5.28962e-10
5.33321e-10
5.38337e-10
5.43777e-10
5.49948e-10
5.5662e-10
5.64258e-10
5.56993e-10
5.49496e-10
5.42819e-10
5.36696e-10
5.31292e-10
5.2633e-10
5.22002e-10
5.1798e-10
5.14484e-10
5.1128e-10
5.08209e-10
5.05297e-10
5.02808e-10
5.0064e-10
4.98702e-10
4.97042e-10
4.95425e-10
4.94143e-10
4.9293e-10
4.91956e-10
4.9106e-10
4.90379e-10
4.89802e-10
4.89417e-10
4.89191e-10
4.89179e-10
4.89387e-10
4.89765e-10
4.90308e-10
4.90979e-10
4.91866e-10
4.92831e-10
4.94038e-10
4.95313e-10
4.96928e-10
4.98554e-10
5.00536e-10
5.02684e-10
5.05211e-10
5.08084e-10
5.11158e-10
5.14369e-10
5.17911e-10
5.2197e-10
5.26328e-10
5.31318e-10
5.36749e-10
5.42894e-10
5.49545e-10
5.57127e-10
5.51333e-10
5.43879e-10
5.37221e-10
5.31123e-10
5.25725e-10
5.20788e-10
5.1646e-10
5.12458e-10
5.08962e-10
5.05755e-10
5.02674e-10
4.99866e-10
4.97313e-10
4.95201e-10
4.93249e-10
4.91593e-10
4.89995e-10
4.88711e-10
4.8751e-10
4.86538e-10
4.85654e-10
4.84976e-10
4.84397e-10
4.84017e-10
4.83791e-10
4.83779e-10
4.83987e-10
4.84363e-10
4.84903e-10
4.85573e-10
4.86452e-10
4.87417e-10
4.88603e-10
4.8989e-10
4.91482e-10
4.93093e-10
4.95099e-10
4.972e-10
4.9977e-10
5.02554e-10
5.05646e-10
5.08852e-10
5.12392e-10
5.16432e-10
5.20791e-10
5.25756e-10
5.31181e-10
5.37301e-10
5.4393e-10
5.51473e-10
5.47807e-10
5.40378e-10
5.33735e-10
5.27657e-10
5.22263e-10
5.17343e-10
5.13015e-10
5.09025e-10
5.05528e-10
5.02319e-10
4.99234e-10
4.9646e-10
4.93925e-10
4.91817e-10
4.89856e-10
4.88202e-10
4.86617e-10
4.85331e-10
4.84137e-10
4.83167e-10
4.8229e-10
4.81614e-10
4.81032e-10
4.80656e-10
4.8043e-10
4.80418e-10
4.80626e-10
4.81001e-10
4.8154e-10
4.82207e-10
4.83083e-10
4.84047e-10
4.85223e-10
4.86516e-10
4.88095e-10
4.8972e-10
4.91702e-10
4.93818e-10
4.96349e-10
4.99137e-10
5.022e-10
5.05421e-10
5.08962e-10
5.1299e-10
5.17349e-10
5.22297e-10
5.27718e-10
5.3382e-10
5.40432e-10
5.47952e-10
)
;

boundaryField
{
    fuel
    {
        type            fixedValue;
        value           nonuniform 0();
    }
    wall
    {
        type            zeroGradient;
    }
    outlet
    {
        type            zeroGradient;
    }
    frontAndBack
    {
        type            empty;
    }
    procBoundary3to2
    {
        type            processor;
        value           nonuniform List<scalar> 
51
(
1.05762e-09
1.05387e-09
1.05039e-09
1.04714e-09
1.04428e-09
1.04153e-09
1.03942e-09
1.03725e-09
1.03566e-09
1.03409e-09
1.03299e-09
1.03209e-09
1.03149e-09
1.03117e-09
1.03116e-09
1.03147e-09
1.03207e-09
1.03295e-09
1.03404e-09
1.03557e-09
1.03715e-09
1.03928e-09
1.04139e-09
1.0441e-09
1.04694e-09
1.05014e-09
1.05358e-09
1.05725e-09
1.06184e-09
1.06619e-09
1.07042e-09
1.07457e-09
1.07876e-09
1.08276e-09
1.08645e-09
1.09072e-09
1.09411e-09
1.09699e-09
1.09996e-09
1.09784e-09
1.09401e-09
1.09047e-09
1.08661e-09
1.08185e-09
1.07794e-09
1.07377e-09
1.06948e-09
1.0653e-09
1.06103e-09
1.0567e-09
1.0567e-09
)
;
    }
}


// ************************************************************************* //
