/*--------------------------------*- C++ -*----------------------------------*\
| =========                 |                                                 |
| \\      /  F ield         | OpenFOAM: The Open Source CFD Toolbox           |
|  \\    /   O peration     | Version:  dev                                   |
|   \\  /    A nd           | Web:      www.OpenFOAM.org                      |
|    \\/     M anipulation  |                                                 |
\*---------------------------------------------------------------------------*/
FoamFile
{
    version     2.0;
    format      ascii;
    class       volScalarField;
    location    "0.025";
    object      A2C2HB;
}
// * * * * * * * * * * * * * * * * * * * * * * * * * * * * * * * * * * * * * //

dimensions      [0 0 0 0 0 0 0];

internalField   nonuniform List<scalar> 
25
(
2.45198e-10
2.46472e-10
2.47132e-10
2.47159e-10
2.46533e-10
2.45239e-10
2.43264e-10
2.40596e-10
2.37223e-10
2.3313e-10
2.28301e-10
2.22714e-10
2.16341e-10
2.09144e-10
2.01072e-10
1.92069e-10
1.82058e-10
1.70922e-10
1.58428e-10
1.4423e-10
1.28295e-10
1.1001e-10
8.87606e-11
6.40738e-11
3.69389e-11
)
;

boundaryField
{
    wall
    {
        type            zeroGradient;
    }
    fuel
    {
        type            fixedValue;
        value           nonuniform 0();
    }
    outlet
    {
        type            inletOutlet;
        inletValue      uniform 0;
        value           uniform 3.69389e-11;
    }
    procBoundary3to2
    {
        type            processor;
        value           uniform 2.43352e-10;
    }
}


// ************************************************************************* //
