/*--------------------------------*- C++ -*----------------------------------*\
| =========                 |                                                 |
| \\      /  F ield         | OpenFOAM: The Open Source CFD Toolbox           |
|  \\    /   O peration     | Version:  dev                                   |
|   \\  /    A nd           | Web:      www.OpenFOAM.org                      |
|    \\/     M anipulation  |                                                 |
\*---------------------------------------------------------------------------*/
FoamFile
{
    version     2.0;
    format      ascii;
    class       volScalarField;
    location    "0.025";
    object      A3-1;
}
// * * * * * * * * * * * * * * * * * * * * * * * * * * * * * * * * * * * * * //

dimensions      [0 0 0 0 0 0 0];

internalField   nonuniform List<scalar> 
250
(
4.15132e-09
4.15227e-09
4.15301e-09
4.15229e-09
4.15576e-09
4.15735e-09
4.16219e-09
4.19065e-09
4.39807e-09
5.81937e-09
5.18713e-11
4.40182e-09
4.40271e-09
4.40345e-09
4.40382e-09
4.40773e-09
4.41125e-09
4.41804e-09
4.46325e-09
4.79249e-09
7.22297e-09
5.50079e-11
3.39341e-09
3.39396e-09
3.39474e-09
3.39569e-09
3.39894e-09
3.40286e-09
3.40891e-09
3.45505e-09
3.79703e-09
6.44048e-09
3.19473e-11
2.34692e-09
2.34719e-09
2.34792e-09
2.34893e-09
2.35139e-09
2.3548e-09
2.35926e-09
2.39953e-09
2.70475e-09
5.15911e-09
1.73026e-11
1.59391e-09
1.59403e-09
1.59464e-09
1.59544e-09
1.59725e-09
1.59986e-09
1.60262e-09
1.63483e-09
1.88237e-09
4.0461e-09
1.06128e-11
1.07855e-09
1.07847e-09
1.07918e-09
1.07983e-09
1.08138e-09
1.08356e-09
1.08556e-09
1.12156e-09
1.34983e-09
3.22027e-09
7.88783e-12
7.77041e-10
7.76953e-10
7.77515e-10
7.77909e-10
7.79048e-10
7.80533e-10
7.80305e-10
8.12238e-10
1.0126e-09
2.62358e-09
7.20548e-12
5.7506e-10
5.74891e-10
5.75688e-10
5.76197e-10
5.77748e-10
5.79759e-10
5.8562e-10
6.15996e-10
7.87569e-10
2.18207e-09
9.83784e-12
4.49195e-10
4.49036e-10
4.49755e-10
4.50125e-10
4.51481e-10
4.53145e-10
4.57172e-10
4.79776e-10
6.24861e-10
1.84238e-09
2.19441e-11
3.51251e-10
3.51099e-10
3.51723e-10
3.52001e-10
3.53154e-10
3.54497e-10
3.57634e-10
3.80593e-10
5.24694e-10
1.5719e-09
4.59561e-11
2.89476e-10
2.90035e-10
2.90213e-10
2.91195e-10
2.92264e-10
2.9464e-10
3.09366e-10
4.44466e-10
1.3513e-09
8.33011e-11
2.40635e-10
2.413e-10
2.4164e-10
2.42974e-10
2.4453e-10
2.48076e-10
2.63073e-10
3.82145e-10
1.16912e-09
1.20182e-10
2.02536e-10
2.0316e-10
2.03474e-10
2.04726e-10
2.06175e-10
2.09396e-10
2.246e-10
3.32663e-10
1.01759e-09
1.49862e-10
1.73262e-10
1.73856e-10
1.7416e-10
1.75355e-10
1.76748e-10
1.79734e-10
1.94252e-10
2.97278e-10
8.90773e-10
1.73797e-10
1.50334e-10
1.50906e-10
1.51211e-10
1.52369e-10
1.5373e-10
1.56569e-10
1.70346e-10
2.64869e-10
7.83545e-10
1.93678e-10
1.32052e-10
1.3261e-10
1.32924e-10
1.34062e-10
1.35408e-10
1.38167e-10
1.5117e-10
2.36749e-10
6.88298e-10
2.09016e-10
1.17221e-10
1.1777e-10
1.181e-10
1.19233e-10
1.20591e-10
1.23292e-10
1.35527e-10
2.12462e-10
6.09788e-10
2.18399e-10
1.04981e-10
1.05528e-10
1.05876e-10
1.07019e-10
1.08413e-10
1.11067e-10
1.22563e-10
1.91194e-10
5.35599e-10
2.20919e-10
9.4707e-11
9.52573e-11
9.56205e-11
9.67892e-11
9.8227e-11
1.00861e-10
1.1165e-10
1.72437e-10
4.67696e-10
2.17163e-10
8.59346e-11
8.64945e-11
8.68625e-11
8.80765e-11
8.9559e-11
9.21831e-11
1.02316e-10
1.55865e-10
4.07848e-10
2.08901e-10
7.83163e-11
7.88927e-11
7.92434e-11
8.0526e-11
8.20409e-11
8.55552e-11
9.52152e-11
1.41245e-10
3.58535e-10
1.9828e-10
7.1584e-11
7.21852e-11
7.24794e-11
7.3855e-11
7.61647e-11
7.97091e-11
8.87255e-11
1.28279e-10
3.11087e-10
1.86952e-10
6.55194e-11
6.61559e-11
6.70551e-11
6.85272e-11
7.07943e-11
7.48599e-11
8.35222e-11
1.18145e-10
2.73786e-10
1.76075e-10
6.05743e-11
6.12546e-11
6.2124e-11
6.37759e-11
6.62488e-11
7.06694e-11
7.91046e-11
1.09412e-10
2.38377e-10
1.66002e-10
)
;

boundaryField
{
    fuel
    {
        type            fixedValue;
        value           uniform 0;
    }
    wall
    {
        type            zeroGradient;
    }
    outlet
    {
        type            zeroGradient;
    }
    frontAndBack
    {
        type            empty;
    }
    procBoundary3to0
    {
        type            processor;
        value           nonuniform List<scalar> 10(5.60525e-11 5.67878e-11 5.76951e-11 5.94957e-11 6.22256e-11 6.70208e-11 7.53732e-11 1.01997e-10 2.10094e-10 1.56945e-10);
    }
    procBoundary3to2
    {
        type            processor;
        value           nonuniform List<scalar> 
25
(
4.1534e-09
4.40408e-09
3.39535e-09
2.34843e-09
1.59505e-09
1.07945e-09
7.77721e-10
5.75862e-10
4.49899e-10
3.51842e-10
2.89605e-10
2.89605e-10
2.40773e-10
2.02662e-10
1.73379e-10
1.50444e-10
1.32156e-10
1.1732e-10
1.05077e-10
9.48001e-11
8.60264e-11
7.8408e-11
7.16766e-11
6.56139e-11
6.06723e-11
)
;
    }
}


// ************************************************************************* //
